/*--------------------------------*- C++ -*----------------------------------*\
| =========                 |                                                 |
| \\      /  F ield         | OpenFOAM: The Open Source CFD Toolbox           |
|  \\    /   O peration     | Version:  v2106                                 |
|   \\  /    A nd           | Website:  www.openfoam.com                      |
|    \\/     M anipulation  |                                                 |
\*---------------------------------------------------------------------------*/
FoamFile
{
    version     2.0;
    format      ascii;
    arch        "LSB;label=32;scalar=64";
    class       volVectorField;
    location    "35";
    object      flux;
}
// * * * * * * * * * * * * * * * * * * * * * * * * * * * * * * * * * * * * * //

dimensions      [0 1 -1 1 0 0 0];

internalField   nonuniform List<vector> 
4000
(
(-1.624047e-07 -1.6240469e-07 0.6547089)
(4.4655245e-07 2.9926124e-07 0.65470806)
(6.1692285e-07 1.0723644e-07 0.65471109)
(-1.6697365e-07 8.348536e-08 0.6547108)
(-1.5716656e-07 8.4643953e-08 0.65471035)
(-1.1720429e-07 8.7946816e-08 0.65471002)
(-1.1296558e-07 9.1053693e-08 0.65470974)
(-1.2499061e-07 8.8312191e-08 0.65470942)
(-1.1096024e-07 6.7497174e-08 0.65470907)
(-3.0106989e-08 3.348705e-08 0.65470887)
(2.9926124e-07 4.4655244e-07 0.65470806)
(8.5101415e-07 8.5101415e-07 0.65470985)
(2.9325902e-07 5.1606542e-07 0.65471172)
(-2.0086238e-07 4.7575209e-07 0.65471127)
(-1.5047437e-07 4.8003617e-07 0.65471082)
(-1.0758968e-07 4.9132061e-07 0.65471052)
(-1.1241752e-07 5.0616294e-07 0.65471027)
(-1.6032538e-07 5.1109629e-07 0.65470993)
(-1.9319795e-07 4.6501707e-07 0.65470939)
(-6.4117112e-08 3.3927406e-07 0.65470897)
(1.0723644e-07 6.1692284e-07 0.65471109)
(5.1606542e-07 2.9325902e-07 0.65471172)
(2.4166079e-07 2.4166078e-07 0.65471336)
(-2.030029e-07 2.3744629e-07 0.65471288)
(-1.4159804e-07 2.4327335e-07 0.65471244)
(-9.1077517e-08 2.5612971e-07 0.65471217)
(-9.3189899e-08 2.7754261e-07 0.65471197)
(-1.6613648e-07 3.049487e-07 0.65471168)
(-2.8278247e-07 3.1670168e-07 0.65471105)
(-1.1393566e-07 2.7117918e-07 0.65471025)
(8.3485358e-08 -1.6697365e-07 0.6547108)
(4.7575209e-07 -2.0086238e-07 0.65471127)
(2.3744629e-07 -2.0300291e-07 0.65471288)
(-1.992498e-07 -1.9924981e-07 0.65471239)
(-1.3179095e-07 -1.9152716e-07 0.65471197)
(-7.3320427e-08 -1.7904584e-07 0.65471174)
(-6.3598526e-08 -1.5985866e-07 0.65471159)
(-1.2116631e-07 -1.3081622e-07 0.6547114)
(-2.2696748e-07 -9.0718637e-08 0.6547109)
(-9.4465446e-08 -4.798336e-08 0.65471023)
(8.4643953e-08 -1.5716655e-07 0.65471035)
(4.8003616e-07 -1.5047437e-07 0.65471082)
(2.4327335e-07 -1.4159803e-07 0.65471244)
(-1.9152716e-07 -1.3179095e-07 0.65471197)
(-1.2139407e-07 -1.2139407e-07 0.65471157)
(-5.9409015e-08 -1.0982919e-07 0.65471137)
(-4.4960281e-08 -9.6413211e-08 0.65471127)
(-9.6996457e-08 -8.0369431e-08 0.65471113)
(-1.9994962e-07 -6.1838872e-08 0.6547107)
(-8.5445479e-08 -4.4544713e-08 0.6547101)
(8.7946817e-08 -1.1720429e-07 0.65471002)
(4.9132061e-07 -1.0758968e-07 0.65471052)
(2.5612971e-07 -9.1077511e-08 0.65471217)
(-1.7904584e-07 -7.3320421e-08 0.65471174)
(-1.0982919e-07 -5.9409011e-08 0.65471137)
(-4.833957e-08 -4.8339567e-08 0.6547112)
(-3.4138769e-08 -3.9265341e-08 0.65471113)
(-8.6591974e-08 -3.1977346e-08 0.65471101)
(-1.9114276e-07 -2.6540894e-08 0.65471062)
(-8.2936007e-08 -2.3430119e-08 0.65471004)
(9.1053694e-08 -1.1296558e-07 0.65470974)
(5.0616294e-07 -1.1241753e-07 0.65471027)
(2.7754261e-07 -9.3189901e-08 0.65471197)
(-1.5985866e-07 -6.3598527e-08 0.65471159)
(-9.6413215e-08 -4.4960279e-08 0.65471127)
(-3.9265345e-08 -3.4138763e-08 0.65471113)
(-2.859806e-08 -2.8598058e-08 0.65471107)
(-8.4272009e-08 -2.7678577e-08 0.65471097)
(-1.9140239e-07 -3.0705463e-08 0.65471057)
(-8.3371629e-08 -3.5670361e-08 0.65470999)
(8.8312188e-08 -1.2499061e-07 0.65470942)
(5.1109629e-07 -1.6032539e-07 0.65470993)
(3.0494871e-07 -1.6613648e-07 0.65471168)
(-1.3081622e-07 -1.2116632e-07 0.6547114)
(-8.0369425e-08 -9.6996462e-08 0.65471113)
(-3.1977349e-08 -8.6591973e-08 0.65471101)
(-2.7678583e-08 -8.4272011e-08 0.65471097)
(-8.8699379e-08 -8.8699379e-08 0.65471086)
(-1.9913455e-07 -9.8674793e-08 0.65471044)
(-8.6245939e-08 -1.1040444e-07 0.65470984)
(6.7497177e-08 -1.1096025e-07 0.65470907)
(4.6501707e-07 -1.9319795e-07 0.65470939)
(3.1670168e-07 -2.8278248e-07 0.65471105)
(-9.0718639e-08 -2.2696749e-07 0.6547109)
(-6.1838869e-08 -1.9994962e-07 0.6547107)
(-2.6540895e-08 -1.9114277e-07 0.65471062)
(-3.0705466e-08 -1.9140239e-07 0.65471057)
(-9.8674791e-08 -1.9913455e-07 0.65471044)
(-2.1310745e-07 -2.1310745e-07 0.65470999)
(-9.1191394e-08 -2.2720613e-07 0.65470934)
(3.3487049e-08 -3.0106989e-08 0.65470887)
(3.3927406e-07 -6.4117117e-08 0.65470897)
(2.7117918e-07 -1.1393567e-07 0.65471025)
(-4.7983362e-08 -9.4465451e-08 0.65471023)
(-4.4544711e-08 -8.5445481e-08 0.6547101)
(-2.3430118e-08 -8.2936012e-08 0.65471004)
(-3.567036e-08 -8.337163e-08 0.65470999)
(-1.1040444e-07 -8.6245941e-08 0.65470984)
(-2.2720613e-07 -9.1191397e-08 0.65470934)
(-9.5645057e-08 -9.564506e-08 0.65470867)
(-3.5462752e-07 -3.5462752e-07 0.97436713)
(1.9475684e-06 8.8864438e-07 0.97436692)
(2.2595914e-06 3.0851512e-07 0.97436968)
(-6.2017606e-07 2.2179357e-07 0.97436938)
(-6.9993935e-07 2.239684e-07 0.97436882)
(-5.6091309e-07 2.3908195e-07 0.97436838)
(-5.5568665e-07 2.5444439e-07 0.97436798)
(-6.2527505e-07 2.3675383e-07 0.9743675)
(-5.0048652e-07 1.1618292e-07 0.97436689)
(-1.1311113e-07 4.2274192e-10 0.9743668)
(8.8864438e-07 1.9475684e-06 0.97436692)
(2.9422824e-06 2.9422824e-06 0.9743685)
(1.2593152e-06 1.8633274e-06 0.97437038)
(-7.4699614e-07 1.6959609e-06 0.97436993)
(-6.7400678e-07 1.707326e-06 0.97436937)
(-5.1519911e-07 1.760905e-06 0.97436897)
(-5.5917882e-07 1.834644e-06 0.97436863)
(-8.3266725e-07 1.8502046e-06 0.9743681)
(-8.5498316e-07 1.5759493e-06 0.97436708)
(-2.288713e-07 1.0559112e-06 0.9743666)
(3.0851511e-07 2.2595914e-06 0.97436968)
(1.8633274e-06 1.2593152e-06 0.97437038)
(1.0132698e-06 1.0132698e-06 0.974372)
(-7.7617748e-07 9.7185215e-07 0.9743715)
(-6.3499517e-07 9.9485802e-07 0.97437095)
(-4.3359507e-07 1.0580674e-06 0.97437061)
(-4.6638711e-07 1.1643963e-06 0.97437035)
(-8.839698e-07 1.2950371e-06 0.97436991)
(-1.2947799e-06 1.3166585e-06 0.97436877)
(-4.5980316e-07 1.079891e-06 0.97436782)
(2.2179357e-07 -6.2017606e-07 0.97436938)
(1.6959609e-06 -7.4699614e-07 0.97436993)
(9.7185214e-07 -7.7617748e-07 0.9743715)
(-7.6540795e-07 -7.6540795e-07 0.97437099)
(-5.8779157e-07 -7.2869916e-07 0.97437047)
(-3.4566082e-07 -6.6690033e-07 0.97437017)
(-3.2220908e-07 -5.7176472e-07 0.97437)
(-6.8040503e-07 -4.3024173e-07 0.97436971)
(-1.0701293e-06 -2.5018597e-07 0.97436873)
(-3.8671632e-07 -7.5856831e-08 0.97436792)
(2.239684e-07 -6.9993935e-07 0.97436882)
(1.707326e-06 -6.7400678e-07 0.97436937)
(9.9485803e-07 -6.3499516e-07 0.97437095)
(-7.2869917e-07 -5.8779157e-07 0.97437047)
(-5.3648755e-07 -5.3648754e-07 0.97436998)
(-2.7666063e-07 -4.7930556e-07 0.97436973)
(-2.297285e-07 -4.1288541e-07 0.97436963)
(-5.6239105e-07 -3.332949e-07 0.97436941)
(-9.4039499e-07 -2.4311233e-07 0.97436854)
(-3.4358374e-07 -1.5861186e-07 0.97436782)
(2.3908195e-07 -5.6091309e-07 0.97436838)
(1.760905e-06 -5.151991e-07 0.97436897)
(1.0580674e-06 -4.3359507e-07 0.97437061)
(-6.6690033e-07 -3.4566083e-07 0.97437017)
(-4.7930556e-07 -2.7666062e-07 0.97436973)
(-2.220587e-07 -2.2205869e-07 0.97436953)
(-1.7619842e-07 -1.7765297e-07 0.97436947)
(-5.1063196e-07 -1.4213187e-07 0.97436929)
(-8.9544621e-07 -1.1593165e-07 0.97436845)
(-3.3038267e-07 -1.004692e-07 0.97436777)
(2.5444439e-07 -5.5568664e-07 0.97436798)
(1.834644e-06 -5.5917882e-07 0.97436863)
(1.1643963e-06 -4.663871e-07 0.97437035)
(-5.7176472e-07 -3.2220909e-07 0.97437)
(-4.1288541e-07 -2.2972851e-07 0.97436963)
(-1.7765297e-07 -1.7619842e-07 0.97436947)
(-1.4980168e-07 -1.4980168e-07 0.97436943)
(-5.0066972e-07 -1.4727965e-07 0.97436927)
(-8.9873232e-07 -1.6560416e-07 0.97436843)
(-3.3327544e-07 -1.9553799e-07 0.97436773)
(2.3675383e-07 -6.2527506e-07 0.9743675)
(1.8502046e-06 -8.3266726e-07 0.9743681)
(1.2950371e-06 -8.8396979e-07 0.97436991)
(-4.3024173e-07 -6.8040503e-07 0.97436971)
(-3.332949e-07 -5.6239104e-07 0.97436941)
(-1.4213187e-07 -5.1063195e-07 0.97436929)
(-1.4727965e-07 -5.0066972e-07 0.97436927)
(-5.2643444e-07 -5.2643442e-07 0.97436909)
(-9.4370455e-07 -5.8198689e-07 0.9743682)
(-3.5033855e-07 -6.4834256e-07 0.97436744)
(1.1618292e-07 -5.0048653e-07 0.97436689)
(1.5759493e-06 -8.5498316e-07 0.97436708)
(1.3166585e-06 -1.2947799e-06 0.97436877)
(-2.5018597e-07 -1.0701293e-06 0.97436873)
(-2.4311233e-07 -9.4039498e-07 0.97436854)
(-1.1593165e-07 -8.9544621e-07 0.97436845)
(-1.6560415e-07 -8.9873232e-07 0.97436843)
(-5.8198688e-07 -9.4370456e-07 0.9743682)
(-1.0206405e-06 -1.0206404e-06 0.97436724)
(-3.7751256e-07 -1.0713524e-06 0.9743664)
(4.2274859e-10 -1.1311112e-07 0.9743668)
(1.0559112e-06 -2.288713e-07 0.9743666)
(1.079891e-06 -4.5980317e-07 0.97436782)
(-7.5856823e-08 -3.8671632e-07 0.97436792)
(-1.5861185e-07 -3.4358374e-07 0.97436782)
(-1.0046921e-07 -3.3038267e-07 0.97436777)
(-1.95538e-07 -3.3327544e-07 0.97436773)
(-6.4834256e-07 -3.5033856e-07 0.97436744)
(-1.0713524e-06 -3.7751256e-07 0.9743664)
(-3.8414654e-07 -3.8414654e-07 0.97436578)
(-2.9682933e-07 -2.9682933e-07 0.97564308)
(2.9973005e-06 1.3457999e-06 0.97564313)
(3.0653588e-06 5.7114304e-07 0.97564486)
(-1.032875e-06 4.5079701e-07 0.97564453)
(-1.1578706e-06 4.5609442e-07 0.97564404)
(-9.486384e-07 4.8596805e-07 0.97564367)
(-9.8943818e-07 5.2114675e-07 0.97564334)
(-1.2157553e-06 4.8897669e-07 0.97564284)
(-8.0702684e-07 1.9398163e-07 0.97564202)
(-8.9501806e-08 -1.0399435e-07 0.97564195)
(1.3457999e-06 2.9973005e-06 0.97564313)
(4.2992591e-06 4.2992591e-06 0.97564428)
(1.7228544e-06 2.8321605e-06 0.97564547)
(-1.2054479e-06 2.5919722e-06 0.97564505)
(-1.105114e-06 2.6151425e-06 0.97564458)
(-8.5105991e-07 2.7178933e-06 0.97564426)
(-9.8492522e-07 2.8706672e-06 0.975644)
(-1.7065029e-06 2.9213876e-06 0.97564349)
(-1.6964834e-06 2.3400926e-06 0.97564219)
(-3.8747778e-07 1.3513495e-06 0.97564165)
(5.7114303e-07 3.0653588e-06 0.97564486)
(2.8321605e-06 1.7228544e-06 0.97564547)
(1.3580719e-06 1.3580719e-06 0.97564649)
(-1.249893e-06 1.2919079e-06 0.97564604)
(-1.0319494e-06 1.3344132e-06 0.97564559)
(-6.9311373e-07 1.4508241e-06 0.97564532)
(-7.8594389e-07 1.6511123e-06 0.97564516)
(-1.7463298e-06 1.9078124e-06 0.97564477)
(-2.377065e-06 1.9609912e-06 0.97564338)
(-7.4866388e-07 1.5893872e-06 0.97564246)
(4.5079701e-07 -1.032875e-06 0.97564453)
(2.5919722e-06 -1.2054479e-06 0.97564505)
(1.2919079e-06 -1.249893e-06 0.97564604)
(-1.2291066e-06 -1.2291066e-06 0.97564559)
(-9.4619777e-07 -1.1621639e-06 0.97564516)
(-5.3436082e-07 -1.0505278e-06 0.97564495)
(-5.2793693e-07 -8.796027e-07 0.97564488)
(-1.396624e-06 -6.280402e-07 0.97564463)
(-2.0149086e-06 -3.2437468e-07 0.97564338)
(-6.3521382e-07 -4.5850256e-08 0.97564257)
(4.5609442e-07 -1.1578706e-06 0.97564404)
(2.6151425e-06 -1.105114e-06 0.97564458)
(1.3344132e-06 -1.0319494e-06 0.97564559)
(-1.1621639e-06 -9.4619777e-07 0.97564516)
(-8.5337061e-07 -8.533706e-07 0.97564477)
(-4.1055248e-07 -7.5057407e-07 0.97564461)
(-3.6345633e-07 -6.3215849e-07 0.9756446)
(-1.1911018e-06 -4.916965e-07 0.97564443)
(-1.794875e-06 -3.3703552e-07 0.97564327)
(-5.6298093e-07 -1.9526815e-07 0.97564254)
(4.8596804e-07 -9.486384e-07 0.97564367)
(2.7178933e-06 -8.5105991e-07 0.97564426)
(1.4508241e-06 -6.9311373e-07 0.97564532)
(-1.0505278e-06 -5.3436083e-07 0.97564495)
(-7.5057408e-07 -4.1055247e-07 0.97564461)
(-3.1314871e-07 -3.1314871e-07 0.97564449)
(-2.6905936e-07 -2.3545908e-07 0.97564452)
(-1.1015011e-06 -1.7577729e-07 0.97564439)
(-1.7184803e-06 -1.3581904e-07 0.97564326)
(-5.4070224e-07 -1.1666175e-07 0.97564255)
(5.2114675e-07 -9.8943818e-07 0.97564334)
(2.8706672e-06 -9.8492522e-07 0.975644)
(1.6511123e-06 -7.859439e-07 0.97564516)
(-8.7960268e-07 -5.2793693e-07 0.97564488)
(-6.3215849e-07 -3.6345633e-07 0.9756446)
(-2.3545909e-07 -2.6905936e-07 0.97564452)
(-2.2608491e-07 -2.2608491e-07 0.97564458)
(-1.0914618e-06 -2.3105547e-07 0.97564445)
(-1.7357595e-06 -2.8087789e-07 0.9756433)
(-5.502094e-07 -3.5977164e-07 0.97564257)
(4.8897669e-07 -1.2157553e-06 0.97564284)
(2.9213876e-06 -1.7065029e-06 0.97564349)
(1.9078124e-06 -1.7463298e-06 0.97564477)
(-6.280402e-07 -1.396624e-06 0.97564463)
(-4.9169651e-07 -1.1911018e-06 0.97564443)
(-1.7577729e-07 -1.101501e-06 0.97564439)
(-2.3105547e-07 -1.0914618e-06 0.97564445)
(-1.156294e-06 -1.156294e-06 0.97564429)
(-1.8471964e-06 -1.2877306e-06 0.97564307)
(-5.9329808e-07 -1.4394204e-06 0.97564224)
(1.9398164e-07 -8.0702684e-07 0.97564202)
(2.3400926e-06 -1.6964834e-06 0.97564219)
(1.9609912e-06 -2.377065e-06 0.97564338)
(-3.2437468e-07 -2.0149086e-06 0.97564338)
(-3.3703552e-07 -1.794875e-06 0.97564327)
(-1.3581904e-07 -1.7184803e-06 0.97564326)
(-2.8087789e-07 -1.7357595e-06 0.9756433)
(-1.2877306e-06 -1.8471964e-06 0.97564307)
(-2.0188859e-06 -2.0188859e-06 0.97564173)
(-6.5133598e-07 -1.8889818e-06 0.97564076)
(-1.0399434e-07 -8.9501803e-08 0.97564195)
(1.3513495e-06 -3.8747779e-07 0.97564165)
(1.5893872e-06 -7.4866388e-07 0.97564246)
(-4.5850253e-08 -6.3521382e-07 0.97564257)
(-1.9526815e-07 -5.6298093e-07 0.97564254)
(-1.1666175e-07 -5.4070225e-07 0.97564255)
(-3.5977164e-07 -5.502094e-07 0.97564257)
(-1.4394205e-06 -5.9329808e-07 0.97564224)
(-1.8889818e-06 -6.5133598e-07 0.97564076)
(-5.0669532e-07 -5.0669533e-07 0.97564052)
(-3.2175596e-07 -3.2175596e-07 0.97762352)
(3.7209563e-06 1.6534093e-06 0.97762341)
(3.6522064e-06 7.1603079e-07 0.97762485)
(-1.4368389e-06 5.7177969e-07 0.9776245)
(-1.5550321e-06 5.8281583e-07 0.97762406)
(-1.2648528e-06 6.3046906e-07 0.97762376)
(-1.3856708e-06 6.9464057e-07 0.97762351)
(-1.9404298e-06 6.7028695e-07 0.97762307)
(-1.3918606e-06 2.2610636e-07 0.97762214)
(-1.6121747e-07 -1.9988168e-07 0.9776219)
(1.6534093e-06 3.7209563e-06 0.97762341)
(5.2776366e-06 5.2776366e-06 0.97762426)
(2.0297618e-06 3.4963758e-06 0.97762523)
(-1.6366613e-06 3.2078549e-06 0.97762481)
(-1.466998e-06 3.2502284e-06 0.97762438)
(-1.0971157e-06 3.4086388e-06 0.97762414)
(-1.3259439e-06 3.6571634e-06 0.97762398)
(-2.6432311e-06 3.7810134e-06 0.97762358)
(-2.6971136e-06 2.9275398e-06 0.97762221)
(-5.8720551e-07 1.5634987e-06 0.97762162)
(7.160308e-07 3.6522064e-06 0.97762485)
(3.4963758e-06 2.0297618e-06 0.97762523)
(1.5824246e-06 1.5824246e-06 0.97762607)
(-1.6829863e-06 1.5063486e-06 0.97762563)
(-1.3542482e-06 1.5740505e-06 0.97762523)
(-8.5791775e-07 1.7466288e-06 0.97762504)
(-1.0132961e-06 2.0442256e-06 0.97762499)
(-2.6700534e-06 2.4303184e-06 0.97762471)
(-3.6093753e-06 2.5034368e-06 0.97762324)
(-1.0705782e-06 1.9958321e-06 0.97762229)
(5.7177969e-07 -1.4368388e-06 0.9776245)
(3.2078549e-06 -1.6366613e-06 0.97762481)
(1.5063486e-06 -1.6829863e-06 0.97762563)
(-1.6450354e-06 -1.6450354e-06 0.97762519)
(-1.2267178e-06 -1.5444585e-06 0.97762482)
(-6.2694067e-07 -1.3815785e-06 0.97762469)
(-6.4225439e-07 -1.1347163e-06 0.97762473)
(-2.1840198e-06 -7.7560559e-07 0.97762459)
(-3.1315998e-06 -3.6106342e-07 0.97762325)
(-9.2560864e-07 2.005628e-09 0.97762239)
(5.8281583e-07 -1.5550321e-06 0.97762406)
(3.2502284e-06 -1.466998e-06 0.97762438)
(1.5740505e-06 -1.3542482e-06 0.97762523)
(-1.5444585e-06 -1.2267178e-06 0.97762482)
(-1.0907913e-06 -1.0907914e-06 0.9776245)
(-4.4817558e-07 -9.4220309e-07 0.97762441)
(-4.0732322e-07 -7.7294972e-07 0.97762452)
(-1.8964005e-06 -5.7468117e-07 0.97762445)
(-2.8317641e-06 -3.6257086e-07 0.9776232)
(-8.2853216e-07 -1.7306353e-07 0.97762241)
(6.3046906e-07 -1.2648528e-06 0.97762376)
(3.4086387e-06 -1.0971157e-06 0.97762414)
(1.7466288e-06 -8.5791776e-07 0.97762504)
(-1.3815785e-06 -6.2694067e-07 0.97762469)
(-9.4220309e-07 -4.4817558e-07 0.97762441)
(-3.0909903e-07 -3.0909903e-07 0.97762438)
(-2.7473247e-07 -2.0100028e-07 0.97762452)
(-1.773641e-06 -1.2260303e-07 0.97762448)
(-2.7299822e-06 -7.7800208e-08 0.97762326)
(-7.9927042e-07 -6.5237446e-08 0.97762249)
(6.9464057e-07 -1.3856708e-06 0.97762351)
(3.6571634e-06 -1.3259439e-06 0.97762398)
(2.0442256e-06 -1.0132961e-06 0.97762499)
(-1.1347163e-06 -6.4225438e-07 0.97762473)
(-7.7294971e-07 -4.0732322e-07 0.97762452)
(-2.0100028e-07 -2.7473248e-07 0.97762452)
(-2.2082722e-07 -2.2082723e-07 0.97762468)
(-1.7732004e-06 -2.451152e-07 0.97762464)
(-2.7743985e-06 -3.4856388e-07 0.97762339)
(-8.2015698e-07 -5.0800391e-07 0.97762258)
(6.7028694e-07 -1.9404298e-06 0.97762307)
(3.7810134e-06 -2.6432311e-06 0.97762358)
(2.4303184e-06 -2.6700534e-06 0.97762471)
(-7.756056e-07 -2.1840198e-06 0.97762459)
(-5.7468118e-07 -1.8964005e-06 0.97762445)
(-1.2260304e-07 -1.773641e-06 0.97762448)
(-2.451152e-07 -1.7732004e-06 0.97762464)
(-1.9013776e-06 -1.9013776e-06 0.97762456)
(-2.9928709e-06 -2.1603547e-06 0.97762322)
(-9.0556377e-07 -2.4658865e-06 0.97762226)
(2.2610637e-07 -1.3918606e-06 0.97762214)
(2.9275398e-06 -2.6971136e-06 0.97762221)
(2.5034368e-06 -3.6093753e-06 0.97762324)
(-3.6106343e-07 -3.1315998e-06 0.97762325)
(-3.6257086e-07 -2.8317641e-06 0.9776232)
(-7.7800203e-08 -2.7299822e-06 0.97762326)
(-3.4856388e-07 -2.7743985e-06 0.97762339)
(-2.1603547e-06 -2.9928709e-06 0.97762322)
(-3.3389074e-06 -3.3389074e-06 0.97762168)
(-1.0238448e-06 -2.7972789e-06 0.9776205)
(-1.9988169e-07 -1.6121746e-07 0.9776219)
(1.5634987e-06 -5.8720551e-07 0.97762162)
(1.9958321e-06 -1.0705782e-06 0.97762229)
(2.0056276e-09 -9.2560864e-07 0.97762239)
(-1.7306353e-07 -8.2853215e-07 0.97762241)
(-6.5237442e-08 -7.9927043e-07 0.97762249)
(-5.080039e-07 -8.2015698e-07 0.97762258)
(-2.4658865e-06 -9.0556377e-07 0.97762226)
(-2.7972789e-06 -1.0238448e-06 0.9776205)
(-5.4447814e-07 -5.4447814e-07 0.9776204)
(-3.6939677e-07 -3.6939677e-07 0.98028666)
(4.3349829e-06 1.9127506e-06 0.9802865)
(4.1550624e-06 8.2064222e-07 0.98028782)
(-1.8301482e-06 6.5584859e-07 0.98028744)
(-1.8976419e-06 6.7390499e-07 0.98028704)
(-1.494526e-06 7.402677e-07 0.98028681)
(-1.6716537e-06 8.3566478e-07 0.98028666)
(-2.5814859e-06 8.2466358e-07 0.98028634)
(-1.9793893e-06 2.3824687e-07 0.98028549)
(-2.5102714e-07 -2.9297764e-07 0.98028523)
(1.9127506e-06 4.3349829e-06 0.9802865)
(6.1200415e-06 6.1200415e-06 0.98028724)
(2.2697092e-06 4.0458498e-06 0.9802881)
(-2.0502541e-06 3.719227e-06 0.98028767)
(-1.7710132e-06 3.7852328e-06 0.98028728)
(-1.2518863e-06 4.0020163e-06 0.98028711)
(-1.5450599e-06 4.350797e-06 0.98028705)
(-3.4776128e-06 4.557041e-06 0.98028678)
(-3.6558511e-06 3.4394196e-06 0.98028551)
(-7.8225164e-07 1.7433776e-06 0.98028495)
(8.2064222e-07 4.1550624e-06 0.98028782)
(4.0458498e-06 2.2697092e-06 0.9802881)
(1.7542478e-06 1.7542478e-06 0.98028884)
(-2.0907652e-06 1.6769667e-06 0.9802884)
(-1.6148525e-06 1.7743156e-06 0.98028804)
(-9.2896171e-07 2.005308e-06 0.98028793)
(-1.116629e-06 2.4016289e-06 0.98028798)
(-3.4928633e-06 2.9171125e-06 0.98028783)
(-4.7930527e-06 3.0029802e-06 0.98028646)
(-1.3817218e-06 2.3632593e-06 0.98028556)
(6.5584859e-07 -1.8301482e-06 0.98028744)
(3.719227e-06 -2.0502541e-06 0.98028767)
(1.6769667e-06 -2.0907652e-06 0.9802884)
(-2.0301863e-06 -2.0301863e-06 0.98028797)
(-1.442672e-06 -1.8929266e-06 0.98028765)
(-6.2457298e-07 -1.6775139e-06 0.98028759)
(-6.3325532e-07 -1.354732e-06 0.98028774)
(-2.8762616e-06 -8.9016075e-07 0.98028772)
(-4.2097043e-06 -3.7236081e-07 0.98028648)
(-1.2087322e-06 6.6359874e-08 0.98028566)
(6.7390498e-07 -1.8976419e-06 0.98028704)
(3.7852328e-06 -1.7710132e-06 0.98028728)
(1.7743156e-06 -1.6148525e-06 0.98028804)
(-1.8929266e-06 -1.442672e-06 0.98028765)
(-1.2621802e-06 -1.2621802e-06 0.98028737)
(-3.9076706e-07 -1.0676879e-06 0.98028736)
(-3.2927584e-07 -8.4873951e-07 0.98028757)
(-2.5104922e-06 -5.953175e-07 0.98028763)
(-3.8365321e-06 -3.3080237e-07 0.98028646)
(-1.0892414e-06 -9.9328247e-08 0.98028571)
(7.402677e-07 -1.494526e-06 0.98028681)
(4.0020163e-06 -1.2518863e-06 0.98028711)
(2.0053079e-06 -9.2896172e-07 0.98028793)
(-1.6775139e-06 -6.2457298e-07 0.98028759)
(-1.0676879e-06 -3.9076705e-07 0.98028736)
(-2.1113232e-07 -2.1113233e-07 0.9802874)
(-1.6088495e-07 -7.5131232e-08 0.98028764)
(-2.3583244e-06 1.775612e-08 0.98028773)
(-3.7137151e-06 6.1254144e-08 0.98028659)
(-1.0544161e-06 6.0824811e-08 0.98028585)
(8.3566478e-07 -1.6716537e-06 0.98028666)
(4.350797e-06 -1.5450599e-06 0.98028705)
(2.4016289e-06 -1.116629e-06 0.98028798)
(-1.354732e-06 -6.3325533e-07 0.98028774)
(-8.487395e-07 -3.2927583e-07 0.98028757)
(-7.5131237e-08 -1.6088496e-07 0.98028764)
(-1.0038739e-07 -1.0038739e-07 0.9802879)
(-2.3741068e-06 -1.5202502e-07 0.98028798)
(-3.7934634e-06 -3.2339038e-07 0.98028681)
(-1.0895276e-06 -5.8432465e-07 0.98028603)
(8.2466358e-07 -2.5814859e-06 0.98028634)
(4.557041e-06 -3.4776128e-06 0.98028678)
(2.9171125e-06 -3.4928633e-06 0.98028783)
(-8.9016074e-07 -2.8762616e-06 0.98028772)
(-5.953175e-07 -2.5104922e-06 0.98028763)
(1.7756117e-08 -2.3583244e-06 0.98028773)
(-1.5202501e-07 -2.3741068e-06 0.98028798)
(-2.5813274e-06 -2.5813274e-06 0.98028802)
(-4.1460147e-06 -3.0043167e-06 0.98028673)
(-1.2283723e-06 -3.5269124e-06 0.98028578)
(2.3824686e-07 -1.9793893e-06 0.98028549)
(3.4394196e-06 -3.6558511e-06 0.98028551)
(3.0029802e-06 -4.7930527e-06 0.98028646)
(-3.7236082e-07 -4.2097043e-06 0.98028648)
(-3.3080235e-07 -3.8365321e-06 0.98028646)
(6.1254147e-08 -3.7137151e-06 0.98028659)
(-3.2339038e-07 -3.7934634e-06 0.98028681)
(-3.0043167e-06 -4.1460147e-06 0.98028673)
(-4.7390484e-06 -4.7390484e-06 0.98028521)
(-1.4379247e-06 -3.7536132e-06 0.98028397)
(-2.9297765e-07 -2.5102714e-07 0.98028523)
(1.7433776e-06 -7.8225164e-07 0.98028495)
(2.3632593e-06 -1.3817218e-06 0.98028556)
(6.635987e-08 -1.2087322e-06 0.98028566)
(-9.9328249e-08 -1.0892414e-06 0.98028571)
(6.0824817e-08 -1.0544161e-06 0.98028585)
(-5.8432464e-07 -1.0895276e-06 0.98028603)
(-3.5269124e-06 -1.2283723e-06 0.98028578)
(-3.7536132e-06 -1.4379247e-06 0.98028397)
(-5.7141555e-07 -5.7141555e-07 0.98028389)
(-4.2410645e-07 -4.2410644e-07 0.98360723)
(4.880202e-06 2.1443475e-06 0.98360705)
(4.5940398e-06 9.0409318e-07 0.98360825)
(-2.212926e-06 7.2075554e-07 0.98360787)
(-2.1924984e-06 7.4653339e-07 0.98360749)
(-1.6463038e-06 8.3195461e-07 0.98360732)
(-1.8527173e-06 9.5929369e-07 0.98360726)
(-3.111087e-06 9.6408105e-07 0.98360705)
(-2.5003923e-06 2.409364e-07 0.98360631)
(-3.3174232e-07 -3.8698429e-07 0.98360609)
(2.1443475e-06 4.880202e-06 0.98360705)
(6.8725016e-06 6.8725016e-06 0.98360771)
(2.4586517e-06 4.5203889e-06 0.98360847)
(-2.4492657e-06 4.1615689e-06 0.98360803)
(-2.0256998e-06 4.2538307e-06 0.98360768)
(-1.3271633e-06 4.5303217e-06 0.98360757)
(-1.6545276e-06 4.9810067e-06 0.9836076)
(-4.188623e-06 5.2742101e-06 0.98360745)
(-4.5269903e-06 3.9030295e-06 0.9836063)
(-9.59663e-07 1.8972185e-06 0.9836058)
(9.0409318e-07 4.5940397e-06 0.98360825)
(4.5203889e-06 2.4586517e-06 0.98360847)
(1.883107e-06 1.883107e-06 0.98360912)
(-2.4794842e-06 1.8097245e-06 0.98360868)
(-1.8237456e-06 1.9396166e-06 0.98360836)
(-9.1912783e-07 2.2304396e-06 0.98360831)
(-1.1088289e-06 2.7260971e-06 0.98360845)
(-4.1890642e-06 3.3711648e-06 0.98360842)
(-5.8773839e-06 3.4699463e-06 0.98360719)
(-1.6689496e-06 2.7057784e-06 0.98360637)
(7.2075555e-07 -2.212926e-06 0.98360787)
(4.1615689e-06 -2.4492657e-06 0.98360803)
(1.8097245e-06 -2.4794842e-06 0.98360868)
(-2.3927561e-06 -2.3927561e-06 0.98360826)
(-1.6049847e-06 -2.216713e-06 0.98360797)
(-5.4068284e-07 -1.9479549e-06 0.98360798)
(-5.1380247e-07 -1.5495285e-06 0.98360821)
(-3.4447738e-06 -9.8111527e-07 0.98360832)
(-5.1923767e-06 -3.639548e-07 0.9836072)
(-1.4691082e-06 1.4677696e-07 0.98360647)
(7.4653339e-07 -2.1924984e-06 0.98360749)
(4.2538307e-06 -2.0256998e-06 0.98360768)
(1.9396166e-06 -1.8237456e-06 0.98360836)
(-2.216713e-06 -1.6049847e-06 0.98360797)
(-1.3789444e-06 -1.3789444e-06 0.98360773)
(-2.519433e-07 -1.1385998e-06 0.98360779)
(-1.4198927e-07 -8.709901e-07 0.98360808)
(-3.0034905e-06 -5.6446151e-07 0.98360826)
(-4.7494916e-06 -2.5073248e-07 0.98360722)
(-1.3284618e-06 1.9652466e-08 0.98360655)
(8.319546e-07 -1.6463038e-06 0.98360732)
(4.5303217e-06 -1.3271633e-06 0.98360757)
(2.2304396e-06 -9.1912783e-07 0.98360831)
(-1.9479549e-06 -5.4068284e-07 0.98360798)
(-1.1385998e-06 -2.5194331e-07 0.98360779)
(-3.2728504e-08 -3.2728508e-08 0.98360788)
(6.0335868e-08 1.292554e-07 0.98360821)
(-2.8245162e-06 2.3376474e-07 0.98360842)
(-4.6082627e-06 2.7238437e-07 0.9836074)
(-1.2888516e-06 2.5601614e-07 0.98360674)
(9.5929369e-07 -1.8527173e-06 0.98360726)
(4.9810067e-06 -1.6545276e-06 0.9836076)
(2.7260971e-06 -1.108829e-06 0.98360845)
(-1.5495285e-06 -5.1380247e-07 0.98360821)
(-8.7099009e-07 -1.4198927e-07 0.98360808)
(1.292554e-07 6.0335868e-08 0.98360821)
(1.2450398e-07 1.2450398e-07 0.98360856)
(-2.8603616e-06 4.0927388e-08 0.98360876)
(-4.7272402e-06 -2.0535361e-07 0.98360771)
(-1.339374e-06 -5.7664798e-07 0.983607)
(9.6408104e-07 -3.111087e-06 0.98360705)
(5.27421e-06 -4.188623e-06 0.98360745)
(3.3711648e-06 -4.1890642e-06 0.98360842)
(-9.8111527e-07 -3.4447738e-06 0.98360832)
(-5.644615e-07 -3.0034905e-06 0.98360826)
(2.3376474e-07 -2.8245162e-06 0.98360842)
(4.0927388e-08 -2.8603616e-06 0.98360876)
(-3.1543738e-06 -3.1543738e-06 0.9836089)
(-5.2258381e-06 -3.7583054e-06 0.98360773)
(-1.5363812e-06 -4.5273018e-06 0.98360684)
(2.409364e-07 -2.5003923e-06 0.98360631)
(3.9030295e-06 -4.5269903e-06 0.9836063)
(3.4699463e-06 -5.8773839e-06 0.98360719)
(-3.6395479e-07 -5.1923767e-06 0.9836072)
(-2.5073246e-07 -4.7494916e-06 0.98360722)
(2.7238437e-07 -4.6082627e-06 0.9836074)
(-2.0535362e-07 -4.7272402e-06 0.98360771)
(-3.7583054e-06 -5.2258381e-06 0.98360773)
(-6.1001683e-06 -6.1001683e-06 0.98360631)
(-1.8520382e-06 -4.6886269e-06 0.9836051)
(-3.8698429e-07 -3.3174232e-07 0.98360609)
(1.8972185e-06 -9.59663e-07 0.9836058)
(2.7057784e-06 -1.6689496e-06 0.98360637)
(1.4677696e-07 -1.4691082e-06 0.98360647)
(1.9652462e-08 -1.3284618e-06 0.98360655)
(2.5601613e-07 -1.2888516e-06 0.98360674)
(-5.7664798e-07 -1.339374e-06 0.983607)
(-4.5273018e-06 -1.5363812e-06 0.98360684)
(-4.6886269e-06 -1.8520382e-06 0.9836051)
(-5.9535366e-07 -5.9535366e-07 0.98360504)
(-4.8612733e-07 -4.8612732e-07 0.98755548)
(5.3547049e-06 2.3480679e-06 0.98755529)
(4.9682838e-06 9.6722614e-07 0.98755636)
(-2.5859295e-06 7.6713017e-07 0.98755597)
(-2.444357e-06 8.0109891e-07 0.98755562)
(-1.7287845e-06 9.0573734e-07 0.9875555)
(-1.9398761e-06 1.0654058e-06 0.98755552)
(-3.531817e-06 1.0881438e-06 0.98755542)
(-2.9404376e-06 2.3563043e-07 0.98755478)
(-3.9583485e-07 -4.8264857e-07 0.98755462)
(2.3480679e-06 5.3547049e-06 0.98755529)
(7.5347353e-06 7.5347353e-06 0.98755585)
(2.596877e-06 4.9204863e-06 0.98755652)
(-2.8351204e-06 4.5341893e-06 0.98755608)
(-2.2364462e-06 4.6544064e-06 0.98755576)
(-1.3323241e-06 4.9912388e-06 0.9875557)
(-1.6662664e-06 5.5445683e-06 0.98755581)
(-4.7764801e-06 5.9288865e-06 0.98755576)
(-5.2966262e-06 4.3202103e-06 0.98755476)
(-1.1141138e-06 2.0246869e-06 0.98755433)
(9.6722613e-07 4.9682838e-06 0.98755636)
(4.9204863e-06 2.596877e-06 0.98755652)
(1.9677377e-06 1.9677377e-06 0.98755708)
(-2.8520094e-06 1.9017483e-06 0.98755664)
(-1.9873075e-06 2.0660157e-06 0.98755635)
(-8.3862259e-07 2.41735e-06 0.98755635)
(-1.0022284e-06 3.0122933e-06 0.98755658)
(-4.7561751e-06 3.7871404e-06 0.98755666)
(-6.8446373e-06 3.90287e-06 0.98755557)
(-1.9261838e-06 3.0242453e-06 0.98755485)
(7.6713016e-07 -2.5859295e-06 0.98755597)
(4.5341893e-06 -2.8351203e-06 0.98755608)
(1.9017483e-06 -2.8520094e-06 0.98755664)
(-2.7368424e-06 -2.7368424e-06 0.98755622)
(-1.7208445e-06 -2.5207123e-06 0.98755597)
(-3.8604654e-07 -2.1982765e-06 0.98755603)
(-2.9647605e-07 -1.7247693e-06 0.98755634)
(-3.8859034e-06 -1.0539865e-06 0.98755655)
(-6.0595212e-06 -3.3957849e-07 0.98755558)
(-1.6998636e-06 2.4148312e-07 0.98755494)
(8.0109892e-07 -2.444357e-06 0.98755562)
(4.6544064e-06 -2.2364462e-06 0.98755576)
(2.0660157e-06 -1.9873075e-06 0.98755635)
(-2.5207123e-06 -1.7208445e-06 0.98755597)
(-1.4487416e-06 -1.4487416e-06 0.98755576)
(-4.2679552e-08 -1.1627532e-06 0.98755587)
(1.420616e-07 -8.4739216e-07 0.98755624)
(-3.3709842e-06 -4.8930863e-07 0.98755653)
(-5.5491677e-06 -1.283771e-07 0.98755563)
(-1.5388094e-06 1.7917167e-07 0.98755505)
(9.0573734e-07 -1.7287845e-06 0.9875555)
(4.9912388e-06 -1.3323241e-06 0.9875557)
(2.41735e-06 -8.3862259e-07 0.98755635)
(-2.1982765e-06 -3.8604655e-07 0.98755603)
(-1.1627532e-06 -4.2679556e-08 0.98755587)
(2.1530289e-07 2.1530289e-07 0.98755602)
(3.7696856e-07 4.0192567e-07 0.98755643)
(-3.1668884e-06 5.1629265e-07 0.98755674)
(-5.3910409e-06 5.4818236e-07 0.98755587)
(-1.494831e-06 5.1474032e-07 0.9875553)
(1.0654058e-06 -1.9398761e-06 0.98755552)
(5.5445683e-06 -1.6662664e-06 0.98755581)
(3.0122933e-06 -1.0022284e-06 0.98755658)
(-1.7247693e-06 -2.9647606e-07 0.98755634)
(-8.4739215e-07 1.420616e-07 0.98755624)
(4.0192567e-07 3.7696856e-07 0.98755643)
(4.4305137e-07 4.4305137e-07 0.98755685)
(-3.2247275e-06 3.2529028e-07 0.98755715)
(-5.55072e-06 1.3471065e-09 0.98755624)
(-1.5611041e-06 -4.8301024e-07 0.98755563)
(1.0881438e-06 -3.531817e-06 0.98755542)
(5.9288865e-06 -4.7764801e-06 0.98755576)
(3.7871404e-06 -4.7561751e-06 0.98755666)
(-1.0539865e-06 -3.8859034e-06 0.98755655)
(-4.8930861e-07 -3.3709842e-06 0.98755653)
(5.1629265e-07 -3.1668884e-06 0.98755674)
(3.2529028e-07 -3.2247275e-06 0.98755715)
(-3.6085926e-06 -3.6085926e-06 0.9875574)
(-6.1993414e-06 -4.3997092e-06 0.98755637)
(-1.8177359e-06 -5.4260995e-06 0.98755557)
(2.3563043e-07 -2.9404376e-06 0.98755478)
(4.3202103e-06 -5.2966262e-06 0.98755476)
(3.90287e-06 -6.8446373e-06 0.98755557)
(-3.3957848e-07 -6.0595212e-06 0.98755558)
(-1.2837709e-07 -5.5491677e-06 0.98755563)
(5.4818236e-07 -5.3910409e-06 0.98755587)
(1.3471052e-09 -5.55072e-06 0.98755624)
(-4.3997092e-06 -6.1993414e-06 0.98755637)
(-7.3682268e-06 -7.3682268e-06 0.98755508)
(-2.2453642e-06 -5.5560318e-06 0.98755395)
(-4.8264856e-07 -3.9583485e-07 0.98755462)
(2.0246869e-06 -1.1141138e-06 0.98755433)