/*--------------------------------*- C++ -*----------------------------------*\
| =========                 |                                                 |
| \\      /  F ield         | OpenFOAM: The Open Source CFD Toolbox           |
|  \\    /   O peration     | Version:  v2106                                 |
|   \\  /    A nd           | Website:  www.openfoam.com                      |
|    \\/     M anipulation  |                                                 |
\*---------------------------------------------------------------------------*/
FoamFile
{
    version     2.0;
    format      ascii;
    arch        "LSB;label=32;scalar=64";
    class       volScalarField;
    location    "35";
    object      gradTy;
}
// * * * * * * * * * * * * * * * * * * * * * * * * * * * * * * * * * * * * * //

dimensions      [0 -1 0 1 0 0 0];

internalField   nonuniform List<scalar> 
4000
(
-0.00012738149
0.00023472438
8.4110479e-05
6.5481415e-05
6.6390153e-05
6.8980741e-05
7.1417607e-05
6.9267321e-05
5.2941144e-05
2.6265437e-05
0.00035025166
0.00066748962
0.00040477389
0.00037315429
0.00037651448
0.00038536539
0.00039700692
0.00040087637
0.00036473432
0.00026610828
0.00048388101
0.00023001656
0.00018954568
0.00018624007
0.0001908105
0.00020089433
0.00021768946
0.00023918532
0.00024840372
0.00021269832
-0.00013096513
-0.00015754562
-0.00015922453
-0.00015628081
-0.00015022358
-0.0001404339
-0.00012538451
-0.00010260519
-7.1154807e-05
-3.763556e-05
-0.00012327297
-0.00011802398
-0.00011106186
-0.00010336972
-9.5214961e-05
-8.6144092e-05
-7.5621324e-05
-6.3037448e-05
-4.8503077e-05
-3.4938471e-05
-9.1928727e-05
-8.4387545e-05
-7.1436288e-05
-5.7508584e-05
-4.6597225e-05
-3.791495e-05
-3.0797617e-05
-2.5081306e-05
-2.0817246e-05
-1.8377322e-05
-8.8604113e-05
-8.8174247e-05
-7.3093133e-05
-4.9883255e-05
-3.5264419e-05
-2.6776605e-05
-2.2430775e-05
-2.1709583e-05
-2.408371e-05
-2.7977908e-05
-9.8035896e-05
-0.00012575059
-0.0001303085
-9.5036326e-05
-7.6078794e-05
-6.7918074e-05
-6.6098421e-05
-6.957101e-05
-7.7395187e-05
-8.6595289e-05
-8.7031234e-05
-0.00015153406
-0.00022179933
-0.00017802106
-0.0001568297
-0.00014992208
-0.00015012571
-0.0001561904
-0.00016714999
-0.00017820824
-2.3614299e-05
-5.0290009e-05
-8.9364993e-05
-7.4093606e-05
-6.7018828e-05
-6.5050536e-05
-6.5392211e-05
-6.7646666e-05
-7.1525615e-05
-7.5018828e-05
-0.00027649903
0.00069286589
0.00024054571
0.00017292991
0.0001746256
0.00018640946
0.00019838738
0.00018459426
9.0586495e-05
3.2960705e-07
0.0015184969
0.002294064
0.0014528151
0.0013223213
0.0013311826
0.0013729575
0.001430451
0.0014425834
0.0012287497
0.00082328193
0.0017617776
0.00098187363
0.00079003489
0.000757742
0.00077567942
0.00082496301
0.00090786648
0.0010097256
0.0010265836
0.00084197867
-0.00048354419
-0.00058242435
-0.0006051767
-0.00059677982
-0.0005681584
-0.00051997456
-0.00044579841
-0.00033545456
-0.00019506714
-5.9144705e-05
-0.00054573472
-0.00052551538
-0.00049509846
-0.00045829436
-0.0004182932
-0.00037370906
-0.00032192204
-0.00025986623
-0.00018955191
-0.00012366786
-0.00043733753
-0.00040169485
-0.00033806912
-0.0002695078
-0.00021570913
-0.00017313662
-0.00013851399
-0.0001108186
-9.0390582e-05
-7.833469e-05
-0.00043326253
-0.00043598534
-0.00036363669
-0.00025122274
-0.00017911669
-0.00013737989
-0.00011679866
-0.00011483226
-0.00012911967
-0.00015245874
-0.00048751983
-0.00064922115
-0.00068922114
-0.00053050402
-0.00043848987
-0.0003981339
-0.00039036646
-0.0004104549
-0.00045376853
-0.00050550529
-0.00039022364
-0.00066662061
-0.0010095251
-0.00083436755
-0.00073321522
-0.00069816918
-0.00070073133
-0.00073579566
-0.0007957817
-0.00083532125
-8.8191453e-05
-0.00017844834
-0.00035850328
-0.0003015183
-0.00026788831
-0.00025759559
-0.00025985105
-0.00027315498
-0.00029434223
-0.00029951467
-0.00023007503
0.0010431413
0.00044269798
0.00034941672
0.00035352279
0.0003766781
0.00040394542
0.00037901013
0.00015035687
-8.0606933e-05
0.002323234
0.0033323935
0.0021952324
0.0020090604
0.0020270199
0.002106663
0.0022250793
0.0022643932
0.0018138264
0.0010474429
0.0023759865
0.0013353996
0.0010526534
0.0010013691
0.0010343154
0.0011245465
0.0012797916
0.0014787621
0.0015199815
0.001231948
-0.0008005905
-0.00093435327
-0.00096880299
-0.00095269126
-0.00090080346
-0.00081427328
-0.00068178776
-0.00048679947
-0.00025142566
-3.5538936e-05
-0.00089747563
-0.00085658356
-0.00079987302
-0.00073340618
-0.00066145504
-0.00058177655
-0.00048999159
-0.00038111827
-0.00026123919
-0.00015135406
-0.00073529796
-0.00065966401
-0.00053723853
-0.00041418776
-0.00031822282
-0.00024272431
-0.0001825064
-0.00013624652
-0.00010527453
-9.0425548e-05
-0.00076692223
-0.00076342419
-0.000609192
-0.00040920854
-0.00028171819
-0.00020855027
-0.0001752404
-0.00017909312
-0.00021771092
-0.00027886216
-0.0009423426
-0.0013227254
-0.0013535956
-0.0010825355
-0.00092323346
-0.00085378313
-0.00084600159
-0.00089625365
-0.00099813128
-0.0011157074
-0.00062553361
-0.0013149592
-0.0018424839
-0.0015617734
-0.0013912234
-0.0013320091
-0.0013454024
-0.0014317782
-0.0015648562
-0.0014641664
-6.9373635e-05
-0.00030033744
-0.00058029595
-0.00049235982
-0.00043637147
-0.00041910307
-0.00042647214
-0.00045987056
-0.00050485626
-0.00039274401
-0.00024794556
0.0012741194
0.00055177423
0.00044061415
0.00044911862
0.00048584026
0.00053529092
0.00051652399
0.00017423786
-0.00015402909
0.0028673738
0.0040669535
0.0026943116
0.002471977
0.0025046301
0.0026267014
0.0028182148
0.0029136538
0.002255966
0.0012048342
0.0028143948
0.001564137
0.0012194183
0.0011607941
0.0012129653
0.0013459544
0.0015752828
0.0018728064
0.0019291516
0.0015379908
-0.0011072298
-0.0012612133
-0.0012969113
-0.0012676663
-0.0011901616
-0.0010646461
-0.0008744138
-0.00059768264
-0.00027823593
1.5455395e-06
-0.0011983097
-0.0011304705
-0.0010435854
-0.00094531027
-0.00084056519
-0.00072606289
-0.00059563603
-0.00044285004
-0.00027939757
-0.00013336298
-0.00097469719
-0.00084543875
-0.00066111249
-0.00048312126
-0.00034536467
-0.00023819211
-0.00015489107
-9.4478054e-05
-5.995294e-05
-5.027206e-05
-0.0010677997
-0.0010217741
-0.00078084726
-0.00049492204
-0.00031388379
-0.00021170919
-0.00017016975
-0.00018888609
-0.00026860377
-0.00039146847
-0.0014952977
-0.0020368773
-0.0020575465
-0.0016830084
-0.0014613686
-0.00136677
-0.0013664305
-0.001465204
-0.0016647721
-0.0019002154
-0.0010725696
-0.0020783992
-0.0027813892
-0.0024132148
-0.002182161
-0.0021037278
-0.002137955
-0.0023063101
-0.0025729664
-0.0021555868
-0.00012423439
-0.00045250133
-0.00082498893
-0.00071327521
-0.00063846795
-0.00061591882
-0.00063201403
-0.00069782861
-0.00078897618
-0.00041957558
-0.00028301741
0.001465475
0.00062874407
0.00050248562
0.00051631974
0.00056716426
0.00064025379
0.00063182511
0.00018253547
-0.00022446806
0.0033212951
0.0046889373
0.0030997723
0.0028495267
0.0029000978
0.0030661889
0.0033334111
0.0034914273
0.0026351494
0.001335708
0.0031834468
0.0017389627
0.0013440362
0.0012848265
0.0013594114
0.0015363887
0.0018400344
0.0022349779
0.0023007664
0.0018106372
-0.0014021882
-0.0015708247
-0.0016018627
-0.0015554495
-0.0014502865
-0.0012852457
-0.0010379428
-0.00068200645
-0.00028528834
5.084235e-05
-0.0014538992
-0.0013568813
-0.001237237
-0.001105319
-0.00096703322
-0.00081802081
-0.00065027112
-0.00045610906
-0.00025344789
-7.6101434e-05
-0.0011450476
-0.00095914647
-0.00071173423
-0.00047852346
-0.00029939048
-0.00016176136
-5.7562621e-05
1.3604047e-05
4.6930538e-05
4.6601601e-05
-0.0012807559
-0.0011837647
-0.00085551758
-0.00048517554
-0.00025227831
-0.00012326378
-7.6912906e-05
-0.00011647564
-0.00024776911
-0.00044768678
-0.0019778339
-0.0026644114
-0.0026760957
-0.0022036795
-0.0019234412
-0.0018068562
-0.0018189481
-0.0019777124
-0.0023017904
-0.0027021829
-0.001516531
-0.0028009708
-0.0036722502
-0.0032253114
-0.0029394014
-0.0028453038
-0.0029064038
-0.0031765149
-0.0036308743
-0.0028758724
-0.00019232722
-0.00059933075
-0.0010586214
-0.00092608352
-0.0008345343
-0.00080785256
-0.00083475359
-0.000941131
-0.0011016819
-0.00043779636
-0.00032307725
0.0016335283
0.00068872315
0.00054905959
0.00056869673
0.0006337692
0.00073077401
0.00073442095
0.00018354135
-0.00029479822
0.0037176569
0.0052353575
0.003443557
0.003170214
0.0032404975
0.0034511238
0.0037944481
0.0040178057
0.0029732632
0.0014452696
0.0034996631
0.00187296
0.0014345195
0.001378618
0.0014775676
0.0016991118
0.0020766954
0.0025680973
0.0026433474
0.0020612171
-0.0016857702
-0.0018658098
-0.0018888297
-0.0018227617
-0.0016886551
-0.0014839197
-0.001180405
-0.00074739729
-0.00027725473
0.00011181226
-0.0016702089
-0.0015431444
-0.001389299
-0.0012226507
-0.0010504569
-0.00086736642
-0.00066350577
-0.00042999739
-0.00019100384
1.4970922e-05
-0.0012541269
-0.001011011
-0.00070017628
-0.00041188319
-0.00019192622
-2.4932033e-05
9.8464616e-05
0.00017807809
0.00020749789
0.00019502885
-0.0014113693
-0.0012603917
-0.00084468744
-0.00039140617
-0.00010816506
4.5962861e-05
9.4845058e-05
3.1177803e-05
-0.00015643497
-0.00043928087
-0.0023699745
-0.0031908234
-0.0031911595
-0.0026241714
-0.0022880092
-0.0021516694
-0.0021789759
-0.0024029495
-0.0028630147
-0.0034488235
-0.0019047574
-0.0034485861
-0.0044772934
-0.0039554663
-0.0036180839
-0.003510498
-0.0036011331
-0.0039809567
-0.0046470071
-0.0035717184
-0.0002527158
-0.00073105538
-0.0012713782
-0.0011191423
-0.0010120002
-0.00098182579
-0.0010203129
-0.0011703897
-0.0014108521
-0.00045353057
-0.00036822401
0.0017785772
0.00073263906
0.00058107355
0.00060680367
0.00068606353
0.00080700668
0.00082422992
0.0001784816
-0.00036558899
0.0040559969
0.0057072915
0.0037270916
0.0034344856
0.0035255457
0.0037806842
0.0041998115
0.0044909188
0.0032724044
0.0015336277
0.0037632965
0.001967041
0.0014904906
0.001440506
0.0015649326
0.0018310558
0.0022817039
0.0028686228
0.0029562839
0.0022907574
-0.0019587488
-0.0021475018
-0.0021602946
-0.0020730598
-0.001909349
-0.0016651155
-0.0013064508
-0.00079835695
-0.00025721852
0.0001829148
-0.0018515127
-0.0016940277
-0.001505314
-0.0013034779
-0.0010973697
-0.00088074381
-0.00064186913
-0.00037063371
-9.7241048e-05
0.00013571612
-0.0013094922
-0.0010091877
-0.00063522648
-0.0002924164
-3.2328231e-05
0.00016308421
0.00030444426
0.00039107314
0.00041522846
0.00038989733
-0.0014693865
-0.001262137
-0.00075915198
-0.00022456996
0.00010760656
0.00028554015
0.0003355955
0.0002463957
1.0203848e-06
-0.00036586293
-0.0026752247
-0.0036180123
-0.0036026317
-0.0029434323
-0.0025533995
-0.0023988042
-0.0024426153
-0.0027333793
-0.0033326219
-0.0041100758
-0.0022272761
-0.0040120044
-0.0051845671
-0.0045898698
-0.0042032954
-0.00408352
-0.0042044712
-0.0046957786
-0.0055811677
-0.004208495
-0.00029983071
-0.0008439013
-0.0014590151
-0.0012875857
-0.0011655929
-0.0011322809
-0.0011824804
-0.0013768698
-0.001700783
-0.00046175469
-0.00041884272
0.0018997548
0.00076028512
0.00059829989
0.00063029953
0.00072358072
0.00086830084
0.00090048195
0.00016744092
-0.00043664121
0.0043339785
0.0061026702
0.0039492712
0.003640926
0.0037533848
0.0040525691
0.004546624
0.0049075007
0.0035313632
0.0016004441
0.0039731595
0.0020209771
0.0015114152
0.0014693647
0.0016198539
0.0019301119
0.0024524637
0.0031336068
0.0032376164
0.0024982085
-0.0022211912
-0.0024161696
-0.0024170776
-0.0023077309
-0.0021141918
-0.0018309592
-0.0014184296
-0.00083733658
-0.0002272231
0.00026251068
-0.0020004935
-0.0018125722
-0.0015888503
-0.0013518251
-0.0011120786
-0.00086255576
-0.00058968778
-0.00028209345
2.4247123e-05
0.00028295027
-0.0013164002
-0.00095939825
-0.00052316093
-0.00012678852
0.00017260121
0.00039560235
0.00055407122
0.00064693424
0.00066532867
0.00062712847
-0.0014614124
-0.0011960606
-0.0006064808
7.4343092e-06
0.00038714184
0.00058789662
0.00063847373
0.00052355014
0.00022087464
-0.00022883637
-0.0028972402
-0.0039485301
-0.0039125011
-0.0031633773
-0.0027212946
-0.0025494424
-0.0026100371
-0.0029670415
-0.0037043707
-0.0046731895
-0.0024818825
-0.0044875672
-0.0057889391
-0.0051229655
-0.0046890918
-0.0045579218
-0.0047088976
-0.0053103083
-0.0064150456
-0.0047680723
-0.00033202653
-0.00093610866
-0.0016193059
-0.0014290473
-0.0012928167
-0.0012565785
-0.0013182835
-0.0015563859
-0.0019641627
-0.0004584037
-0.00047474624
0.0019966486
0.00077182582
0.00060091452
0.00063927362
0.0007462872
0.00091443073
0.00096278331
0.00015053023
-0.00050752374
0.0045506745
0.0064205326
0.0041100853
0.0037894051
0.0039235735
0.0042659398
0.0048334614
0.005265543
0.0037491026
0.0016456792
0.0041289587
0.0020353576
0.0014978312
0.0014654113
0.001642189
0.0019957534
0.0025879525
0.0033614559
0.0034858438
0.0026825075
-0.0024723904
-0.0026712187
-0.0026589021
-0.0025268609
-0.002303589
-0.0019821232
-0.0015172738
-0.00086554675
-0.00018858862
0.00034920513
-0.0021189015
-0.0019008425
-0.0016423669
-0.0013705005
-0.0010976292
-0.00081595756
-0.00051011397
-0.00016743722
0.00017057976
0.00045390447
-0.0012789006
-0.0008661649
-0.00036901271
7.9598621e-05
0.00041730243
0.00066711388
0.00084209285
0.00094084938
0.00095353487
0.00090287134
-0.0013925102
-0.001067766
-0.00039290697
0.00029793647
0.00072366952
0.00094645682
0.00099740503
0.00085741442
0.00049909638
-3.0924442e-05
-0.003039204
-0.0041850547
-0.0041235627
-0.0032871634
-0.0027948775
-0.0026064697
-0.0026834355
-0.0031047783
-0.003976665
-0.005133228
-0.0026688569
-0.0048743175
-0.0062887207
-0.0055532658
-0.0050739688
-0.0049319241
-0.0051119469
-0.005820263
-0.0071403965
-0.0052421675
-0.00034907259
-0.0010071266
-0.0017513549
-0.0015426841
-0.0013928257
-0.0013538009
-0.0014266014
-0.0017071482
-0.0021976434
-0.0004416621
-0.00053543107
0.0020692541
0.00076776369
0.00058943557
0.00063417069
0.00075451045
0.00094552828
0.0010110654
0.00012801565
-0.00057770283
0.0047063466
0.0066611387
0.004210651
0.0038809738
0.0040369107
0.0044212257
0.005060161
0.0055641922
0.0039252494
0.0016697094
0.0042314468
0.0020117189
0.0014512818
0.0014299676
0.0016329733
0.0020286627
0.0026883432
0.0035516595
0.0037001671
0.0028430073
-0.0027110243
-0.0029114138
-0.0028847646
-0.0027297223
-0.002477083
-0.0021184128
-0.0016030924
-0.00088348911
-0.00014217062
0.00044186334
-0.002207942
-0.0019603297
-0.0016676901
-0.0013616346
-0.0010563806
-0.00074345375
-0.00040573151
-2.9291945e-05
0.00033911996
0.00064590575
-0.0012005263
-0.00073348989
-0.00017727603
0.00032188
0.00069671459
0.00097252911
0.0011635462
0.0012681147
0.0012754779
0.0012130177
-0.0012673159
-0.00088248353
-0.00012434941
0.00064051325
0.0011105743
0.0013546751
0.0014061599
0.0012423329
0.00083084264
0.00022391726
-0.0031044812
-0.0043307502
-0.0042393928
-0.0033189263
-0.002778471
-0.0025740749
-0.0026665392
-0.0031493921
-0.0041506931
-0.0054892507
-0.0027897437
-0.005172896
-0.0066842265
-0.0058815482
-0.0053588741
-0.0052063505
-0.0054139711
-0.0062247661
-0.0077538297
-0.0056276815
-0.00035134417
-0.0010570626
-0.0018550375
-0.0016285025
-0.0014656816
-0.0014239787
-0.0015073217
-0.0018285956
-0.0023996934
-0.00041116341
-0.00060020379
0.0021178938
0.00074886107
0.00056463556
0.00061569559
0.00074884235
0.00096198977
0.0010455035
0.00010030257
-0.00064657814
0.0048021964
0.0068257937
0.0042530133
0.0039176145
0.0040951494
0.0045198247
0.0052275272
0.0058035045
0.0040600663
0.0016733055
0.0042822881
0.0019524007
0.0013741089
0.0013651828
0.0015940955
0.0020303831
0.0027546565
0.0037045004
0.0038804055
0.0029794977
-0.0029353324
-0.0031350806
-0.0030931963
-0.002915094
-0.0026337099
-0.0022391386
-0.0016755382
-0.00089127764
-8.8550043e-05
0.00053953684
-0.0022685037
-0.0019921936
-0.0016662935
-0.0013269932
-0.00099033812
-0.00064723504
-0.00027888124
0.00012985962
0.00052725955
0.00085623123
-0.0010846149
-0.00056517365
4.7762848e-05
0.00059538735
0.0010059346
0.0013068442
0.0015134464
0.001623866
0.0016264828
0.0015530611
-0.0010904804
-0.00064548863
0.00019319932
0.0010286286
0.0015410603
0.0018057233
0.0018580821
0.0016720317
0.001210428
0.0005306909
-0.0030968785
-0.0043894093
-0.0042643394
-0.0032636604
-0.0026773512
-0.0024575196
-0.0025643148
-0.0031051737
-0.0042295235
-0.005742679
-0.0028469
-0.0053850225
-0.0069770989
-0.0061100253
-0.0055462845
-0.0053836537
-0.0056170894
-0.0065249945
-0.0082545947
-0.0059242927
-0.00033951486
-0.0010863956
-0.0019306887
-0.0016870008
-0.0015119641
-0.0014676863
-0.001560912
-0.0019208444
-0.0025696823
-0.00036730972
-0.00066822845
0.0021431751
0.00071609616
0.00052749311
0.00058476109
0.00073008602
0.00096442465
0.0010664722
6.7910598e-05
-0.00071350247
0.0048402259
0.0069167128
0.0042399966
0.0039020723
0.0041008117
0.0045639121
0.0053371456
0.0059842851
0.0041543656
0.0016575766
0.0042839123
0.0018603893
0.0012692718
0.0012738248
0.0015280679
0.0020030822
0.0027885315
0.0038208585
0.0040268812
0.0030921429
-0.0031432738
-0.0033402764
-0.0032824587
-0.0030814803
-0.0027722333
-0.0023433538
-0.0017340325
-0.0008888303
-2.8160818e-05
0.00064138879
-0.0023013204
-0.0019974311
-0.0016394807
-0.0012681736
-0.00090135418
-0.00052937319
-0.00013183684
0.00030753722
0.00073232588
0.0010820522
-0.00093447588
-0.00036498053
0.00030185801
0.00089548301
0.0013400589
0.0016650004
0.0018866756
0.0020030097
0.002001549
0.0019181089
-0.00086683857
-0.00036225928
0.00055353447
0.001455517
0.0020080579
0.0022924274
0.0023460673
0.0021396594
0.0016314485
0.00088356497
-0.0030207201
-0.0043654912
-0.0042035001
-0.0031271415
-0.0024976285
-0.0022629788
-0.002382755
-0.0029775976
-0.0042176208
-0.0058965539
-0.0028433248
-0.0055132868
-0.0071700334
-0.0062420025
-0.0056398143
-0.0054674875
-0.0057247151
-0.0067235819
-0.0086436714
-0.0061333671
-0.00031444687
-0.0010958599
-0.0019789729
-0.0017190188
-0.0015326065
-0.0014858679
-0.0015882333
-0.0019844569
-0.002707522
-0.0003109207
-0.00073855274
0.0021459623
0.00067063216
0.00047916024
0.0005424539
0.00069922178
0.00095362361
0.0010745173
3.1453255e-05
-0.00077779795
0.0048231376
0.006936915
0.0041750893
0.0038377324
0.0040570607
0.0045563114
0.0053912618
0.0061079845
0.004209434
0.0016239122
0.004239385
0.0017391818
0.0011402024
0.0011591247
0.001437865
0.0019493903
0.002792074
0.0039020813
0.0041403262
0.0031814145
-0.003332659
-0.0035249264
-0.0034506876
-0.0032272639
-0.0028913014
-0.0024300061
-0.0017779045
-0.00087598439
3.8628574e-05
0.00074663889
-0.0023070875
-0.0019769952
-0.0015885086
-0.0011867296
-0.00079125084
-0.00039193321
3.3101551e-05
0.00050119618
0.00095154599
0.0013204201
-0.00075348578
-0.00013673122
0.0005807153
0.0012174778
0.0016941122
0.0020418301
0.0022779545
0.0024002279
0.0023953895
0.0023029409
-0.00060147638
-3.853305e-05
0.00095019672
0.0019141579
0.0025042184
0.0028072872
0.0028626162
0.0026378824
0.0020869225
0.0012760508
-0.0028808621
-0.0042641176
-0.00406269
-0.0029158654
-0.0022461569
-0.001997421
-0.0021287219
-0.0027731147
-0.0041205637
-0.0059551666
-0.00278259
-0.0055610629
-0.0072666622
-0.0062817297
-0.005644039
-0.0054625058
-0.005741326
-0.0068243373
-0.008923378
-0.0062574769
-0.0002771525
-0.0010864037
-0.0020008337
-0.0017256782
-0.0015288268
-0.0014797621
-0.0015904592
-0.0020203432
-0.0028135278
-0.00024307585
-0.00081012878
0.0021273519
0.00061379105
0.00042093567
0.00049000779
0.00065738106
0.00093053455
0.0010703361
-8.3784152e-06
-0.0008387696
0.0047542481
0.0068901279
0.0040623465
0.0037285201
0.0039675999
0.0045003971
0.0053926908
0.0061766204
0.0042269707
0.0015739333
0.0041522962
0.0015926719
0.00099068845
0.0010246579
0.0013268036
0.001872285
0.0027677506
0.0039498929
0.0042218119
0.003248036
-0.0035012546
-0.0036869295
-0.0035960011
-0.0033508143
-0.0029895531
-0.0024980382
-0.0018064792
-0.00085256747
0.00011146413
0.00085452698
-0.0022865451
-0.001931877
-0.0015146682
-0.0010842499
-0.00066189204
-0.00023703561
0.00021356023
0.00070819953
0.0011820386
0.0015682717
-0.00054514224
0.00011564789
0.00087994867
0.0015565948
0.0020630226
0.0024320471
0.002681852
0.0028100105
0.0028024843
0.0027020752
-0.00029975079
0.0003196817
0.0013764725
0.0023972895
0.0030219432
0.0033425247
0.0033999066
0.0031589836
0.0025694154
0.001701142
-0.0026826787
-0.0040910481
-0.0038483988
-0.0026369868
-0.0019304555
-0.0016685084
-0.0018098232
-0.0024989997
-0.0039448613
-0.0059238478
-0.0026688004
-0.0055324589
-0.0072714875
-0.0062343159
-0.005564393
-0.0053742437
-0.0056723284
-0.0068320853
-0.0090971765
-0.0063001715
-0.0002287773
-0.0010591685
-0.0019974689
-0.0017083525
-0.0015020937
-0.0014508637
-0.0015690331
-0.0020297126
-0.0028883574
-0.00016504262
-0.0008818318
0.0020886484
0.00054702943
0.00035424085
0.00042878007
0.00060582385
0.00089624206
0.0010547594
-5.0829802e-05
-0.00089571711
0.0046374096
0.0067807014
0.0039063021
0.0035788141
0.003836588
0.0044000128
0.0053447423
0.0061927143
0.0042090364
0.0015094485
0.0040266628
0.0014250514
0.00082477546
0.0008742469
0.0011984491
0.0017750019
0.0027183075
0.003966326
0.0042726945
0.0032929385
-0.0036468657
-0.0038242398
-0.0037165799
-0.0034505661
-0.003065692
-0.0025464547
-0.001819135
-0.00081844262
0.00018997418
0.00096429025
-0.0022405348
-0.0018631604
-0.0014193361
-0.00096240537
-0.00051522468
-6.6888299e-05
0.00040707171
0.00092581124
0.0014208199
0.0018224431
-0.00031308955
0.00038810344
0.0011950648
0.0019079619
0.0024416218
0.0028302583
0.0030928113
0.0032266964
0.0032171351
0.0031098305
3.271656e-05
0.00070611987
0.001825418
0.0028974439
0.0035534301
0.0038901435
0.0039498682
0.0036949535
0.003071144
0.0021514262
-0.0024320316
-0.0038526394
-0.0035677375
-0.0022982524
-0.0015586284
-0.0012845043
-0.0014343046
-0.0021632285
-0.0036978177
-0.0058088254
-0.0025065558
-0.0054322705
-0.0071898215
-0.006105658
-0.0054070887
-0.0052090261
-0.0055239546
-0.0067525534
-0.0091695514
-0.0062658461
-0.00017058777
-0.0010154751
-0.001970313
-0.0016686457
-0.0014541023
-0.0014008969
-0.0015256387
-0.0020140421
-0.0029329772
-7.8238543e-05
-0.00095247772
0.0020313418
0.00047191546
0.00028059753
0.00036022979
0.00054591778
0.00085194833
0.0010287361
-9.5095341e-05
-0.00094794505
0.004476935
0.0066135248
0.0037118878
0.0033933669
0.0036685618
0.0042593976
0.0052511533
0.0061592332
0.0041580058
0.0014324168
0.0038668407
0.0012407242
0.00064668279
0.00071188003
0.0010565367
0.0016609609
0.0026467043
0.0039536645
0.0042945689
0.0033172245
-0.0037674017
-0.0039349302
-0.0038107278
-0.0035250764
-0.00311854
-0.0025743696
-0.0018153435
-0.00077353868
0.00027374837
0.0010751486
-0.0021700368
-0.0017720564
-0.0013040061
-0.00082297553
-0.0003532993
0.00011619992
0.00061106998
0.0011512008
0.0016648171
0.0020796886
-6.1125183e-05
0.00067645264
0.0015214664
0.0022666203
0.0028246629
0.0032309896
0.0035051851
0.0036445188
0.0036335192
0.0035203846
0.00039006246
0.0011142899
0.0022898981
0.0034069935
0.004090729
0.0044419943
0.0045042582
0.0042375758
0.0035840698
0.0026191813
-0.0021352271
-0.0035557926
-0.0032283746
-0.0019079281
-0.0011392827
-0.00085418099
-0.0010109486
-0.0017743694
-0.0033874179
-0.0056171117
-0.0023009076
-0.0052659293
-0.0070277241
-0.0059023693
-0.0051790367
-0.0049738815
-0.0053031709
-0.006592276
-0.0091459132
-0.0061596474
-0.00010395924
-0.00095680895
-0.0019210186
-0.0016083719
-0.0013867517
-0.0013317909
-0.0014621748
-0.0019750499
-0.0029486374
1.5793999e-05
-0.00102084
0.0019570835
0.00039010637
0.00020160595
0.0002858966
0.00047911806
0.0007989546
0.0009933169
-0.00014033056
-0.00099477219
0.0042775261
0.0063939457
0.0034843547
0.0031772298
0.0034683635
0.0040831169
0.0051160237
0.0060795344
0.0040765237
0.0013449123
0.0036774441
0.0010442278
0.0004607283
0.00054163917
0.00090490271
0.0015337023
0.0025560552
0.0039143935
0.0042892281
0.0033221343
-0.0038609288
-0.0040172434
-0.0038769201
-0.003573069
-0.0031470772
-0.0025810411
-0.0017946978
-0.00071787165
0.00036232336
0.0011862956
-0.0020761932
-0.001659925
-0.0011703061
-0.00066786194
-0.00017827822
0.00030981718
0.00082289479
0.0013814544
0.001910885
0.0023367012
0.0002068069
0.00097639391
0.0018544672
0.0026275464
0.0032068466
0.0036287194
0.0039132758
0.0040576521
0.0040457413
0.0039278292
0.00076621704
0.0015375153
0.0027626344
0.0039182066
0.0046258039
0.0049898438
0.0050547366
0.0047785089
0.004099985
0.0030964628
-0.0017989627
-0.0032078905
-0.0028384628
-0.0014747176
-0.00068144164
-0.00038672743
-0.00054897611
-0.001341479
-0.0030222228
-0.0053564016
-0.00205731
-0.0050394436
-0.006791932
-0.0056317028
-0.0048877648
-0.0046764561
-0.0050175877
-0.0063585022
-0.0090325103
-0.0059873916
-3.0362338e-05
-0.00088480397
-0.0018514366
-0.0015295331
-0.0013021218
-0.0012456557
-0.0013807299
-0.0019146705
-0.0029368491
0.00011540864
-0.0010856664
0.0018676629
0.000303326
0.00011892332
0.00020737991
0.00040694736
0.00073864257
0.00094963876
-0.00018566386
-0.0010355402
0.0040442012
0.0061276899
0.0032291974
0.0029356792
0.0032410696
0.0038759943
0.0049437534
0.0059573092
0.0039674608
0.0012490911
0.00346327
0.00084016067
0.00027125931
0.00036763371
0.00074742217
0.0013968271
0.0024495754
0.003851152
0.0042586247
0.0033090171
-0.0039257134
-0.0040696326
-0.0039138413
-0.0035934697
-0.0031504726
-0.0025658985
-0.0017569342
-0.00065156084
0.0004551723
0.0012968914
-0.0019603218
-0.0015282857
-0.0010200066
-0.00049909226
7.5645998e-06
0.00051145339
0.0010398017
0.00161359
0.0021558259
0.0025901346
0.0004866322
0.0012835262
0.002189316
0.0029856794
0.0035828544
0.0040179165
0.0043113788
0.0044602595
0.0044478852
0.0043262236
0.0011549468
0.001968984
0.0032362617
0.0044233088
0.0051505994
0.0055254454
0.0055929424
0.0053093659
0.0046105949
0.0035751865
-0.0014302667
-0.0028167263
-0.0024065592
-0.001007677
-0.00019445271
0.00010834721
-5.794638e-05
-0.00087400025
-0.0026112663
-0.005034974
-0.0017815645
-0.004759333
-0.0064897827
-0.0053014679
-0.0045413304
-0.0043249232
-0.0046753663
-0.0060591026
-0.0088363401
-0.005755484
4.865175e-05
-0.00080122456
-0.0017635948
-0.0014342963
-0.0012024487
-0.0011447572
-0.0012835564
-0.0018350295
-0.0028993615
0.00021887457
-0.0011456955
0.0017649826
0.00021334243
3.4242309e-05
0.00012631805
0.00033097574
0.00067245555
0.00089890827
-0.00023020842
-0.001069622
0.0037822239
0.0058207808
0.0029520784
0.0026741438
0.0029919207
0.0036430439
0.0047389783
0.0057965273
0.0038338699
0.0011471579
0.0032292246
0.00063311423
8.2587579e-05
0.00019393862
0.00058794941
0.0012539423
0.0023305292
0.0037666869
0.0042048335
0.0032793006
-0.0039602595
-0.0040907961
-0.0039204172
-0.0035854343
-0.0031281095
-0.0025285632
-0.0017019499
-0.00057484172
0.00055169658
0.0014060587
-0.0018239226
-0.0013788225
-0.00085502249
-0.00031881883
0.00020184857
0.00071850912
0.0012589747
0.0018445737
0.0023964092
0.002836626
0.00077416762
0.0015933739
0.0025212252
0.0033359537
0.0039473849
0.0043930798
0.0046938264
0.0048465406
0.0048340637
0.0047096461
0.0015499033
0.0024018021
0.0037033867
0.0049145467
0.0056571082
0.0060406114
0.006110569
0.0058217933
0.0051075986
0.0040472095
-0.0010364317
-0.0023904276
-0.00194154
-0.0005161233
0.00031210649
0.00062131121
0.00045234383
-0.00038165923
-0.0021639536
-0.0046615925
-0.0014797609
-0.0044325563
-0.0061291303
-0.0049199425
-0.0041482298
-0.0039278903
-0.0042851243
-0.005702474
-0.0085650576
-0.005470839
0.00013146722
-0.00070794636
-0.0016596741
-0.0013249683
-0.0010900993
-0.0010314904
-0.0011730444
-0.0017384165
-0.002838137
0.00032439591
-0.0011996734
0.0016510335
0.00012194529
-5.0730557e-05
4.4367211e-05
0.00025280026
0.00060187924
0.000842385
-0.00027307408
-0.0010964301
0.0034970305
0.0054794585
0.0026587528
0.002398133
0.0027262517
0.0033894028
0.0045065065
0.0056013788
0.0036789404
0.0010413337
0.0029802526
0.00042760652
-0.0001010729
2.4535274e-05
0.00043026171
0.0011086059
0.00220218
0.0036638082
0.0041300136
0.0032344628
-0.0039633403
-0.0040797075
-0.0038958415
-0.0035483729
-0.0030796071
-0.0024688675
-0.0016298178
-0.00048807724
0.00065121833
0.0015128776
-0.0016686808
-0.0012133846
-0.00067741099
-0.00012931392
0.0004020944
0.00092830668
0.0014775409
0.0020713378
0.0026293919
0.0030728171
0.001065147
0.001901415
0.0028454018
0.0036733333
0.0042951911
0.0047487798
0.0050550312
0.005210778
0.0051984679
0.0050722445
0.0019446741
0.0028290512
0.0041566501
0.0053842535
0.0061374404
0.0065272846
0.0065994385
0.0063075473
0.0055827665
0.0045044083
-0.00062494509
-0.0019373751
-0.0014525112
-9.5413754e-06
0.00082852495
0.0011423096
0.0009719617
0.00012563758
-0.0016899572
-0.004245406
-0.0011582131
-0.0040664357
-0.0057182582
-0.0044957811
-0.0037173034
-0.0034943019
-0.0038558369
-0.0052974409
-0.0082268805
-0.0051407964
0.00021642045
-0.00060693555
-0.001541984
-0.0012039694
-0.00096754449
-0.00090835267
-0.0010516935
-0.0016272581
-0.002755326
0.00043013129
-0.0012463704
0.0015278694
3.0923191e-05
-0.00013429652
-3.6819644e-05
0.00017402442
0.0005284221
0.00078136408
-0.00031337967
-0.0011154244
0.0031941574
0.0051100978
0.0023549939
0.0021131646
0.0024494214
0.0031202629
0.0042512528
0.0053762148
0.0035059521
0.0009338219
0.0027212672
0.00022801835
-0.00027566601
-0.00013674603
0.00027800421
0.00096427553
0.0020677403
0.003545343
0.0040363707
0.0031760014
-0.0039340276
-0.0040356418
-0.0038396001
-0.0034819716
-0.0030048387
-0.0023868705
-0.0015408002
-0.00039176856
0.00075297302
0.0016163807
-0.0014964665
-0.0010339851
-0.00048936822
6.7036493e-05
0.00060573284
0.0011381015
0.0016925841
0.0022907967
0.0028515369
0.0032953745
0.0013552476
0.0022031103
0.0031570791
0.0039928463
0.0046211176
0.0050796976
0.0053895287
0.0055473814
0.005535413
0.0054082828
0.0023328359
0.0032438453
0.0045887878
0.0058249128
0.0065838898
0.0069776081
0.0070515736
0.0067585681
0.0060280165
0.0049387549
-0.00020341759
-0.0014661203
-0.00094871824
0.00050251016
0.001345055
0.001661463
0.0014909393
0.00063790583
-0.0011991152
-0.0037958483
-0.00082339509
-0.0036685778
-0.005265788
-0.0040379194
-0.0032576387
-0.0030333416
-0.0033967374
-0.0048531549
-0.0078304916
-0.0047730368
0.00030181733
-0.00050022742
-0.0014129362
-0.0010738069
-0.00083733106
-0.00077791518
-0.00092208455
-0.0015040896
-0.00265324
0.00053421359
-0.0012845983
0.0013975803
-5.7959134e-05
-0.00021478634
-0.00011561399