/*--------------------------------*- C++ -*----------------------------------*\
| =========                 |                                                 |
| \\      /  F ield         | OpenFOAM: The Open Source CFD Toolbox           |
|  \\    /   O peration     | Version:  v2106                                 |
|   \\  /    A nd           | Website:  www.openfoam.com                      |
|    \\/     M anipulation  |                                                 |
\*---------------------------------------------------------------------------*/
FoamFile
{
    version     2.0;
    format      ascii;
    arch        "LSB;label=32;scalar=64";
    class       volScalarField;
    location    "35";
    object      gradTz;
}
// * * * * * * * * * * * * * * * * * * * * * * * * * * * * * * * * * * * * * //

dimensions      [0 -1 0 1 0 0 0];

internalField   nonuniform List<scalar> 
4000
(
513.51836
513.51771
513.52008
513.51985
513.51949
513.51924
513.51902
513.51877
513.5185
513.51834
513.51771
513.5191
513.52057
513.52022
513.51987
513.51963
513.51943
513.51916
513.51875
513.51842
513.52008
513.52057
513.52185
513.52148
513.52113
513.52092
513.52076
513.52053
513.52004
513.51942
513.51985
513.52022
513.52148
513.52109
513.52076
513.52058
513.52047
513.52031
513.51993
513.5194
513.51949
513.51987
513.52113
513.52076
513.52045
513.5203
513.52022
513.52011
513.51977
513.5193
513.51924
513.51963
513.52092
513.52058
513.5203
513.52016
513.5201
513.52002
513.5197
513.51925
513.51902
513.51943
513.52076
513.52047
513.52022
513.5201
513.52006
513.51998
513.51967
513.51921
513.51877
513.51916
513.52053
513.52031
513.52011
513.52002
513.51998
513.5199
513.51957
513.51909
513.5185
513.51875
513.52004
513.51993
513.51977
513.5197
513.51967
513.51957
513.51921
513.5187
513.51834
513.51842
513.51942
513.5194
513.5193
513.51925
513.51921
513.51909
513.5187
513.51818
759.70293
759.70278
759.7049
759.70467
759.70423
759.70389
759.70359
759.70322
759.70275
759.70268
759.70278
759.70399
759.70544
759.70509
759.70466
759.70436
759.70409
759.70368
759.70289
759.70252
759.7049
759.70544
759.70669
759.7063
759.70588
759.70561
759.70542
759.70508
759.70419
759.70346
759.70467
759.70509
759.7063
759.70591
759.70551
759.70528
759.70515
759.70492
759.70416
759.70354
759.70423
759.70466
759.70588
759.70551
759.70513
759.70494
759.70486
759.70469
759.70401
759.70346
759.70389
759.70436
759.70561
759.70528
759.70494
759.70478
759.70474
759.7046
759.70395
759.70342
759.70359
759.70409
759.70542
759.70515
759.70486
759.70474
759.70471
759.70458
759.70393
759.70339
759.70322
759.70368
759.70508
759.70492
759.70469
759.7046
759.70458
759.70444
759.70376
759.70317
759.70275
759.70289
759.70419
759.70416
759.70401
759.70395
759.70393
759.70376
759.70301
759.70236
759.70268
759.70252
759.70346
759.70354
759.70346
759.70342
759.70339
759.70317
759.70236
759.70188
756.22954
756.22958
756.23089
756.23064
756.23027
756.22998
756.22973
756.22935
756.22872
756.22867
756.22958
756.23045
756.23136
756.23104
756.23068
756.23043
756.23023
756.22985
756.22885
756.22843
756.23089
756.23136
756.23213
756.23179
756.23144
756.23124
756.23112
756.23082
756.22975
756.22905
756.23064
756.23104
756.23179
756.23144
756.23111
756.23095
756.2309
756.23071
756.22975
756.22913
756.23027
756.23068
756.23144
756.23111
756.23082
756.23069
756.23069
756.23056
756.22966
756.22911
756.22998
756.23043
756.23124
756.23095
756.23069
756.2306
756.23063
756.23053
756.22966
756.22912
756.22973
756.23023
756.23112
756.2309
756.23069
756.23063
756.23067
756.23057
756.22969
756.22914
756.22935
756.22985
756.23082
756.23071
756.23056
756.23053
756.23057
756.23045
756.22952
756.22888
756.22872
756.22885
756.22975
756.22975
756.22966
756.22966
756.22969
756.22952
756.22848
756.22774
756.22867
756.22843
756.22905
756.22913
756.22911
756.22912
756.22914
756.22888
756.22774
756.22756
753.35795
753.35787
753.35894
753.35867
753.35834
753.35812
753.35793
753.3576
753.3569
753.35671
753.35787
753.3585
753.35922
753.3589
753.35859
753.3584
753.35829
753.35798
753.35695
753.3565
753.35894
753.35922
753.35985
753.35951
753.35922
753.35908
753.35904
753.35883
753.35772
753.357
753.35867
753.3589
753.35951
753.35919
753.35891
753.35882
753.35885
753.35874
753.35773
753.35708
753.35834
753.35859
753.35922
753.35891
753.35867
753.35861
753.35869
753.35864
753.35768
753.35709
753.35812
753.3584
753.35908
753.35882
753.35861
753.35858
753.35869
753.35866
753.35773
753.35715
753.35793
753.35829
753.35904
753.35885
753.35869
753.35869
753.35881
753.35879
753.35784
753.35722
753.3576
753.35798
753.35883
753.35874
753.35864
753.35866
753.35879
753.35873
753.3577
753.35698
753.3569
753.35695
753.35772
753.35773
753.35768
753.35773
753.35784
753.3577
753.35653
753.35564
753.35671
753.3565
753.357
753.35708
753.35709
753.35715
753.35722
753.35698
753.35564
753.35557
751.05745
751.05734
751.0583
751.05802
751.05772
751.05755
751.05744
751.05721
751.05657
751.05637
751.05734
751.05787
751.0585
751.05818
751.0579
751.05777
751.05773
751.05753
751.05658
751.05616
751.0583
751.0585
751.05905
751.05872
751.05846
751.05837
751.05842
751.05831
751.05728
751.05661
751.05802
751.05818
751.05872
751.0584
751.05816
751.05812
751.05823
751.05823
751.05729
751.05669
751.05772
751.0579
751.05846
751.05816
751.05796
751.05795
751.05811
751.05816
751.05728
751.05672
751.05755
751.05777
751.05837
751.05812
751.05795
751.05798
751.05817
751.05824
751.05738
751.05683
751.05744
751.05773
751.05842
751.05823
751.05811
751.05817
751.05836
751.05843
751.05755
751.05697
751.05721
751.05753
751.05831
751.05823
751.05816
751.05824
751.05843
751.05846
751.05749
751.05679
751.05657
751.05658
751.05728
751.05729
751.05728
751.05738
751.05755
751.05749
751.05635
751.05542
751.05637
751.05616
751.05661
751.05669
751.05672
751.05683
751.05697
751.05679
751.05542
751.05537
749.29567
749.29554
749.2964
749.29612
749.29585
749.29572
749.29568
749.29553
749.29498
749.29482
749.29554
749.29601
749.29656
749.29624
749.29598
749.2959
749.29593
749.29582
749.29498
749.29461
749.2964
749.29656
749.29703
749.2967
749.29647
749.29644
749.29655
749.29653
749.29562
749.29502
749.29612
749.29624
749.2967
749.29639
749.29619
749.29619
749.29637
749.29646
749.29563
749.29509
749.29585
749.29598
749.29647
749.29619
749.29601
749.29606
749.29628
749.29642
749.29565
749.29515
749.29572
749.2959
749.29644
749.29619
749.29606
749.29613
749.29638
749.29654
749.29579
749.2953
749.29568
749.29593
749.29655
749.29637
749.29628
749.29638
749.29664
749.29679
749.29602
749.2955
749.29553
749.29582
749.29653
749.29646
749.29642
749.29654
749.29679
749.2969
749.29604
749.29538
749.29498
749.29498
749.29562
749.29563
749.29565
749.29579
749.29602
749.29604
749.29499
749.29409
749.29482
749.29461
749.29502
749.29509
749.29515
749.2953
749.2955
749.29538
749.29409
749.29405
748.03785
748.03771
748.03847
748.03818
748.03793
748.03785
748.03787
748.0378
748.03734
748.03722
748.03771
748.03811
748.03858
748.03826
748.03803
748.03799
748.03808
748.03805
748.03732
748.03701
748.03847
748.03858
748.03897
748.03865
748.03845
748.03845
748.03862
748.03869
748.0379
748.03738
748.03818
748.03826
748.03865
748.03835
748.03817
748.03822
748.03845
748.03862
748.03791
748.03745
748.03793
748.03803
748.03845
748.03817
748.03802
748.03811
748.03838
748.0386
748.03795
748.03753
748.03785
748.03799
748.03845
748.03822
748.03811
748.03822
748.03853
748.03876
748.03813
748.03772
748.03787
748.03808
748.03862
748.03845
748.03838
748.03853
748.03884
748.03907
748.03841
748.03796
748.0378
748.03805
748.03869
748.03862
748.0386
748.03876
748.03907
748.03926
748.03851
748.03793
748.03734
748.03732
748.0379
748.03791
748.03795
748.03813
748.03841
748.03851
748.03757
748.03674
748.03722
748.03701
748.03738
748.03745
748.03753
748.03772
748.03796
748.03793
748.03674
748.03673
747.24743
747.24727
747.24792
747.24763
747.24741
747.24737
747.24744
747.24744
747.24707
747.247
747.24727
747.24759
747.24798
747.24766
747.24746
747.24746
747.2476
747.24765
747.24703
747.24679
747.24792
747.24798
747.2483
747.24799
747.24781
747.24785
747.24807
747.24822
747.24755
747.24711
747.24763
747.24766
747.24799
747.24769
747.24753
747.24762
747.24791
747.24814
747.24756
747.24718
747.24741
747.24746
747.24781
747.24753
747.24741
747.24753
747.24786
747.24815
747.24762
747.24728
747.24737
747.24746
747.24785
747.24762
747.24753
747.24769
747.24804
747.24835
747.24783
747.2475
747.24744
747.2476
747.24807
747.24791
747.24786
747.24804
747.2484
747.2487
747.24816
747.24779
747.24744
747.24765
747.24822
747.24814
747.24815
747.24835
747.2487
747.24896
747.24833
747.24783
747.24707
747.24703
747.24755
747.24756
747.24762
747.24783
747.24816
747.24833
747.24751
747.24677
747.247
747.24679
747.24711
747.24718
747.24728
747.2475
747.24779
747.24783
747.24677
747.2468
746.88632
746.88614
746.88669
746.8864
746.8862
746.8862
746.88632
746.88639
746.88611
746.88608
746.88614
746.8864
746.8867
746.88639
746.88621
746.88624
746.88643
746.88656
746.88605
746.88587
746.88669
746.8867
746.88695
746.88664
746.88649
746.88656
746.88683
746.88705
746.8865
746.88615
746.8864
746.88639
746.88664
746.88635
746.88622
746.88634
746.88667
746.88697
746.88651
746.88622
746.8862
746.88621
746.88649
746.88622
746.88612
746.88628
746.88665
746.887
746.88659
746.88633
746.8862
746.88624
746.88656
746.88634
746.88628
746.88646
746.88685
746.88723
746.88683
746.88658
746.88632
746.88643
746.88683
746.88667
746.88665
746.88685
746.88726
746.88762
746.8872
746.88692
746.88639
746.88656
746.88705
746.88697
746.887
746.88723
746.88762
746.88795
746.88744
746.88703
746.88611
746.88605
746.8865
746.88651
746.88659
746.88683
746.8872
746.88744
746.88675
746.8861
746.88608
746.88587
746.88615
746.88622
746.88633
746.88658
746.88692
746.88703
746.8861
746.88617
746.91522
746.91504
746.91548
746.91519
746.91501
746.91504
746.91521
746.91534
746.91515
746.91516
746.91504
746.91522
746.91544
746.91514
746.91498
746.91504
746.91528
746.91547
746.91507
746.91496
746.91548
746.91544
746.91562
746.91532
746.91518
746.91529
746.9156
746.91588
746.91546
746.91519
746.91519
746.91514
746.91532
746.91504
746.91493
746.91508
746.91545
746.91581
746.91547
746.91525
746.91501
746.91498
746.91518
746.91493
746.91485
746.91504
746.91544
746.91585
746.91556
746.91538
746.91504
746.91504
746.91529
746.91508
746.91504
746.91525
746.91568
746.91611
746.91583
746.91566
746.91521
746.91528
746.9156
746.91545
746.91544
746.91568
746.91611
746.91654
746.91623
746.91603
746.91534
746.91547
746.91588
746.91581
746.91585
746.91611
746.91654
746.91692
746.91654
746.91622
746.91515
746.91507
746.91546
746.91547
746.91556
746.91583
746.91623
746.91654
746.91598
746.91542
746.91516
746.91496
746.91519
746.91525
746.91538
746.91566
746.91603
746.91622
746.91542
746.91553
747.29387
747.29367
747.294
747.29372
747.29357
747.29363
747.29383
747.29403
747.29392
747.29397
747.29367
747.29378
747.29392
747.29363
747.29349
747.29359
747.29386
747.29411
747.29383
747.29377
747.294
747.29392
747.29403
747.29374
747.29363
747.29377
747.29411
747.29445
747.29415
747.29396
747.29372
747.29363
747.29374
747.29347
747.29339
747.29356
747.29396
747.29438
747.29415
747.29402
747.29357
747.29349
747.29363
747.29339
747.29334
747.29354
747.29398
747.29444
747.29426
747.29416
747.29363
747.29359
747.29377
747.29356
747.29354
747.29378
747.29424
747.29472
747.29455
747.29445
747.29383
747.29386
747.29411
747.29396
747.29398
747.29424
747.2947
747.29518
747.29499
747.29487
747.29403
747.29411
747.29445
747.29438
747.29444
747.29472
747.29518
747.29561
747.29535
747.29511
747.29392
747.29383
747.29415
747.29415
747.29426
747.29455
747.29499
747.29535
747.29492
747.29446
747.29397
747.29377
747.29396
747.29402
747.29416
747.29445
747.29487
747.29511
747.29446
747.29461
747.98127
747.98106
747.98129
747.98102
747.98089
747.98098
747.98122
747.98147
747.98144
747.98153
747.98106
747.9811
747.98117
747.98089
747.98078
747.9809
747.98121
747.98151
747.98133
747.98133
747.98129
747.98117
747.98121
747.98094
747.98085
747.98101
747.98139
747.98177
747.98159
747.98148
747.98102
747.98089
747.98094
747.98068
747.98062
747.98082
747.98125
747.98171
747.98159
747.98154
747.98089
747.98078
747.98085
747.98062
747.9806
747.98082
747.98128
747.98179
747.98171
747.98169
747.98098
747.9809
747.98101
747.98082
747.98082
747.98108
747.98156
747.98208
747.98202
747.982
747.98122
747.98121
747.98139
747.98125
747.98128
747.98156
747.98205
747.98256
747.98248
747.98244
747.98147
747.98151
747.98177
747.98171
747.98179
747.98208
747.98256
747.98305
747.9829
747.98275
747.98144
747.98133
747.98159
747.98159
747.98171
747.98202
747.98248
747.9829
747.98259
747.98223
747.98153
747.98133
747.98148
747.98154
747.98169
747.982
747.98244
747.98275
747.98223
747.98241
748.93602
748.9358
748.93593
748.93567
748.93557
748.93569
748.93596
748.93625
748.9363
748.93643
748.9358
748.93578
748.93578
748.93551
748.93543
748.93558
748.93591
748.93626
748.93619
748.93624
748.93593
748.93578
748.93575
748.9355
748.93544
748.93562
748.93602
748.93645
748.93637
748.93635
748.93567
748.93551
748.9355
748.93526
748.93523
748.93545
748.93589
748.93639
748.93638
748.9364
748.93557
748.93543
748.93544
748.93523
748.93522
748.93547
748.93595
748.93648
748.93651
748.93656
748.93569
748.93558
748.93562
748.93545
748.93547
748.93574
748.93624
748.93679
748.93683
748.93688
748.93596
748.93591
748.93602
748.93589
748.93595
748.93624
748.93674
748.93729
748.93731
748.93734
748.93625
748.93626
748.93645
748.93639
748.93648
748.93679
748.93729
748.93781
748.93777
748.9377
748.9363
748.93619
748.93637
748.93638
748.93651
748.93683
748.93731
748.93777
748.93759
748.93732
748.93643
748.93624
748.93635
748.9364
748.93656
748.93688
748.93734
748.9377
748.93732
748.93753
750.11654
750.11633
750.11636
750.11612
750.11604
750.11618
750.11648
750.11682
750.11693
750.11709
750.11633
750.11624
750.11617
750.11593
750.11587
750.11604
750.1164
750.11679
750.11681
750.11692
750.11636
750.11617
750.11609
750.11586
750.11582
750.11603
750.11644
750.1169
750.11693
750.11698
750.11612
750.11593
750.11586
750.11564
750.11563
750.11587
750.11632
750.11685
750.11694
750.11703
750.11604
750.11587
750.11582
750.11563
750.11565
750.11591
750.1164
750.11696
750.11708
750.1172
750.11618
750.11604
750.11603
750.11587
750.11591
750.11619
750.1167
750.11728
750.11741
750.11753
750.11648
750.1164
750.11644
750.11632
750.1164
750.1167
750.11721
750.11779
750.11791
750.118
750.11682
750.11679
750.1169
750.11685
750.11696
750.11728
750.11779
750.11833
750.1184
750.1184
750.11693
750.11681
750.11693
750.11694
750.11708
750.11741
750.11791
750.1184
750.11833
750.11815
750.11709
750.11692
750.11698
750.11703
750.1172
750.11753
750.118
750.1184
750.11815
750.1184
751.48137
751.48116
751.48109
751.48087
751.48083
751.48099
751.48131
751.48168
751.48186
751.48205
751.48116
751.48101
751.48088
751.48066
751.48063
751.48082
751.48119
751.48162
751.48173
751.48188
751.48109
751.48088
751.48074
751.48054
751.48053
751.48075
751.48117
751.48166
751.48179
751.4819
751.48087
751.48066
751.48054
751.48035
751.48036
751.48061
751.48107
751.48162
751.4818
751.48195
751.48083
751.48063
751.48053
751.48036
751.4804
751.48067
751.48116
751.48174
751.48195
751.48212
751.48099
751.48082
751.48075
751.48061
751.48067
751.48096
751.48147
751.48206
751.48228
751.48246
751.48131
751.48119
751.48117
751.48107
751.48116
751.48147
751.48198
751.48257
751.48278
751.48294
751.48168
751.48162
751.48166
751.48162
751.48174
751.48206
751.48257
751.48314
751.4833
751.48338
751.48186
751.48173
751.48179
751.4818
751.48195
751.48228
751.48278
751.4833
751.48334
751.48325
751.48205
751.48188
751.4819
751.48195
751.48212
751.48246
751.48294
751.48338
751.48325
751.48352
752.98938
752.98917
752.98902
752.98882
752.98881
752.98899
752.98932
752.98972
752.98996
752.99017
752.98917
752.98897
752.98878
752.98859
752.98859
752.9888
752.98918
752.98963
752.98982
752.99002
752.98902
752.98878
752.9886
752.98842
752.98844
752.98867
752.9891
752.98961
752.98983
752.99
752.98882
752.98859
752.98842
752.98826
752.9883
752.98855
752.98902
752.98958
752.98984
752.99005
752.98881
752.98859
752.98844
752.9883
752.98836
752.98863
752.98912
752.98971
752.99
752.99023
752.98899
752.9888
752.98867
752.98855
752.98863
752.98893
752.98943
752.99003
752.99033
752.99056
752.98932
752.98918
752.9891
752.98902
752.98912
752.98943
752.98994
752.99054
752.99083
752.99104
752.98972
752.98963
752.98961
752.98958
752.98971
752.99003
752.99054
752.99111
752.99136
752.99151
752.98996
752.98982
752.98983
752.98984
752.99
752.99033
752.99083
752.99136
752.9915
752.9915
752.99017
752.99002
752.99
752.99005
752.99023
752.99056
752.99104
752.99151
752.9915
752.99179
754.60006
754.59986
754.59962
754.59945
754.59946
754.59966
754.60001
754.60043
754.60072
754.60095
754.59986
754.59961
754.59937
754.59921
754.59924
754.59945
754.59984
754.60031
754.60058
754.60081
754.59962
754.59937
754.59914
754.59899
754.59904
754.59928
754.59971
754.60023
754.60053
754.60076
754.59945
754.59921
754.59899
754.59887
754.59893
754.59919
754.59965
754.60021
754.60055
754.60081
754.59946
754.59924
754.59904
754.59893
754.59901
754.59929
754.59976
754.60035
754.60071
754.60098
754.59966
754.59945
754.59928
754.59919
754.59929
754.59958
754.60007
754.60067
754.60104
754.60132
754.60001
754.59984
754.59971
754.59965
754.59976
754.60007
754.60057
754.60116
754.60152
754.60179
754.60043
754.60031
754.60023
754.60021
754.60035
754.60067
754.60116
754.60174
754.60206
754.60227
754.60072
754.60058
754.60053
754.60055
754.60071
754.60104
754.60152
754.60206
754.6023
754.60237
754.60095
754.60081
754.60076
754.60081
754.60098
754.60132
754.60179
754.60227
754.60237
754.60268
756.27373
756.27354
756.27323
756.27309
756.27313
756.27335
756.2737
756.27413
756.27446
756.27471
756.27354
756.27325
756.27297
756.27284
756.27289
756.27312
756.27351
756.27399
756.27433
756.27459
756.27323
756.27297
756.2727
756.27259
756.27266
756.27291
756.27332
756.27385
756.27422
756.27451
756.27309
756.27284
756.27259
756.27249
756.27258
756.27284
756.27329
756.27384
756.27424
756.27455
756.27313
756.27289
756.27266
756.27258
756.27268
756.27296
756.27342
756.27399
756.27441
756.27473
756.27335
756.27312
756.27291
756.27284
756.27296
756.27325
756.27372
756.2743
756.27473
756.27505
756.2737
756.27351
756.27332
756.27329
756.27342
756.27372
756.2742
756.27478
756.2752
756.27551
756.27413
756.27399
756.27385
756.27384
756.27399
756.2743
756.27478
756.27535
756.27574
756.276
756.27446
756.27433
756.27422
756.27424
756.27441
756.27473
756.2752
756.27574
756.27606
756.27621
756.27471
756.27459
756.27451
756.27455
756.27473
756.27505
756.27551
756.276
756.27621
756.27652
757.9718
757.97162
757.97125
757.97114
757.97121
757.97143
757.97179
757.97222
757.97259
757.97285
757.97162
757.9713
757.97098
757.97089
757.97097
757.9712
757.97158
757.97206
757.97246
757.97275
757.97125
757.97098
757.97068
757.9706
757.9707
757.97095
757.97135
757.97187
757.97231
757.97264
757.97114
757.97089
757.9706
757.97054
757.97065
757.97091
757.97134
757.97187
757.97233
757.97268
757.97121
757.97097
757.9707
757.97065
757.97077
757.97104
757.97148
757.97203
757.9725
757.97285
757.97143
757.9712
757.97095
757.97091
757.97104
757.97133
757.97177
757.97233
757.97281
757.97316
757.97179
757.97158
757.97135
757.97134
757.97148
757.97177
757.97222
757.97278
757.97325
757.9736
757.97222
757.97206
757.97187
757.97187
757.97203
757.97233
757.97278
757.97333
757.97378
757.97409
757.97259
757.97246
757.97231
757.97233
757.9725
757.97281
757.97325
757.97378
757.97417
757.97439
757.97285
757.97275
757.97264
757.97268
757.97285
757.97316
757.9736
757.97409
757.97439
757.97471
759.65693
759.65678
759.65634
759.65627
759.65637
759.6566
759.65695
759.65738
759.65778
759.65804
759.65678
759.65643
759.65607
759.65602
759.65613
759.65636
759.65674
759.65721
759.65766
759.65797
759.65634
759.65607
759.65575
759.65571
759.65583
759.65608
759.65646
759.65696
759.65746
759.65783
759.65627
759.65602
759.65571
759.65569
759.65582
759.65608
759.65647
759.65699
759.65749
759.65787
759.65637
759.65613
759.65583
759.65582
759.65595
759.65622
759.65662
759.65715
759.65766
759.65804
759.6566
759.65636
759.65608
759.65608
759.65622
759.65649
759.65691
759.65743
759.65795
759.65833
759.65695
759.65674
759.65646
759.65647
759.65662
759.65691
759.65732
759.65785
759.65836
759.65874
759.65738
759.65721
759.65696
759.65699
759.65715
759.65743
759.65785
759.65837
759.65887
759.65922
759.65778
759.65766
759.65746
759.65749
759.65766
759.65795
759.65836
759.65887
759.65932
759.6596
759.65804
759.65797
759.65783
759.65787
759.65804
759.65833
759.65874
759.65922
759.6596
759.65992
761.29329
761.29316
761.29267
761.29264
761.29276
761.293
761.29334
761.29376
761.29418
761.29444
761.29316
761.29278
761.2924
761.29239
761.29252
761.29276
761.29312
761.29357
761.29407
761.29439
761.29267
761.2924
761.29206
761.29207
761.2922
761.29245
761.29281
761.29329
761.29382
761.29422
761.29264
761.29239
761.29207
761.29208
761.29223
761.29248
761.29284
761.29332
761.29386
761.29426
761.29276
761.29252
761.2922
761.29223
761.29238
761.29264
761.293
761.29349
761.29403
761.29443
761.293
761.29276
761.29245
761.29248
761.29264
761.2929
761.29327
761.29375
761.29429
761.29469
761.29334
761.29312
761.29281
761.29284
761.293
761.29327
761.29364
761.29413
761.29467
761.29507
761.29376
761.29357
761.29329
761.29332
761.29349
761.29375
761.29413
761.29461
761.29515
761.29553
761.29418
761.29407
761.29382
761.29386
761.29403
761.29429
761.29467
761.29515
761.29566
761.29599
761.29444
761.29439
761.29422
761.29426
761.29443
761.29469
761.29507
761.29553
761.29599
761.2963
762.84667
762.84657
762.84604
762.84604
762.84619
762.84643
762.84675
762.84716
762.8476
762.84785
762.84657
762.84617
762.84578
762.84581
762.84596
762.8462
762.84653
762.84697
762.84749
762.84783
762.84604
762.84578
762.84542
762.84547
762.84563
762.84587
762.8462
762.84664
762.84721
762.84763
762.84604
762.84581
762.84547
762.84553
762.84569
762.84593
762.84626
762.84669
762.84726
762.84767
762.84619
762.84596
762.84563
762.84569
762.84586
762.8461
762.84642
762.84686
762.84742
762.84783
762.84643
762.8462
762.84587
762.84593
762.8461
762.84634
762.84666
762.8471
762.84766
762.84807
762.84675
762.84653
762.8462
762.84626
762.84642
762.84666
762.84699
762.84743
762.84799
762.8484
762.84716
762.84697
762.84664
762.84669
762.84686
762.8471
762.84743
762.84787
762.84843
762.84883
762.8476
762.84749
762.84721
762.84726
762.84742
762.84766
762.84799
762.84843
762.84898
762.84936
762.84785
762.84783
762.84763
762.84767
762.84783
762.84807
762.8484
762.84883
762.84936
762.84965
764.28471
764.28464
764.28406
764.28411
764.28429
764.28452
764.28482
764.28521
764.28565
764.28588
764.28464
764.28423
764.28381
764.28389
764.28407
764.2843
764.2846
764.28501
764.28556
764.28589
764.28406
764.28381
764.28345
764.28354
764.28372
764.28395
764.28424
764.28465
764.28524
764.28568
764.28411
764.28389
764.28354
764.28364
764.28382
764.28405
764.28433
764.28472
764.28529
764.28572
764.28429
764.28407
764.28372
764.28382
764.284
764.28422
764.2845
764.28488
764.28545
764.28586
764.28452
764.2843
764.28395
764.28405
764.28422
764.28444
764.28471
764.28509
764.28566
764.28607
764.28482
764.2846
764.28424
764.28433
764.2845
764.28471
764.28499
764.28537
764.28593
764.28635
764.28521
764.28501
764.28465
764.28472
764.28488
764.28509
764.28537
764.28575
764.28633
764.28675
764.28565
764.28556
764.28524
764.28529
764.28545
764.28566
764.28593
764.28633
764.28691
764.28733
764.28588
764.28589
764.28568
764.28572
764.28586
764.28607
764.28635
764.28675
764.28733
764.2876
765.57697
765.57693
765.57632
765.57642
765.57661
765.57684
765.57712
765.57747
765.57791
765.57813
765.57693
765.57651
765.5761
765.57622
765.57642
765.57664
765.5769
765.57727
765.57784
765.57816
765.57632
765.5761
765.57573
765.57587
765.57606
765.57628
765.57653
765.57688
765.57749
765.57794
765.57642
765.57622
765.57587
765.57601
765.5762
765.57641
765.57664
765.57697
765.57755
765.57798
765.57661
765.57642
765.57606
765.5762
765.57639
765.57659
765.57681
765.57713
765.57769
765.5781
765.57684
765.57664
765.57628
765.57641
765.57659
765.57678
765.577
765.57731
765.57787
765.57827
765.57712
765.5769
765.57653
765.57664
765.57681
765.577
765.57721
765.57753
765.57809
765.5785
765.57747
765.57727
765.57688
765.57697
765.57713
765.57731
765.57753
765.57785
765.57843
765.57886
765.57791
765.57784
765.57749
765.57755
765.57769
765.57787
765.57809
765.57843
765.57903
765.57948
765.57813
765.57816
765.57794
765.57798
765.5781
765.57827
765.5785
765.57886
765.57948
765.57973
766.69511
766.69511
766.69449
766.69462
766.69484
766.69506
766.6953
766.69562
766.69605
766.69625
766.69511
766.6947
766.69428
766.69445
766.69466
766.69487
766.6951
766.69543
766.69599
766.69631
766.69449
766.69428
766.69392
766.6941
766.69431
766.69451
766.69471
766.69501
766.69562
766.69607
766.69462
766.69445
766.6941
766.69428
766.69449
766.69467
766.69485
766.69511
766.69569
766.6961
766.69484
766.69466
766.69431
766.69449
766.69469
766.69486
766.69502
766.69527
766.69582
766.69622
766.69506
766.69487
766.69451
766.69467
766.69486
766.69502
766.69517
766.69541
766.69596
766.69635
766.6953
766.6951
766.69471
766.69485
766.69502
766.69517
766.69532
766.69556
766.69611
766.69652
766.69562
766.69543
766.69501
766.69511
766.69527
766.69541
766.69556
766.69582
766.69639
766.69682
766.69605
766.69599
766.69562
766.69569
766.69582
766.69596
766.69611
766.69639
766.697
766.69747
766.69625
766.69631
766.69607
766.6961
766.69622
766.69635
766.69652
766.69682
766.69747
766.69769
767.613
767.61304
767.61239
767.61257
767.61281
767.61302
767.61322
767.6135
767.61391
767.61408
767.61304
767.61263
767.61222
767.61243
767.61266
767.61285
767.61303
767.61331
767.61387
767.61417
767.61239
767.61222
767.61187
767.61209
767.61231
767.61249
767.61264
767.61288
767.61348
767.61392
767.61257
767.61243
767.61209
767.61231
767.61253
767.61268
767.6128
767.613
767.61355
767.61395
767.61281
767.61266
767.61231
767.61253
767.61273
767.61287
767.61297
767.61314
767.61367
767.61405
767.61302
767.61285
767.61249
767.61268
767.61287
767.613
767.61308
767.61324
767.61376
767.61413
767.61322
767.61303
767.61264
767.6128
767.61297
767.61308
767.61317
767.61333
767.61385
767.61424
767.6135
767.61331
767.61288
767.613
767.61314
767.61324
767.61333
767.6135
767.61406
767.61448
767.61391
767.61387
767.61348
767.61355
767.61367
767.61376
767.61385
767.61406
767.61467
767.61516
767.61408
767.61417
767.61392
767.61395
767.61405
767.61413
767.61424
767.61448
767.61516
767.61534
768.30675
768.30682
768.30617
768.30639
768.30664
768.30683
768.307
768.30722
768.30761
768.30775
768.30682
768.30643
768.30602
768.30628
768.30652
768.3067
768.30683
768.30705
768.30759
768.30787
768.30617
768.30602
768.30569
768.30595
768.30619
768.30633
768.30643
768.3066
768.30718
768.3076
768.30639
768.30628
768.30595
768.30621
768.30643
768.30656
768.30661
768.30673
768.30726
768.30764
768.30664
768.30652
768.30619
768.30643
768.30664
768.30675
768.30678
768.30687
768.30736
768.30771
768.30683
768.3067
768.30633
768.30656
768.30675
768.30683
768.30685
768.30692
768.30741
768.30775
768.307
768.30683
768.30643
768.30661
768.30678
768.30685
768.30686
768.30693
768.30743
768.30778
768.30722
768.30705
768.3066
768.30673
768.30687
768.30692
768.30693
768.30703
768.30756
768.30796
768.30761
768.30759
768.30718
768.30726
768.30736
768.30741
768.30743
768.30756
768.30815
768.30865
768.30775
768.30787
768.3076
768.30764
768.30771
768.30775
768.30778
768.30796
768.30865
768.30879
768.75481
768.75493
768.75427
768.75453
768.7548
768.75497
768.75509
768.75525
768.7556
768.75571
768.75493
768.75455
768.75416
768.75445
768.75471
768.75486
768.75494
768.75509
768.75561
768.75586
768.75427
768.75416
768.75384
768.75414
768.75439
768.7545
768.75453
768.75463
768.75519
768.75559
768.75453
768.75445
768.75414
768.75444
768.75466
768.75475
768.75474
768.75478
768.75527
768.75562
768.7548
768.75471
768.75439
768.75466
768.75487
768.75494
768.7549
768.7549
768.75535
768.75567
768.75497
768.75486
768.7545
768.75475
768.75494
768.75499
768.75493
768.75491
768.75535
768.75566
768.75509
768.75494
768.75453
768.75474
768.7549
768.75493
768.75486
768.75484
768.75529
768.75562
768.75525
768.75509
768.75463
768.75478
768.7549
768.75491
768.75484
768.75484
768.75534
768.75572
768.7556
768.75561
768.75519
768.75527
768.75535
768.75535
768.75529
768.75534
768.75591
768.7564
768.75571
768.75586
768.75559
768.75562
768.75567
768.75566
768.75562
768.75572
768.7564
768.75651
768.93803
768.9382
768.93754
768.93784
768.93811
768.93826
768.93833
768.93843
768.93874
768.93881
768.9382
768.93783
768.93747
768.9378
768.93806
768.93818
768.9382
768.93829
768.93877
768.93899
768.93754
768.93747
768.93717
768.9375
768.93775
768.93784
768.9378
768.93782
768.93834
768.93871
768.93784
768.9378
768.9375
768.93783
768.93806
768.93811
768.93803
768.93798
768.93842
768.93874
768.93811
768.93806
768.93775
768.93806
768.93827
768.93829
768.93817
768.93808
768.93848
768.93876
768.93826
768.93818
768.93784
768.93811
768.93829
768.93829
768.93815
768.93804
768.93843
768.93869
768.93833
768.9382
768.9378
768.93803
768.93817
768.93815
768.938
768.93789
768.93829
768.93857
768.93843
768.93829
768.93782
768.93798
768.93808
768.93804
768.93789
768.9378
768.93824
768.9386
768.93874
768.93877
768.93834
768.93842
768.93848
768.93843
768.93829
768.93824
768.93879
768.93927
768.93881
768.93899
768.93871
768.93874
768.93876
768.93869
768.93857
768.9386
768.93927
768.93933
768.83968
768.83989
768.83924
768.83957
768.83985
768.83997
768.83998
768.84002
768.84028
768.84031
768.83989
768.83955
768.83921
768.83957
768.83984
768.83992
768.83988
768.83989
768.84034
768.84051
768.83924
768.83921
768.83893
768.8393
768.83955
768.83959
768.83949
768.83942
768.83989
768.84023
768.83957
768.83957
768.8393
768.83966
768.83988
768.83989
768.83973
768.83958
768.83997
768.84025
768.83985