/*--------------------------------*- C++ -*----------------------------------*\
| =========                 |                                                 |
| \\      /  F ield         | OpenFOAM: The Open Source CFD Toolbox           |
|  \\    /   O peration     | Version:  v2106                                 |
|   \\  /    A nd           | Website:  www.openfoam.com                      |
|    \\/     M anipulation  |                                                 |
\*---------------------------------------------------------------------------*/
FoamFile
{
    version     2.0;
    format      ascii;
    arch        "LSB;label=32;scalar=64";
    class       volVectorField;
    location    "35";
    object      gradT;
}
// * * * * * * * * * * * * * * * * * * * * * * * * * * * * * * * * * * * * * //

dimensions      [0 -1 0 1 0 0 0];

internalField   nonuniform List<vector> 
4000
(
(-0.00012738149 -0.00012738149 513.51836)
(0.00035025166 0.00023472438 513.51771)
(0.00048388101 8.4110479e-05 513.52008)
(-0.00013096513 6.5481415e-05 513.51985)
(-0.00012327297 6.6390153e-05 513.51949)
(-9.1928728e-05 6.8980741e-05 513.51924)
(-8.8604113e-05 7.1417607e-05 513.51902)
(-9.8035891e-05 6.9267321e-05 513.51877)
(-8.703123e-05 5.2941144e-05 513.5185)
(-2.3614299e-05 2.6265437e-05 513.51834)
(0.00023472438 0.00035025166 513.51771)
(0.00066748961 0.00066748962 513.5191)
(0.00023001656 0.00040477389 513.52057)
(-0.00015754562 0.00037315429 513.52022)
(-0.00011802398 0.00037651448 513.51987)
(-8.4387546e-05 0.00038536539 513.51963)
(-8.8174242e-05 0.00039700692 513.51943)
(-0.00012575059 0.00040087637 513.51916)
(-0.00015153406 0.00036473432 513.51875)
(-5.0290006e-05 0.00026610828 513.51842)
(8.4110481e-05 0.00048388101 513.52008)
(0.00040477389 0.00023001656 513.52057)
(0.00018954569 0.00018954568 513.52185)
(-0.00015922453 0.00018624007 513.52148)
(-0.00011106187 0.0001908105 513.52113)
(-7.1436293e-05 0.00020089433 513.52092)
(-7.3093132e-05 0.00021768946 513.52076)
(-0.00013030849 0.00023918532 513.52053)
(-0.00022179932 0.00024840372 513.52004)
(-8.9364991e-05 0.00021269832 513.51942)
(6.5481413e-05 -0.00013096513 513.51985)
(0.00037315428 -0.00015754562 513.52022)
(0.00018624007 -0.00015922453 513.52148)
(-0.0001562808 -0.00015628081 513.52109)
(-0.00010336972 -0.00015022358 513.52076)
(-5.7508589e-05 -0.0001404339 513.52058)
(-4.9883254e-05 -0.00012538451 513.52047)
(-9.5036322e-05 -0.00010260519 513.52031)
(-0.00017802105 -7.1154807e-05 513.51993)
(-7.4093602e-05 -3.763556e-05 513.5194)
(6.6390153e-05 -0.00012327297 513.51949)
(0.00037651448 -0.00011802398 513.51987)
(0.0001908105 -0.00011106186 513.52113)
(-0.00015022357 -0.00010336972 513.52076)
(-9.5214961e-05 -9.5214961e-05 513.52045)
(-4.6597228e-05 -8.6144092e-05 513.5203)
(-3.526442e-05 -7.5621324e-05 513.52022)
(-7.6078791e-05 -6.3037448e-05 513.52011)
(-0.0001568297 -4.8503077e-05 513.51977)
(-6.7018826e-05 -3.4938471e-05 513.5193)
(6.8980741e-05 -9.1928727e-05 513.51924)
(0.00038536539 -8.4387545e-05 513.51963)
(0.00020089433 -7.1436288e-05 513.52092)
(-0.0001404339 -5.7508584e-05 513.52058)
(-8.6144093e-05 -4.6597225e-05 513.5203)
(-3.7914952e-05 -3.791495e-05 513.52016)
(-2.677661e-05 -3.0797617e-05 513.5201)
(-6.7918075e-05 -2.5081306e-05 513.52002)
(-0.00014992208 -2.0817246e-05 513.5197)
(-6.5050532e-05 -1.8377322e-05 513.51925)
(7.1417608e-05 -8.8604113e-05 513.51902)
(0.00039700692 -8.8174247e-05 513.51943)
(0.00021768946 -7.3093133e-05 513.52076)
(-0.00012538451 -4.9883255e-05 513.52047)
(-7.5621327e-05 -3.5264419e-05 513.52022)
(-3.0797619e-05 -2.6776605e-05 513.5201)
(-2.2430776e-05 -2.2430775e-05 513.52006)
(-6.609842e-05 -2.1709583e-05 513.51998)
(-0.00015012571 -2.408371e-05 513.51967)
(-6.5392211e-05 -2.7977908e-05 513.51921)
(6.9267318e-05 -9.8035896e-05 513.51877)
(0.00040087637 -0.00012575059 513.51916)
(0.00023918532 -0.0001303085 513.52053)
(-0.00010260519 -9.5036326e-05 513.52031)
(-6.3037443e-05 -7.6078794e-05 513.52011)
(-2.5081308e-05 -6.7918074e-05 513.52002)
(-2.1709588e-05 -6.6098421e-05 513.51998)
(-6.957101e-05 -6.957101e-05 513.5199)
(-0.0001561904 -7.7395187e-05 513.51957)
(-6.7646664e-05 -8.6595289e-05 513.51909)
(5.2941146e-05 -8.7031234e-05 513.5185)
(0.00036473432 -0.00015153406 513.51875)
(0.00024840372 -0.00022179933 513.52004)
(-7.1154808e-05 -0.00017802106 513.51993)
(-4.8503075e-05 -0.0001568297 513.51977)
(-2.0817247e-05 -0.00014992208 513.5197)
(-2.4083712e-05 -0.00015012571 513.51967)
(-7.7395185e-05 -0.0001561904 513.51957)
(-0.00016714999 -0.00016714999 513.51921)
(-7.1525612e-05 -0.00017820824 513.5187)
(2.6265436e-05 -2.3614299e-05 513.51834)
(0.00026610828 -5.0290009e-05 513.51842)
(0.00021269832 -8.9364993e-05 513.51942)
(-3.7635561e-05 -7.4093606e-05 513.5194)
(-3.4938469e-05 -6.7018828e-05 513.5193)
(-1.8377321e-05 -6.5050536e-05 513.51925)
(-2.7977907e-05 -6.5392211e-05 513.51921)
(-8.6595291e-05 -6.7646666e-05 513.51909)
(-0.00017820823 -7.1525615e-05 513.5187)
(-7.5018825e-05 -7.5018828e-05 513.51818)
(-0.00027649903 -0.00027649903 759.70293)
(0.0015184969 0.00069286589 759.70278)
(0.0017617776 0.00024054571 759.7049)
(-0.00048354418 0.00017292991 759.70467)
(-0.00054573471 0.0001746256 759.70423)
(-0.00043733753 0.00018640946 759.70389)
(-0.00043326253 0.00019838738 759.70359)
(-0.00048751982 0.00018459426 759.70322)
(-0.00039022363 9.0586495e-05 759.70275)
(-8.8191454e-05 3.2960705e-07 759.70268)
(0.00069286589 0.0015184969 759.70278)
(0.002294064 0.002294064 759.70399)
(0.00098187362 0.0014528151 759.70544)
(-0.00058242435 0.0013223213 759.70509)
(-0.00052551538 0.0013311826 759.70466)
(-0.00040169486 0.0013729575 759.70436)
(-0.00043598534 0.001430451 759.70409)
(-0.00064922115 0.0014425834 759.70368)
(-0.00066662061 0.0012287497 759.70289)
(-0.00017844834 0.00082328193 759.70252)
(0.00024054571 0.0017617776 759.7049)
(0.0014528151 0.00098187363 759.70544)
(0.0007900349 0.00079003489 759.70669)
(-0.0006051767 0.000757742 759.7063)
(-0.00049509847 0.00077567942 759.70588)
(-0.00033806911 0.00082496301 759.70561)
(-0.00036363669 0.00090786648 759.70542)
(-0.00068922114 0.0010097256 759.70508)
(-0.0010095251 0.0010265836 759.70419)
(-0.00035850327 0.00084197867 759.70346)
(0.00017292991 -0.00048354419 759.70467)
(0.0013223213 -0.00058242435 759.70509)
(0.00075774199 -0.0006051767 759.7063)
(-0.00059677982 -0.00059677982 759.70591)
(-0.00045829437 -0.0005681584 759.70551)
(-0.00026950779 -0.00051997456 759.70528)
(-0.00025122274 -0.00044579841 759.70515)
(-0.00053050403 -0.00033545456 759.70492)
(-0.00083436755 -0.00019506714 759.70416)
(-0.0003015183 -5.9144705e-05 759.70354)
(0.0001746256 -0.00054573472 759.70423)
(0.0013311826 -0.00052551538 759.70466)
(0.00077567942 -0.00049509846 759.70588)
(-0.00056815841 -0.00045829436 759.70551)
(-0.00041829321 -0.0004182932 759.70513)
(-0.00021570913 -0.00037370906 759.70494)
(-0.00017911669 -0.00032192204 759.70486)
(-0.00043848987 -0.00025986623 759.70469)
(-0.00073321523 -0.00018955191 759.70401)
(-0.00026788832 -0.00012366786 759.70346)
(0.00018640946 -0.00043733753 759.70389)
(0.0013729575 -0.00040169485 759.70436)
(0.00082496301 -0.00033806912 759.70561)
(-0.00051997456 -0.0002695078 759.70528)
(-0.00037370907 -0.00021570913 759.70494)
(-0.00017313663 -0.00017313662 759.70478)
(-0.0001373799 -0.00013851399 759.70474)
(-0.0003981339 -0.0001108186 759.7046)
(-0.00069816918 -9.0390582e-05 759.70395)
(-0.00025759559 -7.833469e-05 759.70342)
(0.00019838738 -0.00043326253 759.70359)
(0.001430451 -0.00043598534 759.70409)
(0.00090786648 -0.00036363669 759.70542)
(-0.00044579841 -0.00025122274 759.70515)
(-0.00032192203 -0.00017911669 759.70486)
(-0.00013851399 -0.00013737989 759.70474)
(-0.00011679866 -0.00011679866 759.70471)
(-0.00039036646 -0.00011483226 759.70458)
(-0.00070073132 -0.00012911967 759.70393)
(-0.00025985105 -0.00015245874 759.70339)
(0.00018459426 -0.00048751983 759.70322)
(0.0014425834 -0.00064922115 759.70368)
(0.0010097256 -0.00068922114 759.70508)
(-0.00033545456 -0.00053050402 759.70492)
(-0.00025986622 -0.00043848987 759.70469)
(-0.0001108186 -0.0003981339 759.7046)
(-0.00011483226 -0.00039036646 759.70458)
(-0.00041045491 -0.0004104549 759.70444)
(-0.00073579566 -0.00045376853 759.70376)
(-0.00027315497 -0.00050550529 759.70317)
(9.0586498e-05 -0.00039022364 759.70275)
(0.0012287497 -0.00066662061 759.70289)
(0.0010265836 -0.0010095251 759.70419)
(-0.00019506714 -0.00083436755 759.70416)
(-0.00018955191 -0.00073321522 759.70401)
(-9.0390587e-05 -0.00069816918 759.70395)
(-0.00012911967 -0.00070073133 759.70393)
(-0.00045376852 -0.00073579566 759.70376)
(-0.00079578171 -0.0007957817 759.70301)
(-0.00029434223 -0.00083532125 759.70236)
(3.2961225e-07 -8.8191453e-05 759.70268)
(0.00082328193 -0.00017844834 759.70252)
(0.00084197867 -0.00035850328 759.70346)
(-5.9144698e-05 -0.0003015183 759.70354)
(-0.00012366785 -0.00026788831 759.70346)
(-7.8334697e-05 -0.00025759559 759.70342)
(-0.00015245875 -0.00025985105 759.70339)
(-0.00050550529 -0.00027315498 759.70317)
(-0.00083532125 -0.00029434223 759.70236)
(-0.00029951467 -0.00029951467 759.70188)
(-0.00023007502 -0.00023007503 756.22954)
(0.002323234 0.0010431413 756.22958)
(0.0023759865 0.00044269798 756.23089)
(-0.00080059049 0.00034941672 756.23064)
(-0.00089747563 0.00035352279 756.23027)
(-0.00073529796 0.0003766781 756.22998)
(-0.00076692223 0.00040394542 756.22973)
(-0.00094234259 0.00037901013 756.22935)
(-0.00062553361 0.00015035687 756.22872)
(-6.9373638e-05 -8.0606933e-05 756.22867)
(0.0010431413 0.002323234 756.22958)
(0.0033323935 0.0033323935 756.23045)
(0.0013353996 0.0021952324 756.23136)
(-0.00093435327 0.0020090604 756.23104)
(-0.00085658356 0.0020270199 756.23068)
(-0.00065966401 0.002106663 756.23043)
(-0.00076342419 0.0022250793 756.23023)
(-0.0013227254 0.0022643932 756.22985)
(-0.0013149592 0.0018138264 756.22885)
(-0.00030033744 0.0010474429 756.22843)
(0.00044269797 0.0023759865 756.23089)
(0.0021952324 0.0013353996 756.23136)
(0.0010526534 0.0010526534 756.23213)
(-0.00096880299 0.0010013691 756.23179)
(-0.00079987302 0.0010343154 756.23144)
(-0.00053723853 0.0011245465 756.23124)
(-0.000609192 0.0012797916 756.23112)
(-0.0013535956 0.0014787621 756.23082)
(-0.0018424839 0.0015199815 756.22975)
(-0.00058029595 0.001231948 756.22905)
(0.00034941672 -0.0008005905 756.23064)
(0.0020090604 -0.00093435327 756.23104)
(0.0010013691 -0.00096880299 756.23179)
(-0.00095269127 -0.00095269126 756.23144)
(-0.00073340618 -0.00090080346 756.23111)
(-0.00041418776 -0.00081427328 756.23095)
(-0.00040920855 -0.00068178776 756.2309)
(-0.0010825355 -0.00048679947 756.23071)
(-0.0015617734 -0.00025142566 756.22975)
(-0.00049235982 -3.5538936e-05 756.22913)
(0.00035352279 -0.00089747563 756.23027)
(0.0020270199 -0.00085658356 756.23068)
(0.0010343154 -0.00079987302 756.23144)
(-0.00090080346 -0.00073340618 756.23111)
(-0.00066145504 -0.00066145504 756.23082)
(-0.00031822283 -0.00058177655 756.23069)
(-0.00028171819 -0.00048999159 756.23069)
(-0.00092323346 -0.00038111827 756.23056)
(-0.0013912234 -0.00026123919 756.22966)
(-0.00043637147 -0.00015135406 756.22911)
(0.0003766781 -0.00073529796 756.22998)
(0.002106663 -0.00065966401 756.23043)
(0.0011245465 -0.00053723853 756.23124)
(-0.00081427328 -0.00041418776 756.23095)
(-0.00058177655 -0.00031822282 756.23069)
(-0.00024272431 -0.00024272431 756.2306)
(-0.00020855027 -0.0001825064 756.23063)
(-0.00085378313 -0.00013624652 756.23053)
(-0.0013320091 -0.00010527453 756.22966)
(-0.00041910306 -9.0425548e-05 756.22912)
(0.00040394542 -0.00076692223 756.22973)
(0.0022250793 -0.00076342419 756.23023)
(0.0012797916 -0.000609192 756.23112)
(-0.00068178775 -0.00040920854 756.2309)
(-0.00048999159 -0.00028171819 756.23069)
(-0.00018250641 -0.00020855027 756.23063)
(-0.0001752404 -0.0001752404 756.23067)
(-0.00084600159 -0.00017909312 756.23057)
(-0.0013454024 -0.00021771092 756.22969)
(-0.00042647214 -0.00027886216 756.22914)
(0.00037901013 -0.0009423426 756.22935)
(0.0022643932 -0.0013227254 756.22985)
(0.0014787621 -0.0013535956 756.23082)
(-0.00048679947 -0.0010825355 756.23071)
(-0.00038111828 -0.00092323346 756.23056)
(-0.00013624652 -0.00085378313 756.23053)
(-0.00017909312 -0.00084600159 756.23057)
(-0.00089625366 -0.00089625365 756.23045)
(-0.0014317782 -0.00099813128 756.22952)
(-0.00045987056 -0.0011157074 756.22888)
(0.00015035688 -0.00062553361 756.22872)
(0.0018138264 -0.0013149592 756.22885)
(0.0015199815 -0.0018424839 756.22975)
(-0.00025142566 -0.0015617734 756.22975)
(-0.00026123919 -0.0013912234 756.22966)
(-0.00010527453 -0.0013320091 756.22966)
(-0.00021771092 -0.0013454024 756.22969)
(-0.00099813128 -0.0014317782 756.22952)
(-0.0015648562 -0.0015648562 756.22848)
(-0.00050485626 -0.0014641664 756.22774)
(-8.0606931e-05 -6.9373635e-05 756.22867)
(0.0010474429 -0.00030033744 756.22843)
(0.001231948 -0.00058029595 756.22905)
(-3.5538934e-05 -0.00049235982 756.22913)
(-0.00015135406 -0.00043637147 756.22911)
(-9.042555e-05 -0.00041910307 756.22912)
(-0.00027886216 -0.00042647214 756.22914)
(-0.0011157075 -0.00045987056 756.22888)
(-0.0014641664 -0.00050485626 756.22774)
(-0.00039274401 -0.00039274401 756.22756)
(-0.00024794556 -0.00024794556 753.35795)
(0.0028673738 0.0012741194 753.35787)
(0.0028143948 0.00055177423 753.35894)
(-0.0011072298 0.00044061415 753.35867)
(-0.0011983097 0.00044911862 753.35834)
(-0.0009746972 0.00048584026 753.35812)
(-0.0010677997 0.00053529092 753.35793)
(-0.0014952977 0.00051652399 753.3576)
(-0.0010725696 0.00017423786 753.3569)
(-0.00012423439 -0.00015402909 753.35671)
(0.0012741194 0.0028673738 753.35787)
(0.0040669535 0.0040669535 753.3585)
(0.001564137 0.0026943116 753.35922)
(-0.0012612132 0.002471977 753.3589)
(-0.0011304705 0.0025046301 753.35859)
(-0.00084543876 0.0026267014 753.3584)
(-0.0010217741 0.0028182148 753.35829)
(-0.0020368773 0.0029136538 753.35798)
(-0.0020783992 0.002255966 753.35695)
(-0.00045250133 0.0012048342 753.3565)
(0.00055177423 0.0028143948 753.35894)
(0.0026943116 0.001564137 753.35922)
(0.0012194183 0.0012194183 753.35985)
(-0.0012969113 0.0011607941 753.35951)
(-0.0010435854 0.0012129653 753.35922)
(-0.00066111249 0.0013459544 753.35908)
(-0.00078084726 0.0015752828 753.35904)
(-0.0020575465 0.0018728064 753.35883)
(-0.0027813892 0.0019291516 753.35772)
(-0.00082498893 0.0015379908 753.357)
(0.00044061415 -0.0011072298 753.35867)
(0.002471977 -0.0012612133 753.3589)
(0.0011607941 -0.0012969113 753.35951)
(-0.0012676663 -0.0012676663 753.35919)
(-0.00094531027 -0.0011901616 753.35891)
(-0.00048312126 -0.0010646461 753.35882)
(-0.00049492204 -0.0008744138 753.35885)
(-0.0016830084 -0.00059768264 753.35874)
(-0.0024132148 -0.00027823593 753.35773)
(-0.00071327521 1.5455395e-06 753.35708)
(0.00044911862 -0.0011983097 753.35834)
(0.0025046301 -0.0011304705 753.35859)
(0.0012129653 -0.0010435854 753.35922)
(-0.0011901616 -0.00094531027 753.35891)
(-0.00084056518 -0.00084056519 753.35867)
(-0.00034536467 -0.00072606289 753.35861)
(-0.00031388379 -0.00059563603 753.35869)
(-0.0014613686 -0.00044285004 753.35864)
(-0.002182161 -0.00027939757 753.35768)
(-0.00063846795 -0.00013336298 753.35709)
(0.00048584026 -0.00097469719 753.35812)
(0.0026267013 -0.00084543875 753.3584)
(0.0013459544 -0.00066111249 753.35908)
(-0.0010646461 -0.00048312126 753.35882)
(-0.00072606289 -0.00034536467 753.35861)
(-0.0002381921 -0.00023819211 753.35858)
(-0.00021170919 -0.00015489107 753.35869)
(-0.00136677 -9.4478054e-05 753.35866)
(-0.0021037278 -5.995294e-05 753.35773)
(-0.00061591882 -5.027206e-05 753.35715)
(0.00053529092 -0.0010677997 753.35793)
(0.0028182148 -0.0010217741 753.35829)
(0.0015752828 -0.00078084726 753.35904)
(-0.0008744138 -0.00049492204 753.35885)
(-0.00059563602 -0.00031388379 753.35869)
(-0.00015489107 -0.00021170919 753.35869)
(-0.00017016974 -0.00017016975 753.35881)
(-0.0013664305 -0.00018888609 753.35879)
(-0.002137955 -0.00026860377 753.35784)
(-0.00063201403 -0.00039146847 753.35722)
(0.00051652399 -0.0014952977 753.3576)
(0.0029136538 -0.0020368773 753.35798)
(0.0018728064 -0.0020575465 753.35883)
(-0.00059768265 -0.0016830084 753.35874)
(-0.00044285005 -0.0014613686 753.35864)
(-9.4478057e-05 -0.00136677 753.35866)
(-0.00018888608 -0.0013664305 753.35879)
(-0.001465204 -0.001465204 753.35873)
(-0.0023063101 -0.0016647721 753.3577)
(-0.00069782861 -0.0019002154 753.35698)
(0.00017423786 -0.0010725696 753.3569)
(0.002255966 -0.0020783992 753.35695)
(0.0019291516 -0.0027813892 753.35772)
(-0.00027823594 -0.0024132148 753.35773)
(-0.00027939757 -0.002182161 753.35768)
(-5.9952936e-05 -0.0021037278 753.35773)
(-0.00026860377 -0.002137955 753.35784)
(-0.0016647721 -0.0023063101 753.3577)
(-0.0025729664 -0.0025729664 753.35653)
(-0.00078897618 -0.0021555868 753.35564)
(-0.00015402909 -0.00012423439 753.35671)
(0.0012048341 -0.00045250133 753.3565)
(0.0015379908 -0.00082498893 753.357)
(1.5455392e-06 -0.00071327521 753.35708)
(-0.00013336298 -0.00063846795 753.35709)
(-5.0272057e-05 -0.00061591882 753.35715)
(-0.00039146846 -0.00063201403 753.35722)
(-0.0019002154 -0.00069782861 753.35698)
(-0.0021555868 -0.00078897618 753.35564)
(-0.00041957557 -0.00041957558 753.35557)
(-0.00028301742 -0.00028301741 751.05745)
(0.0033212951 0.001465475 751.05734)
(0.0031834468 0.00062874407 751.0583)
(-0.0014021882 0.00050248562 751.05802)
(-0.0014538992 0.00051631974 751.05772)
(-0.0011450476 0.00056716426 751.05755)
(-0.0012807559 0.00064025379 751.05744)
(-0.0019778339 0.00063182511 751.05721)
(-0.001516531 0.00018253547 751.05657)
(-0.00019232722 -0.00022446806 751.05637)
(0.001465475 0.0033212951 751.05734)
(0.0046889373 0.0046889373 751.05787)
(0.0017389627 0.0030997723 751.0585)
(-0.0015708247 0.0028495267 751.05818)
(-0.0013568813 0.0029000978 751.0579)
(-0.00095914647 0.0030661889 751.05777)
(-0.0011837647 0.0033334111 751.05773)
(-0.0026644114 0.0034914273 751.05753)
(-0.0028009708 0.0026351494 751.05658)
(-0.00059933075 0.001335708 751.05616)
(0.00062874407 0.0031834468 751.0583)
(0.0030997723 0.0017389627 751.0585)
(0.0013440362 0.0013440362 751.05905)
(-0.0016018627 0.0012848265 751.05872)
(-0.001237237 0.0013594114 751.05846)
(-0.00071173423 0.0015363887 751.05837)
(-0.00085551757 0.0018400344 751.05842)
(-0.0026760957 0.0022349779 751.05831)
(-0.0036722502 0.0023007664 751.05728)
(-0.0010586214 0.0018106372 751.05661)
(0.00050248562 -0.0014021882 751.05802)
(0.0028495267 -0.0015708247 751.05818)
(0.0012848265 -0.0016018627 751.05872)
(-0.0015554495 -0.0015554495 751.0584)
(-0.001105319 -0.0014502865 751.05816)
(-0.00047852346 -0.0012852457 751.05812)
(-0.00048517553 -0.0010379428 751.05823)
(-0.0022036795 -0.00068200645 751.05823)
(-0.0032253114 -0.00028528834 751.05729)
(-0.00092608352 5.084235e-05 751.05669)
(0.00051631973 -0.0014538992 751.05772)
(0.0029000978 -0.0013568813 751.0579)
(0.0013594114 -0.001237237 751.05846)
(-0.0014502865 -0.001105319 751.05816)
(-0.00096703321 -0.00096703322 751.05796)
(-0.00029939048 -0.00081802081 751.05795)
(-0.00025227831 -0.00065027112 751.05811)
(-0.0019234412 -0.00045610906 751.05816)
(-0.0029394014 -0.00025344789 751.05728)
(-0.0008345343 -7.6101434e-05 751.05672)
(0.00056716426 -0.0011450476 751.05755)
(0.0030661889 -0.00095914647 751.05777)
(0.0015363887 -0.00071173423 751.05837)
(-0.0012852457 -0.00047852346 751.05812)
(-0.00081802081 -0.00029939048 751.05795)
(-0.00016176135 -0.00016176136 751.05798)
(-0.00012326378 -5.7562621e-05 751.05817)
(-0.0018068562 1.3604047e-05 751.05824)
(-0.0028453038 4.6930538e-05 751.05738)
(-0.00080785255 4.6601601e-05 751.05683)
(0.00064025379 -0.0012807559 751.05744)
(0.0033334111 -0.0011837647 751.05773)
(0.0018400344 -0.00085551758 751.05842)
(-0.0010379428 -0.00048517554 751.05823)
(-0.00065027111 -0.00025227831 751.05811)
(-5.7562625e-05 -0.00012326378 751.05817)
(-7.6912901e-05 -7.6912906e-05 751.05836)
(-0.0018189481 -0.00011647564 751.05843)
(-0.0029064039 -0.00024776911 751.05755)
(-0.00083475359 -0.00044768678 751.05697)
(0.00063182511 -0.0019778339 751.05721)
(0.0034914272 -0.0026644114 751.05753)
(0.0022349778 -0.0026760957 751.05831)
(-0.00068200645 -0.0022036795 751.05823)
(-0.00045610906 -0.0019234412 751.05816)
(1.3604045e-05 -0.0018068562 751.05824)
(-0.00011647564 -0.0018189481 751.05843)
(-0.0019777124 -0.0019777124 751.05846)
(-0.0031765149 -0.0023017904 751.05749)
(-0.000941131 -0.0027021829 751.05679)
(0.00018253547 -0.001516531 751.05657)
(0.0026351494 -0.0028009708 751.05658)
(0.0023007664 -0.0036722502 751.05728)
(-0.00028528835 -0.0032253114 751.05729)
(-0.00025344787 -0.0029394014 751.05728)
(4.6930541e-05 -0.0028453038 751.05738)
(-0.00024776911 -0.0029064038 751.05755)
(-0.0023017904 -0.0031765149 751.05749)
(-0.0036308743 -0.0036308743 751.05635)
(-0.0011016819 -0.0028758724 751.05542)
(-0.00022446806 -0.00019232722 751.05637)
(0.001335708 -0.00059933075 751.05616)
(0.0018106372 -0.0010586214 751.05661)
(5.0842347e-05 -0.00092608352 751.05669)
(-7.6101435e-05 -0.0008345343 751.05672)
(4.6601606e-05 -0.00080785256 751.05683)
(-0.00044768678 -0.00083475359 751.05697)
(-0.0027021829 -0.000941131 751.05679)
(-0.0028758724 -0.0011016819 751.05542)
(-0.00043779636 -0.00043779636 751.05537)
(-0.00032307726 -0.00032307725 749.29567)
(0.0037176569 0.0016335283 749.29554)
(0.0034996631 0.00068872315 749.2964)
(-0.0016857702 0.00054905959 749.29612)
(-0.0016702089 0.00056869673 749.29585)
(-0.0012541269 0.0006337692 749.29572)
(-0.0014113693 0.00073077401 749.29568)
(-0.0023699745 0.00073442095 749.29553)
(-0.0019047574 0.00018354135 749.29498)
(-0.0002527158 -0.00029479822 749.29482)
(0.0016335283 0.0037176569 749.29554)
(0.0052353575 0.0052353575 749.29601)
(0.00187296 0.003443557 749.29656)
(-0.0018658098 0.003170214 749.29624)
(-0.0015431444 0.0032404975 749.29598)
(-0.001011011 0.0034511238 749.2959)
(-0.0012603917 0.0037944481 749.29593)
(-0.0031908234 0.0040178057 749.29582)
(-0.0034485861 0.0029732632 749.29498)
(-0.00073105538 0.0014452696 749.29461)
(0.00068872315 0.0034996631 749.2964)
(0.003443557 0.00187296 749.29656)
(0.0014345195 0.0014345195 749.29703)
(-0.0018888297 0.001378618 749.2967)
(-0.001389299 0.0014775676 749.29647)
(-0.00070017628 0.0016991118 749.29644)
(-0.00084468743 0.0020766954 749.29655)
(-0.0031911594 0.0025680973 749.29653)
(-0.0044772934 0.0026433474 749.29562)
(-0.0012713782 0.0020612171 749.29502)
(0.0005490596 -0.0016857702 749.29612)
(0.003170214 -0.0018658098 749.29624)
(0.001378618 -0.0018888297 749.2967)
(-0.0018227617 -0.0018227617 749.29639)
(-0.0012226507 -0.0016886551 749.29619)
(-0.00041188319 -0.0014839197 749.29619)
(-0.00039140617 -0.001180405 749.29637)
(-0.0026241714 -0.00074739729 749.29646)
(-0.0039554663 -0.00027725473 749.29563)
(-0.0011191423 0.00011181226 749.29509)
(0.00056869673 -0.0016702089 749.29585)
(0.0032404975 -0.0015431444 749.29598)
(0.0014775676 -0.001389299 749.29647)
(-0.0016886551 -0.0012226507 749.29619)
(-0.0010504569 -0.0010504569 749.29601)
(-0.00019192622 -0.00086736642 749.29606)
(-0.00010816507 -0.00066350577 749.29628)
(-0.0022880092 -0.00042999739 749.29642)
(-0.0036180839 -0.00019100384 749.29565)
(-0.0010120002 1.4970922e-05 749.29515)
(0.0006337692 -0.0012541269 749.29572)
(0.0034511238 -0.001011011 749.2959)
(0.0016991118 -0.00070017628 749.29644)
(-0.0014839197 -0.00041188319 749.29619)
(-0.00086736642 -0.00019192622 749.29606)
(-2.493203e-05 -2.4932033e-05 749.29613)
(4.5962861e-05 9.8464616e-05 749.29638)
(-0.0021516694 0.00017807809 749.29654)
(-0.003510498 0.00020749789 749.29579)
(-0.00098182578 0.00019502885 749.2953)
(0.00073077401 -0.0014113693 749.29568)
(0.0037944481 -0.0012603917 749.29593)
(0.0020766954 -0.00084468744 749.29655)
(-0.001180405 -0.00039140617 749.29637)
(-0.00066350577 -0.00010816506 749.29628)
(9.8464617e-05 4.5962861e-05 749.29638)
(9.4845058e-05 9.4845058e-05 749.29664)
(-0.0021789759 3.1177803e-05 749.29679)
(-0.0036011331 -0.00015643497 749.29602)
(-0.0010203129 -0.00043928087 749.2955)
(0.00073442094 -0.0023699745 749.29553)
(0.0040178056 -0.0031908234 749.29582)
(0.0025680973 -0.0031911595 749.29653)
(-0.00074739729 -0.0026241714 749.29646)
(-0.00042999739 -0.0022880092 749.29642)
(0.00017807809 -0.0021516694 749.29654)
(3.1177803e-05 -0.0021789759 749.29679)
(-0.0024029495 -0.0024029495 749.2969)
(-0.0039809567 -0.0028630147 749.29604)
(-0.0011703897 -0.0034488235 749.29538)
(0.00018354136 -0.0019047574 749.29498)
(0.0029732632 -0.0034485861 749.29498)
(0.0026433474 -0.0044772934 749.29562)
(-0.00027725472 -0.0039554663 749.29563)
(-0.00019100383 -0.0036180839 749.29565)
(0.00020749789 -0.003510498 749.29579)
(-0.00015643498 -0.0036011331 749.29602)
(-0.0028630147 -0.0039809567 749.29604)
(-0.0046470071 -0.0046470071 749.29499)
(-0.0014108521 -0.0035717184 749.29409)
(-0.00029479822 -0.0002527158 749.29482)
(0.0014452696 -0.00073105538 749.29461)
(0.0020612171 -0.0012713782 749.29502)
(0.00011181226 -0.0011191423 749.29509)
(1.4970919e-05 -0.0010120002 749.29515)
(0.00019502884 -0.00098182579 749.2953)
(-0.00043928087 -0.0010203129 749.2955)
(-0.0034488235 -0.0011703897 749.29538)
(-0.0035717184 -0.0014108521 749.29409)
(-0.00045353057 -0.00045353057 749.29405)
(-0.00036822401 -0.00036822401 748.03785)
(0.0040559969 0.0017785772 748.03771)
(0.0037632965 0.00073263906 748.03847)
(-0.0019587487 0.00058107355 748.03818)
(-0.0018515127 0.00060680367 748.03793)
(-0.0013094922 0.00068606353 748.03785)
(-0.0014693866 0.00080700668 748.03787)
(-0.0026752247 0.00082422992 748.0378)
(-0.0022272761 0.0001784816 748.03734)
(-0.00029983071 -0.00036558899 748.03722)
(0.0017785772 0.0040559969 748.03771)
(0.0057072915 0.0057072915 748.03811)
(0.001967041 0.0037270916 748.03858)
(-0.0021475018 0.0034344856 748.03826)
(-0.0016940277 0.0035255457 748.03803)
(-0.0010091877 0.0037806842 748.03799)
(-0.001262137 0.0041998115 748.03808)
(-0.0036180123 0.0044909188 748.03805)
(-0.0040120044 0.0032724044 748.03732)
(-0.0008439013 0.0015336277 748.03701)
(0.00073263905 0.0037632965 748.03847)
(0.0037270916 0.001967041 748.03858)
(0.0014904906 0.0014904906 748.03897)
(-0.0021602946 0.001440506 748.03865)
(-0.001505314 0.0015649326 748.03845)
(-0.00063522648 0.0018310558 748.03845)
(-0.00075915198 0.0022817039 748.03862)
(-0.0036026317 0.0028686228 748.03869)
(-0.0051845671 0.0029562839 748.0379)
(-0.0014590151 0.0022907574 748.03738)
(0.00058107355 -0.0019587488 748.03818)
(0.0034344856 -0.0021475018 748.03826)
(0.001440506 -0.0021602946 748.03865)
(-0.0020730598 -0.0020730598 748.03835)
(-0.0013034779 -0.001909349 748.03817)
(-0.00029241639 -0.0016651155 748.03822)
(-0.00022456996 -0.0013064508 748.03845)
(-0.0029434323 -0.00079835695 748.03862)
(-0.0045898698 -0.00025721852 748.03791)
(-0.0012875857 0.0001829148 748.03745)
(0.00060680367 -0.0018515127 748.03793)
(0.0035255457 -0.0016940277 748.03803)
(0.0015649326 -0.001505314 748.03845)
(-0.001909349 -0.0013034779 748.03817)
(-0.0010973697 -0.0010973697 748.03802)
(-3.2328228e-05 -0.00088074381 748.03811)
(0.00010760656 -0.00064186913 748.03838)
(-0.0025533995 -0.00037063371 748.0386)
(-0.0042032954 -9.7241048e-05 748.03795)
(-0.0011655929 0.00013571612 748.03753)
(0.00068606353 -0.0013094922 748.03785)
(0.0037806842 -0.0010091877 748.03799)
(0.0018310558 -0.00063522648 748.03845)
(-0.0016651155 -0.0002924164 748.03822)
(-0.00088074381 -3.2328231e-05 748.03811)
(0.00016308421 0.00016308421 748.03822)
(0.00028554014 0.00030444426 748.03853)
(-0.0023988042 0.00039107314 748.03876)
(-0.00408352 0.00041522846 748.03813)
(-0.0011322809 0.00038989733 748.03772)
(0.00080700667 -0.0014693865 748.03787)
(0.0041998115 -0.001262137 748.03808)
(0.0022817039 -0.00075915198 748.03862)
(-0.0013064508 -0.00022456996 748.03845)
(-0.00064186912 0.00010760656 748.03838)
(0.00030444426 0.00028554015 748.03853)
(0.0003355955 0.0003355955 748.03884)
(-0.0024426153 0.0002463957 748.03907)
(-0.0042044712 1.0203848e-06 748.03841)
(-0.0011824804 -0.00036586293 748.03796)
(0.00082422991 -0.0026752247 748.0378)
(0.0044909188 -0.0036180123 748.03805)
(0.0028686228 -0.0036026317 748.03869)
(-0.00079835694 -0.0029434323 748.03862)
(-0.0003706337 -0.0025533995 748.0386)
(0.00039107314 -0.0023988042 748.03876)
(0.0002463957 -0.0024426153 748.03907)
(-0.0027333793 -0.0027333793 748.03926)
(-0.0046957787 -0.0033326219 748.03851)
(-0.0013768698 -0.0041100758 748.03793)
(0.0001784816 -0.0022272761 748.03734)
(0.0032724044 -0.0040120044 748.03732)
(0.0029562839 -0.0051845671 748.0379)
(-0.00025721851 -0.0045898698 748.03791)
(-9.7241041e-05 -0.0042032954 748.03795)
(0.00041522846 -0.00408352 748.03813)
(1.0203838e-06 -0.0042044712 748.03841)
(-0.0033326219 -0.0046957786 748.03851)
(-0.0055811677 -0.0055811677 748.03757)
(-0.001700783 -0.004208495 748.03674)
(-0.00036558898 -0.00029983071 748.03722)
(0.0015336277 -0.0008439013 748.03701)
(0.0022907574 -0.0014590151 748.03738)
(0.00018291481 -0.0012875857 748.03745)
(0.00013571612 -0.0011655929 748.03753)
(0.00038989733 -0.0011322809 748.03772)
(-0.00036586293 -0.0011824804 748.03796)
(-0.0041100758 -0.0013768698 748.03793)
(-0.004208495 -0.001700783 748.03674)
(-0.00046175469 -0.00046175469 748.03673)
(-0.00041884271 -0.00041884272 747.24743)
(0.0043339785 0.0018997548 747.24727)
(0.0039731595 0.00076028512 747.24792)
(-0.0022211912 0.00059829989 747.24763)
(-0.0020004935 0.00063029953 747.24741)
(-0.0013164002 0.00072358072 747.24737)
(-0.0014614124 0.00086830084 747.24744)
(-0.0028972402 0.00090048195 747.24744)
(-0.0024818825 0.00016744092 747.24707)
(-0.00033202653 -0.00043664121 747.247)
(0.0018997548 0.0043339785 747.24727)
(0.0061026702 0.0061026702 747.24759)
(0.0020209771 0.0039492712 747.24798)
(-0.0024161696 0.003640926 747.24766)
(-0.0018125722 0.0037533848 747.24746)
(-0.00095939824 0.0040525691 747.24746)
(-0.0011960606 0.004546624 747.2476)
(-0.0039485301 0.0049075007 747.24765)
(-0.0044875672 0.0035313632 747.24703)
(-0.00093610866 0.0016004441 747.24679)
(0.00076028512 0.0039731595 747.24792)
(0.0039492711 0.0020209771 747.24798)
(0.0015114152 0.0015114152 747.2483)