/*--------------------------------*- C++ -*----------------------------------*\
| =========                 |                                                 |
| \\      /  F ield         | OpenFOAM: The Open Source CFD Toolbox           |
|  \\    /   O peration     | Version:  v2106                                 |
|   \\  /    A nd           | Website:  www.openfoam.com                      |
|    \\/     M anipulation  |                                                 |
\*---------------------------------------------------------------------------*/
FoamFile
{
    version     2.0;
    format      ascii;
    arch        "LSB;label=32;scalar=64";
    class       volVectorField;
    location    "57.5";
    object      gradT;
}
// * * * * * * * * * * * * * * * * * * * * * * * * * * * * * * * * * * * * * //

dimensions      [0 -1 0 1 0 0 0];

internalField   nonuniform List<vector> 
4000
(
(0.0002525013 0.0002525013 561.43156)
(0.00014256658 4.6491687e-05 561.43323)
(-0.00031612442 6.9770024e-05 561.43214)
(-0.00012165734 7.0906712e-05 561.43172)
(-5.2590949e-05 7.1837799e-05 561.43151)
(2.7613006e-06 7.3602889e-05 561.43145)
(4.1407098e-05 7.7151945e-05 561.43153)
(5.1843319e-05 8.4361197e-05 561.43168)
(2.3705218e-05 9.5880244e-05 561.4318)
(-2.4331453e-07 9.8631461e-05 561.43176)
(4.6491687e-05 0.00014256659 561.43323)
(-0.00013153033 -0.00013153033 561.4336)
(-0.00027950189 -9.3618379e-05 561.43265)
(-0.00011855568 -9.0415825e-05 561.43224)
(-4.8546682e-05 -8.6700425e-05 561.43203)
(1.073252e-05 -8.053278e-05 561.43199)
(5.7544558e-05 -6.957649e-05 561.43209)
(7.9935767e-05 -4.8674925e-05 561.4323)
(4.5110615e-05 -1.1287384e-05 561.43251)
(2.5079032e-06 2.8307247e-05 561.43245)
(6.9770023e-05 -0.00031612443 561.43214)
(-9.3618385e-05 -0.00027950189 561.43265)
(-0.00027500992 -0.00027500992 561.4317)
(-0.00011473938 -0.00027128914 561.4313)
(-4.2707903e-05 -0.00026599939 561.43111)
(1.9885235e-05 -0.00025861258 561.43108)
(7.3264953e-05 -0.00024792607 561.43122)
(0.00011013242 -0.00023145162 561.43148)
(0.00010068739 -0.00020413871 561.4318)
(2.6153106e-05 -0.00016276883 561.43192)
(7.0906712e-05 -0.00012165734 561.43172)
(-9.0415823e-05 -0.00011855568 561.43224)
(-0.00027128914 -0.00011473938 561.4313)
(-0.00010954514 -0.00010954514 561.43091)
(-3.5870119e-05 -0.00010318086 561.43073)
(2.8805837e-05 -9.5506834e-05 561.43073)
(8.4705514e-05 -8.6121105e-05 561.43089)
(0.00012372313 -7.4895082e-05 561.43118)
(0.0001137934 -6.2906778e-05 561.43155)
(3.0087818e-05 -5.3807464e-05 561.4317)
(7.1837797e-05 -5.2590942e-05 561.43151)
(-8.6700428e-05 -4.8546681e-05 561.43203)
(-0.00026599939 -4.2707898e-05 561.43111)
(-0.00010318086 -3.5870118e-05 561.43073)
(-2.8669596e-05 -2.8669593e-05 561.43057)
(3.6944988e-05 -2.1259362e-05 561.43058)
(9.3876705e-05 -1.3509126e-05 561.43077)
(0.00013334675 -5.4978053e-06 561.43109)
(0.00012177501 1.9401455e-06 561.43148)
(3.2219316e-05 6.7295596e-06 561.43165)
(7.3602886e-05 2.7612983e-06 561.43145)
(-8.0532779e-05 1.0732519e-05 561.43199)
(-0.00025861257 1.9885231e-05 561.43108)
(-9.5506839e-05 2.8805834e-05 561.43073)
(-2.1259363e-05 3.6944994e-05 561.43058)
(4.3966305e-05 4.3966301e-05 561.43062)
(0.00010046707 5.0000065e-05 561.43082)
(0.0001391724 5.5000592e-05 561.43116)
(0.00012602077 5.8678423e-05 561.43156)
(3.3280761e-05 6.0617227e-05 561.43174)
(7.7151943e-05 4.1407092e-05 561.43153)
(-6.9576496e-05 5.7544562e-05 561.43209)
(-0.00024792607 7.3264945e-05 561.43122)
(-8.6121096e-05 8.4705513e-05 561.43089)
(-1.3509128e-05 9.3876704e-05 561.43077)
(5.000006e-05 0.00010046707 561.43082)
(0.000104911 0.00010491099 561.43104)
(0.00014202511 0.00010730412 561.43138)
(0.00012739164 0.00010769854 561.43179)
(3.3511852e-05 0.00010687902 561.43197)
(8.4361199e-05 5.1843317e-05 561.43168)
(-4.8674926e-05 7.9935774e-05 561.4323)
(-0.00023145162 0.00011013243 561.43148)
(-7.4895081e-05 0.00012372313 561.43118)
(-5.4978061e-06 0.00013334675 561.43109)
(5.5000596e-05 0.00013917241 561.43116)
(0.00010730412 0.00014202511 561.43138)
(0.00014195995 0.00014195995 561.43173)
(0.00012559567 0.00013874465 561.43214)
(3.2734418e-05 0.00013375682 561.43231)
(9.5880248e-05 2.3705217e-05 561.4318)
(-1.1287386e-05 4.5110611e-05 561.43251)
(-0.00020413872 0.00010068739 561.4318)
(-6.2906777e-05 0.0001137934 561.43155)
(1.9401532e-06 0.00012177501 561.43148)
(5.8678423e-05 0.00012602077 561.43156)
(0.00010769854 0.00012739164 561.43179)
(0.00013874465 0.00012559568 561.43214)
(0.00011918851 0.00011918851 561.43253)
(3.0186631e-05 0.00010791614 561.43268)
(9.8631462e-05 -2.43317e-07 561.43176)
(2.830725e-05 2.5078975e-06 561.43245)
(-0.00016276883 2.6153107e-05 561.43192)
(-5.3807463e-05 3.008782e-05 561.4317)
(6.7295644e-06 3.2219316e-05 561.43165)
(6.0617228e-05 3.3280761e-05 561.43174)
(0.00010687903 3.3511853e-05 561.43197)
(0.00013375682 3.2734418e-05 561.43231)
(0.00010791614 3.018663e-05 561.43268)
(2.5219502e-05 2.5219501e-05 561.43277)
(0.00090990211 0.00090990212 829.76993)
(0.00044869727 0.00023808721 829.77138)
(-0.0013051371 0.00029379861 829.7702)
(-0.00058934151 0.00029860982 829.76962)
(-0.00024962237 0.00030326326 829.76933)
(2.216521e-05 0.00031188016 829.76927)
(0.0002129078 0.00032940641 829.7694)
(0.00025637739 0.00036596643 829.76966)
(5.6371206e-05 0.00042429142 829.76987)
(-3.9017093e-05 0.00039404903 829.76959)
(0.00023808721 0.00044869727 829.77138)
(-0.00047545799 -0.00047545798 829.77174)
(-0.0012143532 -0.0003766501 829.77062)
(-0.00057514454 -0.00036100557 829.77005)
(-0.00022971686 -0.0003425143 829.76977)
(6.1379943e-05 -0.00031235854 829.76973)
(0.00029403721 -0.00025845782 829.76991)
(0.0003987049 -0.00015357453 829.77026)
(9.8495107e-05 3.6057269e-05 829.77065)
(-6.9259479e-05 0.00015491051 829.77033)
(0.00029379861 -0.0013051371 829.7702)
(-0.0003766501 -0.0012143532 829.77062)
(-0.0011906847 -0.0011906847 829.76953)
(-0.00055520571 -0.0011710687 829.76897)
(-0.00020097534 -0.0011449961 829.7687)
(0.00010622169 -0.0011088812 829.76869)
(0.00037169181 -0.0010565923 829.76891)
(0.00055089248 -0.00097516509 829.76935)
(0.00036485624 -0.00083586497 829.76989)
(4.0218399e-05 -0.00063829164 829.76981)
(0.00029860982 -0.0005893415 829.76962)
(-0.00036100557 -0.00057514454 829.77005)
(-0.0011710687 -0.0005552057 829.76897)
(-0.000529456 -0.00052945599 829.76843)
(-0.00016752933 -0.00049831533 829.76819)
(0.00014978382 -0.00046084477 829.76821)
(0.00042775328 -0.00041505813 829.76847)
(0.00061943219 -0.00036022842 829.76895)
(0.00043536856 -0.00030001552 829.76956)
(6.2456074e-05 -0.00025145546 829.76953)
(0.00030326326 -0.00024962236 829.76933)
(-0.0003425143 -0.00022971686 829.76977)
(-0.0011449961 -0.00020097534 829.7687)
(-0.00049831534 -0.00016752933 829.76819)
(-0.00013236412 -0.00013236411 829.76797)
(0.0001894789 -9.6184322e-05 829.76802)
(0.00047230817 -5.8390017e-05 829.76831)
(0.00066593509 -1.9484212e-05 829.76883)
(0.00047362919 1.643669e-05 829.76948)
(7.2591771e-05 3.9140891e-05 829.76947)
(0.00031188016 2.2165202e-05 829.76927)
(-0.00031235854 6.1379944e-05 829.76973)
(-0.0011088812 0.00010622169 829.76869)
(-0.00046084477 0.0001497838 829.76821)
(-9.6184323e-05 0.0001894789 829.76802)
(0.00022375791 0.00022375791 829.76809)
(0.00050445339 0.0002531826 829.76841)
(0.0006942589 0.00027749998 829.76896)
(0.00049399366 0.0002952177 829.76962)
(7.7592208e-05 0.00030416608 829.76962)
(0.00032940642 0.0002129078 829.7694)
(-0.00025845782 0.00029403721 829.76991)
(-0.0010565923 0.00037169181 829.76891)
(-0.00041505813 0.00042775328 829.76847)
(-5.839002e-05 0.00047230817 829.76831)
(0.0002531826 0.00050445339 829.76841)
(0.00052605024 0.00052605023 829.76875)
(0.00070797019 0.00053744479 829.76931)
(0.0005002953 0.0005386135 829.76998)
(7.8557359e-05 0.00053319782 829.76999)
(0.00036596643 0.00025637739 829.76966)
(-0.00015357453 0.0003987049 829.77026)
(-0.00097516509 0.00055089249 829.76935)
(-0.00036022842 0.00061943219 829.76895)
(-1.9484211e-05 0.00066593509 829.76883)
(0.00027749998 0.0006942589 829.76896)
(0.00053744479 0.00070797019 829.76931)
(0.00070682217 0.00070682217 829.76987)
(0.00048974669 0.00068818956 829.77053)
(7.3981752e-05 0.0006563583 829.77052)
(0.00042429142 5.6371202e-05 829.76987)
(3.6057273e-05 9.84951e-05 829.77065)
(-0.00083586497 0.00036485623 829.76989)
(-0.00030001553 0.00043536856 829.76956)
(1.6436694e-05 0.0004736292 829.76948)
(0.00029521771 0.00049399367 829.76962)
(0.00053861351 0.0005002953 829.76998)
(0.00068818956 0.00048974669 829.77053)
(0.00044983143 0.00044983144 829.77117)
(5.733652e-05 0.00036109741 829.77109)
(0.00039404903 -3.9017094e-05 829.76959)
(0.00015491051 -6.9259483e-05 829.77033)
(-0.00063829163 4.0218395e-05 829.76981)
(-0.00025145545 6.2456077e-05 829.76953)
(3.9140893e-05 7.2591776e-05 829.76947)
(0.00030416607 7.759221e-05 829.76962)
(0.00053319781 7.8557355e-05 829.76999)
(0.0006563583 7.3981746e-05 829.77052)
(0.00036109741 5.7336519e-05 829.77109)
(1.4825733e-05 1.4825733e-05 829.77076)
(0.0012217856 0.0012217856 824.58716)
(0.00041415195 0.00028434947 824.58801)
(-0.0020772159 0.000352018 824.58707)
(-0.00099578243 0.00035923762 824.58656)
(-0.00040679945 0.00036734625 824.58631)
(8.1251531e-05 0.00038242021 824.5863)
(0.00043857176 0.00041374173 824.58648)
(0.00051821323 0.00048428822 824.58682)
(-5.4673634e-05 0.00061800844 824.58712)
(-0.00019018203 0.00059391795 824.58673)
(0.00028434947 0.00041415195 824.58801)
(-0.00089049951 -0.0008904995 824.58814)
(-0.0019648837 -0.0007664504 824.58723)
(-0.00097279005 -0.00074082186 824.58674)
(-0.00037202555 -0.00070813874 824.5865)
(0.00015084476 -0.00065488044 824.5865)
(0.00059137376 -0.00055926226 824.58672)
(0.00082461329 -0.00036651813 824.58716)
(0.00010977097 1.2679276e-05 824.58768)
(-0.00021427253 0.00024888458 824.58728)
(0.000352018 -0.0020772159 824.58707)
(-0.0007664504 -0.0019648837 824.58723)
(-0.0019275383 -0.0019275383 824.58634)
(-0.00093747077 -0.0018927829 824.58585)
(-0.00032085803 -0.001846313 824.58563)
(0.00023012801 -0.0017819851 824.58566)
(0.00072693407 -0.0016892248 824.58593)
(0.0010901548 -0.001546004 824.58643)
(0.00056072908 -0.0012994258 824.58711)
(-3.2711832e-05 -0.00096525849 824.58691)
(0.00035923762 -0.00099578242 824.58656)
(-0.00074082187 -0.00097279005 824.58674)
(-0.0018927829 -0.00093747077 824.58585)
(-0.0008915648 -0.0008915648 824.58539)
(-0.00026122779 -0.00083611848 824.58519)
(0.00030793298 -0.00076939567 824.58525)
(0.00082735489 -0.00068778624 824.58555)
(0.0012144123 -0.00058996969 824.5861)
(0.00069051648 -0.00048114627 824.58684)
(8.5056532e-06 -0.00039223939 824.5867)
(0.00036734625 -0.00040679945 824.58631)
(-0.00070813875 -0.00037202556 824.5865)
(-0.001846313 -0.00032085803 824.58563)
(-0.00083611848 -0.00026122779 824.58519)
(-0.0001986889 -0.00019868889 824.58502)
(0.00037846025 -0.00013438006 824.5851)
(0.00090636005 -6.7281463e-05 824.58544)
(0.0012967947 1.6022528e-06 824.58603)
(0.00075845938 6.5128676e-05 824.5868)
(2.6559424e-05 0.00010528251 824.58669)
(0.00038242021 8.125152e-05 824.5863)
(-0.00065488045 0.00015084476 824.5865)
(-0.0017819851 0.00023012801 824.58566)
(-0.00076939566 0.00030793298 824.58525)
(-0.00013438006 0.00037846025 824.5851)
(0.00043934041 0.00043934041 824.58521)
(0.0009633372 0.00049148481 824.58558)
(0.0013468225 0.00053435111 824.58619)
(0.00079419674 0.00056518447 824.58698)
(3.5274873e-05 0.00058023962 824.58688)
(0.00041374174 0.00043857177 824.58648)
(-0.00055926226 0.00059137376 824.58672)
(-0.0016892248 0.00072693408 824.58593)
(-0.00068778624 0.00082735488 824.58555)
(-6.7281468e-05 0.00090636005 824.58544)
(0.0004914848 0.0009633372 824.58558)
(0.0010013707 0.0010013708 824.58596)
(0.0013704944 0.0010207199 824.58658)
(0.00080434789 0.001020487 824.58738)
(3.6596189e-05 0.0010067003 824.58728)
(0.00048428821 0.00051821323 824.58682)
(-0.00036651813 0.00082461329 824.58716)
(-0.001546004 0.0010901548 824.58643)
(-0.0005899697 0.0012144123 824.5861)
(1.6022511e-06 0.0012967947 824.58603)
(0.00053435112 0.0013468225 824.58619)
(0.0010207199 0.0013704944 824.58658)
(0.0013659387 0.0013659387 824.58721)
(0.00078017716 0.001323081 824.588)
(2.6083761e-05 0.0012382357 824.58788)
(0.00061800844 -5.4673637e-05 824.58712)
(1.2679276e-05 0.00010977097 824.58768)
(-0.0012994258 0.00056072907 824.58711)
(-0.00048114627 0.00069051649 824.58684)
(6.5128677e-05 0.00075845938 824.5868)
(0.00056518447 0.00079419674 824.58698)
(0.001020487 0.00080434788 824.58738)
(0.001323081 0.00078017716 824.588)
(0.00067664485 0.00067664486 824.58875)
(-1.9967329e-05 0.0003404251 824.58853)
(0.00059391795 -0.00019018203 824.58673)
(0.00024888458 -0.00021427253 824.58728)
(-0.00096525849 -3.2711832e-05 824.58691)
(-0.00039223939 8.5056524e-06 824.5867)
(0.00010528251 2.6559424e-05 824.58669)
(0.00058023962 3.5274874e-05 824.58688)
(0.0010067003 3.6596188e-05 824.58728)
(0.0012382357 2.6083759e-05 824.58788)
(0.00034042509 -1.9967327e-05 824.58853)
(-0.00019806275 -0.00019806275 824.58781)
(0.0014803643 0.0014803643 819.57372)
(0.00035712648 0.0003247341 819.57446)
(-0.0027564477 0.0004048452 819.5736)
(-0.0013410795 0.00041460922 819.57316)
(-0.00051551535 0.00042612351 819.57296)
(0.00018939423 0.00044733457 819.57299)
(0.0007323623 0.00049128621 819.57322)
(0.00089800286 0.00059256019 819.57363)
(-2.8421478e-05 0.00079696186 819.57405)
(-0.00030061316 0.00076167928 819.57376)
(0.0003247341 0.00035712648 819.57446)
(-0.0012561522 -0.0012561522 819.57458)
(-0.002621635 -0.0011062584 819.57376)
(-0.0013091621 -0.0010704618 819.57332)
(-0.00046642733 -0.0010237835 819.57314)
(0.00028713826 -0.00094814549 819.57318)
(0.00095020073 -0.00081299995 819.57345)
(0.0013565163 -0.0005384611 819.57394)
(0.00022525716 2.0968509e-05 819.57457)
(-0.00033589574 0.0003368156 819.57424)
(0.0004048452 -0.0027564477 819.5736)
(-0.0011062584 -0.002621635 819.57376)
(-0.0025707573 -0.0025707573 819.57295)
(-0.0012586047 -0.0025209915 819.57253)
(-0.00039319903 -0.002454474 819.57236)
(0.0004001778 -0.002362537 819.57243)
(0.0011420467 -0.0022302568 819.57274)
(0.0017319713 -0.0020271741 819.57331)
(0.00084685523 -0.0016762046 819.57408)
(-9.0048425e-05 -0.0012185251 819.57394)
(0.00041460922 -0.0013410795 819.57316)
(-0.0010704618 -0.0013091621 819.57332)
(-0.0025209915 -0.0012586047 819.57253)
(-0.0011928788 -0.0011928788 819.57213)
(-0.00030797281 -0.0011136597 819.57198)
(0.00051135543 -0.001018436 819.57208)
(0.0012855636 -0.00090200133 819.57243)
(0.0019105686 -0.00076258003 819.57304)
(0.0010339062 -0.00060637952 819.57387)
(-3.0776088e-05 -0.00047892125 819.57378)
(0.00042612352 -0.00051551535 819.57296)
(-0.0010237835 -0.00046642732 819.57314)
(-0.002454474 -0.00039319903 819.57236)
(-0.0011136597 -0.00030797281 819.57198)
(-0.00021875626 -0.00021875626 819.57186)
(0.00061183613 -0.00012711908 819.57198)
(0.0013979026 -3.1644565e-05 819.57237)
(0.0020275931 6.6111623e-05 819.57301)
(0.001130514 0.00015618599 819.57388)
(-5.0762492e-06 0.00021310874 819.57381)
(0.00044733457 0.00018939423 819.57299)
(-0.00094814549 0.00028713827 819.57318)
(-0.002362537 0.0004001778 819.57243)
(-0.001018436 0.00051135543 819.57208)
(-0.00012711908 0.00061183613 819.57198)
(0.00069846712 0.00069846711 819.57214)
(0.0014787943 0.00077247042 819.57254)
(0.0020983991 0.00083300499 819.57321)
(0.0011809033 0.00087618817 819.57409)
(7.1724067e-06 0.0008969948 819.57403)
(0.00049128621 0.0007323623 819.57322)
(-0.00081299995 0.00095020073 819.57345)
(-0.0022302568 0.0011420467 819.57274)
(-0.00090200133 0.0012855636 819.57243)
(-3.1644571e-05 0.0013979027 819.57237)
(0.00077247042 0.0014787943 819.57254)
(0.0015324405 0.0015324405 819.57297)
(0.0021313109 0.0015590169 819.57364)
(0.0011945038 0.0015569304 819.57453)
(8.7948365e-06 0.0015349441 819.57448)
(0.00059256019 0.00089800285 819.57363)
(-0.00053846111 0.0013565163 819.57394)
(-0.0020271742 0.0017319713 819.57331)
(-0.00076258002 0.0019105686 819.57304)
(6.6111625e-05 0.0020275931 819.57301)
(0.00083300498 0.0020983991 819.57321)
(0.0015590169 0.0021313109 819.57364)
(0.0021228891 0.0021228891 819.57432)
(0.0011568306 0.0020552267 819.5752)
(-7.4851528e-06 0.001912384 819.57513)
(0.00079696186 -2.8421486e-05 819.57405)
(2.0968511e-05 0.00022525715 819.57457)
(-0.0016762046 0.00084685523 819.57408)
(-0.00060637951 0.0010339062 819.57387)
(0.000156186 0.001130514 819.57388)
(0.00087618817 0.0011809033 819.57409)
(0.0015569304 0.0011945038 819.57453)
(0.0020552267 0.0011568306 819.5752)
(0.00098399874 0.00098399875 819.57605)
(-8.6433655e-05 0.00029186418 819.57588)
(0.00076167927 -0.00030061316 819.57376)
(0.00033681561 -0.00033589574 819.57424)
(-0.0012185251 -9.0048423e-05 819.57394)
(-0.00047892125 -3.0776084e-05 819.57378)
(0.00021310873 -5.0762515e-06 819.57381)
(0.0008969948 7.1724044e-06 819.57403)
(0.0015349441 8.7948357e-06 819.57448)
(0.001912384 -7.4851528e-06 819.57513)
(0.00029186418 -8.6433653e-05 819.57588)
(-0.0004689082 -0.0004689082 819.57507)
(0.0017162776 0.0017162776 814.72332)
(0.00029737458 0.00036035696 814.72399)
(-0.003377318 0.00045410367 814.72319)
(-0.001635607 0.00046680499 814.7228)
(-0.00057878953 0.00048177593 814.72265)
(0.00034159788 0.00050901565 814.72271)
(0.0010745817 0.00056523693 814.72299)
(0.001340262 0.00069601365 814.72343)
(7.7027011e-05 0.00096852918 814.72391)
(-0.00038247331 0.00091660285 814.7237)
(0.00036035697 0.00029737459 814.72399)
(-0.0015958862 -0.0015958862 814.72409)
(-0.003217646 -0.0014173919 814.72333)
(-0.0015940986 -0.0013705306 814.72294)
(-0.00051547353 -0.0013098599 814.7228)
(0.00046678937 -0.0012123566 814.72289)
(0.0013550787 -0.0010388832 814.7232)
(0.0019452004 -0.00068569276 814.72373)
(0.00040791081 4.7688033e-05 814.72441)
(-0.00043439964 0.00042780104 814.72414)
(0.00045410367 -0.003377318 814.72319)
(-0.0014173919 -0.003217646 814.72333)
(-0.0031519623 -0.0031519623 814.72258)
(-0.001528075 -0.0030868672 814.72221)
(-0.00042061556 -0.003000602 814.72209)
(0.0006125746 -0.0028818341 814.7222)
(0.0016012456 -0.0027113415 814.72255)
(0.0024268333 -0.0024506504 814.72315)
(0.0011905208 -0.0019987726 814.72397)
(-0.00012906464 -0.001426425 814.72388)
(0.00046680499 -0.001635607 814.7228)
(-0.0013705305 -0.0015940986 814.72294)
(-0.0030868672 -0.001528075 814.72221)
(-0.0014427383 -0.0014427383 814.72186)
(-0.00031044043 -0.0013403067 814.72176)
(0.00075604989 -0.0012174609 814.72189)
(0.0017862625 -0.0010674222 814.72228)
(0.0026577693 -0.00088805442 814.72293)
(0.0014321362 -0.00068624177 814.7238)
(-5.2834535e-05 -0.00052244431 814.72376)
(0.00048177593 -0.00057878954 814.72265)
(-0.0013098599 -0.00051547353 814.7228)
(-0.003000602 -0.00042061557 814.72209)
(-0.0013403067 -0.00031044043 814.72176)
(-0.00019533817 -0.00019533816 814.72168)
(0.00088545913 -7.7298675e-05 814.72184)
(0.0019306521 4.5476071e-05 814.72226)
(0.0028080137 0.00017085903 814.72293)
(0.0015561309 0.00028627154 814.72384)
(-1.9866336e-05 0.00035906741 814.72382)
(0.00050901565 0.00034159789 814.72271)
(-0.0012123566 0.00046678938 814.72289)
(-0.0028818341 0.00061257459 814.7222)
(-0.0012174609 0.00075604989 814.72189)
(-7.7298677e-05 0.00088545913 814.72184)
(0.00099686413 0.00099686413 814.72203)
(0.0020344202 0.0010917544 814.72247)
(0.0028985648 0.0011689705 814.72317)
(0.0016203446 0.001223613 814.72409)
(-4.3039514e-06 0.0012496185 814.72408)
(0.00056523692 0.0010745817 814.72299)
(-0.0010388832 0.0013550787 814.7232)
(-0.0027113415 0.0016012456 814.72255)
(-0.0010674222 0.0017862625 814.72228)
(4.5476076e-05 0.0019306521 814.72226)
(0.0010917544 0.0020344202 814.72247)
(0.0021027584 0.0021027584 814.72292)
(0.0029398723 0.0021357121 814.72364)
(0.0016367789 0.0021311923 814.72457)
(-2.5293938e-06 0.0021011773 814.72456)
(0.00069601365 0.001340262 814.72343)
(-0.00068569277 0.0019452004 814.72373)
(-0.0024506504 0.0024268333 814.72315)
(-0.00088805441 0.0026577693 814.72293)
(0.00017085903 0.0028080137 814.72293)
(0.0011689705 0.0028985648 814.72317)
(0.0021357121 0.0029398723 814.72364)
(0.0029269987 0.0029269987 814.72435)
(0.0015858098 0.0028351377 814.72527)
(-2.431398e-05 0.0026375175 814.72524)
(0.00096852917 7.7027015e-05 814.72391)
(4.7688032e-05 0.00040791081 814.72441)
(-0.0019987726 0.0011905208 814.72397)
(-0.00068624176 0.0014321362 814.7238)
(0.00028627153 0.0015561309 814.72384)
(0.001223613 0.0016203446 814.72409)
(0.0021311923 0.0016367789 814.72457)
(0.0028351377 0.0015858098 814.72527)
(0.0013472977 0.0013472977 814.72615)
(-0.00013427625 0.00027668012 814.72603)
(0.00091660285 -0.00038247331 814.7237)
(0.00042780103 -0.00043439963 814.72414)
(-0.001426425 -0.00012906464 814.72388)
(-0.00052244431 -5.2834535e-05 814.72376)
(0.00035906741 -1.9866344e-05 814.72382)
(0.0012496185 -4.3039495e-06 814.72408)
(0.0021011773 -2.5293919e-06 814.72456)
(0.0026375175 -2.4313984e-05 814.72524)
(0.00027668012 -0.00013427625 814.72603)
(-0.00073805901 -0.00073805901 814.72526)
(0.0019302966 0.0019302966 810.02878)
(0.000229784 0.00038796415 810.02939)
(-0.0039513777 0.00049566124 810.02863)
(-0.0018880579 0.00051153781 810.02828)
(-0.00060299478 0.00052996214 810.02816)
(0.0005307174 0.00056304295 810.02826)
(0.0014533026 0.00063107801 810.02857)
(0.0018218833 0.00079023332 810.02905)
(0.00023395657 0.0011287043 810.02956)
(-0.00044399688 0.0010608744 810.0294)
(0.00038796415 0.00022978399 810.02939)
(-0.0019221691 -0.0019221691 810.02946)
(-0.0037660172 -0.0017139718 810.02874)
(-0.0018366065 -0.0016554591 810.0284)
(-0.00052573707 -0.0015809215 810.02829)
(0.00068239121 -0.0014622561 810.02841)
(0.0017940881 -0.0012519355 810.02875)
(0.0025683228 -0.00082327814 810.02931)
(0.00063991818 7.7944013e-05 810.03002)
(-0.00051182683 0.00051842788 810.02982)
(0.00049566124 -0.0039513777 810.02863)
(-0.0017139718 -0.0037660172 810.02874)
(-0.0036846678 -0.0036846678 810.02805)
(-0.0017550076 -0.0036040393 810.02772)
(-0.00040979178 -0.0034984083 810.02763)
(0.00085970349 -0.0033537157 810.02777)
(0.0020922806 -0.0031465381 810.02815)
(0.0031517628 -0.0028307638 810.02878)
(0.0015756626 -0.0022820782 810.02962)
(-0.00015034096 -0.0016014705 810.02958)
(0.00051153781 -0.0018880579 810.02828)
(-0.0016554591 -0.0018366065 810.0284)
(-0.0036040393 -0.0017550076 810.02772)
(-0.001650347 -0.001650347 810.02741)
(-0.00027541352 -0.001525351 810.02734)
(0.0010342614 -0.0013758726 810.02751)
(0.0023170401 -0.0011935891 810.02792)
(0.0034327827 -0.00097605259 810.02859)
(0.0018692115 -0.00073060845 810.02948)
(-5.8088316e-05 -0.00053244356 810.02949)
(0.00052996214 -0.00060299478 810.02816)
(-0.0015809215 -0.00052573707 810.02829)
(-0.0034984083 -0.00040979178 810.02763)
(-0.001525351 -0.00027541352 810.02734)
(-0.00013531735 -0.00013531734 810.0273)
(0.0011914654 8.1044192e-06 810.02749)
(0.0024921006 0.00015702391 810.02793)
(0.0036147435 0.00030875278 810.02863)
(0.0020192716 0.00044828052 810.02955)
(-1.8231039e-05 0.00053607894 810.02958)
(0.00056304295 0.0005307174 810.02826)
(-0.0014622561 0.00068239121 810.02841)
(-0.0033537158 0.00085970349 810.02777)
(-0.0013758726 0.0010342614 810.02751)
(8.1044181e-06 0.0011914654 810.02749)
(0.0013266027 0.0013266027 810.02771)
(0.0026176885 0.0014414051 810.02817)
(0.0037240393 0.0015343935 810.02889)
(0.0020965376 0.0015997295 810.02983)
(4.4396151e-07 0.0016304411 810.02987)
(0.00063107801 0.0014533026 810.02857)
(-0.0012519355 0.0017940881 810.02875)
(-0.0031465381 0.0020922806 810.02815)
(-0.0011935891 0.0023170401 810.02792)
(0.00015702392 0.0024921006 810.02793)
(0.0014414051 0.0026176885 810.02817)
(0.0026998914 0.0026998914 810.02865)
(0.0037730678 0.0027385808 810.02938)
(0.0021153193 0.0027312226 810.03033)
(2.2434157e-06 0.0026931035 810.03036)
(0.00079023332 0.0018218833 810.02905)
(-0.00082327814 0.0025683228 810.02931)
(-0.0028307638 0.0031517628 810.02878)
(-0.00097605259 0.0034327827 810.02859)
(0.00030875279 0.0036147435 810.02863)
(0.0015343935 0.0037240393 810.02889)
(0.0027385808 0.0037730678 810.02938)
(0.0037553705 0.0037553705 810.03011)
(0.0020510604 0.0036397962 810.03105)
(-2.4968767e-05 0.0033903139 810.03107)
(0.0011287043 0.00023395658 810.02956)
(7.7944011e-05 0.00063991818 810.03002)
(-0.0022820782 0.0015756626 810.02962)
(-0.00073060845 0.0018692115 810.02948)
(0.00044828053 0.0020192716 810.02955)
(0.0015997295 0.0020965376 810.02983)
(0.0027312226 0.0021153193 810.03033)
(0.0036397962 0.0020510604 810.03105)
(0.0017502627 0.0017502627 810.03195)
(-0.0001640781 0.00030575682 810.03188)
(0.0010608744 -0.00044399687 810.0294)
(0.00051842787 -0.00051182682 810.02982)
(-0.0016014705 -0.00015034096 810.02958)
(-0.00053244357 -5.8088317e-05 810.02949)
(0.00053607894 -1.8231042e-05 810.02958)
(0.0016304412 4.4395847e-07 810.02987)
(0.0026931035 2.2434176e-06 810.03036)
(0.0033903139 -2.4968767e-05 810.03107)
(0.00030575681 -0.00016407811 810.03188)
(-0.00098797266 -0.00098797266 810.03117)
(0.0021212355 0.0021212355 805.48282)
(0.00015096036 0.00040635934 805.48336)
(-0.0044834346 0.00052784448 805.48265)
(-0.0021049388 0.00054699976 805.48233)
(-0.00059516774 0.0005688252 805.48225)
(0.00074823255 0.00060751709 805.48237)
(0.001857377 0.00068683016 805.4827)
(0.0023284903 0.00087310101 805.4832)
(0.00042919493 0.0012750499 805.48373)
(-0.00048861438 0.0011936276 805.48362)
(0.00040635934 0.00015096036 805.48336)
(-0.0022391262 -0.0022391262 805.4834)
(-0.004272474 -0.0020012018 805.48273)
(-0.0020434677 -0.0019308084 805.48242)
(-0.00050439174 -0.0018426824 805.48235)
(0.00092523998 -0.0017036859 805.48249)
(0.0022557529 -0.0014582005 805.48285)
(0.00321082 -0.00095758847 805.48343)
(0.00090998478 0.00010451434 805.48414)
(-0.00057003671 0.00060435078 805.484)
(0.00052784448 -0.0044834346 805.48265)
(-0.0020012018 -0.004272474 805.48273)
(-0.0041751168 -0.0041751168 805.48208)
(-0.0019464193 -0.0040790034 805.48179)
(-0.00036804529 -0.0039545373 805.48173)
(0.0011327144 -0.0037849529 805.4819)
(0.0026034745 -0.0035427649 805.48229)
(0.0038912052 -0.0031746047 805.48293)
(0.0019911342 -0.0025336886 805.48377)
(-0.00015539009 -0.0017505771 805.48378)
(0.00054699976 -0.0021049388 805.48233)
(-0.0019308084 -0.0020434677 805.48242)
(-0.0040790034 -0.0019464193 805.48179)
(-0.0018228882 -0.0018228882 805.48151)
(-0.00021034133 -0.0016761038 805.48147)
(0.0013370124 -0.0015010961 805.48167)
(0.0028661011 -0.0012880377 805.4821)
(0.0042198963 -0.0010341911 805.48277)
(0.0023340124 -0.00074722628 805.48367)
(-4.796238e-05 -0.00051651204 805.48372)
(0.00056882521 -0.00059516774 805.48225)
(-0.0018426824 -0.00050439174 805.48235)
(-0.0039545373 -0.00036804529 805.48173)
(-0.0016761038 -0.00021034133 805.48147)
(-4.6253213e-05 -4.6253206e-05 805.48146)
(0.0015207805 0.00012144442 805.48167)
(0.0030703795 0.00029529384 805.48213)
(0.0044320166 0.00047207461 805.48284)
(0.0025088133 0.00063450859 805.48376)
(-1.5805983e-06 0.00073650921 805.48383)
(0.00060751709 0.00074823255 805.48237)
(-0.0017036859 0.00092523997 805.48249)
(-0.0037849529 0.0011327144 805.4819)
(-0.0015010961 0.0013370124 805.48167)
(0.00012144442 0.0015207805 805.48167)
(0.0016785594 0.0016785594 805.48191)
(0.0032167313 0.0018123153 805.48239)
(0.004559111 0.0019202712 805.48312)
(0.002598447 0.0019957207 805.48406)
(2.0038034e-05 0.0020308455 805.48414)
(0.00068683015 0.001857377 805.4827)
(-0.0014582005 0.0022557529 805.48285)
(-0.0035427649 0.0026034745 805.48229)
(-0.0012880377 0.0028661011 805.4821)
(0.00029529384 0.0030703795 805.48213)
(0.0018123153 0.0032167313 805.48239)
(0.0033120912 0.0033120912 805.48288)
(0.0046154221 0.0033561689 805.48362)
(0.0026193876 0.0033460268 805.48457)
(2.1835938e-05 0.0033001153 805.48465)
(0.00087310102 0.0023284903 805.4832)
(-0.00095758848 0.00321082 805.48343)
(-0.0031746047 0.0038912052 805.48293)
(-0.0010341911 0.0042198963 805.48277)
(0.00047207461 0.0044320166 805.48284)
(0.0019202712 0.004559111 805.48312)
(0.0033561689 0.0046154221 805.48362)
(0.0045930466 0.0045930466 805.48436)
(0.0025423934 0.0044549135 805.48529)
(-1.0569663e-05 0.0041566019 805.48536)
(0.0012750499 0.00042919494 805.48373)
(0.00010451435 0.00090998478 805.48414)
(-0.0025336886 0.0019911342 805.48377)
(-0.00074722628 0.0023340124 805.48367)
(0.00063450858 0.0025088133 805.48376)
(0.0019957207 0.002598447 805.48406)
(0.0033460269 0.0026193876 805.48457)
(0.0044549135 0.0025423934 805.48529)
(0.0021829429 0.0021829429 805.4862)
(-0.00017703846 0.00037789663 805.48618)
(0.0011936276 -0.00048861438 805.48362)
(0.00060435078 -0.00057003671 805.484)
(-0.0017505771 -0.00015539009 805.48378)
(-0.00051651204 -4.7962377e-05 805.48372)
(0.00073650921 -1.5805972e-06 805.48383)
(0.0020308455 2.0038039e-05 805.48414)
(0.0033001153 2.1835941e-05 805.48465)
(0.0041566019 -1.0569662e-05 805.48536)
(0.00037789663 -0.00017703845 805.48618)
(-0.0012139338 -0.0012139338 805.48554)
(0.0022881046 0.0022881046 801.07808)
(5.9407351e-05 0.00041519647 801.07854)
(-0.0049754272 0.00055006292 801.07788)
(-0.0022909345 0.00057251743 801.0776)
(-0.00056157903 0.0005976512 801.07754)
(0.00098619192 0.00064168996 801.07768)
(0.0022770201 0.00073168633 801.07803)
(0.0028490915 0.00094366966 801.07853)
(0.00065420132 0.0014062389 801.07907)
(-0.00051825606 0.0013138287 801.079)
(0.00041519646 5.940735e-05 801.07854)
(-0.0025476552 -0.0025476552 801.07855)
(-0.0047394457 -0.0022805735 801.07793)
(-0.0022195521 -0.0021983206 801.07766)
(-0.00045782024 -0.002097025 801.07761)
(0.0011872446 -0.0019386468 801.07777)
(0.0027299897 -0.001659846 801.07814)
(0.0038609204 -0.0010911218 801.07872)
(0.0012094399 0.00012399233 801.07944)
(-0.00061066625 0.00068244684 801.07934)
(0.00055006292 -0.0049754272 801.07788)
(-0.0022805735 -0.0047394457 801.07793)
(-0.0046260926 -0.0046260926 801.07733)
(-0.002107386 -0.0045147654 801.07707)
(-0.00030190521 -0.0043721485 801.07703)
(0.001423371 -0.0041788374 801.07722)
(0.0031245452 -0.0039034587 801.07763)
(0.0046329299 -0.0034857939 801.07826)
(0.0024277699 -0.0027576629 801.0791)
(-0.00014595306 -0.0018779661 801.07915)
(0.00057251743 -0.0022909345 801.0776)