/*--------------------------------*- C++ -*----------------------------------*\
| =========                 |                                                 |
| \\      /  F ield         | OpenFOAM: The Open Source CFD Toolbox           |
|  \\    /   O peration     | Version:  v2106                                 |
|   \\  /    A nd           | Website:  www.openfoam.com                      |
|    \\/     M anipulation  |                                                 |
\*---------------------------------------------------------------------------*/
FoamFile
{
    version     2.0;
    format      ascii;
    arch        "LSB;label=32;scalar=64";
    class       volScalarField;
    location    "57.5";
    object      gradTz;
}
// * * * * * * * * * * * * * * * * * * * * * * * * * * * * * * * * * * * * * //

dimensions      [0 -1 0 1 0 0 0];

internalField   nonuniform List<scalar> 
4000
(
561.43156
561.43323
561.43214
561.43172
561.43151
561.43145
561.43153
561.43168
561.4318
561.43176
561.43323
561.4336
561.43265
561.43224
561.43203
561.43199
561.43209
561.4323
561.43251
561.43245
561.43214
561.43265
561.4317
561.4313
561.43111
561.43108
561.43122
561.43148
561.4318
561.43192
561.43172
561.43224
561.4313
561.43091
561.43073
561.43073
561.43089
561.43118
561.43155
561.4317
561.43151
561.43203
561.43111
561.43073
561.43057
561.43058
561.43077
561.43109
561.43148
561.43165
561.43145
561.43199
561.43108
561.43073
561.43058
561.43062
561.43082
561.43116
561.43156
561.43174
561.43153
561.43209
561.43122
561.43089
561.43077
561.43082
561.43104
561.43138
561.43179
561.43197
561.43168
561.4323
561.43148
561.43118
561.43109
561.43116
561.43138
561.43173
561.43214
561.43231
561.4318
561.43251
561.4318
561.43155
561.43148
561.43156
561.43179
561.43214
561.43253
561.43268
561.43176
561.43245
561.43192
561.4317
561.43165
561.43174
561.43197
561.43231
561.43268
561.43277
829.76993
829.77138
829.7702
829.76962
829.76933
829.76927
829.7694
829.76966
829.76987
829.76959
829.77138
829.77174
829.77062
829.77005
829.76977
829.76973
829.76991
829.77026
829.77065
829.77033
829.7702
829.77062
829.76953
829.76897
829.7687
829.76869
829.76891
829.76935
829.76989
829.76981
829.76962
829.77005
829.76897
829.76843
829.76819
829.76821
829.76847
829.76895
829.76956
829.76953
829.76933
829.76977
829.7687
829.76819
829.76797
829.76802
829.76831
829.76883
829.76948
829.76947
829.76927
829.76973
829.76869
829.76821
829.76802
829.76809
829.76841
829.76896
829.76962
829.76962
829.7694
829.76991
829.76891
829.76847
829.76831
829.76841
829.76875
829.76931
829.76998
829.76999
829.76966
829.77026
829.76935
829.76895
829.76883
829.76896
829.76931
829.76987
829.77053
829.77052
829.76987
829.77065
829.76989
829.76956
829.76948
829.76962
829.76998
829.77053
829.77117
829.77109
829.76959
829.77033
829.76981
829.76953
829.76947
829.76962
829.76999
829.77052
829.77109
829.77076
824.58716
824.58801
824.58707
824.58656
824.58631
824.5863
824.58648
824.58682
824.58712
824.58673
824.58801
824.58814
824.58723
824.58674
824.5865
824.5865
824.58672
824.58716
824.58768
824.58728
824.58707
824.58723
824.58634
824.58585
824.58563
824.58566
824.58593
824.58643
824.58711
824.58691
824.58656
824.58674
824.58585
824.58539
824.58519
824.58525
824.58555
824.5861
824.58684
824.5867
824.58631
824.5865
824.58563
824.58519
824.58502
824.5851
824.58544
824.58603
824.5868
824.58669
824.5863
824.5865
824.58566
824.58525
824.5851
824.58521
824.58558
824.58619
824.58698
824.58688
824.58648
824.58672
824.58593
824.58555
824.58544
824.58558
824.58596
824.58658
824.58738
824.58728
824.58682
824.58716
824.58643
824.5861
824.58603
824.58619
824.58658
824.58721
824.588
824.58788
824.58712
824.58768
824.58711
824.58684
824.5868
824.58698
824.58738
824.588
824.58875
824.58853
824.58673
824.58728
824.58691
824.5867
824.58669
824.58688
824.58728
824.58788
824.58853
824.58781
819.57372
819.57446
819.5736
819.57316
819.57296
819.57299
819.57322
819.57363
819.57405
819.57376
819.57446
819.57458
819.57376
819.57332
819.57314
819.57318
819.57345
819.57394
819.57457
819.57424
819.5736
819.57376
819.57295
819.57253
819.57236
819.57243
819.57274
819.57331
819.57408
819.57394
819.57316
819.57332
819.57253
819.57213
819.57198
819.57208
819.57243
819.57304
819.57387
819.57378
819.57296
819.57314
819.57236
819.57198
819.57186
819.57198
819.57237
819.57301
819.57388
819.57381
819.57299
819.57318
819.57243
819.57208
819.57198
819.57214
819.57254
819.57321
819.57409
819.57403
819.57322
819.57345
819.57274
819.57243
819.57237
819.57254
819.57297
819.57364
819.57453
819.57448
819.57363
819.57394
819.57331
819.57304
819.57301
819.57321
819.57364
819.57432
819.5752
819.57513
819.57405
819.57457
819.57408
819.57387
819.57388
819.57409
819.57453
819.5752
819.57605
819.57588
819.57376
819.57424
819.57394
819.57378
819.57381
819.57403
819.57448
819.57513
819.57588
819.57507
814.72332
814.72399
814.72319
814.7228
814.72265
814.72271
814.72299
814.72343
814.72391
814.7237
814.72399
814.72409
814.72333
814.72294
814.7228
814.72289
814.7232
814.72373
814.72441
814.72414
814.72319
814.72333
814.72258
814.72221
814.72209
814.7222
814.72255
814.72315
814.72397
814.72388
814.7228
814.72294
814.72221
814.72186
814.72176
814.72189
814.72228
814.72293
814.7238
814.72376
814.72265
814.7228
814.72209
814.72176
814.72168
814.72184
814.72226
814.72293
814.72384
814.72382
814.72271
814.72289
814.7222
814.72189
814.72184
814.72203
814.72247
814.72317
814.72409
814.72408
814.72299
814.7232
814.72255
814.72228
814.72226
814.72247
814.72292
814.72364
814.72457
814.72456
814.72343
814.72373
814.72315
814.72293
814.72293
814.72317
814.72364
814.72435
814.72527
814.72524
814.72391
814.72441
814.72397
814.7238
814.72384
814.72409
814.72457
814.72527
814.72615
814.72603
814.7237
814.72414
814.72388
814.72376
814.72382
814.72408
814.72456
814.72524
814.72603
814.72526
810.02878
810.02939
810.02863
810.02828
810.02816
810.02826
810.02857
810.02905
810.02956
810.0294
810.02939
810.02946
810.02874
810.0284
810.02829
810.02841
810.02875
810.02931
810.03002
810.02982
810.02863
810.02874
810.02805
810.02772
810.02763
810.02777
810.02815
810.02878
810.02962
810.02958
810.02828
810.0284
810.02772
810.02741
810.02734
810.02751
810.02792
810.02859
810.02948
810.02949
810.02816
810.02829
810.02763
810.02734
810.0273
810.02749
810.02793
810.02863
810.02955
810.02958
810.02826
810.02841
810.02777
810.02751
810.02749
810.02771
810.02817
810.02889
810.02983
810.02987
810.02857
810.02875
810.02815
810.02792
810.02793
810.02817
810.02865
810.02938
810.03033
810.03036
810.02905
810.02931
810.02878
810.02859
810.02863
810.02889
810.02938
810.03011
810.03105
810.03107
810.02956
810.03002
810.02962
810.02948
810.02955
810.02983
810.03033
810.03105
810.03195
810.03188
810.0294
810.02982
810.02958
810.02949
810.02958
810.02987
810.03036
810.03107
810.03188
810.03117
805.48282
805.48336
805.48265
805.48233
805.48225
805.48237
805.4827
805.4832
805.48373
805.48362
805.48336
805.4834
805.48273
805.48242
805.48235
805.48249
805.48285
805.48343
805.48414
805.484
805.48265
805.48273
805.48208
805.48179
805.48173
805.4819
805.48229
805.48293
805.48377
805.48378
805.48233
805.48242
805.48179
805.48151
805.48147
805.48167
805.4821
805.48277
805.48367
805.48372
805.48225
805.48235
805.48173
805.48147
805.48146
805.48167
805.48213
805.48284
805.48376
805.48383
805.48237
805.48249
805.4819
805.48167
805.48167
805.48191
805.48239
805.48312
805.48406
805.48414
805.4827
805.48285
805.48229
805.4821
805.48213
805.48239
805.48288
805.48362
805.48457
805.48465
805.4832
805.48343
805.48293
805.48277
805.48284
805.48312
805.48362
805.48436
805.48529
805.48536
805.48373
805.48414
805.48377
805.48367
805.48376
805.48406
805.48457
805.48529
805.4862
805.48618
805.48362
805.484
805.48378
805.48372
805.48383
805.48414
805.48465
805.48536
805.48618
805.48554
801.07808
801.07854
801.07788
801.0776
801.07754
801.07768
801.07803
801.07853
801.07907
801.079
801.07854
801.07855
801.07793
801.07766
801.07761
801.07777
801.07814
801.07872
801.07944
801.07934
801.07788
801.07793
801.07733
801.07707
801.07703
801.07722
801.07763
801.07826
801.0791
801.07915
801.0776
801.07766
801.07707
801.07682
801.07681
801.07702
801.07746
801.07813
801.07902
801.07911
801.07754
801.07761
801.07703
801.07681
801.07682
801.07705
801.07751
801.07821
801.07913
801.07924
801.07768
801.07777
801.07722
801.07702
801.07705
801.0773
801.07779
801.07851
801.07944
801.07955
801.07803
801.07814
801.07763
801.07746
801.07751
801.07779
801.07828
801.07901
801.07995
801.08006
801.07853
801.07872
801.07826
801.07813
801.07821
801.07851
801.07901
801.07975
801.08067
801.08077
801.07907
801.07944
801.0791
801.07902
801.07913
801.07944
801.07995
801.08067
801.08157
801.08159
801.079
801.07934
801.07915
801.07911
801.07924
801.07955
801.08006
801.08077
801.08159
801.08103
796.80713
796.80752
796.80691
796.80666
796.80662
796.80678
796.80713
796.80764
796.80818
796.80815
796.80752
796.80751
796.80693
796.80669
796.80666
796.80684
796.80722
796.80779
796.8085
796.80845
796.80691
796.80693
796.80638
796.80615
796.80613
796.80633
796.80674
796.80737
796.80819
796.80828
796.80666
796.80669
796.80615
796.80593
796.80594
796.80616
796.8066
796.80726
796.80813
796.80825
796.80662
796.80666
796.80613
796.80594
796.80596
796.80621
796.80667
796.80736
796.80825
796.80839
796.80678
796.80684
796.80633
796.80616
796.80621
796.80647
796.80695
796.80766
796.80856
796.80871
796.80713
796.80722
796.80674
796.8066
796.80667
796.80695
796.80744
796.80816
796.80907
796.80922
796.80764
796.80779
796.80737
796.80726
796.80736
796.80766
796.80816
796.80888
796.80978
796.80992
796.80818
796.8085
796.80819
796.80813
796.80825
796.80856
796.80907
796.80978
796.81066
796.81073
796.80815
796.80845
796.80828
796.80825
796.80839
796.80871
796.80922
796.80992
796.81073
796.81023
792.66254
792.66285
792.66229
792.66207
792.66205
792.66222
792.66257
792.66307
792.66361
792.66361
792.66285
792.66281
792.66229
792.66207
792.66206
792.66225
792.66262
792.66319
792.66388
792.66387
792.66229
792.66229
792.66178
792.66158
792.66158
792.66179
792.66219
792.66281
792.6636
792.66372
792.66207
792.66207
792.66158
792.66139
792.66141
792.66164
792.66207
792.66272
792.66356
792.66371
792.66205
792.66206
792.66158
792.66141
792.66145
792.6617
792.66215
792.66282
792.66369
792.66385
792.66222
792.66225
792.66179
792.66164
792.6617
792.66197
792.66244
792.66312
792.664
792.66417
792.66257
792.66262
792.66219
792.66207
792.66215
792.66244
792.66292
792.66362
792.6645
792.66467
792.66307
792.66319
792.66281
792.66272
792.66282
792.66312
792.66362
792.66431
792.66519
792.66535
792.66361
792.66388
792.6636
792.66356
792.66369
792.664
792.6645
792.66519
792.66603
792.66614
792.66361
792.66387
792.66372
792.66371
792.66385
792.66417
792.66467
792.66535
792.66614
792.66572
788.63682
788.63707
788.63656
788.63637
788.63637
788.63654
788.63689
788.63737
788.6379
788.63794
788.63707
788.637
788.63653
788.63634
788.63635
788.63654
788.63691
788.63746
788.63812
788.63815
788.63656
788.63653
788.63608
788.6359
788.63592
788.63613
788.63653
788.63711
788.63788
788.63802
788.63637
788.63634
788.6359
788.63574
788.63578
788.63601
788.63643
788.63705
788.63785
788.63802
788.63637
788.63635
788.63592
788.63578
788.63583
788.63608
788.63652
788.63716
788.63798
788.63817
788.63654
788.63654
788.63613
788.63601
788.63608
788.63634
788.6368
788.63746
788.63829
788.63849
788.63689
788.63691
788.63653
788.63643
788.63652
788.6368
788.63727
788.63793
788.63877
788.63897
788.63737
788.63746
788.63711
788.63705
788.63716
788.63746
788.63793
788.6386
788.63943
788.63962
788.6379
788.63812
788.63788
788.63785
788.63798
788.63829
788.63877
788.63943
788.64025
788.64038
788.63794
788.63815
788.63802
788.63802
788.63817
788.63849
788.63897
788.63962
788.64038
788.64003
784.72256
784.72273
784.72228
784.72212
784.72213
784.72231
784.72265
784.72311
784.72362
784.72369
784.72273
784.72264
784.72223
784.72207
784.72209
784.72228
784.72264
784.72316
784.7238
784.72386
784.72228
784.72223
784.72182
784.72168
784.72171
784.72192
784.7223
784.72286
784.72358
784.72375
784.72212
784.72207
784.72168
784.72155
784.72159
784.72182
784.72222
784.72281
784.72357
784.72376
784.72213
784.72209
784.72171
784.72159
784.72166
784.7219
784.72232
784.72293
784.72371
784.72391
784.72231
784.72228
784.72192
784.72182
784.7219
784.72216
784.7226
784.72322
784.724
784.72422
784.72265
784.72264
784.7223
784.72222
784.72232
784.7226
784.72304
784.72367
784.72446
784.72468
784.72311
784.72316
784.72286
784.72281
784.72293
784.72322
784.72367
784.7243
784.72509
784.7253
784.72362
784.7238
784.72358
784.72357
784.72371
784.724
784.72446
784.72509
784.72586
784.72602
784.72369
784.72386
784.72375
784.72376
784.72391
784.72422
784.72468
784.7253
784.72602
784.72574
780.91234
780.91244
780.91206
780.91192
780.91195
780.91213
780.91245
780.91289
780.91337
780.91347
780.91244
780.91234
780.91198
780.91185
780.91188
780.91207
780.91242
780.9129
780.9135
780.9136
780.91206
780.91198
780.91163
780.91151
780.91156
780.91176
780.91213
780.91265
780.91332
780.91351
780.91192
780.91185
780.91151
780.91141
780.91147
780.91169
780.91207
780.91262
780.91332
780.91353
780.91195
780.91188
780.91156
780.91147
780.91154
780.91178
780.91217
780.91274
780.91346
780.91368
780.91213
780.91207
780.91176
780.91169
780.91178
780.91203
780.91244
780.91302
780.91375
780.91397
780.91245
780.91242
780.91213
780.91207
780.91217
780.91244
780.91286
780.91344
780.91418
780.91441
780.91289
780.9129
780.91265
780.91262
780.91274
780.91302
780.91344
780.91403
780.91476
780.91499
780.91337
780.9135
780.91332
780.91332
780.91346
780.91375
780.91418
780.91476
780.91548
780.91566
780.91347
780.9136
780.91351
780.91353
780.91368
780.91397
780.91441
780.91499
780.91566
780.91545
777.19885
777.19888
777.19856
777.19845
777.19849
777.19867
777.19897
777.19939
777.19984
777.19996
777.19888
777.19876
777.19846
777.19836
777.19841
777.1986
777.19892
777.19937
777.19993
777.20005
777.19856
777.19846
777.19817
777.19808
777.19814
777.19834
777.19868
777.19916
777.19978
777.19998
777.19845
777.19836
777.19808
777.198
777.19807
777.19828
777.19864
777.19915
777.19979
777.20001
777.19849
777.19841
777.19814
777.19807
777.19815
777.19838
777.19875
777.19927
777.19993
777.20016
777.19867
777.1986
777.19834
777.19828
777.19838
777.19862
777.199
777.19953
777.2002
777.20043
777.19897
777.19892
777.19868
777.19864
777.19875
777.199
777.19939
777.19993
777.2006
777.20084
777.19939
777.19937
777.19916
777.19915
777.19927
777.19953
777.19993
777.20047
777.20114
777.20137
777.19984
777.19993
777.19978
777.19979
777.19993
777.2002
777.2006
777.20114
777.2018
777.202
777.19996
777.20005
777.19998
777.20001
777.20016
777.20043
777.20084
777.20137
777.202
777.20185
773.57485
773.57483
773.57456
773.57449
773.57454
773.57471
773.575
773.57538
773.5758
773.57593
773.57483
773.57469
773.57445
773.57438
773.57444
773.57462
773.57492
773.57533
773.57584
773.57599
773.57456
773.57445
773.57422
773.57416
773.57423
773.57442
773.57473
773.57517
773.57573
773.57594
773.57449
773.57438
773.57416
773.57411
773.57418
773.57439
773.57471
773.57517
773.57575
773.57598
773.57454
773.57444
773.57423
773.57418
773.57427
773.57448
773.57482
773.57529
773.57589
773.57612
773.57471
773.57462
773.57442
773.57439
773.57448
773.57471
773.57506
773.57554
773.57614
773.57638
773.575
773.57492
773.57473
773.57471
773.57482
773.57506
773.57541
773.5759
773.5765
773.57674
773.57538
773.57533
773.57517
773.57517
773.57529
773.57554
773.5759
773.57639
773.57699
773.57723
773.5758
773.57584
773.57573
773.57575
773.57589
773.57614
773.5765
773.57699
773.57759
773.5778
773.57593
773.57599
773.57594
773.57598
773.57612
773.57638
773.57674
773.57723
773.5778
773.57771
770.03325
770.03316
770.03297
770.03292
770.03299
770.03315
770.03341
770.03375
770.03414
770.03429
770.03316
770.03302
770.03284
770.0328
770.03287
770.03304
770.03331
770.03368
770.03414
770.0343
770.03297
770.03284
770.03267
770.03264
770.03272
770.03289
770.03318
770.03357
770.03406
770.03428
770.03292
770.0328
770.03264
770.03262
770.0327
770.03289
770.03318
770.03359
770.0341
770.03433
770.03299
770.03287
770.03272
770.0327
770.03279
770.03299
770.03329
770.03371
770.03423
770.03446
770.03315
770.03304
770.03289
770.03289
770.03299
770.03319
770.03351
770.03393
770.03446
770.0347
770.03341
770.03331
770.03318
770.03318
770.03329
770.03351
770.03383
770.03425
770.03479
770.03502
770.03375
770.03368
770.03357
770.03359
770.03371
770.03393
770.03425
770.03468
770.03522
770.03545
770.03414
770.03414
770.03406
770.0341
770.03423
770.03446
770.03479
770.03522
770.03574
770.03596
770.03429
770.0343
770.03428
770.03433
770.03446
770.0347
770.03502
770.03545
770.03596
770.03593
766.56709
766.56694
766.56681
766.5668
766.56687
766.56703
766.56726
766.56756
766.56791
766.56807
766.56694
766.5668
766.56668
766.56667
766.56674
766.5669
766.56715
766.56747
766.56787
766.56805
766.56681
766.56668
766.56657
766.56657
766.56665
766.56681
766.56707
766.5674
766.56783
766.56805
766.5668
766.56667
766.56657
766.56657
766.56666
766.56683
766.56709
766.56744
766.56788
766.5681
766.56687
766.56674
766.56665
766.56666
766.56675
766.56693
766.5672
766.56756
766.568
766.56823
766.56703
766.5669
766.56681
766.56683
766.56693
766.56712
766.56739
766.56776
766.56821
766.56844
766.56726
766.56715
766.56707
766.56709
766.5672
766.56739
766.56767
766.56804
766.56849
766.56873
766.56756
766.56747
766.5674
766.56744
766.56756
766.56776
766.56804
766.56841
766.56886
766.5691
766.56791
766.56787
766.56783
766.56788
766.568
766.56821
766.56849
766.56886
766.56932
766.56954
766.56807
766.56805
766.56805
766.5681
766.56823
766.56844
766.56873
766.5691
766.56954
766.56956
763.16957
763.16938
763.16932
763.16933
763.16941
763.16956
763.16976
763.17002
763.17032
763.17049
763.16938
763.16923
763.16917
763.16919
763.16928
763.16942
763.16963
763.16991
763.17024
763.17044
763.16932
763.16917
763.16913
763.16915
763.16924
763.16939
763.16961
763.16989
763.17024
763.17046
763.16933
763.16919
763.16915
763.16918
763.16927
763.16943
763.16965
763.16994
763.1703
763.17052
763.16941
763.16928
763.16924
763.16927
763.16937
763.16953
763.16976
763.17005
763.17042
763.17064
763.16956
763.16942
763.16939
763.16943
763.16953
763.1697
763.16993
763.17023
763.1706
763.17082
763.16976
763.16963
763.16961
763.16965
763.16976
763.16993
763.17017
763.17047
763.17084
763.17107
763.17002
763.16991
763.16989
763.16994
763.17005
763.17023
763.17047
763.17077
763.17115
763.17137
763.17032
763.17024
763.17024
763.1703
763.17042
763.1706
763.17084
763.17115
763.17152
763.17174
763.17049
763.17044
763.17046
763.17052
763.17064
763.17082
763.17107
763.17137
763.17174
763.17181
759.83411
759.83387
759.83388
759.83392
759.83401
759.83414
759.83432
759.83453
759.83478
759.83496
759.83387
759.83372
759.83373
759.83378
759.83387
759.834
759.83418
759.8344
759.83467
759.83488
759.83388
759.83373
759.83375
759.8338
759.83389
759.83403
759.83421
759.83443
759.83471
759.83492
759.83392
759.83378
759.8338
759.83385
759.83395
759.83409
759.83427
759.8345
759.83478
759.83499
759.83401
759.83387
759.83389
759.83395
759.83405
759.83419
759.83437
759.83461
759.83489
759.8351
759.83414
759.834
759.83403
759.83409
759.83419
759.83433
759.83452
759.83476
759.83504
759.83525
759.83432
759.83418
759.83421
759.83427
759.83437
759.83452
759.83471
759.83495
759.83524
759.83545
759.83453
759.8344
759.83443
759.8345
759.83461
759.83476
759.83495
759.83519
759.83548
759.83569
759.83478
759.83467
759.83471
759.83478
759.83489
759.83504
759.83524
759.83548
759.83577
759.83599
759.83496
759.83488
759.83492
759.83499
759.8351
759.83525
759.83545
759.83569
759.83599
759.8361
756.55433
756.55404
756.55412
756.55419
756.55429
756.55441
756.55455
756.55472
756.55492
756.5551
756.55404
756.5539
756.55397
756.55405
756.55414
756.55426
756.5544
756.55457
756.55478
756.55498
756.55412
756.55397
756.55405
756.55413
756.55422
756.55434
756.55449
756.55465
756.55485
756.55504
756.55419
756.55405
756.55413
756.5542
756.5543
756.55442
756.55457
756.55473
756.55493
756.55512
756.55429
756.55414
756.55422
756.5543
756.5544
756.55452
756.55467
756.55483
756.55503
756.55522
756.55441
756.55426
756.55434
756.55442
756.55452
756.55465
756.55479
756.55495
756.55515
756.55535
756.55455
756.5544
756.55449
756.55457
756.55467
756.55479
756.55493
756.5551
756.5553
756.55549
756.55472
756.55457
756.55465
756.55473
756.55483
756.55495
756.5551
756.55527
756.55547
756.55567
756.55492
756.55478
756.55485
756.55493
756.55503
756.55515
756.5553
756.55547
756.55568
756.55589
756.5551
756.55498
756.55504
756.55512
756.55522
756.55535
756.55549
756.55567
756.55589
756.55604
753.32407
753.32375
753.32389
753.32399
753.32409
753.3242
753.32431
753.32443
753.32457
753.32475
753.32375
753.32361
753.32375
753.32385
753.32395
753.32405
753.32416
753.32427
753.32441
753.32461
753.32389
753.32375
753.32388
753.32399
753.32409
753.32419
753.32429
753.3244
753.32452
753.3247
753.32399
753.32385
753.32399
753.32409
753.32419
753.32429
753.32439
753.32449
753.32461
753.32478
753.32409
753.32395
753.32409
753.32419
753.32429
753.32439
753.32449
753.32458
753.3247
753.32487
753.3242
753.32405
753.32419
753.32429
753.32439
753.32449
753.32458
753.32468
753.32479
753.32496
753.32431
753.32416
753.32429
753.32439
753.32449
753.32458
753.32468
753.32477
753.32488
753.32506
753.32443
753.32427
753.3244
753.32449
753.32458
753.32468
753.32477
753.32487
753.32499
753.32517
753.32457
753.32441
753.32452
753.32461
753.3247
753.32479
753.32488
753.32499
753.32511
753.3253
753.32475
753.32461
753.3247
753.32478
753.32487
753.32496
753.32506
753.32517
753.3253
753.32549
750.13745
750.13709
750.1373
750.13743
750.13754
750.13763
750.1377
750.13777
750.13786
750.13803
750.13709
750.13696
750.13716
750.13729
750.13739
750.13748
750.13755
750.1376
750.13767
750.13787
750.1373
750.13716
750.13736
750.13749
750.13759
750.13767
750.13773
750.13778
750.13781
750.13798
750.13743
750.13729
750.13749
750.13761
750.13772
750.13779
750.13785
750.13788
750.13791
750.13807
750.13754
750.13739
750.13759
750.13772
750.13781
750.13789
750.13794
750.13797
750.13799
750.13814
750.13763
750.13748
750.13767
750.13779
750.13789
750.13796
750.13801
750.13803
750.13805
750.1382
750.1377
750.13755
750.13773
750.13785
750.13794
750.13801
750.13805
750.13808
750.1381
750.13825
750.13777
750.1376
750.13778
750.13788
750.13797
750.13803
750.13808
750.1381
750.13813
750.13828
750.13786
750.13767
750.13781
750.13791
750.13799
750.13805
750.1381
750.13813
750.13816
750.13834
750.13803
750.13787
750.13798
750.13807
750.13814
750.1382
750.13825
750.13828
750.13834
750.13856
746.98883
746.98844
746.98871
746.98887
746.98898
746.98906
746.98909
746.98911
746.98914
746.98931
746.98844
746.98832
746.98858
746.98874
746.98885
746.98891
746.98894
746.98894
746.98893
746.98913
746.98871
746.98858
746.98884
746.98899
746.9891
746.98916
746.98918
746.98916
746.98911
746.98925
746.98887
746.98874
746.98899
746.98914
746.98924
746.9893
746.98931
746.98928
746.98922
746.98935
746.98898
746.98885
746.9891
746.98924
746.98934
746.98939
746.98939
746.98935
746.98928
746.98941
746.98906
746.98891
746.98916
746.9893
746.98939
746.98943
746.98943
746.98939
746.98931
746.98944
746.98909
746.98894
746.98918
746.98931
746.98939
746.98943
746.98943
746.98938
746.98931
746.98943
746.98911
746.98894
746.98916
746.98928
746.98935
746.98939
746.98938
746.98933
746.98927
746.9894
746.98914
746.98893
746.98911
746.98922
746.98928
746.98931
746.98931
746.98927
746.98921
746.98937
746.98931
746.98913
746.98925
746.98935
746.98941
746.98944
746.98943
746.9894
746.98937
746.98962
743.87286
743.87246
743.87279
743.87297
743.87309
743.87314
743.87315
743.87311
743.87309
743.87325
743.87246
743.87235
743.87267
743.87285
743.87296
743.87301
743.873
743.87293
743.87285
743.87304
743.87279
743.87267
743.87298
743.87316
743.87326
743.87331
743.87328
743.8732
743.87307
743.87319
743.87297
743.87285
743.87316
743.87333
743.87343
743.87346
743.87343
743.87333
743.87318
743.87329
743.87309
743.87296
743.87326
743.87343
743.87352
743.87355
743.8735
743.87339
743.87324
743.87333
743.87314
743.87301
743.87331
743.87346
743.87355
743.87356
743.87351
743.8734
743.87323
743.87333
743.87315
743.873
743.87328
743.87343
743.8735
743.87351
743.87346
743.87334
743.87317
743.87327
743.87311
743.87293
743.8732
743.87333
743.87339
743.8734
743.87334
743.87322
743.87306
743.87316
743.87309
743.87285
743.87307
743.87318
743.87324
743.87323
743.87317
743.87306
743.87291
743.87305
743.87325
743.87304
743.87319
743.87329
743.87333
743.87333
743.87327
743.87316
743.87305
743.87332
740.78451
740.78408
740.78448
740.78469
740.78481
740.78484
740.78481
740.78472
740.78463
740.78478
740.78408
740.78399
740.78437
740.78457
740.78468
740.78471
740.78466
740.78454
740.78439
740.78456
740.78448
740.78437
740.78474
740.78493
740.78504
740.78506
740.78499
740.78484
740.78463
740.78473
740.78469
740.78457
740.78493
740.78513
740.78523
740.78523
740.78515
740.78499
740.78475
740.78483
740.78481
740.78468
740.78504
740.78523
740.78531
740.78531
740.78522
740.78504
740.78479
740.78486
740.78484
740.78471
740.78506
740.78523
740.78531
740.7853
740.7852
740.78501
740.78476
740.78482
740.78481
740.78466
740.78499
740.78515
740.78522
740.7852
740.78509
740.7849
740.78465
740.78471
740.78472
740.78454
740.78484
740.78499
740.78504
740.78501
740.7849
740.78471
740.78446
740.78453
740.78463
740.78439
740.78463
740.78475
740.78479
740.78476
740.78465
740.78446
740.78422
740.78433
740.78478
740.78456
740.78473
740.78483
740.78486
740.78482
740.78471
740.78453
740.78433
740.78462
737.71903
737.71859
737.71904
737.71927
737.71939
737.7194
737.71933
737.71919
737.71905
737.71918
737.71859
737.71851
737.71894
737.71917
737.71928
737.71929
737.7192
737.71901
737.71879
737.71894
737.71904
737.71894
737.71936
737.71958
737.71968
737.71968
737.71957
737.71936
737.71906
737.71913
737.71927
737.71917
737.71958
737.71979
737.71988
737.71987
737.71974
737.71951
737.71919
737.71923
737.71939
737.71928
737.71968
737.71988
737.71997
737.71994
737.7198
737.71955
737.71922
737.71925
737.7194
737.71929
737.71968
737.71987
737.71994
737.7199
737.71975
737.71949
737.71915
737.71918
737.71933
737.7192
737.71957
737.71974
737.7198
737.71975
737.71959
737.71933
737.71898
737.71901
737.71919
737.71901
737.71936
737.71951
737.71955
737.71949
737.71933
737.71906
737.71872
737.71876
737.71905
737.71879
737.71906
737.71919
737.71922
737.71915
737.71898
737.71872
737.7184
737.71848
737.71918
737.71894
737.71913
737.71923
737.71925
737.71918
737.71901
737.71876
737.71848
737.71878
734.67199
734.67154
734.67205
734.6723
734.67241
734.67241
734.6723
734.6721
734.67191
734.67203
734.67154
734.67148
734.67196
734.67221
734.67232
734.6723
734.67217
734.67193
734.67163
734.67177
734.67205
734.67196
734.67243
734.67267
734.67277
734.67274
734.67259
734.67231
734.67194
734.67198
734.6723
734.67221
734.67267
734.67289
734.67298
734.67294
734.67277
734.67247
734.67207
734.67208
734.67241
734.67232
734.67277
734.67298
734.67306
734.673
734.67282
734.6725
734.67208
734.67208
734.67241
734.6723
734.67274
734.67294
734.673
734.67294
734.67274
734.67241
734.67198
734.67197
734.6723
734.67217
734.67259
734.67277
734.67282
734.67274
734.67253
734.67219
734.67176
734.67175
734.6721
734.67193
734.67231
734.67247
734.6725
734.67241
734.67219
734.67186
734.67143
734.67143
734.67191
734.67163
734.67194
734.67207
734.67208
734.67198
734.67176
734.67143
734.67102
734.67106
734.67203
734.67177
734.67198
734.67208
734.67208
734.67197
734.67175
734.67143
734.67106
734.67138
731.6393
731.63884
731.6394
731.63967
731.63978
731.63976
731.63961
731.63936
731.63911
731.63921
731.63884
731.63881
731.63933
731.63959
731.6397
731.63967
731.63949
731.6392
731.63882
731.63894
731.6394
731.63933
731.63985
731.6401
731.64019
731.64014
731.63995
731.63961
731.63916
731.63916
731.63967
731.63959
731.6401
731.64034
731.64042
731.64036
731.64014
731.63977
731.63929
731.63926
731.63978
731.6397
731.64019
731.64042
731.64049
731.64041
731.64017
731.63979
731.63928
731.63925
731.63976
731.63967
731.64014
731.64036
731.64041
731.64031
731.64006
731.63966
731.63915
731.63911
731.63961
731.63949
731.63995
731.64014
731.64017
731.64006
731.6398
731.6394
731.63888
731.63884
731.63936
731.6392
731.63961
731.63977
731.63979
731.63966
731.6394
731.63899
731.63848
731.63844
731.63911
731.63882
731.63916
731.63929
731.63928
731.63915
731.63888
731.63848
731.63798
731.638
731.63921
731.63894
731.63916
731.63926
731.63925
731.63911
731.63884
731.63844
731.638
731.63832
728.6172
728.61673
728.61734
728.61762
728.61773
728.61769
728.6175
728.6172
728.61688
728.61697
728.61673
728.61672
728.61729
728.61756
728.61766
728.61761
728.61739
728.61704
728.6166
728.61669
728.61734
728.61729
728.61784
728.61811
728.6182
728.61812
728.61788
728.61748
728.61695
728.61692
728.61762
728.61756
728.61811
728.61836
728.61843
728.61834
728.61808
728.61765
728.61708
728.61702
728.61773
728.61766
728.6182
728.61843
728.61849
728.61838
728.6181
728.61765
728.61706
728.61699
728.61769
728.61761
728.61812
728.61834
728.61838
728.61825
728.61796
728.61749
728.61689
728.61681
728.6175
728.61739
728.61788
728.61808
728.6181
728.61796
728.61765
728.61717
728.61657
728.61649
728.6172
728.61704
728.61748
728.61765
728.61765
728.61749
728.61717
728.6167
728.6161
728.61603
728.61688
728.6166
728.61695
728.61708
728.61706
728.61689
728.61657
728.6161
728.61552
728.6155
728.61697
728.61669
728.61692
728.61702
728.61699
728.61681
728.61649
728.61603
728.6155
728.61583
725.60225
725.60178
725.60243
725.60273
725.60283
725.60276
725.60253
725.60218
725.60181
725.60187
725.60178
725.60179
725.60239
725.60268
725.60278
725.60269
725.60244
725.60203
725.60152
725.60159
725.60243
725.60239
725.60298
725.60326
725.60334
725.60324
725.60296
725.6025
725.60189
725.60183
725.60273
725.60268
725.60326
725.60352
725.60359
725.60347
725.60316
725.60267
725.60202
725.60193