/*--------------------------------*- C++ -*----------------------------------*\
| =========                 |                                                 |
| \\      /  F ield         | OpenFOAM: The Open Source CFD Toolbox           |
|  \\    /   O peration     | Version:  v2106                                 |
|   \\  /    A nd           | Website:  www.openfoam.com                      |
|    \\/     M anipulation  |                                                 |
\*---------------------------------------------------------------------------*/
FoamFile
{
    version     2.0;
    format      ascii;
    arch        "LSB;label=32;scalar=64";
    class       volScalarField;
    location    "57.5";
    object      laplacianT;
}
// * * * * * * * * * * * * * * * * * * * * * * * * * * * * * * * * * * * * * //

dimensions      [0 -2 0 1 0 0 0];

internalField   nonuniform List<scalar> 
4000
(
40646.068
40645.853
40645.973
40645.92
40645.903
40645.899
40645.904
40645.915
40645.922
40645.917
40645.853
40645.883
40645.91
40645.863
40645.848
40645.845
40645.851
40645.864
40645.872
40645.862
40645.973
40645.91
40645.95
40645.905
40645.89
40645.889
40645.898
40645.915
40645.929
40645.908
40645.92
40645.863
40645.905
40645.861
40645.847
40645.847
40645.858
40645.878
40645.897
40645.884
40645.903
40645.848
40645.89
40645.847
40645.835
40645.836
40645.849
40645.87
40645.891
40645.879
40645.899
40645.845
40645.889
40645.847
40645.836
40645.839
40645.853
40645.875
40645.897
40645.885
40645.904
40645.851
40645.898
40645.858
40645.849
40645.853
40645.868
40645.891
40645.913
40645.902
40645.915
40645.864
40645.915
40645.878
40645.87
40645.875
40645.891
40645.915
40645.936
40645.924
40645.922
40645.872
40645.929
40645.897
40645.891
40645.897
40645.913
40645.936
40645.957
40645.943
40645.917
40645.862
40645.908
40645.884
40645.879
40645.885
40645.902
40645.924
40645.943
40645.925
-526.33518
-527.36955
-526.75568
-526.81408
-526.81581
-526.81572
-526.81624
-526.81811
-526.82501
-526.82141
-527.36955
-527.50427
-527.16044
-527.2052
-527.20626
-527.20653
-527.20906
-527.22065
-527.26664
-527.16466
-526.75568
-527.16044
-526.79301
-526.83559
-526.83645
-526.83638
-526.83754
-526.84659
-526.90762
-526.92311
-526.81408
-527.2052
-526.83559
-526.87796
-526.87889
-526.87895
-526.88009
-526.8872
-526.9398
-526.93846
-526.81581
-527.20626
-526.83645
-526.87889
-526.87987
-526.88003
-526.88146
-526.88923
-526.94263
-526.9407
-526.81572
-527.20653
-526.83638
-526.87895
-526.88003
-526.88023
-526.88169
-526.88953
-526.94313
-526.94137
-526.81624
-527.20906
-526.83754
-526.88009
-526.88146
-526.88169
-526.8832
-526.89109
-526.94478
-526.94318
-526.81811
-527.22065
-526.84659
-526.8872
-526.88923
-526.88953
-526.89109
-526.89907
-526.95302
-526.95202
-526.82501
-527.26664
-526.90762
-526.9398
-526.94263
-526.94313
-526.94478
-526.95302
-527.00791
-527.00865
-526.82141
-527.16466
-526.92311
-526.93846
-526.9407
-526.94137
-526.94318
-526.95202
-527.00865
-526.99777
-508.93997
-510.25397
-509.41997
-509.49838
-509.50163
-509.50192
-509.50405
-509.51327
-509.54968
-509.38446
-510.25397
-510.38822
-509.90983
-509.97116
-509.97337
-509.97388
-509.97854
-510.00649
-510.15513
-509.87161
-509.41997
-509.90983
-509.40298
-509.46139
-509.46332
-509.46331
-509.46523
-509.48508
-509.6515
-509.54734
-509.49838
-509.97116
-509.46139
-509.51948
-509.5215
-509.52175
-509.52384
-509.54078
-509.69417
-509.56627
-509.50163
-509.97337
-509.46332
-509.5215
-509.52357
-509.52395
-509.52647
-509.54435
-509.69871
-509.5694
-509.50192
-509.97388
-509.46331
-509.52175
-509.52395
-509.52436
-509.52693
-509.54493
-509.69962
-509.57048
-509.50405
-509.97854
-509.46523
-509.52384
-509.52647
-509.52693
-509.52956
-509.54767
-509.7026
-509.57397
-509.51327
-510.00649
-509.48508
-509.54078
-509.54435
-509.54493
-509.54767
-509.56608
-509.72196
-509.59576
-509.54968
-510.15513
-509.6515
-509.69417
-509.69871
-509.69962
-509.7026
-509.72196
-509.88136
-509.76442
-509.38446
-509.87161
-509.54734
-509.56627
-509.5694
-509.57048
-509.57397
-509.59576
-509.76442
-509.48204
-492.12608
-493.74047
-492.69932
-492.79605
-492.80074
-492.80128
-492.80477
-492.82349
-492.91898
-492.65613
-493.74047
-493.91467
-493.3071
-493.38372
-493.38703
-493.38765
-493.3934
-493.43499
-493.70618
-493.26754
-492.69932
-493.3071
-492.66659
-492.73959
-492.74258
-492.74261
-492.74478
-492.77385
-493.06855
-492.86861
-492.79605
-493.38372
-492.73959
-492.81217
-492.81524
-492.81564
-492.81815
-492.84321
-493.12059
-492.89102
-492.80074
-493.38703
-492.74258
-492.81524
-492.81838
-492.81892
-492.82201
-492.84825
-493.12668
-492.89499
-492.80128
-493.38765
-492.74261
-492.81564
-492.81892
-492.8195
-492.82265
-492.84906
-493.12793
-492.8964
-492.80477
-493.3934
-492.74478
-492.81815
-492.82201
-492.82265
-492.82587
-492.85243
-493.13172
-492.90116
-492.82349
-493.43499
-492.77385
-492.84321
-492.84825
-492.84906
-492.85243
-492.87954
-493.16083
-492.93651
-492.91898
-493.70618
-493.06855
-493.12059
-493.12668
-493.12793
-493.13172
-493.16083
-493.45111
-493.26199
-492.65613
-493.26754
-492.86861
-492.89102
-492.89499
-492.8964
-492.90116
-492.93651
-493.26199
-492.66635
-476.03621
-477.93473
-476.69596
-476.81015
-476.81622
-476.81696
-476.82128
-476.84702
-476.99821
-476.64805
-477.93473
-478.14574
-477.41476
-477.50594
-477.51035
-477.51115
-477.51784
-477.57082
-477.9611
-477.37505
-476.69596
-477.41476
-476.64658
-476.73348
-476.7375
-476.73763
-476.73992
-476.77611
-477.19642
-476.90557
-476.81015
-477.50594
-476.73348
-476.81988
-476.82398
-476.82455
-476.82735
-476.8584
-477.25735
-476.93131
-476.81622
-477.51035
-476.7375
-476.82398
-476.82816
-476.82891
-476.83241
-476.86486
-477.26493
-476.93612
-476.81696
-477.51115
-476.73763
-476.82455
-476.82891
-476.82969
-476.83326
-476.86593
-477.26652
-476.93785
-476.82128
-477.51784
-476.73992
-476.82735
-476.83241
-476.83326
-476.83692
-476.86976
-477.27087
-476.94348
-476.84702
-477.57082
-476.77611
-476.8584
-476.86486
-476.86593
-476.86976
-476.90328
-477.3072
-476.98975
-476.99821
-477.9611
-477.19642
-477.25735
-477.26493
-477.26652
-477.27087
-477.3072
-477.72543
-477.47786
-476.64805
-477.37505
-476.90557
-476.93131
-476.93612
-476.93785
-476.94348
-476.98975
-477.47786
-476.57136
-460.68373
-462.84466
-461.41946
-461.55029
-461.55771
-461.5587
-461.56392
-461.59628
-461.80094
-461.36983
-462.84466
-463.08602
-462.23871
-462.34378
-462.34926
-462.35027
-462.35797
-462.42175
-462.92722
-462.20403
-461.41946
-462.23871
-461.35018
-461.45033
-461.45535
-461.45561
-461.45811
-461.50088
-462.0428
-461.66827
-461.55029
-462.34378
-461.45033
-461.54989
-461.555
-461.55579
-461.55895
-461.59548
-462.1122
-461.69718
-461.55771
-462.34926
-461.45535
-461.555
-461.5602
-461.56118
-461.56518
-461.60331
-462.12123
-461.70282
-461.5587
-462.35027
-461.45561
-461.55579
-461.56118
-461.56219
-461.56629
-461.60466
-462.12319
-461.70489
-461.56392
-462.35797
-461.45811
-461.55895
-461.56518
-461.56629
-461.57047
-461.60904
-462.12817
-461.71138
-461.59628
-462.42175
-461.50088
-461.59548
-461.60331
-461.60466
-461.60904
-461.64841
-462.17097
-461.76734
-461.80094
-462.92722
-462.0428
-462.1122
-462.12123
-462.12319
-462.12817
-462.17097
-462.71248
-462.41514
-461.36983
-462.20403
-461.66827
-461.69718
-461.70282
-461.70489
-461.71138
-461.76734
-462.41514
-461.21046
-446.07756
-448.47817
-446.87883
-447.02539
-447.0341
-447.03535
-447.04146
-447.08017
-447.33628
-446.83062
-448.47817
-448.74368
-447.78782
-447.90603
-447.91253
-447.91376
-447.92243
-447.99646
-448.61248
-447.76336
-446.87883
-447.78782
-446.78695
-446.89965
-446.90563
-446.90602
-446.90874
-446.95767
-447.61618
-447.16592
-447.02539
-447.90603
-446.89965
-447.01166
-447.01775
-447.01874
-447.02227
-447.0639
-447.69358
-447.19784
-447.0341
-447.91253
-446.90563
-447.01775
-447.02392
-447.02514
-447.02964
-447.07305
-447.704
-447.20426
-447.03535
-447.91376
-446.90602
-447.01874
-447.02514
-447.02638
-447.03099
-447.07469
-447.70633
-447.20668
-447.04146
-447.92243
-446.90874
-447.02227
-447.02964
-447.03099
-447.0357
-447.07961
-447.71194
-447.21403
-447.08017
-447.99646
-446.95767
-447.0639
-447.07305
-447.07469
-447.07961
-447.12445
-447.7608
-447.27897
-447.33628
-448.61248
-447.61618
-447.69358
-447.704
-447.70633
-447.71194
-447.7608
-448.42035
-448.08093
-446.83062
-447.76336
-447.16592
-447.19784
-447.20426
-447.20668
-447.21403
-447.27897
-448.08093
-446.59425
-432.22541
-434.84207
-433.0818
-433.24308
-433.25303
-433.25453
-433.2615
-433.30625
-433.61153
-433.03791
-434.84207
-435.12578
-434.06969
-434.20021
-434.20769
-434.20913
-434.21872
-434.30239
-435.0236
-434.06013
-433.0818
-434.06969
-432.9651
-433.08954
-433.09645
-433.09698
-433.09989
-433.15455
-433.92384
-433.40597
-433.24308
-434.20021
-433.08954
-433.21322
-433.22024
-433.22145
-433.22533
-433.27167
-434.00873
-433.44068
-433.25303
-434.20769
-433.09645
-433.22024
-433.22735
-433.2288
-433.23377
-433.28207
-434.02046
-433.44785
-433.25453
-434.20913
-433.09698
-433.22145
-433.2288
-433.23027
-433.23537
-433.28399
-434.02315
-433.45061
-433.2615
-434.21872
-433.09989
-433.22533
-433.23377
-433.23537
-433.24058
-433.28944
-434.02937
-433.45879
-433.30625
-434.30239
-433.15455
-433.27167
-433.28207
-433.28399
-433.28944
-433.33934
-434.08387
-433.53211
-433.61153
-435.0236
-433.92384
-434.00873
-434.02046
-434.02315
-434.02937
-434.08387
-434.85559
-434.48137
-433.03791
-434.06013
-433.40597
-433.44068
-433.44785
-433.45061
-433.45879
-433.53211
-434.48137
-432.73061
-419.13224
-421.94071
-420.0335
-420.20841
-420.21953
-420.22128
-420.22905
-420.2795
-420.63139
-419.99656
-421.94071
-422.23693
-421.08941
-421.23134
-421.23975
-421.24139
-421.25183
-421.34448
-422.16491
-421.09894
-420.0335
-421.08941
-419.89019
-420.02553
-420.03331
-420.03397
-420.03706
-420.09698
-420.97061
-420.39325
-420.20841
-421.23134
-420.02553
-420.16001
-420.16791
-420.16933
-420.17354
-420.22419
-421.06242
-420.43054
-420.21953
-421.23975
-420.03331
-420.16791
-420.17591
-420.17758
-420.18301
-420.23579
-421.0754
-420.43843
-420.22128
-421.24139
-420.03397
-420.16933
-420.17758
-420.17928
-420.18484
-420.23797
-421.07842
-420.44151
-420.22905
-421.25183
-420.03706
-420.17354
-420.18301
-420.18484
-420.19051
-420.2439
-421.08521
-420.45046
-420.2795
-421.34448
-420.09698
-420.22419
-420.23579
-420.23797
-420.2439
-420.29845
-421.1449
-420.53156
-420.63139
-422.16491
-420.97061
-421.06242
-421.0754
-421.07842
-421.08521
-421.1449
-422.0223
-421.62031
-419.99656
-421.09894
-420.39325
-420.43054
-420.43843
-420.44151
-420.45046
-420.53156
-421.62031
-419.6246
-406.80024
-409.77577
-407.73634
-407.9237
-407.93591
-407.9379
-407.94642
-408.00217
-408.39785
-407.70871
-409.77577
-410.07918
-408.84942
-409.00178
-409.01106
-409.01289
-409.0241
-409.12501
-410.03814
-408.88169
-407.73634
-408.84942
-407.5651
-407.71039
-407.71899
-407.71979
-407.72304
-407.78773
-408.75865
-408.12993
-407.9237
-409.00178
-407.71039
-407.85476
-407.86349
-407.86511
-407.86961
-407.92417
-408.85678
-408.16956
-407.93591
-409.01106
-407.71899
-407.86349
-407.87231
-407.8742
-407.88004
-407.93687
-408.87091
-408.1781
-407.9379
-409.01289
-407.71979
-407.86511
-407.8742
-407.87612
-407.88209
-407.93931
-408.87427
-408.1815
-407.94642
-409.0241
-407.72304
-407.86961
-407.88004
-407.88209
-407.8882
-407.94569
-408.88157
-408.19116
-408.00217
-409.12501
-407.78773
-407.92417
-407.93687
-407.93931
-407.94569
-408.00443
-408.94598
-408.27938
-408.39785
-410.03814
-408.75865
-408.85678
-408.87091
-408.87427
-408.88157
-408.94598
-409.92198
-409.49899
-407.70871
-408.88169
-408.12993
-408.16956
-408.1781
-408.1815
-408.19116
-408.27938
-409.49899
-407.27848
-395.22874
-398.34631
-396.18996
-396.3885
-396.40171
-396.40393
-396.41315
-396.47379
-396.91018
-396.17371
-398.34631
-398.65193
-397.34946
-397.51122
-397.52131
-397.52333
-397.53523
-397.64364
-398.64241
-397.40758
-396.18996
-397.34946
-395.98992
-396.14418
-396.15354
-396.15447
-396.15786
-396.2268
-397.28746
-396.61538
-396.3885
-397.51122
-396.14418
-396.29745
-396.30695
-396.30876
-396.31353
-396.37155
-397.39126
-396.6571
-396.40171
-397.52131
-396.15354
-396.30695
-396.31654
-396.31864
-396.32484
-396.38527
-397.40646
-396.66625
-396.40393
-397.52333
-396.15447
-396.30876
-396.31864
-396.32075
-396.32711
-396.38796
-397.41011
-396.66993
-396.41315
-397.53523
-396.15786
-396.31353
-396.32484
-396.32711
-396.3336
-396.39474
-397.41789
-396.68024
-396.47379
-397.64364
-396.2268
-396.37155
-396.38527
-396.38796
-396.39474
-396.45723
-397.4865
-396.77492
-396.91018
-398.64241
-397.28746
-397.39126
-397.40646
-397.41011
-397.41789
-397.4865
-398.55352
-398.116
-396.17371
-397.40758
-396.61538
-396.6571
-396.66625
-396.66993
-396.68024
-396.77492
-398.116
-395.69164
-384.41427
-387.64875
-385.39123
-385.59964
-385.61376
-385.61619
-385.62605
-385.69113
-386.16494
-385.38815
-387.64875
-387.95201
-386.58662
-386.75669
-386.76751
-386.7697
-386.78221
-386.89733
-387.97424
-386.67313
-385.39123
-386.58662
-385.16201
-385.3242
-385.33426
-385.33531
-385.3388
-385.41148
-386.55386
-385.84627
-385.59964
-386.75669
-385.3242
-385.48533
-385.49553
-385.49753
-385.50254
-385.56358
-386.66264
-385.88982
-385.61376
-386.76751
-385.33426
-385.49553
-385.50583
-385.50812
-385.51465
-385.57823
-386.6788
-385.89951
-385.61619
-386.7697
-385.33531
-385.49753
-385.50812
-385.51043
-385.51712
-385.58113
-386.68274
-385.90346
-385.62605
-386.78221
-385.3388
-385.50254
-385.51465
-385.51712
-385.52395
-385.58828
-386.69094
-385.91434
-385.69113
-386.89733
-385.41148
-385.56358
-385.57823
-385.58113
-385.58828
-385.65403
-386.76324
-386.01476
-386.16494
-387.97424
-386.55386
-386.66264
-386.6788
-386.68274
-386.69094
-386.76324
-387.91319
-387.46729
-385.38815
-386.67313
-385.84627
-385.88982
-385.89951
-385.90346
-385.91434
-386.01476
-387.46729
-384.86069
-374.35055
-377.67689
-375.33433
-375.55122
-375.56616
-375.56879
-375.57921
-375.64828
-376.156
-375.34588
-377.67689
-377.97365
-376.55533
-376.73257
-376.74405
-376.7464
-376.75943
-376.88042
-378.02759
-376.67216
-375.33433
-376.55533
-375.076
-375.24503
-375.25572
-375.2569
-375.26047
-375.33634
-376.55201
-375.81655
-375.55122
-376.73257
-375.24503
-375.41296
-375.42379
-375.42595
-375.43117
-375.49477
-376.66506
-375.86164
-375.56616
-376.74405
-375.25572
-375.42379
-375.43471
-375.43718
-375.444
-375.51024
-376.68208
-375.87182
-375.56879
-376.7464
-375.2569
-375.42595
-375.43718
-375.43967
-375.44666
-375.51336
-376.68628
-375.87601
-375.57921
-376.75943
-375.26047
-375.43117
-375.444
-375.44666
-375.45378
-375.52081
-376.69484
-375.88739
-375.64828
-376.88042
-375.33634
-375.49477
-375.51024
-375.51336
-375.52081
-375.58934
-376.7703
-375.99283
-376.156
-378.02759
-376.55201
-376.66506
-376.68208
-376.68628
-376.69484
-376.7703
-377.9947
-377.54619
-375.34588
-376.67216
-375.81655
-375.86164
-375.87182
-375.87601
-375.88739
-375.99283
-377.54619
-374.77943
-365.02861
-368.42198
-366.01074
-366.2347
-366.25036
-366.25317
-366.26408
-366.33663
-366.87461
-366.03808
-368.42198
-368.70855
-367.2474
-367.43064
-367.4427
-367.44519
-367.45866
-367.58467
-368.79386
-367.39593
-366.01074
-367.2474
-365.72384
-365.89859
-365.90984
-365.91113
-365.91476
-365.99327
-367.27347
-366.51752
-366.2347
-367.43064
-365.89859
-366.0722
-366.08359
-366.08591
-366.09129
-366.15699
-367.39006
-366.56387
-366.25036
-367.4427
-365.90984
-366.08359
-366.09507
-366.09771
-366.10476
-366.17319
-367.40783
-366.57447
-366.25317
-367.44519
-365.91113
-366.08591
-366.09771
-366.10036
-366.10759
-366.1765
-367.41226
-366.57887
-366.26408
-367.45866
-365.91476
-366.09129
-366.10476
-366.10759
-366.11496
-366.18421
-367.42113
-366.59068
-366.33663
-367.58467
-365.99327
-366.15699
-366.17319
-366.1765
-366.18421
-366.25502
-367.49919
-366.70037
-366.87461
-368.79386
-367.27347
-367.39006
-367.40783
-367.41226
-367.42113
-367.49919
-368.78921
-368.34344
-366.03808
-367.39593
-366.51752
-366.56387
-366.57447
-366.57887
-366.59068
-366.70037
-368.34344
-365.43895
-356.43682
-359.87279
-357.40936
-357.63892
-357.65519
-357.65816
-357.6695
-357.74504
-358.30946
-357.45333
-359.87279
-360.14594
-358.6521
-358.84014
-358.8527
-358.85532
-358.86913
-358.99928
-360.26199
-358.83309
-357.40936
-358.6521
-357.09486
-357.27419
-357.28591
-357.28731
-357.29097
-357.37157
-358.70727
-357.93789
-357.63892
-358.84014
-357.27419
-357.45234
-357.46421
-357.46668
-357.47219
-357.53952
-358.82664
-357.9852
-357.65519
-358.8527
-357.28591
-357.46421
-357.47617
-357.47896
-357.4862
-357.55634
-358.84504
-357.99615
-357.65816
-358.85532
-357.28731
-357.46668
-357.47896
-357.48175
-357.48918
-357.55981
-358.84967
-358.00073
-357.6695
-358.86913
-357.29097
-357.47219
-357.4862
-357.48918
-357.49676
-357.56773
-358.85879
-358.01289
-357.74504
-358.99928
-357.37157
-357.53952
-357.55634
-357.55981
-357.56773
-357.64032
-358.93892
-358.12608
-358.30946
-360.26199
-358.70727
-358.82664
-358.84504
-358.84967
-358.85879
-358.93892
-360.28545
-359.84732
-357.45333
-358.83309
-357.93789
-357.9852
-357.99615
-358.00073
-358.01289
-358.12608
-359.84732
-356.82768
-348.56097
-352.01563
-349.51655
-349.75023
-349.767
-349.77012
-349.78179
-349.8598
-350.44675
-349.57767
-352.01563
-352.27261
-350.75624
-350.94785
-350.96083
-350.96356
-350.97761
-351.11103
-352.41854
-350.96988
-349.51655
-350.75624
-349.17585
-349.3586
-349.37073
-349.37222
-349.37589
-349.45801
-350.83996
-350.06386
-349.75023
-350.94785
-349.3586
-349.54013
-349.5524
-349.555
-349.56061
-349.6291
-350.96135
-350.11184
-349.767
-350.96083
-349.37073
-349.5524
-349.56476
-349.56768
-349.57507
-349.64642
-350.98027
-350.12307
-349.77012
-350.96356
-349.37222
-349.555
-349.56768
-349.5706
-349.57818
-349.65004
-350.98507
-350.12781
-349.78179
-350.97761
-349.37589
-349.56061
-349.57507
-349.57818
-349.58591
-349.65812
-350.99437
-350.14023
-349.8598
-351.11103
-349.45801
-349.6291
-349.64642
-349.65004
-349.65812
-349.73199
-351.07601
-350.25613
-350.44675
-352.41854
-350.83996
-350.96135
-350.98027
-350.98507
-350.99437
-351.07601
-352.46973
-352.04367
-349.57767
-350.96988
-350.06386
-350.11184
-350.12307
-350.12781
-350.14023
-350.25613
-352.04367
-348.93149
-341.38441
-344.83455
-342.31625
-342.55254
-342.56971
-342.57295
-342.58489
-342.66484
-343.2703
-342.39472
-344.83455
-345.07308
-343.54423
-343.73819
-343.75149
-343.75432
-343.76853
-343.90431
-345.24774
-343.79014
-342.31625
-343.54423
-341.95118
-342.13616
-342.1486
-342.15019
-342.15384
-342.23692
-343.65573
-342.87924
-342.55254
-343.73819
-342.13616
-342.3199
-342.33249
-342.33519
-342.34087
-342.41005
-343.77837
-342.92758
-342.56971
-343.75149
-342.1486
-342.33249
-342.34517
-342.3482
-342.35568
-342.42777
-343.79767
-342.93902
-342.57295
-343.75432
-342.15019
-342.33519
-342.3482
-342.35122
-342.3589
-342.4315
-343.80262
-342.94388
-342.58489
-343.76853
-342.15384
-342.34087
-342.35568
-342.3589
-342.36673
-342.43969
-343.81205
-342.95649
-342.66484
-343.90431
-342.23692
-342.41005
-342.42777
-342.4315
-342.43969
-342.51434
-343.89464
-343.07432
-343.2703
-345.24774
-343.65573
-343.77837
-343.79767
-343.80262
-343.81205
-343.89464
-345.32607
-344.91604
-342.39472
-343.79014
-342.87924
-342.92758
-342.93902
-342.94388
-342.95649
-343.07432
-344.91604
-341.73378
-334.88815
-338.31133
-335.79009
-336.02749
-336.04494
-336.04827
-336.06041
-336.14177
-336.76167
-335.88581
-338.31133
-338.52962
-336.99823
-337.19328
-337.20684
-337.20973
-337.22401
-337.36125
-338.73165
-337.27546
-335.79009
-336.99823
-335.40283
-335.58886
-335.60155
-335.60321
-335.60682
-335.69033
-337.13652
-336.36553
-336.02749
-337.19328
-335.58886
-335.77364
-335.78647
-335.78927
-335.79496
-335.86438
-337.25962
-336.41393
-336.04494
-337.20684
-335.60155
-335.78647
-335.79938
-335.80251
-335.81004
-335.88239
-337.27919
-336.4255
-336.04827
-337.20973
-335.60321
-335.78927
-335.80251
-335.80562
-335.81335
-335.88622
-337.28425
-336.43046
-336.06041
-337.22401
-335.60682
-335.79496
-335.81004
-335.81335
-335.82124
-335.89446
-337.29374
-336.44318
-336.14177
-337.36125
-335.69033
-335.86438
-335.88239
-335.88622
-335.89446
-335.96939
-337.37675
-336.56215
-336.76167
-338.73165
-337.13652
-337.25962
-337.27919
-337.28425
-337.29374
-337.37675
-338.83632
-338.44575
-335.88581
-337.27546
-336.36553
-336.41393
-336.4255
-336.43046
-336.44318
-336.56215
-338.44575
-335.21563
-329.05099
-332.4257
-329.9175
-330.1545
-330.17213
-330.17554
-330.18778
-330.27002
-330.90026
-330.03008
-332.4257
-332.62244
-331.09823
-331.29315
-331.30686
-331.30981
-331.32406
-331.46188
-332.85022
-331.4053
-329.9175
-331.09823
-329.51062
-329.69652
-329.70937
-329.7111
-329.71465
-329.79802
-331.26211
-330.50208
-330.1545
-331.29315
-329.69652
-329.88117
-329.89415
-329.89703
-329.90271
-329.97191
-331.38488
-330.55023
-330.17213
-331.30686
-329.70937
-329.89415
-329.90722
-329.91041
-329.91795
-329.99008
-331.4046
-330.56187
-330.17554
-331.30981
-329.7111
-329.89703
-329.91041
-329.9136
-329.92133
-329.99398
-331.40974
-330.56689
-330.18778
-331.32406
-329.71465
-329.90271
-329.91795
-329.92133
-329.92922
-330.00223
-331.41924
-330.57963
-330.27002
-331.46188
-329.79802
-329.97191
-329.99008
-329.99398
-330.00223
-330.07695
-331.50211
-330.69896
-330.90026
-332.85022
-331.26211
-331.38488
-331.4046
-331.40974
-331.41924
-331.50211
-332.98023
-332.61207
-330.03008
-331.4053
-330.50208
-330.55023
-330.56187
-330.56689
-330.57963
-330.69896
-332.61207
-329.35588
-323.84965
-327.15543
-324.67587
-324.91098
-324.92867
-324.93214
-324.94441
-325.027
-325.66347
-324.80462
-327.15543
-327.32976
-325.8222
-326.01576
-326.02954
-326.03253
-326.04666
-326.18417
-327.58148
-326.15713
-324.67587
-325.8222
-324.25226
-324.43686
-324.44979
-324.45157
-324.45503
-324.53776
-326.01026
-325.2662
-324.91098
-326.01576
-324.43686
-324.62021
-324.63327
-324.6362
-324.64183
-324.71038
-326.13196
-325.3138
-324.92867
-326.02954
-324.44979
-324.63327
-324.64641
-324.64965
-324.65715
-324.7286
-326.15169
-325.32542
-324.93214
-326.03253
-324.45157
-324.6362
-324.64965
-324.65289
-324.66057
-324.73255
-326.15687
-325.33047
-324.94441
-326.04666
-324.45503
-324.64183
-324.65715
-324.66057
-324.66841
-324.74074
-326.16632
-325.34316
-325.027
-326.18417
-324.53776
-324.71038
-324.7286
-324.73255
-324.74074
-324.81479
-326.24854
-325.4621
-325.66347
-327.58148
-326.01026
-326.13196
-326.15169
-326.15687
-326.16632
-326.24854
-327.73564
-327.39231
-324.80462
-326.15713
-325.2662
-325.3138
-325.32542
-325.33047
-325.34316
-325.4621
-327.39231
-324.13133
-319.25896
-322.47645
-320.04069
-320.27244
-320.29008
-320.29358
-320.30581
-320.38822
-321.02683
-320.18464
-322.47645
-322.62797
-321.14624
-321.33723
-321.351
-321.354
-321.36792
-321.50427
-322.90163
-321.50656
-320.04069
-321.14624
-319.60352
-319.78568
-319.7986
-319.80043
-319.80378
-319.88533
-321.3569
-320.63332
-320.27244
-321.33723
-319.78568
-319.96658
-319.97964
-319.98261
-319.98816
-320.05562
-321.47675
-320.68006
-320.29008
-321.351
-319.7986
-319.97964
-319.99276
-319.99604
-320.00344
-320.07377
-321.49638
-320.69161
-320.29358
-321.354
-319.80043
-319.98261
-319.99604
-319.9993
-320.00689
-320.07774
-321.50157
-320.69666
-320.30581
-321.36792
-319.80378
-319.98816
-320.00344
-320.00689
-320.01463
-320.08584
-321.51091
-320.7092
-320.38822
-321.50427
-319.88533
-320.05562
-320.07377
-320.07774
-320.08584
-320.15875
-321.59195
-320.827
-321.02683
-322.90163
-321.3569
-321.47675
-321.49638
-321.50157
-321.51091
-321.59195
-323.07857
-322.76198
-320.18464
-321.50656
-320.63332
-320.68006
-320.69161
-320.69666
-320.7092
-320.827
-322.76198
-319.51686
-315.252
-318.36304
-315.98568
-316.21264
-316.23011
-316.23363
-316.24573
-316.32744
-316.96415
-316.14362
-318.36304
-318.49179
-317.0447
-317.23194
-317.24561
-317.24861
-317.26224
-317.39656
-318.7852
-317.42749
-315.98568
-317.0447
-315.5384
-315.71698
-315.72982
-315.73168
-315.73491
-315.81479
-317.27621
-316.57713
-316.21264
-317.23194
-315.71698
-315.89433
-315.9073
-315.91028
-315.91572
-315.98168
-317.39347
-316.62274
-316.23011
-317.24561
-315.72982
-315.9073
-315.92033
-315.92361
-315.93088
-315.99966
-317.41287
-316.63412
-316.23363
-317.24861
-315.73168
-315.91028
-315.92361
-315.92688
-315.93433
-316.00363
-317.41805
-316.63914
-316.24573
-317.26224
-315.73491
-315.91572
-315.93088
-315.93433
-315.94193
-316.01157
-317.42722
-316.65147
-316.32744
-317.39656
-315.81479
-315.98168
-315.99966
-316.00363
-316.01157
-316.0829
-317.50659
-316.76739
-316.96415
-318.7852
-317.27621
-317.39347
-317.41287
-317.41805
-317.42722
-317.50659
-318.9834
-318.69496
-316.14362
-317.42749
-316.57713
-316.62274
-316.63412
-316.63914
-316.65147
-316.76739
-318.69496
-315.48559
-311.80024
-314.78796
-312.48298
-312.70375
-312.72096
-312.72446
-312.73636
-312.81687
-313.44769
-312.65345
-314.78796
-314.89439
-313.49035
-313.6727
-313.68618
-313.68916
-313.70242
-313.8339
-315.20523
-313.89231
-312.48298
-313.49035
-312.02926
-312.20317
-312.21585
-312.21773
-312.22082
-312.29855
-313.74081
-313.06977
-312.70375
-313.6727
-312.20317
-312.37588
-312.38868
-312.39166
-312.39695
-312.46102
-313.85477
-313.11396
-312.72096
-313.68618
-312.21585
-312.38868
-312.40154
-312.40481
-312.41189
-312.47872
-313.87382
-313.12511
-312.72446
-313.68916
-312.21773
-312.39166
-312.40481
-312.40806
-312.41533
-312.48266
-313.87894
-313.13006
-312.73636
-313.70242
-312.22082
-312.39695
-312.41189
-312.41533
-312.42273
-312.4904
-313.88788
-313.1421
-312.81687
-313.8339
-312.29855
-312.46102
-312.47872
-312.48266
-312.4904
-312.55971
-313.96511
-313.25544
-313.44769
-315.20523
-313.74081
-313.85477
-313.87382
-313.87894
-313.88788
-313.96511
-315.42301
-315.16364
-312.65345
-313.89231
-313.06977
-313.11396
-313.12511
-313.13006
-313.1421
-313.25544
-315.16364
-312.00906
-308.87376
-311.72262
-309.50332
-309.71654
-309.73338
-309.73685
-309.74848
-309.82728
-310.44835
-309.68464
-311.72262
-311.80758
-310.45457
-310.63091
-310.64413
-310.64707
-310.65987
-310.78772
-312.13338
-310.87201
-309.50332
-310.45457
-309.04701
-309.2152
-309.22764
-309.22953
-309.23245
-309.30758
-310.72194
-310.08197
-309.71654
-310.63091
-309.2152
-309.38221
-309.39476
-309.39773
-309.40283
-309.46465
-310.83189
-310.12446
-309.73338
-310.64413
-309.22764
-309.39476
-309.40737
-309.41061
-309.41747
-309.48195
-310.85047
-310.13532
-309.73685
-310.64707
-309.22953
-309.39773
-309.41061
-309.41383
-309.42087
-309.48584
-310.85551
-310.14017
-309.74848
-310.65987
-309.23245
-309.40283
-309.41747
-309.42087
-309.42804
-309.49333
-310.86418
-310.15185
-309.82728
-310.78772
-309.30758
-309.46465
-309.48195
-309.48584
-309.49333
-309.56023
-310.9388
-310.26192
-310.44835
-312.13338
-310.72194
-310.83189
-310.85047
-310.85551
-310.86418
-310.9388
-312.36894
-312.13906
-309.68464
-310.87201
-310.08197
-310.12446
-310.13532
-310.14017
-310.15185
-310.26192
-312.13906
-309.05739
-306.4414
-309.13727
-307.01615
-307.22054
-307.23691
-307.24033
-307.2516
-307.32823
-307.93577
-307.20645
-309.13727
-309.20194
-307.90746
-308.07673
-308.08961
-308.09249
-308.10476
-308.22822
-309.54013
-308.33638
-307.01615
-307.90746
-306.56127
-306.72272
-306.73484
-306.73673
-306.73948
-306.81158
-308.18959
-307.58324
-307.22054
-308.07673
-306.72272
-306.88303
-306.89526
-306.89819
-306.90308
-306.96229
-308.29486
-307.62376
-307.23691
-308.08961
-306.73484
-306.89526
-306.90755
-306.91073
-306.91733
-306.97909
-308.31287
-307.63426
-307.24033
-308.09249
-306.73673
-306.89819
-306.91073
-306.91389
-306.92066
-306.9829
-308.31779
-307.63899
-307.2516
-308.10476
-306.73948
-306.90308
-306.91733
-306.92066
-306.92755
-306.9901
-308.32612
-307.65023
-307.32823
-308.22822
-306.81158
-306.96229
-306.97909
-306.9829
-306.9901
-307.0542
-308.39772
-307.75639
-307.93577
-309.54013
-308.18959
-308.29486
-308.31287
-308.31779
-308.32612
-308.39772
-309.79154
-309.59115
-307.20645
-308.33638
-307.58324
-307.62376
-307.63426
-307.63899
-307.65023
-307.75639
-309.59115
-306.59949
-304.47093
-307.0011
-304.98988
-305.18421
-305.20001
-305.20334
-305.2142
-305.2882
-305.87858
-305.18711
-307.0011
-307.04703
-305.81806
-305.97926
-305.99171
-305.99451
-306.00617
-306.12454
-307.39494
-306.25418
-304.98988
-305.81806
-304.54054
-304.69429
-304.70602
-304.70789
-304.71045
-304.77912
-306.1127
-305.54202
-305.18421
-305.97926
-304.69429
-304.84695
-304.85878
-304.86165
-304.8663
-304.92257
-306.21266
-305.58033
-305.20001
-305.99171
-304.70602
-304.85878
-304.87066
-304.87378
-304.88006
-304.93877
-306.22998
-305.5904
-305.20334
-305.99451
-304.70789
-304.86165
-304.87378
-304.87686
-304.88331
-304.94247
-306.23475
-305.59497
-305.2142
-306.00617
-304.71045
-304.8663
-304.88006
-304.88331
-304.88989
-304.94935
-306.2427
-305.60571
-305.2882
-306.12454
-304.77912
-304.92257
-304.93877
-304.94247
-304.94935
-305.01029
-306.31087
-305.70735
-305.87858
-307.39494
-306.1127
-306.21266
-306.22998
-306.23475
-306.2427
-306.31087
-307.66018
-307.48882
-305.18711
-306.25418
-305.54202
-305.58033
-305.5904
-305.59497
-305.60571
-305.70735
-307.48882
-304.60317
-302.92927
-305.2825
-303.39199
-303.5751
-303.59024
-303.59347
-303.60385
-303.67478
-304.24453
-303.59395
-305.2825
-305.31152
-304.15449
-304.30666
-304.31862
-304.32132
-304.33231
-304.4449
-305.66641
-304.59329
-303.39199
-304.15449
-302.95237
-303.09752
-303.1088
-303.11063
-303.11299
-303.17785
-304.45931
-303.92588
-303.5751
-304.30666
-303.09752
-303.24162
-303.253
-303.25578
-303.26016
-303.31319
-304.55336
-303.96175
-303.59024
-304.31862
-303.1088
-303.253
-303.26441
-303.26742
-303.27337
-303.3287
-304.56988
-303.97132
-303.59347
-304.32132
-303.11063
-303.25578
-303.26742
-303.27041
-303.27651
-303.33228
-304.57447
-303.97571
-303.60385
-304.33231
-303.11299
-303.26016
-303.27337
-303.27651
-303.28273
-303.33878
-304.582
-303.98588
-303.67478
-304.4449
-303.17785
-303.31319
-303.3287
-303.33228
-303.33878
-303.39623
-304.64636
-304.08243