/*--------------------------------*- C++ -*----------------------------------*\
  =========                 |
  \\      /  F ield         | OpenFOAM: The Open Source CFD Toolbox
   \\    /   O peration     | Website:  https://openfoam.org
    \\  /    A nd           | Version:  dev
     \\/     M anipulation  |
\*---------------------------------------------------------------------------*/
FoamFile
{
    format      ascii;
    class       volScalarField;
    location    "3";
    object      gradTy;
}
// * * * * * * * * * * * * * * * * * * * * * * * * * * * * * * * * * * * * * //

dimensions      [0 -1 0 1 0 0 0];

internalField   nonuniform List<scalar> 
5712
(
-0.000586318
-12.3299
6.19497e-06
-2.29294
2.70497e-05
-0.792038
0.000130249
-0.214304
-0.000111976
-1.17652
-0.00103606
-3.0666
-0.00138711
0.794339
-0.000789966
-7.71309
-6.94437e-05
1.84317e-08
0.000102287
0.00025387
4.90869e-05
2.81957e-08
-0.00117611
0.000106115
4.0521e-05
-8.40764e-05
0.648719
0.651118
2.36984e-05
-0.000219915
0.00479287
0.0690759
-0.00168314
-0.000111104
-0.00128173
-1.65595e-07
-0.000625254
-0.000586505
0.280485
-0.408869
-0.00818934
-0.00961771
0.283245
-0.301398
-0.00138165
-0.00183733
-0.418843
-0.372429
0.0141152
0.0118608
-0.709238
-0.788779
0.0311345
272.187
0.0317182
287.59
0.0223316
243.901
-1.07169
278.942
0.0102538
199.582
0.0141745
212.488
0.245482
204.506
0.840879
196.247
-2.55966e-08
-1.82291e-10
8.05764e-08
-1.15091e-10
-7.17769e-10
0
1.58016e-08
5.56488e-12
-0.00018638
5.58689e-07
-0.000203459
-1.52466e-09
-4.42675e-05
8.149e-10
3.8265e-05
1.29337e-09
-3.59294e-05
-1.3584e-09
-4.65621e-06
-4.52916e-11
-3.3136e-05
5.32837e-07
-5.92333e-05
3.93315e-07
0.0106224
209.761
0.0162293
223.366
0.0105334
204.001
0.0162816
232.698
0.0103652
206.152
0.0163735
224.723
0.0100853
198.234
0.0169046
233.451
0.0312609
0.0305864
272.048
271.98
0.0207246
0.0198096
246.714
247.328
0.0119819
0.0110528
213.54
212.238
-2.46104e-08
-1.56728e-11
-0.000211073
0.010272
195.447
-8.45812e-12
-2.21941e-08
-0.00021766
0.00562465
188.39
-7.05279e-14
-5.74499e-10
-1.24855e-06
0.0150886
242.54
0.000473254
1.35759e-08
4.11005e-05
-8.83145e-07
0.000417557
1.1712e-08
-0.000159608
3.91668e-06
0.000404629
1.11522e-08
-0.000170651
2.04846e-05
-5.06858e-14
1.21824e-14
-2.1189e-09
1.10954e-13
2.31285e-08
1.38418e-09
0.000646072
2.27049e-08
-0.000175838
6.91296e-05
-8.5237e-14
1.30857e-13
1.67357e-11
3.35066e-13
9.44163e-08
3.6123e-09
0.000946378
3.79969e-08
-0.000366108
5.19749e-05
7.21433e-11
2.50376e-13
5.64086e-11
4.32292e-13
0
-1.19431e-13
1.11772e-13
2.51412e-14
6.29435e-08
2.55349e-09
1.00023e-07
3.57431e-09
3.00504e-11
1.59629e-13
7.29387e-12
2.88225e-13
-4.81191e-14
1.30796e-13
-1.43486e-13
1.43058e-13
4.50797e-08
2.03687e-09
2.50493e-08
1.7644e-09
0.000572714
2.30611e-08
6.65059e-05
-6.08782e-06
0.000842903
3.34528e-08
0.000118618
-8.03578e-06
0.000453044
1.68428e-08
4.47097e-05
-5.44357e-06
0.000308067
1.26267e-08
5.16071e-05
-9.05384e-06
2.41251e-12
2.96934e-13
6.92405e-14
-3.11082e-11
2.13443e-13
1.55979e-13
-5.95168e-12
0
-1.01168e-13
2.87787e-10
-7.02694e-14
-9.08721e-14
-2.56759e-11
0
0
1.05307e-09
-3.35233e-13
-4.19222e-14
-1.15488e-14
-1.82861e-13
-3.24532e-14
1.62541e-14
-1.25083e-13
-2.95643e-14
3.8614e-14
1.38212e-13
-4.55305e-14
-7.08726e-11
-2.93833e-15
3.22568e-14
4.04827e-09
-3.73324e-12
-2.14712e-14
3.76709e-14
6.48332e-14
2.43696e-14
-8.7242e-14
7.52634e-14
-1.43482e-13
1.6152e-13
4.42222e-14
-4.74342e-14
1.35599e-10
-1.19553e-13
1.66815e-13
3.31312e-09
7.27893e-12
0
-7.08715e-10
2.50152e-13
-1.201e-07
-1.12833e-09
-1.94049e-07
3.99491e-09
-0.00124345
-1.21859e-07
2.64858e-13
-4.47803e-14
-2.38989e-13
6.54126e-14
1.90823e-13
9.73813e-14
-6.13389e-11
-8.4411e-13
-2.86838e-11
2.15981e-13
-4.29287e-13
-6.19751e-14
-2.03204e-13
0
2.73581e-08
8.25141e-09
0.000275281
3.74108e-05
-4.48036e-09
-4.90548e-09
1.02048e-11
8.84102e-12
-1.49647e-12
-7.73915e-13
1.59629e-15
-2.78021e-15
0
-4.78042e-14
-9.92594e-14
1.31534e-13
-8.61506e-14
7.09531e-14
3.57998e-13
-1.91448e-14
-6.37912e-14
2.7135e-14
-8.98924e-14
-4.88073e-14
5.89359e-14
3.10899e-14
1.18878e-13
-4.05709e-14
-1.18616e-13
5.09191e-14
4.44972e-13
7.53819e-14
-1.94946e-10
1.80673e-13
1.80052e-13
0
-3.46595e-14
5.46688e-14
1.84536e-10
-1.7812e-13
2.37595e-11
1.28499e-13
1.68442e-08
-5.62817e-11
1.80581e-09
-6.41281e-12
1.59646e-13
0
0
0
1.33755e-14
1.33079e-14
9.36937e-14
0
-8.2827e-14
1.1105e-13
3.18326e-14
5.10891e-14
-1.51777e-13
0
1.11449e-13
7.41014e-14
1.51214e-13
-4.91064e-14
4.42014e-14
-2.66897e-14
4.01795e-14
0
-6.73458e-15
1.40853e-14
-2.1874e-13
4.29125e-14
-1.34785e-13
6.77268e-14
0
0
0
0
7.49351e-14
1.86457e-13
0
1.3746e-14
0
9.91185e-14
7.11356e-14
1.75891e-13
7.22826e-14
-1.59357e-13
1.58688e-13
-2.6111e-14
7.78831e-14
-2.84945e-15
9.22372e-14
4.08178e-14
4.38062e-14
-3.41425e-14
-6.2283e-15
-3.34792e-14
3.47416e-14
-7.61071e-14
-5.47607e-14
0
5.9015e-14
0
-1.68996e-14
1.39383e-13
8.52713e-14
-1.79487e-13
-5.54769e-14
-1.13022e-13
0
-2.56039e-14
3.20072e-14
3.19039e-14
5.08712e-14
-9.18942e-14
-3.42464e-14
-3.9513e-14
-1.44583e-13
-6.43237e-14
4.43958e-14
-4.31887e-14
-9.20794e-15
1.20515e-13
-1.49804e-14
-4.0667e-14
8.73405e-14
-1.87404e-13
-8.21457e-15
-9.40212e-14
1.23085e-13
-9.72092e-14
-1.36599e-13
2.6128e-13
1.46965e-14
4.16875e-14
-2.1461e-13
2.16536e-13
-1.91148e-13
2.39143e-14
-1.03895e-13
-4.77871e-14
2.60301e-14
2.86972e-13
-2.02585e-13
0
-1.20512e-13
0
1.05759e-13
1.31043e-13
-1.08126e-13
-8.63772e-14
-1.35754e-13
0
-1.22849e-13
0
3.30718e-14
-1.50103e-13
2.52231e-14
3.55219e-14
1.51607e-13
0
1.48485e-13
4.76484e-15
-6.57644e-14
1.48462e-13
-1.85584e-13
-3.46203e-14
-2.27686e-14
1.06721e-13
-1.29983e-13
2.07015e-13
-5.03558e-14
1.51753e-13
1.64999e-13
-4.68463e-14
6.81541e-14
7.54064e-14
3.21146e-14
-5.58082e-14
9.04167e-14
-4.19041e-14
-8.38444e-14
1.38576e-13
1.29521e-13
1.08176e-14
-8.12706e-14
7.50498e-14
0
-1.15842e-13
-6.91061e-14
-6.07073e-14
8.46553e-15
2.79141e-14
3.72194e-14
-1.74548e-14
-6.29198e-14
4.29424e-14
1.13009e-13
6.48317e-14
-4.87386e-14
8.7242e-14
-3.76317e-13
0
-4.038e-14
-4.42222e-14
1.42303e-13
-7.47925e-14
1.99256e-13
0
0
2.20574e-14
-1.45729e-13
0
-2.03916e-14
1.10553e-14
-5.20949e-14
7.80328e-14
-1.99162e-14
-4.75706e-14
-1.40027e-14
1.9758e-14
3.9516e-14
-1.59025e-14
0
3.32775e-14
-6.65551e-14
-3.02619e-14
1.29094e-14
0
5.83726e-14
2.31519e-14
-6.88102e-14
0
0
-1.27217e-14
8.2577e-15
8.95412e-14
1.17789e-15
-7.81437e-14
-1.27441e-13
2.42154e-14
-2.42162e-14
-4.8432e-14
7.2647e-14
-5.11938e-14
2.5557e-14
-1.95946e-14
-1.26192e-14
-6.44986e-14
3.87852e-14
5.94612e-14
0
0
-6.28005e-14
-4.02977e-14
9.78045e-14
-7.76025e-14
0
0
6.51694e-14
1.14707e-13
-4.07597e-16
8.76251e-15
-7.11561e-14
4.65927e-14
-4.66413e-14
-6.50861e-15
-6.66077e-14
-1.81668e-16
-1.81668e-16
-2.44964e-14
6.57367e-15
-6.50047e-14
-2.16682e-14
8.28205e-14
1.59683e-14
6.81922e-14
0
-1.57682e-13
2.96507e-14
-3.02218e-16
-1.84397e-14
3.76887e-14
-5.37392e-14
0
0
7.3485e-14
0
-1.33031e-15
-8.11684e-14
-3.26638e-14
-1.33247e-14
-2.04069e-14
8.16275e-14
-1.19141e-13
3.37974e-14
-2.38856e-14
-7.16071e-14
3.87583e-14
9.14134e-14
-6.58259e-14
0
1.97059e-14
-7.97213e-14
0
0
0
1.63401e-14
8.06744e-14
-8.06744e-14
0
-2.76487e-14
0
0
4.72828e-14
2.5747e-14
-7.08755e-14
1.06313e-13
3.91846e-14
-1.35121e-13
-7.30253e-14
-1.73283e-14
7.96612e-15
0
-1.62106e-14
1.1576e-15
3.21179e-14
7.53388e-16
-3.61124e-15
-3.61124e-15
1.89993e-15
-4.64159e-14
3.51567e-14
-7.03133e-14
-2.62801e-14
4.35955e-14
0
0
3.12498e-14
7.54399e-14
7.22788e-14
-7.22788e-14
-7.29143e-14
0
2.901e-14
5.802e-14
3.18469e-14
-7.41062e-14
3.23902e-14
0
-4.84576e-14
2.10847e-14
-8.52332e-14
0
1.54233e-14
8.27233e-14
3.6705e-15
3.6705e-15
1.3487e-14
-3.48543e-14
-9.07239e-14
1.05845e-13
1.12212e-13
0
-2.84754e-14
1.70852e-13
-2.396e-14
-9.24755e-14
-3.74375e-14
6.7857e-14
-1.28538e-14
-8.91123e-14
-1.51772e-13
6.63439e-14
1.21129e-13
1.02233e-13
-1.71797e-14
-3.4952e-14
-5.13942e-15
4.36212e-14
0
-5.77515e-14
-4.8144e-14
5.41157e-14
-1.28871e-13
-5.58819e-14
3.53543e-14
1.71071e-14
3.64945e-14
-7.50049e-14
-5.65421e-14
1.73092e-14
3.5772e-14
-5.6619e-14
-1.86227e-14
-2.19043e-15
-2.19043e-15
-2.19043e-15
0
3.93219e-14
0
0
-5.89828e-14
-7.86437e-14
-5.22212e-14
1.09843e-13
1.80028e-15
2.8811e-14
0
0
0
0
0
0
3.51018e-14
8.44644e-14
2.19336e-15
-1.42608e-14
1.86476e-14
-4.92551e-19
-9.08097e-14
-4.92551e-19
-4.92551e-19
0
-2.37418e-14
1.81567e-14
1.81567e-14
-2.37418e-14
0
7.81856e-14
9.38228e-14
0
-9.38228e-14
-7.81856e-14
0
0
4.01807e-14
-4.01807e-14
-2.00904e-14
1.47361e-13
6.98224e-16
6.98224e-16
-6.21573e-14
-8.38074e-14
-5.23779e-14
7.85668e-14
5.23779e-14
0
0
0
2.39145e-14
0
0
0
-7.44092e-16
-4.54005e-14
-7.44092e-16
4.39123e-14
0
7.15329e-14
9.53772e-14
0
-7.15329e-14
-9.53772e-14
9.14667e-14
1.27737e-15
1.27737e-15
1.27737e-15
0
5.20045e-16
8.96923e-14
5.20045e-16
-3.51489e-14
3.62633e-14
-1.82978e-14
-3.66052e-14
3.66243e-14
9.53277e-18
0
1.55976e-16
1.55976e-16
1.55976e-16
3.75994e-14
0
-7.73355e-14
-7.73355e-14
0
7.73355e-14
7.73355e-14
-1.09201e-13
-4.6997e-14
3.59412e-14
1.52067e-14
-5.52787e-15
1.59195e-14
0
3.1839e-14
3.1839e-14
-3.1839e-14
1.9286e-13
1.02456e-13
1.2051e-14
1.2051e-14
1.2051e-14
-4.25021e-15
7.54608e-14
-4.25021e-15
-4.25021e-15
-4.25021e-15
0.00772569
4.42498e-07
0.00793054
3.91462e-07
0.00784299
1.21379e-06
0.00763609
8.47289e-06
0.00796608
4.27904e-05
0.00783132
5.17301e-05
0.00795361
7.54282e-05
0.00768226
1.75954e-05
0.0078823
1.73821e-06
0.00808794
3.75997e-05
-1.40159e-07
4.74478e-05
4.75208e-05
4.8649e-07
7.97064e-08
1.055e-07
9.38439e-08
3.72485e-08
0.00828209
3.90092e-05
-1.21908e-07
4.91788e-05
4.92421e-05
4.44092e-07
7.5408e-08
8.09493e-08
9.5039e-08
5.21167e-08
0.00821906
3.96585e-05
-2.28852e-08
4.99668e-05
4.99805e-05
1.26574e-06
5.78608e-08
5.9112e-08
6.75297e-08
3.80811e-08
0.00825868
4.10619e-05
2.58432e-07
5.17306e-05
5.1599e-05
8.73932e-06
4.03841e-07
4.31906e-07
4.71232e-07
2.44318e-07
0.00875235
4.46026e-05
1.82634e-06
5.62459e-05
5.52973e-05
4.38841e-05
1.53844e-06
1.60621e-06
1.68233e-06
8.66033e-07
0.00829131
2.03203e-05
2.5684e-06
1.83584e-05
1.70473e-05
5.36815e-05
2.7143e-06
2.88794e-06
3.08639e-06
1.6231e-06
0.00865396
3.27672e-05
3.64396e-06
3.75527e-05
3.57143e-05
7.82044e-05
3.79428e-06
4.0195e-06
4.2642e-06
2.23208e-06
0.00804019
1.21392e-05
6.37579e-07
6.4666e-06
6.04825e-06
1.8378e-05
1.14733e-06
1.23273e-06
1.32695e-06
6.8953e-07
0.00808476
9.18152e-06
-6.04028e-08
1.21002e-06
1.17317e-06
1.81926e-06
1.78587e-07
1.52962e-07
1.6056e-07
1.05597e-07
2.026e-06
0.0271642
0.0275704
1.78819e-06
-8.3513e-14
-3.14166e-11
-7.09611e-10
-3.19364e-07
8.28658e-09
2.28213e-06
0.000138175
0.0358747
0.000363034
0.0308286
7.22216e-08
6.61696e-06
-2.39032e-09
-2.95383e-07
-5.19891e-13
-4.99413e-11
0
1.59027e-14
-1.73719e-13
-8.10222e-14
2.24871e-14
-7.74038e-14
0
-8.1501e-14
-3.45899e-14
0
-1.73343e-13
0
1.599e-13
0
-7.57734e-14
-2.73229e-14
6.39846e-14
-2.95033e-14
-8.13738e-14
0
2.02078e-14
8.28378e-14
1.2059e-13
0
-8.6846e-14
2.23877e-14
-2.96581e-15
-1.30421e-13
0
-6.33938e-14
0
0
3.52995e-14
-3.55773e-14
2.02621e-13
0
-1.80631e-13
-2.21968e-14
1.4456e-13
-5.47392e-16
2.39674e-14
5.64662e-14
-1.31731e-13
9.31729e-14
0
-4.24072e-14
0
0
0
-1.19672e-13
-3.85948e-15
-3.85948e-15
-3.85948e-15
0
0
0
-1.0803e-13
1.0803e-13
1.0803e-13
-3.92057e-14
-1.42989e-13
-7.38e-14
9.91714e-14
1.03783e-13
-5.16025e-14
5.16025e-14
7.74038e-14
-5.16025e-14
-7.74038e-14
-5.72217e-15
3.72046e-14
-5.72217e-15
-5.72217e-15
0
0
-4.25892e-14
2.4115e-15
1.49871e-13
-2.43006e-14
7.80975e-14
-1.58365e-14
-1.03947e-13
3.76192e-16
8.75545e-14
-2.40746e-14
2.40746e-14
-2.40746e-14
-9.62985e-14
4.81493e-14
3.92766e-14
8.27427e-14
-1.23174e-14
8.92161e-14
3.39205e-14
2.23926e-14
-2.74958e-14
-8.22479e-14
-1.36683e-13
2.18064e-13
-3.69559e-14
-1.43556e-13
5.68393e-15
5.68393e-15
0
0
0
0
0
0
-1.0318e-13
9.02857e-14
1.2253e-13
5.80414e-14
-6.44887e-14
1.02007e-13
1.02007e-13
-7.28432e-15
-7.28432e-15
-2.18583e-13
1.1375e-13
0
0
0
0
3.93378e-14
-3.93378e-14
-7.86756e-14
3.93378e-14
7.86756e-14
1.53401e-15
1.13762e-13
-1.72506e-14
6.21938e-14
-4.86765e-14
3.05471e-15
3.05471e-15
3.05471e-15
-1.80273e-13
1.83328e-13
3.4127e-14
-7.3648e-14
7.18324e-15
-1.97605e-14
1.07775e-13
1.07997e-13
-2.45386e-15
-2.45386e-15
-2.45386e-15
0
1.1791e-13
-2.67911e-15
-2.67911e-15
-2.67911e-15
-2.00983e-13
-1.33513e-13
-2.33543e-13
-6.68258e-14
-1.38897e-16
2.33404e-13
-3.85888e-15
1.11936e-13
-3.85888e-15
-3.85888e-15
0
-1.98953e-15
5.7711e-14
5.7711e-14
-1.98953e-15
-1.19401e-13
8.30645e-14
2.31391e-13
-5.93163e-15
-1.24593e-13
-2.07658e-13
-3.36198e-14
1.05496e-13
1.05496e-13
-1.37956e-13
-1.04337e-13
0
0
0
9.90665e-14
-9.90665e-14
0
1.127e-13
0
1.127e-13
-1.127e-13
9.48917e-14
1.13426e-15
-2.89944e-13
1.38646e-13
0
0
0
0
0
0
1.69801e-13
-3.18286e-15
-1.91457e-13
2.00507e-14
-4.16105e-14
-2.37182e-14
-1.89746e-13
-1.18591e-13
7.11546e-14
3.08337e-13
7.36805e-14
-1.22801e-13
0
-9.82406e-14
9.82406e-14
0
0
1.25363e-13
0
-1.25363e-13
-1.37624e-13
2.40841e-13
1.03218e-13
-1.03218e-13
-1.03218e-13
2.95958e-14
1.47979e-13
1.18383e-13
-1.18383e-13
1.18383e-13
7.22802e-14
-2.40934e-14
0
0
0
0.000752588
-1.82181
0.000757815
1.36188
8.50203e-05
1.32741
4.61708e-05
-1.9498
-5.22422e-05
1.35019e-08
-0.000245541
0.000192393
3.70717e-05
2.10013e-08
-0.000844498
8.13025e-05
4.78987e-05
-8.39329e-05
0.636757
0.667824
0.000110528
-0.000220741
0.000393877
0.0632006
-0.00205044
-0.00011123
-0.00128166
-1.63726e-07
-0.000624861
-0.000591178
0.280477
-0.408869
-0.00818931
-0.00961767
0.283243
-0.301398
-0.00138167
-0.00183732
-0.418842
-0.372429
0.0141151
0.0118608
-0.7204
-0.788779
0.0311342
272.192
0.0142986
287.593
0.0223315
243.901
-1.06719
278.944
0.0102538
199.582
0.0141742
212.487
0.248818
204.507
0.840879
196.247
-2.47424e-08
-1.82182e-10
7.11616e-08
-1.00958e-10
-5.46136e-10
-2.20371e-14
1.45444e-08
4.2736e-12
-0.00018638
5.58701e-07
-0.000203459
-1.52423e-09
-4.42588e-05
8.14918e-10
3.82663e-05
1.29336e-09
-3.59276e-05
-1.35821e-09
-4.65598e-06
-4.50377e-11
-3.31287e-05
5.32837e-07
-5.92295e-05
3.93328e-07
0.0106224
209.761
0.0162293
223.365
0.0105334
204.001
0.0162816
232.698
0.0103652
206.153
0.0163735
224.724
0.0100853
198.234
0.0169046
233.451
0.0311261
0.0304472
272.048
271.981
0.0205362
0.0196312
246.716
247.328
0.0114926
0.010593
213.54
212.238
-2.45946e-08
-1.52166e-11
-0.000211091
0.0102721
195.447
-8.359e-12
-2.23971e-08
-0.000217696
0.00562474
188.39
7.05252e-14
-5.74529e-10
-1.24855e-06
0.0150886
242.54
0.000473295
1.36814e-08
4.10688e-05
-8.89408e-07
0.000417636
1.1653e-08
-0.000159276
3.91348e-06
0.000404625
1.04166e-08
-0.000170676
2.04775e-05
2.5343e-14
3.16751e-13
-2.11879e-09
-1.10956e-13
2.12479e-08
1.38385e-09
0.000646072
2.26947e-08
-0.000175845
6.9105e-05
-1.13649e-13
-3.27141e-14
1.66472e-11
3.61455e-13
9.4419e-08
3.61244e-09
0.000946406
3.80584e-08
-0.000366119
5.19897e-05
7.19409e-11
4.01761e-13
5.6432e-11
1.89955e-13
3.74953e-14
1.66312e-14
-2.23544e-13
-1.25702e-13
6.2944e-08
2.55353e-09
1.00024e-07
3.57411e-09
3.0101e-11
9.15078e-15
7.43711e-12
1.51932e-13
0
-2.96462e-14
-4.78271e-14
0
4.50798e-08
2.03684e-09
2.50509e-08
1.76472e-09
0.000572709
2.30613e-08
6.65053e-05
-6.08755e-06
0.000842919
3.345e-08
0.000118613
-8.01381e-06
0.000453037
1.68426e-08
4.47094e-05
-5.44346e-06
0.000308084
1.26273e-08
5.16106e-05
-9.05427e-06
3.43325e-12
-1.33724e-13
-3.9842e-11
-2.27706e-14
-8.21049e-12
7.70564e-14
3.72788e-10
-1.25667e-13
-3.53638e-11
6.56445e-14
1.33824e-09
-8.06061e-13
-1.08784e-13
1.53177e-13
4.72715e-14
7.10767e-14
-5.68065e-14
2.01423e-14
-9.6914e-11
3.50067e-15
5.04264e-09
-6.98325e-12
0
-2.63169e-14
-1.79774e-13
-3.05046e-14
1.65917e-13
2.66068e-14
1.17868e-10
-2.38666e-14
3.67759e-09
-9.07796e-12
-3.85252e-10
1.87616e-13
-5.48187e-08
-8.59621e-10
-1.35909e-07
3.02598e-09
-0.000939381
-1.08286e-07
-1.76569e-13
-1.16717e-13
5.58269e-11
-8.49428e-14
-5.2478e-13
4.86919e-14
6.24436e-11
6.40763e-14
-2.98598e-12
5.39964e-14
-3.21967e-13
-1.23951e-13
2.03209e-13
0
2.73573e-08
8.25119e-09
0.000275264
3.74087e-05
-4.48033e-09
-4.90544e-09
1.01457e-11
9.04041e-12
-1.75101e-12
-7.73318e-13
-1.17458e-13
-9.03157e-14
-3.13099e-16
2.37505e-14
1.80126e-13
-4.38431e-14
3.71333e-15
4.06488e-14
-1.10721e-14
-3.82884e-14
5.45762e-14
1.08537e-13
-2.74895e-15
9.91455e-14
1.35672e-13
7.78604e-14
2.08037e-13
-2.69072e-14
-2.62514e-13
-3.77018e-13
1.96393e-13
4.89043e-14
-1.46878e-10
9.53886e-14
-1.20035e-13
-1.5723e-13
-3.46596e-14
-6.02291e-14
1.84572e-10
0
2.39129e-11
2.61267e-14
1.68435e-08
-5.63244e-11
1.80588e-09
-6.68111e-12
-5.32151e-14
1.42605e-13
-4.78336e-14
1.91125e-13
5.88522e-14
1.06463e-13
6.54608e-14
1.0879e-13
-7.97594e-14
9.51809e-14
-6.36654e-14
-1.70287e-14
1.16204e-13
2.36172e-14
-1.28363e-13
-9.8803e-14
-9.37099e-14
0
-1.76429e-13
-4.76785e-14
0
-2.56006e-13
-7.99508e-14
-4.9654e-14
-2.55198e-13
-3.43289e-13
-3.85102e-14
-2.25765e-14
-2.64768e-13
1.31534e-13
1.07339e-13
7.5024e-14
-7.49333e-14
-1.65736e-13
1.44061e-13
4.71283e-14
2.12252e-14
3.30395e-14
-7.11356e-14
-2.93152e-13
4.75e-14
-2.27653e-14
4.40782e-14
-4.849e-14
5.19201e-14
6.26855e-14
0
0
4.38073e-14
9.68917e-14
7.32111e-15
-1.00439e-13
6.94873e-14
1.71239e-13
1.46033e-13
-1.46927e-13
-1.77034e-13
1.74869e-14
3.37979e-14
-7.60273e-14
2.43638e-14
-8.97437e-14
5.54782e-14
6.45845e-14
9.14742e-14
-1.08107e-13
-1.32289e-13
3.19039e-14
-1.0174e-13
-3.19631e-14
9.71165e-15
1.56778e-13
1.06715e-13
-1.12762e-14
-4.76444e-14
4.02978e-14
-3.1716e-14
-1.50648e-14
4.494e-14
-8.13351e-14
9.70438e-14
-2.34255e-14
4.10713e-15
1.23713e-13
-1.16955e-13
1.4478e-13
7.00486e-14
-1.18764e-13
-7.87287e-14
-1.6675e-13
3.39381e-14
4.81231e-14
1.89116e-13
7.17406e-14
3.12802e-14
2.38955e-14
1.0065e-13
1.43481e-13
-5.76071e-14
-7.29137e-14
-1.3099e-13
-2.88402e-13
-1.0116e-13
1.55206e-15
-4.03e-14
-8.63775e-14
-1.01811e-13
-1.67579e-13
-2.50774e-13
1.54727e-14
-4.96064e-14
-2.15988e-16
1.35122e-14
3.55225e-14
3.36904e-14
-4.37471e-14
6.36362e-15
1.18507e-13
1.64411e-14
-6.18603e-14
1.97193e-13
1.02581e-13
-2.27706e-14
1.70166e-13
-3.85282e-14
0
0
2.95932e-14
-4.3763e-14
1.55967e-13
-5.65657e-14
-5.02042e-14
1.70193e-14
7.09073e-14
-2.84307e-14
4.26049e-14
-1.00712e-13
2.86805e-14
-7.00135e-15
-7.19551e-14
1.95336e-13
-1.0985e-13
7.89493e-14
2.05456e-13
0
7.11075e-14
5.32136e-14
-3.07635e-13
-1.19333e-13
1.33733e-13
2.5937e-14
-6.11694e-14
1.01949e-13
7.18565e-14
-3.01503e-14
-5.81139e-14
3.98306e-14
-1.28404e-14
-3.85064e-14
-1.58051e-13
5.92692e-14
1.64323e-13
-1.22333e-14
3.32685e-15
-1.2978e-13
4.45551e-15
1.30809e-13
-5.83692e-14
5.83692e-14
1.62058e-13
-5.16077e-14
-1.17671e-13
-2.61491e-14
4.66444e-14
7.43181e-14
0
0
-5.53586e-14
-1.17277e-14
4.84273e-14
9.68546e-14
-2.42136e-14
-1.45282e-13
3.84014e-14
-3.83481e-14
-6.27025e-14
3.78579e-14
3.87314e-14
0
8.91924e-14
-6.18221e-14
-6.27941e-14
0
3.02214e-14
-8.80265e-14
6.20744e-14
0
0
1.3034e-14
6.90925e-14
2.39763e-17
-6.90691e-14
3.55779e-14
1.17344e-13
-2.25075e-14
5.20699e-14
-4.99564e-14
0
0
2.41365e-14
-1.53874e-14
8.66577e-14
2.16644e-14
3.02764e-14
0
0
6.81922e-14
-2.17188e-14
2.96055e-14
5.47171e-14
-3.59744e-14
1.42719e-14
-1.19885e-14
-6.81914e-14
1.36383e-13
2.38979e-14
-2.49713e-14
9.98091e-14
-1.19771e-13
5.44445e-14
1.06601e-13
-1.42856e-13
2.04079e-14
6.85082e-14
-1.18292e-13
-1.17698e-13
-2.22473e-14
-7.75208e-14
1.52362e-14
-1.31715e-13
1.09679e-13
-1.87219e-13
-5.97861e-14
-2.406e-14
-4.81201e-14
-1.5977e-13
1.96085e-13
-2.01713e-14
-1.00857e-13
4.74902e-14
2.76451e-14
-3.41166e-16
-3.41166e-16
-3.43421e-14
0
-2.95252e-16
-2.95252e-16
5.12415e-15
0
-3.713e-14
0
1.27453e-13
1.02172e-13
-6.947e-14
0
1.04767e-13
9.04233e-14
-9.15051e-14
-1.20372e-15
9.49954e-14
6.96229e-14
-5.8576e-16
6.97226e-14
2.92548e-14
-4.35926e-14
3.30037e-14
0
8.27199e-14
-2.51475e-14
3.37313e-14
5.18013e-14
7.27885e-14
2.1701e-14
1.45054e-14
5.80216e-14
1.02619e-13
-2.96429e-14
0
0
-2.21029e-14
-2.10842e-14
-3.40929e-14
1.36372e-13
5.78365e-14
-6.89353e-14
3.67033e-15
3.12046e-14
4.0067e-14
9.5843e-14
6.04843e-14
7.56054e-14
-4.90932e-14
1.30773e-14
3.79567e-15
4.65073e-14
5.1113e-14
2.09605e-14
-5.03079e-14
2.33931e-15
-2.01993e-14
4.45568e-14
-1.36322e-13
-6.81611e-14
7.34471e-14
1.55073e-13
-1.8363e-14
-5.92213e-16
6.62408e-14
1.30861e-13
-5.77515e-14
-1.01065e-13
1.44432e-13
1.2627e-13
-9.24543e-14
-7.42066e-14
-1.21621e-15
-1.21621e-15
0
-5.40799e-14
-9.10048e-14
1.30744e-15
1.30744e-15
1.23053e-15
6.35398e-14
7.99723e-14
-2.19047e-15
-8.43533e-14
-8.21628e-14
8.12617e-14
6.16015e-14
2.62073e-15
-3.66998e-14
-1.70395e-14
-8.10314e-14
0
0
0
0
3.26856e-14
-3.26856e-14
3.26856e-14
8.17141e-14
6.53712e-14
-4.38675e-15
-4.38675e-15
-4.38675e-15
-4.38675e-15
0
-9.08012e-14
0
0
0
0
-8.24008e-14
-8.24008e-14
1.39628e-15
6.42441e-14
8.37971e-14
0
7.81869e-14
0
0
0
-6.09449e-14
-6.69563e-16
-6.69563e-16
7.96976e-14
6.02754e-14
0
0
0
0
0
-2.61889e-14
-2.61889e-14
0
2.61889e-14
5.23779e-14
-2.39141e-14
0
0
0
0
7.44021e-16
7.44021e-16
-2.15821e-14
7.44021e-16
2.23261e-14
-2.38443e-14
2.38443e-14
0
-2.38443e-14
0
0
0
0
0
0
-6.68607e-16
-6.68607e-16
-6.68607e-16
-6.68607e-16
-5.94318e-16
0
-3.66155e-14
3.66155e-14
5.49232e-14
9.15387e-14
-9.09587e-14
2.65165e-15
9.6262e-14
2.65165e-15
-9.11147e-14
8.59089e-16
8.59089e-16
8.59089e-16
8.59089e-16
-2.5779e-14
1.70033e-13
8.70894e-14
-5.80613e-14
-7.87971e-14
-1.52076e-14
5.83626e-14
2.65292e-14
2.65292e-14
-1.00805e-13
-7.95836e-14
-1.1301e-13
-1.1301e-13
0
4.5204e-14
2.2602e-14
1.15816e-13
6.80019e-14
2.01873e-14
-2.76272e-14
-4.35654e-14
0.0077263
4.40539e-07
0.00793126
3.93309e-07
0.0078443
1.22115e-06
0.00763667
8.46953e-06
0.00796633
4.28267e-05
0.00783137
5.17238e-05
0.00795354
7.54184e-05
0.00768224
1.75869e-05
0.00788262
1.73871e-06
0.0084593
3.76602e-05
-1.39398e-07
4.74515e-05
4.75241e-05
4.60024e-07
7.94205e-08
1.04549e-07
9.33349e-08
3.72129e-08
0.0086592
3.90311e-05
-1.22783e-07
4.91821e-05
4.92463e-05
4.46882e-07
7.7322e-08
8.30019e-08
9.73244e-08
5.3334e-08
0.00822041
3.96823e-05
-2.21848e-08
4.99751e-05
4.99884e-05
1.27315e-06
5.77479e-08
5.90807e-08
6.74162e-08
3.80433e-08
0.00825922
4.09334e-05
2.60649e-07
5.17319e-05
5.1601e-05
8.84988e-06
4.06344e-07
4.32324e-07
4.72275e-07
2.44872e-07
0.00875257
4.44934e-05
1.83021e-06
5.62484e-05
5.52998e-05
4.40198e-05
1.53139e-06
1.60737e-06
1.68385e-06
8.65806e-07
0.00814712
2.03052e-05
2.56685e-06
1.83572e-05
1.70465e-05
5.36627e-05
2.71299e-06
2.88757e-06
3.08644e-06
1.62241e-06
0.00844016
3.27708e-05
3.63951e-06
3.75474e-05
3.57129e-05
7.8197e-05
3.79514e-06
4.02038e-06
4.26578e-06
2.23159e-06
0.00804016
1.21485e-05
6.35664e-07
6.46703e-06
6.04941e-06
1.83618e-05
1.14739e-06
1.23213e-06
1.32687e-06
6.8839e-07
0.00808509
9.18141e-06
-6.05706e-08
1.20996e-06
1.17327e-06
1.81966e-06
1.78764e-07
1.52889e-07
1.6077e-07
1.05655e-07
2.02601e-06
0.0271642
0.0275704
1.78826e-06
2.29109e-09
1.30972e-06
1.48689e-10
1.43097e-06
1.34363e-05
0.0254308
2.36255e-05
0.0255911
1.50265e-13
3.00745e-14
1.50366e-13
9.02099e-14
9.03455e-14
0
0
6.08633e-14
-4.05712e-14
0
0
0
0
-1.39754e-13
8.70988e-14
-7.05908e-14
8.73174e-14
9.39e-14
8.76236e-14
2.10453e-13
0
-5.57599e-14
-5.38234e-14
9.08246e-14
9.02269e-14
-6.01102e-14
-5.99458e-14
-9.04736e-14
-6.00958e-14
9.02775e-14
6.0866e-14
0
2.02162e-14
-4.06892e-14
-2.027e-14
2.02994e-14
1.18877e-13
1.18877e-13
1.18877e-13
-1.21548e-13
-1.20212e-13
1.22971e-13
-3.74267e-14
-7.75261e-14
2.67264e-15
-4.00994e-14
1.14948e-13
-4.54426e-14
-4.54426e-14
3.47526e-14
-1.6039e-13
4.00933e-14
-1.2028e-13
-4.00933e-14
0
0
-2.67625e-15
-8.29833e-14
-4.28298e-14
-2.67625e-15
0
2.00057e-15
2.00057e-15
2.00057e-15
2.00057e-15
0
1.07678e-13
2.15806e-13
1.07678e-13
-4.50425e-16
-2.16257e-13
0
-5.41007e-14
0
0
0
5.22922e-14
2.52448e-14
-2.88502e-14
1.06387e-13
-1.0819e-13
-1.35225e-13
-1.6227e-13
0
-2.7045e-14
3.2454e-13
-1.80542e-15
-1.37245e-13
-1.80542e-15
-5.59813e-14
1.89616e-13
8.14423e-14
1.0844e-13
5.44448e-14
-1.34538e-13
-1.0799e-13
-2.57585e-15
-2.57585e-15
-4.1223e-14
3.60713e-14
0
-2.93121e-14
9.63089e-14
2.09317e-15
2.09317e-15
0
1.16132e-13
0
0
0
0
3.13737e-14
2.19616e-13
6.27473e-14
0
-2.19616e-13
0
-1.16423e-13
0
1.16423e-13
1.16423e-13
1.252e-13
0
0
0
0
7.72387e-14
-6.48905e-16
-6.48905e-16
-3.95927e-14
7.78876e-14
1.87589e-13
-6.18369e-14
5.1951e-16
3.16977e-14
0
1.68294e-16
1.68294e-16
1.68294e-16
1.68294e-16
0
3.68635e-14
1.1121e-13
-3.09701e-16
-3.09701e-16
0
-7.17645e-14
7.17646e-14
7.17646e-14
-1.07647e-13
-1.07647e-13
1.81649e-13
9.08246e-14
0
6.05497e-14
-4.54123e-13
7.95335e-14
-1.20971e-13
-8.08699e-14
-6.68185e-16
2.40605e-13
-1.2022e-13
1.2022e-13
8.0147e-14
-8.0147e-14
-1.2022e-13
-1.19892e-13
0
0
-1.19892e-13
1.19892e-13
-8.0421e-14
0
0
0
0
-8.14629e-14
3.87288e-14
3.87288e-14
-4.1399e-14
1.20192e-13
1.21039e-13
6.68559e-16
4.07919e-14
6.68559e-16
-4.01233e-14
-1.62309e-13
-2.16412e-13
-2.70516e-14
1.35258e-13
1.62309e-13
-5.22648e-14
-1.33365e-13
-2.52315e-14
1.09935e-13
1.08133e-13
-5.38967e-15
-1.13209e-13
-1.13209e-13
2.1025e-13
0
1.06697e-13
1.06697e-13
-1.80797e-15
-1.10312e-13
-1.08504e-13
1.06305e-13
1.06305e-13
-1.80134e-15
5.2252e-14
-2.70267e-13
-2.75168e-14
-1.08714e-13
-1.62846e-13
-4.50987e-16
2.16527e-13
1.20212e-13
-3.00745e-14
-9.02173e-14
-6.01362e-14
-9.03467e-14
-3.00162e-14
-6.08222e-14
0
-6.08559e-14
0
-1.01579e-13
-4.04963e-14
0
-1.1934e-13
0
-8.78479e-14
-2.91062e-14
-4.69487e-14
0
2.33842e-14
-6.05995e-14
0
-2.691e-14
-2.18617e-13
0
9.01639e-14
-1.19887e-13
-6.03175e-14
3.00473e-14
9.02812e-14
-2.02889e-14
8.11001e-14
2.02173e-14
-2.03443e-14
-8.10795e-14
0
1.20212e-13
8.01414e-14
1.60283e-13
-1.20212e-13
-1.20212e-13
1.17625e-13
-2.67264e-15
-1.22971e-13
-2.67264e-15
-4.00994e-14
0
8.01932e-14
-4.00966e-14
8.01932e-14
0
2.67207e-15
8.28537e-14
2.67207e-15
2.67207e-15
0
-1.19124e-13
1.218e-13
8.16463e-14
1.33814e-15
4.01541e-14
4.00216e-14
4.00216e-14
4.00216e-14
-8.00432e-14
0
1.62643e-13
2.16707e-13
1.08579e-13
4.50425e-16
-2.16257e-13
3.60583e-15
3.60583e-15
-2.34445e-14
3.06562e-14
0
2.52443e-14
7.93384e-14
-1.8027e-15
-1.64085e-13
1.62282e-13
0
1.3523e-13
1.08184e-13
-1.08184e-13
-1.3523e-13
0
1.35439e-13
0
-2.70878e-14
0
5.35451e-14
-4.49848e-16
-5.44448e-14
-4.49848e-16
0
-7.47185e-14
-7.47185e-14
-7.47185e-14
2.57585e-15
2.31883e-13
-3.24518e-14
9.31691e-14
-1.04659e-15
-1.04659e-15
0
-1.10974e-13
-1.10974e-13
5.16028e-15
5.16028e-15
0
8.36427e-15
1.96606e-13
1.02485e-13
-8.57568e-14
-6.27474e-14
1.55233e-13
1.16425e-13
0
-7.76164e-14
-1.55233e-13
3.12992e-14
0
0
3.12992e-14
0
4.54251e-15
4.54251e-15
4.54251e-15
4.54251e-15
0
5.19523e-16
-9.30175e-14
3.16985e-14
-3.06595e-14
1.24716e-13
-7.55823e-14
-3.51826e-14
4.56167e-14
-3.51826e-14
0
-1.1366e-13
-1.1366e-13
-3.14772e-16
-3.14772e-16
2.26691e-13
0
1.4352e-13
1.0764e-13
-1.0764e-13
-1.4352e-13
-9.42414e-14
2.01629e-13
1.3588e-13
-1.27116e-13
-9.86236e-14
7.88654e-14
1.18966e-13
-1.33637e-15
-1.33637e-15
-2.00504e-13
1.17548e-13
-2.67087e-15
1.57621e-13
-4.27437e-14
-1.20219e-13
-4.2626e-14
-4.2626e-14
-4.2626e-14
1.17224e-13
-1.19887e-13
0
1.20635e-13
0
0
-2.4127e-13
3.73929e-14
-2.67022e-15
-2.67022e-15
1.17519e-13
-1.20189e-13
1.58494e-13
3.81192e-14
-4.21307e-14
7.82442e-14
-1.20375e-13
1.08208e-13
1.08208e-13
0
0
-2.16415e-13
-3.60357e-15
-1.11737e-13
-3.60357e-15
1.0453e-13
1.08133e-13
1.34782e-13
-5.39127e-14
-1.34782e-13
5.39127e-14
0
-3.61587e-15
-3.61587e-15
-3.61587e-15
2.35098e-14
-2.71257e-14
-2.43239e-13
0
1.08106e-13
-1.08106e-13
1.08106e-13
4.50987e-16
4.50987e-16
-2.66149e-14
-1.07812e-13
1.35329e-13
8.64288e-14
-1.59031e-14
0
1.62042e-14
1.76049e-13
1.62775e-13
-3.2196e-14
-8.15016e-14
0
-5.41661e-14
7.87786e-14
1.9188e-13
0
0
0
-1.25089e-13
-4.06882e-14
-5.15592e-14
6.06223e-14
0
-9.04383e-14
1.00032e-13
4.34236e-14
0
3.63313e-15
8.49467e-14
1.85748e-13
8.45267e-14
8.45128e-14
6.90725e-14
5.29481e-14
3.55762e-14
-1.84206e-14
0
7.74132e-14
4.43965e-14
1.08413e-13
6.5703e-14
-7.5139e-14
-8.21939e-14
-1.67409e-13
1.55288e-13
-4.24084e-14
0
-4.24084e-14
-1.06021e-13
1.48429e-13
-1.13887e-13
-1.13887e-13
1.92981e-15
1.17746e-13
1.15817e-13
-1.08028e-13
-1.51239e-13
-4.32111e-14
1.08028e-13
2.37661e-13
1.22468e-13
7.65247e-15
7.65247e-15
-1.07163e-13
-1.14815e-13
1.62775e-13
0
0
0
-2.44163e-13
0
-8.58559e-14
0
1.50248e-13
-2.1464e-14
1.38117e-13
-5.18938e-14
-2.44277e-13
1.18693e-13
1.45811e-13
-1.30124e-15
-2.26229e-14
-1.46506e-13
-1.58755e-13
2.62666e-13
-5.13567e-14
-1.958e-13
-3.20906e-15
9.30862e-14
9.62952e-14
-1.22632e-13
-1.4785e-13
-2.40704e-15
1.4111e-13
7.12787e-14
-1.97564e-13
-3.25483e-13
-5.68394e-15
3.6956e-14
2.9848e-13
-2.24647e-15
-1.03362e-13
-2.24647e-15
-2.24647e-15
-1.01116e-13
4.12876e-14
4.85632e-15
-3.1575e-14
4.85632e-15
0
-1.0679e-14
-1.0679e-14
2.9377e-14
-5.0735e-14
0
7.75546e-15
1.24116e-13
7.75546e-15
7.75546e-15
-2.32721e-13
1.53406e-15
2.29508e-13
5.28319e-14
-3.7887e-13
1.94709e-13
-1.83322e-13
-9.16608e-14
0
-1.14576e-13
3.89558e-13
1.79578e-15
-1.05977e-13
1.79578e-15
-1.05977e-13
1.07773e-13
-2.45383e-15
3.43626e-14
-2.45383e-15
-2.45383e-15
-3.68165e-14
8.03896e-14
2.00974e-13
4.01948e-14
0
-2.00974e-13
-6.80608e-15
-1.06838e-13
-6.80608e-15
-6.80608e-15
0
1.15796e-13
2.89491e-14
0
0
-2.31592e-13
2.88551e-14
5.8705e-14
8.85549e-14
-1.20394e-13
-1.19399e-13
4.36064e-14
-2.90739e-14
7.26625e-15
7.26625e-15
0
1.12004e-13
-1.25816e-15
-1.25816e-15
-1.25816e-15
0
7.76008e-14
-4.62315e-14
3.30139e-15
5.28343e-14
-4.95329e-14
1.12702e-13
0
0
-1.12702e-13
1.12702e-13
9.47907e-14
1.11611e-13
6.65509e-15
-1.6931e-13
9.79735e-14
1.22796e-13
9.20967e-14
9.20967e-14
-6.13978e-14
-1.22796e-13
8.63375e-14
0
4.70788e-14
1.15671e-13
-1.24829e-13
-7.11525e-14
-1.18587e-13
4.7435e-14
2.37175e-14
7.11525e-14
0
0
0
0
0
0
0
9.40307e-14
0
-9.40307e-14
-1.03218e-13
-1.03218e-13
1.03218e-13
0
0
-5.91953e-14
1.18391e-13
1.18391e-13
0
0
1.20459e-13
-7.22754e-14
-7.22754e-14
-2.40918e-14
7.22754e-14
-8.95277e-14
8.95277e-14
2.23819e-14
2.23819e-13
8.95277e-14
-6.71458e-14
3.74651e-09
1.97192e-08
4.97613e-09
3.48644e-09
-2.33861e-09
-7.49938e-11
-2.35239e-10
6.575e-12
-1.08972e-08