/*--------------------------------*- C++ -*----------------------------------*\
  =========                 |
  \\      /  F ield         | OpenFOAM: The Open Source CFD Toolbox
   \\    /   O peration     | Website:  https://openfoam.org
    \\  /    A nd           | Version:  dev
     \\/     M anipulation  |
\*---------------------------------------------------------------------------*/
FoamFile
{
    format      ascii;
    class       volScalarField;
    location    "3";
    object      gradTx;
}
// * * * * * * * * * * * * * * * * * * * * * * * * * * * * * * * * * * * * * //

dimensions      [0 -1 0 1 0 0 0];

internalField   nonuniform List<scalar> 
5712
(
-0.00239182
-53.5072
-0.00385508
-120.508
-0.00533844
-131.706
-0.006479
-132.857
-0.0057723
-111.346
-0.0042143
-104.03
-0.00315772
-91.954
-0.00122141
-36.7952
-0.000254992
1.78655e-07
-0.0329125
0.00149404
-0.000220877
1.81232e-07
-0.0413355
0.0011087
-0.00254601
-0.00247328
-59.4624
-58.0118
-0.00462454
-0.00488668
-130.341
-129.09
-0.0202417
-0.000493038
0.00307142
3.02695e-07
-0.00127916
-0.0290028
-237.643
-315.688
-0.0341697
-0.041356
-200.507
-257.651
-0.0225789
-0.025248
-218.9
-329.985
-0.0410435
-0.0884921
-374.138
-624.068
0.00124976
-0.00450942
-57.1946
-55.8373
-0.000636131
-0.0138903
-119.179
-112.086
0.00290945
-0.00383156
-0.0122649
-0.0207603
-152.152
-155.496
-267.528
-264.725
1.23446e-09
3.04993e-11
2.41744e-07
-6.05577e-10
-5.46425e-09
-7.80421e-13
1.17583e-07
6.44168e-11
8.79412e-05
1.77685e-08
0.000105801
2.21894e-08
-0.000107358
7.05293e-09
9.31789e-05
1.36462e-08
-0.000274836
-1.46758e-08
-3.5503e-05
-6.99692e-10
0.000379054
5.60155e-08
0.000100393
4.58674e-08
-0.00060701
0.000773039
0.0001991
-0.0101513
-0.00227205
0.000729415
0.000263111
-0.0104907
-0.0172246
-0.0171146
0.00021676
-0.00975943
-0.0331898
-0.0302553
9.50289e-05
-0.00987032
0.00393389
0.00398581
-0.00289833
-0.00493536
0.00269984
0.00261821
-0.0117559
-0.016355
0.00371911
0.00371417
-0.00582539
-0.0173377
1.24232e-08
8.12125e-12
0.00011636
-0.00219749
0.000893226
4.22906e-12
1.10378e-08
0.000119705
-0.000878643
-0.015921
-2.78814e-13
5.62208e-11
2.87671e-08
0.000417931
-0.0144686
7.16992e-05
-1.97205e-10
-0.00129712
-2.67422e-05
9.31924e-05
-1.48208e-09
-0.00361929
-8.78819e-05
0.000318231
1.71266e-08
-0.00426599
-0.000178116
1.01372e-13
9.74595e-14
1.05712e-09
-1.66431e-13
-7.87925e-11
-1.02148e-10
-4.04448e-05
-1.45076e-08
-0.00423471
-0.000431211
-3.48752e-13
9.46362e-14
-4.48664e-12
-1.65238e-13
-2.3208e-08
-1.53135e-09
-0.000263455
-6.36798e-08
-0.0133463
-0.000560674
-1.70395e-11
-2.7949e-13
-2.52995e-12
-9.85748e-14
-4.74547e-14
-4.53541e-14
-2.99689e-13
-1.00565e-13
-2.8371e-09
-9.19108e-10
-2.66078e-08
-9.48422e-10
1.99265e-11
-6.50718e-14
-1.55443e-11
0
6.31151e-11
0
7.39817e-12
-2.30429e-13
-2.49814e-10
-1.31167e-09
-5.05872e-11
-1.21952e-09
-0.000196399
-6.34375e-08
-0.0120201
-0.000489455
-0.000251909
-7.94496e-08
-0.0132567
-0.000619373
-0.000168111
-5.28902e-08
-0.0113319
-0.000436305
-4.97369e-05
-3.08551e-08
-0.0110497
-0.000339762
-7.07052e-12
2.31979e-14
2.89945e-13
-9.64836e-10
-1.06721e-13
2.59965e-14
8.12533e-12
6.29447e-14
1.13814e-13
-2.99462e-09
1.40539e-13
-9.08721e-14
1.54545e-10
-1.60573e-14
-5.58082e-14
-5.43513e-09
1.25712e-12
-4.19222e-14
1.84781e-13
-6.09536e-14
-8.65418e-14
6.50165e-14
1.501e-13
0
-1.9307e-14
-3.4553e-14
-1.21415e-13
-5.79313e-10
-7.05198e-14
-1.98503e-14
-1.49291e-08
1.77853e-11
1.28827e-13
-3.76709e-14
-1.29666e-13
4.87391e-14
1.09053e-13
0
1.43482e-13
-1.4133e-13
2.21111e-14
-1.18585e-13
-1.32744e-09
1.99256e-14
-1.25111e-13
-1.88728e-08
-6.40325e-11
-2.42882e-14
8.22581e-10
-8.75531e-13
4.02916e-07
3.48382e-11
-1.63843e-08
5.4722e-10
-2.8571e-06
1.08618e-07
2.64858e-13
0
-8.89865e-13
-1.76891e-14
1.59127e-13
4.62561e-13
3.78125e-13
7.36184e-14
1.48114e-12
-1.53549e-13
-1.07322e-13
0
1.01602e-13
-7.30374e-14
4.50295e-09
5.92529e-09
-1.3621e-06
-1.74978e-06
-4.74934e-11
-9.85668e-10
2.12353e-12
2.7919e-12
-9.25183e-14
-1.2226e-13
2.87402e-13
2.38905e-13
3.36491e-13
0
4.05917e-14
0
4.75314e-14
-2.08542e-14
-1.18102e-13
-7.65791e-14
0
0
2.90195e-14
2.31548e-13
-7.65867e-14
0
2.37755e-13
-3.91017e-14
4.36281e-13
-1.6929e-13
-2.28119e-13
-3.96667e-13
1.12849e-09
-9.22356e-14
2.70078e-13
0
-2.07957e-13
0
2.2787e-11
-1.27229e-13
-2.07972e-12
-7.70993e-14
-2.60089e-08
-2.26855e-10
-8.415e-09
-2.39598e-11
5.32153e-14
-1.90135e-13
1.19584e-13
-9.53683e-14
-6.42024e-14
-4.34587e-14
-1.20865e-13
-8.1592e-14
-2.45413e-14
-1.26914e-13
-1.59163e-13
-3.40594e-14
1.13833e-13
4.21604e-14
2.20317e-14
-1.23502e-13
1.70382e-14
1.45159e-14
4.42014e-14
0
-1.50673e-14
2.13337e-14
3.19705e-13
1.27477e-13
1.82283e-14
0
3.85099e-14
3.38634e-14
2.26944e-13
-1.53461e-13
-2.14673e-13
-7.50223e-14
3.99654e-13
1.6574e-13
-7.20319e-14
6.2839e-14
0
0
-4.26814e-13
5.86304e-14
-6.6087e-14
-4.55306e-14
-7.05279e-13
1.19365e-13
1.03844e-13
1.82365e-13
0
-1.02044e-13
0
-1.31134e-13
-4.05164e-14
5.02188e-14
6.94831e-14
-7.61071e-14
3.65071e-14
1.17536e-13
-4.42613e-14
1.39893e-13
-1.68996e-14
3.04108e-13
-1.94906e-13
1.79487e-13
0
3.2292e-14
0
1.82072e-13
9.10428e-14
1.5952e-13
0
-1.13647e-13
6.5426e-14
2.17534e-13
-1.65238e-13
-5.02039e-14
-1.73252e-13
4.62607e-14
0
6.02577e-14
1.49804e-14
-1.22001e-13
-3.10544e-14
-1.17127e-13
-3.28583e-14
-7.45184e-14
6.77266e-14
-3.08863e-13
1.74349e-13
-3.44415e-13
1.00776e-13
-6.25312e-14
-6.3884e-14
-1.58831e-13
-1.62679e-13
1.43486e-13
0
-3.58404e-14
1.5618e-13
-9.56574e-14
-5.76071e-14
-1.27968e-13
1.00601e-13
2.12835e-13
0
-8.59077e-14
1.2582e-13
-6.91018e-14
6.78768e-14
-2.51364e-13
-9.74674e-14
1.23777e-13
-3.30718e-14
2.81476e-13
2.01785e-13
-8.88048e-15
-6.73809e-14
4.92171e-14
0
-1.95223e-14
9.86466e-14
3.47959e-13
2.31979e-14
4.02461e-13
0
-2.40123e-13
0
5.17537e-14
-2.51779e-14
-8.85223e-14
0
-2.34231e-13
-1.36308e-13
-3.01625e-13
-1.60573e-14
-2.79041e-14
-7.23333e-14
-1.67616e-13
4.19222e-14
0
-2.43804e-13
0
6.50165e-14
-5.00332e-14
0
-1.9307e-13
1.72765e-13
0
-1.35448e-13
-2.35066e-14
0
0
0
1.7177e-13
3.76698e-14
1.72885e-13
4.87386e-14
2.18105e-14
-2.00702e-13
2.86963e-14
1.0095e-13
1.54778e-13
7.11513e-14
5.60944e-14
7.97023e-14
6.25556e-14
-3.25623e-14
1.54402e-13
-2.42882e-14
2.03916e-13
4.07831e-14
-8.84424e-14
0
-2.05693e-13
0
3.21304e-14
9.18944e-14
-3.9516e-14
-7.90319e-14
-8.74638e-14
-4.89316e-14
8.31938e-14
1.3311e-13
-3.78164e-14
-1.03275e-13
3.89151e-14
0
1.27335e-13
8.60128e-14
1.04602e-13
0
-3.39245e-14
-1.32123e-13
3.53453e-14
3.53453e-14
1.5404e-13
0
0
9.68632e-14
0
-4.84316e-14
6.21601e-14
1.13127e-13
0
2.83933e-14
-2.5821e-14
-7.74629e-14
5.94612e-14
-1.44249e-13
0
6.28005e-14
8.94104e-14
8.8024e-14
6.2082e-14
1.24164e-13
-2.51519e-13
7.82033e-14
2.42819e-14
1.39396e-13
4.86577e-14
-2.00127e-14
2.33085e-14
-4.6617e-14
-7.81034e-14
0
4.3611e-14
1.52638e-13
4.46979e-14
-3.99149e-14
2.16682e-14
0
2.4224e-14
0
0
2.04577e-13
0
0
-1.81375e-13
7.25501e-14
-2.40611e-13
5.01753e-14
6.81914e-14
1.70479e-13
-1.52944e-13
-1.99765e-13
1.99595e-14
-1.99595e-14
2.17759e-13
-1.33247e-13
-4.08138e-14
-8.16275e-14
4.76565e-14
0
3.57911e-13
2.38607e-14
1.29194e-13
1.82827e-13
-3.07187e-13
-2.1942e-13
1.57648e-13
0
0
0
-1.5977e-13
4.57524e-13
0
-3.22698e-13
-1.89949e-13
0
1.63796e-13
2.04745e-13
6.8737e-14
-5.1494e-14
-8.85943e-15
4.42972e-14
-7.43158e-15
-3.09652e-14
7.42627e-14
3.71314e-14
3.18645e-14
5.1087e-14
0
-1.4763e-13
2.64255e-13
-4.52143e-14
0
-3.61212e-14
-9.11967e-14
9.28318e-14
-1.75783e-13
-1.93362e-13
5.83374e-14
2.17978e-14
-1.98025e-13
-6.60083e-14
-2.94115e-13
-1.00587e-13
-9.03484e-14
-9.03484e-14
-1.06057e-13
-5.81282e-14
2.3208e-13
2.3208e-13
-1.13233e-13
-2.96425e-14
2.91511e-13
1.61951e-13
-2.72043e-14
2.10847e-14
-1.19326e-13
-1.5342e-13
3.08465e-14
2.75744e-14
5.50709e-14
1.65213e-13
9.45131e-14
0
9.07239e-14
-1.51207e-13
-2.80529e-14
-2.09237e-13
5.69508e-14
-5.69508e-14
-7.188e-14
3.69902e-14
3.50982e-13
3.15883e-13
1.24866e-13
-8.91123e-14
2.18115e-13
2.72644e-13
1.36911e-13
-1.03382e-13
2.49922e-14
-8.16413e-14
1.42836e-13
4.36212e-14
0
0
9.6288e-14
3.60771e-14
-1.82472e-13
-2.18967e-13
-2.18967e-13
-1.45978e-13
-1.82472e-13
7.38512e-14
0
-1.84628e-14
4.6157e-14
2.21554e-13
0
-1.64323e-13
-1.80755e-13
-2.46484e-13
-2.46484e-13
-1.17966e-13
-1.57287e-13
-2.35931e-13
-7.86437e-14
-3.93219e-13
0
5.40215e-14
1.62064e-13
1.08043e-13
1.35054e-13
1.30746e-13
1.30746e-13
6.53729e-14
6.53729e-14
-1.96119e-13
-3.29084e-14
3.29084e-14
0
-3.29084e-14
0
1.81619e-13
0
6.05395e-14
0
0
1.04746e-13
-1.78069e-13
-1.57119e-13
-1.25696e-13
6.28478e-14
-3.12743e-14
-1.25097e-13
-9.38228e-14
-1.25097e-13
-3.12743e-14
-4.31943e-13
-5.02259e-14
-2.10949e-13
-8.03615e-14
-5.02259e-14
-2.51422e-13
-2.09518e-13
-1.67615e-13
-2.09518e-13
-8.38074e-14
-5.89251e-14
4.41938e-14
4.2557e-14
-1.14577e-14
-1.14577e-14
-4.78291e-14
-4.78291e-14
4.78291e-14
4.78291e-14
4.78291e-14
1.59088e-13
-1.53506e-13
-1.53515e-13
-1.53512e-13
-1.95372e-14
0
-1.90754e-13
-2.38443e-13
-1.90754e-13
0
-7.21515e-14
1.44303e-13
7.21515e-14
7.21515e-14
7.21515e-14
4.45862e-14
1.42676e-13
1.42676e-13
1.15924e-13
-7.13378e-14
3.66148e-14
1.09844e-13
2.19689e-13
2.19689e-13
0
-1.87217e-13
3.74434e-14
3.74434e-14
-3.74434e-14
1.87217e-14
-1.54671e-13
-1.54671e-13
-5.1557e-14
-1.54671e-13
-1.03114e-13
0
-2.07346e-13
-2.07346e-13
-2.90284e-13
-2.07346e-13
1.91034e-13
-1.91034e-13
-1.91034e-13
-1.91034e-13
0
0
-3.61619e-13
-3.61619e-13
-1.80809e-13
-1.80809e-13
1.91306e-13
-6.37688e-14
-6.37688e-14
6.37688e-14
1.27538e-13
2.97246e-05
2.57869e-06
9.21462e-05
8.17117e-06
0.000158915
1.38775e-05
0.000270924
2.01064e-05
0.000424361
2.85935e-05
0.000264701
-7.07268e-06
0.000401514
1.26247e-05
0.000176318
-2.02153e-05
8.55271e-05
-2.87338e-05
-14.8234
-14.8237
-14.8234
-14.8232
-14.8238
-0.00101763
-0.00104156
-0.00107659
-0.00111564
-0.00113988
-47.9461
-47.9472
-47.9464
-47.9456
-47.9475
-0.00319671
-0.00331839
-0.00342768
-0.00354318
-0.00369202
-82.9918
-82.9935
-82.9922
-82.9909
-82.9941
-0.00531636
-0.00552271
-0.00570773
-0.00590347
-0.00615607
-120.629
-120.631
-120.629
-120.627
-120.632
-0.00740213
-0.00765916
-0.00788385
-0.00812218
-0.00843904
-163.654
-163.657
-163.654
-163.652
-163.658
-0.0101956
-0.0105332
-0.0108244
-0.0111328
-0.0115467
-184.002
-184.002
-184.001
-184.001
-184
-0.0122724
-0.0127085
-0.0131359
-0.0135887
-0.0141011
-174.689
-174.691
-174.692
-174.689
-174.691
-0.0113012
-0.0117203
-0.0121132
-0.0125294
-0.0130311
-186.507
-186.511
-186.503
-186.505
-186.508
-0.0128775
-0.0133655
-0.0138593
-0.0143828
-0.0149513
-197.635
-197.639
-197.634
-197.634
-197.637
-0.0135728
-0.0140254
-0.0145558
-0.014958
-0.0155283
2.86987e-07
-1.66639e-06
-6.21706e-07
1.10607e-07
0
-6.47955e-11
-7.8809e-10
-4.77559e-07
5.76826e-08
2.07072e-06
-4.88893e-07
-5.66798e-06
-1.41761e-06
-3.66317e-06
8.71224e-08
4.46628e-06
-2.54405e-09
-3.58344e-07
-6.23869e-13
-9.51831e-11
1.7814e-13
1.59027e-13
-2.17149e-14
4.86133e-14
6.48643e-14
0
-2.25365e-13
-3.14208e-14
-1.58114e-13
1.8056e-14
1.43703e-14
3.93145e-14
1.599e-14
6.66913e-15
9.6733e-14
-8.19686e-14
-1.70626e-13
-1.18013e-13
2.28472e-13
4.72642e-14
6.06234e-14
9.66442e-14
3.01474e-14
-1.0003e-13
-1.95404e-13
-8.95508e-14
-7.78716e-14
3.26052e-14
-1.8575e-14
-2.11313e-13
6.18635e-14
2.3025e-14
2.84977e-14
-1.06732e-13
3.68402e-14
9.40221e-14
5.16088e-14
-2.21968e-14
1.4456e-13
-6.15966e-14
-1.97288e-13
-1.2445e-13
9.70653e-14
-6.79385e-15
-4.24072e-14
0
0
0
-1.69629e-13
-5.0668e-14
0
5.0668e-14
5.0668e-14
0
-1.62044e-14
-4.86133e-14
-5.40148e-14
-5.40148e-14
1.62044e-14
-6.91886e-14
1.03783e-13
1.72971e-13
1.72971e-13
5.18914e-14
-1.03205e-13
-2.58013e-13
-3.09615e-13
-3.09615e-13
-3.61218e-13
-2.14634e-13
-1.2878e-13
-8.58534e-14
-8.58534e-14
-1.71707e-13
2.30194e-14
8.50675e-14
2.80611e-14
-2.7622e-14
0
7.32164e-14
0
6.6285e-14
-3.61145e-14
1.36804e-14
-2.40746e-14
7.22239e-14
-2.40746e-14
0
1.68522e-13
2.11513e-13
6.83811e-14
-1.36403e-13
0
6.7841e-14
-2.23926e-14
5.49916e-14
0
1.09346e-13
0
4.26399e-14
-6.39598e-14
-2.13199e-14
-4.26399e-14
0
-2.48981e-13
8.89217e-15
-6.22452e-14
-2.66765e-14
-8.00295e-14
1.61222e-14
8.06108e-15
-1.61222e-14
-6.44887e-14
-1.04794e-13
2.55014e-13
-3.64305e-14
0
3.64305e-14
-7.2861e-14
-5.68752e-14
-1.1375e-13
5.68752e-14
1.1375e-13
1.1375e-13
5.90067e-14
-3.93378e-14
-7.86756e-14
1.96689e-14
-3.93378e-14
1.15079e-13
-1.68667e-13
5.52018e-14
2.69858e-14
1.21691e-13
-1.7187e-13
-1.60412e-13
-1.1458e-13
-2.34889e-13
-1.83328e-13
1.88606e-13
2.69437e-14
0
-2.69437e-14
-5.38875e-14
2.39309e-13
1.28859e-13
1.28859e-13
1.28859e-13
-9.2042e-14
0
1.2059e-13
2.00983e-13
2.00983e-13
-2.00983e-14
3.50106e-13
6.66869e-14
-1.33374e-13
-1.33374e-13
-3.33434e-14
4.3423e-14
-1.44743e-14
1.15795e-13
1.15795e-13
-2.89487e-14
3.28353e-13
1.79102e-13
-5.97005e-14
-2.98503e-14
2.38802e-13
-2.96654e-14
-7.41634e-14
-2.2249e-13
-1.6316e-13
1.48327e-14
-9.56418e-14
9.12944e-14
2.47799e-13
1.78242e-13
1.69547e-13
0
-1.23833e-14
-1.1145e-13
-1.23833e-14
-1.73366e-13
4.22625e-14
-2.8175e-14
-9.86126e-14
-1.40875e-13
-1.40875e-14
1.62671e-13
1.45186e-14
4.9692e-14
-1.17482e-13
2.44934e-14
6.14e-14
2.149e-13
9.21e-14
-6.14e-14
2.456e-13
-1.83471e-13
5.96932e-14
1.64779e-13
-3.47018e-14
1.24832e-13
-1.18591e-14
1.3045e-13
-3.55773e-14
0
0
4.91203e-14
0
-4.91203e-14
1.22801e-13
0
-1.88044e-13
1.25363e-13
0
0
6.26814e-14
3.44059e-13
-1.03218e-13
-3.44059e-13
-2.75247e-13
-2.40841e-13
2.95958e-14
-1.47979e-14
1.03585e-13
2.8116e-13
-4.43937e-14
1.92747e-13
0
-1.92747e-13
-4.81868e-13
-1.92747e-13
-0.00346602
-59.6013
-0.00410513
-127.995
-0.00366489
-129.939
-0.00442544
-55.9027
-0.000154626
1.31357e-07
-0.0222135
0.00112859
-5.35436e-05
1.2468e-07
-0.0235308
0.000849487
-0.00252561
-0.00247293
-59.4486
-57.992
-0.004718
-0.00488575
-130.338
-129.104
-0.0208266
-0.000492815
0.00307113
3.08463e-07
-0.00127876
-0.0290028
-237.643
-315.688
-0.0341695
-0.0413558
-200.507
-257.651
-0.0225787
-0.0252479
-218.9
-329.985
-0.0410432
-0.088492
-374.132
-624.068
0.00125009
-0.00450883
-57.1782
-55.8195
-0.000636318
-0.0138906
-119.192
-112.089
0.00290942
-0.00383151
-0.012266
-0.0207603
-152.146
-155.496
-267.528
-264.725
3.32454e-09
3.06167e-11
2.18838e-07
-4.47716e-10
-4.11938e-09
-4.71904e-13
1.09014e-07
4.68617e-11
8.79404e-05
1.77692e-08
0.000105802
2.21893e-08
-0.000107337
7.05415e-09
9.3182e-05
1.36458e-08
-0.000274822
-1.46754e-08
-3.55012e-05
-6.9977e-10
0.000379091
5.60188e-08
0.000100398
4.58657e-08
-0.000606902
0.00077302
0.0001991
-0.0101512
-0.00227205
0.000729402
0.000263111
-0.0104907
-0.0172241
-0.0171145
0.000216774
-0.00975893
-0.0331898
-0.0302554
9.50249e-05
-0.00987093
0.0039167
0.00396751
-0.00289808
-0.00493601
0.00262263
0.00254608
-0.011756
-0.0163537
0.00334414
0.00336615
-0.00582552
-0.0173386
1.23906e-08
8.03818e-12
0.000116337
-0.00219754
0.000893691
3.43611e-12
1.11139e-08
0.000119656
-0.000878748
-0.0159203
9.90677e-13
5.58605e-11
2.87209e-08
0.000417932
-0.0144694
7.17143e-05
-2.20482e-10
-0.00129777
-2.67136e-05
9.31929e-05
-1.70098e-09
-0.00361816
-8.79257e-05
0.00031823
1.58869e-08
-0.00426677
-0.000178118
-4.05488e-13
-1.94924e-13
1.05706e-09
5.54782e-14
-2.41727e-09
-1.01872e-10
-4.04539e-05
-1.46566e-08
-0.0042346
-0.000431189
-6.21614e-14
-5.72246e-14
-4.54104e-12
-3.67193e-13
-2.32093e-08
-1.53136e-09
-0.000263472
-6.38325e-08
-0.0133469
-0.000560722
-1.71719e-11
-1.24216e-13
-2.45968e-12
-3.2857e-14
-1.7781e-13
0
-5.44889e-14
7.54209e-14
-2.83787e-09
-9.19215e-10
-2.66079e-08
-9.48383e-10
1.99882e-11
6.50722e-14
-1.57829e-11
0
6.31152e-11
1.56955e-13
7.54936e-12
5.76071e-14
-2.50023e-10
-1.3118e-09
-5.06373e-11
-1.2197e-09
-0.000196398
-6.34378e-08
-0.0120201
-0.000489433
-0.000251914
-7.94475e-08
-0.0132568
-0.000619385
-0.00016811
-5.28893e-08
-0.0113315
-0.000436296
-4.97422e-05
-3.08569e-08
-0.0110502
-0.000339778
-9.15533e-12
-4.281e-14
-1.25147e-09
1.69683e-13
1.0295e-11
7.70564e-14
-3.86549e-09
1.00534e-12
1.96795e-10
2.62578e-13
-6.91286e-09
3.19596e-12
-6.69438e-14
3.40394e-13
9.45431e-14
1.13723e-13
-1.42016e-13
-4.02847e-14
-7.20135e-10
2.80054e-14
-1.85943e-08
3.28652e-11
4.39412e-14
5.26338e-14
7.7046e-14
-1.22019e-13
-4.7405e-13
5.32136e-14
-1.46063e-09
-1.19333e-13
-2.10787e-08
7.59955e-12
3.30671e-12
8.33847e-14
-1.13045e-09
7.35261e-12
-2.47537e-09
2.64822e-10
-1.31321e-06
5.22133e-08
-4.41423e-14
4.47793e-14
1.38679e-13
2.94812e-14
3.049e-13
2.43459e-14
2.76317e-13
1.47232e-14
-5.28961e-14
7.08703e-14
1.07322e-13
-6.19753e-13
-1.01604e-13
7.30337e-14
4.50257e-09
5.92504e-09
-1.3622e-06
-1.74978e-06
-4.80126e-11
-9.85472e-10
2.00554e-12
2.526e-12
1.3878e-13
-2.4452e-13
-2.39496e-13
-4.30011e-13
3.17439e-14
1.51153e-13
4.05918e-14
-1.25247e-13
1.18826e-13
-8.34156e-14
1.77154e-13
-8.40276e-15
1.81448e-13
-1.35671e-13
-5.80398e-14
8.9057e-14
-1.53173e-13
0
8.91587e-14
-2.73713e-13
1.43543e-13
-1.6929e-13
-4.99893e-14
0
8.63531e-10
-3.07453e-14
3.00088e-14
-7.86148e-14
-8.6649e-14
1.76614e-13
2.26767e-11
-1.27232e-13
-1.97995e-12
-7.70955e-14
-2.60082e-08
-2.26997e-10
-8.41494e-09
-2.39866e-11
3.99113e-14
-1.18837e-13
-1.79376e-13
9.53637e-14
8.56031e-14
2.72498e-13
-1.20865e-13
0
0
1.45236e-13
0
2.38402e-13
-1.51777e-13
2.30729e-13
2.20322e-14
-2.47008e-14
-8.51908e-14
1.51228e-13
1.10498e-13
-2.38392e-14
0
1.28003e-13
0
2.12466e-13
3.46341e-13
6.43667e-14
-1.92551e-13
-2.82207e-13
1.13472e-13
-6.5767e-14
-3.0055e-13
-5.0016e-14
9.9911e-14
-8.28678e-14
-2.64111e-13
-1.25676e-13
1.27351e-13
-5.28632e-13
0
2.93152e-13
0
5.00837e-13
1.1284e-12
0
1.0384e-13
0
1.84484e-13
1.63273e-13
2.62844e-13
0
-1.62069e-13
-6.69593e-14
-1.38975e-13
-1.52213e-13
9.12704e-15
0
-5.90114e-14
2.09843e-13
4.05575e-13
1.0137e-13
0
0
-2.77391e-13
3.22923e-14
-6.09828e-14
-2.27593e-14
-6.8278e-14
3.19039e-14
3.39132e-14
4.54587e-13
1.79921e-13
-2.71918e-13
7.34385e-14
-2.51019e-14
-1.21277e-13
1.61914e-13
1.63695e-14
1.20518e-13
-7.49e-14
-1.72837e-13
-6.2108e-14
-2.34255e-14
3.2857e-14
-1.67668e-13
6.7726e-14
1.3237e-13
7.47185e-14
-1.52908e-13
-3.02318e-13
-1.56329e-13
1.91651e-13
-9.92538e-14
2.27753e-13
-4.78271e-14
3.57488e-14
8.36343e-14
5.20601e-14
4.78271e-14
-2.88036e-13
-1.76968e-13
-2.01201e-13
1.02799e-14
-1.10357e-13
-2.79203e-13
0
-2.07306e-13
0
-7.33159e-14
-6.49779e-14
-3.09455e-14
-9.92129e-14
6.03197e-14
0
-2.39777e-13
3.36904e-14
1.74988e-13
-1.01818e-13
-6.77183e-14
1.31529e-13
0
-1.6975e-13
0
7.8602e-14
-2.55248e-13
-3.85282e-14
2.14969e-13
-1.07715e-13
-1.03576e-13
2.84459e-13
5.1989e-14
-5.65657e-14
1.33878e-13
1.36154e-13
4.25444e-13
8.5292e-14
-3.12436e-13
-8.05694e-14
7.98067e-14
-2.80054e-14
-3.8376e-13
3.41837e-13
-2.197e-13
-5.26329e-14
1.79774e-13
0
2.37025e-14
1.33034e-13
2.19739e-14
-9.54666e-14
1.91047e-13
-2.5937e-14
0
1.63118e-13
0
0
-1.56711e-13
3.91778e-14
3.74833e-13
-5.25085e-14
-3.95128e-14
0
-5.30076e-14
-2.44667e-13
1.66383e-14
8.31916e-14
3.78148e-14
2.58176e-14
-1.55651e-13
-1.94564e-13
2.02573e-14
1.03215e-13
2.09192e-13
-5.22981e-14
-1.69616e-13
-6.60605e-14
-3.53455e-14
-1.06037e-13
-7.70206e-14
-9.38219e-14
9.68546e-14
1.45282e-13
1.93709e-13
9.68546e-14
-9.99343e-15
-3.51769e-14
1.95945e-15
-1.26193e-14
1.80747e-13
1.80747e-13
-1.78385e-13
2.06074e-14
-1.25588e-13
-1.25588e-13
2.51845e-15
1.80943e-13
1.24149e-13
0
-3.59287e-14
0
1.25906e-15
9.28109e-14
-1.402e-14
-7.0044e-14
-2.33085e-14
1.39851e-13
5.20699e-14
6.66085e-14
1.3081e-13
1.52611e-13
2.41365e-13
1.23099e-13
2.16644e-14
0
4.84423e-14
-1.91614e-13
1.36384e-13
0
-2.28494e-13
4.93661e-14
3.62766e-14
3.62766e-14
2.80726e-13
-1.00352e-13
-1.36383e-13
1.36383e-13
0
4.99426e-14
4.99045e-14
3.99236e-14
6.53334e-14
6.66259e-14
-2.04079e-13
-1.22448e-13
1.42974e-13
2.70382e-13
4.77252e-14
9.54505e-14
-5.16805e-14
1.52362e-13
-4.38897e-14
-1.31669e-13
2.62764e-13
-7.97148e-14
-4.81201e-14
0
1.06513e-13
-2.61447e-13
0
0
1.89961e-13
-2.94881e-13
2.0475e-13
2.0475e-13
0
-2.05977e-13
3.1009e-14
3.1009e-14
-1.22622e-13
-3.20906e-13
-7.42599e-14
7.42599e-14
-3.18632e-14
-1.02172e-13
-4.34187e-14
-4.34187e-14
-1.2478e-13
1.69544e-14
0
3.61205e-14
-9.11955e-14
9.28305e-14
1.58194e-13
5.27313e-14
-4.375e-14
9.80834e-14
0
-6.60073e-14
-2.64704e-13
-5.0295e-14
7.22801e-14
1.807e-14
9.09061e-14
1.16253e-14
1.45054e-13
-8.70324e-14
-1.9816e-13
5.92857e-14
3.23893e-14
3.23893e-14
2.17628e-13
8.43368e-14
-1.87511e-13
-5.11394e-14
-6.16923e-14
-1.37871e-13
-2.20274e-13
-1.65205e-13
1.41763e-13
-1.49367e-13
2.11695e-13
2.11695e-13
5.61065e-14
7.8464e-14
0
1.42372e-13
2.39596e-14
-9.24756e-14
-1.31618e-13
-6.14218e-14
1.98321e-13
-1.22531e-13
0
5.45289e-14
2.28185e-13
-1.03382e-13
3.55415e-14
1.77707e-13
1.76642e-13
-1.30861e-13
-5.77515e-14
1.73254e-13
1.92576e-13
7.21542e-14
0
-2.18971e-13
-2.18971e-13
-2.18971e-13
-1.45981e-13
-5.53873e-14
-1.29237e-13
-1.29237e-13
-1.29237e-13
-1.29237e-13
1.64326e-14
-1.64326e-14
-1.64326e-14
-1.64326e-14
-1.47893e-13
0
-1.96602e-13
-1.17961e-13
-1.96602e-13
-2.75243e-13
2.43094e-13
4.59178e-13
4.59178e-13
4.59178e-13
1.62063e-13
0
3.92227e-13
3.26856e-13
3.92227e-13
1.96114e-13
-6.58174e-14
3.29087e-14
0
3.29087e-14
0
0
0
6.05341e-14
6.05341e-14
0
1.04746e-13
1.04746e-14
1.04746e-14
1.04746e-14
1.67594e-13
1.25099e-13
-1.56374e-13
-1.56374e-13
-1.56374e-13
-3.12747e-14
1.40643e-13
2.71239e-13
2.71239e-13
2.71239e-13
-6.02754e-14
-1.6762e-13
-8.38102e-14
-1.25715e-13
-1.25715e-13
-4.19051e-14
-1.30945e-14
-6.38355e-14
-6.21987e-14
-6.21987e-14
-6.54723e-14
4.78281e-14
4.78281e-14
0
4.78281e-14
1.43484e-13
-4.46521e-14
-4.46521e-14
-8.93043e-14
-4.46521e-14
-4.46521e-14
0
0
-9.53772e-14
-4.76886e-14
0
-7.21515e-14
-3.60757e-14
-1.08227e-13
7.21515e-14
-2.16454e-13
-3.12093e-14
4.01262e-14
4.01262e-14
-1.02545e-13
-3.12093e-14
0
7.3231e-14
1.46462e-13
0
3.66155e-14
5.61662e-14
-2.05943e-13
-2.05943e-13
-7.48883e-14
1.31054e-13
2.06232e-13
0
-1.03116e-13
0
4.64022e-13
4.14716e-14
2.07358e-13
2.07358e-13
4.14716e-13
1.65886e-13
0
-1.91001e-13
-1.27334e-13
-1.27334e-13
-1.91001e-13
0
7.23264e-13
7.23264e-13
4.5204e-13
2.71224e-13
-2.55011e-13
-3.82517e-13
-2.55011e-13
-2.55011e-13
-3.82517e-13
2.97113e-05
2.57699e-06
9.21603e-05
8.17471e-06
0.000158954
1.38808e-05
0.000270949
2.0107e-05
0.000424376
2.85912e-05
0.0002647
-7.07186e-06
0.000401523
1.26252e-05
0.000176315
-2.0214e-05
8.55333e-05
-2.8735e-05
-14.8229
-14.8222
-14.8219
-14.8217
-14.8223
-0.00101684
-0.0010407
-0.0010757
-0.00111473
-0.00113895
-47.9382
-47.9403
-47.9395
-47.9387
-47.9406
-0.00319785
-0.00331964
-0.00342896
-0.00354451
-0.0036934
-83.0082
-83.01
-83.0086
-83.0073
-83.0105
-0.0053169
-0.00552333
-0.00570839
-0.00590411
-0.0061567
-120.628
-120.63
-120.628
-120.626
-120.63
-0.00740234
-0.00765913
-0.00788386
-0.00812198
-0.00843862
-163.662
-163.664
-163.661
-163.659
-163.665
-0.0101956
-0.0105332
-0.0108244
-0.0111327
-0.0115467
-184
-184
-183.998
-183.999
-183.998
-0.0122724
-0.0127086
-0.0131361
-0.0135888
-0.0141009
-174.687
-174.69
-174.69
-174.688
-174.69
-0.0113015
-0.0117205
-0.0121135
-0.0125293
-0.013031
-186.502
-186.506
-186.498
-186.5
-186.503
-0.0128775
-0.0133654
-0.0138591
-0.0143827
-0.0149514
-197.645
-197.65
-197.645
-197.645
-197.647
-0.0135733
-0.0140261
-0.0145565
-0.0149586
-0.0155289
2.86988e-07
-1.6664e-06
-6.34161e-07
1.10606e-07
-7.46886e-12
5.91818e-12
-9.78196e-12
-6.24489e-11
-2.0682e-07
-2.71403e-06
-2.35694e-07
-9.69676e-07
-9.01591e-14
1.50373e-13
1.20293e-13
1.8042e-13
1.50576e-14
-2.10111e-13
6.08222e-14
2.02878e-14
4.05712e-14
0
1.0158e-14
-1.26551e-14
-2.971e-13
-9.42157e-14
-1.01615e-13
-1.88242e-13
5.82116e-14
-1.17375e-13
2.04455e-13
1.63686e-13
2.42403e-13
1.6728e-13
-6.72793e-15
1.4759e-13
1.3534e-13
3.23092e-13
-1.49865e-14
-6.03158e-14
-1.5024e-13
-3.00925e-14
6.34021e-14
-3.04124e-14
1.41513e-13
1.01723e-13
2.027e-14
-1.82695e-13
-8.01414e-14
4.00707e-14
1.20212e-13
8.01414e-14
1.60283e-13
1.20298e-13
8.01988e-14
0
0
8.01988e-14
4.00976e-14
1.20293e-13
1.20293e-13
1.20293e-13
1.20293e-13
-4.00933e-14
-1.2028e-13
-1.8042e-13
-1.2028e-13
-1.60373e-13
-1.10422e-13
-5.01919e-14
-6.02303e-14
-4.01535e-14
-8.03071e-14
-1.20063e-13
-4.00211e-14
-4.00211e-14
-1.20063e-13
-1.20063e-13
-1.08128e-13
0
-5.40641e-14
-5.40641e-14
1.08128e-13
0
-1.08201e-13
-2.70504e-14
-2.70504e-14
5.41007e-14
-1.89332e-13
-2.97522e-13
-2.70475e-13
-2.70475e-13
-2.1638e-13
-6.76125e-14
-1.21703e-13
-2.56928e-13
-6.76125e-14
-3.92153e-13
-5.41759e-14
2.57336e-13
3.52143e-13
2.97968e-13
9.48079e-14
1.21489e-13
-1.68734e-13
-5.3995e-14
-2.1598e-13
1.88982e-13
2.22221e-13
-9.6618e-15
1.35265e-13
1.44927e-13
-1.93236e-14
9.42157e-14
0
0
6.28105e-14
0
1.93553e-13
3.87106e-14
-2.12908e-13
-2.32263e-13
-1.54842e-13
1.56868e-13
-3.13737e-14
-1.56868e-13
-1.56868e-13
-1.56868e-13
1.74635e-13
5.82116e-14
1.94039e-14
1.94039e-14
9.70194e-14
3.13e-14
-9.38999e-14
-1.565e-13
-1.565e-13
-9.38999e-14
5.84157e-14
1.55775e-13
1.36303e-13
1.36303e-13
0
-9.35346e-14
-3.11782e-14
3.11782e-14
-3.11782e-14
-3.11782e-14
1.41402e-13
6.06008e-14
1.21202e-13
1.21202e-13
4.04005e-14
1.1152e-13
1.6728e-13
2.04453e-13
1.6728e-13
2.04453e-13
-1.43529e-13
-5.38234e-14
-2.15294e-13
-2.15294e-13
-5.38234e-14
1.51374e-14
-1.21099e-13
-1.51374e-14
-1.51374e-14
-1.36237e-13
-3.00756e-14
2.00504e-14
1.1529e-13
1.20303e-13
3.50883e-14
4.00735e-14
7.01286e-14
1.60294e-13
1.60294e-13
0
-7.99277e-14
0
-1.99819e-14
-1.99819e-14
-3.99639e-14
-6.03158e-14
-1.80947e-13
-2.61368e-13
-2.61368e-13
-6.03158e-14
-8.01278e-14
-1.0016e-13
-1.60256e-13
-1.40224e-13
-1.60256e-13
4.01233e-14
6.0185e-14
1.2037e-13
1.40432e-13
1.60493e-13
-5.07217e-14
-2.29938e-13
-3.55052e-13
-3.5167e-13
-4.05773e-14
-6.75832e-14
2.16266e-13
1.89233e-13
2.43299e-13
1.622e-13
1.34775e-14
2.15639e-13
3.09982e-13
3.09982e-13
-1.6173e-13
0
0
1.08504e-13
1.08504e-13
0
-2.70267e-14
-2.97293e-13
-1.89187e-13
-2.4324e-13
-3.2432e-13
-2.70659e-14
-5.41317e-14
2.70659e-14
1.08263e-13
5.41317e-14
-6.01061e-14
-9.02236e-14
0
-3.00681e-14
-6.02312e-14
0
6.08222e-14
4.05755e-14
0
0
-3.04738e-14
7.33995e-14
-2.24637e-13
-9.42157e-14
5.80673e-14
4.70605e-14
-5.82123e-14
0
1.46045e-13
7.01527e-14
0
2.4086e-13
-1.8837e-13
-2.09575e-13
-1.65416e-13
2.10383e-13
2.09803e-13
-9.04763e-14
-3.30521e-13
9.02812e-14
-1.6992e-13
-7.09625e-14
2.83042e-13
1.62754e-13
-1.21619e-13
-2.43593e-13
-1.60283e-13
1.20212e-13
2.80495e-13
2.80495e-13
2.40424e-13
-2.00497e-13
0
-4.00994e-14
-4.00994e-14
0
-1.60386e-13
-1.80435e-13
-1.40338e-13
-1.60386e-13
-1.40338e-13
0
-1.20272e-13
6.01362e-14
6.01362e-14
-4.00908e-14
-1.00385e-14
0
9.03467e-14
1.00385e-14
2.00771e-14
1.20065e-13
2.4013e-13
1.20065e-13
1.20065e-13
1.60086e-13
-1.62192e-13
0
-5.40641e-14
-5.40641e-14
1.08128e-13
-2.70504e-14
-1.62302e-13
-5.41007e-14
-1.08201e-13
-1.62302e-13
2.7047e-14
0
1.62282e-13
1.62282e-13
-1.08188e-13
1.21707e-13
-1.3523e-14
1.75799e-13
1.21707e-13
1.48753e-13
-2.70878e-14
9.48073e-14
-1.48983e-13
-1.76071e-13
-1.35439e-14
1.75484e-13
1.99107e-13
1.34987e-13
1.88982e-13
1.88982e-13
2.99516e-13
1.93236e-14
1.15942e-13
1.15942e-13
0
1.25621e-13
-6.28105e-14
-9.42157e-14
-9.42157e-14
-1.25621e-13
1.54846e-13
1.93558e-13
-1.93558e-14
-1.93558e-14
3.87115e-14
3.13737e-13
-3.13737e-14
-9.41211e-14
-9.41211e-14
-3.13737e-14
-1.55233e-13
1.94041e-14
-1.94041e-14
1.94041e-14
0
1.56496e-13
9.38975e-14
0
3.12992e-14
-3.12992e-14
1.94726e-14
-9.73633e-14
0
-5.8418e-14
3.89453e-14
0
-3.1179e-14
0
-3.1179e-14
0
0
0
1.81798e-13
1.81798e-13
6.05995e-14
-1.13346e-13
5.66729e-14
2.45582e-13
1.8891e-13
1.13346e-13
-7.176e-14
-1.4352e-13
-1.794e-13
-2.1528e-13
0
1.97247e-13
2.30122e-13
1.97247e-13
1.97247e-13
2.30122e-13
-2.00504e-14
-3.50883e-14
-8.52143e-14
3.50883e-14
-2.5063e-14
2.00364e-14
-1.00182e-13
-1.20219e-13
-1.20219e-13
0
1.99812e-14
1.39869e-13
1.5985e-13
7.99249e-14
1.5985e-13
4.02117e-14
-8.04234e-14
-4.02117e-14
-4.02117e-14
-2.01058e-14
-4.00631e-14
8.01262e-14
4.00631e-14
8.01262e-14
8.01262e-14
4.0125e-14
4.0125e-14
0
0
-4.0125e-14
-1.69074e-14
-1.99508e-13
-1.45404e-13
-1.45404e-13
1.69074e-14
1.35167e-14
-2.70334e-14
-1.622e-13
-1.08133e-13
-1.08133e-13
-1.34782e-14
1.61738e-13
1.75216e-13
1.4826e-13
9.43472e-14
0
-5.42513e-14
1.08503e-13
1.62754e-13
-5.42513e-14
0
8.10795e-14
0
0
1.62159e-13
0
1.08263e-13
0
-2.70659e-14
2.97724e-13
-3.43307e-14
1.86862e-13
1.30294e-13
-6.48166e-14
-1.43519e-14
-2.44163e-13
-9.65879e-14
7.25204e-14
-3.29547e-14
-1.80554e-14
-1.32067e-13
1.599e-13
8.84765e-14
-1.36617e-13
-2.40336e-13
-1.52723e-13
3.38541e-14
8.5932e-15
6.06223e-14
1.65674e-13
4.52191e-14
-2.5008e-14
-1.08559e-13
1.34324e-13
6.81378e-14
-9.91045e-14
9.28742e-14
8.45267e-14
1.0412e-13
-9.20967e-14
-8.56668e-15
-2.04563e-13
-5.52618e-14
-4.70154e-14
0
-8.87929e-14
-1.44551e-13
2.05322e-14
3.45254e-14
1.3881e-13
-1.0631e-13
1.26172e-13
1.16623e-13
-5.30105e-15
-5.30105e-14
-5.83115e-14
-3.23364e-13
1.15817e-13
2.31633e-13
2.60587e-13
2.31633e-13
1.73725e-13
3.24083e-14
-1.1883e-13
-2.97076e-13
-2.97076e-13
-1.08028e-14
-1.91359e-13
-1.14815e-13
-1.33951e-13
-1.14815e-13
-7.65434e-14
2.44163e-13
1.35646e-13
-1.62775e-13
-2.71292e-14
0
-2.57568e-13
-2.57568e-13
-4.29279e-14
-8.58559e-14
-8.58559e-14
2.30196e-14
2.8356e-14
2.80615e-14
-5.52462e-14
1.21509e-13
5.85701e-14
-1.56852e-13
3.8566e-13
-4.21339e-14
7.93472e-14
-7.22214e-14
9.62952e-14
4.81476e-14
-9.62952e-14
4.81476e-14
-6.03109e-14
-1.81784e-14
-3.61145e-14
-8.96884e-14
-1.60377e-13
2.3452e-13
-1.066e-13
-1.4924e-13
-8.52799e-14
2.132e-14
-2.5279e-14
1.34821e-13
-1.68527e-14
1.17969e-13
8.42633e-14
1.09294e-13
-3.64313e-13
-2.9145e-13
-2.9145e-13
-2.9145e-13
-1.20168e-13
-1.60224e-13
-8.0112e-14
-1.20168e-13
-4.0056e-14
2.90901e-14
-1.74541e-13
-1.4545e-13
-1.4545e-13
-1.4545e-13
-2.30165e-14
3.09232e-13
-5.5204e-14
2.69868e-14
0
1.31762e-13
-1.20305e-13
-1.94779e-13
-2.17694e-13
-3.43728e-13
1.07773e-13
-1.34716e-13
-1.07773e-13
-1.07773e-13
-1.34716e-13
-1.84082e-13
-5.52247e-14
1.47266e-13
1.47266e-13
2.57715e-13
-2.41169e-13
-1.80877e-13
-4.01948e-14
-1.20584e-13
-2.00974e-13
-1.83392e-13
1.33376e-13
1.00032e-13
1.00032e-13
1.33376e-13
1.15796e-13
-5.78981e-14
8.68472e-14
8.68472e-14
-8.68472e-14
1.79099e-13
4.17898e-13
0
0