/*--------------------------------*- C++ -*----------------------------------*\
| =========                 |                                                 |
| \\      /  F ield         | OpenFOAM: The Open Source CFD Toolbox           |
|  \\    /   O peration     | Version:  v2106                                 |
|   \\  /    A nd           | Website:  www.openfoam.com                      |
|    \\/     M anipulation  |                                                 |
\*---------------------------------------------------------------------------*/
FoamFile
{
    version     2.0;
    format      ascii;
    arch        "LSB;label=32;scalar=64";
    class       volScalarField;
    location    "40";
    object      gradTy;
}
// * * * * * * * * * * * * * * * * * * * * * * * * * * * * * * * * * * * * * //

dimensions      [0 -1 0 1 0 0 0];

internalField   nonuniform List<scalar> 
4000
(
0.00020262706
-5.7480319e-05
2.9800769e-06
2.4852606e-06
4.5640732e-06
6.9859039e-06
1.1656029e-05
2.2134164e-05
4.189761e-05
5.5261101e-05
-9.8763707e-05
-0.00039823418
-0.00030059458
-0.0002972039
-0.00029003291
-0.00028197746
-0.00026929033
-0.00024414246
-0.00019287672
-0.00012734359
-0.00050417554
-0.00041422717
-0.00040314527
-0.00039444337
-0.00038563647
-0.00037591526
-0.0003640687
-0.00034810232
-0.00032144973
-0.0002746017
-0.00015592123
-0.00015354523
-0.00014535955
-0.00013603644
-0.00012637343
-0.00011591219
-0.00010403895
-9.1129318e-05
-7.9847257e-05
-7.4669041e-05
-5.4426376e-05
-4.7675411e-05
-3.9199923e-05
-2.9147298e-05
-1.9075683e-05
-9.0653003e-06
1.2846954e-06
1.2006332e-05
2.2004957e-05
2.8182877e-05
4.451249e-05
5.5150424e-05
6.525507e-05
7.6718205e-05
8.7589549e-05
9.7078572e-05
0.0001057011
0.00011329636
0.00011939391
0.0001230188
0.0001194717
0.00014219408
0.00015730668
0.00017000703
0.00018208957
0.00019107866
0.00019830735
0.00020378908
0.00020724848
0.00020865993
0.00015393782
0.00019930019
0.00023035142
0.00024191915
0.00025454312
0.00026263942
0.00026823593
0.00027158054
0.0002721047
0.00026996635
0.00012067229
0.0001703627
0.00023747117
0.00024386331
0.00025393143
0.00026003985
0.00026365388
0.00026491071
0.00026203968
0.00025277634
2.7811525e-05
4.1175016e-05
7.1500282e-05
7.2407033e-05
7.4952416e-05
7.6525641e-05
7.736901e-05
7.7466615e-05
7.5943445e-05
7.1291054e-05
0.00042918319
-0.00011467463
2.908943e-07
2.7887571e-06
8.5603498e-06
1.5626041e-05
2.9480524e-05
6.2493101e-05
0.00012981098
0.00015877584
-0.00034916404
-0.00099250248
-0.00079229067
-0.00077511004
-0.00075428217
-0.00073036099
-0.00069246636
-0.00061450265
-0.00044550545
-0.00026822923
-0.0013061519
-0.0011299568
-0.0010887595
-0.0010616208
-0.001035305
-0.0010061755
-0.00097061535
-0.00092248093
-0.000837415
-0.00069379624
-0.000467668
-0.00045526381
-0.00042965949
-0.00040180929
-0.00037301604
-0.00034178186
-0.00030632499
-0.00026793557
-0.00023309807
-0.00021323445
-0.00014867755
-0.00012942163
-0.00010392849
-7.3976338e-05
-4.3901055e-05
-1.3933813e-05
1.7029609e-05
4.8862785e-05
7.7927993e-05
9.471646e-05
0.00014593602
0.00017731629
0.00020775184
0.00024200591
0.0002744429
0.00030293657
0.00032882274
0.00035173292
0.00037011065
0.00038056589
0.00037466199
0.00044496258
0.00049052033
0.00052865713
0.00056436661
0.00059145373
0.00061316296
0.00062966425
0.0006399205
0.00064342255
0.00047561473
0.00062611041
0.00072257563
0.00075931076
0.00079580255
0.00082020915
0.00083709047
0.00084696668
0.00084671849
0.00083364828
0.00031075611
0.00045518022
0.00065702952
0.0006838649
0.00071173064
0.00072971857
0.00074056362
0.00074347687
0.00072724521
0.00066034448
4.6429789e-05
7.5394654e-05
0.00016461394
0.00017114049
0.00017785635
0.0001823328
0.00018482651
0.00018466749
0.00017611303
0.00014006701
0.00052010353
-0.00020587456
-6.0301836e-05
-5.4658717e-05
-4.5700326e-05
-3.4556926e-05
-1.2782971e-05
4.2668521e-05
0.00017240535
0.00023958878
-0.00065883837
-0.0015294464
-0.0012676852
-0.0012372754
-0.001203815
-0.0011648178
-0.0011037414
-0.00097529127
-0.00067008905
-0.0003576355
-0.001941604
-0.0017147802
-0.001649433
-0.001605112
-0.0015618469
-0.0015133875
-0.0014540849
-0.0013755246
-0.0012341982
-0.0010010482
-0.00073916516
-0.0007172629
-0.00067529497
-0.00062967682
-0.00058226862
-0.00053058603
-0.00047160682
-0.00040768164
-0.0003480949
-0.00031044275
-0.00021113723
-0.00018098455
-0.00013867967
-8.9260019e-05
-3.9588878e-05
1.0065031e-05
6.1377297e-05
0.00011391439
0.0001615152
0.00018859786
0.00027802682
0.00032740285
0.00037810042
0.0004351649
0.00048876222
0.00053613107
0.00057923286
0.0006175476
0.00064836797
0.00066567532
0.000675131
0.00079096917
0.00086465756
0.00092883213
0.00098756195
0.0010326815
0.0010689785
0.0010969323
0.0011146108
0.001120377
0.00086542834
0.0011432108
0.0012990807
0.0013630975
0.0014225926
0.0014632354
0.0014917277
0.0015088677
0.0015070144
0.0014727714
0.00047854405
0.00077392444
0.0010961998
0.0011484008
0.0011934387
0.0012230843
0.0012415664
0.001246529
0.0012054701
0.00096145589
2.3758319e-05
9.0941745e-05
0.00023206068
0.0002463751
0.00025716212
0.0002644302
0.00026870035
0.00026827432
0.00024587169
0.00010559815
0.00060805819
-0.0002743961
-0.00010134661
-9.2806562e-05
-8.0835615e-05
-6.57738e-05
-3.6964818e-05
3.7382798e-05
0.00022385179
0.00031390236
-0.00092141296
-0.0019855202
-0.0016691691
-0.0016266755
-0.0015812127
-0.0015274726
-0.0014442915
-0.001270593
-0.00083741713
-0.00041798262
-0.0024985529
-0.0022261686
-0.0021397082
-0.0020794803
-0.0020199843
-0.0019525799
-0.0018695092
-0.0017607459
-0.0015626373
-0.0012445283
-0.00096413306
-0.00093336657
-0.00087617667
-0.00081364261
-0.00074823281
-0.00067661992
-0.00059454384
-0.00050566647
-0.00042139094
-0.00036532507
-0.00023824863
-0.00019769948
-0.00013904569
-7.0799165e-05
-2.022988e-06
6.690175e-05
0.00013821367
0.00021104549
0.00027678612
0.0003141315
0.00044205705
0.00050786324
0.00057897833
0.00065833827
0.00073266729
0.00079857493
0.00085864821
0.00091225193
0.00095559159
0.00097999727
0.0010162626
0.0011709975
0.0012731422
0.0013628316
0.0014440956
0.0015069753
0.0015577726
0.0015975513
0.0016240389
0.0016344728
0.0013295542
0.0017207791
0.0019364285
0.002027651
0.0021095814
0.0021662235
0.0022065248
0.0022324898
0.0022339778
0.0021852574
0.00074124443
0.0011560238
0.0015938548
0.0016722413
0.0017341962
0.0017753273
0.0018019415
0.0018122489
0.0017547091
0.0012659873
3.1151748e-05
0.00012120232
0.00031077475
0.00033327495
0.000348152
0.00035817187
0.00036442245
0.0003651278
0.00033194219
3.9313214e-05
0.00069588464
-0.00033300426
-0.00013319155
-0.00012178335
-0.00010688728
-8.7895084e-05
-5.1930789e-05
4.0857619e-05
0.00028235672
0.00038850465
-0.0011541411
-0.0023977554
-0.002028444
-0.0019742871
-0.0019172746
-0.0018490707
-0.0017438188
-0.0015258403
-0.00096743811
-0.0004551856
-0.0030036243
-0.002686793
-0.002580156
-0.002504756
-0.0024296711
-0.0023439405
-0.0022376481
-0.0020993867
-0.0018447912
-0.0014460034
-0.0011494267
-0.0011099702
-0.0010382573
-0.00095948535
-0.00087668849
-0.0007857486
-0.00068118641
-0.00056811762
-0.00045954714
-0.00038544228
-0.00023285651
-0.00018202411
-0.00010764011
-2.1208577e-05
6.6096629e-05
0.00015375735
0.00024456291
0.000337121
0.00042048607
0.0004678504
0.00063340006
0.00071583479
0.00080685581
0.00090785784
0.0010023579
0.0010863241
0.0011629394
0.0012314019
0.0012868252
0.0013179756
0.0013816243
0.0015747534
0.0017048548
0.0018193071
0.0019224858
0.0020026708
0.0020675635
0.0021187472
0.0021537701
0.0021690298
0.00182096
0.0023223912
0.0025973407
0.0027152481
0.00281898
0.0028911713
0.0029428657
0.0029773779
0.0029837997
0.0029273302
0.0010393665
0.0015608371
0.0021100212
0.0022142204
0.0022926965
0.0023449498
0.0023792703
0.0023952325
0.0023292226
0.0015822675
5.1696503e-05
0.00015784444
0.00039319818
0.00042370295
0.00044260141
0.00045527917
0.00046336838
0.0004654523
0.00042572203
-3.2517762e-05
0.00078311268
-0.00038501114
-0.00015945816
-0.00014522203
-0.00012751969
-0.00010474934
-6.1825845e-05
4.8866237e-05
0.00034396986
0.00046386005
-0.0013630076
-0.0027768638
-0.0023564949
-0.002290996
-0.0022228827
-0.002140759
-0.002014108
-0.0017532217
-0.0010726547
-0.00047423074
-0.0034661523
-0.0031064686
-0.0029802844
-0.0028902734
-0.002800183
-0.0026967853
-0.0025680437
-0.0024013303
-0.0020914779
-0.001615559
-0.0013018639
-0.0012539562
-0.0011682517
-0.0010738548
-0.0009743026
-0.00086470573
-0.00073839444
-0.00060200658
-0.00046978561
-0.00037826466
-0.0002001707
-0.00013946167
-4.9933704e-05
5.4026431e-05
0.00015921537
0.00026498352
0.00037466164
0.00048628542
0.0005867022
0.00064376054
0.00084674108
0.00094528184
0.0010555157
0.0011774211
0.0012914239
0.0013928674
0.0014855121
0.001568356
0.0016354085
0.0016729301
0.0017639913
0.0019944147
0.0021515286
0.0022898697
0.0024142277
0.0025111716
0.0025897163
0.00265185
0.0026948086
0.0027140713
0.0023252614
0.0029339549
0.0032667147
0.0034105208
0.0035353235
0.0036225613
0.0036852199
0.0037276536
0.0037385261
0.0036764764
0.0013522151
0.0019747058
0.002631206
0.0027604771
0.0028549479
0.0029179522
0.002959522
0.0029801736
0.0029083449
0.0019042206
7.8280975e-05
0.00019817116
0.00047723028
0.0005154504
0.00053824424
0.0005534893
0.00056325864
0.00056633113
0.00052189221
-0.00010308503
0.00086825248
-0.00043175576
-0.0001817889
-0.00016479725
-0.00014440376
-0.00011801444
-6.8411127e-05
5.9489441e-05
0.00040640948
0.00053889506
-0.0015518442
-0.0031269062
-0.0026579359
-0.00258148
-0.0025027176
-0.002407243
-0.0022600395
-0.0019579506
-0.0011592973
-0.00047931755
-0.0038904827
-0.0034900449
-0.0033450565
-0.0032410209
-0.0031365378
-0.0030161827
-0.0028658677
-0.002671882
-0.0023086139
-0.0017589026
-0.0014269443
-0.0013708666
-0.0012717259
-0.0011623479
-0.0010467269
-0.00091922348
-0.00077201301
-0.00061326912
-0.00045824069
-0.0003499811
-0.00014602905
-7.5854837e-05
2.8207904e-05
0.0001489834
0.00027133234
0.00039448405
0.00052229782
0.00065222323
0.00076902697
0.00083540361
0.0010751589
0.0011891479
0.001317837
0.001459818
0.0015925509
0.0017107834
0.0018188377
0.0019155112
0.0019937471
0.0020373883
0.0021549631
0.0024212189
0.0026042555
0.0027655197
0.0029102099
0.0030232589
0.0031149377
0.0031876048
0.0032381139
0.0032608696
0.0028322999
0.0035445308
0.003933042
0.0041017846
0.0042468143
0.0043485138
0.0044217237
0.00447169
0.0044865961
0.0044196609
0.0016696337
0.0023887422
0.0031482668
0.0033017215
0.0034115548
0.0034849019
0.0035334319
0.0035581667
0.0034814028
0.0022255372
0.00010786231
0.00024034789
0.00056118217
0.00060682208
0.00063335523
0.00065107317
0.00066244935
0.00066624361
0.00061782588
-0.0001710001
0.00094996254
-0.00047389111
-0.00020103499
-0.00018138873
-0.00015843298
-0.00012859596
-7.262988e-05
7.1677183e-05
0.00046827705
0.00061244948
-0.0017229691
-0.0034494654
-0.0029347468
-0.0028478024
-0.0027588939
-0.0026506892
-0.0024838823
-0.002142518
-0.001230695
-0.00047358425
-0.0042787581
-0.0038400045
-0.0036770951
-0.0035596939
-0.0034414961
-0.0033049693
-0.0031340583
-0.0029140834
-0.0024996512
-0.0018796727
-0.0015288068
-0.0014649038
-0.0013529539
-0.0012293049
-0.0010983741
-0.00095380151
-0.00078665074
-0.00060660565
-0.00042976467
-0.0003054947
-7.5522902e-05
3.6662584e-06
0.0001215903
0.00025839092
0.00039709367
0.00053681577
0.00068192589
0.00082929125
0.0009617163
0.0010369734
0.0013124479
0.0014411525
0.0015874595
0.0017485903
0.0018991829
0.0020334226
0.0021561696
0.0022660272
0.002354929
0.002404423
0.002547179
0.0028475887
0.0030553502
0.0032384746
0.0034025461
0.0035309501
0.0036351507
0.0037178658
0.0037755735
0.0038015457
0.0033340991
0.0041454595
0.0045872864
0.0047798666
0.0049441725
0.0050596571
0.0051429319
0.0052000799
0.0052187877
0.0051473972
0.0019852837
0.0027964422
0.0036542175
0.0038308529
0.0039553284
0.004038535
0.0040937242
0.0041222149
0.0040410416
0.0025410197
0.00013890297
0.00028307541
0.00064364351
0.00069639442
0.00072649015
0.00074656581
0.00075948615
0.00076388059
0.00071189252
-0.00023613398
0.0010271732
-0.00051174444
-0.00021767728
-0.00019549747
-0.00017012359
-0.0001370276
-7.5050387e-05
8.4765472e-05
0.00052859613
0.00068354569
-0.0018776758
-0.0037449515
-0.0031876488
-0.0030907553
-0.0029922612
-0.0028720127
-0.0026866554
-0.002308155
-0.0012887986
-0.00045928449
-0.0046318966
-0.0041575262
-0.0039777004
-0.0038476703
-0.0037165086
-0.0035646803
-0.0033742592
-0.0031296978
-0.0026666797
-0.0019803024
-0.001610537
-0.0015392065
-0.0014151494
-0.0012780147
-0.001132612
-0.00097189673
-0.00078587206
-0.00058568092
-0.00038814871
-0.00024866442
7.0999055e-06
9.4804723e-05
0.00022584253
0.00037779465
0.00053196048
0.00068735326
0.00084882743
0.0010126829
0.0011598785
0.0012435291
0.0015533148
0.0016959246
0.0018589205
0.002038174
0.0022056605
0.002355041
0.002491685
0.0026140097
0.0027129967
0.0027680323
0.0029344605
0.0032671501
0.0034983182
0.0037021327
0.0038845341
0.0040274623
0.0041435028
0.0042357195
0.0043002424
0.004329226
0.0038241883
0.0047296581
0.0052220451
0.0054372376
0.0056197685
0.0057482887
0.0058410801
0.0059050283
0.0059273669
0.0058519441
0.0022946177
0.003192788
0.0041434881
0.0043421834
0.0044805046
0.0045730296
0.0046345272
0.0046665361
0.004581443
0.0028464834
0.00017050065
0.00032545022
0.00072351007
0.00078303502
0.00081649959
0.00083880211
0.00085319002
0.00085812449
0.00080290814
-0.00029851521
0.0010990236
-0.0005454707
-0.0002320047
-0.00020742888
-0.00017979529
-0.00014364735
-7.6044976e-05
9.8290002e-05
0.00058661177
0.00075137774
-0.0020166238
-0.0040131663
-0.0034167142
-0.0033104734
-0.0032030097
-0.003071471
-0.0028687212
-0.0024554365
-0.0013348442
-0.00043805871
-0.0049500784
-0.0044430157
-0.0042473855
-0.0041055378
-0.003962236
-0.0037960613
-0.0035873248
-0.0033197102
-0.0028109788
-0.0020624524
-0.0016744082
-0.0015960941
-0.0014607038
-0.0013109445
-0.0011519871
-0.00097614409
-0.00077241726
-0.00055334171
-0.00033635742
-0.00018253381
9.8379684e-05
0.00019405199
0.00033738199
0.00050352848
0.00067218244
0.00084226102
0.0010190769
0.0011983849
0.0013594207
0.0014509345
0.001793316
0.0019489414
0.0021276045
0.0023238526
0.0025071743
0.0026707471
0.0028204182
0.0029544284
0.0030628664
0.0031230956
0.0033116133
0.0036745193
0.0039276479
0.0041508703
0.0043504502
0.0045069942
0.0046341316
0.0047352543
0.0048061738
0.0048379724
0.0042971482
0.0052911333
0.0058310253
0.0060674794
0.0062670851
0.0064078232
0.0065095334
0.0065798653
0.0066056706
0.0065266669
0.0025940374
0.003573669
0.0046114152
0.0048309269
0.0049822231
0.0050834764
0.0051508903
0.0051861945
0.0050976919
0.003138487
0.00020203676
0.00036680273
0.00079989373
0.00086582035
0.0009024428
0.00092682955
0.00094259562
0.00094802866
0.00088992647
-0.00035810794
0.0011648035
-0.00057512985
-0.00024419761
-0.00021737814
-0.00018765664
-0.00014868156
-7.5873112e-05
0.00011190371
0.00064170385
0.00081526858
-0.0021400924
-0.0042535941
-0.0036216707
-0.0035067414
-0.003390977
-0.0032489672
-0.003030084
-0.0025845732
-0.0013696621
-0.00041114103
-0.005233045
-0.0046964175
-0.0044861924
-0.0043334088
-0.0041788606
-0.0039993765
-0.0037736254
-0.0034846223
-0.0029333259
-0.0021272734
-0.0017220926
-0.0016372811
-0.0014913988
-0.0013299493
-0.0011584312
-0.00096856085
-0.00074840481
-0.00051181271
-0.00027672808
-0.0001095218
0.00019551677
0.00029856164
0.00045329098
0.00063259385
0.00081467944
0.00099837675
0.0011894255
0.0013830626
0.0015569306
0.0016557346
0.0020287303
0.0021964056
0.0023896233
0.0026016408
0.0027996497
0.0029763869
0.003138143
0.0032829943
0.0034001991
0.0034652434
0.0036742298
0.0040651077
0.0043386238
0.0045798619
0.004795372
0.0049645478
0.0051019794
0.0052113666
0.0052882307
0.0053226396
0.0047483367
0.0058247022
0.0064087587
0.0066650017
0.0068804354
0.0070325068
0.0071424915
0.0072187581
0.0072478563
0.0071657507
0.0028805326
0.0039355799
0.0050539648
0.0052929288
0.0054562557
0.0055656007
0.0056385048
0.0056768737
0.0055854973
0.0034141267
0.0002330382
0.00040660292
0.00087205224
0.00094397126
0.00098352309
0.0010098406
0.001026886
0.0010327799
0.00097214883
-0.00041480052
0.001223917
-0.00060072915
-0.00025437115
-0.00022547405
-0.00019384893
-0.00015228824
-7.4724048e-05
0.00012533549
0.0006933464
0.00087463899
-0.0022481364
-0.0044655686
-0.0038020712
-0.0036791649
-0.0035558177
-0.0034042176
-0.0031705564
-0.0026955722
-0.0013938375
-0.00037949369
-0.0054802949
-0.0049174123
-0.0046938912
-0.0045311187
-0.004366284
-0.0041746055
-0.0039332404
-0.0036246396
-0.0030341845
-0.0021755799
-0.0017548295
-0.0016640461
-0.0015085759
-0.0013364389
-0.0011534271
-0.000950711
-0.0007154944
-0.00046285541
-0.00021112889
-3.1575765e-05
0.00029623432
0.00040601304
0.00057118166
0.00076252624
0.00095690957
0.0011530805
0.0013571716
0.001563932
0.0017495503
0.0018550298
0.0022564259
0.0024351132
0.0026416872
0.0028681568
0.0030796199
0.0032684188
0.0034412496
0.0035960365
0.0037212751
0.0037907284
0.0040185329
0.0044349685
0.0047271782
0.0049849344
0.0052150338
0.0053957858
0.0055426515
0.005659617
0.0057419419
0.0057787439
0.005173717
0.0063258227
0.0069504358
0.0072248785
0.0074548013
0.0076172572
0.0077348269
0.0078165477
0.0078487504
0.0077640441
0.0031515091
0.0042754643
0.0054675876
0.0057245239
0.0058988672
0.0060156218
0.0060935591
0.0061347488
0.0060410556
0.003670908
0.00026311988
0.00044441247
0.00093934912
0.0010168155
0.0010590512
0.0010871352
0.0011053534
0.0011116699
0.0010488826
-0.00046842855
0.0012758619
-0.00062224825
-0.00026260005
-0.00023180399
-0.00019847091
-0.00015458169
-7.274086e-05
0.00013836708
0.00074108605
0.00092898833
-0.0023406835
-0.0046483765
-0.0039573966
-0.0038272731
-0.0036971064
-0.0035368541
-0.0032898593
-0.0027883339
-0.0014078044
-0.00034389331
-0.0056912169
-0.0051055505
-0.0048701135
-0.0046983592
-0.004524259
-0.0043215733
-0.0040660881
-0.0037397978
-0.0031138292
-0.0022079687
-0.0017735543
-0.0016773606
-0.0015132642
-0.0013315061
-0.0011381354
-0.0009238306
-0.00067501118
-0.00040789003
-0.0001410795
4.9710374e-05
0.00039865942
0.00051449287
0.00068907837
0.00089127881
0.0010967539
0.0013041806
0.0015200471
0.001738648
0.0019348657
0.0020463671
0.0024737454
0.0026623405
0.0028809925
0.0031205113
0.0033441168
0.0035438046
0.0037266355
0.0038903956
0.0040228891
0.0040963198
0.004341258
0.0047806812
0.0050897783
0.0053624566
0.0056057188
0.005796924
0.0059523098
0.0060761245
0.0061633963
0.0062023613
0.005569747
0.0067904874
0.0074518019
0.0077427463
0.0079857336
0.0081575649
0.0082819872
0.0083686514
0.0084037542
0.0083169667
0.0034046971
0.004590629
0.0058491377
0.0061224581
0.0063067381
0.0064301772
0.0065126623
0.006556414
0.0064609776
0.003906667
0.00029195732
0.00047985961
0.0010012314
0.0010837666
0.0011284246
0.0011581009
0.0011773784
0.0011840775
0.0011195201
-0.00051879624
0.0013202173
-0.00063965504
-0.0002689341
-0.00023642929
-0.00020159424
-0.00015564762
-7.0035325e-05
0.00015081891
0.00078452954
0.00097788277
-0.0024175991
-0.0048013262
-0.0040871246
-0.0039505876
-0.003814406
-0.0036464918
-0.0033876886
-0.0028627163
-0.0014119053
-0.00030498742
-0.0058651847
-0.0052603461
-0.0050144461
-0.0048347715
-0.0046524822
-0.0044400426
-0.0041720163
-0.0038300519
-0.003172432
-0.0022249022
-0.0017789961
-0.0016779863
-0.0015062776
-0.0013160223
-0.0011134893
-0.00088892193
-0.00062803871
-0.00034808696
-6.7841262e-05
0.00013300709
0.00050122812
0.00062240062
0.00080532394
0.0010171295
0.0012324243
0.0014498224
0.0016761277
0.0019052161
0.0021108191
0.0022276527
0.0026784159
0.0028757543
0.0031051333
0.0033562201
0.0035905839
0.0037999235
0.0039916214
0.0041633395
0.0043022665
0.0043792197
0.004639569
0.0050992688
0.0054233446
0.0057092596
0.0059641795
0.0061646533
0.0063275956
0.0064574908
0.0065491671
0.0065900527
0.0059333076
0.0072151549
0.0079090909
0.0082147393
0.0084692884
0.0086494306
0.0087799335
0.0088710021
0.0089087849
0.0088204493
0.0036380972
0.004878693
0.006195826
0.0064838427
0.0066769201
0.0068062792
0.0068928002
0.0069388411
0.0068422473
0.0041195232
0.00031927147
0.00051262471
0.0010572167
0.0011443112
0.0011911156
0.0012222003
0.0012424177
0.0012494574
0.0011835273
-0.00056569205
0.0013566352
-0.00065291643
-0.00027340845
-0.00023939553
-0.00020327358
-0.00015555321
-6.6697657e-05
0.00016254089
0.00082333585
0.0010209478
-0.0024787315
-0.004923797
-0.0041907774
-0.0040486697
-0.0039073141
-0.0037327747
-0.0034637603
-0.0029185792
-0.0014064327
-0.00026333326
-0.0060016261
-0.0053813448
-0.0051264988
-0.0049400131
-0.0047506608
-0.0045297795
-0.0042508671
-0.0038953392
-0.0032101244
-0.0022267682
-0.0017717495
-0.0016665472
-0.0014882862
-0.0012907092
-0.0010802653
-0.0008468232
-0.00057548793
-0.00028443466
7.5158536e-06
0.00021718308
0.00060261288
0.00072837634
0.0009185079
0.00113861
0.0013623939
0.0015884191
0.0018237643
0.0020619242
0.0022756419
0.002397086
0.0028684799
0.0030733438
0.0033120337
0.0035731374
0.003816811
0.0040345078
0.0042338868
0.0044125007
0.0045570015
0.0046370013
0.0049109972
0.0053881384
0.0057251928
0.0060225787
0.0062875813
0.0064960839
0.0066655742
0.0068007457
0.0068962582
0.006938811
0.0062616555
0.0075967058
0.0083189831
0.0086374485
0.0089019869
0.0090893261
0.0092251015
0.0093200102
0.0093602373
0.009270897
0.0038499465
0.0051375569
0.0065051925
0.0068061279
0.0070068102
0.0071412896
0.0072313108
0.007279355
0.0071821976
0.0043078473
0.00034481932
0.00054243127
0.0011068857
0.0011980021
0.0012466638
0.0012789648
0.001299997
0.0013073334
0.0012404368
-0.00060890013
0.0013848359
-0.00066200592
-0.00027605074
-0.00024073957
-0.00020355365
-0.00015435399
-6.2803243e-05
0.00017340604
0.00085721114
0.0010578633
-0.0025239442
-0.0050152741
-0.004267956
-0.0041211545
-0.0039754971
-0.0037954097
-0.0035178437
-0.002955816
-0.0013916577
-0.00021942463
-0.0061000735
-0.0054681739
-0.0052059538
-0.0050138079
-0.0048185613
-0.0045906017
-0.0043025245
-0.0039356265
-0.0032270428
-0.0022139234
-0.0017523293
-0.0016435837
-0.0014598704
-0.0012561912
-0.0010391359
-0.00079826043
-0.00051814816
-0.00021778984
8.4063822e-05
0.00030125641
0.00070166809
0.00083124646
0.0010274129
0.0012544527
0.0014853436
0.0017186
0.0019615315
0.0022072923
0.0024278052
0.00255311
0.0030422448
0.0032533704
0.0034998982
0.0037694073
0.004020886
0.0042455951
0.0044514234
0.0046358293
0.004785011
0.0048675632
0.0051533986
0.0056450386
0.0059929922
0.0063000138
0.0065734628
0.0067887062
0.006963697
0.007103309
0.0072020671
0.0072460238
0.0065523917
0.0079324133
0.0086785777
0.0090078951
0.0092807897
0.0094741687
0.0096143774
0.0097125388
0.0097549605
0.0096651655
0.0040386979
0.0053653838
0.0067750893
0.007087087
0.0072941355
0.0074329046
0.0075258694
0.0075756194
0.0074784961
0.0044702419
0.00036838792
0.00056904011
0.0011498766
0.001244453
0.0012946717
0.0013279896
0.0013497064
0.0013572941
0.0012898431
-0.00064820876
0.0014046035
-0.00066690913
-0.00027688632
-0.0002404947
-0.00020247421
-0.00015209875
-5.8417412e-05
0.00018330614
0.00088590539
0.0010883607
-0.0025531397
-0.0050753744
-0.0043183656
-0.0041677756
-0.0040187151
-0.0038341906
-0.003549785
-0.0029743765
-0.0013678503
-0.00017371118
-0.0061602015
-0.0055205799
-0.0052526027
-0.005055982
-0.0048560458
-0.0046224144
-0.0043269495
-0.0039509446
-0.0032233613
-0.0021867255
-0.0017212101
-0.001609592
-0.0014215597
-0.0012130351
-0.00099070781
-0.00074388549
-0.00045672469
-0.00014891446
0.00016098021
0.00038435852
0.0007973898
0.00092998374
0.0011309748
0.0013635513
0.0016001244
0.0018391721
0.0020881904
0.0023400355
0.0025659826
0.0026943751
0.0031982459
0.0034143311
0.0036671761
0.0039434275
0.0042011592
0.0044314936
0.0046425003
0.0048315597
0.0049845013
0.0050690962
0.0053649233
0.0058680306
0.0062247374
0.0065395005
0.0068197085
0.0070403638
0.0072197746
0.0073629649
0.0074643582
0.0075094473
0.0068034415
0.0082199257
0.0089853761
0.0093235139
0.009603081
0.0098013061
0.009945082
0.01004589
0.010090243
0.010000547
0.0042030061
0.0055605879
0.0070036714
0.007324807
0.0075369444
0.0076791466
0.0077744809
0.0078256289
0.0077291378
0.004605527
0.00038979021
0.0005922455
0.001185883
0.001283336
0.0013348019
0.001368931
0.0013911984
0.0013989904
0.0013314007
-0.00068341682
0.0014157844
-0.00066762771
-0.00027594192
-0.00023869431
-0.00020007374
-0.00014883316
-5.359892e-05
0.00019214852
0.00090921007
0.0011122202
-0.0025662768
-0.0051038662
-0.004341834
-0.0041883843
-0.0040368401
-0.0038490166
-0.0035595252
-0.0029742838
-0.001335295
-0.0001266122
-0.0061818559
-0.0055384557
-0.0052663739
-0.005066491
-0.0048630986
-0.0046252365
-0.0043242062
-0.0039414132
-0.0031993167
-0.002145556
-0.0016788562
-0.0015650539
-0.0013738623
-0.0011617786
-0.000935551
-0.00068430449
-0.00039186653
-7.8503038e-05
0.00023752127
0.00046570774
0.00088888584
0.0010236776
0.0012282535
0.0014649321
0.0017057277
0.0019490919
0.0022026608
0.0024590362
0.0026890238
0.0028197118
0.0033352194
0.0035549316
0.0038125343
0.0040938241
0.0043562188
0.0045907571
0.0048056403
0.0049981865
0.0051539441
0.0052400597
0.0055439946
0.0060554671
0.0064187273
0.0067392904
0.0070245288
0.0072492347
0.0074319582
0.0075778428
0.0076812454
0.0077271884
0.0070130404
0.0084572539
0.0092372706
0.0095821434
0.0098666584
0.010068506
0.010214962
0.010317794
0.010363805
0.010274759
0.0043417191
0.0057218266
0.0071893907
0.0075176838
0.0077336015
0.0078783593
0.0079754747
0.0080277049
0.0079324403
0.0047127315
0.00040886227
0.00061187242
0.0012146508
0.0013143795
0.0013667751
0.0014015049
0.0014241856
0.0014321336
0.0013648218
-0.00071433892
0.0014182842
-0.00066418243
-0.00027324854
-0.00023537461
-0.00019639215
-0.00014460242
-4.8402503e-05
0.00019985363
0.00092695653
0.0011292699
-0.0025633843
-0.0051006835
-0.004338326
-0.0041829629
-0.0040298696
-0.0038399053
-0.0035471132
-0.0029556475
-0.0012943011
-7.8526702e-05
-0.0061650736
-0.0055218618
-0.005247353
-0.0050454406
-0.0048398463
-0.0045992204
-0.0042944811
-0.0039072605
-0.0031552266
-0.0020908379
-0.0016257439
-0.0015104592
-0.0013172874
-0.0011029526
-0.00087421986
-0.00062009879
-0.00032418724
-7.2030473e-06
0.00031300202
0.00054458956
0.00097535366
0.0011115119
0.0013184113
0.0015577321
0.0018012651
0.0020474447
0.002304
0.0025633246
0.002795934
0.0029281116
0.0034520822
0.0036740667
0.0039348386
0.0042194318
0.0044848712
0.0047221667
0.0049396007
0.005134446
0.0052920586
0.0053791639
0.0056892932
0.0062059773
0.006573551
0.0068979372
0.0071864467
0.007413817
0.007598726
0.0077464049
0.0078511786
0.0078976921
0.0071797255
0.008642764
0.0094325375
0.0097820186
0.010069727
0.010273953
0.010422185
0.010526405
0.01057379
0.010485944
0.0044538718
0.0058479962
0.0073309926
0.0076644188
0.0078827852
0.0080292058
0.0081275031
0.0081804931
0.0080870419
0.004791086
0.0004254613
0.00062777465
0.0012359776
0.0013373671
0.0013903693
0.0014254855
0.0014484395
0.0014564945
0.0013898755
-0.00074080942
0.0014120669
-0.00065661531
-0.00026884358
-0.00023057686
-0.00019147286
-0.00013945335
-4.2880896e-05
0.00020635332
0.00093901471
0.0011393839
-0.0025445705
-0.0050659361
-0.0043079537
-0.0041516351
-0.0039979367
-0.003807003
-0.0035127157
-0.0029186724
-0.0012452113
-2.9840945e-05
-0.0061100989
-0.0054710413
-0.005195798
-0.0049931012
-0.0047865728
-0.0045446669
-0.0042380979
-0.0038488372
-0.0030915025
-0.0020230483
-0.0015623781
-0.001446322
-0.001252361
-0.0010370968
-0.00080726957
-0.00055184105
-0.0002542807
6.4369556e-05
0.00038678093
0.00062034158
0.0010560633
0.0011927486
0.0014006954
0.0016411828
0.0018859512
0.002133428
0.0023913875
0.0026520621
0.0028858589
0.003018711
0.0035479171
0.003770805
0.0040331381
0.00431928
0.004586127
0.0048247163
0.0050433601
0.0052393027
0.0053977983
0.005485356
0.0057997458
0.0063184558
0.0066880765
0.0070142855
0.0073042871
0.0075329196
0.0077188735
0.0078674358
0.0079729344
0.0080197314
0.0073023279
0.0087751713
0.0095698323
0.0099217667
0.010210894
0.010416238
0.010565332
0.010670299
0.010718765
0.01063266
0.0045386823
0.0059382281
0.0074275137
0.0077640171
0.0079834857
0.0081306661
0.008229539
0.0082829617
0.0081918999
0.0048400177
0.00043946418
0.00063983337
0.0012497111
0.0013521362
0.0014054181
0.0014407043
0.0014637899
0.0014719023
0.0014063868
-0.00076268579
0.0013971522
-0.00064499128
-0.00026277248
-0.00022434891
-0.00018536449
-0.00013343592
-3.7086363e-05
0.00021158931
0.00094529208
0.0011424818
-0.0025100309
-0.004999918
-0.004250984
-0.0040946737
-0.0039413179
-0.0037505921
-0.0034566239
-0.0028636656
-0.0011884073
1.9065766e-05
-0.006017395
-0.0053864314
-0.0051121507
-0.0049099193
-0.0047037303
-0.0044620361
-0.0041555275
-0.0037666269
-0.0030086607
-0.0019427284
-0.0014893059
-0.0013731939
-0.0011796398
-0.00096477354
-0.0007352689
-0.00048010791
-0.00018273349
0.00013561805
0.0004582478
0.00069234151
0.0011303438
0.0012667133
0.0014744254
0.0017145965
0.0019590911
0.0022063391
0.0024641122
0.0027245293
0.002958072
0.0030907795
0.0036219597
0.0038443769
0.0041066537
0.0043925798
0.004659189
0.004897601
0.0051161063
0.005311938
0.0054703392
0.0055578094
0.0058745149
0.0063920528
0.0067614415
0.007087462
0.0073771674
0.0076056523
0.0077915045
0.007940034
0.0080456069
0.0080923989
0.0073799678
0.0088535354
0.0096481844
0.010000402
0.010289166
0.010494362
0.010643399
0.010748464
0.010797712
0.010713879
0.0045955479
0.0059918866
0.0074782792
0.0078157851
0.0080350027
0.0081820353
0.0082808741
0.0083344002
0.008246289
0.0048591462
0.00045076624
0.00064795594
0.0012557483
0.0013585775
0.0014118107
0.0014470492
0.0014701242
0.0014782439
0.0014142357
-0.00077985136
0.0013736147
-0.00062939952
-0.00025509018
-0.00021674666
-0.00017812217
-0.00012660471
-3.1072066e-05
0.00021551188
0.00094573252
0.001138527
-0.0024600549
-0.0049031122
-0.0041678441
-0.004012506
-0.0038604382
-0.0036710963
-0.0033792597
-0.0027910421
-0.0011243151
6.7816114e-05
-0.0058876518
-0.0052686725
-0.0049970456
-0.0047965265
-0.0045919482
-0.0043519558
-0.0040473973
-0.0036612546
-0.0029073301
-0.0018504914
-0.0014071275
-0.0012916755
-0.0010997216
-0.00088657804
-0.00065881104
-0.00040549079
-0.00011013576