/*--------------------------------*- C++ -*----------------------------------*\
| =========                 |                                                 |
| \\      /  F ield         | OpenFOAM: The Open Source CFD Toolbox           |
|  \\    /   O peration     | Version:  v2106                                 |
|   \\  /    A nd           | Website:  www.openfoam.com                      |
|    \\/     M anipulation  |                                                 |
\*---------------------------------------------------------------------------*/
FoamFile
{
    version     2.0;
    format      ascii;
    arch        "LSB;label=32;scalar=64";
    class       volScalarField;
    location    "40";
    object      reconstruct_10;
}
// * * * * * * * * * * * * * * * * * * * * * * * * * * * * * * * * * * * * * //

dimensions      [0 0 0 0 0 0 0];

internalField   nonuniform List<scalar> 
4000
(
415.1897
415.1897
415.1897
415.1897
415.1897
415.1897
415.1897
415.1897
415.1897
415.1897
415.1897
415.1897
415.1897
415.1897
415.1897
415.1897
415.1897
415.1897
415.1897
415.1897
415.1897
415.1897
415.1897
415.1897
415.1897
415.1897
415.1897
415.1897
415.1897
415.1897
415.1897
415.1897
415.1897
415.1897
415.1897
415.1897
415.1897
415.1897
415.1897
415.1897
415.1897
415.1897
415.1897
415.1897
415.1897
415.1897
415.1897
415.1897
415.1897
415.1897
415.1897
415.1897
415.1897
415.1897
415.1897
415.1897
415.1897
415.1897
415.1897
415.1897
415.1897
415.1897
415.1897
415.1897
415.1897
415.1897
415.1897
415.1897
415.1897
415.1897
415.1897
415.1897
415.1897
415.1897
415.1897
415.1897
415.1897
415.1897
415.1897
415.1897
415.1897
415.1897
415.1897
415.1897
415.1897
415.1897
415.1897
415.1897
415.1897
415.1897
415.1897
415.1897
415.1897
415.1897
415.1897
415.1897
415.1897
415.1897
415.1897
415.1897
402.8326
402.8326
402.8326
402.8327
402.8327
402.8327
402.8327
402.8326
402.8326
402.8326
402.8326
402.8326
402.8327
402.8327
402.8327
402.8327
402.8327
402.8326
402.8326
402.8326
402.8326
402.8327
402.8327
402.8328
402.8328
402.8327
402.8327
402.8326
402.8326
402.8326
402.8327
402.8327
402.8328
402.8328
402.8328
402.8328
402.8327
402.8327
402.8327
402.8327
402.8327
402.8327
402.8328
402.8328
402.8328
402.8328
402.8328
402.8327
402.8327
402.8327
402.8327
402.8327
402.8327
402.8328
402.8328
402.8328
402.8327
402.8327
402.8327
402.8327
402.8327
402.8327
402.8327
402.8327
402.8328
402.8327
402.8327
402.8327
402.8327
402.8327
402.8326
402.8326
402.8326
402.8327
402.8327
402.8327
402.8327
402.8327
402.8327
402.8327
402.8326
402.8326
402.8326
402.8327
402.8327
402.8327
402.8327
402.8327
402.8327
402.8327
402.8326
402.8326
402.8326
402.8327
402.8327
402.8327
402.8327
402.8327
402.8327
402.8327
390.5655
390.5655
390.5655
390.5656
390.5656
390.5656
390.5655
390.5654
390.5654
390.5654
390.5655
390.5655
390.5655
390.5656
390.5656
390.5656
390.5655
390.5655
390.5654
390.5654
390.5655
390.5655
390.5656
390.5657
390.5657
390.5656
390.5655
390.5655
390.5655
390.5654
390.5656
390.5656
390.5657
390.5657
390.5657
390.5657
390.5656
390.5656
390.5655
390.5655
390.5656
390.5656
390.5657
390.5657
390.5657
390.5657
390.5656
390.5656
390.5656
390.5655
390.5656
390.5656
390.5656
390.5657
390.5657
390.5657
390.5656
390.5656
390.5656
390.5656
390.5655
390.5655
390.5655
390.5656
390.5656
390.5656
390.5656
390.5656
390.5656
390.5656
390.5654
390.5655
390.5655
390.5656
390.5656
390.5656
390.5656
390.5656
390.5655
390.5655
390.5654
390.5654
390.5655
390.5655
390.5656
390.5656
390.5656
390.5655
390.5655
390.5655
390.5654
390.5654
390.5654
390.5655
390.5655
390.5656
390.5656
390.5655
390.5655
390.5655
378.4489
378.4489
378.4489
378.449
378.449
378.449
378.4489
378.4488
378.4488
378.4487
378.4489
378.4489
378.449
378.4491
378.4491
378.449
378.4489
378.4488
378.4488
378.4488
378.4489
378.449
378.4491
378.4491
378.4491
378.449
378.449
378.4489
378.4488
378.4488
378.449
378.4491
378.4491
378.4492
378.4492
378.4491
378.4491
378.449
378.4489
378.4489
378.449
378.4491
378.4491
378.4492
378.4492
378.4491
378.4491
378.449
378.449
378.449
378.449
378.449
378.449
378.4491
378.4491
378.4491
378.4491
378.449
378.449
378.449
378.4489
378.4489
378.449
378.4491
378.4491
378.4491
378.4491
378.449
378.449
378.449
378.4488
378.4488
378.4489
378.449
378.449
378.449
378.449
378.449
378.449
378.4489
378.4488
378.4488
378.4488
378.4489
378.449
378.449
378.449
378.449
378.4489
378.4489
378.4487
378.4488
378.4488
378.4489
378.449
378.449
378.449
378.4489
378.4489
378.4489
366.5447
366.5447
366.5447
366.5449
366.5449
366.5448
366.5447
366.5446
366.5446
366.5445
366.5447
366.5447
366.5448
366.5449
366.5449
366.5448
366.5447
366.5446
366.5446
366.5446
366.5447
366.5448
366.5449
366.545
366.545
366.5449
366.5448
366.5447
366.5446
366.5446
366.5449
366.5449
366.545
366.5451
366.5451
366.545
366.5449
366.5448
366.5448
366.5447
366.5449
366.5449
366.545
366.5451
366.5451
366.545
366.545
366.5449
366.5448
366.5448
366.5448
366.5448
366.5449
366.545
366.545
366.545
366.545
366.5449
366.5449
366.5448
366.5447
366.5447
366.5448
366.5449
366.545
366.545
366.545
366.5449
366.5449
366.5448
366.5446
366.5446
366.5447
366.5448
366.5449
366.5449
366.5449
366.5449
366.5448
366.5448
366.5446
366.5446
366.5446
366.5448
366.5448
366.5449
366.5449
366.5448
366.5447
366.5447
366.5445
366.5446
366.5446
366.5447
366.5448
366.5448
366.5448
366.5448
366.5447
366.5447
354.9164
354.9164
354.9165
354.9166
354.9166
354.9165
354.9164
354.9163
354.9163
354.9162
354.9164
354.9164
354.9165
354.9167
354.9167
354.9166
354.9165
354.9164
354.9163
354.9163
354.9165
354.9165
354.9166
354.9168
354.9167
354.9167
354.9166
354.9164
354.9164
354.9163
354.9166
354.9167
354.9168
354.9169
354.9169
354.9168
354.9167
354.9166
354.9165
354.9165
354.9166
354.9167
354.9167
354.9169
354.9169
354.9168
354.9168
354.9167
354.9166
354.9166
354.9165
354.9166
354.9167
354.9168
354.9168
354.9168
354.9168
354.9167
354.9166
354.9166
354.9164
354.9165
354.9166
354.9167
354.9168
354.9168
354.9168
354.9167
354.9166
354.9166
354.9163
354.9164
354.9164
354.9166
354.9167
354.9167
354.9167
354.9166
354.9165
354.9165
354.9163
354.9163
354.9164
354.9165
354.9166
354.9166
354.9166
354.9165
354.9165
354.9164
354.9162
354.9163
354.9163
354.9165
354.9166
354.9166
354.9166
354.9165
354.9164
354.9164
343.6296
343.6297
343.6297
343.6299
343.6299
343.6298
343.6297
343.6296
343.6295
343.6294
343.6297
343.6297
343.6298
343.6299
343.6299
343.6298
343.6297
343.6296
343.6295
343.6295
343.6297
343.6298
343.6299
343.63
343.63
343.6299
343.6298
343.6297
343.6296
343.6296
343.6299
343.6299
343.63
343.6302
343.6302
343.6301
343.63
343.6299
343.6298
343.6297
343.6299
343.6299
343.63
343.6302
343.6302
343.6302
343.6301
343.63
343.6299
343.6299
343.6298
343.6298
343.6299
343.6301
343.6302
343.6302
343.6301
343.6301
343.63
343.6299
343.6297
343.6297
343.6298
343.63
343.6301
343.6301
343.6301
343.63
343.63
343.6299
343.6296
343.6296
343.6297
343.6299
343.63
343.6301
343.63
343.63
343.6298
343.6298
343.6295
343.6295
343.6296
343.6298
343.6299
343.63
343.63
343.6298
343.6297
343.6297
343.6294
343.6295
343.6296
343.6297
343.6299
343.6299
343.6299
343.6298
343.6297
343.6297
332.7526
332.7526
332.7527
332.7529
332.7529
332.7528
332.7527
332.7525
332.7524
332.7524
332.7526
332.7526
332.7527
332.7529
332.7529
332.7528
332.7527
332.7526
332.7525
332.7525
332.7527
332.7527
332.7529
332.753
332.753
332.7529
332.7528
332.7527
332.7526
332.7526
332.7529
332.7529
332.753
332.7532
332.7532
332.7531
332.7531
332.7529
332.7528
332.7527
332.7529
332.7529
332.753
332.7532
332.7532
332.7532
332.7532
332.753
332.7529
332.7529
332.7528
332.7528
332.7529
332.7531
332.7532
332.7533
332.7532
332.7531
332.753
332.753
332.7527
332.7527
332.7528
332.7531
332.7532
332.7532
332.7532
332.7531
332.753
332.753
332.7525
332.7526
332.7527
332.7529
332.753
332.7531
332.7531
332.753
332.7529
332.7528
332.7524
332.7525
332.7526
332.7528
332.7529
332.753
332.753
332.7529
332.7528
332.7528
332.7524
332.7525
332.7526
332.7527
332.7529
332.753
332.753
332.7528
332.7528
332.7527
322.3565
322.3566
322.3566
322.3568
322.3569
322.3568
322.3567
322.3565
322.3564
322.3564
322.3566
322.3565
322.3567
322.3569
322.3569
322.3568
322.3567
322.3565
322.3565
322.3564
322.3566
322.3567
322.3568
322.357
322.3571
322.357
322.3569
322.3567
322.3566
322.3566
322.3568
322.3569
322.357
322.3572
322.3572
322.3572
322.3571
322.3569
322.3568
322.3568
322.3569
322.3569
322.3571
322.3572
322.3573
322.3573
322.3572
322.3571
322.357
322.3569
322.3568
322.3568
322.357
322.3572
322.3573
322.3573
322.3573
322.3572
322.3571
322.3571
322.3567
322.3567
322.3569
322.3571
322.3572
322.3573
322.3574
322.3572
322.3571
322.357
322.3565
322.3565
322.3567
322.3569
322.3571
322.3572
322.3572
322.3571
322.357
322.3569
322.3564
322.3565
322.3566
322.3568
322.357
322.3571
322.3571
322.357
322.3568
322.3568
322.3564
322.3564
322.3566
322.3568
322.3569
322.3571
322.357
322.3569
322.3568
322.3568
312.5163
312.5163
312.5164
312.5167
312.5167
312.5166
312.5165
312.5163
312.5162
312.5162
312.5163
312.5164
312.5165
312.5167
312.5168
312.5167
312.5166
312.5164
312.5163
312.5163
312.5164
312.5165
312.5167
312.5169
312.5169
312.5168
312.5167
312.5165
312.5164
312.5164
312.5167
312.5167
312.5169
312.5171
312.5171
312.5171
312.517
312.5168
312.5167
312.5167
312.5167
312.5168
312.5169
312.5171
312.5172
312.5172
312.5172
312.517
312.5169
312.5169
312.5166
312.5167
312.5168
312.5171
312.5172
312.5173
312.5173
312.5172
312.517
312.517
312.5165
312.5166
312.5167
312.517
312.5172
312.5173
312.5173
312.5172
312.5171
312.517
312.5163
312.5164
312.5165
312.5168
312.517
312.5172
312.5172
312.517
312.5169
312.5168
312.5162
312.5163
312.5164
312.5167
312.5169
312.517
312.5171
312.5169
312.5167
312.5167
312.5162
312.5163
312.5164
312.5167
312.5169
312.517
312.517
312.5168
312.5167
312.5167
303.3108
303.3109
303.311
303.3112
303.3113
303.3112
303.3111
303.3109
303.3108
303.3107
303.3109
303.3109
303.3111
303.3113
303.3114
303.3113
303.3112
303.311
303.3109
303.3109
303.311
303.3111
303.3112
303.3115
303.3115
303.3115
303.3114
303.3111
303.311
303.311
303.3112
303.3113
303.3115
303.3117
303.3118
303.3117
303.3117
303.3115
303.3113
303.3113
303.3113
303.3114
303.3115
303.3118
303.3119
303.3119
303.3119
303.3117
303.3116
303.3115
303.3112
303.3113
303.3115
303.3117
303.3119
303.312
303.312
303.3119
303.3118
303.3117
303.3111
303.3112
303.3114
303.3117
303.3119
303.312
303.312
303.3119
303.3117
303.3117
303.3109
303.311
303.3111
303.3115
303.3117
303.3119
303.3119
303.3118
303.3116
303.3115
303.3108
303.3109
303.311
303.3113
303.3116
303.3118
303.3117
303.3116
303.3114
303.3114
303.3107
303.3109
303.311
303.3113
303.3115
303.3117
303.3117
303.3115
303.3114
303.3114
294.8236
294.8236
294.8237
294.824
294.8241
294.824
294.8239
294.8237
294.8236
294.8235
294.8236
294.8236
294.8238
294.8241
294.8242
294.8241
294.824
294.8238
294.8236
294.8236
294.8237
294.8238
294.824
294.8242
294.8243
294.8243
294.8242
294.824
294.8239
294.8238
294.824
294.8241
294.8242
294.8245
294.8246
294.8246
294.8245
294.8243
294.8242
294.8241
294.8241
294.8242
294.8243
294.8246
294.8247
294.8248
294.8248
294.8246
294.8244
294.8244
294.824
294.8241
294.8243
294.8246
294.8248
294.8249
294.8249
294.8248
294.8246
294.8246
294.8239
294.824
294.8242
294.8245
294.8248
294.8249
294.825
294.8248
294.8247
294.8246
294.8237
294.8238
294.824
294.8243
294.8246
294.8248
294.8248
294.8246
294.8245
294.8244
294.8236
294.8236
294.8239
294.8242
294.8244
294.8246
294.8247
294.8245
294.8243
294.8243
294.8235
294.8236
294.8238
294.8241
294.8244
294.8246
294.8246
294.8244
294.8243
294.8242
287.143
287.1431
287.1432
287.1435
287.1436
287.1435
287.1434
287.1432
287.1431
287.143
287.1431
287.1431
287.1433
287.1436
287.1437
287.1436
287.1435
287.1433
287.1432
287.1431
287.1432
287.1433
287.1435
287.1437
287.1439
287.1438
287.1437
287.1435
287.1434
287.1433
287.1435
287.1436
287.1437
287.144
287.1441
287.1441
287.1441
287.1439
287.1437
287.1437
287.1436
287.1437
287.1439
287.1441
287.1443
287.1444
287.1444
287.1442
287.144
287.144
287.1435
287.1436
287.1438
287.1441
287.1444
287.1445
287.1446
287.1444
287.1443
287.1442
287.1434
287.1435
287.1437
287.1441
287.1444
287.1446
287.1446
287.1445
287.1443
287.1442
287.1432
287.1433
287.1435
287.1439
287.1442
287.1444
287.1445
287.1443
287.1441
287.1439
287.1431
287.1432
287.1434
287.1437
287.144
287.1443
287.1443
287.1441
287.1439
287.1439
287.143
287.1431
287.1433
287.1437
287.144
287.1442
287.1442
287.1439
287.1439
287.1438
280.3632
280.3632
280.3634
280.3637
280.3638
280.3638
280.3637
280.3635
280.3633
280.3633
280.3632
280.3633
280.3635
280.3638
280.3639
280.3639
280.3637
280.3635
280.3634
280.3634
280.3634
280.3635
280.3637
280.364
280.3641
280.3641
280.364
280.3638
280.3636
280.3637
280.3637
280.3638
280.364
280.3643
280.3645
280.3645
280.3644
280.3642
280.364
280.364
280.3638
280.3639
280.3641
280.3645
280.3647
280.3648
280.3647
280.3646
280.3644
280.3643
280.3638
280.3639
280.3641
280.3645
280.3648
280.3649
280.3649
280.3648
280.3646
280.3646
280.3637
280.3637
280.364
280.3644
280.3647
280.3649
280.365
280.3649
280.3647
280.3645
280.3635
280.3635
280.3638
280.3642
280.3646
280.3648
280.3649
280.3647
280.3644
280.3643
280.3633
280.3634
280.3636
280.364
280.3644
280.3646
280.3647
280.3644
280.3642
280.3642
280.3633
280.3634
280.3637
280.364
280.3643
280.3646
280.3645
280.3643
280.3642
280.3642
274.5843
274.5844
274.5845
274.5848
274.585
274.585
274.5848
274.5846
274.5845
274.5845
274.5844
274.5844
274.5846
274.5849
274.5851
274.585
274.5849
274.5847
274.5846
274.5846
274.5845
274.5846
274.5849
274.5852
274.5853
274.5853
274.5852
274.585
274.5848
274.5848
274.5848
274.5849
274.5852
274.5854
274.5856
274.5857
274.5856
274.5854
274.5853
274.5852
274.585
274.5851
274.5853
274.5856
274.5859
274.586
274.586
274.5858
274.5856
274.5856
274.585
274.585
274.5853
274.5857
274.586
274.5862
274.5862
274.5861
274.5859
274.5859
274.5848
274.5849
274.5852
274.5856
274.586
274.5862
274.5863
274.5861
274.586
274.5858
274.5846
274.5847
274.585
274.5854
274.5858
274.5861
274.5861
274.5859
274.5857
274.5856
274.5845
274.5846
274.5848
274.5853
274.5856
274.5859
274.586
274.5857
274.5855
274.5855
274.5845
274.5846
274.5848
274.5852
274.5856
274.5859
274.5858
274.5856
274.5855
274.5855
269.9129
269.913
269.9132
269.9135
269.9137
269.9137
269.9136
269.9134
269.9132
269.9132
269.913
269.913
269.9133
269.9136
269.9138
269.9138
269.9137
269.9135
269.9133
269.9133
269.9132
269.9133
269.9136
269.9139
269.9141
269.9141
269.914
269.9138
269.9136
269.9136
269.9135
269.9136
269.9139
269.9142
269.9144
269.9145
269.9144
269.9142
269.9141
269.914
269.9137
269.9138
269.9141
269.9144
269.9147
269.9149
269.9149
269.9147
269.9145
269.9144
269.9137
269.9138
269.9141
269.9145
269.9149
269.9151
269.9151
269.915
269.9148
269.9147
269.9136
269.9137
269.914
269.9144
269.9149
269.9151
269.9152
269.915
269.9148
269.9147
269.9134
269.9135
269.9138
269.9142
269.9147
269.915
269.915
269.9148
269.9146
269.9145
269.9132
269.9133
269.9136
269.9141
269.9145
269.9148
269.9148
269.9146
269.9144
269.9143
269.9132
269.9133
269.9136
269.914
269.9144
269.9147
269.9147
269.9145
269.9143
269.9143
266.463
266.463
266.4632
266.4636
266.4638
266.4638
266.4637
266.4635
266.4633
266.4633
266.463
266.4631
266.4633
266.4637
266.4639
266.4639
266.4638
266.4636
266.4635
266.4635
266.4632
266.4633
266.4636
266.464
266.4642
266.4642
266.4641
266.4639
266.4638
266.4637
266.4636
266.4637
266.464
266.4643
266.4646
266.4647
266.4646
266.4644
266.4642
266.4642
266.4638
266.4639
266.4642
266.4646
266.4649
266.4651
266.4651
266.4649
266.4647
266.4646
266.4638
266.4639
266.4642
266.4647
266.4651
266.4653
266.4654
266.4652
266.465
266.4649
266.4637
266.4638
266.4641
266.4646
266.4651
266.4654
266.4654
266.4653
266.4651
266.4649
266.4635
266.4636
266.4639
266.4644
266.4649
266.4652
266.4653
266.465
266.4648
266.4647
266.4633
266.4635
266.4638
266.4642
266.4647
266.465
266.4651
266.4648
266.4646
266.4646
266.4633
266.4635
266.4637
266.4642
266.4646
266.4649
266.4649
266.4647
266.4646
266.4645
264.3557
264.3557
264.3559
264.3563
264.3566
264.3566
264.3565
264.3563
264.3561
264.3561
264.3557
264.3558
264.3561
264.3564
264.3567
264.3567
264.3566
264.3564
264.3562
264.3562
264.3559
264.3561
264.3563
264.3567
264.3569
264.357
264.3569
264.3567
264.3566
264.3565
264.3563
264.3564
264.3567
264.3571
264.3574
264.3575
264.3574
264.3572
264.357
264.357
264.3566
264.3567
264.3569
264.3574
264.3577
264.3579
264.3579
264.3577
264.3575
264.3575
264.3566
264.3567
264.357
264.3575
264.3579
264.3582
264.3583
264.3581
264.3579
264.3578
264.3565
264.3566
264.3569
264.3574
264.3579
264.3583
264.3583
264.3582
264.358
264.3578
264.3563
264.3564
264.3567
264.3572
264.3577
264.3581
264.3582
264.358
264.3577
264.3576
264.3561
264.3562
264.3566
264.357
264.3575
264.3579
264.358
264.3577
264.3575
264.3575
264.3561
264.3562
264.3565
264.357
264.3575
264.3578
264.3578
264.3576
264.3575
264.3574
263.7203
263.7204
263.7206
263.7209
263.7212
263.7213
263.7212
263.721
263.7209
263.7208
263.7204
263.7204
263.7207
263.7211
263.7214
263.7214
263.7213
263.7211
263.721
263.721
263.7206
263.7207
263.721
263.7214
263.7217
263.7218
263.7217
263.7214
263.7213
263.7213
263.7209
263.7211
263.7214
263.7218
263.7221
263.7223
263.7222
263.722
263.7218
263.7218
263.7212
263.7214
263.7217
263.7221
263.7226
263.7227
263.7228
263.7226
263.7224
263.7223
263.7213
263.7214
263.7218
263.7223
263.7227
263.7231
263.7231
263.7229
263.7228
263.7227
263.7212
263.7213
263.7217
263.7222
263.7228
263.7231
263.7232
263.723
263.7228
263.7227
263.721
263.7211
263.7214
263.722
263.7226
263.7229
263.723
263.7228
263.7226
263.7224
263.7209
263.721
263.7213
263.7218
263.7224
263.7228
263.7228
263.7226
263.7223
263.7223
263.7208
263.721
263.7213
263.7218
263.7223
263.7227
263.7227
263.7224
263.7223
263.7222
264.6947
264.6947
264.6949
264.6953
264.6956
264.6957
264.6956
264.6954
264.6953
264.6953
264.6947
264.6948
264.6951
264.6955
264.6958
264.6959
264.6958
264.6956
264.6954
264.6954
264.6949
264.6951
264.6954
264.6958
264.6961
264.6962
264.6961
264.6959
264.6958
264.6958
264.6953
264.6955
264.6958
264.6962
264.6966
264.6968
264.6967
264.6965
264.6964
264.6963
264.6956
264.6958
264.6961
264.6966
264.6971
264.6973
264.6973
264.6971
264.697
264.6969
264.6957
264.6959
264.6962
264.6968
264.6973
264.6976
264.6977
264.6975
264.6973
264.6972
264.6956
264.6958
264.6961
264.6967
264.6973
264.6977
264.6978
264.6976
264.6974
264.6972
264.6954
264.6956
264.6959
264.6965
264.6971
264.6975
264.6976
264.6974
264.6971
264.697
264.6953
264.6954
264.6958
264.6964
264.697
264.6973
264.6974
264.6971
264.6969
264.6969
264.6953
264.6954
264.6958
264.6963
264.6969
264.6972
264.6972
264.697
264.6969
264.6968
267.4253
267.4254
267.4256
267.426
267.4263
267.4264
267.4264
267.4262
267.4261
267.426
267.4254
267.4255
267.4258
267.4262
267.4265
267.4266
267.4265
267.4263
267.4262
267.4262
267.4256
267.4258
267.4261
267.4265
267.4269
267.427
267.4269
267.4267
267.4266
267.4266
267.426
267.4262
267.4265
267.427
267.4274
267.4276
267.4275
267.4273
267.4271
267.4271
267.4263
267.4265
267.4269
267.4274
267.4278
267.4281
267.4281
267.4279
267.4278
267.4277
267.4264
267.4266
267.427
267.4276
267.4281
267.4285
267.4286
267.4284
267.4282
267.4281
267.4264
267.4265
267.4269
267.4275
267.4281
267.4286
267.4286
267.4284
267.4282
267.4281
267.4262
267.4263
267.4267
267.4273
267.4279
267.4284
267.4284
267.4282
267.428
267.4278
267.4261
267.4262
267.4266
267.4271
267.4278
267.4282
267.4282
267.428
267.4277
267.4277
267.426
267.4262
267.4266
267.4271
267.4277
267.4281
267.4281
267.4278
267.4277
267.4277
272.0679
272.068
272.0682
272.0686
272.069
272.0691
272.069
272.0689
272.0688
272.0687
272.068
272.068
272.0683
272.0688
272.0692
272.0693
272.0692
272.069
272.0689
272.0689
272.0682
272.0683
272.0687
272.0691
272.0696
272.0697
272.0696
272.0694
272.0693
272.0693
272.0686
272.0688
272.0691
272.0696
272.0701
272.0703
272.0702
272.07
272.0699
272.0699
272.069
272.0692
272.0696
272.0701
272.0706
272.0709
272.0709
272.0707
272.0705
272.0705
272.0691
272.0693
272.0697
272.0703
272.0709
272.0713
272.0713
272.0712
272.071
272.0709
272.069
272.0692
272.0696
272.0702
272.0709
272.0713
272.0715
272.0713
272.071
272.0708
272.0689
272.069
272.0694
272.07
272.0707
272.0712
272.0713
272.071
272.0708
272.0706
272.0688
272.0689
272.0693
272.0699
272.0705
272.071
272.071
272.0708
272.0706
272.0705
272.0687
272.0689
272.0693
272.0699
272.0705
272.0709
272.0708
272.0706
272.0705
272.0704
278.7874
278.7875
278.7878
278.7881
278.7886
278.7887
278.7886
278.7885
278.7884
278.7883
278.7875
278.7876
278.7879
278.7883
278.7888
278.7889
278.7888
278.7887
278.7885
278.7885
278.7878
278.7879
278.7882
278.7887
278.7891
278.7893
278.7892
278.7891
278.7889
278.789
278.7881
278.7883
278.7887
278.7892
278.7897
278.7899
278.7899
278.7897
278.7896
278.7895
278.7886
278.7888
278.7891
278.7897
278.7903
278.7906
278.7906
278.7904
278.7902
278.7902
278.7887
278.7889
278.7893
278.7899
278.7906
278.791
278.7911
278.7909
278.7907
278.7906
278.7886
278.7888
278.7892
278.7899
278.7906
278.7911
278.7911
278.791
278.7907
278.7906
278.7885
278.7887
278.7891
278.7897
278.7904
278.7909
278.791
278.7907
278.7905
278.7903
278.7884
278.7885
278.7889
278.7896
278.7902
278.7907
278.7907
278.7905
278.7903
278.7902
278.7883
278.7885
278.789
278.7895
278.7902
278.7906
278.7906
278.7903
278.7902
278.7901
287.7581
287.7582
287.7585
287.7589
287.7593
287.7595
287.7594
287.7593
287.7592
287.7592
287.7582
287.7583
287.7586
287.7591
287.7595
287.7597
287.7597
287.7595
287.7594
287.7593
287.7585
287.7586
287.759
287.7595
287.7599
287.7601
287.7601
287.7599
287.7598
287.7598
287.7589
287.7591
287.7595
287.76
287.7605
287.7608
287.7607
287.7605
287.7604
287.7604
287.7593
287.7595
287.7599
287.7605
287.7611
287.7614
287.7615
287.7613
287.7611
287.761
287.7595
287.7597
287.7601
287.7608
287.7614
287.7619
287.7619
287.7618
287.7616
287.7614
287.7594
287.7597
287.7601
287.7607
287.7615
287.7619
287.7621
287.7619
287.7616
287.7614
287.7593
287.7595
287.7599
287.7605
287.7613
287.7618
287.7619
287.7616
287.7614
287.7612
287.7592
287.7594
287.7598
287.7604
287.7611
287.7616
287.7616
287.7614
287.7612
287.7611
287.7592
287.7593
287.7598
287.7604
287.761
287.7614
287.7614
287.7612
287.7611
287.7611
299.1633
299.1634
299.1637
299.1641
299.1646
299.1648
299.1648
299.1646
299.1645
299.1645
299.1634
299.1635
299.1639
299.1643
299.1648
299.165
299.165
299.1648
299.1647
299.1647
299.1637
299.1639
299.1642
299.1647
299.1652
299.1655
299.1654
299.1653
299.1651
299.1651
299.1641
299.1643
299.1647
299.1653
299.1658
299.1661
299.1661
299.1659
299.1658
299.1658
299.1646
299.1648
299.1652
299.1658
299.1664
299.1668
299.1668
299.1666
299.1665
299.1664
299.1648
299.165
299.1655
299.1661
299.1668
299.1673
299.1673
299.1672
299.167
299.1668
299.1648
299.165
299.1654
299.1661
299.1668
299.1673
299.1675
299.1673
299.167
299.1668
299.1646
299.1648
299.1653
299.1659
299.1666
299.1672
299.1673
299.167
299.1668
299.1666
299.1645
299.1647
299.1651
299.1658
299.1665
299.167
299.167
299.1668
299.1666
299.1665
299.1645
299.1647
299.1651
299.1658
299.1664
299.1668
299.1668
299.1666
299.1665
299.1664
313.1948
313.1949
313.1952
313.1956
313.1961
313.1964
313.1964
313.1962
313.1961
313.1961
313.1949
313.1951
313.1954
313.1959
313.1964
313.1966
313.1966
313.1964
313.1963
313.1963
313.1952
313.1954
313.1958
313.1963
313.1968
313.1971
313.197
313.1969
313.1968
313.1968
313.1956
313.1959
313.1963
313.1968
313.1974
313.1977
313.1977
313.1975
313.1974
313.1974
313.1961
313.1964
313.1968
313.1974
313.1981
313.1985
313.1985
313.1983
313.1982
313.1981
313.1964
313.1966
313.1971
313.1977
313.1985
313.1989
313.199
313.1988
313.1987
313.1985
313.1964
313.1966
313.197
313.1977
313.1985
313.199
313.1991
313.1989
313.1987
313.1985
313.1962
313.1964
313.1969
313.1975
313.1983
313.1988
313.1989
313.1987
313.1984
313.1983
313.1961
313.1963
313.1968
313.1974
313.1982
313.1987
313.1987
313.1984
313.1983
313.1982
313.1961
313.1963
313.1968
313.1974
313.1981
313.1985
313.1985
313.1983
313.1982
313.1981
330.0517
330.0518
330.0521
330.0525
330.053
330.0533
330.0533
330.0532
330.0531
330.0531
330.0518
330.0519
330.0523
330.0527
330.0533
330.0535
330.0535
330.0534
330.0533
330.0533
330.0521
330.0523
330.0526
330.0532
330.0537
330.054
330.054
330.0538
330.0538
330.0537
330.0525
330.0527
330.0532
330.0537
330.0543
330.0547
330.0547
330.0545
330.0544
330.0544
330.053
330.0533
330.0537
330.0543
330.055
330.0554
330.0554
330.0553
330.0552
330.055
330.0533
330.0535
330.054
330.0547
330.0554
330.0559
330.056
330.0558
330.0557
330.0555
330.0533
330.0535
330.054
330.0547
330.0554
330.056
330.0561
330.0559
330.0557
330.0554
330.0532
330.0534
330.0538
330.0545
330.0553
330.0558
330.0559
330.0557
330.0554
330.0553
330.0531
330.0533
330.0538
330.0544
330.0552
330.0557
330.0557
330.0554
330.0552
330.0552
330.0531
330.0533
330.0537
330.0544
330.055
330.0555
330.0554
330.0553
330.0552
330.0551
349.9383
349.9384
349.9387
349.9391
349.9396
349.9399
349.9399
349.9399
349.9398
349.9398
349.9384
349.9385
349.9388
349.9394
349.9399
349.9402
349.9402
349.9401
349.94
349.94
349.9387
349.9388
349.9392
349.9398
349.9403
349.9407
349.9406
349.9405
349.9405
349.9404
349.9391
349.9394
349.9398
349.9403
349.941
349.9413
349.9413
349.9412
349.9411
349.9411
349.9396
349.9399
349.9403
349.941
349.9417
349.9421
349.9421
349.942
349.9418
349.9417
349.9399
349.9402
349.9407
349.9413
349.9421
349.9426
349.9427
349.9425
349.9423
349.9421
349.9399
349.9402
349.9406
349.9413
349.9421
349.9427
349.9427
349.9426
349.9423
349.9421
349.9399
349.9401
349.9405
349.9412
349.942
349.9425
349.9426
349.9423
349.9421
349.9419
349.9398
349.94
349.9405
349.9411
349.9418
349.9423
349.9423
349.9421
349.9419
349.9418
349.9398
349.94
349.9404
349.9411
349.9417
349.9421
349.9421
349.9419
349.9418
349.9417
373.0613
373.0614
373.0617
373.0621
373.0626
373.063
373.063
373.063
373.0629
373.0629
373.0614
373.0616
373.0619
373.0624
373.0629
373.0632
373.0632
373.0632
373.0631
373.063
373.0617
373.0619
373.0623
373.0628
373.0634
373.0637
373.0637
373.0636
373.0636
373.0635
373.0621
373.0624
373.0628
373.0634
373.064
373.0644
373.0644
373.0643
373.0642
373.0642
373.0626
373.0629
373.0634
373.064
373.0647
373.0651
373.0652
373.065
373.0649
373.0648
373.063
373.0632
373.0637
373.0644
373.0651
373.0656
373.0657
373.0655
373.0654
373.0652
373.063
373.0632
373.0637
373.0644
373.0652
373.0657
373.0658
373.0656
373.0654
373.0651
373.063
373.0632
373.0636
373.0643
373.065
373.0655
373.0656
373.0654
373.0651
373.065
373.0629
373.0631
373.0636
373.0642
373.0649
373.0654
373.0654
373.0651
373.065
373.0649
373.0629
373.063
373.0635
373.0642
373.0648
373.0652
373.0651
373.065
373.0649
373.0648
399.6252
399.6253
399.6256
399.626
399.6265
399.6268
399.6269
399.6268
399.6268
399.6268
399.6253
399.6255
399.6258
399.6262
399.6268
399.6271
399.6272
399.6271
399.627
399.627
399.6256
399.6258
399.6262
399.6267
399.6272
399.6276
399.6276
399.6275
399.6275
399.6274
399.626
399.6262
399.6267
399.6272
399.6278
399.6282
399.6282
399.6282
399.6281
399.6281
399.6265
399.6268
399.6272
399.6278
399.6285
399.629
399.629
399.6289
399.6288
399.6287
399.6268
399.6271
399.6276
399.6282
399.629
399.6295
399.6295
399.6294
399.6292
399.629
399.6269
399.6272
399.6276
399.6282
399.629
399.6295
399.6296
399.6294
399.6292
399.629
399.6268
399.6271
399.6275
399.6282
399.6289
399.6294
399.6294
399.6292
399.629
399.6288
399.6268
399.627
399.6275
399.6281
399.6288
399.6292
399.6292
399.629
399.6288
399.6287
399.6268
399.627
399.6274
399.6281
399.6287
399.629
399.629
399.6288
399.6287
399.6286
429.8256
429.8257
429.826
429.8264
429.8268
429.8272
429.8273
429.8272
429.8272
429.8272
429.8257
429.8259
429.8261
429.8266
429.8271
429.8275
429.8275
429.8275
429.8274
429.8274
429.826
429.8261
429.8265
429.827
429.8276
429.8279
429.8279
429.8279
429.8278
429.8278
429.8264
429.8266
429.827
429.8276
429.8282
429.8285
429.8286
429.8285
429.8284
429.8284
429.8268
429.8271
429.8276
429.8282
429.8288
429.8293
429.8293
429.8292
429.8291
429.829
429.8272
429.8275
429.8279
429.8285
429.8293
429.8297
429.8298
429.8296
429.8295
429.8293
429.8273
429.8275
429.8279
429.8286
429.8293
429.8298
429.8298
429.8296
429.8294
429.8292
429.8272
429.8275
429.8279
429.8285
429.8292
429.8296
429.8296
429.8294
429.8292
429.8291
429.8272
429.8274
429.8278
429.8284
429.8291
429.8295
429.8294
429.8292
429.8291
429.829
429.8272
429.8274
429.8278
429.8284
429.829
429.8293
429.8292
429.8291
429.829
429.8289
463.8403
463.8404
463.8407
463.841
463.8414
463.8418
463.8419
463.8419
463.8418
463.8418
463.8404
463.8405
463.8408
463.8412
463.8417
463.842
463.8421
463.8421
463.842
463.842
463.8407
463.8408
463.8411
463.8416
463.8421
463.8425
463.8425
463.8425
463.8424
463.8424
463.841
463.8412
463.8416
463.8421
463.8427
463.8431
463.8431
463.8431
463.843
463.843
463.8414
463.8417
463.8421
463.8427
463.8433
463.8437
463.8438
463.8437
463.8436
463.8435
463.8418
463.842
463.8425
463.8431
463.8437
463.8442
463.8442
463.8441
463.8439
463.8437
463.8419
463.8421
463.8425
463.8431
463.8438
463.8442
463.8443
463.8441
463.8439
463.8436
463.8419
463.8421
463.8425
463.8431
463.8437
463.8441
463.8441
463.8439
463.8437
463.8436
463.8418
463.842
463.8424
463.843
463.8436
463.8439
463.8439
463.8437
463.8436
463.8435
463.8418
463.842
463.8424
463.843
463.8435
463.8437
463.8436
463.8436
463.8435
463.8434
501.8171
501.8172
501.8175
501.8178
501.8182
501.8185
501.8186
501.8186
501.8186
501.8186
501.8172
501.8173
501.8176
501.8179
501.8184
501.8187
501.8188
501.8188
501.8188
501.8187
501.8175
501.8176
501.8179
501.8183
501.8188
501.8191
501.8192
501.8192
501.8191
501.8191
501.8178
501.8179
501.8183
501.8188
501.8193
501.8197
501.8197
501.8197
501.8196
501.8196
501.8182
501.8184
501.8188
501.8193
501.8199
501.8203
501.8203
501.8202
501.8201
501.82
501.8185
501.8187
501.8191
501.8197
501.8203
501.8207
501.8207
501.8206
501.8204
501.8202
501.8186
501.8188
501.8192
501.8197
501.8203
501.8207
501.8207
501.8206
501.8203
501.8202