/*--------------------------------*- C++ -*----------------------------------*\
| =========                 |                                                 |
| \\      /  F ield         | OpenFOAM: The Open Source CFD Toolbox           |
|  \\    /   O peration     | Version:  v2106                                 |
|   \\  /    A nd           | Website:  www.openfoam.com                      |
|    \\/     M anipulation  |                                                 |
\*---------------------------------------------------------------------------*/
FoamFile
{
    version     2.0;
    format      ascii;
    arch        "LSB;label=32;scalar=64";
    class       volVectorField;
    location    "1";
    object      flux;
}
// * * * * * * * * * * * * * * * * * * * * * * * * * * * * * * * * * * * * * //

dimensions      [0 1 -1 1 0 0 0];

internalField   nonuniform List<vector> 
5712
(
(-0.243326 0.430636 0.264731)
(-0.310515 0.24822 0.870682)
(-0.579008 0.698914 0.209837)
(-0.843327 0.457333 0.893823)
(-0.864615 0.761004 0.157255)
(-1.48682 0.562607 0.925872)
(-0.668999 1.19101 0.24885)
(-1.6887 1.47515 1.42844)
(-0.541708 1.56361 0.306813)
(-1.18418 1.91351 1.963)
(-0.806868 1.01332 0.304473)
(-1.22495 0.880013 1.42928)
(-0.723305 0.644405 0.293494)
(-0.946999 0.510301 1.18522)
(-0.317993 0.323689 0.304933)
(-0.363113 0.218818 1.05809)
(-0.54817 0.724799 0.184115)
(-0.630806 0.747051 0.113967)
(-0.705183 0.622479 0.49409)
(-0.703697 0.735529 0.293245)
(-0.564765 0.975884 0.18039)
(-0.704902 0.878783 0.0988001)
(-0.822171 1.1232 0.541786)
(-0.747192 0.9149 0.271543)
(-0.197296 0.305133 0.200717)
(-0.147298 0.221581 0.144016)
(-0.245205 0.171059 0.644741)
(-0.164131 0.127255 0.450155)
(-0.457854 0.365878 0.15139)
(-0.363723 0.299749 0.107533)
(-0.780955 0.221161 0.634976)
(-0.563453 0.178802 0.458121)
(-0.60872 0.662593 0.356336)
(-0.633294 0.690824 0.150129)
(-0.676166 0.679062 0.307361)
(-0.642953 0.578065 0.136419)
(-0.233113 0.533567 0.139778)
(-0.184116 0.413314 0.330909)
(-1.44029 0.412264 1.24284)
(-1.92898 0.468295 0.337299)
(-0.93575 0.667504 0.44506)
(-1.14755 0.663611 0.15109)
(-1.93945 1.3919 1.60261)
(-2.51646 1.4398 0.435664)
(-1.01424 0.990191 0.419198)
(-1.15865 1.01908 0.145635)
(-1.06649 0.564709 0.885489)
(-1.5076 0.476249 0.275201)
(-0.932661 0.616451 0.454281)
(-1.2361 0.439773 0.158804)
(-0.541582 0.286836 0.767296)
(-0.875996 0.294157 0.244534)
(-0.102942 0.232002 0.203885)
(-0.0346028 0.315954 0.101016)
(-0.108432 0.121165 0.311999)
(-0.0389878 0.143709 0.120618)
(-0.311428 0.319012 0.220645)
(-0.12515 0.426917 0.119429)
(-0.427679 0.18931 0.305182)
(-0.156801 0.218633 0.116002)
(-0.305128 0.355808 0.284214)
(-0.116952 0.5842 0.160963)
(-0.32646 0.245612 0.263173)
(-0.104343 0.39775 0.113197)
(-0.556481 0.093972 0.394555)
(-0.176699 0.237657 0.140969)
(-0.718485 0.0782579 0.136078)
(-0.241887 0.178014 0.0472441)
(-0.900765 0.666023 0.453952)
(-0.449058 0.826583 0.313314)
(-0.822122 0.682449 0.280457)
(-0.49258 0.819696 0.205397)
(-0.857759 0.813441 0.522447)
(-0.559861 0.827936 0.431561)
(-0.751502 0.822523 0.283395)
(-0.57359 0.813582 0.248039)
(-0.640295 0.578968 0.260683)
(-0.382457 0.787285 0.174237)
(-0.640682 0.599123 0.364584)
(-0.326231 0.779917 0.240187)
(-0.845805 0.670024 0.185321)
(-0.548766 0.812206 0.136693)
(-0.846843 0.668722 0.0955561)
(-0.554413 0.809543 0.0785098)
(-0.789617 0.826039 0.182808)
(-0.606956 0.801016 0.159713)
(-0.797963 0.821751 0.0963027)
(-0.610331 0.792579 0.0931953)
(-0.690743 0.533714 0.174922)
(-0.442841 0.789503 0.113753)
(-0.71516 0.514723 0.0907494)
(-0.454203 0.791883 0.0577887)
(-0.649057 0.645558 0.229575)
(-0.279137 0.749441 0.123772)
(-0.299711 0.817848 0.169857)
(-0.360616 1.12787 0.207113)
(-0.652712 0.683518 0.31071)
(-0.304569 0.859463 0.219866)
(-0.259853 0.809983 0.242999)
(-0.362742 1.21694 0.351424)
(-0.687354 0.612466 0.153207)
(-0.27849 0.662584 0.0719728)
(-0.340922 0.821796 0.100794)
(-0.364985 1.08851 0.119411)
(-0.721567 0.606204 0.0768679)
(-0.285567 0.621433 0.031564)
(-0.371544 0.831069 0.043862)
(-0.382377 1.08235 0.0443401)
(-0.1336 0.18332 0.261198)
(-0.145718 0.236619 0.469399)
(-0.0445615 0.464739 0.178311)
(-0.0853814 0.797252 0.525572)
(-0.393115 0.230297 0.309279)
(-0.415503 0.259402 0.461545)
(-0.149959 0.605242 0.220685)
(-0.261406 0.918001 0.553474)
(-0.504022 0.291399 0.355877)
(-0.563137 0.293791 0.421379)
(-0.237538 0.776844 0.287328)
(-0.401664 1.04287 0.545456)
(-0.473259 0.925139 0.450953)
(-0.0443741 1.00025 0.557508)
(-0.513282 0.772122 0.32412)
(-0.623471 0.734599 0.30544)
(-0.333009 1.03711 0.335803)
(-0.031071 1.01318 0.557211)
(-0.291881 0.951752 0.493195)
(-0.457136 0.791737 0.466399)
(-0.731275 0.678029 0.467412)
(-0.49041 1.17572 0.678589)
(-0.379691 0.918066 0.452346)
(-0.449351 0.902856 0.333554)
(-0.384557 0.796053 0.276976)
(-0.325393 0.776641 0.305674)
(-0.505316 1.35927 0.486)
(-0.130499 0.0728346 0.539523)
(-0.109209 0.0869891 0.478021)
(-0.0740243 0.153265 0.627565)
(-0.073848 0.336211 0.597644)
(-0.369901 0.104351 0.494379)
(-0.317351 0.116688 0.455086)
(-0.218809 0.215796 0.622093)
(-0.209314 0.384875 0.587154)
(-0.464738 0.158235 0.429704)
(-0.402322 0.133769 0.415693)
(-0.286085 0.298339 0.586704)
(-0.258585 0.452432 0.568457)
(-0.229913 1.01546 0.40627)
(-0.294456 1.02621 0.316731)
(-0.472277 0.911394 0.357813)
(-0.490307 0.916364 0.305901)
(-0.532738 0.768775 0.378169)
(-0.487554 0.721411 0.328959)
(-0.599247 0.576426 0.397038)
(-0.527427 0.518265 0.372841)
(-0.393495 0.397636 0.546013)
(-0.331425 0.540598 0.550017)
(-0.353203 0.918396 0.379139)
(-0.378659 0.90647 0.324852)
(-0.458735 0.920609 0.345322)
(-0.373065 0.922678 0.320993)
(-0.412757 0.791283 0.34445)
(-0.310872 0.753638 0.352535)
(-0.353055 0.645007 0.381439)
(-0.25193 0.58429 0.415952)
(-0.403012 0.425924 0.498057)
(-0.26807 0.551979 0.562394)
(-0.396657 0.904842 0.305106)
(-0.198342 1.02967 0.238173)
(-0.340859 0.900152 0.211161)
(-0.37379 1.05203 0.270013)
(-0.492903 0.878998 0.42767)
(-0.651036 0.924724 0.525537)
(-0.543915 0.85563 0.297886)
(-0.793727 0.927176 0.47337)
(-0.266785 0.814073 0.17355)
(-0.301749 0.832973 0.230729)
(-0.347597 0.808192 0.256257)
(-0.126124 0.810059 0.209533)
(-0.30433 0.892166 0.0503894)
(-0.584474 1.05534 0.179991)
(-0.288884 0.887219 0.0269252)
(-0.624314 1.05325 0.0650243)
(-0.538988 0.829193 0.15355)
(-0.976528 0.936328 0.319756)
(-0.548451 0.821542 0.0573007)
(-1.03326 0.933126 0.111309)
(-0.225283 0.817206 0.020592)
(-0.495593 0.831383 0.149031)
(-0.204221 0.816496 0.0125794)
(-0.525967 0.830462 0.0522867)
(-0.305545 0.678502 0.167529)
(-0.23753 0.646994 0.170635)
(-0.419551 0.435169 0.189529)
(-0.171601 0.481256 0.114964)
(-0.318347 0.673117 0.263456)
(-0.0785846 0.628797 0.208144)
(-0.368144 0.427868 0.308978)
(-0.0428836 0.479469 0.208919)
(-0.292394 0.688737 0.0359568)
(-0.350315 0.646077 0.093226)
(-0.439029 0.44514 0.0934302)
(-0.205707 0.485085 0.0512018)
(-0.241069 0.691682 0.0531988)
(-0.411026 0.639902 0.0698602)
(-0.387491 0.459216 0.0760569)
(-0.268433 0.486275 0.0571439)
(-0.0890072 0.0615204 0.376504)
(-0.0798413 0.0436595 0.226777)
(-0.0735025 0.0313391 0.0703867)
(-0.0635389 0.0368052 0.427843)
(-0.0593063 0.0267978 0.243134)
(-0.0542524 0.0252729 0.079168)
(-0.265684 0.0848646 0.360932)
(-0.225033 0.0541801 0.224466)
(-0.199804 0.0424622 0.0748736)
(-0.167735 0.0736869 0.422653)
(-0.139904 0.061379 0.243798)
(-0.124598 0.0544759 0.0791109)
(-0.332041 0.101826 0.332894)
(-0.29451 0.0903745 0.206023)
(-0.275855 0.0931056 0.0672009)
(-0.203071 0.130703 0.414515)
(-0.171941 0.110806 0.246076)
(-0.165328 0.101525 0.0818833)
(-0.265255 1.01247 0.202887)
(-0.242004 0.945841 0.106498)
(-0.239028 0.893636 0.0276659)
(-0.435208 0.922523 0.244066)
(-0.34433 0.881466 0.15923)
(-0.295994 0.842302 0.0555861)
(-0.40122 0.65649 0.281076)
(-0.309308 0.628237 0.193845)
(-0.257626 0.613191 0.0667791)
(-0.422057 0.43787 0.318732)
(-0.345235 0.394669 0.204249)
(-0.305915 0.377287 0.0674396)
(-0.250988 0.198215 0.412174)
(-0.172527 0.153083 0.254193)
(-0.138318 0.132855 0.0890521)
(-0.630466 0.908783 0.243167)
(-0.560915 0.872422 0.133284)
(-0.495971 0.832523 0.0410367)
(-0.395908 0.922067 0.224563)
(-0.341411 0.869592 0.159989)
(-0.2927 0.822393 0.059866)
(-0.342776 0.6746 0.257534)
(-0.277785 0.602482 0.189944)
(-0.230676 0.560167 0.0690867)
(-0.280684 0.434654 0.321141)
(-0.211941 0.363586 0.224166)
(-0.170476 0.335148 0.0794856)
(-0.27787 0.211169 0.4161)
(-0.160313 0.152941 0.256132)
(-0.0953909 0.125986 0.0901955)
(-0.406531 0.987943 0.0102536)
(-0.556401 0.978637 0.0779633)
(-0.318502 1.07012 0.103602)
(-0.416941 0.96823 0.158362)
(-0.429351 1.10845 0.0786402)
(-0.635238 0.976937 0.0943921)
(-0.379975 1.33368 0.199443)
(-0.556688 1.02231 0.195657)
(-0.00849319 0.757357 0.0227987)
(-0.0353633 0.770156 0.0409906)
(0.0128862 0.744015 0.0243856)
(-0.00909994 0.683455 0.0427856)
(-0.127316 0.855361 0.0171722)
(-0.144588 0.805249 0.0536343)
(-0.0574086 0.832745 0.032572)
(-0.0361109 0.703008 0.0713694)
(-0.046857 0.815204 0.120402)
(-0.120269 0.818205 0.0608027)
(-0.379418 0.766197 0.160021)
(-0.555618 0.834233 0.0936391)
(-0.265599 1.02719 0.0849669)
(-0.141203 0.904724 0.14347)
(-0.384587 1.01627 0.131165)
(-0.380236 1.03041 0.0371272)
(-0.57876 1.10647 0.227347)
(-0.634046 1.14319 0.056675)
(0.00990942 0.82724 -0.0680395)
(0.137516 0.861254 0.0267713)
(-0.302922 0.753224 0.0737061)
(-0.284043 0.732811 0.0523343)
(-0.256472 0.900801 0.0452916)
(-0.197668 0.921558 0.0429713)
(-0.046297 0.57725 0.396768)
(-0.0264548 0.257158 0.204921)
(-0.0283027 0.528147 0.109327)
(-0.0113958 0.291885 0.07519)
(-0.100554 0.587081 0.404937)
(-0.0293764 0.258376 0.214247)
(-0.00523099 0.523991 0.133702)
(0.0171158 0.286753 0.0918353)
(-0.373233 0.588795 0.405743)
(-0.115499 0.260327 0.232436)
(-0.249118 0.53267 0.195262)
(-0.0799057 0.3035 0.14693)
(-0.333243 0.515146 0.130721)
(-0.106797 0.321358 0.0982442)
(-0.396998 0.5204 0.0657644)
(-0.132133 0.318164 0.065077)
(-0.372662 0.786968 0.505888)
(-0.484582 0.677677 0.451862)
(-0.340991 0.772893 0.238305)
(-0.474449 0.672548 0.249861)
(-0.55899 0.873728 0.527884)
(-0.589042 0.795842 0.497297)
(-0.528992 0.874632 0.258695)
(-0.559367 0.78378 0.263911)
(-0.252458 0.748707 0.220846)
(-0.402982 0.550812 0.230448)
(-0.290224 0.79286 0.448274)
(-0.398387 0.547299 0.380601)
(-0.355084 0.784795 0.142541)
(-0.458931 0.666954 0.150454)
(-0.385904 0.792502 0.0814509)
(-0.464348 0.658751 0.0915557)
(-0.546697 0.892634 0.159591)
(-0.550163 0.774886 0.160388)
(-0.569953 0.891387 0.089441)
(-0.553211 0.764193 0.0956911)
(-0.250588 0.734703 0.129913)
(-0.392798 0.550335 0.140929)
(-0.267301 0.729333 0.0748919)
(-0.400857 0.546378 0.0890608)
(-0.0490322 0.465837 0.205286)
(-0.102544 0.256747 0.157441)
(-0.339365 0.413671 0.210761)
(-0.253142 0.19769 0.167512)
(-0.0300688 0.435512 0.321309)
(-0.0871292 0.221126 0.216932)
(-0.314903 0.398176 0.312754)
(-0.227799 0.176573 0.234737)
(-0.0599595 0.475491 0.123903)
(-0.106176 0.279074 0.109372)
(-0.348147 0.419328 0.132042)
(-0.272035 0.206976 0.107309)
(-0.0740937 0.474662 0.0709833)
(-0.113659 0.293872 0.067211)
(-0.35255 0.417195 0.0816753)
(-0.283911 0.208546 0.0600772)
(0.0126084 0.0729768 0.496406)
(0.0160958 0.0266814 0.402927)
(-0.0140137 0.0986994 0.284463)
(-0.0104132 0.00374976 0.327187)
(0.0745134 0.0791468 0.497921)
(0.0769171 0.0386098 0.406467)
(-0.0145269 0.106281 0.287794)
(-0.0131 0.0200317 0.3263)
(-0.0245968 0.103147 0.515301)
(0.0276238 0.0719666 0.408131)
(-0.106349 0.124236 0.292659)
(-0.0892704 0.0562531 0.314892)
(0.383951 0.482925 0.557106)
(0.367191 0.771823 0.582874)
(0.185876 0.329709 0.522365)
(0.115075 0.305534 0.372426)
(-0.0252265 0.156623 0.24509)
(0.406003 0.761814 0.557267)
(0.41744 0.519159 0.540502)
(0.144229 0.281551 0.529456)
(0.198035 0.279273 0.467274)
(-0.0193017 0.11033 0.356978)
(-0.404921 0.788821 0.518153)
(-0.338191 0.615177 0.484257)
(-0.32165 0.478732 0.405686)
(-0.317529 0.349011 0.335697)
(-0.233293 0.140286 0.246314)
(0.0209039 0.00355027 0.393168)
(0.0233099 -0.000894977 0.389377)
(-0.00880297 -0.0406796 0.397013)
(-0.0172786 -0.0535402 0.495896)
(0.0682307 0.0172881 0.389953)
(0.081044 0.00577998 0.370126)
(-0.0297294 -0.0188974 0.393323)
(-0.047508 -0.0313039 0.480679)
(0.0641725 0.0495533 0.383582)
(0.104454 0.0421205 0.343645)
(-0.0743349 0.0170165 0.385757)
(-0.101904 -0.00229492 0.459211)
(0.198167 0.787684 0.423755)
(0.0919788 0.78805 0.303237)
(0.313182 0.529216 0.419)
(0.197882 0.533637 0.304389)
(0.113232 0.328996 0.360324)
(0.0865634 0.362879 0.308643)
(0.115033 0.266119 0.364919)
(0.107008 0.271269 0.338971)
(-0.0815822 0.0764811 0.352537)
(-0.136438 0.0485909 0.443332)
(-0.156154 0.734019 0.351788)
(-0.101138 0.690139 0.309099)
(-0.0632654 0.567445 0.331071)
(0.025236 0.523151 0.299317)
(-0.0795916 0.435051 0.307178)
(0.000215244 0.41508 0.294423)
(-0.127943 0.307606 0.302257)
(-0.0718727 0.306835 0.323502)
(-0.167477 0.114348 0.28683)
(-0.196461 0.145314 0.426323)
(-0.234901 0.578694 0.294881)
(-0.220266 0.494015 0.209937)
(-0.422813 0.581063 0.195399)
(-0.271601 0.478969 0.124918)
(-0.331315 0.694325 0.363061)
(-0.3388 0.59629 0.284394)
(-0.497996 0.690502 0.252415)
(-0.411405 0.583109 0.205563)
(-0.362263 0.483862 0.172942)
(-0.24132 0.420558 0.119601)
(-0.204527 0.468464 0.253057)
(-0.207928 0.42444 0.20455)
(-0.491354 0.580632 0.192195)
(-0.241693 0.469608 0.0980662)
(-0.537977 0.577017 0.0708391)
(-0.267949 0.468924 0.0428371)
(-0.553018 0.687105 0.197339)
(-0.421318 0.591534 0.145475)
(-0.589285 0.680008 0.0696936)
(-0.449851 0.589224 0.058505)
(-0.426945 0.493492 0.173861)
(-0.211035 0.413027 0.0905879)
(-0.473624 0.493017 0.068131)
(-0.237259 0.420277 0.0394894)
(-0.333364 0.354577 0.164029)
(-0.298001 0.327718 0.17158)
(-0.312026 0.162174 0.165691)
(-0.459677 0.219585 0.258584)
(-0.238767 0.340315 0.231356)
(-0.275283 0.321622 0.244183)
(-0.275129 0.147943 0.218738)
(-0.425613 0.206988 0.341554)
(-0.373105 0.372991 0.149755)
(-0.303231 0.336795 0.115279)
(-0.346702 0.169011 0.110103)
(-0.522928 0.24156 0.166516)
(-0.430423 0.385443 0.0508582)
(-0.328721 0.340362 0.0307203)
(-0.402148 0.181439 0.0210734)
(-0.541812 0.24794 0.0392482)
(0.031015 0.0995224 0.279519)
(0.0381552 0.0887445 0.116288)
(0.0454483 0.073033 0.033486)
(-0.0073405 0.496073 0.338866)
(0.0121728 0.245845 0.0861359)
(0.0152874 0.194847 0.0225035)
(0.119646 0.0915337 0.273284)
(0.14236 0.094163 0.122247)
(0.147589 0.0834267 0.0369287)
(-0.0100451 0.518019 0.331826)
(0.0362749 0.281374 0.0883178)
(0.0397091 0.23296 0.0239449)
(0.148141 0.123227 0.2406)
(0.186611 0.142577 0.1146)
(0.198792 0.145995 0.0298151)
(-0.0643041 0.542811 0.316304)
(0.0318828 0.33931 0.0878494)
(0.0515269 0.297946 0.020525)
(0.0541745 0.776969 0.188161)
(0.0500399 0.756801 0.0943739)
(0.0388984 0.735193 0.0202081)
(0.156585 0.547379 0.190967)
(0.172374 0.558221 0.0933742)
(0.165707 0.560324 0.0219588)
(0.121355 0.414324 0.210484)
(0.157141 0.432814 0.103504)
(0.161381 0.442051 0.0281571)
(0.150262 0.382557 0.23203)
(0.186083 0.385372 0.110193)
(0.190156 0.380365 0.0237379)
(-0.114011 0.591598 0.306915)
(0.00626571 0.408573 0.0835229)
(0.0203656 0.366662 0.0135286)
(-0.14233 0.65884 0.23995)
(-0.0764616 0.636799 0.12051)
(-0.0356066 0.616769 0.0315242)
(0.0332358 0.509833 0.238539)
(0.0974701 0.502372 0.12118)
(0.131386 0.494314 0.0333708)
(0.0214718 0.446646 0.24056)
(0.108832 0.43886 0.121158)
(0.146762 0.428359 0.035379)
(-0.0123956 0.465228 0.25564)
(0.0877665 0.426483 0.109002)
(0.117511 0.398189 0.0266454)
(-0.169956 0.714975 0.326725)
(0.015328 0.457762 0.0742784)
(0.0399794 0.409648 0.0176808)
(-0.00178124 0.0802819 0.0861101)
(0.000299725 0.0163162 0.0337047)
(0.00101601 -0.000195439 0.0139558)
(0.000991949 -0.00579946 0.00755934)
(0.00920154 0.107509 0.0350346)
(0.00569107 0.0285093 0.0144123)
(0.00395763 0.00389044 0.00610361)
(0.00271153 -0.00425977 0.00307914)
(-0.0075745 0.0793567 0.0911321)
(-0.000427157 0.0153097 0.0365857)
(0.00187189 0.000175172 0.0157568)
(0.00183539 -0.00517631 0.00879312)
(0.0127932 0.111085 0.0431918)
(0.00961444 0.0307829 0.0190841)
(0.00762657 0.00581449 0.00909437)
(0.00546737 -0.002901 0.00492526)
(-0.0224542 0.0752301 0.0983607)
(-0.00474978 0.0122312 0.0404865)
(0.000927282 0.00056699 0.018525)
(0.0012165 -0.00415671 0.0106798)
(-0.0037459 0.113369 0.0723529)
(0.00491965 0.0312911 0.0354375)
(0.0075514 0.00762924 0.0191558)
(0.00705267 -0.00134023 0.0124254)
(-0.00463698 0.130756 0.0516307)
(0.00293504 0.0399053 0.0305467)
(0.00466412 0.00995641 0.0191544)
(0.00399547 -0.000140377 0.0134871)
(-0.0142759 0.13762 0.0477132)
(-0.00300774 0.0454033 0.0329393)
(0.000962241 0.0131206 0.0226367)
(0.00148785 0.00244639 0.0159079)
(-0.0591486 0.0858331 0.0802444)
(-0.0173809 0.0189555 0.0371079)
(-0.00265962 0.00374627 0.0196269)
(0.00165734 -0.00239826 0.0128987)
(-0.0880421 0.0321243 0.0705293)
(-0.0248429 -0.00345356 0.0310274)
(-0.0067177 -0.00287543 0.0178552)
(-0.0027878 -0.00356449 0.0131399)
(-0.0466675 0.0556022 0.0986751)
(-0.0117271 0.00484961 0.0402103)
(-0.000432798 -0.00150302 0.0192377)
(0.00266636 -0.00440637 0.0120778)
(-0.0747937 0.0156317 0.0899801)
(-0.0201542 -0.0102114 0.03549)
(-0.00544597 -0.00509575 0.0188289)
(-0.00312618 -0.00442277 0.0143603)
(-0.0600603 0.105276 0.0620992)
(-0.0184971 0.0294 0.0330763)
(-0.00361795 0.00772026 0.0195398)
(8.89054e-05 -0.00026428 0.0131126)
(-0.0966714 0.041477 0.0527419)
(-0.0282728 0.00164562 0.0266713)
(-0.00770655 -0.000835999 0.016823)
(-0.00276555 -0.00232727 0.0124241)
(-0.0640417 0.115689 0.043866)
(-0.0214515 0.0362376 0.0279107)
(-0.00571281 0.0110888 0.0187199)
(-0.00141521 0.00212089 0.0133833)
(-0.102477 0.0447704 0.0344447)
(-0.0311182 0.00516549 0.0216695)
(-0.009229 0.00119037 0.0153912)
(-0.00350379 -0.000482257 0.0119211)
(-0.00269297 0.0253711 0.114037)
(-0.000358867 -0.00442776 0.0418625)
(0.000311735 -0.00651936 0.0171253)
(0.000216878 -0.00783971 0.0102869)
(-0.00118287 -0.0426795 0.119226)
(0.000329325 -0.0307392 0.0398489)
(0.00053174 -0.0146461 0.0155213)
(0.000149015 -0.0104306 0.0115185)
(-0.00466366 0.0229724 0.11367)
(8.86697e-05 -0.00592244 0.0420739)
(0.00133489 -0.00644333 0.0177145)
(0.00101535 -0.00734546 0.0109435)
(0.000294915 -0.0404641 0.115421)
(0.00215289 -0.0300225 0.0386441)
(0.001949 -0.0140654 0.0153684)
(0.000696945 -0.0100187 0.0115609)
(-0.0326215 0.0226024 0.111354)
(-0.00868332 -0.00744975 0.0417829)
(-0.00174886 -0.0061372 0.0181435)
(-0.000879107 -0.00669958 0.0111635)
(-0.0220448 -0.0287797 0.107174)
(-0.00427723 -0.026513 0.0363249)
(0.000269007 -0.0125587 0.0148296)
(-0.000285773 -0.00903691 0.0116486)
(-0.0187849 0.0135598 0.0957759)
(-0.000957259 -0.0126708 0.0370744)
(0.00275136 -0.00776365 0.0177476)
(0.00225282 -0.00668088 0.0120275)
(-0.0134392 -0.0198577 0.1169)
(-0.000472666 -0.0246155 0.040019)
(0.00126353 -0.0106821 0.0177805)
(-0.00127072 -0.00710426 0.0151219)
(-0.0682106 -0.00699582 0.0875335)
(-0.0173392 -0.0183931 0.0330337)
(-0.00462736 -0.00838859 0.0170537)
(-0.00410533 -0.00570495 0.0137121)
(0.00175372 -0.122833 0.0990205)
(0.00125785 -0.0530675 0.0284043)
(0.000723879 -0.0189142 0.0110523)
(0.000339312 -0.00363159 0.00894212)
(0.00639419 -0.226483 0.0405118)
(0.00253906 -0.0670974 0.0103496)
(0.00116722 -0.0228187 0.00429277)
(0.000732879 -0.00556929 0.00307259)
(0.00180733 -0.111882 0.100048)
(0.00260242 -0.0496551 0.0295162)
(0.00193981 -0.0179433 0.0117998)
(0.00104339 -0.00353917 0.00934085)
(0.0157874 -0.209889 0.0413091)
(0.0066404 -0.0630641 0.0108925)
(0.00326849 -0.0217978 0.00463824)
(0.00207084 -0.00536004 0.00332791)
(-0.00553927 -0.0916489 0.0985446)
(0.00171789 -0.0437027 0.0304495)
(0.00219669 -0.0158546 0.0125026)
(0.00115725 -0.00284097 0.00974347)
(0.0179082 -0.182911 0.0404889)
(0.00895802 -0.0564546 0.0113126)
(0.00471407 -0.0197365 0.00517532)
(0.00301976 -0.00479687 0.00386187)
(-0.018727 -0.0682445 0.0878425)
(-0.000150476 -0.0371742 0.0283314)
(0.00209405 -0.01432 0.0120947)
(0.000832378 -0.00269376 0.00947374)
(0.00890688 -0.157096 0.0382679)
(0.00892819 -0.0497614 0.0113418)
(0.00537155 -0.0176798 0.00552756)
(0.00350671 -0.00430462 0.00430217)
(-0.0427031 -0.0558621 0.0789095)
(-0.00547489 -0.0321211 0.0273239)
(0.00118087 -0.0126485 0.0128234)
(0.00123548 -0.00285439 0.0096621)
(-0.00711335 -0.158973 0.0326636)
(0.00676233 -0.0457415 0.0112531)
(0.00548639 -0.0157974 0.00612353)
(0.00398515 -0.0038725 0.00498651)
(-0.0780627 -0.0539197 0.0546448)
(-0.0131516 -0.027807 0.0214323)
(-0.00078424 -0.0101151 0.0128436)
(0.000657512 -0.00250337 0.0105626)
(-0.0293007 -0.189002 0.0286151)
(-0.000756274 -0.0439437 0.0136327)
(0.00261327 -0.0131762 0.0093189)
(0.00253899 -0.00313129 0.00784564)
(-0.0650021 -0.0547953 0.0644467)
(-0.00900713 -0.0297389 0.0224852)
(0.000880593 -0.0114929 0.0119593)
(0.00143224 -0.00270881 0.00975442)
(-0.0236726 -0.188767 0.0295434)
(0.00233826 -0.0449113 0.01204)
(0.00412445 -0.0142243 0.00759869)
(0.00352359 -0.00342827 0.00641764)
(-0.0897081 -0.0550055 0.0424164)
(-0.0179471 -0.0263814 0.0199983)
(-0.00338375 -0.00823688 0.0133583)
(-0.000916831 -0.00177717 0.0110811)
(-0.0347963 -0.194618 0.0251612)
(-0.00376978 -0.0428796 0.0143224)
(0.000586787 -0.0117373 0.0104866)
(0.00100867 -0.00260704 0.00883429)
(-0.0979008 -0.0532501 0.0281492)
(-0.0226909 -0.0244999 0.0175276)
(-0.006286 -0.0062813 0.0128944)
(-0.00255025 -0.00096848 0.0108793)
(-0.040105 -0.189267 0.0204325)
(-0.00728793 -0.0409616 0.0143232)
(-0.00173108 -0.0102128 0.0108764)
(-0.000533955 -0.00202218 0.00915342)
(0.000994928 -0.00707036 0.00229459)
(0.000695716 -0.00459442 0.000977238)
(0.000451146 -0.00267804 0.000535661)
(0.000306648 -0.00137185 0.000347236)
(0.000241821 -0.00042014 0.00027071)
(0.00187399 -0.00610567 0.00108624)
(0.00119926 -0.00429618 0.000503902)
(0.00076135 -0.00256119 0.000284711)
(0.000514877 -0.00132095 0.000186155)
(0.000405594 -0.000405289 0.000145444)
(0.00228762 -0.00658355 0.00334661)
(0.0016023 -0.00418924 0.00167143)
(0.0010387 -0.00243981 0.000980914)
(0.00070593 -0.00124982 0.000649332)
(0.000556677 -0.00038281 0.000508901)
(0.00413484 -0.00529146 0.00240066)
(0.00266552 -0.00373554 0.00133699)
(0.00169567 -0.00223171 0.000812758)
(0.00114743 -0.00115199 0.000543261)
(0.000904043 -0.000353571 0.000426797)
(0.0027456 -0.00609506 0.00470196)
(0.00196746 -0.00371296 0.00253881)
(0.00127807 -0.00214606 0.00153401)
(0.000868823 -0.00109746 0.00102418)
(0.000685106 -0.000336043 0.000804396)
(0.00546698 -0.00436973 0.0069476)
(0.00351792 -0.00308593 0.00411482)
(0.00223553 -0.00184434 0.00255365)
(0.00151237 -0.000952382 0.00171716)
(0.00119156 -0.000292388 0.00135113)
(0.00275858 -0.00278494 0.00791604)
(0.00178086 -0.00209348 0.00479477)
(0.00113357 -0.00127603 0.00299768)
(0.000767618 -0.000663285 0.00202081)
(0.000605119 -0.000204062 0.00159122)
(0.00131252 -0.000588577 0.00978058)
(0.000895917 -0.000702756 0.00606393)
(0.000579624 -0.0004675 0.00382316)
(0.000394291 -0.000249275 0.00258491)
(0.000311256 -7.72551e-05 0.00203739)
(0.00302818 -0.00441677 0.00608871)
(0.00206442 -0.00285312 0.00347508)
(0.0013284 -0.00165884 0.00213836)
(0.000901331 -0.000850296 0.00143534)
(0.000710565 -0.000260595 0.00112928)
(0.00105611 -0.00505544 0.00548391)
(0.00077471 -0.00264628 0.00314648)
(0.00050496 -0.00147245 0.00194042)
(0.000343603 -0.000746869 0.0013035)
(0.000271032 -0.000228342 0.00102613)
(0.00403559 -0.00598527 0.00516828)
(0.00260703 -0.00344334 0.00283106)
(0.00165354 -0.00195717 0.00172427)
(0.0011176 -0.00099691 0.00115409)
(0.00088002 -0.000304984 0.000907055)
(0.00117416 -0.00648327 0.00530953)
(0.000820785 -0.00318134 0.00306684)
(0.000528974 -0.00175698 0.00189647)
(0.000358814 -0.000888999 0.00127443)
(0.000282672 -0.000271536 0.00100297)
(0.00159429 -0.00276982 0.0068935)
(0.00118103 -0.00193085 0.0040505)
(0.000774163 -0.00114083 0.00251294)
(0.000527859 -0.000588065 0.00169096)
(0.000416817 -0.000180586 0.00133111)
(0.000890285 -0.00348789 0.00612721)
(0.000661672 -0.00180947 0.00363694)
(0.000432478 -0.00100577 0.00226443)
(0.000294596 -0.000511149 0.00152542)
(0.000232576 -0.000156493 0.00120148)
(0.000489645 -0.000734972 0.00798758)
(0.000501578 -0.000630783 0.00491081)
(0.000348129 -0.00038983 0.00309018)
(0.00024056 -0.000204046 0.00208857)
(0.000190723 -6.30053e-05 0.00164612)
(0.000137416 -0.0016103 0.00666072)
(0.000201325 -0.000669943 0.00405786)
(0.000143902 -0.000355652 0.00254822)
(9.99516e-05 -0.000179709 0.00172146)
(7.93697e-05 -5.51078e-05 0.00135707)
(0.000689409 -0.00862169 0.00216199)
(0.000508622 -0.00496386 0.000797555)
(0.000331505 -0.00279931 0.000419018)
(0.000225415 -0.00142085 0.000268701)
(0.000177766 -0.00043412 0.000208966)
(0.000677386 -0.0107402 0.000934478)
(0.000446262 -0.00525775 0.000313365)
(0.000283196 -0.0028784 0.000161366)
(0.000191261 -0.0014512 0.000103118)
(0.000150594 -0.000442685 8.01581e-05)
(0.00192759 -0.0083068 0.00278178)
(0.00134412 -0.00467116 0.0012181)
(0.000864318 -0.00262672 0.000689786)
(0.000585716 -0.0013326 0.000452495)
(0.000461517 -0.000407148 0.000353877)
(0.00191088 -0.0104144 0.0011564)
(0.00121925 -0.0050214 0.000464388)
(0.000767741 -0.00274404 0.000258443)
(0.000517505 -0.00138317 0.00016895)
(0.00040727 -0.000421946 0.000132048)
(0.00207441 -0.00787655 0.00336358)
(0.00155706 -0.00421609 0.0016535)
(0.00101276 -0.002355 0.000977316)
(0.000688088 -0.00119349 0.000649038)
(0.000542491 -0.000364621 0.000509087)
(0.00276249 -0.00977912 0.00187117)
(0.00172767 -0.00458067 0.000953199)
(0.00108339 -0.00249699 0.000571735)
(0.000729828 -0.00125868 0.000381243)
(0.000574507 -0.000384043 0.000299389)
(0.00331514 -0.00773658 0.00479926)
(0.00208652 -0.00380829 0.00261578)
(0.00131185 -0.00209649 0.00159488)
(0.000884497 -0.00105958 0.00106753)
(0.000695876 -0.000323551 0.000837966)
(0.00232106 -0.00912009 0.00293967)
(0.00138504 -0.00404443 0.00160464)
(0.000860783 -0.00220396 0.000980885)
(0.000578863 -0.00111166 0.000657017)
(0.000455624 -0.000339333 0.000515941)
(0.00193574 -0.00775387 0.00531995)
(0.00117841 -0.00353047 0.00312099)
(0.00073634 -0.00193572 0.00193616)
(0.000495764 -0.000977658 0.00130164)
(0.000389664 -0.000298448 0.0010235)
(-0.014819 0.329509 0.0553203)
(-0.0188378 0.502352 0.126766)
(-0.0344911 0.348635 0.0550258)
(-0.0464962 0.516198 0.124995)
(-0.0386761 0.377688 0.059162)
(-0.0589594 0.535567 0.12349)
(-0.0208563 0.400248 0.0708126)
(-0.0500949 0.550977 0.128789)
(0.00330668 0.38982 0.0746716)
(-0.0162658 0.536558 0.133929)
(-0.0313572 0.36911 0.02883)
(-0.0488945 0.414466 0.0468465)
(-0.00116464 0.366783 0.0486637)
(-0.00366761 0.429321 0.0798538)
(-0.0443301 0.372834 0.0147066)
(-0.0684472 0.413691 0.0222831)
(-0.0543688 0.380167 0.00480283)
(-0.0769682 0.42014 0.00702581)
(-0.0216315 0.289388 0.291591)
(-0.00497259 0.0493354 0.0693383)
(-0.00111224 0.0104799 0.0158123)
(-0.000244203 0.00233637 0.00351338)
(-6.0956e-05 0.00041175 0.000867613)
(-0.00803835 0.32118 0.0791239)
(-0.00336286 0.091081 0.0212402)
(-0.000485661 0.0220045 0.00563037)
(-0.000125401 0.00496449 0.00127429)
(-5.27263e-05 0.0008747 0.000275039)
(-0.066487 0.294214 0.289442)
(-0.0152246 0.0492065 0.0682339)
(-0.00341707 0.0103682 0.0155398)
(-0.00074658 0.00230148 0.00342287)
(-0.000186678 0.000404383 0.00085148)
(-0.0194547 0.326212 0.0804453)
(-0.00506313 0.0911867 0.0236974)
(-0.00120194 0.021928 0.00581828)
(-0.000250697 0.0049211 0.00134647)
(-6.65866e-05 0.000859296 0.000332444)
(-0.112176 0.300347 0.278694)
(-0.0257483 0.0494803 0.0651901)
(-0.0057935 0.0103253 0.0147811)
(-0.00126979 0.00227998 0.00325025)
(-0.000316988 0.000399534 0.00080961)
(-0.0304795 0.332127 0.07809)
(-0.00846815 0.0916814 0.0229473)
(-0.00201374 0.0219029 0.00562049)
(-0.000459882 0.00489321 0.00129421)
(-0.000114808 0.000852691 0.000320592)
(-0.15155 0.301814 0.258108)
(-0.0348968 0.0486125 0.0597878)
(-0.00788175 0.010043 0.0135064)
(-0.00173135 0.00221016 0.00296689)
(-0.000431737 0.000386819 0.000740059)
(-0.0353204 0.332523 0.0761886)
(-0.0106022 0.0908173 0.0219246)
(-0.00260413 0.0215965 0.00529924)
(-0.000601611 0.00481303 0.0012095)
(-0.000149257 0.000837438 0.000298232)
(-0.190905 0.290518 0.218911)
(-0.0444023 0.0456169 0.0504138)
(-0.0100938 0.00939933 0.0113886)
(-0.00222471 0.0020736 0.00250411)
(-0.000553681 0.000363569 0.000625453)
(-0.0386784 0.31902 0.0725829)
(-0.0127766 0.0872345 0.0203075)
(-0.0032343 0.0208008 0.00485321)
(-0.000756054 0.00464671 0.00110179)
(-0.000187796 0.000809455 0.000272201)
(-0.229661 0.264979 0.105809)
(-0.0551197 0.0432844 0.025474)
(-0.0127116 0.00921013 0.00584643)
(-0.0028314 0.00206469 0.0012906)
(-0.000713916 0.000364741 0.000319286)
(-0.057445 0.270934 0.0354804)
(-0.0174226 0.0776295 0.0100833)
(-0.0042757 0.0189894 0.00238472)
(-0.000980059 0.00431001 0.000528957)
(-0.000248823 0.000757689 0.0001281)
(-0.212453 0.271817 0.156213)
(-0.0507586 0.0436715 0.0370772)
(-0.0116448 0.00918023 0.00844704)
(-0.00257571 0.00204489 0.00185779)
(-0.000640322 0.000360077 0.000460742)
(-0.0457182 0.283764 0.0522654)
(-0.0149308 0.0811191 0.0146661)
(-0.00375738 0.0196675 0.00350402)
(-0.000872137 0.00442871 0.00079354)
(-0.00021737 0.000774474 0.000196177)
(-0.237982 0.26288 0.0624477)
(-0.0572511 0.0433709 0.0151593)
(-0.0132363 0.0092756 0.0034948)
(-0.00295682 0.00208495 0.000775066)
(-0.00074993 0.000368725 0.000191981)
(-0.064424 0.267505 0.0197089)
(-0.0189814 0.0762704 0.0058368)
(-0.00459405 0.0186822 0.00136979)
(-0.00103665 0.00425481 0.000303944)
(-0.000259873 0.000750206 7.48341e-05)
(-0.248693 0.26273 0.0215296)
(-0.0593524 0.0431827 0.0051922)
(-0.0137431 0.0092319 0.00119872)
(-0.00306661 0.0020767 0.000266754)
(-0.0007749 0.000367018 6.62853e-05)
(-0.0665377 0.268862 0.00780938)
(-0.019695 0.0761547 0.00207203)
(-0.00481016 0.0186144 0.000443928)
(-0.00100592 0.0042508 0.000126673)
(-0.000264436 0.000748416 2.40856e-05)
(-0.0276684 1.22249 0.00340829)
(-0.262344 1.73962 0.0176975)
(-0.240761 1.699 0.167226)
(-0.0927492 1.18569 -0.0308672)
(0.0546109 0.692638 0.0277814)
(0.0972525 0.728114 0.0297769)