/*--------------------------------*- C++ -*----------------------------------*\
| =========                 |                                                 |
| \\      /  F ield         | OpenFOAM: The Open Source CFD Toolbox           |
|  \\    /   O peration     | Version:  v2106                                 |
|   \\  /    A nd           | Website:  www.openfoam.com                      |
|    \\/     M anipulation  |                                                 |
\*---------------------------------------------------------------------------*/
FoamFile
{
    version     2.0;
    format      ascii;
    arch        "LSB;label=32;scalar=64";
    class       volScalarField;
    location    "1";
    object      gradTz;
}
// * * * * * * * * * * * * * * * * * * * * * * * * * * * * * * * * * * * * * //

dimensions      [0 -1 0 1 0 0 0];

internalField   nonuniform List<scalar> 
5712
(
6618.28
21767
5245.93
22345.6
3931.37
23146.8
6221.24
35711.1
7670.32
49074.9
7611.83
35732
7337.36
29630.5
7623.34
26452.3
4602.87
2849.16
12352.2
7331.13
4509.75
2470
13544.7
6788.57
5017.93
3600.4
16118.5
11253.9
3784.76
2688.32
15874.4
11453
8908.41
3753.21
7684.03
3410.47
3494.46
8272.72
31071.1
8432.48
11126.5
3777.26
40065.1
10891.6
10479.9
3640.88
22137.2
6880.03
11357
3970.09
19182.4
6113.35
5097.13
2525.39
7799.97
3015.45
5516.12
2985.73
7629.54
2900.05
7105.35
4024.08
6579.33
2829.92
9863.87
3524.22
3401.94
1181.1
11348.8
7832.85
7011.42
5134.93
13061.2
10789
7084.89
6200.98
6517.08
4355.92
9114.6
6004.67
4633.02
3417.33
2388.9
1962.75
4570.21
3992.83
2407.57
2329.88
4373.06
2843.83
2268.74
1444.72
5739.38
3094.3
4246.43
5177.83
7767.75
5496.65
6074.97
8785.6
3830.19
1799.32
2519.86
2985.27
1921.7
789.099
1096.55
1108.5
6529.95
11735
4457.77
13139.3
7731.97
11538.6
5517.13
13836.9
8896.93
10534.5
7183.2
13636.4
11273.8
13937.7
8102.99
7636
8395.07
13930.3
12329.9
11660
11685.3
16964.7
11308.6
8338.85
6924.4
7641.84
12150
13488.1
11950.5
15689.1
14941.1
12359.5
11377.2
15552.3
14678.8
10742.6
10392.3
14667.6
14211.4
10156.8
7918.27
8945.33
7647.53
9454.22
8223.98
9925.96
9321.04
13650.3
13750.4
9478.48
8121.29
8633.06
8024.84
8611.24
8813.38
9535.98
10398.8
12451.4
14059.8
7627.64
5954.33
5279.03
6750.33
10691.8
13138.4
7447.16
11834.3
4338.76
5768.22
6406.43
5238.32
1259.73
4499.77
673.13
1625.61
3838.75
7993.9
1432.52
2782.72
514.8
3725.77
314.486
1307.17
4188.22
4265.89
4738.24
2874.11
6586.4
5203.6
7724.44
5222.97
898.92
2330.65
2335.75
1280.05
1329.97
1746.5
1901.42
1428.6
9412.6
5669.43
1759.67
10696.1
6078.35
1979.2
9023.31
5611.66
1871.84
10566.3
6094.95
1977.77
8322.36
5150.58
1680.02
10362.9
6151.91
2047.08
5072.16
2662.45
691.648
6101.64
3980.75
1389.65
7026.91
4846.11
1669.48
7968.3
5106.23
1685.99
10304.4
6354.82
2226.3
6079.18
3332.11
1025.92
5614.08
3999.73
1496.65
6438.34
4748.6
1727.17
8028.52
5604.16
1987.14
10402.5
6403.3
2254.89
256.339
1949.08
2590.06
3959.05
1966
2359.8
4986.07
4891.43
569.968
1024.77
609.641
1069.64
429.306
1340.86
814.3
1784.24
3010.06
1520.07
4000.54
2340.98
2124.17
3586.76
3279.13
928.18
5683.68
1416.88
-1700.99
669.282
1842.65
1308.36
1132.29
1074.28
9919.19
5123.02
2733.17
1879.75
10123.4
5356.18
3342.56
2295.88
10143.6
5810.9
4881.54
3673.24
3268.02
2456.11
1644.11
1626.92
12647.2
11296.5
5957.64
6246.54
13197.1
12432.4
6467.37
6597.79
5521.15
5761.2
11206.9
9515.03
3563.52
3761.35
2036.27
2288.89
3989.77
4009.7
2236.02
2392.28
3247.81
3523.22
1872.3
2226.52
5132.15
3936.03
5269.04
4187.81
8032.72
5423.3
7818.85
5868.41
3097.58
2734.31
3301.04
2682.73
1774.58
1680.28
2041.88
1501.93
12410.2
10073.2
7111.58
8179.68
12448
10161.7
7194.86
8157.49
12882.5
10203.3
7316.47
7872.3
13927.7
14571.9
13059.1
9310.64
6127.26
13931.7
13512.5
13236.4
11681.8
8924.46
12953.8
12106.4
10142.2
8392.43
6157.84
9829.21
9734.43
9925.32
12397.4
9748.82
9253.15
9833.07
12017
9589.54
8591.12
9643.94
11480.3
10593.9
7580.92
10475
7609.72
9008.1
7716.07
9122.98
8474.28
8813.43
11083.3
8794.7
7727.48
8276.77
7482.92
7679.46
7360.58
7556.43
8087.54
7170.76
10658.1
7372.03
5248.41
4884.98
3122.94
9076.52
7109.85
6310.36
5139.08
4323.55
2990.03
6326.42
5113.75
4804.88
2451.66
1770.98
1070.93
4933.46
3636.86
1742.34
1462.63
4346.53
2264.7
1703.28
987.236
4100.71
4289.49
4142.29
6464.6
5783.9
6104.57
5468.44
8538.84
3743.88
2881.98
2752.58
4162.91
1271.45
768.008
526.836
981.205
6987.98
2907.19
837.15
8471.65
2153.4
562.586
6832.09
3056.17
923.219
8295.65
2207.94
598.622
6014.99
2865
745.377
7907.61
2196.23
513.124
4704.02
2359.35
505.202
4774.18
2334.36
548.97
5262.11
2587.61
703.929
5800.75
2754.82
593.447
7672.88
2088.07
338.215
5998.76
3012.76
788.105
5963.47
3029.5
834.27
6014.01
3028.95
884.474
6391
2725.04
666.134
8168.12
1856.96
442.019
2152.75
842.617
348.895
188.984
875.865
360.308
152.59
76.9786
2278.3
914.643
393.919
219.828
1079.8
477.103
227.359
123.131
2459.02
1012.16
463.124
266.995
1808.82
885.936
478.896
310.636
1290.77
763.667
478.86
337.179
1192.83
823.482
565.919
397.698
2006.11
927.698
490.671
322.468
1763.23
775.685
446.379
328.498
2466.88
1005.26
480.943
301.946
2249.5
887.25
470.723
359.008
1552.48
826.907
488.495
327.815
1318.55
666.782
420.575
310.603
1096.65
697.767
467.998
334.583
861.118
541.738
384.779
298.027
2850.92
1046.56
428.132
257.173
2980.64
996.223
388.032
287.963
2841.75
1051.85
442.862
273.587
2885.53
966.104
384.211
289.024
2783.86
1044.57
453.588
279.088
2679.35
908.122
370.74
291.215
2394.4
926.861
443.69
300.687
2922.5
1000.48
444.513
378.048
2188.34
825.842
426.343
342.801
2475.51
710.108
276.309
223.553
1012.79
258.741
107.319
76.8147
2501.2
737.906
294.996
233.521
1032.73
272.312
115.956
83.1978
2463.61
761.238
312.566
243.587
1012.22
282.816
129.383
96.5467
2196.06
708.286
302.367
236.844
956.698
283.546
138.189
107.554
1972.74
683.097
320.585
241.552
816.59
281.327
153.088
124.663
1366.12
535.807
321.091
264.065
715.378
340.817
232.972
196.141
1611.17
562.129
298.983
243.86
738.585
301
189.967
160.441
1060.41
499.959
333.958
277.028
629.031
358.06
262.164
220.857
703.73
438.189
322.361
271.983
510.813
358.079
271.909
228.836
57.3648
24.431
13.3915
8.68091
6.76776
27.1559
12.5976
7.11777
4.65389
3.6361
83.6652
41.7857
24.5229
16.2333
12.7225
60.0166
33.4248
20.3189
13.5815
10.6699
117.549
63.4701
38.3502
25.6045
20.1099
173.69
102.871
63.8412
42.9291
33.7783
197.901
119.869
74.942
50.5201
39.7805
244.515
151.598
95.5791
64.6227
50.9348
152.218
86.8771
53.459
35.8835
28.2321
137.098
78.662
48.5105
32.5874
25.6532
129.207
70.7765
43.1069
28.8522
22.6764
132.738
76.671
47.4118
31.8608
25.0742
172.337
101.262
62.8236
42.2739
33.2777
153.18
90.9234
56.6108
38.1356
30.0369
199.689
122.77
77.2546
52.2142
41.153
166.518
101.446
63.7056
43.0365
33.9268
54.0498
19.9389
10.4754
6.71752
5.22414
23.3619
7.83413
4.03415
2.57796
2.00395
69.5444
30.4526
17.2447
11.3124
8.84692
28.9099
11.6097
6.46108
4.22376
3.3012
84.0896
41.3375
24.4329
16.2259
12.7272
46.7792
23.83
14.2934
9.53108
7.48473
119.981
65.3946
39.872
26.6882
20.9491
73.4919
40.116
24.5221
16.4254
12.8985
132.999
78.0247
48.404
32.5409
25.5874
1383.01
3169.15
1375.64
3124.88
1479.05
3087.24
1770.32
3219.72
1866.79
3348.23
720.751
1171.16
1216.59
1996.34
367.666
557.076
120.071
175.645
7289.78
1733.46
395.309
87.8346
21.6903
1978.1
531.005
140.759
31.8572
6.87599
7236.05
1705.85
388.494
85.5717
21.287
2011.13
592.435
145.457
33.6619
8.3111
6967.34
1629.75
369.527
81.2563
20.2402
1952.25
573.684
140.512
32.3553
8.01481
6452.69
1494.69
337.66
74.1722
18.5015
1904.72
548.115
132.481
30.2376
7.45581
5472.76
1260.35
284.714
62.6027
15.6363
1814.57
507.688
121.33
27.5447
6.80502
2645.21
636.849
146.161
32.265
7.98215
887.009
252.083
59.618
13.2239
3.2025
3905.33
926.931
211.176
46.4446
11.5185
1306.63
366.652
87.6004
19.8385
4.90444
1561.19
378.982
87.3699
19.3766
4.79953
492.721
145.92
34.2446
7.59859
1.87085
538.241
129.805
29.968
6.66886
1.65713
195.234
51.8008
11.0982
3.16683
0.60214
85.2074
442.436
4180.65
-771.681
694.535
744.422
2146.51
2753.31
1669.36
3224.94
2696.83
4203.29
3289.92
4089.98
1702.59
2301.62
1826.39
2165.85
953.038
990.636
2266.43
1689.41
495.778
-521.607
-831.03
-999.371
-329.481
12631.8
2946.36
4130.95
2637.2
-226.384
-95.2141
2949.04
-1501.03
-872.296
-1165.72
-605.133
6928.51
3664.78
1217.87
1025.36
3692.24
2018.59
628.052
1395.64
-1598.43
-951.733
680.451
528.758
8563.62
4317.83
5254.17
2849.03
4151.22
4381.22
1540.31
-985.1
897.048
1655.72
1414.37
1288.82
1258.86
1096.31
1364.23
1130.26
920.579
682.613
310.386
444.473
380.754
300.574
198.573
70.8985
-465.221
-387.4
-288.376
-176.785
-59.4569
-743.131
-621.249
-464.788
-286.248
-96.4702
-895.033
-749.698
-562.133
-346.906
-117.063
-284.647
-225.289
-155.931
-87.8652
-27.6083
9579.07
8827.93
8184.54
8304.11
8600.72
2818.25
2694.07
2722.38
2464.79
1416.7
3285.58
2779.83
2530.26
2158.67
1227.4
2161.31
1904.41
1799.11
1491.85
670.969
-21.0687
66.3871
210.391
230.181
117.235
31.5765
145.639
214.566
202.043
89.4864
2591.3
2274.74
1905.25
1413.59
613.905
-906.296
-425.415
-143.827
1.29951
23.4843
-689.438
-482.986
-282.27
-125.312
-28.744
-820.889
-502.63
-248.452
-86.0661
-12.9261
-545.812
-451.808
-328.293
-193.826
-62.4843
5351.51
5103.3
4735.07
4818.47
5105.34
2908.02
2408.23
2136.7
1755.14
933.692
1180.44
1130.48
1020.06
775.033
320.749
933.192
835.948
709.928
513.65
203.76
3145.68
2621.58
2088.12
1458.81
589.372
1827.8
1599.34
1305.15
899.958
335.613
560.434
486.232
396.264
274.317
103.687
1253.31
1075.74
850.905
564.306
203.107
-1389.69
-1124.49
-814.202
-487.822
-161.343
-835.264
-679.065
-489.535
-289.534
-94.4938
631.846
573.029
487.456
348.513
133.897
494.07
451.18
385.511
275.06
104.462
5724.91
4412.25
4088.57
4144.4
4071.65
3373.73
2718.06
2209.86
1678.68
809.347
3985.34
3408.47
2930.87
2458.99
1309.77
2327.36
1963.46
1601.58
1187.65
548.345
3597.73
3020.57
2388.41
1630.1
625.415
3407.31
2630.2
2283.38
1855.7
863.031
1371.74
1172.51
930.178
623.013
227.384
-872.885
-719.023
-526.875
-317.011
-104.865
817.037
730.708
618.514
444.119
172.077
-25352
-41517.6
-21027.8
-33641
-22614.7
-47305.6
-27045.6
-60010.3
-16090.7
-11031.8
-18093.1
-11274.1
-14923.1
-9659.91
-18397.6
-9719.79
-20911.2
-15706.4
-30488.2
-21917.4
-17965.9
-14270.2
-25510.3
-19126.5
-14426.7
-14734.2
-11848.1
-11385.2
-13904.8
-13119.2
-35352.8
-9750.35
-13448
-5007.88
-43256.7
-11979.6
-12050.9
-4453.91
-26266.7
-8274.32
-13761.4
-5264.19
-23319.9
-7258.37
-10742
-4313.04
-13721.3
-4965.23
-10191.1
-4472.02
-11936.6
-4312.44
-10585.2
-5116.39
-9541.51
-3778.26
-12271.4
-4325.44
-4311.21
-1511.98
-9258.98
-6140.87
-7967.57
-4863.1
-8287.29
-6705.55
-7069.13
-5088.74
-8051.61
-4560.41
-9430.06
-5838.66
-5451.87
-3254.2
-2942.98
-1803.15
-4745.2
-3294.89
-2468.92
-1756.7
-5512.58
-2984.31
-3058.81
-1527.75
-7068.81
-3579.25
-4544.88
-5305.97
-8959.76
-6000.95
-6386.11
-8938.53
-4801.22
-2148.83
-2723.9
-3071.44
-2606.99
-1047.69
-1238.4
-1171.08
-10522.2
-12762.5
-5912.49
-14390.8
-10948.3
-12189.7
-6791.24
-14723.7
-11086.3
-11127.9
-8101.09
-14032.9
-7687.77
-6303.01
-8337.05
-9191.1
-9145.24
-8710.63
-9847.64
-11294.5
-12038
-17047.3
-5958.43
-6009.9
-6455.09
-7773.3
-12183.2
-12098.1
-8441.15
-15304.9
-11760
-11223
-8317.98
-15083.1
-11713.5
-9952.82
-7773.82
-14083.2
-11595.2
-7212.01
-5779.23
-7239.43
-5783.17
-7965.98
-6401.64
-8605.01
-7256.56
-12849.5
-11655
-6775.34
-5857.63
-6617.7
-5671.76
-7154.25
-6589.23
-8527.53
-8361.73
-11900.9
-12164.2
-6075.92
-4835.17
-4475.93
-5900.72
-7809.23
-10903.5
-5910.11
-10047
-4038.2
-5379.49
-5764.35
-4702.25
-752.595
-3893.67
-207.085
-1142.49
-2848.34
-6923.65
-610.682
-1919.93
-325.571
-3437.38
-112.108
-1064.65
-4122.93
-4122.72
-4738.84
-2829.23
-6381.18
-4946.33
-7663.79
-5013.47
-863.575
-2225.5
-2327.68
-1247.24
-1271.42
-1646.56
-1877.4
-1384.83
-5115.28
-1760.28
-6896.67
-2355.48
-5232.07
-1837
-7062.67
-2538.08
-5196.54
-1810.7
-7490.7
-2896.38
-3402.88
-948.509
-4101.82
-1582.75
-4533.79
-1769.25
-5385.87
-2047.36
-7901.65
-3157.67
-4347.87
-1303.45
-3701.2
-1855.34
-4372.13
-2116.46
-5886.36
-2600.62
-8163.7
-3094.51
-5919.59
-5626.07
-4276.29
-4329.39
-9575.49
-7422.24
-7650.94
-6437.45
-4224.45
-3861.4
-1697.56
-1312
-3997.32
-4015.45
-1557.76
-1655.29
-2822.35
-4718.04
-3452.89
-5063.58
-4030.69
-2386.7
-3028.65
-433.62
-6255.51
-1599.86
2352.17
486.95
-959.195
-226.799
281.749
730.311
-2938.45
-2379.55
-1066.31
-776.09
-3052.62
-2518.98
-1426.79
-834.673
-3393.76
-2957.65
-1890.33
-1104.62
-990.489
0.359243
721.486
1141.26
-5139.46
-5547.42
-3895.69
-3715.44
-6575.56
-6638.44
-5393.06
-4596.87
-2779.34
-3141.57
-4213.92
-4831.11
-2328.58
-2061.2
-976.021
-889.086
-3436.06
-2731.75
-1731.46
-1361.7
-1442.24
-1626.27
-307.444
-609.013
-2094.76
-1766.79
-2946.19
-2529.75
-3331.08
-3159.23
-4525.63
-4056.5
-829.436
-640.289
-1451.66
-1132.57
255.579
413.174
-388.619
-2.57308
-4465.05
-5860.48
-4185.19
-6441.47
-4425.95
-5758.5
-4296.9
-6451.52
-4566.28
-5259.89
-4504.99
-6150.68
-2974.77
-4566.45
-2839.23
-2921.41
-3523.44
-6948.17
-5292.22
-5367
-6067.45
-7083.05
-5532.62
-4907.11
-4526.18
-4647.61
-4356.22
-7190.52
-7484.65
-10074.9
-15388.1
-6711.9
-6699.61
-9660.84
-14624.8
-6021.78
-5948.59
-8941.37
-13423.6
-6837.83
-5332.48
-6493.3
-5088.72
-6145.85
-5105.88
-6806.11
-6573.5
-8227.04
-12485.9
-5586.58
-5340.3
-5077.49
-5203.83
-5040.29
-5473.34
-5776.93
-7072.76
-6242.48
-11371.6
-4208.81
-3221.02
-2856.78
-1284.07
-5578.86
-4991.71
-4298.25
-3239.46
-2500.96
-1367.44
-3842.29
-3402.64
-3258.11
-1172.53
-451.408
67.0638
-3538.8
-2385.1
-610.141
-367.449
-2840.17
-1099.18
-336.356
78.3715
-2689.32
-3163.7
-3243.22
-5992.3
-4121.9
-5004.08
-4648.06
-8379.92
-2433.52
-1966.35
-1737.74
-3565.73
12.0816
140.803
557.876
-261.213
-5382.9
-1572.65
-10498.3
-1243.38
-5003.45
-1666.25
-10173.9
-1291.22
-3805.2
-1040.45
-9288.93
-1125.49
-2969.35
-668.237
-2959.5
-710.106
-3505.5
-1094.8
-4081.86
-852.994
-8766.67
-1312.73
-4160.69
-829.957
-4150.96
-735.968
-4617.45
-1003.11
-5626.09
-970.788
-9177.82
-1174.11
-1109.99
-324.275
-15.6866
73.7347
-381.187
-101.205
7.77122
33.3027
-1110.05
-291.121
19.898
104.96
-295.037
-21.5749
62.32
73.1728
-1155.55
-256.88
57.7162
142.277
-155.379
184.283
277.897
255.643
543.094
499.998
422.817
315.582
1042.46
769.848
565.15
398.459
-600.832
16.4296
207.293
228.916
-532.096
104.548
216.831
221.844
-1256.6
-240.698
81.3865
172.321
-1027.51
-60.4771
154.423
223.934
-3.52002
268.379
301.495
254.42
-87.366
247.949
275.524
244.102
556.591
500.999
413.924
319.569
375.69
394.186
337.458
278.011
-1750.61
-504.847
-62.5875
86.9009
-2182.14
-568.119
-107.023
86.1146
-1691.35
-457.745
-32.7571
109.291
-2100.83
-532.048
-92.0381
94.2759
-1591.8
-385.465
-4.54225
121.766
-1911.75
-463.568
-63.8802
114.478
-1115.55
-178.843
85.3811
176.303
-2002.03
-429.796
-28.3441
164.196
-1063.59
-94.7675
135.75
235.987
-2040.49
-427.116
-87.8273
56.0732
-890.811
-160.431
-30.387
13.47
-1916.79
-382.25
-64.8687
69.7541
-851.59
-146.17
-21.1336
21.1838
-1663.07
-293.047
-24.4662
90.4538
-732.844
-108.681
-1.12221
36.3168
-1384.82
-213.267
7.4232
102.903
-611.771
-70.6988
21.7201
54.6238
-1056.95
-90.7848
70.3775
129.698
-352.622
16.1257
65.8822
83.7861
-537.171
88.2232
168.86
189.737
37.1226
215.147
187.818
171.731
-877.319
-40.06
100.379
151.572
-110.419
127.803
129.013
128.143
-124.767
225.666
235.941
224.35
188.424
283.963
233.663
204.146
287.087
342.212
289.575
254.533
341.512
332.036
262.624
223.334
36.0317
20.5781
12.681
8.53168
6.72265
18.5189
10.9463
6.79588
4.57879
3.60848
63.5557
38.0881
23.7917
16.0616
12.6676
51.5754
31.7124
19.9339
13.477
10.6289
98.5446
59.8961
37.5957
25.4165
20.0632
161.771
100.079
63.124
42.7236
33.6961
188.194
117.51
74.3489
50.3632
39.7568
242.854
150.938
95.3561
64.5504
50.9238
135.212
83.6172
52.7563
35.7118
28.1208
125.724
76.3959
47.9901
32.4568
25.4667
110.865
67.4931
42.408
28.6802
22.6359
125.734
75.0859
46.9626
31.7406
24.9402
157.326
98.3179
62.1979
42.1317
33.255
145.599
89.272
56.2107
38.035
29.9649
197.188
122.165
77.0863
52.169
41.1643
164.473
100.948
63.5723
43.0072
33.9472
30.3771
16.1254
9.8106
6.58481
5.18548
12.4386
6.23156
3.76036
2.52019
1.98317
47.0794
26.77
16.5621
11.1575
8.7976
18.4575
10.05
6.17839
4.15653
3.27638
65.0873
38.1946
23.8061
16.0664
12.6945
38.7049
22.5081
13.997
9.44004
7.43596
106.838
62.9298
39.2651
26.4788
21.1608
66.1604
38.7927
24.173
16.2964
12.98
130.353
76.903
47.9637
32.3758
25.6591
-1636.94
-3066.9
-1673.01
-3064.97
-1805.01
-3075.78
-1968.33
-3146.42
-1897.48
-3157.17
-729.584
-1155.63
-1228
-1932.95
-361.505
-542.82
-103.137
-155.635
-7768.87
-1830.84
-414.938
-91.7631
-22.5689
-2086.99
-560.599
-148.073
-33.3597
-7.16636
-7640.55
-1789.39
-405.704
-89.0525
-22.0845
-2127.26
-625.677
-152.882
-35.2206
-8.66185
-7236.59
-1689.17
-382.439
-83.9791
-20.8862
-2058.25
-602.791
-147.022
-33.7304
-8.32984
-6581.35
-1528.22
-345.762
-76.0039
-18.9597
-1978.1
-569.315
-137.437
-31.3184
-7.71115
-5507.77
-1274.28
-288.739
-63.6083
-15.9062
-1845.23
-519.774
-124.529
-28.2925
-6.99141
-2644.64
-637.751
-146.659
-32.436
-8.03838
-888.272
-253.951
-60.3544
-13.4372
-3.26525
-3910.63
-930.976
-212.678
-46.876
-11.6462
-1313
-371.536
-89.157
-20.2397
-5.01285
-1558.93
-378.945
-87.505
-19.4405
-4.82264
-490.661
-146.232
-34.5202
-7.70097
-1.90266
-535.377
-129.492
-29.9862
-6.69573
-1.67184
-190.752
-51.354
-11.1539
-3.21922
-0.628501
201.817
-960.055
-4987.81
770.147
-6211.87
-2699.3
-6014.37
-2721.53
-10603.8
-5608.3
-11873.8
-6255.96
-150.532
-586.109
-917.281
-1078.94
-970.84
-412.377
-244.873
-904.124
-1366.64
-1503.75
-1210.17
-422.61
-128.006
-136.663
-471.382
-474.602
-672.234
-663.752
-648.669
-610.399
-582.514
-550.172
-463.583
-404.424
864.757
2270.01
3667.56
2590.2
2382.46
1144.75
830.342
2397.46
3862.45
4454.02
3704.43
1681.58
-135.93
-115.101
-87.3837
-54.5388
-18.5353
-529.848
-449.282
-341.593
-213.456
-72.5932
-829.193
-703.088
-534.564
-334.051
-113.61
-975.071
-826.525
-628.227
-392.496
-133.472
-877.002
-742.891
-564.141
-352.131
-119.674
-372.818
-315.214
-237.943
-147.245
-49.6963
-221.058
-187.137
-142.052
-88.6583
-30.1323
-817.105
-692.683
-526.583
-329.056
-111.914
-1234.95
-1046.83
-795.837
-497.379
-169.184
-1358.31
-1151
-874.906
-546.836
-186.033
-1092.51
-925.278
-703.101
-439.436
-149.513
-381.835
-323.252
-245.035
-152.56
-51.7436
-115.644
-97.9761
-74.4198
-46.464
-15.7938
-123.515
-104.695
-79.562
-49.6934
-16.8949
-426.218
-361.482
-274.879
-171.78
-58.4209
-429.168
-364.021
-276.835
-173.013
-58.8419
-607.784
-515.43
-391.916
-244.907
-83.2889
-600.096
-508.891
-386.934
-241.791
-82.2287
-586.368
-497.113
-377.825
-235.997
-80.2356
-551.634
-467.563
-355.33
-221.952
-75.4656
-526.138
-445.446
-337.914
-210.65
-71.523
-496.619
-420.303
-318.899
-198.925
-67.5828
-417.984
-352.545
-265.774
-164.478
-55.5498
-364.397
-307.519
-232.422
-144.402
-48.926
775.988
656.93
503.794
320.14
110.581
2028.16
1711.93
1312.71
837.093
290.93
3245.69
2730.11
2105.97
1364.79
485.617
2277.23
1911.6
1478.77
963.219
343.877
2124.74
1786.8
1372.65
872.294
280.295
1049.7
897.762
695.396
439.384
135.388
744.793
629.214
480.486
303.677
104.44
2145.24
1809.47
1381.92
875.265
302.017
3439.52
2894.87
2216.28
1413.7
492.266
3944.46
3311.33
2541.22
1632.67
573.958
3280.95
2755.36
2117.55
1362.01
476.303
1503.22
1272.96
984.07
633.982
220.717
319.356
751.677
1076
1227.77
1105.97
549.331
477.841
1129.08
1573.02
1677.32
1337.46
506.299
261.613
249.661
599.293
582.839
787.445
760.26
742.852
683.177
663.855
558.933
600.195
444.815
-708.13
-2030.96
-3253.38
-2035.72
-1702.64
-399.721
-760.407
-2283.17
-3610.1
-4001.24
-3054.29
-907.435
289.101
245.556
187.022
117.029
39.8301
680.155
577.394
439.521
274.915
93.5443
973.472
826.262
628.881
393.328
133.833
1110.66
942.609
717.378
448.662
152.661
1000.6
849.208
646.195
404.033
137.445
498.46
423.691
321.977
200.553
67.9757
432.54
367.376
279.814
175.11
59.6024
1021.47
867.028
659.978
412.84
140.489
1422.74
1207.35
918.919
574.821
195.621
1516.63
1286.74
979.316
612.702
208.553
1208.99
1025.53
780.525
488.44
166.298
458.521
389.367
296.178
184.969
62.8509
236.822
201.138
153.177
95.8399
32.616
225.987
191.918
146.139
91.4265
31.1121
542.303
460.387
350.45
219.191
74.5802
527.406
447.728
340.801
213.147
72.5216
712.486
604.787
460.314
287.882
97.9484
687.858
583.854
444.364
277.901
94.5513
672.16
570.543
434.204
271.509
92.3661
618.044
524.527
399.166
249.615
84.9247
600.816
509.982
387.958
242.425
82.4252
505.569
428.97
326.345
204.013
69.3955
543.776
461.645
350.696
218.562
74.1367
402.422
341.357
259.429
161.936
55.0138
-632.365
-533.007
-407.896
-259.397
-89.7814
-1809.36
-1523.53
-1167.31
-745.314
-259.616
-2863.73
-2398.11
-1847.46
-1200.67
-429.596
-1751.28
-1440.84
-1100.77
-715.832
-256.938
-1473.74
-1200.59
-898.112
-557.639
-167.243
-334.606
-252.12
-171.089
-90.461
-10.0448
-681.102
-574.713
-438.677
-277.39
-95.4788
-2041.58
-1721.2
-1314.6
-833.184
-287.74
-3208.41
-2695.71
-2062.43
-1316.48
-459.067
-3524.84
-2944.8
-2253.87
-1448.53
-510.373
-2673.29
-2219.94
-1693.77
-1087.63
-380.604
-776.884
-630.331
-473.176
-301.76
-104.504
-1369.23
-884.004
-194.076
777.273
1092.21
1390.61
670.534
-10532.6
-1578.58
-3039.22
-1458.72
316.792
-3996.79
926.876
2597.46
1267.34
-5683.01
-2581.51
-363.429
-487.919
-3350.39
-1220.16
-198.885
-993.59
2318.75
1490.75
-467.677
-97.8438
-7533.63
-3553.51
-4133.85
-2008.91
-3544.59
-3192.52
-1029.39
1519.46
-304.632
-689.844
-504.492
-505.326
-697.796
-865.84
-561.701
-385.806
-298.739
-254.664
-148.914
-165.195
-137.091
-109.917
-76.7653
-29.0034
702.86
595.724
452.238
282.007
95.7889
986.38
835.018
633.383
394.755
133.984
1256.05
1063.7
807.37
503.61
171.039
606.068
511.316
383.993
235.737
78.9046
-7877.44
-7463.93
-7277.68
-8044.9
-9123.91
-1085.93
-866.985
-1150.99
-1433.77
-1064.66
-2210.6
-1748.38
-1674.82
-1612.43
-1066.88
-975.452
-708.285
-725.649
-709.054
-349.643
282.163
218.166
129.801
45.6374
0.547308
-3399.62
-2871.46
-2307.32
-1650.44
-697.966
836.377
697.149
510.341
300.866
95.0887
2275.31
1877.02
1403.63
873.969
298.088
1141.19
960.714
723.27
446.815
150.077
-4137.84
-4069.02
-3975.66
-4448.38
-5201.74
-1828.04
-1396.7
-1308.89
-1223.08
-765.049
-305.028
-296.07
-320.452
-308.487
-158.524
-408.526
-353.846
-316.427
-255.808
-114.766
-2849.85
-2378.25
-1910.43
-1356.63
-560.664
-1053.24
-892.51
-731.221
-523.894
-204.459
-156.194
-126.746
-110.082
-89.2706
-39.7422
-874.581
-739.28
-583.654
-392.041
-143.738
2078.18
1746.13
1317.2
818.376
277.071
1344.05
1133
852.898
526.211
176.886
-403.24
-344.974
-289.065
-212.631
-85.7651
-77.0453
-70.3927
-75.4859
-71.4224
-33.5421
-4749.14
-3525.16
-3372.46
-3702.53
-3992.67
-2641.41
-2054.09
-1670.29
-1322.4
-683.829
-2840.51
-2361.76
-2066.27
-1888.55
-1090.71
-1520.89
-1230.71
-1007.21
-797.866
-414.418
-3027.36
-2514.01
-1987.48
-1373.65
-538.194
-2268.9
-1575.6
-1433.2
-1311.16
-679.907
-894.14
-751.398
-597.908
-409.957
-154.217
1372.04
1159.21
875.245
541.84
182.703
-246.203
-212.204
-198.816
-169.985
-77.0047
-10.8642
27.892
97.6708
146.015
124.793
31.1625
-17947.1
-15864.3
-15250.8
-17335.1
-13209.8
-10493.9
-12033.9
-9205.07
-15468.9
-13501
-14266.8
-13362
-12541.7
-10694.3
-13140.1
-14779.9
-13224.8
-12296.7
-13834.3
-11145.3
-9476.49
-10104.3
-8167.97
-13866.9
-12250
-12786.5
-11584
-11087.8
-10389.9
-10636
-11627.3
-10668.3
-9799.73
-10693.5
-9282.41
-7994.7
-8499.29
-7357.99
-11606.3
-10454.2
-10813.5
-9779.85
-9419.41
-8738.7
-8894.34
-8147.7
-7673.34
-6991.8
-7396.5
-6900.76
-6204.5
-6381.55
-5880.57
-8350.29
-8374.02
-7884.87
-7890.64
-7034.87
-6369.97
-7011.33
-5228.87
-5001.69
-4543.49
-4731.71
-4639.35
-4208.65
-4249.9
-3947.34
-5535.56
-5479.66
-5294.65
-5120.28
-4821.12
-4363.61
-4667.73
-1886.81
-1820.97
-1653.34
-1709.36
-1718.51
-1610.37
-1565.57
-1465.52
-2106.16
-2078.45
-1970.34
-1853.94
-1815.47
-1670.37
-1767
-7287.1
-7225.72
-10486.6
-11253
-6971.49
-6264.89
-9281.6
-7635.25
-6035.18
-4977.86
-6031.17
-4955.95
-6140.11
-5863.03
-5042.03
-7350.17
-7022.04
-9399.74
-10207.6
-6580.5
-6030.18
-8242.59
-7179.08
-6176.44
-4760.36
-6093.21
-4918.67
-5665.93
-5459.17
-5207.31
-6861.54
-6586.15
-8075.99
-8620.98
-6240.45
-5864.02
-7286.49
-6522.49
-5421.98
-5349.95
-5404.35
-5492.26
-5111.47
-5066.33
-5535.83
-5731.82
-5552.81
-6180.08
-6463.59
-5302.71
-4999.94
-5762.2
-5309.44
-5370.45
-5087.16
-5279.45
-5267.09
-4978.18
-4872.36
-5175.99
-4070.35
-3962.1
-4159.34
-4302.96
-3700.22
-3447.43
-3939.6
-3644.82
-3920.27
-4015.1
-3822.49
-4083.4
-3589.24
-3461.64
-3769.48
-1538.63
-1497.88
-1535.54
-1581.96
-1390.83
-1285.14
-1461.24
-1353.76
-1328.83
-1500.68
-1396.87
-1560.21
-1349.73
-1286.22
-1394.6
6588
21315.9
5216.93
22343.6
3916.35
23148.4
6217.28
35718.3
7665.72
49085
7596.59
35728.4
7306.01
29614.3
7601.48
25877.1
4596.24
2847.59
12352.9
7331.19
4508.3
2469.81
13547.5
6789.58
4986.28
3575.9
15794
11041.5
3765.78
2680.42
15887.6
11469
8913.92
3747.08
7684.4
3408.3
3490.09
8279.78
31079.3
8433.59
11128.3
3777.26
40074.2
10893.5
10481.9
3641.44
22148.6
6882.08
11360.2
3970.59
19197.4
6116.04
5045.71
2500.45
7660.63
2963.28
5516.74
2986.13
7642.48
2904.92
7104.44
4024.18
6583.49
2831.91
9871.99
3527.28
3403.88
1181.86
11347.8
7832.21
7011.24
5134.73
13059.7
10787.9
7084.99
6200.82
6517.16
4355.86
9113.87
6004.37
4633.34
3417.34
2388.55
1962.56
4570.77
3992.94
2407.59
2329.86
4373.76
2843.88
2268.51
1444.53
5740.1
3094.76
4246.55
5178.06
7767.56
5496.88
6074.97
8785.88
3831.38
1799.83
2520
2985.43
1921.81
789.183
1096.45
1108.51
6488.36
11728.4
4428.87
13129
7733.65
11534.6
5519.86
13833.9
8896.98
10533.4
7183.8
13635.7
11272.9
13935.8
8102.54
7636.3
8395.65
13928.5
12328.8
11659.1
11684.8
16964.6
11307.2
8338.03
6923.98
7641.77
12150.3
13507
11983
15691.9
14923.3
12353.1
11372.2
15545
14674.2
10740.1
10389.1
14666.2
14209.5
10155.5
7917.3
8944.31
7646.52
9453.15
8222.7
9924.48
9319.32
13649.6
13749.3
9477.45
8120.34
8632.27
8023.88
8610.56
8812.41
9535.41
10397.9
12451.4
14059.3
7627.18
5954.09
5278.84
6750.27
10690.9
13137.7
7446.79
11833.9
4338.69
5768.27
6406.18
5238.2
1259.61
4499.75
673.041
1625.57
3838.62
7993.73
1432.51
2782.68
514.706
3725.81
314.378
1307.13
4188.28
4265.96
4738.39
2874.15
6586.35
5203.58
7724.61
5222.98
898.902
2330.69
2335.83
1280.06
1329.95
1746.52
1901.45
1428.61
9435.68
5680.74
1766.42
10700.4
6085.9
1981.79
9019.84
5610.45
1871.66
10563.2
6093.2
1977.43
8320.04
5149.35
1679.68
10361.1
6150.61
2046.7
5071.42
2661.97
691.484
6100.74
3980.13
1389.44
7025.71
4845.3
1669.2
7966.72
5105.21
1685.66
10303.2
6353.83
2225.95
6078.42
3331.59
1025.72
5613.19
3999.06
1496.39
6437.34
4747.82
1726.87
8027.5
5603.31
1986.8
10401.6
6402.44
2254.53
261.237
1950.98
2602.91
3963.07
1968.12
2360.78
4993.2
4893.73
554.165
1012.12
591.619
1052.64
433.418
1340.91
818.441
1783.81
3021.06
1524.89
4004.75
2342.2
2127.72
3593.93
3283.36
931.676
5686.22
1418.65
-1690.21
676.783
1847.81
1313.01
1140.98
1081.24
9924.28
5115.4
2720.24
1869.64
10116.2
5356.75
3341.06
2296.04
10139.4
5810.35
4882.89
3672.97
3271.6
2456.49
1648.53
1628.5
12644
11294.8
5958.54
6246.62
13194.8
12430.9
6467.87
6597.78
5522.14
5761.24
11203.7
9513.52
3565.47
3761.88
2037.85
2289.42
3990.94
4010.04
2236.77
2392.54
3250.04
3523.76
1874.36
2227.14
5132.61
3936.14
5269
4187.79
8030.73
5422.84
7817.81
5867.99
3099.21
2734.84
3301.46
2682.97
1776.51
1681.21
2042.46
1502.35
12433.7
10080.4
7110.91
8181.32
12441
10161.3
7194.17
8157.89
12875.8
10200.3
7315.2
7871.43
13923.3
14568.6
13054.6
9307.63
6126.48
13929.1
13509.1
13232.6
11678.8
8923.36
12951.7
12104
10140
8390.92
6157.26
9834.65
9749.05
9922.12
12392.4
9746.47
9252.49
9830.58
12016.3
9587.49
8589.45
9643.43
11479.9
10592.2
7579.83
10472.8
7608.42
9005.93
7714.68
9121.05
8472.88
8812.61
11082.6
8793.29
7726.37
8275.04
7481.66
7677.81
7359.35
7555.14
8086.49
7170.12
10657.3
7370.62
5247.52
4884.53
3122.53
9075.25
7109
6309.92
5138.65
4323.19
2989.71
6325.25
5112.97
4804.88
2451.54
1771.21
1071.02
4933.41
3636.72
1742.46
1462.66
4346.53
2264.63
1703.55
987.354
4100.46
4289.18
4142.13
6464.29
5783.1
6103.94
5468.05
8538.31
3743.89
2881.9
2752.63
4162.8
1271.74
768.139
527.104
981.32
7001.5
2917.04
841.47
8483.41
2167.29
566.141
6830.02
3056.29
923.276
8292.61
2205.64
598.654
6013.69
2864.54
745.346
7906.75
2195.36
512.94
4703.3
2358.92
505.062
4773.39
2333.93
548.835
5261.22
2587.16
703.801
5799.74
2754.31
593.292
7672.25
2087.64
338.073
5997.97
3012.29
787.94
5962.62
3029.04
834.115
6013.17
3028.5
884.328
6390.23
2724.62
665.985
8167.55
1856.73
441.941
2145.06
838.258
345.999
186.711
867.847
356.222
150.275
75.4144
2278.87
914.851
394.041
219.952
1080.05
477.223
227.415
123.181
2459.08
1012.21
463.165
267.049
1808.71
885.922
478.896
310.634
1290.79
763.69
478.887
337.198
1193.33
823.717
566.045
397.763
2006.17
927.751
490.719
322.515
1763.29
775.738
446.423
328.55
2466.79
1005.25
480.961
301.982
2249.43
887.242
470.734
359.047
1552.68
827.021
488.574
327.875
1318.71
666.888
420.647
310.66
1097.05
697.977
468.12
334.654
861.376
541.894
384.881
298.097
2850.14
1045.75
427.104
256.135
2984.17
997.429
388.058
287.834
2841.32
1051.61
442.764
273.6
2884.9
965.825
384.099
288.981
2783.53
1044.43
453.54
279.11
2678.86
907.912
370.649
291.199
2394.13
926.744
443.637
300.683
2922.13
1000.33
444.449
378.063
2188.18
825.788
426.315
342.804
2482.45
713.013
277.148
224.13
1017.46
260.303
107.927
77.2235
2497.66
736.805
294.59
233.302
1031.18
271.869
115.803
83.0977
2462.87
760.911
312.421
243.527
1011.81
282.645
129.303
96.4923
2195.68
708.112
302.284
236.822
956.492
283.45
138.135
107.518
1972.52
683.007
320.54
241.548
816.483
281.273
153.051
124.637
1366.13
535.841
321.119
264.097
715.401
340.835
232.982
196.149
1611.09
562.114
298.98
243.875
738.541
300.977
189.949
160.428
1060.52
500.04
334.016
277.078
629.123
358.125
262.207
220.889
703.913
438.315
322.446
272.05
510.963
358.186
271.981
228.89
56.077
23.6367
12.888
8.33995
6.49904
26.2878
12.0701
6.7859
4.42944
3.45895
83.6957
41.8039
24.5355
16.2422
12.7297
60.0343
33.4358
20.3268
13.587
10.6742
117.562