/*--------------------------------*- C++ -*----------------------------------*\
| =========                 |                                                 |
| \\      /  F ield         | OpenFOAM: The Open Source CFD Toolbox           |
|  \\    /   O peration     | Version:  v2106                                 |
|   \\  /    A nd           | Website:  www.openfoam.com                      |
|    \\/     M anipulation  |                                                 |
\*---------------------------------------------------------------------------*/
FoamFile
{
    version     2.0;
    format      ascii;
    arch        "LSB;label=32;scalar=64";
    class       volScalarField;
    location    "1";
    object      T;
}
// * * * * * * * * * * * * * * * * * * * * * * * * * * * * * * * * * * * * * //

dimensions      [0 0 0 1 0 0 0];

internalField   nonuniform List<scalar> 
5712
(
541.922
556.65
532.401
550.222
518.585
541.37
494.757
521.846
494.469
515.881
515.714
536.653
528.585
546.688
537.027
553.152
510.645
492.175
528.716
502.114
485.014
465.462
503.178
474.374
549.336
556.297
560.89
564.704
540.058
548.677
555.204
560.613
540.347
526.618
519.925
510.929
537.345
549.903
546.161
545.838
511.337
515.101
524.709
523.857
483.412
486.562
552.592
554.498
529.667
535.182
560.884
563.315
561.045
568.249
567.617
570.974
554.938
565.85
564.535
569.738
542.667
560.643
552.663
565.45
560.182
568.354
563.098
569.377
478.982
467.85
485.65
469.963
449.348
439.261
456.609
441.773
511.03
496.61
504.985
494.475
490.441
470.956
491.723
470.731
461.575
443.081
462.947
443.015
515.403
497.582
516.615
497.418
533.154
557.893
522.22
550.214
527.6
554.59
519.523
547.595
537.17
559.823
523.504
551.604
538.425
560.526
523.538
552.23
555.796
545.335
565.237
557.514
547.133
536.717
561.788
553.018
533.937
524.105
555.684
546.152
465.566
430.466
495.58
519.568
548.018
425.185
460.4
490.676
513.562
539.824
430.236
462.256
490.769
515.593
542.383
526.75
510.906
531.047
515.914
521.195
506.511
529.055
513.712
512.223
498.448
525.842
510.623
415.673
404.021
452.322
441.048
481.597
469.827
503.91
491.257
523.951
509.746
419.568
406.805
453.275
444.047
482.332
472.985
506.42
495.582
526.299
513.942
456.24
451.422
454.431
449.628
423.493
405.423
423.182
404.059
482.935
481.427
484.856
482.46
451.934
448.19
451.791
448.194
422.29
403.71
422.362
403.88
480.139
479.979
479.961
480.027
508.907
507.441
529.597
527.456
509.593
506.844
529.456
525.589
507.416
506.82
529.388
527.822
506.067
505.869
528.248
526.723
494.317
481.988
475.724
497.097
483.728
477.216
491.069
478.546
472.012
494.946
481.086
474.238
483.179
470.588
463.978
491.714
476.807
469.379
391.818
383.669
379.966
428.327
417.537
411.906
456.271
443.409
436.243
475.997
462.413
455.356
489.828
473.172
464.711
393.179
382.884
378.088
433.365
421.953
416.028
460.66
446.92
439.251
479.762
463.406
454.496
491.437
472.483
462.586
423.998
415.06
429.452
420.734
452.9
438.259
462.689
445.514
402.903
382.478
404.07
384.49
403.748
384.584
405.633
386.878
404.945
400.913
403.612
398.081
387.126
391.046
424.705
427.378
450.662
453.304
407.949
411.894
407.398
409.968
393.878
396.785
362.545
347.987
368.096
351.849
364.441
348.116
370.145
352.665
367.355
347.989
374.901
353.863
378.635
356.988
380.445
358.845
397.979
388.45
405.478
391.98
421.843
411.817
429.116
414.973
386.955
372.576
379.49
368.948
409.748
393.967
411.631
394.6
433.551
416.684
435.167
416.966
391.15
374.709
393.182
375.536
369.582
350.068
357.309
342.426
362.511
345.323
353.842
339.754
373.846
353.443
359.393
344.17
376.147
355.646
360.291
345.118
345.949
333.068
340.386
331.035
347.18
334.872
340.156
331.308
350.226
339.868
340.252
332.897
379.042
401.095
363.282
352.121
339.055
396.22
374.26
356.381
345.479
334.206
400.792
378.803
361.544
348.574
336.389
320.774
307.957
320.508
308.052
323.437
310.971
321.727
309.518
329.056
317.001
324.194
312.283
386.134
374.245
364.15
352.01
347.953
336.402
336.807
324.902
327.57
315.896
389.546
375.143
367.973
353.654
351.89
338.454
339.735
326.198
329.868
317.345
372.112
353.275
375.021
355.162
394.133
374.352
396.369
374.835
357.773
340.133
355.058
338.014
377.473
356.371
378.162
356.921
397.952
375.087
398.391
375.473
360.226
341.605
360.928
342.088
342.791
326.394
331.168
316.56
341.436
324.742
330.571
315.941
343.992
327.563
331.523
316.542
345.401
328.083
332.12
317.092
293.574
286.704
284.051
286.578
280.891
279.03
297.514
290.078
287.149
288.516
282.59
280.508
304.44
296.67
293.469
291.456
284.717
282.282
362.512
354.803
351.331
340.504
333.208
330.111
324.722
317.143
314.145
311.548
302.847
299.138
293.405
285.751
282.903
361.143
351.22
346.982
339.96
330.188
325.974
324.582
314.963
310.985
310.073
300.717
297.202
291.568
284.576
282.017
340.565
338.612
338.526
338.837
342.369
339.349
338.814
338.962
340.526
338.648
338.612
338.933
342.847
339.632
339.013
339.104
340.227
338.617
338.696
339.025
343.114
339.874
339.234
339.26
344.669
340.721
339.696
339.546
345.93
341.567
340.255
339.926
341.548
339.418
339.187
339.293
338.582
338.549
339.003
339.256
339.329
338.41
338.708
339.054
337.369
337.903
338.626
339.043
343.325
340.336
339.666
339.57
339.601
339.154
339.391
339.513
344.693
341.161
340.181
339.923
340.447
339.724
339.8
339.83
337.554
337.466
338.095
338.64
333.785
336.126
337.601
338.391
337.414
337.446
338.14
338.703
333.937
336.209
337.668
338.451
337.309
337.47
338.22
338.792
334.529
336.474
337.825
338.566
336.702
337.361
338.257
338.847
334.92
336.696
337.975
338.684
336.028
337.282
338.295
338.863
330.522
335.111
337.21
338.022
328.508
334.601
336.957
337.777
331.048
335.303
337.299
338.083
329.112
334.812
337.051
337.837
331.977
335.662
337.486
338.218
330.119
335.184
337.232
337.957
333.052
336.122
337.726
338.393
331.196
335.634
337.463
338.114
333.992
336.647
338.01
338.569
331.973
336.096
337.73
338.3
335.199
337.627
338.689
339.034
332.905
337.051
338.429
338.854
334.612
337.144
338.341
338.786
332.412
336.575
338.062
338.552
335.743
338.101
339.066
339.334
333.448
337.564
338.841
339.199
336.377
338.602
339.464
339.678
334.121
338.11
339.273
339.567
339.319
339.605
339.778
339.873
339.915
339.359
339.624
339.788
339.88
339.92
339.385
339.647
339.804
339.891
339.929
339.451
339.681
339.824
339.904
339.94
339.465
339.698
339.837
339.913
339.946
339.558
339.749
339.867
339.933
339.962
339.719
339.847
339.929
339.975
339.995
339.947
339.988
340.017
340.034
340.042
339.604
339.782
339.889
339.948
339.974
339.647
339.816
339.912
339.963
339.986
339.514
339.732
339.858
339.927
339.958
339.563
339.767
339.881
339.943
339.97
339.752
339.872
339.945
339.986
340.004
339.781
339.897
339.962
339.997
340.013
339.964
340.002
340.027
340.041
340.047
339.966
340.009
340.033
340.045
340.051
339.272
339.587
339.768
339.867
339.91
339.236
339.575
339.762
339.863
339.907
339.32
339.617
339.787
339.879
339.92
339.274
339.598
339.777
339.873
339.915
339.395
339.664
339.817
339.899
339.936
339.345
339.641
339.803
339.89
339.929
339.464
339.709
339.845
339.919
339.951
339.43
339.691
339.834
339.911
339.945
339.51
339.737
339.863
339.93
339.96
537.217
534.929
536.659
534.361
535.945
533.76
535.817
533.75
537.249
535.288
540.356
540.802
539.545
539.278
540.599
541.28
540.609
541.131
565.787
571.464
572.655
572.923
572.981
559.719
569.806
572.281
572.843
572.962
565.81
571.481
572.661
572.925
572.981
559.716
569.826
572.286
572.845
572.963
565.775
571.488
572.664
572.926
572.981
559.654
569.831
572.29
572.847
572.963
565.906
571.53
572.674
572.928
572.982
559.776
569.874
572.301
572.849
572.963
566.343
571.624
572.694
572.932
572.983
560.289
569.987
572.325
572.854
572.965
566.669
571.65
572.695
572.932
572.983
561.688
570.252
572.375
572.863
572.966
566.618
571.655
572.699
572.933
572.983
561.18
570.154
572.357
572.861
572.966
566.654
571.639
572.692
572.931
572.982
561.898
570.299
572.383
572.865
572.966
566.681
571.646
572.693
572.931
572.982
561.9
570.309
572.383
572.865
572.966
437.387
470.603
468.46
433.484
418.637
420.034
421.522
424.243
432.19
435.975
460.077
468.58
467.567
476.614
445.399
449.643
434.125
437.275
427.966
429.88
378.629
360.815
312.925
306.044
309.262
305.835
310.932
377.262
371.678
353.647
361.434
358.242
333.717
344.261
340.157
327.635
331.731
325.889
373.766
347.261
330.688
326.649
334.915
330.253
321.82
320.212
318.39
314.449
323.8
320.584
375.307
353.71
362.015
342.28
334.835
347.695
322.569
315.092
325.687
360.191
343.611
328.37
311.329
289.512
349.103
336.479
322.1
305.522
285.393
309.016
303.488
296.169
287.49
277.934
302.852
298.299
292.232
285.021
277.089
305.735
300.714
294.044
286.14
277.467
302.661
298.133
292.098
284.931
277.057
307.232
301.979
295.009
286.749
277.677
358.772
341.119
325.395
308.552
288.355
352.864
334.965
319.183
302.693
283.917
342.82
330.399
316.226
300.489
282.825
344.827
328.168
313.056
297.67
281.561
342.156
325.683
310.756
295.859
280.75
326.836
317.831
306.661
293.94
280.137
335.123
324.039
311.032
296.646
281.111
331.622
321.073
308.608
294.918
280.422
321.754
313.806
303.711
292.088
279.485
325.055
316.277
305.385
293.049
279.799
320.262
312.594
302.8
291.506
279.279
357.197
340.722
325.551
308.818
288.484
338.297
327.38
314.329
299.397
282.425
324.463
316.119
305.554
293.337
279.95
321.056
313.429
303.622
292.164
279.55
328.121
319.204
308.026
295.058
280.629
324.249
316.147
305.776
293.613
280.085
316.91
310.101
301.205
290.69
279.048
315.475
308.864
300.212
290.015
278.798
313.826
307.432
299.06
289.241
278.518
310.352
304.568
296.938
287.937
278.078
318.542
311.299
301.942
291.039
279.137
315.771
309.07
300.326
290.06
278.807
358.229
342.083
327.092
310.313
289.281
343.606
332.053
318.502
302.776
284.065
350.135
336.353
321.905
305.369
285.324
334.556
324.746
312.584
298.315
281.94
328.237
319.503
308.432
295.423
280.775
338.884
328.113
315.124
300.096
282.736
317.555
310.611
301.561
290.894
279.112
310.932
305.068
297.336
288.203
278.173
320.259
312.822
303.212
291.933
279.476
510.706
545.133
504.582
540.458
483.042
523.347
488.973
528.091
493.958
481.159
522.108
496.775
471.207
457.467
497.919
470.681
526.075
538.97
552.917
558.861
520.247
532.871
549.263
555.838
533.922
511.122
514.259
499.148
523.722
544.469
544.175
545.39
509.174
514.577
523.068
523.475
481.984
486.225
550.464
554.033
527.392
534.64
559.219
562.97
551.493
565.088
564.269
569.844
545.756
562.786
561.613
568.699
533.928
557.728
548.47
564.018
558.686
567.818
562.799
569.262
475.194
467.67
483.271
470.077
448.673
441.538
455.946
443.273
507.883
495.992
499.65
493.063
489.386
471.149
491.467
470.833
461.367
443.982
462.94
443.339
513.957
497.373
516.238
497.388
530.54
556.962
521.524
549.933
523.171
552.99
518.097
547.011
535.941
559.37
523.217
551.484
538.094
560.398
523.472
552.199
539.77
526.366
560.1
550.912
532.484
519.844
556.983
546.972
521.699
510.662
551.615
541.339
466.916
440.742
490.999
513.971
545.821
437.954
462.866
485.306
506.49
536.926
438.402
464.006
488.941
513.227
541.369
508.035
495.515
522.617
511.105
504.477
492.534
522.017
510.086
498.655
487.071
520.948
508.787
431.279
422.879
456.307
447.219
477.802
467.665
498.192
487.128
521.884
509.977
430.39
419.792
457.016
449.968
482.002
474.987
505.068
496.363
525.806
515.139
458.424
454.903
455.965
451.952
429.069
413.416
426.324
408.647
483.402
482.407
485.072
483.583
452.868
449.48
452.104
448.601
423.963
406.068
422.898
404.606
480.529
480.61
480.104
480.236
508.91
507.747
529.573
527.57
509.193
507.081
529.236
525.721
507.512
507.059
529.42
527.917
506.117
505.963
528.267
526.762
487.804
484.41
501.092
496.546
484.861
480.957
499.858
494.477
479.194
475.227
498.028
491.477
415.564
410.477
439.999
434.705
460.146
454.54
478.847
473.415
497.61
488.827
409.891
403.898
443.901
437.474
467.677
460.008
485.893
476.503
498.574
487.109
421.657
414.955
430.116
421.65
445.402
434.354
460.898
444.183
405.99
388.607
409.584
391.214
405.335
390.01
409.432
392.566
407.655
402.574
406.352
401.047
391.998
395.385
425.502
427.684
450.315
453.267
409.804
412.551
409.178
410.602
396.747
397.826
375.264
360.128
377.383
361.758
376.155
359.429
378.067
361.233
377.921
358.115
381.149
360.877
382.438
361.391
381.78
360.386
404.372
395.852
408.775
396.335
424.754
416.991
430.468
418.062
391.923
377.634
388.508
377.356
411.509
396.324
412.197
395.368
434.331
418.384
435.445
417.534
393.811
377.465
394.025
376.426
375.918
356.038
362.424
346.872
373.092
353.958
362.04
346.402
377.32
356.989
362.23
346.738
377.246
356.813
361.209
345.96
370.918
364.565
356.426
350.103
371.609
365.721
355.443
349.409
372.905
368.292
353.972
348.88
398.912
418.077
383.641
369.134
350.416
416.593
398.687
383.002
367.526
347.55
414.477
394.364
376.295
361.047
345.349
356.284
346.182
340.847
326.832
358.51
349.205
341.076
327.579
362.027
353.838
341.434
328.657
410.224
402.323
392.371
384.924
376.649
369.677
360.745
352.292
341.086
328.849
406.413
394.444
386.545
374.534
368.9
356.987
353.579
340.537
339.108
325.957
382.059
364.884
380.413
361.456
402.904
385.609
401.011
380.912
363.25
345.947
364.66
348.342
380.208
359.531
379.014
357.874
400.286
378.141
399.12
376.396
363.069
344.564
361.815
342.984
347.724
331.118
335.064
319.976
349.71
332.809
336.688
321.422
346.66
330.039
333.709
318.414
346.273
328.868
332.814
317.666
337.426
334.394
304.142
301.327
341.663
338.123
305.517
302.345
346.901
341.792
307.053
301.596
395.164
389.988
377.924
373.01
362.786
358.028
343.145
336
305.969
297.909
383.611
378.435
363.501
358.44
345.25
340.08
325.373
319.31
298.325
292.108
349.05
344.231
342.31
341.383
349.881
344.464
342.305
341.331
348.453
343.935
342.16
341.28
349.422
344.161
342.115
341.198
347.307
343.404
341.947
341.166
348.505
343.635
341.858
341.044
348.188
343.223
341.455
340.756
347.184
342.469
340.894
340.373
346.016
342.592
341.462
340.902
342.094
341.152
340.959
340.745
345.392
342.611
341.656
341.072
342.404
341.534
341.249
340.927
346.101
342.343
341.13
340.642
341.693
340.733
340.611
340.49
345.639
341.852
340.688
340.295
341.146
340.256
340.215
340.169
347.395
343.738
342.272
341.456
344.874
343.028
342.173
341.533
346.802
343.48
342.159
341.383
344.533
342.874
342.09
341.473
345.841
343.058
341.972
341.271
344.064
342.618
341.933
341.356
344.148
342.386
341.698
341.145
343.314
342.266
341.738
341.222
342.447
341.765
341.44
341.053
342.284
342.409
342.031
341.641
340.463
342.074
341.95
341.679
342.243
342.329
341.967
341.586
340.476
341.998
341.887
341.628
342.049
342.141
341.827
341.469
340.357
341.825
341.758
341.527
341.566
341.82
341.617
341.303
339.945
341.536
341.571
341.384
340.643
341.338
341.338
341.122
339.032
341.112
341.323
341.205
338.545
340.192
340.65
340.662
336.532
339.891
340.583
340.648
339.508
340.768
341.011
340.91
337.683
340.528
340.985
340.955
337.704
339.638
340.271
340.371
335.552
339.259
340.149
340.302
337.021
339.112
339.868
340.029
334.801
338.665
339.704
339.932
340.83
340.535
340.363
340.268
340.226
340.803
340.519
340.353
340.261
340.221
340.764
340.494
340.337
340.251
340.213
340.712
340.462
340.317
340.237
340.202
340.68
340.443
340.304
340.229
340.195
340.603
340.395
340.275
340.209
340.18
340.447
340.298
340.213
340.167
340.147
340.222
340.159
340.125
340.108
340.1
340.544
340.36
340.252
340.194
340.168
340.479
340.323
340.23
340.178
340.156
340.623
340.408
340.283
340.214
340.184
340.559
340.371
340.26
340.198
340.171
340.4
340.272
340.197
340.156
340.138
340.348
340.243
340.18
340.145
340.129
340.189
340.142
340.115
340.101
340.094
340.164
340.131
340.109
340.097
340.091
340.857
340.55
340.372
340.274
340.231
340.876
340.559
340.377
340.278
340.234
340.809
340.521
340.353
340.262
340.221
340.838
340.537
340.363
340.268
340.227
340.732
340.474
340.324
340.242
340.206
340.769
340.495
340.337
340.251
340.213
340.657
340.428
340.295
340.223
340.191
340.686
340.445
340.306
340.23
340.196
340.609
340.4
340.278
340.211
340.181
533.58
532.271
533.714
532.375
534.132
532.784
535.123
533.673
537.156
535.603
540.38
540.86
539.521
539.353
540.631
541.329
540.622
541.151
565.26
571.376
572.639
572.92
572.98
558.877
569.628
572.245
572.836
572.961
565.381
571.408
572.646
572.922
572.98
559.044
569.678
572.255
572.839
572.961
565.501
571.437
572.653
572.923
572.981
559.237
569.728
572.267
572.842
572.962
565.786
571.503
572.668
572.926
572.981
559.599
569.816
572.286
572.846
572.963
566.317
571.614
572.691
572.932
572.983
560.253
569.961
572.317
572.852
572.964
566.673
571.65
572.695
572.932
572.983
561.698
570.251
572.373
572.863
572.966
566.616
571.653
572.697
572.933
572.983
561.179
570.145
572.354
572.86
572.966
566.659
571.64
572.692
572.931
572.982
561.908
570.3
572.383
572.864
572.966
566.683
571.646
572.693
572.931
572.982
561.904
570.31
572.383
572.865
572.966
437.568
470.406
467.649
433.949
428.021
433.874
425.661
432.933
452.689
467.989
456.396
469.887
287.688
288.383
289.924
292.389
295.906
300.589
288.273
288.979
290.538
293.008
296.461
300.958
287.243
287.022
287.987
287.844
289.64
289.676
292.303
292.676
296.058
296.856
300.82
301.737
306.506
313.623
322.064
331.851
341.14
347.187
306.511
313.035
320.35
327.916
334.511
338.594
286.293
284.287
281.592
278.374
274.828
286.922
284.819
281.997
278.627
274.914
288.315
286.001
282.895
279.188
275.105
290.542
287.889
284.331
280.085
275.411
293.718
290.58
286.376
281.363
275.845
297.943
294.155
289.092
283.061
276.423
286.822
284.735
281.933
278.587
274.901
287.46
285.276
282.345
278.844
274.988
288.87
286.471
283.253
279.412
275.181
291.101
288.362
284.691
280.31
275.487
294.218
291.003
286.697
281.565
275.914
298.274
294.435
289.306
283.197
276.47
285.89
283.945
281.332
278.211
274.773
285.691
283.775
281.203
278.131
274.746
286.563
284.515
281.766
278.482
274.865
286.434
284.406
281.683
278.43
274.848
288.058
285.783
282.73
279.085
275.07
288.09
285.811
282.751
279.098
275.075
290.465
287.824
284.282
280.054
275.4
290.803
288.11
284.499
280.19
275.446
293.857
290.697
286.464
281.418
275.864
294.577
291.307
286.927
281.706
275.962
298.151
294.331
289.223
283.141
276.45
298.978
295.028
289.749
283.467
276.56
303.268
298.655
292.509
285.2
277.152
309.648
304.033
296.599
287.772
278.034
317.157
310.34
301.413
290.834
279.099
325.738
317.508
306.936
294.436
280.397
333.654
324.048
312.045
297.909
281.743
338.714
328.209
315.324
300.19
282.66
303.272
298.66
292.517
285.209
277.156
309.126
303.599
296.276
287.573
277.966
315.656
309.096
300.469
290.229
278.884
322.358
314.718
304.776
292.992
279.855
328.136
319.544
308.496
295.419
280.729
331.692
322.512
310.796
296.936
281.284
287.805
288.739
290.539
293.294
297.149
302.234
288.392
289.343
291.162
293.915
297.677
302.497
287.361
287.145
288.35
288.223
290.271
290.338
293.246
293.68
297.369
298.246
302.622
303.701
308.57
316.003
324.552
334.06
342.649
347.719
308.344
315.054
322.362
329.649
335.686
339.009
286.399
284.377
281.661
278.417
274.843
287.245
285.095
282.207
278.759
274.959
288.873
286.476
283.259
279.416
275.183
291.365
288.591
284.869
280.423
275.526
294.851
291.548
287.119
281.831
276.005
299.444
295.444
290.083
283.687
276.637
286.931
284.828
282.004
278.631
274.916
287.791
285.558
282.56
278.979
275.034
289.436
286.955
283.623
279.644
275.261
291.926
289.067
285.23
280.65
275.603
295.326
291.951
287.425
282.023
276.071
299.679
295.641
290.234
283.783
276.67
285.998
284.036
281.401
278.255
274.788
285.802
283.87
281.275
278.176
274.761
286.892
284.796
281.98
278.616
274.911
286.777
284.698
281.906
278.57
274.895
288.631
286.271
283.103
279.319
275.15
288.692
286.323
283.142
279.344
275.158
291.322
288.555
284.841
280.406
275.52
291.715
288.889
285.095
280.565
275.574
295.051
291.719
287.248
281.912
276.032
295.844
292.392
287.761
282.232
276.141
299.798
295.745
290.312
283.829
276.685
300.774
296.573
290.941
284.221
276.818
305.159
300.285
293.77
285.999
277.426
311.841
305.936
298.081
288.716
278.359
319.468
312.365
303.005
291.858
279.453
327.816
319.352
308.406
295.393
280.732
335.093
325.342
313.09
298.6
281.989
339.227
328.674
315.703
300.444
282.752
304.951
300.106
293.635
285.916
277.399
310.982
305.206
297.523
288.366
278.239
317.516
310.716
301.735
291.039
279.163
323.971
316.133
305.891
293.71
280.104
329.236
320.516
309.267
295.919
280.903
332.083
322.858
311.072
297.116
281.347
379.44
361.508
315.796
308.37
312.487
308.419
314.043
386.766
385.226
363.057
375.698
341.187
353.764
334.134
338.68
331.575
380.102
354.02
336.927
331.783
340.741
334.746
325.091
324.228
323.32
318.643
329.294
325.209
377.843
355.725
366.497
345.325
338.685
352.907
326.415
318.761
330.202
361.075
344.442
329.088
311.851
289.725
349.801
337.13
322.648
305.903
285.539
311.666
305.792
297.967
288.638
278.329
304.985
300.139
293.657
285.925
277.399
308.703
303.288
296.047
287.416
277.906
305.033
300.181
293.685
285.939
277.403
310.101
304.47
296.951
287.987
278.102
369.651
351.691
334.467
314.907
290.84
368.468
350.122
332.059
311.477
287.03
352.555
339.702
324.065
305.802
284.74
361.626
344.541
327.036
307.196
284.968
334.163
324.584
312.203
297.611
281.427
344.855
333.279
318.778
301.849
282.953
328.028
319.515
308.35
295.14
280.553
332.024
322.827
310.843
296.705
281.091
325.779
317.644
306.926
294.232
280.235
364.14
347.499
331.408
312.969
290.173
345.029
333.662
319.548
302.909
283.691
330.466
321.566
309.971
296.239
280.966
325.927
317.791
307.12
294.444
280.345
333.743
324.318
312.185
297.803
281.597
328.515
319.97
308.847
295.621
280.788
319.964
312.79
303.331
292.061
279.523
319.228
312.172
302.827
291.701
279.382
318.436
311.501
302.283
291.322
279.239
314.239
307.965
299.602
289.644
278.667
323.75
315.959
305.675
293.47
279.982
320.11
312.91
303.373
292.03
279.49
360.98
344.676
329.332
311.928
289.949
345.603
333.9
320.04
303.829
284.46
354.75
340.725
325.626
307.955
286.294
337.495
327.418
314.765
299.768
282.461
331.909
322.807
311.099
297.177
281.392
344.035
332.9
319.099
302.778
283.708
321.159
313.797
304.087
292.526
279.679
314.337
308.048
299.675
289.702
278.69
324.521
316.618
306.243
293.903
280.162
281.873
298.929
314.334
327.444
337.632
345.145
493.665
488.227
466.802
472.173
479.431
471.104
457.902
447.964
511.23
525.181
505.414
517.979
496.934
489.103
507.396
484.91
480.473
459.544
463.907
472.979
465.572
452.069
443.459
502.387
512.555
497.291
506.255
489.381
482.095
496.998
472.749
469.463
449.385
452.64
463.566
457.489
443.508
436.13
488.895
498.839
484.794
493.815
478.669
472.459
486.229
460.179
457.711
438.657
441.199
452.944
447.655
433.838
427.384
476.218
486.843
472.889
482.696
467.864
461.886
475.925
451.054
449.027
430.765
432.947
444.856
440.237
426.508
420.549
466.652
478.036
463.788
474.693
459.695
454.381
468.755
444.856
443.045
425.334
427.332
439.276
435.195
421.366
415.793
460.351
473.274
457.711
470.015
454.281
449.511
464.059
421.882
418.794
442.166
446.262
414.408
408.984
435.437
427.121
401.655
383.388
400.483
384.442
396.521
395.538
386.249
417.825
414.917
436.798
440.4
410.771
405.662
430.773
423
397.079
378.866
396.035
380.134
392.226
391.674
381.814
411.296
408.681
428.74
431.702
404.933
400.191
423.637
416.821
392.033
373.042
390.931
374.258
387.413
386.837
375.889
402.925
400.601
419.437
421.913
397.06
392.281
415.047
408.599
384.463
365.596
383.483
366.754
380.219
379.633
368.557
396.012
393.873
412.273
414.483
390.664
386.108
408.28
402.289
377.7
359.642
376.841
360.571
374.12
373.557
362.629
390.96
388.954
407.23
409.288
386.15
382.085
403.481
397.895
373.225
355.666
372.535
356.636
370.127
369.848
359.057
542.484
557.126
532.43
550.182
518.596
541.353
494.747
521.829
494.458
515.861
515.731
536.639
528.634
546.668
537.692
553.754
510.642
492.168
528.703
502.104
485.001
465.45
503.162
474.361
549.761
556.584
561.228
564.922
540.058
548.664
555.154
560.574
540.328
526.612
519.913
510.922
537.336
549.882
546.155
545.834
511.329
515.094
524.701
523.851
483.401
486.553
552.585
554.495
529.66
535.177
560.878
563.312
561.24
568.324
567.753
571.023
554.92
565.842
564.51
569.728
542.656
560.637
552.649
565.444
560.177
568.352
563.096
569.376
478.975
467.844
485.642
469.956
449.338
439.253
456.599
441.766
511.023
496.604
504.978
494.469
490.434
470.95
491.716
470.725
461.566
443.074
462.939
443.009
515.396
497.577
516.609
497.413
533.147
557.89
522.215
550.213
527.593
554.587
519.519
547.593
537.164
559.821
523.501
551.602
538.421
560.525
523.535
552.228
556.05
545.623
565.34
557.654
547.112
536.695
561.778
553.004
533.926
524.094
555.678
546.146
465.559
430.459
495.574
519.561
548.015
425.178
460.394
490.669
513.555
539.82
430.23
462.25
490.763
515.588
542.381
527.036
511.139
531.239
516.073
521.179
506.505
529.049
513.712
512.214
498.443
525.838
510.622
415.668
404.017
452.317
441.045
481.591
469.823
503.904
491.253
523.948
509.745
419.563
406.801
453.27
444.043
482.327
472.982
506.416
495.579
526.296
513.94
456.234
451.417
454.426
449.623
423.487
405.419
423.176
404.054
482.93
481.423
484.852
482.456
451.929
448.186
451.786
448.189
422.284
403.705
422.357
403.876
480.134
479.975
479.957
480.024
508.903
507.438
529.594
527.454
509.59
506.841
529.454
525.587
507.412
506.817
529.386
527.82
506.063
505.866
528.245
526.721
494.514
482.158
475.886
497.249
483.864
477.342
491.07
478.55
472.017
494.951
481.096
474.249
483.179
470.591
463.982
491.716
476.812
469.386
391.816
383.668
379.966
428.325
417.537
411.906
456.27
443.41
436.245
475.996
462.415
455.359
489.829
473.175
464.716
393.177
382.883
378.088
433.362
421.953
416.029
460.658
446.921
439.253
479.761
463.408
454.498
491.437
472.485
462.59
423.955
415.035
429.41
420.709
452.871
438.241
462.66
445.496
402.831
382.508
403.96
384.489
403.678
384.538
405.568
386.841
404.907
400.872
403.585
398.053
387.091
391.014
424.687
427.365
450.648
453.292
407.924
411.879
407.378
409.955
393.855
396.771
362.581
347.996
368.112
351.843
364.422
348.11
370.133
352.662
367.335
347.982
374.881
353.857
378.619
356.981
380.434
358.839
397.963
388.439
405.463
391.971
421.83
411.807
429.103
414.964
386.939
372.567
379.474
368.939
409.736
393.958
411.621
394.593
433.54
416.676
435.158
416.959
391.137
374.701
393.172
375.53
369.569
350.062
357.302
342.421
362.499
345.317
353.835
339.749
373.835
353.438
359.387
344.166
376.139
355.642
360.286
345.115
345.935
333.038
340.395
331.04
347.175
334.87
340.151
331.303
350.217
339.863
340.247
332.893
379.032
401.087
363.273
352.113
339.05
396.212
374.252
356.373
345.472
334.202
400.784
378.794
361.535
348.567
336.384
320.743
307.906
320.525
308.061
323.436
310.975
321.722
309.512
329.053
317.001
324.19
312.28
386.128
374.242
364.144
352.006
347.948
336.399
336.803
324.9
327.566
315.893
389.54
375.138
367.967
353.65
351.884
338.451
339.73
326.195
329.864
317.342
372.105
353.271
375.014
355.158
394.126
374.347
396.363
374.83
357.767
340.129
355.051
338.01
377.467
356.366
378.156
356.917
397.946
375.083
398.385
375.469
360.221
341.601
360.923
342.085
342.786
326.391
331.164
316.558
341.431
324.739
330.568
315.939
343.988
327.56
331.52
316.54
345.397
328.08
332.117
317.09
293.508
286.618
283.955
286.607
280.882
279.01
297.523
290.088
287.158
288.51
282.592
280.51
304.442
296.673
293.472
291.454
284.717
282.283
362.51
354.802
351.331
340.502
333.207
330.111
324.721
317.143
314.146
311.548
302.848
299.139
293.403
285.75
282.903
361.14
351.218
346.982
339.958
330.187
325.973
324.58
314.962
310.985
310.072
300.717
297.202
291.567
284.576
282.017
340.564
338.609
338.523
338.834
342.357
339.339
338.806
338.957
340.523
338.647
338.612
338.933
342.846
339.631
339.013
339.103
340.225
338.616
338.695
339.024
343.112
339.872
339.234
339.26
344.666
340.72
339.696
339.546
345.928
341.565
340.254
339.926
341.545
339.416
339.186
339.293
338.58
338.548
339.002
339.256
339.326
338.409
338.707
339.053
337.367
337.901
338.625
339.042
343.323
340.335
339.665
339.57
339.598
339.153
339.39
339.512
344.69
341.16
340.18
339.923
340.445
339.723
339.799
339.829
337.558
337.465
338.093
338.638
333.784
336.124
337.599
338.389
337.412
337.445
338.14
338.703
333.935
336.208
337.667
338.45
337.307
337.468
338.219
338.791
334.527
336.473
337.824
338.565
336.699
337.359
338.256
338.846
334.918
336.695
337.974
338.684
336.026
337.28
338.294
338.862
330.523
335.109
337.209
338.021
328.502
334.597
336.954
337.775
331.047
335.303
337.299
338.083
329.113
334.812
337.05
337.837
331.975
335.661
337.486
338.218
330.118
335.183
337.232
337.957
333.05
336.121
337.726
338.393
331.194
335.633
337.462
338.113
333.989
336.646
338.009
338.568
331.97
336.095
337.729
338.299
335.197
337.625
338.688
339.033
332.903
337.049
338.428
338.853
334.609
337.142
338.34
338.785
332.41
336.574
338.061
338.551
335.741
338.099
339.065
339.333
333.446
337.563
338.84
339.198
336.375
338.6
339.463
339.677
334.119
338.109
339.272
339.566
339.316
339.604
339.777
339.872
339.915
339.355
339.621
339.787
339.879
339.92
339.385
339.647
339.804
339.891
339.929
339.451
339.681
339.824
339.904
339.94
339.465
339.698
339.836
339.913
339.946
339.558
339.748
339.867
339.933
339.962
339.719
339.847
339.929
339.974
339.995
339.947
339.987
340.017
340.034
340.042
339.604
339.782
339.889
339.948
339.974
339.647
339.816
339.911
339.963
339.986
339.514
339.731
339.858
339.927
339.958
339.563
339.767
339.881
339.943
339.97
339.752
339.871
339.945
339.986
340.004
339.781
339.896
339.962
339.997
340.013
339.964
340.002
340.027
340.041
340.047
339.965
340.009
340.032
340.045
340.051
339.27
339.586
339.767
339.866
339.91
339.235
339.574
339.761
339.862
339.907
339.32
339.617
339.787
339.879
339.92
339.274
339.598
339.776
339.873
339.915
339.395
339.664
339.816
339.899
339.936
339.345
339.641
339.803
339.89
339.929
339.464
339.709
339.845
339.919
339.951
339.429
339.691
339.834
339.911
339.945
339.509
339.737
339.862
339.93
339.96
537.282
535.003
536.668
534.369
535.947
533.762
535.817
533.751
537.248
535.288
540.354
540.8
539.544
539.277
540.598
541.279
540.607
541.13
565.836
571.477
572.658
572.924
572.981
559.751
569.815
572.283
572.843
572.962
565.807
571.481
572.661
572.925
572.981
559.719
569.827
572.286
572.846
572.963
565.774
571.488
572.664
572.926
572.981
559.655
569.831