/*--------------------------------*- C++ -*----------------------------------*\
| =========                 |                                                 |
| \\      /  F ield         | OpenFOAM: The Open Source CFD Toolbox           |
|  \\    /   O peration     | Version:  v2106                                 |
|   \\  /    A nd           | Website:  www.openfoam.com                      |
|    \\/     M anipulation  |                                                 |
\*---------------------------------------------------------------------------*/
FoamFile
{
    version     2.0;
    format      ascii;
    arch        "LSB;label=32;scalar=64";
    class       volVectorField;
    location    "60";
    object      flux;
}
// * * * * * * * * * * * * * * * * * * * * * * * * * * * * * * * * * * * * * //

dimensions      [0 1 -1 1 0 0 0];

internalField   nonuniform List<vector> 
4000
(
(2.5743249e-07 2.5743249e-07 0.71778547)
(1.4541163e-07 4.7427708e-08 0.71778717)
(-3.2220777e-07 7.1157988e-08 0.71778607)
(-1.2398869e-07 7.2316216e-08 0.71778564)
(-5.3598412e-08 7.326519e-08 0.71778542)
(2.8158118e-09 7.5064304e-08 0.71778536)
(4.2200852e-08 7.8681847e-08 0.71778544)
(5.2830405e-08 8.6030235e-08 0.71778559)
(2.4141489e-08 9.7771137e-08 0.71778572)
(-2.5617452e-10 1.0057161e-07 0.71778568)
(4.7427709e-08 1.4541163e-07 0.71778717)
(-1.3400013e-07 -1.3400012e-07 0.71778756)
(-2.8487501e-07 -9.5353112e-08 0.71778658)
(-1.2082789e-07 -9.2089641e-08 0.71778616)
(-4.9476281e-08 -8.8302798e-08 0.71778595)
(1.0940798e-08 -8.2016299e-08 0.71778591)
(5.8649748e-08 -7.0848789e-08 0.71778601)
(8.146434e-08 -4.9544141e-08 0.71778622)
(4.5953552e-08 -1.1435801e-08 0.71778645)
(2.5442977e-09 2.8918017e-08 0.71778638)
(7.1157992e-08 -3.2220777e-07 0.71778607)
(-9.5353112e-08 -2.8487501e-07 0.71778658)
(-2.8029729e-07 -2.8029729e-07 0.71778562)
(-1.1693838e-07 -2.7650514e-07 0.71778521)
(-4.3525071e-08 -2.7111353e-07 0.71778501)
(2.0269821e-08 -2.6358438e-07 0.71778498)
(7.4673011e-08 -2.5269202e-07 0.71778512)
(1.1224339e-07 -2.3590026e-07 0.71778539)
(1.0260365e-07 -2.0806094e-07 0.71778572)
(2.6646371e-08 -1.6589263e-07 0.71778584)
(7.2316217e-08 -1.2398869e-07 0.71778564)
(-9.2089645e-08 -1.208279e-07 0.71778616)
(-2.7650514e-07 -1.1693837e-07 0.71778521)
(-1.1164413e-07 -1.1164413e-07 0.71778481)
(-3.6555523e-08 -1.051572e-07 0.71778462)
(2.9362316e-08 -9.7335277e-08 0.71778462)
(8.6333866e-08 -8.7768681e-08 0.71778479)
(1.2609542e-07 -7.6326493e-08 0.71778509)
(1.1596119e-07 -6.4107643e-08 0.71778546)
(3.0656507e-08 -5.4833667e-08 0.71778562)
(7.3265185e-08 -5.3598419e-08 0.71778542)
(-8.8302799e-08 -4.9476283e-08 0.71778595)
(-2.7111353e-07 -4.3525068e-08 0.71778501)
(-1.051572e-07 -3.6555522e-08 0.71778462)
(-2.9216216e-08 -2.9216213e-08 0.71778446)
(3.7658334e-08 -2.1663159e-08 0.71778448)
(9.5681795e-08 -1.3763579e-08 0.71778466)
(1.3590443e-07 -5.5979433e-09 0.71778499)
(1.2409647e-07 1.9832197e-09 0.71778539)
(3.2829022e-08 6.864784e-09 0.71778556)
(7.5064307e-08 2.8158051e-09 0.71778536)
(-8.2016295e-08 1.0940796e-08 0.71778591)
(-2.6358438e-07 2.0269815e-08 0.71778498)
(-9.7335279e-08 2.9362311e-08 0.71778462)
(-2.166316e-08 3.7658334e-08 0.71778448)
(4.481495e-08 4.4814941e-08 0.71778451)
(1.0239908e-07 5.09649e-08 0.71778472)
(1.4184222e-07 5.6061622e-08 0.71778506)
(1.2842392e-07 5.9810082e-08 0.71778547)
(3.3910883e-08 6.1786057e-08 0.71778566)
(7.8681845e-08 4.2200856e-08 0.71778544)
(-7.0848789e-08 5.8649741e-08 0.71778601)
(-2.5269201e-07 7.4673012e-08 0.71778512)
(-8.7768677e-08 8.6333865e-08 0.71778479)
(-1.3763586e-08 9.5681793e-08 0.71778466)
(5.09649e-08 1.0239908e-07 0.71778472)
(1.0692848e-07 1.0692847e-07 0.71778494)
(1.4474961e-07 1.0936738e-07 0.71778529)
(1.2982091e-07 1.097689e-07 0.71778571)
(3.4146339e-08 1.0893313e-07 0.71778589)
(8.6030231e-08 5.2830406e-08 0.71778559)
(-4.9544138e-08 8.1464352e-08 0.71778622)
(-2.3590026e-07 1.1224339e-07 0.71778539)
(-7.6326499e-08 1.2609542e-07 0.71778509)
(-5.5979406e-09 1.3590443e-07 0.71778499)
(5.6061623e-08 1.4184223e-07 0.71778506)
(1.0936738e-07 1.4474962e-07 0.71778529)
(1.4468265e-07 1.4468266e-07 0.71778565)
(1.2798967e-07 1.4140446e-07 0.71778606)
(3.3353702e-08 1.3631942e-07 0.71778624)
(9.7771143e-08 2.4141491e-08 0.71778572)
(-1.14358e-08 4.5953554e-08 0.71778645)
(-2.0806095e-07 1.0260364e-07 0.71778572)
(-6.4107638e-08 1.1596119e-07 0.71778546)
(1.9832259e-09 1.2409647e-07 0.71778539)
(5.9810085e-08 1.2842391e-07 0.71778547)
(1.0976891e-07 1.298209e-07 0.71778571)
(1.4140446e-07 1.2798968e-07 0.71778606)
(1.2145766e-07 1.2145768e-07 0.71778646)
(3.0756308e-08 1.0996588e-07 0.71778661)
(1.0057161e-07 -2.5617043e-10 0.71778568)
(2.8918013e-08 2.5442928e-09 0.71778638)
(-1.6589262e-07 2.6646371e-08 0.71778584)
(-5.4833669e-08 3.0656509e-08 0.71778562)
(6.8647793e-09 3.2829018e-08 0.71778556)
(6.1786055e-08 3.3910878e-08 0.71778566)
(1.0893315e-07 3.4146331e-08 0.71778589)
(1.3631943e-07 3.33537e-08 0.71778624)
(1.0996587e-07 3.075631e-08 0.71778661)
(2.5692502e-08 2.5692504e-08 0.7177867)
(9.3373925e-07 9.3373925e-07 1.0677663)
(4.607145e-07 2.4442182e-07 1.0677678)
(-1.3389215e-06 3.0158599e-07 1.0677666)
(-6.045614e-07 3.0652083e-07 1.067766)
(-2.5606443e-07 3.1129467e-07 1.0677657)
(2.2746827e-08 3.2013502e-07 1.0677656)
(2.1840779e-07 3.3811607e-07 1.0677657)
(2.6296417e-07 3.7562504e-07 1.067766)
(5.7716687e-08 4.3546181e-07 1.0677662)
(-4.0077751e-08 4.0440926e-07 1.0677659)
(2.4442183e-07 4.6071451e-07 1.0677678)
(-4.8751541e-07 -4.8751541e-07 1.0677682)
(-1.245773e-06 -3.8613416e-07 1.067767)
(-5.8999838e-07 -3.7008652e-07 1.0677664)
(-2.3564314e-07 -3.5111651e-07 1.0677661)
(6.2978929e-08 -3.2017903e-07 1.0677661)
(3.0164282e-07 -2.6488062e-07 1.0677663)
(4.0898277e-07 -1.5727669e-07 1.0677666)
(1.0089301e-07 3.7273551e-08 1.067767)
(-7.11303e-08 1.5917688e-07 1.0677667)
(3.0158599e-07 -1.3389215e-06 1.0677666)
(-3.8613417e-07 -1.245773e-06 1.067767)
(-1.2214926e-06 -1.2214926e-06 1.0677659)
(-5.6954375e-07 -1.2013692e-06 1.0677653)
(-2.0615695e-07 -1.1746211e-06 1.067765)
(1.0898272e-07 -1.13757e-06 1.067765)
(3.8131013e-07 -1.0839261e-06 1.0677652)
(5.6511833e-07 -1.000389e-06 1.0677657)
(3.7417025e-07 -8.5747673e-07 1.0677662)
(4.1191133e-08 -6.5477558e-07 1.0677661)
(3.0652083e-07 -6.0456141e-07 1.067766)
(-3.7008652e-07 -5.8999838e-07 1.0677664)
(-1.2013692e-06 -5.6954374e-07 1.0677653)
(-5.431269e-07 -5.431269e-07 1.0677647)
(-1.7184394e-07 -5.1117898e-07 1.0677645)
(1.5367397e-07 -4.7273696e-07 1.0677645)
(4.3882388e-07 -4.2576352e-07 1.0677648)
(6.354321e-07 -3.695134e-07 1.0677653)
(4.465064e-07 -3.0774183e-07 1.0677659)
(6.4003803e-08 -2.5792575e-07 1.0677659)
(3.1129467e-07 -2.5606444e-07 1.0677657)
(-3.511165e-07 -2.3564314e-07 1.0677661)
(-1.1746211e-06 -2.0615695e-07 1.067765)
(-5.1117898e-07 -1.7184394e-07 1.0677645)
(-1.35767e-07 -1.35767e-07 1.0677643)
(1.9439818e-07 -9.8649242e-08 1.0677643)
(4.8453369e-07 -5.9875268e-08 1.0677646)
(6.8314002e-07 -1.9961281e-08 1.0677651)
(4.857579e-07 1.6890061e-08 1.0677658)
(7.4401854e-08 4.0181886e-08 1.0677658)
(3.2013502e-07 2.2746835e-08 1.0677656)
(-3.2017903e-07 6.2978927e-08 1.0677661)
(-1.13757e-06 1.0898272e-07 1.067765)
(-4.7273696e-07 1.5367396e-07 1.0677645)
(-9.8649244e-08 1.9439819e-07 1.0677643)
(2.295657e-07 2.2956569e-07 1.0677644)
(5.1751184e-07 2.5975276e-07 1.0677647)
(7.1219743e-07 2.8469968e-07 1.0677653)
(5.0664956e-07 3.0287555e-07 1.067766)
(7.9531687e-08 3.1205488e-07 1.067766)
(3.3811607e-07 2.1840779e-07 1.0677657)
(-2.6488062e-07 3.0164282e-07 1.0677663)
(-1.0839261e-06 3.8131014e-07 1.0677652)
(-4.2576351e-07 4.3882387e-07 1.0677648)
(-5.9875272e-08 4.8453369e-07 1.0677646)
(2.5975276e-07 5.1751184e-07 1.0677647)
(5.3966768e-07 5.3966768e-07 1.0677651)
(7.262628e-07 5.5135597e-07 1.0677656)
(5.1311311e-07 5.5255253e-07 1.0677663)
(8.0521412e-08 5.4699406e-07 1.0677663)
(3.7562505e-07 2.6296416e-07 1.067766)
(-1.5727668e-07 4.0898277e-07 1.0677666)
(-1.000389e-06 5.6511834e-07 1.0677657)
(-3.6951341e-07 6.354321e-07 1.0677653)
(-1.9961272e-08 6.8314002e-07 1.0677651)
(2.8469969e-07 7.1219745e-07 1.0677653)
(5.5135597e-07 7.2626282e-07 1.0677656)
(7.2508229e-07 7.250823e-07 1.0677662)
(5.0228766e-07 7.0596175e-07 1.0677669)
(7.582604e-08 6.7329887e-07 1.0677669)
(4.3546181e-07 5.7716697e-08 1.0677662)
(3.7273562e-08 1.0089301e-07 1.067767)
(-8.5747674e-07 3.7417025e-07 1.0677662)
(-3.0774183e-07 4.465064e-07 1.0677659)
(1.6890073e-08 4.8575791e-07 1.0677658)
(3.0287555e-07 5.0664957e-07 1.067766)
(5.5255253e-07 5.1311311e-07 1.0677663)
(7.0596174e-07 5.0228766e-07 1.0677669)
(4.6132967e-07 4.6132968e-07 1.0677676)
(5.8746152e-08 3.7027864e-07 1.0677675)
(4.0440925e-07 -4.0077743e-08 1.0677659)
(1.5917687e-07 -7.1130299e-08 1.0677667)
(-6.5477558e-07 4.119113e-08 1.0677661)
(-2.5792574e-07 6.4003805e-08 1.0677659)
(4.0181896e-08 7.4401853e-08 1.0677658)
(3.1205489e-07 7.9531687e-08 1.067766)
(5.4699406e-07 8.0521409e-08 1.0677663)
(6.7329886e-07 7.582604e-08 1.0677669)
(3.7027864e-07 5.8746154e-08 1.0677675)
(1.5125348e-08 1.512535e-08 1.0677671)
(1.261874e-06 1.261874e-06 1.0679009)
(4.2814275e-07 2.9381601e-07 1.0679018)
(-2.1447339e-06 3.6369848e-07 1.0679008)
(-1.0280946e-06 3.7115175e-07 1.0679003)
(-4.199872e-07 3.7952394e-07 1.0679)
(8.3911509e-08 3.9508849e-07 1.0679)
(4.5281709e-07 4.274299e-07 1.0679002)
(5.3497847e-07 5.0027473e-07 1.0679006)
(-5.6694849e-08 6.3835092e-07 1.0679009)
(-1.9648395e-07 6.1343975e-07 1.0679005)
(2.93816e-07 4.2814276e-07 1.0679018)
(-9.1912059e-07 -9.1912059e-07 1.067902)
(-2.0287303e-06 -7.9101713e-07 1.067901)
(-1.0043564e-06 -7.645574e-07 1.0679005)
(-3.8408209e-07 -7.3081149e-07 1.0679002)
(1.5577044e-07 -6.7582029e-07 1.0679002)
(6.1059645e-07 -5.770904e-07 1.0679005)
(8.5136e-07 -3.7807122e-07 1.0679009)
(1.1305269e-07 1.3476407e-08 1.0679015)
(-2.2139511e-07 2.5732562e-07 1.0679011)
(3.6369848e-07 -2.1447339e-06 1.0679008)
(-7.9101714e-07 -2.0287303e-06 1.067901)
(-1.9901707e-06 -1.9901707e-06 1.0679001)
(-9.6788897e-07 -1.9542855e-06 1.0678996)
(-3.312501e-07 -1.9063038e-06 1.0678993)
(2.3763259e-07 -1.8398829e-06 1.0678994)
(7.5056615e-07 -1.7441052e-06 1.0678996)
(1.1255453e-06 -1.5962267e-06 1.0679002)
(5.7870199e-07 -1.3416238e-06 1.0679009)
(-3.3917807e-08 -9.9657321e-07 1.0679007)
(3.7115175e-07 -1.0280946e-06 1.0679003)
(-7.645574e-07 -1.0043564e-06 1.0679005)
(-1.9542855e-06 -9.6788897e-07 1.0678996)
(-9.2048953e-07 -9.2048953e-07 1.0678991)
(-2.6967945e-07 -8.6323888e-07 1.0678989)
(3.1796903e-07 -7.9434478e-07 1.0678989)
(8.5425271e-07 -7.1008016e-07 1.0678992)
(1.2538414e-06 -6.0908258e-07 1.0678998)
(7.1270614e-07 -4.9672199e-07 1.0679006)
(8.6386469e-09 -4.049266e-07 1.0679004)
(3.7952394e-07 -4.199872e-07 1.0679)
(-7.3081149e-07 -3.8408208e-07 1.0679002)
(-1.9063038e-06 -3.3125009e-07 1.0678993)
(-8.6323888e-07 -2.6967945e-07 1.0678989)
(-2.0510535e-07 -2.0510534e-07 1.0678987)
(3.9079132e-07 -1.3870384e-07 1.0678988)
(9.3582835e-07 -6.9422106e-08 1.0678991)
(1.3389034e-06 1.7022811e-09 1.0678997)
(7.8285798e-07 6.7294401e-08 1.0679005)
(2.7279122e-08 1.0875306e-07 1.0679004)
(3.9508849e-07 8.3911505e-08 1.0679)
(-6.7582029e-07 1.5577044e-07 1.0679002)
(-1.8398829e-06 2.3763259e-07 1.0678994)
(-7.9434479e-07 3.1796903e-07 1.0678989)
(-1.3870384e-07 3.9079132e-07 1.0678988)
(4.5365227e-07 4.5365227e-07 1.0678989)
(9.9465883e-07 5.074927e-07 1.0678993)
(1.3905579e-06 5.5175244e-07 1.0678999)
(8.1975692e-07 5.8358711e-07 1.0679007)
(3.627775e-08 5.9913036e-07 1.0679006)
(4.274299e-07 4.5281708e-07 1.0679002)
(-5.770904e-07 6.1059645e-07 1.0679005)
(-1.7441052e-06 7.5056615e-07 1.0678996)
(-7.1008015e-07 8.5425271e-07 1.0678992)
(-6.9422105e-08 9.3582836e-07 1.0678991)
(5.0749269e-07 9.9465884e-07 1.0678993)
(1.0339285e-06 1.0339285e-06 1.0678997)
(1.4149979e-06 1.0539046e-06 1.0679003)
(8.302359e-07 1.0536598e-06 1.0679012)
(3.7641289e-08 1.0394201e-06 1.067901)
(5.0027473e-07 5.3497847e-07 1.0679006)
(-3.7807121e-07 8.5136e-07 1.0679009)
(-1.5962266e-06 1.1255453e-06 1.0679002)
(-6.0908258e-07 1.2538414e-06 1.0678998)
(1.7022826e-09 1.3389034e-06 1.0678997)
(5.5175244e-07 1.3905579e-06 1.0678999)
(1.0539046e-06 1.4149979e-06 1.0679003)
(1.4102892e-06 1.4102892e-06 1.067901)
(8.0527239e-07 1.3660274e-06 1.0679018)
(2.6784566e-08 1.2784059e-06 1.0679017)
(6.3835092e-07 -5.6694846e-08 1.0679009)
(1.3476411e-08 1.1305269e-07 1.0679015)
(-1.3416238e-06 5.7870199e-07 1.0679009)
(-4.9672199e-07 7.1270614e-07 1.0679006)
(6.7294399e-08 7.8285798e-07 1.0679005)
(5.8358711e-07 8.1975692e-07 1.0679007)
(1.0536598e-06 8.302359e-07 1.0679012)
(1.3660274e-06 8.0527241e-07 1.0679018)
(6.9835262e-07 6.9835263e-07 1.0679026)
(-2.0773014e-08 3.5113179e-07 1.0679024)
(6.1343975e-07 -1.9648395e-07 1.0679005)
(2.5732562e-07 -2.2139511e-07 1.0679011)
(-9.965732e-07 -3.391781e-08 1.0679007)
(-4.0492659e-07 8.6386434e-09 1.0679004)
(1.0875306e-07 2.7279124e-08 1.0679004)
(5.9913036e-07 3.6277753e-08 1.0679006)
(1.0394201e-06 3.7641293e-08 1.067901)
(1.2784059e-06 2.6784573e-08 1.0679017)
(3.5113178e-07 -2.0773009e-08 1.0679024)
(-2.0469599e-07 -2.0469598e-07 1.0679016)
(1.538636e-06 1.538636e-06 1.0681096)
(3.7164614e-07 3.3766479e-07 1.0681104)
(-2.8642012e-06 4.2092639e-07 1.0681095)
(-1.3934297e-06 4.3107135e-07 1.068109)
(-5.3561421e-07 4.4303584e-07 1.0681088)
(1.9683335e-07 4.6507667e-07 1.0681088)
(7.6099386e-07 5.1074826e-07 1.0681091)
(9.3302798e-07 6.1598746e-07 1.0681095)
(-2.9846587e-08 8.2839432e-07 1.0681099)
(-3.1252795e-07 7.9168882e-07 1.0681096)
(3.3766479e-07 3.7164614e-07 1.0681104)
(-1.3049184e-06 -1.3049183e-06 1.0681105)
(-2.7240914e-06 -1.1491344e-06 1.0681097)
(-1.3602655e-06 -1.1119393e-06 1.0681092)
(-4.8460623e-07 -1.0634355e-06 1.068109)
(2.9840198e-07 -9.8483885e-07 1.068109)
(9.8736006e-07 -8.4440702e-07 1.0681093)
(1.4094971e-06 -5.5912565e-07 1.0681098)
(2.3370545e-07 2.2206565e-08 1.0681105)
(-3.4923345e-07 3.5036152e-07 1.0681102)
(4.2092639e-07 -2.8642012e-06 1.0681095)
(-1.1491344e-06 -2.7240914e-06 1.0681097)
(-2.6712222e-06 -2.6712222e-06 1.0681088)
(-1.3077307e-06 -2.6195099e-06 1.0681083)
(-4.0851377e-07 -2.5503902e-06 1.0681082)
(4.1586178e-07 -2.4548571e-06 1.0681082)
(1.1867071e-06 -2.3174043e-06 1.0681086)
(1.7996415e-06 -2.1063823e-06 1.0681092)
(8.7964058e-07 -1.7416833e-06 1.06811)
(-9.3757981e-08 -1.2660883e-06 1.0681098)
(4.3107135e-07 -1.3934297e-06 1.068109)
(-1.1119393e-06 -1.3602655e-06 1.0681092)
(-2.6195099e-06 -1.3077307e-06 1.0681083)
(-1.2394335e-06 -1.2394335e-06 1.0681079)
(-3.1995344e-07 -1.1571152e-06 1.0681078)
(5.3138792e-07 -1.0581664e-06 1.0681079)
(1.3358349e-06 -9.3717773e-07 1.0681082)
(1.9852181e-06 -7.9230563e-07 1.0681089)
(1.0739995e-06 -6.3000071e-07 1.0681098)
(-3.2170089e-08 -4.9756284e-07 1.0681097)
(4.4303584e-07 -5.3561422e-07 1.0681088)
(-1.0634354e-06 -4.8460623e-07 1.068109)
(-2.5503902e-06 -4.0851377e-07 1.0681082)
(-1.1571152e-06 -3.1995344e-07 1.0681078)
(-2.272466e-07 -2.272466e-07 1.0681076)
(6.3579921e-07 -1.3202472e-07 1.0681078)
(1.4525678e-06 -3.2815865e-08 1.0681082)
(2.1068186e-06 6.8763106e-08 1.0681088)
(1.1743834e-06 1.6235885e-07 1.0681098)
(-5.4660642e-09 2.2150574e-07 1.0681097)
(4.6507667e-07 1.9683334e-07 1.0681088)
(-9.8483884e-07 2.9840197e-07 1.068109)
(-2.4548571e-06 4.1586177e-07 1.0681082)
(-1.0581664e-06 5.3138792e-07 1.0681079)
(-1.3202472e-07 6.3579921e-07 1.0681078)
(7.2581865e-07 7.2581866e-07 1.0681079)
(1.5366228e-06 8.0271586e-07 1.0681083)
(2.1803928e-06 8.6561662e-07 1.0681091)
(1.2267421e-06 9.1048657e-07 1.06811)
(7.2611672e-09 9.3210488e-07 1.0681099)
(5.1074826e-07 7.6099386e-07 1.0681091)
(-8.4440701e-07 9.8736005e-07 1.0681093)
(-2.3174043e-06 1.186707e-06 1.0681086)
(-9.3717772e-07 1.3358349e-06 1.0681082)
(-3.2815861e-08 1.4525678e-06 1.0681082)
(8.0271586e-07 1.5366228e-06 1.0681083)
(1.5923658e-06 1.5923658e-06 1.0681088)
(2.2145893e-06 1.6199785e-06 1.0681095)
(1.2408716e-06 1.6178054e-06 1.0681105)
(8.9461405e-09 1.5949536e-06 1.0681104)
(6.1598747e-07 9.3302799e-07 1.0681095)
(-5.5912564e-07 1.4094971e-06 1.0681098)
(-2.1063822e-06 1.7996415e-06 1.0681092)
(-7.9230562e-07 1.9852181e-06 1.0681089)
(6.8763109e-08 2.1068186e-06 1.0681088)
(8.6561661e-07 2.1803928e-06 1.0681091)
(1.6199785e-06 2.2145893e-06 1.0681095)
(2.2058324e-06 2.2058324e-06 1.0681102)
(1.2017172e-06 2.1355115e-06 1.0681112)
(-7.9733688e-09 1.9870597e-06 1.0681111)
(8.2839432e-07 -2.9846564e-08 1.0681099)
(2.220656e-08 2.3370545e-07 1.0681105)
(-1.7416833e-06 8.7964058e-07 1.06811)
(-6.3000071e-07 1.0739994e-06 1.0681098)
(1.6235885e-07 1.1743834e-06 1.0681098)
(9.1048657e-07 1.2267421e-06 1.06811)
(1.6178054e-06 1.2408716e-06 1.0681105)
(2.1355115e-06 1.2017172e-06 1.0681112)
(1.0220989e-06 1.0220989e-06 1.0681121)
(-9.0021744e-08 3.0277794e-07 1.0681119)
(7.9168881e-07 -3.1252794e-07 1.0681096)
(3.503615e-07 -3.4923346e-07 1.0681102)
(-1.2660883e-06 -9.3757984e-08 1.0681098)
(-4.9756283e-07 -3.2170097e-08 1.0681097)
(2.2150574e-07 -5.4660672e-09 1.0681097)
(9.3210489e-07 7.2611642e-09 1.0681099)
(1.5949536e-06 8.946142e-09 1.0681104)
(1.9870597e-06 -7.9733737e-09 1.0681111)
(3.0277794e-07 -9.0021746e-08 1.0681119)
(-4.8752065e-07 -4.8752065e-07 1.068111)
(1.7949938e-06 1.7949938e-06 1.0683908)
(3.1146226e-07 3.7702149e-07 1.0683915)
(-3.5314718e-06 4.7507105e-07 1.0683906)
(-1.7101677e-06 4.8835193e-07 1.0683902)
(-6.0513371e-07 5.040064e-07 1.06839)
(3.5724551e-07 5.3248989e-07 1.0683901)
(1.1236527e-06 5.9127866e-07 1.0683904)
(1.4013777e-06 7.2803057e-07 1.0683909)
(8.0216305e-08 1.0130027e-06 1.0683914)
(-4.0010902e-07 9.5866252e-07 1.0683912)
(3.7702149e-07 3.1146226e-07 1.0683915)
(-1.6684219e-06 -1.6684219e-06 1.0683916)
(-3.3644761e-06 -1.4817396e-06 1.0683908)
(-1.6667647e-06 -1.4327384e-06 1.0683904)
(-5.3892677e-07 -1.3692973e-06 1.0683902)
(4.8815391e-07 -1.2673425e-06 1.0683903)
(1.4169637e-06 -1.0859498e-06 1.0683906)
(2.0339638e-06 -7.166311e-07 1.0683912)
(4.2616424e-07 5.0260284e-08 1.0683919)
(-4.5444925e-07 4.4768345e-07 1.0683916)
(4.7507106e-07 -3.5314718e-06 1.0683906)
(-1.4817396e-06 -3.3644761e-06 1.0683908)
(-3.2957882e-06 -3.2957882e-06 1.06839)
(-1.5977254e-06 -3.2277195e-06 1.0683896)
(-4.3973781e-07 -3.1375148e-06 1.0683894)
(6.4059302e-07 -3.0133245e-06 1.0683896)
(1.6743641e-06 -2.8350504e-06 1.0683899)
(2.5375878e-06 -2.5624641e-06 1.0683906)
(1.2445308e-06 -2.0899561e-06 1.0683915)
(-1.3516025e-07 -1.4914627e-06 1.0683914)
(4.8835194e-07 -1.7101677e-06 1.0683902)
(-1.4327384e-06 -1.6667647e-06 1.0683904)
(-3.2277195e-06 -1.5977254e-06 1.0683896)
(-1.5084912e-06 -1.5084912e-06 1.0683892)
(-3.2453171e-07 -1.4013819e-06 1.0683891)
(7.9061828e-07 -1.272927e-06 1.0683892)
(1.867824e-06 -1.1160389e-06 1.0683896)
(2.7790581e-06 -9.2848606e-07 1.0683903)
(1.4971657e-06 -7.1746703e-07 1.0683913)
(-5.5453624e-08 -5.4619918e-07 1.0683912)
(5.0400641e-07 -6.0513371e-07 1.06839)
(-1.3692973e-06 -5.3892678e-07 1.0683902)
(-3.1375148e-06 -4.3973781e-07 1.0683894)
(-1.4013819e-06 -3.245317e-07 1.0683891)
(-2.0417359e-07 -2.0417358e-07 1.068389)
(9.25936e-07 -8.0744577e-08 1.0683892)
(2.018805e-06 4.7635248e-08 1.0683896)
(2.9361597e-06 1.7874129e-07 1.0683903)
(1.6268177e-06 2.9942054e-07 1.0683913)
(-2.098169e-08 3.7553685e-07 1.0683913)
(5.3248989e-07 3.5724551e-07 1.0683901)
(-1.2673425e-06 4.881539e-07 1.0683903)
(-3.0133245e-06 6.4059302e-07 1.0683896)
(-1.272927e-06 7.9061828e-07 1.0683892)
(-8.0744579e-08 9.25936e-07 1.0683892)
(1.0424271e-06 1.0424271e-06 1.0683894)
(2.1273099e-06 1.1416489e-06 1.0683898)
(3.0308434e-06 1.2223888e-06 1.0683906)
(1.6939613e-06 1.2795237e-06 1.0683916)
(-4.7094142e-09 1.3067142e-06 1.0683916)
(5.9127867e-07 1.1236527e-06 1.0683904)
(-1.0859498e-06 1.4169637e-06 1.0683906)
(-2.8350504e-06 1.6743641e-06 1.0683899)
(-1.1160389e-06 1.867824e-06 1.0683896)
(4.7635248e-08 2.018805e-06 1.0683896)
(1.1416489e-06 2.1273099e-06 1.0683898)
(2.1987666e-06 2.1987666e-06 1.0683903)
(3.0740345e-06 2.233222e-06 1.0683911)
(1.7111432e-06 2.2284913e-06 1.0683921)
(-2.8546832e-09 2.1971009e-06 1.0683921)
(7.2803057e-07 1.4013777e-06 1.0683909)
(-7.166311e-07 2.0339638e-06 1.0683912)
(-2.5624641e-06 2.5375878e-06 1.0683906)
(-9.2848606e-07 2.7790581e-06 1.0683903)
(1.7874129e-07 2.9361597e-06 1.0683903)
(1.2223888e-06 3.0308434e-06 1.0683906)
(2.233222e-06 3.0740345e-06 1.0683911)
(3.0605681e-06 3.0605681e-06 1.0683919)
(1.6578401e-06 2.9645018e-06 1.0683928)
(-2.5636345e-08 2.7578361e-06 1.0683928)
(1.0130027e-06 8.0216307e-08 1.0683914)
(5.0260287e-08 4.2616424e-07 1.0683919)
(-2.0899561e-06 1.2445308e-06 1.0683915)
(-7.1746703e-07 1.4971657e-06 1.0683913)
(2.9942055e-07 1.6268177e-06 1.0683913)
(1.2795237e-06 1.6939613e-06 1.0683916)
(2.2284913e-06 1.7111432e-06 1.0683921)
(2.9645018e-06 1.6578401e-06 1.0683928)
(1.4084113e-06 1.4084113e-06 1.0683938)
(-1.406318e-07 2.8875791e-07 1.0683937)
(9.5866252e-07 -4.0010902e-07 1.0683912)
(4.4768344e-07 -4.5444925e-07 1.0683916)
(-1.4914627e-06 -1.3516026e-07 1.0683914)
(-5.4619918e-07 -5.5453627e-08 1.0683912)
(3.7553686e-07 -2.0981693e-08 1.0683913)
(1.3067142e-06 -4.7094167e-09 1.0683916)
(2.1971009e-06 -2.8546807e-09 1.0683921)
(2.7578361e-06 -2.5636347e-08 1.0683928)
(2.8875792e-07 -1.4063181e-07 1.0683937)
(-7.720719e-07 -7.720719e-07 1.0683928)
(2.0312952e-06 2.0312952e-06 1.0687417)
(2.4217919e-07 4.0837036e-07 1.0687424)
(-4.1574805e-06 5.2171425e-07 1.0687415)
(-1.9864247e-06 5.3841957e-07 1.0687411)
(-6.3435145e-07 5.5780523e-07 1.068741)
(5.5847847e-07 5.9261161e-07 1.0687411)
(1.5291567e-06 6.6419579e-07 1.0687414)
(1.9168905e-06 8.3165723e-07 1.068742)
(2.4587188e-07 1.1878019e-06 1.0687425)
(-4.6732273e-07 1.1163963e-06 1.0687423)
(4.0837036e-07 2.4217918e-07 1.0687424)
(-2.0221923e-06 -2.0221923e-06 1.0687424)
(-3.9624067e-06 -1.8030833e-06 1.0687416)
(-1.9322882e-06 -1.7415154e-06 1.0687413)
(-5.530634e-07 -1.6630885e-06 1.0687412)
(7.1806432e-07 -1.5382337e-06 1.0687413)
(1.8877251e-06 -1.3169448e-06 1.0687416)
(2.7022997e-06 -8.6592765e-07 1.0687422)
(6.7298052e-07 8.2334799e-08 1.068743)
(-5.3872832e-07 5.4575991e-07 1.0687428)
(5.2171426e-07 -4.1574805e-06 1.0687415)
(-1.8030833e-06 -3.9624067e-06 1.0687416)
(-3.8768036e-06 -3.8768036e-06 1.0687409)
(-1.8464298e-06 -3.7919654e-06 1.0687405)
(-4.3106981e-07 -3.6808228e-06 1.0687404)
(9.046221e-07 -3.5285832e-06 1.0687406)
(2.2014627e-06 -3.3106032e-06 1.068741)
(3.3161701e-06 -2.9783685e-06 1.0687417)
(1.6575594e-06 -2.4010675e-06 1.0687426)
(-1.5837266e-07 -1.6849446e-06 1.0687425)
(5.3841957e-07 -1.9864247e-06 1.0687411)
(-1.7415153e-06 -1.9322882e-06 1.0687413)
(-3.7919654e-06 -1.8464298e-06 1.0687405)
(-1.7363074e-06 -1.7363074e-06 1.0687402)
(-2.8968117e-07 -1.6047899e-06 1.0687401)
(1.0882839e-06 -1.4475143e-06 1.0687403)
(2.4379398e-06 -1.2557244e-06 1.0687407)
(3.6118354e-06 -1.026847e-06 1.0687414)
(1.9664044e-06 -7.6861066e-07 1.0687424)
(-6.1313084e-08 -5.6011981e-07 1.0687424)
(5.5780523e-07 -6.3435145e-07 1.068741)
(-1.6630885e-06 -5.530634e-07 1.0687412)
(-3.6808228e-06 -4.3106982e-07 1.0687404)
(-1.6047899e-06 -2.8968117e-07 1.0687401)
(-1.4227666e-07 -1.4227666e-07 1.0687401)
(1.2536876e-06 8.6262541e-09 1.0687403)
(2.6221299e-06 1.6531287e-07 1.0687407)
(3.8032838e-06 3.2495412e-07 1.0687415)
(2.1242867e-06 4.7175651e-07 1.0687425)
(-1.9378753e-08 5.6413065e-07 1.0687425)
(5.926116e-07 5.5847846e-07 1.0687411)
(-1.5382337e-06 7.180643e-07 1.0687413)
(-3.5285832e-06 9.0462209e-07 1.0687406)
(-1.4475143e-06 1.0882839e-06 1.0687403)
(8.6262564e-09 1.2536876e-06 1.0687403)
(1.3958734e-06 1.3958735e-06 1.0687405)
(2.7542676e-06 1.5166634e-06 1.068741)
(3.918279e-06 1.6145008e-06 1.0687418)
(2.205581e-06 1.6832429e-06 1.0687428)
(2.6967356e-10 1.7155547e-06 1.0687428)
(6.6419579e-07 1.5291566e-06 1.0687414)
(-1.3169448e-06 1.8877251e-06 1.0687416)
(-3.3106031e-06 2.2014627e-06 1.068741)
(-1.2557244e-06 2.4379398e-06 1.0687407)
(1.6531287e-07 2.62213e-06 1.0687407)
(1.5166634e-06 2.7542676e-06 1.068741)
(2.8407573e-06 2.8407573e-06 1.0687415)
(3.9698634e-06 2.8814631e-06 1.0687423)
(2.2253406e-06 2.8737184e-06 1.0687433)
(2.1624562e-09 2.8336079e-06 1.0687434)
(8.3165723e-07 1.9168905e-06 1.068742)
(-8.6592765e-07 2.7022997e-06 1.0687422)
(-2.9783685e-06 3.3161701e-06 1.0687417)
(-1.026847e-06 3.6118354e-06 1.0687414)
(3.2495413e-07 3.8032838e-06 1.0687415)
(1.6145008e-06 3.918279e-06 1.0687418)
(2.8814631e-06 3.9698634e-06 1.0687423)
(3.9512401e-06 3.9512401e-06 1.0687431)
(2.1577257e-06 3.8296297e-06 1.0687441)
(-2.6470675e-08 3.5671152e-06 1.0687441)
(1.1878019e-06 2.4587188e-07 1.0687425)
(8.2334812e-08 6.7298052e-07 1.068743)
(-2.4010675e-06 1.6575594e-06 1.0687426)
(-7.6861067e-07 1.9664044e-06 1.0687424)
(4.7175651e-07 2.1242867e-06 1.0687425)
(1.6832429e-06 2.205581e-06 1.0687428)
(2.8737184e-06 2.2253406e-06 1.0687433)
(3.8296297e-06 2.1577257e-06 1.0687441)
(1.8412157e-06 1.8412157e-06 1.0687451)
(-1.728472e-07 3.2118073e-07 1.068745)
(1.1163963e-06 -4.6732273e-07 1.0687423)
(5.4575992e-07 -5.3872832e-07 1.0687428)
(-1.6849446e-06 -1.5837266e-07 1.0687425)
(-5.6011981e-07 -6.1313088e-08 1.0687424)
(5.6413065e-07 -1.9378759e-08 1.0687425)
(1.7155547e-06 2.6967206e-10 1.0687428)
(2.8336079e-06 2.1624587e-09 1.0687434)
(3.5671152e-06 -2.6470674e-08 1.0687441)
(3.2118072e-07 -1.728472e-07 1.068745)
(-1.0398273e-06 -1.0398273e-06 1.0687442)
(2.2458417e-06 2.2458417e-06 1.0691592)
(1.6007131e-07 4.3029093e-07 1.0691598)
(-4.7463381e-06 5.5893483e-07 1.069159)
(-2.2282387e-06 5.7921493e-07 1.0691586)
(-6.2995131e-07 6.0232062e-07 1.0691585)
(7.9221181e-07 6.4328095e-07 1.0691587)
(1.9663742e-06 7.2724397e-07 1.069159)
(2.4650597e-06 9.2443982e-07 1.0691596)
(4.541566e-07 1.3499768e-06 1.0691601)
(-5.1740002e-07 1.2637539e-06 1.06916)
(4.3029093e-07 1.6007131e-07 1.0691598)
(-2.3702892e-06 -2.3702892e-06 1.0691598)
(-4.5229521e-06 -2.1183489e-06 1.0691591)
(-2.16316e-06 -2.0438216e-06 1.0691587)
(-5.3385228e-07 -1.9505263e-06 1.0691586)
(9.7959682e-07 -1.8033813e-06 1.0691588)
(2.3881125e-06 -1.5435074e-06 1.0691592)
(3.3991589e-06 -1.0135476e-06 1.0691598)
(9.6312772e-07 1.1085969e-07 1.0691606)
(-6.0362295e-07 6.3998255e-07 1.0691604)
(5.5893483e-07 -4.7463381e-06 1.069159)
(-2.1183489e-06 -4.5229521e-06 1.0691591)
(-4.4198705e-06 -4.4198705e-06 1.0691583)
(-2.0604162e-06 -4.3181152e-06 1.069158)
(-3.8951105e-07 -4.1863489e-06 1.069158)
(1.1992307e-06 -4.0068226e-06 1.0691581)
(2.7562079e-06 -3.7504412e-06 1.0691586)
(4.1194267e-06 -3.3607114e-06 1.0691593)
(2.1076867e-06 -2.6822284e-06 1.0691602)
(-1.6465145e-07 -1.8531917e-06 1.0691602)
(5.7921493e-07 -2.2282387e-06 1.0691586)
(-2.0438216e-06 -2.16316e-06 1.0691587)
(-4.3181152e-06 -2.0604162e-06 1.069158)
(-1.9296385e-06 -1.9296385e-06 1.0691577)
(-2.2255962e-07 -1.774246e-06 1.0691577)
(1.4155045e-06 -1.5889777e-06 1.0691579)
(3.0342236e-06 -1.3634305e-06 1.0691583)
(4.4673718e-06 -1.0947093e-06 1.0691591)
(2.4706475e-06 -7.9093342e-07 1.0691601)
(-5.0931767e-08 -5.4670588e-07 1.0691601)
(6.0232062e-07 -6.299513e-07 1.0691585)
(-1.9505263e-06 -5.3385229e-07 1.0691586)
(-4.1863489e-06 -3.8951104e-07 1.069158)
(-1.774246e-06 -2.2255962e-07 1.0691577)
(-4.8850287e-08 -4.8850289e-08 1.0691576)
(1.6100462e-06 1.286793e-07 1.0691579)
(3.2504763e-06 3.1272044e-07 1.0691584)
(4.6919238e-06 4.9986334e-07 1.0691591)
(2.6556901e-06 6.7181681e-07 1.0691602)
(-1.833088e-09 7.7979304e-07 1.0691602)
(6.4328094e-07 7.9221181e-07 1.0691587)
(-1.8033813e-06 9.7959682e-07 1.0691588)
(-4.0068226e-06 1.1992307e-06 1.0691581)
(-1.5889777e-06 1.4155045e-06 1.0691579)
(1.286793e-07 1.6100462e-06 1.0691579)
(1.7770752e-06 1.7770752e-06 1.0691581)
(3.4054077e-06 1.9186727e-06 1.0691587)
(4.8264681e-06 2.0329574e-06 1.0691595)
(2.7505772e-06 2.1128297e-06 1.0691605)
(2.1052386e-08 2.1500129e-06 1.0691606)
(7.2724396e-07 1.9663741e-06 1.069159)
(-1.5435074e-06 2.3881125e-06 1.0691592)
(-3.7504412e-06 2.7562079e-06 1.0691586)
(-1.3634305e-06 3.0342236e-06 1.0691583)
(3.1272045e-07 3.2504763e-06 1.0691584)
(1.9186727e-06 3.4054077e-06 1.0691587)
(3.5063585e-06 3.5063585e-06 1.0691592)
(4.8860808e-06 3.5530209e-06 1.06916)
(2.7727456e-06 3.5422847e-06 1.069161)
(2.2955705e-08 3.4936814e-06 1.0691611)
(9.2443982e-07 2.4650597e-06 1.0691596)
(-1.0135476e-06 3.3991589e-06 1.0691598)
(-3.3607114e-06 4.1194267e-06 1.0691593)
(-1.0947093e-06 4.4673718e-06 1.0691591)
(4.9986333e-07 4.6919238e-06 1.0691591)
(2.0329574e-06 4.8264681e-06 1.0691595)
(3.5530209e-06 4.8860808e-06 1.06916)
(4.8623943e-06 4.8623943e-06 1.0691608)
(2.6912377e-06 4.7161614e-06 1.0691618)
(-1.134977e-08 4.4003491e-06 1.0691619)
(1.3499768e-06 4.541566e-07 1.0691601)
(1.108597e-07 9.6312771e-07 1.0691606)
(-2.6822284e-06 2.1076867e-06 1.0691602)
(-7.9093343e-07 2.4706475e-06 1.0691601)
(6.718168e-07 2.6556901e-06 1.0691602)
(2.1128297e-06 2.7505772e-06 1.0691605)
(3.5422847e-06 2.7727456e-06 1.069161)
(4.7161614e-06 2.6912377e-06 1.0691618)
(2.3107004e-06 2.3107004e-06 1.0691628)
(-1.8758584e-07 3.9963159e-07 1.0691628)
(1.2637539e-06 -5.1740003e-07 1.06916)
(6.3998257e-07 -6.0362295e-07 1.0691604)
(-1.8531916e-06 -1.6465146e-07 1.0691602)
(-5.4670589e-07 -5.0931768e-08 1.0691601)
(7.7979303e-07 -1.8330941e-09 1.0691602)
(2.1500129e-06 2.1052388e-08 1.0691606)
(3.4936814e-06 2.2955709e-08 1.0691611)
(4.4003491e-06 -1.1349767e-08 1.0691619)
(3.9963159e-07 -1.8758583e-07 1.0691628)
(-1.2853956e-06 -1.2853956e-06 1.0691621)
(2.4371191e-06 2.4371191e-06 1.0696397)
(6.334861e-08 4.4223941e-07 1.0696402)
(-5.2992354e-06 5.8592389e-07 1.0696395)
(-2.4398851e-06 6.098424e-07 1.0696391)
(-5.9799108e-07 6.3661244e-07 1.0696391)
(1.0505038e-06 6.8351629e-07 1.0696392)
(2.4253306e-06 7.7936729e-07 1.0696396)
(3.0346052e-06 1.005146e-06 1.0696402)
(6.9668809e-07 1.4978357e-06 1.0696408)
(-5.5206773e-07 1.3994012e-06 1.0696407)
(4.4223941e-07 6.3348604e-08 1.0696402)
(-2.7134444e-06 -2.7134444e-06 1.0696402)
(-5.0478309e-06 -2.428904e-06 1.0696395)
(-2.3638523e-06 -2.341289e-06 1.0696392)
(-4.8748024e-07 -2.2333991e-06 1.0696392)
(1.2646361e-06 -2.0647176e-06 1.0696393)