/*--------------------------------*- C++ -*----------------------------------*\
| =========                 |                                                 |
| \\      /  F ield         | OpenFOAM: The Open Source CFD Toolbox           |
|  \\    /   O peration     | Version:  v2106                                 |
|   \\  /    A nd           | Website:  www.openfoam.com                      |
|    \\/     M anipulation  |                                                 |
\*---------------------------------------------------------------------------*/
FoamFile
{
    version     2.0;
    format      ascii;
    arch        "LSB;label=32;scalar=64";
    class       volScalarField;
    location    "60";
    object      gradTx;
}
// * * * * * * * * * * * * * * * * * * * * * * * * * * * * * * * * * * * * * //

dimensions      [0 -1 0 1 0 0 0];

internalField   nonuniform List<scalar> 
4000
(
0.0002018864
0.00011403623
-0.00025268516
-9.7235709e-05
-4.2033508e-05
2.2082454e-06
3.3095194e-05
4.1431213e-05
1.8932491e-05
-2.0089986e-07
3.7194254e-05
-0.00010508698
-0.00022340767
-9.4756911e-05
-3.8800807e-05
8.5801069e-06
4.5994919e-05
6.3886818e-05
3.6038175e-05
1.9953158e-06
5.5804266e-05
-7.4778816e-05
-0.00021981768
-9.1706637e-05
-3.4133687e-05
1.5896211e-05
5.8560851e-05
8.8024689e-05
8.0464907e-05
2.0896896e-05
5.6712581e-05
-7.2219506e-05
-0.00021684376
-8.7554733e-05
-2.8667955e-05
2.3026823e-05
6.7705648e-05
9.8887869e-05
9.0940298e-05
2.4041767e-05
5.7456791e-05
-6.9249746e-05
-0.00021261549
-8.2467478e-05
-2.2912247e-05
2.9532814e-05
7.5036579e-05
0.0001065804
9.7320236e-05
2.574552e-05
5.8867717e-05
-6.4319678e-05
-0.00020671091
-7.6333292e-05
-1.698891e-05
3.5145249e-05
8.030448e-05
0.00011123699
0.00010071395
2.6593948e-05
6.1704701e-05
-5.5561779e-05
-0.00019816878
-6.8830871e-05
-1.0793823e-05
3.9968228e-05
8.3856569e-05
0.00011351706
0.00010180951
2.6778599e-05
6.7467529e-05
-3.8854023e-05
-0.00018500017
-5.9857566e-05
-4.3900756e-06
4.3965233e-05
8.5769229e-05
0.00011346455
0.0001003734
2.615699e-05
7.6675109e-05
-8.9683026e-06
-0.00016316773
-5.0275163e-05
1.5553062e-06
4.6904891e-05
8.6084126e-05
0.00011089369
9.52508e-05
2.4120034e-05
7.8871318e-05
2.2678387e-05
-0.00013009805
-4.3002234e-05
5.3835691e-06
4.8454507e-05
8.5428692e-05
0.00010690585
8.6238585e-05
2.0148843e-05
0.00072750519
0.00035895694
-0.0010431952
-0.00047103252
-0.00019950774
1.7722758e-05
0.00017016828
0.00020488353
4.4968859e-05
-3.1225818e-05
0.00019043662
-0.00037983835
-0.00097062031
-0.00045968602
-0.00018359687
4.9068835e-05
0.00023501927
0.00031865115
7.8608869e-05
-5.5419821e-05
0.00023497499
-0.00030084909
-0.00095170272
-0.00044374919
-0.00016062327
8.4911815e-05
0.00029709054
0.00044030121
0.00029152764
3.2093288e-05
0.00023881988
-0.00028834588
-0.000936024
-0.00042316701
-0.00013388894
0.00011973215
0.00034190129
0.00049508485
0.00034788697
4.9867347e-05
0.00024253933
-0.00027356575
-0.0009151837
-0.00039827539
-0.00010578028
0.00015146165
0.00037751522
0.00053225556
0.00037846904
5.796879e-05
0.00024942712
-0.0002494614
-0.00088631606
-0.00036832402
-7.6860684e-05
0.00017886175
0.00040320952
0.00055489509
0.00039474638
6.1965602e-05
0.00026343671
-0.0002063767
-0.00084452039
-0.00033172555
-4.665068e-05
0.00020238142
0.00042047181
0.00056585386
0.00039978232
6.2736727e-05
0.00029266111
-0.00012253914
-0.00077943405
-0.00028789935
-1.5552446e-05
0.00022181835
0.00042957853
0.00056493408
0.00039134788
5.9078417e-05
0.00033928179
2.9040987e-05
-0.0006680867
-0.0002397712
1.3159579e-05
0.00023597973
0.0004305108
0.00055003667
0.00035943624
4.5770947e-05
0.00031508778
0.00012401963
-0.00051015595
-0.00020095794
3.130696e-05
0.00024313163
0.00042618002
0.000524588
0.00028849556
1.1784628e-05
0.00097685359
0.00033143782
-0.0016603012
-0.00079587812
-0.00032512438
6.4958354e-05
0.00035053896
0.00041414248
-4.3889141e-05
-0.00015210397
0.00022745156
-0.00071151812
-0.0015704994
-0.00077750169
-0.00029732918
0.00012058645
0.00047268057
0.00065906268
8.7517391e-05
-0.00017138843
0.00028154963
-0.0006123495
-0.0015406494
-0.00074927117
-0.00025643039
0.00018395834
0.00058103522
0.00087131753
0.00044799014
-2.6256767e-05
0.00028731942
-0.00059186625
-0.0015128696
-0.00071257789
-0.00020876676
0.00024614914
0.00066130203
0.00097063531
0.00055172667
6.6874293e-06
0.00029380059
-0.00056574255
-0.0014757256
-0.00066825848
-0.00015877805
0.000302523
0.00072445212
0.0010364843
0.00060603326
2.1117566e-05
0.00030584956
-0.00052317226
-0.0014243072
-0.00061492555
-0.0001073747
0.0003511855
0.00076999451
0.0010764716
0.00063459781
2.8083667e-05
0.00033088599
-0.00044674256
-0.0013501629
-0.00054969382
-5.3741684e-05
0.00039286494
0.00080039433
0.0010953912
0.0006427099
2.9139223e-05
0.00038727731
-0.00029267598
-0.0012356858
-0.00047150865
1.3177868e-06
0.00042712771
0.00081585837
0.0010917461
0.00062338491
2.0734716e-05
0.00049416612
1.0432483e-05
-0.0010385903
-0.00038452703
5.2094563e-05
0.00045177185
0.0008156689
0.0010574817
0.00054061518
-1.6080998e-05
0.00047488166
0.00019920329
-0.00077147647
-0.00031346552
8.4188928e-05
0.00046380434
0.00080464548
0.00098965141
0.00027182138
-0.00015846115
0.0011835524
0.00028587832
-0.0022032061
-0.0010718565
-0.00041200615
0.00015140851
0.0005853731
0.0007177055
-2.2958646e-05
-0.00024040332
0.00025973912
-0.0010037717
-0.0020954306
-0.0010463459
-0.0003727697
0.00022953732
0.00075949892
0.0010842159
0.00017977133
-0.000268638
0.00032378577
-0.00088393925
-0.0020547624
-0.0010059351
-0.00031423772
0.00031988997
0.000912841
0.0013843236
0.00067663874
-7.2120687e-05
0.0003315895
-0.00085532798
-0.0020149843
-0.00095339938
-0.00024611518
0.0004087552
0.0010275534
0.0015270731
0.00082614384
-2.4745935e-05
0.00034079285
-0.00081801777
-0.0019618159
-0.00089007828
-0.00017480305
0.00048907065
0.0011173469
0.0016206109
0.00090336135
-4.204616e-06
0.00035774714
-0.00075755955
-0.0018883298
-0.00081396471
-0.0001015563
0.00055831558
0.0011820038
0.0016772058
0.0009436368
5.5854484e-06
0.00039287872
-0.00064953632
-0.001782598
-0.00072089759
-2.5242678e-05
0.00061746659
0.0012248825
0.0017035104
0.00095450556
6.8815666e-06
0.00047383102
-0.00043009165
-0.0016202752
-0.0006094588
5.2894086e-05
0.00066585121
0.0012461228
0.0016967745
0.00092438708
-6.1332893e-06
0.000637219
1.7081771e-05
-0.0013397408
-0.00048461031
0.00012488997
0.00070036616
0.0012444512
0.001642682
0.00078622075
-6.924669e-05
0.00060898432
0.00026950572
-0.00097390274
-0.0003827362
0.00017038705
0.00071699544
0.0012268731
0.0015284897
0.0002329034
-0.00037501152
0.0013721031
0.00023808345
-0.0026994764
-0.0013072616
-0.00046256753
0.00027308043
0.00085892628
0.0010712208
6.1317783e-05
-0.00030584553
0.00028819728
-0.0012753508
-0.0025718239
-0.0012740841
-0.00041195858
0.00037314752
0.0010831348
0.0015547731
0.00032576228
-0.00034738349
0.00036314692
-0.0011326499
-0.0025193186
-0.0012213101
-0.000336138
0.00048967283
0.0012798931
0.0019397461
0.0009513262
-0.00010331724
0.0003732989
-0.0010951931
-0.0024672866
-0.001153099
-0.00024807383
0.00060435297
0.001427775
0.0021243273
0.0011444417
-4.2389055e-05
0.00038526527
-0.0010466984
-0.0023983336
-0.0010712241
-0.00015607142
0.00070779059
0.0015431857
0.0022444166
0.0012435484
-1.6038519e-05
0.0004070382
-0.00096876356
-0.0023034018
-0.00097303241
-6.1721602e-05
0.00079683703
0.0016261274
0.0023167934
0.0012948733
-3.599902e-06
0.00045197666
-0.000830106
-0.0021671281
-0.00085310629
3.6412646e-05
0.00087268272
0.0016807493
0.0023498088
0.0013080072
-2.1821355e-06
0.00055651056
-0.00054779673
-0.0019587617
-0.00070973985
0.00013663083
0.00093440069
0.0017070872
0.002339515
0.0012672621
-1.9596562e-05
0.00077434485
3.8419238e-05
-0.0015975739
-0.00054843573
0.00022887871
0.00097807495
0.001703471
0.0022660814
0.0010765972
-0.00010749972
0.00073280689
0.00034221167
-0.0011400823
-0.00041751765
0.00028706244
0.00099885953
0.001679476
0.002108105
0.00022072813
-0.00059017597
0.0015431284
0.00018397798
-0.0031583427
-0.0015090413
-0.00048190228
0.00042426331
0.0011616653
0.0014562178
0.00018678323
-0.00035501437
0.00031022959
-0.0015362131
-0.0030101495
-0.0014679151
-0.0004201496
0.00054549702
0.0014340615
0.0020528751
0.00051124786
-0.00040925955
0.00039633437
-0.0013697611
-0.0029451189
-0.0014026905
-0.00032747387
0.00068722071
0.0016724008
0.0025192185
0.0012592099
-0.00012031208
0.00040902502
-0.0013229893
-0.0028806693
-0.001319033
-0.00022006416
0.0008267444
0.0018520471
0.0027438286
0.0014938324
-4.6578145e-05
0.00042375186
-0.0012634102
-0.0027962368
-0.0012191222
-0.00010808432
0.00095239783
0.0019919721
0.0028892677
0.0016137719
-1.4721595e-05
0.00045019347
-0.0011685609
-0.0026805839
-0.0010996435
6.5531697e-06
0.0010604131
0.0020923541
0.0029766268
0.0016755293
2.0486482e-07
0.00050457433
-0.0010004528
-0.0025149894
-0.00095394507
0.00012558441
0.0011521745
0.0021580583
0.0030158143
0.0016905402
1.6427684e-06
0.00063179094
-0.00065782539
-0.0022625984
-0.00078007217
0.00024686021
0.0012264993
0.0021889815
0.0030016665
0.0016391747
-2.0109165e-05
0.00090234589
6.2547869e-05
-0.0018240359
-0.00058389591
0.00035838261
0.0012787211
0.002183098
0.0029092818
0.0013987293
-0.00013130805
0.0008481007
0.0004146013
-0.0012800138
-0.00042551019
0.00042855713
0.0013032676
0.0021526269
0.0027098556
0.00024399362
-0.00078993293
0.0016956862
0.00012085923
-0.0035836452
-0.0016823954
-0.00047563448
0.00059814663
0.0014846788
0.0018612031
0.00034290354
-0.00039065446
0.00032488414
-0.0017896481
-0.0034149812
-0.0016332587
-0.00040307647
0.00073962863
0.0018031054
0.0025664795
0.00072719387
-0.00045575566
0.00042201463
-0.0015994248
-0.0033371513
-0.0015556837
-0.00029409398
0.00090545962
0.0020810299
0.0031103061
0.0015913745
-0.0001243174
0.0004373268
-0.0015431542
-0.0032603227
-0.0014569422
-0.00016804003
0.0010687537
0.0022909412
0.0033730163
0.0018654221
-3.8455201e-05
0.00045477238
-0.0014727131
-0.0031608347
-0.0013396156
-3.6883616e-05
0.0012156392
0.0024542193
0.0035425607
0.0020051356
-1.3840433e-06
0.00048569881
-0.0013616137
-0.0030252862
-0.0011997318
9.7157215e-05
0.0013417518
0.0025711977
0.0036441462
0.0020767785
1.5895261e-05
0.00054909371
-0.0011654001
-0.0028317096
-0.001029436
0.00023611449
0.0014486626
0.0026474189
0.0036891557
0.0020935164
1.7332331e-05
0.00069798323
-0.00076526256
-0.0025374504
-0.00082654242
0.00037741368
0.0015349514
0.0026826506
0.0036712715
0.0020319751
-8.5694588e-06
0.001019278
8.3702805e-05
-0.0020251728
-0.00059718139
0.00050724432
0.0015952576
0.0026745442
0.0035608606
0.0017446565
-0.00014163362
0.00095417678
0.0004832084
-0.0013992221
-0.00041278137
0.00058877002
0.0016233322
0.0026378472
0.0033224117
0.00030173529
-0.00097051695
0.001828991
4.754139e-05
-0.0039769306
-0.0018310668
-0.00044877589
0.00078837429
0.001820144
0.0022773879
0.00052284527
-0.00041431167
0.00033188852
-0.0020363654
-0.0037882585
-0.0017740062
-0.00036584054
0.00094907467
0.0021822054
0.003086174
0.00096666184
-0.00048818405
0.00043971979
-0.0018228257
-0.0036976383
-0.0016843458
-0.00024121671
0.0011378057
0.0024975605
0.0037032299
0.0019404862
-0.0001167285
0.00045766998
-0.0017570731
-0.0036086472
-0.0015710184
-9.7331155e-05
0.0013236915
0.0027361337
0.0040019812
0.0022517929
-1.9418625e-05
0.00047776016
-0.0016761047
-0.0034946505
-0.0014370054
5.2108848e-05
0.0014907464
0.002921538
0.0041943314
0.0024101933
2.2574853e-05
0.00051296022
-0.0015495139
-0.0033401378
-0.0012776929
0.00020459755
0.0016340411
0.0030542562
0.0043094019
0.0024912057
4.2083908e-05
0.00058489375
-0.0013266733
-0.0031200337
-0.0010840648
0.00036245846
0.0017553329
0.0031404837
0.0043599951
0.0025096615
4.3547107e-05
0.00075433444
-0.0008720974
-0.0027862094
-0.00085371539
0.00052272007
0.0018529868
0.0031798889
0.0043387543
0.0024387263
1.379951e-05
0.0011240845
9.9168768e-05
-0.0022042265
-0.00059296334
0.0006698791
0.0019209966
0.0031698362
0.0042116583
0.0021078054
-0.00013962623
0.0010502122
0.00054554353
-0.0015010784
-0.00038400831
0.0007621329
0.001952455
0.0031274096
0.0039368982
0.00039041915
-0.0011311247
0.0019426143
-3.6024171e-05
-0.0043385065
-0.0019576958
-0.00040549682
0.0009894302
0.002161377
0.0026975585
0.00072132416
-0.00042709969
0.0003313569
-0.0022757916
-0.0041305456
-0.0018929017
-0.00031269053
0.0011682116
0.0025644395
0.0036041256
0.0012238876
-0.00050767831
0.00044943594
-0.0020397013
-0.0040273382
-0.0017915519
-0.00017319959
0.0013785159
0.0029148966
0.0042897857
0.0023002338
-9.8867959e-05
0.00046999748
-0.0019646233
-0.0039265415
-0.0016642581
-1.240354e-05
0.0015857049
0.0031804084
0.0046223687
0.0026464876
9.1699886e-06
0.000492632
-0.0018735574
-0.0037986946
-0.0015143933
0.00015433351
0.0017717813
0.0033866333
0.0048361506
0.0028224333
5.5781497e-05
0.00053186834
-0.0017323261
-0.0036262545
-0.001336725
0.00032423809
0.0019312892
0.003534203
0.0049639515
0.0029122988
7.739885e-05
0.00061181958
-0.0014844717
-0.0033812013
-0.0011211279
0.00049991779
0.0020661709
0.0036299435
0.0050199412
0.0029325274
7.8936102e-05
0.00080057673
-0.00097880647
-0.0030102857
-0.00086498828
0.0006780327
0.0021745993
0.0036734571
0.0049958576
0.0028531577
4.5709773e-05
0.0012161977
0.0001077556
-0.0023629582
-0.00057476301
0.00084150059
0.0022499615
0.0036618496
0.0048536482
0.002482201
-0.00012647526
0.001135619
0.0006001032
-0.0015876857
-0.00034278882
0.00094384388
0.0022846934
0.003614316
0.0045455312
0.0005059683
-0.0012717787
0.0020364441
-0.00012910411
-0.0046679582
-0.0020641117
-0.00034918681
0.0011966178
0.0025026378
0.0031155261
0.00093381641
-0.0004299685
0.00032365224
-0.0025066365
-0.0044416326
-0.0019918567
-0.00024708622
0.0013922387
0.0029438356
0.0041135487
0.0014937805
-0.0005152791
0.00045142248
-0.0022490068
-0.0043261907
-0.0018793222
-9.3602517e-05
0.0016226709
0.003326886
0.0048628224
0.0026649639
-7.1982551e-05
0.00047453594
-0.0021648691
-0.0042140614
-0.0017387891
8.3079244e-05
0.0018497629
0.0036174835
0.0052268655
0.003043684
4.6012719e-05
0.00049959254
-0.0020642173
-0.0040731232
-0.0015740069
0.00026603314
0.0020536227
0.0038431334
0.0054606154
0.0032359613
9.6919706e-05
0.000542603
-0.0019092848
-0.0038838959
-0.0013791535
0.00045223972
0.0022283096
0.0040046161
0.0056003556
0.0033341413
0.00012051916
0.00063000652
-0.0016381642
-0.003615599
-0.0011430551
0.00064457977
0.0023759484
0.0041093636
0.0056615649
0.0033562181
0.00012218548
0.00083673489
-0.0010850365
-0.0032102479
-0.00086290609
0.00083937228
0.0024945398
0.0041569415
0.0056352111
0.0032694563
8.5877454e-05
0.0012953549
0.00010913202
-0.0025022821
-0.00054526207
0.0010180699
0.002576898
0.004144219
0.005479579
0.0028622401
-0.00010337842
0.0012100443
0.00064611093
-0.0016603444
-0.00029190868
0.0011298295
0.0026147966
0.0040922565
0.0051412331
0.00064427093
-0.0013927687
0.0021106255
-0.00023043735
-0.0049644589
-0.0021515656
-0.00028259484
0.0014059362
0.0028389358
0.0035258264
0.0011562265
-0.00042380852
0.00030930603
-0.0027271978
-0.0047208734
-0.0020721936
-0.00017184071
0.0016170574
0.0033151839
0.0046084204
0.001771664
-0.00051199565
0.00044611857
-0.0024492564
-0.0045936793
-0.0019490754
-5.3315063e-06
0.0018660576
0.0037281448
0.0054159719
0.0030294704
-3.7276933e-05
0.00047169636
-0.0023564182
-0.0044707914
-0.0017961278
0.0001861125
0.0021115426
0.0040418445
0.005808941
0.003438006
8.9852318e-05
0.00049903323
-0.0022467662
-0.0043176135
-0.0016174575
0.00038411061
0.0023318547
0.004285427
0.0060610974
0.0036453215
0.00014471145
0.00054553244
-0.0020791549
-0.0041128382
-0.0014066857
0.00058542044
0.0025206135
0.0044598221
0.0062119343
0.0037512417
0.00017015829
0.00063978068
-0.0017866449
-0.0038231283
-0.0011516605
0.00079318149
0.0026801207
0.0045730362
0.0062781697
0.0037752374
0.0001720085
0.00086303121
-0.0011899459
-0.0033861777
-0.00084940345
0.0010033981
0.0028082227
0.0046246241
0.0062501337
0.003682159
0.00013302884
0.00136151
0.00010350061
-0.0026226077
-0.00050653493
0.0011961748
0.0028971929
0.0046112355
0.0060828263
0.0032426044
-7.1541856e-05
0.0012733229
0.00068329799
-0.0017198357
-0.00023355234
0.0013166338
0.0029381385
0.0045555414
0.0057175007
0.00080128086
-0.0014945202
0.0021655144
-0.00033840724
-0.0052269728
-0.00222091
-0.00020797333
0.0016139478
0.0031658781
0.0039235489
0.0013847365
-0.00040949297
0.00028896755
-0.0029355459
-0.0049673982
-0.0021348308
-8.9265465e-05
0.0018391397
0.0036738917
0.0050833196
0.0020531482
-0.00049883663
0.00043408862
-0.0026387192
-0.0048290526
-0.0020018176
8.9215649e-05
0.0021050411
0.0041139178
0.0059434991
0.0033888859
4.0642135e-06
0.00046201731
-0.0025376257
-0.0046960733
-0.0018373713
0.00029420523
0.0023673035
0.0044486102
0.0063627049
0.0038244252
0.00013945454
0.00049147471
-0.0024196268
-0.0045315931
-0.0016459318
0.00050598545
0.0026026449
0.0047085367
0.0066316085
0.0040454058
0.00019790149
0.00054115587
-0.0022404367
-0.0043126026
-0.0014206015
0.0007211149
0.0028042922
0.0048947742
0.0067926393
0.0041584489
0.00022505055
0.00064160259
-0.0019285336
-0.0040034292
-0.001148328
0.00094297417
0.0029747154
0.0050158673
0.0068636742
0.0041844147
0.00022713524
0.00087983159
-0.001292397
-0.0035378841
-0.00082598253
0.001167279
0.0031116228
0.0050713811
0.0068345337
0.0040861002
0.00018589776
0.0014147831
9.1416638e-05
-0.0027240439
-0.00046021858
0.0013729086
0.003206781
0.0050577616
0.0066573181
0.0036182237
-3.2181724e-05
0.0013254394
0.00071175241
-0.0017666071
-0.00016946267
0.0015013026
0.0032506317
0.0049990324
0.0062683426
0.00097302808
-0.001577566
0.0022016428
-0.00045116171
-0.0054543954
-0.0022727351
-0.00012720053
0.0018176647
0.0034795594
0.004304236
0.0016157336
-0.00038789511
0.0002633692
-0.0031296458
-0.0051802562
-0.0021804198
-1.2928382e-06
0.0020554166
0.0040158758
0.0055333319
0.0023340677
-0.00047682307
0.00041598676
-0.0028155443
-0.0050314707
-0.0020382822
0.00018802697
0.0023364546
0.0044799762
0.0064402124
0.0037386274
5.0866404e-05
0.00044612866
-0.0027067211
-0.0048891533
-0.001863337
0.00040525862
0.0026137807
0.0048334351
0.0068828237
0.0041982135
0.00019360034
0.00047753028
-0.0025810914
-0.0047143879
-0.0016603311
0.0006294741
0.0028626406
0.0051080241
0.0071667213
0.0044314099
0.00025525089
0.00053006711
-0.0023914936
-0.0044826018
-0.0014218899
0.00085705763
0.0030759171
0.0053049636
0.007336981
0.0045509134
0.00028394586
0.00063603149
-0.0020623016
-0.0041560237
-0.0011341451
0.0010916105
0.0032562372
0.0054332939
0.0074125468
0.0045788728
0.00028630892
0.00088761134
-0.0013910768
-0.0036650425
-0.00079384197
0.0013285862
0.0034011869
0.0054926086
0.0073828526
0.0044763895
0.00024322537
0.0014554287
7.3674768e-05
-0.0028065318
-0.00040763618
0.0015457677
0.0035020626
0.0054791654
0.0071974907
0.0039842635
1.3477304e-05
0.0013665008
0.00073181704
-0.0018008967
-0.00010105946
0.001681286
0.0035486497
0.0054180847
0.0067882433
0.0011556172
-0.0016425388
0.0022196923
-0.0005667012
-0.0056456517
-0.0023074704
-4.187633e-05
0.0020144617
0.0037764844
0.004663823
0.0018457766
-0.00035989442
0.00023330087
-0.0033074427
-0.0053585143
-0.0022094472
9.0428352e-05
0.0022631918
0.0043374871
0.0059539927
0.0026104544
-0.0004469918
0.00039253126
-0.0029778476
-0.0052001045
-0.0020590317
0.00028938124
0.0025575146
0.0048225441
0.0069014103
0.0040743729
0.00010196333
0.00042472578
-0.0028618955
-0.005049283
-0.0018746654
0.00051747202
0.0028481019
0.005192439
0.007364471
0.0045549223
0.00025108472
0.00045788003
-0.0027294089
-0.0048653227
-0.0016613732
0.00075269766
0.003108888
0.0054799233
0.0076615236
0.0047988162
0.00031553668
0.0005129289
-0.0025306379
-0.0046222393
-0.001411349
0.00099129316
0.003332462
0.0056863562
0.0078399859
0.004924073
0.00034561023
0.0006237001
-0.002186356
-0.0042804126
-0.0011099998
0.0012370578
0.0035215945
0.0058212257
0.0079197677
0.0049540166
0.00034828744
0.0008869307
-0.0014845783
-0.0037672875
-0.00075396982
0.0014852103
0.0036737645
0.0058841693
0.007890033
0.0048484059
0.00030376317
0.0014838133
5.1231407e-05
-0.0028699343
-0.00034988651
0.0017125727
0.0037798386
0.0058712728
0.0076982629
0.0043361247
6.4206258e-05
0.0013967159
0.00074401803
-0.0018228196
-2.9526496e-05
0.001854361
0.0038289648
0.0058085022
0.0072721412
0.00134523
-0.0016901666
0.0022204715
-0.0006829461
-0.0057997685
-0.0023254589
4.6605729e-05
0.002202011
0.0040535149
0.0049986014
0.0020715821
-0.00032637724
0.00019958957
-0.0034669265
-0.0055013284
-0.0022223092
0.0001844612
0.0024600773
0.0046354589
0.0063412538
0.0028785287
-0.00041039373
0.00036448458
-0.0031237747
-0.0053342069
-0.0020645318
0.00039177709
0.0027657581
0.0051382483
0.0073228499
0.004392055
0.0001561992
0.00039854965
-0.0030013649
-0.0051757895
-0.0018718931
0.00062927304
0.0030677255
0.0055221584
0.0078032972
0.0048903777
0.00031071959
0.00043325107
-0.0028628476
-0.0049837908
-0.001649664
0.00087401339
0.0033387731
0.0058206946
0.0081115901
0.0051433905
0.00037755514
0.00049045329
-0.0026561935
-0.0047309777
-0.0013896568
0.0011221095
0.0035712464
0.0060353488
0.0082971717
0.0052736515
0.00040882955
0.00060529527
-0.0022991004
-0.0043761426
-0.001076649
0.0013775343
0.0037680452
0.0061760046
0.0083808066
0.0053055347
0.00041184769
0.000878416
-0.0015714601
-0.0038442782
-0.00070721042
0.0016352999
0.0039265564
0.0062423553
0.0083515002
0.0051978024
0.00036627823
0.0015003969
2.514808e-05
-0.0029140992
-0.00028790883
0.0018714088
0.0040372617
0.0062303331
0.0081550208
0.0046694508
0.00011877805
0.0014163804
0.00074901274
-0.0018324292
4.4125082e-05
0.0020185737
0.0040887006
0.0061665062
0.0077154163
0.0015381342
-0.0017212662
0.002204897
-0.00079779048
-0.0059159259
-0.0023270125
0.00013700586
0.0023782366
0.0043078335
0.0053051986
0.0022900217
-0.00028823434
0.00016308275
-0.0036061805
-0.005607994
-0.0022193659
0.00027952834
0.0026439477
0.0049068713
0.0066914636
0.0031347013
-0.00036808932
0.00033263696
-0.0032515491
-0.0054331631
-0.0020552056
0.00049388122
0.002958997
0.0054240839
0.0077007282
0.0046878635
0.00021243362
0.00036837063
-0.0031234177
-0.0052681254
-0.0018555058
0.0007392667
0.0032703973
0.0058195137
0.0081954131
0.0052006844
0.00037133897
0.00040440136
-0.0029797422
-0.005069303
-0.0016257503
0.000991965
0.0035499783
0.0061271933
0.0085129675
0.0054611869
0.00044012728
0.00046338562
-0.0027665424
-0.004808387
-0.001357422
0.00124799
0.0037898943
0.0063487399
0.0087045335
0.0055956651
0.00047241533
0.0005815421
-0.0023989818
-0.0044428534
-0.001034769
0.001511462
0.0039931572
0.0064943765
0.0087916115
0.0056294072
0.00047579178
0.00086274414
-0.0016502919
-0.0038957446
-0.0006543127
0.0017772162
0.0041570776
0.0065638624
0.0087631528
0.0055205153
0.00042955987
0.0015057188
-3.4521435e-06
-0.002938904
-0.00022252977
0.0020205824
0.0042718012
0.0065529959
0.0085636109
0.00498014
0.0001759749
0.0014258638
0.0007475498
-0.0018297615
0.00011901073
0.0021721969
0.0043252979
0.0064887127
0.0081138856
0.0017306965
-0.0017367358
0.0021739755
-0.00090914596
-0.0059934945
-0.0023124508
0.00022819976
0.0025412808
0.0045369204
0.0055805669
0.0024981271
-0.00024635667
0.00012463392
-0.0037234204
-0.0056779834
-0.0022009805
0.0003744741
0.0028129076
0.0051491278
0.0070013575
0.0033755812
-0.00032114238
0.00029779249
-0.0033595101
-0.0054965262
-0.0020314721
0.00059449105
0.0031352866
0.0056773918
0.0080316731
0.0049582541
0.00026954797
0.00033497467
-0.0032264521
-0.0053259041
-0.0018259771
0.00084619874
0.0034541188
0.0060817869
0.0085373807
0.0054822348
0.00043180539
0.00037210601
-0.0030785313
-0.0051215228
-0.0015901572
0.001105247
0.0037404531
0.0063966481
0.0088621665
0.0057485579
0.00050210543
0.0004324909
-0.0028601608
-0.0048541795
-0.0013152212
0.0013675782
0.0039863052
0.0066237098
0.0090585372
0.0058864329
0.00053521159
0.00055319053
-0.0024845255
-0.0044803115
-0.0009849907
0.0016374333
0.004194781
0.006773474
0.009148603
0.0059219173
0.00053895404
0.0008406292
-0.0017196893
-0.0039215203
-0.00059596489
0.001909501
0.004363131
0.0068457739
0.0091213585
0.0058127777
0.00049242719
0.0015003843
-3.3419249e-05
-0.0029442884
-0.0001544973
0.0021585898
0.0044812175
0.0068362954
0.0089203382
0.0052643606
0.00023459649
0.0014255986
0.00074043771
-0.0018148667
0.00019433888
0.0023136991
0.0045364904
0.0067721188
0.0084638019
0.0019194001
-0.0017375465
0.0021287881
-0.0010149784
-0.0060320631
-0.0022821306
0.00031915137
0.0026894815
0.0047385372
0.0058219779
0.0026930977
-0.00020163015
8.5090191e-05
-0.0038170251
-0.0057109715
-0.0021675479
0.00046823743
0.0029652685
0.0053599402
0.0072680529
0.0035979877
-0.00027061284
0.00026075697
-0.0034461428
-0.0055240436
-0.001993774
0.00069250802
0.0032929027
0.0058958431
0.0083127382
0.0051999598
0.00032645242
0.00029915127
-0.0033090056
-0.0053489253
-0.0017837954
0.0009489295
0.0036171254
0.0063066074
0.0088262092
0.0057317207
0.00049101703
0.00033714542
-0.0031577862
-0.0051402911
-0.001543415
0.0012126788
0.0039083925
0.006626648
0.009156158
0.0060021661
0.00056238046
0.00039854197
-0.0029356489
-0.0048682332
-0.0012636246
0.0014796535
0.0041586336
0.006857807
0.0093561164
0.0061425894
0.00059610213
0.00052100344
-0.002554365
-0.0044884342
-0.00092792526
0.001754187
0.0043710302
0.0070108031
0.0094486724
0.0061796643
0.00060020865
0.00081281069
-0.001778343
-0.0039215661
-0.00053281965
0.0020308532
0.0045427887
0.0070855487
0.0094229538
0.0060711334
0.00055373687
0.0014850534
-6.3604702e-05
-0.0029302779
-8.4505467e-05
0.0022840943
0.0046635446
0.0070776405
0.0092219665
0.0055185668
0.00029346856
0.0014160707
0.00072851915
-0.0017878331
0.0002693866
0.0024417219
0.0047202869
0.0070140926
0.0087618564
0.0021008629
-0.0017247324
0.0020704756
-0.0011133389
-0.0060314574
-0.0022364662
0.00040889307
0.0028213558
0.0049107169
0.0060270215
0.0028723114
-0.00015492991
4.5281191e-05
-0.0038855617
-0.005706855
-0.002119515
0.00055983219
0.0030995332
0.0055373178
0.0074890471
0.0037989629
-0.0002175492
0.00022232708
-0.0035101026
-0.0055156746
-0.0019425981
0.00078691826
0.003430326
0.0060774285
0.0085414006
0.005410003
0.00038209326
0.00026168281
-0.0033697789
-0.0053371923
-0.0017294836
0.0010464148
0.0037578705
0.006491941
0.0090593525
0.0059461453
0.00054791505
0.00030029453
-0.0032162345
-0.0051256433
-0.0014860782
0.0013131867
0.0040522212
0.0068151314
0.0093923712
0.0062189967
0.00061988914
0.00036230889
-0.0029917537
-0.0048506097
-0.0012032152
0.0015831127
0.0043052743
0.0070489396
0.0095946714
0.0063610978
0.00065401802
0.00048574608
-0.0026072644
-0.0044673059
-0.00086418295
0.0018605905
0.0045202671
0.0072042355
0.0096891811
0.0063995774
0.00065847718
0.00078004284
-0.0018250421
-0.0038959865
-0.0004655123
0.0021401113
0.0046943783
0.007281014
0.0096652439
0.0062924515
0.00061239114
0.0014604298
-9.2885216e-05
-0.0028970006
-1.3212426e-05
0.0023959094
0.004817077
0.007274808
0.0094657202
0.0057395152
0.00035145151
0.0013978105
0.00071264953
-0.0017488042
0.00034348139
0.0025550639
0.0048749591
0.0072123677
0.0090051817
0.0022718577
-0.0016993806
0.0020002237
-0.0012023911
-0.005991753
-0.0021759446
0.00049651103
0.0029355881
0.0050517564
0.0061936046
0.0030333354
-0.00010711433
6.0091983e-06
-0.0039278057
-0.0056657644
-0.0020573955
0.00064833272
0.0032143827
0.0056795597
0.007662217
0.0039757855
-0.00016298084
0.00018328069
-0.0035502345
-0.0054716026
-0.0018784896
0.00087677817
0.0035462293
0.0062204509
0.0087155597
0.0055857077
0.00043546018
0.00022333494
-0.0034076553
-0.0052909241
-0.001663614
0.001137692
0.0038750138
0.0066360828
0.0092347078
0.0061228352
0.00060149071
0.0002623134
-0.0032527795
-0.005077821
-0.0014187399
0.0014057893
0.0041705825
0.0069603793
0.0095686921
0.0063963697
0.00067362129
0.00032454941
-0.0030273881
-0.0048015649
-0.0011346029
0.0016769565
0.0044248509
0.0071953673
0.0097720674
0.0065392615
0.00070794482
0.00044817651
-0.0026421383
-0.00441719
-0.00079438662
0.0019556264
0.0046410915
0.0073520009
0.0098679598
0.0065789284
0.00071273601
0.00074308493
-0.0018586936
-0.0038450417
-0.00039467452
0.002236241
0.0048164726
0.007430359
0.0098460032
0.00647394
0.00066734538
0.0014272515
-0.00012018313
-0.0028446993
5.8745803e-05
0.0024929861
0.0049403592
0.0074259366
0.0096492857
0.00592428
0.00040744875
0.001371385
0.00069367862
-0.0016979919
0.00041598747
0.0026526673
0.0049990313
0.0073650375
0.0091913548
0.0024293311
-0.0016626206
0.0019192502
-0.0012804343
-0.0059132844
-0.0021011371
0.00058113378
0.0030310197
0.00516021
0.0063199516
0.0031739364
-5.9019192e-05
-3.1959786e-05
-0.0039427576
-0.0055880728
-0.0019817814
0.00073286236
0.0033086672
0.0057852478
0.0077858174
0.0041259823
-0.00010791046
0.00014436803
-0.0035655892
-0.0053922431
-0.0018020634
0.00096120306
0.003639468
0.0063235177
0.0088335345
0.00572471
0.00048559316
0.00018484792
-0.0034217163
-0.0052105629
-0.0015868182
0.0012218683
0.0039674107
0.0067376492
0.009350613
0.006259451
0.00065079222
0.00022393848
-0.0032665155
-0.0049972799
-0.0013420424
0.0014895867
0.004262328
0.0070610072
0.0096834614
0.0065319497
0.0007226266
0.0002860003
-0.003041647
-0.004721557
-0.0010584345
0.0017602783
0.0045162059
0.0072956947
0.0098866329
0.0066747348
0.00075692943
0.00040903679
-0.0026580672
-0.0043385364
-0.00071918238
0.0020383819
0.0047323316
0.007452681
0.0099833069
0.006715342
0.00076202321
0.00070269219
-0.0018783394
-0.0037691556
-0.00032094497
0.0023183238
0.0049078797
0.0075321284
0.0099634737
0.0066131572
0.00071761535
0.0013862807
-0.00014448426
-0.0027737408
0.00013074451
0.0025744018
0.0050321771
0.0075295219
0.0097708112
0.0060702666
0.00046041466
0.0013373894
0.00067243427
-0.0016356868
0.00048629467
0.0027336076
0.005091272
0.0074705508
0.0093183984
0.0025704227
-0.0016156139
0.0018287918
-0.001345924
-0.0057966501
-0.0020127079
0.00066192227
0.0031066404
0.0052348828
0.006404602
0.0032920898
-1.1452098e-05
-6.7904119e-05
-0.0039296561
-0.0054744011
-0.0018933515
0.00081258343
0.0033813958
0.00585324
0.0078584781
0.0042473395
-5.3307065e-05
0.0001063037
-0.0035554367
-0.0052782491
-0.0017140126
0.0010393572
0.0037090702
0.0063855331
0.0088940597
0.0058249673