/*--------------------------------*- C++ -*----------------------------------*\
| =========                 |                                                 |
| \\      /  F ield         | OpenFOAM: The Open Source CFD Toolbox           |
|  \\    /   O peration     | Version:  v2106                                 |
|   \\  /    A nd           | Website:  www.openfoam.com                      |
|    \\/     M anipulation  |                                                 |
\*---------------------------------------------------------------------------*/
FoamFile
{
    version     2.0;
    format      ascii;
    arch        "LSB;label=32;scalar=64";
    class       volScalarField;
    location    "60";
    object      gradTz;
}
// * * * * * * * * * * * * * * * * * * * * * * * * * * * * * * * * * * * * * //

dimensions      [0 -1 0 1 0 0 0];

internalField   nonuniform List<scalar> 
4000
(
562.90924
562.91057
562.90971
562.90937
562.9092
562.90915
562.90921
562.90933
562.90943
562.9094
562.91057
562.91087
562.91011
562.90978
562.90961
562.90958
562.90966
562.90983
562.91
562.90995
562.90971
562.91011
562.90936
562.90903
562.90888
562.90886
562.90897
562.90917
562.90944
562.90953
562.90937
562.90978
562.90903
562.90872
562.90858
562.90858
562.9087
562.90894
562.90923
562.90935
562.9092
562.90961
562.90888
562.90858
562.90845
562.90846
562.90861
562.90886
562.90917
562.90931
562.90915
562.90958
562.90886
562.90858
562.90846
562.90849
562.90865
562.90892
562.90924
562.90938
562.90921
562.90966
562.90897
562.9087
562.90861
562.90865
562.90882
562.9091
562.90943
562.90957
562.90933
562.90983
562.90917
562.90894
562.90886
562.90892
562.9091
562.90938
562.9097
562.90984
562.90943
562.91
562.90944
562.90923
562.90917
562.90924
562.90943
562.9097
562.91001
562.91013
562.9094
562.90995
562.90953
562.90935
562.90931
562.90938
562.90957
562.90984
562.91013
562.9102
831.92979
831.93095
831.93001
831.92955
831.92931
831.92926
831.92937
831.92958
831.92975
831.92952
831.93095
831.93124
831.93035
831.92989
831.92967
831.92963
831.92978
831.93006
831.93037
831.93011
831.93001
831.93035
831.92947
831.92903
831.92881
831.92881
831.92898
831.92933
831.92977
831.9297
831.92955
831.92989
831.92903
831.9286
831.9284
831.92842
831.92863
831.92901
831.9295
831.92947
831.92931
831.92967
831.92881
831.9284
831.92823
831.92827
831.9285
831.92892
831.92943
831.92942
831.92926
831.92963
831.92881
831.92842
831.92827
831.92833
831.92858
831.92902
831.92955
831.92955
831.92937
831.92978
831.92898
831.92863
831.9285
831.92858
831.92885
831.9293
831.92984
831.92984
831.92958
831.93006
831.92933
831.92901
831.92892
831.92902
831.9293
831.92975
831.93028
831.93027
831.92975
831.93037
831.92977
831.9295
831.92943
831.92955
831.92984
831.93028
831.93078
831.93072
831.92952
831.93011
831.9297
831.92947
831.92942
831.92955
831.92984
831.93027
831.93072
831.93046
826.69334
826.69403
826.69327
826.69287
826.69267
826.69265
826.6928
826.69307
826.69331
826.693
826.69403
826.69413
826.6934
826.693
826.69281
826.69282
826.69299
826.69334
826.69376
826.69344
826.69327
826.6934
826.69268
826.6923
826.69212
826.69214
826.69236
826.69276
826.6933
826.69315
826.69287
826.693
826.6923
826.69193
826.69177
826.69181
826.69206
826.6925
826.69309
826.69298
826.69267
826.69281
826.69212
826.69177
826.69163
826.6917
826.69197
826.69244
826.69306
826.69296
826.69265
826.69282
826.69214
826.69181
826.6917
826.69179
826.69208
826.69257
826.6932
826.69312
826.6928
826.69299
826.69236
826.69206
826.69197
826.69208
826.69238
826.69288
826.69352
826.69344
826.69307
826.69334
826.69276
826.6925
826.69244
826.69257
826.69288
826.69338
826.69401
826.69392
826.69331
826.69376
826.6933
826.69309
826.69306
826.6932
826.69352
826.69401
826.69461
826.69444
826.693
826.69344
826.69315
826.69298
826.69296
826.69312
826.69344
826.69392
826.69444
826.69386
821.61323
821.61383
821.61314
821.61279
821.61263
821.61265
821.61284
821.61316
821.61349
821.61326
821.61383
821.61392
821.61326
821.61291
821.61276
821.6128
821.61302
821.61341
821.61391
821.61365
821.61314
821.61326
821.61262
821.61228
821.61215
821.6122
821.61245
821.6129
821.61352
821.61341
821.61279
821.61291
821.61228
821.61196
821.61184
821.61192
821.6122
821.61269
821.61335
821.61328
821.61263
821.61276
821.61215
821.61184
821.61174
821.61184
821.61215
821.61266
821.61336
821.6133
821.61265
821.6128
821.6122
821.61192
821.61184
821.61197
821.61229
821.61282
821.61353
821.61348
821.61284
821.61302
821.61245
821.6122
821.61215
821.61229
821.61263
821.61317
821.61388
821.61384
821.61316
821.61341
821.6129
821.61269
821.61266
821.61282
821.61317
821.61371
821.61442
821.61436
821.61349
821.61391
821.61352
821.61335
821.61336
821.61353
821.61388
821.61442
821.61509
821.61495
821.61326
821.61365
821.61341
821.61328
821.6133
821.61348
821.61384
821.61436
821.61495
821.61431
816.68376
816.6843
816.68366
816.68335
816.68322
816.68328
816.6835
816.68385
816.68424
816.68406
816.6843
816.68438
816.68377
816.68346
816.68335
816.68342
816.68366
816.68409
816.68463
816.68442
816.68366
816.68377
816.68318
816.68288
816.68278
816.68287
816.68315
816.68363
816.68428
816.68421
816.68335
816.68346
816.68288
816.6826
816.68251
816.68262
816.68293
816.68345
816.68415
816.68412
816.68322
816.68335
816.68278
816.68251
816.68245
816.68258
816.68291
816.68346
816.68418
816.68417
816.68328
816.68342
816.68287
816.68262
816.68258
816.68273
816.68308
816.68364
816.68438
816.68437
816.6835
816.68366
816.68315
816.68293
816.68291
816.68308
816.68345
816.68402
816.68476
816.68475
816.68385
816.68409
816.68363
816.68345
816.68346
816.68364
816.68402
816.68459
816.68532
816.6853
816.68424
816.68463
816.68428
816.68415
816.68418
816.68438
816.68476
816.68532
816.68603
816.68593
816.68406
816.68442
816.68421
816.68412
816.68417
816.68437
816.68475
816.6853
816.68593
816.68531
811.89856
811.89905
811.89845
811.89816
811.89807
811.89815
811.8984
811.89878
811.89919
811.89906
811.89905
811.8991
811.89853
811.89826
811.89817
811.89827
811.89854
811.89899
811.89955
811.89939
811.89845
811.89853
811.89798
811.89772
811.89764
811.89776
811.89806
811.89856
811.89923
811.8992
811.89816
811.89826
811.89772
811.89747
811.89741
811.89755
811.89788
811.89841
811.89913
811.89913
811.89807
811.89817
811.89764
811.89741
811.89738
811.89753
811.89788
811.89844
811.89918
811.8992
811.89815
811.89827
811.89776
811.89755
811.89753
811.89771
811.89808
811.89865
811.8994
811.89943
811.8984
811.89854
811.89806
811.89788
811.89788
811.89808
811.89846
811.89904
811.8998
811.89983
811.89878
811.89899
811.89856
811.89841
811.89844
811.89865
811.89904
811.89963
811.90038
811.90039
811.89919
811.89955
811.89923
811.89913
811.89918
811.8994
811.8998
811.90038
811.90109
811.90104
811.89906
811.89939
811.8992
811.89913
811.8992
811.89943
811.89983
811.90039
811.90104
811.90047
807.2512
807.25163
807.25106
807.25081
807.25074
807.25084
807.25111
807.2515
807.25193
807.25184
807.25163
807.25166
807.25113
807.25088
807.25082
807.25094
807.25123
807.25169
807.25226
807.25214
807.25106
807.25113
807.25061
807.25038
807.25033
807.25046
807.25078
807.25129
807.25196
807.25197
807.25081
807.25088
807.25038
807.25015
807.25012
807.25028
807.25062
807.25116
807.25188
807.25192
807.25074
807.25082
807.25033
807.25012
807.25011
807.25028
807.25065
807.25121
807.25195
807.25201
807.25084
807.25094
807.25046
807.25028
807.25028
807.25048
807.25086
807.25144
807.25219
807.25225
807.25111
807.25123
807.25078
807.25062
807.25065
807.25086
807.25125
807.25184
807.2526
807.25266
807.2515
807.25169
807.25129
807.25116
807.25121
807.25144
807.25184
807.25243
807.25318
807.25323
807.25193
807.25226
807.25196
807.25188
807.25195
807.25219
807.2526
807.25318
807.2539
807.25389
807.25184
807.25214
807.25197
807.25192
807.25201
807.25225
807.25266
807.25323
807.25389
807.25337
802.73521
802.73558
802.73505
802.73482
802.73478
802.73489
802.73517
802.73557
802.736
802.73595
802.73558
802.73559
802.73509
802.73487
802.73483
802.73496
802.73526
802.73572
802.7363
802.73622
802.73505
802.73509
802.73461
802.7344
802.73437
802.73452
802.73485
802.73536
802.73603
802.73607
802.73482
802.73487
802.7344
802.73421
802.73419
802.73436
802.73471
802.73525
802.73596
802.73603
802.73478
802.73483
802.73437
802.73419
802.7342
802.73439
802.73476
802.73532
802.73605
802.73614
802.73489
802.73496
802.73452
802.73436
802.73439
802.73459
802.73497
802.73555
802.73629
802.73639
802.73517
802.73526
802.73485
802.73471
802.73476
802.73497
802.73537
802.73596
802.7367
802.7368
802.73557
802.73572
802.73536
802.73525
802.73532
802.73555
802.73596
802.73654
802.73728
802.73736
802.736
802.7363
802.73603
802.73596
802.73605
802.73629
802.7367
802.73728
802.738
802.73802
802.73595
802.73622
802.73607
802.73603
802.73614
802.73639
802.7368
802.73736
802.73802
802.73757
798.3441
798.34441
798.34392
798.34372
798.34369
798.34382
798.3441
798.3445
798.34494
798.34491
798.34441
798.3444
798.34394
798.34374
798.34372
798.34386
798.34416
798.34462
798.34519
798.34515
798.34392
798.34394
798.3435
798.34331
798.3433
798.34346
798.34379
798.34429
798.34495
798.34501
798.34372
798.34374
798.34331
798.34314
798.34314
798.34332
798.34367
798.3442
798.34489
798.34499
798.34369
798.34372
798.3433
798.34314
798.34316
798.34336
798.34373
798.34428
798.34499
798.3451
798.34382
798.34386
798.34346
798.34332
798.34336
798.34357
798.34395
798.34452
798.34524
798.34536
798.3441
798.34416
798.34379
798.34367
798.34373
798.34395
798.34435
798.34492
798.34565
798.34577
798.3445
798.34462
798.34429
798.3442
798.34428
798.34452
798.34492
798.34549
798.34622
798.34632
798.34494
798.34519
798.34495
798.34489
798.34499
798.34524
798.34565
798.34622
798.34692
798.34697
798.34491
798.34515
798.34501
798.34499
798.3451
798.34536
798.34577
798.34632
798.34697
798.34658
794.07138
794.07164
794.07119
794.07101
794.07099
794.07113
794.07141
794.07181
794.07224
794.07224
794.07164
794.0716
794.07118
794.07101
794.071
794.07115
794.07145
794.0719
794.07246
794.07245
794.07119
794.07118
794.07078
794.07062
794.07062
794.07079
794.07111
794.0716
794.07224
794.07233
794.07101
794.07101
794.07062
794.07047
794.07049
794.07067
794.07101
794.07153
794.0722
794.07232
794.07099
794.071
794.07062
794.07049
794.07052
794.07072
794.07108
794.07161
794.0723
794.07244
794.07113
794.07115
794.07079
794.07067
794.07072
794.07093
794.0713
794.07185
794.07255
794.07269
794.07141
794.07145
794.07111
794.07101
794.07108
794.0713
794.07169
794.07225
794.07295
794.07309
794.07181
794.0719
794.0716
794.07153
794.07161
794.07185
794.07225
794.0728
794.0735
794.07363
794.07224
794.07246
794.07224
794.0722
794.0723
794.07255
794.07295
794.0735
794.07418
794.07426
794.07224
794.07245
794.07233
794.07232
794.07244
794.07269
794.07309
794.07363
794.07426
794.07393
789.91059
789.91078
789.91038
789.91022
789.91022
789.91036
789.91064
789.91103
789.91145
789.91148
789.91078
789.91073
789.91035
789.9102
789.91021
789.91036
789.91066
789.91109
789.91163
789.91165
789.91038
789.91035
789.90999
789.90985
789.90987
789.91003
789.91035
789.91082
789.91143
789.91154
789.91022
789.9102
789.90985
789.90972
789.90975
789.90993
789.91027
789.91076
789.9114
789.91154
789.91022
789.91021
789.90987
789.90975
789.90979
789.90999
789.91034
789.91086
789.91151
789.91167
789.91036
789.91036
789.91003
789.90993
789.90999
789.9102
789.91057
789.91109
789.91176
789.91192
789.91064
789.91066
789.91035
789.91027
789.91034
789.91057
789.91094
789.91147
789.91214
789.9123
789.91103
789.91109
789.91082
789.91076
789.91086
789.91109
789.91147
789.91201
789.91267
789.91282
789.91145
789.91163
789.91143
789.9114
789.91151
789.91176
789.91214
789.91267
789.91332
789.91343
789.91148
789.91165
789.91154
789.91154
789.91167
789.91192
789.9123
789.91282
789.91343
789.91315
785.85527
785.85541
785.85505
785.85492
785.85493
785.85508
785.85534
785.85572
785.85612
785.85618
785.85541
785.85534
785.85501
785.85488
785.8549
785.85505
785.85534
785.85575
785.85626
785.85632
785.85505
785.85501
785.85469
785.85457
785.8546
785.85476
785.85507
785.85551
785.85609
785.85622
785.85492
785.85488
785.85457
785.85446
785.8545
785.85468
785.855
785.85547
785.85608
785.85623
785.85493
785.8549
785.8546
785.8545
785.85455
785.85475
785.85509
785.85557
785.85619
785.85636
785.85508
785.85505
785.85476
785.85468
785.85475
785.85495
785.8553
785.8558
785.85643
785.8566
785.85534
785.85534
785.85507
785.855
785.85509
785.8553
785.85566
785.85616
785.8568
785.85697
785.85572
785.85575
785.85551
785.85547
785.85557
785.8558
785.85616
785.85667
785.8573
785.85746
785.85612
785.85626
785.85609
785.85608
785.85619
785.85643
785.8568
785.8573
785.85791
785.85804
785.85618
785.85632
785.85622
785.85623
785.85636
785.8566
785.85697
785.85746
785.85804
785.85782
781.89906
781.89914
781.89883
781.89872
781.89875
781.89889
781.89915
781.8995
781.89989
781.89996
781.89914
781.89906
781.89877
781.89867
781.8987
781.89885
781.89912
781.89951
781.89999
781.90007
781.89883
781.89877
781.89849
781.8984
781.89844
781.8986
781.89889
781.89931
781.89985
781.89999
781.89872
781.89867
781.8984
781.89832
781.89836
781.89854
781.89884
781.89928
781.89985
781.90001
781.89875
781.8987
781.89844
781.89836
781.89842
781.89861
781.89893
781.89938
781.89996
781.90013
781.89889
781.89885
781.8986
781.89854
781.89861
781.89881
781.89914
781.8996
781.90018
781.90037
781.89915
781.89912
781.89889
781.89884
781.89893
781.89914
781.89947
781.89994
781.90053
781.90071
781.8995
781.89951
781.89931
781.89928
781.89938
781.8996
781.89994
781.90041
781.901
781.90118
781.89989
781.89999
781.89985
781.89985
781.89996
781.90018
781.90053
781.901
781.90157
781.90172
781.89996
781.90007
781.89999
781.90001
781.90013
781.90037
781.90071
781.90118
781.90172
781.90155
778.03565
778.03568
778.03542
778.03533
778.03536
778.0355
778.03575
778.03608
778.03644
778.03653
778.03568
778.03558
778.03534
778.03526
778.0353
778.03545
778.0357
778.03606
778.03651
778.03661
778.03542
778.03534
778.03511
778.03504
778.03508
778.03524
778.03551
778.0359
778.03639
778.03655
778.03533
778.03526
778.03504
778.03497
778.03503
778.0352
778.03548
778.03589
778.0364
778.03658
778.03536
778.0353
778.03508
778.03503
778.03509
778.03527
778.03557
778.03598
778.03651
778.0367
778.0355
778.03545
778.03524
778.0352
778.03527
778.03546
778.03577
778.03619
778.03673
778.03691
778.03575
778.0357
778.03551
778.03548
778.03557
778.03577
778.03608
778.03651
778.03705
778.03724
778.03608
778.03606
778.0359
778.03589
778.03598
778.03619
778.03651
778.03694
778.03748
778.03766
778.03644
778.03651
778.03639
778.0364
778.03651
778.03673
778.03705
778.03748
778.03801
778.03816
778.03653
778.03661
778.03655
778.03658
778.0367
778.03691
778.03724
778.03766
778.03816
778.03805
774.25882
774.2588
774.25859
774.25853
774.25857
774.25871
774.25894
774.25924
774.25958
774.25969
774.2588
774.2587
774.2585
774.25845
774.25849
774.25864
774.25887
774.25921
774.25961
774.25973
774.25859
774.2585
774.25832
774.25827
774.25832
774.25847
774.25872
774.25908
774.25952
774.25969
774.25853
774.25845
774.25827
774.25823
774.25829
774.25845
774.25871
774.25908
774.25954
774.25972
774.25857
774.25849
774.25832
774.25829
774.25836
774.25853
774.2588
774.25918
774.25965
774.25984
774.25871
774.25864
774.25847
774.25845
774.25853
774.25871
774.25899
774.25937
774.25985
774.26004
774.25894
774.25887
774.25872
774.25871
774.2588
774.25899
774.25927
774.25966
774.26014
774.26033
774.25924
774.25921
774.25908
774.25908
774.25918
774.25937
774.25966
774.26005
774.26053
774.26072
774.25958
774.25961
774.25952
774.25954
774.25965
774.25985
774.26014
774.26053
774.26101
774.26118
774.25969
774.25973
774.25969
774.25972
774.25984
774.26004
774.26033
774.26072
774.26118
774.26111
770.5625
770.56243
770.56227
770.56223
770.56228
770.56242
770.56262
770.5629
770.56321
770.56333
770.56243
770.56232
770.56217
770.56214
770.56219
770.56233
770.56255
770.56284
770.56321
770.56334
770.56227
770.56217
770.56204
770.56201
770.56207
770.56221
770.56244
770.56275
770.56315
770.56332
770.56223
770.56214
770.56201
770.56199
770.56206
770.56221
770.56244
770.56277
770.56318
770.56336
770.56228
770.56219
770.56207
770.56206
770.56213
770.56229
770.56253
770.56286
770.56328
770.56347
770.56242
770.56233
770.56221
770.56221
770.56229
770.56245
770.5627
770.56304
770.56346
770.56365
770.56262
770.56255
770.56244
770.56244
770.56253
770.5627
770.56296
770.5633
770.56372
770.56392
770.5629
770.56284
770.56275
770.56277
770.56286
770.56304
770.5633
770.56364
770.56407
770.56426
770.56321
770.56321
770.56315
770.56318
770.56328
770.56346
770.56372
770.56407
770.56449
770.56466
770.56333
770.56334
770.56332
770.56336
770.56347
770.56365
770.56392
770.56426
770.56466
770.56464
766.94071
766.9406
766.94049
766.94048
766.94054
766.94066
766.94085
766.94109
766.94137
766.9415
766.9406
766.94048
766.94039
766.94038
766.94044
766.94057
766.94076
766.94102
766.94134
766.94148
766.94049
766.94039
766.9403
766.9403
766.94036
766.94049
766.94069
766.94097
766.94131
766.94148
766.94048
766.94038
766.9403
766.9403
766.94037
766.94051
766.94071
766.94099
766.94134
766.94152
766.94054
766.94044
766.94036
766.94037
766.94044
766.94059
766.9408
766.94109
766.94144
766.94163
766.94066
766.94057
766.94049
766.94051
766.94059
766.94074
766.94096
766.94125
766.94161
766.94179
766.94085
766.94076
766.94069
766.94071
766.9408
766.94096
766.94118
766.94147
766.94184
766.94202
766.94109
766.94102
766.94097
766.94099
766.94109
766.94125
766.94147
766.94177
766.94213
766.94232
766.94137
766.94134
766.94131
766.94134
766.94144
766.94161
766.94184
766.94213
766.94249
766.94267
766.9415
766.94148
766.94148
766.94152
766.94163
766.94179
766.94202
766.94232
766.94267
766.94269
763.38766
763.3875
763.38745
763.38746
763.38753
763.38764
763.38781
763.38802
763.38825
763.38839
763.3875
763.38738
763.38734
763.38735
763.38742
763.38754
763.38771
763.38793
763.38819
763.38835
763.38745
763.38734
763.3873
763.38732
763.38739
763.38751
763.38768
763.38791
763.38819
763.38836
763.38746
763.38735
763.38732
763.38734
763.38742
763.38754
763.38772
763.38795
763.38824
763.38842
763.38753
763.38742
763.38739
763.38742
763.38749
763.38762
763.38781
763.38804
763.38834
763.38851
763.38764
763.38754
763.38751
763.38754
763.38762
763.38776
763.38794
763.38818
763.38848
763.38866
763.38781
763.38771
763.38768
763.38772
763.38781
763.38794
763.38813
763.38837
763.38867
763.38885
763.38802
763.38793
763.38791
763.38795
763.38804
763.38818
763.38837
763.38862
763.38892
763.3891
763.38825
763.38819
763.38819
763.38824
763.38834
763.38848
763.38867
763.38892
763.38922
763.38939
763.38839
763.38835
763.38836
763.38842
763.38851
763.38866
763.38885
763.3891
763.38939
763.38945
759.89769
759.8975
759.8975
759.89754
759.89761
759.89772
759.89786
759.89803
759.89823
759.89837
759.8975
759.89738
759.89739
759.89743
759.8975
759.89761
759.89775
759.89793
759.89814
759.8983
759.8975
759.89739
759.8974
759.89744
759.89752
759.89763
759.89777
759.89795
759.89817
759.89834
759.89754
759.89743
759.89744
759.89748
759.89756
759.89767
759.89782
759.898
759.89823
759.89839
759.89761
759.8975
759.89752
759.89756
759.89764
759.89775
759.8979
759.89809
759.89832
759.89848
759.89772
759.89761
759.89763
759.89767
759.89775
759.89787
759.89802
759.89821
759.89844
759.8986
759.89786
759.89775
759.89777
759.89782
759.8979
759.89802
759.89817
759.89836
759.89859
759.89876
759.89803
759.89793
759.89795
759.898
759.89809
759.89821
759.89836
759.89855
759.89878
759.89896
759.89823
759.89814
759.89817
759.89823
759.89832
759.89844
759.89859
759.89878
759.89902
759.89919
759.89837
759.8983
759.89834
759.89839
759.89848
759.8986
759.89876
759.89896
759.89919
759.89928
756.46537
756.46514
756.4652
756.46526
756.46534
756.46543
756.46555
756.46568
756.46584
756.46598
756.46514
756.46502
756.46508
756.46514
756.46522
756.46532
756.46543
756.46556
756.46573
756.46589
756.4652
756.46508
756.46514
756.46521
756.46529
756.46538
756.46549
756.46563
756.46579
756.46594
756.46526
756.46514
756.46521
756.46527
756.46535
756.46545
756.46556
756.46569
756.46585
756.466
756.46534
756.46522
756.46529
756.46535
756.46543
756.46553
756.46564
756.46577
756.46593
756.46608
756.46543
756.46532
756.46538
756.46545
756.46553
756.46562
756.46574
756.46587
756.46603
756.46618
756.46555
756.46543
756.46549
756.46556
756.46564
756.46574
756.46585
756.46599
756.46615
756.4663
756.46568
756.46556
756.46563
756.46569
756.46577
756.46587
756.46599
756.46612
756.46628
756.46644
756.46584
756.46573
756.46579
756.46585
756.46593
756.46603
756.46615
756.46628
756.46645
756.46661
756.46598
756.46589
756.46594
756.466
756.46608
756.46618
756.4663
756.46644
756.46661
756.46674
753.08543
753.08517
753.08528
753.08536
753.08545
753.08553
753.08562
753.08571
753.08583
753.08597
753.08517
753.08506
753.08517
753.08525
753.08533
753.08541
753.0855
753.08559
753.08569
753.08586
753.08528
753.08517
753.08528
753.08536
753.08544
753.08552
753.0856
753.08569
753.08578
753.08593
753.08536
753.08525
753.08536
753.08544
753.08552
753.0856
753.08568
753.08576
753.08585
753.08599
753.08545
753.08533
753.08544
753.08552
753.0856
753.08568
753.08576
753.08584
753.08593
753.08606
753.08553
753.08541
753.08552
753.0856
753.08568
753.08576
753.08584
753.08591
753.086
753.08614
753.08562
753.0855
753.0856
753.08568
753.08576
753.08584
753.08591
753.08599
753.08608
753.08622
753.08571
753.08559
753.08569
753.08576
753.08584
753.08591
753.08599
753.08607
753.08616
753.0863
753.08583
753.08569
753.08578
753.08585
753.08593
753.086
753.08608
753.08616
753.08626
753.08641
753.08597
753.08586
753.08593
753.08599
753.08606
753.08614
753.08622
753.0863
753.08641
753.08656
749.75283
749.75254
749.75271
749.75281
749.7529
749.75297
749.75303
749.75308
749.75315
749.7533
749.75254
749.75244
749.7526
749.7527
749.75278
749.75285
749.75291
749.75295
749.753
749.75316
749.75271
749.7526
749.75275
749.75286
749.75294
749.75301
749.75306
749.75309
749.75312
749.75325
749.75281
749.7527
749.75286
749.75296
749.75304
749.7531
749.75315
749.75318
749.7532
749.75332
749.7529
749.75278
749.75294
749.75304
749.75312
749.75318
749.75322
749.75324
749.75326
749.75338
749.75297
749.75285
749.75301
749.7531
749.75318
749.75324
749.75327
749.75329
749.75331
749.75343
749.75303
749.75291
749.75306
749.75315
749.75322
749.75327
749.75331
749.75333
749.75335
749.75347
749.75308
749.75295
749.75309
749.75318
749.75324
749.75329
749.75333
749.75335
749.75337
749.75349
749.75315
749.753
749.75312
749.7532
749.75326
749.75331
749.75335
749.75337
749.7534
749.75354
749.7533
749.75316
749.75325
749.75332
749.75338
749.75343
749.75347
749.75349
749.75354
749.75372
746.46275
746.46244
746.46266
746.46279
746.46288
746.46293
746.46296
746.46298
746.463
746.46314
746.46244
746.46235
746.46255
746.46268
746.46277
746.46282
746.46284
746.46284
746.46283
746.46299
746.46266
746.46255
746.46276
746.46288
746.46297
746.46302
746.46303
746.46301
746.46298
746.46309
746.46279
746.46268
746.46288
746.463
746.46308
746.46313
746.46314
746.46311
746.46306
746.46317
746.46288
746.46277
746.46297
746.46308
746.46316
746.4632
746.4632
746.46317
746.46312
746.46322
746.46293
746.46282
746.46302
746.46313
746.4632
746.46324
746.46323
746.4632
746.46314
746.46324
746.46296
746.46284
746.46303
746.46314
746.4632
746.46323
746.46323
746.46319
746.46314
746.46323
746.46298
746.46284
746.46301
746.46311
746.46317
746.4632
746.46319
746.46316
746.4631
746.46321
746.463
746.46283
746.46298
746.46306
746.46312
746.46314
746.46314
746.4631
746.46306
746.46318
746.46314
746.46299
746.46309
746.46317
746.46322
746.46324
746.46323
746.46321
746.46318
746.46338
743.21062
743.21029
743.21056
743.21071
743.2108
743.21084
743.21084
743.21082
743.2108
743.21092
743.21029
743.21021
743.21046
743.21061
743.2107
743.21073
743.21073
743.21068
743.21061
743.21076
743.21056
743.21046
743.21071
743.21085
743.21094
743.21097
743.21095
743.21089
743.21078
743.21088
743.21071
743.21061
743.21085
743.21099
743.21107
743.2111
743.21107
743.21099
743.21087
743.21096
743.2108
743.2107
743.21094
743.21107
743.21115
743.21117
743.21113
743.21104
743.21092
743.21099
743.21084
743.21073
743.21097
743.2111
743.21117
743.21118
743.21114
743.21104
743.21091
743.21099
743.21084
743.21073
743.21095
743.21107
743.21113
743.21114
743.21109
743.211
743.21087
743.21094
743.21082
743.21068
743.21089
743.21099
743.21104
743.21104
743.211
743.2109
743.21077
743.21086
743.2108
743.21061
743.21078
743.21087
743.21092
743.21091
743.21087
743.21077
743.21066
743.21076
743.21092
743.21076
743.21088
743.21096
743.21099
743.21099
743.21094
743.21086
743.21076
743.21098
739.9921
739.99176
739.99208
739.99224
739.99234
739.99236
739.99234
739.99226
739.9922
739.99232
739.99176
739.99169
739.99199
739.99215
739.99224
739.99226
739.99222
739.99212
739.992
739.99214
739.99208
739.99199
739.99228
739.99244
739.99252
739.99254
739.99249
739.99237
739.9922
739.99227
739.99224
739.99215
739.99244
739.99259
739.99267
739.99268
739.99261
739.99248
739.99229
739.99235
739.99234
739.99224
739.99252
739.99267
739.99274
739.99274
739.99267
739.99252
739.99233
739.99238
739.99236
739.99226
739.99254
739.99268
739.99274
739.99273
739.99265
739.9925
739.9923
739.99235
739.99234
739.99222
739.99249
739.99261
739.99267
739.99265
739.99257
739.99241
739.99221
739.99226
739.99226
739.99212
739.99237
739.99248
739.99252
739.9925
739.99241
739.99226
739.99206
739.99211
739.9922
739.992
739.9922
739.99229
739.99233
739.9923
739.99221
739.99206
739.99187
739.99196
739.99232
739.99214
739.99227
739.99235
739.99238
739.99235
739.99226
739.99211
739.99196
739.99219
736.80312
736.80277
736.80313
736.80331
736.80341
736.80342
736.80336
736.80325
736.80314
736.80324
736.80277
736.80271
736.80305
736.80323
736.80332
736.80333
736.80325
736.80311
736.80293
736.80305
736.80313
736.80305
736.80339
736.80356
736.80364
736.80364
736.80355
736.80338
736.80315
736.8032
736.80331
736.80323
736.80356
736.80373
736.8038
736.80379
736.80369
736.8035
736.80325
736.80328
736.80341
736.80332
736.80364
736.8038
736.80387
736.80385
736.80374
736.80354
736.80327
736.8033
736.80342
736.80333
736.80364
736.80379
736.80385
736.80382
736.8037
736.80349
736.80321
736.80324
736.80336
736.80325
736.80355
736.80369
736.80374
736.8037
736.80357
736.80336
736.80308
736.80311
736.80325
736.80311
736.80338
736.8035
736.80354
736.80349
736.80336
736.80315
736.80288
736.80291
736.80314
736.80293
736.80315
736.80325
736.80327
736.80321
736.80308
736.80288
736.80262
736.80268
736.80324
736.80305
736.8032
736.80328
736.8033
736.80324
736.80311
736.80291
736.80268
736.80292
733.63986
733.6395
733.63991
733.64011
733.6402
733.6402
733.64011
733.63995
733.63979
733.63989
733.6395
733.63946
733.63984
733.64004
733.64012
733.64011
733.64001
733.63982
733.63958
733.63969
733.63991
733.63984
733.64021
733.6404
733.64048
733.64046
733.64034
733.64012
733.63982
733.63985
733.64011
733.64004
733.6404
733.64059
733.64066
733.64062
733.64049
733.64025
733.63992
733.63993
733.6402
733.64012
733.64048
733.64066
733.64072
733.64067
733.64052
733.64027
733.63993
733.63993
733.6402
733.64011
733.64046
733.64062
733.64067
733.64062
733.64046
733.6402
733.63985
733.63985
733.64011
733.64001
733.64034
733.64049
733.64052
733.64046
733.64029
733.64002
733.63968
733.63967
733.63995
733.63982
733.64012
733.64025
733.64027
733.6402
733.64002
733.63976
733.63941
733.63942
733.63979
733.63958
733.63982
733.63992
733.63993
733.63985
733.63968
733.63941
733.63909
733.63912
733.63989
733.63969
733.63985
733.63993
733.63993
733.63985
733.63967
733.63942
733.63912
733.63938
730.49879
730.49842
730.49887
730.49908
730.49917
730.49915
730.49903
730.49884
730.49863
730.49871
730.49842
730.49839
730.49881
730.49902
730.49911
730.49908
730.49894
730.4987
730.49841
730.4985
730.49887
730.49881
730.49922
730.49942
730.4995
730.49946
730.4993
730.49903
730.49867
730.49868
730.49908
730.49902
730.49942
730.49962
730.49968
730.49963
730.49946
730.49917
730.49878
730.49876
730.49917
730.49911
730.4995
730.49968
730.49974
730.49967
730.49948
730.49918
730.49877
730.49874
730.49915
730.49908
730.49946
730.49963
730.49967
730.49959
730.49939
730.49908
730.49866
730.49863
730.49903
730.49894
730.4993
730.49946
730.49948
730.49939
730.49919
730.49886
730.49845
730.49842
730.49884
730.4987
730.49903
730.49917
730.49918
730.49908
730.49886
730.49854
730.49813
730.4981
730.49863
730.49841
730.49867
730.49878
730.49877
730.49866
730.49845
730.49813
730.49773
730.49774
730.49871
730.4985
730.49868
730.49876
730.49874
730.49863
730.49842
730.4981
730.49774
730.498
727.37662
727.37625
727.37674
727.37697
727.37705
727.37702
727.37686
727.37663
727.37637
727.37644
727.37625
727.37624
727.3767
727.37692
727.377
727.37695
727.37678
727.3765
727.37615
727.37622
727.37674
727.3767
727.37714
727.37735
727.37742
727.37736
727.37717
727.37685
727.37643
727.37641
727.37697
727.37692
727.37735
727.37755
727.37761
727.37754
727.37733
727.37699
727.37653
727.37649
727.37705
727.377
727.37742
727.37761
727.37766
727.37757
727.37735
727.37699
727.37652
727.37646
727.37702
727.37695
727.37736
727.37754
727.37757
727.37747
727.37723
727.37686
727.37638
727.37632
727.37686
727.37678
727.37717
727.37733
727.37735
727.37723
727.37699
727.37661
727.37612
727.37606
727.37663
727.3765
727.37685
727.37699
727.37699
727.37686
727.37661
727.37623
727.37575
727.37569
727.37637
727.37615
727.37643
727.37653
727.37652
727.37638
727.37612
727.37575
727.37529
727.37527
727.37644
727.37622
727.37641
727.37649
727.37646
727.37632
727.37606
727.37569
727.37527
727.37553
724.27038
724.27001
724.27053
724.27077
724.27085
724.27079
724.27061
724.27033
724.27003
724.27008
724.27001
724.27002
724.2705
724.27073
724.27081
724.27074
724.27054
724.27021
724.2698
724.26986
724.27053
724.2705
724.27097
724.27119
724.27126
724.27118
724.27095
724.27058
724.2701
724.27005
724.27077
724.27073
724.27119
724.2714
724.27145
724.27136
724.27111
724.27072
724.2702
724.27013
724.27085
724.27081
724.27126
724.27145
724.27149