/*--------------------------------*- C++ -*----------------------------------*\
| =========                 |                                                 |
| \\      /  F ield         | OpenFOAM: The Open Source CFD Toolbox           |
|  \\    /   O peration     | Version:  v2106                                 |
|   \\  /    A nd           | Website:  www.openfoam.com                      |
|    \\/     M anipulation  |                                                 |
\*---------------------------------------------------------------------------*/
FoamFile
{
    version     2.0;
    format      ascii;
    arch        "LSB;label=32;scalar=64";
    class       volScalarField;
    location    "60";
    object      laplacianT;
}
// * * * * * * * * * * * * * * * * * * * * * * * * * * * * * * * * * * * * * //

dimensions      [0 -2 0 1 0 0 0];

internalField   nonuniform List<scalar> 
4000
(
40751.896
40751.724
40751.82
40751.777
40751.765
40751.761
40751.765
40751.773
40751.78
40751.775
40751.724
40751.748
40751.77
40751.733
40751.72
40751.718
40751.723
40751.733
40751.74
40751.732
40751.82
40751.77
40751.802
40751.766
40751.754
40751.753
40751.76
40751.774
40751.785
40751.769
40751.777
40751.733
40751.766
40751.73
40751.72
40751.72
40751.728
40751.744
40751.76
40751.749
40751.765
40751.72
40751.754
40751.72
40751.71
40751.711
40751.721
40751.738
40751.755
40751.745
40751.761
40751.718
40751.753
40751.72
40751.711
40751.713
40751.724
40751.742
40751.76
40751.75
40751.765
40751.723
40751.76
40751.728
40751.721
40751.724
40751.736
40751.755
40751.772
40751.763
40751.773
40751.733
40751.774
40751.744
40751.738
40751.742
40751.755
40751.774
40751.791
40751.781
40751.78
40751.74
40751.785
40751.76
40751.755
40751.76
40751.772
40751.791
40751.807
40751.796
40751.775
40751.732
40751.769
40751.749
40751.745
40751.75
40751.763
40751.781
40751.796
40751.782
-531.1526
-531.97957
-531.48882
-531.53551
-531.53689
-531.53681
-531.53723
-531.53873
-531.54424
-531.54136
-531.97957
-532.08731
-531.81245
-531.84823
-531.84908
-531.84929
-531.85132
-531.86059
-531.89735
-531.8158
-531.48882
-531.81245
-531.51871
-531.55275
-531.55344
-531.55338
-531.55431
-531.56154
-531.61033
-531.6227
-531.53551
-531.84823
-531.55275
-531.58663
-531.58737
-531.58742
-531.58833
-531.59401
-531.63606
-531.63497
-531.53689
-531.84908
-531.55344
-531.58737
-531.58815
-531.58828
-531.58943
-531.59563
-531.63833
-531.63676
-531.53681
-531.84929
-531.55338
-531.58742
-531.58828
-531.58843
-531.58961
-531.59588
-531.63873
-531.63729
-531.53723
-531.85132
-531.55431
-531.58833
-531.58943
-531.58961
-531.59082
-531.59712
-531.64004
-531.63874
-531.53873
-531.86059
-531.56154
-531.59401
-531.59563
-531.59588
-531.59712
-531.6035
-531.64664
-531.64581
-531.54424
-531.89735
-531.61033
-531.63606
-531.63833
-531.63873
-531.64004
-531.64664
-531.69052
-531.69108
-531.54136
-531.8158
-531.6227
-531.63497
-531.63676
-531.63729
-531.63874
-531.64581
-531.69108
-531.68235
-515.11505
-516.16555
-515.49883
-515.56152
-515.56412
-515.56435
-515.56605
-515.57342
-515.60253
-515.47043
-516.16555
-516.27293
-515.8905
-515.93953
-515.9413
-515.94171
-515.94543
-515.96777
-516.0866
-515.8599
-515.49883
-515.8905
-515.48531
-515.53201
-515.53356
-515.53355
-515.53508
-515.55095
-515.68399
-515.60067
-515.56152
-515.93953
-515.53201
-515.57846
-515.58006
-515.58026
-515.58194
-515.59548
-515.71811
-515.61581
-515.56412
-515.9413
-515.53356
-515.58006
-515.58172
-515.58202
-515.58404
-515.59833
-515.72173
-515.61831
-515.56435
-515.94171
-515.53355
-515.58026
-515.58202
-515.58235
-515.58441
-515.5988
-515.72246
-515.61917
-515.56605
-515.94543
-515.53508
-515.58194
-515.58404
-515.58441
-515.58651
-515.60099
-515.72485
-515.62196
-515.57342
-515.96777
-515.55095
-515.59548
-515.59833
-515.5988
-515.60099
-515.6157
-515.74032
-515.63938
-515.60253
-516.0866
-515.68399
-515.71811
-515.72173
-515.72246
-515.72485
-515.74032
-515.86774
-515.77421
-515.47043
-515.8599
-515.60067
-515.61581
-515.61831
-515.61917
-515.62196
-515.63938
-515.77421
-515.54841
-499.61048
-500.90109
-500.06878
-500.14612
-500.14986
-500.15029
-500.15308
-500.16805
-500.24439
-500.03423
-500.90109
-501.0404
-500.55471
-500.61596
-500.61861
-500.61911
-500.6237
-500.65695
-500.87374
-500.52303
-500.06878
-500.55471
-500.04269
-500.10105
-500.10343
-500.10346
-500.1052
-500.12843
-500.36402
-500.20412
-500.14612
-500.61596
-500.10105
-500.15907
-500.16153
-500.16184
-500.16385
-500.18389
-500.40562
-500.22203
-500.14986
-500.61861
-500.10343
-500.16153
-500.16403
-500.16447
-500.16693
-500.18791
-500.41049
-500.22521
-500.15029
-500.61911
-500.10346
-500.16184
-500.16447
-500.16493
-500.16745
-500.18856
-500.41149
-500.22634
-500.15308
-500.6237
-500.1052
-500.16385
-500.16693
-500.16745
-500.17002
-500.19126
-500.41452
-500.23015
-500.16805
-500.65695
-500.12843
-500.18389
-500.18791
-500.18856
-500.19126
-500.21293
-500.43779
-500.2584
-500.24439
-500.87374
-500.36402
-500.40562
-500.41049
-500.41149
-500.41452
-500.43779
-500.66984
-500.51859
-500.03423
-500.52303
-500.20412
-500.22203
-500.22521
-500.22634
-500.23015
-500.2584
-500.51859
-500.04236
-484.74988
-486.26759
-485.27733
-485.36862
-485.37347
-485.37406
-485.37752
-485.3981
-485.51895
-485.23901
-486.26759
-486.43631
-485.85198
-485.92488
-485.92841
-485.92904
-485.93439
-485.97674
-486.28873
-485.82019
-485.27733
-485.85198
-485.23792
-485.30739
-485.3106
-485.3107
-485.31253
-485.34146
-485.67746
-485.44489
-485.36862
-485.92488
-485.30739
-485.37646
-485.37974
-485.38019
-485.38243
-485.40725
-485.72617
-485.46546
-485.37347
-485.92841
-485.3106
-485.37974
-485.38308
-485.38368
-485.38647
-485.41241
-485.73223
-485.46931
-485.37406
-485.92904
-485.3107
-485.38019
-485.38368
-485.3843
-485.38716
-485.41327
-485.7335
-485.47069
-485.37752
-485.93439
-485.31253
-485.38243
-485.38647
-485.38716
-485.39008
-485.41633
-485.73698
-485.47519
-485.3981
-485.97674
-485.34146
-485.40725
-485.41241
-485.41327
-485.41633
-485.44313
-485.76601
-485.51218
-485.51895
-486.28873
-485.67746
-485.72617
-485.73223
-485.7335
-485.73698
-485.76601
-486.10034
-485.90237
-485.23901
-485.82019
-485.44489
-485.46546
-485.46931
-485.47069
-485.47519
-485.51218
-485.90237
-485.17764
-470.54104
-472.26847
-471.1292
-471.2338
-471.23973
-471.24052
-471.24469
-471.27056
-471.43416
-471.08951
-472.26847
-472.46143
-471.78413
-471.86813
-471.87251
-471.87332
-471.87947
-471.93046
-472.33452
-471.75637
-471.1292
-471.78413
-471.07387
-471.15394
-471.15795
-471.15815
-471.16015
-471.19434
-471.62754
-471.32809
-471.2338
-471.86813
-471.15394
-471.23353
-471.23762
-471.23824
-471.24077
-471.26997
-471.68302
-471.3512
-471.23973
-471.87251
-471.15795
-471.23762
-471.24177
-471.24255
-471.24575
-471.27623
-471.69024
-471.35571
-471.24052
-471.87332
-471.15815
-471.23824
-471.24255
-471.24337
-471.24664
-471.27731
-471.69181
-471.35737
-471.24469
-471.87947
-471.16015
-471.24077
-471.24575
-471.24664
-471.24998
-471.28081
-471.69579
-471.36256
-471.27056
-471.93046
-471.19434
-471.26997
-471.27623
-471.27731
-471.28081
-471.31228
-471.73
-471.40729
-471.43416
-472.33452
-471.62754
-471.68302
-471.69024
-471.69181
-471.69579
-471.73
-472.16287
-471.92513
-471.08951
-471.75637
-471.32809
-471.3512
-471.35571
-471.35737
-471.36256
-471.40729
-471.92513
-470.96205
-456.98835
-458.90731
-457.62885
-457.74602
-457.75299
-457.75399
-457.75887
-457.78981
-457.99454
-457.59031
-458.90731
-459.11955
-458.35549
-458.44999
-458.45519
-458.45617
-458.4631
-458.52228
-459.01471
-458.33591
-457.62885
-458.35549
-457.55545
-457.64554
-457.65032
-457.65064
-457.65281
-457.69192
-458.2183
-457.85834
-457.74602
-458.44999
-457.64554
-457.73509
-457.73996
-457.74075
-457.74357
-457.77684
-458.28018
-457.88385
-457.75299
-458.45519
-457.65032
-457.73996
-457.74489
-457.74586
-457.74946
-457.78415
-458.28851
-457.88899
-457.75399
-458.45617
-457.65064
-457.74075
-457.74586
-457.74686
-457.75054
-457.78547
-458.29037
-457.89093
-457.75887
-458.4631
-457.65281
-457.74357
-457.74946
-457.75054
-457.75431
-457.7894
-458.29486
-457.8968
-457.78981
-458.52228
-457.69192
-457.77684
-457.78415
-457.78547
-457.7894
-457.82524
-458.33392
-457.94871
-457.99454
-459.01471
-458.2183
-458.28018
-458.28851
-458.29037
-458.29486
-458.33392
-458.86113
-458.58977
-457.59031
-458.33591
-457.85834
-457.88385
-457.88899
-457.89093
-457.8968
-457.94871
-458.58977
-457.4013
-444.09532
-446.18694
-444.77985
-444.90879
-444.91675
-444.91795
-444.92352
-444.95929
-445.20332
-444.74477
-446.18694
-446.41369
-445.56953
-445.67387
-445.67985
-445.681
-445.68867
-445.75555
-446.33206
-445.56188
-444.77985
-445.56953
-444.68659
-444.78607
-444.79159
-444.79201
-444.79434
-444.83803
-445.45296
-445.03897
-444.90879
-445.67387
-444.78607
-444.88494
-444.89056
-444.89152
-444.89462
-444.93166
-445.52083
-445.06672
-444.91675
-445.67985
-444.79159
-444.89056
-444.89624
-444.8974
-444.90138
-444.93998
-445.53021
-445.07246
-444.91795
-445.681
-444.79201
-444.89152
-444.8974
-444.89858
-444.90265
-444.94151
-445.53236
-445.07467
-444.92352
-445.68867
-444.79434
-444.89462
-444.90138
-444.90265
-444.90681
-444.94586
-445.53733
-445.0812
-444.95929
-445.75555
-444.83803
-444.93166
-444.93998
-444.94151
-444.94586
-444.98574
-445.58089
-445.13981
-445.20332
-446.33206
-445.45296
-445.52083
-445.53021
-445.53236
-445.53733
-445.58089
-446.19776
-445.89861
-444.74477
-445.56188
-445.03897
-445.06672
-445.07246
-445.07467
-445.0812
-445.13981
-445.89861
-444.49908
-431.86347
-434.10834
-432.58383
-432.72367
-432.73256
-432.73396
-432.74017
-432.78049
-433.06178
-432.55432
-434.10834
-434.34507
-433.42784
-433.54131
-433.54803
-433.54934
-433.55768
-433.63174
-434.28755
-433.43548
-432.58383
-433.42784
-432.46928
-432.57747
-432.58369
-432.58422
-432.58669
-432.63458
-433.3329
-432.8714
-432.72367
-433.54131
-432.57747
-432.68498
-432.6913
-432.69243
-432.69579
-432.73628
-433.4063
-432.90121
-432.73256
-433.54803
-432.58369
-432.6913
-432.69769
-432.69903
-432.70336
-432.74554
-433.41668
-432.90751
-432.73396
-433.54934
-432.58422
-432.69243
-432.69903
-432.70039
-432.70482
-432.74729
-433.4191
-432.90998
-432.74017
-433.55768
-432.58669
-432.69579
-432.70336
-432.70482
-432.70936
-432.75203
-433.42452
-432.91713
-432.78049
-433.63174
-432.63458
-432.73628
-432.74554
-432.74729
-432.75203
-432.79562
-433.47223
-432.98195
-433.06178
-434.28755
-433.3329
-433.4063
-433.41668
-433.4191
-433.42452
-433.47223
-434.17356
-433.85225
-432.55432
-433.43548
-432.8714
-432.90121
-432.90751
-432.90998
-432.91713
-432.98195
-433.85225
-432.25696
-420.2922
-422.67055
-421.04038
-421.19016
-421.19992
-421.20151
-421.20832
-421.25289
-421.56917
-421.01832
-422.67055
-422.91299
-421.93004
-422.05185
-422.05926
-422.06073
-422.06969
-422.15035
-422.88025
-421.95589
-421.04038
-421.93004
-420.90347
-421.01962
-421.0265
-421.02714
-421.02973
-421.08143
-421.85751
-421.35498
-421.19016
-422.05185
-421.01962
-421.13503
-421.14201
-421.14331
-421.14691
-421.19051
-421.93596
-421.38667
-421.19992
-422.05926
-421.0265
-421.14201
-421.14907
-421.15058
-421.15524
-421.20066
-421.94727
-421.3935
-421.20151
-422.06073
-421.02714
-421.14331
-421.15058
-421.15211
-421.15688
-421.20261
-421.94995
-421.39621
-421.20832
-422.06969
-421.02973
-421.14691
-421.15524
-421.15688
-421.16176
-421.20771
-421.95579
-421.40393
-421.25289
-422.15035
-421.08143
-421.19051
-421.20066
-421.20261
-421.20771
-421.25466
-422.00726
-421.47444
-421.56917
-422.88025
-421.85751
-421.93596
-421.94727
-421.94995
-421.95579
-422.00726
-422.78741
-422.44934
-421.01832
-421.95589
-421.35498
-421.38667
-421.3935
-421.39621
-421.40393
-421.47444
-422.44934
-420.6744
-409.37877
-411.8706
-410.14697
-410.3057
-410.31626
-410.31803
-410.32541
-410.37388
-410.7227
-410.13404
-411.8706
-412.11477
-411.07372
-411.20304
-411.2111
-411.21271
-411.22222
-411.30887
-412.10722
-411.12026
-410.14697
-411.07372
-409.98703
-410.11035
-410.11784
-410.11858
-410.12128
-410.17638
-411.02419
-410.48703
-410.3057
-411.20304
-410.11035
-410.23288
-410.24047
-410.24192
-410.24574
-410.2921
-411.10717
-410.52039
-410.31626
-411.2111
-410.11784
-410.24047
-410.24814
-410.24982
-410.25477
-410.30307
-411.11932
-410.5277
-410.31803
-411.21271
-410.11858
-410.24192
-410.24982
-410.25151
-410.25659
-410.30522
-411.12225
-410.53064
-410.32541
-411.22222
-410.12128
-410.24574
-410.25477
-410.25659
-410.26178
-410.31064
-411.12846
-410.53888
-410.37388
-411.30887
-410.17638
-410.2921
-410.30307
-410.30522
-410.31064
-410.36058
-411.1833
-410.61455
-410.7227
-412.10722
-411.02419
-411.10717
-411.11932
-411.12225
-411.12846
-411.1833
-412.03618
-411.68654
-410.13404
-411.12026
-410.48703
-410.52039
-410.5277
-410.53064
-410.53888
-410.61455
-411.68654
-409.74871
-399.11828
-401.70352
-399.89905
-400.06566
-400.07695
-400.07889
-400.08677
-400.13879
-400.51752
-399.89665
-401.70352
-401.94578
-400.85445
-400.99041
-400.99905
-401.0008
-401.0108
-401.10281
-401.96362
-400.92371
-399.89905
-400.85445
-399.71576
-399.84542
-399.85346
-399.8543
-399.85709
-399.91517
-400.82829
-400.26278
-400.06566
-400.99041
-399.84542
-399.97424
-399.98239
-399.98398
-399.98799
-400.03676
-400.91525
-400.2976
-400.07695
-400.99905
-399.85346
-399.98239
-399.99061
-399.99245
-399.99767
-400.04847
-400.92818
-400.30535
-400.07889
-401.0008
-399.8543
-399.98398
-399.99245
-399.99429
-399.99964
-400.0508
-400.93132
-400.3085
-400.08677
-401.0108
-399.85709
-399.98799
-399.99767
-399.99964
-400.0051
-400.05651
-400.93788
-400.3172
-400.13879
-401.10281
-399.91517
-400.03676
-400.04847
-400.0508
-400.05651
-400.10905
-400.99566
-400.39746
-400.51752
-401.96362
-400.82829
-400.91525
-400.92818
-400.93132
-400.93788
-400.99566
-401.91482
-401.55852
-399.89665
-400.92371
-400.26278
-400.2976
-400.30535
-400.3085
-400.3172
-400.39746
-401.55852
-399.47506
-389.50377
-392.16239
-390.28995
-390.46335
-390.47529
-390.47739
-390.48572
-390.54092
-390.94676
-390.29926
-392.16239
-392.39943
-391.26579
-391.40749
-391.41666
-391.41854
-391.42895
-391.52566
-392.44261
-391.35933
-390.28995
-391.26579
-390.08338
-390.21851
-390.22705
-390.22799
-390.23085
-390.29148
-391.26317
-390.67542
-390.46335
-391.40749
-390.21851
-390.35276
-390.36141
-390.36314
-390.36731
-390.41813
-391.35355
-390.71147
-390.47529
-391.41666
-390.22705
-390.36141
-390.37014
-390.37212
-390.37757
-390.4305
-391.36716
-390.71961
-390.47739
-391.41854
-390.22799
-390.36314
-390.37212
-390.37411
-390.37969
-390.433
-391.37051
-390.72295
-390.48572
-391.42895
-390.23085
-390.36731
-390.37757
-390.37969
-390.38539
-390.43895
-391.37736
-390.73205
-390.54092
-391.52566
-390.29148
-390.41813
-390.4305
-390.433
-390.43895
-390.49372
-391.43766
-390.81632
-390.94676
-392.44261
-391.26317
-391.35355
-391.36716
-391.37051
-391.37736
-391.43766
-392.41632
-392.05796
-390.29926
-391.35933
-390.67542
-390.71147
-390.71961
-390.72295
-390.73205
-390.81632
-392.05796
-389.84654
-380.52618
-383.23834
-381.31101
-381.49006
-381.50258
-381.50482
-381.51354
-381.57154
-382.00155
-381.33296
-383.23834
-383.46721
-382.29935
-382.44584
-382.45548
-382.45747
-382.46823
-382.56895
-383.53547
-382.41824
-381.31101
-382.29935
-381.08159
-381.2213
-381.23028
-381.23132
-381.23421
-381.29695
-382.32022
-381.71612
-381.49006
-382.44584
-381.2213
-381.36009
-381.36919
-381.37104
-381.37534
-381.42784
-382.41343
-381.75317
-381.50258
-382.45548
-381.23028
-381.36919
-381.37836
-381.38047
-381.38611
-381.44079
-382.42763
-381.76165
-381.50482
-382.45747
-381.23132
-381.37104
-381.38047
-381.38259
-381.38837
-381.44343
-382.43117
-381.76516
-381.51354
-382.46823
-381.23421
-381.37534
-381.38611
-381.38837
-381.39426
-381.4496
-382.43826
-381.7746
-381.57154
-382.56895
-381.29695
-381.42784
-381.44079
-381.44343
-381.4496
-381.50618
-382.50065
-381.86227
-382.00155
-383.53547
-382.32022
-382.41343
-382.42763
-382.43117
-382.43826
-382.50065
-383.53176
-383.17561
-381.33296
-382.41824
-381.71612
-381.75317
-381.76165
-381.76516
-381.7746
-381.86227
-383.17561
-380.85415
-372.17444
-374.92063
-372.95159
-373.13512
-373.14813
-373.1505
-373.15956
-373.21994
-373.67108
-372.98685
-374.92063
-375.13875
-373.94477
-374.0951
-374.10514
-374.10723
-374.11826
-374.22229
-375.23159
-374.08964
-372.95159
-373.94477
-372.7001
-372.84346
-372.85283
-372.85395
-372.85688
-372.92128
-373.9889
-373.37409
-373.13512
-374.0951
-372.84346
-372.98589
-372.99537
-372.99734
-373.00175
-373.05555
-374.08433
-373.41191
-373.14813
-374.10514
-372.85283
-372.99537
-373.00493
-373.00715
-373.01295
-373.06899
-374.09904
-373.42067
-373.1505
-374.10723
-372.85395
-372.99734
-373.00715
-373.00939
-373.01532
-373.07176
-374.10275
-373.42433
-373.15956
-374.11826
-372.85688
-373.00175
-373.01295
-373.01532
-373.02138
-373.0781
-374.11003
-373.43405
-373.21994
-374.22229
-372.92128
-373.05555
-373.06899
-373.07176
-373.0781
-373.13611
-374.17406
-373.5245
-373.67108
-375.23159
-373.9889
-374.08433
-374.09904
-374.10275
-374.11003
-374.17406
-375.25034
-374.90033
-372.98685
-374.08964
-373.37409
-373.41191
-373.42067
-373.42433
-373.43405
-373.5245
-374.90033
-372.48686
-364.43554
-367.19665
-365.19912
-365.38594
-365.39935
-365.40183
-365.41117
-365.47352
-365.94267
-365.24809
-367.19665
-367.40184
-366.18985
-366.34303
-366.3534
-366.35559
-366.36682
-366.47345
-367.51855
-366.36083
-365.19912
-366.18985
-364.92668
-365.07277
-365.08246
-365.08366
-365.08659
-365.15221
-366.25679
-365.63663
-365.38594
-366.34303
-365.07277
-365.2179
-365.2277
-365.22978
-365.23426
-365.28899
-366.35384
-365.67499
-365.39935
-366.3534
-365.08246
-365.2277
-365.23758
-365.23991
-365.24582
-365.30284
-366.36896
-365.68397
-365.40183
-366.35559
-365.08366
-365.22978
-365.23991
-365.24225
-365.2483
-365.30572
-366.3728
-365.68776
-365.41117
-366.36682
-365.08659
-365.23426
-365.24582
-365.2483
-365.25448
-365.31218
-366.38024
-365.69769
-365.47352
-366.47345
-365.15221
-365.28899
-365.30284
-365.30572
-365.31218
-365.37121
-366.44548
-365.79031
-365.94267
-367.51855
-366.25679
-366.35384
-366.36896
-366.3728
-366.38024
-366.44548
-367.55947
-367.21913
-365.24809
-366.36083
-365.63663
-365.67499
-365.68397
-365.68776
-365.69769
-365.79031
-367.21913
-364.73171
-357.29458
-360.05207
-358.03918
-358.22809
-358.24181
-358.2444
-358.25394
-358.31785
-358.8018
-358.10203
-360.05207
-360.2425
-359.02055
-359.1756
-359.18624
-359.18849
-359.19985
-359.30837
-360.38219
-359.21732
-358.03918
-359.02055
-357.74725
-357.89513
-357.90508
-357.90634
-357.90926
-357.97565
-359.1097
-358.48923
-358.22809
-359.1756
-357.89513
-358.04202
-358.05208
-358.05425
-358.05878
-358.11406
-359.20774
-358.52788
-358.24181
-359.18624
-357.90508
-358.05208
-358.06222
-358.06464
-358.07062
-358.12822
-359.22317
-358.53702
-358.2444
-359.18849
-357.90634
-358.05425
-358.06464
-358.06706
-358.07319
-358.13121
-359.22713
-358.54091
-358.25394
-359.19985
-357.90926
-358.05878
-358.07062
-358.07319
-358.07945
-358.13775
-359.23466
-358.55099
-358.31785
-359.30837
-357.97565
-358.11406
-358.12822
-358.13121
-358.13775
-358.1974
-359.30066
-358.64515
-358.8018
-360.38219
-359.1097
-359.20774
-359.22317
-359.22713
-359.23466
-359.30066
-360.44479
-360.11727
-358.10203
-359.21732
-358.48923
-358.52788
-358.53702
-358.54091
-358.55099
-358.64515
-360.11727
-357.57387
-350.7349
-353.47085
-351.4556
-351.6454
-351.65934
-351.66201
-351.67171
-351.73674
-352.23223
-351.53225
-353.47085
-353.64511
-352.42111
-352.57705
-352.58788
-352.59019
-352.6016
-352.71129
-353.80665
-352.64293
-351.4556
-352.42111
-351.14594
-351.29466
-351.3048
-351.30613
-351.30901
-351.37574
-352.53167
-351.91561
-351.6454
-352.57705
-351.29466
-351.44238
-351.45264
-351.45487
-351.45942
-351.51489
-352.63008
-351.95431
-351.65934
-352.58788
-351.3048
-351.45264
-351.46296
-351.46545
-351.47147
-351.52928
-352.64573
-351.96356
-351.66201
-352.59019
-351.30613
-351.45487
-351.46545
-351.46794
-351.47412
-351.53234
-352.64977
-351.96752
-351.67171
-352.6016
-351.30901
-351.45942
-351.47147
-351.47412
-351.48042
-351.53893
-352.65736
-351.97769
-351.73674
-352.71129
-351.37574
-351.51489
-351.52928
-351.53234
-351.53893
-351.5988
-352.72369
-352.07276
-352.23223
-353.80665
-352.53167
-352.63008
-352.64573
-352.64977
-352.65736
-352.72369
-353.89031
-353.57836
-351.53225
-352.64293
-351.91561
-351.95431
-351.96356
-351.96752
-351.97769
-352.07276
-353.57836
-350.99671
-344.73814
-347.43538
-345.43054
-345.62002
-345.63411
-345.63683
-345.64662
-345.71235
-346.21611
-345.52066
-347.43538
-347.59241
-346.37415
-346.52998
-346.54094
-346.54329
-346.55468
-346.66483
-347.77454
-346.61982
-345.43054
-346.37415
-345.1052
-345.25382
-345.26408
-345.26547
-345.2683
-345.33492
-346.50515
-345.89787
-345.62002
-346.52998
-345.25382
-345.40143
-345.41181
-345.41411
-345.41865
-345.47394
-346.60331
-345.93636
-345.63411
-346.54094
-345.26408
-345.41181
-345.42225
-345.42481
-345.43083
-345.48846
-346.61908
-345.94566
-345.63683
-346.54329
-345.26547
-345.41411
-345.42481
-345.42735
-345.43353
-345.49158
-346.62318
-345.94967
-345.64662
-346.55468
-345.2683
-345.41865
-345.43083
-345.43353
-345.43983
-345.49817
-346.63078
-345.95986
-345.71235
-346.66483
-345.33492
-345.47394
-345.48846
-345.49158
-345.49817
-345.55788
-346.697
-346.05523
-346.21611
-347.77454
-346.50515
-346.60331
-346.61908
-346.62318
-346.63078
-346.697
-347.87844
-347.58441
-345.52066
-346.61982
-345.89787
-345.93636
-345.94566
-345.94967
-345.95986
-346.05523
-347.58441
-344.98192
-339.28439
-341.92655
-339.9446
-340.13257
-340.1467
-340.14948
-340.15929
-340.2253
-340.73403
-340.04764
-341.92655
-342.06568
-340.86072
-341.01546
-341.02648
-341.02887
-341.04016
-341.15007
-342.26695
-341.12866
-339.9446
-340.86072
-339.60589
-339.75347
-339.7638
-339.76522
-339.76799
-339.83409
-341.01106
-340.41652
-340.13257
-341.01546
-339.75347
-339.90005
-339.91048
-339.91283
-339.91733
-339.9721
-341.10835
-340.45458
-340.1467
-341.02648
-339.7638
-339.91048
-339.92098
-339.92358
-339.92957
-339.98666
-341.12412
-340.46387
-340.14948
-341.02887
-339.76522
-339.91283
-339.92358
-339.92616
-339.9323
-339.98982
-341.12827
-340.46791
-340.15929
-341.04016
-339.76799
-339.91733
-339.92957
-339.9323
-339.93857
-339.99637
-341.13582
-340.47804
-340.2253
-341.15007
-339.83409
-339.9721
-339.98666
-339.98982
-339.99637
-340.05554
-341.20152
-340.5731
-340.73403
-342.26695
-341.01106
-341.10835
-341.12412
-341.12827
-341.13582
-341.20152
-342.39014
-342.11595
-340.04764
-341.12866
-340.41652
-340.45458
-340.46387
-340.46791
-340.47804
-340.5731
-342.11595
-339.50963
-334.35226
-336.92388
-334.97692
-335.16221
-335.1763
-335.17911
-335.18888
-335.25474
-335.76519
-335.09212
-336.92388
-337.0448
-335.86047
-336.01316
-336.02417
-336.02657
-336.03769
-336.14666
-337.26359
-336.1487
-334.97692
-335.86047
-334.62738
-334.77301
-334.78334
-334.7848
-334.78748
-334.85264
-336.02887
-335.45069
-335.16221
-336.01316
-334.77301
-334.91764
-334.92807
-334.93044
-334.93488
-334.98878
-336.12468
-335.48806
-335.1763
-336.02417
-334.78334
-334.92807
-334.93856
-334.94118
-334.94709
-335.00329
-336.14038
-335.49729
-335.17911
-336.02657
-334.7848
-334.93044
-334.94118
-334.94379
-334.94985
-335.00647
-336.14453
-335.50133
-335.18888
-336.03769
-334.78748
-334.93488
-334.94709
-334.94985
-334.95604
-335.01294
-336.15199
-335.51135
-335.25474
-336.14666
-334.85264
-334.98878
-335.00329
-335.00647
-335.01294
-335.0712
-336.21675
-335.60549
-335.76519
-337.26359
-336.02887
-336.12468
-336.14038
-336.14453
-336.15199
-336.21675
-337.40499
-337.15217
-335.09212
-336.1487
-335.45069
-335.48806
-335.49729
-335.50133
-335.51135
-335.60549
-337.15217
-334.5585
-329.91905
-332.40562
-330.50533
-330.68678
-330.70075
-330.70356
-330.71323
-330.77854
-331.28747
-330.63169
-332.40562
-332.50836
-331.35171
-331.5014
-331.51233
-331.51473
-331.52562
-331.63298
-332.74294
-331.65789
-330.50533
-331.35171
-330.14772
-330.29049
-330.30075
-330.30224
-330.30482
-330.36865
-331.53676
-330.97816
-330.68678
-331.5014
-330.29049
-330.43227
-330.44263
-330.44502
-330.44936
-330.50207
-331.63051
-331.01462
-330.70075
-331.51233
-330.30075
-330.44263
-330.45305
-330.45568
-330.46148
-330.51645
-331.64602
-331.02372
-330.70356
-331.51473
-330.30224
-330.44502
-330.45568
-330.45829
-330.46424
-330.51962
-331.65016
-331.02773
-330.71323
-331.52562
-330.30482
-330.44936
-330.46148
-330.46424
-330.47031
-330.52596
-331.65749
-331.03759
-330.77854
-331.63298
-330.36865
-330.50207
-330.51645
-330.51962
-330.52596
-330.58296
-331.72091
-331.13023
-331.28747
-332.74294
-331.53676
-331.63051
-331.64602
-331.65016
-331.65749
-331.72091
-332.90133
-332.67099
-330.63169
-331.65789
-330.97816
-331.01462
-331.02372
-331.02773
-331.03759
-331.13023
-332.67099
-330.10587
-325.96083
-328.34888
-326.50642
-326.68293
-326.69668
-326.69948
-326.70899
-326.77334
-327.27757
-326.64279
-328.34888
-328.4338
-327.31155
-327.45733
-327.46811
-327.47049
-327.48108
-327.58617
-328.6823
-327.63303
-326.50642
-327.31155
-326.14368
-326.28272
-326.29285
-326.29435
-326.29682
-326.35893
-327.51174
-326.97553
-326.68293
-327.45733
-326.28272
-326.42079
-326.43102
-326.4334
-326.43762
-326.48883
-327.60285
-327.01085
-326.69668
-327.46811
-326.29285
-326.43102
-326.44129
-326.44391
-326.44957
-326.50297
-327.61808
-327.01977
-326.69948
-327.47049
-326.29435
-326.4334
-326.44391
-326.44651
-326.45232
-326.50612
-327.62217
-327.02373
-326.70899
-327.48108
-326.29682
-326.43762
-326.44957
-326.45232
-326.45823
-326.51231
-327.62932
-327.03335
-326.77334
-327.58617
-326.35893
-326.48883
-326.50297
-326.50612
-326.51231
-326.56769
-327.69103
-327.12393
-327.27757
-328.6823
-327.51174
-327.60285
-327.61808
-327.62217
-327.62932
-327.69103
-328.85634
-328.64921
-326.64279
-327.63303
-326.97553
-327.01085
-327.01977
-327.02373
-327.03335
-327.12393
-328.64921
-326.12786
-322.45262
-324.72974
-322.95574
-323.12621
-323.13967
-323.14244
-323.15173
-323.21472
-323.71116
-323.10077
-324.72974
-324.79751
-323.71604
-323.85701
-323.86758
-323.86993
-323.88016
-323.98235
-325.05797
-324.04987
-322.95574
-323.71604
-322.59094
-322.7254
-322.73534
-322.73685
-322.73919
-322.79923
-323.92974
-323.41834
-323.12621
-323.85701
-322.7254
-322.85892
-322.86895
-322.87132
-322.8754
-322.9248
-324.01765
-323.45231
-323.13967
-323.86758
-322.73534
-322.86895
-322.87903
-322.88162
-322.8871
-322.93863
-324.0325
-323.46099
-323.14244
-323.86993
-322.73685
-322.87132
-322.88162
-322.88419
-322.88982
-322.94173
-324.03653
-323.46487
-323.15173
-323.88016
-322.73919
-322.8754
-322.8871
-322.88982
-322.89555
-322.94772
-324.04345
-323.4742
-323.21472
-323.98235
-322.79923
-322.9248
-322.93863
-322.94173
-322.94772
-323.00118
-324.10309
-323.56217
-323.71116
-325.05797
-323.92974
-324.01765
-324.0325
-324.03653
-324.04345
-324.10309
-325.24621
-325.06264
-323.10077
-324.04987
-323.41834
-323.45231
-323.46099
-323.46487
-323.4742
-323.56217
-325.06264
-322.59952
-319.3685
-321.52338
-319.82785
-319.99126
-320.00434
-320.00707
-320.01609
-320.07733
-320.56296
-319.98004
-321.52338
-321.57498
-320.54026
-320.6756
-320.68589
-320.68819
-320.69799
-320.79668
-321.84533
-320.88325
-319.82785
-320.54026
-319.46421
-319.59328
-319.60297
-319.60448
-319.60667
-319.66429
-320.76577
-320.28121
-319.99126
-320.6756
-319.59328
-319.72145
-319.73122
-319.73356
-319.73747
-319.78478
-320.84993
-320.31361
-320.00434
-320.68589
-319.60297
-319.73122
-319.74104
-319.74359
-319.74886
-319.79821
-320.86433
-320.322
-320.00707
-320.68819
-319.60448
-319.73356
-319.74359
-319.74612
-319.75152
-319.80125
-320.86826
-320.32578
-320.01609
-320.69799
-319.60667
-319.73747
-319.74886
-319.75152
-319.75703
-319.80701
-320.87492
-320.33476
-320.07733
-320.79668
-319.66429
-319.78478
-319.79821
-319.80125
-319.80701
-319.85824
-320.93214
-320.41961
-320.56296
-321.84533
-320.76577
-320.84993
-320.86433
-320.86826
-320.87492
-320.93214
-322.04624
-321.88621
-319.98004
-320.88325
-320.28121
-320.31361
-320.322
-320.32578
-320.33476
-320.41961
-321.88621
-319.49499
-316.68176
-318.70425
-317.09654
-317.25191
-317.26453
-317.2672
-317.27588
-317.33502
-317.80694
-317.25425
-318.70425
-318.74089
-317.75852
-317.8874
-317.89736
-317.89959
-317.90891
-318.00352
-319.019
-318.10724
-317.09654
-317.75852
-316.73734
-316.86026
-316.86964
-316.87113
-316.87317
-316.92805
-317.99402
-317.53795
-317.25191
-317.8874
-316.86026
-316.98231
-316.99177
-316.99406
-316.99777
-317.04274
-318.07394
-317.56858
-317.26453
-317.89736
-316.86964
-316.99177
-317.00126
-317.00375
-317.00878
-317.05569
-318.08779
-317.57663
-317.2672
-317.89959
-316.87113
-316.99406
-317.00375
-317.00622
-317.01137
-317.05865
-318.0916
-317.58028
-317.27588
-317.90891
-316.87317
-316.99777
-317.00878
-317.01137
-317.01663
-317.06414
-318.09796
-317.58886
-317.33502
-318.00352
-316.92805
-317.04274
-317.05569
-317.05865
-317.06414
-317.11284
-318.15243
-317.6701
-317.80694
-319.019
-317.99402
-318.07394
-318.08779
-318.0916
-318.09796
-318.15243
-319.23097
-319.09412
-317.25425
-318.10724
-317.53795
-317.56858
-317.57663
-317.58028
-317.58886
-317.6701
-319.09412
-316.78759
-314.36503
-316.24614
-314.7349
-314.8813
-314.8934
-314.89598
-314.90428
-314.96097
-315.4164
-314.89638
-316.24614
-316.26929
-315.34441
-315.46608
-315.47564
-315.47779
-315.48658
-315.57657
-316.55298
-315.69525
-314.7349
-315.34441
-314.38349
-314.49953
-314.50855
-314.51001
-314.51189
-314.56373
-315.58805
-315.16172
-314.8813
-315.46608
-314.49953
-314.61474
-314.62383
-314.62606
-314.62956
-314.67194
-315.66324
-315.1904
-314.8934
-315.47564
-314.50855
-314.62383
-314.63295
-314.63536
-314.64012
-314.68433
-315.67645
-315.19805
-314.89598
-315.47779
-314.51001
-314.62606
-314.63536
-314.63775
-314.64263
-314.68719
-315.68012
-315.20156
-314.90428
-315.48658
-314.51189
-314.62956
-314.64012
-314.64263
-314.6476
-314.69238
-315.68614
-315.20969
-314.96097
-315.57657
-314.56373
-314.67194
-314.68433
-314.68719
-314.69238