/*--------------------------------*- C++ -*----------------------------------*\
| =========                 |                                                 |
| \\      /  F ield         | OpenFOAM: The Open Source CFD Toolbox           |
|  \\    /   O peration     | Version:  v2106                                 |
|   \\  /    A nd           | Website:  www.openfoam.com                      |
|    \\/     M anipulation  |                                                 |
\*---------------------------------------------------------------------------*/
FoamFile
{
    version     2.0;
    format      ascii;
    arch        "LSB;label=32;scalar=64";
    class       volScalarField;
    location    "50";
    object      Tmode_lapla1;
}
// * * * * * * * * * * * * * * * * * * * * * * * * * * * * * * * * * * * * * //

dimensions      [0 -2 0 0 0 0 0];

internalField   nonuniform List<scalar> 
4000
(
0.022548914
0.022538032
0.022616006
0.02256306
0.022542994
0.022556048
0.02256314
0.022564072
0.022564722
0.022566121
0.022538032
0.022636504
0.022608932
0.022552684
0.02255607
0.022574053
0.022579896
0.022580599
0.022582373
0.022578938
0.022616006
0.022608932
0.022600188
0.022563627
0.022568541
0.022583605
0.022588321
0.022589805
0.022593856
0.022584551
0.02256306
0.022552684
0.022563627
0.022531165
0.022534186
0.022548026
0.022551641
0.022553817
0.022562184
0.02256371
0.022542994
0.02255607
0.022568541
0.022534186
0.022536226
0.022548707
0.022551046
0.022551889
0.022559997
0.022562764
0.022556048
0.022574053
0.022583605
0.022548026
0.022548707
0.022560546
0.022561894
0.022561022
0.022566747
0.022566574
0.02256314
0.022579896
0.022588321
0.022551641
0.022551046
0.022561894
0.022563103
0.022561956
0.022567118
0.022566178
0.022564072
0.022580599
0.022589805
0.022553817
0.022551889
0.022561022
0.022561956
0.022561245
0.022567038
0.022567142
0.022564722
0.022582373
0.022593856
0.022562184
0.022559997
0.022566747
0.022567118
0.022567038
0.022574094
0.022575738
0.022566121
0.022578938
0.022584551
0.02256371
0.022562764
0.022566574
0.022566178
0.022567142
0.022575738
0.022576329
0.067929495
0.067930742
0.068028879
0.067925564
0.067897752
0.067927243
0.067941434
0.06794376
0.067947725
0.067952902
0.067930742
0.068046353
0.067986112
0.067892459
0.067906311
0.067942216
0.067953696
0.067957463
0.06796078
0.067952176
0.068028879
0.067986112
0.06797107
0.067908227
0.067922075
0.067951917
0.067961404
0.067968863
0.067977356
0.067957304
0.067925564
0.067892459
0.067908227
0.067850579
0.067860622
0.067887322
0.067894464
0.067904562
0.067923994
0.067927792
0.067897752
0.067906311
0.067922075
0.067860622
0.067868115
0.067891692
0.067895394
0.067902377
0.067921062
0.067926908
0.067927243
0.067942216
0.067951917
0.067887322
0.067891692
0.067913429
0.067914641
0.067917573
0.067931087
0.067930727
0.067941434
0.067953696
0.067961404
0.067894464
0.067895394
0.067914641
0.067915356
0.067917709
0.067930268
0.067929382
0.06794376
0.067957463
0.067968863
0.067904562
0.067902377
0.067917573
0.067917709
0.067921343
0.067936138
0.067938966
0.067947725
0.06796078
0.067977356
0.067923994
0.067921062
0.067931087
0.067930268
0.067936138
0.067955177
0.067959285
0.067952902
0.067952176
0.067957304
0.067927792
0.067926908
0.067930727
0.067929382
0.067938966
0.067959285
0.067949065
0.11404289
0.1140336
0.11411785
0.113989
0.11396544
0.11400812
0.1140269
0.11403153
0.11403757
0.11405273
0.1140336
0.11415321
0.11406448
0.11395185
0.11397843
0.11402714
0.11404326
0.11405502
0.11405472
0.1140376
0.11411785
0.11406448
0.11403337
0.11395735
0.11398236
0.11402214
0.11403585
0.11405628
0.11406792
0.11404076
0.113989
0.11395185
0.11395735
0.11388686
0.11390619
0.11394055
0.11395015
0.11397472
0.11400219
0.11400755
0.11396544
0.11397843
0.11398236
0.11390619
0.11392155
0.11395091
0.11395445
0.11397353
0.11399876
0.11400553
0.11400812
0.11402714
0.11402214
0.11394055
0.11395091
0.11397737
0.11397703
0.11399002
0.11400779
0.1140066
0.1140269
0.11404326
0.11403585
0.11395015
0.11395445
0.11397703
0.11397597
0.11398844
0.11400566
0.11400662
0.11403153
0.11405502
0.11405628
0.11397472
0.11397353
0.11399002
0.11398844
0.11400376
0.11402618
0.11403374
0.11403757
0.11405472
0.11406792
0.11400219
0.11399876
0.11400779
0.11400566
0.11402618
0.11405706
0.11405514
0.11405273
0.1140376
0.11404076
0.11400755
0.11400553
0.1140066
0.11400662
0.11403374
0.11405514
0.11403695
0.16133376
0.16130936
0.1614029
0.16125562
0.16123044
0.16128285
0.16130582
0.16131504
0.16132219
0.16133884
0.16130936
0.16143799
0.16133699
0.1612066
0.16123991
0.16129808
0.16131923
0.16134376
0.16134331
0.16131896
0.1614029
0.16133699
0.16130062
0.16121318
0.16124376
0.16129015
0.1613084
0.16134577
0.16136003
0.16132184
0.16125562
0.1612066
0.16121318
0.16113197
0.16115529
0.16119391
0.16120633
0.16124936
0.16128333
0.16128374
0.16123044
0.16123991
0.16124376
0.16115529
0.16117334
0.16120516
0.16120911
0.16124485
0.16127581
0.16127826
0.16128285
0.16129808
0.16129015
0.16119391
0.16120516
0.16123297
0.16123166
0.16125946
0.16128116
0.16127556
0.16130582
0.16131923
0.1613084
0.16120633
0.16120911
0.16123166
0.16122933
0.16125687
0.1612791
0.16127993
0.16131504
0.16134376
0.16134577
0.16124936
0.16124485
0.16125946
0.16125687
0.16128948
0.16132106
0.16132976
0.16132219
0.16134331
0.16136003
0.16128333
0.16127581
0.16128116
0.1612791
0.16132106
0.16136535
0.16133972
0.16133884
0.16131896
0.16132184
0.16128374
0.16127826
0.16127556
0.16127993
0.16132976
0.16133972
0.16131951
0.21028696
0.21025827
0.21036324
0.21019939
0.21016862
0.21022911
0.21025619
0.21027206
0.21028468
0.21030334
0.21025827
0.21040153
0.21029166
0.21014209
0.21017822
0.21024394
0.21027004
0.21030935
0.21031166
0.21028114
0.21036324
0.21029166
0.21025092
0.21015131
0.21018382
0.21023484
0.21025743
0.21031332
0.21033155
0.2102828
0.21019939
0.21014209
0.21015131
0.21005893
0.21008271
0.21012363
0.21013887
0.21020232
0.21024411
0.21023938
0.21016862
0.21017822
0.21018382
0.21008271
0.21009993
0.21013223
0.21013671
0.21019141
0.21023004
0.21022886
0.21022911
0.21024394
0.21023484
0.21012363
0.21013223
0.21015925
0.21015699
0.21020196
0.21022977
0.21022155
0.21025619
0.21027004
0.21025743
0.21013887
0.21013671
0.21015699
0.2101534
0.21019853
0.21022858
0.21023246
0.21027206
0.21030935
0.21031332
0.21020232
0.21019141
0.21020196
0.21019853
0.21025168
0.21029636
0.21030793
0.21028468
0.21031166
0.21033155
0.21024411
0.21023004
0.21022977
0.21022858
0.21029636
0.21035791
0.21030371
0.21030334
0.21028114
0.2102828
0.21023938
0.21022886
0.21022155
0.21023246
0.21030793
0.21030371
0.21028102
0.26141452
0.26138783
0.26150124
0.26132268
0.26128333
0.26135068
0.26138149
0.26140437
0.2614233
0.26144297
0.26138783
0.2615463
0.26142838
0.2612586
0.26129476
0.26136668
0.26139691
0.26145072
0.26145643
0.26141981
0.26150124
0.26142838
0.26138162
0.26126946
0.2613014
0.26135578
0.26138208
0.26145601
0.261478
0.26141892
0.26132268
0.2612586
0.26126946
0.26116576
0.26118758
0.26122958
0.26124729
0.26133106
0.26138046
0.26137021
0.26128333
0.26129476
0.2613014
0.26118758
0.26120149
0.26123295
0.2612376
0.26131142
0.26135795
0.26135349
0.26135068
0.26136668
0.26135578
0.26122958
0.26123295
0.26125773
0.26125404
0.26131629
0.26135053
0.26134083
0.26138149
0.26139691
0.26138208
0.26124729
0.2612376
0.26125404
0.26124865
0.26131159
0.26135029
0.26135945
0.26140437
0.26145072
0.26145601
0.26133106
0.26131142
0.26131629
0.26131159
0.26138609
0.26144557
0.26146112
0.2614233
0.26145643
0.261478
0.26138046
0.26135795
0.26135053
0.26135029
0.26144557
0.26152548
0.26144231
0.26144297
0.26141981
0.26141892
0.26137021
0.26135349
0.26134083
0.26135945
0.26146112
0.26144231
0.26141706
0.31523052
0.31520731
0.31532594
0.31513561
0.31508511
0.31515855
0.31519261
0.31522204
0.31524703
0.31526608
0.31520731
0.31537859
0.3152539
0.31506388
0.31509792
0.31517547
0.31520937
0.31527663
0.31528589
0.31524348
0.31532594
0.3152539
0.31519965
0.31507548
0.31510495
0.31516225
0.31519203
0.31528272
0.31530763
0.31523875
0.31513561
0.31506388
0.31507548
0.31496116
0.31497916
0.31502178
0.31504197
0.31514514
0.31520116
0.31518512
0.31508511
0.31509792
0.31510495
0.31497916
0.3149878
0.31501785
0.31502267
0.31511488
0.31516875
0.31516133
0.31515855
0.31517547
0.31516225
0.31502178
0.31501785
0.31503968
0.31503442
0.31511311
0.31515321
0.31514284
0.31519261
0.31520937
0.31519203
0.31504197
0.31502267
0.31503442
0.31502696
0.31510685
0.31515388
0.31516984
0.31522204
0.31527663
0.31528272
0.31514514
0.31511488
0.31511311
0.31510685
0.31520221
0.31527678
0.3152971
0.31524703
0.31528589
0.31530763
0.31520116
0.31516875
0.31515321
0.31515388
0.31527678
0.31537488
0.31526402
0.31526608
0.31524348
0.31523875
0.31518512
0.31516133
0.31514284
0.31516984
0.3152971
0.31526402
0.31523668
0.37225732
0.37223822
0.37235934
0.37216095
0.37209703
0.37217613
0.37221347
0.37224918
0.37228013
0.37229699
0.37223822
0.37241944
0.3722901
0.37208038
0.37211038
0.37219352
0.37223131
0.37231115
0.37232432
0.37227684
0.37235934
0.3722901
0.37222745
0.37209229
0.3721176
0.37217786
0.37221158
0.37231778
0.37234475
0.37226698
0.37216095
0.37208038
0.37209229
0.37196858
0.37198109
0.37202434
0.37204769
0.37216938
0.37223089
0.37220898
0.37209703
0.37211038
0.3721176
0.37198109
0.3719827
0.37201125
0.37201689
0.37212682
0.37218735
0.37217747
0.37217613
0.37219352
0.37217786
0.37202434
0.37201125
0.37202989
0.37202357
0.37211794
0.37216321
0.37215295
0.37221347
0.37223131
0.37221158
0.37204769
0.37201689
0.37202357
0.37201445
0.37211045
0.37216521
0.37218901
0.37224918
0.37231115
0.37231778
0.37216938
0.37212682
0.37211794
0.37211045
0.37222595
0.37231522
0.37234055
0.37228013
0.37232432
0.37234475
0.37223089
0.37218735
0.37216321
0.37216521
0.37231522
0.37243056
0.37229373
0.37229699
0.37227684
0.37226698
0.37220898
0.37217747
0.37215295
0.37218901
0.37234055
0.37229373
0.37226488
0.43303696
0.4330228
0.4331438
0.43294155
0.43286199
0.43294645
0.43298739
0.43302934
0.43306633
0.43307934
0.4330228
0.43321116
0.4330797
0.43285116
0.43287515
0.432964
0.43300625
0.43309788
0.43311552
0.43306384
0.4331438
0.4330797
0.43300799
0.43286313
0.43288257
0.43294598
0.43298446
0.43310493
0.4331331
0.43304751
0.43294155
0.43285116
0.43286313
0.43273151
0.43273683
0.43278089
0.43280848
0.43294781
0.43301364
0.43298577
0.43286199
0.43287515
0.43288257
0.43273683
0.43272963
0.43275673
0.43276426
0.43289129
0.43295778
0.43294595
0.43294645
0.432964
0.43294598
0.43278089
0.43275673
0.43277208
0.43276564
0.43287501
0.43292477
0.4329154
0.43298739
0.43300625
0.43298446
0.43280848
0.43276426
0.43276564
0.43275573
0.43286709
0.43292893
0.43296139
0.43302934
0.43309788
0.43310493
0.43294781
0.43289129
0.43287501
0.43286709
0.43300206
0.43310538
0.43313538
0.43306633
0.43311552
0.4331331
0.43301364
0.43295778
0.43292477
0.43292893
0.43310538
0.43323642
0.43307545
0.43307934
0.43306384
0.43304751
0.43298577
0.43294595
0.4329154
0.43296139
0.43313538
0.43307545
0.43304557
0.49813517
0.49812702
0.49824524
0.49804362
0.49794618
0.49803563
0.49808059
0.49812881
0.49817197
0.49817934
0.49812702
0.49831969
0.49818882
0.49794254
0.49795842
0.49805306
0.49810053
0.49820311
0.49822585
0.4981709
0.49824524
0.49818882
0.49810748
0.49795435
0.49796607
0.49803282
0.49807708
0.49821049
0.49823893
0.49814667
0.49804362
0.49794254
0.49795435
0.49781642
0.49781274
0.4978578
0.49789093
0.49804696
0.4981158
0.49808187
0.49794618
0.49795842
0.49796607
0.49781274
0.49779481
0.49782051
0.49783126
0.49797473
0.49804641
0.49803315
0.49803563
0.49805306
0.49803282
0.4978578
0.49782051
0.49783249
0.49782711
0.49795079
0.49800434
0.4979967
0.49808059
0.49810053
0.49807708
0.49789093
0.49783126
0.49782711
0.49781752
0.49794355
0.49801179
0.49805364
0.49812881
0.49820311
0.49821049
0.49804696
0.49797473
0.49795079
0.49794355
0.49809729
0.4982139
0.49824784
0.49817197
0.49822585
0.49823893
0.4981158
0.49804641
0.49800434
0.49801179
0.4982139
0.49835871
0.4981756
0.49817934
0.4981709
0.49814667
0.49808187
0.49803315
0.4979967
0.49805364
0.49824784
0.4981756
0.49814505
0.56814426
0.56814325
0.56825597
0.56805964
0.56794208
0.56803602
0.56808549
0.56814004
0.56818949
0.56818928
0.56814325
0.56833734
0.56820986
0.56794713
0.56795263
0.56805305
0.5681066
0.56821921
0.56824772
0.56819044
0.56825597
0.56820986
0.56811841
0.56795848
0.56796052
0.56803074
0.56808195
0.56822681
0.56825456
0.56815688
0.56805964
0.56794713
0.56795848
0.56781594
0.56780132
0.56784749
0.56788766
0.5680593
0.56812975
0.56808968
0.56794208
0.56795263
0.56796052
0.56780132
0.56777063
0.56779493
0.56781039
0.56796957
0.56804559
0.56803147
0.56803602
0.56805305
0.56803074
0.56784749
0.56779493
0.56780336
0.56780044
0.56793765
0.56799427
0.56798928
0.56808549
0.5681066
0.56808195
0.56788766
0.56781039
0.56780044
0.56779248
0.56793239
0.56800638
0.5680584
0.56814004
0.56821921
0.56822681
0.5680593
0.56796957
0.56793765
0.56793239
0.56810419
0.56823327
0.56827017
0.56818949
0.56824772
0.56825456
0.56812975
0.56804559
0.56799427
0.56800638
0.56823327
0.56838961
0.56818658
0.56818928
0.56819044
0.56815688
0.56808968
0.56803147
0.56798928
0.5680584
0.56827017
0.56818658
0.56815565
0.64368663
0.64369395
0.64379838
0.64361205
0.64347225
0.64357003
0.64362448
0.64368542
0.6437413
0.64373148
0.64369395
0.64388651
0.6437652
0.64348752
0.64348024
0.64358631
0.64364686
0.6437685
0.64380348
0.64374486
0.64379838
0.6437652
0.64366324
0.64349806
0.64348834
0.64356206
0.64362148
0.64377619
0.64380225
0.6437005
0.64361205
0.64348752
0.64349806
0.64335262
0.64332506
0.64337238
0.64342119
0.64360723
0.64367779
0.64363155
0.64347225
0.64348024
0.64348834
0.64332506
0.64327949
0.6433023
0.64332414
0.64349816
0.64357759
0.64356325
0.64357003
0.64358631
0.64356206
0.64337238
0.6433023
0.64330693
0.643308
0.6434579
0.64351683
0.64351555
0.64362448
0.64364686
0.64362148
0.64342119
0.64332414
0.643308
0.64330313
0.64345609
0.64353515
0.6435982
0.64368542
0.6437685
0.64377619
0.64360723
0.64349816
0.6434579
0.64345609
0.64364517
0.64378585
0.64382453
0.6437413
0.64380348
0.64380225
0.64367779
0.64357759
0.64351683
0.64353515
0.64378585
0.64395118
0.64373077
0.64373148
0.64374486
0.6437005
0.64363155
0.64356325
0.64351555
0.6435982
0.64382453
0.64373077
0.64369971
0.72541895
0.72543575
0.72552912
0.72535749
0.72519353
0.72529426
0.72535418
0.72542157
0.72548401
0.72546251
0.72543575
0.72562382
0.7255114
0.72522051
0.72519799
0.72530939
0.72537792
0.72550752
0.7255497
0.72549074
0.72552912
0.7255114
0.72539867
0.7252298
0.7252062
0.72528332
0.7253523
0.72551515
0.72553854
0.72543417
0.72535749
0.72522051
0.7252298
0.72508319
0.72504064
0.72508905
0.72514821
0.72534731
0.72541642
0.72536404
0.72519353
0.72519799
0.7252062
0.72504064
0.72497805
0.72499919
0.72502919
0.7252171
0.72529896
0.72528506
0.72529426
0.72530939
0.72528332
0.72508905
0.72499919
0.72499965
0.7250064
0.72516806
0.72522855
0.72523213
0.72535418
0.72537792
0.7253523
0.72514821
0.72502919
0.7250064
0.7250062
0.72517131
0.72525479
0.72532978
0.72542157
0.72550752
0.72551515
0.72534731
0.7252171
0.72516806
0.72517131
0.72537682
0.72552821
0.72556732
0.72548401
0.7255497
0.72553854
0.72541642
0.72529896
0.72522855
0.72525479
0.72552821
0.72569972
0.72546476
0.72546251
0.72549074
0.72543417
0.72536404
0.72528506
0.72523213
0.72532978
0.72556732
0.72546476
0.72543381
0.81403669
0.81406412
0.81414373
0.81399131
0.81380156
0.81390415
0.81396999
0.81404392
0.81411303
0.8140778
0.81406412
0.81424477
0.8141438
0.81384171
0.81380145
0.81391768
0.81399522
0.81413165
0.8141817
0.8141234
0.81414373
0.8141438
0.81402022
0.81384921
0.8138096
0.81388987
0.81396984
0.81413903
0.81415878
0.81405332
0.81399131
0.81384171
0.81384921
0.81370314
0.81364356
0.81369286
0.81376418
0.81397486
0.81404094
0.81398253
0.81380156
0.81380145
0.8138096
0.81364356
0.81356185
0.81358102
0.81362107
0.81382181
0.81390506
0.81389233
0.81390415
0.81391768
0.81388987
0.81369286
0.81358102
0.81357682
0.81359104
0.81376349
0.81382477
0.81383449
0.81396999
0.81399522
0.81396984
0.81376418
0.81362107
0.81359104
0.81359723
0.81377354
0.81386077
0.81394871
0.81404392
0.81413165
0.81413903
0.81397486
0.81382181
0.81376349
0.81377354
0.81399455
0.8141557
0.81419377
0.81411303
0.8141817
0.81415878
0.81404094
0.81390506
0.81382477
0.81386077
0.8141557
0.81433034
0.81408398
0.8140778
0.8141234
0.81405332
0.81398253
0.81389233
0.81383449
0.81394871
0.81419377
0.81408398
0.81405338
0.91027905
0.91031816
0.91038149
0.91025247
0.91003577
0.91013887
0.91021103
0.91029158
0.91036745
0.91031655
0.91031816
0.91048859
0.91040141
0.91009044
0.91002996
0.91015026
0.91023787
0.91037996
0.91043855
0.91038187
0.91038149
0.91040141
0.91026715
0.91009549
0.91003781
0.91012079
0.91021319
0.91038688
0.91040209
0.91029713
0.91025247
0.91009044
0.91009549
0.9099516
0.90987305
0.90992288
0.91000819
0.91022885
0.91029032
0.91022611
0.91003577
0.91002996
0.91003781
0.90987305
0.90977021
0.90978696
0.90983906
0.91005144
0.91013499
0.91012422
0.91013887
0.91015026
0.91012079
0.90992288
0.90978696
0.90977749
0.9098011
0.90998328
0.91004462
0.91006185
0.91021103
0.91023787
0.91021319
0.91000819
0.90983906
0.9098011
0.90981548
0.91000196
0.91009233
0.91019425
0.91029158
0.91037996
0.91038688
0.91022885
0.91005144
0.90998328
0.91000196
0.91023747
0.91040741
0.91044285
0.91036745
0.91043855
0.91040209
0.91029032
0.91013499
0.91004462
0.91009233
0.91040741
0.91058192
0.91032759
0.91031655
0.91038187
0.91029713
0.91022611
0.91012422
0.91006185
0.91019425
0.91044285
0.91032759
0.91029755
1.0149342
1.0149859
1.0150306
1.0149288
1.0146845
1.0147865
1.0148653
1.0149526
1.0150353
1.0149669
1.0149859
1.0151435
1.0150721
1.0147549
1.0146718
1.0147952
1.0148939
1.0150405
1.0151082
1.015054
1.0150306
1.0150721
1.0149276
1.0147567
1.014679
1.014764
1.0148703
1.0150466
1.0150565
1.0149537
1.0149288
1.0147549
1.0147567
1.0146165
1.0145172
1.0145671
1.0146682
1.0148971
1.0149524
1.0148828
1.0146845
1.0146718
1.014679
1.0145172
1.0143914
1.0144052
1.0144713
1.0146941
1.0147768
1.0147688
1.0147865
1.0147952
1.014764
1.0145671
1.0144052
1.0143897
1.0144247
1.0146155
1.0146762
1.0147024
1.0148653
1.0148939
1.0148703
1.0146682
1.0144713
1.0144247
1.0144491
1.0146447
1.0147376
1.0148545
1.0149526
1.0150405
1.0150466
1.0148971
1.0146941
1.0146155
1.0146447
1.0148936
1.0150713
1.0151024
1.0150353
1.0151082
1.0150565
1.0149524
1.0147768
1.0146762
1.0147376
1.0150713
1.0152423
1.0149837
1.0149669
1.015054
1.0149537
1.0148828
1.0147688
1.0147024
1.0148545
1.0151024
1.0149837
1.0149544
1.1288443
1.1289095
1.1289337
1.1288621
1.1285904
1.1286892
1.128775
1.1288691
1.1289586
1.1288713
1.1289095
1.1290518
1.1289979
1.1286775
1.1285696
1.1286946
1.1288054
1.1289554
1.1290326
1.1289818
1.1289337
1.1289979
1.1288439
1.1286751
1.1285757
1.1286618
1.1287834
1.1289605
1.1289645
1.1288654
1.1288621
1.1286775
1.1286751
1.12854
1.1284184
1.1284675
1.1285862
1.1288216
1.1288693
1.1287946
1.1285904
1.1285696
1.1285757
1.1284184
1.1282681
1.1282781
1.1283603
1.128592
1.1286729
1.1286684
1.1286892
1.1286946
1.1286618
1.1284675
1.1282781
1.1282557
1.128304
1.1285023
1.1285618
1.1285984
1.128775
1.1288054
1.1287834
1.1285862
1.1283603
1.128304
1.1283404
1.128544
1.128639
1.1287719
1.1288691
1.1289554
1.1289605
1.1288216
1.128592
1.1285023
1.128544
1.1288052
1.1289897
1.1290146
1.1289586
1.1290326
1.1289645
1.1288693
1.1286729
1.1285618
1.128639
1.1289897
1.1291534
1.1288945
1.1288713
1.1289818
1.1288654
1.1287946
1.1286684
1.1285984
1.1287719
1.1290146
1.1288945
1.1288661
1.252911
1.2529902
1.2529923
1.2529532
1.2526553
1.2527485
1.2528415
1.2529424
1.2530386
1.2529312
1.2529902
1.2531153
1.2530799
1.2527596
1.252625
1.2527499
1.2528738
1.253026
1.2531131
1.2530662
1.2529923
1.2530799
1.2529175
1.252752
1.2526293
1.2527155
1.2528536
1.2530297
1.2530273
1.2529335
1.2529532
1.2527596
1.252752
1.2526231
1.252478
1.2525254
1.2526634
1.2529032
1.252942
1.2528629
1.2526553
1.252625
1.2526293
1.252478
1.252302
1.2523073
1.2524076
1.2526467
1.2527245
1.2527243
1.2527485
1.2527499
1.2527155
1.2525254
1.2523073
1.2522769
1.2523405
1.2525452
1.2526029
1.2526515
1.2528415
1.2528738
1.2528536
1.2526634
1.2524076
1.2523405
1.2523908
1.2526012
1.252698
1.2528477
1.2529424
1.253026
1.2530297
1.2529032
1.2526467
1.2525452
1.2526012
1.2528734
1.2530637
1.2530807
1.2530386
1.2531131
1.2530273
1.252942
1.2527245
1.2526029
1.252698
1.2530637
1.2532167
1.2529614
1.2529312
1.2530662
1.2529335
1.2528629
1.2527243
1.2526515
1.2528477
1.2530807
1.2529614
1.252934
1.3880987
1.3881921
1.3881712
1.3881659
1.3878437
1.3879288
1.3880288
1.3881368
1.3882394
1.3881114
1.3881921
1.3882983
1.3882821
1.3879656
1.3878027
1.3879254
1.3880633
1.3882167
1.3883136
1.3882711
1.3881712
1.3882821
1.3881129
1.3879516
1.3878047
1.3878892
1.3880451
1.3882185
1.3882096
1.3881226
1.3881659
1.3879656
1.3879516
1.3878298
1.3876604
1.3877048
1.3878636
1.3881058
1.3881345
1.3880519
1.3878437
1.3878027
1.3878047
1.3876604
1.387458
1.3874574
1.3875776
1.3878225
1.3878963
1.3879011
1.3879288
1.3879254
1.3878892
1.3877048
1.3874574
1.3874178
1.3874987
1.3877085
1.3877641
1.3878261
1.3880288
1.3880633
1.3880451
1.3878636
1.3875776
1.3874987
1.3875646
1.3877808
1.387879
1.3880461
1.3881368
1.3882167
1.3882185
1.3881058
1.3878225
1.3877085
1.3877808
1.3880627
1.3882576
1.3882648
1.3882394
1.3883136
1.3882096
1.3881345
1.3878963
1.3877641
1.387879
1.3882576
1.3883961
1.3881488
1.3881114
1.3882711
1.3881226
1.3880519
1.3879011
1.3878261
1.3880461
1.3882648
1.3881488
1.3881225
1.5354358
1.5355437
1.5354993
1.5355279
1.5351848
1.5352585
1.5353655
1.5354805
1.5355894
1.5354407
1.5355437
1.5356298
1.5356325
1.535324
1.5351317
1.5352497
1.5354021
1.5355559
1.5356624
1.5356245
1.5354993
1.5356325
1.5354586
1.5353023
1.5351304
1.5352115
1.535386
1.5355553
1.5355399
1.5354611
1.5355279
1.535324
1.5353023
1.5351881
1.5349941
1.5350341
1.5352147
1.5354572
1.5354751
1.5353898
1.5351848
1.5351317
1.5351304
1.5349941
1.5347651
1.5347574
1.5348991
1.535148
1.5352167
1.5352273
1.5352585
1.5352497
1.5352115
1.5350341
1.5347574
1.5347071
1.5348071
1.5350209
1.5350741
1.5351509
1.5353655
1.5354021
1.535386
1.5352147
1.5348991
1.5348071
1.5348904
1.5351111
1.5352105
1.5353957
1.5354805
1.5355559
1.5355553
1.5354572
1.535148
1.5350209
1.5351111
1.5354012
1.5355997
1.5355953
1.5355894
1.5356624
1.5355399
1.5354751
1.5352167
1.5350741
1.5352105
1.5355997
1.5357202
1.5354851
1.5354407
1.5356245
1.5354611
1.5353898
1.5352273
1.5351509
1.5353957
1.5355953
1.5354851
1.5354599
1.6960114
1.6961332
1.6960656
1.6961271
1.6957675
1.6958263
1.69594
1.6960621
1.6961766
1.6960081
1.6961332
1.6961987
1.6962194
1.6959233
1.695701
1.6958112
1.6959788
1.6961321
1.6962478
1.6962143
1.6960656
1.6962194
1.6960433
1.6958923
1.6956954
1.6957708
1.6959647
1.6961285
1.6961072
1.6960376
1.6961271
1.6959233
1.6958923
1.695786
1.6955677
1.6956015
1.6958048
1.6960454
1.6960518
1.6959651
1.6957675
1.695701
1.6956954
1.6955677
1.6953126
1.6952962
1.6954608
1.6957119
1.6957746
1.6957915
1.6958263
1.6958112
1.6957708
1.6956015
1.6952962
1.6952338
1.6953544
1.6955709
1.6956219
1.6957148
1.69594
1.6959788
1.6959647
1.6958048
1.6954608
1.6953544
1.6954565
1.6956806
1.6957813
1.6959846
1.6960621
1.6961321
1.6961285
1.6960454
1.6957119
1.6955709
1.6956806
1.6959775
1.6961785
1.6961608
1.6961766
1.6962478
1.6961072
1.6960518
1.6957746
1.6956219
1.6957813
1.6961785
1.6962776
1.696059
1.6960081
1.6962143
1.6960376
1.6959651
1.6957915
1.6957148
1.6959846
1.6961608
1.696059
1.6960349
1.8709609
1.8710958
1.8710062
1.8710977
1.8707277
1.8707677
1.8708875
1.8710167
1.8711363
1.8709495
1.8710958
1.8711405
1.8711777
1.8708987
1.8706466
1.8707456
1.8709283
1.8710807
1.8712045
1.8711751
1.8710062
1.8711777
1.8710022
1.8708568
1.8706355
1.8707026
1.870916
1.8710734
1.871047
1.8709877
1.8710977
1.8708987
1.8708568
1.8707581
1.8705165
1.870542
1.8707683
1.8710048
1.8709996
1.8709128
1.8707277
1.8706466
1.8706355
1.8705165
1.8702366
1.8702097
1.8703982
1.8706495
1.8707054
1.8707291
1.8707677
1.8707456
1.8707026
1.870542
1.8702097
1.8701335
1.8702761
1.8704942
1.8705431
1.8706533
1.8708875
1.8709283
1.870916
1.8707683
1.8703982
1.8702761
1.8703982
1.8706246
1.8707268
1.8709481
1.8710167
1.8710807
1.8710734
1.8710048
1.8706495
1.8704942
1.8706246
1.8709265
1.871129
1.8710965
1.8711363
1.8712045
1.871047
1.8709996
1.8707054
1.8705431
1.8707268
1.871129
1.8712036
1.8710057
1.8709495
1.8711751
1.8709877
1.8709128
1.8707291
1.8706533
1.8709481
1.8710965
1.8710057
1.8709826
2.0614374
2.0615841
2.0614744
2.0615918
2.0612187
2.0612357
2.0613606
2.0614968
2.0616205
2.0614182
2.0615841
2.0616085
2.0616597
2.0614027
2.0611217
2.0612054
2.0614033
2.0615542
2.0616848
2.0616588
2.0614744
2.0616597
2.0614881
2.061348
2.0611036
2.0611596
2.061392
2.0615423
2.0615122
2.0614639
2.0615918
2.0614027
2.061348
2.0612562
2.0609932
2.0610081
2.061257
2.0614871
2.0614707
2.0613854
2.0612187
2.0611217
2.0611036
2.0609932
2.0606905
2.0606513
2.060864
2.0611135
2.0611621
2.061193
2.0612357
2.0612054
2.0611596
2.0610081
2.0606513
2.0605596
2.0607249
2.0609435
2.0609908
2.0611194
2.0613606
2.0614033
2.061392
2.061257
2.060864
2.0607249
2.0608678
2.0610954
2.0611996
2.0614382
2.0614968
2.0615542
2.0615423
2.0614871
2.0611135
2.0609435
2.0610954
2.0614006
2.0616035
2.0615552
2.0616205
2.0616848
2.0615122
2.0614707
2.0611621
2.0609908
2.0611996
2.0616035
2.0616509
2.0614778
2.0614182
2.0616588
2.0614639
2.0613854
2.061193
2.0611194
2.0614382
2.0615552
2.0614778
2.0614559
2.2685566
2.2687133
2.2685861
2.2687237
2.268356
2.2683457
2.2684746
2.2686177
2.2687444
2.2685304
2.2687133
2.2687182
2.2687802
2.2685501
2.268242
2.2683063
2.2685185
2.268668
2.2688034
2.26878
2.2685861
2.2687802
2.2686162
2.268481
2.2682156
2.268257
2.2685077
2.2686505
2.2686185
2.2685817
2.2687237
2.2685501
2.268481
2.2683949
2.2681129
2.2681146
2.2683852
2.2686065
2.2685797
2.268498
2.268356
2.268242
2.2682156
2.2681129
2.2677903
2.2677369
2.2679737
2.2682191
2.26826
2.2682987
2.2683457
2.2683063
2.268257
2.2681146
2.2677369
2.267628
2.2678164
2.2680343
2.2680808
2.2682288
2.2684746
2.2685185
2.2685077
2.2683852
2.2679737
2.2678164
2.2679805
2.2682081
2.2683149
2.26857
2.2686177
2.268668
2.2686505
2.2686065
2.2682191
2.2680343
2.2682081
2.2685147
2.268717
2.2686523
2.2687444
2.2688034
2.2686185
2.2685797
2.26826
2.2680808
2.2683149
2.268717
2.268735
2.2685908
2.2685304
2.26878
2.2685817
2.268498
2.2682987
2.2682288
2.26857
2.2686523
2.2685908
2.26857
2.4933043
2.4934684
2.4933272
2.4934777
2.4931253
2.4930834
2.4932148
2.4933642
2.4934925
2.4932719
2.4934684
2.493455
2.493524
2.4933255
2.4929933
2.4930336
2.4932589
2.4934068
2.4935448
2.4935229
2.4933272
2.493524
2.4933714
2.4932402
2.4929567
2.4929802
2.4932473
2.4933826
2.4933512
2.4933261
2.4934777
2.4933255
2.4932402
2.4931581
2.4928605
2.4928465
2.4931368
2.4933471
2.4933113
2.4932354
2.4931253
2.4929933
2.4929567
2.4928605
2.4925219
2.4924523
2.4927123
2.4929512
2.4929844
2.4930313
2.4930834
2.4930336
2.4929802
2.4928465
2.4924523
2.4923246
2.4925359
2.4927519
2.4927989
2.4929669
2.4932148
2.4932589
2.4932473
2.4931368
2.4927123
2.4925359
2.492721
2.4929474
2.4930579
2.493328
2.4933642
2.4934068
2.4933826
2.4933471
2.4929512
2.4927519
2.4929474
2.4932535
2.4934541
2.4933729
2.4934925
2.4935448
2.4933512
2.4933113
2.4929844
2.4927989
2.4930579
2.4934541
2.4934412
2.4933297
2.4932719
2.4935229
2.4933261
2.4932354
2.4930313
2.4929669
2.493328
2.4933729
2.4933297
2.4933104
2.7363894
2.7365577
2.7364069
2.7365617
2.736235
2.7361577
2.7362896
2.7364448
2.7365728
2.736352
2.7365577
2.7365276
2.7365994
2.7364365
2.7360844
2.736096
2.7363326
2.7364791
2.7366167
2.736595
2.7364069
2.7365994
2.7364615
2.7363335
2.7360359
2.7360378
2.7363188
2.7364469
2.7364187
2.7364055
2.7365617
2.7364365
2.7363335
2.7362533
2.7359444
2.7359121
2.736219
2.7364159
2.7363731
2.7363059
2.736235
2.7360844
2.7360359
2.7359444
2.7355944
2.7355069
2.7357882
2.7360181
2.7360437
2.7360996
2.7361577
2.736096
2.7360378
2.7359121
2.7355069
2.7353591
2.7355922
2.7358052
2.735854
2.7360428
2.7362896
2.7363326
2.7363188
2.736219
2.7357882
2.7355922
2.7357973
2.7360216
2.7361367
2.73642
2.7364448
2.7364791
2.7364469
2.7364159
2.7360181
2.7358052
2.7360216
2.7363247
2.7365226
2.736426
2.7365728
2.7366167
2.7364187
2.7363731
2.7360437
2.735854
2.7361367
2.7365226
2.7364782
2.736403
2.736352
2.736595
2.7364055
2.7363059
2.7360996
2.7360428
2.73642
2.736426
2.736403
2.7363857
2.9980286
2.9981974
2.9980418
2.9981915
2.9979012
2.9977855
2.9979156
2.9980755
2.998201
2.9979877
2.9981974
2.9981524
2.9982225
2.9980981
2.9977318
2.9977106
2.9979554
2.9981008
2.9982347
2.998212
2.9980418
2.9982225
2.9981023
2.9979766
2.9976696
2.9976467
2.9979377
2.9980591
2.9980374
2.998036
2.9981915
2.9980981
2.9979766
2.9978958
2.9975804
2.9975275
2.997847
2.998028
2.997981
2.9979256
2.9979012
2.9977318
2.9976696
2.9975804
2.9972245
2.9971178
2.9974173
2.9976355
2.9976543
2.99772
2.9977855
2.9977106
2.9976467
2.9975275
2.9971178
2.9969494
2.9972021
2.9974107
2.9974632
2.9976734
2.9979156
2.9979554
2.9979377
2.997847
2.9974173
2.9972021
2.9974255
2.9976464
2.9977677
2.9980618
2.9980755
2.9981008
2.9980591
2.998028
2.9976355
2.9974107
2.9976464
2.9979442
2.9981383
2.9980281
2.998201
2.9982347
2.9980374
2.997981
2.9976543
2.9974632
2.9977677
2.9981383
2.9980625
2.9980271
2.9979877
2.998212
2.998036
2.9979256
2.99772
2.9976734
2.9980618
2.9980281
2.9980271
2.9980129
3.2776516
3.2778166
3.2776615
3.2777964
3.2775521
3.2773971
3.2775225
3.2776856
3.277806
3.277609
3.2778166
3.2777587
3.2778231
3.2777383
3.2773651
3.2773077
3.2775568
3.2777012
3.2778274
3.2778029
3.2776615
3.2778231
3.2777224
3.2775984
3.2772876
3.2772373
3.2775332
3.2776484
3.2776367
3.2776471
3.2777964
3.2777383
3.2775984
3.2775143
3.2771981
3.277123
3.2774494
3.277612
3.2775639
3.2775242
3.2775521
3.2773651
3.2772876
3.2771981
3.2768423
3.2767159
3.2770293
3.2772328
3.2772456
3.2773227
3.2773971
3.2773077
3.2772373
3.277123
3.2767159
3.2765272
3.2767964
3.276999
3.2770571
3.2772892
3.2775225
3.2775568
3.2775332
3.2774494
3.2770293
3.2767964
3.2770352