/*--------------------------------*- C++ -*----------------------------------*\
| =========                 |                                                 |
| \\      /  F ield         | OpenFOAM: The Open Source CFD Toolbox           |
|  \\    /   O peration     | Version:  v2106                                 |
|   \\  /    A nd           | Website:  www.openfoam.com                      |
|    \\/     M anipulation  |                                                 |
\*---------------------------------------------------------------------------*/
FoamFile
{
    version     2.0;
    format      ascii;
    arch        "LSB;label=32;scalar=64";
    class       volVectorField;
    location    "20";
    object      flux;
}
// * * * * * * * * * * * * * * * * * * * * * * * * * * * * * * * * * * * * * //

dimensions      [0 1 -1 1 0 0 0];

internalField   nonuniform List<vector> 
4000
(
(5.6116291e-07 5.6116292e-07 0.95591101)
(-1.5918724e-06 -1.0529846e-06 0.95591387)
(-2.2085033e-06 -3.9056285e-07 0.95590318)
(5.3851296e-07 -3.0748142e-07 0.95590406)
(5.3146307e-07 -3.1130866e-07 0.95590557)
(4.1024917e-07 -3.2251452e-07 0.95590669)
(4.0943575e-07 -3.3262174e-07 0.9559077)
(4.6057717e-07 -3.2154601e-07 0.95590885)
(4.1128369e-07 -2.4651135e-07 0.95591014)
(1.1197106e-07 -1.263025e-07 0.95591091)
(-1.0529846e-06 -1.5918724e-06 0.95591387)
(-3.019461e-06 -3.019461e-06 0.95590756)
(-1.0902486e-06 -1.86176e-06 0.95590086)
(6.5739425e-07 -1.7203135e-06 0.95590228)
(5.0891343e-07 -1.7345461e-06 0.95590378)
(3.7827955e-07 -1.7727748e-06 0.95590481)
(4.1088852e-07 -1.8221521e-06 0.95590574)
(5.8974275e-07 -1.8345516e-06 0.95590699)
(7.0414895e-07 -1.6658302e-06 0.95590894)
(2.3217991e-07 -1.2198498e-06 0.95591047)
(-3.9056285e-07 -2.2085033e-06 0.95590318)
(-1.86176e-06 -1.0902486e-06 0.95590086)
(-9.0935582e-07 -9.0935583e-07 0.95589496)
(6.6572687e-07 -8.938063e-07 0.95589651)
(4.7900174e-07 -9.1330043e-07 0.95589797)
(3.226432e-07 -9.5681635e-07 0.95589889)
(3.4765898e-07 -1.0290901e-06 0.95589963)
(6.1689907e-07 -1.1201954e-06 0.95590074)
(1.0259854e-06 -1.1536515e-06 0.95590303)
(4.0929129e-07 -9.8606175e-07 0.95590591)
(-3.0748142e-07 5.3851296e-07 0.95590406)
(-1.7203135e-06 6.5739425e-07 0.95590228)
(-8.9380631e-07 6.6572687e-07 0.95589651)
(6.5344965e-07 6.5344964e-07 0.95589807)
(4.4590338e-07 6.274539e-07 0.95589947)
(2.624899e-07 5.8519789e-07 0.95590028)
(2.4750946e-07 5.2019044e-07 0.95590082)
(4.6518132e-07 4.219091e-07 0.9559016)
(8.3828261e-07 2.8656508e-07 0.95590346)
(3.4390642e-07 1.4251419e-07 0.9559059)
(-3.1130866e-07 5.3146308e-07 0.95590557)
(-1.7345461e-06 5.0891343e-07 0.95590378)
(-9.1330043e-07 4.7900174e-07 0.95589797)
(6.274539e-07 4.4590337e-07 0.95589947)
(4.1074998e-07 4.1074998e-07 0.9559008)
(2.1537973e-07 3.7161811e-07 0.9559015)
(1.843702e-07 3.2624582e-07 0.95590189)
(3.8327372e-07 2.7202142e-07 0.95590249)
(7.4659053e-07 2.0936991e-07 0.95590411)
(3.1325736e-07 1.5072931e-07 0.95590631)
(-3.2251452e-07 4.1024917e-07 0.95590669)
(-1.7727748e-06 3.7827954e-07 0.95590481)
(-9.5681636e-07 3.2264319e-07 0.95589889)
(5.8519789e-07 2.6248989e-07 0.95590028)
(3.7161812e-07 2.1537973e-07 0.9559015)
(1.7798574e-07 1.7798574e-07 0.9559021)
(1.4791277e-07 1.4746002e-07 0.9559024)
(3.4830541e-07 1.231243e-07 0.95590289)
(7.169905e-07 1.0513236e-07 0.95590442)
(3.0481269e-07 9.4906583e-08 0.95590655)
(-3.3262174e-07 4.0943574e-07 0.9559077)
(-1.8221521e-06 4.1088851e-07 0.95590574)
(-1.0290901e-06 3.4765899e-07 0.95589963)
(5.2019045e-07 2.4750947e-07 0.95590082)
(3.2624583e-07 1.843702e-07 0.95590189)
(1.4746002e-07 1.4791278e-07 0.9559024)
(1.2950875e-07 1.2950876e-07 0.95590263)
(3.4094606e-07 1.2694441e-07 0.9559031)
(7.1837282e-07 1.3785074e-07 0.95590462)
(3.0644017e-07 1.5521007e-07 0.95590677)
(-3.2154601e-07 4.6057717e-07 0.95590885)
(-1.8345516e-06 5.8974275e-07 0.95590699)
(-1.1201954e-06 6.1689908e-07 0.95590074)
(4.219091e-07 4.6518132e-07 0.9559016)
(2.7202143e-07 3.8327372e-07 0.95590249)
(1.231243e-07 3.4830541e-07 0.95590289)
(1.269444e-07 3.4094607e-07 0.9559031)
(3.5664739e-07 3.5664739e-07 0.95590358)
(7.4525616e-07 3.9116735e-07 0.95590518)
(3.1638557e-07 4.3133209e-07 0.95590741)
(-2.4651136e-07 4.1128369e-07 0.95591014)
(-1.6658302e-06 7.0414895e-07 0.95590894)
(-1.1536515e-06 1.0259854e-06 0.95590303)
(2.8656508e-07 8.3828261e-07 0.95590346)
(2.0936992e-07 7.4659054e-07 0.95590411)
(1.0513237e-07 7.169905e-07 0.95590442)
(1.3785074e-07 7.1837282e-07 0.95590462)
(3.9116734e-07 7.4525616e-07 0.95590518)
(7.9305751e-07 7.9305752e-07 0.9559069)
(3.3321667e-07 8.4020264e-07 0.95590928)
(-1.263025e-07 1.1197106e-07 0.95591091)
(-1.2198498e-06 2.3217991e-07 0.95591047)
(-9.8606175e-07 4.0929129e-07 0.95590591)
(1.425142e-07 3.4390642e-07 0.9559059)
(1.5072932e-07 3.1325737e-07 0.95590631)
(9.4906584e-08 3.0481269e-07 0.95590655)
(1.5521007e-07 3.0644018e-07 0.95590677)
(4.3133208e-07 3.1638557e-07 0.95590741)
(8.4020265e-07 3.3321667e-07 0.95590928)
(3.4781566e-07 3.4781566e-07 0.95591172)
(1.1821825e-06 1.1821825e-06 1.4204233)
(-6.995759e-06 -3.1641068e-06 1.4204238)
(-8.1266869e-06 -1.1591008e-06 1.420414)
(1.9777294e-06 -8.5631304e-07 1.4204149)
(2.3661083e-06 -8.6323549e-07 1.4204168)
(1.9643466e-06 -9.1450704e-07 1.4204183)
(2.0132961e-06 -9.6464145e-07 1.4204197)
(2.3015745e-06 -8.9568494e-07 1.4204215)
(1.8640334e-06 -4.6335139e-07 1.4204237)
(4.2808807e-07 -5.2106661e-08 1.4204241)
(-3.1641068e-06 -6.995759e-06 1.4204238)
(-1.0507684e-05 -1.0507684e-05 1.4204181)
(-4.6649967e-06 -6.7730829e-06 1.4204114)
(2.4215273e-06 -6.1878288e-06 1.4204128)
(2.2788173e-06 -6.2248526e-06 1.4204147)
(1.8122377e-06 -6.4064736e-06 1.4204161)
(2.0415292e-06 -6.6523703e-06 1.4204173)
(3.0535096e-06 -6.6839102e-06 1.4204192)
(3.1294008e-06 -5.6900721e-06 1.4204229)
(8.393328e-07 -3.8451126e-06 1.4204247)
(-1.1591008e-06 -8.1266869e-06 1.420414)
(-6.7730829e-06 -4.6649967e-06 1.4204114)
(-3.8068324e-06 -3.8068324e-06 1.4204055)
(2.5259596e-06 -3.6599384e-06 1.4204072)
(2.1474634e-06 -3.7365309e-06 1.420409)
(1.5368289e-06 -3.95072e-06 1.4204102)
(1.7358595e-06 -4.3101248e-06 1.4204111)
(3.2638727e-06 -4.744731e-06 1.4204128)
(4.7028308e-06 -4.7861274e-06 1.4204169)
(1.658061e-06 -3.924516e-06 1.4204204)
(-8.5631304e-07 1.9777294e-06 1.4204149)
(-6.1878288e-06 2.4215273e-06 1.4204128)
(-3.6599384e-06 2.5259596e-06 1.4204072)
(2.4918288e-06 2.4918288e-06 1.4204088)
(1.9880356e-06 2.3682e-06 1.4204105)
(1.2386438e-06 2.1587889e-06 1.4204116)
(1.2475183e-06 1.8361882e-06 1.4204122)
(2.577507e-06 1.3569874e-06 1.4204134)
(3.9496158e-06 7.4988606e-07 1.420417)
(1.4137405e-06 1.6366829e-07 1.4204199)
(-8.6323549e-07 2.3661083e-06 1.4204168)
(-6.2248526e-06 2.2788173e-06 1.4204147)
(-3.7365309e-06 2.1474634e-06 1.420409)
(2.3682e-06 1.9880356e-06 1.4204105)
(1.8144235e-06 1.8144235e-06 1.4204122)
(1.0048171e-06 1.6208111e-06 1.420413)
(9.3405801e-07 1.3960438e-06 1.4204134)
(2.1775706e-06 1.1268935e-06 1.4204143)
(3.5095117e-06 8.2202051e-07 1.4204176)
(1.2672492e-06 5.3554387e-07 1.4204203)
(-9.1450704e-07 1.9643466e-06 1.4204183)
(-6.4064736e-06 1.8122377e-06 1.4204161)
(-3.95072e-06 1.5368289e-06 1.4204102)
(2.1587889e-06 1.2386438e-06 1.4204116)
(1.6208111e-06 1.0048171e-06 1.420413)
(8.2026413e-07 8.2026412e-07 1.4204137)
(7.536007e-07 6.7083313e-07 1.420414)
(2.0034837e-06 5.5219702e-07 1.4204148)
(3.3582662e-06 4.6553156e-07 1.4204179)
(1.222756e-06 4.1470133e-07 1.4204205)
(-9.6464145e-07 2.0132961e-06 1.4204197)
(-6.6523703e-06 2.0415292e-06 1.4204173)
(-4.3101248e-06 1.7358595e-06 1.4204111)
(1.8361882e-06 1.2475183e-06 1.4204122)
(1.3960438e-06 9.3405801e-07 1.4204134)
(6.7083313e-07 7.536007e-07 1.420414)
(6.6599092e-07 6.6599091e-07 1.4204142)
(1.972269e-06 6.6028294e-07 1.4204149)
(3.3720161e-06 7.2580589e-07 1.4204181)
(1.2333623e-06 8.3021585e-07 1.4204207)
(-8.9568494e-07 2.3015745e-06 1.4204215)
(-6.6839102e-06 3.0535096e-06 1.4204192)
(-4.744731e-06 3.2638727e-06 1.4204128)
(1.3569874e-06 2.577507e-06 1.4204134)
(1.1268935e-06 2.1775706e-06 1.4204143)
(5.5219704e-07 2.0034837e-06 1.4204148)
(6.6028294e-07 1.972269e-06 1.4204149)
(2.0632986e-06 2.0632986e-06 1.4204157)
(3.5281991e-06 2.2553547e-06 1.420419)
(1.2923627e-06 2.4819696e-06 1.4204218)
(-4.6335139e-07 1.8640334e-06 1.4204237)
(-5.6900721e-06 3.1294008e-06 1.4204229)
(-4.7861274e-06 4.7028308e-06 1.4204169)
(7.4988605e-07 3.9496158e-06 1.420417)
(8.2202051e-07 3.5095118e-06 1.4204176)
(4.6553157e-07 3.3582662e-06 1.4204179)
(7.2580589e-07 3.3720161e-06 1.4204181)
(2.2553547e-06 3.5281991e-06 1.420419)
(3.790687e-06 3.790687e-06 1.4204226)
(1.3844389e-06 3.9526223e-06 1.4204256)
(-5.2106663e-08 4.2808807e-07 1.4204241)
(-3.8451126e-06 8.393328e-07 1.4204247)
(-3.924516e-06 1.658061e-06 1.4204204)
(1.6366829e-07 1.4137405e-06 1.4204199)
(5.3554386e-07 1.2672492e-06 1.4204203)
(4.1470134e-07 1.222756e-06 1.4204205)
(8.3021585e-07 1.2333624e-06 1.4204207)
(2.4819695e-06 1.2923627e-06 1.4204218)
(3.9526223e-06 1.3844389e-06 1.4204256)
(1.4003195e-06 1.4003195e-06 1.4204279)
(8.9768431e-07 8.9768431e-07 1.4161215)
(-1.0847285e-05 -4.8238211e-06 1.4161211)
(-1.1057503e-05 -2.1409478e-06 1.416115)
(3.3339536e-06 -1.7208866e-06 1.4161161)
(3.9294467e-06 -1.7387106e-06 1.4161177)
(3.3297557e-06 -1.8408179e-06 1.416119)
(3.5864202e-06 -1.958042e-06 1.4161202)
(4.4621362e-06 -1.8333725e-06 1.416122)
(3.0384875e-06 -7.8229108e-07 1.416125)
(3.7654431e-07 2.7592993e-07 1.4161253)
(-4.8238211e-06 -1.0847285e-05 1.4161211)
(-1.5405233e-05 -1.5405233e-05 1.4161169)
(-6.4031016e-06 -1.0318443e-05 1.4161127)
(3.9373093e-06 -9.479394e-06 1.4161141)
(3.7495498e-06 -9.5570258e-06 1.4161157)
(3.0007586e-06 -9.9075522e-06 1.4161168)
(3.5975883e-06 -1.0422621e-05 1.4161178)
(6.2257625e-06 -1.0561981e-05 1.4161196)
(6.2024411e-06 -8.4705944e-06 1.4161243)
(1.4347653e-06 -4.9648058e-06 1.4161263)
(-2.1409478e-06 -1.1057503e-05 1.416115)
(-1.0318443e-05 -6.4031016e-06 1.4161127)
(-5.1316644e-06 -5.1316644e-06 1.4161091)
(4.0953705e-06 -4.8982819e-06 1.4161106)
(3.5012886e-06 -5.0412866e-06 1.4161121)
(2.4641608e-06 -5.4375718e-06 1.416113)
(2.9319915e-06 -6.118171e-06 1.4161136)
(6.4141625e-06 -6.9803055e-06 1.4161151)
(8.6356625e-06 -7.1131801e-06 1.4161201)
(2.7137367e-06 -5.7653027e-06 1.4161234)
(-1.7208866e-06 3.3339536e-06 1.4161161)
(-9.479394e-06 3.9373093e-06 1.4161141)
(-4.8982819e-06 4.0953705e-06 1.4161106)
(4.0276871e-06 4.0276871e-06 1.4161121)
(3.2102598e-06 3.8010017e-06 1.4161135)
(1.9238742e-06 3.4214144e-06 1.4161143)
(2.0548545e-06 2.8399702e-06 1.4161146)
(5.2307533e-06 1.9853339e-06 1.4161155)
(7.4174441e-06 9.5844992e-07 1.4161201)
(2.3333504e-06 1.9093769e-08 1.416123)
(-1.7387106e-06 3.9294467e-06 1.4161177)
(-9.5570258e-06 3.7495498e-06 1.4161157)
(-5.0412866e-06 3.5012886e-06 1.4161121)
(3.8010017e-06 3.2102598e-06 1.4161135)
(2.8950159e-06 2.8950159e-06 1.4161149)
(1.5031293e-06 2.5459472e-06 1.4161154)
(1.495911e-06 2.1441908e-06 1.4161155)
(4.5326422e-06 1.6680417e-06 1.4161162)
(6.6694224e-06 1.1441733e-06 1.4161204)
(2.0874992e-06 6.6264713e-07 1.4161231)
(-1.8408179e-06 3.3297557e-06 1.416119)
(-9.9075522e-06 3.0007586e-06 1.4161168)
(-5.4375718e-06 2.4641608e-06 1.416113)
(3.4214144e-06 1.9238742e-06 1.4161143)
(2.5459472e-06 1.5031293e-06 1.4161154)
(1.1730491e-06 1.1730491e-06 1.4161159)
(1.1769491e-06 9.110602e-07 1.4161158)
(4.2307359e-06 7.1161216e-07 1.4161164)
(6.4120495e-06 5.8009128e-07 1.4161205)
(2.0123329e-06 5.1844412e-07 1.4161231)
(-1.958042e-06 3.5864202e-06 1.4161202)
(-1.0422621e-05 3.5975883e-06 1.4161178)
(-6.118171e-06 2.9319915e-06 1.4161136)
(2.8399702e-06 2.0548545e-06 1.4161146)
(2.1441908e-06 1.495911e-06 1.4161155)
(9.110602e-07 1.1769491e-06 1.4161158)
(1.0344741e-06 1.0344741e-06 1.4161157)
(4.2016733e-06 1.0570499e-06 1.4161162)
(6.4762543e-06 1.233616e-06 1.4161204)
(2.0464011e-06 1.508704e-06 1.4161231)
(-1.8333725e-06 4.4621362e-06 1.416122)
(-1.0561981e-05 6.2257625e-06 1.4161196)
(-6.9803056e-06 6.4141625e-06 1.4161151)
(1.9853338e-06 5.2307533e-06 1.4161155)
(1.6680417e-06 4.5326422e-06 1.4161162)
(7.1161216e-07 4.2307359e-06 1.4161164)
(1.0570499e-06 4.2016733e-06 1.4161162)
(4.4298778e-06 4.4298778e-06 1.4161169)
(6.8637037e-06 4.8849921e-06 1.4161213)
(2.1957249e-06 5.4030655e-06 1.4161244)
(-7.8229108e-07 3.0384875e-06 1.416125)
(-8.4705944e-06 6.2024411e-06 1.4161243)
(-7.1131801e-06 8.6356625e-06 1.4161201)
(9.5844992e-07 7.4174441e-06 1.4161201)
(1.1441733e-06 6.6694224e-06 1.4161204)
(5.8009129e-07 6.4120495e-06 1.4161205)
(1.233616e-06 6.4762544e-06 1.4161204)
(4.8849921e-06 6.8637037e-06 1.4161213)
(7.449442e-06 7.449442e-06 1.4161262)
(2.3917834e-06 6.9531175e-06 1.4161297)
(2.7592993e-07 3.7654431e-07 1.4161253)
(-4.9648058e-06 1.4347653e-06 1.4161263)
(-5.7653027e-06 2.7137367e-06 1.4161234)
(1.909377e-08 2.3333504e-06 1.416123)
(6.6264713e-07 2.0874992e-06 1.4161231)
(5.1844413e-07 2.0123329e-06 1.4161231)
(1.508704e-06 2.0464011e-06 1.4161231)
(5.4030655e-06 2.1957249e-06 1.4161244)
(6.9531175e-06 2.3917834e-06 1.4161297)
(1.8648419e-06 1.8648419e-06 1.4161306)
(9.2018551e-07 9.2018551e-07 1.4094667)
(-1.3480096e-05 -5.9360965e-06 1.4094669)
(-1.3131359e-05 -2.6844417e-06 1.4094619)
(4.719475e-06 -2.1812812e-06 1.4094632)
(5.3061699e-06 -2.2196164e-06 1.4094647)
(4.446354e-06 -2.383827e-06 1.4094658)
(5.0150054e-06 -2.601607e-06 1.4094666)
(7.0766859e-06 -2.5017123e-06 1.4094682)
(5.1882169e-06 -9.2457871e-07 1.4094715)
(6.6392641e-07 5.8831218e-07 1.4094725)
(-5.9360965e-06 -1.3480096e-05 1.4094669)
(-1.8887036e-05 -1.8887036e-05 1.4094639)
(-7.4991376e-06 -1.2703376e-05 1.4094605)
(5.4167129e-06 -1.1697064e-05 1.409462)
(5.0023513e-06 -1.1842634e-05 1.4094635)
(3.8733682e-06 -1.2386936e-05 1.4094644)
(4.8381774e-06 -1.3233826e-05 1.4094649)
(9.5922281e-06 -1.3621746e-05 1.4094664)
(9.8232537e-06 -1.0569063e-05 1.4094712)
(2.1768173e-06 -5.7422705e-06 1.4094734)
(-2.6844417e-06 -1.3131359e-05 1.4094619)
(-1.2703376e-05 -7.4991376e-06 1.4094605)
(-5.9413878e-06 -5.9413878e-06 1.4094576)
(5.5802176e-06 -5.6747349e-06 1.4094592)
(4.6162974e-06 -5.9056154e-06 1.4094606)
(3.0551612e-06 -6.4964558e-06 1.4094612)
(3.7801954e-06 -7.5136103e-06 1.4094614)
(9.7414495e-06 -8.8217042e-06 1.4094624)
(1.3067692e-05 -9.0172763e-06 1.4094677)
(3.8817878e-06 -7.1929101e-06 1.4094711)
(-2.1812812e-06 4.719475e-06 1.4094632)
(-1.1697064e-05 5.4167129e-06 1.409462)
(-5.6747349e-06 5.5802176e-06 1.4094592)
(5.4524854e-06 5.4524854e-06 1.4094607)
(4.1806303e-06 5.109314e-06 1.409462)
(2.2653732e-06 4.5528383e-06 1.4094624)
(2.5129288e-06 3.709488e-06 1.4094623)
(8.088562e-06 2.4841451e-06 1.4094629)
(1.1452048e-05 1.0760413e-06 1.4094676)
(3.3930617e-06 -1.5436799e-07 1.4094707)
(-2.2196164e-06 5.3061699e-06 1.4094647)
(-1.1842634e-05 5.0023513e-06 1.4094635)
(-5.9056154e-06 4.6162974e-06 1.4094606)
(5.109314e-06 4.1806303e-06 1.409462)
(3.7166503e-06 3.7166503e-06 1.4094631)
(1.6553352e-06 3.2099217e-06 1.4094634)
(1.7115023e-06 2.6334434e-06 1.4094631)
(7.1080028e-06 1.9588364e-06 1.4094634)
(1.0429179e-05 1.2379674e-06 1.4094678)
(3.0615149e-06 5.9226534e-07 1.4094707)
(-2.383827e-06 4.446354e-06 1.4094658)
(-1.2386936e-05 3.8733682e-06 1.4094644)
(-6.4964558e-06 3.0551612e-06 1.4094612)
(4.5528382e-06 2.2653732e-06 1.4094624)
(3.2099217e-06 1.6553352e-06 1.4094634)
(1.1821663e-06 1.1821664e-06 1.4094636)
(1.2618436e-06 8.1633685e-07 1.4094631)
(6.693086e-06 5.5390344e-07 1.4094633)
(1.0085477e-05 4.0769281e-07 1.4094676)
(2.9625937e-06 3.7063531e-07 1.4094704)
(-2.601607e-06 5.0150054e-06 1.4094666)
(-1.3233826e-05 4.8381773e-06 1.4094649)
(-7.5136103e-06 3.7801954e-06 1.4094614)
(3.709488e-06 2.5129288e-06 1.4094623)
(2.6334434e-06 1.7115022e-06 1.4094631)
(8.1633684e-07 1.2618436e-06 1.4094631)
(1.0832393e-06 1.0832393e-06 1.4094625)
(6.6993588e-06 1.1749499e-06 1.4094627)
(1.0245911e-05 1.5400993e-06 1.4094672)
(3.0368099e-06 2.0972056e-06 1.4094701)
(-2.5017123e-06 7.0766859e-06 1.4094682)
(-1.3621746e-05 9.5922281e-06 1.4094664)
(-8.8217042e-06 9.7414495e-06 1.4094624)
(2.4841451e-06 8.088562e-06 1.4094629)
(1.9588364e-06 7.1080028e-06 1.4094634)
(5.5390344e-07 6.693086e-06 1.4094633)
(1.1749499e-06 6.6993588e-06 1.4094627)
(7.1499459e-06 7.1499459e-06 1.4094631)
(1.1007733e-05 8.0502773e-06 1.4094679)
(3.3339979e-06 9.1017927e-06 1.4094713)
(-9.2457871e-07 5.1882169e-06 1.4094715)
(-1.0569063e-05 9.8232537e-06 1.4094712)
(-9.0172763e-06 1.3067692e-05 1.4094677)
(1.0760413e-06 1.1452048e-05 1.4094676)
(1.2379674e-06 1.0429179e-05 1.4094678)
(4.0769281e-07 1.0085477e-05 1.4094676)
(1.5400993e-06 1.0245911e-05 1.4094672)
(8.0502773e-06 1.1007733e-05 1.4094679)
(1.2197758e-05 1.2197758e-05 1.4094733)
(3.7378203e-06 1.0238798e-05 1.4094776)
(5.8831219e-07 6.6392641e-07 1.4094725)
(-5.7422705e-06 2.1768173e-06 1.4094734)
(-7.1929101e-06 3.8817878e-06 1.4094711)
(-1.5436799e-07 3.3930617e-06 1.4094707)
(5.9226534e-07 3.0615149e-06 1.4094707)
(3.7063531e-07 2.9625937e-06 1.4094704)
(2.0972056e-06 3.0368099e-06 1.4094701)
(9.1017927e-06 3.3339979e-06 1.4094713)
(1.0238798e-05 3.7378203e-06 1.4094776)
(2.0280243e-06 2.0280243e-06 1.409478)
(1.0448619e-06 1.0448619e-06 1.4005467)
(-1.5643827e-05 -6.8518176e-06 1.4005471)
(-1.4824189e-05 -3.0591913e-06 1.4005427)
(6.1210439e-06 -2.4851687e-06 1.400544)
(6.5116628e-06 -2.5489892e-06 1.4005455)
(5.2512016e-06 -2.7793005e-06 1.4005463)
(6.026216e-06 -3.1070408e-06 1.4005468)
(9.3538359e-06 -3.0545969e-06 1.4005479)
(7.310987e-06 -9.8146454e-07 1.4005509)
(1.006475e-06 9.0319182e-07 1.4005519)
(-6.8518176e-06 -1.5643827e-05 1.4005471)
(-2.1799905e-05 -2.1799905e-05 1.4005446)
(-8.2742167e-06 -1.4594236e-05 1.4005417)
(6.8863471e-06 -1.345802e-05 1.4005433)
(6.0704653e-06 -1.3688627e-05 1.4005446)
(4.4141242e-06 -1.4438502e-05 1.4005452)
(5.6132715e-06 -1.5637535e-05 1.4005454)
(1.25422e-05 -1.6315603e-05 1.4005463)
(1.324767e-05 -1.2345701e-05 1.4005508)
(2.8911314e-06 -6.3617459e-06 1.4005528)
(-3.0591913e-06 -1.4824189e-05 1.4005427)
(-1.4594236e-05 -8.2742167e-06 1.4005417)
(-6.4823043e-06 -6.4823043e-06 1.4005392)
(7.0266531e-06 -6.2145737e-06 1.4005408)
(5.531181e-06 -6.5506731e-06 1.4005421)
(3.3022928e-06 -7.3462233e-06 1.4005425)
(4.1491154e-06 -8.7087049e-06 1.4005423)
(1.264567e-05 -1.0469619e-05 1.4005428)
(1.7264844e-05 -1.0713988e-05 1.4005476)
(4.9957785e-06 -8.4380952e-06 1.4005507)
(-2.4851687e-06 6.1210438e-06 1.400544)
(-1.345802e-05 6.8863471e-06 1.4005433)
(-6.2145737e-06 7.0266531e-06 1.4005408)
(6.8179783e-06 6.8179783e-06 1.4005424)
(4.9388156e-06 6.3458302e-06 1.4005435)
(2.2560922e-06 5.6058553e-06 1.4005437)
(2.4898757e-06 4.4978088e-06 1.4005432)
(1.0536917e-05 2.9048594e-06 1.4005432)
(1.5279194e-05 1.136446e-06 1.4005476)
(4.4083934e-06 -3.594079e-07 1.4005505)
(-2.5489892e-06 6.5116628e-06 1.4005455)
(-1.3688627e-05 6.0704653e-06 1.4005446)
(-6.5506731e-06 5.531181e-06 1.4005421)
(6.3458302e-06 4.9388156e-06 1.4005435)
(4.319058e-06 4.319058e-06 1.4005445)
(1.4542713e-06 3.6523564e-06 1.4005445)
(1.4481196e-06 2.903029e-06 1.4005438)
(9.2843073e-06 2.0367432e-06 1.4005436)
(1.4000576e-05 1.1337484e-06 1.4005476)
(3.9985425e-06 3.4173262e-07 1.4005503)
(-2.7793005e-06 5.2512016e-06 1.4005463)
(-1.4438502e-05 4.4141242e-06 1.4005452)
(-7.3462233e-06 3.3022928e-06 1.4005425)
(5.6058553e-06 2.2560922e-06 1.4005437)
(3.6523564e-06 1.4542713e-06 1.4005445)
(8.4006324e-07 8.4006324e-07 1.4005444)
(8.7426251e-07 3.7749592e-07 1.4005435)
(8.7676365e-06 6.5334619e-08 1.4005432)
(1.3584183e-05 -7.5290762e-08 1.4005472)
(3.8803828e-06 -6.6065844e-08 1.4005498)
(-3.1070408e-06 6.026216e-06 1.4005468)
(-1.5637535e-05 5.6132715e-06 1.4005454)
(-8.7087049e-06 4.1491154e-06 1.4005423)
(4.4978088e-06 2.4898758e-06 1.4005432)
(2.903029e-06 1.4481196e-06 1.4005438)
(3.7749591e-07 8.7426251e-07 1.4005435)
(6.7339096e-07 6.7339095e-07 1.4005426)
(8.8315206e-06 8.6161528e-07 1.4005423)
(1.3869176e-05 1.4655047e-06 1.4005464)
(4.0046924e-06 2.3791289e-06 1.4005491)
(-3.0545969e-06 9.3538359e-06 1.4005479)
(-1.6315603e-05 1.25422e-05 1.4005463)
(-1.0469619e-05 1.264567e-05 1.4005428)
(2.9048594e-06 1.0536917e-05 1.4005432)
(2.0367432e-06 9.2843073e-06 1.4005436)
(6.5334617e-08 8.7676365e-06 1.4005432)
(8.6161528e-07 8.8315206e-06 1.4005423)
(9.5597502e-06 9.5597502e-06 1.4005422)
(1.5101697e-05 1.1035289e-05 1.4005466)
(4.4894657e-06 1.2846245e-05 1.40055)
(-9.8146455e-07 7.310987e-06 1.4005509)
(-1.2345701e-05 1.324767e-05 1.4005508)
(-1.0713988e-05 1.7264844e-05 1.4005476)
(1.136446e-06 1.5279194e-05 1.4005476)
(1.1337484e-06 1.4000576e-05 1.4005476)
(-7.5290769e-08 1.3584183e-05 1.4005472)
(1.4655047e-06 1.3869176e-05 1.4005464)
(1.1035289e-05 1.5101697e-05 1.4005466)
(1.7155671e-05 1.7155671e-05 1.4005519)
(5.2119961e-06 1.363642e-05 1.4005563)
(9.0319182e-07 1.006475e-06 1.4005519)
(-6.3617459e-06 2.8911314e-06 1.4005528)
(-8.4380952e-06 4.9957785e-06 1.4005507)
(-3.5940791e-07 4.4083934e-06 1.4005505)
(3.4173261e-07 3.9985425e-06 1.4005503)
(-6.6065855e-08 3.8803828e-06 1.4005498)
(2.3791289e-06 4.0046924e-06 1.4005491)
(1.2846245e-05 4.4894657e-06 1.40055)
(1.363642e-05 5.2119961e-06 1.4005563)
(2.1432983e-06 2.1432983e-06 1.4005566)
(1.2151412e-06 1.2151412e-06 1.3894596)
(-1.7490215e-05 -7.6453585e-06 1.3894601)
(-1.6218557e-05 -3.3352442e-06 1.3894562)
(7.5285722e-06 -2.69792e-06 1.3894576)
(7.5611349e-06 -2.7901426e-06 1.389459)
(5.7651822e-06 -3.0884163e-06 1.3894596)
(6.6254751e-06 -3.5299889e-06 1.3894598)
(1.1177439e-05 -3.5365144e-06 1.3894604)
(9.1438613e-06 -9.9212285e-07 1.389463)
(1.3024288e-06 1.2312461e-06 1.3894637)
(-7.6453585e-06 -1.7490215e-05 1.3894601)
(-2.4315791e-05 -2.4315791e-05 1.3894579)
(-8.7974011e-06 -1.6142461e-05 1.3894555)
(8.3462247e-06 -1.4898818e-05 1.3894571)
(6.9753906e-06 -1.522522e-05 1.3894584)
(4.6554127e-06 -1.6187431e-05 1.3894588)
(5.9533279e-06 -1.7748391e-05 1.3894586)
(1.4984237e-05 -1.8740823e-05 1.3894591)
(1.6295502e-05 -1.3905433e-05 1.389463)
(3.5257979e-06 -6.8532452e-06 1.3894647)
(-3.3352442e-06 -1.6218557e-05 1.3894562)
(-1.6142461e-05 -8.7974011e-06 1.3894555)
(-6.8015849e-06 -6.8015849e-06 1.3894534)
(8.4458136e-06 -6.5525289e-06 1.3894551)
(6.2725217e-06 -7.0058033e-06 1.3894562)
(3.2420116e-06 -8.0132616e-06 1.3894564)
(4.0720835e-06 -9.7267528e-06 1.3894558)
(1.5020396e-05 -1.194733e-05 1.3894558)
(2.1031439e-05 -1.2250908e-05 1.38946)
(6.0038874e-06 -9.5597768e-06 1.3894629)
(-2.69792e-06 7.5285722e-06 1.3894576)
(-1.4898818e-05 8.3462247e-06 1.3894571)
(-6.5525289e-06 8.4458136e-06 1.3894551)
(8.1420063e-06 8.1420063e-06 1.3894566)
(5.5146577e-06 7.5316382e-06 1.3894577)
(1.934463e-06 6.6031888e-06 1.3894576)
(2.0192597e-06 5.2286316e-06 1.3894567)
(1.2460082e-05 3.269829e-06 1.3894563)
(1.8683055e-05 1.1496863e-06 1.3894601)
(5.3198859e-06 -6.0333852e-07 1.3894626)
(-2.7901426e-06 7.5611349e-06 1.389459)
(-1.522522e-05 6.9753906e-06 1.3894584)
(-7.0058033e-06 6.2725217e-06 1.3894562)
(7.5316382e-06 5.5146577e-06 1.3894577)
(4.7337042e-06 4.7337042e-06 1.3894585)
(9.3900503e-07 3.9052176e-06 1.3894583)
(7.3872373e-07 2.9844843e-06 1.3894572)
(1.0941451e-05 1.9311988e-06 1.3894565)
(1.7158271e-05 8.5461507e-07 1.38946)
(4.8352041e-06 -7.5082431e-08 1.3894623)
(-3.0884163e-06 5.7651822e-06 1.3894596)
(-1.6187431e-05 4.6554127e-06 1.3894588)
(-8.0132616e-06 3.2420116e-06 1.3894564)
(6.6031888e-06 1.934463e-06 1.3894576)
(3.9052176e-06 9.3900504e-07 1.3894583)
(1.8524307e-07 1.8524307e-07 1.389458)
(4.5240895e-08 -3.6912807e-07 1.3894567)
(1.0330213e-05 -7.226395e-07 1.3894559)
(1.6676774e-05 -8.4654785e-07 1.3894593)
(4.7000875e-06 -7.8152991e-07 1.3894616)
(-3.5299889e-06 6.6254751e-06 1.3894598)
(-1.7748391e-05 5.9533279e-06 1.3894586)
(-9.7267528e-06 4.0720835e-06 1.3894558)
(5.2286316e-06 2.0192597e-06 1.3894567)
(2.9844843e-06 7.3872373e-07 1.3894572)
(-3.6912808e-07 4.5240895e-08 1.3894567)
(-1.6915883e-07 -1.6915883e-07 1.3894555)
(1.0464031e-05 1.3066636e-07 1.3894547)
(1.7099381e-05 9.9767527e-07 1.3894582)
(4.8785494e-06 2.299888e-06 1.3894606)
(-3.5365144e-06 1.1177439e-05 1.3894604)
(-1.8740823e-05 1.4984237e-05 1.3894591)
(-1.194733e-05 1.5020396e-05 1.3894558)
(3.269829e-06 1.2460082e-05 1.3894563)
(1.9311987e-06 1.0941451e-05 1.3894565)
(-7.226395e-07 1.0330213e-05 1.3894559)
(1.3066636e-07 1.0464031e-05 1.3894547)
(1.1497047e-05 1.1497047e-05 1.3894541)
(1.8845996e-05 1.3609408e-05 1.389458)
(5.5682294e-06 1.628827e-05 1.3894611)
(-9.9212284e-07 9.1438613e-06 1.389463)
(-1.3905433e-05 1.6295502e-05 1.389463)
(-1.2250908e-05 2.1031439e-05 1.38946)
(1.1496863e-06 1.8683055e-05 1.3894601)
(8.5461507e-07 1.7158271e-05 1.38946)
(-8.4654785e-07 1.6676774e-05 1.3894593)
(9.9767527e-07 1.7099381e-05 1.3894582)
(1.3609408e-05 1.8845996e-05 1.389458)
(2.1890604e-05 2.1890604e-05 1.3894629)
(6.6644574e-06 1.6890809e-05 1.3894671)
(1.2312461e-06 1.3024288e-06 1.3894637)
(-6.8532452e-06 3.5257979e-06 1.3894647)
(-9.5597768e-06 6.0038874e-06 1.3894629)
(-6.0333852e-07 5.3198859e-06 1.3894626)
(-7.5082438e-08 4.8352041e-06 1.3894623)
(-7.8152993e-07 4.7000875e-06 1.3894616)
(2.299888e-06 4.8785493e-06 1.3894606)
(1.628827e-05 5.5682294e-06 1.3894611)
(1.6890809e-05 6.6644574e-06 1.3894671)
(2.235032e-06 2.235032e-06 1.3894673)
(1.4299529e-06 1.4299529e-06 1.3763173)
(-1.9023071e-05 -8.3192988e-06 1.376318)
(-1.7326019e-05 -3.5189512e-06 1.3763146)
(8.9329069e-06 -2.8251445e-06 1.3763161)
(8.4629942e-06 -2.9478159e-06 1.3763174)
(6.0123626e-06 -3.3151283e-06 1.3763178)
(6.8458625e-06 -3.872987e-06 1.3763176)
(1.2550158e-05 -3.9485751e-06 1.3763178)
(1.0629406e-05 -9.6364784e-07 1.3763199)
(1.5232076e-06 1.5731708e-06 1.3763205)
(-8.3192988e-06 -1.9023071e-05 1.376318)
(-2.6446425e-05 -2.6446425e-05 1.3763162)
(-9.0847895e-06 -1.7363113e-05 1.3763142)
(9.7896099e-06 -1.603034e-05 1.3763158)
(7.7280185e-06 -1.6459894e-05 1.376317)
(4.624606e-06 -1.7638418e-05 1.3763172)
(5.8956922e-06 -1.956717e-05 1.3763167)
(1.6914166e-05 -2.0895395e-05 1.3763167)
(1.8912025e-05 -1.5263686e-05 1.3763201)
(4.0600264e-06 -7.223523e-06 1.3763215)
(-3.5189512e-06 -1.7326019e-05 1.3763146)
(-1.7363113e-05 -9.0847895e-06 1.3763142)
(-6.9099353e-06 -6.9099353e-06 1.3763124)
(9.8361257e-06 -6.6935831e-06 1.3763141)
(6.8549164e-06 -7.2721146e-06 1.3763152)
(2.9050867e-06 -8.4958305e-06 1.3763152)
(3.5888853e-06 -1.0563131e-05 1.3763143)
(1.6853642e-05 -1.3249154e-05 1.3763138)
(2.4301278e-05 -1.3634298e-05 1.3763174)
(6.8833161e-06 -1.0570759e-05 1.3763198)
(-2.8251445e-06 8.9329069e-06 1.3763161)
(-1.603034e-05 9.7896099e-06 1.3763158)
(-6.6935831e-06 9.8361257e-06 1.3763141)
(9.4274306e-06 9.4274305e-06 1.3763157)
(5.9257709e-06 8.6725299e-06 1.3763167)
(1.3335893e-06 7.5525115e-06 1.3763164)
(1.1423682e-06 5.910987e-06 1.3763152)
(1.3842998e-05 3.5881793e-06 1.3763143)
(2.159042e-05 1.1195314e-06 1.3763174)
(6.1023863e-06 -8.8832897e-07 1.3763196)
(-2.9478159e-06 8.4629942e-06 1.3763174)
(-1.6459894e-05 7.7280185e-06 1.376317)
(-7.2721146e-06 6.8549164e-06 1.3763152)
(8.6725299e-06 5.9257709e-06 1.3763167)
(4.9799973e-06 4.9799973e-06 1.3763174)
(1.4354383e-07 3.9886108e-06 1.376317)
(-3.7544683e-07 2.8976697e-06 1.3763156)
(1.2062186e-05 1.6605963e-06 1.3763144)
(1.9824769e-05 4.151767e-07 1.3763173)
(5.5447423e-06 -6.4781531e-07 1.3763192)
(-3.3151283e-06 6.0123626e-06 1.3763178)
(-1.7638418e-05 4.624606e-06 1.3763172)
(-8.4958305e-06 2.9050867e-06 1.3763152)
(7.5525115e-06 1.3335893e-06 1.3763164)
(3.9886108e-06 1.4354382e-07 1.376317)
(-7.487383e-07 -7.487383e-07 1.3763164)
(-1.1856462e-06 -1.3919087e-06 1.3763149)
(1.1360505e-05 -1.7822038e-06 1.3763136)
(1.9282009e-05 -1.8842854e-06 1.3763164)
(5.3937249e-06 -1.7603651e-06 1.3763183)
(-3.872987e-06 6.8458625e-06 1.3763176)
(-1.956717e-05 5.8956922e-06 1.3763167)
(-1.0563131e-05 3.5888853e-06 1.3763143)
(5.910987e-06 1.1423682e-06 1.3763152)
(2.8976697e-06 -3.7544682e-07 1.3763156)
(-1.3919087e-06 -1.1856462e-06 1.3763149)
(-1.4089123e-06 -1.4089123e-06 1.3763133)
(1.156981e-05 -9.9074545e-07 1.376312)
(1.9846608e-05 1.4854626e-07 1.376315)
(5.6273558e-06 1.8493441e-06 1.376317)
(-3.9485751e-06 1.2550158e-05 1.3763178)
(-2.0895395e-05 1.6914166e-05 1.3763167)
(-1.3249154e-05 1.6853642e-05 1.3763138)
(3.5881793e-06 1.3842998e-05 1.3763143)
(1.6605963e-06 1.2062186e-05 1.3763144)
(-1.7822038e-06 1.1360506e-05 1.3763136)
(-9.9074545e-07 1.156981e-05 1.376312)
(1.2917964e-05 1.2917964e-05 1.376311)
(2.2122098e-05 1.5690632e-05 1.3763144)
(6.5275903e-06 1.9280908e-05 1.376317)
(-9.6364785e-07 1.0629406e-05 1.3763199)
(-1.5263686e-05 1.8912025e-05 1.3763201)
(-1.3634298e-05 2.4301278e-05 1.3763174)
(1.1195314e-06 2.159042e-05 1.3763174)
(4.151767e-07 1.9824769e-05 1.3763173)
(-1.8842854e-06 1.9282009e-05 1.3763164)
(1.4854625e-07 1.9846608e-05 1.376315)
(1.5690632e-05 2.2122098e-05 1.3763144)
(2.6209553e-05 2.6209553e-05 1.3763186)
(8.0208738e-06 1.983605e-05 1.3763225)
(1.5731708e-06 1.5232076e-06 1.3763205)
(-7.223523e-06 4.0600264e-06 1.3763215)
(-1.0570759e-05 6.8833161e-06 1.3763198)
(-8.8832897e-07 6.1023863e-06 1.3763196)
(-6.4781532e-07 5.5447423e-06 1.3763192)
(-1.7603651e-06 5.3937249e-06 1.3763183)
(1.8493441e-06 5.6273558e-06 1.376317)
(1.9280908e-05 6.5275902e-06 1.376317)
(1.983605e-05 8.0208738e-06 1.3763225)
(2.2785874e-06 2.2785874e-06 1.3763225)
(1.6892827e-06 1.6892827e-06 1.361243)
(-2.0238679e-05 -8.8712749e-06 1.3612439)
(-1.8152463e-05 -3.6118056e-06 1.3612409)
(1.0321793e-05 -2.8683036e-06 1.3612425)
(9.2200702e-06 -3.0228749e-06 1.3612437)
(6.010204e-06 -3.4595708e-06 1.3612439)
(6.7127124e-06 -4.1350172e-06 1.3612434)
(1.3483874e-05 -4.288793e-06 1.3612433)
(1.1753102e-05 -8.9794615e-07 1.3612449)
(1.6600977e-06 1.9262549e-06 1.3612452)
(-8.8712749e-06 -2.0238679e-05 1.3612439)
(-2.8190309e-05 -2.8190309e-05 1.3612424)
(-9.148009e-06 -1.826059e-05 1.3612408)
(1.1205189e-05 -1.6855629e-05 1.3612425)
(8.3331694e-06 -1.739343e-05 1.3612436)
(4.3419906e-06 -1.8789733e-05 1.3612435)
(5.4688792e-06 -2.1088573e-05 1.3612428)
(1.833948e-05 -2.2770839e-05 1.3612424)
(2.1075674e-05 -1.642068e-05 1.3612451)