/*--------------------------------*- C++ -*----------------------------------*\
| =========                 |                                                 |
| \\      /  F ield         | OpenFOAM: The Open Source CFD Toolbox           |
|  \\    /   O peration     | Version:  v2106                                 |
|   \\  /    A nd           | Website:  www.openfoam.com                      |
|    \\/     M anipulation  |                                                 |
\*---------------------------------------------------------------------------*/
FoamFile
{
    version     2.0;
    format      ascii;
    arch        "LSB;label=32;scalar=64";
    class       volVectorField;
    location    "20";
    object      flux;
}
// * * * * * * * * * * * * * * * * * * * * * * * * * * * * * * * * * * * * * //

dimensions      [0 1 -1 1 0 0 0];

internalField   nonuniform List<vector> 
4000
(
(2.9249974e-07 2.9249974e-07 0.48980052)
(4.0778286e-08 -8.5119002e-09 0.48980318)
(-4.8754315e-07 4.1087744e-08 0.48980039)
(-1.2038353e-07 4.745327e-08 0.4897996)
(-2.4810786e-08 4.8997642e-08 0.48979934)
(4.1836937e-08 5.0630872e-08 0.48979939)
(8.9788233e-08 5.4085652e-08 0.48979969)
(1.0196464e-07 6.2411899e-08 0.48980015)
(5.5819993e-08 7.7789297e-08 0.48980056)
(5.2050489e-09 8.1032997e-08 0.48980058)
(-8.511901e-09 4.0778283e-08 0.48980318)
(-3.3633973e-07 -3.3633973e-07 0.48980321)
(-4.0359539e-07 -2.503706e-07 0.48980081)
(-1.0851868e-07 -2.3695661e-07 0.48980009)
(-2.0044382e-08 -2.3185086e-07 0.48979985)
(4.9468954e-08 -2.2625082e-07 0.48979992)
(1.0745977e-07 -2.1558219e-07 0.48980027)
(1.3752011e-07 -1.9012228e-07 0.48980083)
(8.3751642e-08 -1.3349135e-07 0.48980144)
(8.4487498e-09 -6.2579442e-08 0.48980139)
(4.1087746e-08 -4.8754315e-07 0.48980039)
(-2.503706e-07 -4.0359539e-07 0.48980081)
(-3.8816003e-07 -3.8816002e-07 0.48979851)
(-1.0186379e-07 -3.8116182e-07 0.48979782)
(-1.4105001e-08 -3.7561225e-07 0.4897976)
(5.8105598e-08 -3.6968257e-07 0.4897977)
(1.2591677e-07 -3.6088001e-07 0.48979809)
(1.8405549e-07 -3.4364474e-07 0.48979877)
(1.8336283e-07 -3.0487209e-07 0.48979966)
(5.2479651e-08 -2.3466529e-07 0.48980012)
(4.745327e-08 -1.2038352e-07 0.4897996)
(-2.369566e-07 -1.0851869e-07 0.48980009)
(-3.8116182e-07 -1.0186379e-07 0.48979782)
(-9.5970909e-08 -9.5970905e-08 0.48979717)
(-8.5651334e-09 -9.0687287e-08 0.48979697)
(6.4201193e-08 -8.5522267e-08 0.48979709)
(1.334976e-07 -7.9765587e-08 0.48979751)
(1.9352803e-07 -7.2965173e-08 0.48979822)
(1.927311e-07 -6.5481693e-08 0.48979917)
(5.5253286e-08 -6.0313107e-08 0.48979967)
(4.8997639e-08 -2.4810784e-08 0.48979934)
(-2.3185086e-07 -2.0044378e-08 0.48979985)
(-3.7561225e-07 -1.4105002e-08 0.4897976)
(-9.0687284e-08 -8.5651374e-09 0.48979697)
(-3.6563629e-09 -3.6563613e-09 0.48979679)
(6.9027298e-08 7.7290021e-10 0.48979693)
(1.3847387e-07 5.0182486e-09 0.48979737)
(1.9833938e-07 9.1399192e-09 0.4897981)
(1.960149e-07 1.2639286e-08 0.48979907)
(5.5925376e-08 1.422604e-08 0.48979959)
(5.0630874e-08 4.1836938e-08 0.48979939)
(-2.2625082e-07 4.9468958e-08 0.48979992)
(-3.6968258e-07 5.8105601e-08 0.4897977)
(-8.5522268e-08 6.4201191e-08 0.48979709)
(7.7290424e-10 6.9027296e-08 0.48979693)
(7.2875803e-08 7.2875801e-08 0.48979709)
(1.4186462e-07 7.5979732e-08 0.48979755)
(2.0114907e-07 7.8396088e-08 0.48979829)
(1.9781722e-07 7.9974333e-08 0.48979926)
(5.6311122e-08 8.0578061e-08 0.48979979)
(5.4085652e-08 8.9788228e-08 0.48979969)
(-2.155822e-07 1.0745977e-07 0.48980027)
(-3.6088001e-07 1.2591677e-07 0.48979809)
(-7.9765589e-08 1.3349761e-07 0.48979751)
(5.0182471e-09 1.3847386e-07 0.48979737)
(7.5979734e-08 1.4186462e-07 0.48979755)
(1.4399415e-07 1.4399415e-07 0.48979801)
(2.0233398e-07 1.4487674e-07 0.48979876)
(1.9819687e-07 1.4444147e-07 0.48979974)
(5.6327861e-08 1.4337145e-07 0.48980026)
(6.24119e-08 1.0196464e-07 0.48980015)
(-1.9012228e-07 1.3752011e-07 0.48980083)
(-3.4364474e-07 1.8405549e-07 0.48979877)
(-7.2965176e-08 1.9352804e-07 0.48979822)
(9.1399154e-09 1.9833938e-07 0.4897981)
(7.8396092e-08 2.0114907e-07 0.48979829)
(1.4487674e-07 2.0233398e-07 0.48979876)
(2.0159639e-07 2.0159639e-07 0.48979952)
(1.9631193e-07 1.9824156e-07 0.48980049)
(5.5597771e-08 1.9325247e-07 0.489801)
(7.7789297e-08 5.5819995e-08 0.48980056)
(-1.3349135e-07 8.3751642e-08 0.48980144)
(-3.0487209e-07 1.8336283e-07 0.48979966)
(-6.5481696e-08 1.927311e-07 0.48979917)
(1.2639282e-08 1.960149e-07 0.48979907)
(7.9974336e-08 1.9781722e-07 0.48979926)
(1.4444147e-07 1.9819687e-07 0.48979974)
(1.9824156e-07 1.9631193e-07 0.48980049)
(1.8985295e-07 1.8985295e-07 0.48980143)
(5.3001799e-08 1.7726114e-07 0.48980191)
(8.1032997e-08 5.2050483e-09 0.48980058)
(-6.2579441e-08 8.4487486e-09 0.48980139)
(-2.3466528e-07 5.2479651e-08 0.48980012)
(-6.0313108e-08 5.5253285e-08 0.48979967)
(1.422604e-08 5.5925376e-08 0.48979959)
(8.0578064e-08 5.6311123e-08 0.48979979)
(1.4337145e-07 5.6327862e-08 0.48980026)
(1.9325247e-07 5.5597772e-08 0.489801)
(1.7726114e-07 5.30018e-08 0.48980191)
(4.7203234e-08 4.7203234e-08 0.48980229)
(1.8754255e-06 1.8754255e-06 1.0431399)
(-3.4416073e-07 5.4873625e-08 1.0431428)
(-4.1176672e-06 3.1522764e-07 1.0431379)
(-1.2851545e-06 3.6585953e-07 1.0431363)
(-2.617042e-07 3.8180486e-07 1.0431357)
(4.3077282e-07 3.9830588e-07 1.0431359)
(9.2273717e-07 4.33366e-07 1.0431366)
(1.0466464e-06 5.2053785e-07 1.0431377)
(5.0404114e-07 6.8326291e-07 1.0431388)
(8.2940896e-09 5.9635548e-07 1.0431383)
(5.4873623e-08 -3.4416074e-07 1.0431428)
(-2.6844583e-06 -2.6844583e-06 1.0431422)
(-3.6511884e-06 -2.1834556e-06 1.0431378)
(-1.1852887e-06 -2.0628263e-06 1.0431363)
(-2.1303467e-07 -2.0097414e-06 1.0431358)
(5.0811453e-07 -1.9535959e-06 1.043136)
(1.1060851e-06 -1.8464701e-06 1.0431368)
(1.4214918e-06 -1.5840922e-06 1.0431382)
(6.1776762e-07 -9.9035144e-07 1.0431399)
(-7.8613341e-08 -5.2965846e-07 1.0431395)
(3.1522765e-07 -4.1176672e-06 1.0431379)
(-2.1834556e-06 -3.6511884e-06 1.0431378)
(-3.4960353e-06 -3.4960353e-06 1.0431336)
(-1.1114404e-06 -3.417941e-06 1.0431322)
(-1.5247384e-07 -3.3608547e-06 1.0431317)
(5.9404412e-07 -3.3018437e-06 1.043132)
(1.2922408e-06 -3.2145134e-06 1.0431329)
(1.9027649e-06 -3.0395669e-06 1.0431345)
(1.5584747e-06 -2.6273284e-06 1.0431368)
(3.1542268e-07 -1.9716409e-06 1.0431373)
(3.6585953e-07 -1.2851545e-06 1.0431363)
(-2.0628263e-06 -1.1852887e-06 1.0431363)
(-3.417941e-06 -1.1114404e-06 1.0431322)
(-1.0501081e-06 -1.0501081e-06 1.0431308)
(-9.6937311e-08 -9.9697546e-07 1.0431304)
(6.544558e-07 -9.4564143e-07 1.0431307)
(1.368362e-06 -8.8869697e-07 1.0431316)
(2.0086769e-06 -8.2031196e-07 1.0431333)
(1.6856938e-06 -7.3408436e-07 1.0431357)
(3.5851175e-07 -6.5715606e-07 1.0431364)
(3.8180486e-07 -2.617042e-07 1.0431357)
(-2.0097414e-06 -2.1303468e-07 1.0431358)
(-3.3608547e-06 -1.5247384e-07 1.0431317)
(-9.9697546e-07 -9.6937312e-08 1.0431304)
(-4.800719e-08 -4.800719e-08 1.04313)
(7.0232261e-07 -3.9566923e-09 1.0431304)
(1.4175702e-06 3.8136338e-08 1.0431314)
(2.0573775e-06 7.8910836e-08 1.0431331)
(1.7216306e-06 1.1471265e-07 1.0431355)
(3.6670822e-07 1.3265538e-07 1.0431362)
(3.9830588e-07 4.3077282e-07 1.0431359)
(-1.9535959e-06 5.0811453e-07 1.043136)
(-3.3018437e-06 5.9404413e-07 1.043132)
(-9.4564143e-07 6.5445581e-07 1.0431307)
(-3.9566921e-09 7.0232261e-07 1.0431304)
(7.4059933e-07 7.4059933e-07 1.0431308)
(1.4512295e-06 7.7153337e-07 1.0431318)
(2.0852532e-06 7.9560284e-07 1.0431335)
(1.7394384e-06 8.1137301e-07 1.043136)
(3.7047356e-07 8.1734107e-07 1.0431367)
(4.33366e-07 9.2273717e-07 1.0431366)
(-1.8464701e-06 1.1060851e-06 1.0431368)
(-3.2145134e-06 1.2922408e-06 1.0431329)
(-8.8869697e-07 1.368362e-06 1.0431316)
(3.8136335e-08 1.4175702e-06 1.0431314)
(7.7153337e-07 1.4512295e-06 1.0431318)
(1.4725737e-06 1.4725737e-06 1.0431328)
(2.0972171e-06 1.481558e-06 1.0431346)
(1.7433689e-06 1.4771863e-06 1.0431371)
(3.7068693e-07 1.4662444e-06 1.0431378)
(5.2053785e-07 1.0466464e-06 1.0431377)
(-1.5840922e-06 1.4214918e-06 1.0431382)
(-3.0395669e-06 1.9027649e-06 1.0431345)
(-8.2031197e-07 2.0086769e-06 1.0431333)
(7.8910831e-08 2.0573775e-06 1.0431331)
(7.9560284e-07 2.0852532e-06 1.0431335)
(1.481558e-06 2.0972171e-06 1.0431346)
(2.0898658e-06 2.0898658e-06 1.0431363)
(1.7241247e-06 2.0545312e-06 1.0431388)
(3.6317897e-07 1.9982408e-06 1.0431395)
(6.832629e-07 5.0404114e-07 1.0431388)
(-9.9035144e-07 6.1776763e-07 1.0431399)
(-2.6273284e-06 1.5584747e-06 1.0431368)
(-7.3408436e-07 1.6856938e-06 1.0431357)
(1.1471265e-07 1.7216306e-06 1.0431355)
(8.1137301e-07 1.7394384e-06 1.043136)
(1.4771863e-06 1.7433689e-06 1.0431371)
(2.0545312e-06 1.7241247e-06 1.0431388)
(1.6517439e-06 1.6517439e-06 1.0431412)
(3.3316001e-07 1.4819272e-06 1.0431418)
(5.9635549e-07 8.2940875e-09 1.0431383)
(-5.2965846e-07 -7.861334e-08 1.0431395)
(-1.9716409e-06 3.1542268e-07 1.0431373)
(-6.5715606e-07 3.5851175e-07 1.0431364)
(1.3265537e-07 3.6670822e-07 1.0431362)
(8.1734107e-07 3.7047356e-07 1.0431367)
(1.4662444e-06 3.7068693e-07 1.0431378)
(1.9982408e-06 3.6317897e-07 1.0431395)
(1.4819272e-06 3.3316001e-07 1.0431418)
(2.499678e-07 2.499678e-07 1.0431417)
(2.1464455e-06 2.1464455e-06 1.0359779)
(-2.01532e-06 -4.5498477e-07 1.0359784)
(-6.9261989e-06 -5.9517629e-08 1.0359744)
(-2.2496259e-06 2.3168847e-08 1.0359731)
(-3.9140571e-07 5.0857319e-08 1.0359727)
(9.2790863e-07 7.9280908e-08 1.035973)
(1.9326534e-06 1.4415154e-07 1.0359738)
(2.2536288e-06 3.3467644e-07 1.0359752)
(6.4398866e-07 8.0199615e-07 1.0359768)
(-2.9192486e-07 8.2862433e-07 1.0359763)
(-4.5498477e-07 -2.01532e-06 1.0359784)
(-5.3242656e-06 -5.3242656e-06 1.0359767)
(-6.2089688e-06 -4.5434785e-06 1.0359732)
(-2.0840635e-06 -4.3383509e-06 1.0359719)
(-3.0723762e-07 -4.2445065e-06 1.0359716)
(1.06785e-06 -4.1484087e-06 1.0359719)
(2.3157467e-06 -3.9613839e-06 1.0359728)
(3.2403957e-06 -3.4535238e-06 1.0359745)
(1.3849107e-06 -2.1182394e-06 1.035977)
(-2.6529668e-07 -1.0665477e-06 1.0359768)
(-5.9517631e-08 -6.9261989e-06 1.0359744)
(-4.5434785e-06 -6.2089688e-06 1.0359732)
(-5.9402847e-06 -5.9402847e-06 1.0359698)
(-1.9506539e-06 -5.7978133e-06 1.0359686)
(-2.0146353e-07 -5.6952392e-06 1.0359683)
(1.2110311e-06 -5.5936192e-06 1.0359687)
(2.627538e-06 -5.448644e-06 1.0359696)
(4.0967728e-06 -5.1543658e-06 1.0359715)
(3.0309644e-06 -4.4049008e-06 1.0359745)
(4.0920275e-07 -3.2708873e-06 1.0359751)
(2.3168845e-08 -2.2496259e-06 1.0359731)
(-4.3383509e-06 -2.0840635e-06 1.0359719)
(-5.7978133e-06 -1.9506539e-06 1.0359686)
(-1.8390179e-06 -1.8390179e-06 1.0359675)
(-1.0304353e-07 -1.7437122e-06 1.0359673)
(1.3144452e-06 -1.6537439e-06 1.0359676)
(2.7550001e-06 -1.5566121e-06 1.0359687)
(4.2841391e-06 -1.4415176e-06 1.0359705)
(3.2683898e-06 -1.2844083e-06 1.0359737)
(4.9071252e-07 -1.1393883e-06 1.0359744)
(5.0857317e-08 -3.9140571e-07 1.0359727)
(-4.2445065e-06 -3.0723762e-07 1.0359716)
(-5.6952392e-06 -2.0146353e-07 1.0359683)
(-1.7437122e-06 -1.0304353e-07 1.0359673)
(-1.6189458e-08 -1.6189457e-08 1.035967)
(1.3981312e-06 6.1618426e-08 1.0359674)
(2.8397643e-06 1.3531853e-07 1.0359685)
(4.3689766e-06 2.0613542e-07 1.0359704)
(3.3330938e-06 2.7006552e-07 1.0359736)
(5.0588275e-07 3.0330482e-07 1.0359743)
(7.9280906e-08 9.2790863e-07 1.035973)
(-4.1484087e-06 1.06785e-06 1.0359719)
(-5.5936192e-06 1.2110311e-06 1.0359687)
(-1.6537439e-06 1.3144452e-06 1.0359676)
(6.1618429e-08 1.3981312e-06 1.0359674)
(1.4659532e-06 1.4659532e-06 1.0359679)
(2.8995171e-06 1.5214799e-06 1.035969)
(4.4188861e-06 1.5653857e-06 1.0359709)
(3.3655592e-06 1.5952107e-06 1.0359741)
(5.1287206e-07 1.6079362e-06 1.0359748)
(1.4415154e-07 1.9326534e-06 1.0359738)
(-3.9613839e-06 2.3157467e-06 1.0359728)
(-5.448644e-06 2.627538e-06 1.0359696)
(-1.5566121e-06 2.7550001e-06 1.0359687)
(1.3531854e-07 2.8397643e-06 1.0359685)
(1.5214799e-06 2.8995171e-06 1.035969)
(2.9391968e-06 2.9391968e-06 1.0359701)
(4.4427074e-06 2.9579548e-06 1.035972)
(3.3756443e-06 2.9519963e-06 1.0359752)
(5.143664e-07 2.9326392e-06 1.0359759)
(3.3467644e-07 2.2536288e-06 1.0359752)
(-3.4535238e-06 3.2403957e-06 1.0359745)
(-5.1543658e-06 4.0967728e-06 1.0359715)
(-1.4415176e-06 4.2841391e-06 1.0359705)
(2.0613541e-07 4.3689766e-06 1.0359704)
(1.5653857e-06 4.418886e-06 1.0359709)
(2.9579548e-06 4.4427074e-06 1.035972)
(4.4316856e-06 4.4316856e-06 1.035974)
(3.3402437e-06 4.3565005e-06 1.0359771)
(4.9996731e-07 4.2001799e-06 1.0359779)
(8.0199615e-07 6.4398866e-07 1.0359768)
(-2.1182394e-06 1.3849107e-06 1.035977)
(-4.4049008e-06 3.0309644e-06 1.0359745)
(-1.2844083e-06 3.2683898e-06 1.0359737)
(2.7006552e-07 3.3330938e-06 1.0359736)
(1.5952107e-06 3.3655592e-06 1.0359741)
(2.9519963e-06 3.3756443e-06 1.0359752)
(4.3565005e-06 3.3402437e-06 1.0359771)
(3.1441385e-06 3.1441385e-06 1.0359803)
(4.1015259e-07 2.3440249e-06 1.0359809)
(8.2862433e-07 -2.9192486e-07 1.0359763)
(-1.0665477e-06 -2.6529668e-07 1.0359768)
(-3.2708873e-06 4.0920275e-07 1.0359751)
(-1.1393883e-06 4.9071252e-07 1.0359744)
(3.0330482e-07 5.0588275e-07 1.0359743)
(1.6079362e-06 5.1287206e-07 1.0359748)
(2.9326392e-06 5.1436641e-07 1.0359759)
(4.2001799e-06 4.9996731e-07 1.0359779)
(2.3440249e-06 4.1015259e-07 1.0359809)
(-3.344174e-08 -3.344174e-08 1.03598)
(2.1544578e-06 2.1544578e-06 1.0253355)
(-3.8883102e-06 -1.0567915e-06 1.0253353)
(-9.3828605e-06 -5.0556196e-07 1.0253317)
(-2.9544885e-06 -3.9031896e-07 1.0253307)
(-3.5131712e-07 -3.5329671e-07 1.0253305)
(1.5720966e-06 -3.183955e-07 1.025331)
(3.1861924e-06 -2.3583516e-07 1.0253319)
(4.0306551e-06 3.7567489e-08 1.0253336)
(1.5961516e-06 8.0904519e-07 1.0253357)
(-3.2006892e-07 9.388789e-07 1.0253359)
(-1.0567915e-06 -3.8883102e-06 1.0253353)
(-7.8783402e-06 -7.8783402e-06 1.0253335)
(-8.3831522e-06 -6.7821656e-06 1.0253303)
(-2.7260906e-06 -6.4935021e-06 1.0253294)
(-2.4343195e-07 -6.3668935e-06 1.0253293)
(1.7482889e-06 -6.2472264e-06 1.0253297)
(3.7201368e-06 -6.0138597e-06 1.0253307)
(5.5979755e-06 -5.3160325e-06 1.0253326)
(2.9481191e-06 -3.2593073e-06 1.0253357)
(-1.9023521e-07 -1.6699364e-06 1.0253362)
(-5.0556196e-07 -9.3828605e-06 1.0253317)
(-6.7821656e-06 -8.3831522e-06 1.0253303)
(-7.9980231e-06 -7.9980231e-06 1.0253274)
(-2.5392165e-06 -7.796058e-06 1.0253265)
(-1.0504144e-07 -7.6570022e-06 1.0253264)
(1.9251303e-06 -7.5278853e-06 1.0253269)
(4.117386e-06 -7.3513771e-06 1.0253279)
(6.7852064e-06 -6.9781294e-06 1.0253299)
(5.2422472e-06 -5.9253368e-06 1.0253335)
(7.3951137e-07 -4.3641064e-06 1.0253347)
(-3.9031896e-07 -2.9544884e-06 1.0253307)
(-6.4935021e-06 -2.7260906e-06 1.0253294)
(-7.796058e-06 -2.5392165e-06 1.0253265)
(-2.3850697e-06 -2.3850697e-06 1.0253258)
(2.4740795e-08 -2.2570867e-06 1.0253257)
(2.0539141e-06 -2.1408736e-06 1.0253262)
(4.2698929e-06 -2.0209601e-06 1.0253272)
(7.024016e-06 -1.8826911e-06 1.0253292)
(5.5621433e-06 -1.6763739e-06 1.0253328)
(8.5058546e-07 -1.481586e-06 1.0253341)
(-3.5329671e-07 -3.5131713e-07 1.0253305)
(-6.3668935e-06 -2.4343194e-07 1.0253293)
(-7.6570023e-06 -1.0504144e-07 1.0253264)
(-2.2570867e-06 2.4740796e-08 1.0253257)
(1.3915466e-07 1.3915467e-07 1.0253256)
(2.1612569e-06 2.4074098e-07 1.0253261)
(4.3755685e-06 3.3558204e-07 1.0253272)
(7.1297926e-06 4.2534425e-07 1.0253292)
(5.6433524e-06 5.082683e-07 1.0253328)
(8.6936997e-07 5.5117069e-07 1.0253341)
(-3.183955e-07 1.5720966e-06 1.025331)
(-6.2472264e-06 1.7482889e-06 1.0253297)
(-7.5278853e-06 1.9251303e-06 1.0253269)
(-2.1408736e-06 2.0539141e-06 1.0253262)
(2.4074098e-07 2.1612569e-06 1.0253261)
(2.2503415e-06 2.2503415e-06 1.0253266)
(4.4544961e-06 2.3252131e-06 1.0253277)
(7.1967023e-06 2.3867501e-06 1.0253297)
(5.6879697e-06 2.4321244e-06 1.0253334)
(8.7918706e-07 2.4559677e-06 1.0253347)
(-2.3583516e-07 3.1861924e-06 1.0253319)
(-6.0138597e-06 3.7201368e-06 1.0253307)
(-7.3513771e-06 4.117386e-06 1.0253279)
(-2.0209601e-06 4.2698929e-06 1.0253272)
(3.3558205e-07 4.3755685e-06 1.0253272)
(2.3252131e-06 4.4544961e-06 1.0253277)
(4.5119771e-06 4.5119771e-06 1.0253288)
(7.2367039e-06 4.5469846e-06 1.0253308)
(5.7125699e-06 4.5539218e-06 1.0253345)
(8.852655e-07 4.546563e-06 1.0253359)
(3.756749e-08 4.0306551e-06 1.0253336)
(-5.3160325e-06 5.5979755e-06 1.0253326)
(-6.9781294e-06 6.7852064e-06 1.0253299)
(-1.8826911e-06 7.024016e-06 1.0253292)
(4.2534425e-07 7.1297926e-06 1.0253292)
(2.3867501e-06 7.1967023e-06 1.0253297)
(4.5469846e-06 7.2367039e-06 1.0253308)
(7.2386469e-06 7.2386469e-06 1.0253329)
(5.6875481e-06 7.15386e-06 1.0253366)
(8.7428119e-07 6.919546e-06 1.0253379)
(8.090452e-07 1.5961516e-06 1.0253357)
(-3.2593073e-06 2.9481191e-06 1.0253357)
(-5.9253368e-06 5.2422472e-06 1.0253335)
(-1.6763739e-06 5.5621433e-06 1.0253328)
(5.0826831e-07 5.6433524e-06 1.0253328)
(2.4321244e-06 5.6879697e-06 1.0253334)
(4.5539218e-06 5.71257e-06 1.0253345)
(7.15386e-06 5.6875481e-06 1.0253366)
(5.3934689e-06 5.3934689e-06 1.0253403)
(7.2905608e-07 3.5514518e-06 1.0253415)
(9.3887889e-07 -3.2006892e-07 1.0253359)
(-1.6699364e-06 -1.9023521e-07 1.0253362)
(-4.3641064e-06 7.3951137e-07 1.0253347)
(-1.481586e-06 8.5058546e-07 1.0253341)
(5.5117069e-07 8.6936997e-07 1.0253341)
(2.4559677e-06 8.7918706e-07 1.0253347)
(4.546563e-06 8.852655e-07 1.0253359)
(6.919546e-06 8.7428119e-07 1.0253379)
(3.5514518e-06 7.2905608e-07 1.0253415)
(-3.5373028e-07 -3.5373028e-07 1.0253408)
(2.0487852e-06 2.0487852e-06 1.0116231)
(-5.7794332e-06 -1.6951079e-06 1.0116227)
(-1.1525478e-05 -9.6790381e-07 1.0116194)
(-3.3891288e-06 -8.1803913e-07 1.0116188)
(-1.3929046e-07 -7.7381127e-07 1.0116188)
(2.321452e-06 -7.3764795e-07 1.0116193)
(4.5453117e-06 -6.4810218e-07 1.0116204)
(6.0452668e-06 -3.0941385e-07 1.011622)
(3.0056326e-06 7.5678569e-07 1.0116244)
(-1.5920602e-07 1.000802e-06 1.0116251)
(-1.6951079e-06 -5.7794332e-06 1.0116227)
(-1.0304466e-05 -1.0304466e-05 1.0116208)
(-1.0209876e-05 -8.8544785e-06 1.0116181)
(-3.09799e-06 -8.4798303e-06 1.0116175)
(-1.8703708e-08 -8.3284186e-06 1.0116176)
(2.5100156e-06 -8.2021799e-06 1.0116181)
(5.1876627e-06 -7.9550501e-06 1.0116191)
(8.1525982e-06 -7.1202164e-06 1.011621)
(4.970957e-06 -4.383996e-06 1.0116242)
(8.4810354e-08 -2.26928e-06 1.0116252)
(-9.6790381e-07 -1.1525478e-05 1.0116194)
(-8.8544785e-06 -1.0209876e-05 1.0116181)
(-9.700843e-06 -9.7008429e-06 1.0116155)
(-2.8630691e-06 -9.4434466e-06 1.011615)
(1.3835985e-07 -9.2782728e-06 1.0116151)
(2.6948205e-06 -9.1391461e-06 1.0116156)
(5.6272748e-06 -8.9602156e-06 1.0116166)
(9.6163193e-06 -8.5527482e-06 1.0116185)
(7.8565685e-06 -7.2440806e-06 1.0116222)
(1.2506042e-06 -5.3013796e-06 1.0116239)
(-8.1803913e-07 -3.3891288e-06 1.0116188)
(-8.4798303e-06 -3.09799e-06 1.0116175)
(-9.4434466e-06 -2.8630691e-06 1.011615)
(-2.6754198e-06 -2.6754198e-06 1.0116145)
(2.8559688e-07 -2.5264771e-06 1.0116147)
(2.8280729e-06 -2.3992376e-06 1.0116152)
(5.7740608e-06 -2.2773829e-06 1.0116162)
(9.8687335e-06 -2.1439492e-06 1.0116181)
(8.2223273e-06 -1.9177544e-06 1.0116218)
(1.3799449e-06 -1.697374e-06 1.0116235)
(-7.7381127e-07 -1.3929046e-07 1.0116188)
(-8.3284186e-06 -1.8703698e-08 1.0116176)
(-9.2782728e-06 1.3835985e-07 1.0116151)
(-2.5264771e-06 2.8559688e-07 1.0116147)
(4.1454212e-07 4.1454212e-07 1.0116148)
(2.9439146e-06 5.2727047e-07 1.0116153)
(5.8825632e-06 6.3016017e-07 1.0116163)
(9.9759478e-06 7.2506027e-07 1.0116182)
(8.3031439e-06 8.1467028e-07 1.0116219)
(1.3975245e-06 8.5885439e-07 1.0116236)
(-7.3764795e-07 2.321452e-06 1.0116193)
(-8.2021799e-06 2.5100156e-06 1.0116181)
(-9.1391461e-06 2.6948205e-06 1.0116156)
(-2.3992376e-06 2.8280729e-06 1.0116152)
(5.2727046e-07 2.9439146e-06 1.0116153)
(3.0436909e-06 3.0436909e-06 1.0116158)
(5.9718506e-06 3.1311882e-06 1.0116168)
(1.0053244e-05 3.2075464e-06 1.0116187)
(8.3561215e-06 3.270121e-06 1.0116224)
(1.409401e-06 3.3098646e-06 1.0116241)
(-6.4810218e-07 4.5453117e-06 1.0116204)
(-7.9550501e-06 5.1876627e-06 1.0116191)
(-8.9602156e-06 5.6272748e-06 1.0116166)
(-2.2773829e-06 5.7740608e-06 1.0116162)
(6.3016016e-07 5.8825632e-06 1.0116163)
(3.1311882e-06 5.9718506e-06 1.0116168)
(6.0464186e-06 6.0464186e-06 1.0116179)
(1.0114881e-05 6.1061537e-06 1.0116198)
(8.4054621e-06 6.1455152e-06 1.0116235)
(1.4240203e-06 6.1783664e-06 1.0116252)
(-3.0941384e-07 6.0452668e-06 1.011622)
(-7.1202164e-06 8.1525982e-06 1.011621)
(-8.5527482e-06 9.6163193e-06 1.0116185)
(-2.1439492e-06 9.8687335e-06 1.0116181)
(7.2506026e-07 9.9759478e-06 1.0116182)
(3.2075464e-06 1.0053244e-05 1.0116187)
(6.1061537e-06 1.0114881e-05 1.0116198)
(1.015234e-05 1.015234e-05 1.0116217)
(8.4283341e-06 1.0107242e-05 1.0116255)
(1.4313018e-06 9.8700621e-06 1.0116273)
(7.5678569e-07 3.0056326e-06 1.0116244)
(-4.383996e-06 4.970957e-06 1.0116242)
(-7.2440806e-06 7.8565685e-06 1.0116222)
(-1.9177544e-06 8.2223273e-06 1.0116218)
(8.1467029e-07 8.3031439e-06 1.0116219)
(3.2701209e-06 8.3561215e-06 1.0116224)
(6.1455152e-06 8.4054621e-06 1.0116235)
(1.0107242e-05 8.4283341e-06 1.0116255)
(8.1231839e-06 8.1231839e-06 1.0116293)
(1.2659004e-06 5.1843106e-06 1.0116311)
(1.000802e-06 -1.5920601e-07 1.0116251)
(-2.26928e-06 8.4810354e-08 1.0116252)
(-5.3013796e-06 1.2506042e-06 1.0116239)
(-1.697374e-06 1.3799449e-06 1.0116235)
(8.5885439e-07 1.3975245e-06 1.0116236)
(3.3098645e-06 1.409401e-06 1.0116241)
(6.1783664e-06 1.4240203e-06 1.0116252)
(9.8700621e-06 1.4313018e-06 1.0116273)
(5.1843106e-06 1.2659004e-06 1.0116311)
(-5.2794716e-07 -5.2794716e-07 1.0116308)
(1.8865593e-06 1.8865594e-06 0.99520843)
(-7.5682908e-06 -2.3259061e-06 0.99520792)
(-1.3315654e-05 -1.4108966e-06 0.99520504)
(-3.5547188e-06 -1.2257994e-06 0.99520471)
(2.2259032e-07 -1.1767682e-06 0.99520496)
(3.1209572e-06 -1.1445174e-06 0.99520555)
(5.8994628e-06 -1.0583512e-06 0.99520655)
(8.091278e-06 -6.723016e-07 0.99520816)
(4.6126512e-06 6.7134733e-07 0.99521053)
(1.0643694e-07 1.0441544e-06 0.9952114)
(-2.3259061e-06 -7.5682908e-06 0.99520792)
(-1.2514474e-05 -1.2514474e-05 0.9952061)
(-1.1665496e-05 -1.0688843e-05 0.99520378)
(-3.2035263e-06 -1.0229183e-05 0.99520356)
(3.4451329e-07 -1.0061938e-05 0.99520382)
(3.2985826e-06 -9.9464584e-06 0.99520439)
(6.6077863e-06 -9.7179411e-06 0.99520537)
(1.0685825e-05 -8.8008167e-06 0.99520709)
(7.1873361e-06 -5.4462319e-06 0.99521027)
(4.7924406e-07 -2.8148487e-06 0.99521153)
(-1.4108966e-06 -1.3315654e-05 0.99520504)
(-1.0688843e-05 -1.1665496e-05 0.99520378)
(-1.1030365e-05 -1.1030365e-05 0.99520166)
(-2.9278138e-06 -1.0723661e-05 0.9952015)
(5.0531501e-07 -1.0544031e-05 0.99520177)
(3.4649539e-06 -1.0413427e-05 0.99520232)
(7.0451041e-06 -1.026209e-05 0.99520325)
(1.2362985e-05 -9.8671569e-06 0.99520498)
(1.0598619e-05 -8.3596508e-06 0.99520852)
(1.860692e-06 -6.0838659e-06 0.99521039)
(-1.2257994e-06 -3.5547188e-06 0.99520471)
(-1.0229183e-05 -3.2035263e-06 0.99520356)
(-1.0723661e-05 -2.9278138e-06 0.9952015)
(-2.7171923e-06 -2.7171923e-06 0.99520136)
(6.5474789e-07 -2.5604538e-06 0.99520163)
(3.580524e-06 -2.4387964e-06 0.99520217)
(7.1540562e-06 -2.3371578e-06 0.99520307)
(1.2588264e-05 -2.2380656e-06 0.99520472)
(1.0970629e-05 -2.0245094e-06 0.99520824)
(1.9964348e-06 -1.8042611e-06 0.99521011)
(-1.1767682e-06 2.2259032e-07 0.99520496)
(-1.0061938e-05 3.4451329e-07 0.99520382)
(-1.0544031e-05 5.0531501e-07 0.99520177)
(-2.5604538e-06 6.5474789e-07 0.99520163)
(7.8371089e-07 7.8371089e-07 0.99520191)
(3.6882499e-06 8.9350725e-07 0.99520243)
(7.2458349e-06 9.9003383e-07 0.9952033)
(1.2675633e-05 1.0749964e-06 0.99520493)
(1.1032423e-05 1.157437e-06 0.99520842)
(2.0075243e-06 1.1933916e-06 0.99521026)
(-1.1445174e-06 3.1209572e-06 0.99520555)
(-9.9464584e-06 3.2985826e-06 0.99520439)
(-1.0413427e-05 3.4649539e-06 0.99520232)
(-2.4387964e-06 3.580524e-06 0.99520217)
(8.9350724e-07 3.6882499e-06 0.99520243)
(3.786847e-06 3.786847e-06 0.99520295)
(7.3355454e-06 3.8792522e-06 0.99520382)
(1.2755668e-05 3.9668965e-06 0.99520544)
(1.1089024e-05 4.0476244e-06 0.99520892)
(2.0204045e-06 4.1071058e-06 0.99521077)
(-1.0583512e-06 5.8994628e-06 0.99520655)
(-9.7179411e-06 6.6077863e-06 0.99520537)
(-1.026209e-05 7.0451041e-06 0.99520325)
(-2.3371578e-06 7.1540562e-06 0.99520307)
(9.9003383e-07 7.245835e-06 0.9952033)
(3.8792522e-06 7.3355454e-06 0.99520382)
(7.4258845e-06 7.4258845e-06 0.99520469)
(1.2844005e-05 7.5186624e-06 0.99520634)
(1.1172633e-05 7.6096791e-06 0.99520986)
(2.0471786e-06 7.7088885e-06 0.99521175)
(-6.723016e-07 8.091278e-06 0.99520816)
(-8.8008167e-06 1.0685825e-05 0.99520709)
(-9.8671569e-06 1.2362985e-05 0.99520498)
(-2.2380656e-06 1.2588264e-05 0.99520472)
(1.0749964e-06 1.2675633e-05 0.99520493)
(3.9668965e-06 1.2755668e-05 0.99520544)
(7.5186624e-06 1.2844005e-05 0.99520634)
(1.2939462e-05 1.2939462e-05 0.99520803)
(1.1279251e-05 1.2982835e-05 0.99521164)
(2.0865441e-06 1.2817186e-05 0.99521364)
(6.7134733e-07 4.6126512e-06 0.99521053)
(-5.4462319e-06 7.1873361e-06 0.99521027)
(-8.3596508e-06 1.0598619e-05 0.99520852)
(-2.0245094e-06 1.0970629e-05 0.99520824)
(1.157437e-06 1.1032423e-05 0.99520842)
(4.0476244e-06 1.1089024e-05 0.99520892)
(7.6096791e-06 1.1172633e-05 0.99520986)
(1.2982835e-05 1.1279251e-05 0.99521164)
(1.1050356e-05 1.1050356e-05 0.99521538)
(1.9367459e-06 7.0830694e-06 0.99521748)
(1.0441544e-06 1.0643694e-07 0.9952114)
(-2.8148487e-06 4.7924406e-07 0.99521153)
(-6.0838659e-06 1.860692e-06 0.99521039)
(-1.8042611e-06 1.9964348e-06 0.99521011)
(1.1933916e-06 2.0075243e-06 0.99521026)
(4.1071058e-06 2.0204045e-06 0.99521077)
(7.7088885e-06 2.0471786e-06 0.99521175)
(1.2817186e-05 2.0865441e-06 0.99521364)
(7.0830694e-06 1.9367459e-06 0.99521748)
(-5.5831422e-07 -5.5831421e-07 0.99521752)
(1.7121184e-06 1.7121184e-06 0.97642613)
(-9.1535452e-06 -2.907843e-06 0.97642563)
(-1.4719374e-05 -1.8001862e-06 0.97642322)
(-3.4637931e-06 -1.5808529e-06 0.97642321)
(7.0060197e-07 -1.5297444e-06 0.97642362)
(3.9116424e-06 -1.5064689e-06 0.97642424)
(7.1523541e-06 -1.4337122e-06 0.97642515)
(1.00182e-05 -1.0188364e-06 0.97642658)
(6.2347325e-06 5.7801512e-07 0.97642878)
(4.1598546e-07 1.0864615e-06 0.97642971)
(-2.907843e-06 -9.1535452e-06 0.97642563)
(-1.4422e-05 -1.4422e-05 0.976424)
(-1.272889e-05 -1.2213781e-05 0.97642216)
(-3.0581305e-06 -1.1674138e-05 0.97642225)
(8.1217783e-07 -1.1501048e-05 0.97642267)
(4.0556907e-06 -1.141342e-05 0.97642325)
(7.8838026e-06 -1.123481e-05 0.9764241)
(1.303579e-05 -1.0290654e-05 0.97642559)
(9.3926806e-06 -6.3931639e-06 0.97642852)
(9.2443193e-07 -3.2697384e-06 0.97642985)
(-1.8001862e-06 -1.4719374e-05 0.97642322)
(-1.2213781e-05 -1.272889e-05 0.97642216)
(-1.1971513e-05 -1.1971513e-05 0.97642051)
(-2.7510604e-06 -1.1624188e-05 0.97642065)
(9.6132013e-07 -1.1442745e-05 0.97642107)
(4.1778802e-06 -1.1339218e-05 0.97642161)
(8.2751197e-06 -1.1244629e-05 0.97642239)
(1.4859843e-05 -1.0908e-05 0.97642382)
(1.3255648e-05 -9.2625644e-06 0.97642704)
(2.4982687e-06 -6.7061433e-06 0.97642891)
(-1.5808529e-06 -3.4637931e-06 0.97642321)
(-1.1674138e-05 -3.0581305e-06 0.97642225)
(-1.1624188e-05 -2.7510604e-06 0.97642065)
(-2.5293617e-06 -2.5293617e-06 0.97642081)
(1.097147e-06 -2.3787794e-06 0.97642122)
(4.2538062e-06 -2.2796258e-06 0.97642173)
(8.3150216e-06 -2.2201436e-06 0.97642245)
(1.5017855e-05 -2.1842208e-06 0.97642378)
(1.3594539e-05 -2.0158467e-06 0.97642692)
(2.6287137e-06 -1.8211018e-06 0.97642876)
(-1.5297444e-06 7.0060197e-07 0.97642362)
(-1.1501048e-05 8.1217783e-07 0.97642267)
(-1.1442745e-05 9.6132013e-07 0.97642107)
(-2.3787794e-06 1.097147e-06 0.97642122)
(1.2110561e-06 1.2110561e-06 0.97642161)
(4.336516e-06 1.303375e-06 0.9764221)
(8.3705247e-06 1.3788125e-06 0.97642277)
(1.506414e-05 1.4385851e-06 0.97642405)
(1.3618767e-05 1.4996859e-06 0.97642714)
(2.6280987e-06 1.5177571e-06 0.97642894)
(-1.5064689e-06 3.9116424e-06 0.97642424)
(-1.141342e-05 4.0556907e-06 0.97642325)
(-1.1339218e-05 4.1778802e-06 0.97642161)
(-2.2796258e-06 4.2538062e-06 0.97642173)
(1.3033749e-06 4.3365161e-06 0.9764221)
(4.4215627e-06 4.4215627e-06 0.97642256)
(8.4502317e-06 4.5105603e-06 0.97642322)
(1.5138728e-05 4.6052282e-06 0.97642448)
(1.3673712e-05 4.7040743e-06 0.97642757)
(2.6407612e-06 4.7860211e-06 0.97642937)
(-1.4337122e-06 7.1523541e-06 0.97642515)
(-1.123481e-05 7.8838026e-06 0.9764241)
(-1.1244629e-05 8.2751197e-06 0.97642239)
(-2.2201436e-06 8.3150216e-06 0.97642245)
(1.3788125e-06 8.3705247e-06 0.97642277)
(4.5105603e-06 8.4502317e-06 0.97642322)
(8.5541902e-06 8.5541902e-06 0.97642388)
(1.5257654e-05 8.6869743e-06 0.97642516)
(1.379956e-05 8.8466121e-06 0.97642829)
(2.6827299e-06 9.034874e-06 0.97643014)
(-1.0188364e-06 1.00182e-05 0.97642658)
(-1.0290654e-05 1.303579e-05 0.97642559)
(-1.0908e-05 1.4859844e-05 0.97642382)
(-2.1842208e-06 1.5017855e-05 0.97642378)
(1.4385851e-06 1.506414e-05 0.97642405)
(4.6052282e-06 1.5138728e-05 0.97642448)
(8.6869743e-06 1.5257654e-05 0.97642516)
(1.543115e-05 1.543115e-05 0.97642652)
(1.4021611e-05 1.5606966e-05 0.97642975)
(2.7662692e-06 1.5580024e-05 0.97643175)
(5.7801512e-07 6.2347325e-06 0.97642878)
(-6.3931639e-06 9.3926806e-06 0.97642852)
(-9.2625644e-06 1.3255648e-05 0.97642704)
(-2.0158467e-06 1.3594539e-05 0.97642692)
(1.4996859e-06 1.3618767e-05 0.97642714)
(4.7040743e-06 1.3673712e-05 0.97642757)
(8.8466121e-06 1.379956e-05 0.97642829)
(1.5606966e-05 1.4021611e-05 0.97642975)
(1.3948434e-05 1.3948434e-05 0.97643318)
(2.6647687e-06 9.0602164e-06 0.97643536)
(1.0864615e-06 4.1598547e-07 0.97642971)
(-3.2697384e-06 9.2443193e-07 0.97642985)
(-6.7061433e-06 2.4982687e-06 0.97642891)
(-1.8211018e-06 2.6287137e-06 0.97642876)
(1.5177571e-06 2.6280987e-06 0.97642894)
(4.7860211e-06 2.6407612e-06 0.97642937)
(9.034874e-06 2.6827299e-06 0.97643014)
(1.5580024e-05 2.7662692e-06 0.97643175)
(9.0602164e-06 2.6647687e-06 0.97643536)
(-4.9254348e-07 -4.9254348e-07 0.97643563)
(1.5577212e-06 1.5577212e-06 0.95558361)
(-1.0465085e-05 -3.4106757e-06 0.9555832)
(-1.5722604e-05 -2.1111891e-06 0.95558128)
(-3.1397473e-06 -1.859882e-06 0.95558158)
(1.2566702e-06 -1.8095936e-06 0.95558213)
(4.6391166e-06 -1.8000478e-06 0.95558273)
(8.2253411e-06 -1.7500262e-06 0.95558348)
(1.1712442e-05 -1.3246029e-06 0.95558465)
(7.7367738e-06 4.9667392e-07 0.95558657)
(7.2401622e-07 1.1392764e-06 0.95558745)
(-3.4106757e-06 -1.0465085e-05 0.9555832)