/*--------------------------------*- C++ -*----------------------------------*\
| =========                 |                                                 |
| \\      /  F ield         | OpenFOAM: The Open Source CFD Toolbox           |
|  \\    /   O peration     | Version:  v2106                                 |
|   \\  /    A nd           | Website:  www.openfoam.com                      |
|    \\/     M anipulation  |                                                 |
\*---------------------------------------------------------------------------*/
FoamFile
{
    version     2.0;
    format      ascii;
    arch        "LSB;label=32;scalar=64";
    class       volVectorField;
    location    "20";
    object      gradT;
}
// * * * * * * * * * * * * * * * * * * * * * * * * * * * * * * * * * * * * * //

dimensions      [0 -1 0 1 0 0 0];

internalField   nonuniform List<vector> 
4000
(
(0.00043983623 0.00043983623 749.2375)
(-0.0012477003 -0.00082532324 749.23974)
(-0.0017310121 -0.0003061209 749.23138)
(0.00042208334 -0.00024100216 749.23206)
(0.00041655768 -0.00024400192 749.23325)
(0.00032155092 -0.00025278501 749.23412)
(0.00032091337 -0.00026070699 749.23491)
(0.00036099771 -0.0002520259 749.23581)
(0.00032236177 -0.00019321417 749.23682)
(8.7762267e-05 -9.8995169e-05 749.23742)
(-0.00082532324 -0.0012477003 749.23974)
(-0.002366636 -0.002366636 749.2348)
(-0.00085453051 -0.0014592367 749.22956)
(0.0005152618 -0.0013483718 749.23068)
(0.0003988834 -0.0013595272 749.23184)
(0.00029649332 -0.0013894906 749.23265)
(0.00032205204 -0.0014281923 749.23338)
(0.00046223695 -0.0014379109 749.23436)
(0.00055190786 -0.001305668 749.23588)
(0.00018198127 -0.00095611123 749.23708)
(-0.0003061209 -0.0017310121 749.23138)
(-0.0014592367 -0.00085453051 749.22956)
(-0.00071274784 -0.00071274785 749.22495)
(0.00052179288 -0.00070056022 749.22616)
(0.00037543879 -0.00071583959 749.2273)
(0.00025288587 -0.00074994712 749.22802)
(0.0002724931 -0.00080659485 749.2286)
(0.00048352192 -0.00087800268 749.22947)
(0.00080416144 -0.00090422537 749.23126)
(0.00032080014 -0.00077286949 749.23351)
(-0.00024100216 0.00042208334 749.23206)
(-0.0013483718 0.00051526181 749.23068)
(-0.00070056022 0.00052179288 749.22616)
(0.00051217006 0.00051217005 749.22738)
(0.00034949649 0.00049179474 749.22848)
(0.00020573806 0.00045867472 749.22911)
(0.00019399648 0.00040772225 749.22953)
(0.00036460643 0.00033068991 749.23014)
(0.00065704106 0.00022460805 749.23159)
(0.00026955186 0.0001117018 749.2335)
(-0.00024400192 0.00041655768 749.23325)
(-0.0013595272 0.0003988834 749.23184)
(-0.0007158396 0.00037543879 749.2273)
(0.00049179474 0.00034949648 749.22848)
(0.00032194346 0.00032194346 749.22951)
(0.00016881339 0.00029127213 749.23006)
(0.00014450829 0.00025570959 749.23037)
(0.00030040772 0.00021320882 749.23083)
(0.00058517333 0.00016410292 749.2321)
(0.0002455293 0.00011814076 749.23382)
(-0.00025278501 0.00032155092 749.23412)
(-0.0013894906 0.00029649331 749.23265)
(-0.00074994713 0.00025288587 749.22802)
(0.00045867472 0.00020573806 749.22911)
(0.00029127213 0.00016881339 749.23006)
(0.00013950419 0.00013950419 749.23053)
(0.00011593317 0.00011557831 749.23076)
(0.00027299976 9.6504112e-05 749.23115)
(0.000561973 8.2402137e-05 749.23235)
(0.00023891042 7.438723e-05 749.23402)
(-0.00026070699 0.00032091336 749.23491)
(-0.0014281923 0.00032205204 749.23338)
(-0.00080659485 0.0002724931 749.2286)
(0.00040772226 0.00019399649 749.22953)
(0.00025570959 0.00014450829 749.23037)
(0.00011557831 0.00011593318 749.23076)
(0.00010150821 0.00010150821 749.23095)
(0.00026723155 9.949829e-05 749.23131)
(0.00056305645 0.00010804661 749.23251)
(0.00024018603 0.00012165275 749.23419)
(-0.00025202589 0.00036099771 749.23581)
(-0.0014379109 0.00046223695 749.23436)
(-0.00087800268 0.00048352193 749.22947)
(0.00033068991 0.00036460643 749.23014)
(0.00021320882 0.00030040772 749.23083)
(9.6504113e-05 0.00027299976 749.23115)
(9.9498286e-05 0.00026723155 749.23131)
(0.00027953816 0.00027953816 749.23169)
(0.00058412746 0.0003065947 749.23294)
(0.00024798118 0.00033807559 749.23469)
(-0.00019321417 0.00032236177 749.23682)
(-0.001305668 0.00055190786 749.23588)
(-0.00090422537 0.00080416145 749.23126)
(0.00022460805 0.00065704105 749.23159)
(0.00016410293 0.00058517334 749.2321)
(8.2402141e-05 0.000561973 749.23235)
(0.00010804661 0.00056305646 749.23251)
(0.0003065947 0.00058412746 749.23294)
(0.00062159388 0.00062159388 749.23429)
(0.00026117329 0.00065854596 749.23615)
(-9.8995165e-05 8.7762265e-05 749.23742)
(-0.00095611122 0.00018198127 749.23708)
(-0.00077286949 0.00032080014 749.23351)
(0.0001117018 0.00026955186 749.2335)
(0.00011814076 0.00024552931 749.23382)
(7.4387231e-05 0.00023891042 749.23402)
(0.00012165275 0.00024018604 749.23419)
(0.00033807558 0.00024798118 749.23469)
(0.00065854596 0.00026117329 749.23615)
(0.00027261589 0.00027261589 749.23805)
(0.00091859833 0.00091859833 1103.72)
(-0.0054359561 -0.0024586247 1103.7203)
(-0.0063147284 -0.00090066306 1103.7128)
(0.001536767 -0.00066538607 1103.7135)
(0.0018385513 -0.00067076505 1103.715)
(0.001526368 -0.00071060488 1103.7162)
(0.0015644035 -0.00074956111 1103.7172)
(0.0017884062 -0.00069597941 1103.7186)
(0.0014484209 -0.00036004069 1103.7203)
(0.00033263982 -4.0488749e-05 1103.7206)
(-0.0024586247 -0.0054359561 1103.7203)
(-0.0081648482 -0.0081648482 1103.716)
(-0.0036248705 -0.0052629294 1103.7108)
(0.001881614 -0.0048081658 1103.7119)
(0.0017707231 -0.0048369346 1103.7133)
(0.0014081739 -0.0049780606 1103.7144)
(0.0015863417 -0.0051691312 1103.7154)
(0.0023726868 -0.0051936387 1103.7169)
(0.0024316569 -0.0044213906 1103.7197)
(0.00065219176 -0.0029877907 1103.7211)
(-0.00090066306 -0.0063147284 1103.7128)
(-0.0052629294 -0.0036248705 1103.7108)
(-0.0029580461 -0.0029580461 1103.7064)
(0.0019627617 -0.0028439041 1103.7076)
(0.0016686565 -0.0029034192 1103.709)
(0.0011941715 -0.0030698519 1103.7099)
(0.0013488254 -0.0033491223 1103.7106)
(0.0025361467 -0.0036868269 1103.7119)
(0.0036542689 -0.0037189933 1103.7151)
(0.0012883731 -0.0030494902 1103.7177)
(-0.00066538607 0.0015367669 1103.7135)
(-0.0048081658 0.001881614 1103.7119)
(-0.0028439041 0.0019627617 1103.7076)
(0.0019362408 0.0019362408 1103.7088)
(0.0015447753 0.0018401768 1103.7102)
(0.00096247085 0.0016774567 1103.711)
(0.00096936666 0.0014267844 1103.7115)
(0.0020028158 0.0010544281 1103.7124)
(0.0030689937 0.00058268847 1103.7151)
(0.0010985272 0.00012717615 1103.7174)
(-0.00067076505 0.0018385513 1103.715)
(-0.0048369346 0.0017707231 1103.7133)
(-0.0029034192 0.0016686565 1103.709)
(0.0018401768 0.0015447753 1103.7102)
(0.0014098724 0.0014098724 1103.7114)
(0.00078077912 0.0012594286 1103.7121)
(0.00072579672 0.0010847764 1103.7124)
(0.0016920508 0.00087563682 1103.7131)
(0.002727017 0.00063873953 1103.7156)
(0.0009846982 0.00041613685 1103.7176)
(-0.00071060488 0.001526368 1103.7162)
(-0.0049780606 0.0014081739 1103.7144)
(-0.0030698519 0.0011941715 1103.7099)
(0.0016774567 0.00096247085 1103.711)
(0.0012594286 0.00078077912 1103.7121)
(0.00063737478 0.00063737477 1103.7126)
(0.00058557489 0.0005212615 1103.7129)
(0.001556779 0.00042907697 1103.7134)
(0.0026094937 0.00036173478 1103.7158)
(0.00095012542 0.00032223786 1103.7178)
(-0.00074956111 0.0015644035 1103.7172)
(-0.0051691312 0.0015863417 1103.7154)
(-0.0033491223 0.0013488254 1103.7106)
(0.0014267844 0.00096936666 1103.7115)
(0.0010847763 0.00072579672 1103.7124)
(0.00052126151 0.00058557489 1103.7129)
(0.00051749893 0.00051749893 1103.713)
(0.001532524 0.00051306362 1103.7135)
(0.0026201779 0.0005639773 1103.716)
(0.00095836692 0.00064510758 1103.718)
(-0.00069597941 0.0017884062 1103.7186)
(-0.0051936387 0.0023726868 1103.7169)
(-0.0036868269 0.0025361467 1103.7119)
(0.0010544281 0.0020028158 1103.7124)
(0.00087563682 0.0016920508 1103.7131)
(0.00042907698 0.001556779 1103.7134)
(0.00051306363 0.001532524 1103.7135)
(0.0016032573 0.0016032573 1103.7141)
(0.0027415377 0.0017524918 1103.7167)
(0.0010042123 0.0019285796 1103.7188)
(-0.00036004069 0.0014484209 1103.7203)
(-0.0044213906 0.0024316569 1103.7197)
(-0.0037189933 0.0036542689 1103.7151)
(0.00058268846 0.0030689937 1103.7151)
(0.00063873953 0.002727017 1103.7156)
(0.00036173479 0.0026094937 1103.7158)
(0.0005639773 0.0026201779 1103.716)
(0.0017524918 0.0027415377 1103.7167)
(0.0029455002 0.0029455002 1103.7194)
(0.0010757588 0.0030713296 1103.7218)
(-4.0488751e-05 0.00033263982 1103.7206)
(-0.0029877908 0.00065219176 1103.7211)
(-0.0030494902 0.0012883731 1103.7177)
(0.00012717615 0.0010985272 1103.7174)
(0.00041613685 0.00098469821 1103.7176)
(0.00032223786 0.00095012542 1103.7178)
(0.00064510759 0.00095836692 1103.718)
(0.0019285796 0.0010042123 1103.7188)
(0.0030713296 0.0010757588 1103.7218)
(0.0010880986 0.0010880986 1103.7235)
(0.00069163326 0.00069163326 1091.0703)
(-0.0083574405 -0.0037165794 1091.07)
(-0.0085194065 -0.001649523 1091.0655)
(0.0025686908 -0.001325881 1091.0663)
(0.0030274967 -0.0013396137 1091.0675)
(0.0025654564 -0.0014182836 1091.0685)
(0.002763207 -0.0015086005 1091.0694)
(0.0034379145 -0.0014125471 1091.0708)
(0.0023410446 -0.00060272695 1091.073)
(0.00029011375 0.00021259402 1091.0733)
(-0.0037165794 -0.0083574405 1091.07)
(-0.011869175 -0.011869175 1091.0669)
(-0.0049333588 -0.0079499878 1091.0637)
(0.0030335547 -0.0073035309 1091.0648)
(0.0028888927 -0.0073633432 1091.066)
(0.0023119761 -0.007633411 1091.0668)
(0.0027718118 -0.0080302526 1091.0676)
(0.0047967249 -0.0081376243 1091.069)
(0.0047787564 -0.0065262863 1091.0725)
(0.0011054347 -0.003825203 1091.074)
(-0.001649523 -0.0085194065 1091.0655)
(-0.0079499878 -0.0049333588 1091.0637)
(-0.0039537626 -0.0039537626 1091.061)
(0.0031553354 -0.0037739497 1091.0622)
(0.0026976167 -0.0038841296 1091.0633)
(0.001898547 -0.004189453 1091.064)
(0.0022589937 -0.00471383 1091.0645)
(0.0049418807 -0.0053780735 1091.0656)
(0.0066534659 -0.0054804483 1091.0694)
(0.002090836 -0.0044419572 1091.0719)
(-0.001325881 0.0025686908 1091.0663)
(-0.007303531 0.0030335547 1091.0648)
(-0.0037739497 0.0031553354 1091.0622)
(0.0031031877 0.0031031877 1091.0633)
(0.0024733894 0.0029285347 1091.0644)
(0.0014822757 0.0026360763 1091.065)
(0.0015831913 0.0021880946 1091.0652)
(0.0040301066 0.0015296281 1091.0659)
(0.0057148727 0.00073845103 1091.0693)
(0.0017977621 1.4711058e-05 1091.0716)
(-0.0013396137 0.0030274967 1091.0675)
(-0.0073633432 0.0028888927 1091.066)
(-0.0038841296 0.0026976167 1091.0633)
(0.0029285347 0.0024733894 1091.0644)
(0.0022305053 0.0022305053 1091.0654)
(0.0011581069 0.0019615605 1091.0658)
(0.0011525454 0.0016520216 1091.0659)
(0.0034922372 0.0012851659 1091.0664)
(0.0051385489 0.0008815442 1091.0696)
(0.0016083426 0.00051054565 1091.0716)
(-0.0014182836 0.0025654564 1091.0685)
(-0.007633411 0.0023119761 1091.0668)
(-0.004189453 0.001898547 1091.064)
(0.0026360763 0.0014822757 1091.065)
(0.0019615605 0.0011581069 1091.0658)
(0.00090379196 0.00090379197 1091.0661)
(0.00090679675 0.00070193899 1091.0661)
(0.0032596292 0.00054827147 1091.0665)
(0.0049402524 0.00044693937 1091.0696)
(0.0015504297 0.00039944244 1091.0716)
(-0.0015086005 0.002763207 1091.0694)
(-0.0080302525 0.0027718118 1091.0676)
(-0.00471383 0.0022589937 1091.0645)
(0.0021880946 0.0015831913 1091.0652)
(0.0016520216 0.0011525454 1091.0659)
(0.00070193899 0.00090679675 1091.0661)
(0.00079702493 0.00079702494 1091.066)
(0.0032372375 0.00081441873 1091.0664)
(0.0049897199 0.00095045655 1091.0696)
(0.001576678 0.0011624019 1091.0716)
(-0.0014125471 0.0034379145 1091.0708)
(-0.0081376243 0.0047967249 1091.069)
(-0.0053780735 0.0049418807 1091.0656)
(0.0015296281 0.0040301066 1091.0659)
(0.0012851659 0.0034922372 1091.0664)
(0.00054827147 0.0032596292 1091.0665)
(0.00081441873 0.0032372375 1091.0664)
(0.0034130608 0.0034130609 1091.0669)
(0.0052882355 0.0037637098 1091.0703)
(0.0016917266 0.0041628664 1091.0726)
(-0.00060272695 0.0023410446 1091.073)
(-0.0065262864 0.0047787564 1091.0725)
(-0.0054804483 0.0066534659 1091.0694)
(0.00073845103 0.0057148727 1091.0693)
(0.0008815442 0.0051385489 1091.0696)
(0.00044693937 0.0049402524 1091.0696)
(0.00095045656 0.0049897199 1091.0696)
(0.0037637098 0.0052882355 1091.0703)
(0.0057395255 0.0057395255 1091.074)
(0.0018427825 0.0053571252 1091.0766)
(0.00021259402 0.00029011375 1091.0733)
(-0.003825203 0.0011054347 1091.074)
(-0.0044419572 0.002090836 1091.0719)
(1.471106e-05 0.0017977621 1091.0716)
(0.00051054564 0.0016083426 1091.0716)
(0.00039944245 0.0015504297 1091.0716)
(0.0011624019 0.001576678 1091.0716)
(0.0041628664 0.0016917266 1091.0726)
(0.0053571251 0.0018427825 1091.0766)
(0.0014367931 0.0014367931 1091.0773)
(0.00070309552 0.00070309552 1076.9456)
(-0.010299874 -0.0045356536 1076.9458)
(-0.010033413 -0.0020511291 1076.9421)
(0.0036060578 -0.001666674 1076.943)
(0.0040543397 -0.0016959651 1076.9442)
(0.0033973712 -0.0018214351 1076.9449)
(0.0038318665 -0.0019878364 1076.9456)
(0.0054071556 -0.0019115089 1076.9468)
(0.0039642136 -0.00070645225 1076.9492)
(0.000507293 0.00044951767 1076.95)
(-0.0045356536 -0.010299874 1076.9458)
(-0.014431211 -0.014431211 1076.9435)
(-0.0057299436 -0.0097064001 1076.9411)
(0.0041388038 -0.0089374961 1076.9422)
(0.003822198 -0.009048723 1076.9433)
(0.0029595642 -0.0094646136 1076.9439)
(0.0036967558 -0.010111706 1076.9443)
(0.0073292319 -0.010408107 1076.9454)
(0.0075057534 -0.0080756113 1076.949)
(0.0016632629 -0.0043875549 1076.9507)
(-0.0020511291 -0.010033413 1076.9421)
(-0.0097064001 -0.0057299436 1076.9411)
(-0.0045396981 -0.0045396981 1076.939)
(0.0042637349 -0.0043359537 1076.9401)
(0.0035272223 -0.0045123648 1076.9412)
(0.0023343887 -0.0049638143 1076.9416)
(0.002888373 -0.0057410019 1076.9418)
(0.0074432499 -0.0067404906 1076.9425)
(0.0099847657 -0.0068899228 1076.9464)
(0.0029659973 -0.0054959602 1076.949)
(-0.001666674 0.0036060578 1076.943)
(-0.0089374961 0.0041388038 1076.9422)
(-0.0043359537 0.0042637349 1076.9401)
(0.0041661371 0.0041661371 1076.9413)
(0.0031943375 0.0039039264 1076.9422)
(0.0017309271 0.0034787342 1076.9425)
(0.0019200795 0.0028343468 1076.9424)
(0.006180311 0.0018980864 1076.9428)
(0.0087502838 0.00082218188 1076.9464)
(0.0025925713 -0.00011794952 1076.9487)
(-0.0016959651 0.0040543397 1076.9442)
(-0.009048723 0.0038221981 1076.9433)
(-0.0045123648 0.0035272223 1076.9412)
(0.0039039264 0.0031943375 1076.9422)
(0.0028398194 0.0028398194 1076.943)
(0.0012648091 0.002452638 1076.9433)
(0.0013077252 0.0020121623 1076.943)
(0.0054310849 0.0014967083 1076.9432)
(0.0079687298 0.00094590641 1076.9465)
(0.002339243 0.00045253823 1076.9487)
(-0.0018214351 0.0033973712 1076.9449)
(-0.0094646136 0.0029595642 1076.9439)
(-0.0049638143 0.0023343887 1076.9416)
(0.0034787342 0.0017309271 1076.9425)
(0.002452638 0.0012648091 1076.9433)
(0.00090327003 0.00090327003 1076.9433)
(0.00096414984 0.00062374691 1076.943)
(0.0051140551 0.0004232267 1076.9431)
(0.0077061137 0.00031151002 1076.9464)
(0.0022636592 0.0002831951 1076.9485)
(-0.0019878364 0.0038318665 1076.9456)
(-0.010111706 0.0036967558 1076.9443)
(-0.0057410019 0.002888373 1076.9418)
(0.0028343468 0.0019200795 1076.9424)
(0.0020121623 0.0013077252 1076.943)
(0.00062374691 0.00096414984 1076.943)
(0.00082768185 0.00082768185 1076.9426)
(0.0051188481 0.00089775607 1076.9427)
(0.0078286982 0.0011767595 1076.946)
(0.0023203664 0.0016024333 1076.9482)
(-0.0019115089 0.0054071556 1076.9468)
(-0.010408107 0.0073292319 1076.9454)
(-0.0067404906 0.0074432499 1076.9425)
(0.0018980864 0.006180311 1076.9428)
(0.0014967083 0.0054310849 1076.9432)
(0.00042322671 0.0051140551 1076.9431)
(0.00089775608 0.0051188481 1076.9427)
(0.0054631327 0.0054631328 1076.9429)
(0.0084107909 0.0061510578 1076.9465)
(0.0025474417 0.0069544995 1076.9491)
(-0.00070645225 0.0039642136 1076.9492)
(-0.0080756113 0.0075057534 1076.949)
(-0.0068899228 0.0099847657 1076.9464)
(0.00082218188 0.0087502838 1076.9464)
(0.00094590641 0.0079687298 1076.9465)
(0.00031151002 0.0077061137 1076.9464)
(0.0011767595 0.0078286982 1076.946)
(0.0061510578 0.0084107909 1076.9465)
(0.009320065 0.009320065 1076.9506)
(0.0028559942 0.0078232619 1076.9538)
(0.00044951767 0.000507293 1076.95)
(-0.0043875549 0.0016632629 1076.9507)
(-0.0054959602 0.0029659973 1076.949)
(-0.00011794953 0.0025925713 1076.9487)
(0.00045253822 0.002339243 1076.9487)
(0.00028319511 0.0022636592 1076.9485)
(0.0016024333 0.0023203664 1076.9482)
(0.0069544995 0.0025474417 1076.9491)
(0.0078232619 0.0028559942 1076.9538)
(0.001549573 0.001549573 1076.9541)
(0.00079188691 0.00079188691 1061.4557)
(-0.011856248 -0.0051929013 1061.456)
(-0.011235057 -0.0023185208 1061.4528)
(0.0046390584 -0.0018834766 1061.4539)
(0.0049351032 -0.0019318452 1061.4549)
(0.0039798161 -0.002106395 1061.4555)
(0.0045671892 -0.002354785 1061.4558)
(0.0070891479 -0.0023150384 1061.4566)
(0.0055408995 -0.00074383888 1061.4588)
(0.00076279394 0.00068451702 1061.4595)
(-0.0051929013 -0.011856248 1061.456)
(-0.01652186 -0.01652186 1061.4542)
(-0.0062709203 -0.01106078 1061.4522)
(0.0052190719 -0.010199657 1061.4533)
(0.0046007256 -0.01037443 1061.4543)
(0.0033454065 -0.01094275 1061.4547)
(0.0042542242 -0.011851481 1061.4548)
(0.009505567 -0.012365379 1061.4555)
(0.010040233 -0.0093566424 1061.4588)
(0.0021911498 -0.0048214822 1061.4603)
(-0.0023185208 -0.011235057 1061.4528)
(-0.01106078 -0.0062709203 1061.4522)
(-0.0049128539 -0.0049128539 1061.4504)
(0.0053254085 -0.0047099442 1061.4516)
(0.0041920096 -0.0049646693 1061.4525)
(0.0025027644 -0.0055676063 1061.4528)
(0.0031445601 -0.0066002131 1061.4526)
(0.0095839869 -0.0079347864 1061.453)
(0.013084797 -0.0081199895 1061.4565)
(0.0037862341 -0.0063951201 1061.4588)
(-0.0018834766 0.0046390584 1061.4539)
(-0.010199657 0.0052190719 1061.4533)
(-0.0047099442 0.0053254085 1061.4516)
(0.0051672564 0.0051672564 1061.4527)
(0.0037430635 0.0048094214 1061.4535)
(0.0017098627 0.004248604 1061.4537)
(0.0018870441 0.0034088301 1061.4533)
(0.0079857907 0.0022015547 1061.4533)
(0.011579899 0.00086129741 1061.4565)
(0.0033410627 -0.00027239047 1061.4586)
(-0.0019318452 0.0049351032 1061.4549)
(-0.01037443 0.0046007256 1061.4543)
(-0.0049646693 0.0041920096 1061.4525)
(0.0048094214 0.0037430635 1061.4535)
(0.0032733573 0.0032733573 1061.4543)
(0.0011021731 0.0027680729 1061.4543)
(0.0010975108 0.0022001675 1061.4537)
(0.0070364541 0.0015436208 1061.4535)
(0.010610851 0.0008592529 1061.4565)
(0.0030304422 0.00025899461 1061.4584)
(-0.002106395 0.0039798161 1061.4555)
(-0.01094275 0.0033454065 1061.4547)
(-0.0055676063 0.0025027644 1061.4528)
(0.004248604 0.0017098627 1061.4537)
(0.0027680729 0.0011021731 1061.4543)
(0.00063667287 0.00063667286 1061.4542)
(0.00066259204 0.00028609919 1061.4535)
(0.0066448761 4.9516247e-05 1061.4532)
(0.010295273 -5.7061871e-05 1061.4562)
(0.0029408905 -5.0070425e-05 1061.4581)
(-0.002354785 0.0045671892 1061.4558)
(-0.011851481 0.0042542242 1061.4548)
(-0.0066002131 0.0031445601 1061.4526)
(0.0034088301 0.0018870441 1061.4533)
(0.0022001675 0.0010975108 1061.4537)
(0.00028609918 0.00066259204 1061.4535)
(0.00051035414 0.00051035413 1061.4528)
(0.0066932931 0.00065300687 1061.4525)
(0.010511265 0.0011106866 1061.4556)
(0.0030351031 0.0018031102 1061.4576)
(-0.0023150384 0.0070891479 1061.4566)
(-0.012365379 0.009505567 1061.4555)
(-0.0079347864 0.0095839869 1061.453)
(0.0022015547 0.0079857907 1061.4533)
(0.0015436208 0.0070364541 1061.4535)
(4.9516245e-05 0.0066448761 1061.4532)
(0.00065300686 0.0066932931 1061.4525)
(0.0072452086 0.0072452086 1061.4524)
(0.011445376 0.0083634995 1061.4557)
(0.0034025062 0.0097359976 1061.4582)
(-0.00074383889 0.0055408995 1061.4588)
(-0.0093566424 0.010040233 1061.4588)
(-0.0081199895 0.013084797 1061.4565)
(0.0008612974 0.011579899 1061.4565)
(0.0008592529 0.010610851 1061.4565)
(-5.7061877e-05 0.010295273 1061.4562)
(0.0011106866 0.010511265 1061.4556)
(0.0083634995 0.011445376 1061.4557)
(0.013002054 0.013002054 1061.4596)
(0.0039501019 0.01033486 1061.4629)
(0.00068451702 0.00076279394 1061.4595)
(-0.0048214822 0.0021911498 1061.4603)
(-0.0063951201 0.0037862341 1061.4588)
(-0.00027239047 0.0033410628 1061.4586)
(0.0002589946 0.0030304422 1061.4584)
(-5.0070433e-05 0.0029408905 1061.4581)
(0.0018031102 0.0030351031 1061.4576)
(0.0097359976 0.0034025062 1061.4582)
(0.01033486 0.0039501019 1061.4629)
(0.001624377 0.001624377 1061.4631)
(0.00091364532 0.00091364532 1044.7125)
(-0.013150614 -0.0057484232 1044.7129)
(-0.012194477 -0.0025077175 1044.7102)
(0.0056606145 -0.0020285234 1044.7112)
(0.0056850975 -0.002097864 1044.7122)
(0.004334749 -0.0023221312 1044.7126)
(0.0049815894 -0.0026541426 1044.7127)
(0.0084041383 -0.0026590489 1044.7131)
(0.0068751231 -0.00074596131 1044.715)
(0.0009792754 0.00092575427 1044.7155)
(-0.0057484232 -0.013150614 1044.7129)
(-0.018282658 -0.018282658 1044.7114)
(-0.0066146274 -0.012137263 1044.7097)
(0.0062753947 -0.011202186 1044.7109)
(0.0052446859 -0.011447602 1044.7118)
(0.0035003311 -0.012171073 1044.7121)
(0.0044762129 -0.013344734 1044.7119)
(0.01126641 -0.014090927 1044.7122)
(0.012252328 -0.010455273 1044.715)
(0.002650991 -0.0051528453 1044.7163)
(-0.0025077175 -0.012194477 1044.7102)
(-0.012137263 -0.0066146274 1044.7097)
(-0.0051140053 -0.0051140053 1044.7083)
(0.0063502748 -0.0049267437 1044.7095)
(0.0047162105 -0.0052675534 1044.7103)
(0.0024376175 -0.0060250453 1044.7104)
(0.0030617355 -0.0073133923 1044.71)
(0.011293599 -0.0089830087 1044.7099)
(0.015813205 -0.0092112634 1044.7129)
(0.0045142272 -0.0071878438 1044.715)
(-0.0020285234 0.0056606145 1044.7112)
(-0.011202186 0.0062753947 1044.7109)
(-0.0049267437 0.0063502748 1044.7095)
(0.0061218466 0.0061218466 1044.7106)
(0.0041463843 0.0056629201 1044.7113)
(0.0014544922 0.0049648336 1044.7113)
(0.0015182495 0.0039313256 1044.7106)
(0.0093685391 0.0024585328 1044.7103)
(0.014047493 0.00086443088 1044.713)
(0.0039999374 -0.00045364062 1044.7148)
(-0.002097864 0.0056850975 1044.7122)
(-0.011447602 0.0052446859 1044.7118)
(-0.0052675534 0.0047162105 1044.7103)
(0.0056629201 0.0041463843 1044.7113)
(0.0035591975 0.0035591975 1044.712)
(0.00070602306 0.0029362715 1044.7118)
(0.00055543471 0.0022439866 1044.711)
(0.0082267043 0.0014520378 1044.7104)
(0.012901032 0.0006425715 1044.7129)
(0.0036355128 -5.6453283e-05 1044.7146)
(-0.0023221312 0.004334749 1044.7126)
(-0.012171073 0.0035003311 1044.7121)
(-0.0060250453 0.0024376175 1044.7104)
(0.0049648336 0.0014544922 1044.7113)
(0.0029362715 0.00070602307 1044.7118)
(0.00013928134 0.00013928134 1044.7115)
(3.4015915e-05 -0.00027754157 1044.7106)
(0.0077671239 -0.00054334123 1044.7099)
(0.012539002 -0.00063650589 1044.7124)
(0.0035339209 -0.00058761988 1044.714)
(-0.0026541426 0.0049815894 1044.7127)
(-0.013344734 0.0044762129 1044.7119)
(-0.0073133923 0.0030617355 1044.71)
(0.0039313257 0.0015182495 1044.7106)
(0.0022439866 0.00055543471 1044.711)
(-0.00027754158 3.4015915e-05 1044.7106)
(-0.00012718786 -0.00012718785 1044.7096)
(0.00786774 9.8245972e-05 1044.709)
(0.012856753 0.0007501362 1044.7116)
(0.0036681035 0.0017292491 1044.7133)
(-0.0026590489 0.0084041383 1044.7131)
(-0.014090927 0.01126641 1044.7122)
(-0.0089830087 0.011293599 1044.7099)
(0.0024585328 0.0093685391 1044.7103)
(0.0014520378 0.0082267043 1044.7104)
(-0.00054334123 0.0077671239 1044.7099)
(9.8245972e-05 0.00786774 1044.709)
(0.008644448 0.008644448 1044.7086)
(0.014170005 0.010232698 1044.7114)
(0.0041866629 0.01224689 1044.7136)
(-0.0007459613 0.0068751231 1044.715)
(-0.010455273 0.012252328 1044.715)
(-0.0092112634 0.015813205 1044.7129)
(0.00086443088 0.014047493 1044.713)
(0.0006425715 0.012901032 1044.7129)
(-0.00063650589 0.012539002 1044.7124)
(0.0007501362 0.012856753 1044.7116)
(0.010232698 0.014170005 1044.7114)
(0.016459195 0.016459195 1044.7149)
(0.0050108984 0.012699928 1044.718)
(0.00092575427 0.0009792754 1044.7155)
(-0.0051528453 0.002650991 1044.7163)
(-0.0071878438 0.0045142272 1044.715)
(-0.00045364062 0.0039999374 1044.7148)
(-5.6453288e-05 0.0036355128 1044.7146)
(-0.00058761989 0.0035339209 1044.714)
(0.0017292491 0.0036681035 1044.7133)
(0.01224689 0.0041866629 1044.7136)
(0.012699928 0.0050108984 1044.718)
(0.0016804846 0.0016804846 1044.7181)
(0.0010668482 0.0010668482 1026.8322)
(-0.014192586 -0.0062067981 1026.8327)
(-0.012926465 -0.0026253926 1026.8304)
(0.0066645954 -0.0021077624 1026.8315)
(0.0063140062 -0.002199284 1026.8324)
(0.0044856574 -0.0024733255 1026.8326)
(0.0051075085 -0.0028895284 1026.8325)
(0.0093633249 -0.0029459225 1026.8326)
(0.0079303045 -0.00071895089 1026.8341)
(0.0011364228 0.001173699 1026.8344)
(-0.0062067981 -0.014192586 1026.8327)
(-0.019730947 -0.019730947 1026.8315)
(-0.0067779115 -0.012954141 1026.8301)
(0.0073037582 -0.011959795 1026.8313)
(0.0057656614 -0.012280273 1026.8322)
(0.0034502909 -0.013159536 1026.8323)
(0.0043986131 -0.014598525 1026.8319)
(0.012619191 -0.015589476 1026.8318)
(0.014109737 -0.011387812 1026.8342)
(0.0030290727 -0.0053892696 1026.8352)
(-0.0026253926 -0.012926465 1026.8304)
(-0.012954141 -0.0067779115 1026.8301)
(-0.0051553133 -0.0051553133 1026.829)
(0.0073384634 -0.0049938986 1026.8302)
(0.0051142647 -0.0054255248 1026.8309)
(0.0021674053 -0.0063385055 1026.8309)
(0.0026775686 -0.0078808614 1026.8302)
(0.012574038 -0.009884829 1026.8298)
(0.018130511 -0.010172173 1026.8324)
(0.0051354512 -0.0078865502 1026.8341)
(-0.0021077624 0.0066645954 1026.8315)
(-0.011959795 0.0073037582 1026.8313)
(-0.0049938986 0.0073384634 1026.8302)
(0.0070335468 0.0070335467 1026.8313)
(0.0044210545 0.0064703358 1026.832)
(0.00099495426 0.0056347208 1026.8318)
(0.00085228948 0.0044100246 1026.8309)
(0.01032788 0.0026770417 1026.8302)
(0.016108016 0.00083525142 1026.8324)
(0.0045528212 -0.00066275761 1026.8339)
(-0.002199284 0.0063140062 1026.8324)
(-0.012280273 0.0057656614 1026.8322)
(-0.0054255248 0.0051142647 1026.8309)
(0.0064703358 0.0044210545 1026.832)
(0.0037154388 0.0037154388 1026.8325)
(0.00010709409 0.0029757926 1026.8322)
(-0.00028011053 0.0021618715 1026.8311)
(0.0089992648 0.0012389251 1026.8302)
(0.014790712 0.00030975185 1026.8323)
(0.0041367785 -0.00048331704 1026.8336)
(-0.0024733255 0.0044856574 1026.8326)
(-0.013159536 0.0034502909 1026.8323)
(-0.0063385055 0.0021674053 1026.8309)
(0.0056347208 0.00099495426 1026.8318)
(0.0029757926 0.00010709408 1026.8322)
(-0.000558613 -0.000558613 1026.8317)
(-0.00088457796 -0.0010384647 1026.8306)
(0.00847576 -0.0013296531 1026.8296)
(0.014385773 -0.0014058132 1026.8316)
(0.0040241086 -0.0013133596 1026.8329)
(-0.0028895284 0.0051075085 1026.8325)
(-0.014598525 0.0043986131 1026.8319)
(-0.0078808614 0.0026775686 1026.8302)
(0.0044100246 0.00085228948 1026.8309)
(0.0021618715 -0.00028011052 1026.8311)
(-0.0010384647 -0.00088457796 1026.8306)
(-0.0010511506 -0.0010511506 1026.8294)
(0.0086319163 -0.00073916788 1026.8285)
(0.014807005 0.00011082626 1026.8306)
(0.0041984142 0.0013797444 1026.832)
(-0.0029459225 0.0093633249 1026.8326)
(-0.015589476 0.012619191 1026.8318)
(-0.009884829 0.012574038 1026.8298)
(0.0026770417 0.01032788 1026.8302)
(0.0012389251 0.0089992648 1026.8302)
(-0.0013296531 0.00847576 1026.8296)
(-0.00073916788 0.0086319163 1026.8285)
(0.0096377369 0.0096377369 1026.8277)
(0.016504686 0.011706347 1026.8301)
(0.004870054 0.014384951 1026.832)
(-0.00071895089 0.0079303045 1026.8341)
(-0.011387812 0.014109737 1026.8342)
(-0.010172173 0.018130511 1026.8324)
(0.00083525142 0.016108016 1026.8324)
(0.00030975185 0.014790712 1026.8323)
(-0.0014058132 0.014385773 1026.8316)
(0.00011082625 0.014807005 1026.8306)
(0.011706347 0.016504686 1026.8301)
(0.019554219 0.019554219 1026.8331)
(0.0059841503 0.014799124 1026.8358)
(0.001173699 0.0011364228 1026.8344)
(-0.0053892696 0.0030290727 1026.8352)
(-0.0078865502 0.0051354512 1026.8341)
(-0.00066275761 0.0045528212 1026.8339)
(-0.00048331705 0.0041367785 1026.8336)
(-0.0013133596 0.0040241086 1026.8329)
(0.0013797444 0.0041984142 1026.832)
(0.014384951 0.004870054 1026.832)
(0.014799124 0.0059841503 1026.8358)
(0.0016999905 0.0016999905 1026.8358)
(0.0012508305 0.0012508305 1007.9333)
(-0.014985742 -0.006568741 1007.9339)
(-0.013441006 -0.0026743643 1007.9319)
(0.0076427792 -0.0021238376 1007.933)
(0.0068270076 -0.0022382899 1007.9339)
(0.0044502597 -0.0025616416 1007.934)
(0.0049704325 -0.0030617763 1007.9336)
(0.0099841434 -0.0031756395 1007.9334)
(0.0087025908 -0.00066488474 1007.9345)
(0.0012292203 0.0014262965 1007.9347)
(-0.006568741 -0.014985742 1007.9339)
(-0.020873535 -0.020873535 1007.9329)
(-0.006773651 -0.013521069 1007.9319)
(0.0082968909 -0.012480764 1007.9331)
(0.0061703016 -0.012878979 1007.9338)
(0.0032150301 -0.013912872 1007.9338)
(0.0040494356 -0.015615049 1007.9332)
(0.013579481 -0.016860683 1007.9328)
(0.015605495 -0.012158702 1007.9347)
(0.0033204015 -0.0055363681 1007.9355)
(-0.0026743643 -0.013441006 1007.9319)
(-0.013521069 -0.006773651 1007.9319)
(-0.0050482356 -0.0050482356 1007.931)
(0.0082848698 -0.0049205531 1007.9322)
(0.0053948998 -0.0054456833 1007.9329)
(0.0017141887 -0.0065132459 1007.9327)
(0.0020226208 -0.0083057548 1007.9318)
(0.013440491 -0.010641344 1007.9311)
(0.020026906 -0.011005762 1007.9332)
(0.0056441094 -0.0084957897 1007.9345)
(-0.0021238376 0.0076427792 1007.933)
(-0.012480764 0.0082968909 1007.9331)
(-0.0049205531 0.0082848698 1007.9322)
(0.0078994431 0.0078994431 1007.9334)
(0.0045776088 0.0072304692 1007.9339)
(0.00035495866 0.0062583346 1007.9336)
(-7.8662934e-05 0.0048460696 1007.9325)
(0.010879474 0.0028590272 1007.9315)
(0.01775105 0.00077492213 1007.9332)
(0.0049937163 -0.000899387 1007.9343)
(-0.0022382899 0.0068270076 1007.9339)
(-0.012878979 0.0061703016 1007.9338)
(-0.0054456833 0.0053948998 1007.9329)
(0.0072304692 0.0045776088 1007.9339)
(0.0037537913 0.0037537913 1007.9343)
(-0.00067021088 0.0028988626 1007.9339)
(-0.0013766866 0.0019659879 1007.9326)
(0.0093693436 0.00091582554 1007.9315)
(0.016268492 -0.00012905171 1007.933)
(0.0045279033 -0.0010126302 1007.934)
(-0.0025616416 0.0044502597 1007.934)
(-0.013912872 0.0032150301 1007.9338)
(-0.006513246 0.0017141887 1007.9327)