/*--------------------------------*- C++ -*----------------------------------*\
| =========                 |                                                 |
| \\      /  F ield         | OpenFOAM: The Open Source CFD Toolbox           |
|  \\    /   O peration     | Version:  v2106                                 |
|   \\  /    A nd           | Website:  www.openfoam.com                      |
|    \\/     M anipulation  |                                                 |
\*---------------------------------------------------------------------------*/
FoamFile
{
    version     2.0;
    format      ascii;
    arch        "LSB;label=32;scalar=64";
    class       volScalarField;
    location    "20";
    object      gradTz;
}
// * * * * * * * * * * * * * * * * * * * * * * * * * * * * * * * * * * * * * //

dimensions      [0 -1 0 1 0 0 0];

internalField   nonuniform List<scalar> 
4000
(
749.2375
749.23974
749.23138
749.23206
749.23325
749.23412
749.23491
749.23581
749.23682
749.23742
749.23974
749.2348
749.22956
749.23068
749.23184
749.23265
749.23338
749.23436
749.23588
749.23708
749.23138
749.22956
749.22495
749.22616
749.2273
749.22802
749.2286
749.22947
749.23126
749.23351
749.23206
749.23068
749.22616
749.22738
749.22848
749.22911
749.22953
749.23014
749.23159
749.2335
749.23325
749.23184
749.2273
749.22848
749.22951
749.23006
749.23037
749.23083
749.2321
749.23382
749.23412
749.23265
749.22802
749.22911
749.23006
749.23053
749.23076
749.23115
749.23235
749.23402
749.23491
749.23338
749.2286
749.22953
749.23037
749.23076
749.23095
749.23131
749.23251
749.23419
749.23581
749.23436
749.22947
749.23014
749.23083
749.23115
749.23131
749.23169
749.23294
749.23469
749.23682
749.23588
749.23126
749.23159
749.2321
749.23235
749.23251
749.23294
749.23429
749.23615
749.23742
749.23708
749.23351
749.2335
749.23382
749.23402
749.23419
749.23469
749.23615
749.23805
1103.72
1103.7203
1103.7128
1103.7135
1103.715
1103.7162
1103.7172
1103.7186
1103.7203
1103.7206
1103.7203
1103.716
1103.7108
1103.7119
1103.7133
1103.7144
1103.7154
1103.7169
1103.7197
1103.7211
1103.7128
1103.7108
1103.7064
1103.7076
1103.709
1103.7099
1103.7106
1103.7119
1103.7151
1103.7177
1103.7135
1103.7119
1103.7076
1103.7088
1103.7102
1103.711
1103.7115
1103.7124
1103.7151
1103.7174
1103.715
1103.7133
1103.709
1103.7102
1103.7114
1103.7121
1103.7124
1103.7131
1103.7156
1103.7176
1103.7162
1103.7144
1103.7099
1103.711
1103.7121
1103.7126
1103.7129
1103.7134
1103.7158
1103.7178
1103.7172
1103.7154
1103.7106
1103.7115
1103.7124
1103.7129
1103.713
1103.7135
1103.716
1103.718
1103.7186
1103.7169
1103.7119
1103.7124
1103.7131
1103.7134
1103.7135
1103.7141
1103.7167
1103.7188
1103.7203
1103.7197
1103.7151
1103.7151
1103.7156
1103.7158
1103.716
1103.7167
1103.7194
1103.7218
1103.7206
1103.7211
1103.7177
1103.7174
1103.7176
1103.7178
1103.718
1103.7188
1103.7218
1103.7235
1091.0703
1091.07
1091.0655
1091.0663
1091.0675
1091.0685
1091.0694
1091.0708
1091.073
1091.0733
1091.07
1091.0669
1091.0637
1091.0648
1091.066
1091.0668
1091.0676
1091.069
1091.0725
1091.074
1091.0655
1091.0637
1091.061
1091.0622
1091.0633
1091.064
1091.0645
1091.0656
1091.0694
1091.0719
1091.0663
1091.0648
1091.0622
1091.0633
1091.0644
1091.065
1091.0652
1091.0659
1091.0693
1091.0716
1091.0675
1091.066
1091.0633
1091.0644
1091.0654
1091.0658
1091.0659
1091.0664
1091.0696
1091.0716
1091.0685
1091.0668
1091.064
1091.065
1091.0658
1091.0661
1091.0661
1091.0665
1091.0696
1091.0716
1091.0694
1091.0676
1091.0645
1091.0652
1091.0659
1091.0661
1091.066
1091.0664
1091.0696
1091.0716
1091.0708
1091.069
1091.0656
1091.0659
1091.0664
1091.0665
1091.0664
1091.0669
1091.0703
1091.0726
1091.073
1091.0725
1091.0694
1091.0693
1091.0696
1091.0696
1091.0696
1091.0703
1091.074
1091.0766
1091.0733
1091.074
1091.0719
1091.0716
1091.0716
1091.0716
1091.0716
1091.0726
1091.0766
1091.0773
1076.9456
1076.9458
1076.9421
1076.943
1076.9442
1076.9449
1076.9456
1076.9468
1076.9492
1076.95
1076.9458
1076.9435
1076.9411
1076.9422
1076.9433
1076.9439
1076.9443
1076.9454
1076.949
1076.9507
1076.9421
1076.9411
1076.939
1076.9401
1076.9412
1076.9416
1076.9418
1076.9425
1076.9464
1076.949
1076.943
1076.9422
1076.9401
1076.9413
1076.9422
1076.9425
1076.9424
1076.9428
1076.9464
1076.9487
1076.9442
1076.9433
1076.9412
1076.9422
1076.943
1076.9433
1076.943
1076.9432
1076.9465
1076.9487
1076.9449
1076.9439
1076.9416
1076.9425
1076.9433
1076.9433
1076.943
1076.9431
1076.9464
1076.9485
1076.9456
1076.9443
1076.9418
1076.9424
1076.943
1076.943
1076.9426
1076.9427
1076.946
1076.9482
1076.9468
1076.9454
1076.9425
1076.9428
1076.9432
1076.9431
1076.9427
1076.9429
1076.9465
1076.9491
1076.9492
1076.949
1076.9464
1076.9464
1076.9465
1076.9464
1076.946
1076.9465
1076.9506
1076.9538
1076.95
1076.9507
1076.949
1076.9487
1076.9487
1076.9485
1076.9482
1076.9491
1076.9538
1076.9541
1061.4557
1061.456
1061.4528
1061.4539
1061.4549
1061.4555
1061.4558
1061.4566
1061.4588
1061.4595
1061.456
1061.4542
1061.4522
1061.4533
1061.4543
1061.4547
1061.4548
1061.4555
1061.4588
1061.4603
1061.4528
1061.4522
1061.4504
1061.4516
1061.4525
1061.4528
1061.4526
1061.453
1061.4565
1061.4588
1061.4539
1061.4533
1061.4516
1061.4527
1061.4535
1061.4537
1061.4533
1061.4533
1061.4565
1061.4586
1061.4549
1061.4543
1061.4525
1061.4535
1061.4543
1061.4543
1061.4537
1061.4535
1061.4565
1061.4584
1061.4555
1061.4547
1061.4528
1061.4537
1061.4543
1061.4542
1061.4535
1061.4532
1061.4562
1061.4581
1061.4558
1061.4548
1061.4526
1061.4533
1061.4537
1061.4535
1061.4528
1061.4525
1061.4556
1061.4576
1061.4566
1061.4555
1061.453
1061.4533
1061.4535
1061.4532
1061.4525
1061.4524
1061.4557
1061.4582
1061.4588
1061.4588
1061.4565
1061.4565
1061.4565
1061.4562
1061.4556
1061.4557
1061.4596
1061.4629
1061.4595
1061.4603
1061.4588
1061.4586
1061.4584
1061.4581
1061.4576
1061.4582
1061.4629
1061.4631
1044.7125
1044.7129
1044.7102
1044.7112
1044.7122
1044.7126
1044.7127
1044.7131
1044.715
1044.7155
1044.7129
1044.7114
1044.7097
1044.7109
1044.7118
1044.7121
1044.7119
1044.7122
1044.715
1044.7163
1044.7102
1044.7097
1044.7083
1044.7095
1044.7103
1044.7104
1044.71
1044.7099
1044.7129
1044.715
1044.7112
1044.7109
1044.7095
1044.7106
1044.7113
1044.7113
1044.7106
1044.7103
1044.713
1044.7148
1044.7122
1044.7118
1044.7103
1044.7113
1044.712
1044.7118
1044.711
1044.7104
1044.7129
1044.7146
1044.7126
1044.7121
1044.7104
1044.7113
1044.7118
1044.7115
1044.7106
1044.7099
1044.7124
1044.714
1044.7127
1044.7119
1044.71
1044.7106
1044.711
1044.7106
1044.7096
1044.709
1044.7116
1044.7133
1044.7131
1044.7122
1044.7099
1044.7103
1044.7104
1044.7099
1044.709
1044.7086
1044.7114
1044.7136
1044.715
1044.715
1044.7129
1044.713
1044.7129
1044.7124
1044.7116
1044.7114
1044.7149
1044.718
1044.7155
1044.7163
1044.715
1044.7148
1044.7146
1044.714
1044.7133
1044.7136
1044.718
1044.7181
1026.8322
1026.8327
1026.8304
1026.8315
1026.8324
1026.8326
1026.8325
1026.8326
1026.8341
1026.8344
1026.8327
1026.8315
1026.8301
1026.8313
1026.8322
1026.8323
1026.8319
1026.8318
1026.8342
1026.8352
1026.8304
1026.8301
1026.829
1026.8302
1026.8309
1026.8309
1026.8302
1026.8298
1026.8324
1026.8341
1026.8315
1026.8313
1026.8302
1026.8313
1026.832
1026.8318
1026.8309
1026.8302
1026.8324
1026.8339
1026.8324
1026.8322
1026.8309
1026.832
1026.8325
1026.8322
1026.8311
1026.8302
1026.8323
1026.8336
1026.8326
1026.8323
1026.8309
1026.8318
1026.8322
1026.8317
1026.8306
1026.8296
1026.8316
1026.8329
1026.8325
1026.8319
1026.8302
1026.8309
1026.8311
1026.8306
1026.8294
1026.8285
1026.8306
1026.832
1026.8326
1026.8318
1026.8298
1026.8302
1026.8302
1026.8296
1026.8285
1026.8277
1026.8301
1026.832
1026.8341
1026.8342
1026.8324
1026.8324
1026.8323
1026.8316
1026.8306
1026.8301
1026.8331
1026.8358
1026.8344
1026.8352
1026.8341
1026.8339
1026.8336
1026.8329
1026.832
1026.832
1026.8358
1026.8358
1007.9333
1007.9339
1007.9319
1007.933
1007.9339
1007.934
1007.9336
1007.9334
1007.9345
1007.9347
1007.9339
1007.9329
1007.9319
1007.9331
1007.9338
1007.9338
1007.9332
1007.9328
1007.9347
1007.9355
1007.9319
1007.9319
1007.931
1007.9322
1007.9329
1007.9327
1007.9318
1007.9311
1007.9332
1007.9345
1007.933
1007.9331
1007.9322
1007.9334
1007.9339
1007.9336
1007.9325
1007.9315
1007.9332
1007.9343
1007.9339
1007.9338
1007.9329
1007.9339
1007.9343
1007.9339
1007.9326
1007.9315
1007.933
1007.934
1007.934
1007.9338
1007.9327
1007.9336
1007.9339
1007.9333
1007.932
1007.9307
1007.9322
1007.9332
1007.9336
1007.9332
1007.9318
1007.9325
1007.9326
1007.932
1007.9306
1007.9294
1007.931
1007.9321
1007.9334
1007.9328
1007.9311
1007.9315
1007.9315
1007.9307
1007.9294
1007.9283
1007.9302
1007.9317
1007.9345
1007.9347
1007.9332
1007.9332
1007.933
1007.9322
1007.931
1007.9302
1007.9327
1007.9351
1007.9347
1007.9355
1007.9345
1007.9343
1007.934
1007.9332
1007.9321
1007.9317
1007.9351
1007.9349
988.13532
988.136
988.13445
988.13557
988.13628
988.13626
988.13572
988.13529
988.13602
988.13602
988.136
988.13533
988.13458
988.13578
988.13642
988.13625
988.13547
988.13484
988.13629
988.13678
988.13445
988.13458
988.134
988.13518
988.13574
988.13541
988.13436
988.13341
988.13494
988.13597
988.13557
988.13578
988.13518
988.13629
988.13675
988.13628
988.13501
988.13374
988.13499
988.13582
988.13628
988.13642
988.13574
988.13675
988.1371
988.1365
988.13509
988.13365
988.13473
988.13542
988.13626
988.13625
988.13541
988.13628
988.1365
988.13581
988.13432
988.13281
988.13383
988.13449
988.13572
988.13547
988.13436
988.13501
988.13509
988.13432
988.13279
988.1313
988.13241
988.13317
988.13529
988.13484
988.13341
988.13374
988.13365
988.13281
988.1313
988.12995
988.13135
988.13254
988.13602
988.13629
988.13494
988.13499
988.13473
988.13383
988.13241
988.13135
988.13336
988.1354
988.13602
988.13678
988.13597
988.13582
988.13542
988.13449
988.13317
988.13254
988.1354
988.13506
967.55837
967.5591
967.55793
967.55904
967.55966
967.55951
967.5588
967.55813
967.55854
967.55836
967.5591
967.5587
967.55823
967.5594
967.55995
967.55966
967.55871
967.55784
967.55887
967.55911
967.55793
967.55823
967.55791
967.55905
967.55951
967.55907
967.55787
967.55667
967.55775
967.55845
967.55904
967.5594
967.55905
967.56012
967.56048
967.5599
967.55849
967.557
967.5578
967.55831
967.55966
967.55995
967.55951
967.56048
967.56075
967.56005
967.5585
967.55684
967.55747
967.55785
967.55951
967.55966
967.55907
967.5599
967.56005
967.55925
967.55762
967.55589
967.55648
967.55682
967.5588
967.55871
967.55787
967.55849
967.5585
967.55762
967.55595
967.55425
967.55491
967.55536
967.55813
967.55784
967.55667
967.557
967.55684
967.55589
967.55425
967.55267
967.5536
967.55446
967.55854
967.55887
967.55775
967.5578
967.55747
967.55648
967.55491
967.5536
967.55512
967.5568
967.55836
967.55911
967.55845
967.55831
967.55785
967.55682
967.55536
967.55446
967.5568
967.55631
946.32215
946.32293
946.32211
946.32319
946.32372
946.32345
946.32259
946.32171
946.32181
946.32148
946.32293
946.32277
946.32257
946.32368
946.32415
946.32374
946.32266
946.32157
946.3222
946.32222
946.32211
946.32257
946.32247
946.32356
946.32393
946.32339
946.32206
946.32065
946.3213
946.3217
946.32319
946.32368
946.32356
946.32457
946.32485
946.32417
946.32265
946.32096
946.32134
946.32156
946.32372
946.32415
946.32393
946.32485
946.32502
946.32423
946.32258
946.32073
946.32096
946.32105
946.32345
946.32374
946.32339
946.32417
946.32423
946.32335
946.32161
946.3197
946.31988
946.31994
946.32259
946.32266
946.32206
946.32265
946.32258
946.32161
946.31984
946.31795
946.3182
946.31835
946.32171
946.32157
946.32065
946.32096
946.32073
946.3197
946.31795
946.31618
946.31668
946.31722
946.32181
946.3222
946.3213
946.32134
946.32096
946.31988
946.3182
946.31668
946.31774
946.31907
946.32148
946.32222
946.3217
946.32156
946.32105
946.31994
946.31835
946.31722
946.31907
946.31843
924.54551
924.54633
924.54585
924.54687
924.54731
924.54693
924.54595
924.54488
924.54471
924.54424
924.54633
924.5464
924.54643
924.54748
924.54785
924.54735
924.54615
924.54487
924.54513
924.54494
924.54585
924.54643
924.54654
924.54756
924.54784
924.5472
924.54578
924.5442
924.54445
924.54457
924.54687
924.54748
924.54756
924.5485
924.54869
924.54793
924.54632
924.54448
924.54448
924.54442
924.54731
924.54785
924.54784
924.54869
924.54878
924.54791
924.54617
924.54419
924.54404
924.54387
924.54693
924.54735
924.5472
924.54793
924.54791
924.54695
924.54514
924.54309
924.5429
924.54271
924.54595
924.54615
924.54578
924.54632
924.54617
924.54514
924.5433
924.54126
924.54114
924.54102
924.54488
924.54487
924.5442
924.54448
924.54419
924.54309
924.54126
924.53934
924.53945
924.53969
924.54471
924.54513
924.54445
924.54448
924.54404
924.5429
924.54114
924.53945
924.54007
924.54106
924.54424
924.54494
924.54457
924.54442
924.54387
924.54271
924.54102
924.53969
924.54106
924.54029
902.34591
902.34674
902.34657
902.34753
902.34786
902.34739
902.3463
902.34509
902.34466
902.34407
902.34674
902.34701
902.34726
902.34823
902.34849
902.34791
902.34662
902.3452
902.34512
902.34474
902.34657
902.34726
902.34756
902.34849
902.34867
902.34796
902.34646
902.34476
902.34464
902.34449
902.34753
902.34823
902.34849
902.34935
902.34944
902.34861
902.34695
902.345
902.34465
902.34435
902.34786
902.34849
902.34867
902.34944
902.34944
902.34852
902.34673
902.34465
902.34417
902.34376
902.34739
902.34791
902.34796
902.34861
902.34852
902.3475
902.34565
902.34351
902.34299
902.34255
902.3463
902.34662
902.34646
902.34695
902.34673
902.34565
902.34376
902.34163
902.34117
902.34081
902.34509
902.3452
902.34476
902.345
902.34465
902.34351
902.34163
902.3396
902.33934
902.33931
902.34466
902.34512
902.34464
902.34465
902.34417
902.34299
902.34117
902.33934
902.33956
902.34023
902.34407
902.34474
902.34449
902.34435
902.34376
902.34255
902.34081
902.33931
902.34023
902.33936
879.83888
879.83971
879.83983
879.84071
879.84094
879.84038
879.83922
879.83788
879.83723
879.83654
879.83971
879.84017
879.84061
879.84148
879.84165
879.84099
879.83964
879.8381
879.83771
879.83717
879.83983
879.84061
879.84107
879.8419
879.84199
879.84121
879.83967
879.83787
879.83742
879.83704
879.84071
879.84148
879.8419
879.84266
879.84267
879.84179
879.84009
879.83807
879.83742
879.83689
879.84094
879.84165
879.84199
879.84267
879.84258
879.84161
879.83981
879.83767
879.8369
879.83628
879.84038
879.84099
879.84121
879.84179
879.84161
879.84056
879.8387
879.8365
879.83569
879.83505
879.83922
879.83964
879.83967
879.84009
879.83981
879.8387
879.8368
879.83461
879.83385
879.83327
879.83788
879.8381
879.83787
879.83807
879.83767
879.8365
879.83461
879.83251
879.83193
879.83165
879.83723
879.83771
879.83742
879.83742
879.8369
879.83569
879.83385
879.83193
879.83179
879.83215
879.83654
879.83717
879.83704
879.83689
879.83628
879.83505
879.83327
879.83165
879.83215
879.83119
857.1377
857.13851
857.1389
857.13968
857.1398
857.13918
857.13795
857.13653
857.13569
857.13492
857.13851
857.13914
857.13973
857.1405
857.14056
857.13985
857.13846
857.13683
857.13617
857.13549
857.1389
857.13973
857.14034
857.14105
857.14105
857.14023
857.13867
857.13681
857.13607
857.13547
857.13968
857.1405
857.14105
857.14171
857.14162
857.14071
857.13901
857.13696
857.13604
857.13532
857.1398
857.14056
857.14105
857.14162
857.14146
857.14046
857.13867
857.13651
857.13549
857.13469
857.13918
857.13985
857.14023
857.14071
857.14046
857.13939
857.13754
857.13534
857.13427
857.13346
857.13795
857.13846
857.13867
857.13901
857.13867
857.13754
857.13567
857.13347
857.13244
857.13168
857.13653
857.13683
857.13681
857.13696
857.13651
857.13534
857.13347
857.13134
857.13048
857.12998
857.13569
857.13617
857.13607
857.13604
857.13549
857.13427
857.13244
857.13048
857.13001
857.13009
857.13492
857.13549
857.13547
857.13532
857.13469
857.13346
857.13168
857.12998
857.13009
857.12906
834.35296
834.35373
834.35437
834.35504
834.35506
834.35437
834.35312
834.35164
834.35063
834.34981
834.35373
834.35451
834.35525
834.35589
834.35586
834.35509
834.35369
834.35202
834.35112
834.35031
834.35437
834.35525
834.35597
834.35656
834.35646
834.35561
834.35406
834.35218
834.35118
834.3504
834.35504
834.35589
834.35656
834.35709
834.35693
834.35599
834.35432
834.35228
834.35112
834.35024
834.35506
834.35586
834.35646
834.35693
834.35669
834.35568
834.35393
834.35179
834.35055
834.3496
834.35437
834.35509
834.35561
834.35599
834.35568
834.3546
834.3528
834.35062
834.34935
834.34839
834.35312
834.35369
834.35406
834.35432
834.35393
834.3528
834.35098
834.3488
834.34756
834.34665
834.35164
834.35202
834.35218
834.35228
834.35179
834.35062
834.3488
834.34668
834.34559
834.34489
834.35063
834.35112
834.35118
834.35112
834.35055
834.34935
834.34756
834.34559
834.34482
834.34465
834.34981
834.35031
834.3504
834.35024
834.3496
834.34839
834.34665
834.34489
834.34465
834.34358
811.5923
811.59302
811.59388
811.59443
811.59434
811.59361
811.59234
811.59083
811.5897
811.58883
811.59302
811.59392
811.59478
811.59529
811.59515
811.59436
811.59296
811.59127
811.59017
811.58927
811.59388
811.59478
811.59559
811.59605
811.59586
811.59499
811.59347
811.5916
811.59039
811.58946
811.59443
811.59529
811.59605
811.59646
811.59621
811.59526
811.59365
811.59165
811.5903
811.58929
811.59434
811.59515
811.59586
811.59621
811.59589
811.59489
811.59321
811.59113
811.58972
811.58865
811.59361
811.59436
811.59499
811.59526
811.59489
811.59383
811.5921
811.58999
811.58855
811.58747
811.59234
811.59296
811.59347
811.59365
811.59321
811.5921
811.59036
811.58825
811.58683
811.58579
811.59083
811.59127
811.5916
811.59165
811.59113
811.58999
811.58825
811.58618
811.58488
811.58403
811.5897
811.59017
811.59039
811.5903
811.58972
811.58855
811.58683
811.58488
811.58387
811.58347
811.58883
811.58927
811.58946
811.58929
811.58865
811.58747
811.58579
811.58403
811.58347
811.58238
788.96007
788.96073
788.96178
788.9622
788.96201
788.96125
788.95999
788.95848
788.95724
788.95636
788.96073
788.96173
788.96269
788.96306
788.96283
788.96201
788.96065
788.95897
788.95769
788.95672
788.96178
788.96269
788.96358
788.9639
788.96362
788.96274
788.96128
788.95946
788.95806
788.957
788.9622
788.96306
788.9639
788.96417
788.96384
788.9629
788.96137
788.95944
788.95795
788.95682
788.96201
788.96283
788.96362
788.96384
788.96346
788.96247
788.96088
788.9589
788.95735
788.95619
788.96125
788.96201
788.96274
788.9629
788.96247
788.96144
788.95982
788.95781
788.95624
788.95507
788.95999
788.96065
788.96128
788.96137
788.96088
788.95982
788.95818
788.95617
788.95462
788.95348
788.95848
788.95897
788.95946
788.95944
788.9589
788.95781
788.95617
788.95419
788.95273
788.95174
788.95724
788.95769
788.95806
788.95795
788.95735
788.95624
788.95462
788.95273
788.95151
788.9509
788.95636
788.95672
788.957
788.95682
788.95619
788.95507
788.95348
788.95174
788.9509
788.9498
766.55714
766.55771
766.55894
766.55922
766.55893
766.55815
766.55692
766.55543
766.55413
766.55324
766.55771
766.55879
766.55983
766.56005
766.55973
766.5589
766.5576
766.55596
766.55454
766.55352
766.55894
766.55983
766.56078
766.56095
766.56059
766.55972
766.55834
766.55659
766.55505
766.55388
766.55922
766.56005
766.56095
766.56108
766.56068
766.55976
766.55833
766.55651
766.55491
766.5537
766.55893
766.55973
766.56059
766.56068
766.56023
766.55928
766.55781
766.55595
766.55431
766.55309
766.55815
766.5589
766.55972
766.55976
766.55928
766.5583
766.5568
766.55492
766.55327
766.55203
766.55692
766.5576
766.55834
766.55833
766.55781
766.5568
766.55529
766.55341
766.55177
766.55056
766.55543
766.55596
766.55659
766.55651
766.55595
766.55492
766.55341
766.55156
766.54998
766.54888
766.55413
766.55454
766.55505
766.55491
766.55431
766.55327
766.55177
766.54998
766.54858
766.54779
766.55324
766.55352
766.55388
766.5537
766.55309
766.55203
766.55056
766.54888
766.54779
766.54671
744.48059
744.48107
744.48245
744.48259
744.48221
744.48141
744.48024
744.4788
744.47745
744.47659
744.48107
744.48221
744.48331
744.48338
744.48297
744.48215
744.48092
744.47935
744.47783
744.47678
744.48245
744.48331
744.4843
744.48432
744.48388
744.48303
744.48175
744.48011
744.47845
744.47721
744.48259
744.48338
744.48432
744.48431
744.48384
744.48296
744.48165
744.47997
744.47828
744.47703
744.48221
744.48297
744.48388
744.48384
744.48334
744.48243
744.4811
744.4794
744.4777
744.47644
744.48141
744.48215
744.48303
744.48296
744.48243
744.48151
744.48016
744.47845
744.47674
744.47547
744.48024
744.48092
744.48175
744.48165
744.4811
744.48016
744.47881
744.47709
744.47539
744.47413
744.4788
744.47935
744.48011
744.47997
744.4794
744.47845
744.47709
744.47539
744.47372
744.47254
744.47745
744.47783
744.47845
744.47828
744.4777
744.47674
744.47539
744.47372
744.47218
744.47124
744.47659
744.47678
744.47721
744.47703
744.47644
744.47547
744.47413
744.47254
744.47124
744.4702
722.82358
722.82396
722.82547
722.82547
722.82499
722.8242
722.82309
722.82173
722.82036
722.81953
722.82396
722.82515
722.82628
722.8262
722.82571
722.8249
722.82376
722.8223
722.82069
722.81963
722.82547
722.82628
722.8273
722.82717
722.82665
722.82583
722.82468
722.82317
722.82143
722.82013
722.82547
722.8262
722.82717
722.82701
722.82648
722.82564
722.82448
722.82297
722.82124
722.81995
722.82499
722.82571
722.82665
722.82648
722.82593
722.82508
722.82391
722.8224
722.82067
722.81939
722.8242
722.8249
722.82583
722.82564
722.82508
722.82423
722.82305
722.82153
722.8198
722.81853
722.82309
722.82376
722.82468
722.82448
722.82391
722.82305
722.82187
722.82035
722.81862
722.81735
722.82173
722.8223
722.82317
722.82297
722.8224
722.82153
722.82035
722.81883
722.81712
722.81588
722.82036
722.82069
722.82143
722.82124
722.82067
722.8198
722.81862
722.81712
722.81547
722.81439
722.81953
722.81963
722.82013
722.81995
722.81939
722.81853
722.81735
722.81588
722.81439
722.81342
701.67512
701.67538
701.67701
701.67686
701.6763
701.67551
701.67449
701.67323
701.67186
701.67109
701.67538
701.6766
701.67776
701.67752
701.67695
701.67617
701.67514
701.6738
701.67214
701.6711
701.67701
701.67776
701.67878
701.6785
701.67792
701.67714
701.67613
701.67477
701.67299
701.67166
701.67686
701.67752
701.6785
701.6782
701.67761
701.67684
701.67583
701.67451
701.67277
701.67147
701.6763
701.67695
701.67792
701.67761
701.67701
701.67624
701.67525
701.67395
701.67222
701.67096
701.67551
701.67617
701.67714
701.67684
701.67624
701.67548
701.67449
701.67319
701.67147
701.67021
701.67449
701.67514
701.67613
701.67583
701.67525
701.67449
701.6735
701.6722
701.67048
701.66921
701.67323
701.6738
701.67477
701.67451
701.67395
701.67319
701.6722
701.67088
701.66915
701.66789
701.67186
701.67214
701.67299
701.67277
701.67222
701.67147
701.67048
701.66915
701.66744
701.66625
701.67109
701.6711
701.67166
701.67147
701.67096
701.67021
701.66921
701.66789
701.66625
701.66535
681.11988
681.12002
681.12175
681.12145
681.1208
681.12004
681.11912
681.11797
681.11664
681.11594
681.12002
681.12125
681.12242
681.12203
681.12139
681.12065
681.11974
681.11854
681.11686
681.11585
681.12175
681.12242
681.12344
681.12301
681.12237
681.12164
681.12078
681.11961
681.11781
681.11647
681.12145
681.12203
681.12301
681.12256
681.12192
681.12122
681.1204
681.11929
681.11756
681.11628
681.1208
681.12139
681.12237
681.12192
681.12129
681.12061
681.11981
681.11873
681.11705
681.11581
681.12004
681.12065
681.12164
681.12122
681.12061
681.11994
681.11915
681.11809
681.11642
681.11519
681.11912
681.11974
681.12078
681.1204
681.11981
681.11915
681.11838
681.11731
681.11563
681.11439
681.11797
681.11854
681.11961
681.11929
681.11873
681.11809
681.11731
681.11623
681.11451
681.11323
681.11664
681.11686
681.11781
681.11756
681.11705
681.11642
681.11563
681.11451
681.11275
681.11148
681.11594
681.11585
681.11647
681.11628
681.11581
681.11519
681.11439
681.11323
681.11148
681.11067
661.23805
661.23806
661.23986
661.23942
661.2387
661.23798
661.23717
661.23616
661.23487
661.23425
661.23806
661.23928
661.24046
661.23991
661.23921
661.23851
661.23775
661.23671
661.23504
661.23407
661.23986
661.24046
661.24146
661.24088
661.24018
661.23953
661.23883
661.23785
661.23606
661.23473
661.23942
661.23991
661.24088
661.2403
661.23961
661.23899
661.23836
661.23748
661.23579
661.23455
661.2387
661.23921
661.24018
661.23961
661.23896
661.23836
661.23777
661.23695
661.23532
661.23414
661.23798
661.23851
661.23953
661.23899
661.23836
661.2378
661.23724
661.23643
661.23483
661.23366
661.23717
661.23775
661.23883
661.23836
661.23777
661.23724
661.23668
661.23588
661.23426
661.23307
661.23616
661.23671
661.23785
661.23748
661.23695
661.23643
661.23588
661.23504
661.23337
661.2321
661.23487
661.23504
661.23606
661.23579
661.23532
661.23483
661.23426
661.23337
661.2316
661.23025
661.23425
661.23407
661.23473
661.23455
661.23414
661.23366
661.23307
661.2321
661.23025
661.22955
642.10514
642.10502
642.10689
642.1063
642.10552
642.10484
642.10416
642.1033
642.10208
642.10156
642.10502
642.10623
642.10739
642.1067
642.10594
642.1053
642.10469
642.10383
642.10218
642.10128
642.10689
642.10739
642.10837
642.10765
642.10691
642.10632
642.10581
642.10504
642.10329
642.10199
642.1063
642.1067
642.10765
642.10693
642.10621
642.10568
642.10525
642.10462
642.103
642.10181
642.10552
642.10594
642.10691
642.10621
642.10553
642.10505
642.10468
642.10411
642.10258
642.10146
642.10484
642.1053
642.10632
642.10568
642.10505
642.1046
642.10427
642.10374
642.10223
642.10113
642.10416
642.10469
642.10581
642.10525
642.10468
642.10427
642.10395
642.10342
642.10189
642.10076
642.1033
642.10383
642.10504
642.10462
642.10411
642.10374
642.10342
642.10285
642.10124
642.1
642.10208
642.10218
642.10329
642.103
642.10258
642.10223
642.10189
642.10124
642.09948
642.09809
642.10156
642.10128
642.10199
642.10181
642.10146
642.10113
642.10076
642.1
642.09809
642.0975
623.79187
623.79162
623.79353
623.7928
623.79197
623.79134
623.79081
623.79011
623.78898
623.78856
623.79162
623.7928
623.79394
623.7931
623.7923
623.79173
623.79128
623.79061
623.78901
623.78818
623.79353
623.79394
623.79488
623.79402
623.79325
623.79275
623.79243
623.79189
623.79019
623.78893
623.7928
623.7931
623.79402
623.79317
623.79244
623.79201
623.79179
623.79141
623.78988
623.78877
623.79197
623.7923
623.79325
623.79244
623.79174
623.79137
623.79123
623.79094
623.78952
623.78849
623.79134
623.79173
623.79275
623.79201
623.79137
623.79105
623.79096
623.79071
623.78932
623.78832
623.79081
623.79128
623.79243
623.79179
623.79123
623.79096
623.79088
623.79064
623.78922
623.78818
623.79011
623.79061
623.79189
623.79141
623.79094
623.79071
623.79064
623.79035
623.78883
623.78765
623.78898
623.78901
623.79019
623.78988
623.78952
623.78932
623.78922
623.78883
623.78712
623.7857
623.78856
623.78818
623.78893
623.78877
623.78849
623.78832
623.78818
623.78765
623.7857
623.78524
606.36397
606.36358
606.36553
606.36467
606.3638
606.36323
606.36284
606.36232
606.3613
606.36099
606.36358
606.36472
606.36584
606.36487
606.36402
606.36354
606.36326
606.36279
606.36127
606.36053
606.36553
606.36584
606.36674
606.36575
606.36495
606.36455
606.36442
606.36412
606.3625
606.36131
606.36467
606.36487
606.36575
606.36478
606.36403
606.36371
606.36372
606.36361
606.36219
606.36116
606.3638
606.36402
606.36495
606.36403
606.36334
606.36309
606.36318
606.36318
606.36189
606.36096
606.36323
606.36354
606.36455
606.36371
606.36309
606.3629
606.36305
606.36311
606.36185
606.36096
606.36284
606.36326
606.36442
606.36372
606.36318
606.36305
606.36324
606.36329
606.36201
606.36106
606.36232
606.36279
606.36412
606.36361
606.36318
606.36311
606.36329
606.36329
606.36188
606.36076
606.3613
606.36127
606.3625
606.36219
606.36189
606.36185
606.36201
606.36188
606.36023
606.35881
606.36099
606.36053
606.36131
606.36116
606.36096
606.36096
606.36106
606.36076
606.35881
606.35848
589.88206
589.88153
589.8835
589.88252
589.88162
589.88113
589.8809
589.88057
589.87967
589.87947
589.88153
589.88263
589.8837
589.88261
589.88174
589.88134
589.88126
589.881
589.87956
589.87892
589.8835
589.8837
589.88457
589.88346
589.88264
589.88234
589.88243
589.88238
589.88085
589.87974
589.88252
589.88261
589.88346
589.88238
589.88162
589.88142
589.88166
589.88183
589.88054
589.87961
589.88162
589.88174
589.88264
589.88162
589.88094
589.88082
589.88116
589.88146
589.88031
589.8795
589.88113
589.88134
589.88234
589.88142
589.88082
589.88078
589.88118
589.88154
589.88044
589.87966
589.8809
589.88126
589.88243
589.88166
589.88116
589.88118
589.88163
589.88199
589.88085
589.88002
589.88057
589.881
589.88238
589.88183
589.88146
589.88154
589.88199
589.88229
589.88101
589.87997
589.87967
589.87956
589.88085
589.88054
589.88031
589.88044
589.88085
589.88101
589.87944
589.87803
589.87947
589.87892
589.87974
589.87961
589.8795
589.87966
589.88002
589.87997
589.87803
589.87784
574.40147
574.40081
574.4028
574.40171
574.40078
574.40038
574.40032
574.40019
574.39942
574.39935
574.40081
574.40185
574.40289
574.40169
574.40081
574.40051
574.40061
574.40058
574.39925
574.39872
574.4028
574.40289
574.40371
574.40249
574.40167
574.40149
574.40179
574.402
574.4006
574.39958
574.40171
574.40169
574.40249
574.40132
574.40057
574.4005
574.40097
574.40143
574.40029
574.39947
574.40078
574.40081
574.40167
574.40057
574.3999
574.39993
574.40052
574.40112
574.40014
574.39945
574.40038
574.40051
574.40149
574.4005
574.39993
574.40004
574.4007
574.40137
574.40044
574.3998
574.40032
574.40061
574.40179
574.40097
574.40052
574.4007
574.40141
574.40209
574.40112
574.40041
574.40019
574.40058
574.402
574.40143
574.40112
574.40137
574.40209
574.40269
574.40156
574.40062
574.39942
574.39925
574.4006
574.40029
574.40014
574.40044
574.40112
574.40156
574.4001
574.39871
574.39935
574.39872
574.39958
574.39947
574.39945
574.3998
574.40041
574.40062
574.39871
574.39868
559.97213
559.97135
559.97334
559.97216
559.97123
559.97093
559.97105
559.97113
559.97051
559.97057
559.97135
559.97233
559.97333
559.97203
559.97116
559.97097
559.97128
559.97148
559.97027
559.96986
559.97334
559.97333
559.9741
559.9728
559.97199
559.97193
559.97246
559.97293
559.97167
559.97075
559.97216
559.97203
559.9728
559.97154
559.97082
559.97088
559.9716
559.97235
559.97137
559.97068
559.97123
559.97116
559.97199
559.97082