/*--------------------------------*- C++ -*----------------------------------*\
| =========                 |                                                 |
| \\      /  F ield         | OpenFOAM: The Open Source CFD Toolbox           |
|  \\    /   O peration     | Version:  v2106                                 |
|   \\  /    A nd           | Website:  www.openfoam.com                      |
|    \\/     M anipulation  |                                                 |
\*---------------------------------------------------------------------------*/
FoamFile
{
    version     2.0;
    format      ascii;
    arch        "LSB;label=32;scalar=64";
    class       volScalarField;
    location    "20";
    object      gradTx;
}
// * * * * * * * * * * * * * * * * * * * * * * * * * * * * * * * * * * * * * //

dimensions      [0 -1 0 1 0 0 0];

internalField   nonuniform List<scalar> 
4000
(
0.00043983623
-0.0012477003
-0.0017310121
0.00042208334
0.00041655768
0.00032155092
0.00032091337
0.00036099771
0.00032236177
8.7762267e-05
-0.00082532324
-0.002366636
-0.00085453051
0.0005152618
0.0003988834
0.00029649332
0.00032205204
0.00046223695
0.00055190786
0.00018198127
-0.0003061209
-0.0014592367
-0.00071274784
0.00052179288
0.00037543879
0.00025288587
0.0002724931
0.00048352192
0.00080416144
0.00032080014
-0.00024100216
-0.0013483718
-0.00070056022
0.00051217006
0.00034949649
0.00020573806
0.00019399648
0.00036460643
0.00065704106
0.00026955186
-0.00024400192
-0.0013595272
-0.0007158396
0.00049179474
0.00032194346
0.00016881339
0.00014450829
0.00030040772
0.00058517333
0.0002455293
-0.00025278501
-0.0013894906
-0.00074994713
0.00045867472
0.00029127213
0.00013950419
0.00011593317
0.00027299976
0.000561973
0.00023891042
-0.00026070699
-0.0014281923
-0.00080659485
0.00040772226
0.00025570959
0.00011557831
0.00010150821
0.00026723155
0.00056305645
0.00024018603
-0.00025202589
-0.0014379109
-0.00087800268
0.00033068991
0.00021320882
9.6504113e-05
9.9498286e-05
0.00027953816
0.00058412746
0.00024798118
-0.00019321417
-0.001305668
-0.00090422537
0.00022460805
0.00016410293
8.2402141e-05
0.00010804661
0.0003065947
0.00062159388
0.00026117329
-9.8995165e-05
-0.00095611122
-0.00077286949
0.0001117018
0.00011814076
7.4387231e-05
0.00012165275
0.00033807558
0.00065854596
0.00027261589
0.00091859833
-0.0054359561
-0.0063147284
0.001536767
0.0018385513
0.001526368
0.0015644035
0.0017884062
0.0014484209
0.00033263982
-0.0024586247
-0.0081648482
-0.0036248705
0.001881614
0.0017707231
0.0014081739
0.0015863417
0.0023726868
0.0024316569
0.00065219176
-0.00090066306
-0.0052629294
-0.0029580461
0.0019627617
0.0016686565
0.0011941715
0.0013488254
0.0025361467
0.0036542689
0.0012883731
-0.00066538607
-0.0048081658
-0.0028439041
0.0019362408
0.0015447753
0.00096247085
0.00096936666
0.0020028158
0.0030689937
0.0010985272
-0.00067076505
-0.0048369346
-0.0029034192
0.0018401768
0.0014098724
0.00078077912
0.00072579672
0.0016920508
0.002727017
0.0009846982
-0.00071060488
-0.0049780606
-0.0030698519
0.0016774567
0.0012594286
0.00063737478
0.00058557489
0.001556779
0.0026094937
0.00095012542
-0.00074956111
-0.0051691312
-0.0033491223
0.0014267844
0.0010847763
0.00052126151
0.00051749893
0.001532524
0.0026201779
0.00095836692
-0.00069597941
-0.0051936387
-0.0036868269
0.0010544281
0.00087563682
0.00042907698
0.00051306363
0.0016032573
0.0027415377
0.0010042123
-0.00036004069
-0.0044213906
-0.0037189933
0.00058268846
0.00063873953
0.00036173479
0.0005639773
0.0017524918
0.0029455002
0.0010757588
-4.0488751e-05
-0.0029877908
-0.0030494902
0.00012717615
0.00041613685
0.00032223786
0.00064510759
0.0019285796
0.0030713296
0.0010880986
0.00069163326
-0.0083574405
-0.0085194065
0.0025686908
0.0030274967
0.0025654564
0.002763207
0.0034379145
0.0023410446
0.00029011375
-0.0037165794
-0.011869175
-0.0049333588
0.0030335547
0.0028888927
0.0023119761
0.0027718118
0.0047967249
0.0047787564
0.0011054347
-0.001649523
-0.0079499878
-0.0039537626
0.0031553354
0.0026976167
0.001898547
0.0022589937
0.0049418807
0.0066534659
0.002090836
-0.001325881
-0.007303531
-0.0037739497
0.0031031877
0.0024733894
0.0014822757
0.0015831913
0.0040301066
0.0057148727
0.0017977621
-0.0013396137
-0.0073633432
-0.0038841296
0.0029285347
0.0022305053
0.0011581069
0.0011525454
0.0034922372
0.0051385489
0.0016083426
-0.0014182836
-0.007633411
-0.004189453
0.0026360763
0.0019615605
0.00090379196
0.00090679675
0.0032596292
0.0049402524
0.0015504297
-0.0015086005
-0.0080302525
-0.00471383
0.0021880946
0.0016520216
0.00070193899
0.00079702493
0.0032372375
0.0049897199
0.001576678
-0.0014125471
-0.0081376243
-0.0053780735
0.0015296281
0.0012851659
0.00054827147
0.00081441873
0.0034130608
0.0052882355
0.0016917266
-0.00060272695
-0.0065262864
-0.0054804483
0.00073845103
0.0008815442
0.00044693937
0.00095045656
0.0037637098
0.0057395255
0.0018427825
0.00021259402
-0.003825203
-0.0044419572
1.471106e-05
0.00051054564
0.00039944245
0.0011624019
0.0041628664
0.0053571251
0.0014367931
0.00070309552
-0.010299874
-0.010033413
0.0036060578
0.0040543397
0.0033973712
0.0038318665
0.0054071556
0.0039642136
0.000507293
-0.0045356536
-0.014431211
-0.0057299436
0.0041388038
0.003822198
0.0029595642
0.0036967558
0.0073292319
0.0075057534
0.0016632629
-0.0020511291
-0.0097064001
-0.0045396981
0.0042637349
0.0035272223
0.0023343887
0.002888373
0.0074432499
0.0099847657
0.0029659973
-0.001666674
-0.0089374961
-0.0043359537
0.0041661371
0.0031943375
0.0017309271
0.0019200795
0.006180311
0.0087502838
0.0025925713
-0.0016959651
-0.009048723
-0.0045123648
0.0039039264
0.0028398194
0.0012648091
0.0013077252
0.0054310849
0.0079687298
0.002339243
-0.0018214351
-0.0094646136
-0.0049638143
0.0034787342
0.002452638
0.00090327003
0.00096414984
0.0051140551
0.0077061137
0.0022636592
-0.0019878364
-0.010111706
-0.0057410019
0.0028343468
0.0020121623
0.00062374691
0.00082768185
0.0051188481
0.0078286982
0.0023203664
-0.0019115089
-0.010408107
-0.0067404906
0.0018980864
0.0014967083
0.00042322671
0.00089775608
0.0054631327
0.0084107909
0.0025474417
-0.00070645225
-0.0080756113
-0.0068899228
0.00082218188
0.00094590641
0.00031151002
0.0011767595
0.0061510578
0.009320065
0.0028559942
0.00044951767
-0.0043875549
-0.0054959602
-0.00011794953
0.00045253822
0.00028319511
0.0016024333
0.0069544995
0.0078232619
0.001549573
0.00079188691
-0.011856248
-0.011235057
0.0046390584
0.0049351032
0.0039798161
0.0045671892
0.0070891479
0.0055408995
0.00076279394
-0.0051929013
-0.01652186
-0.0062709203
0.0052190719
0.0046007256
0.0033454065
0.0042542242
0.009505567
0.010040233
0.0021911498
-0.0023185208
-0.01106078
-0.0049128539
0.0053254085
0.0041920096
0.0025027644
0.0031445601
0.0095839869
0.013084797
0.0037862341
-0.0018834766
-0.010199657
-0.0047099442
0.0051672564
0.0037430635
0.0017098627
0.0018870441
0.0079857907
0.011579899
0.0033410627
-0.0019318452
-0.01037443
-0.0049646693
0.0048094214
0.0032733573
0.0011021731
0.0010975108
0.0070364541
0.010610851
0.0030304422
-0.002106395
-0.01094275
-0.0055676063
0.004248604
0.0027680729
0.00063667287
0.00066259204
0.0066448761
0.010295273
0.0029408905
-0.002354785
-0.011851481
-0.0066002131
0.0034088301
0.0022001675
0.00028609918
0.00051035414
0.0066932931
0.010511265
0.0030351031
-0.0023150384
-0.012365379
-0.0079347864
0.0022015547
0.0015436208
4.9516245e-05
0.00065300686
0.0072452086
0.011445376
0.0034025062
-0.00074383889
-0.0093566424
-0.0081199895
0.0008612974
0.0008592529
-5.7061877e-05
0.0011106866
0.0083634995
0.013002054
0.0039501019
0.00068451702
-0.0048214822
-0.0063951201
-0.00027239047
0.0002589946
-5.0070433e-05
0.0018031102
0.0097359976
0.01033486
0.001624377
0.00091364532
-0.013150614
-0.012194477
0.0056606145
0.0056850975
0.004334749
0.0049815894
0.0084041383
0.0068751231
0.0009792754
-0.0057484232
-0.018282658
-0.0066146274
0.0062753947
0.0052446859
0.0035003311
0.0044762129
0.01126641
0.012252328
0.002650991
-0.0025077175
-0.012137263
-0.0051140053
0.0063502748
0.0047162105
0.0024376175
0.0030617355
0.011293599
0.015813205
0.0045142272
-0.0020285234
-0.011202186
-0.0049267437
0.0061218466
0.0041463843
0.0014544922
0.0015182495
0.0093685391
0.014047493
0.0039999374
-0.002097864
-0.011447602
-0.0052675534
0.0056629201
0.0035591975
0.00070602306
0.00055543471
0.0082267043
0.012901032
0.0036355128
-0.0023221312
-0.012171073
-0.0060250453
0.0049648336
0.0029362715
0.00013928134
3.4015915e-05
0.0077671239
0.012539002
0.0035339209
-0.0026541426
-0.013344734
-0.0073133923
0.0039313257
0.0022439866
-0.00027754158
-0.00012718786
0.00786774
0.012856753
0.0036681035
-0.0026590489
-0.014090927
-0.0089830087
0.0024585328
0.0014520378
-0.00054334123
9.8245972e-05
0.008644448
0.014170005
0.0041866629
-0.0007459613
-0.010455273
-0.0092112634
0.00086443088
0.0006425715
-0.00063650589
0.0007501362
0.010232698
0.016459195
0.0050108984
0.00092575427
-0.0051528453
-0.0071878438
-0.00045364062
-5.6453288e-05
-0.00058761989
0.0017292491
0.01224689
0.012699928
0.0016804846
0.0010668482
-0.014192586
-0.012926465
0.0066645954
0.0063140062
0.0044856574
0.0051075085
0.0093633249
0.0079303045
0.0011364228
-0.0062067981
-0.019730947
-0.0067779115
0.0073037582
0.0057656614
0.0034502909
0.0043986131
0.012619191
0.014109737
0.0030290727
-0.0026253926
-0.012954141
-0.0051553133
0.0073384634
0.0051142647
0.0021674053
0.0026775686
0.012574038
0.018130511
0.0051354512
-0.0021077624
-0.011959795
-0.0049938986
0.0070335468
0.0044210545
0.00099495426
0.00085228948
0.01032788
0.016108016
0.0045528212
-0.002199284
-0.012280273
-0.0054255248
0.0064703358
0.0037154388
0.00010709409
-0.00028011053
0.0089992648
0.014790712
0.0041367785
-0.0024733255
-0.013159536
-0.0063385055
0.0056347208
0.0029757926
-0.000558613
-0.00088457796
0.00847576
0.014385773
0.0040241086
-0.0028895284
-0.014598525
-0.0078808614
0.0044100246
0.0021618715
-0.0010384647
-0.0010511506
0.0086319163
0.014807005
0.0041984142
-0.0029459225
-0.015589476
-0.009884829
0.0026770417
0.0012389251
-0.0013296531
-0.00073916788
0.0096377369
0.016504686
0.004870054
-0.00071895089
-0.011387812
-0.010172173
0.00083525142
0.00030975185
-0.0014058132
0.00011082625
0.011706347
0.019554219
0.0059841503
0.001173699
-0.0053892696
-0.0078865502
-0.00066275761
-0.00048331705
-0.0013133596
0.0013797444
0.014384951
0.014799124
0.0016999905
0.0012508305
-0.014985742
-0.013441006
0.0076427792
0.0068270076
0.0044502597
0.0049704325
0.0099841434
0.0087025908
0.0012292203
-0.006568741
-0.020873535
-0.006773651
0.0082968909
0.0061703016
0.0032150301
0.0040494356
0.013579481
0.015605495
0.0033204015
-0.0026743643
-0.013521069
-0.0050482356
0.0082848698
0.0053948998
0.0017141887
0.0020226208
0.013440491
0.020026906
0.0056441094
-0.0021238376
-0.012480764
-0.0049205531
0.0078994431
0.0045776088
0.00035495866
-7.8662934e-05
0.010879474
0.01775105
0.0049937163
-0.0022382899
-0.012878979
-0.0054456833
0.0072304692
0.0037537913
-0.00067021088
-0.0013766866
0.0093693436
0.016268492
0.0045279033
-0.0025616416
-0.013912872
-0.006513246
0.0062583346
0.0028988626
-0.0014328448
-0.0020617
0.0087844341
0.015822594
0.0044046639
-0.0030617763
-0.015615049
-0.0083057548
0.0048460696
0.0019659879
-0.0019736764
-0.002232388
0.0089960307
0.016345317
0.004618082
-0.0031756395
-0.016860683
-0.010641344
0.0028590272
0.00091582554
-0.0022885462
-0.0018343373
0.010227799
0.018421497
0.0054403902
-0.00066488474
-0.012158702
-0.011005762
0.00077492213
-0.00012905171
-0.0023469893
-0.00078902362
0.012771924
0.02223182
0.0068463337
0.0014262965
-0.0055363681
-0.0084957897
-0.00089938699
-0.0010126302
-0.0022117213
0.00076456582
0.016114302
0.016575344
0.0016694061
0.00146271
-0.015538864
-0.013750783
0.0085851498
0.0072273475
0.004244023
0.0045932709
0.010285925
0.0092000586
0.0012584835
-0.0068367187
-0.021721193
-0.0066170181
0.0092454661
0.0064631913
0.0028120756
0.0034544191
0.014166927
0.016745524
0.0035251749
-0.0026588424
-0.013851455
-0.0048073168
0.009181581
0.0055643597
0.0010976863
0.0011256088
0.013914604
0.021508081
0.0060400351
-0.0020808752
-0.012777726
-0.0047198157
0.0087131614
0.004623781
-0.00044415367
-0.0012438764
0.011046952
0.018983818
0.0053229067
-0.0022186315
-0.013255024
-0.0053396215
0.007938315
0.003683067
-0.001603727
-0.0027028829
0.0093610487
0.017341902
0.0048092696
-0.0025903127
-0.014440714
-0.006559226
0.0068318687
0.0027149204
-0.0024611936
-0.0034663859
0.00871645
0.016856228
0.0046757712
-0.0031732631
-0.016401361
-0.0085958507
0.0052369018
0.001666027
-0.0030616327
-0.0036414977
0.008981122
0.017476146
0.0049265996
-0.0033495472
-0.017908376
-0.011257521
0.003003377
0.00049241085
-0.0033998084
-0.0031606861
0.010430979
0.019918414
0.0058947502
-0.00058592848
-0.012772681
-0.011715825
0.00068334621
-0.00066447536
-0.0034415595
-0.0019269688
0.013437016
0.024475342
0.0075887061
0.0016807628
-0.0056003542
-0.0090192274
-0.001162802
-0.0016351785
-0.0032655645
-9.8500337e-05
0.017430176
0.018008933
0.0015838108
0.0016983432
-0.015864798
-0.013871265
0.0094806956
0.0075176719
0.0038821592
0.0039993174
0.010290811
0.0094371837
0.0012277027
-0.007014673
-0.022288634
-0.0063255296
0.010139091
0.0066482153
0.0022586641
0.0026398362
0.014405076
0.017543445
0.0036465069
-0.0025842142
-0.013962211
-0.0044496035
0.010019341
0.0056279919
0.00033724862
1.5946804e-05
0.014022901
0.022588817
0.0063263675
-0.0019841825
-0.012866972
-0.0044076108
0.0094667117
0.0045662706
-0.0013813976
-0.0026117061
0.010859471
0.01982349
0.0055442381
-0.0021452842
-0.013423565
-0.0051219824
0.0085871036
0.003511038
-0.0026714935
-0.0042260509
0.0090045643
0.018029052
0.0049850145
-0.0025638202
-0.014756652
-0.0064895556
0.0073497578
0.0024325151
-0.0036213373
-0.00506597
0.0083017754
0.017504555
0.0048415136
-0.0032276143
-0.016968476
-0.0087620441
0.0055783614
0.0012710983
-0.0042802082
-0.0052466995
0.0086157341
0.018215849
0.0051275809
-0.003470141
-0.018740023
-0.011741098
0.0031077601
-2.1748823e-05
-0.0046419859
-0.0046882624
0.010272672
0.021007443
0.0062351323
-0.00048477124
-0.013236387
-0.012307649
0.00056002498
-0.0012865973
-0.0046690383
-0.0032758029
0.013721218
0.0262873
0.0082095176
0.0019340329
-0.0055883894
-0.0094610521
-0.0014520045
-0.0023406841
-0.0044551888
-0.0011853748
0.018344123
0.019100361
0.0014438395
0.0019528598
-0.015979217
-0.013819914
0.010318106
0.0077006691
0.0033803007
0.0032130311
0.010023672
0.0094324099
0.0011417489
-0.0071076078
-0.022593495
-0.0059182578
0.010967069
0.0067292299
0.0015723876
0.00163316
0.014320816
0.018017831
0.0036891823
-0.0024566588
-0.013872698
-0.0039936664
0.010788502
0.0055910248
-0.00054747878
-0.0012757267
0.013795649
0.023289632
0.0065082007
-0.0018398366
-0.012767247
-0.0040014862
0.01015161
0.0044116095
-0.0024354763
-0.0041491945
0.010350161
0.020293274
0.0056636003
-0.0020240164
-0.013402301
-0.0048091258
0.0091695248
0.0032453454
-0.0038511094
-0.0059120107
0.008334353
0.018354385
0.0050614017
-0.0024874628
-0.014876891
-0.0063191065
0.0078059305
0.0020602035
-0.0048902606
-0.0068258994
0.0075750703
0.01779213
0.0049081893
-0.0032292918
-0.017330081
-0.0088169897
0.0058658942
0.00079056109
-0.0056062027
-0.0070138079
0.007933701
0.018587969
0.005226989
-0.0035407102
-0.019365649
-0.012101461
0.0031696465
-0.00061650135
-0.0059920578
-0.0063840134
0.0097844884
0.021708852
0.0064662549
-0.00036452946
-0.013558105
-0.012787645
0.0004045983
-0.0019845293
-0.0060068547
-0.0048043897
0.013651807
0.027680666
0.0087105739
0.0021829039
-0.0055084269
-0.0098260179
-0.0017656001
-0.0031176457
-0.0057584737
-0.0024672914
0.018877185
0.019860985
0.0012531344
0.0022209212
-0.015899807
-0.013615439
0.011086317
0.0077794264
0.0027546665
0.0022600033
0.0095116077
0.0092068899
0.0010063195
-0.0071213217
-0.022655521
-0.0054150813
0.011718981
0.0067104335
0.00077134112
0.00046296204
0.01394368
0.018190738
0.0036590597
-0.0022828879
-0.013603899
-0.0034587926
0.011479661
0.005458975
-0.0015364172
-0.0027177394
0.013265915
0.023635018
0.0065919131
-0.0016544167
-0.012498875
-0.0035197267
0.010759584
0.0041665965
-0.0035846667
-0.0058223549
0.0095549732
0.020420399
0.0056881819
-0.0018611119
-0.013210555
-0.0044181891
0.009678469
0.0028939304
-0.0051196653
-0.0077254349
0.0073878369
0.018346479
0.0050460213
-0.0023670786
-0.014819326
-0.0060635636
0.0081945396
0.0016069409
-0.0062442658
-0.0087102357
0.0065742179
0.017747857
0.004883477
-0.0031833288
-0.017501639
-0.0087741969
0.0060952209
0.00023433128
-0.0070154697
-0.0089068942
0.0069724849
0.01862074
0.0052322598
-0.0035651061
-0.019797069
-0.012348881
0.0031868441
-0.00128094
-0.0074257251
-0.0082126721
0.0090022646
0.022048249
0.0065945218
-0.00022861428
-0.013747332
-0.013162903
0.00021714325
-0.002746424
-0.0074308217
-0.0064788474
0.013261129
0.02867487
0.0090957702
0.002424126
-0.0053689412
-0.01011922
-0.0021016945
-0.0039534813
-0.0071514639
-0.0039122802
0.019056395
0.020308536
0.0010169657
0.0024968967
-0.015645642
-0.013277176
0.011774925
0.0077576281
0.0020220274
0.0011666743
0.0087833765
0.0087837057
0.00082766044
-0.0070622031
-0.022495907
-0.0048360752
0.012385093
0.0065965652
-0.00012593057
-0.00084142286
0.013305159
0.018086789
0.0035627577
-0.0020699462
-0.013177767
-0.0028643626
0.012084097
0.0052378485
-0.0026091318
-0.0042777847
0.012468747
0.023652371
0.0065848058
-0.0014348024
-0.012083093
-0.0029807116
0.011283022
0.0038384925
-0.0048069303
-0.007596642
0.0085117502
0.020234921
0.0056260716
-0.0016631673
-0.012868595
-0.0039664339
0.010107471
0.0024652066
-0.0064539052
-0.0096303997
0.0062043595
0.01803675
0.0049473607
-0.0022088443
-0.014602873
-0.0057387843
0.0085103799
0.0010822044
-0.0076592086
-0.010682306
0.0053391732
0.017403598
0.0047759822
-0.0030951392
-0.017499754
-0.0086474337
0.0062626978
-0.00038707164
-0.0084832535
-0.010889065
0.005771888
0.018345592
0.0051518236
-0.0035475757
-0.020047332
-0.012494003
0.0031577648
-0.00200346
-0.0089178734
-0.010137692
0.0079645882
0.022054893
0.0066274837
-8.061722e-05
-0.013814384
-0.013440843
-1.6892607e-06
-0.0035596487
-0.0089157251
-0.0082636495
0.012584853
0.02929374
0.0093704121
0.0026544801
-0.0051786659
-0.010345872
-0.002457857
-0.0048347828
-0.0086090307
-0.0054863972
0.018912736
0.020464833
0.00074154538
0.002775013
-0.015236651
-0.012824593
0.012374476
0.0076396455
0.0011995785
-4.0020329e-05
0.0078688464
0.0081872786
0.00061238642
-0.0069370515
-0.022136733
-0.004201028
0.01295665
0.0063929872
-0.0011005793
-0.0022502925
0.012438072
0.017732485
0.0034074431
-0.0018250419
-0.01261668
-0.0022293749
0.012594049
0.004934212
-0.0037450037
-0.0059233665
0.011440454
0.023371199
0.0064948584
-0.001188008
-0.011541515
-0.0024024416
0.011715243
0.0034350747
-0.0060801194
-0.0094374501
0.0072594292
0.019768857
0.0054859928
-0.0014369259
-0.012397107
-0.0034707814
0.010450971
0.001968085
-0.0078304782
-0.011590944
0.0048243215
0.01745852
0.0047745227
-0.0020191135
-0.014246948
-0.005360354
0.0087491165
0.00049597431
-0.0091108092
-0.012705337
0.0039110206
0.016793176
0.0045949396
-0.0029703645
-0.01734169
-0.0084503214
0.0063654962
-0.0010626048
-0.0099845776
-0.012923183
0.0043730184
0.017796091
0.0049947916
-0.0034926283
-0.020130294
-0.012547512
0.003081539
-0.0027719129
-0.010443049
-0.012122073
0.006711656
0.021760541
0.0065734993
7.5785685e-05
-0.013770082
-0.013628964
-0.00025063646
-0.0044110134
-0.010435881
-0.010122548
0.011660717
0.029564217
0.0095408348
0.0028708424
-0.004946374
-0.010511139
-0.00283114
-0.0057475932
-0.010105477
-0.0071547083
0.018479782
0.020354452
0.00043365597
0.0030494841
-0.014693166
-0.012276886
0.012876663
0.0074305525
0.00030476588
-0.001333013
0.0067984778
0.0074428641
0.0003673349
-0.0067529221
-0.021600495
-0.0035290636
0.013426057
0.006105691
-0.002133644
-0.0037339755
0.01137597
0.017155608
0.0032006596
-0.0015554019
-0.011942996
-0.0015720831
0.013002892
0.0045551851
-0.0049234426
-0.0076222354
0.010217961
0.022822447
0.0063305304
-0.00092104029
-0.010895692
-0.001802187
0.012050666
0.0029646092
-0.0073822182
-0.011310587
0.0058373494
0.01905547
0.0052770925
-0.0011891398
-0.011816767
-0.0029474735
0.010704454
0.0014119194
-0.0092262157
-0.013571588
0.0032884389
0.016646268
0.0045370037
-0.0018042813
-0.013771059
-0.0049432687
0.0089074005
-0.00014135745
-0.010574976
-0.014743024
0.0023311802
0.01595159
0.0043499814
-0.0028147464
-0.017044975
-0.0081960476
0.0064016813
-0.0017808386
-0.011494622
-0.014972505
0.0028174368
0.017007101
0.0047707131
-0.003404923
-0.020060282
-0.012519881
0.002958048
-0.0035737942
-0.011975893
-0.014129057
0.0052843571
0.021198568
0.0064414808
0.00023691497
-0.013625492
-0.013734668
-0.00052784043
-0.0052870078
-0.011965624
-0.012019328
0.010527547
0.029515431
0.0096141396
0.0030702397
-0.0046806992
-0.010620019
-0.0032181305
-0.0066776744
-0.01161506
-0.0088820787
0.017792687
0.020003831
0.00010041441
0.0033146272
-0.014035539
-0.011652662
0.013274455
0.0071360939
-0.00064490548
-0.0026854543
0.0056028501
0.0065761
9.9438515e-05
-0.0065169879
-0.020909698
-0.0028383478
0.013786997
0.0057412568
-0.0032062552
-0.0052632082
0.010152612
0.016384699
0.0029501752
-0.0012681458
-0.011178674
-0.00090971933
0.013305244
0.0041083863
-0.0061241103
-0.0093427929
0.0088382224
0.022037909
0.006100588
-0.0006407785
-0.010166756
-0.0011962259
0.012284891
0.0024357784
-0.0086915885
-0.013182708
0.0042846387
0.018128646
0.0050087582
-0.00092645085
-0.011147884
-0.0024118256
0.010864525
0.00080641084
-0.010618405
-0.015537797
0.0016370989
0.01563498
0.0042445046
-0.0015706698
-0.013194463
-0.0045017043
0.0089829156
-0.00081911096
-0.012028113
-0.016760032
0.00064072854
0.014914332
0.0040509412
-0.0026340173
-0.016627089
-0.0078971589
0.0063702305
-0.0025301134
-0.012989068
-0.017001213
0.0011464384
0.016014082
0.0044893725
-0.0032891724
-0.019851802
-0.012421204
0.0027879113
-0.0043964347
-0.013491529
-0.016122713
0.0037235146
0.020403232
0.0062406845
0.00039915707
-0.013391717
-0.013765132
-0.00083089293
-0.0061740235
-0.013479728
-0.013918427
0.0092244681
0.029177952
0.0095979831
0.0032498938
-0.0043899927
-0.010677257
-0.0036150181
-0.0076107491
-0.013112426
-0.010633812
0.016887384
0.019440569
-0.00025090354
0.0035649623
-0.013283808
-0.010969688
0.013562166
0.0067626239
-0.0016320638
-0.004071035
0.0043122353
0.0056126003
-0.00018438988
-0.0062364207
-0.02008652
-0.0021458634
0.014034498
0.0053067859
-0.0042998373
-0.0068094782
0.0088014814
0.015448576
0.0026638448
-0.00097017926
-0.010344968
-0.0002582863
0.013497013
0.0036018534
-0.007327136
-0.011054455
0.0073377152
0.021049702
0.0058139475
-0.00035387133
-0.009375119
-0.00059964855
0.012414741
0.001857587
-0.0099872027
-0.015021697
0.0026396772
0.017022346
0.0046904562
-0.00065529138
-0.010410122
-0.0018780433
0.010928927
0.00016149572
-0.011985043
-0.017456387
-9.0197631e-05
0.014459582
0.0039067638
-0.00132443
-0.01253589
-0.0040488475
0.0089743834
-0.0015264509
-0.013447393
-0.018722426
-0.0011201823
0.013716811
0.0037076829
-0.002433807
-0.016105194
-0.0075654087
0.0062710199
-0.0032986951
-0.0144444
-0.018974883
-0.00059955369
0.014852489
0.0041606136
-0.0031500588
-0.01951931
-0.012261066
0.0025724512
-0.0052271799
-0.014965889
-0.018068421
0.0020692527
0.019409055
0.0059805301
0.0005590237
-0.013079714
-0.013727213
-0.001156893
-0.0070585546
-0.014953756
-0.015785448
0.00779025
0.028583164
0.0095003987
0.0034072584
-0.0040822084
-0.010687296
-0.0040176686
-0.0085327146
-0.014572981
-0.012376177
0.015799928
0.018692859
-0.00061300677
0.0037952984
-0.012457423
-0.010244696
0.013735497
0.0063170318
-0.0026396523
-0.0054642748
0.0029562201
0.0045775937
-0.00047735984
-0.0059182881
-0.019152527
-0.001467241
0.014164954
0.0048098194
-0.0053962975
-0.008345329
0.0073553683
0.014375911
0.002349487
-0.00066810422
-0.0094621737
0.00036759626
0.013575413
0.0030439543
-0.0085133142
-0.012727971
0.0057519852
0.019889792
0.005479536
-6.6651199e-05
-0.0085402341
-2.6215167e-05
0.012438267
0.0012392614
-0.011248853
-0.016796997
0.00093963428
0.015770124
0.0043315876
-0.00038179964
-0.0096222571
-0.0013590901
0.010896536
-0.00051276782
-0.013305059
-0.019295871
-0.0018553139
0.013154452
0.0035334117
-0.0010714595
-0.011813312
-0.0035967731
0.0088815451
-0.0022525155
-0.014811005
-0.020598033
-0.0029128179
0.012393849
0.003329952
-0.0022195631
-0.015495919
-0.0072116457
0.0061047913
-0.0040749201
-0.015838167
-0.020860857
-0.0023815002
0.013557252
0.0037941867
-0.0029921623
-0.019077008
-0.012048441
0.0023136458
-0.0060535511
-0.016375991
-0.019933276
0.0003604649
0.018250289
0.0056704441
0.00071320239
-0.012700154
-0.01362738
-0.0015025078
-0.0079273723
-0.016364353
-0.017587574
0.0062627586
0.027762725
0.0093296394
0.0035400492
-0.0037648102
-0.010654229
-0.0044216942
-0.0094298257
-0.015973191
-0.014076836
0.014565938
0.017788993
-0.00097871076
0.0040008069
-0.011575013
-0.0094932387
0.013791538
0.0058066622
-0.0036510921
-0.0068407713
0.0015633799
0.0034956097
-0.00077289323
-0.0055694658
-0.018128439
-0.00081663472
0.014176128
0.0042582558
-0.006478192
-0.0098446194
0.0058460041
0.01319486
0.0020147751
-0.00036814382
-0.0085494183
0.00095480193
0.013538963
0.0024432979
-0.0096642777
-0.014335691
0.0041152655
0.018589593
0.0051061692
0.0002149368
-0.0076803989
0.00051174494
0.012354732
0.00059015312
-0.012457332
-0.018479891
-0.00077992335
0.014404711
0.0039413637
-0.00011175042
-0.0088019926
-0.00086659377
0.010767339
-0.0012063066
-0.014558506
-0.02102674
-0.0036218768
0.011752995
0.003133844
-0.00081733414
-0.011043763
-0.0031563577
0.0087051275
-0.0029865335
-0.016098349
-0.022356741
-0.0047002725
0.010979247
0.002927247
-0.0019964837
-0.014815178
-0.0068457341
0.0058731103
-0.0048473236
-0.017149193
-0.022628561
-0.0041621698
0.012162338
0.0033996169
-0.0028198995
-0.018538683
-0.011791629
0.0020140789
-0.0068633839
-0.017700171
-0.021686412
-0.001365625
0.016960461
0.005319724
0.00085859908
-0.012263293
-0.013471662
-0.0018640319
-0.0087676728
-0.017689486
-0.019293913
0.0046785016
0.026748103
0.0090940421
0.0036462674
-0.0034446991
-0.010581779
-0.0048225198
-0.010288848
-0.017290827
-0.015705198
0.013220139
0.016756953
-0.0013410421
0.0041770815
-0.010654203
-0.008729572
0.013728763
0.005239239
-0.0046504201
-0.0081774058
0.0001610067
0.002390211
-0.0010647013
-0.0051965651
-0.017033948
-0.00020663591
0.014067138
0.0036602727
-0.0075288664
-0.011282737
0.0043037612
0.011932748
0.0016671438
-7.6082182e-05
-0.0076245048
0.0014917725
0.013387458
0.0018086523
-0.01076264
-0.015851782
0.0024601602
0.017179623
0.0047024459
0.00048539223
-0.0068126038
0.0010034014
0.012164582
-8.0348954e-05
-0.01359458
-0.020043714
-0.0024853514
0.012957668
0.003528699
0.00014950127
-0.0079658096
-0.00041078338
0.010542396
-0.0019091256
-0.015726714
-0.022621695
-0.0053556023
0.010287293
0.0027171138
-0.00056725196
-0.010243191
-0.0027372202
0.008446804
-0.0037179243
-0.017290201
-0.023970732
-0.0064478014
0.0095054303
0.0025087103
-0.0017694629
-0.014078029
-0.0064764974
0.0055783218
-0.0056047465
-0.018357753
-0.024249746
-0.0059064817
0.010700382
0.0029860931
-0.0026374725
-0.017917566
-0.011498197
0.0016768905
-0.0076449422
-0.018918252
-0.02329926
-0.003073819
0.015571996
0.0049374236
0.00099237343
-0.011778876
-0.01326561
-0.0022374406
-0.0095671966
-0.018908632
-0.020875764
0.0030722574
0.025570183
0.0088019092
0.0037242185
-0.0031281548
-0.010473277
-0.0052154388
-0.01109718
-0.018505163
-0.017232694
0.011795982
0.015624057
-0.001693327
0.0043201874
-0.0097114556
-0.0079665804
0.013547007
0.0046227996
-0.0056223988
-0.0094525041
-0.0012251093
0.0012837748
-0.0013468482
-0.0048058727
-0.015887562
0.00035178474
0.013838429
0.0030242602
-0.0085325642
-0.01263676
0.0027574103
0.010615802
0.00131371
0.00020278312
-0.0067037862
0.0019685658
0.013121941
0.0011488761
-0.011792103
-0.017252393
0.00081739359
0.015689212
0.0042766597
0.00073970408
-0.0059524158
0.0014394654
0.011869413
-0.00076288952
-0.014643795
-0.021464024
-0.0041451784
0.0114591
0.0031021227
0.00039706453
-0.0071288521
-4.5023107e-07
0.010223807
-0.0026113831
-0.016792402
-0.024055812
-0.0070245477
0.0087878198
0.0022918439
-0.00032598881
-0.0094263392
-0.0023476844
0.0081091538
-0.004436377
-0.018368831
-0.025414652
-0.0081230784
0.0080031598
0.0020830387
-0.0015430457
-0.013298556
-0.0061116813
0.0052235074
-0.0063364189
-0.019445689
-0.025698668
-0.0075817708
0.0092023919
0.0025623758
-0.0024488263
-0.017226228
-0.011174948
0.0013057343
-0.0083870052
-0.020011686
-0.02474573
-0.0047312217
0.014115906
0.0045322564
0.0011119674
-0.011256053
-0.01301427
-0.0026184339
-0.010314319
-0.020002912
-0.022306811
0.0014767844
0.024258948
0.0084614092
0.0037725255
-0.0028207911
-0.010331651
-0.0055956576
-0.011842945
-0.019597114
-0.018632984
0.010325334
0.014416666
-0.0020292648
0.0044266998
-0.0087619595
-0.0072157187
0.013247443
0.0039656444
-0.0065525921
-0.01064595
-0.002570842
0.00019732181
-0.0016138018
-0.0044033029
-0.014706493
0.00084931246
0.013491747
0.0023587711
-0.0094745008
-0.013885576
0.0012339392
0.009268953
0.00096120973
0.00046367718
-0.0058020744
0.0023768828
0.012744675
0.00047286846
-0.012737531
-0.018515766
-0.00078437531
0.014146285
0.0038367278
0.00097338454
-0.005113892
0.001812213
0.011471939
-0.0014481983
-0.015589504
-0.022718707
-0.0057302884
0.0099374325
0.0026697086
0.00062654611
-0.0063048429
0.00035707468
0.0098146727
-0.0033034434
-0.017739754
-0.025306649
-0.0085992936
0.0072832156
0.0018661561
-9.7864309e-05
-0.0086066679
-0.0019947564
0.0076956268
-0.0051319058
-0.019318078
-0.026665727
-0.0096963803
0.0065013063
0.0016584131
-0.001321393
-0.012489782
-0.0057579285
0.0048124502
-0.007032017
-0.020396497
-0.026952203
-0.0091579793
0.0076975175
0.0021367252
-0.0022576148
-0.016476484
-0.010827887
0.00090474348
-0.0090789258
-0.020963632
-0.026002345
-0.0063074422
0.012621546
0.0041125196
0.0012151278
-0.010703315
-0.012722156
-0.0030024681
-0.010998109
-0.020955183
-0.023563265
-7.7396254e-05
0.022843217
0.0080804942
0.0037901393
-0.0025275206
-0.010159408
-0.0059583258
-0.012515052
-0.02054933
-0.019882105
0.0088382573
0.013159958