/*--------------------------------*- C++ -*----------------------------------*\
| =========                 |                                                 |
| \\      /  F ield         | OpenFOAM: The Open Source CFD Toolbox           |
|  \\    /   O peration     | Version:  v2106                                 |
|   \\  /    A nd           | Website:  www.openfoam.com                      |
|    \\/     M anipulation  |                                                 |
\*---------------------------------------------------------------------------*/
FoamFile
{
    version     2.0;
    format      ascii;
    arch        "LSB;label=32;scalar=64";
    class       volScalarField;
    location    "20";
    object      gradTy;
}
// * * * * * * * * * * * * * * * * * * * * * * * * * * * * * * * * * * * * * //

dimensions      [0 -1 0 1 0 0 0];

internalField   nonuniform List<scalar> 
4000
(
0.00053164718
-1.5471219e-05
7.4681034e-05
8.6251007e-05
8.9058056e-05
9.2026614e-05
9.8306018e-05
0.00011343979
0.00014138973
0.00014728548
7.4118554e-05
-0.00061133066
-0.0004550733
-0.00043069205
-0.00042141184
-0.00041123322
-0.00039184194
-0.00034556603
-0.00024263371
-0.00011374432
-0.00088615784
-0.0007335745
-0.00070551922
-0.0006927993
-0.00068271241
-0.00067193463
-0.0006559351
-0.00062460829
-0.00055413515
-0.00042652734
-0.00021880895
-0.00019724343
-0.00018514751
-0.00017443661
-0.00016483311
-0.00015544518
-0.00014498184
-0.00013262142
-0.00011901945
-0.00010962503
-4.5096052e-05
-3.6432638e-05
-2.5637236e-05
-1.5567984e-05
-6.6457984e-06
1.4048226e-06
9.1211632e-06
1.6612707e-05
2.2973151e-05
2.5857234e-05
7.604277e-05
8.9914719e-05
0.00010561268
0.00011669201
0.00012546394
0.00013245898
0.00013810068
0.00014249264
0.00014536125
0.00014645859
0.00016319898
0.00019531874
0.00022886618
0.0002426451
0.00025168994
0.00025785297
0.00026172361
0.0002633278
0.00026253665
0.00026059177
0.00018533081
0.00024995638
0.00033453904
0.00035175634
0.00036050143
0.00036560833
0.00036776202
0.00036642137
0.00036032363
0.00035125546
0.00010145836
0.00015222688
0.00033328007
0.00035030782
0.00035627645
0.00035955236
0.0003602424
0.00035681633
0.00034507648
0.00032218963
9.4606896e-06
1.5356435e-05
9.5386951e-05
0.0001004283
0.0001016499
0.00010235103
0.00010238145
0.00010105444
9.6336006e-05
8.5796539e-05
0.0031955512
9.3499536e-05
0.00053711869
0.0006233908
0.00065056019
0.0006786764
0.00073841557
0.00088694828
0.0011642166
0.0010161344
-0.00058641778
-0.0045740665
-0.0037204057
-0.0035148649
-0.0034244134
-0.0033287466
-0.003146214
-0.0026991462
-0.0016874668
-0.00090248882
-0.0070161232
-0.0062212863
-0.0059569216
-0.0058238568
-0.0057265871
-0.0056260377
-0.0054772347
-0.0051791414
-0.0044767245
-0.0033594935
-0.0021897844
-0.0020196222
-0.0018937921
-0.0017892876
-0.0016987546
-0.0016112861
-0.0015142579
-0.001397736
-0.0012508119
-0.0011197331
-0.00044591977
-0.00036299137
-0.00025980139
-0.00016517227
-8.1799843e-05
-6.7418402e-06
6.4980812e-05
0.00013445679
0.00019545976
0.00022603249
0.00073399706
0.00086578013
0.0010121965
0.0011151325
0.0011966932
0.0012619132
0.0013146219
0.0013556339
0.0013825046
0.0013926735
0.0015722588
0.0018846666
0.0022018592
0.0023315629
0.0024154093
0.0024727615
0.00250913
0.0025244381
0.0025169887
0.0024983446
0.0017833886
0.0024220902
0.0032421357
0.0034226003
0.0035055817
0.0035530793
0.0035734644
0.003560938
0.0035007307
0.0034048169
0.00085883937
0.0010526186
0.0026554967
0.0028722665
0.0029334996
0.0029638422
0.0029705392
0.0029377486
0.0028144181
0.002525066
1.4132356e-05
-0.00013394983
0.00053745104
0.00061087085
0.00062483689
0.00063125267
0.00063161619
0.00061882324
0.00056767365
0.00042592186
0.0034549155
-0.00073234254
-9.5799505e-05
3.7292555e-05
8.1859899e-05
0.00012761048
0.00023202618
0.0005386948
0.0012908919
0.0013337527
-0.003243855
-0.0085699274
-0.0073131776
-0.0069830056
-0.006831954
-0.006677275
-0.0063762395
-0.0055587876
-0.0034095149
-0.0017167136
-0.011148401
-0.0099939488
-0.0095614797
-0.0093321591
-0.0091670563
-0.0090034886
-0.0087701356
-0.0082964642
-0.007090124
-0.0052648166
-0.0036209958
-0.0033545067
-0.0031397722
-0.0029600834
-0.0028066794
-0.0026618662
-0.0025055226
-0.0023202662
-0.0020673825
-0.0018339583
-0.0006300063
-0.00049452941
-0.00032427567
-0.00016585888
-2.6058552e-05
9.9181025e-05
0.0002178087
0.00033179549
0.00043469725
0.00048819916
0.0014935609
0.0017188104
0.0019492755
0.0021157311
0.0022504322
0.0023595984
0.0024489738
0.0025196442
0.0025676498
0.0025881325
0.003110797
0.0037274235
0.0042292844
0.0044344479
0.0045708844
0.0046670624
0.0047309302
0.0047611222
0.0047515302
0.0047203726
0.0036274383
0.0052157369
0.006594163
0.0068957485
0.0070323031
0.0071126371
0.0071509791
0.007133237
0.0070122174
0.0067606033
0.0010365633
0.0022291501
0.0048786373
0.0052607976
0.0053649451
0.0054172013
0.0054334335
0.0053764517
0.0050607997
0.0037729381
-0.00046988188
-0.00042702114
0.0006586523
0.00078985041
0.00081426841
0.00082551836
0.00082792356
0.00080474663
0.00066018084
-5.3827761e-05
0.0032963609
-0.0016169104
-0.00077351959
-0.00059719568
-0.00054055095
-0.00048715139
-0.0003608324
5.7478981e-05
0.0012378545
0.0014365026
-0.0059491859
-0.012054007
-0.010376845
-0.0099351865
-0.0097414734
-0.00955838
-0.0092013232
-0.0081336321
-0.0049868014
-0.0025550341
-0.014355958
-0.012826386
-0.012237138
-0.011928129
-0.011715372
-0.01151782
-0.011247757
-0.010676678
-0.0090658805
-0.0066771669
-0.0045204254
-0.0041709725
-0.0038850535
-0.0036492064
-0.0034533899
-0.0032755813
-0.0030921107
-0.0028805555
-0.002564885
-0.0022668555
-0.00053752215
-0.0003724557
-0.00016071557
3.7853935e-05
0.00021290956
0.00036833873
0.00051344747
0.00065078534
0.00077766051
0.0008433019
0.0024053388
0.0026749166
0.002945489
0.0031425314
0.0033067682
0.0034430693
0.0035576239
0.0036517759
0.0037211979
0.0037576781
0.0048749367
0.0056918823
0.0062996845
0.0065330242
0.0066947103
0.0068154708
0.0069034169
0.0069569772
0.0069675883
0.0069563284
0.0061669799
0.0085650103
0.010381502
0.010746887
0.010908727
0.0110111
0.011072301
0.011075271
0.010945541
0.010587035
0.0024421422
0.0045106776
0.0080207402
0.0085101884
0.0086344402
0.008702705
0.0087403424
0.0087020561
0.0082521062
0.0054337856
-0.00048971154
-0.00029106345
0.0011314666
0.0013014123
0.001330153
0.0013451732
0.0013544732
0.0013376666
0.001115469
-0.00054121378
0.0029951938
-0.0024781394
-0.0014150146
-0.0011959221
-0.0011312638
-0.0010783952
-0.00094748476
-0.00045234354
0.0011063727
0.0014631091
-0.0084491618
-0.015064474
-0.012944693
-0.012396983
-0.01217563
-0.011991076
-0.011629785
-0.010409308
-0.0064091233
-0.003317543
-0.016849525
-0.014926199
-0.014182034
-0.013805739
-0.013564266
-0.01336087
-0.013099282
-0.012503586
-0.01059039
-0.0077502823
-0.0049546944
-0.0045290683
-0.0041856311
-0.0039113002
-0.0036935552
-0.0035075385
-0.0033293939
-0.003134321
-0.0028036367
-0.0024814539
-0.00020363395
-2.7343643e-05
0.00020227362
0.00041752519
0.00060603528
0.00077083718
0.00092125547
0.0010599932
0.0011909969
0.0012555911
0.0033938179
0.0036694864
0.0039396619
0.0041344695
0.0043038232
0.0044496897
0.0045776045
0.004689234
0.0047807115
0.0048388133
0.0066449608
0.0075840383
0.0082267286
0.008441322
0.0085999461
0.0087304781
0.0088394904
0.0089268164
0.0089843556
0.0090323803
0.008837799
0.011918585
0.014058461
0.014427477
0.014584218
0.014697219
0.014787325
0.014842084
0.014776145
0.014429401
0.0043940441
0.0072672231
0.011485809
0.012020527
0.012138676
0.012216125
0.012288255
0.012321689
0.011875572
0.0075791274
-0.0002327491
0.00012398734
0.0018283044
0.0020173926
0.002043093
0.0020604554
0.0020818275
0.0020924719
0.0018506647
-0.00077182471
0.0026468965
-0.0032633118
-0.0019795293
-0.0017198329
-0.0016510407
-0.0016057918
-0.0014848978
-0.00094325863
0.00094191944
0.0014649784
-0.010618525
-0.017558164
-0.014996763
-0.01435185
-0.0141172
-0.013955178
-0.013634559
-0.012347802
-0.007641218
-0.0039493124
-0.018682254
-0.016367035
-0.015475939
-0.015045627
-0.014793601
-0.014610358
-0.014398025
-0.013843917
-0.011728833
-0.008535839
-0.004987376
-0.0044946432
-0.004107813
-0.0038123052
-0.0035923963
-0.0034217069
-0.0032791041
-0.0031400736
-0.0028404461
-0.0025314306
0.00031230084
0.00048336246
0.00070897255
0.00091863166
0.0010995708
0.0012536184
0.0013890479
0.0015082525
0.0016239181
0.001674363
0.0043787954
0.0046280098
0.0048614368
0.0050235861
0.005174729
0.0053130632
0.0054427095
0.0055656751
0.0056789352
0.0057623879
0.0082771197
0.0092709195
0.0098844957
0.010037361
0.010166129
0.010291995
0.010418741
0.010548907
0.0106766
0.010815791
0.011352298
0.014992524
0.017345638
0.017661715
0.017784296
0.017896585
0.018020522
0.018154444
0.018215285
0.017982871
0.0064716811
0.010084037
0.014870171
0.015392114
0.015478814
0.015558225
0.015675526
0.015825108
0.015503953
0.0099377385
0.00014933406
0.00067239298
0.0026106045
0.0028010558
0.0028166148
0.0028346858
0.00287225
0.0029274798
0.0027173071
-0.00078333003
0.0023140598
-0.0039301728
-0.0024330918
-0.0021366462
-0.0020675691
-0.0020361104
-0.0019377735
-0.0013770362
0.00078123183
0.0014684361
-0.012371718
-0.019492446
-0.016507879
-0.015778513
-0.015544568
-0.01542613
-0.015184722
-0.013908616
-0.0086408515
-0.0044193018
-0.019894379
-0.01720409
-0.016180446
-0.015711011
-0.015465777
-0.015325852
-0.015198003
-0.014743016
-0.012519073
-0.0090638694
-0.004681587
-0.0041333031
-0.0037182762
-0.0034186334
-0.0032151096
-0.0030810952
-0.0030006997
-0.002952146
-0.0027245733
-0.0024613598
0.00094691833
0.001097722
0.0012993004
0.0014828815
0.0016368386
0.0017616148
0.0018635742
0.0019443608
0.002026942
0.002051366
0.0052868901
0.0054815835
0.005646736
0.0057493569
0.0058611458
0.0059760925
0.0060963785
0.0062243272
0.0063579209
0.0064686764
0.009666963
0.010655574
0.011184477
0.01123841
0.011313426
0.011421156
0.011561661
0.011741125
0.011956879
0.012211326
0.013540372
0.01761888
0.020084243
0.020297811
0.02036037
0.020461178
0.020621912
0.020856396
0.02109401
0.02105759
0.0084267199
0.012694928
0.017916034
0.018374075
0.018406821
0.018481081
0.01865117
0.018951282
0.018852364
0.012245564
0.00056223628
0.0012494405
0.0033766027
0.0035529097
0.0035520784
0.0035691923
0.0036259155
0.0037388236
0.0036016354
-0.0006657096
0.0020348205
-0.0044552977
-0.0027578067
-0.0024295294
-0.0023638386
-0.0023513689
-0.0022860261
-0.0017303031
0.00064879522
0.0014882139
-0.013670332
-0.020859272
-0.017481581
-0.016682935
-0.016462907
-0.016405899
-0.016275591
-0.015076371
-0.0093848066
-0.0047149876
-0.020538142
-0.01749949
-0.016361805
-0.015868941
-0.015646557
-0.015569826
-0.01555558
-0.015247509
-0.012997073
-0.009362773
-0.0041013938
-0.0035104417
-0.00308272
-0.0027951937
-0.002624875
-0.0025461225
-0.0025503951
-0.0026207673
-0.0024996864
-0.0023096896
0.001641565
0.0017588057
0.0019186009
0.0020579211
0.0021676721
0.0022468393
0.0022992023
0.0023252776
0.0023594169
0.0023476335
0.0060599915
0.0061767103
0.0062473076
0.0062676876
0.0063217875
0.0063992178
0.0064998594
0.0066263013
0.0067776352
0.0069160545
0.010744607
0.011676206
0.012074135
0.011998524
0.011999491
0.012076962
0.012226574
0.012458763
0.012774739
0.013161228
0.015299737
0.019701969
0.022190521
0.022260475
0.022241229
0.02232069
0.022519005
0.022868855
0.023319947
0.023541925
0.010106393
0.014934169
0.020467777
0.020818904
0.020778855
0.02084126
0.021068608
0.021543726
0.021741678
0.014310228
0.00094576786
0.0017851866
0.0040589805
0.0042080532
0.0041856451
0.0042001977
0.0042779246
0.004457857
0.00442591
-0.00049644308
0.0018294696
-0.0048305495
-0.0029493274
-0.0025946822
-0.0025357114
-0.0025464094
-0.0025223672
-0.0019922098
0.00055828803
0.0015315311
-0.014513027
-0.021681222
-0.017948028
-0.017096312
-0.016902114
-0.016920987
-0.016926935
-0.015859602
-0.0098702445
-0.0048385042
-0.02067763
-0.017323829
-0.01609272
-0.015591931
-0.015406666
-0.015409436
-0.015531646
-0.015408314
-0.01320185
-0.0094631311
-0.0033101354
-0.0026897113
-0.0022642221
-0.0020036576
-0.0018811913
-0.001873184
-0.0019801125
-0.002191628
-0.0022044506
-0.0021096774
0.0023460944
0.0024185035
0.0025214199
0.0026009984
0.0026518936
0.0026716436
0.0026609387
0.0026188703
0.0025919038
0.0025355998
0.0066581826
0.0066781988
0.0066333616
0.0065532193
0.0065344405
0.0065622644
0.0066340341
0.0067525486
0.0069181163
0.0070832226
0.011472307
0.012303607
0.012533693
0.012304729
0.012215249
0.012251955
0.012405533
0.012691022
0.013113978
0.013642693
0.016579305
0.021200288
0.023635996
0.023530084
0.023411658
0.023461049
0.02369574
0.024169494
0.024858393
0.025383689
0.011424272
0.016709883
0.022445369
0.022655066
0.02252732
0.022571796
0.022857994
0.023523466
0.024072189
0.01601042
0.0012632816
0.0022365248
0.0046177751
0.0047290043
0.0046809573
0.0046914683
0.0047910282
0.0050439447
0.0051412256
-0.00033056758
0.0017056615
-0.0050586106
-0.0030129117
-0.0026375435
-0.0025881777
-0.0026251962
-0.0026486848
-0.0021610285
0.00051524466
0.0016003325
-0.014924222
-0.022002082
-0.017955783
-0.017067224
-0.01690911
-0.017014874
-0.017175694
-0.016284096
-0.010109861
-0.0048025635
-0.020383847
-0.016752247
-0.015448989
-0.014954808
-0.014818776
-0.014913681
-0.015189075
-0.015278626
-0.013174519
-0.0093970179
-0.0023680462
-0.0017309453
-0.0013213731
-0.0011007318
-0.0010382891
-0.0011132463
-0.0013363273
-0.0017050826
-0.0018722657
-0.001889376
0.0030200801
0.0030386011
0.0030724301
0.0030797282
0.0030599156
0.0030091579
0.0029247103
0.0028040297
0.0027060935
0.0025988932
0.0070587605
0.0069679998
0.0067921767
0.0065977001
0.0064941384
0.0064624948
0.0064974406
0.0066019402
0.0067776482
0.0069674348
0.01183918
0.012535431
0.012569958
0.012170486
0.011978121
0.011965358
0.012117567
0.012454549
0.01298656
0.01366195
0.017366686
0.02211258
0.024432519
0.024127137
0.023896581
0.02390852
0.024176789
0.024777513
0.025717638
0.026575647
0.012341577
0.017983618
0.023823109
0.023865227
0.023638816
0.02366009
0.024004311
0.024867492
0.025802444
0.017281712
0.0014948691
0.002579957
0.0050330673
0.0050982912
0.0050216604
0.0050268244
0.0051481847
0.0054770842
0.0057201902
-0.00020340396
0.001662375
-0.0051493252
-0.0029600661
-0.0025695492
-0.0025321632
-0.0025976624
-0.0026729538
-0.0022412274
0.00051949977
0.0016929734
-0.014944753
-0.021878414
-0.017564129
-0.016654271
-0.01654063
-0.016740951
-0.017069101
-0.016386462
-0.010126576
-0.0046266337
-0.01972982
-0.015860156
-0.014505677
-0.014031148
-0.013954097
-0.014150155
-0.014589669
-0.014911178
-0.012956153
-0.0091963408
-0.001330301
-0.00068844683
-0.00030680222
-0.00013686712
-0.00014399139
-0.00031085852
-0.00065924862
-0.0011955468
-0.0015309529
-0.0016715122
0.0036326977
0.0035905279
0.0035460173
0.0034715211
0.0033720259
0.0032424453
0.0030764
0.0028695879
0.0026935994
0.0025310493
0.0072536132
0.0070424273
0.0067251428
0.0064068549
0.0062098856
0.006111229
0.006102842
0.0061878257
0.0063693294
0.0065810719
0.011855077
0.01238973
0.012209567
0.011628707
0.011324878
0.011255849
0.011401475
0.011786321
0.012425626
0.013247331
0.017677563
0.022466243
0.024620087
0.024099759
0.023748383
0.023716959
0.02401487
0.02474111
0.025936611
0.027143249
0.012853376
0.018754677
0.024613204
0.024469514
0.024137239
0.024130976
0.024530485
0.025591985
0.026932624
0.018102073
0.0016325142
0.0028059879
0.0052991424
0.0053125293
0.0052054362
0.0052041625
0.0053465979
0.0057519655
0.0061510229
-0.00013506841
0.0016928917
-0.00511693
-0.0028059852
-0.0024056519
-0.0023820876
-0.0024772976
-0.0026068663
-0.002241205
0.00056713416
0.0018055304
-0.014624759
-0.021373074
-0.016837103
-0.015920355
-0.015857638
-0.016157031
-0.016659326
-0.01620903
-0.0099491599
-0.0043338077
-0.018786828
-0.014719911
-0.013334108
-0.012890477
-0.012879733
-0.013182513
-0.013791752
-0.014356019
-0.012585908
-0.008891343
-0.00024578054
0.00039006587
0.00073368427
0.00084444079
0.00076085268
0.00049629766
1.7514068e-05
-0.00069129367
-0.0012027137
-0.0014735734
0.0041619265
0.0040544579
0.0039252501
0.003762422
0.0035771069
0.0033631171
0.0031103679
0.0028127503
0.002554303
0.0023337946
0.0072461787
0.0069090107
0.0064444909
0.0059969915
0.0057011523
0.0055302525
0.005473569
0.0055343294
0.0057173282
0.0059478663
0.011544844
0.011898983
0.011492845
0.010725477
0.010305254
0.01017511
0.010309331
0.010737141
0.011478962
0.0124427
0.017546989
0.02230799
0.024257155
0.023513834
0.023036927
0.022957769
0.023280687
0.024127401
0.025574767
0.02713448
0.012978123
0.019048226
0.024853345
0.024512902
0.024071065
0.024033946
0.024484602
0.025739505
0.027491682
0.018479791
0.0016765164
0.0029149126
0.0054200845
0.0053779561
0.0052395114
0.0052309504
0.0053932035
0.0058734424
0.0064330122
-0.00013448483
0.0017870041
-0.0049780282
-0.0025676837
-0.0021625129
-0.0021540841
-0.002279386
-0.0024640927
-0.0021716141
0.0006519389
0.001932786
-0.01401851
-0.020550542
-0.015839219
-0.014928577
-0.014921322
-0.015321412
-0.015999612
-0.015796137
-0.0096089707
-0.0039484634
-0.017621837
-0.013398564
-0.011999872
-0.011596436
-0.011656952
-0.012068827
-0.012848602
-0.013659037
-0.012099735
-0.0085095662
0.00084349393
0.0014638934
0.0017613907
0.0018068135
0.0016424277
0.0012773818
0.00066684893
-0.00021462905
-0.00090439113
-0.0013081444
0.0045934324
0.0044181227
0.0042005982
0.0039457311
0.0036711665
0.0033697826
0.0030278289
0.0026374066
0.0022946007
0.0020152506
0.0070485388
0.0065835258
0.0059702488
0.0053918755
0.0049946701
0.0047485379
0.0046401765
0.0046729433
0.0048534149
0.0050993868
0.010943423
0.011105081
0.010468698
0.009514872
0.0089766876
0.0087824959
0.008901093
0.0093661719
0.01020346
0.011301838
0.0170225
0.021696547
0.023413141
0.022445415
0.021841901
0.021712187
0.02205514
0.023014554
0.024704092
0.026611733
0.012749715
0.018906315
0.024597388
0.024055786
0.023503873
0.02343363
0.023930316
0.025369296
0.027527495
0.018443919
0.001632812
0.0029136591
0.0054064835
0.0053071046
0.0051373147
0.0051208712
0.005301296
0.005853123
0.0065730563
-0.00020259463
0.0019326203
-0.0047501471
-0.0022626773
-0.0018572272
-0.0018647442
-0.0020197615
-0.0022590469
-0.0020441586
0.00076648105
0.0020689404
-0.01318078
-0.019473726
-0.014632572
-0.013739476
-0.0137904
-0.014290219
-0.015141645
-0.015191562
-0.0091376673
-0.003494633
-0.01629594
-0.01195656
-0.010561689
-0.010205769
-0.010340251
-0.010860706
-0.011807601
-0.012861142
-0.011529647
-0.0080752726
0.0019024096
0.0024993093
0.0027445814
0.002720748
0.0024736365
0.0020080219
0.0012677247
0.00021765702
-0.00064795817
-0.0011834316
0.0049193448
0.0046755434
0.0043686014
0.0040206055
0.0036558753
0.0032665287
0.0028352794
0.0023525099
0.0019257402
0.0015882392
0.0066788664
0.0060874125
0.0053276213
0.0046200625
0.0041217095
0.0037994665
0.0036376058
0.0036396274
0.0038139981
0.0040720241
0.010091899
0.010055304
0.0091905572
0.0080548681
0.0074001923
0.0071408493
0.0072403531
0.0077366049
0.0086606772
0.0098838977
0.016158791
0.020697083
0.022162769
0.020975037
0.020247086
0.020065497
0.020423478
0.021485822
0.02340297
0.0256455
0.012211502
0.01838115
0.02390843
0.02316702
0.022507342
0.022402749
0.022939738
0.024550042
0.027099416
0.018036913
0.0015109662
0.0028134255
0.005272989
0.0051163418
0.0049160067
0.0048913412
0.0050880241
0.0057068215
0.0065830439
-0.00033484749
0.0021169104
-0.0044507371
-0.0019080816
-0.0015064544
-0.0015302617
-0.0017139553
-0.0020060333
-0.0018707512
0.00090285945
0.0022081088
-0.012164396
-0.018201884
-0.013274989
-0.012409272
-0.012519411
-0.013115721
-0.014133863
-0.014436846
-0.0085656824
-0.0029949381
-0.014863554
-0.01044713
-0.009070942
-0.008767934
-0.0089770208
-0.0096029832
-0.010709929
-0.01199795
-0.010903431
-0.0076092277
0.0029024602
0.00346919
0.0036580384
0.0035631112
0.0032335465
0.0026697256
0.001804582
0.00059367551
-0.00044113664
-0.0011038892
0.00513705
0.0048257987
0.0044306013
0.0039907496
0.0035372157
0.0030615292
0.002543072
0.0019706206
0.0014623374
0.0010687818
0.0061592912
0.0054456339
0.0045448389
0.0037127253
0.0031158744
0.0027185817
0.0025028904
0.0024724598
0.0026377157
0.0029045351
0.0090344004
0.0087992066
0.0077132754
0.0064042401
0.0056372253
0.0053133314
0.0053911035
0.0059123397
0.0069134084
0.0082498797
0.015013722
0.019377061
0.020581903
0.019183559
0.018336184
0.018102824
0.01847101
0.019625129
0.02175159
0.0243096
0.011411829
0.017530118
0.022853737
0.02191884
0.021156172
0.021017002
0.021588247
0.023354542
0.026272718
0.017309051
0.0013226758
0.0026279251
0.0050365053
0.0048240609
0.0045946703
0.0045616906
0.0047725499
0.0054526715
0.0064778899
-0.00052310639
0.002327105
-0.0040965005
-0.0015200192
-0.0011258505
-0.0011658714
-0.0013766353
-0.00171868
-0.0016629424
0.0010532262
0.0023446549
-0.011018678
-0.016789364
-0.011818956
-0.010988865
-0.011157737
-0.011845344
-0.013020458
-0.013570263
-0.0079212636
-0.002469949
-0.013372157
-0.008916182
-0.0075716582
-0.0073251492
-0.0076076209
-0.0083337996
-0.0095906365
-0.011099811
-0.010244654
-0.0071287385
0.0038212293
0.0043524511
0.0044824485
0.0043164883
0.0039067088
0.0032491831
0.0022666332
0.00090575199
-0.00028806532
-0.0010708765
0.0052480737
0.0048718965
0.0043915947
0.0038632461
0.0033242895
0.0027658306
0.0021641811
0.0015066551
0.00092111171
0.00047482574
0.005514173
0.0046849601
0.0036514517
0.0027019446
0.0020113761
0.0015418362
0.0012733669
0.0012098038
0.0013635524
0.00163612
0.0078157528
0.0073862921
0.0060908336
0.0046202808
0.0037474025
0.0033611054
0.0034153701
0.0039555415
0.0050231451
0.0064599927
0.013645372
0.017803231
0.018744566
0.017149213
0.016189868
0.015906144
0.016280053
0.017513919
0.019828626
0.022677671
0.010400771
0.016412166
0.021501085
0.020383239
0.019524456
0.01935141
0.019950772
0.021855861
0.025114525
0.016314273
0.0010806673
0.002372096
0.004714877
0.0044493733
0.0041930029
0.0041518493
0.0043747146
0.0051097477
0.0062740776
-0.00075708699
0.0025510366
-0.0037029625
-0.0011132542
-0.00072971824
-0.00078550412
-0.0010212573
-0.0014095793
-0.0014315495
0.0012101343
0.0024734036
-0.0097884982
-0.015284935
-0.010311083
-0.0095233466
-0.0097491308
-0.010521199
-0.011840861
-0.012626257
-0.0072299244
-0.0019378486
-0.011862391
-0.0074025247
-0.0061008031
-0.0059127154
-0.0062657192
-0.0070849434
-0.008478947
-0.010192068
-0.0095728699
-0.0066478523
0.0046417616
0.0051333868
0.0052037138
0.0049684706
0.004482433
0.0037375385
0.0026471451
0.001149735
-0.00018995911
-0.001083294
0.0052570885
0.0048197799
0.0042592361
0.0036475519
0.003028304
0.0023923278
0.0017131704
0.00097684951
0.00031984677
-0.00017479645
0.0047687468
0.0038326341
0.0026770165
0.0016194063
0.00084172854
0.00030427266
-1.466864e-05
-0.00011107126
2.9420679e-05
0.00030496965
0.006479755
0.0058643167
0.0043746973
0.0027571922
0.0017868937
0.0013417139
0.0013715498
0.0019249112
0.0030482569
0.0045717501
0.012109941
0.016039511
0.016720878
0.014945589
0.013883774
0.013552265
0.013927863
0.015228972
0.017708906
0.020820661
0.0092277902
0.01508522
0.019916198
0.018629435
0.017683169
0.017477789
0.01809921
0.020124628
0.0236909
0.015107136
0.00079789754
0.0020611668
0.0043259481
0.0040111786
0.0037303916
0.0036814164
0.0039140909
0.0046970786
0.0059885947
-0.0010254304
0.0027774887
-0.0032842169
-0.00070098813
-0.00033081605
-0.00040159646
-0.00065986944
-0.0010900792
-0.0011864289
0.0013667585
0.0025897668
-0.0085138135
-0.013731529
-0.0087919623
-0.0080518877
-0.0083316089
-0.009179952
-0.010629577
-0.011635205
-0.0065141825
-0.0014143068
-0.010368392
-0.0059382911
-0.0046887514
-0.0045595122
-0.0049787913
-0.0058823329
-0.00739871
-0.0092954381
-0.008903938
-0.006177648
0.0053518953
0.0058009828
0.0058122487
0.0055109429
0.0049540724
0.0041296823
0.0029427498
0.001324342
-0.00014572156
-0.0011381643
0.0051710605
0.0046774804
0.0040429962
0.0033546597
0.0026617356
0.0019549284
0.0012053584
0.00039792757
-0.00032343665
-0.00086118984
0.0039480893
0.0029153652
0.0016501211
0.00049544659
-0.00036120141
-0.00096093063
-0.0013269311
-0.0014549839
-0.0013288639
-0.0010527854
0.0050679529
0.0042781137
0.0026127001
0.00086500851
-0.00019264013
-0.00069199234
-0.00068669343
-0.00012547158
0.0010427596
0.0026386624
0.010460309
0.014145566
0.014575704
0.012640338
0.011487233
0.011111543
0.0114853
0.012840996
0.015461855
0.018805121
0.0079401084
0.013604402
0.018161006
0.016722192
0.0156985
0.015463075
0.016100699
0.018227209
0.022064824
0.013740656
0.00048698791
0.0017099962
0.003886905
0.0035275229
0.0032252766
0.0031690208
0.0034093289
0.004232956
0.0056381727
-0.0013164892
0.0029964062
-0.0028527999
-0.00029477253
5.9722057e-05
-2.5010182e-05
-0.00030302568
-0.00077018282
-0.0009363543
0.0015170233
0.0026898066
-0.0072295021
-0.01216627
-0.0072962725
-0.0066078648
-0.0069375715
-0.0078529288
-0.0094162407
-0.010623408
-0.0057934963
-0.00091249702
-0.0089182659
-0.004549483
-0.0033598605
-0.003288581
-0.0037686989
-0.004746576
-0.0063689174
-0.0084264652
-0.0082504011
-0.005726569
0.0059436027
0.0063482462
0.0063023037
0.0059394078
0.0053183538
0.0044235948
0.0031528142
0.0014305686
-0.00015249001
-0.001231143
0.0049985357
0.0044544141
0.0037534717
0.0029964191
0.0022376586
0.0014678892
0.00065616333
-0.00021354358
-0.0009911144
-0.0015660232
0.0030763587
0.0019585997
0.00059768951
-0.00064161883
-0.0015678501
-0.0022231141
-0.0026318074
-0.0027895181
-0.0026782824
-0.0024037962
0.0036188172
0.0026688243
0.00084833809
-0.0010110649
-0.0021446881
-0.0026924977
-0.0027110921
-0.0021468562
-0.00094445605
0.00070940087
0.008745102
0.012175911
0.012367846
0.010294427
0.0090625421
0.0086471497
0.0090160671
0.010413786
0.01315055
0.016692102
0.0065816195
0.012020861
0.01629253
0.014720757
0.013630819
0.013368277
0.014016541
0.016224534
0.020294857
0.012264812
0.0001598364
0.0013326197
0.0034138359
0.0030151744
0.0026947339
0.0026319019
0.0028777247
0.0037344732
0.0052387594
-0.0016188897
0.0031990032
-0.0024196519
9.5497262e-05
0.00043238795
0.00033497128
4.022494e-05
-0.00045852279
-0.00068896831
0.0016556655
0.0027702551
-0.0059654285
-0.010620687
-0.0058530571
-0.005219146
-0.0055940839
-0.0065663707
-0.008225827
-0.0096132231
-0.0050843334
-0.00044320284
-0.0075346257
-0.003256566
-0.0021330843
-0.00211774
-0.0026522954
-0.0036935531
-0.0054042437
-0.0075979897
-0.0076218757
-0.0053007652
0.006412369
0.00677158
0.0066713422
0.0062523689
0.0055747733
0.0046197596
0.0032788816
0.0014711712
-0.00020610398
-0.0013569496
0.0047490599
0.0041608154
0.0034018352
0.0025850023
0.0017692259
0.000945309
8.0608825e-05
-0.00084163337
-0.0016664245
-0.002271984
0.0021762592
0.00098601805
-0.00045548389
-0.0017659302
-0.0027513756
-0.0034545473
-0.0039007681
-0.004085444
-0.0039890495
-0.0037179472
0.0021672358
0.0010734459
-0.0008796166
-0.0028309906
-0.004028205
-0.004617933
-0.0046591018
-0.0040961815
-0.0028700358
-0.0011726696
0.0070081483
0.010179431
0.010149642
0.0079617987
0.0066646563
0.0062147653
0.0065763749
0.0080038313
0.010831213
0.014536531
0.0051922223
0.010381057
0.014362243
0.012678282
0.011534122
0.011247931
0.011901619
0.014171443
0.018434318
0.010725586
-0.00017263389
0.00094195575
0.0029214531
0.0024893628
0.0021542227
0.0020856564
0.0023349576
0.0032172339
0.0048051696
-0.0019219207
0.0033777985
-0.0019941429
0.00046153314
0.00077924767
0.00067059398
0.00036229668
-0.0001623887
-0.00045078592
0.0017782498
0.0028285046
-0.0047466505
-0.0091210485
-0.004486104
-0.0039084752
-0.0043232489
-0.0053417836
-0.0070789545
-0.0086232916
-0.004400323
-1.4979943e-05
-0.0062351638
-0.002075078
-0.0010225905
-0.001060197
-0.0016420251
-0.0027349909
-0.0045155765
-0.0068196121
-0.007025437
-0.0049044214
0.0067566275
0.0070702187
0.0069194826
0.0064507841
0.0057250642
0.0047206536
0.0033241915
0.0014502299
-0.00030149479
-0.0015097201
0.0044327195
0.003807293
0.002999411
0.0021324992
0.0012692805
0.00040075667
-0.00050703181
-0.0014713858
-0.0023337882
-0.0029630874
0.0012686928
1.9218834e-05
-0.0014870128
-0.0028543326
-0.0038878855
-0.0046306449
-0.0051085803
-0.0053169351
-0.00523484
-0.0049685948
0.00074425138
-0.00047537252
-0.0025372566
-0.0045599938
-0.0058076803
-0.0064321363
-0.0064939705
-0.0059361703
-0.0046962995
-0.002969675
0.0052882343
0.0081991921
0.0079668658
0.0056893316
0.0043411795
0.0038625752
0.0042149197
0.0056602462
0.0085530605
0.012386942
0.0038074641
0.0087263999
0.012415776
0.010641591
0.0094558259
0.0091498891
0.0098041662
0.012116384
0.016530862
0.0091643904
-0.00050062346
0.0005496313
0.0024229386
0.0019636417
0.0016174551
0.0015441089
0.001794952
0.0026951919
0.0043508727
-0.0022157888
0.0035265991
-0.0015841397
0.00079656828
0.0010938547
0.0009755502
0.00065699098
0.00011221089
-0.00022723352
0.0018811525
0.0028625778
-0.0035937196
-0.0076887658
-0.0032143829
-0.0026939073
-0.0031426297
-0.0041963369
-0.0059922399
-0.0076688213
-0.003752459
0.00036565343
-0.0050332119
-0.0010162203
-3.8353437e-05
-0.00012513398
-0.00074649121
-0.0018790049
-0.0037105179
-0.0060981298
-0.0064659775
-0.0045400602
0.0069772586
0.0072457315
0.0070490118
0.0065375937
0.0057727428
0.0047303146
0.0032932782
0.0013727879
-0.00043299887
-0.0016832836
0.0040597921
0.0034044964
0.0025573624
0.0016506255
0.00075008331
-0.0001529835
-0.0010934721
-0.0020890373
-0.0029790093
-0.0036248626
0.00037256152
-0.00092244743
-0.0024770487
-0.0038864741
-0.0049565132
-0.0057300296
-0.006233363
-0.0064616231
-0.0063928505
-0.0061326365
-0.00062301014
-0.0019493469
-0.0040954946
-0.0061684717
-0.0074530213
-0.0081045256
-0.0081846148
-0.0076352251
-0.0063911699
-0.0046492001
0.0036190797
0.0062724921
0.0058588606
0.0035170325
0.0021325835
0.0016314952
0.001973096
0.0034249401
0.0063584007
0.010285473
0.0024584205
0.0070931375
0.010492895
0.008651207
0.0074368237
0.0071153818
0.0077658103
0.010101407
0.014626343
0.0076178065
-0.00081552743
0.00016589785
0.0019298809
0.0014498428
0.0010963577
0.0010192739
0.0012698337
0.0021805871
0.0038878821
-0.0024917708
0.0036404491
-0.0011961008
0.0010952482
0.0013711418
0.0012448738
0.00091939878
0.000360464
-2.2710903e-05
0.0019615236
0.0028710869
-0.0025230341
-0.0063408355
-0.0020525082