/*--------------------------------*- C++ -*----------------------------------*\
| =========                 |                                                 |
| \\      /  F ield         | OpenFOAM: The Open Source CFD Toolbox           |
|  \\    /   O peration     | Version:  v2106                                 |
|   \\  /    A nd           | Website:  www.openfoam.com                      |
|    \\/     M anipulation  |                                                 |
\*---------------------------------------------------------------------------*/
FoamFile
{
    version     2.0;
    format      ascii;
    arch        "LSB;label=32;scalar=64";
    class       volScalarField;
    location    "20";
    object      laplacianT;
}
// * * * * * * * * * * * * * * * * * * * * * * * * * * * * * * * * * * * * * //

dimensions      [0 -2 0 1 0 0 0];

internalField   nonuniform List<scalar> 
4000
(
141786.12
141785.97
141785.77
141785.46
141785.37
141785.38
141785.47
141785.59
141785.71
141785.71
141785.97
141786.1
141785.68
141785.4
141785.32
141785.34
141785.44
141785.59
141785.75
141785.73
141785.77
141785.68
141785.34
141785.07
141785
141785.02
141785.13
141785.32
141785.55
141785.58
141785.46
141785.4
141785.07
141784.8
141784.74
141784.78
141784.89
141785.09
141785.34
141785.41
141785.37
141785.32
141785
141784.74
141784.69
141784.72
141784.85
141785.05
141785.31
141785.38
141785.38
141785.34
141785.02
141784.78
141784.72
141784.77
141784.9
141785.1
141785.36
141785.44
141785.47
141785.44
141785.13
141784.89
141784.85
141784.9
141785.03
141785.24
141785.5
141785.57
141785.59
141785.59
141785.32
141785.09
141785.05
141785.1
141785.24
141785.45
141785.71
141785.78
141785.71
141785.75
141785.55
141785.34
141785.31
141785.36
141785.5
141785.71
141785.96
141786.02
141785.71
141785.73
141785.58
141785.41
141785.38
141785.44
141785.57
141785.78
141786.02
141786.06
-11615.27
-11619.915
-11616.677
-11617.105
-11617.151
-11617.158
-11617.173
-11617.195
-11617.223
-11617.255
-11619.915
-11620.131
-11618.34
-11618.724
-11618.76
-11618.766
-11618.784
-11618.831
-11619.005
-11618.471
-11616.677
-11618.34
-11616.414
-11616.777
-11616.811
-11616.817
-11616.83
-11616.873
-11617.195
-11617.423
-11617.105
-11618.724
-11616.777
-11617.138
-11617.173
-11617.179
-11617.189
-11617.21
-11617.457
-11617.549
-11617.151
-11618.76
-11616.811
-11617.173
-11617.209
-11617.216
-11617.228
-11617.249
-11617.491
-11617.569
-11617.158
-11618.766
-11616.817
-11617.179
-11617.216
-11617.224
-11617.236
-11617.258
-11617.501
-11617.579
-11617.173
-11618.784
-11616.83
-11617.189
-11617.228
-11617.236
-11617.249
-11617.272
-11617.515
-11617.593
-11617.195
-11618.831
-11616.873
-11617.21
-11617.249
-11617.258
-11617.272
-11617.294
-11617.538
-11617.618
-11617.223
-11619.005
-11617.195
-11617.457
-11617.491
-11617.501
-11617.515
-11617.538
-11617.782
-11617.871
-11617.255
-11618.471
-11617.423
-11617.549
-11617.569
-11617.579
-11617.593
-11617.618
-11617.871
-11617.953
-10361.756
-10366.896
-10362.727
-10363.394
-10363.474
-10363.485
-10363.5
-10363.537
-10363.665
-10362.883
-10366.896
-10366.521
-10364.268
-10364.865
-10364.93
-10364.937
-10364.95
-10365.039
-10365.775
-10364.504
-10362.727
-10364.268
-10361.822
-10362.389
-10362.45
-10362.454
-10362.45
-10362.487
-10363.394
-10363.192
-10363.394
-10364.865
-10362.389
-10362.951
-10363.013
-10363.017
-10363.007
-10363.003
-10363.783
-10363.374
-10363.474
-10364.93
-10362.45
-10363.013
-10363.076
-10363.08
-10363.071
-10363.066
-10363.838
-10363.404
-10363.485
-10364.937
-10362.454
-10363.017
-10363.08
-10363.085
-10363.077
-10363.073
-10363.846
-10363.411
-10363.5
-10364.95
-10362.45
-10363.007
-10363.071
-10363.077
-10363.07
-10363.066
-10363.84
-10363.407
-10363.537
-10365.039
-10362.487
-10363.003
-10363.066
-10363.073
-10363.066
-10363.063
-10363.839
-10363.42
-10363.665
-10365.775
-10363.394
-10363.783
-10363.838
-10363.846
-10363.84
-10363.839
-10364.624
-10364.268
-10362.883
-10364.504
-10363.192
-10363.374
-10363.404
-10363.411
-10363.407
-10363.42
-10364.268
-10363.253
-9379.3817
-9385.055
-9380.0642
-9380.9579
-9381.0718
-9381.0846
-9381.0972
-9381.1555
-9381.5947
-9380.5229
-9385.055
-9384.2766
-9381.6327
-9382.4326
-9382.5251
-9382.5289
-9382.5233
-9382.6139
-9384.0242
-9382.4092
-9380.0642
-9381.6327
-9378.7409
-9379.5001
-9379.5875
-9379.5865
-9379.553
-9379.5445
-9381.1539
-9380.8766
-9380.9579
-9382.4326
-9379.5001
-9380.2538
-9380.3411
-9380.3398
-9380.2974
-9380.2275
-9381.6624
-9381.1126
-9381.0718
-9382.5251
-9379.5875
-9380.3411
-9380.429
-9380.4286
-9380.3876
-9380.3153
-9381.7373
-9381.1526
-9381.0846
-9382.5289
-9379.5865
-9380.3398
-9380.4286
-9380.429
-9380.3888
-9380.3176
-9381.7403
-9381.1535
-9381.0972
-9382.5233
-9379.553
-9380.2974
-9380.3876
-9380.3888
-9380.3491
-9380.2784
-9381.7021
-9381.1207
-9381.1555
-9382.6139
-9379.5445
-9380.2275
-9380.3153
-9380.3176
-9380.2784
-9380.2088
-9381.6383
-9381.0968
-9381.5947
-9384.0242
-9381.1539
-9381.6624
-9381.7373
-9381.7403
-9381.7021
-9381.6383
-9383.1027
-9382.8026
-9380.5229
-9382.4092
-9380.8766
-9381.1126
-9381.1526
-9381.1535
-9381.1207
-9381.0968
-9382.8026
-9380.6547
-8587.6132
-8593.6548
-8587.9618
-8589.079
-8589.2251
-8589.238
-8589.24
-8589.2894
-8589.9824
-8588.7495
-8593.6548
-8592.4537
-8589.5074
-8590.5059
-8590.6244
-8590.6231
-8590.5891
-8590.6394
-8592.6304
-8590.8443
-8587.9618
-8589.5074
-8586.2561
-8587.204
-8587.3159
-8587.3082
-8587.2356
-8587.1388
-8589.3486
-8589.1258
-8589.079
-8590.5059
-8587.204
-8588.1447
-8588.2562
-8588.2481
-8588.1639
-8587.9859
-8589.9742
-8589.4145
-8589.2251
-8590.6244
-8587.3159
-8588.2562
-8588.3683
-8588.3612
-8588.2785
-8588.097
-8590.0683
-8589.4637
-8589.238
-8590.6231
-8587.3082
-8588.2481
-8588.3612
-8588.3549
-8588.2731
-8588.0927
-8590.0646
-8589.4569
-8589.24
-8590.5891
-8587.2356
-8588.1639
-8588.2785
-8588.2731
-8588.1916
-8588.0116
-8589.9845
-8589.3847
-8589.2894
-8590.6394
-8587.1388
-8587.9859
-8588.097
-8588.0927
-8588.0116
-8587.8326
-8589.8137
-8589.2843
-8589.9824
-8592.6304
-8589.3486
-8589.9742
-8590.0683
-8590.0646
-8589.9845
-8589.8137
-8591.8574
-8591.8226
-8588.7495
-8590.8443
-8589.1258
-8589.4145
-8589.4637
-8589.4569
-8589.3847
-8589.2843
-8591.8226
-8588.7597
-7933.5819
-7939.8563
-7933.5816
-7934.9174
-7935.0944
-7935.1061
-7935.0936
-7935.1204
-7936.022
-7934.6959
-7939.8563
-7938.2372
-7935.0733
-7936.265
-7936.408
-7936.4001
-7936.3325
-7936.3208
-7938.8054
-7936.9606
-7933.5816
-7935.0733
-7931.547
-7932.6781
-7932.8132
-7932.7974
-7932.6807
-7932.4735
-7935.1851
-7935.0898
-7934.9174
-7936.265
-7932.6781
-7933.8004
-7933.9348
-7933.9187
-7933.7879
-7933.4804
-7935.925
-7935.4295
-7935.0944
-7936.408
-7932.8132
-7933.9348
-7934.0697
-7934.0548
-7933.9259
-7933.6138
-7936.0375
-7935.4873
-7935.1061
-7936.4001
-7932.7974
-7933.9187
-7934.0548
-7934.0405
-7933.9127
-7933.6017
-7936.0259
-7935.4715
-7935.0936
-7936.3325
-7932.6807
-7933.7879
-7933.9259
-7933.9127
-7933.785
-7933.4741
-7935.8988
-7935.3544
-7935.1204
-7936.3208
-7932.4735
-7933.4804
-7933.6138
-7933.6017
-7933.4741
-7933.1637
-7935.5978
-7935.1542
-7936.022
-7938.8054
-7935.1851
-7935.925
-7936.0375
-7936.0259
-7935.8988
-7935.5978
-7938.1195
-7938.4461
-7934.6959
-7936.9606
-7935.0898
-7935.4295
-7935.4873
-7935.4715
-7935.3544
-7935.1542
-7938.4461
-7934.6647
-7381.5946
-7388.0088
-7381.2638
-7382.8099
-7383.0161
-7383.0255
-7382.9961
-7382.9915
-7384.0636
-7382.6869
-7388.0088
-7386.0052
-7382.6971
-7384.0737
-7384.2394
-7384.2236
-7384.119
-7384.0305
-7386.9277
-7385.0936
-7381.2638
-7382.6971
-7378.9702
-7380.2764
-7380.433
-7380.4082
-7380.2444
-7379.9129
-7383.0348
-7383.1009
-7382.8099
-7384.0737
-7380.2764
-7381.5721
-7381.7278
-7381.7028
-7381.523
-7381.0727
-7383.8845
-7383.4894
-7383.0161
-7384.2394
-7380.433
-7381.7278
-7381.8841
-7381.8605
-7381.683
-7381.2272
-7384.0145
-7383.5552
-7383.0255
-7384.2236
-7380.4082
-7381.7028
-7381.8605
-7381.8376
-7381.6613
-7381.2067
-7383.9943
-7383.5295
-7382.9961
-7384.119
-7380.2444
-7381.523
-7381.683
-7381.6613
-7381.485
-7381.0301
-7383.8173
-7383.364
-7382.9915
-7384.0305
-7379.9129
-7381.0727
-7381.2272
-7381.2067
-7381.0301
-7380.5747
-7383.3714
-7383.0488
-7384.0636
-7386.9277
-7383.0348
-7383.8845
-7384.0145
-7383.9943
-7383.8173
-7383.3714
-7386.2784
-7387.0065
-7382.6869
-7385.0936
-7383.1009
-7383.4894
-7383.5552
-7383.5295
-7383.364
-7383.0488
-7387.0065
-7382.6625
-6906.7983
-6913.2886
-6906.174
-6907.9191
-6908.1523
-6908.1586
-6908.1107
-6908.0681
-6909.2759
-6907.8738
-6913.2886
-6910.9494
-6907.559
-6909.1095
-6909.2961
-6909.2716
-6909.1277
-6908.9517
-6912.1861
-6910.401
-6906.174
-6907.559
-6903.6954
-6905.1661
-6905.3424
-6905.308
-6905.0957
-6904.6308
-6908.0794
-6908.3134
-6907.9191
-6909.1095
-6905.1661
-6906.6247
-6906.8
-6906.7657
-6906.5356
-6905.9349
-6909.0328
-6908.7479
-6908.1523
-6909.2961
-6905.3424
-6906.8
-6906.9758
-6906.9431
-6906.7161
-6906.1091
-6909.1792
-6908.8209
-6908.1586
-6909.2716
-6905.308
-6906.7657
-6906.9431
-6906.9112
-6906.6854
-6906.0798
-6909.1501
-6908.785
-6908.1107
-6909.1277
-6905.0957
-6906.5356
-6906.7161
-6906.6854
-6906.4595
-6905.853
-6908.9219
-6908.5693
-6908.0681
-6908.9517
-6904.6308
-6905.9349
-6906.1091
-6906.0798
-6905.853
-6905.2446
-6908.3221
-6908.1289
-6909.2759
-6912.1861
-6908.0794
-6909.0328
-6909.1792
-6909.1501
-6908.9219
-6908.3221
-6911.5299
-6912.6647
-6907.8738
-6910.401
-6908.3134
-6908.7479
-6908.8209
-6908.785
-6908.5693
-6908.1289
-6912.6647
-6907.8801
-6491.4133
-6497.936
-6490.5421
-6492.4722
-6492.7301
-6492.7326
-6492.6652
-6492.5799
-6493.8919
-6492.4778
-6497.936
-6495.3182
-6491.8969
-6493.6082
-6493.8135
-6493.7797
-6493.5957
-6493.3248
-6496.8273
-6495.1082
-6490.5421
-6491.8969
-6487.9508
-6489.5734
-6489.7675
-6489.7232
-6489.4623
-6488.8593
-6492.559
-6492.95
-6492.4722
-6493.6082
-6489.5734
-6491.1825
-6491.3755
-6491.3316
-6491.0516
-6490.297
-6493.6087
-6493.427
-6492.7301
-6493.8135
-6489.7675
-6491.3755
-6491.569
-6491.5271
-6491.2506
-6490.4893
-6493.7703
-6493.5065
-6492.7326
-6493.7797
-6489.7232
-6491.3316
-6491.5271
-6491.486
-6491.211
-6490.4511
-6493.7322
-6493.4602
-6492.6652
-6493.5957
-6489.4623
-6491.0516
-6491.2506
-6491.211
-6490.9358
-6490.1743
-6493.4527
-6493.1938
-6492.5799
-6493.3248
-6488.8593
-6490.297
-6490.4893
-6490.4511
-6490.1743
-6489.4093
-6492.6947
-6492.6221
-6493.8919
-6496.8273
-6492.559
-6493.6087
-6493.7703
-6493.7322
-6493.4527
-6492.6947
-6496.1274
-6497.6517
-6492.4778
-6495.1082
-6492.95
-6493.427
-6493.5065
-6493.4602
-6493.1938
-6492.6221
-6497.6517
-6492.5221
-6122.4243
-6128.9493
-6121.3571
-6123.4559
-6123.7361
-6123.7343
-6123.647
-6123.5159
-6124.9037
-6123.4834
-6128.9493
-6126.1128
-6122.7028
-6124.5601
-6124.7819
-6124.7387
-6124.5144
-6124.1446
-6127.8525
-6126.2026
-6121.3571
-6122.7028
-6118.7201
-6120.4805
-6120.6903
-6120.6361
-6120.3276
-6119.5853
-6123.4688
-6123.9951
-6123.4559
-6124.5601
-6120.4805
-6122.2261
-6122.4347
-6122.3814
-6122.0526
-6121.1447
-6124.6062
-6124.5107
-6123.7361
-6124.7819
-6120.6903
-6122.4347
-6122.644
-6122.5929
-6122.2684
-6121.3533
-6124.7818
-6124.5961
-6123.7343
-6124.7387
-6120.6361
-6122.3814
-6122.5929
-6122.5428
-6122.2199
-6121.3063
-6124.7348
-6124.5395
-6123.647
-6124.5144
-6120.3276
-6122.0526
-6122.2684
-6122.2199
-6121.8966
-6120.9808
-6124.4051
-6124.2229
-6123.5159
-6124.1446
-6119.5853
-6121.1447
-6121.3533
-6121.3063
-6120.9808
-6120.0596
-6123.4884
-6123.5175
-6124.9037
-6127.8525
-6123.4688
-6124.6062
-6124.7818
-6124.7348
-6124.4051
-6123.4884
-6127.0788
-6128.9609
-6123.4834
-6126.2026
-6123.9951
-6124.5107
-6124.5961
-6124.5395
-6124.2229
-6123.5175
-6128.9609
-6123.5621
-5790.1122
-5796.6187
-5788.9002
-5791.15
-5791.4498
-5791.4435
-5791.3363
-5791.1576
-5792.5962
-5791.1709
-5796.6187
-5793.6227
-5790.2582
-5792.2454
-5792.4816
-5792.4289
-5792.1653
-5791.6951
-5795.5523
-5793.9659
-5788.9002
-5790.2582
-5786.2775
-5788.1605
-5788.3839
-5788.3201
-5787.9657
-5787.0863
-5791.0941
-5791.7282
-5791.15
-5792.2454
-5788.1605
-5790.0273
-5790.2496
-5790.1871
-5789.8118
-5788.7541
-5792.31
-5792.2781
-5791.4498
-5792.4816
-5788.3839
-5790.2496
-5790.4725
-5790.4126
-5790.0423
-5788.9772
-5792.4979
-5792.3685
-5791.4435
-5792.4289
-5788.3201
-5790.1871
-5790.4126
-5790.3538
-5789.9853
-5788.9218
-5792.4424
-5792.302
-5791.3363
-5792.1653
-5787.9657
-5789.8118
-5790.0423
-5789.9853
-5789.6162
-5788.5497
-5792.0645
-5791.937
-5791.1576
-5791.6951
-5787.0863
-5788.7541
-5788.9772
-5788.9218
-5788.5497
-5787.4759
-5790.9921
-5791.0984
-5792.5962
-5795.5523
-5791.0941
-5792.31
-5792.4979
-5792.4424
-5792.0645
-5790.9921
-5794.6814
-5796.881
-5791.1709
-5793.9659
-5791.7282
-5792.2781
-5792.3685
-5792.302
-5791.937
-5791.0984
-5796.881
-5791.2735
-5487.0928
-5493.5652
-5485.7848
-5488.1668
-5488.4833
-5488.4725
-5488.3459
-5488.1192
-5489.5867
-5488.1547
-5493.5652
-5490.4664
-5487.1747
-5489.275
-5489.5232
-5489.4614
-5489.16
-5488.5903
-5492.5468
-5491.0136
-5485.7848
-5487.1747
-5483.2282
-5485.2177
-5485.4526
-5485.3796
-5484.9821
-5483.9702
-5488.0504
-5488.7624
-5488.1668
-5489.275
-5485.2177
-5487.1899
-5487.4237
-5487.3526
-5486.9336
-5485.7327
-5489.3347
-5489.3421
-5488.4833
-5489.5232
-5485.4526
-5487.4237
-5487.6583
-5487.5901
-5487.1769
-5485.9683
-5489.5335
-5489.4368
-5488.4725
-5489.4614
-5485.3796
-5487.3526
-5487.5901
-5487.5231
-5487.1118
-5485.905
-5489.47
-5489.3609
-5488.3459
-5489.16
-5484.9821
-5486.9336
-5487.1769
-5487.1118
-5486.6997
-5485.4892
-5489.0467
-5488.9498
-5488.1192
-5488.5903
-5483.9702
-5485.7327
-5485.9683
-5485.905
-5485.4892
-5484.2691
-5487.8246
-5487.9815
-5489.5867
-5492.5468
-5488.0504
-5489.3347
-5489.5335
-5489.47
-5489.0467
-5487.8246
-5491.5618
-5494.0338
-5488.1547
-5491.0136
-5488.7624
-5489.3421
-5489.4368
-5489.3609
-5488.9498
-5487.9815
-5494.0338
-5488.2672
-5207.6692
-5214.0952
-5206.3101
-5208.8046
-5209.1352
-5209.1198
-5208.9746
-5208.7006
-5210.1781
-5208.7368
-5214.0952
-5210.9458
-5207.7486
-5209.9445
-5210.2025
-5210.1319
-5209.795
-5209.1287
-5213.1405
-5211.6476
-5206.3101
-5207.7486
-5203.8631
-5205.9425
-5206.1868
-5206.1053
-5205.6678
-5204.5304
-5208.6379
-5209.3979
-5208.8046
-5209.9445
-5205.9425
-5208.0037
-5208.247
-5208.1679
-5207.7087
-5206.3731
-5209.9803
-5210.0026
-5209.1352
-5210.2025
-5206.1868
-5208.247
-5208.4912
-5208.4153
-5207.9625
-5206.6194
-5210.1884
-5210.1009
-5209.1198
-5210.1319
-5206.1053
-5208.1679
-5208.4153
-5208.3407
-5207.8901
-5206.5488
-5210.1175
-5210.0163
-5208.9746
-5209.795
-5205.6678
-5207.7087
-5207.9625
-5207.8901
-5207.4384
-5206.0927
-5209.6521
-5209.5622
-5208.7006
-5209.1287
-5204.5304
-5206.3731
-5206.6194
-5206.5488
-5206.0927
-5204.7351
-5208.2886
-5208.4699
-5210.1781
-5213.1405
-5208.6379
-5209.9803
-5210.1884
-5210.1175
-5209.6521
-5208.2886
-5212.0301
-5214.728
-5208.7368
-5211.6476
-5209.3979
-5210.0026
-5210.1009
-5210.0163
-5209.5622
-5208.4699
-5214.728
-5208.8434
-4947.3872
-4953.756
-4946.0172
-4948.6041
-4948.9458
-4948.926
-4948.7634
-4948.4437
-4949.9149
-4948.4616
-4953.756
-4950.603
-4947.517
-4949.7907
-4950.0564
-4949.9776
-4949.608
-4948.8498
-4952.8781
-4951.4124
-4946.0172
-4947.517
-4943.7147
-4945.8672
-4946.1189
-4946.0296
-4945.5557
-4944.3018
-4948.3978
-4949.1776
-4948.6041
-4949.7907
-4945.8672
-4948.0008
-4948.2515
-4948.1652
-4947.6697
-4946.21
-4949.7876
-4949.8025
-4948.9458
-4950.0564
-4946.1189
-4948.2515
-4948.5032
-4948.4204
-4947.932
-4946.4649
-4950.0033
-4949.9035
-4948.926
-4949.9776
-4946.0296
-4948.1652
-4948.4204
-4948.339
-4947.853
-4946.3878
-4949.9257
-4949.811
-4948.7634
-4949.608
-4945.5557
-4947.6697
-4947.932
-4947.853
-4947.3656
-4945.8952
-4949.4223
-4949.3176
-4948.4437
-4948.8498
-4944.3018
-4946.21
-4946.4649
-4946.3878
-4945.8952
-4944.4107
-4947.9277
-4948.1089
-4949.9149
-4952.8781
-4948.3978
-4949.7876
-4950.0033
-4949.9257
-4949.4223
-4947.9277
-4951.6364
-4954.514
-4948.4616
-4951.4124
-4949.1776
-4949.8025
-4949.9035
-4949.811
-4949.3176
-4948.1089
-4954.514
-4948.5467
-4702.723
-4709.0236
-4701.3765
-4704.0355
-4704.3857
-4704.3616
-4704.183
-4703.82
-4705.2712
-4703.8038
-4709.0236
-4705.9088
-4702.9465
-4705.2803
-4705.5514
-4705.4652
-4705.0658
-4704.2219
-4708.2333
-4706.7825
-4701.3765
-4702.9465
-4699.2457
-4701.4545
-4701.7115
-4701.6153
-4701.1091
-4699.7489
-4703.8004
-4704.5743
-4704.0355
-4705.2803
-4701.4545
-4703.6437
-4703.8999
-4703.8071
-4703.2796
-4701.7078
-4705.2268
-4705.2145
-4704.3857
-4705.5514
-4701.7115
-4703.8999
-4704.1571
-4704.0682
-4703.5484
-4701.9694
-4705.4485
-4705.3176
-4704.3616
-4705.4652
-4701.6153
-4703.8071
-4704.0682
-4703.9808
-4703.4635
-4701.8864
-4705.365
-4705.2181
-4704.183
-4705.0658
-4701.1091
-4703.2796
-4703.5484
-4703.4635
-4702.9446
-4701.3617
-4704.8277
-4704.6893
-4703.82
-4704.2219
-4699.7489
-4701.7078
-4701.9694
-4701.8864
-4701.3617
-4699.7624
-4703.2141
-4703.3737
-4705.2712
-4708.2333
-4703.8004
-4705.2268
-4705.4485
-4705.365
-4704.8277
-4703.2141
-4706.8591
-4709.8721
-4703.8038
-4706.7825
-4704.5743
-4705.2145
-4705.3176
-4705.2181
-4704.6893
-4703.3737
-4709.8721
-4703.8529
-4470.8597
-4477.0808
-4469.5658
-4472.2765
-4472.6325
-4472.6043
-4472.4113
-4472.0081
-4473.428
-4471.9452
-4477.0808
-4474.04
-4471.2106
-4473.5867
-4473.8612
-4473.7684
-4473.3427
-4472.4203
-4476.3856
-4474.9392
-4469.5658
-4471.2106
-4467.6262
-4469.8746
-4470.135
-4470.0327
-4469.4985
-4468.0436
-4472.0226
-4472.7684
-4472.2765
-4473.5867
-4469.8746
-4472.1029
-4472.3626
-4472.2643
-4471.7092
-4470.0385
-4473.4748
-4473.4189
-4472.6325
-4473.8612
-4470.135
-4472.3626
-4472.6234
-4472.5292
-4471.9825
-4470.3047
-4473.7009
-4473.5234
-4472.6043
-4473.7684
-4470.0327
-4472.2643
-4472.5292
-4472.4366
-4471.8925
-4470.2168
-4473.6124
-4473.4177
-4472.4113
-4473.3427
-4469.4985
-4471.7092
-4471.9825
-4471.8925
-4471.3466
-4469.6644
-4473.0457
-4472.8579
-4472.0081
-4472.4203
-4468.0436
-4470.0385
-4470.3047
-4470.2168
-4469.6644
-4467.9636
-4471.3263
-4471.446
-4473.428
-4476.3856
-4472.0226
-4473.4748
-4473.7009
-4473.6124
-4473.0457
-4471.3263
-4474.8821
-4477.989
-4471.9452
-4474.9392
-4472.7684
-4473.4189
-4473.5234
-4473.4177
-4472.8579
-4471.446
-4477.989
-4471.9457
-4249.5253
-4255.6544
-4248.3075
-4251.05
-4251.409
-4251.3772
-4251.1714
-4250.7316
-4252.1108
-4250.6128
-4255.6544
-4252.718
-4250.028
-4252.4289
-4252.7048
-4252.6062
-4252.1579
-4251.1652
-4255.0595
-4253.6091
-4248.3075
-4250.028
-4246.5722
-4248.8436
-4249.1056
-4248.9982
-4248.4405
-4246.9032
-4250.7863
-4251.4853
-4251.05
-4252.4289
-4248.8436
-4251.0948
-4251.3561
-4251.2532
-4250.6752
-4248.9195
-4252.2537
-4252.1414
-4251.409
-4252.7048
-4249.1056
-4251.3561
-4251.6187
-4251.52
-4250.9509
-4249.1885
-4252.4824
-4252.2464
-4251.3772
-4252.6062
-4248.9982
-4251.2532
-4251.52
-4251.4232
-4250.8568
-4249.0964
-4252.3897
-4252.1355
-4251.1714
-4252.1579
-4248.4405
-4250.6752
-4250.9509
-4250.8568
-4250.2884
-4248.5209
-4251.7984
-4251.5494
-4250.7316
-4251.1652
-4246.9032
-4248.9195
-4249.1885
-4249.0964
-4248.5209
-4246.7328
-4249.9874
-4250.0528
-4252.1108
-4255.0595
-4250.7863
-4252.2537
-4252.4824
-4252.3897
-4251.7984
-4249.9874
-4253.4332
-4256.5959
-4250.6128
-4253.6091
-4251.4853
-4252.1414
-4252.2464
-4252.1355
-4251.5494
-4250.0528
-4256.5959
-4250.5542
-4036.8736
-4042.8969
-4035.7502
-4038.5047
-4038.8642
-4038.8291
-4038.6124
-4038.1401
-4039.471
-4037.9593
-4042.8969
-4040.0901
-4037.5434
-4039.9521
-4040.2276
-4040.1242
-4039.657
-4038.603
-4042.4049
-4040.9447
-4035.7502
-4037.5434
-4034.226
-4036.5045
-4036.7663
-4036.6547
-4036.0782
-4034.4715
-4038.2393
-4038.8764
-4038.5047
-4039.9521
-4036.5045
-4038.7627
-4039.0238
-4038.9172
-4038.321
-4036.4949
-4039.7114
-4039.5332
-4038.8642
-4040.2276
-4036.7663
-4039.0238
-4039.2863
-4039.1842
-4038.5973
-4036.7648
-4039.9412
-4039.6381
-4038.8291
-4040.1242
-4036.6547
-4038.9172
-4039.1842
-4039.0839
-4038.4999
-4036.6694
-4039.8451
-4039.5231
-4038.6124
-4039.657
-4036.0782
-4038.321
-4038.5973
-4038.4999
-4037.9138
-4036.0756
-4039.234
-4038.9153
-4038.1401
-4038.603
-4034.4715
-4036.4949
-4036.7648
-4036.6694
-4036.0756
-4034.2149
-4037.3464
-4037.3465
-4039.471
-4042.4049
-4038.2393
-4039.7114
-4039.9412
-4039.8451
-4039.234
-4037.3464
-4040.6656
-4043.8497
-4037.9593
-4040.9447
-4038.8764
-4039.5332
-4039.6381
-4039.5231
-4038.9153
-4037.3465
-4043.8497
-4037.8337
-3831.3951
-3837.2974
-3830.3794
-3833.1268
-3833.4845
-3833.4465
-3833.2208
-3832.7202
-3833.9969
-3832.4742
-3837.2974
-3834.6405
-3832.2392
-3834.6393
-3834.9124
-3834.8051
-3834.323
-3833.2171
-3836.9086
-3835.4352
-3830.3794
-3832.2392
-3829.0681
-3831.3382
-3831.5979
-3831.4832
-3830.8925
-3829.2299
-3832.8666
-3833.4303
-3833.1268
-3834.6393
-3831.3382
-3833.5878
-3833.8471
-3833.7378
-3833.1282
-3831.2465
-3834.3331
-3834.0832
-3833.4845
-3834.9124
-3831.5979
-3833.8471
-3834.1078
-3834.0031
-3833.4032
-3831.5154
-3834.5624
-3834.1872
-3833.4465
-3834.8051
-3831.4832
-3833.7378
-3834.0031
-3833.9004
-3833.3033
-3831.4177
-3834.4638
-3834.069
-3833.2208
-3834.323
-3830.8925
-3833.1282
-3833.4032
-3833.3033
-3832.7041
-3830.8102
-3833.8378
-3833.4445
-3832.7202
-3833.2171
-3829.2299
-3831.2465
-3831.5154
-3831.4177
-3830.8102
-3828.8921
-3831.8889
-3831.8164
-3833.9969
-3836.9086
-3832.8666
-3834.3331
-3834.5624
-3834.4638
-3833.8378
-3831.8889
-3835.0686
-3838.2433
-3832.4742
-3835.4352
-3833.4303
-3834.0832
-3834.1872
-3834.069
-3833.4445
-3831.8164
-3838.2433
-3832.2763
-3631.8499
-3637.6148
-3630.951
-3633.6728
-3634.0262
-3633.9857
-3633.7529
-3633.2288
-3634.4466
-3632.9171
-3637.6148
-3635.1234
-3632.8683
-3635.2438
-3635.513
-3635.4027
-3634.9096
-3633.7616
-3637.3274
-3635.84
-3630.951
-3632.8683
-3629.8498
-3632.0963
-3632.3525
-3632.2356
-3631.6353
-3629.9305
-3633.4232
-3633.9053
-3633.6728
-3635.2438
-3632.0963
-3634.3227
-3634.5785
-3634.4674
-3633.8491
-3631.9268
-3634.8742
-3634.5499
-3634.0262
-3635.513
-3632.3525
-3634.5785
-3634.8357
-3634.7294
-3634.1211
-3632.1932
-3635.1015
-3634.6523
-3633.9857
-3635.4027
-3632.2356
-3634.4674
-3634.7294
-3634.625
-3634.0197
-3632.0939
-3635.0012
-3634.532
-3633.7529
-3634.9096
-3631.6353
-3633.8491
-3634.1211
-3634.0197
-3633.412
-3631.4774
-3634.3652
-3633.8956
-3633.2288
-3633.7616
-3629.9305
-3631.9268
-3632.1932
-3632.0939
-3631.4774
-3629.5172
-3632.3707
-3632.2216
-3634.4466
-3637.3274
-3633.4232
-3634.8742
-3635.1015
-3635.0012
-3634.3652
-3632.3707
-3635.401
-3638.5395
-3632.9171
-3635.84
-3633.9053
-3634.5499
-3634.6523
-3634.532
-3633.8956
-3632.2216
-3638.5395
-3632.6438
-3437.2169
-3442.8268
-3436.44
-3439.1182
-3439.4651
-3439.4226
-3439.1848
-3438.6417
-3439.7974
-3438.2663
-3442.8268
-3440.5126
-3438.4032
-3440.7388
-3441.0024
-3440.8902
-3440.39
-3439.2099
-3442.6374
-3441.1373
-3436.44
-3438.4032
-3435.5421
-3437.7508
-3438.0018
-3437.8838
-3437.2785
-3435.5452
-3438.8836
-3439.2793
-3439.1182
-3440.7388
-3437.7508
-3439.9396
-3440.1904
-3440.0785
-3439.4561
-3437.5084
-3440.3096
-3439.9111
-3439.4651
-3441.0024
-3438.0018
-3440.1904
-3440.4427
-3440.3356
-3439.7234
-3437.7704
-3440.5334
-3440.0114
-3439.4226
-3440.8902
-3437.8838
-3440.0785
-3440.3356
-3440.2305
-3439.6213
-3437.6703
-3440.4323
-3439.8898
-3439.1848
-3440.39
-3437.2785
-3439.4561
-3439.7234
-3439.6213
-3439.0097
-3437.0496
-3439.7911
-3439.2464
-3438.6417
-3439.2099
-3435.5452
-3437.5084
-3437.7704
-3437.6703
-3437.0496
-3435.0626
-3437.7666
-3437.5401
-3439.7974
-3442.6374
-3438.8836
-3440.3096
-3440.5334
-3440.4323
-3439.7911
-3437.7666
-3440.6405
-3443.7194
-3438.2663
-3441.1373
-3439.2793
-3439.9111
-3440.0114
-3439.8898
-3439.2464
-3437.5401
-3443.7194
-3437.917
-3246.6547
-3252.0911
-3246.0013
-3248.6191
-3248.9574
-3248.9134
-3248.6724
-3248.1153
-3249.2064
-3247.6801
-3252.0911
-3249.9623
-3247.9971
-3250.2782
-3250.5347
-3250.4215
-3249.9181
-3248.7159
-3251.9947
-3250.4854
-3246.0013
-3247.9971
-3245.297
-3247.4542
-3247.6987
-3247.5805
-3246.9747
-3245.2265
-3248.4028
-3248.7097
-3248.6191
-3250.2782
-3247.4542
-3249.592
-3249.8363
-3249.7244
-3249.1026
-3247.1442
-3249.7947
-3249.3247
-3248.9574
-3250.5347
-3247.6987
-3249.8363
-3250.0821
-3249.9751
-3249.3637
-3247.4003
-3250.0135
-3249.4222
-3248.9134
-3250.4215
-3247.5805
-3249.7244
-3249.9751
-3249.8701
-3249.2616
-3247.3003
-3249.9125
-3249.3003
-3248.6724
-3249.9181
-3246.9747
-3249.1026
-3249.3637
-3249.2616
-3248.6506
-3246.6799
-3249.2707
-3248.6548
-3248.1153
-3248.7159
-3245.2265
-3247.1442
-3247.4003
-3247.3003
-3246.6799
-3244.6812
-3247.2317
-3246.9296
-3249.2064
-3251.9947
-3248.4028
-3249.7947
-3250.0135
-3249.9125
-3249.2707
-3247.2317
-3249.9445
-3252.9438
-3247.6801
-3250.4854
-3248.7097
-3249.3247
-3249.4222
-3249.3003
-3248.6548
-3246.9296
-3252.9438
-3247.2562
-3059.4717
-3064.7153
-3058.9405
-3061.4816
-3061.8093
-3061.7642
-3061.522
-3060.9558
-3061.9807
-3060.4665
-3064.7153
-3062.7767
-3060.9535
-3063.1665
-3063.4144
-3063.3012
-3062.7985
-3061.5843
-3064.7057
-3063.1924
-3058.9405
-3060.9535
-3058.4174
-3060.5101
-3060.7467
-3060.6292
-3060.0273
-3058.2776
-3061.2859
-3061.5043
-3061.4816
-3063.1665
-3060.5101
-3062.584
-3062.8204
-3062.7095
-3062.0927
-3060.1382
-3062.6349
-3062.0986
-3061.8093
-3063.4144
-3060.7467
-3062.8204
-3063.0585
-3062.9524
-3062.3459
-3060.3868
-3062.8475
-3062.1927
-3061.7642
-3063.3012
-3060.6292
-3062.7095
-3062.9524
-3062.8483
-3062.2448
-3060.2877
-3062.7472
-3062.0714
-3061.522
-3062.7985
-3060.0273
-3062.0927
-3062.3459
-3062.2448
-3061.6387
-3059.672
-3062.1095
-3061.4283
-3060.9558
-3061.5843
-3058.2776
-3060.1382
-3060.3868
-3060.2877
-3059.672
-3057.6765
-3060.0713
-3059.6977
-3061.9807
-3064.7057
-3061.2859
-3062.6349
-3062.8475
-3062.7472
-3062.1095
-3060.0713
-3062.6201
-3065.5231
-3060.4665
-3063.1924
-3061.5043
-3062.0986
-3062.1927
-3062.0714
-3061.4283
-3059.6977
-3065.5231
-3059.9712
-2875.1024
-2880.1335
-2874.6896
-2877.1387
-2877.454
-2877.4083
-2877.1668
-2876.5962
-2877.5542
-2876.06
-2880.1335
-2878.3874
-2876.7035
-2878.8353
-2879.0733
-2878.961
-2878.4627
-2877.2463
-2880.2036
-2878.6932
-2874.6896
-2876.7035
-2874.3333
-2876.3494
-2876.5767
-2876.4609
-2875.8672
-2874.1291
-2876.9649
-2877.0972
-2877.1387
-2878.8353
-2876.3494
-2878.3472
-2878.5746
-2878.4654
-2877.8578
-2875.9214
-2878.2629
-2877.6671
-2877.454
-2879.0733
-2876.5767
-2878.5746
-2878.8036
-2878.6992
-2878.1019
-2876.1612
-2878.468
-2877.7573
-2877.4083
-2878.961
-2876.4609
-2878.4654
-2878.6992
-2878.5969
-2878.0024
-2876.0637
-2878.3692
-2877.6376
-2877.1668
-2878.4627
-2875.8672
-2877.8578
-2878.1019
-2878.0024
-2877.4054
-2875.4569
-2877.7401
-2877.0015
-2876.5962
-2877.2463
-2874.1291
-2875.9214
-2876.1612
-2876.0637
-2875.4569
-2873.4791
-2875.7175
-2875.2786
-2877.5542
-2880.2036
-2876.9649
-2878.2629
-2878.468
-2878.3692
-2877.7401
-2875.7175
-2878.1012
-2880.8937
-2876.06
-2878.6932
-2877.0972
-2877.6671
-2877.7573
-2877.6376
-2877.0015
-2875.2786
-2880.8937
-2875.4984
-2693.0902
-2697.8889
-2692.7897
-2695.1325
-2695.4336
-2695.3878
-2695.1488
-2694.5786
-2695.4694
-2694.0037
-2697.8889
-2696.335
-2694.7872
-2696.8256
-2697.0527
-2696.9422
-2696.4518
-2695.243
-2698.0305
-2696.5312
-2692.7897
-2694.7872
-2692.5843
-2694.5122
-2694.7293
-2694.616
-2694.0344
-2692.3206
-2694.9811
-2695.0316
-2695.1325
-2696.8256
-2694.5122
-2696.4227
-2696.6399
-2696.5333
-2695.9389
-2694.0343
-2696.2204
-2695.5736
-2695.4336
-2697.0527
-2694.7293
-2696.6399
-2696.8586
-2696.7567
-2696.1725
-2694.2639
-2696.4168
-2695.6593
-2695.3878
-2696.9422
-2694.616
-2696.5333
-2696.7567
-2696.6568
-2696.0754
-2694.1687
-2696.3201
-2695.542
-2695.1488
-2696.4518
-2694.0344
-2695.9389
-2696.1725
-2696.0754
-2695.4915
-2693.575
-2695.7038
-2694.9173
-2694.5786
-2695.243
-2692.3206
-2694.0343
-2694.2639
-2694.1687
-2693.575
-2691.6288
-2693.7114
-2693.2149
-2695.4694
-2698.0305
-2694.9811
-2696.2204
-2696.4168
-2696.3201
-2695.7038
-2693.7114
-2695.9302
-2698.6008
-2694.0037
-2696.5312
-2695.0316
-2695.5736
-2695.6593
-2695.542
-2694.9173
-2693.2149
-2698.6008
-2693.3822
-2513.0725
-2517.619
-2512.8768
-2515.0999
-2515.3852
-2515.3397
-2515.105
-2514.5399
-2515.3639
-2513.9355
-2517.619
-2516.2553
-2514.8402
-2516.7738
-2516.9887
-2516.8809
-2516.4019
-2515.21
-2517.8237
-2516.3447
-2512.8768
-2514.8402
-2512.8053
-2514.6344
-2514.84
-2514.7301
-2514.1646
-2512.4872
-2514.9708
-2514.9452
-2515.0999
-2516.7738
-2514.6344
-2516.447
-2516.6528
-2516.5496
-2515.9723
-2514.1127
-2516.1442
-2515.4561
-2515.3852
-2516.9887
-2514.84
-2516.6528
-2516.8602
-2516.7616
-2516.1943
-2514.3309
-2516.3307
-2515.5368
-2515.3397
-2516.8809
-2514.7301
-2516.5496
-2516.7616
-2516.6648
-2516.1002
-2514.2387
-2516.2369
-2515.4227
-2515.105
-2516.4019
-2514.1646
-2515.9723
-2516.1943
-2516.1002
-2515.5331
-2513.6618
-2515.6375
-2514.8136
-2514.5399
-2515.21
-2512.4872
-2514.1127
-2514.3309
-2514.2387
-2513.6618
-2511.7607
-2513.6891
-2513.1442
-2515.3639
-2517.8237
-2514.9708
-2516.1442
-2516.3307
-2516.2369
-2515.6375
-2513.6891
-2515.7441
-2518.2837
-2513.9355
-2516.3447
-2514.9452
-2515.4561
-2515.5368
-2515.4227
-2514.8136
-2513.1442
-2518.2837
-2513.2615
-2334.771
-2339.0457
-2334.6711
-2336.762
-2337.03
-2336.9852
-2336.7566
-2336.201
-2336.9589
-2335.5769
-2339.0457
-2337.8683
-2336.5823
-2338.4007
-2338.6025
-2338.4981
-2338.0338
-2336.8679
-2339.3046
-2337.8557
-2334.6711
-2336.5823
-2334.7157
-2336.4361
-2336.6294
-2336.5236
-2335.9779
-2334.3486
-2336.6545
-2336.5597
-2336.762
-2338.4007
-2336.4361
-2338.141
-2338.3346
-2338.2353
-2337.679
-2335.8769
-2337.7553
-2337.0365
-2337.03
-2338.6025
-2336.6294
-2338.3346
-2338.5296
-2338.4349
-2337.8881
-2336.0825
-2337.9308
-2337.1118
-2336.9852
-2338.4981
-2336.5236
-2338.2353
-2338.4349
-2338.3419
-2337.7978
-2335.9938
-2337.8405
-2337.0016
-2336.7566
-2338.0338
-2335.9779
-2337.679
-2337.8881
-2337.7978
-2337.2511
-2335.4375
-2337.2618
-2336.4122
-2336.201
-2336.8679
-2334.3486
-2335.8769
-2336.0825
-2335.9938
-2335.4375
-2333.5944
-2335.3708
-2334.7876