/*--------------------------------*- C++ -*----------------------------------*\
| =========                 |                                                 |
| \\      /  F ield         | OpenFOAM: The Open Source CFD Toolbox           |
|  \\    /   O peration     | Version:  v2106                                 |
|   \\  /    A nd           | Website:  www.openfoam.com                      |
|    \\/     M anipulation  |                                                 |
\*---------------------------------------------------------------------------*/
FoamFile
{
    version     2.0;
    format      ascii;
    arch        "LSB;label=32;scalar=64";
    class       volScalarField;
    location    "20";
    object      laplacianT;
}
// * * * * * * * * * * * * * * * * * * * * * * * * * * * * * * * * * * * * * //

dimensions      [0 -2 0 1 0 0 0];

internalField   nonuniform List<scalar> 
4000
(
54063.959
54062.814
54063.682
54063.292
54063.323
54063.389
54063.449
54063.517
54063.594
54063.629
54062.814
54063.624
54063.534
54063.236
54063.287
54063.353
54063.413
54063.49
54063.584
54063.576
54063.682
54063.534
54063.695
54063.442
54063.495
54063.555
54063.61
54063.694
54063.821
54063.733
54063.292
54063.236
54063.442
54063.195
54063.245
54063.298
54063.342
54063.418
54063.559
54063.543
54063.323
54063.287
54063.495
54063.245
54063.29
54063.336
54063.372
54063.435
54063.563
54063.539
54063.389
54063.353
54063.555
54063.298
54063.336
54063.377
54063.407
54063.464
54063.585
54063.555
54063.449
54063.413
54063.61
54063.342
54063.372
54063.407
54063.433
54063.488
54063.609
54063.578
54063.517
54063.49
54063.694
54063.418
54063.435
54063.464
54063.488
54063.544
54063.669
54063.642
54063.594
54063.584
54063.821
54063.559
54063.563
54063.585
54063.609
54063.669
54063.799
54063.776
54063.629
54063.576
54063.733
54063.543
54063.539
54063.555
54063.578
54063.642
54063.776
54063.74
-1187.8849
-1191.0237
-1186.9903
-1188.2639
-1188.4478
-1188.4469
-1188.4346
-1188.4142
-1188.3861
-1188.3861
-1191.0237
-1188.8508
-1187.6754
-1188.7697
-1188.8945
-1188.8776
-1188.8471
-1188.8236
-1188.974
-1188.9848
-1186.9903
-1187.6754
-1186.0131
-1187.0128
-1187.1272
-1187.1061
-1187.0523
-1186.9612
-1187.1349
-1187.8609
-1188.2639
-1188.7697
-1187.0128
-1187.9986
-1188.1125
-1188.0923
-1188.032
-1187.8921
-1187.9032
-1188.2942
-1188.4478
-1188.8945
-1187.1272
-1188.1125
-1188.2274
-1188.2088
-1188.1518
-1188.0148
-1188.0213
-1188.373
-1188.4469
-1188.8776
-1187.1061
-1188.0923
-1188.2088
-1188.1912
-1188.1356
-1188.0018
-1188.0133
-1188.3669
-1188.4346
-1188.8471
-1187.0523
-1188.032
-1188.1518
-1188.1356
-1188.0801
-1187.9464
-1187.9587
-1188.3158
-1188.4142
-1188.8236
-1186.9612
-1187.8921
-1188.0148
-1188.0018
-1187.9464
-1187.8119
-1187.8239
-1188.1923
-1188.3861
-1188.974
-1187.1349
-1187.9032
-1188.0213
-1188.0133
-1187.9587
-1187.8239
-1187.8393
-1188.2505
-1188.3861
-1188.9848
-1187.8609
-1188.2942
-1188.373
-1188.3669
-1188.3158
-1188.1923
-1188.2505
-1188.7592
-1341.072
-1344.6169
-1339.7319
-1341.5115
-1341.7637
-1341.7558
-1341.7239
-1341.6848
-1341.7425
-1341.2129
-1344.6169
-1341.5716
-1340.2562
-1341.7842
-1341.9565
-1341.9182
-1341.8324
-1341.7616
-1342.462
-1342.4187
-1339.7319
-1340.2562
-1338.306
-1339.7116
-1339.871
-1339.8264
-1339.6933
-1339.4506
-1340.0799
-1340.9926
-1341.5115
-1341.7842
-1339.7116
-1341.0991
-1341.2583
-1341.2167
-1341.0757
-1340.7538
-1341.1288
-1341.544
-1341.7637
-1341.9565
-1339.871
-1341.2583
-1341.4193
-1341.3807
-1341.246
-1340.929
-1341.2959
-1341.6441
-1341.7558
-1341.9182
-1339.8264
-1341.2167
-1341.3807
-1341.3436
-1341.2114
-1340.8992
-1341.2735
-1341.6217
-1341.7239
-1341.8324
-1339.6933
-1341.0757
-1341.246
-1341.2114
-1341.0791
-1340.7667
-1341.1417
-1341.4985
-1341.6848
-1341.7616
-1339.4506
-1340.7538
-1340.929
-1340.8992
-1340.7667
-1340.4526
-1340.8284
-1341.2321
-1341.7425
-1342.462
-1340.0799
-1341.1288
-1341.2959
-1341.2735
-1341.1417
-1340.8284
-1341.2242
-1341.8281
-1341.2129
-1342.4187
-1340.9926
-1341.544
-1341.6441
-1341.6217
-1341.4985
-1341.2321
-1341.8281
-1341.9988
-1483.0373
-1487.2785
-1481.4621
-1483.6807
-1483.9947
-1483.9774
-1483.9139
-1483.8429
-1484.1905
-1483.496
-1487.2785
-1483.7171
-1482.1472
-1484.0551
-1484.2708
-1484.2078
-1484.0406
-1483.8369
-1485.1647
-1485.1254
-1481.4621
-1482.1472
-1479.8136
-1481.5745
-1481.7755
-1481.7064
-1481.4752
-1481.0128
-1482.2254
-1483.4172
-1483.6807
-1484.0551
-1481.5745
-1483.3134
-1483.5146
-1483.4505
-1483.2106
-1482.6391
-1483.5148
-1484.076
-1483.9947
-1484.2708
-1481.7755
-1483.5146
-1483.7181
-1483.6585
-1483.4275
-1482.8617
-1483.7249
-1484.195
-1483.9774
-1484.2078
-1481.7064
-1483.4505
-1483.6585
-1483.601
-1483.3732
-1482.8135
-1483.6852
-1484.1524
-1483.9139
-1484.0406
-1481.4752
-1483.2106
-1483.4275
-1483.3732
-1483.1451
-1482.5841
-1483.4549
-1483.9351
-1483.8429
-1483.8369
-1481.0128
-1482.6391
-1482.8617
-1482.8135
-1482.5841
-1482.0192
-1482.8925
-1483.4788
-1484.1905
-1485.1647
-1482.2254
-1483.5148
-1483.7249
-1483.6852
-1483.4549
-1482.8925
-1483.8278
-1484.9944
-1483.496
-1485.1254
-1483.4172
-1484.076
-1484.195
-1484.1524
-1483.9351
-1483.4788
-1484.9944
-1484.4439
-1614.0471
-1618.9166
-1612.1947
-1614.8247
-1615.1966
-1615.168
-1615.0605
-1614.9079
-1615.4647
-1614.6262
-1618.9166
-1614.8591
-1613.0286
-1615.293
-1615.5498
-1615.4622
-1615.2048
-1614.8201
-1616.6988
-1616.6332
-1612.1947
-1613.0286
-1610.313
-1612.4071
-1612.6476
-1612.5545
-1612.2181
-1611.4923
-1613.2274
-1614.6578
-1614.8247
-1615.293
-1612.4071
-1614.4756
-1614.7167
-1614.6306
-1614.2844
-1613.4199
-1614.7401
-1615.4176
-1615.1966
-1615.5498
-1612.6476
-1614.7167
-1614.9606
-1614.8803
-1614.5456
-1613.6871
-1614.9899
-1615.5547
-1615.168
-1615.4622
-1612.5545
-1614.6306
-1614.8803
-1614.8028
-1614.472
-1613.6204
-1614.9321
-1615.49
-1615.0605
-1615.2048
-1612.2181
-1614.2844
-1614.5456
-1614.472
-1614.1403
-1613.2854
-1614.5926
-1615.1645
-1614.9079
-1614.8201
-1611.4923
-1613.4199
-1613.6871
-1613.6204
-1613.2854
-1612.4216
-1613.7271
-1614.4675
-1615.4647
-1616.6988
-1613.2274
-1614.7401
-1614.9899
-1614.9321
-1614.5926
-1613.7271
-1615.1332
-1616.9599
-1614.6262
-1616.6332
-1614.6578
-1615.4176
-1615.5547
-1615.49
-1615.1645
-1614.4675
-1616.9599
-1615.6628
-1733.5676
-1739.0092
-1731.4481
-1734.468
-1734.8948
-1734.8553
-1734.7031
-1734.4589
-1735.1921
-1734.2147
-1739.0092
-1734.4922
-1732.4256
-1735.0276
-1735.3234
-1735.2125
-1734.866
-1734.2914
-1736.6754
-1736.5779
-1731.4481
-1732.4256
-1729.3585
-1731.7681
-1732.0462
-1731.9305
-1731.4907
-1730.4951
-1732.7094
-1734.3549
-1734.468
-1735.0276
-1731.7681
-1734.1486
-1734.4276
-1734.3211
-1733.8704
-1732.7071
-1734.4327
-1735.21
-1734.8948
-1735.3234
-1732.0462
-1734.4276
-1734.71
-1734.6106
-1734.1737
-1733.0166
-1734.7202
-1735.3643
-1734.8553
-1735.2125
-1731.9305
-1734.3211
-1734.6106
-1734.5144
-1734.0824
-1732.9327
-1734.6453
-1735.2781
-1734.7031
-1734.866
-1731.4907
-1733.8704
-1734.1737
-1734.0824
-1733.6486
-1732.4934
-1734.1966
-1734.8421
-1734.4589
-1734.2914
-1730.4951
-1732.7071
-1733.0166
-1732.9327
-1732.4934
-1731.323
-1733.0164
-1733.8889
-1735.1921
-1736.6754
-1732.7094
-1734.4327
-1734.7202
-1734.6453
-1734.1966
-1733.0164
-1734.8418
-1737.3324
-1734.2147
-1736.5779
-1734.3549
-1735.21
-1735.3643
-1735.2781
-1734.8421
-1733.8889
-1737.3324
-1735.3167
-1841.3027
-1847.2742
-1838.9488
-1842.336
-1842.8144
-1842.7644
-1842.5687
-1842.232
-1843.123
-1842.0112
-1847.2742
-1842.3488
-1840.0753
-1842.9948
-1843.3272
-1843.1941
-1842.761
-1841.9964
-1844.8457
-1844.7118
-1838.9488
-1840.0753
-1836.6923
-1839.3989
-1839.7122
-1839.5752
-1839.0353
-1837.773
-1840.4263
-1842.2626
-1842.336
-1842.9948
-1839.3989
-1842.073
-1842.3877
-1842.2618
-1841.7102
-1840.2526
-1842.3473
-1843.2068
-1842.8144
-1843.3272
-1839.7122
-1842.3877
-1842.7063
-1842.5887
-1842.0533
-1840.602
-1842.6704
-1843.3773
-1842.7644
-1843.1941
-1839.5752
-1842.2618
-1842.5887
-1842.4751
-1841.9451
-1840.5019
-1842.5793
-1843.2706
-1842.5687
-1842.761
-1839.0353
-1841.7102
-1842.0533
-1841.9451
-1841.4129
-1839.9617
-1842.0246
-1842.7257
-1842.232
-1841.9964
-1837.773
-1840.2526
-1840.602
-1840.5019
-1839.9617
-1838.4886
-1840.5318
-1841.5151
-1843.123
-1844.8457
-1840.4263
-1842.3473
-1842.6704
-1842.5793
-1842.0246
-1840.5318
-1842.7337
-1845.8614
-1842.0112
-1844.7118
-1842.2626
-1843.2068
-1843.3773
-1843.2706
-1842.7257
-1841.5151
-1845.8614
-1843.1613
-1937.0941
-1943.5545
-1934.5423
-1938.2722
-1938.7985
-1938.7383
-1938.5004
-1938.0718
-1939.1042
-1937.8617
-1943.5545
-1938.2749
-1935.8234
-1939.0387
-1939.4049
-1939.2506
-1938.7337
-1937.7818
-1941.0559
-1940.8794
-1934.5423
-1935.8234
-1932.1609
-1935.1441
-1935.4902
-1935.3329
-1934.6967
-1933.1743
-1936.2258
-1938.2262
-1938.2722
-1939.0387
-1935.1441
-1938.0919
-1938.4396
-1938.2954
-1937.6468
-1935.9033
-1938.3308
-1939.2531
-1938.7985
-1939.4049
-1935.4902
-1938.4396
-1938.7918
-1938.6571
-1938.0271
-1936.2899
-1938.6871
-1939.4386
-1938.7383
-1939.2506
-1935.3329
-1938.2954
-1938.6571
-1938.5268
-1937.903
-1936.1745
-1938.5806
-1939.3122
-1938.5004
-1938.7337
-1934.6967
-1937.6468
-1938.0271
-1937.903
-1937.2762
-1935.5374
-1937.9238
-1938.6617
-1938.0718
-1937.7818
-1933.1743
-1935.9033
-1936.2899
-1936.1745
-1935.5374
-1933.7697
-1936.126
-1937.1978
-1939.1042
-1941.0559
-1936.2258
-1938.3308
-1938.6871
-1938.5806
-1937.9238
-1936.126
-1938.6645
-1942.3906
-1937.8617
-1940.8794
-1938.2262
-1939.2531
-1939.4386
-1939.3122
-1938.6617
-1937.1978
-1942.3906
-1939.0414
-2020.8688
-2027.7757
-2018.1556
-2022.2015
-2022.7717
-2022.7015
-2022.4227
-2021.9039
-2023.0616
-2021.6922
-2027.7757
-2022.1967
-2019.5952
-2023.0829
-2023.48
-2023.3052
-2022.7079
-2021.573
-2025.2312
-2025.0053
-2018.1556
-2019.5952
-2015.6894
-2018.9273
-2019.3034
-2019.1267
-2018.3987
-2016.6252
-2020.034
-2022.1709
-2022.2015
-2023.0829
-2018.9273
-2022.127
-2022.5051
-2022.3435
-2021.6026
-2019.5838
-2022.3081
-2023.2732
-2022.7717
-2023.48
-2019.3034
-2022.5051
-2022.8881
-2022.7372
-2022.017
-2020.0048
-2022.695
-2023.4726
-2022.7015
-2023.3052
-2019.1267
-2022.3435
-2022.7372
-2022.5912
-2021.8779
-2019.8749
-2022.574
-2023.3273
-2022.4227
-2022.7079
-2018.3987
-2021.6026
-2022.017
-2021.8779
-2021.1611
-2019.1455
-2021.8197
-2022.5755
-2021.9039
-2021.573
-2016.6252
-2019.5838
-2020.0048
-2019.8749
-2019.1455
-2017.094
-2019.7274
-2020.8654
-2023.0616
-2025.2312
-2020.034
-2022.3081
-2022.695
-2022.574
-2021.8197
-2019.7274
-2022.5636
-2026.8445
-2021.6922
-2025.0053
-2022.1709
-2023.2732
-2023.4726
-2023.3273
-2022.5755
-2020.8654
-2026.8445
-2022.883
-2092.6257
-2099.9354
-2089.787
-2094.1202
-2094.7299
-2094.6501
-2094.3321
-2093.7255
-2094.9927
-2093.5011
-2099.9354
-2094.1114
-2091.3869
-2095.1219
-2095.5467
-2095.3526
-2094.6788
-2093.367
-2097.3679
-2097.0863
-2089.787
-2091.3869
-2087.2735
-2090.7428
-2091.1458
-2090.9511
-2090.1362
-2088.1226
-2091.8478
-2094.0937
-2094.1202
-2095.1219
-2090.7428
-2094.1714
-2094.5768
-2094.3989
-2093.571
-2091.2899
-2094.2751
-2095.264
-2094.7299
-2095.5467
-2091.1458
-2094.5768
-2094.9877
-2094.8215
-2094.0164
-2091.7422
-2094.6899
-2095.4757
-2094.6501
-2095.3526
-2090.9511
-2094.3989
-2094.8215
-2094.6608
-2093.8632
-2091.5986
-2094.5553
-2095.3126
-2094.3321
-2094.6788
-2090.1362
-2093.571
-2094.0164
-2093.8632
-2093.0615
-2090.782
-2093.7087
-2094.4644
-2093.7255
-2093.367
-2088.1226
-2091.2899
-2091.7422
-2091.5986
-2090.782
-2088.46
-2091.3349
-2092.5177
-2094.9927
-2097.3679
-2091.8478
-2094.2751
-2094.6899
-2094.5553
-2093.7087
-2091.3349
-2094.4307
-2099.2198
-2093.5011
-2097.0863
-2094.0937
-2095.264
-2095.4757
-2095.3126
-2094.4644
-2092.5177
-2099.2198
-2094.6847
-2152.4277
-2160.0952
-2149.4983
-2154.0885
-2154.7334
-2154.6443
-2154.2891
-2153.598
-2154.9591
-2153.3508
-2160.0952
-2154.0799
-2151.2582
-2155.2141
-2155.6635
-2155.4512
-2154.7054
-2153.2244
-2157.5265
-2157.1836
-2149.4983
-2151.2582
-2146.9721
-2150.6483
-2151.0753
-2150.8637
-2149.9677
-2147.7268
-2151.7278
-2154.0558
-2154.0885
-2155.2141
-2150.6483
-2154.2815
-2154.7113
-2154.5183
-2153.6092
-2151.0807
-2154.2917
-2155.286
-2154.7334
-2155.6635
-2151.0753
-2154.7113
-2155.1469
-2154.9667
-2154.0823
-2151.5609
-2154.7315
-2155.5087
-2154.6443
-2155.4512
-2150.8637
-2154.5183
-2154.9667
-2154.7924
-2153.9161
-2151.4047
-2154.5841
-2155.3289
-2154.2891
-2154.7054
-2149.9677
-2153.6092
-2154.0823
-2153.9161
-2153.0351
-2150.5067
-2153.6511
-2154.3899
-2153.598
-2153.2244
-2147.7268
-2151.0807
-2151.5609
-2151.4047
-2150.5067
-2147.9293
-2151.011
-2152.2182
-2154.9591
-2157.5265
-2151.7278
-2154.2917
-2154.7315
-2154.5841
-2153.6511
-2151.011
-2154.3292
-2159.5779
-2153.3508
-2157.1836
-2154.0558
-2155.286
-2155.5087
-2155.3289
-2154.3899
-2152.2182
-2159.5779
-2154.5099
-2200.3947
-2208.3738
-2197.4078
-2202.2235
-2202.8989
-2202.8009
-2202.4109
-2201.6392
-2203.079
-2201.3605
-2208.3738
-2202.2196
-2199.3252
-2203.4745
-2203.9452
-2203.7162
-2202.9032
-2201.2619
-2205.8242
-2205.415
-2197.4078
-2199.3252
-2194.9007
-2198.758
-2199.206
-2198.979
-2198.008
-2195.5544
-2199.7911
-2202.175
-2202.2235
-2203.4745
-2198.758
-2202.5706
-2203.0216
-2202.8149
-2201.8309
-2199.0718
-2202.4741
-2203.4569
-2202.8989
-2203.9452
-2199.206
-2203.0216
-2203.4788
-2203.2857
-2202.3283
-2199.5766
-2202.9359
-2203.6891
-2202.8009
-2203.7162
-2198.979
-2202.8149
-2203.2857
-2203.099
-2202.1502
-2199.4089
-2202.7768
-2203.4938
-2202.4109
-2202.9032
-2198.008
-2201.8309
-2202.3283
-2202.1502
-2201.1961
-2198.4357
-2201.7639
-2202.4705
-2201.6392
-2201.2619
-2195.5544
-2199.0718
-2199.5766
-2199.4089
-2198.4357
-2195.6198
-2198.8748
-2200.0871
-2203.079
-2205.8242
-2199.7911
-2202.4741
-2202.9359
-2202.7768
-2201.7639
-2198.8748
-2202.379
-2208.0374
-2201.3605
-2205.415
-2202.175
-2203.4569
-2203.6891
-2203.4938
-2202.4705
-2200.0871
-2208.0374
-2202.4791
-2236.6962
-2244.9396
-2233.6834
-2238.6918
-2239.393
-2239.2869
-2238.8646
-2238.0168
-2239.5207
-2237.6993
-2244.9396
-2238.6976
-2235.7535
-2240.068
-2240.5566
-2240.3123
-2239.4377
-2237.6464
-2242.4281
-2241.9488
-2233.6834
-2235.7535
-2231.2238
-2235.236
-2235.7017
-2235.4608
-2234.4216
-2231.7714
-2236.2045
-2238.6194
-2238.6918
-2240.068
-2235.236
-2239.2018
-2239.6708
-2239.4518
-2238.3997
-2235.4284
-2238.9886
-2239.9445
-2239.393
-2240.5566
-2235.7017
-2239.6708
-2240.1463
-2239.9418
-2238.9179
-2235.9543
-2239.4693
-2240.1846
-2239.2869
-2240.3123
-2235.4608
-2239.4518
-2239.9418
-2239.744
-2238.7292
-2235.7762
-2239.2997
-2239.9752
-2238.8646
-2239.4377
-2234.4216
-2238.3997
-2238.9179
-2238.7292
-2237.7087
-2234.7346
-2238.2138
-2238.8744
-2238.0168
-2237.6464
-2231.7714
-2235.4284
-2235.9543
-2235.7762
-2234.7346
-2231.6991
-2235.0946
-2236.2942
-2239.5207
-2242.4281
-2236.2045
-2238.9886
-2239.4693
-2239.2997
-2238.2138
-2235.0946
-2238.7498
-2244.7672
-2237.6993
-2241.9488
-2238.6194
-2239.9445
-2240.1846
-2239.9752
-2238.8744
-2236.2942
-2244.7672
-2238.7627
-2261.5459
-2270.0055
-2258.5368
-2263.7043
-2264.4266
-2264.3129
-2263.861
-2262.9426
-2264.4964
-2262.5805
-2270.0055
-2263.7246
-2260.7527
-2265.2032
-2265.7063
-2265.4483
-2264.5181
-2262.5882
-2267.5493
-2266.9972
-2258.5368
-2260.7527
-2256.15
-2260.2899
-2260.7701
-2260.517
-2259.4166
-2256.5874
-2261.1787
-2263.601
-2263.7043
-2265.2032
-2260.2899
-2264.3821
-2264.866
-2264.6361
-2263.5232
-2260.3596
-2264.0455
-2264.9605
-2264.4266
-2265.7063
-2260.7701
-2264.866
-2265.3565
-2265.1419
-2264.0587
-2260.903
-2264.5418
-2265.207
-2264.3129
-2265.4483
-2260.517
-2264.6361
-2265.1419
-2264.9343
-2263.8607
-2260.7158
-2264.3628
-2264.9849
-2263.861
-2264.5181
-2259.4166
-2263.5232
-2264.0587
-2263.8607
-2262.7808
-2259.613
-2263.2114
-2263.8139
-2262.9426
-2262.5882
-2256.5874
-2260.3596
-2260.903
-2260.7158
-2259.613
-2256.3781
-2259.8827
-2261.0536
-2264.4964
-2267.5493
-2261.1787
-2264.0455
-2264.5418
-2264.3628
-2263.2114
-2259.8827
-2263.6552
-2269.9806
-2262.5805
-2266.9972
-2263.601
-2264.9605
-2265.207
-2264.9849
-2263.8139
-2261.0536
-2269.9806
-2263.5754
-2275.1961
-2283.8228
-2272.218
-2277.5104
-2278.2489
-2278.1284
-2277.65
-2276.6666
-2278.2569
-2276.2558
-2283.8228
-2277.5497
-2274.5704
-2279.1274
-2279.6417
-2279.3717
-2278.3921
-2276.3363
-2281.4375
-2280.8111
-2272.218
-2274.5704
-2269.9257
-2274.166
-2274.6574
-2274.3937
-2273.2396
-2270.2503
-2274.9628
-2277.3704
-2277.5104
-2279.1274
-2274.166
-2278.3574
-2278.8528
-2278.6137
-2277.4476
-2274.1127
-2277.8933
-2278.7555
-2278.2489
-2279.6417
-2274.6574
-2278.8528
-2279.3551
-2279.1319
-2277.9968
-2274.67
-2278.402
-2279.0066
-2278.1284
-2279.3717
-2274.3937
-2278.6137
-2279.1319
-2278.916
-2277.7907
-2274.475
-2278.2149
-2278.7735
-2277.65
-2278.3921
-2273.2396
-2277.4476
-2277.9968
-2277.7907
-2276.6588
-2273.3185
-2277.0058
-2277.5402
-2276.6666
-2276.3363
-2270.2503
-2274.1127
-2274.67
-2274.475
-2273.3185
-2269.9058
-2273.4898
-2274.6175
-2278.2569
-2281.4375
-2274.9628
-2277.8933
-2278.402
-2278.2149
-2277.0058
-2273.4898
-2277.3472
-2283.9296
-2276.2558
-2280.8111
-2277.3704
-2278.7555
-2279.0066
-2278.7735
-2277.5402
-2274.6175
-2283.9296
-2277.1705
-2277.9328
-2286.677
-2275.0107
-2280.3935
-2281.1433
-2281.0168
-2280.515
-2279.4732
-2281.087
-2279.0109
-2286.677
-2280.4561
-2277.4883
-2282.1221
-2282.6441
-2282.364
-2281.3415
-2279.1733
-2284.3766
-2283.6757
-2275.0107
-2277.4883
-2272.8316
-2277.1443
-2277.6438
-2277.3714
-2276.1714
-2273.0417
-2277.8397
-2280.2123
-2280.3935
-2282.1221
-2277.1443
-2281.4076
-2281.9113
-2281.6645
-2280.4531
-2276.9692
-2280.815
-2281.6139
-2281.1433
-2282.6441
-2277.6438
-2281.9113
-2282.422
-2282.1917
-2281.0124
-2277.5368
-2281.3328
-2281.8682
-2281.0168
-2282.364
-2277.3714
-2281.6645
-2282.1917
-2281.9689
-2280.7998
-2277.3353
-2281.1389
-2281.6255
-2280.515
-2281.3415
-2276.1714
-2280.4531
-2281.0124
-2280.7998
-2279.6235
-2276.1329
-2279.8803
-2280.3382
-2279.4732
-2279.1733
-2273.0417
-2276.9692
-2277.5368
-2277.3353
-2276.1329
-2272.565
-2276.2001
-2277.2721
-2281.087
-2284.3766
-2277.8397
-2280.815
-2281.3328
-2281.1389
-2279.8803
-2276.2001
-2280.112
-2286.9009
-2279.0109
-2283.6757
-2280.2123
-2281.6139
-2281.8682
-2281.6255
-2280.3382
-2277.2721
-2286.9009
-2279.8355
-2270.0721
-2278.8837
-2267.2286
-2272.667
-2273.4233
-2273.2916
-2272.7698
-2271.6764
-2273.3016
-2271.1614
-2278.8837
-2272.7567
-2269.8182
-2274.4988
-2275.0252
-2274.7369
-2273.6783
-2271.412
-2276.6806
-2275.9062
-2267.2286
-2269.8182
-2265.1779
-2269.5354
-2270.0396
-2269.7603
-2268.5224
-2265.2732
-2270.1224
-2272.4414
-2272.667
-2274.4988
-2269.5354
-2273.843
-2274.3516
-2274.0989
-2272.8503
-2269.2405
-2273.1235
-2273.8506
-2273.4233
-2275.0252
-2270.0396
-2274.3516
-2274.8676
-2274.6317
-2273.4161
-2269.8147
-2273.647
-2274.1064
-2273.2916
-2274.7369
-2269.7603
-2274.0989
-2274.6317
-2274.4036
-2273.1983
-2269.608
-2273.4476
-2273.8559
-2272.7698
-2273.6783
-2268.5224
-2272.8503
-2273.4161
-2273.1983
-2271.9856
-2268.3678
-2272.1479
-2272.5231
-2271.6764
-2271.412
-2265.2732
-2269.2405
-2269.8147
-2269.608
-2268.3678
-2264.6685
-2268.3279
-2269.3335
-2273.3016
-2276.6806
-2270.1224
-2273.1235
-2273.647
-2273.4476
-2272.1479
-2268.3279
-2272.2653
-2279.211
-2271.1614
-2275.9062
-2272.4414
-2273.8506
-2274.1064
-2273.8559
-2272.5231
-2269.3335
-2279.211
-2271.8878
-2251.9567
-2260.7855
-2249.2119
-2254.6712
-2255.4292
-2255.2933
-2254.7549
-2253.6171
-2255.2423
-2253.0498
-2260.7855
-2254.7912
-2251.8983
-2256.596
-2257.1234
-2256.8288
-2255.7412
-2253.3919
-2258.6904
-2257.8449
-2249.2119
-2251.8983
-2247.3017
-2251.6762
-2252.182
-2251.8976
-2250.6301
-2247.2828
-2252.1506
-2254.3993
-2254.6712
-2256.596
-2251.6762
-2256.0008
-2256.5112
-2256.2542
-2254.9767
-2251.2647
-2255.1584
-2255.8072
-2255.4292
-2257.1234
-2252.182
-2256.5112
-2257.029
-2256.7892
-2255.5453
-2251.8419
-2255.6843
-2256.0629
-2255.2933
-2256.8288
-2251.8976
-2256.2542
-2256.7892
-2256.5572
-2255.3239
-2251.6315
-2255.4808
-2255.8062
-2254.7549
-2255.7412
-2250.6301
-2254.9767
-2255.5453
-2255.3239
-2254.0828
-2250.3617
-2254.1485
-2254.4367
-2253.6171
-2253.3919
-2247.2828
-2251.2647
-2251.8419
-2251.6315
-2250.3617
-2246.5554
-2250.2139
-2251.1446
-2255.2423
-2258.6904
-2252.1506
-2255.1584
-2255.6843
-2255.4808
-2254.1485
-2250.2139
-2254.1498
-2261.2036
-2253.0498
-2257.8449
-2254.3993
-2255.8072
-2256.0629
-2255.8062
-2254.4367
-2251.1446
-2261.2036
-2253.6715
-2223.9532
-2232.7488
-2221.3246
-2226.7704
-2227.5254
-2227.3861
-2226.8348
-2225.6601
-2227.2745
-2225.0424
-2232.7488
-2226.9233
-2224.091
-2228.7762
-2229.3015
-2229.0025
-2227.8931
-2225.4763
-2230.7707
-2229.8578
-2221.3246
-2224.091
-2219.5639
-2223.928
-2224.4323
-2224.1448
-2222.8559
-2219.4326
-2224.2878
-2226.4514
-2226.7704
-2228.7762
-2223.928
-2228.2424
-2228.7514
-2228.4919
-2227.1938
-2223.4041
-2227.2834
-2227.8493
-2227.5254
-2229.3015
-2224.4323
-2228.7514
-2229.2679
-2229.0258
-2227.7618
-2223.9806
-2227.8085
-2228.1033
-2227.3861
-2229.0025
-2224.1448
-2228.4919
-2229.0258
-2228.7915
-2227.5382
-2223.768
-2227.6023
-2227.842
-2226.8348
-2227.8931
-2222.8559
-2227.1938
-2227.7618
-2227.5382
-2226.2768
-2222.4769
-2226.2463
-2226.4448
-2225.6601
-2225.4763
-2219.4326
-2223.4041
-2223.9806
-2223.768
-2222.4769
-2218.5884
-2222.2228
-2223.0716
-2227.2745
-2230.7707
-2224.2878
-2227.2834
-2227.8085
-2227.6023
-2226.2463
-2222.2228
-2226.1317
-2233.2465
-2225.0424
-2229.8578
-2226.4514
-2227.8493
-2228.1033
-2227.842
-2226.4448
-2223.0716
-2233.2465
-2225.5546
-2186.4495
-2195.1618
-2183.9522
-2189.3506
-2190.0979
-2189.9562
-2189.3956
-2188.1919
-2189.7856
-2187.5269
-2195.1618
-2189.5381
-2186.7803
-2191.424
-2191.944
-2191.6426
-2190.5186
-2188.0505
-2193.3082
-2192.3328
-2183.9522
-2186.7803
-2182.3472
-2186.6738
-2187.1736
-2186.8848
-2185.583
-2182.1061
-2186.9194
-2188.985
-2189.3506
-2191.424
-2186.6738
-2190.9513
-2191.4559
-2191.1955
-2189.8853
-2186.0425
-2189.8842
-2190.364
-2190.0979
-2191.944
-2187.1736
-2191.4559
-2191.9679
-2191.725
-2190.4492
-2186.6148
-2190.4052
-2190.6148
-2189.9562
-2191.6426
-2186.8848
-2191.1955
-2191.725
-2191.49
-2190.2248
-2186.4013
-2190.1976
-2190.3508
-2189.3956
-2190.5186
-2185.583
-2189.8853
-2190.4492
-2190.2248
-2188.9514
-2185.0974
-2188.8266
-2188.9349
-2188.1919
-2188.0505
-2182.1061
-2186.0425
-2186.6148
-2186.4013
-2185.0974
-2181.1522
-2184.7405
-2185.5027
-2189.7856
-2193.3082
-2186.9194
-2189.8842
-2190.4052
-2190.1976
-2188.8266
-2184.7405
-2188.599
-2195.7291
-2187.5269
-2192.3328
-2188.985
-2190.364
-2190.6148
-2190.3508
-2188.9349
-2185.5027
-2195.7291
-2187.9268
-2139.8534
-2148.4327
-2137.5
-2142.8177
-2143.5528
-2143.4098
-2142.8435
-2141.6188
-2143.1826
-2140.911
-2148.4327
-2143.0409
-2140.3702
-2144.944
-2145.4555
-2145.1538
-2144.0225
-2141.5193
-2146.7096
-2145.6778
-2137.5
-2140.3702
-2136.0542
-2140.3168
-2140.8091
-2140.5209
-2139.2145
-2135.7067
-2140.4504
-2142.4071
-2142.8177
-2144.944
-2140.3168
-2144.5312
-2145.0284
-2144.7688
-2143.4549
-2139.5839
-2143.3662
-2143.7588
-2143.5528
-2145.4555
-2140.8091
-2145.0284
-2145.5329
-2145.2908
-2144.0112
-2140.1486
-2143.88
-2144.0048
-2143.4098
-2145.1538
-2140.5209
-2144.7688
-2145.2908
-2145.0566
-2143.7877
-2139.9356
-2143.6724
-2143.7397
-2142.8435
-2144.0225
-2139.2145
-2143.4549
-2144.0112
-2143.7877
-2142.5104
-2138.6272
-2142.2953
-2142.3143
-2141.6188
-2141.5193
-2135.7067
-2139.5839
-2140.1486
-2139.9356
-2138.6272
-2134.6507
-2138.173
-2138.8454
-2143.1826
-2146.7096
-2140.4504
-2143.3662
-2143.88
-2143.6724
-2142.2953
-2138.173
-2141.9592
-2149.0607
-2140.911
-2145.6778
-2142.4071
-2143.7588
-2144.0048
-2143.7397
-2142.3143
-2138.8454
-2149.0607
-2141.1972
-2084.5908
-2092.9881
-2082.3915
-2087.5961
-2088.3147
-2088.1712
-2087.603
-2086.3654
-2087.8909
-2085.6204
-2092.9881
-2087.8554
-2085.283
-2089.7593
-2090.2594
-2089.9593
-2088.8281
-2086.3064
-2091.4
-2090.319
-2082.3915
-2085.283
-2081.1059
-2085.2787
-2085.7606
-2085.475
-2084.1723
-2080.6562
-2085.3045
-2087.1431
-2087.5961
-2089.7593
-2085.2787
-2089.4045
-2089.8913
-2089.6343
-2088.325
-2084.4507
-2088.1535
-2088.4592
-2088.3147
-2090.2594
-2085.7606
-2089.8913
-2090.3854
-2090.1457
-2088.8706
-2085.0044
-2088.6569
-2088.699
-2088.1712
-2089.9593
-2085.475
-2089.6343
-2090.1457
-2089.9139
-2088.6492
-2084.7933
-2088.4506
-2088.4345
-2087.603
-2088.8281
-2084.1723
-2088.325
-2088.8706
-2088.6492
-2087.3762
-2083.4888
-2087.0762
-2087.0088
-2086.3654
-2086.3064
-2080.6562
-2084.4507
-2085.0044
-2084.7933
-2083.4888
-2079.5066
-2082.9443
-2083.5256
-2087.8909
-2091.4
-2085.3045
-2088.1535
-2088.6569
-2088.4506
-2087.0762
-2082.9443
-2086.6382
-2093.6693
-2085.6204
-2090.319
-2087.1431
-2088.4592
-2088.699
-2088.4345
-2087.0088
-2083.5256
-2093.6693
-2085.7933
-2021.1047
-2029.2719
-2019.0674
-2024.1276
-2024.8254
-2024.6825
-2024.1161
-2022.8738
-2024.3532
-2022.0983
-2029.2719
-2024.4225
-2021.9588
-2026.3107
-2026.7966
-2026.5
-2025.3761
-2022.8525
-2027.822
-2026.7
-2019.0674
-2021.9588
-2017.9406
-2021.9988
-2022.4675
-2022.1862
-2020.8956
-2017.3939
-2021.9225
-2023.6356
-2024.1276
-2026.3107
-2021.9988
-2026.0114
-2026.485
-2026.2322
-2024.9358
-2021.0829
-2024.6876
-2024.9083
-2024.8254
-2026.7966
-2022.4675
-2026.485
-2026.9657
-2026.73
-2025.4673
-2021.6223
-2025.1776
-2025.1404
-2024.6825
-2026.5
-2022.1862
-2026.2322
-2026.73
-2026.502
-2025.2496
-2021.4145
-2024.974
-2024.8783
-2024.1161
-2025.3761
-2020.8956
-2024.9358
-2025.4673
-2025.2496
-2023.9888
-2020.122
-2023.6109
-2023.4612
-2022.8738
-2022.8525
-2017.3939
-2021.0829
-2021.6223
-2021.4145
-2020.122
-2016.1596
-2019.4958
-2019.9863
-2024.3532
-2027.822
-2021.9225
-2024.6876
-2025.1776
-2024.974
-2023.6109
-2019.4958
-2023.0792
-2029.9999
-2022.0983
-2026.7
-2023.6356
-2024.9083
-2025.1404
-2024.8783
-2023.4612
-2019.9863
-2029.9999
-2022.1596
-1949.8544
-1957.7447
-1947.985
-1952.8705
-1953.5435
-1953.4022
-1952.8412
-1951.6024
-1953.0288
-1950.8041
-1957.7447
-1953.1997
-1950.854
-1955.0557
-1955.5247
-1955.2337
-1954.1242
-1951.6152
-1956.4349
-1955.2809
-1947.985
-1950.854
-1947.0135
-1950.9331
-1951.386
-1951.1109
-1949.8403
-1946.3754
-1950.7618
-1952.344
-1952.8705
-1955.0557
-1950.9331
-1954.8087
-1955.2665
-1955.0195
-1953.744
-1949.9369
-1953.4264
-1953.5655
-1953.5435
-1955.5247
-1951.386
-1955.2665
-1955.7312
-1955.5009
-1954.2585
-1950.459
-1953.9003
-1953.7886
-1953.4022
-1955.2337
-1951.1109
-1955.0195
-1955.5009
-1955.2782
-1954.0459
-1950.2558
-1953.7006
-1953.5305
-1952.8412
-1954.1242
-1949.8403
-1953.744
-1954.2585
-1954.0459
-1952.8051
-1948.9834
-1952.3573
-1952.1309
-1951.6024
-1951.6152
-1946.3754
-1949.9369
-1950.459
-1950.2558
-1948.9834
-1945.0659
-1948.2853
-1948.6867
-1953.0288
-1956.4349
-1950.7618
-1953.4264
-1953.9003
-1953.7006
-1952.3573
-1948.2853
-1951.7416
-1958.5142
-1950.8041
-1955.2809
-1952.344
-1953.5655
-1953.7886
-1953.5305
-1952.1309
-1948.6867
-1958.5142
-1950.7571
-1871.3148
-1878.8829
-1869.6171
-1874.299
-1874.9434
-1874.8047
-1874.2527
-1873.0257
-1874.3926
-1872.2128
-1878.8829
-1874.6607
-1872.4411
-1876.4681
-1876.9175
-1876.634
-1875.546
-1873.068
-1877.7138
-1876.5378
-1869.6171
-1872.4411
-1868.7956
-1872.5537
-1872.9882
-1872.721
-1871.4785
-1868.0723
-1872.2958
-1873.7432
-1874.299
-1876.4681
-1872.5537
-1876.2697
-1876.7091
-1876.4694
-1875.2228
-1871.4855
-1874.8443
-1874.9063
-1874.9434
-1876.9175
-1872.9882
-1876.7091
-1877.1552
-1876.9318
-1875.7173
-1871.9872
-1875.2991
-1875.119
-1874.8047
-1876.634
-1872.721
-1876.4694
-1876.9318
-1876.7158
-1875.5111
-1871.7899
-1875.1047
-1874.8666
-1874.2527
-1875.546
-1871.4785
-1875.2228
-1875.7173
-1875.5111
-1874.2981
-1870.5454
-1873.7896
-1873.4933
-1873.0257
-1873.068
-1868.0723
-1871.4855
-1871.9872
-1871.7899
-1870.5454
-1866.6975
-1869.7862
-1870.1018
-1874.3926
-1877.7138
-1872.2958
-1874.8443
-1875.2991
-1875.1047
-1873.7896
-1869.7862
-1873.1005
-1879.6896
-1872.2128
-1876.5378
-1873.7432
-1874.9063
-1875.119
-1874.8666
-1873.4933
-1870.1018
-1879.6896
-1872.062
-1785.9763
-1793.1784
-1784.452
-1788.9029
-1789.515
-1789.3799
-1788.8405
-1787.6332
-1788.9351
-1786.8148
-1793.1784
-1789.2945
-1787.2081
-1791.0371
-1791.4645
-1791.1903
-1790.1306
-1787.6996
-1792.1495
-1790.962
-1784.452
-1787.2081
-1783.7734
-1787.3482
-1787.7621
-1787.5045
-1786.2976
-1782.9717
-1787.0134
-1788.3235
-1788.9029
-1791.0371
-1787.3482
-1790.8832
-1791.3018
-1791.071
-1789.8608
-1786.2166
-1789.4306
-1789.4214
-1789.515
-1791.4645
-1787.7621
-1791.3018
-1791.7268
-1791.5118
-1790.3326
-1786.6951
-1789.8638
-1789.6225
-1789.3799
-1791.1903
-1787.5045
-1791.071
-1791.5118
-1791.3038
-1790.1341
-1786.5049
-1789.6759
-1789.3773
-1788.8405
-1790.1306
-1786.2976
-1789.8608
-1790.3326
-1790.1341
-1788.9562
-1785.2961
-1788.397
-1788.0388
-1787.6332
-1787.6996
-1782.9717
-1786.2166
-1786.6951
-1786.5049
-1785.2961
-1781.5417
-1784.4875
-1784.7217
-1788.9351
-1792.1495
-1787.0134
-1789.4306
-1789.8638
-1789.6759
-1788.397
-1784.4875
-1787.6464
-1794.0189
-1786.8148
-1790.962
-1788.3235
-1789.4214
-1789.6225
-1789.3773
-1788.0388
-1784.7217
-1794.0189
-1786.5661
-1694.3437
-1701.1382
-1692.9929
-1697.187
-1697.7635
-1697.6329
-1697.1095
-1695.9299
-1697.1618
-1695.1156
-1701.1382
-1697.6053
-1695.6583
-1699.2673
-1699.6705
-1699.4073
-1698.3826
-1696.0144
-1700.2478
-1699.0599
-1692.9929
-1695.6583
-1692.4487
-1695.8198
-1696.2108
-1695.9645
-1694.8005
-1691.5758
-1695.4184
-1696.5904
-1697.187
-1699.2673
-1695.8198
-1699.1536
-1699.5492
-1699.3287
-1698.1622
-1694.6337
-1697.6904
-1697.6166
-1697.7635
-1699.6705
-1696.2108
-1699.5492
-1699.9508
-1699.7454
-1698.6087
-1695.0863
-1698.0995
-1697.805
-1697.6329
-1699.4073
-1695.9645
-1699.3287
-1699.7454
-1699.5468
-1698.4191
-1694.9045
-1697.9191
-1697.5685
-1697.1095
-1698.3826
-1694.8005
-1698.1622
-1698.6087
-1698.4191
-1697.2835
-1693.7386
-1696.6844
-1696.2731
-1695.9299
-1696.0144
-1691.5758
-1694.6337
-1695.0863
-1694.9045
-1693.7386
-1690.1011
-1692.8931
-1693.0514
-1697.1618
-1700.2478