/*--------------------------------*- C++ -*----------------------------------*\
| =========                 |                                                 |
| \\      /  F ield         | OpenFOAM: The Open Source CFD Toolbox           |
|  \\    /   O peration     | Version:  v2106                                 |
|   \\  /    A nd           | Website:  www.openfoam.com                      |
|    \\/     M anipulation  |                                                 |
\*---------------------------------------------------------------------------*/
FoamFile
{
    version     2.0;
    format      ascii;
    arch        "LSB;label=32;scalar=64";
    class       volScalarField;
    location    "20";
    object      T;
}
// * * * * * * * * * * * * * * * * * * * * * * * * * * * * * * * * * * * * * //

dimensions      [0 0 0 1 0 0 0];

internalField   nonuniform List<scalar> 
4000
(
275.84513
275.84514
275.8451
275.8451
275.84511
275.84511
275.84512
275.84512
275.84512
275.84513
275.84514
275.84511
275.84509
275.8451
275.8451
275.84511
275.84511
275.84511
275.84512
275.84512
275.8451
275.84509
275.84507
275.84508
275.84508
275.84509
275.84509
275.84509
275.8451
275.84511
275.8451
275.8451
275.84508
275.84508
275.84509
275.84509
275.84509
275.84509
275.8451
275.84511
275.84511
275.8451
275.84508
275.84509
275.84509
275.84509
275.8451
275.8451
275.8451
275.84511
275.84511
275.84511
275.84509
275.84509
275.84509
275.8451
275.8451
275.8451
275.8451
275.84511
275.84512
275.84511
275.84509
275.84509
275.8451
275.8451
275.8451
275.8451
275.8451
275.84511
275.84512
275.84511
275.84509
275.84509
275.8451
275.8451
275.8451
275.8451
275.8451
275.84511
275.84512
275.84512
275.8451
275.8451
275.8451
275.8451
275.8451
275.8451
275.84511
275.84512
275.84513
275.84512
275.84511
275.84511
275.84511
275.84511
275.84511
275.84511
275.84512
275.84513
286.94175
286.94177
286.94164
286.94165
286.94167
286.94169
286.9417
286.94172
286.94174
286.94175
286.94177
286.9417
286.94161
286.94163
286.94165
286.94166
286.94168
286.9417
286.94172
286.94174
286.94164
286.94161
286.94153
286.94155
286.94157
286.94159
286.9416
286.94161
286.94165
286.94169
286.94165
286.94163
286.94155
286.94157
286.94159
286.9416
286.94161
286.94162
286.94165
286.94168
286.94167
286.94165
286.94157
286.94159
286.94161
286.94162
286.94162
286.94163
286.94166
286.94169
286.94169
286.94166
286.94159
286.9416
286.94162
286.94163
286.94163
286.94164
286.94166
286.94169
286.9417
286.94168
286.9416
286.94161
286.94162
286.94163
286.94164
286.94164
286.94167
286.94169
286.94172
286.9417
286.94161
286.94162
286.94163
286.94164
286.94164
286.94165
286.94167
286.9417
286.94174
286.94172
286.94165
286.94165
286.94166
286.94166
286.94167
286.94167
286.9417
286.94173
286.94175
286.94174
286.94169
286.94168
286.94169
286.94169
286.94169
286.9417
286.94173
286.94177
297.91952
297.91955
297.91936
297.91938
297.91941
297.91944
297.91946
297.91949
297.91953
297.91954
297.91955
297.91943
297.91931
297.91934
297.91937
297.91939
297.91942
297.91945
297.91951
297.91954
297.91936
297.91931
297.9192
297.91923
297.91926
297.91928
297.9193
297.91933
297.9194
297.91946
297.91938
297.91934
297.91923
297.91926
297.91929
297.91931
297.91932
297.91934
297.9194
297.91946
297.91941
297.91937
297.91926
297.91929
297.91932
297.91934
297.91934
297.91936
297.91941
297.91946
297.91944
297.91939
297.91928
297.91931
297.91934
297.91935
297.91935
297.91937
297.91942
297.91947
297.91946
297.91942
297.9193
297.91932
297.91934
297.91935
297.91936
297.91937
297.91942
297.91947
297.91949
297.91945
297.91933
297.91934
297.91936
297.91937
297.91937
297.91938
297.91944
297.91949
297.91953
297.91951
297.9194
297.9194
297.91941
297.91942
297.91942
297.91944
297.9195
297.91955
297.91954
297.91954
297.91946
297.91946
297.91946
297.91947
297.91947
297.91949
297.91955
297.9196
308.76315
308.76318
308.76295
308.76297
308.76302
308.76306
308.76309
308.76313
308.7632
308.76321
308.76318
308.76304
308.76289
308.76292
308.76297
308.763
308.76303
308.76307
308.76317
308.76322
308.76295
308.76289
308.76275
308.7628
308.76284
308.76287
308.76289
308.76292
308.76303
308.76312
308.76297
308.76292
308.7628
308.76284
308.76288
308.7629
308.76291
308.76294
308.76304
308.76311
308.76302
308.76297
308.76284
308.76288
308.76292
308.76294
308.76294
308.76296
308.76305
308.76312
308.76306
308.763
308.76287
308.7629
308.76294
308.76295
308.76295
308.76297
308.76306
308.76312
308.76309
308.76303
308.76289
308.76291
308.76294
308.76295
308.76295
308.76297
308.76306
308.76313
308.76313
308.76307
308.76292
308.76294
308.76296
308.76297
308.76297
308.76299
308.76308
308.76316
308.7632
308.76317
308.76303
308.76304
308.76305
308.76306
308.76306
308.76308
308.76318
308.76327
308.76321
308.76322
308.76312
308.76311
308.76312
308.76312
308.76313
308.76316
308.76327
308.76331
319.45844
319.45846
319.4582
319.45824
319.45829
319.45833
319.45837
319.45843
319.45851
319.45854
319.45846
319.45831
319.45813
319.45818
319.45823
319.45827
319.4583
319.45836
319.45849
319.45856
319.4582
319.45813
319.45798
319.45803
319.45809
319.45812
319.45814
319.45818
319.45833
319.45844
319.45824
319.45818
319.45803
319.45809
319.45814
319.45816
319.45817
319.4582
319.45833
319.45843
319.45829
319.45823
319.45809
319.45814
319.45818
319.4582
319.4582
319.45822
319.45834
319.45844
319.45833
319.45827
319.45812
319.45816
319.4582
319.45822
319.45821
319.45823
319.45835
319.45843
319.45837
319.4583
319.45814
319.45817
319.4582
319.45821
319.45821
319.45822
319.45834
319.45843
319.45843
319.45836
319.45818
319.4582
319.45822
319.45823
319.45822
319.45824
319.45837
319.45847
319.45851
319.45849
319.45833
319.45833
319.45834
319.45835
319.45834
319.45837
319.45851
319.45863
319.45854
319.45856
319.45844
319.45843
319.45844
319.45843
319.45843
319.45847
319.45863
319.45868
329.99227
329.9923
329.992
329.99205
329.99212
329.99217
329.9922
329.99226
329.99237
329.9924
329.9923
329.99212
329.99193
329.99199
329.99206
329.9921
329.99213
329.99219
329.99235
329.99243
329.992
329.99193
329.99176
329.99183
329.99189
329.99192
329.99194
329.99198
329.99216
329.9923
329.99205
329.99199
329.99183
329.99189
329.99195
329.99198
329.99198
329.99201
329.99217
329.99229
329.99212
329.99206
329.99189
329.99195
329.992
329.99202
329.99202
329.99203
329.99218
329.99229
329.99217
329.9921
329.99192
329.99198
329.99202
329.99203
329.99202
329.99203
329.99218
329.99229
329.9922
329.99213
329.99194
329.99198
329.99202
329.99202
329.99201
329.99202
329.99217
329.99228
329.99226
329.99219
329.99198
329.99201
329.99203
329.99203
329.99202
329.99204
329.99219
329.99232
329.99237
329.99235
329.99216
329.99217
329.99218
329.99218
329.99217
329.99219
329.99237
329.99252
329.9924
329.99243
329.9923
329.99229
329.99229
329.99229
329.99228
329.99232
329.99252
329.99257
340.35269
340.35272
340.3524
340.35246
340.35254
340.35259
340.35263
340.35269
340.35281
340.35285
340.35272
340.35253
340.35232
340.3524
340.35247
340.35251
340.35254
340.3526
340.35279
340.35288
340.3524
340.35232
340.35214
340.35222
340.35229
340.35232
340.35233
340.35238
340.35259
340.35274
340.35246
340.3524
340.35222
340.3523
340.35236
340.35239
340.35238
340.3524
340.35259
340.35273
340.35254
340.35247
340.35229
340.35236
340.35242
340.35244
340.35242
340.35243
340.3526
340.35273
340.35259
340.35251
340.35232
340.35239
340.35244
340.35245
340.35243
340.35243
340.35259
340.35272
340.35263
340.35254
340.35233
340.35238
340.35242
340.35243
340.3524
340.3524
340.35257
340.3527
340.35269
340.3526
340.35238
340.3524
340.35243
340.35243
340.3524
340.35241
340.3526
340.35274
340.35281
340.35279
340.35259
340.35259
340.3526
340.35259
340.35257
340.3526
340.35281
340.35299
340.35285
340.35288
340.35274
340.35273
340.35273
340.35272
340.3527
340.35274
340.35299
340.35304
350.52891
350.52895
350.52861
350.52868
350.52877
350.52882
350.52885
350.52892
350.52905
350.52909
350.52895
350.52875
350.52853
350.52862
350.5287
350.52874
350.52876
350.52882
350.52903
350.52913
350.52861
350.52853
350.52834
350.52843
350.52851
350.52854
350.52854
350.52858
350.52881
350.52898
350.52868
350.52862
350.52843
350.52852
350.52859
350.52861
350.5286
350.52861
350.52881
350.52896
350.52877
350.5287
350.52851
350.52859
350.52865
350.52866
350.52864
350.52864
350.52883
350.52896
350.52882
350.52874
350.52854
350.52861
350.52866
350.52867
350.52864
350.52863
350.52881
350.52894
350.52885
350.52876
350.52854
350.5286
350.52864
350.52864
350.5286
350.52859
350.52878
350.52892
350.52892
350.52882
350.52858
350.52861
350.52864
350.52863
350.52859
350.52859
350.5288
350.52896
350.52905
350.52903
350.52881
350.52881
350.52883
350.52881
350.52878
350.5288
350.52903
350.52924
350.52909
350.52913
350.52898
350.52896
350.52896
350.52894
350.52892
350.52896
350.52924
350.52929
360.51135
360.5114
360.51104
360.51112
360.51121
360.51127
360.5113
360.51136
360.5115
360.51154
360.5114
360.51119
360.51096
360.51106
360.51115
360.51119
360.5112
360.51126
360.51149
360.51159
360.51104
360.51096
360.51077
360.51087
360.51095
360.51098
360.51097
360.511
360.51125
360.51143
360.51112
360.51106
360.51087
360.51096
360.51104
360.51106
360.51103
360.51103
360.51125
360.51141
360.51121
360.51115
360.51095
360.51104
360.51111
360.51111
360.51108
360.51106
360.51126
360.51141
360.51127
360.51119
360.51098
360.51106
360.51111
360.51111
360.51106
360.51104
360.51124
360.51138
360.5113
360.5112
360.51097
360.51103
360.51108
360.51106
360.51101
360.51099
360.51119
360.51134
360.51136
360.51126
360.511
360.51103
360.51106
360.51104
360.51099
360.51098
360.5112
360.51138
360.5115
360.51149
360.51125
360.51125
360.51126
360.51124
360.51119
360.5112
360.51146
360.51169
360.51154
360.51159
360.51143
360.51141
360.51141
360.51138
360.51134
360.51138
360.51169
360.51174
370.29162
370.29167
370.2913
370.29139
370.29149
370.29154
370.29157
370.29162
370.29177
370.29181
370.29167
370.29146
370.29122
370.29133
370.29143
370.29147
370.29147
370.29152
370.29176
370.29187
370.2913
370.29122
370.29102
370.29113
370.29122
370.29125
370.29123
370.29125
370.29151
370.2917
370.29139
370.29133
370.29113
370.29124
370.29132
370.29134
370.2913
370.29128
370.29151
370.29168
370.29149
370.29143
370.29122
370.29132
370.29139
370.29139
370.29134
370.29131
370.29152
370.29167
370.29154
370.29147
370.29125
370.29134
370.29139
370.29138
370.29132
370.29128
370.29149
370.29163
370.29157
370.29147
370.29123
370.2913
370.29134
370.29132
370.29126
370.29122
370.29143
370.29158
370.29162
370.29152
370.29125
370.29128
370.29131
370.29128
370.29122
370.29119
370.29142
370.29161
370.29177
370.29176
370.29151
370.29151
370.29152
370.29149
370.29143
370.29142
370.2917
370.29195
370.29181
370.29187
370.2917
370.29168
370.29167
370.29163
370.29158
370.29161
370.29195
370.29199
379.86252
379.86258
379.8622
379.8623
379.86241
379.86246
379.86247
379.86252
379.86268
379.86271
379.86258
379.86237
379.86213
379.86225
379.86235
379.86238
379.86238
379.86241
379.86266
379.86277
379.8622
379.86213
379.86192
379.86205
379.86214
379.86216
379.86213
379.86213
379.8624
379.8626
379.8623
379.86225
379.86205
379.86217
379.86225
379.86226
379.8622
379.86217
379.86241
379.86258
379.86241
379.86235
379.86214
379.86225
379.86232
379.86232
379.86225
379.8622
379.86241
379.86256
379.86246
379.86238
379.86216
379.86226
379.86232
379.8623
379.86222
379.86216
379.86237
379.86252
379.86247
379.86238
379.86213
379.8622
379.86225
379.86222
379.86213
379.86208
379.86229
379.86245
379.86252
379.86241
379.86213
379.86217
379.8622
379.86216
379.86208
379.86203
379.86227
379.86247
379.86268
379.86266
379.8624
379.86241
379.86241
379.86237
379.86229
379.86227
379.86256
379.86283
379.86271
379.86277
379.8626
379.86258
379.86256
379.86252
379.86245
379.86247
379.86283
379.86286
389.21806
389.21813
389.21774
389.21786
389.21797
389.21801
389.21802
389.21806
389.21821
389.21824
389.21813
389.21791
389.21768
389.21781
389.21791
389.21794
389.21793
389.21795
389.2182
389.21831
389.21774
389.21768
389.21747
389.21761
389.2177
389.21772
389.21767
389.21766
389.21794
389.21813
389.21786
389.21781
389.21761
389.21774
389.21782
389.21782
389.21775
389.2177
389.21794
389.21811
389.21797
389.21791
389.2177
389.21782
389.21789
389.21788
389.21779
389.21772
389.21794
389.21809
389.21801
389.21794
389.21772
389.21782
389.21788
389.21785
389.21775
389.21768
389.21789
389.21803
389.21802
389.21793
389.21767
389.21775
389.21779
389.21775
389.21765
389.21758
389.21779
389.21795
389.21806
389.21795
389.21766
389.2177
389.21772
389.21768
389.21758
389.21751
389.21776
389.21795
389.21821
389.2182
389.21794
389.21794
389.21794
389.21789
389.21779
389.21776
389.21806
389.21833
389.21824
389.21831
389.21813
389.21811
389.21809
389.21803
389.21795
389.21795
389.21833
389.21836
398.35343
398.35351
398.35312
398.35324
398.35335
398.3534
398.35339
398.35342
398.35357
398.35359
398.35351
398.35329
398.35306
398.3532
398.3533
398.35333
398.3533
398.35331
398.35357
398.35367
398.35312
398.35306
398.35285
398.353
398.3531
398.3531
398.35304
398.35302
398.35329
398.35349
398.35324
398.3532
398.353
398.35314
398.35322
398.35321
398.35313
398.35306
398.3533
398.35347
398.35335
398.3533
398.3531
398.35322
398.3533
398.35327
398.35317
398.35308
398.35329
398.35344
398.3534
398.35333
398.3531
398.35321
398.35327
398.35324
398.35312
398.35302
398.35323
398.35337
398.35339
398.3533
398.35304
398.35313
398.35317
398.35312
398.353
398.3529
398.35311
398.35327
398.35342
398.35331
398.35302
398.35306
398.35308
398.35302
398.3529
398.35282
398.35306
398.35326
398.35357
398.35357
398.35329
398.3533
398.35329
398.35323
398.35311
398.35306
398.35337
398.35365
398.35359
398.35367
398.35349
398.35347
398.35344
398.35337
398.35327
398.35326
398.35365
398.35367
407.26498
407.26506
407.26468
407.26481
407.26492
407.26496
407.26495
407.26496
407.2651
407.26512
407.26506
407.26486
407.26462
407.26477
407.26488
407.2649
407.26486
407.26485
407.26511
407.26521
407.26468
407.26462
407.26442
407.26458
407.26467
407.26467
407.2646
407.26456
407.26483
407.26502
407.26481
407.26477
407.26458
407.26472
407.26481
407.26479
407.26469
407.2646
407.26483
407.265
407.26492
407.26488
407.26467
407.26481
407.26488
407.26485
407.26473
407.26462
407.26482
407.26497
407.26496
407.2649
407.26467
407.26479
407.26485
407.2648
407.26467
407.26455
407.26475
407.26488
407.26495
407.26486
407.2646
407.26469
407.26473
407.26467
407.26453
407.26441
407.26461
407.26476
407.26496
407.26485
407.26456
407.2646
407.26462
407.26455
407.26441
407.26431
407.26454
407.26474
407.2651
407.26511
407.26483
407.26483
407.26482
407.26475
407.26461
407.26454
407.26485
407.26513
407.26512
407.26521
407.26502
407.265
407.26497
407.26488
407.26476
407.26474
407.26513
407.26515
415.95021
415.9503
415.94991
415.95005
415.95017
415.9502
415.95018
415.95018
415.95031
415.95032
415.9503
415.9501
415.94987
415.95003
415.95014
415.95015
415.95009
415.95007
415.95032
415.95042
415.94991
415.94987
415.94968
415.94984
415.94994
415.94993
415.94984
415.94977
415.95004
415.95023
415.95005
415.95003
415.94984
415.94999
415.95008
415.95005
415.94993
415.94982
415.95005
415.9502
415.95017
415.95014
415.94994
415.95008
415.95015
415.95011
415.94997
415.94983
415.95003
415.95017
415.9502
415.95015
415.94993
415.95005
415.95011
415.95005
415.94989
415.94975
415.94994
415.95007
415.95018
415.95009
415.94984
415.94993
415.94997
415.94989
415.94974
415.94959
415.94979
415.94993
415.95018
415.95007
415.94977
415.94982
415.94983
415.94975
415.94959
415.94947
415.9497
415.94989
415.95031
415.95032
415.95004
415.95005
415.95003
415.94994
415.94979
415.9497
415.95
415.95029
415.95032
415.95042
415.95023
415.9502
415.95017
415.95007
415.94993
415.94989
415.95029
415.95029
424.40773
424.40783
424.40745
424.4076
424.40772
424.40774
424.40771
424.40769
424.40782
424.40782
424.40783
424.40764
424.40742
424.40758
424.40769
424.4077
424.40763
424.40759
424.40783
424.40792
424.40745
424.40742
424.40723
424.4074
424.4075
424.40748
424.40737
424.40729
424.40755
424.40773
424.4076
424.40758
424.4074
424.40756
424.40764
424.40761
424.40747
424.40734
424.40755
424.4077
424.40772
424.40769
424.4075
424.40764
424.40771
424.40766
424.4075
424.40735
424.40753
424.40766
424.40774
424.4077
424.40748
424.40761
424.40766
424.40759
424.40742
424.40725
424.40743
424.40755
424.40771
424.40763
424.40737
424.40747
424.4075
424.40742
424.40724
424.40708
424.40726
424.4074
424.40769
424.40759
424.40729
424.40734
424.40735
424.40725
424.40708
424.40693
424.40715
424.40734
424.40782
424.40783
424.40755
424.40755
424.40753
424.40743
424.40726
424.40715
424.40745
424.40774
424.40782
424.40792
424.40773
424.4077
424.40766
424.40755
424.4074
424.40734
424.40774
424.40773
432.63727
432.63737
432.637
432.63715
432.63727
432.63729
432.63724
432.63721
432.63733
432.63732
432.63737
432.63719
432.63697
432.63714
432.63725
432.63725
432.63717
432.63711
432.63734
432.63742
432.637
432.63697
432.63679
432.63697
432.63706
432.63704
432.63692
432.63682
432.63706
432.63724
432.63715
432.63714
432.63697
432.63713
432.63722
432.63717
432.63702
432.63687
432.63707
432.63721
432.63727
432.63725
432.63706
432.63722
432.63728
432.63722
432.63704
432.63687
432.63704
432.63716
432.63729
432.63725
432.63704
432.63717
432.63722
432.63714
432.63695
432.63676
432.63693
432.63704
432.63724
432.63717
432.63692
432.63702
432.63704
432.63695
432.63675
432.63657
432.63674
432.63687
432.63721
432.63711
432.63682
432.63687
432.63687
432.63676
432.63657
432.6364
432.63661
432.63679
432.63733
432.63734
432.63706
432.63707
432.63704
432.63693
432.63674
432.63661
432.6369
432.63718
432.63732
432.63742
432.63724
432.63721
432.63716
432.63704
432.63687
432.63679
432.63718
432.63717
440.63958
440.63969
440.63933
440.63949
440.63961
440.63962
440.63955
440.63951
440.63961
440.6396
440.63969
440.63952
440.63931
440.63949
440.63959
440.63958
440.63949
440.63942
440.63963
440.6397
440.63933
440.63931
440.63914
440.63932
440.63941
440.63938
440.63924
440.63912
440.63936
440.63952
440.63949
440.63949
440.63932
440.63949
440.63957
440.63951
440.63934
440.63918
440.63936
440.63949
440.63961
440.63959
440.63941
440.63957
440.63963
440.63956
440.63936
440.63917
440.63933
440.63943
440.63962
440.63958
440.63938
440.63951
440.63956
440.63947
440.63926
440.63905
440.6392
440.6393
440.63955
440.63949
440.63924
440.63934
440.63936
440.63926
440.63905
440.63884
440.639
440.63911
440.63951
440.63942
440.63912
440.63918
440.63917
440.63905
440.63884
440.63866
440.63885
440.63902
440.63961
440.63963
440.63936
440.63936
440.63933
440.6392
440.639
440.63885
440.63913
440.63941
440.6396
440.6397
440.63952
440.63949
440.63943
440.6393
440.63911
440.63902
440.63941
440.63938
448.41647
448.41659
448.41624
448.4164
448.41651
448.41652
448.41644
448.41638
448.41647
448.41645
448.41659
448.41642
448.41623
448.41641
448.41651
448.41649
448.41638
448.41629
448.4165
448.41656
448.41624
448.41623
448.41607
448.41625
448.41634
448.41629
448.41614
448.41601
448.41623
448.41638
448.4164
448.41641
448.41625
448.41642
448.41649
448.41643
448.41624
448.41606
448.41623
448.41635
448.41651
448.41651
448.41634
448.41649
448.41655
448.41647
448.41626
448.41605
448.41619
448.41628
448.41652
448.41649
448.41629
448.41643
448.41647
448.41637
448.41615
448.41592
448.41605
448.41614
448.41644
448.41638
448.41614
448.41624
448.41626
448.41615
448.41592
448.41569
448.41584
448.41594
448.41638
448.41629
448.41601
448.41606
448.41605
448.41592
448.41569
448.41549
448.41567
448.41583
448.41647
448.4165
448.41623
448.41623
448.41619
448.41605
448.41584
448.41567
448.41593
448.4162
448.41645
448.41656
448.41638
448.41635
448.41628
448.41614
448.41594
448.41583
448.4162
448.41616
455.97072
455.97085
455.97051
455.97067
455.97078
455.97078
455.97069
455.97061
455.97069
455.97066
455.97085
455.97069
455.97051
455.97069
455.97079
455.97076
455.97064
455.97054
455.97072
455.97077
455.97051
455.97051
455.97036
455.97054
455.97062
455.97057
455.97041
455.97026
455.97046
455.9706
455.97067
455.97069
455.97054
455.97071
455.97078
455.97071
455.97051
455.97031
455.97046
455.97056
455.97078
455.97079
455.97062
455.97078
455.97084
455.97074
455.97052
455.97029
455.97041
455.9705
455.97078
455.97076
455.97057
455.97071
455.97074
455.97063
455.9704
455.97015
455.97027
455.97034
455.97069
455.97064
455.97041
455.97051
455.97052
455.9704
455.97015
455.96991
455.97004
455.97013
455.97061
455.97054
455.97026
455.97031
455.97029
455.97015
455.96991
455.96969
455.96985
455.97
455.97069
455.97072
455.97046
455.97046
455.97041
455.97027
455.97004
455.96985
455.9701
455.97036
455.97066
455.97077
455.9706
455.97056
455.9705
455.97034
455.97013
455.97
455.97036
455.97031
463.30608
463.30621
463.30589
463.30605
463.30616
463.30614
463.30604
463.30595
463.30602
463.30598
463.30621
463.30607
463.30589
463.30607
463.30617
463.30613
463.306
463.30588
463.30605
463.30609
463.30589
463.30589
463.30575
463.30593
463.30601
463.30595
463.30578
463.30561
463.3058
463.30592
463.30605
463.30607
463.30593
463.3061
463.30617
463.30609
463.30588
463.30566
463.30579
463.30589
463.30616
463.30617
463.30601
463.30617
463.30622
463.30612
463.30588
463.30564
463.30574
463.30581
463.30614
463.30613
463.30595
463.30609
463.30612
463.306
463.30575
463.30549
463.30559
463.30565
463.30604
463.306
463.30578
463.30588
463.30588
463.30575
463.30549
463.30524
463.30534
463.30542
463.30595
463.30588
463.30561
463.30566
463.30564
463.30549
463.30524
463.30499
463.30514
463.30528
463.30602
463.30605
463.3058
463.30579
463.30574
463.30559
463.30534
463.30514
463.30537
463.30563
463.30598
463.30609
463.30592
463.30589
463.30581
463.30565
463.30542
463.30528
463.30563
463.30557
470.42719
470.42733
470.42702
470.42718
470.42728
470.42726
470.42715
470.42705
470.4271
470.42705
470.42733
470.42719
470.42703
470.42721
470.4273
470.42726
470.42711
470.42698
470.42714
470.42717
470.42702
470.42703
470.4269
470.42708
470.42716
470.42709
470.4269
470.42672
470.42689
470.427
470.42718
470.42721
470.42708
470.42725
470.42731
470.42722
470.427
470.42676
470.42688
470.42696
470.42728
470.4273
470.42716
470.42731
470.42735
470.42724
470.427
470.42674
470.42683
470.42688
470.42726
470.42726
470.42709
470.42722
470.42724
470.42712
470.42686
470.42658
470.42666
470.42671
470.42715
470.42711
470.4269
470.427
470.427
470.42686
470.42659
470.42632
470.42641
470.42647
470.42705
470.42698
470.42672
470.42676
470.42674
470.42658
470.42632
470.42606
470.42619
470.42632
470.4271
470.42714
470.42689
470.42688
470.42683
470.42666
470.42641
470.42619
470.42641
470.42665
470.42705
470.42717
470.427
470.42696
470.42688
470.42671
470.42647
470.42632
470.42665
470.42658
477.33958
477.33972
477.33943
477.33959
477.33968
477.33965
477.33953
477.33942
477.33946
477.3394
477.33972
477.3396
477.33945
477.33962
477.33971
477.33966
477.3395
477.33936
477.3395
477.33952
477.33943
477.33945
477.33933
477.3395
477.33957
477.3395
477.3393
477.33911
477.33926
477.33936
477.33959
477.33962
477.3395
477.33967
477.33972
477.33962
477.33939
477.33915
477.33925
477.33932
477.33968
477.33971
477.33957
477.33972
477.33976
477.33964
477.33939
477.33911
477.33919
477.33923
477.33965
477.33966
477.3395
477.33962
477.33964
477.33951
477.33924
477.33895
477.33902
477.33905
477.33953
477.3395
477.3393
477.33939
477.33939
477.33924
477.33896
477.33868
477.33875
477.3388
477.33942
477.33936
477.33911
477.33915
477.33911
477.33895
477.33868
477.33841
477.33852
477.33863
477.33946
477.3395
477.33926
477.33925
477.33919
477.33902
477.33875
477.33852
477.33872
477.33895
477.3394
477.33952
477.33936
477.33932
477.33923
477.33905
477.3388
477.33863
477.33895
477.33887
484.04959
484.04973
484.04945
484.04961
484.0497
484.04966
484.04954
484.04941
484.04943
484.04937
484.04973
484.04962
484.04948
484.04965
484.04973
484.04967
484.04951
484.04935
484.04948
484.04948
484.04945
484.04948
484.04937
484.04954
484.04961
484.04952
484.04932
484.04911
484.04924
484.04933
484.04961
484.04965
484.04954
484.0497
484.04975
484.04964
484.04941
484.04915
484.04923
484.04929
484.0497
484.04973
484.04961
484.04975
484.04978
484.04966
484.0494
484.04911
484.04917
484.0492
484.04966
484.04967
484.04952
484.04964
484.04966
484.04952
484.04924
484.04894
484.04899
484.04902
484.04954
484.04951
484.04932
484.04941
484.0494
484.04924
484.04896
484.04866
484.04872
484.04876
484.04941
484.04935
484.04911
484.04915
484.04911
484.04894
484.04866
484.04839
484.04848
484.04858
484.04943
484.04948
484.04924
484.04923
484.04917
484.04899
484.04872
484.04848
484.04866
484.04888
484.04937
484.04948
484.04933
484.04929
484.0492
484.04902
484.04876
484.04858
484.04888
484.04879
490.56434
490.56448
490.56422
490.56438
490.56446
490.56441
490.56428
490.56414
490.56416
490.56409
490.56448
490.56438
490.56426
490.56442
490.56449
490.56443
490.56426
490.56409
490.5642
490.5642
490.56422
490.56426
490.56416
490.56432
490.56438
490.56429
490.56408
490.56386
490.56398
490.56405
490.56438
490.56442
490.56432
490.56447
490.56451
490.5644
490.56416
490.5639
490.56396
490.56401
490.56446
490.56449
490.56438
490.56451
490.56454
490.56441
490.56414
490.56385
490.56389
490.56391
490.56441
490.56443
490.56429
490.5644
490.56441
490.56426
490.56398
490.56368
490.56371
490.56373
490.56428
490.56426
490.56408
490.56416
490.56414
490.56398
490.5637
490.5634
490.56344
490.56347
490.56414
490.56409
490.56386
490.5639
490.56385
490.56368
490.5634
490.56311
490.56319
490.56328
490.56416
490.5642
490.56398
490.56396
490.56389
490.56371
490.56344
490.56319
490.56335
490.56356
490.56409
490.5642
490.56405
490.56401
490.56391
490.56373
490.56347
490.56328
490.56356
490.56346
496.89169
496.89183
496.89159
496.89174
496.89181
496.89176
496.89162
496.89147
496.89148
496.8914
496.89183
496.89174
496.89163
496.89179
496.89185
496.89178
496.8916
496.89143
496.89152
496.89151
496.89159
496.89163
496.89154
496.89169
496.89174
496.89165
496.89143
496.89121
496.89131
496.89137
496.89174
496.89179
496.89169
496.89184
496.89187
496.89176
496.89151
496.89124
496.89129
496.89133
496.89181
496.89185
496.89174
496.89187
496.89189
496.89176
496.89149
496.89119
496.89122
496.89123
496.89176
496.89178
496.89165
496.89176
496.89176
496.89161
496.89133
496.89102
496.89104
496.89104
496.89162
496.8916
496.89143
496.89151
496.89149
496.89133
496.89104
496.89073
496.89076
496.89078
496.89147
496.89143
496.89121
496.89124
496.89119
496.89102
496.89073
496.89044
496.89051
496.89058
496.89148
496.89152
496.89131
496.89129
496.89122
496.89104
496.89076
496.89051
496.89065
496.89084
496.8914
496.89151
496.89137
496.89133
496.89123
496.89104
496.89078
496.89058
496.89084
496.89074
503.04018
503.04031
503.04009
503.04023
503.0403
503.04024
503.04009
503.03994
503.03993
503.03986
503.04031
503.04024
503.04014
503.04028
503.04034
503.04026
503.04008
503.0399
503.03998
503.03996
503.04009
503.04014
503.04005
503.0402
503.04024
503.04014
503.03993
503.0397
503.03978
503.03983
503.04023
503.04028
503.0402
503.04034
503.04036
503.04024
503.04
503.03973
503.03976
503.03978
503.0403
503.04034
503.04024
503.04036
503.04037
503.04024
503.03997
503.03967
503.03968
503.03968
503.04024
503.04026
503.04014
503.04024
503.04024
503.04008
503.0398
503.0395
503.0395
503.03949
503.04009
503.04008
503.03993
503.04
503.03997
503.0398
503.03952
503.03921
503.03922
503.03923
503.03994
503.0399
503.0397
503.03973
503.03967
503.0395
503.03921
503.03892
503.03897
503.03903
503.03993
503.03998
503.03978
503.03976
503.03968
503.0395
503.03922
503.03897
503.0391
503.03927
503.03986
503.03996
503.03983
503.03978
503.03968
503.03949
503.03923
503.03903
503.03927
503.03917
509.01897
509.0191
509.0189
509.01903
509.01909
509.01902
509.01888
509.01872
509.0187
509.01862
509.0191
509.01904
509.01895
509.01908
509.01913
509.01905
509.01887
509.01868
509.01874
509.01872
509.0189
509.01895
509.01887
509.01901
509.01904
509.01894
509.01872
509.01849
509.01856
509.0186
509.01903
509.01908
509.01901
509.01913
509.01915
509.01903
509.01879
509.01851
509.01854
509.01855
509.01909
509.01913
509.01904
509.01915
509.01916
509.01902
509.01875
509.01846
509.01846
509.01845
509.01902
509.01905
509.01894
509.01903
509.01902
509.01887
509.01859
509.01828
509.01827
509.01826
509.01888
509.01887
509.01872
509.01879
509.01875
509.01859
509.0183
509.018
509.018
509.018
509.01872
509.01868
509.01849
509.01851
509.01846
509.01828
509.018
509.01771
509.01774
509.0178
509.0187
509.01874
509.01856
509.01854
509.01846
509.01827
509.018
509.01774
509.01786
509.01802
509.01862
509.01872
509.0186
509.01855
509.01845
509.01826
509.018
509.0178
509.01802
509.01791
514.83782
514.83794
514.83776
514.83788
514.83793
514.83786
514.83771
514.83756
514.83753
514.83745
514.83794
514.83789
514.83781
514.83794
514.83797
514.83789
514.83771
514.83752
514.83757
514.83754
514.83776
514.83781
514.83775
514.83787
514.83789
514.83779
514.83758
514.83735
514.8374
514.83742
514.83788
514.83794
514.83787
514.83798
514.83799
514.83787
514.83763
514.83736
514.83737
514.83737
514.83793
514.83797
514.83789
514.83799
514.83799
514.83785
514.83759
514.8373
514.83729
514.83727
514.83786
514.83789
514.83779
514.83787
514.83785
514.8377
514.83743
514.83713
514.83711
514.83709
514.83771
514.83771
514.83758
514.83763
514.83759
514.83743
514.83715
514.83685
514.83684
514.83683
514.83756
514.83752
514.83735
514.83736
514.8373
514.83713
514.83685
514.83657
514.83659
514.83663
514.83753
514.83757
514.8374
514.83737
514.83729
514.83711
514.83684
514.83659
514.83668
514.83683
514.83745
514.83754
514.83742
514.83737
514.83727
514.83709
514.83683
514.83663
514.83683
514.83672
520.507
520.50712
520.50696
520.50707
520.5071
520.50703
520.50688
520.50672
520.50669
520.50661
520.50712
520.50708
520.507
520.50712
520.50715
520.50706
520.50688
520.5067
520.50673
520.50669
520.50696
520.507
520.50695
520.50706
520.50708
520.50697
520.50676
520.50653
520.50657
520.50659
520.50707
520.50712
520.50706
520.50716
520.50716
520.50704
520.5068
520.50654
520.50654
520.50654
520.5071
520.50715
520.50708
520.50716
520.50716
520.50702
520.50676
520.50648