/*--------------------------------*- C++ -*----------------------------------*\
| =========                 |                                                 |
| \\      /  F ield         | OpenFOAM: The Open Source CFD Toolbox           |
|  \\    /   O peration     | Version:  v2106                                 |
|   \\  /    A nd           | Website:  www.openfoam.com                      |
|    \\/     M anipulation  |                                                 |
\*---------------------------------------------------------------------------*/
FoamFile
{
    version     2.0;
    format      ascii;
    arch        "LSB;label=32;scalar=64";
    class       volVectorField;
    location    "65";
    object      flux;
}
// * * * * * * * * * * * * * * * * * * * * * * * * * * * * * * * * * * * * * //

dimensions      [0 1 -1 1 0 0 0];

internalField   nonuniform List<vector> 
4000
(
(-5.6107073e-07 -5.6107073e-07 0.72053667)
(-1.2328374e-06 -4.9746963e-07 0.72053253)
(-6.2092852e-07 -4.8272914e-07 0.72053054)
(-3.3657891e-07 -4.7700648e-07 0.72052935)
(-1.0777115e-07 -4.7364969e-07 0.72052879)
(9.1291596e-08 -4.7057573e-07 0.72052879)
(2.6119064e-07 -4.6638762e-07 0.72052929)
(3.8529312e-07 -4.5868736e-07 0.72053019)
(4.1163271e-07 -4.4134667e-07 0.72053135)
(1.302328e-07 -3.9916726e-07 0.72053246)
(-4.9746963e-07 -1.2328374e-06 0.72053253)
(-1.115325e-06 -1.115325e-06 0.72052889)
(-5.902338e-07 -1.078429e-06 0.72052701)
(-3.2295973e-07 -1.060221e-06 0.72052587)
(-9.8125022e-08 -1.0478156e-06 0.72052534)
(1.0218469e-07 -1.0360843e-06 0.72052536)
(2.7902318e-07 -1.0211718e-06 0.72052589)
(4.2285455e-07 -9.9730377e-07 0.72052685)
(5.0091288e-07 -9.5279997e-07 0.72052816)
(1.7241221e-07 -8.6656183e-07 0.72052965)
(-4.8272913e-07 -6.2092851e-07 0.72053054)
(-1.078429e-06 -5.9023379e-07 0.72052701)
(-5.6582451e-07 -5.658245e-07 0.7205252)
(-3.0596557e-07 -5.4751157e-07 0.72052411)
(-8.3634466e-08 -5.321975e-07 0.72052362)
(1.1793538e-07 -5.1714545e-07 0.72052368)
(2.9997119e-07 -4.9975015e-07 0.72052425)
(4.53665e-07 -4.7711503e-07 0.72052528)
(5.4237465e-07 -4.4690165e-07 0.72052669)
(1.8772489e-07 -4.1387266e-07 0.7205283)
(-4.7700648e-07 -3.3657891e-07 0.72052935)
(-1.060221e-06 -3.2295973e-07 0.72052587)
(-5.4751157e-07 -3.0596556e-07 0.72052411)
(-2.8933273e-07 -2.8933273e-07 0.72052306)
(-6.7758907e-08 -2.7346322e-07 0.72052261)
(1.3463205e-07 -2.5759321e-07 0.72052271)
(3.1905361e-07 -2.4066244e-07 0.72052333)
(4.7570305e-07 -2.2194444e-07 0.72052441)
(5.6415525e-07 -2.0230026e-07 0.72052588)
(1.9443154e-07 -1.8680179e-07 0.72052755)
(-4.7364967e-07 -1.0777115e-07 0.72052879)
(-1.0478156e-06 -9.8125025e-08 0.72052534)
(-5.3219751e-07 -8.3634474e-08 0.72052362)
(-2.7346323e-07 -6.7758906e-08 0.72052261)
(-5.1894955e-08 -5.1894955e-08 0.7205222)
(1.5073616e-07 -3.6213667e-08 0.72052235)
(3.3561997e-07 -2.0508907e-08 0.72052301)
(4.9202718e-07 -4.9549524e-09 0.72052413)
(5.775173e-07 9.0623097e-09 0.72052565)
(1.980572e-07 1.8241134e-08 0.72052734)
(-4.7057573e-07 9.1291607e-08 0.72052879)
(-1.0360843e-06 1.0218468e-07 0.72052536)
(-5.1714545e-07 1.1793537e-07 0.72052368)
(-2.5759321e-07 1.3463205e-07 0.72052271)
(-3.6213668e-08 1.5073616e-07 0.72052235)
(1.660181e-07 1.6601809e-07 0.72052254)
(3.5031232e-07 1.8060075e-07 0.72052323)
(5.0527427e-07 1.942502e-07 0.7205244)
(5.8735133e-07 2.0579489e-07 0.72052594)
(2.0055075e-07 2.1287133e-07 0.72052766)
(-4.6638763e-07 2.6119063e-07 0.72052929)
(-1.0211719e-06 2.7902318e-07 0.72052589)
(-4.9975014e-07 2.999712e-07 0.72052425)
(-2.4066243e-07 3.190536e-07 0.72052333)
(-2.0508914e-08 3.3561996e-07 0.72052301)
(1.8060074e-07 3.5031233e-07 0.72052323)
(3.6385208e-07 3.6385208e-07 0.72052397)
(5.1722133e-07 3.7649251e-07 0.72052517)
(5.9613844e-07 3.87525e-07 0.72052674)
(2.0277483e-07 3.9471995e-07 0.72052847)
(-4.5868737e-07 3.8529312e-07 0.72053019)
(-9.9730377e-07 4.2285456e-07 0.72052685)
(-4.7711503e-07 4.5366501e-07 0.72052528)
(-2.2194445e-07 4.7570305e-07 0.72052441)
(-4.9549462e-09 4.9202718e-07 0.72052413)
(1.9425021e-07 5.0527426e-07 0.7205244)
(3.764925e-07 5.1722133e-07 0.72052517)
(5.2894718e-07 5.289472e-07 0.7205264)
(6.0557878e-07 5.4056928e-07 0.720528)
(2.0534739e-07 5.4981946e-07 0.72052976)
(-4.4134667e-07 4.1163272e-07 0.72053135)
(-9.5279997e-07 5.0091288e-07 0.72052816)
(-4.4690165e-07 5.4237466e-07 0.72052669)
(-2.0230026e-07 5.6415525e-07 0.72052588)
(9.0622978e-09 5.7751731e-07 0.72052565)
(2.0579489e-07 5.8735132e-07 0.72052594)
(3.8752502e-07 5.9613843e-07 0.72052674)
(5.4056927e-07 6.0557879e-07 0.720528)
(6.170107e-07 6.1701071e-07 0.72052964)
(2.0894162e-07 6.2952602e-07 0.72053142)
(-3.9916726e-07 1.302328e-07 0.72053246)
(-8.6656183e-07 1.7241221e-07 0.72052965)
(-4.1387265e-07 1.8772489e-07 0.7205283)
(-1.868018e-07 1.9443154e-07 0.72052755)
(1.8241126e-08 1.980572e-07 0.72052734)
(2.1287133e-07 2.0055076e-07 0.72052766)
(3.9471996e-07 2.0277483e-07 0.72052847)
(5.4981946e-07 2.0534739e-07 0.72052976)
(6.2952602e-07 2.0894162e-07 0.72053142)
(2.1369093e-07 2.1369093e-07 0.72053326)
(-2.4645039e-06 -2.4645039e-06 1.071837)
(-5.5241129e-06 -2.1545686e-06 1.0718318)
(-2.9277518e-06 -2.0858815e-06 1.0718291)
(-1.6136639e-06 -2.0588171e-06 1.0718275)
(-5.0911447e-07 -2.0425125e-06 1.0718267)
(4.6733274e-07 -2.0274295e-06 1.0718267)
(1.3119425e-06 -2.0067496e-06 1.0718275)
(1.9539865e-06 -1.9680505e-06 1.0718289)
(2.1763636e-06 -1.875909e-06 1.0718309)
(7.1409443e-07 -1.6105538e-06 1.071833)
(-2.1545686e-06 -5.5241129e-06 1.0718318)
(-4.9561793e-06 -4.9561793e-06 1.0718273)
(-2.7841245e-06 -4.7838484e-06 1.0718248)
(-1.5486104e-06 -4.6969176e-06 1.0718232)
(-4.6203309e-07 -4.6365074e-06 1.0718224)
(5.2097708e-07 -4.5789569e-06 1.0718225)
(1.4010109e-06 -4.5054783e-06 1.0718233)
(2.1502474e-06 -4.3866008e-06 1.0718249)
(2.7126087e-06 -4.1565608e-06 1.071827)
(9.7944963e-07 -3.6481469e-06 1.0718298)
(-2.0858815e-06 -2.9277518e-06 1.0718291)
(-4.7838484e-06 -2.7841245e-06 1.0718248)
(-2.6684901e-06 -2.6684901e-06 1.0718223)
(-1.466323e-06 -2.5798483e-06 1.0718208)
(-3.9115375e-07 -2.5050075e-06 1.0718201)
(5.9836185e-07 -2.4311528e-06 1.0718202)
(1.5042985e-06 -2.3456163e-06 1.0718211)
(2.302904e-06 -2.2340344e-06 1.0718228)
(2.9148175e-06 -2.0845445e-06 1.0718251)
(1.053037e-06 -1.9250256e-06 1.071828)
(-2.0588171e-06 -1.6136639e-06 1.0718275)
(-4.6969176e-06 -1.5486104e-06 1.0718232)
(-2.5798483e-06 -1.4663229e-06 1.0718208)
(-1.3851278e-06 -1.3851278e-06 1.0718193)
(-3.1333764e-07 -1.3073635e-06 1.0718187)
(6.803683e-07 -1.2294469e-06 1.0718189)
(1.5981293e-06 -1.1462315e-06 1.0718199)
(2.4113192e-06 -1.0541675e-06 1.0718216)
(3.0216175e-06 -9.5754282e-07 1.071824)
(1.0857956e-06 -8.8169224e-07 1.071827)
(-2.0425125e-06 -5.0911447e-07 1.0718267)
(-4.6365074e-06 -4.620331e-07 1.0718224)
(-2.5050075e-06 -3.9115375e-07 1.0718201)
(-1.3073635e-06 -3.1333764e-07 1.0718187)
(-2.3547282e-07 -2.3547282e-07 1.0718182)
(7.5949392e-07 -1.5842721e-07 1.0718184)
(1.6795779e-06 -8.1202119e-08 1.0718195)
(2.4915927e-06 -4.6652228e-09 1.0718212)
(3.0872928e-06 6.4337985e-08 1.0718237)
(1.1036041e-06 1.0950818e-07 1.0718268)
(-2.0274295e-06 4.6733275e-07 1.0718267)
(-4.5789569e-06 5.2097707e-07 1.0718225)
(-2.4311528e-06 5.9836184e-07 1.0718202)
(-1.2294469e-06 6.803683e-07 1.0718189)
(-1.5842722e-07 7.5949392e-07 1.0718184)
(8.34639e-07 8.34639e-07 1.0718187)
(1.7518913e-06 9.0643508e-07 1.0718198)
(2.5568593e-06 9.7376628e-07 1.0718217)
(3.1357909e-06 1.0308817e-06 1.0718242)
(1.115909e-06 1.0660275e-06 1.0718273)
(-2.0067496e-06 1.3119425e-06 1.0718275)
(-4.5054783e-06 1.4010109e-06 1.0718233)
(-2.3456162e-06 1.5042985e-06 1.0718211)
(-1.1462315e-06 1.5981293e-06 1.0718199)
(-8.1202124e-08 1.6795779e-06 1.0718195)
(9.0643508e-07 1.7518913e-06 1.0718198)
(1.8187051e-06 1.8187051e-06 1.071821)
(2.6160393e-06 1.8814189e-06 1.0718229)
(3.179554e-06 1.9367465e-06 1.0718254)
(1.1270346e-06 1.9735379e-06 1.0718286)
(-1.9680505e-06 1.9539865e-06 1.0718289)
(-4.3866009e-06 2.1502475e-06 1.0718249)
(-2.2340344e-06 2.302904e-06 1.0718228)
(-1.0541675e-06 2.4113192e-06 1.0718216)
(-4.6652178e-09 2.4915927e-06 1.0718212)
(9.7376627e-07 2.5568593e-06 1.0718217)
(1.8814189e-06 2.6160393e-06 1.0718229)
(2.6749007e-06 2.6749007e-06 1.0718248)
(3.2279099e-06 2.7350492e-06 1.0718274)
(1.1404366e-06 2.786215e-06 1.0718306)
(-1.875909e-06 2.1763636e-06 1.0718309)
(-4.1565608e-06 2.7126087e-06 1.071827)
(-2.0845445e-06 2.9148175e-06 1.0718251)
(-9.575428e-07 3.0216174e-06 1.071824)
(6.433799e-08 3.0872928e-06 1.0718237)
(1.0308817e-06 3.1357909e-06 1.0718242)
(1.9367465e-06 3.179554e-06 1.0718254)
(2.7350492e-06 3.2279099e-06 1.0718274)
(3.2908684e-06 3.2908684e-06 1.07183)
(1.1611451e-06 3.3747294e-06 1.0718333)
(-1.6105538e-06 7.1409442e-07 1.071833)
(-3.6481469e-06 9.7944964e-07 1.0718298)
(-1.9250256e-06 1.053037e-06 1.071828)
(-8.8169225e-07 1.0857956e-06 1.071827)
(1.0950819e-07 1.1036041e-06 1.0718268)
(1.0660275e-06 1.115909e-06 1.0718273)
(1.9735379e-06 1.1270346e-06 1.0718286)
(2.786215e-06 1.1404366e-06 1.0718306)
(3.3747294e-06 1.1611451e-06 1.0718333)
(1.196344e-06 1.196344e-06 1.0718367)
(-4.0014115e-06 -4.0014115e-06 1.0719172)
(-9.0877555e-06 -3.4986859e-06 1.0719128)
(-4.9722207e-06 -3.385459e-06 1.0719104)
(-2.7576535e-06 -3.3393196e-06 1.0719089)
(-8.2541679e-07 -3.3107305e-06 1.0719083)
(9.2006978e-07 -3.283861e-06 1.0719084)
(2.4693775e-06 -3.2467018e-06 1.0719093)
(3.7350462e-06 -3.1765771e-06 1.0719108)
(4.4713911e-06 -3.0077335e-06 1.071913)
(1.5542048e-06 -2.5150621e-06 1.0719156)
(-3.4986859e-06 -9.0877555e-06 1.0719128)
(-8.1638269e-06 -8.1638269e-06 1.0719089)
(-4.7331712e-06 -7.876639e-06 1.0719067)
(-2.6455608e-06 -7.7270149e-06 1.0719052)
(-7.4222893e-07 -7.620667e-06 1.0719046)
(1.0161129e-06 -7.5181051e-06 1.0719048)
(2.6303033e-06 -7.3862922e-06 1.0719057)
(4.0934987e-06 -7.1718255e-06 1.0719074)
(5.4636635e-06 -6.7537593e-06 1.0719098)
(2.0468762e-06 -5.8216094e-06 1.0719131)
(-3.385459e-06 -4.9722207e-06 1.0719104)
(-7.876639e-06 -4.7331712e-06 1.0719067)
(-4.5354087e-06 -4.5354087e-06 1.0719045)
(-2.5016814e-06 -4.380553e-06 1.0719032)
(-6.1650702e-07 -4.2480468e-06 1.0719026)
(1.1544445e-06 -4.1163011e-06 1.0719028)
(2.8156571e-06 -3.9631085e-06 1.0719038)
(4.3675791e-06 -3.7628781e-06 1.0719055)
(5.8216073e-06 -3.4949449e-06 1.0719081)
(2.1756382e-06 -3.2150117e-06 1.0719115)
(-3.3393196e-06 -2.7576535e-06 1.0719089)
(-7.7270149e-06 -2.6455608e-06 1.0719052)
(-4.380553e-06 -2.5016814e-06 1.0719032)
(-2.3581989e-06 -2.3581989e-06 1.0719019)
(-4.7797697e-07 -2.2198466e-06 1.0719013)
(1.3010511e-06 -2.0806471e-06 1.0719016)
(2.9837263e-06 -1.9316215e-06 1.0719027)
(4.5616623e-06 -1.7665891e-06 1.0719045)
(6.0115299e-06 -1.5936243e-06 1.0719071)
(2.2334983e-06 -1.4591441e-06 1.0719107)
(-3.3107305e-06 -8.2541677e-07 1.0719083)
(-7.6206669e-06 -7.4222893e-07 1.0719046)
(-4.2480468e-06 -6.16507e-07 1.0719026)
(-2.2198466e-06 -4.7797696e-07 1.0719013)
(-3.3895521e-07 -3.389552e-07 1.0719009)
(1.4426696e-06 -2.0106424e-07 1.0719012)
(3.1297151e-06 -6.2568901e-08 1.0719024)
(4.7055764e-06 7.49147e-08 1.0719042)
(6.1290522e-06 1.989533e-07 1.0719069)
(2.2652916e-06 2.8000736e-07 1.0719105)
(-3.283861e-06 9.2006978e-07 1.0719084)
(-7.5181051e-06 1.0161128e-06 1.0719048)
(-4.1163011e-06 1.1544445e-06 1.0719028)
(-2.0806471e-06 1.3010511e-06 1.0719016)
(-2.0106425e-07 1.4426696e-06 1.0719012)
(1.5774374e-06 1.5774374e-06 1.0719016)
(3.2597052e-06 1.7065985e-06 1.0719028)
(4.8231845e-06 1.828286e-06 1.0719048)
(6.2166225e-06 1.9322071e-06 1.0719075)
(2.2875344e-06 1.9967191e-06 1.0719111)
(-3.2467018e-06 2.4693775e-06 1.0719093)
(-7.3862922e-06 2.6303033e-06 1.0719057)
(-3.9631085e-06 2.8156571e-06 1.0719038)
(-1.9316216e-06 2.9837263e-06 1.0719027)
(-6.2568901e-08 3.1297151e-06 1.0719024)
(1.7065985e-06 3.2597052e-06 1.0719028)
(3.3805636e-06 3.3805636e-06 1.071904)
(4.931185e-06 3.495423e-06 1.071906)
(6.2974854e-06 3.5991934e-06 1.0719088)
(2.3082996e-06 3.6712264e-06 1.0719125)
(-3.1765771e-06 3.7350462e-06 1.0719108)
(-7.1718255e-06 4.0934987e-06 1.0719074)
(-3.7628781e-06 4.3675791e-06 1.0719055)
(-1.7665891e-06 4.5616623e-06 1.0719045)
(7.4914698e-08 4.7055764e-06 1.0719042)
(1.828286e-06 4.8231845e-06 1.0719048)
(3.495423e-06 4.931185e-06 1.071906)
(5.0418142e-06 5.0418142e-06 1.0719081)
(6.3924259e-06 5.1623586e-06 1.0719109)
(2.3355564e-06 5.2796463e-06 1.0719146)
(-3.0077335e-06 4.4713911e-06 1.071913)
(-6.7537593e-06 5.4636635e-06 1.0719098)
(-3.4949449e-06 5.8216073e-06 1.0719081)
(-1.5936243e-06 6.0115299e-06 1.0719071)
(1.9895331e-07 6.1290523e-06 1.0719069)
(1.9322071e-06 6.2166225e-06 1.0719075)
(3.5991934e-06 6.2974854e-06 1.0719088)
(5.1623586e-06 6.3924259e-06 1.0719109)
(6.5353174e-06 6.5353174e-06 1.0719138)
(2.3864914e-06 6.8041653e-06 1.0719176)
(-2.5150621e-06 1.5542048e-06 1.0719156)
(-5.8216094e-06 2.0468762e-06 1.0719131)
(-3.2150117e-06 2.1756382e-06 1.0719115)
(-1.4591441e-06 2.2334983e-06 1.0719107)
(2.8000737e-07 2.2652916e-06 1.0719105)
(1.9967191e-06 2.2875344e-06 1.0719111)
(3.6712264e-06 2.3082996e-06 1.0719125)
(5.2796463e-06 2.3355564e-06 1.0719146)
(6.8041653e-06 2.3864914e-06 1.0719176)
(2.5147883e-06 2.5147883e-06 1.0719217)
(-5.3921378e-06 -5.3921378e-06 1.0720452)
(-1.2295911e-05 -4.7156284e-06 1.0720411)
(-6.791175e-06 -4.5627046e-06 1.072039)
(-3.7509231e-06 -4.4991524e-06 1.0720376)
(-1.0319688e-06 -4.4589372e-06 1.0720371)
(1.4690127e-06 -4.420584e-06 1.0720373)
(3.7356849e-06 -4.3671053e-06 1.0720383)
(5.6649136e-06 -4.2655992e-06 1.07204)
(6.9557342e-06 -4.019852e-06 1.0720422)
(2.461985e-06 -3.2989603e-06 1.072045)
(-4.7156284e-06 -1.2295911e-05 1.0720411)
(-1.1051762e-05 -1.1051762e-05 1.0720376)
(-6.4664611e-06 -1.0661517e-05 1.0720355)
(-3.595272e-06 -1.0454071e-05 1.0720343)
(-9.1411621e-07 -1.0303988e-05 1.0720338)
(1.6067605e-06 -1.0157549e-05 1.072034)
(3.968162e-06 -9.9681051e-06 1.072035)
(6.1857935e-06 -9.658551e-06 1.0720368)
(8.4056925e-06 -9.0528356e-06 1.0720393)
(3.1828767e-06 -7.6972585e-06 1.0720427)
(-4.5627046e-06 -6.791175e-06 1.072039)
(-1.0661517e-05 -6.4664611e-06 1.0720355)
(-6.1934847e-06 -6.1934847e-06 1.0720336)
(-3.3933941e-06 -5.9764187e-06 1.0720324)
(-7.3544618e-07 -5.7884836e-06 1.0720319)
(1.8048954e-06 -5.6001937e-06 1.0720323)
(4.2346826e-06 -5.3803077e-06 1.0720333)
(6.580183e-06 -5.0923388e-06 1.0720352)
(8.9170267e-06 -4.7072566e-06 1.0720378)
(3.3657032e-06 -4.309477e-06 1.0720414)
(-4.4991524e-06 -3.7509231e-06 1.0720376)
(-1.0454071e-05 -3.595272e-06 1.0720343)
(-5.9764187e-06 -3.3933941e-06 1.0720324)
(-3.190271e-06 -3.190271e-06 1.0720312)
(-5.3789118e-07 -2.9931081e-06 1.0720308)
(2.0149364e-06 -2.7938311e-06 1.0720312)
(4.4760169e-06 -2.5798835e-06 1.0720324)
(6.8588446e-06 -2.3426648e-06 1.0720343)
(9.1885542e-06 -2.0942706e-06 1.072037)
(3.4480631e-06 -1.9023697e-06 1.0720407)
(-4.4589372e-06 -1.0319688e-06 1.0720371)
(-1.0303988e-05 -9.1411619e-07 1.0720338)
(-5.7884836e-06 -7.3544616e-07 1.0720319)
(-2.9931081e-06 -5.3789117e-07 1.0720308)
(-3.3900631e-07 -3.3900629e-07 1.0720305)
(2.21812e-06 -1.4117749e-07 1.0720309)
(4.6858489e-06 5.8009961e-08 1.0720322)
(7.0657959e-06 2.5611997e-07 1.0720341)
(9.3573219e-06 4.3501431e-07 1.0720369)
(3.4936371e-06 5.5176199e-07 1.0720407)
(-4.420584e-06 1.4690127e-06 1.0720373)
(-1.0157549e-05 1.6067605e-06 1.072034)
(-5.6001937e-06 1.8048954e-06 1.0720323)
(-2.7938311e-06 2.0149364e-06 1.0720312)
(-1.4117751e-07 2.21812e-06 1.0720309)
(2.4119527e-06 2.4119527e-06 1.0720314)
(4.8733144e-06 2.5983852e-06 1.0720327)
(7.235849e-06 2.7748771e-06 1.0720347)
(9.4841963e-06 2.9265302e-06 1.0720376)
(3.5258949e-06 3.0213187e-06 1.0720413)
(-4.3671053e-06 3.7356849e-06 1.0720383)
(-9.9681051e-06 3.968162e-06 1.072035)
(-5.3803077e-06 4.2346826e-06 1.0720333)
(-2.5798835e-06 4.4760169e-06 1.0720324)
(5.8009946e-08 4.6858489e-06 1.0720322)
(2.5983852e-06 4.8733144e-06 1.0720327)
(5.0487733e-06 5.0487732e-06 1.072034)
(7.393941e-06 5.2174551e-06 1.0720361)
(9.6037635e-06 5.3726626e-06 1.072039)
(3.5568294e-06 5.4832019e-06 1.0720428)
(-4.2655992e-06 5.6649135e-06 1.07204)
(-9.658551e-06 6.1857935e-06 1.0720368)
(-5.0923388e-06 6.580183e-06 1.0720352)
(-2.3426649e-06 6.8588446e-06 1.0720343)
(2.5611996e-07 7.065796e-06 1.0720341)
(2.7748771e-06 7.235849e-06 1.0720347)
(5.2174551e-06 7.393941e-06 1.0720361)
(7.5597383e-06 7.5597383e-06 1.0720383)
(9.7499432e-06 7.7474665e-06 1.0720412)
(3.5995878e-06 7.9398765e-06 1.072045)
(-4.019852e-06 6.9557342e-06 1.0720422)
(-9.0528356e-06 8.4056925e-06 1.0720393)
(-4.7072566e-06 8.9170267e-06 1.0720378)
(-2.0942706e-06 9.1885542e-06 1.072037)
(4.3501433e-07 9.3573219e-06 1.0720369)
(2.9265302e-06 9.4841963e-06 1.0720376)
(5.3726626e-06 9.6037635e-06 1.072039)
(7.7474665e-06 9.7499432e-06 1.0720412)
(9.9839018e-06 9.9839018e-06 1.0720443)
(3.6851027e-06 1.0455568e-05 1.0720482)
(-3.2989603e-06 2.461985e-06 1.072045)
(-7.6972585e-06 3.1828767e-06 1.0720427)
(-4.309477e-06 3.3657032e-06 1.0720414)
(-1.9023697e-06 3.4480631e-06 1.0720407)
(5.5176201e-07 3.4936371e-06 1.0720407)
(3.0213187e-06 3.5258949e-06 1.0720413)
(5.4832019e-06 3.5568294e-06 1.0720428)
(7.9398766e-06 3.5995878e-06 1.072045)
(1.0455568e-05 3.6851028e-06 1.0720482)
(3.9140318e-06 3.9140318e-06 1.0720524)
(-6.7049419e-06 -6.7049419e-06 1.072219)
(-1.5288613e-05 -5.8612933e-06 1.0722151)
(-8.4332038e-06 -5.6710133e-06 1.0722131)
(-4.6057814e-06 -5.5911235e-06 1.072212)
(-1.1307496e-06 -5.5398308e-06 1.0722115)
(2.1075828e-06 -5.4903357e-06 1.0722119)
(5.0854982e-06 -5.4208484e-06 1.0722129)
(7.6783052e-06 -5.288429e-06 1.0722146)
(9.5101588e-06 -4.9668888e-06 1.072217)
(3.3885318e-06 -4.0213905e-06 1.0722197)
(-5.8612932e-06 -1.5288613e-05 1.0722151)
(-1.373772e-05 -1.373772e-05 1.0722118)
(-8.0279493e-06 -1.3250762e-05 1.0722099)
(-4.4090077e-06 -1.2988923e-05 1.0722088)
(-9.7956782e-07 -1.2797059e-05 1.0722084)
(2.2860565e-06 -1.2608046e-05 1.0722087)
(5.3883582e-06 -1.2362143e-05 1.0722098)
(8.3592444e-06 -1.1959057e-05 1.0722116)
(1.1410716e-05 -1.1168639e-05 1.0722142)
(4.3340302e-06 -9.3967836e-06 1.0722176)
(-5.6710132e-06 -8.4332038e-06 1.0722131)
(-1.3250762e-05 -8.0279493e-06 1.0722099)
(-7.6844073e-06 -7.6844073e-06 1.0722081)
(-4.1520786e-06 -7.4083992e-06 1.0722071)
(-7.4987204e-07 -7.1672354e-06 1.0722067)
(2.5424993e-06 -6.9240104e-06 1.0722071)
(5.7344867e-06 -6.6388519e-06 1.0722083)
(8.8718092e-06 -6.2647424e-06 1.0722102)
(1.2072433e-05 -5.7646466e-06 1.0722129)
(4.5697687e-06 -5.2515854e-06 1.0722165)
(-5.5911235e-06 -4.6057814e-06 1.072212)
(-1.2988923e-05 -4.4090078e-06 1.0722088)
(-7.4083992e-06 -4.1520786e-06 1.0722071)
(-3.8918358e-06 -3.8918358e-06 1.072206)
(-4.9517906e-07 -3.6378169e-06 1.0722058)
(2.81444e-06 -3.3799953e-06 1.0722062)
(6.0476262e-06 -3.1024358e-06 1.0722074)
(9.2334497e-06 -2.7943027e-06 1.0722094)
(1.2423873e-05 -2.471821e-06 1.0722122)
(4.676071e-06 -2.2237129e-06 1.0722159)
(-5.5398308e-06 -1.1307496e-06 1.0722115)
(-1.2797059e-05 -9.795678e-07 1.0722084)
(-7.1672354e-06 -7.4987203e-07 1.0722067)
(-3.6378169e-06 -4.9517906e-07 1.0722058)
(-2.3803152e-07 -2.3803152e-07 1.0722055)
(3.0778804e-06 1.8458705e-08 1.0722061)
(6.3201794e-06 2.773409e-07 1.0722073)
(9.502424e-06 5.3529387e-07 1.0722094)
(1.2643022e-05 7.6841959e-07 1.0722122)
(4.7351742e-06 9.2041397e-07 1.0722159)
(-5.4903357e-06 2.1075828e-06 1.0722119)
(-1.2608046e-05 2.2860565e-06 1.0722087)
(-6.9240104e-06 2.5424993e-06 1.0722071)
(-3.3799953e-06 2.81444e-06 1.0722062)
(1.8458703e-08 3.0778804e-06 1.0722061)
(3.3298124e-06 3.3298124e-06 1.0722066)
(6.5644614e-06 3.5729435e-06 1.072208)
(9.7245284e-06 3.8040688e-06 1.07221)
(1.2808993e-05 4.0036021e-06 1.0722129)
(4.7774006e-06 4.1288742e-06 1.0722167)
(-5.4208484e-06 5.0854981e-06 1.0722129)
(-1.2362143e-05 5.3883582e-06 1.0722098)
(-6.6388519e-06 5.7344867e-06 1.0722083)
(-3.1024358e-06 6.0476262e-06 1.0722074)
(2.773409e-07 6.3201794e-06 1.0722073)
(3.5729435e-06 6.5644614e-06 1.072208)
(6.7944358e-06 6.7944359e-06 1.0722093)
(9.9330827e-06 7.0175233e-06 1.0722115)
(1.2967828e-05 7.2253139e-06 1.0722144)
(4.8186889e-06 7.3754104e-06 1.0722182)
(-5.288429e-06 7.6783052e-06 1.0722146)
(-1.1959057e-05 8.3592444e-06 1.0722116)
(-6.2647424e-06 8.8718092e-06 1.0722102)
(-2.7943026e-06 9.2334497e-06 1.0722094)
(5.3529387e-07 9.502424e-06 1.0722094)
(3.8040688e-06 9.7245284e-06 1.07221)
(7.0175233e-06 9.9330827e-06 1.0722115)
(1.0155406e-05 1.0155406e-05 1.0722137)
(1.316688e-05 1.0412597e-05 1.0722167)
(4.877465e-06 1.0682014e-05 1.0722205)
(-4.9668888e-06 9.5101588e-06 1.072217)
(-1.1168639e-05 1.1410716e-05 1.0722142)
(-5.7646466e-06 1.2072433e-05 1.0722129)
(-2.471821e-06 1.2423873e-05 1.0722122)
(7.684196e-07 1.2643022e-05 1.0722122)
(4.0036021e-06 1.2808993e-05 1.0722129)
(7.2253139e-06 1.2967828e-05 1.0722144)
(1.0412597e-05 1.316688e-05 1.0722167)
(1.3494435e-05 1.3494435e-05 1.0722198)
(4.9982998e-06 1.4168446e-05 1.0722237)
(-4.0213905e-06 3.3885318e-06 1.0722197)
(-9.3967836e-06 4.3340302e-06 1.0722176)
(-5.2515854e-06 4.5697687e-06 1.0722165)
(-2.2237129e-06 4.676071e-06 1.0722159)
(9.2041398e-07 4.7351742e-06 1.0722159)
(4.1288742e-06 4.7774006e-06 1.0722167)
(7.3754104e-06 4.8186889e-06 1.0722182)
(1.0682014e-05 4.877465e-06 1.0722205)
(1.4168446e-05 4.9982998e-06 1.0722237)
(5.3268055e-06 5.3268055e-06 1.0722279)
(-7.9542591e-06 -7.9542591e-06 1.0724368)
(-1.810742e-05 -6.9488862e-06 1.0724331)
(-9.9296893e-06 -6.7228937e-06 1.0724313)
(-5.3406064e-06 -6.6274727e-06 1.0724302)
(-1.1356209e-06 -6.5655854e-06 1.0724299)
(2.81759e-06 -6.5053255e-06 1.0724303)
(6.4879848e-06 -6.4202686e-06 1.0724314)
(9.725292e-06 -6.2577182e-06 1.0724331)
(1.2070997e-05 -5.8623101e-06 1.0724355)
(4.3116199e-06 -4.698075e-06 1.0724382)
(-6.9488862e-06 -1.810742e-05 1.0724331)
(-1.6260373e-05 -1.6260373e-05 1.0724299)
(-9.447569e-06 -1.5681234e-05 1.0724282)
(-5.104644e-06 -1.5367686e-05 1.0724272)
(-9.5240026e-07 -1.513583e-05 1.0724269)
(3.0355652e-06 -1.4905691e-05 1.0724273)
(6.8593958e-06 -1.4604914e-05 1.0724285)
(1.056223e-05 -1.4110714e-05 1.0724303)
(1.4410462e-05 -1.3140355e-05 1.0724329)
(5.475855e-06 -1.0963287e-05 1.0724363)
(-6.7228937e-06 -9.9296893e-06 1.0724313)
(-1.5681234e-05 -9.447569e-06 1.0724282)
(-9.0370031e-06 -9.0370031e-06 1.0724266)
(-4.7952024e-06 -8.7048388e-06 1.0724256)
(-6.7362529e-07 -8.4126e-06 1.0724254)
(3.3485065e-06 -8.1162702e-06 1.0724259)
(7.2829618e-06 -7.7676946e-06 1.072427)
(1.1189851e-05 -7.3097152e-06 1.072429)
(1.5218425e-05 -6.6976446e-06 1.0724317)
(5.7629991e-06 -6.0725752e-06 1.0724352)
(-6.6274727e-06 -5.3406064e-06 1.0724302)
(-1.5367686e-05 -5.104644e-06 1.0724272)
(-8.7048388e-06 -4.7952024e-06 1.0724256)
(-4.4802409e-06 -4.4802409e-06 1.0724247)
(-3.638316e-07 -4.1714439e-06 1.0724246)
(3.6804706e-06 -3.8569045e-06 1.0724251)
(7.6659508e-06 -3.5174689e-06 1.0724263)
(1.163228e-05 -3.1402216e-06 1.0724283)
(1.5647602e-05 -2.7455339e-06 1.0724311)
(5.8925679e-06 -2.4427448e-06 1.0724347)
(-6.5655854e-06 -1.1356209e-06 1.0724299)
(-1.513583e-05 -9.5240026e-07 1.0724269)
(-8.4126e-06 -6.7362529e-07 1.0724254)
(-4.1714439e-06 -3.6383159e-07 1.0724246)
(-5.0288877e-08 -5.028888e-08 1.0724244)
(4.0024815e-06 2.6322098e-07 1.072425)
(7.9996448e-06 5.8034601e-07 1.0724263)
(1.1961786e-05 8.9683568e-07 1.0724284)
(1.5915901e-05 1.1830587e-06 1.0724312)
(5.9648585e-06 1.3695299e-06 1.0724349)
(-6.5053255e-06 2.81759e-06 1.0724303)
(-1.4905691e-05 3.0355652e-06 1.0724273)
(-8.1162702e-06 3.3485065e-06 1.0724259)
(-3.8569045e-06 3.6804706e-06 1.0724251)
(2.6322098e-07 4.0024815e-06 1.072425)
(4.3111055e-06 4.3111055e-06 1.0724256)
(8.2995655e-06 4.6098176e-06 1.072427)
(1.2234992e-05 4.8947327e-06 1.0724291)
(1.6120296e-05 5.1415524e-06 1.072432)
(6.0168821e-06 5.2969563e-06 1.0724357)
(-6.4202686e-06 6.4879848e-06 1.0724314)
(-1.4604914e-05 6.8593958e-06 1.0724285)
(-7.7676946e-06 7.2829618e-06 1.072427)
(-3.5174689e-06 7.6659508e-06 1.0724263)
(5.8034603e-07 7.9996448e-06 1.0724263)
(4.6098176e-06 8.2995655e-06 1.072427)
(8.583272e-06 8.583272e-06 1.0724284)
(1.249352e-05 8.8603381e-06 1.0724306)
(1.6318125e-05 9.1205255e-06 1.0724335)
(6.0684611e-06 9.3100424e-06 1.0724372)
(-6.2577182e-06 9.725292e-06 1.0724331)
(-1.4110714e-05 1.056223e-05 1.0724303)
(-7.3097152e-06 1.1189851e-05 1.072429)
(-3.1402216e-06 1.163228e-05 1.0724283)
(8.9683569e-07 1.1961786e-05 1.0724284)
(4.8947327e-06 1.2234992e-05 1.0724291)
(8.8603381e-06 1.249352e-05 1.0724306)
(1.2772246e-05 1.2772246e-05 1.0724328)
(1.657e-05 1.3098853e-05 1.0724358)
(6.1432266e-06 1.3444795e-05 1.0724396)
(-5.8623101e-06 1.2070998e-05 1.0724355)
(-1.3140355e-05 1.4410462e-05 1.0724329)
(-6.6976446e-06 1.5218425e-05 1.0724317)
(-2.7455339e-06 1.5647602e-05 1.0724311)
(1.1830587e-06 1.5915901e-05 1.0724312)
(5.1415524e-06 1.6120296e-05 1.072432)
(9.1205255e-06 1.6318125e-05 1.0724335)
(1.3098853e-05 1.657e-05 1.0724358)
(1.6990674e-05 1.6990674e-05 1.0724389)
(6.2990892e-06 1.7864076e-05 1.0724427)
(-4.698075e-06 4.3116199e-06 1.0724382)
(-1.0963287e-05 5.475855e-06 1.0724363)
(-6.0725752e-06 5.7629991e-06 1.0724352)
(-2.4427448e-06 5.8925679e-06 1.0724347)
(1.3695299e-06 5.9648585e-06 1.0724349)
(5.2969563e-06 6.016882e-06 1.0724357)
(9.3100423e-06 6.0684611e-06 1.0724372)
(1.3444795e-05 6.1432266e-06 1.0724396)
(1.7864077e-05 6.2990892e-06 1.0724427)
(6.7254951e-06 6.7254951e-06 1.0724469)
(-9.1407904e-06 -9.1407904e-06 1.0726967)
(-2.0762391e-05 -7.979772e-06 1.0726933)
(-1.129815e-05 -7.7196326e-06 1.0726916)
(-5.9717869e-06 -7.6094161e-06 1.0726906)
(-1.0634398e-06 -7.5374073e-06 1.0726904)
(3.5779059e-06 -7.4668036e-06 1.0726908)
(7.9141629e-06 -7.3667264e-06 1.072692)
(1.1767972e-05 -7.1750705e-06 1.0726937)
(1.4596982e-05 -6.7083064e-06 1.072696)
(5.2177814e-06 -5.3328026e-06 1.0726987)
(-7.979772e-06 -2.0762391e-05 1.0726933)
(-1.8630654e-05 -1.8630655e-05 1.0726903)
(-1.0742616e-05 -1.7963547e-05 1.0726887)
(-5.698449e-06 -1.7600759e-05 1.0726878)
(-8.4952113e-07 -1.733069e-05 1.0726876)
(3.8339273e-06 -1.7061041e-05 1.072688)
(8.3517625e-06 -1.6707348e-05 1.0726892)
(1.2755601e-05 -1.6125161e-05 1.072691)
(1.7360383e-05 -1.4981031e-05 1.0726935)
(6.5932852e-06 -1.2412755e-05 1.0726968)
(-7.7196326e-06 -1.129815e-05 1.0726916)
(-1.7963547e-05 -1.0742616e-05 1.0726887)
(-1.0268254e-05 -1.0268254e-05 1.0726872)
(-5.3389301e-06 -9.8825788e-06 1.0726863)
(-5.2372229e-07 -9.5414795e-06 1.0726862)
(4.2012478e-06 -9.1941128e-06 1.0726867)
(8.8500432e-06 -8.7843889e-06 1.0726879)
(1.3494288e-05 -8.2454315e-06 1.0726898)
(1.8309388e-05 -7.525262e-06 1.0726925)
(6.929966e-06 -6.7922347e-06 1.0726959)
(-7.6094161e-06 -5.9717869e-06 1.0726906)
(-1.7600759e-05 -5.698449e-06 1.0726878)
(-9.8825788e-06 -5.3389301e-06 1.0726863)
(-4.9716745e-06 -4.9716745e-06 1.0726855)
(-1.6105515e-07 -4.6103452e-06 1.0726854)
(4.5910179e-06 -4.2412139e-06 1.072686)
(9.3004438e-06 -3.842056e-06 1.0726873)
(1.4014728e-05 -3.398013e-06 1.0726893)
(1.881358e-05 -2.933547e-06 1.072692)
(7.0819701e-06 -2.5779867e-06 1.0726955)
(-7.5374073e-06 -1.0634398e-06 1.0726904)
(-1.733069e-05 -8.4952112e-07 1.0726876)
(-9.5414795e-06 -5.2372229e-07 1.0726862)
(-4.6103452e-06 -1.6105515e-07 1.0726854)
(2.0673829e-07 2.0673829e-07 1.0726854)
(4.969537e-06 5.7526227e-07 1.072686)
(9.6932441e-06 9.4873161e-07 1.0726873)
(1.4402797e-05 1.3219471e-06 1.0726894)
(1.9129415e-05 1.6596503e-06 1.0726921)
(7.1670063e-06 1.8795188e-06 1.0726957)
(-7.4668036e-06 3.5779058e-06 1.0726908)
(-1.7061041e-05 3.8339273e-06 1.072688)
(-9.1941128e-06 4.2012478e-06 1.0726867)
(-4.2412139e-06 4.5910179e-06 1.072686)
(5.7526227e-07 4.969537e-06 1.072686)
(5.3330112e-06 5.3330112e-06 1.0726867)
(1.0047129e-05 5.6856706e-06 1.0726881)
(1.4725647e-05 6.0229375e-06 1.0726902)
(1.9371152e-05 6.3158559e-06 1.072693)
(7.2285491e-06 6.5006373e-06 1.0726966)
(-7.3667263e-06 7.9141629e-06 1.072692)
(-1.6707348e-05 8.3517625e-06 1.0726892)
(-8.784389e-06 8.8500432e-06 1.0726879)
(-3.842056e-06 9.3004438e-06 1.0726873)
(9.4873162e-07 9.6932441e-06 1.0726873)
(5.6856706e-06 1.0047129e-05 1.0726881)
(1.038317e-05 1.038317e-05 1.0726895)
(1.5032982e-05 1.0713014e-05 1.0726916)
(1.9607114e-05 1.1024544e-05 1.0726945)
(7.2901939e-06 1.1252682e-05 1.0726981)
(-7.1750705e-06 1.1767972e-05 1.0726937)
(-1.6125161e-05 1.2755601e-05 1.072691)
(-8.2454315e-06 1.3494288e-05 1.0726898)
(-3.398013e-06 1.4014728e-05 1.0726893)
(1.3219471e-06 1.4402797e-05 1.0726894)
(6.0229375e-06 1.4725647e-05 1.0726902)
(1.0713014e-05 1.5032982e-05 1.0726916)
(1.536702e-05 1.536702e-05 1.0726938)
(1.991082e-05 1.5761755e-05 1.0726968)
(7.3806414e-06 1.6182647e-05 1.0727004)
(-6.7083064e-06 1.4596982e-05 1.072696)
(-1.4981031e-05 1.7360383e-05 1.0726935)
(-7.525262e-06 1.8309388e-05 1.0726925)
(-2.933547e-06 1.881358e-05 1.072692)
(1.6596503e-06 1.9129415e-05 1.0726921)
(6.3158559e-06 1.9371152e-05 1.072693)
(1.1024544e-05 1.9607114e-05 1.0726945)
(1.5761755e-05 1.991082e-05 1.0726968)
(2.0422742e-05 2.0422742e-05 1.0726998)
(7.5707886e-06 2.1490979e-05 1.0727035)
(-5.3328026e-06 5.2177813e-06 1.0726987)
(-1.2412755e-05 6.5932852e-06 1.0726968)
(-6.7922347e-06 6.929966e-06 1.0726959)
(-2.5779868e-06 7.0819701e-06 1.0726955)
(1.8795188e-06 7.1670063e-06 1.0726957)
(6.5006373e-06 7.2285491e-06 1.0726966)
(1.1252682e-05 7.2901939e-06 1.0726981)
(1.6182647e-05 7.3806414e-06 1.0727004)
(2.1490979e-05 7.5707886e-06 1.0727035)
(8.0927997e-06 8.0927997e-06 1.0727076)
(-1.0260953e-05 -1.0260953e-05 1.0729967)
(-2.3251475e-05 -8.9513303e-06 1.0729935)
(-1.2547574e-05 -8.6587292e-06 1.0729919)
(-6.5120454e-06 -8.5344756e-06 1.0729911)
(-9.3009057e-07 -8.4528439e-06 1.0729909)
(4.3684177e-06 -8.3723687e-06 1.0729914)
(9.3386935e-06 -8.2579208e-06 1.0729925)
(1.3776417e-05 -8.038394e-06 1.0729942)
(1.7057534e-05 -7.5032891e-06 1.0729965)
(6.0972153e-06 -5.9254233e-06 1.0729991)
(-8.9513303e-06 -2.3251475e-05 1.0729935)
(-2.0848141e-05 -2.0848141e-05 1.0729906)
(-1.1922292e-05 -2.0097501e-05 1.0729892)
(-6.2032174e-06 -1.9688008e-05 1.0729884)
(-6.8693034e-07 -1.9381608e-05 1.0729883)