/*--------------------------------*- C++ -*----------------------------------*\
| =========                 |                                                 |
| \\      /  F ield         | OpenFOAM: The Open Source CFD Toolbox           |
|  \\    /   O peration     | Version:  v2106                                 |
|   \\  /    A nd           | Website:  www.openfoam.com                      |
|    \\/     M anipulation  |                                                 |
\*---------------------------------------------------------------------------*/
FoamFile
{
    version     2.0;
    format      ascii;
    arch        "LSB;label=32;scalar=64";
    class       volVectorField;
    location    "65";
    object      gradT;
}
// * * * * * * * * * * * * * * * * * * * * * * * * * * * * * * * * * * * * * //

dimensions      [0 -1 0 1 0 0 0];

internalField   nonuniform List<vector> 
4000
(
(-0.00044000593 -0.00044000594 565.06318)
(-0.00096682246 -0.00039012834 565.05994)
(-0.00048694794 -0.00037856847 565.05838)
(-0.00026395374 -0.00037408062 565.05745)
(-8.4516881e-05 -0.00037144814 565.05701)
(7.1593193e-05 -0.00036903746 565.05702)
(0.00020483234 -0.00036575304 565.0574)
(0.00030215667 -0.0003597143 565.05811)
(0.00032281285 -0.00034611528 565.05902)
(0.00010213187 -0.00031303712 565.05988)
(-0.00039012834 -0.00096682247 565.05994)
(-0.00087466627 -0.00087466626 565.05709)
(-0.00046287636 -0.00084573144 565.05562)
(-0.00025327324 -0.0008314523 565.05472)
(-7.695214e-05 -0.00082172369 565.05431)
(8.0135836e-05 -0.0008125237 565.05433)
(0.00021881708 -0.00080082895 565.05474)
(0.0003316133 -0.000782111 565.05549)
(0.00039282862 -0.00074720998 565.05652)
(0.00013521004 -0.00067957984 565.05769)
(-0.00037856847 -0.00048694794 565.05838)
(-0.00084573144 -0.00046287636 565.05562)
(-0.00044373398 -0.00044373397 565.0542)
(-0.00023994599 -0.00042937251 565.05335)
(-6.5588277e-05 -0.00041736283 565.05296)
(9.2487923e-05 -0.00040555863 565.05301)
(0.00023524505 -0.00039191679 565.05346)
(0.00035577564 -0.00037416575 565.05426)
(0.00042534401 -0.00035047165 565.05537)
(0.00014721864 -0.00032456947 565.05663)
(-0.00037408062 -0.00026395375 565.05745)
(-0.0008314523 -0.00025327324 565.05472)
(-0.00042937251 -0.00023994598 565.05335)
(-0.00022690209 -0.00022690209 565.05252)
(-5.313826e-05 -0.00021445682 565.05217)
(0.00010558188 -0.00020201116 565.05225)
(0.00025020996 -0.00018873361 565.05274)
(0.00037305844 -0.00017405448 565.05359)
(0.0004424249 -0.00015864901 565.05474)
(0.00015247816 -0.00014649472 565.05604)
(-0.00037144813 -8.4516878e-05 565.05701)
(-0.00082172367 -7.6952142e-05 565.05431)
(-0.00041736283 -6.5588284e-05 565.05296)
(-0.00021445683 -5.3138259e-05 565.05217)
(-4.0697345e-05 -4.0697345e-05 565.05186)
(0.00011821113 -2.839968e-05 565.05197)
(0.00026320173 -1.6083607e-05 565.05249)
(0.00038586024 -3.8857998e-06 565.05337)
(0.00045290377 7.1068939e-06 565.05455)
(0.0001553215 1.4305162e-05 565.05588)
(-0.00036903746 7.1593202e-05 565.05702)
(-0.00081252371 8.0135826e-05 565.05433)
(-0.00040555863 9.2487916e-05 565.05301)
(-0.00020201116 0.00010558188 565.05225)
(-2.8399681e-05 0.00011821114 565.05197)
(0.00013019562 0.00013019561 565.05212)
(0.00027472384 0.0001416317 565.05266)
(0.00039624894 0.00015233595 565.05358)
(0.00046061587 0.00016138959 565.05478)
(0.00015727701 0.00016693912 565.05613)
(-0.00036575304 0.00020483234 565.0574)
(-0.00080082896 0.00021881708 565.05474)
(-0.00039191678 0.00023524505 565.05346)
(-0.00018873361 0.00025020996 565.05274)
(-1.6083612e-05 0.00026320172 565.05249)
(0.0001416317 0.00027472384 565.05266)
(0.00028534206 0.00028534206 565.05324)
(0.00040561813 0.00029525501 565.05418)
(0.00046750694 0.00030390697 565.05541)
(0.00015902118 0.00030954943 565.05677)
(-0.0003597143 0.00030215667 565.05811)
(-0.000782111 0.00033161331 565.05549)
(-0.00037416575 0.00035577564 565.05426)
(-0.00017405449 0.00037305844 565.05359)
(-3.8857949e-06 0.00038586024 565.05337)
(0.00015233596 0.00039624894 565.05358)
(0.000295255 0.00040561813 565.05418)
(0.00041481384 0.00041481386 565.05514)
(0.00047491029 0.00042392818 565.0564)
(0.00016103865 0.00043118241 565.05777)
(-0.00034611528 0.00032281285 565.05902)
(-0.00074720998 0.00039282863 565.05652)
(-0.00035047165 0.00042534401 565.05537)
(-0.00015864901 0.00044242491 565.05474)
(7.1068846e-06 0.00045290378 565.05455)
(0.00016138959 0.00046061586 565.05478)
(0.00030390698 0.00046750693 565.05541)
(0.00042392818 0.0004749103 565.0564)
(0.00048387549 0.0004838755 565.05768)
(0.00016385734 0.00049369033 565.05907)
(-0.00031303712 0.00010213187 565.05988)
(-0.00067957984 0.00013521004 565.05769)
(-0.00032456947 0.00014721864 565.05663)
(-0.00014649472 0.00015247816 565.05604)
(1.4305155e-05 0.0001553215 565.05588)
(0.00016693912 0.00015727701 565.05613)
(0.00030954944 0.00015902118 565.05677)
(0.00043118241 0.00016103865 565.05777)
(0.00049369032 0.00016385734 565.05907)
(0.00016758186 0.00016758186 565.06051)
(-0.0019201115 -0.0019201115 835.07536)
(-0.0043038735 -0.0016786389 835.07138)
(-0.0022810312 -0.0016251243 835.06929)
(-0.0012572164 -0.0016040383 835.06801)
(-0.00039665452 -0.0015913353 835.06742)
(0.0003641021 -0.001579584 835.06746)
(0.0010221432 -0.0015634722 835.06806)
(0.001522364 -0.0015333214 835.06917)
(0.0016956196 -0.0014615333 835.07065)
(0.00055635577 -0.0012547933 835.07231)
(-0.0016786389 -0.0043038735 835.07138)
(-0.0038613928 -0.0038613928 835.0679)
(-0.0021691303 -0.0037271287 835.06593)
(-0.0012065329 -0.0036594004 835.0647)
(-0.00035997312 -0.0036123345 835.06414)
(0.00040589678 -0.0035674964 835.0642)
(0.0010915371 -0.0035102488 835.06484)
(0.0016752724 -0.0034176305 835.06602)
(0.0021134118 -0.0032384046 835.06768)
(0.00076309582 -0.0028422959 835.06985)
(-0.0016251243 -0.0022810312 835.06929)
(-0.0037271287 -0.0021691302 835.06593)
(-0.0020790387 -0.0020790387 835.06404)
(-0.0011424222 -0.0020099773 835.06286)
(-0.00030475055 -0.0019516684 835.06235)
(0.00046618779 -0.0018941277 835.06245)
(0.0011720092 -0.0018274856 835.06315)
(0.0017942082 -0.0017405514 835.0644)
(0.0022709541 -0.0016240828 835.06617)
(0.00082042827 -0.0014998005 835.06848)
(-0.0016040383 -0.0012572164 835.06801)
(-0.0036594004 -0.0012065329 835.0647)
(-0.0020099774 -0.0011424222 835.06286)
(-0.0010791625 -0.0010791625 835.06174)
(-0.00024412349 -0.0010185758 835.06127)
(0.00053007958 -0.00095787047 835.06142)
(0.0012451135 -0.00089303674 835.06217)
(0.0018786752 -0.00082130909 835.06348)
(0.0023541627 -0.00074602811 835.06533)
(0.00084595068 -0.0006869324 835.06769)
(-0.0015913353 -0.00039665453 835.06742)
(-0.0036123344 -0.00035997313 835.06414)
(-0.0019516684 -0.00030475055 835.06235)
(-0.0010185758 -0.00024412349 835.06127)
(-0.00018345848 -0.00018345848 835.06084)
(0.00059172689 -0.00012343172 835.06104)
(0.0013085706 -6.3265124e-05 835.06184)
(0.0019412168 -3.6347068e-06 835.0632)
(0.0024053308 5.0126161e-05 835.0651)
(0.00085982541 8.5318566e-05 835.0675)
(-0.001579584 0.0003641021 835.06746)
(-0.0035674964 0.00040589677 835.0642)
(-0.0018941277 0.00046618778 835.06245)
(-0.00095787047 0.00053007958 835.06142)
(-0.00012343173 0.00059172689 835.06104)
(0.00065027293 0.00065027293 835.06129)
(0.0013649105 0.00070620974 835.06214)
(0.0019920665 0.00075866793 835.06354)
(0.0024431159 0.00080316694 835.06547)
(0.00086941229 0.00083054922 835.06789)
(-0.0015634722 0.0010221432 835.06806)
(-0.0035102488 0.0010915371 835.06484)
(-0.0018274856 0.0011720092 835.06315)
(-0.00089303674 0.0012451135 835.06217)
(-6.3265128e-05 0.0013085706 835.06184)
(0.00070620974 0.0013649105 835.06214)
(0.0014169656 0.0014169656 835.06302)
(0.002038174 0.0014658262 835.06447)
(0.0024772121 0.0015089324 835.06643)
(0.00087808026 0.0015375967 835.06887)
(-0.0015333215 0.001522364 835.06917)
(-0.0034176305 0.0016752724 835.06602)
(-0.0017405514 0.0017942082 835.0644)
(-0.00082130909 0.0018786752 835.06348)
(-3.6347029e-06 0.0019412168 835.0632)
(0.00075866793 0.0019920665 835.06354)
(0.0014658262 0.002038174 835.06447)
(0.0020840333 0.0020840333 835.06595)
(0.0025148864 0.0021308954 835.06795)
(0.00088852185 0.0021707589 835.07042)
(-0.0014615333 0.0016956195 835.07065)
(-0.0032384047 0.0021134118 835.06768)
(-0.0016240828 0.0022709541 835.06617)
(-0.0007460281 0.0023541627 835.06533)
(5.0126165e-05 0.0024053308 835.0651)
(0.00080316695 0.0024431159 835.06547)
(0.0015089323 0.0024772121 835.06643)
(0.0021308954 0.0025148864 835.06795)
(0.0025639378 0.0025639378 835.07)
(0.00090465598 0.0026292744 835.07253)
(-0.0012547933 0.00055635577 835.07231)
(-0.0028422959 0.00076309583 835.06985)
(-0.0014998005 0.00082042827 835.06848)
(-0.0006869324 0.00084595068 835.06769)
(8.5318574e-05 0.0008598254 835.0675)
(0.00083054922 0.00086941228 835.06789)
(0.0015375967 0.00087808026 835.06887)
(0.0021707589 0.00088852185 835.07042)
(0.0026292744 0.00090465598 835.07253)
(0.00093207962 0.00093207962 835.0752)
(-0.0030974392 -0.0030974392 829.75676)
(-0.0070347106 -0.0027082862 829.75342)
(-0.0038489301 -0.0026206389 829.75161)
(-0.002134663 -0.002584923 829.75048)
(-0.0006389442 -0.0025627926 829.74998)
(0.00071221382 -0.0025419933 829.75008)
(0.0019115124 -0.0025132288 829.75074)
(0.0028912497 -0.0024589462 829.75193)
(0.0034612444 -0.0023282465 829.75358)
(0.0012030893 -0.0019468761 829.75559)
(-0.0027082862 -0.0070347106 829.75342)
(-0.0063195102 -0.0063195102 829.7505)
(-0.0036638852 -0.0060972021 829.74878)
(-0.0020478937 -0.0059813801 829.74769)
(-0.00057454962 -0.0058990577 829.74722)
(0.00078655954 -0.0058196659 829.74735)
(0.0020360831 -0.0057176312 829.74805)
(0.0031687232 -0.0055516152 829.74931)
(0.0042293495 -0.0052279956 829.75113)
(0.0015844597 -0.0045064305 829.75366)
(-0.0026206389 -0.00384893 829.75161)
(-0.0060972021 -0.0036638852 829.74878)
(-0.0035108 -0.0035108 829.74713)
(-0.0019365186 -0.0033909283 829.7461)
(-0.00047722996 -0.0032883571 829.74567)
(0.0008936403 -0.0031863744 829.74583)
(0.0021795631 -0.00306779 829.74659)
(0.0033808853 -0.0029127942 829.74792)
(0.0045064292 -0.0027053906 829.74986)
(0.0016841327 -0.0024886979 829.75251)
(-0.002584923 -0.002134663 829.75048)
(-0.0059813802 -0.0020478937 829.74769)
(-0.0033909283 -0.0019365186 829.7461)
(-0.0018254507 -0.0018254507 829.74511)
(-0.00036999568 -0.001718354 829.74472)
(0.0010071266 -0.0016106015 829.74494)
(0.0023096632 -0.0014952428 829.74574)
(0.0035311226 -0.0013674933 829.74713)
(0.0046534458 -0.0012336035 829.74914)
(0.0017289215 -0.0011295041 829.75185)
(-0.0025627926 -0.00063894419 829.74998)
(-0.0058990577 -0.00057454962 829.74722)
(-0.0032883571 -0.00047722995 829.74567)
(-0.0017183541 -0.00036999567 829.74472)
(-0.00026238077 -0.00026238076 829.74438)
(0.0011167516 -0.00015564118 829.74464)
(0.0024226712 -4.8433762e-05 829.7455)
(0.0036425246 5.7990481e-05 829.74694)
(0.0047444183 0.00015400712 829.74899)
(0.0017535322 0.00021674999 829.75173)
(-0.0025419933 0.00071221382 829.75008)
(-0.0058196659 0.00078655954 829.74735)
(-0.0031863744 0.00089364029 829.74583)
(-0.0016106015 0.0010071265 829.74494)
(-0.00015564119 0.0011167516 829.74464)
(0.0012210736 0.0012210736 829.74495)
(0.0025232949 0.0013210554 829.74585)
(0.0037335635 0.001415252 829.74733)
(0.0048122053 0.001495696 829.74942)
(0.00177075 0.0015456338 829.75219)
(-0.0025132288 0.0019115124 829.75074)
(-0.0057176312 0.0020360831 829.74805)
(-0.00306779 0.0021795631 829.74659)
(-0.0014952428 0.0023096632 829.74574)
(-4.8433762e-05 0.0024226712 829.7455)
(0.0013210554 0.0025232949 829.74585)
(0.0026168497 0.0026168497 829.74679)
(0.0038171652 0.0027057608 829.74832)
(0.0048748001 0.002786088 829.75044)
(0.0017868241 0.0028418476 829.75322)
(-0.0024589462 0.0028912497 829.75193)
(-0.0055516152 0.0031687232 829.74931)
(-0.0029127942 0.0033808853 829.74792)
(-0.0013674933 0.0035311226 829.74713)
(5.7990479e-05 0.0036425246 829.74694)
(0.0014152521 0.0037335635 829.74733)
(0.0027057608 0.0038171652 829.74832)
(0.0039028017 0.0039028017 829.74988)
(0.0049482922 0.0039961134 829.75205)
(0.0018079232 0.004086904 829.75487)
(-0.0023282465 0.0034612444 829.75358)
(-0.0052279956 0.0042293495 829.75113)
(-0.0027053906 0.0045064292 829.74986)
(-0.0012336035 0.0046534458 829.74914)
(0.00015400713 0.0047444184 829.74899)
(0.001495696 0.0048122053 829.74942)
(0.002786088 0.0048748001 829.75044)
(0.0039961133 0.0049482922 829.75205)
(0.0050589024 0.0050589024 829.75427)
(0.0018473512 0.0052670138 829.75716)
(-0.0019468761 0.0012030893 829.75559)
(-0.0045064305 0.0015844597 829.75366)
(-0.002488698 0.0016841327 829.75251)
(-0.0011295041 0.0017289215 829.75185)
(0.00021675 0.0017535322 829.75173)
(0.0015456338 0.00177075 829.75219)
(0.0028418476 0.0017868241 829.75322)
(0.004086904 0.0018079232 829.75487)
(0.0052670138 0.0018473512 829.75716)
(0.0019466641 0.0019466641 829.76028)
(-0.004147427 -0.004147427 824.57631)
(-0.0094575476 -0.0036270821 824.57327)
(-0.0052235139 -0.0035094591 824.57166)
(-0.0028850677 -0.0034605773 824.57067)
(-0.00079375126 -0.0034296453 824.57027)
(0.0011299088 -0.0034001455 824.57044)
(0.002873347 -0.0033590116 824.57117)
(0.0043572364 -0.0032809369 824.57242)
(0.0053500864 -0.0030919173 824.57415)
(0.0018936652 -0.0025374347 824.57623)
(-0.0036270821 -0.0094575476 824.57327)
(-0.0085005957 -0.0085005957 824.57061)
(-0.0049737567 -0.0082004345 824.56909)
(-0.002765347 -0.0080408756 824.56814)
(-0.00070310356 -0.0079254371 824.56776)
(0.0012358593 -0.0078128017 824.56796)
(0.0030521598 -0.0076670886 824.56872)
(0.0047578778 -0.0074289911 824.57004)
(0.0064653396 -0.0069630976 824.57194)
(0.0024481478 -0.0059204387 824.57454)
(-0.0035094591 -0.0052235139 824.57166)
(-0.0082004345 -0.0049737567 824.56909)
(-0.0047637938 -0.0047637938 824.56763)
(-0.0026100703 -0.004596835 824.56672)
(-0.00056567736 -0.0044522825 824.56639)
(0.0013882573 -0.004307457 824.56663)
(0.0032571575 -0.0041383289 824.56744)
(0.0050612274 -0.003916834 824.56883)
(0.0068586388 -0.0036206432 824.57084)
(0.0025887711 -0.0033146861 824.57355)
(-0.0034605773 -0.0028850677 824.57067)
(-0.0080408756 -0.002765347 824.56814)
(-0.004596835 -0.0026100703 824.56672)
(-0.0024538357 -0.0024538357 824.56586)
(-0.00041372555 -0.0023021855 824.56557)
(0.0015498129 -0.0021489092 824.56586)
(0.0034427828 -0.0019843488 824.56672)
(0.0052755635 -0.0018018891 824.56817)
(0.0070674876 -0.0016108335 824.57024)
(0.0026521192 -0.0014632306 824.57301)
(-0.0034296453 -0.00079375125 824.57027)
(-0.0079254371 -0.00070310354 824.56776)
(-0.0044522825 -0.00056567735 824.56639)
(-0.0023021855 -0.00041372554 824.56557)
(-0.00026075083 -0.00026075082 824.56533)
(0.001706094 -0.00010858839 824.56565)
(0.0036041776 4.4619067e-05 824.56656)
(0.0054347427 0.00019699778 824.56806)
(0.0071972973 0.00033459652 824.57018)
(0.002687173 0.00042439438 824.57298)
(-0.0034001455 0.0011299088 824.57044)
(-0.0078128017 0.0012358593 824.56796)
(-0.004307457 0.0013882572 824.56663)
(-0.0021489092 0.0015498129 824.56586)
(-0.0001085884 0.001706094 824.56565)
(0.0018551828 0.0018551827 824.56603)
(0.003748369 0.0019985796 824.56698)
(0.0055655409 0.0021343303 824.56852)
(0.0072948842 0.0022509761 824.57068)
(0.0027119845 0.0023238836 824.5735)
(-0.0033590116 0.002873347 824.57117)
(-0.0076670887 0.0030521598 824.56872)
(-0.0041383289 0.0032571575 824.56744)
(-0.0019843488 0.0034427828 824.56672)
(4.4619055e-05 0.0036041776 824.56656)
(0.0019985796 0.0037483689 824.56698)
(0.0038833252 0.0038833252 824.56797)
(0.0056871392 0.0040130687 824.56955)
(0.0073868505 0.0041324482 824.57175)
(0.002735778 0.0042174707 824.57459)
(-0.0032809369 0.0043572363 824.57242)
(-0.0074289911 0.0047578778 824.57004)
(-0.003916834 0.0050612274 824.56883)
(-0.0018018891 0.0052755635 824.56817)
(0.00019699778 0.0054347427 824.56806)
(0.0021343303 0.005565541 824.56852)
(0.0040130687 0.0056871392 824.56955)
(0.005814664 0.005814664 824.57118)
(0.0074992861 0.0059590571 824.57341)
(0.0027686661 0.0061070512 824.57629)
(-0.0030919173 0.0053500864 824.57415)
(-0.0069630976 0.0064653396 824.57194)
(-0.0036206433 0.0068586388 824.57084)
(-0.0016108335 0.0070674876 824.57024)
(0.00033459653 0.0071972973 824.57018)
(0.0022509761 0.0072948842 824.57068)
(0.0041324482 0.0073868505 824.57175)
(0.0059590571 0.0074992861 824.57341)
(0.0076792378 0.0076792378 824.57571)
(0.0028344408 0.0080420248 824.57867)
(-0.0025374347 0.0018936652 824.57623)
(-0.0059204387 0.0024481478 824.57454)
(-0.0033146861 0.0025887711 824.57355)
(-0.0014632306 0.0026521192 824.57301)
(0.00042439439 0.002687173 824.57298)
(0.0023238836 0.0027119845 824.5735)
(0.0042174707 0.002735778 824.57459)
(0.0061070512 0.0027686661 824.57629)
(0.0080420248 0.0028344408 824.57867)
(0.0030105241 0.0030105241 824.58186)
(-0.0051247836 -0.0051247836 819.52837)
(-0.011685536 -0.0044799588 819.52553)
(-0.006445746 -0.0043345224 819.52408)
(-0.0035203345 -0.0042734605 819.52321)
(-0.00086426528 -0.0042342561 819.52291)
(0.0016108877 -0.0041964254 819.52314)
(0.0038869961 -0.0041433142 819.52392)
(0.0058687547 -0.004042102 819.5252)
(0.007268894 -0.0037963392 819.52695)
(0.0025899544 -0.0030736668 819.52902)
(-0.0044799588 -0.011685536 819.52553)
(-0.010500144 -0.010500144 819.52306)
(-0.0061359987 -0.010127949 819.52168)
(-0.0033699349 -0.0099278181 819.52085)
(-0.00074871264 -0.0097811707 819.52057)
(0.0017473006 -0.0096367022 819.52083)
(0.0041184813 -0.0094487509 819.52164)
(0.0063892172 -0.0091406604 819.52299)
(0.0087215467 -0.0085365197 819.5249)
(0.0033126267 -0.0071822381 819.52747)
(-0.0043345224 -0.006445746 819.52408)
(-0.010127949 -0.0061359987 819.52168)
(-0.0058734197 -0.0058734197 819.52037)
(-0.0031735565 -0.0056624587 819.51958)
(-0.0005731494 -0.0054781302 819.51933)
(0.0019433075 -0.0052922261 819.51964)
(0.0043830379 -0.0050742709 819.52049)
(0.0067809859 -0.0047883277 819.52191)
(0.0092273163 -0.0044060895 819.52393)
(0.0034928088 -0.0040139414 819.52661)
(-0.0042734605 -0.0035203345 819.52321)
(-0.0099278181 -0.0033699349 819.52085)
(-0.0056624587 -0.0031735565 819.51958)
(-0.0029746454 -0.0029746454 819.51884)
(-0.00037848002 -0.0027804913 819.51863)
(0.0021511598 -0.0025834306 819.51898)
(0.0046223797 -0.0023712835 819.51988)
(0.0070573986 -0.0021357681 819.52136)
(0.0094959331 -0.0018892857 819.52344)
(0.0035740588 -0.0016996493 819.52617)
(-0.0042342561 -0.00086426527 819.52291)
(-0.0097811707 -0.00074871263 819.52057)
(-0.0054781302 -0.00057314939 819.51933)
(-0.0027804913 -0.00037848002 819.51863)
(-0.00018193455 -0.00018193455 819.51847)
(0.0023525152 1.4108535e-05 819.51885)
(0.0048307003 0.00021197986 819.5198)
(0.0072629837 0.00040914093 819.52133)
(0.0096634352 0.00058732578 819.52345)
(0.0036192331 0.00070349951 819.52622)
(-0.0041964254 0.0016108877 819.52314)
(-0.0096367022 0.0017473006 819.52083)
(-0.0052922261 0.0019433075 819.51964)
(-0.0025834306 0.0021511599 819.51898)
(1.4108534e-05 0.0023525152 819.51885)
(0.0025450743 0.0025450743 819.51928)
(0.0050174121 0.0027309064 819.52027)
(0.0074327445 0.0029075623 819.52184)
(0.0097902917 0.0030600713 819.524)
(0.003651508 0.0031558201 819.52679)
(-0.0041433142 0.0038869961 819.52392)
(-0.0094487509 0.0041184813 819.52164)
(-0.0050742709 0.0043830378 819.52049)
(-0.0023712835 0.0046223797 819.51988)
(0.00021197986 0.0048307003 819.5198)
(0.0027309064 0.0050174121 819.52027)
(0.0051931883 0.0051931883 819.52131)
(0.0075921485 0.0053637003 819.52291)
(0.0099116931 0.0055225204 819.52511)
(0.0036830657 0.0056372431 819.52792)
(-0.004042102 0.0058687547 819.5252)
(-0.0091406604 0.0063892172 819.52299)
(-0.0047883277 0.0067809859 819.52191)
(-0.0021357681 0.0070573986 819.52136)
(0.00040914094 0.0072629837 819.52133)
(0.0029075623 0.0074327445 819.52184)
(0.0053637003 0.0075921485 819.52291)
(0.0077620767 0.0077620767 819.52456)
(0.010063834 0.0079586549 819.5268)
(0.0037279898 0.008164577 819.52964)
(-0.0037963392 0.007268894 819.52695)
(-0.0085365197 0.0087215467 819.5249)
(-0.0044060895 0.0092273163 819.52393)
(-0.0018892857 0.0094959331 819.52344)
(0.00058732579 0.0096634352 819.52345)
(0.0030600713 0.0097902917 819.524)
(0.0055225204 0.0099116931 819.52511)
(0.0079586548 0.010063834 819.5268)
(0.010314193 0.010314193 819.5291)
(0.0038203471 0.010829359 819.53202)
(-0.0030736668 0.0025899544 819.52902)
(-0.0071822381 0.0033126267 819.52747)
(-0.0040139414 0.0034928088 819.52661)
(-0.0016996493 0.0035740588 819.52617)
(0.00070349952 0.0036192331 819.52622)
(0.0031558201 0.003651508 819.52679)
(0.0056372431 0.0036830657 819.52792)
(0.008164577 0.0037279898 819.52964)
(0.010829359 0.0038203471 819.53202)
(0.0040714333 0.0040714333 819.53517)
(-0.0060419423 -0.0060419423 814.60775)
(-0.013754141 -0.0052782761 814.60509)
(-0.0075424527 -0.0051066157 814.60376)
(-0.0040566499 -0.0050341355 814.603)
(-0.00086260177 -0.0049871269 814.60277)
(0.0021402019 -0.0049413543 814.60307)
(0.0049281824 -0.0048767461 814.60386)
(0.0073871952 -0.0047532748 814.60515)
(0.0091689596 -0.0044529282 814.60688)
(0.0032750455 -0.0035685913 814.6089)
(-0.0052782761 -0.013754141 814.60509)
(-0.012351152 -0.012351152 814.60277)
(-0.0071762417 -0.011911247 814.60152)
(-0.0038774166 -0.011673081 814.6008)
(-0.00072343 -0.011496966 814.60059)
(0.0023057731 -0.011322156 814.6009)
(0.0052103015 -0.011093689 814.60174)
(0.0080229221 -0.010718301 814.60309)
(0.010945985 -0.0099812297 814.60498)
(0.0041593823 -0.0083275582 814.60748)
(-0.0051066157 -0.0075424527 814.60376)
(-0.011911247 -0.0071762417 814.60152)
(-0.006864382 -0.006864382 814.60033)
(-0.0036423693 -0.0066120749 814.59964)
(-0.00051167644 -0.0063900945 814.59947)
(0.0025434791 -0.0061650064 814.59982)
(0.0055320367 -0.005900233 814.6007)
(0.0084996547 -0.0055523579 814.60212)
(0.011559703 -0.0050874372 814.60411)
(0.0043774931 -0.0046126428 814.60672)
(-0.0050341355 -0.0040566499 814.603)
(-0.011673081 -0.0038774166 814.6008)
(-0.0066120749 -0.0036423693 814.59964)
(-0.003403129 -0.003403129 814.599)
(-0.00027636145 -0.0031685711 814.59887)
(0.0027956345 -0.0029296513 814.59926)
(0.00582295 -0.0026718206 814.60018)
(0.0088357179 -0.0023852687 814.60165)
(0.0118857 -0.0020854692 814.6037)
(0.0044759119 -0.0018554746 814.60636)
(-0.0049871269 -0.00086260177 814.60277)
(-0.011496966 -0.00072343 814.60059)
(-0.0063900945 -0.00051167644 814.59947)
(-0.0031685711 -0.00027636145 814.59887)
(-3.8198736e-05 -3.8198739e-05 814.59877)
(0.0030402296 0.00019993902 814.5992)
(0.0060764194 0.00044082279 814.60017)
(0.0090860061 0.00068122392 814.60169)
(0.012089497 0.0008986349 814.60378)
(0.0045308228 0.0010402757 814.60647)
(-0.0049413543 0.0021402019 814.60307)
(-0.011322156 0.0023057731 814.6009)
(-0.0061650064 0.0025434791 814.59982)
(-0.0029296513 0.0027956345 814.59926)
(0.00019993902 0.0030402296 814.5992)
(0.0032746561 0.0032746561 814.59968)
(0.0063042349 0.0035015535 814.60068)
(0.00929353 0.0037179709 814.60224)
(0.012244752 0.0039054514 814.60437)
(0.0045703391 0.0040234936 814.60708)
(-0.0048767461 0.0049281824 814.60386)
(-0.011093689 0.0052103015 814.60174)
(-0.005900233 0.0055320367 814.6007)
(-0.0026718206 0.00582295 814.60018)
(0.00044082281 0.0060764194 814.60017)
(0.0035015535 0.0063042349 814.60068)
(0.0065197342 0.0065197342 814.60173)
(0.0094899039 0.0067301894 814.60333)
(0.012395019 0.0069278235 814.60549)
(0.0046095176 0.0070717771 814.60822)
(-0.0047532748 0.0073871952 814.60515)
(-0.010718301 0.0080229221 814.60309)
(-0.0055523579 0.0084996547 814.60212)
(-0.0023852687 0.0088357179 814.60165)
(0.00068122393 0.0090860061 814.60169)
(0.0037179709 0.00929353 814.60224)
(0.0067301894 0.0094899039 814.60333)
(0.0097016194 0.0097016194 814.60497)
(0.012586339 0.0099497046 814.60717)
(0.0046663081 0.010212476 814.60993)
(-0.0044529282 0.0091689596 814.60688)
(-0.0099812297 0.010945985 814.60498)
(-0.0050874372 0.011559703 814.60411)
(-0.0020854692 0.0118857 814.6037)
(0.0008986349 0.012089497 814.60378)
(0.0039054514 0.012244752 814.60437)
(0.0069278235 0.012395019 814.60549)
(0.0099497046 0.012586339 814.60717)
(0.012905876 0.012905876 814.60943)
(0.0047846987 0.013569299 814.61227)
(-0.0035685913 0.0032750455 814.6089)
(-0.0083275582 0.0041593823 814.60748)
(-0.0046126428 0.0043774931 814.60672)
(-0.0018554746 0.0044759119 814.60636)
(0.0010402757 0.0045308228 814.60647)
(0.0040234936 0.0045703391 814.60708)
(0.0070717771 0.0046095176 814.60822)
(0.010212476 0.0046663081 814.60993)
(0.013569299 0.0047846987 814.61227)
(0.00510859 0.00510859 814.61533)
(-0.0069006433 -0.0069006433 809.80934)
(-0.015674123 -0.0060241583 809.80685)
(-0.0085292974 -0.0058277721 809.80565)
(-0.0045082735 -0.0057445668 809.80498)
(-0.00080282129 -0.0056902054 809.80482)
(0.0027010639 -0.0056369046 809.80515)
(0.0059746288 -0.0055613532 809.80596)
(0.0088839791 -0.0054166664 809.80723)
(0.011019679 -0.0050642924 809.80891)
(0.0039390521 -0.0040258849 809.81086)
(-0.0060241583 -0.015674123 809.80685)
(-0.014064816 -0.014064816 809.8047)
(-0.0081099101 -0.013561199 809.80356)
(-0.0043019234 -0.01328732 809.80293)
(-0.000641328 -0.013083438 809.80278)
(0.0028943422 -0.012879872 809.80313)
(0.0063049861 -0.012612858 809.80398)
(0.0096295702 -0.012173348 809.80531)
(0.013105852 -0.01130961 809.80714)
(0.0049774596 -0.0093707436 809.80954)
(-0.0058277721 -0.0085292974 809.80565)
(-0.013561199 -0.0081099101 809.80356)
(-0.0077518011 -0.0077518011 809.80248)
(-0.0040305125 -0.0074606441 809.80188)
(-0.00039537309 -0.0072031386 809.80177)
(0.0031716433 -0.0069409013 809.80216)
(0.006681153 -0.0066315887 809.80304)
(0.010187227 -0.0062247137 809.80443)
(0.013822283 -0.0056810365 809.80636)
(0.0052316299 -0.0051276526 809.80887)
(-0.0057445668 -0.0045082735 809.80498)
(-0.01328732 -0.0043019234 809.80293)
(-0.0074606441 -0.0040305125 809.80188)
(-0.0037532608 -0.0037532608 809.80132)
(-0.00012158519 -0.003480483 809.80125)
(0.0034658921 -0.003201815 809.80167)
(0.0070211736 -0.002900479 809.8026)
(0.010580122 -0.002565258 809.80404)
(0.014202913 -0.002214619 809.80603)
(0.0053463823 -0.0019461961 809.80858)
(-0.0056902054 -0.00080282129 809.80482)
(-0.013083438 -0.00064132799 809.80278)
(-0.0072031386 -0.00039537309 809.80177)
(-0.003480483 -0.00012158519 809.80125)
(0.00015607272 0.00015607272 809.80121)
(0.0037516472 0.00043428213 809.80167)
(0.00731771 0.00071622489 809.80264)
(0.010873087 0.00099797597 809.80413)
(0.014441345 0.0012529178 809.80616)
(0.0054105785 0.0014189026 809.80874)
(-0.0056369046 0.0027010639 809.80515)
(-0.012879872 0.0028943422 809.80313)
(-0.0069409013 0.0031716433 809.80216)
(-0.003201815 0.0034658921 809.80167)
(0.00043428213 0.0037516472 809.80167)
(0.0040260443 0.0040260443 809.80217)
(0.0075848675 0.0042922769 809.80318)
(0.011116815 0.0045468891 809.80471)
(0.014623839 0.0047680212 809.80677)
(0.0054570388 0.0049075174 809.80937)
(-0.0055613532 0.0059746288 809.80596)
(-0.012612858 0.0063049861 809.80398)
(-0.0066315887 0.006681153 809.80304)
(-0.002900479 0.0070211736 809.8026)
(0.00071622491 0.00731771 809.80264)
(0.0042922769 0.0075848675 809.80318)
(0.0078385548 0.0078385548 809.80423)
(0.011348831 0.0080875629 809.80579)
(0.014801974 0.0083227447 809.80788)
(0.005503576 0.0084949719 809.8105)
(-0.0054166664 0.0088839791 809.80723)
(-0.012173348 0.0096295702 809.80531)
(-0.0062247137 0.010187227 809.80443)
(-0.002565258 0.010580122 809.80404)
(0.00099797597 0.010873087 809.80413)
(0.0045468891 0.011116815 809.80471)
(0.0080875629 0.011348831 809.80579)
(0.011601005 0.011601005 809.80739)
(0.015031248 0.011899001 809.80952)
(0.0055718569 0.012216743 809.81218)
(-0.0050642924 0.011019679 809.80891)
(-0.01130961 0.013105852 809.80714)
(-0.0056810365 0.013822283 809.80636)
(-0.002214619 0.014202913 809.80603)
(0.0012529178 0.014441345 809.80616)
(0.0047680212 0.014623839 809.80677)
(0.0083227447 0.014801974 809.80788)
(0.011899001 0.015031248 809.80952)
(0.015417711 0.015417711 809.81171)
(0.0057154039 0.016224152 809.81444)
(-0.0040258849 0.0039390521 809.81086)
(-0.0093707436 0.0049774596 809.80954)
(-0.0051276526 0.0052316299 809.80887)
(-0.0019461961 0.0053463823 809.80858)
(0.0014189026 0.0054105785 809.80874)
(0.0049075173 0.0054570388 809.80937)
(0.0084949719 0.005503576 809.8105)
(0.012216743 0.0055718569 809.81218)
(0.016224152 0.0057154039 809.81444)
(0.0061094841 0.0061094841 809.81738)
(-0.0076993536 -0.0076993536 805.12808)
(-0.017446856 -0.0067166735 805.12578)
(-0.0094151329 -0.0064971195 805.12469)
(-0.0048863451 -0.0064038855 805.1241)
(-0.00069789802 -0.0063426328 805.124)
(0.0032778636 -0.0062822479 805.12435)
(0.0070073341 -0.0061963711 805.12515)
(0.010337201 -0.0060316476 805.12638)
(0.012799202 -0.0056301286 805.128)
(0.004575074 -0.0044461691 805.12985)
(-0.0067166735 -0.017446856 805.12578)
(-0.015643504 -0.015643504 805.12379)
(-0.0089459509 -0.01508026 805.12276)
(-0.0046546151 -0.014772995 805.12221)
(-0.00051544162 -0.014543086 805.12212)
(0.0034972563 -0.014312469 805.12249)
(0.0073832345 -0.014009095 805.12332)
(0.011186564 -0.013509042 805.12461)
(0.01517742 -0.012525697 805.12637)
(0.0057590335 -0.010317542 805.12865)
(-0.0064971195 -0.0094151329 805.12469)
(-0.01508026 -0.0089459509 805.12276)
(-0.0085446236 -0.0085446236 805.12178)
(-0.0043491717 -0.0082171267 805.12126)
(-0.00023737156 -0.0079262991 805.1212)
(0.0038118549 -0.0076291036 805.12161)
(0.0078107609 -0.0072777814 805.12248)
(0.011820599 -0.0068152074 805.12383)
(0.015990702 -0.0061971952 805.12568)
(0.0060471772 -0.0055697521 805.12806)
(-0.0064038855 -0.0048863451 805.1241)
(-0.014772995 -0.0046546151 805.12221)
(-0.0082171266 -0.0043491717 805.12126)
(-0.0040362907 -0.0040362907 805.12078)
(7.2581436e-05 -0.0037276004 805.12075)
(0.0041457741 -0.0034114852 805.1212)
(0.0081971307 -0.0030690801 805.12211)
(0.01226715 -0.002687874 805.12351)
(0.016422875 -0.0022892079 805.12541)
(0.0061773289 -0.0019845287 805.12783)
(-0.0063426328 -0.00069789801 805.124)
(-0.014543086 -0.00051544162 805.12212)
(-0.0079262991 -0.00023737155 805.1212)
(-0.0037276004 7.258144e-05 805.12075)
(0.00038743393 0.00038743394 805.12077)
(0.0044703752 0.0007034649 805.12124)