/*--------------------------------*- C++ -*----------------------------------*\
| =========                 |                                                 |
| \\      /  F ield         | OpenFOAM: The Open Source CFD Toolbox           |
|  \\    /   O peration     | Version:  v2106                                 |
|   \\  /    A nd           | Website:  www.openfoam.com                      |
|    \\/     M anipulation  |                                                 |
\*---------------------------------------------------------------------------*/
FoamFile
{
    version     2.0;
    format      ascii;
    arch        "LSB;label=32;scalar=64";
    class       volScalarField;
    location    "65";
    object      gradTx;
}
// * * * * * * * * * * * * * * * * * * * * * * * * * * * * * * * * * * * * * //

dimensions      [0 -1 0 1 0 0 0];

internalField   nonuniform List<scalar> 
4000
(
-0.00044000593
-0.00096682246
-0.00048694794
-0.00026395374
-8.4516881e-05
7.1593193e-05
0.00020483234
0.00030215667
0.00032281285
0.00010213187
-0.00039012834
-0.00087466627
-0.00046287636
-0.00025327324
-7.695214e-05
8.0135836e-05
0.00021881708
0.0003316133
0.00039282862
0.00013521004
-0.00037856847
-0.00084573144
-0.00044373398
-0.00023994599
-6.5588277e-05
9.2487923e-05
0.00023524505
0.00035577564
0.00042534401
0.00014721864
-0.00037408062
-0.0008314523
-0.00042937251
-0.00022690209
-5.313826e-05
0.00010558188
0.00025020996
0.00037305844
0.0004424249
0.00015247816
-0.00037144813
-0.00082172367
-0.00041736283
-0.00021445683
-4.0697345e-05
0.00011821113
0.00026320173
0.00038586024
0.00045290377
0.0001553215
-0.00036903746
-0.00081252371
-0.00040555863
-0.00020201116
-2.8399681e-05
0.00013019562
0.00027472384
0.00039624894
0.00046061587
0.00015727701
-0.00036575304
-0.00080082896
-0.00039191678
-0.00018873361
-1.6083612e-05
0.0001416317
0.00028534206
0.00040561813
0.00046750694
0.00015902118
-0.0003597143
-0.000782111
-0.00037416575
-0.00017405449
-3.8857949e-06
0.00015233596
0.000295255
0.00041481384
0.00047491029
0.00016103865
-0.00034611528
-0.00074720998
-0.00035047165
-0.00015864901
7.1068846e-06
0.00016138959
0.00030390698
0.00042392818
0.00048387549
0.00016385734
-0.00031303712
-0.00067957984
-0.00032456947
-0.00014649472
1.4305155e-05
0.00016693912
0.00030954944
0.00043118241
0.00049369032
0.00016758186
-0.0019201115
-0.0043038735
-0.0022810312
-0.0012572164
-0.00039665452
0.0003641021
0.0010221432
0.001522364
0.0016956196
0.00055635577
-0.0016786389
-0.0038613928
-0.0021691303
-0.0012065329
-0.00035997312
0.00040589678
0.0010915371
0.0016752724
0.0021134118
0.00076309582
-0.0016251243
-0.0037271287
-0.0020790387
-0.0011424222
-0.00030475055
0.00046618779
0.0011720092
0.0017942082
0.0022709541
0.00082042827
-0.0016040383
-0.0036594004
-0.0020099774
-0.0010791625
-0.00024412349
0.00053007958
0.0012451135
0.0018786752
0.0023541627
0.00084595068
-0.0015913353
-0.0036123344
-0.0019516684
-0.0010185758
-0.00018345848
0.00059172689
0.0013085706
0.0019412168
0.0024053308
0.00085982541
-0.001579584
-0.0035674964
-0.0018941277
-0.00095787047
-0.00012343173
0.00065027293
0.0013649105
0.0019920665
0.0024431159
0.00086941229
-0.0015634722
-0.0035102488
-0.0018274856
-0.00089303674
-6.3265128e-05
0.00070620974
0.0014169656
0.002038174
0.0024772121
0.00087808026
-0.0015333215
-0.0034176305
-0.0017405514
-0.00082130909
-3.6347029e-06
0.00075866793
0.0014658262
0.0020840333
0.0025148864
0.00088852185
-0.0014615333
-0.0032384047
-0.0016240828
-0.0007460281
5.0126165e-05
0.00080316695
0.0015089323
0.0021308954
0.0025639378
0.00090465598
-0.0012547933
-0.0028422959
-0.0014998005
-0.0006869324
8.5318574e-05
0.00083054922
0.0015375967
0.0021707589
0.0026292744
0.00093207962
-0.0030974392
-0.0070347106
-0.0038489301
-0.002134663
-0.0006389442
0.00071221382
0.0019115124
0.0028912497
0.0034612444
0.0012030893
-0.0027082862
-0.0063195102
-0.0036638852
-0.0020478937
-0.00057454962
0.00078655954
0.0020360831
0.0031687232
0.0042293495
0.0015844597
-0.0026206389
-0.0060972021
-0.0035108
-0.0019365186
-0.00047722996
0.0008936403
0.0021795631
0.0033808853
0.0045064292
0.0016841327
-0.002584923
-0.0059813802
-0.0033909283
-0.0018254507
-0.00036999568
0.0010071266
0.0023096632
0.0035311226
0.0046534458
0.0017289215
-0.0025627926
-0.0058990577
-0.0032883571
-0.0017183541
-0.00026238077
0.0011167516
0.0024226712
0.0036425246
0.0047444183
0.0017535322
-0.0025419933
-0.0058196659
-0.0031863744
-0.0016106015
-0.00015564119
0.0012210736
0.0025232949
0.0037335635
0.0048122053
0.00177075
-0.0025132288
-0.0057176312
-0.00306779
-0.0014952428
-4.8433762e-05
0.0013210554
0.0026168497
0.0038171652
0.0048748001
0.0017868241
-0.0024589462
-0.0055516152
-0.0029127942
-0.0013674933
5.7990479e-05
0.0014152521
0.0027057608
0.0039028017
0.0049482922
0.0018079232
-0.0023282465
-0.0052279956
-0.0027053906
-0.0012336035
0.00015400713
0.001495696
0.002786088
0.0039961133
0.0050589024
0.0018473512
-0.0019468761
-0.0045064305
-0.002488698
-0.0011295041
0.00021675
0.0015456338
0.0028418476
0.004086904
0.0052670138
0.0019466641
-0.004147427
-0.0094575476
-0.0052235139
-0.0028850677
-0.00079375126
0.0011299088
0.002873347
0.0043572364
0.0053500864
0.0018936652
-0.0036270821
-0.0085005957
-0.0049737567
-0.002765347
-0.00070310356
0.0012358593
0.0030521598
0.0047578778
0.0064653396
0.0024481478
-0.0035094591
-0.0082004345
-0.0047637938
-0.0026100703
-0.00056567736
0.0013882573
0.0032571575
0.0050612274
0.0068586388
0.0025887711
-0.0034605773
-0.0080408756
-0.004596835
-0.0024538357
-0.00041372555
0.0015498129
0.0034427828
0.0052755635
0.0070674876
0.0026521192
-0.0034296453
-0.0079254371
-0.0044522825
-0.0023021855
-0.00026075083
0.001706094
0.0036041776
0.0054347427
0.0071972973
0.002687173
-0.0034001455
-0.0078128017
-0.004307457
-0.0021489092
-0.0001085884
0.0018551828
0.003748369
0.0055655409
0.0072948842
0.0027119845
-0.0033590116
-0.0076670887
-0.0041383289
-0.0019843488
4.4619055e-05
0.0019985796
0.0038833252
0.0056871392
0.0073868505
0.002735778
-0.0032809369
-0.0074289911
-0.003916834
-0.0018018891
0.00019699778
0.0021343303
0.0040130687
0.005814664
0.0074992861
0.0027686661
-0.0030919173
-0.0069630976
-0.0036206433
-0.0016108335
0.00033459653
0.0022509761
0.0041324482
0.0059590571
0.0076792378
0.0028344408
-0.0025374347
-0.0059204387
-0.0033146861
-0.0014632306
0.00042439439
0.0023238836
0.0042174707
0.0061070512
0.0080420248
0.0030105241
-0.0051247836
-0.011685536
-0.006445746
-0.0035203345
-0.00086426528
0.0016108877
0.0038869961
0.0058687547
0.007268894
0.0025899544
-0.0044799588
-0.010500144
-0.0061359987
-0.0033699349
-0.00074871264
0.0017473006
0.0041184813
0.0063892172
0.0087215467
0.0033126267
-0.0043345224
-0.010127949
-0.0058734197
-0.0031735565
-0.0005731494
0.0019433075
0.0043830379
0.0067809859
0.0092273163
0.0034928088
-0.0042734605
-0.0099278181
-0.0056624587
-0.0029746454
-0.00037848002
0.0021511598
0.0046223797
0.0070573986
0.0094959331
0.0035740588
-0.0042342561
-0.0097811707
-0.0054781302
-0.0027804913
-0.00018193455
0.0023525152
0.0048307003
0.0072629837
0.0096634352
0.0036192331
-0.0041964254
-0.0096367022
-0.0052922261
-0.0025834306
1.4108534e-05
0.0025450743
0.0050174121
0.0074327445
0.0097902917
0.003651508
-0.0041433142
-0.0094487509
-0.0050742709
-0.0023712835
0.00021197986
0.0027309064
0.0051931883
0.0075921485
0.0099116931
0.0036830657
-0.004042102
-0.0091406604
-0.0047883277
-0.0021357681
0.00040914094
0.0029075623
0.0053637003
0.0077620767
0.010063834
0.0037279898
-0.0037963392
-0.0085365197
-0.0044060895
-0.0018892857
0.00058732579
0.0030600713
0.0055225204
0.0079586548
0.010314193
0.0038203471
-0.0030736668
-0.0071822381
-0.0040139414
-0.0016996493
0.00070349952
0.0031558201
0.0056372431
0.008164577
0.010829359
0.0040714333
-0.0060419423
-0.013754141
-0.0075424527
-0.0040566499
-0.00086260177
0.0021402019
0.0049281824
0.0073871952
0.0091689596
0.0032750455
-0.0052782761
-0.012351152
-0.0071762417
-0.0038774166
-0.00072343
0.0023057731
0.0052103015
0.0080229221
0.010945985
0.0041593823
-0.0051066157
-0.011911247
-0.006864382
-0.0036423693
-0.00051167644
0.0025434791
0.0055320367
0.0084996547
0.011559703
0.0043774931
-0.0050341355
-0.011673081
-0.0066120749
-0.003403129
-0.00027636145
0.0027956345
0.00582295
0.0088357179
0.0118857
0.0044759119
-0.0049871269
-0.011496966
-0.0063900945
-0.0031685711
-3.8198736e-05
0.0030402296
0.0060764194
0.0090860061
0.012089497
0.0045308228
-0.0049413543
-0.011322156
-0.0061650064
-0.0029296513
0.00019993902
0.0032746561
0.0063042349
0.00929353
0.012244752
0.0045703391
-0.0048767461
-0.011093689
-0.005900233
-0.0026718206
0.00044082281
0.0035015535
0.0065197342
0.0094899039
0.012395019
0.0046095176
-0.0047532748
-0.010718301
-0.0055523579
-0.0023852687
0.00068122393
0.0037179709
0.0067301894
0.0097016194
0.012586339
0.0046663081
-0.0044529282
-0.0099812297
-0.0050874372
-0.0020854692
0.0008986349
0.0039054514
0.0069278235
0.0099497046
0.012905876
0.0047846987
-0.0035685913
-0.0083275582
-0.0046126428
-0.0018554746
0.0010402757
0.0040234936
0.0070717771
0.010212476
0.013569299
0.00510859
-0.0069006433
-0.015674123
-0.0085292974
-0.0045082735
-0.00080282129
0.0027010639
0.0059746288
0.0088839791
0.011019679
0.0039390521
-0.0060241583
-0.014064816
-0.0081099101
-0.0043019234
-0.000641328
0.0028943422
0.0063049861
0.0096295702
0.013105852
0.0049774596
-0.0058277721
-0.013561199
-0.0077518011
-0.0040305125
-0.00039537309
0.0031716433
0.006681153
0.010187227
0.013822283
0.0052316299
-0.0057445668
-0.01328732
-0.0074606441
-0.0037532608
-0.00012158519
0.0034658921
0.0070211736
0.010580122
0.014202913
0.0053463823
-0.0056902054
-0.013083438
-0.0072031386
-0.003480483
0.00015607272
0.0037516472
0.00731771
0.010873087
0.014441345
0.0054105785
-0.0056369046
-0.012879872
-0.0069409013
-0.003201815
0.00043428213
0.0040260443
0.0075848675
0.011116815
0.014623839
0.0054570388
-0.0055613532
-0.012612858
-0.0066315887
-0.002900479
0.00071622491
0.0042922769
0.0078385548
0.011348831
0.014801974
0.005503576
-0.0054166664
-0.012173348
-0.0062247137
-0.002565258
0.00099797597
0.0045468891
0.0080875629
0.011601005
0.015031248
0.0055718569
-0.0050642924
-0.01130961
-0.0056810365
-0.002214619
0.0012529178
0.0047680212
0.0083227447
0.011899001
0.015417711
0.0057154039
-0.0040258849
-0.0093707436
-0.0051276526
-0.0019461961
0.0014189026
0.0049075173
0.0084949719
0.012216743
0.016224152
0.0061094841
-0.0076993536
-0.017446856
-0.0094151329
-0.0048863451
-0.00069789802
0.0032778636
0.0070073341
0.010337201
0.012799202
0.004575074
-0.0067166735
-0.015643504
-0.0089459509
-0.0046546151
-0.00051544162
0.0034972563
0.0073832345
0.011186564
0.01517742
0.0057590335
-0.0064971195
-0.01508026
-0.0085446236
-0.0043491717
-0.00023737156
0.0038118549
0.0078107609
0.011820599
0.015990702
0.0060471772
-0.0064038855
-0.014772995
-0.0082171266
-0.0040362907
7.2581436e-05
0.0041457741
0.0081971307
0.01226715
0.016422875
0.0061773289
-0.0063426328
-0.014543086
-0.0079262991
-0.0037276004
0.00038743393
0.0044703752
0.008534372
0.012600471
0.016694047
0.0062502967
-0.0062822479
-0.014312469
-0.0076291036
-0.0034114852
0.00070346489
0.0047825785
0.0088388092
0.012878545
0.016902387
0.006303344
-0.0061963711
-0.014009095
-0.0072777814
-0.0030690801
0.0010242384
0.005086106
0.0091287975
0.013144508
0.017107088
0.0063568981
-0.0060316476
-0.013509042
-0.0068152074
-0.002687874
0.0013451434
0.005377004
0.0094145576
0.013435343
0.017372664
0.0064361696
-0.0056301286
-0.012525697
-0.0061971952
-0.0022892079
0.0016356325
0.0056301434
0.0096855961
0.013781095
0.01782317
0.0066037845
-0.0044461691
-0.010317542
-0.0055697521
-0.0019845287
0.0018246551
0.0057900454
0.0098848346
0.014151424
0.018766399
0.0070649892
-0.0084354928
-0.019069913
-0.010204895
-0.0051992178
-0.00055879442
0.0038571408
0.0080104622
0.011729424
0.014490452
0.0051777015
-0.0073538486
-0.017085854
-0.0096895001
-0.0049439273
-0.0003568176
0.0041009188
0.0084289463
0.012675861
0.017141927
0.0064978567
-0.0071127869
-0.0164673
-0.0092481108
-0.0046068832
-4.8845624e-05
0.0044503282
0.0089044668
0.01338128
0.018045635
0.0068176935
-0.0070102523
-0.016129071
-0.0088868849
-0.0042608733
0.00029480988
0.004821288
0.0093341594
0.01387799
0.018525958
0.0069622201
-0.0069425932
-0.015874965
-0.0085650569
-0.0039187259
0.00064437469
0.0051822022
0.0097094925
0.014249088
0.018827765
0.0070433907
-0.0068756011
-0.015619122
-0.0082352574
-0.003567653
0.00099576418
0.0055298084
0.010048889
0.014559397
0.019060366
0.0071026197
-0.0067800746
-0.015281778
-0.0078446877
-0.0031868518
0.0013528951
0.0058683271
0.010373009
0.014857334
0.019290114
0.007162791
-0.0065966117
-0.014725117
-0.0073300443
-0.0027626273
0.0017104942
0.0061933245
0.010693408
0.015184693
0.019590028
0.0072524642
-0.0061491168
-0.013629922
-0.0066425586
-0.0023190435
0.0020343026
0.0064765733
0.010998304
0.015575648
0.020101217
0.0074428893
-0.0048289616
-0.011169934
-0.0059460135
-0.0019804976
0.0022449019
0.0066556738
0.011223071
0.015995796
0.021174116
0.0079677306
-0.0091062492
-0.02053943
-0.010901293
-0.0054530991
-0.00039444331
0.004427655
0.0089708876
0.01304639
0.016079388
0.0057424332
-0.0079334375
-0.018389011
-0.010343492
-0.0051761696
-0.00017447974
0.0046939609
0.0094287597
0.014082657
0.018983813
0.0071886715
-0.0076726372
-0.017719726
-0.0098653644
-0.0048100864
0.00016104464
0.0050755151
0.0099486449
0.014854067
0.019971021
0.0075377472
-0.0075615705
-0.017353083
-0.0094731551
-0.0044335877
0.00053578121
0.0054806918
0.010418392
0.015397154
0.020495829
0.0076955444
-0.0074880175
-0.017076713
-0.0091227825
-0.0040605931
0.00091740019
0.0058751855
0.010828981
0.015803225
0.020825982
0.0077843008
-0.0074149281
-0.016797595
-0.0087628941
-0.0036772322
0.0013014898
0.0062555805
0.011200797
0.016143451
0.021081103
0.0078492665
-0.0073104802
-0.016428853
-0.0083360517
-0.0032609228
0.0016922889
0.0066265623
0.011556644
0.01647116
0.0213342
0.0079156092
-0.00710968
-0.015819838
-0.0077732616
-0.002796896
0.0020838947
0.0069832433
0.011909323
0.01683264
0.02166625
0.0080150239
-0.0066196352
-0.014621175
-0.0070215548
-0.0023117653
0.0024385858
0.0072944977
0.012245833
0.01726593
0.022234358
0.0082268553
-0.0051733969
-0.011928204
-0.0062612454
-0.001941935
0.002669169
0.0074914604
0.012494469
0.017732799
0.023429005
0.008811455
-0.0097089244
-0.021851198
-0.011505798
-0.0056526426
-0.00021204002
0.0049801326
0.0098777302
0.014276248
0.017554181
0.006265431
-0.0084532514
-0.019549687
-0.010909612
-0.0053560989
2.4288453e-05
0.0052669922
0.010371584
0.015394623
0.020689895
0.0078269658
-0.0081745838
-0.018834503
-0.01039824
-0.0049636711
0.00038488343
0.0056778608
0.010931969
0.016226279
0.021753238
0.0082026733
-0.0080557942
-0.018442129
-0.0099779334
-0.0045594646
0.00078792785
0.0061142532
0.011438288
0.016811709
0.022318626
0.008372566
-0.007976888
-0.018145532
-0.0096016057
-0.0041583816
0.0011987798
0.0065394128
0.011881102
0.017249751
0.022674681
0.0084682494
-0.0078982418
-0.017845205
-0.009214294
-0.0037455683
0.0016127356
0.0069497978
0.012282606
0.017617398
0.022950447
0.0085384734
-0.0077856483
-0.017447804
-0.0087543447
-0.0032968296
0.0020343244
0.0073505231
0.012667582
0.017972491
0.023225046
0.0086105033
-0.007569006
-0.016790966
-0.0081475896
-0.0027964361
0.0024570534
0.0077362786
0.013049976
0.018365472
0.023586826
0.0087189388
-0.0070400648
-0.015497772
-0.0073372584
-0.0022733574
0.0028400126
0.0080732627
0.013415657
0.018837959
0.024207742
0.0089506427
-0.00547853
-0.012591909
-0.0065188581
-0.0018749931
0.0030888736
0.0082866436
0.013686355
0.019348168
0.025515484
0.0095907664
-0.010241098
-0.023001238
-0.012019233
-0.0058014174
-1.7390187e-05
0.0055069455
0.010721964
0.015409093
0.0189048
0.0067434068
-0.0089113175
-0.020564709
-0.011388876
-0.0054873789
0.0002336012
0.0058122808
0.011248209
0.016601433
0.022248959
0.0084088619
-0.0086167451
-0.019808689
-0.010847911
-0.0050714251
0.00061666416
0.0062494874
0.011845025
0.017487283
0.023380689
0.0088084611
-0.008491079
-0.019393387
-0.010402524
-0.0046424223
0.0010451055
0.0067139377
0.012384245
0.018110806
0.023982546
0.0089892133
-0.0084073861
-0.019078696
-0.010002954
-0.0042161459
0.0014822233
0.0071666918
0.012856081
0.018577649
0.024361922
0.0090911294
-0.0083237514
-0.018759333
-0.00959102
-0.0037768631
0.0019230574
0.0076041081
0.013284383
0.018970067
0.024656343
0.0091661043
-0.0082038293
-0.018336154
-0.0091012975
-0.0032989415
0.0023723937
0.0080316933
0.013695724
0.019349999
0.024950478
0.0092433051
-0.0079729211
-0.017636272
-0.0084549842
-0.0027658064
0.0028231948
0.0084437508
0.014105094
0.019771674
0.025339406
0.009359988
-0.0074089363
-0.016257964
-0.0075919243
-0.0022085755
0.0032316547
0.0088040432
0.014497331
0.020279991
0.02600871
0.0096099152
-0.0057434812
-0.013160383
-0.0067213973
-0.0017845731
0.0034969912
0.0090323068
0.014788157
0.020829906
0.027420239
0.010301007
-0.010700714
-0.023986114
-0.012442148
-0.0059022602
0.00018477936
0.0060018162
0.011496111
0.01643666
0.020122775
0.007173564
-0.0093059634
-0.021431334
-0.011781997
-0.0055729285
0.00044866216
0.0063234601
0.012051002
0.017694462
0.023651528
0.0089310596
-0.0089975264
-0.020639732
-0.011215228
-0.0051363753
0.00085148539
0.0067839027
0.012680001
0.018628195
0.02484357
0.0093516983
-0.0088658626
-0.020204414
-0.010747894
-0.0046856024
0.0013022933
0.0072731182
0.013248293
0.019285375
0.025477612
0.0095420225
-0.0087779719
-0.019873847
-0.010327902
-0.0042371457
0.001762584
0.0077502604
0.013745808
0.019777707
0.025877612
0.0096494464
-0.0086899407
-0.019537708
-0.0098942627
-0.0037745038
0.0022271765
0.0082116138
0.014197876
0.02019212
0.026188605
0.0097286412
-0.0085635426
-0.01909176
-0.0093782443
-0.0032707881
0.0027010796
0.0086630373
0.014632681
0.020594213
0.026500203
0.0098104688
-0.0083200139
-0.018353818
-0.0086969711
-0.002708697
0.0031767597
0.0090984865
0.015066143
0.021041618
0.026913549
0.0099345802
-0.0077250077
-0.016900225
-0.0077873318
-0.0021212766
0.0036078247
0.0094795432
0.015482178
0.021582198
0.027626549
0.01020098
-0.0059675122
-0.013633024
-0.0068708875
-0.0016746544
0.0038877527
0.0097210767
0.015791087
0.022167964
0.029131976
0.010938199
-0.011086131
-0.024803121
-0.012775063
-0.0059575331
0.00039057009
0.0064595759
0.012194011
0.017352114
0.02120106
0.0075535642
-0.0096358653
-0.022147425
-0.012089631
-0.005615177
0.00066551521
0.0067952881
0.01277367
0.018666582
0.024889717
0.0093908037
-0.0093156673
-0.021325658
-0.011500959
-0.0051610408
0.0010853038
0.0072757606
0.013430464
0.019641671
0.026133733
0.0098295386
-0.0091789108
-0.020873321
-0.011014904
-0.0046916193
0.0015553484
0.0077863372
0.014023866
0.020327921
0.02679553
0.010028105
-0.0090874299
-0.020529166
-0.010577401
-0.0042240939
0.0020356147
0.0082845496
0.014543596
0.020842311
0.027213367
0.010140287
-0.0089956141
-0.020178588
-0.010125071
-0.0037413085
0.0025207368
0.0087666339
0.01501629
0.021275838
0.027538767
0.010223151
-0.0088636219
-0.019712981
-0.0095863523
-0.003215305
0.0030159114
0.0092387599
0.015471539
0.021697303
0.027865668
0.010309038
-0.008609175
-0.018942135
-0.008874875
-0.0026281762
0.0035131609
0.0096945772
0.01592609
0.022167341
0.028300573
0.01043972
-0.0079873096
-0.017423424
-0.0079250136
-0.0020146654
0.0039638293
0.010093752
0.016363042
0.022736447
0.029052345
0.010720752
-0.0061500701
-0.014009462
-0.0069690618
-0.0015485424
0.0042563979
0.010346878
0.016687896
0.023354019
0.030641277
0.011499008
-0.011396152
-0.025450399
-0.013018631
-0.00596931
0.00059671936
0.0068759768
0.012810644
0.018149906
0.022133926
0.0078815045
-0.009900075
-0.022711574
-0.012312535
-0.0056162505
0.00088085278
0.0072234588
0.013411092
0.019512011
0.025957141
0.0097858627
-0.0095702686
-0.02186518
-0.011705946
-0.0051476172
0.0013147436
0.0077206738
0.014091177
0.020521762
0.027244586
0.01023968
-0.0094293447
-0.02139889
-0.011204471
-0.004662743
0.001800817
0.0082491198
0.014705624
0.021232376
0.027929599
0.010445126
-0.0093348956
-0.021043487
-0.010752438
-0.0041793378
0.0022977793
0.0087649965
0.015244014
0.021765301
0.028362408
0.010561298
-0.0092399224
-0.020680865
-0.010284507
-0.0036797073
0.0028001162
0.009264517
0.015734101
0.022214979
0.028699991
0.010647263
-0.0091032409
-0.02019879
-0.0097267775
-0.0031350151
0.0033131765
0.0097541193
0.016206686
0.022652937
0.029039962
0.010736623
-0.0088396232
-0.019400332
-0.0089899754
-0.0025268706
0.0038285932
0.01022719
0.016679223
0.023142403
0.029493463
0.010872985
-0.0081951714
-0.017826935
-0.0080064124
-0.0018914759
0.0042957799
0.010641756
0.01713411
0.023736157
0.030278886
0.011166736
-0.0062908132
-0.014289672
-0.0070175176
-0.0014090492
0.0045989851
0.010904744
0.017472694
0.024381327
0.031940498
0.011980727
-0.011630035
-0.025927007
-0.013173748
-0.00593951
0.00080045627
0.0072475479
0.013341997
0.018825666
0.022916897
0.0081559014
-0.010098035
-0.023123165
-0.012451678
-0.0055781044
0.0010918718
0.0076044596
0.013959183
0.020226206
0.026848839
0.010114512
-0.0097608073
-0.022257766
-0.011831216
-0.0050981088
0.0015369527
0.0081150704
0.014657972
0.021263804
0.028171022
0.010580347
-0.0096166552
-0.021780633
-0.011317675
-0.0046010309
0.0020357907
0.0086578303
0.015289325
0.02199399
0.028874629
0.010791287
-0.0095198702
-0.021416365
-0.010854143
-0.0041049907
0.0025461095
0.009187901
0.015842749
0.02254186
0.029319494
0.010910665
-0.0094223782
-0.021044136
-0.010373757
-0.0035918741
0.0030622832
0.0097014977
0.016346932
0.023004661
0.029666986
0.010999153
-0.0092819291
-0.020548842
-0.0098007721
-0.00303216
0.0035897769
0.010205282
0.016833674
0.023456167
0.030017741
0.011091386
-0.0090109204
-0.019728161
-0.0090436144
-0.0024070979
0.0041198903
0.010692423
0.017321017
0.023961769
0.030486788
0.011232511
-0.0083482358
-0.018110704
-0.0080329878
-0.0017541037
0.0046004484
0.011119589
0.017790782
0.024576179
0.031300581
0.011537006
-0.0063896255
-0.014474035
-0.0070178245
-0.0012586266
0.0049122471
0.01139067
0.018140819
0.02524461
0.033023698
0.012381256
-0.011787505
-0.026232956
-0.013241626
-0.0058699928
0.00099939466
0.0075714857
0.013784964
0.019376111
0.023546689
0.0083756771
-0.010229586
-0.023382412
-0.012508311
-0.005502619
0.0012961667
0.0079354609
0.01441479
0.020805778
0.027561219
0.010375518
-0.009887143
-0.022503678
-0.011878054
-0.0050144241
0.001749496
0.0084560843
0.015127646
0.021864333
0.028909358
0.010850278
-0.0097407098
-0.02201884
-0.01135583
-0.0045084232
0.0022577999
0.0090095628
0.015771717
0.022609245
0.02962689
0.011065312
-0.0096422271
-0.021648109
-0.010883858
-0.0040030268
0.0027780982
0.0095503164
0.016336506
0.023168426
0.030080858
0.011187105
-0.0095428617
-0.021268739
-0.010394196
-0.003479821
0.0033046904
0.010074586
0.016851444
0.023641281
0.030435955
0.011277528
-0.0093995771
-0.020763511
-0.0098097563
-0.0029087947
0.0038431216
0.010589214
0.017349115
0.024103341
0.030795168
0.011372022
-0.0091229781
-0.019926057
-0.0090372687
-0.0022709613
0.0043844167
0.011087195
0.017848034
0.024621725
0.031276649
0.011516974
-0.0084464656
-0.018275289
-0.0080062898
-0.0016047013
0.0048751583
0.011524129
0.018329558
0.025252713
0.032113408
0.01183019
-0.006446625
-0.014563388
-0.0069715976
-0.0010994615
0.0051934822
0.011801505
0.018688727
0.025939965
0.03388658
0.012699089
-0.011868747
-0.026369224
-0.013223836
-0.0057626249
0.0011914538
0.007845571
0.014137267
0.019798983
0.024021159
0.008540146
-0.010294965
-0.023490381
-0.012484016
-0.005391666
0.00149165
0.0082142327
0.014775612
0.021248422
0.028091999
0.010568126
-0.0099495181
-0.022603992
-0.011848047
-0.0048984423
0.0019502755
0.0087414709
0.015497878
0.022321011
0.029457282
0.011048709
-0.0098017522
-0.022114592
-0.011320529
-0.0043868093
0.0024647333
0.0093020563
0.01615046
0.023075781
0.030184049
0.011266433
-0.0097022122
-0.021739809
-0.01084319
-0.0038753487
0.0029916187
0.0098499636
0.016722925
0.02364262
0.030644155
0.011389843
-0.0096016214
-0.02135577
-0.010347446
-0.0033454662
0.0035251932
0.010381484
0.017245253
0.024122439
0.031004536
0.011481612
-0.0094564377
-0.020843909
-0.0097553665
-0.002766856
0.0040710459
0.010903593
0.017750601
0.02459203
0.031369856
0.011577747
-0.009176058
-0.019995159
-0.0089725978
-0.0021204189
0.004619986
0.011409159
0.018257831
0.025119801
0.031860615
0.011725577
-0.0084901451
-0.018321881
-0.0079280071
-0.0014452474
0.0051177038
0.011853003
0.018747963
0.025763231
0.032714851
0.012045458
-0.0064621649
-0.014559036
-0.0068805473
-0.00093354585
0.0054404727
0.01213486
0.019113911
0.026464796
0.034526433
0.012933299
-0.011874404
-0.026337759
-0.013122334
-0.0056193262
0.0013747989
0.0080681022
0.014397386
0.020092986
0.024339261
0.0086490021
-0.0102948
-0.023448982
-0.012380731
-0.0052471552
0.0016764925
0.0084390783
0.015040138
0.021552853
0.028440163
0.010692045
-0.0099485526
-0.022560594
-0.011743113
-0.004752061
0.0021374704
0.0089695405
0.015767162
0.02263257
0.029813801
0.011175358
-0.0098003982
-0.022069761
-0.011213678
-0.0042380764
0.0026547781
0.0095336277
0.016424056
0.023392338
0.030545126
0.01139437
-0.0097004387
-0.021693329
-0.010734034
-0.0037238355
0.0031848641
0.010085164
0.017000512
0.023963184
0.031008407
0.011518605
-0.0095992692
-0.021307089
-0.010235393
-0.0031906826
0.0037219889
0.010620513
0.017526865
0.024446875
0.031371749
0.011611127
-0.0094531213
-0.020791891
-0.0096394846
-0.0026082119
0.0042717494
0.011146741
0.018036631
0.024920967
0.031740817
0.011708284
-0.0091707677
-0.019937313
-0.0088514752
-0.0019573329
0.0048247988
0.011656632
0.018548899
0.025454714
0.032237678
0.011858033
-0.0084798763
-0.018252307
-0.0078
-0.0012775975
0.0053262862
0.012104524
0.01904447
0.026106417
0.033103849
0.012182503
-0.0064368332
-0.014462773
-0.0067465123
-0.00076272723
0.0056514213
0.012389042
0.019414828
0.026817746
0.034942081
0.01308352
-0.011805563
-0.02614146
-0.012939482
-0.0054421017
0.0015477957
0.0082378422
0.014564504
0.020257734
0.024500999
0.0087023055
-0.010230104
-0.023260969
-0.012200766
-0.0050710672
0.0018490772
0.0086087798
0.015207583
0.021718757
0.028605909
0.01074743
-0.0098852359
-0.022376176
-0.011565518
-0.0045772289
0.0023094902
0.0091391033
0.015934754
0.022798749
0.02997919
0.01123041
-0.0097376267
-0.021887005
-0.011037509
-0.0040641423
0.0028263721
0.0097031162
0.01659179
0.023558695
0.030710435
0.011449323
-0.0096378795
-0.021511303
-0.010558593
-0.0035503766
0.0033562997
0.010254783
0.01716858
0.024129925
0.03117395
0.011573593
-0.0095367724
-0.02112531
-0.010060214
-0.0030173328
0.0038935679
0.010790563
0.017695615
0.024614413
0.031537943
0.01166628
-0.0093905878
-0.020610042
-0.0094642564
-0.0024346965
0.0044437464
0.011317565
0.018206556
0.025089986
0.031908406
0.011763838
-0.0091080533
-0.019755061
-0.0086760068
-0.0017835065
0.0049973926
0.011828539
0.018720596
0.025626299
0.032408191
0.011914548
-0.0084165721
-0.018069027
-0.0076243189
-0.0011035207
0.0054994642
0.012277627
0.019218443
0.026282104
0.033280743
0.012241526
-0.0063714472
-0.01427687
-0.0065714806
-0.00058874671
0.0058249009
0.012562995
0.019590844
0.026998637
0.03513382
0.013149933
-0.011663745
-0.025784153
-0.012678043
-0.0052330647
0.0017089736
0.0083539719
0.01463846
0.020293696
0.024507378
0.0087004674
-0.010102258
-0.022929908
-0.011946809
-0.0048654764
0.0020079627
0.0087225518
0.015277841
0.02174673
0.02859059
0.010734867
-0.0097609146
-0.022054211
-0.011317879
-0.0043759697
0.0024649374
0.0092494221
0.01600061
0.022820242
0.029954936
0.011214498
-0.0096147688
-0.021569745
-0.010794584
-0.0038669806
0.0029781659
0.0098098351
0.016653681
0.023575613
0.030681528
0.011431943
-0.0095158557
-0.021197116
-0.010319384
-0.0033568978
0.0035046232
0.010358182
0.017227194
0.024143651
0.031142378
0.011555472
-0.0094154427
-0.020813781
-0.0098243809
-0.0028272947
0.004038674
0.010891038
0.017751608
0.024625899
0.031504739
0.011647743
-0.0092701358
-0.020301665
-0.0092321002
-0.0022481375
0.0045858262
0.011415511
0.018260516
0.025099963
0.031874264
0.011745088
-0.0089891887
-0.019451631
-0.0084485406
-0.0016007108
0.0051366012
0.011924361
0.018773094
0.025635459
0.032373814
0.011895805
-0.0083014468
-0.01777512
-0.0074032168
-0.0009247284
0.0056361114
0.012371822
0.019270076
0.026291216
0.033247214
0.012223216
-0.0062670472
-0.014004073
-0.0063576026
-0.00041326815
0.0059598117
0.012656247
0.019642169
0.027008408
0.035103366
0.01313324
-0.011450883
-0.025270562
-0.012341182
-0.0049944531
0.0018569941
0.0084160476
0.014619692
0.02020215
0.024360356
0.008644235
-0.0099130011
-0.022460156
-0.011621921
-0.0046325685
0.0021518506
0.0087799976
0.015251431
0.021638228
0.028396669
0.010655351
-0.0095772791
-0.02159893
-0.011003168
-0.0041504007
0.0026025744
0.0093001682
0.015965343
0.022698644
0.029743677
0.011128684
-0.0094334934
-0.021122142
-0.010487801
-0.0036486394
0.003108989
0.0098535268
0.016610421
0.023444783
0.030461142
0.011343322
-0.0093360227
-0.020754878
-0.010019239
-0.0031453805
0.003628731
0.010395172
0.017177118
0.024006123
0.030916482
0.011465348
-0.0092369224
-0.020376562
-0.0095306622
-0.0026224828
0.0041562694
0.010921812
0.017695669
0.024483146
0.031274968
0.011556632
-0.0090933894
-0.019870757
-0.00894571
-0.0020503771
0.0046970163
0.011440512
0.01819939
0.024952757
0.031641259
0.011653158
-0.0088157629
-0.019030911
-0.0081716719
-0.0014107081
0.005241517
0.011944085
0.01870732
0.025484098
0.03213745
0.011802939
-0.0081360042
-0.017374264
-0.0071391552
-0.00074289809
0.0057353791
0.012387146
0.019200343
0.026135705
0.03300622
0.012128727
-0.0061248877
-0.01364759
-0.0061071989
-0.00023790248
0.0060553437
0.012668861
0.019569802
0.026849059
0.034853785
0.013034649
-0.011169308
-0.02460627
-0.011932465
-0.0047286432
0.0019906211
0.0084239594
0.014509194
0.019985122
0.02406279
0.0085346735
-0.0096644111
-0.02185683
-0.011229537
-0.0043746549
0.0022795551
0.0087810675
0.01512945
0.02139551
0.028027646
0.01051027
-0.0093363474
-0.021015292
-0.010624705
-0.0039027478
0.0027212925
0.009291378
0.015830166
0.022436386
0.029349144
0.010974435
-0.0091957923
-0.02054907
-0.010120387