/*--------------------------------*- C++ -*----------------------------------*\
| =========                 |                                                 |
| \\      /  F ield         | OpenFOAM: The Open Source CFD Toolbox           |
|  \\    /   O peration     | Version:  v2106                                 |
|   \\  /    A nd           | Website:  www.openfoam.com                      |
|    \\/     M anipulation  |                                                 |
\*---------------------------------------------------------------------------*/
FoamFile
{
    version     2.0;
    format      ascii;
    arch        "LSB;label=32;scalar=64";
    class       volScalarField;
    location    "75";
    object      DT;
}
// * * * * * * * * * * * * * * * * * * * * * * * * * * * * * * * * * * * * * //

dimensions      [0 2 -1 0 0 0 0];

internalField   nonuniform List<scalar> 
4000
(
0.00054864786
0.00054864785
0.00054864785
0.00054864785
0.00054864785
0.00054864785
0.00054864785
0.00054864785
0.00054864785
0.00054864785
0.00054864785
0.00054864784
0.00054864784
0.00054864784
0.00054864784
0.00054864784
0.00054864784
0.00054864784
0.00054864784
0.00054864784
0.00054864785
0.00054864784
0.00054864784
0.00054864784
0.00054864784
0.00054864784
0.00054864784
0.00054864784
0.00054864784
0.00054864784
0.00054864785
0.00054864784
0.00054864784
0.00054864784
0.00054864784
0.00054864784
0.00054864784
0.00054864784
0.00054864784
0.00054864784
0.00054864785
0.00054864784
0.00054864784
0.00054864784
0.00054864784
0.00054864784
0.00054864784
0.00054864784
0.00054864784
0.00054864784
0.00054864785
0.00054864784
0.00054864784
0.00054864784
0.00054864784
0.00054864784
0.00054864784
0.00054864784
0.00054864784
0.00054864784
0.00054864785
0.00054864784
0.00054864784
0.00054864784
0.00054864784
0.00054864784
0.00054864784
0.00054864784
0.00054864784
0.00054864784
0.00054864785
0.00054864784
0.00054864784
0.00054864784
0.00054864784
0.00054864784
0.00054864784
0.00054864784
0.00054864784
0.00054864784
0.00054864785
0.00054864784
0.00054864784
0.00054864784
0.00054864784
0.00054864784
0.00054864784
0.00054864784
0.00054864784
0.00054864785
0.00054864785
0.00054864784
0.00054864784
0.00054864784
0.00054864784
0.00054864784
0.00054864784
0.00054864784
0.00054864785
0.00054864785
0.00057226942
0.00057226931
0.0005722693
0.00057226929
0.00057226929
0.00057226929
0.0005722693
0.00057226931
0.00057226933
0.00057226935
0.00057226931
0.00057226923
0.00057226922
0.00057226921
0.00057226921
0.00057226922
0.00057226922
0.00057226923
0.00057226925
0.00057226929
0.0005722693
0.00057226922
0.00057226921
0.00057226921
0.00057226921
0.00057226921
0.00057226922
0.00057226923
0.00057226924
0.00057226928
0.00057226929
0.00057226921
0.00057226921
0.0005722692
0.0005722692
0.0005722692
0.00057226921
0.00057226922
0.00057226924
0.00057226927
0.00057226929
0.00057226921
0.00057226921
0.0005722692
0.0005722692
0.0005722692
0.00057226921
0.00057226922
0.00057226924
0.00057226927
0.00057226929
0.00057226922
0.00057226921
0.0005722692
0.0005722692
0.00057226921
0.00057226921
0.00057226922
0.00057226924
0.00057226927
0.0005722693
0.00057226922
0.00057226922
0.00057226921
0.00057226921
0.00057226921
0.00057226922
0.00057226923
0.00057226924
0.00057226927
0.00057226931
0.00057226923
0.00057226923
0.00057226922
0.00057226922
0.00057226922
0.00057226923
0.00057226924
0.00057226925
0.00057226929
0.00057226933
0.00057226925
0.00057226924
0.00057226924
0.00057226924
0.00057226924
0.00057226924
0.00057226925
0.00057226927
0.0005722693
0.00057226935
0.00057226929
0.00057226928
0.00057226927
0.00057226927
0.00057226927
0.00057226927
0.00057226929
0.0005722693
0.00057226934
0.00059494764
0.00059494746
0.00059494745
0.00059494743
0.00059494743
0.00059494744
0.00059494745
0.00059494747
0.00059494751
0.00059494757
0.00059494746
0.00059494734
0.00059494733
0.00059494732
0.00059494732
0.00059494732
0.00059494733
0.00059494736
0.00059494739
0.00059494747
0.00059494745
0.00059494733
0.00059494732
0.00059494731
0.00059494731
0.00059494731
0.00059494732
0.00059494734
0.00059494737
0.00059494744
0.00059494743
0.00059494732
0.00059494731
0.0005949473
0.0005949473
0.0005949473
0.00059494731
0.00059494733
0.00059494736
0.00059494743
0.00059494743
0.00059494732
0.00059494731
0.0005949473
0.0005949473
0.0005949473
0.00059494731
0.00059494733
0.00059494736
0.00059494743
0.00059494744
0.00059494732
0.00059494731
0.0005949473
0.0005949473
0.00059494731
0.00059494732
0.00059494733
0.00059494736
0.00059494743
0.00059494745
0.00059494733
0.00059494732
0.00059494731
0.00059494731
0.00059494732
0.00059494733
0.00059494734
0.00059494737
0.00059494744
0.00059494747
0.00059494736
0.00059494734
0.00059494733
0.00059494733
0.00059494733
0.00059494734
0.00059494736
0.00059494739
0.00059494746
0.00059494751
0.00059494739
0.00059494737
0.00059494736
0.00059494736
0.00059494736
0.00059494737
0.00059494739
0.00059494743
0.0005949475
0.00059494757
0.00059494747
0.00059494744
0.00059494743
0.00059494743
0.00059494743
0.00059494744
0.00059494746
0.0005949475
0.00059494758
0.00061678181
0.00061678159
0.00061678157
0.00061678156
0.00061678155
0.00061678156
0.00061678158
0.00061678161
0.00061678166
0.00061678175
0.00061678159
0.00061678144
0.00061678143
0.00061678141
0.00061678141
0.00061678142
0.00061678144
0.00061678146
0.00061678151
0.00061678162
0.00061678157
0.00061678143
0.00061678141
0.0006167814
0.0006167814
0.00061678141
0.00061678142
0.00061678145
0.00061678149
0.00061678159
0.00061678156
0.00061678141
0.0006167814
0.00061678139
0.00061678139
0.0006167814
0.00061678141
0.00061678144
0.00061678147
0.00061678158
0.00061678155
0.00061678141
0.0006167814
0.00061678139
0.00061678139
0.0006167814
0.00061678141
0.00061678143
0.00061678147
0.00061678157
0.00061678156
0.00061678142
0.00061678141
0.0006167814
0.0006167814
0.0006167814
0.00061678141
0.00061678144
0.00061678147
0.00061678158
0.00061678158
0.00061678144
0.00061678142
0.00061678141
0.00061678141
0.00061678141
0.00061678143
0.00061678145
0.00061678149
0.00061678159
0.00061678161
0.00061678146
0.00061678145
0.00061678144
0.00061678143
0.00061678144
0.00061678145
0.00061678147
0.00061678151
0.00061678162
0.00061678166
0.00061678151
0.00061678149
0.00061678147
0.00061678147
0.00061678147
0.00061678149
0.00061678151
0.00061678156
0.00061678167
0.00061678175
0.00061678162
0.00061678159
0.00061678158
0.00061678157
0.00061678158
0.00061678159
0.00061678162
0.00061678167
0.0006167818
0.0006378544
0.00063785415
0.00063785413
0.00063785412
0.00063785411
0.00063785412
0.00063785415
0.00063785418
0.00063785424
0.00063785435
0.00063785415
0.00063785398
0.00063785396
0.00063785395
0.00063785395
0.00063785396
0.00063785398
0.00063785401
0.00063785407
0.00063785421
0.00063785413
0.00063785396
0.00063785395
0.00063785394
0.00063785394
0.00063785395
0.00063785397
0.000637854
0.00063785404
0.00063785418
0.00063785412
0.00063785395
0.00063785394
0.00063785393
0.00063785393
0.00063785394
0.00063785396
0.00063785398
0.00063785403
0.00063785416
0.00063785411
0.00063785395
0.00063785394
0.00063785393
0.00063785393
0.00063785394
0.00063785395
0.00063785398
0.00063785402
0.00063785415
0.00063785412
0.00063785396
0.00063785395
0.00063785394
0.00063785394
0.00063785394
0.00063785396
0.00063785398
0.00063785402
0.00063785416
0.00063785415
0.00063785398
0.00063785397
0.00063785396
0.00063785395
0.00063785396
0.00063785397
0.000637854
0.00063785404
0.00063785417
0.00063785418
0.00063785401
0.000637854
0.00063785398
0.00063785398
0.00063785398
0.000637854
0.00063785403
0.00063785407
0.0006378542
0.00063785424
0.00063785407
0.00063785404
0.00063785403
0.00063785402
0.00063785402
0.00063785404
0.00063785407
0.00063785412
0.00063785426
0.00063785435
0.00063785421
0.00063785418
0.00063785416
0.00063785415
0.00063785416
0.00063785417
0.0006378542
0.00063785426
0.00063785444
0.00065823485
0.00065823458
0.00065823456
0.00065823455
0.00065823455
0.00065823456
0.00065823458
0.00065823462
0.00065823469
0.00065823482
0.00065823458
0.00065823439
0.00065823438
0.00065823437
0.00065823437
0.00065823438
0.0006582344
0.00065823443
0.00065823449
0.00065823466
0.00065823456
0.00065823438
0.00065823437
0.00065823436
0.00065823436
0.00065823437
0.00065823439
0.00065823442
0.00065823447
0.00065823462
0.00065823455
0.00065823437
0.00065823436
0.00065823435
0.00065823436
0.00065823436
0.00065823438
0.00065823441
0.00065823445
0.0006582346
0.00065823455
0.00065823437
0.00065823436
0.00065823436
0.00065823436
0.00065823436
0.00065823438
0.0006582344
0.00065823445
0.0006582346
0.00065823456
0.00065823438
0.00065823437
0.00065823436
0.00065823436
0.00065823437
0.00065823438
0.00065823441
0.00065823445
0.0006582346
0.00065823458
0.0006582344
0.00065823439
0.00065823438
0.00065823438
0.00065823438
0.0006582344
0.00065823442
0.00065823447
0.00065823462
0.00065823462
0.00065823443
0.00065823442
0.00065823441
0.0006582344
0.00065823441
0.00065823442
0.00065823445
0.0006582345
0.00065823465
0.00065823469
0.00065823449
0.00065823447
0.00065823445
0.00065823445
0.00065823445
0.00065823447
0.0006582345
0.00065823455
0.00065823472
0.00065823482
0.00065823466
0.00065823462
0.0006582346
0.0006582346
0.0006582346
0.00065823462
0.00065823465
0.00065823472
0.00065823493
0.00067798234
0.00067798204
0.00067798203
0.00067798202
0.00067798203
0.00067798204
0.00067798206
0.0006779821
0.00067798217
0.00067798232
0.00067798204
0.00067798184
0.00067798184
0.00067798183
0.00067798183
0.00067798185
0.00067798187
0.0006779819
0.00067798196
0.00067798215
0.00067798203
0.00067798184
0.00067798184
0.00067798183
0.00067798184
0.00067798185
0.00067798186
0.00067798189
0.00067798194
0.00067798211
0.00067798202
0.00067798183
0.00067798183
0.00067798183
0.00067798183
0.00067798184
0.00067798186
0.00067798188
0.00067798192
0.00067798209
0.00067798203
0.00067798183
0.00067798184
0.00067798183
0.00067798183
0.00067798184
0.00067798185
0.00067798188
0.00067798192
0.00067798209
0.00067798204
0.00067798185
0.00067798185
0.00067798184
0.00067798184
0.00067798185
0.00067798186
0.00067798188
0.00067798192
0.00067798209
0.00067798206
0.00067798187
0.00067798186
0.00067798186
0.00067798185
0.00067798186
0.00067798187
0.0006779819
0.00067798194
0.00067798211
0.0006779821
0.0006779819
0.00067798189
0.00067798188
0.00067798188
0.00067798188
0.0006779819
0.00067798192
0.00067798197
0.00067798214
0.00067798217
0.00067798196
0.00067798194
0.00067798192
0.00067798192
0.00067798192
0.00067798194
0.00067798197
0.00067798202
0.00067798221
0.00067798232
0.00067798215
0.00067798211
0.00067798209
0.00067798209
0.00067798209
0.00067798211
0.00067798214
0.00067798221
0.00067798245
0.00069714783
0.00069714752
0.00069714751
0.00069714751
0.00069714751
0.00069714752
0.00069714755
0.00069714759
0.00069714766
0.00069714782
0.00069714752
0.00069714731
0.00069714731
0.00069714731
0.00069714731
0.00069714733
0.00069714735
0.00069714738
0.00069714744
0.00069714764
0.00069714751
0.00069714731
0.00069714732
0.00069714732
0.00069714732
0.00069714733
0.00069714735
0.00069714737
0.00069714742
0.0006971476
0.00069714751
0.00069714731
0.00069714732
0.00069714732
0.00069714732
0.00069714733
0.00069714735
0.00069714737
0.0006971474
0.00069714758
0.00069714751
0.00069714731
0.00069714732
0.00069714732
0.00069714733
0.00069714733
0.00069714735
0.00069714736
0.0006971474
0.00069714758
0.00069714752
0.00069714733
0.00069714733
0.00069714733
0.00069714733
0.00069714734
0.00069714735
0.00069714737
0.0006971474
0.00069714758
0.00069714755
0.00069714735
0.00069714735
0.00069714735
0.00069714735
0.00069714735
0.00069714736
0.00069714738
0.00069714741
0.00069714759
0.00069714759
0.00069714738
0.00069714737
0.00069714737
0.00069714736
0.00069714737
0.00069714738
0.0006971474
0.00069714744
0.00069714762
0.00069714766
0.00069714744
0.00069714742
0.0006971474
0.0006971474
0.0006971474
0.00069714741
0.00069714744
0.00069714749
0.00069714769
0.00069714782
0.00069714764
0.0006971476
0.00069714758
0.00069714758
0.00069714758
0.00069714759
0.00069714762
0.00069714769
0.00069714796
0.00071577563
0.00071577531
0.00071577531
0.00071577531
0.00071577532
0.00071577533
0.00071577535
0.00071577539
0.00071577546
0.00071577563
0.00071577531
0.0007157751
0.00071577511
0.00071577511
0.00071577512
0.00071577513
0.00071577515
0.00071577517
0.00071577523
0.00071577544
0.00071577531
0.00071577511
0.00071577512
0.00071577513
0.00071577513
0.00071577514
0.00071577516
0.00071577518
0.00071577521
0.00071577541
0.00071577531
0.00071577511
0.00071577513
0.00071577513
0.00071577514
0.00071577515
0.00071577516
0.00071577517
0.0007157752
0.00071577539
0.00071577532
0.00071577512
0.00071577513
0.00071577514
0.00071577514
0.00071577515
0.00071577516
0.00071577517
0.0007157752
0.00071577538
0.00071577533
0.00071577513
0.00071577514
0.00071577515
0.00071577515
0.00071577515
0.00071577516
0.00071577517
0.0007157752
0.00071577538
0.00071577535
0.00071577515
0.00071577516
0.00071577516
0.00071577516
0.00071577516
0.00071577517
0.00071577518
0.00071577521
0.00071577539
0.00071577539
0.00071577517
0.00071577518
0.00071577517
0.00071577517
0.00071577517
0.00071577518
0.00071577519
0.00071577523
0.00071577542
0.00071577546
0.00071577523
0.00071577521
0.0007157752
0.0007157752
0.0007157752
0.00071577521
0.00071577523
0.00071577527
0.00071577548
0.00071577563
0.00071577544
0.00071577541
0.00071577539
0.00071577538
0.00071577538
0.00071577539
0.00071577542
0.00071577548
0.00071577577
0.00073390459
0.00073390427
0.00073390428
0.00073390429
0.0007339043
0.00073390431
0.00073390433
0.00073390436
0.00073390442
0.0007339046
0.00073390427
0.00073390406
0.00073390408
0.00073390409
0.0007339041
0.00073390411
0.00073390412
0.00073390414
0.00073390419
0.00073390441
0.00073390428
0.00073390408
0.00073390411
0.00073390412
0.00073390412
0.00073390413
0.00073390414
0.00073390416
0.00073390418
0.00073390438
0.00073390429
0.00073390409
0.00073390412
0.00073390413
0.00073390413
0.00073390414
0.00073390415
0.00073390415
0.00073390417
0.00073390436
0.0007339043
0.0007339041
0.00073390412
0.00073390413
0.00073390414
0.00073390414
0.00073390415
0.00073390415
0.00073390417
0.00073390436
0.00073390431
0.00073390411
0.00073390413
0.00073390414
0.00073390414
0.00073390415
0.00073390415
0.00073390415
0.00073390417
0.00073390435
0.00073390433
0.00073390412
0.00073390414
0.00073390415
0.00073390415
0.00073390415
0.00073390415
0.00073390415
0.00073390417
0.00073390436
0.00073390436
0.00073390414
0.00073390416
0.00073390415
0.00073390415
0.00073390415
0.00073390415
0.00073390416
0.00073390418
0.00073390438
0.00073390442
0.00073390419
0.00073390418
0.00073390417
0.00073390417
0.00073390417
0.00073390417
0.00073390418
0.00073390422
0.00073390443
0.0007339046
0.00073390441
0.00073390438
0.00073390436
0.00073390436
0.00073390435
0.00073390436
0.00073390438
0.00073390443
0.00073390473
0.00075156907
0.00075156874
0.00075156876
0.00075156877
0.00075156879
0.0007515688
0.00075156881
0.00075156884
0.00075156889
0.00075156907
0.00075156874
0.00075156853
0.00075156856
0.00075156858
0.00075156859
0.0007515686
0.00075156861
0.00075156862
0.00075156866
0.00075156888
0.00075156876
0.00075156856
0.0007515686
0.00075156861
0.00075156862
0.00075156863
0.00075156864
0.00075156864
0.00075156866
0.00075156885
0.00075156877
0.00075156858
0.00075156861
0.00075156863
0.00075156864
0.00075156864
0.00075156864
0.00075156864
0.00075156865
0.00075156884
0.00075156879
0.00075156859
0.00075156862
0.00075156864
0.00075156864
0.00075156865
0.00075156865
0.00075156864
0.00075156864
0.00075156883
0.0007515688
0.0007515686
0.00075156863
0.00075156864
0.00075156865
0.00075156865
0.00075156864
0.00075156864
0.00075156864
0.00075156883
0.00075156881
0.00075156861
0.00075156864
0.00075156864
0.00075156865
0.00075156864
0.00075156864
0.00075156864
0.00075156864
0.00075156883
0.00075156884
0.00075156862
0.00075156864
0.00075156864
0.00075156864
0.00075156864
0.00075156864
0.00075156863
0.00075156864
0.00075156884
0.00075156889
0.00075156866
0.00075156866
0.00075156865
0.00075156864
0.00075156864
0.00075156864
0.00075156864
0.00075156867
0.00075156888
0.00075156907
0.00075156888
0.00075156885
0.00075156884
0.00075156883
0.00075156883
0.00075156883
0.00075156884
0.00075156888
0.00075156919
0.0007687996
0.00076879927
0.00076879931
0.00076879932
0.00076879933
0.00076879935
0.00076879936
0.00076879938
0.00076879942
0.0007687996
0.00076879927
0.00076879907
0.00076879911
0.00076879913
0.00076879914
0.00076879915
0.00076879916
0.00076879916
0.00076879919
0.00076879941
0.00076879931
0.00076879911
0.00076879915
0.00076879917
0.00076879919
0.00076879919
0.00076879919
0.00076879919
0.00076879919
0.00076879939
0.00076879932
0.00076879913
0.00076879917
0.00076879919
0.0007687992
0.00076879921
0.0007687992
0.00076879919
0.00076879919
0.00076879938
0.00076879933
0.00076879914
0.00076879919
0.0007687992
0.00076879921
0.00076879921
0.00076879921
0.00076879919
0.00076879918
0.00076879937
0.00076879935
0.00076879915
0.00076879919
0.00076879921
0.00076879921
0.00076879921
0.0007687992
0.00076879919
0.00076879918
0.00076879936
0.00076879936
0.00076879916
0.00076879919
0.0007687992
0.00076879921
0.0007687992
0.00076879919
0.00076879918
0.00076879917
0.00076879936
0.00076879938
0.00076879916
0.00076879919
0.00076879919
0.00076879919
0.00076879919
0.00076879918
0.00076879917
0.00076879916
0.00076879936
0.00076879942
0.00076879919
0.00076879919
0.00076879919
0.00076879918
0.00076879918
0.00076879917
0.00076879916
0.00076879918
0.00076879939
0.0007687996
0.00076879941
0.00076879939
0.00076879938
0.00076879937
0.00076879936
0.00076879936
0.00076879936
0.00076879939
0.0007687997
0.00078562355
0.00078562323
0.00078562328
0.0007856233
0.00078562331
0.00078562332
0.00078562333
0.00078562334
0.00078562338
0.00078562355
0.00078562323
0.00078562304
0.00078562309
0.00078562311
0.00078562313
0.00078562313
0.00078562313
0.00078562313
0.00078562315
0.00078562336
0.00078562328
0.00078562309
0.00078562314
0.00078562317
0.00078562318
0.00078562318
0.00078562318
0.00078562317
0.00078562316
0.00078562335
0.0007856233
0.00078562311
0.00078562317
0.00078562319
0.0007856232
0.0007856232
0.00078562319
0.00078562317
0.00078562316
0.00078562334
0.00078562331
0.00078562313
0.00078562318
0.0007856232
0.00078562321
0.00078562321
0.0007856232
0.00078562317
0.00078562315
0.00078562333
0.00078562332
0.00078562313
0.00078562318
0.0007856232
0.00078562321
0.0007856232
0.00078562319
0.00078562316
0.00078562314
0.00078562332
0.00078562333
0.00078562313
0.00078562318
0.00078562319
0.0007856232
0.00078562319
0.00078562317
0.00078562315
0.00078562313
0.0007856233
0.00078562334
0.00078562313
0.00078562317
0.00078562317
0.00078562317
0.00078562316
0.00078562315
0.00078562312
0.00078562311
0.0007856233
0.00078562338
0.00078562315
0.00078562316
0.00078562316
0.00078562315
0.00078562314
0.00078562313
0.00078562311
0.00078562311
0.00078562332
0.00078562355
0.00078562336
0.00078562335
0.00078562334
0.00078562333
0.00078562332
0.0007856233
0.0007856233
0.00078562332
0.00078562363
0.00080206559
0.00080206527
0.00080206533
0.00080206536
0.00080206537
0.00080206538
0.00080206538
0.00080206539
0.00080206542
0.00080206558
0.00080206527
0.00080206509
0.00080206515
0.00080206518
0.00080206519
0.0008020652
0.0008020652
0.00080206519
0.00080206519
0.0008020654
0.00080206533
0.00080206515
0.00080206521
0.00080206524
0.00080206526
0.00080206526
0.00080206525
0.00080206523
0.00080206521
0.00080206539
0.00080206536
0.00080206518
0.00080206524
0.00080206527
0.00080206528
0.00080206528
0.00080206527
0.00080206524
0.00080206521
0.00080206538
0.00080206537
0.00080206519
0.00080206526
0.00080206528
0.00080206529
0.00080206529
0.00080206527
0.00080206523
0.0008020652
0.00080206537
0.00080206538
0.0008020652
0.00080206526
0.00080206528
0.00080206529
0.00080206528
0.00080206526
0.00080206522
0.00080206519
0.00080206535
0.00080206538
0.0008020652
0.00080206525
0.00080206527
0.00080206527
0.00080206526
0.00080206523
0.0008020652
0.00080206516
0.00080206533
0.00080206539
0.00080206519
0.00080206523
0.00080206524
0.00080206523
0.00080206522
0.0008020652
0.00080206517
0.00080206514
0.00080206532
0.00080206542
0.00080206519
0.00080206521
0.00080206521
0.0008020652
0.00080206519
0.00080206516
0.00080206514
0.00080206512
0.00080206532
0.00080206558
0.0008020654
0.00080206539
0.00080206538
0.00080206537
0.00080206535
0.00080206533
0.00080206532
0.00080206532
0.00080206563
0.00081814804
0.00081814774
0.0008181478
0.00081814784
0.00081814785
0.00081814786
0.00081814785
0.00081814785
0.00081814787
0.00081814803
0.00081814774
0.00081814757
0.00081814763
0.00081814767
0.00081814768
0.00081814769
0.00081814768
0.00081814766
0.00081814765
0.00081814785
0.0008181478
0.00081814763
0.0008181477
0.00081814774
0.00081814775
0.00081814775
0.00081814774
0.0008181477
0.00081814767
0.00081814784
0.00081814784
0.00081814767
0.00081814774
0.00081814777
0.00081814778
0.00081814778
0.00081814776
0.00081814772
0.00081814767
0.00081814784
0.00081814785
0.00081814768
0.00081814775
0.00081814778
0.00081814779
0.00081814779
0.00081814776
0.00081814771
0.00081814767
0.00081814783
0.00081814786
0.00081814769
0.00081814775
0.00081814778
0.00081814779
0.00081814777
0.00081814775
0.0008181477
0.00081814765
0.00081814781
0.00081814785
0.00081814768
0.00081814774
0.00081814776
0.00081814776
0.00081814775
0.00081814772
0.00081814767
0.00081814762
0.00081814778
0.00081814785
0.00081814766
0.0008181477
0.00081814772
0.00081814771
0.0008181477
0.00081814767
0.00081814763
0.00081814758
0.00081814775
0.00081814787
0.00081814765
0.00081814767
0.00081814767
0.00081814767
0.00081814765
0.00081814762
0.00081814758
0.00081814755
0.00081814775
0.00081814803
0.00081814785
0.00081814784
0.00081814784
0.00081814783
0.00081814781
0.00081814778
0.00081814775
0.00081814775
0.00081814805
0.00083389125
0.00083389096
0.00083389103
0.00083389107
0.00083389108
0.00083389109
0.00083389108
0.00083389106
0.00083389107
0.00083389123
0.00083389096
0.0008338908
0.00083389087
0.00083389091
0.00083389092
0.00083389092
0.00083389091
0.00083389088
0.00083389086
0.00083389105
0.00083389103
0.00083389087
0.00083389095
0.00083389099
0.000833891
0.000833891
0.00083389098
0.00083389093
0.00083389089
0.00083389105
0.00083389107
0.00083389091
0.00083389099
0.00083389102
0.00083389104
0.00083389103
0.000833891
0.00083389095
0.00083389089
0.00083389105
0.00083389108
0.00083389092
0.000833891
0.00083389104
0.00083389105
0.00083389103
0.000833891
0.00083389095
0.00083389089
0.00083389103
0.00083389109
0.00083389092
0.000833891
0.00083389103
0.00083389103
0.00083389102
0.00083389098
0.00083389093
0.00083389086
0.00083389101
0.00083389108
0.00083389091
0.00083389098
0.000833891
0.000833891
0.00083389098
0.00083389095
0.00083389089
0.00083389083
0.00083389098
0.00083389106
0.00083389088
0.00083389093
0.00083389095
0.00083389095
0.00083389093
0.00083389089
0.00083389084
0.00083389078
0.00083389094
0.00083389107
0.00083389086
0.00083389089
0.00083389089
0.00083389089
0.00083389086
0.00083389083
0.00083389078
0.00083389074
0.00083389092
0.00083389123
0.00083389105
0.00083389105
0.00083389105
0.00083389103
0.00083389101
0.00083389098
0.00083389094
0.00083389092
0.00083389122
0.00084931381
0.00084931353
0.00084931361
0.00084931365
0.00084931366
0.00084931367
0.00084931365
0.00084931363
0.00084931363
0.00084931377
0.00084931353
0.00084931338
0.00084931346
0.0008493135
0.00084931352
0.00084931351
0.00084931349
0.00084931346
0.00084931343
0.00084931361
0.00084931361
0.00084931346
0.00084931354
0.00084931358
0.0008493136
0.00084931359
0.00084931356
0.00084931352
0.00084931346
0.00084931361
0.00084931365
0.0008493135
0.00084931358
0.00084931362
0.00084931364
0.00084931363
0.00084931359
0.00084931353
0.00084931346
0.0008493136
0.00084931366
0.00084931352
0.0008493136
0.00084931364
0.00084931365
0.00084931363
0.00084931359
0.00084931353
0.00084931345
0.00084931359
0.00084931367
0.00084931351
0.00084931359
0.00084931363
0.00084931363
0.00084931361
0.00084931357
0.00084931351
0.00084931343
0.00084931356
0.00084931365
0.00084931349
0.00084931356
0.00084931359
0.00084931359
0.00084931357
0.00084931353
0.00084931346
0.00084931339
0.00084931352
0.00084931363
0.00084931346
0.00084931352
0.00084931353
0.00084931353
0.00084931351
0.00084931346
0.0008493134
0.00084931333
0.00084931347
0.00084931363
0.00084931343
0.00084931346
0.00084931346
0.00084931345
0.00084931343
0.00084931339
0.00084931333
0.00084931327
0.00084931344
0.00084931377
0.00084931361
0.00084931361
0.0008493136
0.00084931359
0.00084931356
0.00084931352
0.00084931347
0.00084931344
0.00084931373
0.0008644328
0.00086443253
0.00086443262
0.00086443266
0.00086443268
0.00086443268
0.00086443266
0.00086443263
0.00086443262
0.00086443275
0.00086443253
0.00086443239
0.00086443248
0.00086443252
0.00086443254
0.00086443254
0.00086443251
0.00086443247
0.00086443242
0.00086443259
0.00086443262
0.00086443248
0.00086443257
0.00086443261
0.00086443263
0.00086443262
0.00086443259
0.00086443253
0.00086443246
0.0008644326
0.00086443266
0.00086443252
0.00086443261
0.00086443266
0.00086443267
0.00086443266
0.00086443262
0.00086443255
0.00086443247
0.0008644326
0.00086443268
0.00086443254
0.00086443263
0.00086443267
0.00086443268
0.00086443266
0.00086443262
0.00086443254
0.00086443246
0.00086443258
0.00086443268
0.00086443254
0.00086443262
0.00086443266
0.00086443266
0.00086443264
0.00086443259
0.00086443252
0.00086443243
0.00086443255
0.00086443266
0.00086443251
0.00086443259
0.00086443262
0.00086443262
0.00086443259
0.00086443254
0.00086443247
0.00086443238
0.0008644325
0.00086443263
0.00086443247
0.00086443253
0.00086443255
0.00086443254
0.00086443252
0.00086443247
0.00086443239
0.00086443231
0.00086443244
0.00086443262
0.00086443242
0.00086443246
0.00086443247
0.00086443246
0.00086443243
0.00086443238
0.00086443231
0.00086443224
0.0008644324
0.00086443275
0.00086443259
0.0008644326
0.0008644326
0.00086443258
0.00086443255
0.0008644325
0.00086443244
0.0008644324
0.00086443268
0.00087926397
0.00087926372
0.00087926382
0.00087926386
0.00087926388
0.00087926387
0.00087926385
0.00087926381
0.00087926379
0.00087926392
0.00087926372
0.0008792636
0.00087926369
0.00087926374
0.00087926375
0.00087926375
0.00087926371
0.00087926366
0.00087926361
0.00087926377
0.00087926382
0.00087926369
0.00087926379
0.00087926383
0.00087926385
0.00087926383
0.0008792638
0.00087926373
0.00087926365
0.00087926377
0.00087926386
0.00087926374
0.00087926383
0.00087926388
0.00087926389
0.00087926387
0.00087926383
0.00087926375
0.00087926366
0.00087926377
0.00087926388
0.00087926375
0.00087926385
0.00087926389
0.0008792639
0.00087926388
0.00087926382
0.00087926374
0.00087926365
0.00087926376
0.00087926387
0.00087926375
0.00087926383
0.00087926387
0.00087926388
0.00087926385
0.0008792638
0.00087926371
0.00087926361
0.00087926372
0.00087926385
0.00087926371
0.0008792638
0.00087926383
0.00087926382
0.0008792638
0.00087926374
0.00087926366
0.00087926356
0.00087926367
0.00087926381
0.00087926366
0.00087926373
0.00087926375
0.00087926374
0.00087926371
0.00087926366
0.00087926358
0.00087926348
0.0008792636
0.00087926379
0.00087926361
0.00087926365
0.00087926366
0.00087926365
0.00087926361
0.00087926356
0.00087926348
0.0008792634
0.00087926355
0.00087926392
0.00087926377
0.00087926377
0.00087926377
0.00087926376
0.00087926372
0.00087926367
0.0008792636
0.00087926355
0.00087926381
0.00089382192
0.00089382168
0.00089382178
0.00089382183
0.00089382185
0.00089382184
0.00089382181
0.00089382177
0.00089382174
0.00089382185
0.00089382168
0.00089382157
0.00089382167
0.00089382172
0.00089382173
0.00089382172
0.00089382169
0.00089382163
0.00089382156
0.00089382171
0.00089382178
0.00089382167
0.00089382177
0.00089382181
0.00089382183
0.00089382181
0.00089382177
0.0008938217
0.00089382161
0.00089382172
0.00089382183
0.00089382172
0.00089382181
0.00089382186
0.00089382187
0.00089382185
0.0008938218
0.00089382172
0.00089382162
0.00089382172
0.00089382185
0.00089382173
0.00089382183
0.00089382187
0.00089382188
0.00089382185
0.0008938218
0.00089382171
0.0008938216
0.0008938217
0.00089382184
0.00089382172
0.00089382181
0.00089382185
0.00089382185
0.00089382183
0.00089382177
0.00089382168
0.00089382157
0.00089382166
0.00089382181
0.00089382169
0.00089382177
0.0008938218
0.0008938218
0.00089382177
0.00089382171
0.00089382162
0.00089382151
0.00089382161
0.00089382177
0.00089382163
0.0008938217
0.00089382172
0.00089382171
0.00089382168
0.00089382162
0.00089382153
0.00089382142
0.00089382153
0.00089382174
0.00089382156
0.00089382161
0.00089382162
0.0008938216
0.00089382157
0.00089382151
0.00089382142
0.00089382133
0.00089382146
0.00089382185
0.00089382171
0.00089382172
0.00089382172
0.0008938217
0.00089382166
0.00089382161
0.00089382153
0.00089382146
0.00089382171
0.00090812017
0.00090811995
0.00090812005
0.0009081201
0.00090812012
0.00090812011
0.00090812008
0.00090812003
0.00090811999
0.00090812009
0.00090811995
0.00090811985
0.00090811995
0.00090812
0.00090812002
0.00090812
0.00090811996
0.0009081199
0.00090811983
0.00090811996
0.00090812005
0.00090811995
0.00090812005
0.0009081201
0.00090812011
0.0009081201
0.00090812005
0.00090811997
0.00090811987
0.00090811997
0.0009081201
0.00090812
0.0009081201
0.00090812015
0.00090812016
0.00090812014
0.00090812008
0.00090811999
0.00090811988
0.00090811997
0.00090812012
0.00090812002
0.00090812011
0.00090812016
0.00090812016
0.00090812014
0.00090812008
0.00090811998
0.00090811987
0.00090811995
0.00090812011
0.00090812
0.0009081201
0.00090812014
0.00090812014
0.00090812011
0.00090812004
0.00090811995
0.00090811983
0.00090811991
0.00090812008
0.00090811996
0.00090812005
0.00090812008
0.00090812008
0.00090812004
0.00090811998
0.00090811988
0.00090811976
0.00090811985
0.00090812003
0.0009081199
0.00090811997
0.00090811999
0.00090811998
0.00090811995
0.00090811988
0.00090811978
0.00090811967
0.00090811976
0.00090811999
0.00090811983
0.00090811987
0.00090811988
0.00090811987
0.00090811983
0.00090811976
0.00090811967
0.00090811957
0.00090811969
0.00090812009
0.00090811996
0.00090811997