/*--------------------------------*- C++ -*----------------------------------*\
| =========                 |                                                 |
| \\      /  F ield         | OpenFOAM: The Open Source CFD Toolbox           |
|  \\    /   O peration     | Version:  v2106                                 |
|   \\  /    A nd           | Website:  www.openfoam.com                      |
|    \\/     M anipulation  |                                                 |
\*---------------------------------------------------------------------------*/
FoamFile
{
    version     2.0;
    format      ascii;
    arch        "LSB;label=32;scalar=64";
    class       volVectorField;
    location    "75";
    object      flux;
}
// * * * * * * * * * * * * * * * * * * * * * * * * * * * * * * * * * * * * * //

dimensions      [0 1 -1 1 0 0 0];

internalField   nonuniform List<vector> 
4000
(
(1.8769905e-07 1.8769905e-07 0.72690367)
(4.1241287e-07 1.664169e-07 0.72690505)
(2.0767511e-07 1.6148314e-07 0.72690572)
(1.1252519e-07 1.5956706e-07 0.72690612)
(3.5966024e-08 1.5844309e-07 0.7269063)
(-3.0630174e-08 1.5741434e-07 0.7269063)
(-8.7457707e-08 1.5601344e-07 0.72690614)
(-1.2895437e-07 1.5343817e-07 0.72690583)
(-1.3773998e-07 1.476384e-07 0.72690544)
(-4.3574329e-08 1.3352986e-07 0.72690508)
(1.664169e-07 4.1241287e-07 0.72690505)
(3.7308901e-07 3.7308902e-07 0.72690627)
(1.9740036e-07 3.6074005e-07 0.7269069)
(1.0796511e-07 3.5464496e-07 0.72690728)
(3.2736936e-08 3.5049261e-07 0.72690746)
(-3.4274648e-08 3.4656726e-07 0.72690745)
(-9.3421968e-08 3.4157908e-07 0.72690727)
(-1.4151694e-07 3.3359634e-07 0.72690695)
(-1.6760244e-07 3.1871164e-07 0.72690651)
(-5.7682868e-08 2.8986664e-07 0.72690601)
(1.6148315e-07 2.0767512e-07 0.72690572)
(3.6074005e-07 1.9740036e-07 0.7269069)
(1.8923105e-07 1.8923107e-07 0.7269075)
(1.0227775e-07 1.8310241e-07 0.72690787)
(2.7888317e-08 1.7797802e-07 0.72690803)
(-3.9543711e-08 1.7294229e-07 0.72690801)
(-1.0042862e-07 1.6712362e-07 0.72690782)
(-1.518218e-07 1.5955301e-07 0.72690748)
(-1.8146968e-07 1.494481e-07 0.72690701)
(-6.2804332e-08 1.3840166e-07 0.72690647)
(1.5956706e-07 1.1252517e-07 0.72690612)
(3.5464495e-07 1.079651e-07 0.72690728)
(1.831024e-07 1.0227776e-07 0.72690787)
(9.6712068e-08 9.6712063e-08 0.72690822)
(2.2576814e-08 9.1402469e-08 0.72690837)
(-4.5129052e-08 8.6093422e-08 0.72690834)
(-1.0681124e-07 8.0430233e-08 0.72690813)
(-1.5919245e-07 7.4169802e-08 0.72690777)
(-1.8875379e-07 6.760006e-08 0.72690727)
(-6.5047161e-08 6.2417283e-08 0.72690672)
(1.584431e-07 3.5966025e-08 0.7269063)
(3.5049263e-07 3.2736926e-08 0.72690746)
(1.7797802e-07 2.7888316e-08 0.72690803)
(9.1402461e-08 2.2576815e-08 0.72690837)
(1.7269676e-08 1.7269668e-08 0.72690851)
(-5.0515948e-08 1.2024104e-08 0.72690846)
(-1.1235224e-07 6.7711016e-09 0.72690824)
(-1.6465197e-07 1.5689318e-09 0.72690786)
(-1.932222e-07 -3.1188999e-09 0.72690735)
(-6.6259516e-08 -6.1881396e-09 0.72690679)
(1.5741433e-07 -3.0630156e-08 0.7269063)
(3.4656725e-07 -3.4274646e-08 0.72690745)
(1.7294229e-07 -3.954372e-08 0.72690801)
(8.609342e-08 -4.5129049e-08 0.72690834)
(1.2024103e-08 -5.0515952e-08 0.72690846)
(-5.5627619e-08 -5.562762e-08 0.72690839)
(-1.1726641e-07 -6.0505192e-08 0.72690816)
(-1.6908245e-07 -6.5070464e-08 0.72690777)
(-1.9651086e-07 -6.89316e-08 0.72690725)
(-6.7093321e-08 -7.1298077e-08 0.72690668)
(1.5601344e-07 -8.7457722e-08 0.72690614)
(3.4157907e-07 -9.342196e-08 0.72690727)
(1.6712362e-07 -1.0042862e-07 0.72690782)
(8.043023e-08 -1.0681125e-07 0.72690813)
(6.7711052e-09 -1.1235224e-07 0.72690824)
(-6.0505188e-08 -1.1726641e-07 0.72690816)
(-1.2179509e-07 -1.2179508e-07 0.72690791)
(-1.7307838e-07 -1.2602305e-07 0.72690751)
(-1.9944982e-07 -1.2971331e-07 0.72690699)
(-6.7837168e-08 -1.3212001e-07 0.72690641)
(1.5343817e-07 -1.2895438e-07 0.72690583)
(3.3359635e-07 -1.4151694e-07 0.72690695)
(1.5955301e-07 -1.518218e-07 0.72690748)
(7.41698e-08 -1.5919245e-07 0.72690777)
(1.568938e-09 -1.6465197e-07 0.72690786)
(-6.5070466e-08 -1.6908245e-07 0.72690777)
(-1.2602305e-07 -1.7307838e-07 0.72690751)
(-1.7700068e-07 -1.7700068e-07 0.7269071)
(-2.0260783e-07 -1.8088866e-07 0.72690656)
(-6.8697787e-08 -1.8398349e-07 0.72690598)
(1.476384e-07 -1.3773997e-07 0.72690544)
(3.1871164e-07 -1.6760244e-07 0.72690651)
(1.494481e-07 -1.8146969e-07 0.72690701)
(6.7600062e-08 -1.8875379e-07 0.72690727)
(-3.11889e-09 -1.9322221e-07 0.72690735)
(-6.89316e-08 -1.9651087e-07 0.72690725)
(-1.2971331e-07 -1.9944982e-07 0.72690699)
(-1.8088866e-07 -2.0260783e-07 0.72690656)
(-2.0643263e-07 -2.0643262e-07 0.72690602)
(-6.9900387e-08 -2.1062024e-07 0.72690542)
(1.3352985e-07 -4.3574324e-08 0.72690508)
(2.8986663e-07 -5.7682866e-08 0.72690601)
(1.3840166e-07 -6.2804334e-08 0.72690647)
(6.2417288e-08 -6.5047161e-08 0.72690672)
(-6.188137e-09 -6.6259516e-08 0.72690679)
(-7.1298079e-08 -6.7093326e-08 0.72690668)
(-1.3212001e-07 -6.7837169e-08 0.72690641)
(-1.8398348e-07 -6.8697792e-08 0.72690598)
(-2.1062023e-07 -6.9900388e-08 0.72690542)
(-7.1489529e-08 -7.148953e-08 0.72690481)
(8.2451326e-07 8.2451326e-07 1.0812702)
(1.8480313e-06 7.208008e-07 1.0812719)
(9.7924624e-07 6.9781068e-07 1.0812728)
(5.3949771e-07 6.8874935e-07 1.0812734)
(1.6990109e-07 6.832906e-07 1.0812736)
(-1.5677868e-07 6.7824311e-07 1.0812736)
(-4.3929168e-07 6.7132579e-07 1.0812733)
(-6.5398592e-07 6.5838277e-07 1.0812729)
(-7.282523e-07 6.2756377e-07 1.0812722)
(-2.3892743e-07 5.3880265e-07 1.0812715)
(7.208008e-07 1.8480313e-06 1.0812719)
(1.6579774e-06 1.6579774e-06 1.0812734)
(9.3116907e-07 1.6002981e-06 1.0812743)
(5.1771758e-07 1.5711986e-06 1.0812748)
(1.5414172e-07 1.5509787e-06 1.081275)
(-1.747259e-07 1.531722e-06 1.081275)
(-4.6908219e-07 1.5071433e-06 1.0812747)
(-7.1962896e-07 1.467383e-06 1.0812742)
(-9.0762248e-07 1.3904409e-06 1.0812735)
(-3.2768854e-07 1.2203802e-06 1.0812726)
(6.9781068e-07 9.7924624e-07 1.0812728)
(1.6002981e-06 9.3116907e-07 1.0812743)
(8.9246738e-07 8.9246738e-07 1.0812751)
(4.9017827e-07 8.6280147e-07 1.0812756)
(1.3042457e-07 8.3775766e-07 1.0812758)
(-2.0061407e-07 8.1304855e-07 1.0812758)
(-5.0363071e-07 7.8443599e-07 1.0812755)
(-7.7068826e-07 7.4711473e-07 1.0812749)
(-9.7525516e-07 6.971159e-07 1.0812742)
(-3.5230128e-07 6.4376393e-07 1.0812732)
(6.8874936e-07 5.394977e-07 1.0812734)
(1.5711986e-06 5.1771758e-07 1.0812748)
(8.6280147e-07 4.9017828e-07 1.0812756)
(4.6300786e-07 4.6300787e-07 1.0812761)
(1.043888e-07 4.3698876e-07 1.0812763)
(-2.2804757e-07 4.1092223e-07 1.0812762)
(-5.3501601e-07 3.8308645e-07 1.0812759)
(-8.0694905e-07 3.5229365e-07 1.0812753)
(-1.0109733e-06 3.1997767e-07 1.0812745)
(-3.6325652e-07 2.9461259e-07 1.0812735)
(6.832906e-07 1.6990109e-07 1.0812736)
(1.5509787e-06 1.5414171e-07 1.081275)
(8.3775767e-07 1.3042457e-07 1.0812758)
(4.3698875e-07 1.043888e-07 1.0812763)
(7.8338932e-08 7.833893e-08 1.0812765)
(-2.5451638e-07 5.256537e-08 1.0812764)
(-5.622593e-07 2.6733875e-08 1.081276)
(-8.3379703e-07 1.1344607e-09 1.0812754)
(-1.0329362e-06 -2.1943284e-08 1.0812746)
(-3.6921133e-07 -3.7047438e-08 1.0812736)
(6.782431e-07 -1.5677867e-07 1.0812736)
(1.5317221e-06 -1.7472591e-07 1.081275)
(8.1304856e-07 -2.0061409e-07 1.0812758)
(4.1092222e-07 -2.2804758e-07 1.0812762)
(5.2565365e-08 -2.5451639e-07 1.0812764)
(-2.7965263e-07 -2.7965264e-07 1.0812763)
(-5.8644692e-07 -3.0366771e-07 1.0812759)
(-8.5562621e-07 -3.2618852e-07 1.0812753)
(-1.0491552e-06 -3.4529156e-07 1.0812745)
(-3.7332596e-07 -3.5704515e-07 1.0812734)
(6.7132578e-07 -4.3929168e-07 1.0812733)
(1.5071433e-06 -4.6908219e-07 1.0812747)
(7.84436e-07 -5.0363072e-07 1.0812755)
(3.8308644e-07 -5.3501601e-07 1.0812759)
(2.6733871e-08 -5.6225929e-07 1.081276)
(-3.036677e-07 -5.8644692e-07 1.0812759)
(-6.0879518e-07 -6.0879518e-07 1.0812755)
(-8.7542088e-07 -6.297725e-07 1.0812749)
(-1.0637928e-06 -6.4827984e-07 1.081274)
(-3.7704706e-07 -6.6058716e-07 1.081273)
(6.5838276e-07 -6.5398593e-07 1.0812729)
(1.467383e-06 -7.1962895e-07 1.0812742)
(7.4711474e-07 -7.7068824e-07 1.0812749)
(3.5229365e-07 -8.0694904e-07 1.0812753)
(1.1344547e-09 -8.3379703e-07 1.0812754)
(-3.2618852e-07 -8.5562619e-07 1.0812753)
(-6.2977251e-07 -8.7542087e-07 1.0812749)
(-8.9511086e-07 -8.9511085e-07 1.0812743)
(-1.0799698e-06 -9.1523352e-07 1.0812734)
(-3.8153084e-07 -9.32353e-07 1.0812723)
(6.2756377e-07 -7.2825231e-07 1.0812722)
(1.390441e-06 -9.0762247e-07 1.0812735)
(6.971159e-07 -9.7525516e-07 1.0812742)
(3.1997765e-07 -1.0109733e-06 1.0812745)
(-2.1943275e-08 -1.0329362e-06 1.0812746)
(-3.4529155e-07 -1.0491552e-06 1.0812745)
(-6.4827984e-07 -1.0637928e-06 1.081274)
(-9.1523353e-07 -1.0799698e-06 1.0812734)
(-1.101035e-06 -1.101035e-06 1.0812725)
(-3.8846004e-07 -1.1290953e-06 1.0812714)
(5.3880266e-07 -2.3892743e-07 1.0812715)
(1.2203802e-06 -3.2768854e-07 1.0812726)
(6.4376394e-07 -3.5230129e-07 1.0812732)
(2.9461259e-07 -3.6325652e-07 1.0812735)
(-3.7047454e-08 -3.6921133e-07 1.0812736)
(-3.5704514e-07 -3.7332597e-07 1.0812734)
(-6.6058715e-07 -3.7704706e-07 1.081273)
(-9.3235299e-07 -3.8153084e-07 1.0812723)
(-1.1290953e-06 -3.8846004e-07 1.0812714)
(-4.0023771e-07 -4.002377e-07 1.0812703)
(1.3388963e-06 1.3388963e-06 1.0812426)
(3.0406449e-06 1.1706445e-06 1.081244)
(1.663274e-06 1.1327414e-06 1.0812448)
(9.2207751e-07 1.1172924e-06 1.0812453)
(2.7544454e-07 1.1077205e-06 1.0812455)
(-3.0859197e-07 1.0987281e-06 1.0812455)
(-8.2687742e-07 1.0862973e-06 1.0812452)
(-1.2501652e-06 1.0628412e-06 1.0812447)
(-1.4962853e-06 1.0063609e-06 1.081244)
(-5.2004327e-07 8.4154445e-07 1.0812431)
(1.1706445e-06 3.0406449e-06 1.081244)
(2.7314127e-06 2.7314127e-06 1.0812453)
(1.583246e-06 2.6352779e-06 1.0812461)
(8.8454601e-07 2.5851872e-06 1.0812465)
(2.4759806e-07 2.5495887e-06 1.0812468)
(-3.4072666e-07 2.5152682e-06 1.0812467)
(-8.8070774e-07 2.4711718e-06 1.0812464)
(-1.3700698e-06 2.3994321e-06 1.0812458)
(-1.8282305e-06 2.2595844e-06 1.081245)
(-6.8485975e-07 1.947752e-06 1.0812439)
(1.1327415e-06 1.663274e-06 1.0812448)
(2.6352779e-06 1.583246e-06 1.0812461)
(1.5170486e-06 1.5170486e-06 1.0812468)
(8.3638834e-07 1.4652168e-06 1.0812472)
(2.055255e-07 1.4208718e-06 1.0812474)
(-3.870089e-07 1.3767896e-06 1.0812474)
(-9.4271351e-07 1.3255399e-06 1.081247)
(-1.4617526e-06 1.2585602e-06 1.0812464)
(-1.9479654e-06 1.1689361e-06 1.0812456)
(-7.2793158e-07 1.0753008e-06 1.0812444)
(1.1172924e-06 9.2207751e-07 1.0812453)
(2.5851872e-06 8.8454601e-07 1.0812465)
(1.4652168e-06 8.3638834e-07 1.0812472)
(7.883692e-07 7.883692e-07 1.0812477)
(1.5917085e-07 7.4207282e-07 1.0812479)
(-4.3605854e-07 6.9549918e-07 1.0812478)
(-9.9893711e-07 6.45644e-07 1.0812474)
(-1.5266736e-06 5.9043885e-07 1.0812468)
(-2.0114899e-06 5.3258438e-07 1.0812459)
(-7.4728327e-07 4.8760891e-07 1.0812447)
(1.1077205e-06 2.7544453e-07 1.0812455)
(2.5495887e-06 2.4759805e-07 1.0812468)
(1.4208718e-06 2.055255e-07 1.0812474)
(7.4207282e-07 1.5917085e-07 1.0812479)
(1.1265548e-07 1.1265548e-07 1.081248)
(-4.8343771e-07 6.6522369e-08 1.0812479)
(-1.0477738e-06 2.0190812e-08 1.0812475)
(-1.5748122e-06 -2.579896e-08 1.0812469)
(-2.0507954e-06 -6.7287803e-08 1.081246)
(-7.5791522e-07 -9.4393404e-08 1.0812448)
(1.0987281e-06 -3.0859197e-07 1.0812455)
(2.5152682e-06 -3.4072666e-07 1.0812467)
(1.3767896e-06 -3.8700889e-07 1.0812474)
(6.9549918e-07 -4.3605853e-07 1.0812478)
(6.6522371e-08 -4.8343772e-07 1.0812479)
(-5.285232e-07 -5.2852321e-07 1.0812478)
(-1.0912584e-06 -5.7173138e-07 1.0812474)
(-1.6141523e-06 -6.1243804e-07 1.0812467)
(-2.0800843e-06 -6.4720011e-07 1.0812458)
(-7.6535367e-07 -6.68777e-07 1.0812446)
(1.0862973e-06 -8.2687741e-07 1.0812452)
(2.4711718e-06 -8.8070773e-07 1.0812464)
(1.3255399e-06 -9.4271351e-07 1.081247)
(6.4564399e-07 -9.989371e-07 1.0812474)
(2.0190805e-08 -1.0477738e-06 1.0812475)
(-5.7173138e-07 -1.0912584e-06 1.0812474)
(-1.1316887e-06 -1.1316887e-06 1.0812469)
(-1.6502809e-06 -1.1701131e-06 1.0812463)
(-2.1071343e-06 -1.2048291e-06 1.0812453)
(-7.7229981e-07 -1.2289288e-06 1.0812441)
(1.0628412e-06 -1.2501652e-06 1.0812447)
(2.3994321e-06 -1.3700698e-06 1.0812458)
(1.2585602e-06 -1.4617526e-06 1.0812464)
(5.9043886e-07 -1.5266736e-06 1.0812468)
(-2.5798962e-08 -1.5748122e-06 1.0812469)
(-6.1243805e-07 -1.6141522e-06 1.0812467)
(-1.1701131e-06 -1.6502809e-06 1.0812463)
(-1.6872926e-06 -1.6872926e-06 1.0812456)
(-2.1389e-06 -1.7276255e-06 1.0812446)
(-7.8142013e-07 -1.7668727e-06 1.0812434)
(1.0063609e-06 -1.4962853e-06 1.081244)
(2.2595844e-06 -1.8282305e-06 1.081245)
(1.1689361e-06 -1.9479654e-06 1.0812456)
(5.3258437e-07 -2.0114899e-06 1.0812459)
(-6.7287783e-08 -2.0507954e-06 1.081246)
(-6.472001e-07 -2.0800843e-06 1.0812458)
(-1.2048291e-06 -2.1071343e-06 1.0812453)
(-1.7276255e-06 -2.1389e-06 1.0812446)
(-2.1867144e-06 -2.1867144e-06 1.0812437)
(-7.984646e-07 -2.2766734e-06 1.0812424)
(8.4154446e-07 -5.2004326e-07 1.0812431)
(1.947752e-06 -6.8485975e-07 1.0812439)
(1.0753008e-06 -7.2793158e-07 1.0812444)
(4.8760891e-07 -7.4728326e-07 1.0812447)
(-9.4393397e-08 -7.5791522e-07 1.0812448)
(-6.6877699e-07 -7.6535367e-07 1.0812446)
(-1.2289288e-06 -7.7229981e-07 1.0812441)
(-1.7668727e-06 -7.8142012e-07 1.0812434)
(-2.2766734e-06 -7.984646e-07 1.0812424)
(-8.4139279e-07 -8.4139279e-07 1.081241)
(1.8046548e-06 1.8046548e-06 1.081199)
(4.1149734e-06 1.5781877e-06 1.0812003)
(2.2722207e-06 1.5269848e-06 1.081201)
(1.2544512e-06 1.5057017e-06 1.0812015)
(3.4435941e-07 1.4922352e-06 1.0812017)
(-4.9261898e-07 1.4793977e-06 1.0812016)
(-1.2510181e-06 1.4615045e-06 1.0812013)
(-1.8963463e-06 1.4275454e-06 1.0812007)
(-2.3279296e-06 1.3453246e-06 1.0811999)
(-8.2389649e-07 1.1041158e-06 1.081199)
(1.5781877e-06 4.1149735e-06 1.0812003)
(3.6984684e-06 3.6984684e-06 1.0812015)
(2.1634916e-06 3.5678077e-06 1.0812022)
(1.2023267e-06 3.4983471e-06 1.0812026)
(3.0490351e-07 3.4481004e-06 1.0812028)
(-5.3871494e-07 3.399089e-06 1.0812027)
(-1.3287966e-06 3.3357016e-06 1.0812024)
(-2.0706162e-06 3.2321358e-06 1.0812018)
(-2.8130741e-06 3.0294797e-06 1.0812009)
(-1.0651053e-06 2.5759134e-06 1.0811998)
(1.5269848e-06 2.2722207e-06 1.081201)
(3.5678077e-06 2.1634916e-06 1.0812022)
(2.0720993e-06 2.0720993e-06 1.0812028)
(1.1347439e-06 1.9994314e-06 1.0812033)
(2.4510134e-07 1.9365249e-06 1.0812034)
(-6.0501773e-07 1.8735117e-06 1.0812033)
(-1.4179713e-06 1.7999366e-06 1.0812029)
(-2.2025683e-06 1.7035893e-06 1.0812023)
(-2.9841521e-06 1.5747543e-06 1.0812014)
(-1.126274e-06 1.4416749e-06 1.0812002)
(1.5057017e-06 1.2544512e-06 1.0812015)
(3.4983471e-06 1.2023267e-06 1.0812026)
(1.9994314e-06 1.1347439e-06 1.0812033)
(1.0667524e-06 1.0667523e-06 1.0812036)
(1.7898382e-07 1.0007643e-06 1.0812038)
(-6.7530329e-07 9.3407758e-07 1.0812036)
(-1.4987191e-06 8.6249003e-07 1.0812033)
(-2.2957985e-06 7.8312292e-07 1.0812026)
(-3.0749885e-06 7.000226e-07 1.0812017)
(-1.1538249e-06 6.3583145e-07 1.0812005)
(1.4922352e-06 3.4435941e-07 1.0812017)
(3.4481004e-06 3.0490351e-07 1.0812028)
(1.9365249e-06 2.4510135e-07 1.0812034)
(1.0007643e-06 1.7898381e-07 1.0812038)
(1.1242658e-07 1.1242656e-07 1.0812039)
(-7.4329198e-07 4.6228303e-08 1.0812037)
(-1.5689259e-06 -2.0419309e-08 1.0812033)
(-2.3650357e-06 -8.6701695e-08 1.0812027)
(-3.1314435e-06 -1.4655016e-07 1.0812017)
(-1.1690681e-06 -1.8559943e-07 1.0812005)
(1.4793977e-06 -4.9261898e-07 1.0812016)
(3.399089e-06 -5.3871494e-07 1.0812027)
(1.8735117e-06 -6.0501772e-07 1.0812033)
(9.3407757e-07 -6.7530328e-07 1.0812036)
(4.6228315e-08 -7.4329198e-07 1.0812037)
(-8.0814916e-07 -8.0814916e-07 1.0812036)
(-1.631649e-06 -8.7052795e-07 1.0812031)
(-2.4219293e-06 -9.2957875e-07 1.0812025)
(-3.1738862e-06 -9.8031699e-07 1.0812015)
(-1.1798578e-06 -1.0120265e-06 1.0812003)
(1.4615045e-06 -1.2510181e-06 1.0812013)
(3.3357016e-06 -1.3287966e-06 1.0812024)
(1.7999366e-06 -1.4179713e-06 1.0812029)
(8.6249002e-07 -1.498719e-06 1.0812033)
(-2.0419298e-08 -1.5689259e-06 1.0812033)
(-8.7052794e-07 -1.6316491e-06 1.0812031)
(-1.6903555e-06 -1.6903555e-06 1.0812027)
(-2.4748248e-06 -1.7467959e-06 1.081202)
(-3.2138912e-06 -1.7987298e-06 1.081201)
(-1.1902077e-06 -1.8357195e-06 1.0811998)
(1.4275454e-06 -1.8963463e-06 1.0812007)
(3.2321358e-06 -2.0706161e-06 1.0812018)
(1.7035893e-06 -2.2025683e-06 1.0812023)
(7.8312294e-07 -2.2957985e-06 1.0812026)
(-8.6701695e-08 -2.3650357e-06 1.0812027)
(-9.2957876e-07 -2.4219293e-06 1.0812025)
(-1.7467959e-06 -2.4748248e-06 1.081202)
(-2.5303036e-06 -2.5303036e-06 1.0812013)
(-3.2628098e-06 -2.5931265e-06 1.0812003)
(-1.2045176e-06 -2.6575219e-06 1.081199)
(1.3453247e-06 -2.3279296e-06 1.0811999)
(3.0294797e-06 -2.8130741e-06 1.0812009)
(1.5747542e-06 -2.984152e-06 1.0812014)
(7.000226e-07 -3.0749885e-06 1.0812017)
(-1.4655015e-07 -3.1314435e-06 1.0812017)
(-9.80317e-07 -3.1738862e-06 1.0812015)
(-1.7987298e-06 -3.2138912e-06 1.081201)
(-2.5931265e-06 -3.2628098e-06 1.0812003)
(-3.3411095e-06 -3.3411095e-06 1.0811993)
(-1.233138e-06 -3.498956e-06 1.081198)
(1.1041158e-06 -8.2389647e-07 1.081199)
(2.5759134e-06 -1.0651053e-06 1.0811998)
(1.4416749e-06 -1.126274e-06 1.0812002)
(6.3583146e-07 -1.1538249e-06 1.0812005)
(-1.8559943e-07 -1.1690681e-06 1.0812005)
(-1.0120265e-06 -1.1798578e-06 1.0812003)
(-1.8357195e-06 -1.1902077e-06 1.0811998)
(-2.6575219e-06 -1.2045176e-06 1.081199)
(-3.498956e-06 -1.233138e-06 1.081198)
(-1.3097486e-06 -1.3097486e-06 1.0811965)
(2.2447004e-06 2.2447004e-06 1.0811401)
(5.1180391e-06 1.9621965e-06 1.0811414)
(2.8224419e-06 1.8984672e-06 1.081142)
(1.5407923e-06 1.8717059e-06 1.0811424)
(3.7731808e-07 1.8545261e-06 1.0811426)
(-7.0669464e-07 1.8379555e-06 1.0811425)
(-1.7033094e-06 1.8147003e-06 1.0811421)
(-2.5708161e-06 1.7703879e-06 1.0811415)
(-3.1834625e-06 1.6627816e-06 1.0811407)
(-1.1341879e-06 1.3463406e-06 1.0811398)
(1.9621965e-06 5.1180391e-06 1.0811414)
(4.5986892e-06 4.5986892e-06 1.0811425)
(2.6867061e-06 4.4356007e-06 1.0811431)
(1.4748806e-06 4.3479044e-06 1.0811435)
(3.2669241e-07 4.2836544e-06 1.0811436)
(-7.6643327e-07 4.2203787e-06 1.0811435)
(-1.8046608e-06 4.1380797e-06 1.0811431)
(-2.7986942e-06 4.0031874e-06 1.0811425)
(-3.8195335e-06 3.7386673e-06 1.0811417)
(-1.4506289e-06 3.1456672e-06 1.0811405)
(1.8984672e-06 2.8224419e-06 1.081142)
(4.4356007e-06 2.6867061e-06 1.0811431)
(2.5716571e-06 2.5716571e-06 1.0811437)
(1.388846e-06 2.4792328e-06 1.0811441)
(2.497924e-07 2.3984891e-06 1.0811442)
(-8.5226931e-07 2.3170709e-06 1.081144)
(-1.9205007e-06 2.2216312e-06 1.0811437)
(-2.9702285e-06 2.0964314e-06 1.081143)
(-4.0409828e-06 1.9290737e-06 1.0811421)
(-1.5295213e-06 1.7573809e-06 1.0811409)
(1.8717059e-06 1.5407923e-06 1.0811424)
(4.3479044e-06 1.4748806e-06 1.0811435)
(2.4792328e-06 1.388846e-06 1.0811441)
(1.3017126e-06 1.3017126e-06 1.0811444)
(1.6453054e-07 1.216674e-06 1.0811445)
(-9.4329115e-07 1.1303741e-06 1.0811443)
(-2.0253003e-06 1.0374783e-06 1.0811439)
(-3.0912516e-06 9.3435877e-07 1.0811433)
(-4.158584e-06 8.2644464e-07 1.0811423)
(-1.5650908e-06 7.4343016e-07 1.0811411)
(1.8545261e-06 3.7731807e-07 1.0811426)
(4.2836544e-06 3.2669238e-07 1.0811436)
(2.3984891e-06 2.4979239e-07 1.0811442)
(1.216674e-06 1.6453053e-07 1.0811445)
(7.8453903e-08 7.8453908e-08 1.0811446)
(-1.031465e-06 -7.3955141e-09 1.0811444)
(-2.116516e-06 -9.4038717e-08 1.081144)
(-3.1812622e-06 -1.8036493e-07 1.0811433)
(-4.2319114e-06 -2.5837634e-07 1.0811423)
(-1.5848643e-06 -3.0922817e-07 1.0811411)
(1.8379555e-06 -7.0669463e-07 1.0811425)
(4.2203787e-06 -7.6643327e-07 1.0811435)
(2.3170709e-06 -8.5226931e-07 1.081144)
(1.1303741e-06 -9.4329114e-07 1.0811443)
(-7.3955081e-09 -1.031465e-06 1.0811444)
(-1.1157838e-06 -1.1157838e-06 1.0811442)
(-2.1982697e-06 -1.1971539e-06 1.0811438)
(-3.2555893e-06 -1.2745035e-06 1.0811431)
(-4.2874472e-06 -1.3412779e-06 1.0811421)
(-1.598992e-06 -1.383196e-06 1.0811408)
(1.8147003e-06 -1.7033094e-06 1.0811421)
(4.1380797e-06 -1.8046608e-06 1.0811431)
(2.2216312e-06 -1.9205007e-06 1.0811437)
(1.0374783e-06 -2.0253003e-06 1.0811439)
(-9.4038714e-08 -2.116516e-06 1.081144)
(-1.1971539e-06 -2.1982698e-06 1.0811438)
(-2.2752358e-06 -2.2752358e-06 1.0811433)
(-3.3253862e-06 -2.3498987e-06 1.0811426)
(-4.3406038e-06 -2.4194445e-06 1.0811416)
(-1.6128097e-06 -2.4696837e-06 1.0811403)
(1.7703879e-06 -2.5708161e-06 1.0811415)
(4.0031874e-06 -2.7986942e-06 1.0811425)
(2.0964314e-06 -2.9702285e-06 1.081143)
(9.3435878e-07 -3.0912516e-06 1.0811433)
(-1.8036493e-07 -3.1812622e-06 1.0811433)
(-1.2745035e-06 -3.2555893e-06 1.0811431)
(-2.3498987e-06 -3.3253862e-06 1.0811426)
(-3.3997979e-06 -3.3997979e-06 1.0811418)
(-4.4072322e-06 -3.4858866e-06 1.0811408)
(-1.6324848e-06 -3.5760745e-06 1.0811396)
(1.6627816e-06 -3.1834625e-06 1.0811407)
(3.7386673e-06 -3.8195335e-06 1.0811417)
(1.9290737e-06 -4.0409828e-06 1.0811421)
(8.2644464e-07 -4.158584e-06 1.0811423)
(-2.5837635e-07 -4.2319114e-06 1.0811423)
(-1.3412779e-06 -4.2874472e-06 1.0811421)
(-2.4194445e-06 -4.3406038e-06 1.0811416)
(-3.4858866e-06 -4.4072323e-06 1.0811408)
(-4.5168804e-06 -4.5168804e-06 1.0811398)
(-1.6729349e-06 -4.7424913e-06 1.0811385)
(1.3463406e-06 -1.1341879e-06 1.0811398)
(3.1456671e-06 -1.4506289e-06 1.0811405)
(1.7573809e-06 -1.5295213e-06 1.0811409)
(7.4343016e-07 -1.5650908e-06 1.0811411)
(-3.0922817e-07 -1.5848643e-06 1.0811411)
(-1.383196e-06 -1.598992e-06 1.0811408)
(-2.4696837e-06 -1.6128097e-06 1.0811403)
(-3.5760745e-06 -1.6324849e-06 1.0811396)
(-4.7424913e-06 -1.6729349e-06 1.0811385)
(-1.7828921e-06 -1.7828921e-06 1.0811371)
(2.663924e-06 2.663924e-06 1.0810665)
(6.0638838e-06 2.327142e-06 1.0810677)
(3.3245081e-06 2.251425e-06 1.0810683)
(1.7872823e-06 2.2194506e-06 1.0810687)
(3.7895222e-07 2.198716e-06 1.0810688)
(-9.44779e-07 2.1785354e-06 1.0810686)
(-2.1735223e-06 2.1500606e-06 1.0810683)
(-3.2569959e-06 2.0956478e-06 1.0810677)
(-4.0417409e-06 1.9632791e-06 1.0810669)
(-1.4435386e-06 1.5735084e-06 1.081066)
(2.327142e-06 6.0638838e-06 1.0810677)
(5.4451352e-06 5.4451352e-06 1.0810688)
(3.162971e-06 5.2511062e-06 1.0810693)
(1.7082188e-06 5.1460566e-06 1.0810697)
(3.1757933e-07 5.0683902e-06 1.0810698)
(-1.0177621e-06 4.9913229e-06 1.0810696)
(-2.2978536e-06 4.8906268e-06 1.0810692)
(-3.5371682e-06 4.7251902e-06 1.0810686)
(-4.82495e-06 4.4003481e-06 1.0810678)
(-1.8333092e-06 3.6715009e-06 1.0810666)
(2.251425e-06 3.3245081e-06 1.0810683)
(5.2511062e-06 3.162971e-06 1.0810693)
(3.0254295e-06 3.0254295e-06 1.0810699)
(1.6045663e-06 2.9141643e-06 1.0810702)
(2.2421846e-07 2.8162889e-06 1.0810703)
(-1.1225424e-06 2.7170628e-06 1.0810701)
(-2.439655e-06 2.6003609e-06 1.0810697)
(-3.7472746e-06 2.4470441e-06 1.0810691)
(-5.0954302e-06 2.2421476e-06 1.0810682)
(-1.9294366e-06 2.0329028e-06 1.081067)
(2.2194507e-06 1.7872823e-06 1.0810687)
(5.1460566e-06 1.7082188e-06 1.0810697)
(2.9141643e-06 1.6045663e-06 1.0810702)
(1.4990782e-06 1.4990782e-06 1.0810705)
(1.2047789e-07 1.3956685e-06 1.0810706)
(-1.2336901e-06 1.2903502e-06 1.0810704)
(-2.5678724e-06 1.1767091e-06 1.08107)
(-3.8953815e-06 1.0504194e-06 1.0810693)
(-5.2390913e-06 9.1829967e-07 1.0810684)
(-1.9728058e-06 8.1695576e-07 1.0810672)
(2.198716e-06 3.7895221e-07 1.0810688)
(5.0683902e-06 3.175793e-07 1.0810698)
(2.8162889e-06 2.2421843e-07 1.0810703)
(1.3956685e-06 1.2047789e-07 1.0810706)
(1.5490429e-08 1.5490425e-08 1.0810706)
(-1.3415019e-06 -8.947716e-08 1.0810704)
(-2.6795857e-06 -1.9564684e-07 1.08107)
(-4.005684e-06 -3.0159658e-07 1.0810693)
(-5.3288938e-06 -3.9740689e-07 1.0810683)
(-1.9969992e-06 -4.5981407e-07 1.0810671)
(2.1785354e-06 -9.44779e-07 1.0810686)
(4.9913229e-06 -1.0177621e-06 1.0810696)
(2.7170628e-06 -1.1225424e-06 1.0810701)
(1.2903502e-06 -1.2336901e-06 1.0810704)
(-8.9477161e-08 -1.3415019e-06 1.0810704)
(-1.4448274e-06 -1.4448274e-06 1.0810702)
(-2.7799918e-06 -1.5448307e-06 1.0810697)
(-4.0971415e-06 -1.6402118e-06 1.081069)
(-5.3973088e-06 -1.7228367e-06 1.0810681)
(-2.0144106e-06 -1.7748543e-06 1.0810668)
(2.1500606e-06 -2.1735223e-06 1.0810683)
(4.8906268e-06 -2.2978536e-06 1.0810692)
(2.6003609e-06 -2.439655e-06 1.0810697)
(1.1767091e-06 -2.5678724e-06 1.08107)
(-1.9564684e-07 -2.6795858e-06 1.08107)
(-1.5448307e-06 -2.7799918e-06 1.0810697)
(-2.8749702e-06 -2.8749702e-06 1.0810693)
(-4.1836901e-06 -2.9677273e-06 1.0810685)
(-5.4635363e-06 -3.0548363e-06 1.0810676)
(-2.0316776e-06 -3.1182893e-06 1.0810663)
(2.0956478e-06 -3.2569959e-06 1.0810677)
(4.7251902e-06 -3.5371682e-06 1.0810686)
(2.4470441e-06 -3.7472746e-06 1.0810691)
(1.0504194e-06 -3.8953815e-06 1.0810693)
(-3.0159659e-07 -4.005684e-06 1.0810693)
(-1.6402118e-06 -4.0971415e-06 1.081069)
(-2.9677272e-06 -4.1836901e-06 1.0810685)
(-4.2770076e-06 -4.2770076e-06 1.0810678)
(-5.5478708e-06 -4.3863634e-06 1.0810668)
(-2.0567126e-06 -4.5022012e-06 1.0810655)
(1.9632791e-06 -4.0417409e-06 1.0810669)
(4.400348e-06 -4.82495e-06 1.0810678)
(2.2421476e-06 -5.0954302e-06 1.0810682)
(9.1829967e-07 -5.2390913e-06 1.0810684)
(-3.974069e-07 -5.3288938e-06 1.0810683)
(-1.7228367e-06 -5.3973088e-06 1.0810681)
(-3.0548363e-06 -5.4635363e-06 1.0810676)
(-4.3863634e-06 -5.5478708e-06 1.0810668)
(-5.6887299e-06 -5.6887299e-06 1.0810658)
(-2.1089028e-06 -5.981164e-06 1.0810645)
(1.5735084e-06 -1.4435386e-06 1.081066)
(3.6715009e-06 -1.8333092e-06 1.0810666)
(2.0329028e-06 -1.9294366e-06 1.081067)
(8.1695575e-07 -1.9728058e-06 1.0810672)
(-4.5981407e-07 -1.9969992e-06 1.0810671)
(-1.7748543e-06 -2.0144106e-06 1.0810668)
(-3.1182893e-06 -2.0316776e-06 1.0810663)
(-4.5022012e-06 -2.0567126e-06 1.0810655)
(-5.981164e-06 -2.1089028e-06 1.0810645)
(-2.2516686e-06 -2.2516686e-06 1.0810631)
(3.0626063e-06 3.0626063e-06 1.0809787)
(6.9559722e-06 2.673521e-06 1.0809799)
(3.7843258e-06 2.5863272e-06 1.0809805)
(1.9994178e-06 2.5493807e-06 1.0809808)
(3.5488358e-07 2.525246e-06 1.0809809)
(-1.1998539e-06 2.5015925e-06 1.0809807)
(-2.652044e-06 2.4680765e-06 1.0809803)
(-3.9423199e-06 2.4038963e-06 1.0809798)
(-4.8890978e-06 2.2475809e-06 1.080979)
(-1.7474926e-06 1.7869075e-06 1.0809781)
(2.673521e-06 6.9559722e-06 1.0809799)
(6.2415535e-06 6.2415535e-06 1.0809809)
(3.5981154e-06 6.01796e-06 1.0809815)
(1.907796e-06 5.8963656e-06 1.0809817)
(2.832013e-07 5.8058646e-06 1.0809818)
(-1.2856081e-06 5.7155327e-06 1.0809817)
(-2.7985883e-06 5.5970758e-06 1.0809813)
(-4.2730634e-06 5.4021104e-06 1.0809807)
(-5.8145811e-06 5.0189498e-06 1.0809798)
(-2.208166e-06 4.1588073e-06 1.0809787)
(2.5863272e-06 3.7843258e-06 1.0809805)
(6.01796e-06 3.5981154e-06 1.0809815)
(3.439138e-06 3.439138e-06 1.080982)
(1.7873224e-06 3.3098976e-06 1.0809822)
(1.7405063e-07 3.1956143e-06 1.0809823)
(-1.4086427e-06 3.0792543e-06 1.0809821)
(-2.9654663e-06 2.9420278e-06 1.0809817)
(-4.5204459e-06 2.761533e-06 1.0809811)
(-6.1324009e-06 2.5203566e-06 1.0809802)
(-2.3209209e-06 2.2748759e-06 1.080979)
(2.5493807e-06 1.9994178e-06 1.0809808)
(5.8963656e-06 1.907796e-06 1.0809817)
(3.3098976e-06 1.7873224e-06 1.0809822)
(1.6642724e-06 1.6642724e-06 1.0809825)
(5.2558018e-08 1.5432245e-06 1.0809825)
(-1.5391946e-06 1.41958e-06 1.0809824)
(-3.1163096e-06 1.2858934e-06 1.0809819)
(-4.6947346e-06 1.1371859e-06 1.0809813)
(-6.3012381e-06 9.8164819e-07 1.0809803)
(-2.3718197e-06 8.625945e-07 1.0809792)
(2.525246e-06 3.5488358e-07 1.0809809)
(5.8058646e-06 2.832013e-07 1.0809818)
(3.1956143e-06 1.7405062e-07 1.0809823)
(1.5432245e-06 5.255801e-08 1.0809825)
(-7.064171e-08 -7.0641719e-08 1.0809826)
(-1.6659739e-06 -1.9407558e-07 1.0809824)
(-3.2478604e-06 -3.1915597e-07 1.0809819)
(-4.824691e-06 -4.4414294e-07 1.0809812)
(-6.4069923e-06 -5.57229e-07 1.0809803)
(-2.40029e-06 -6.3084237e-07 1.0809791)
(2.5015925e-06 -1.1998539e-06 1.0809807)
(5.7155327e-06 -1.2856082e-06 1.0809817)
(3.0792543e-06 -1.4086427e-06 1.0809821)
(1.41958e-06 -1.5391947e-06 1.0809824)
(-1.9407557e-07 -1.6659739e-06 1.0809824)
(-1.7877089e-06 -1.7877089e-06 1.0809821)
(-3.3663769e-06 -1.905817e-06 1.0809817)
(-4.9328076e-06 -2.0187662e-06 1.080981)
(-6.4879376e-06 -2.1168597e-06 1.08098)
(-2.4208953e-06 -2.1787342e-06 1.0809788)
(2.4680765e-06 -2.652044e-06 1.0809803)
(5.5970758e-06 -2.7985883e-06 1.0809813)
(2.9420278e-06 -2.9654663e-06 1.0809817)
(1.2858934e-06 -3.1163095e-06 1.0809819)
(-3.1915597e-07 -3.2478604e-06 1.0809819)
(-1.905817e-06 -3.3663769e-06 1.0809817)
(-3.4789178e-06 -3.4789177e-06 1.0809812)
(-5.0357337e-06 -3.5893843e-06 1.0809805)
(-6.5669602e-06 -3.69372e-06 1.0809795)
(-2.4415397e-06 -3.7701313e-06 1.0809783)
(2.4038963e-06 -3.9423199e-06 1.0809798)
(5.4021104e-06 -4.2730634e-06 1.0809807)
(2.761533e-06 -4.5204459e-06 1.0809811)
(1.1371859e-06 -4.6947346e-06 1.0809813)
(-4.4414294e-07 -4.8246911e-06 1.0809812)
(-2.0187662e-06 -4.9328076e-06 1.080981)
(-3.5893843e-06 -5.0357337e-06 1.0809805)
(-5.1476099e-06 -5.1476099e-06 1.0809797)
(-6.6686845e-06 -5.2798223e-06 1.0809787)
(-2.4718362e-06 -5.4208047e-06 1.0809775)
(2.2475809e-06 -4.8890978e-06 1.080979)
(5.0189498e-06 -5.814581e-06 1.0809798)
(2.5203566e-06 -6.1324009e-06 1.0809802)
(9.8164817e-07 -6.3012381e-06 1.0809803)
(-5.57229e-07 -6.4069923e-06 1.0809803)
(-2.1168596e-06 -6.4879376e-06 1.08098)
(-3.69372e-06 -6.5669603e-06 1.0809795)
(-5.2798224e-06 -6.6686845e-06 1.0809787)
(-6.8401551e-06 -6.8401551e-06 1.0809777)
(-2.535528e-06 -7.1979439e-06 1.0809765)
(1.7869075e-06 -1.7474926e-06 1.0809781)
(4.1588073e-06 -2.208166e-06 1.0809787)
(2.2748759e-06 -2.3209209e-06 1.080979)
(8.625945e-07 -2.3718197e-06 1.0809792)
(-6.3084237e-07 -2.40029e-06 1.0809791)
(-2.1787342e-06 -2.4208953e-06 1.0809788)
(-3.7701313e-06 -2.4415397e-06 1.0809783)
(-5.4208047e-06 -2.4718362e-06 1.0809775)
(-7.1979439e-06 -2.535528e-06 1.0809765)
(-2.710362e-06 -2.710362e-06 1.0809751)
(3.4395784e-06 3.4395784e-06 1.0808776)
(7.7936807e-06 3.0004821e-06 1.0808787)
(4.2049237e-06 2.9023616e-06 1.0808792)
(2.1814527e-06 2.860691e-06 1.0808795)
(3.1040006e-07 2.8333192e-06 1.0808796)
(-1.4652411e-06 2.8063468e-06 1.0808794)
(-3.1304721e-06 2.7680011e-06 1.080879)
(-4.6168736e-06 2.6944551e-06 1.0808784)
(-5.7154186e-06 2.5151744e-06 1.0808777)
(-2.0428118e-06 1.9864986e-06 1.0808768)
(3.0004821e-06 7.7936806e-06 1.0808787)
(6.9878555e-06 6.9878555e-06 1.0808796)