/*--------------------------------*- C++ -*----------------------------------*\
| =========                 |                                                 |
| \\      /  F ield         | OpenFOAM: The Open Source CFD Toolbox           |
|  \\    /   O peration     | Version:  v2106                                 |
|   \\  /    A nd           | Website:  www.openfoam.com                      |
|    \\/     M anipulation  |                                                 |
\*---------------------------------------------------------------------------*/
FoamFile
{
    version     2.0;
    format      ascii;
    arch        "LSB;label=32;scalar=64";
    class       volVectorField;
    location    "75";
    object      gradT;
}
// * * * * * * * * * * * * * * * * * * * * * * * * * * * * * * * * * * * * * //

dimensions      [0 -1 0 1 0 0 0];

internalField   nonuniform List<vector> 
4000
(
(0.00014719618 0.00014719618 570.04786)
(0.00032341985 0.00013050642 570.04894)
(0.00016286168 0.0001266373 570.04947)
(8.8243799e-05 0.00012513469 570.04978)
(2.8205051e-05 0.00012425325 570.04992)
(-2.4020604e-05 0.00012344649 570.04992)
(-6.8585538e-05 0.00012234789 570.04979)
(-0.00010112779 0.00012032832 570.04956)
(-0.00010801759 0.00011578006 570.04925)
(-3.4171588e-05 0.00010471595 570.04896)
(0.00013050642 0.00032341985 570.04894)
(0.00029258153 0.00029258154 570.0499)
(0.00015480408 0.00028289731 570.05039)
(8.4667727e-05 0.00027811746 570.05069)
(2.5672755e-05 0.00027486113 570.05083)
(-2.687865e-05 0.00027178281 570.05082)
(-7.3262792e-05 0.00026787101 570.05068)
(-0.00011097953 0.00026161084 570.05043)
(-0.00013143614 0.00024993805 570.05009)
(-4.5235699e-05 0.0002273174 570.0497)
(0.00012663731 0.00016286169 570.04947)
(0.00028289731 0.00015480408 570.05039)
(0.0001483976 0.00014839761 570.05086)
(8.0207617e-05 0.00014359143 570.05115)
(2.1870402e-05 0.00013957281 570.05128)
(-3.1010722e-05 0.00013562372 570.05126)
(-7.8757507e-05 0.00013106064 570.05111)
(-0.00011906075 0.00012512367 570.05084)
(-0.00014231102 0.00011719926 570.05047)
(-4.9252021e-05 0.00010853649 570.05005)
(0.00012513469 8.8243789e-05 570.04978)
(0.00027811745 8.4667714e-05 570.05069)
(0.00014359142 8.0207624e-05 570.05115)
(7.5842934e-05 7.584293e-05 570.05143)
(1.7705048e-05 7.1679074e-05 570.05154)
(-3.5390823e-05 6.7515646e-05 570.05152)
(-8.3762844e-05 6.3074495e-05 570.05135)
(-0.00012484091 5.8164979e-05 570.05107)
(-0.00014802332 5.3012897e-05 570.05068)
(-5.1010879e-05 4.8948492e-05 570.05025)
(0.00012425326 2.8205052e-05 570.04992)
(0.00027486114 2.5672747e-05 570.05083)
(0.00013957281 2.1870401e-05 570.05128)
(7.1679067e-05 1.7705049e-05 570.05154)
(1.3543117e-05 1.3543111e-05 570.05165)
(-3.9615301e-05 9.4294677e-06 570.05161)
(-8.8108174e-05 5.309991e-06 570.05144)
(-0.00012912234 1.2303779e-06 570.05114)
(-0.00015152751 -2.4458842e-06 570.05075)
(-5.1961624e-05 -4.8528242e-06 570.0503)
(0.00012344648 -2.4020589e-05 570.04992)
(0.0002717828 -2.6878649e-05 570.05082)
(0.00013562372 -3.1010729e-05 570.05126)
(6.7515644e-05 -3.5390821e-05 570.05152)
(9.4294669e-06 -3.9615304e-05 570.05161)
(-4.3623944e-05 -4.3623945e-05 570.05156)
(-9.1961934e-05 -4.7449004e-05 570.05138)
(-0.00013259679 -5.1029153e-05 570.05107)
(-0.00015410652 -5.4057109e-05 570.05067)
(-5.2615505e-05 -5.5912933e-05 570.05022)
(0.00012234788 -6.8585549e-05 570.04979)
(0.000267871 -7.3262786e-05 570.05068)
(0.00013106064 -7.8757503e-05 570.05111)
(6.3074493e-05 -8.3762848e-05 570.05135)
(5.3099939e-06 -8.810817e-05 570.05144)
(-4.7449001e-05 -9.1961932e-05 570.05138)
(-9.5513382e-05 -9.5513381e-05 570.05119)
(-0.00013573045 -9.8829007e-05 570.05087)
(-0.00015641129 -0.00010172296 570.05046)
(-5.3198841e-05 -0.00010361033 570.05001)
(0.00012032833 -0.0001011278 570.04956)
(0.00026161085 -0.00011097953 570.05043)
(0.00012512366 -0.00011906075 570.05084)
(5.8164978e-05 -0.00012484091 570.05107)
(1.2303827e-06 -0.00012912234 570.05114)
(-5.1029155e-05 -0.00013259678 570.05107)
(-9.8829009e-05 -0.00013573045 570.05087)
(-0.00013880637 -0.00013880637 570.05055)
(-0.00015888785 -0.00014185537 570.05013)
(-5.387375e-05 -0.00014428238 570.04967)
(0.00011578006 -0.00010801758 570.04925)
(0.00024993805 -0.00013143614 570.05009)
(0.00011719926 -0.00014231103 570.05047)
(5.3012898e-05 -0.00014802332 570.05068)
(-2.4458765e-06 -0.00015152751 570.05075)
(-5.4057109e-05 -0.00015410653 570.05067)
(-0.00010172297 -0.00015641129 570.05046)
(-0.00014185537 -0.00015888785 570.05013)
(-0.00016188731 -0.0001618873 570.0497)
(-5.4816845e-05 -0.00016517129 570.04923)
(0.00010471595 -3.4171585e-05 570.04896)
(0.0002273174 -4.5235697e-05 570.0497)
(0.00010853649 -4.9252023e-05 570.05005)
(4.8948496e-05 -5.1010879e-05 570.05025)
(-4.8528222e-06 -5.1961624e-05 570.0503)
(-5.5912935e-05 -5.2615509e-05 570.05022)
(-0.00010361033 -5.3198841e-05 570.05001)
(-0.00014428238 -5.3873754e-05 570.04967)
(-0.00016517128 -5.4816846e-05 570.04923)
(-5.6063072e-05 -5.6063073e-05 570.04875)
(0.00064233745 0.00064233745 842.36405)
(0.0014397096 0.0005615402 842.36538)
(0.00076288223 0.00054362973 842.36608)
(0.00042029593 0.0005365705 842.36651)
(0.00013236152 0.00053231785 842.3667)
(-0.0001221385 0.0005283856 842.36669)
(-0.00034223038 0.00052299666 842.36649)
(-0.00050948803 0.00051291339 842.36612)
(-0.00056734529 0.00048890384 842.36562)
(-0.00018613652 0.00041975446 842.36507)
(0.0005615402 0.0014397096 842.36538)
(0.0012916481 0.0012916481 842.36654)
(0.00072542768 0.001246713 842.3672)
(0.00040332811 0.0012240429 842.36762)
(0.00012008417 0.0012082906 842.3678)
(-0.00013612029 0.0011932887 842.36778)
(-0.00036543869 0.0011741406 842.36757)
(-0.00056062726 0.0011431654 842.36717)
(-0.0007070837 0.0010832236 842.36662)
(-0.00025528591 0.00095073772 842.36589)
(0.00054362973 0.00076288223 842.36608)
(0.0012467129 0.00072542769 842.3672)
(0.00069527711 0.00069527711 842.36783)
(0.0003818736 0.00067216586 842.36823)
(0.00010160732 0.00065265547 842.3684)
(-0.00015628848 0.00063340583 842.36837)
(-0.00039235373 0.0006111152 842.36813)
(-0.00060040503 0.00058204006 842.36771)
(-0.00075977297 0.00054308845 842.36712)
(-0.00027446047 0.00050152458 842.36635)
(0.0005365705 0.00042029593 842.36651)
(0.0012240429 0.00040332811 842.36762)
(0.00067216586 0.0003818736 842.36823)
(0.00036070648 0.00036070648 842.36861)
(8.1324139e-05 0.00034043628 842.36876)
(-0.00017766056 0.00032012914 842.36871)
(-0.00041680446 0.00029844366 842.36846)
(-0.00062865401 0.00027445452 842.36802)
(-0.00078759918 0.00024927875 842.3674)
(-0.00028299516 0.00022951807 842.36661)
(0.00053231785 0.00013236152 842.3667)
(0.0012082906 0.00012008416 842.3678)
(0.00065265548 0.00010160732 842.3684)
(0.00034043628 8.1324143e-05 842.36876)
(6.1029979e-05 6.1029978e-05 842.3689)
(-0.0001982811 4.0951074e-05 842.36884)
(-0.00043802835 2.0827037e-05 842.36857)
(-0.00064956994 8.8380214e-07 842.36811)
(-0.00080470942 -1.7094925e-05 842.36748)
(-0.00028763426 -2.8861823e-05 842.36668)
(0.00052838559 -0.0001221385 842.36669)
(0.0011932887 -0.00013612029 842.36778)
(0.00063340584 -0.00015628849 842.36837)
(0.00032012913 -0.00017766057 842.36871)
(4.095107e-05 -0.00019828111 842.36884)
(-0.0002178635 -0.00021786351 842.36875)
(-0.00045687173 -0.00023657247 842.36847)
(-0.00066657598 -0.00025411731 842.368)
(-0.00081734481 -0.00026899954 842.36735)
(-0.00029083975 -0.00027815618 842.36654)
(0.00052299665 -0.00034223038 842.36649)
(0.0011741406 -0.00036543869 842.36757)
(0.00061111521 -0.00039235373 842.36813)
(0.00029844366 -0.00041680445 842.36846)
(2.0827034e-05 -0.00043802834 842.36857)
(-0.00023657246 -0.00045687173 842.36847)
(-0.00047428215 -0.00047428216 842.36817)
(-0.00068199702 -0.00049062455 842.36769)
(-0.00082874829 -0.0005050427 842.36703)
(-0.00029373868 -0.00051463073 842.36622)
(0.00051291339 -0.00050948804 842.36612)
(0.0011431654 -0.00056062725 842.36717)
(0.00058204007 -0.00060040501 842.36771)
(0.00027445452 -0.00062865401 842.36802)
(8.8379747e-07 -0.00064956994 842.36811)
(-0.00025411731 -0.00066657596 842.368)
(-0.00049062455 -0.00068199702 842.36769)
(-0.00069733652 -0.00069733651 842.36719)
(-0.00084135098 -0.00071301309 842.36652)
(-0.00029723177 -0.00072635003 842.3657)
(0.00048890384 -0.0005673453 842.36562)
(0.0010832237 -0.0007070837 842.36662)
(0.00054308845 -0.00075977297 842.36712)
(0.00024927873 -0.00078759918 842.3674)
(-1.7094918e-05 -0.00080470942 842.36748)
(-0.00026899953 -0.00081734481 842.36735)
(-0.0005050427 -0.00082874828 842.36703)
(-0.00071301309 -0.00084135098 842.36652)
(-0.00085776181 -0.00085776179 842.36584)
(-0.00030262998 -0.00087962219 842.36499)
(0.00041975446 -0.00018613653 842.36507)
(0.00095073773 -0.00025528591 842.36589)
(0.00050152459 -0.00027446048 842.36635)
(0.00022951807 -0.00028299515 842.36661)
(-2.8861835e-05 -0.00028763425 842.36668)
(-0.00027815618 -0.00029083976 842.36654)
(-0.00051463072 -0.00029373868 842.36622)
(-0.00072635003 -0.00029723178 842.3657)
(-0.00087962219 -0.00030262997 842.36499)
(-0.00031180537 -0.00031180537 842.3641)
(0.0010362896 0.0010362896 836.8687)
(0.0023534224 0.00090606469 836.86981)
(0.001287354 0.00087672819 836.87042)
(0.00071367684 0.00086477083 836.8708)
(0.00021319074 0.00085736223 836.87096)
(-0.00023884645 0.00085040227 836.87093)
(-0.00063999312 0.00084078099 836.87071)
(-0.00096761278 0.00082262627 836.87031)
(-0.0011581067 0.0007789112 836.86976)
(-0.00040250721 0.00065134524 836.86909)
(0.00090606468 0.0023534224 836.86981)
(0.0021140804 0.0021140804 836.87079)
(0.0012254132 0.0020396732 836.87137)
(0.0006846279 0.0020009036 836.87173)
(0.0001916379 0.0019733508 836.87189)
(-0.0002637183 0.0019467871 836.87184)
(-0.00068165712 0.001912657 836.87161)
(-0.0010604175 0.0018571314 836.87119)
(-0.0014150283 0.001748891 836.87058)
(-0.00053007316 0.0015075365 836.86973)
(0.00087672819 0.001287354 836.87042)
(0.0020396732 0.0012254132 836.87137)
(0.0011741772 0.0011741772 836.87192)
(0.00064735444 0.0011340601 836.87226)
(0.00015907424 0.0010997375 836.87241)
(-0.0002995402 0.0010656185 836.87235)
(-0.00072964883 0.0010259518 836.8721)
(-0.0011313788 0.00097411038 836.87165)
(-0.0015077017 0.0009047424 836.87101)
(-0.00056341024 0.00083226983 836.87012)
(0.00086477083 0.00071367684 836.8708)
(0.0020009036 0.0006846279 836.87173)
(0.0011340601 0.00064735444 836.87226)
(0.0006101882 0.0006101882 836.8726)
(0.00012319631 0.00057435536 836.87272)
(-0.00033750402 0.00053830793 836.87265)
(-0.00077316521 0.00049972063 836.87238)
(-0.0011816269 0.00045699252 836.87192)
(-0.0015568688 0.00041221386 836.87125)
(-0.00057838821 0.0003774034 836.87034)
(0.00085736223 0.00021319073 836.87096)
(0.0019733508 0.00019163789 836.87189)
(0.0010997375 0.00015907425 836.87241)
(0.00057435536 0.00012319631 836.87272)
(8.7193976e-05 8.7193973e-05 836.87284)
(-0.00037417493 5.1487507e-05 836.87275)
(-0.00081096424 1.5627443e-05 836.87246)
(-0.0012188856 -1.9968082e-05 836.87198)
(-0.0015872908 -5.2079944e-05 836.87129)
(-0.00058661721 -7.3059352e-05 836.87038)
(0.00085040227 -0.00023884645 836.87093)
(0.0019467871 -0.00026371831 836.87184)
(0.0010656185 -0.00029954019 836.87235)
(0.00053830793 -0.00033750402 836.87265)
(5.1487508e-05 -0.00037417493 836.87275)
(-0.00040907055 -0.00040907055 836.87265)
(-0.0008446208 -0.00044251316 836.87235)
(-0.0012493343 -0.00047401962 836.87185)
(-0.0016099601 -0.00050092505 836.87115)
(-0.00059237448 -0.00051762531 836.87022)
(0.00084078099 -0.00063999312 836.87071)
(0.001912657 -0.00068165712 836.87161)
(0.0010259518 -0.00072964883 836.8721)
(0.00049972062 -0.00077316521 836.87238)
(1.5627438e-05 -0.00081096424 836.87246)
(-0.00044251315 -0.0008446208 836.87235)
(-0.00087591331 -0.00087591332 836.87203)
(-0.0012772974 -0.00090565334 836.87152)
(-0.0016308965 -0.00093252312 836.87081)
(-0.00059775072 -0.000951176 836.86988)
(0.00082262627 -0.00096761278 836.87031)
(0.0018571314 -0.0010604175 836.87119)
(0.00097411038 -0.0011313788 836.87165)
(0.00045699252 -0.0011816269 836.87192)
(-1.9968084e-05 -0.0012188856 836.87198)
(-0.00047401963 -0.0012493343 836.87185)
(-0.00090565335 -0.0012772974 836.87152)
(-0.0013059441 -0.0013059441 836.871)
(-0.0016554827 -0.0013371613 836.87027)
(-0.00060480973 -0.0013675381 836.86933)
(0.00077891121 -0.0011581067 836.86976)
(0.001748891 -0.0014150283 836.87058)
(0.00090474238 -0.0015077017 836.87101)
(0.00041221386 -0.0015568688 836.87125)
(-5.2079929e-05 -0.0015872908 836.87129)
(-0.00050092504 -0.0016099601 836.87115)
(-0.00093252313 -0.0016308965 836.87081)
(-0.0013371613 -0.0016554827 836.87027)
(-0.0016924905 -0.0016924905 836.86953)
(-0.00061800196 -0.0017621177 836.86856)
(0.00065134524 -0.0004025072 836.86909)
(0.0015075365 -0.00053007317 836.86973)
(0.00083226983 -0.00056341024 836.87012)
(0.0003774034 -0.0005783882 836.87034)
(-7.3059347e-05 -0.00058661721 836.87038)
(-0.0005176253 -0.00059237448 836.87022)
(-0.000951176 -0.00059775071 836.86988)
(-0.0013675381 -0.00060480973 836.86933)
(-0.0017621177 -0.00061800195 836.86856)
(-0.00065122787 -0.00065122787 836.86752)
(0.001387821 0.001387821 831.46686)
(0.0031645091 0.0012136626 831.46788)
(0.0017473899 0.0011742864 831.46842)
(0.00096470177 0.0011579191 831.46875)
(0.00026482029 0.0011475631 831.46888)
(-0.0003788353 0.0011376908 831.46882)
(-0.00096206163 0.0011239305 831.46858)
(-0.0014583338 0.0010978152 831.46816)
(-0.0017902313 0.0010345855 831.46758)
(-0.00063359532 0.00084909041 831.46689)
(0.0012136626 0.0031645091 831.46788)
(0.0028442071 0.0028442071 831.46877)
(0.0016637747 0.002743726 831.46928)
(0.00092461682 0.0026903091 831.4696)
(0.00023447778 0.0026516682 831.46972)
(-0.00041428413 0.0026139774 831.46965)
(-0.0010218751 0.002565231 831.4694)
(-0.0015923513 0.0024855866 831.46896)
(-0.0021633185 0.0023297394 831.46832)
(-0.00081909045 0.0019809366 831.46745)
(0.0011742864 0.0017473898 831.46842)
(0.002743726 0.0016637747 831.46928)
(0.0015934919 0.0015934919 831.46977)
(0.00087264404 0.0015376086 831.47007)
(0.00018848855 0.001489232 831.47018)
(-0.0004652725 0.0014407734 831.4701)
(-0.0010904524 0.0013841925 831.46983)
(-0.0016938255 0.0013100992 831.46936)
(-0.0022948814 0.0012110221 831.46869)
(-0.00086613053 0.001108681 831.46778)
(0.0011579191 0.00096470177 831.46875)
(0.0026903091 0.00092461682 831.4696)
(0.0015376085 0.00087264403 831.47007)
(0.00082035699 0.00082035698 831.47036)
(0.00013764266 0.00076961064 831.47045)
(-0.00051932369 0.00071832705 831.47036)
(-0.0011525493 0.00066327459 831.47007)
(-0.0017655216 0.00060223947 831.46958)
(-0.0023647366 0.00053833343 831.46889)
(-0.00088731784 0.00048896897 831.46796)
(0.0011475631 0.00026482029 831.46888)
(0.0026516682 0.00023447778 831.46972)
(0.001489232 0.00018848855 831.47018)
(0.00076961065 0.00013764265 831.47045)
(8.6458617e-05 8.6458602e-05 831.47054)
(-0.00057160855 3.5550623e-05 831.47043)
(-0.00120654 -1.5702917e-05 831.47012)
(-0.0018187666 -6.667559e-05 831.46962)
(-0.0024081519 -0.00011270043 831.46891)
(-0.00089904017 -0.00014273022 831.46797)
(0.0011376908 -0.00037883529 831.46882)
(0.0026139773 -0.00041428413 831.46965)
(0.0014407734 -0.00046527249 831.4701)
(0.00071832704 -0.00051932368 831.47036)
(3.5550633e-05 -0.00057160855 831.47043)
(-0.00062148521 -0.00062148521 831.4703)
(-0.0012547755 -0.00066945593 831.46998)
(-0.0018625192 -0.00071486736 831.46947)
(-0.0024407913 -0.00075388624 831.46874)
(-0.0009073377 -0.00077827157 831.4678)
(0.0011239305 -0.00096206163 831.46858)
(0.002565231 -0.0010218751 831.4694)
(0.0013841925 -0.0010904524 831.46983)
(0.00066327458 -0.0011525493 831.47007)
(-1.5702908e-05 -0.00120654 831.47012)
(-0.00066945593 -0.0012547755 831.46998)
(-0.0012999221 -0.0012999221 831.46965)
(-0.001903197 -0.0013433261 831.46912)
(-0.0024715561 -0.0013832645 831.46839)
(-0.00091529705 -0.0014117104 831.46743)
(0.0010978152 -0.0014583338 831.46816)
(0.0024855866 -0.0015923513 831.46896)
(0.0013100992 -0.0016938255 831.46936)
(0.00060223948 -0.0017655216 831.46958)
(-6.667559e-05 -0.0018187666 831.46962)
(-0.00071486737 -0.0018625192 831.46947)
(-0.0013433261 -0.001903197 831.46912)
(-0.0019458615 -0.0019458615 831.46858)
(-0.0025091756 -0.0019941738 831.46783)
(-0.0009263017 -0.0020436954 831.46686)
(0.0010345855 -0.0017902313 831.46758)
(0.0023297394 -0.0021633185 831.46832)
(0.0012110221 -0.0022948814 831.46869)
(0.00053833343 -0.0023647366 831.46889)
(-0.00011270042 -0.0024081519 831.46891)
(-0.00075388625 -0.0024407913 831.46874)
(-0.0013832645 -0.0024715561 831.46839)
(-0.0019941738 -0.0025091756 831.46783)
(-0.0025693899 -0.0025693899 831.46706)
(-0.00094831143 -0.0026907775 831.46607)
(0.0008490904 -0.00063359531 831.46689)
(0.0019809365 -0.00081909046 831.46745)
(0.0011086811 -0.00086613053 831.46778)
(0.00048896898 -0.00088731784 831.46796)
(-0.00014273022 -0.00089904017 831.46797)
(-0.00077827157 -0.0009073377 831.4678)
(-0.0014117104 -0.00091529705 831.46743)
(-0.0020436954 -0.0009263017 831.46686)
(-0.0026907775 -0.00094831143 831.46607)
(-0.0010072268 -0.0010072268 831.465)
(0.0017152937 0.0017152937 826.156)
(0.0039109627 0.0014994175 826.15695)
(0.0021567762 0.0014507186 826.15744)
(0.0011774004 0.0014302689 826.15773)
(0.00028832857 0.0014171408 826.15783)
(-0.0005400225 0.0014044784 826.15775)
(-0.0013015882 0.0013867079 826.1575)
(-0.0019644957 0.0013528464 826.15707)
(-0.002432651 0.0012706189 826.15648)
(-0.00086669259 0.0010288096 826.15579)
(0.0014994175 0.0039109627 826.15695)
(0.0035141001 0.0035141001 826.15779)
(0.0020530533 0.0033894755 826.15825)
(0.0011270337 0.0033224621 826.15852)
(0.00024964283 0.0032733653 826.15862)
(-0.00058567191 0.003225013 826.15853)
(-0.0013790361 0.003162124 826.15826)
(-0.0021386292 0.0030590458 826.15781)
(-0.0029187062 0.0028569121 826.15717)
(-0.0011085018 0.0024037696 826.15631)
(0.0014507186 0.0021567762 826.15744)
(0.0033894755 0.0020530533 826.15825)
(0.0019651382 0.0019651382 826.15869)
(0.0010612902 0.0018945119 826.15895)
(0.00019087949 0.0018328114 826.15903)
(-0.00065126372 0.0017705955 826.15893)
(-0.0014675554 0.001697665 826.15864)
(-0.0022697076 0.0016019934 826.15817)
(-0.0030879272 0.0014741066 826.15749)
(-0.0011687876 0.0013429071 826.15659)
(0.0014302689 0.0011774004 826.15773)
(0.0033224621 0.0011270337 826.15852)
(0.0018945119 0.0010612902 826.15895)
(0.00099470693 0.00099470693 826.1592)
(0.00012572642 0.0009297245 826.15927)
(-0.00072081828 0.00086377819 826.15915)
(-0.0015476383 0.00079279164 826.15885)
(-0.0023621877 0.0007139926 826.15835)
(-0.0031777925 0.00063152976 826.15766)
(-0.0011959681 0.00056809405 826.15674)
(0.0014171408 0.00028832856 826.15783)
(0.0032733653 0.00024964281 826.15862)
(0.0018328114 0.00019087948 826.15903)
(0.0009297245 0.00012572642 826.15927)
(5.9950746e-05 5.995075e-05 826.15932)
(-0.00078819658 -5.6513005e-06 826.15919)
(-0.001617341 -7.1859921e-05 826.15888)
(-0.0024309695 -0.00013782631 826.15836)
(-0.0032338258 -0.00019743894 826.15765)
(-0.0012110781 -0.00023629749 826.15673)
(0.0014044784 -0.0005400225 826.15775)
(0.003225013 -0.00058567191 826.15853)
(0.0017705955 -0.00065126373 826.15893)
(0.0008637782 -0.00072081828 826.15915)
(-5.651296e-06 -0.00078819658 826.15919)
(-0.00085262895 -0.00085262895 826.15905)
(-0.0016798133 -0.00091480815 826.15872)
(-0.0024877667 -0.00097391509 826.15819)
(-0.0032762637 -0.0010249409 826.15747)
(-0.0012218738 -0.0010569728 826.15653)
(0.0013867079 -0.0013015882 826.1575)
(0.003162124 -0.0013790361 826.15826)
(0.0016976651 -0.0014675554 826.15864)
(0.00079279165 -0.0015476383 826.15885)
(-7.1859919e-05 -0.001617341 826.15888)
(-0.00091480815 -0.0016798133 826.15872)
(-0.0017386272 -0.0017386272 826.15837)
(-0.0025411023 -0.001795681 826.15783)
(-0.0033168835 -0.0018488247 826.1571)
(-0.0012324327 -0.0018872151 826.15616)
(0.0013528464 -0.0019644957 826.15707)
(0.0030590458 -0.0021386292 826.15781)
(0.0016019933 -0.0022697076 826.15817)
(0.00071399261 -0.0023621877 826.15835)
(-0.00013782632 -0.0024309695 826.15836)
(-0.00097391509 -0.0024877667 826.15819)
(-0.001795681 -0.0025411023 826.15783)
(-0.0025979642 -0.0025979642 826.15728)
(-0.0033677978 -0.0026637491 826.15653)
(-0.0012474675 -0.0027326665 826.15558)
(0.0012706189 -0.002432651 826.15648)
(0.0028569121 -0.0029187062 826.15717)
(0.0014741066 -0.0030879272 826.15749)
(0.00063152976 -0.0031777925 826.15766)
(-0.00019743894 -0.0032338258 826.15765)
(-0.0010249409 -0.0032762637 826.15747)
(-0.0018488247 -0.0033168835 826.1571)
(-0.0026637491 -0.0033677978 826.15653)
(-0.0034515858 -0.0034515857 826.15576)
(-0.0012783776 -0.0036239871 826.15478)
(0.0010288096 -0.00086669258 826.15579)
(0.0024037696 -0.0011085018 826.15631)
(0.0013429071 -0.0011687876 826.15659)
(0.00056809405 -0.0011959681 826.15674)
(-0.0002362975 -0.0012110781 826.15673)
(-0.0010569728 -0.0012218738 826.15653)
(-0.0018872152 -0.0012324326 826.15616)
(-0.0027326665 -0.0012474675 826.15558)
(-0.003623987 -0.0012783776 826.15478)
(-0.0013624017 -0.0013624017 826.15373)
(0.0020229143 0.0020229143 820.93364)
(0.0046047547 0.0017671708 820.93453)
(0.0025245444 0.0017096732 820.93498)
(0.0013572154 0.0016853927 820.93523)
(0.00028776639 0.0016696474 820.93531)
(-0.00071744043 0.0016543227 820.93521)
(-0.0016505159 0.0016326997 820.93494)
(-0.0024732775 0.0015913801 820.93451)
(-0.0030691923 0.0014908628 820.93393)
(-0.0010961855 0.0011948812 820.93325)
(0.0017671708 0.0046047547 820.93453)
(0.0041348931 0.0041348931 820.93531)
(0.0024018773 0.0039875525 820.93573)
(0.0012971766 0.0039077805 820.93597)
(0.00024116142 0.0038488026 820.93604)
(-0.00077286188 0.0037902797 820.93593)
(-0.0017449298 0.0037138138 820.93566)
(-0.0026860329 0.0035881856 820.9352)
(-0.0036639408 0.0033415091 820.93457)
(-0.0013921671 0.0027880418 820.93373)
(0.0017096732 0.0025245444 820.93498)
(0.0039875525 0.0024018773 820.93573)
(0.0022974318 0.0022974318 820.93613)
(0.0012184655 0.0022129399 820.93636)
(0.00017026562 0.0021386159 820.93642)
(-0.00085242928 0.0020632662 820.9363)
(-0.00185261 0.0019746459 820.936)
(-0.0028455821 0.0018582211 820.93553)
(-0.0038693362 0.0017026282 820.93486)
(-0.0014651637 0.0015437332 820.93399)
(0.0016853927 0.0013572153 820.93523)
(0.0039077805 0.0012971766 820.93597)
(0.0022129399 0.0012184655 820.93636)
(0.0011383607 0.0011383607 820.93657)
(9.1487746e-05 0.001059834 820.93662)
(-0.00093683192 0.00097985807 820.93649)
(-0.0019499749 0.000893562 820.93618)
(-0.0029580506 0.00079766097 820.93568)
(-0.0039784287 0.00069733272 820.935)
(-0.0014980971 0.00062037482 820.93411)
(0.0016696474 0.00028776638 820.93531)
(0.0038488026 0.0002411614 820.93604)
(0.0021386159 0.0001702656 820.93642)
(0.001059834 9.1487747e-05 820.93662)
(1.1763025e-05 1.1763022e-05 820.93665)
(-0.0010187013 -6.7946607e-05 820.93651)
(-0.0020348071 -0.00014856908 820.93618)
(-0.0030418114 -0.00022902453 820.93567)
(-0.0040466224 -0.00030178038 820.93497)
(-0.001516469 -0.00034917077 820.93407)
(0.0016543227 -0.00071744043 820.93521)
(0.0037902797 -0.00077286187 820.93593)
(0.0020632662 -0.00085242928 820.9363)
(0.00097985809 -0.00093683192 820.93649)
(-6.7946608e-05 -0.0010187013 820.93651)
(-0.001097164 -0.001097164 820.93635)
(-0.0021110529 -0.0011731039 820.93601)
(-0.0031112619 -0.0012455339 820.93549)
(-0.0040985749 -0.0013082771 820.93477)
(-0.0015296907 -0.0013477779 820.93387)
(0.0016326997 -0.0016505159 820.93494)
(0.0037138138 -0.0017449298 820.93566)
(0.0019746459 -0.00185261 820.936)
(0.000893562 -0.0019499749 820.93618)
(-0.00014856908 -0.0020348071 820.93618)
(-0.0011731039 -0.0021110529 820.93601)
(-0.002183177 -0.002183177 820.93566)
(-0.0031769846 -0.0022536143 820.93512)
(-0.0041488664 -0.0023197627 820.9344)
(-0.0015428028 -0.0023679473 820.93348)
(0.0015913801 -0.0024732775 820.93451)
(0.0035881857 -0.0026860329 820.9352)
(0.0018582211 -0.0028455821 820.93553)
(0.00079766096 -0.0029580506 820.93568)
(-0.00022902454 -0.0030418114 820.93567)
(-0.0012455339 -0.0031112619 820.93549)
(-0.0022536143 -0.0031769846 820.93512)
(-0.0032478476 -0.0032478476 820.93457)
(-0.004212908 -0.0033308896 820.93384)
(-0.0015618138 -0.0034188539 820.93291)
(0.0014908628 -0.0030691923 820.93393)
(0.0033415091 -0.0036639407 820.93457)
(0.0017026282 -0.0038693362 820.93486)
(0.00069733271 -0.0039784287 820.935)
(-0.00030178039 -0.0040466224 820.93497)
(-0.0013082771 -0.0040985749 820.93477)
(-0.0023197627 -0.0041488664 820.9344)
(-0.0033308896 -0.0042129079 820.93384)
(-0.0043198728 -0.0043198728 820.93308)
(-0.0016014457 -0.0045419397 820.93212)
(0.0011948812 -0.0010961855 820.93325)
(0.0027880418 -0.0013921671 820.93373)
(0.0015437332 -0.0014651637 820.93399)
(0.00062037482 -0.0014980971 820.93411)
(-0.00034917077 -0.001516469 820.93407)
(-0.0013477779 -0.0015296907 820.93387)
(-0.0023679473 -0.0015428028 820.93348)
(-0.0034188539 -0.0015618138 820.93291)
(-0.0045419397 -0.0016014457 820.93212)
(-0.0017098584 -0.0017098584 820.9311)
(0.0023113002 0.0023113002 815.79742)
(0.0052495611 0.0020176635 815.79826)
(0.0028559701 0.0019518597 815.79866)
(0.0015089286 0.0019239768 815.79888)
(0.00026782495 0.0019057627 815.79894)
(-0.00090551054 0.0018879118 815.79883)
(-0.0020014552 0.0018626178 815.79856)
(-0.0029752058 0.0018141821 815.79813)
(-0.003689724 0.0016962134 815.79757)
(-0.0013188048 0.0013485506 815.79691)
(0.0020176635 0.0052495611 815.79826)
(0.0047104004 0.0047104004 815.79898)
(0.0027154399 0.0045416579 815.79936)
(0.001439783 0.0044498925 815.79958)
(0.00021372747 0.0043815928 815.79962)
(-0.00097022783 0.0043134208 815.79951)
(-0.0021120497 0.0042240233 815.79922)
(-0.0032248124 0.0040768861 815.79878)
(-0.0043881712 0.0037877211 815.79816)
(-0.0016664676 0.0031385854 815.79736)
(0.0019518597 0.0028559701 815.79866)
(0.0045416579 0.0027154399 815.79936)
(0.0025954622 0.0025954622 815.79973)
(0.0013488635 0.0024979265 815.79993)
(0.00013135322 0.0024116788 815.79996)
(-0.00106308 0.0023238637 815.79983)
(-0.0022379898 0.0022203012 815.79954)
(-0.003411508 0.0020840847 815.79907)
(-0.0046280247 0.0019020728 815.79842)
(-0.0017515619 0.0017168125 815.79758)
(0.0019239768 0.0015089286 815.79888)
(0.0044498925 0.001439783 815.79958)
(0.0024979265 0.0013488635 815.79993)
(0.0012559996 0.0012559996 815.80011)
(3.9664691e-05 0.0011646467 815.80014)
(-0.0011616055 0.0010713342 815.8)
(-0.0023518287 0.00097044306 815.79969)
(-0.0035430409 0.00085821596 815.7992)
(-0.0047554434 0.00074083416 815.79854)
(-0.0017899744 0.00065098627 815.79768)
(0.0019057627 0.00026782495 815.79894)
(0.0043815928 0.00021372747 815.79962)
(0.0024116788 0.00013135321 815.79996)
(0.0011646467 3.9664685e-05 815.80014)
(-5.3312162e-05 -5.3312169e-05 815.80015)
(-0.0012572837 -0.00014646572 815.8)
(-0.0024511081 -0.00024086188 815.79967)
(-0.0036411169 -0.00033518755 815.79917)
(-0.0048352544 -0.00042053179 815.79849)
(-0.0018114605 -0.00047608664 815.79763)
(0.0018879118 -0.00090551055 815.79883)
(0.0043134208 -0.00097022783 815.79951)
(0.0023238637 -0.00106308 815.79983)
(0.0010713342 -0.0011616055 815.8)
(-0.00014646571 -0.0012572837 815.8)
(-0.0013491552 -0.0013491552 815.79983)
(-0.0025405506 -0.0014382895 815.79949)
(-0.0037227108 -0.0015235305 815.79898)
(-0.0048963425 -0.0015975601 815.79829)
(-0.001827011 -0.0016442558 815.79742)
(0.0018626178 -0.0020014552 815.79856)
(0.0042240233 -0.0021120497 815.79922)
(0.0022203012 -0.0022379898 815.79954)
(0.00097044307 -0.0023518287 815.79969)
(-0.00024086188 -0.0024511081 815.79967)
(-0.0014382895 -0.0025405506 815.79949)
(-0.0026254834 -0.0026254834 815.79914)
(-0.0038003874 -0.0027088508 815.79862)
(-0.0049559797 -0.0027875913 815.79791)
(-0.001842591 -0.0028452578 815.79703)
(0.0018141821 -0.0029752058 815.79813)
(0.0040768861 -0.0032248124 815.79878)
(0.0020840847 -0.003411508 815.79907)
(0.00085821596 -0.0035430408 815.7992)
(-0.00033518754 -0.0036411169 815.79917)
(-0.0015235304 -0.0037227108 815.79898)
(-0.0027088508 -0.0038003874 815.79862)
(-0.0038848187 -0.0038848187 815.79808)
(-0.0050327496 -0.0039845975 815.79736)
(-0.0018654553 -0.0040909948 815.79647)
(0.0016962134 -0.003689724 815.79757)
(0.0037877211 -0.0043881712 815.79816)
(0.0019020728 -0.0046280247 815.79842)
(0.00074083414 -0.0047554434 815.79854)
(-0.0004205318 -0.0048352544 815.79849)
(-0.00159756 -0.0048963425 815.79829)
(-0.0027875913 -0.0049559798 815.79791)
(-0.0039845975 -0.0050327496 815.79736)
(-0.0051621559 -0.0051621559 815.79663)
(-0.0019135226 -0.0054321736 815.79571)
(0.0013485506 -0.0013188048 815.79691)
(0.0031385854 -0.0016664676 815.79736)
(0.0017168125 -0.0017515619 815.79758)
(0.00065098627 -0.0017899744 815.79768)
(-0.00047608664 -0.0018114605 815.79763)
(-0.0016442558 -0.001827011 815.79742)
(-0.0028452578 -0.001842591 815.79703)
(-0.0040909948 -0.0018654553 815.79647)
(-0.0054321736 -0.0019135225 815.79571)
(-0.0020454671 -0.0020454671 815.79473)
(0.0025799605 0.0025799605 810.74516)
(0.0058458872 0.0022506029 810.74594)
(0.0031540308 0.0021770045 810.74631)
(0.0016362648 0.0021457482 810.7465)
(0.00023282499 0.0021252171 810.74654)
(-0.0010990486 0.0021049857 810.74642)
(-0.0023481057 0.0020762233 810.74615)
(-0.0034630264 0.0020210579 810.74574)
(-0.0042870236 0.0018865831 810.7452)
(-0.0015322732 0.0014900338 810.74457)
(0.0022506029 0.0058458872 810.74594)
(0.0052414533 0.0052414533 810.74661)
(0.0029967488 0.0050526516 810.74696)
(0.0015585837 0.0049496577 810.74714)
(0.00017168123 0.0048726087 810.74717)
(-0.0011725393 0.0047953465 810.74705)
(-0.0024739973 0.0046937349 810.74677)
(-0.0037474867 0.0045262624 810.74633)
(-0.0050835598 0.0041969237 810.74574)
(-0.0019288225 0.0034573382 810.74498)
(0.0021770046 0.0031540308 810.74631)
(0.0050526516 0.0029967488 810.74696)
(0.0028622353 0.0028622353 810.74729)
(0.0014562219 0.0027524811 810.74746)
(7.851376e-05 0.0026550335 810.74748)
(-0.0012779224 0.0025554723 810.74734)
(-0.0026171898 0.0024377974 810.74705)
(-0.0039598376 0.0022828715 810.7466)
(-0.0053559479 0.0020758906 810.74598)
(-0.0020253302 0.001865751 810.74518)
(0.0021457482 0.0016362648 810.7465)
(0.0049496577 0.0015585837 810.74714)