/*--------------------------------*- C++ -*----------------------------------*\
| =========                 |                                                 |
| \\      /  F ield         | OpenFOAM: The Open Source CFD Toolbox           |
|  \\    /   O peration     | Version:  v2106                                 |
|   \\  /    A nd           | Website:  www.openfoam.com                      |
|    \\/     M anipulation  |                                                 |
\*---------------------------------------------------------------------------*/
FoamFile
{
    version     2.0;
    format      ascii;
    arch        "LSB;label=32;scalar=64";
    class       volScalarField;
    location    "75";
    object      gradTx;
}
// * * * * * * * * * * * * * * * * * * * * * * * * * * * * * * * * * * * * * //

dimensions      [0 -1 0 1 0 0 0];

internalField   nonuniform List<scalar> 
4000
(
-0.00023948344
-0.00037325266
-3.2448816e-05
-2.3349976e-05
2.2929725e-06
2.6549149e-05
5.2314227e-05
8.1193861e-05
0.00010310674
3.6599728e-05
-0.00015427337
-0.00024392263
-2.8795583e-05
-2.050526e-05
2.8457399e-06
2.5531633e-05
5.0106796e-05
8.1176434e-05
0.00012442396
4.9927117e-05
-0.00015326342
-0.00023825538
-2.2498633e-05
-1.7658276e-05
3.2749524e-06
2.403329e-05
4.6174414e-05
7.2691058e-05
0.00010815738
4.293487e-05
-0.00015183788
-0.00023397244
-1.9146723e-05
-1.6095163e-05
3.295122e-06
2.2727053e-05
4.3589296e-05
6.8905478e-05
0.00010394804
4.1575991e-05
-0.00015136694
-0.00023256369
-1.8088536e-05
-1.5766461e-05
2.902211e-06
2.169119e-05
4.1984826e-05
6.691455e-05
0.00010211068
4.1055457e-05
-0.00015146937
-0.00023299046
-1.8697341e-05
-1.6467901e-05
2.1775512e-06
2.1001865e-05
4.1371197e-05
6.6418553e-05
0.00010178729
4.0981724e-05
-0.00015204528
-0.00023507955
-2.0893126e-05
-1.8108559e-05
1.1770339e-06
2.0685553e-05
4.1735331e-05
6.7359193e-05
0.00010290748
4.1334776e-05
-0.00015294099
-0.00023913028
-2.5214842e-05
-2.0657489e-05
-4.0550836e-08
2.0752376e-05
4.3090702e-05
6.991809e-05
0.00010593482
4.2317295e-05
-0.0001520569
-0.00024358235
-3.316407e-05
-2.3885077e-05
-1.3099005e-06
2.1130204e-05
4.5234874e-05
7.4146442e-05
0.00011171154
4.4385247e-05
-0.00013872951
-0.00023407963
-4.5690763e-05
-2.6704194e-05
-2.2012955e-06
2.1549172e-05
4.7238225e-05
7.8722157e-05
0.00011983652
4.7733946e-05
-0.0018817955
-0.0030879782
-0.00043991546
-0.0002202402
2.4586389e-05
0.00025676731
0.0005061078
0.00079489239
0.0010550971
0.00038649419
-0.001300084
-0.0021638501
-0.00036674786
-0.00019196708
2.963439e-05
0.00024643477
0.00048330727
0.00079544655
0.0013536791
0.00057578851
-0.0012657101
-0.0020720138
-0.00030630822
-0.00016520231
3.347157e-05
0.00023162023
0.00044448066
0.00071113291
0.0012098608
0.0005182685
-0.0012513056
-0.0020302428
-0.00027472758
-0.00015046747
3.344867e-05
0.00021877393
0.00041910054
0.00067317031
0.0011663914
0.00050401383
-0.0012468613
-0.0020169759
-0.00026480862
-0.00014749652
2.9495078e-05
0.00020862588
0.00040347576
0.00065379314
0.0011484425
0.00049891079
-0.0012479403
-0.0020213576
-0.00027091331
-0.00015444397
2.2370159e-05
0.00020188364
0.00039751001
0.00064901683
0.0011453897
0.00049823157
-0.0012537497
-0.002042123
-0.00029246947
-0.00017049086
1.2604792e-05
0.00019881323
0.00040112518
0.00065834335
0.0011565631
0.00050177093
-0.0012631406
-0.0020829848
-0.00033512004
-0.00019544887
7.7963715e-07
0.00019953307
0.0004145386
0.00068382488
0.0011871403
0.00051180219
-0.0012533802
-0.0021258825
-0.0004147457
-0.00022783064
-1.1548691e-05
0.00020336344
0.00043593323
0.00072672805
0.0012480671
0.0005341715
-0.0010640859
-0.001928221
-0.00052240772
-0.00025686721
-2.022209e-05
0.00020765366
0.00045628918
0.00077532891
0.0013447772
0.00057627562
-0.0028500164
-0.0047402348
-0.00075312634
-0.00035713212
5.9901426e-05
0.00046111241
0.00090669172
0.001487773
0.0023431817
0.00095340361
-0.0019895435
-0.0033573044
-0.00062411431
-0.00030939572
6.6834819e-05
0.00043807456
0.00084822149
0.0014237104
0.0027872211
0.001265842
-0.0019280628
-0.0031968245
-0.00052181531
-0.00026468664
7.1502372e-05
0.00040896668
0.00077446153
0.0012645975
0.002533943
0.0011692963
-0.0019035355
-0.0031259934
-0.0004686988
-0.00024064522
6.953463e-05
0.00038377956
0.00072599471
0.0011920923
0.0024520178
0.0011428746
-0.0018962385
-0.0031043791
-0.00045306481
-0.00023709606
6.0946041e-05
0.00036415291
0.00069647345
0.0011557392
0.0024185104
0.0011333935
-0.0018989132
-0.0031143925
-0.00046599899
-0.00025120155
4.6963108e-05
0.00035125024
0.00068535501
0.0011471694
0.0024133667
0.0011323269
-0.0019115971
-0.0031565248
-0.00050735981
-0.00028190982
2.841673e-05
0.00034556847
0.00069268765
0.0011659902
0.0024363766
0.0011397343
-0.0019378934
-0.0032466227
-0.00058822576
-0.00032918961
6.3234069e-06
0.00034746444
0.000719558
0.0012182698
0.0025023774
0.0011621806
-0.0019543055
-0.0033797003
-0.00073897784
-0.00039076809
-1.6506183e-05
0.00035581949
0.00076378807
0.001312655
0.0026552823
0.001222748
-0.0016418671
-0.0030558613
-0.00092342905
-0.00044462228
-3.2327729e-05
0.0003653307
0.00080856868
0.0014371755
0.0030105618
0.0013990336
-0.0035741271
-0.0059093844
-0.00089100528
-0.00041292118
0.00011334362
0.00063096278
0.0012186794
0.00202626
0.0034490104
0.0014626135
-0.0024914534
-0.0041685881
-0.00072733913
-0.00035272619
0.00011936926
0.00059358654
0.0011218975
0.0018873422
0.0040150264
0.0018881064
-0.0024135962
-0.0039648585
-0.00059704697
-0.00029683278
0.00012153936
0.00054826173
0.0010116225
0.0016518314
0.0036570136
0.0017562216
-0.0023823426
-0.0038746298
-0.00052991538
-0.00026813357
0.00011498733
0.00050922964
0.00093914561
0.0015441604
0.0035373592
0.0017182908
-0.0023734662
-0.0038487701
-0.00051245436
-0.00026680965
9.9999436e-05
0.00047910936
0.00089522105
0.0014906805
0.0034885175
0.0017045828
-0.0023783255
-0.003866434
-0.00053429732
-0.00028967351
7.8099234e-05
0.00045944772
0.00087874143
0.0014784429
0.0034816114
0.0017032556
-0.0023983837
-0.0039314712
-0.00059681126
-0.00033596202
5.0217524e-05
0.00045093718
0.00088998951
0.0015074756
0.0035174993
0.0017148933
-0.0024428468
-0.004073491
-0.0007170492
-0.00040607492
1.7695046e-05
0.0004542162
0.00093125188
0.0015888287
0.0036225995
0.0017511654
-0.0024909956
-0.0043058998
-0.00093999311
-0.00049711288
-1.5499927e-05
0.00046773227
0.0010003753
0.0017407363
0.0038831168
0.0018573666
-0.0020655027
-0.0038654878
-0.0011947165
-0.00057457098
-3.8052681e-05
0.00048319794
0.0010722399
0.0019544463
0.0045925155
0.0022240979
-0.0041460836
-0.0067508795
-0.00087444637
-0.0003920062
0.0001822784
0.00076205468
0.0014374426
0.0024100841
0.004334845
0.0018878275
-0.0028667159
-0.0047003436
-0.00068979715
-0.00032479194
0.00018490715
0.00070872719
0.0013000882
0.0021890745
0.0049907511
0.0024088062
-0.0027790596
-0.004470059
-0.00054211169
-0.00026347823
0.00018147713
0.00064532393
0.0011518813
0.0018758292
0.0045277437
0.0022418567
-0.0027436164
-0.0043680089
-0.00046739097
-0.00023443435
0.0001676711
0.00059078245
0.0010542879
0.0017321917
0.004370163
0.0021925171
-0.0027342501
-0.004341531
-0.00045175411
-0.00023817199
0.00014432304
0.00054887242
0.00099512042
0.0016610675
0.0043057978
0.0021745834
-0.0027418639
-0.0043688102
-0.00048462703
-0.00027158845
0.00011316092
0.00052150367
0.00097264733
0.0016447852
0.004296965
0.0021729735
-0.0027698018
-0.0044582618
-0.00056969885
-0.0003346235
7.5044261e-05
0.00050950136
0.00098736513
0.0016837867
0.0043456199
0.0021888167
-0.0028334335
-0.0046543715
-0.00073042723
-0.00042834933
3.1520315e-05
0.00051374838
0.0010427769
0.0017941258
0.0044896358
0.0022388014
-0.0029171415
-0.0049925166
-0.0010265816
-0.00054938521
-1.2362288e-05
0.00053222052
0.0011367058
0.0020034268
0.0048571304
0.0023902897
-0.0023961628
-0.0044614728
-0.0013510153
-0.0006502952
-4.1677714e-05
0.00055357053
0.0012354477
0.0023056363
0.0059334445
0.0029563442
-0.0045941426
-0.0073294196
-0.00073563992
-0.00030885617
0.00025980793
0.00085106866
0.0015626464
0.0026442983
0.0050062636
0.0022298486
-0.0031388277
-0.005006804
-0.0005392746
-0.00023861497
0.00025710415
0.00078059544
0.0013831847
0.0023356114
0.0057182148
0.0028267997
-0.0030457322
-0.0047613477
-0.00038191997
-0.00017638633
0.00024551718
0.00069760357
0.0011960928
0.0019441
0.0051492181
0.0026242268
-0.0030079175
-0.004653084
-0.00030464833
-0.00015058525
0.000222113
0.00062604026
0.0010723811
0.0017637946
0.004953188
0.0025633279
-0.0029989048
-0.0046288779
-0.00029389025
-0.00016189413
0.00018855402
0.00057101882
0.00099702155
0.0016743418
0.0048728629
0.0025410683
-0.00300972
-0.0046673748
-0.00033963948
-0.00020754841
0.00014673739
0.00053480866
0.00096760514
0.001653213
0.0048615117
0.0025390242
-0.0030458869
-0.004782343
-0.00044844543
-0.00028847888
9.7322409e-05
0.0005182882
0.00098472497
0.0017010403
0.004921865
0.0025587534
-0.0031293611
-0.0050339284
-0.0006504431
-0.00040661963
4.1961461e-05
0.00052251207
0.0010529488
0.0018384557
0.0051023739
0.0026215864
-0.0032516781
-0.0054825412
-0.0010202622
-0.00055823713
-1.3259201e-05
0.00054498666
0.0011699676
0.0021017059
0.0055704131
0.0028156186
-0.002654727
-0.0048909738
-0.0014154699
-0.00068297492
-4.9714845e-05
0.00057151425
0.0012938111
0.0024870037
0.0070008492
0.0035752105
-0.0049348469
-0.0076884097
-0.00050370399
-0.00017943834
0.00033848154
0.00089676786
0.0015987497
0.0027397843
0.0054787562
0.002494206
-0.0033234702
-0.0051285121
-0.00030266575
-0.00010921563
0.00032899058
0.00080839788
0.0013764854
0.0023399513
0.0062164033
0.0031489246
-0.0032282485
-0.0048765299
-0.00014154463
-4.9576114e-05
0.00030725742
0.00070475413
0.0011501444
0.0018707188
0.0055416023
0.0029104799
-0.0031894447
-0.0047663527
-6.5657663e-05
-2.9886695e-05
0.00027235091
0.00061496777
0.00099961027
0.0016534049
0.0053068598
0.0028379087
-0.0031814334
-0.0047466677
-6.2215703e-05
-5.0836617e-05
0.00022699454
0.00054565672
0.00090718394
0.0015449787
0.0052101287
0.0028112068
-0.003195772
-0.0047975768
-0.00012229733
-0.00011014958
0.00017324554
0.00049944659
0.00086972926
0.0015179702
0.0051954263
0.0028085036
-0.0032403467
-0.0049386814
-0.00025564581
-0.00020993402
0.00011147337
0.0004771898
0.00088777849
0.0015728862
0.0052657953
0.0028316138
-0.0033439482
-0.0052461821
-0.00049917246
-0.00035311009
4.3364531e-05
0.00048004115
0.00096675108
0.0017343264
0.0054790812
0.0029060178
-0.003506902
-0.0058077468
-0.00094219217
-0.00053567413
-2.3961356e-05
0.00050509729
0.0011041347
0.0020462725
0.0060387141
0.003138929
-0.0028521834
-0.005183336
-0.001408716
-0.00068458366
-6.8068971e-05
0.00053570773
0.001250406
0.0025072452
0.00780212
0.0040816217
-0.0051810084
-0.0078623466
-0.00020338433
-1.8228e-05
0.00041197799
0.00089992839
0.0015534381
0.0027113498
0.0057721896
0.0026880034
-0.0034331926
-0.0050986505
-3.3833885e-06
4.9564471e-05
0.00039463674
0.00079332831
0.0012884923
0.0022189868
0.006509611
0.0033842258
-0.0033385443
-0.0048471482
0.00015677853
0.00010385734
0.00036127814
0.00066843898
0.0010231859
0.0016737482
0.0057308953
0.0031102834
-0.0032998586
-0.0047384876
0.00022816184
0.00011518124
0.00031341655
0.00055961162
0.00084553581
0.0014196024
0.0054577193
0.003026092
-0.0032933493
-0.0047250628
0.0002223953
8.2968535e-05
0.00025500769
0.00047508145
0.0007353771
0.0012917566
0.0053442984
0.0029948738
-0.0033114194
-0.0047891875
0.00014694166
8.9107936e-06
0.00018826766
0.00041782298
0.00068881147
0.001257799
0.0053253555
0.0029912679
-0.0033644161
-0.0049565522
-1.1321394e-05
-0.00011038898
0.00011321907
0.0003885954
0.00070615628
0.0013177977
0.00540378
0.003017172
-0.0034880499
-0.0053194396
-0.00029601488
-0.00027889805
3.1543322e-05
0.00038860216
0.00079347308
0.0014996758
0.0056455522
0.0031016923
-0.0036926581
-0.0059941539
-0.00081070578
-0.00049238056
-4.8584346e-05
0.00041463646
0.00094803308
0.001854278
0.0062868107
0.0033694577
-0.0029964356
-0.0053607339
-0.0013479066
-0.00066549496
-0.00010082052
0.00044808376
0.0011136697
0.0023827065
0.0083585656
0.0044828623
-0.0053436733
-0.0078805946
0.00014444229
0.0001625436
0.00047560278
0.00086296689
0.0014362108
0.0025754947
0.0059076794
0.0028186765
-0.0034787894
-0.0049455224
0.00033867795
0.00022596732
0.00044967527
0.00073818687
0.0011294622
0.0019911296
0.0066232402
0.0035420734
-0.0033869585
-0.0047003076
0.00049401244
0.00027273992
0.00040366066
0.00059191382
0.00082611562
0.0013727265
0.0057441917
0.0032336467
-0.003349299
-0.0045959522
0.00055840698
0.00027396672
0.00034182162
0.00046363295
0.00062151226
0.001082497
0.0054334789
0.0031380846
-0.003344676
-0.0045901113
0.00054201185
0.00022929459
0.00026946009
0.00036326088
0.00049324696
0.0009350778
0.0053033361
0.003102346
-0.003366584
-0.0046678943
0.00045055333
0.00013976616
0.00018895041
0.00029410986
0.00043664435
0.00089320841
0.0052793345
0.003097611
-0.0034278627
-0.0048611643
0.00026745793
6.4164915e-07
9.9937014e-05
0.0002567954
0.00045167724
0.00095624821
0.0053638014
0.0031257057
-0.003571083
-0.0052779895
-5.7396627e-05
-0.00019310251
4.0825114e-06
0.00025254015
0.00054486648
0.0011548294
0.005629614
0.0032188428
-0.0038174394
-0.0060639325
-0.00064117472
-0.00043700706
-8.9351556e-05
0.0002779658
0.00071329827
0.0015458287
0.0063422284
0.0035173242
-0.0030940426
-0.0054414773
-0.0012471579
-0.00063395805
-0.00015006191
0.00031300541
0.00089514599
0.0021332564
0.0086958875
0.0047879489
-0.0054327274
-0.0077688196
0.00052217554
0.00035286518
0.00052623237
0.00078948939
0.0012574098
0.002349034
0.0059060956
0.0028935022
-0.0034697996
-0.0046936928
0.00070674178
0.00041037109
0.00049126474
0.00064692368
0.00091041322
0.0016748868
0.0065820847
0.0036315441
-0.0033826428
-0.0044595743
0.00085407878
0.0004479372
0.00043196141
0.00047955171
0.00057054597
0.00098717366
0.005607796
0.0032902198
-0.0033467555
-0.0043617895
0.00090952586
0.00043779057
0.00035552355
0.00033180354
0.00033960756
0.00066216761
0.0052610389
0.003183727
-0.0033443055
-0.0043645022
0.00088149826
0.00037985839
0.00026866473
0.00021529737
0.00019319032
0.00049535369
0.0051144264
0.0031435428
-0.0033700672
-0.0044560605
0.00077378467
0.00027449389
0.00017391535
0.0001336688
0.00012584765
0.00044480181
0.005084691
0.0031374892
-0.0034393493
-0.0046744399
0.00056637811
0.00011560406
7.0530003e-05
8.7355386e-05
0.00013710817
0.00050894973
0.0051732644
0.0031671916
-0.0036013983
-0.0051429243
0.00020297901
-0.00010286176
-3.984455e-05
7.7586656e-05
0.00023379879
0.00072057104
0.005458738
0.0032674681
-0.0038887808
-0.0060363002
-0.00044634102
-0.0003762159
-0.00014683581
0.00010095142
0.00041287739
0.0011417815
0.0062324883
0.0035925339
-0.0031507389
-0.0054412239
-0.0011180668
-0.00059623132
-0.00021619249
0.0001364246
0.00060784581
0.001779795
0.0088405245
0.0050061589
-0.0054571381
-0.0075496871
0.00091499743
0.0005446868
0.00056206249
0.00068387327
0.0010275834
0.0020483345
0.0057873764
0.0029194035
-0.003414739
-0.0043646285
0.0010867228
0.0005950651
0.00051784862
0.00052421916
0.00064248133
0.0012880911
0.0064096211
0.0036612123
-0.0033337657
-0.0041455289
0.0012234997
0.00062216403
0.00044497894
0.00033641478
0.0002681402
0.0005357952
0.0053464756
0.0032890672
-0.0033002554
-0.0040561262
0.0012684998
0.00059977346
0.00035369013
0.00016956095
1.1912277e-05
0.00017783234
0.0049657014
0.0031722532
-0.0033001801
-0.0040680516
0.0012282081
0.00052814656
0.00025213201
3.6959173e-05
-0.0001523677
-7.8622827e-06
0.0048031532
0.0031277757
-0.0033297313
-0.0041732097
0.0011043413
0.00040692653
0.0001429868
-5.7448971e-05
-0.00023089353
-6.7633729e-05
0.0047671859
0.0031202595
-0.0034066162
-0.0044155101
0.00087354988
0.00022869096
2.51221e-05
-0.00011342463
-0.00022465163
-4.1231538e-06
0.0048580761
0.0031510261
-0.0035864661
-0.0049326529
0.00047377224
-1.3581349e-05
-9.981901e-05
-0.0001297329
-0.00012663661
0.00021706594
0.0051590132
0.0032570213
-0.0039134451
-0.0059280494
-0.00023670889
-0.00031496653
-0.00022034399
-0.0001096855
6.004805e-05
0.00066252663
0.0059839162
0.0036046123
-0.0031716363
-0.0053735537
-0.00097014745
-0.00055690381
-0.00029833452
-7.4809929e-05
0.0002651907
0.001342906
0.0088181758
0.0051465277
-0.0054250859
-0.0072432979
0.0013104663
0.0007316179
0.00058232302
0.00055092784
0.00075708183
0.0016889095
0.005570228
0.0029028752
-0.0033212416
-0.0039771346
0.0014668452
0.00077396191
0.00052887551
0.00037514536
0.00033651708
0.00084750779
0.0061277289
0.0036390826
-0.0032476438
-0.0037761722
0.0015910442
0.00078971282
0.00044247876
0.00016791236
-6.9797318e-05
3.6086475e-05
0.0049831847
0.0032386035
-0.003216989
-0.0036965567
0.0016245078
0.00075457298
0.00033642312
-1.7342599e-05
-0.00034988411
-0.00035256322
0.0045708814
0.0031122228
-0.0032194144
-0.0037180773
0.0015716553
0.00066915183
0.00022028463
-0.00016568624
-0.00053141769
-0.00055630748
0.0043931933
0.0030636754
-0.0032526207
-0.003836401
0.0014320554
0.00053237885
9.6890872e-05
-0.00027289133
-0.00062130003
-0.00062558964
0.0043506829
0.0030546008
-0.0033366028
-0.0041010928
0.0011791673
0.00033555323
-3.5264105e-05
-0.00033892808
-0.00062107828
-0.0005642363
0.0044422801
0.0030859366
-0.0035329972
-0.0046632801
0.00074565421
7.0758481e-05
-0.00017452505
-0.00036255192
-0.00052367543
-0.0003366999
0.0047547249
0.0031963042
-0.0038975372
-0.0057539158
-2.090367e-05
-0.00025684074
-0.00030829053
-0.0003468569
-0.00033218855
0.00012735603
0.0056211439
0.0035624752
-0.0031613299
-0.0052503234
-0.00081119329
-0.00051923298
-0.00039472359
-0.00031346512
-0.00011963335
0.00084216395
0.0086531868
0.0052176661
-0.0053440543
-0.0068675101
0.0016981785
0.00090864653
0.00058702175
0.00039563803
0.00045580712
0.0012852155
0.0052720082
0.0028499628
-0.0031961628
-0.0035476918
0.0018373131
0.00094232265
0.00052454586
0.00020491146
2.8403065e-06
0.00036864776
0.0057566053
0.0035725802
-0.003130842
-0.00336725
0.0019474107
0.00094618588
0.00042494251
-2.0453743e-05
-0.00043256582
-0.00049584663
0.0045389949
0.0031465891
-0.0031034063
-0.0032984596
0.0019686179
0.00089812015
0.00030450645
-0.0002230995
-0.00073474399
-0.00091252931
0.0040980365
0.0030115171
-0.0031083913
-0.0033297106
0.0019032082
0.00079910864
0.00017420035
-0.00038654083
-0.00093262844
-0.0011332051
0.0039062378
0.0029591859
-0.0031450569
-0.0034605388
0.0017485785
0.00064737798
3.6988226e-05
-0.00050628824
-0.0010337784
-0.0012120484
0.0038570556
0.002948504
-0.0032355423
-0.0037458024
0.0014751973
0.00043302156
-0.0001089884
-0.00058252358
-0.0010403263
-0.0011541334
0.0039479427
0.0029799664
-0.0034470348
-0.0043489118
0.0010109942
0.00014731536
-0.00026204623
-0.0006139861
-0.0009452134
-0.00092318938
0.0042682126
0.0030934446
-0.0038465875
-0.0055268645
0.00019402019
-0.00020433691
-0.00040850751
-0.00060345185
-0.00075146725
-0.00044584388
0.0051669271
0.0034743923
-0.0031239701
-0.005081925
-0.00064757456
-0.00048544172
-0.00050302712
-0.00057228122
-0.00053405638
0.000295795
0.0083683022
0.0052276946
-0.0052208992
-0.0064381978
0.0020694854
0.0010718982
0.00057673358
0.00022297918
0.00013306328
0.00085056201
0.0049087034
0.0027662636
-0.0030456625
-0.0030907311
0.0021900327
0.0010965188
0.00050560323
1.8680913e-05
-0.00034890325
-0.0001343046
0.0053147697
0.0034685631
-0.0029892547
-0.0029325226
0.0022849536
0.0010882609
0.00039336097
-0.00022327091
-0.00081020792
-0.0010453495
0.0040331187
0.0030201502
-0.0029652976
-0.0028752629
0.0022935172
0.0010273867
0.00025919899
-0.00044203009
-0.0011324227
-0.001487093
0.0035666939
0.0028773602
-0.0029728409
-0.0029161598
0.0022158215
0.00091525989
0.00011540156
-0.00061966445
-0.0013454939
-0.0017233301
0.0033620161
0.0028215855
-0.0030127178
-0.0030586355
0.002047113
0.00074942732
-3.494217e-05
-0.0007514486
-0.0014575781
-0.0018115596
0.0033062045
0.0028092913
-0.0031090397
-0.0033624099
0.0017551105
0.00051886637
-0.00019401696
-0.00083777291
-0.0014713993
-0.001758126
0.0033951589
0.0028404906
-0.0033340289
-0.0040019067
0.0012635935
0.00021414133
-0.00036009759
-0.00087735398
-0.0013799933
-0.0015264228
0.0037198584
0.0029559066
-0.0037656175
-0.0052583214
0.00040232214
-0.00015911427
-0.00051848362
-0.00087256879
-0.0011862625
-0.0010407213
0.0046421103
0.0033479906
-0.003063318
-0.0048774914
-0.00048448226
-0.0004569613
-0.000620587
-0.0008442112
-0.00096633945
-0.0002794714
0.0079845886
0.0051842255
-0.0050619067
-0.0059694652
0.0024172561
0.001218436
0.00055243486
3.7787234e-05
-0.00020252802
0.0003970855
0.0044949503
0.0026569398
-0.002875274
-0.0026188649
0.0025183768
0.0012338343
0.00047316996
-0.00017855571
-0.00070981972
-0.00064850092
0.0048191129
0.0033333442
-0.0028281731
-0.0024839927
0.0025974513
0.001213495
0.00034907129
-0.00043534068
-0.0011935823
-0.0015992165
0.0034829762
0.0028658078
-0.0028078601
-0.0024386696
0.0025932824
0.0011401906
0.0002020722
-0.00066870742
-0.0015335402
-0.0020627924
0.0029945225
0.0027163504
-0.0028179076
-0.0024889336
0.0025038076
0.0010156623
4.5691814e-05
-0.00085940179
-0.0017604073
-0.0023130054
0.002778367
0.0026575175
-0.0028607034
-0.0026420332
0.0023221847
0.0008368111
-0.00011686936
-0.0010024918
-0.0018828706
-0.0024102409
0.0027161245
0.0026436459
-0.0029621362
-0.0029620615
0.0020136559
0.00059160122
-0.00028809256
-0.0010985688
-0.0019042371
-0.002362103
0.0028021129
0.0026742446
-0.0031988979
-0.0036330875
0.0014984641
0.00026998616
-0.00046619974
-0.0011463216
-0.0018177015
-0.0021319978
0.0031281389
0.0027905171
-0.0036591938
-0.0049583636
0.00059936442
-0.00012218762
-0.00063554101
-0.0011476664
-0.001625994
-0.0016424916
0.0040656634
0.0031902742
-0.0029827895
-0.0046450616
-0.00032612624
-0.00043462308
-0.00074459772
-0.0011225757
-0.0014056871
-0.00086844722
0.0075214368
0.005094366
-0.004872841
-0.005473828
0.0027356783
0.001346098
0.00051537601
-0.00015532928
-0.00054306914
-6.4240001e-05
0.004044081
0.002526736
-0.0026899624
-0.0021430822
0.0028169885
0.0013523039
0.00042862129
-0.00038206626
-0.0010718024
-0.001162403
0.0042849643
0.0031727171
-0.0026523438
-0.0020320976
0.0028799123
0.0013201647
0.00029363276
-0.00065176155
-0.001574394
-0.0021456547
0.0029042798
0.0026895095
-0.0026357555
-0.0019988482
0.0028631868
0.0012350371
0.00013488695
-0.00089803891
-0.0019296088
-0.0026276359
0.002397423
0.0025344937
-0.0026482065
-0.0020580309
0.0027626455
0.0010990288
-3.2967492e-05
-0.0011004644
-0.0021686887
-0.0028900598
0.0021713308
0.0024730244
-0.002693592
-0.0022205914
0.0025694525
0.00090843683
-0.00020663469
-0.0012539314
-0.0023007797
-0.0029957384
0.002102995
0.0024576464
-0.0027993645
-0.0025544632
0.0022466728
0.00065032594
-0.00038886003
-0.0013592215
-0.00232975
-0.0029534953
0.0021851652
0.0024873569
-0.0030460809
-0.0032519163
0.0017116461
0.00031414213
-0.00057780561
-0.0014149927
-0.0022490074
-0.0027270603
0.0025097056
0.0026034964
-0.0035314732
-0.0046358779
0.0007814399
-9.4079116e-05
-0.00075696252
-0.0014226571
-0.0020610718
-0.0022379164
0.0034547517
0.0030076519
-0.0028854921
-0.0043917176
-0.00017589515
-0.00041880685
-0.00087223354
-0.0014011583
-0.0018422968
-0.0014574738
0.0069966033
0.0049647308
-0.0046589854
-0.0049623669
0.0030200923
0.0014533656
0.0004669851
-0.00035204666
-0.00088139996
-0.00052357123
0.003568179
0.0023799984
-0.0024941747
-0.0016729143
0.0030816165
0.0014505829
0.00037349037
-0.00058743175
-0.0014275396
-0.0016657374
0.003726169
0.0029919832
-0.0024660171
-0.0015858734
0.0031284115
0.0014071375
0.00022873362
-0.00086798118
-0.0019451965
-0.0026742275
0.0023111256
0.0024966621
-0.0024531586
-0.0015645952
0.0030995393
0.0013109919
5.9501699e-05
-0.0011253164
-0.0023130321
-0.0031710412
0.0017896255
0.0023372382
-0.0024678722
-0.0016321015
0.0029888205
0.0011646021
-0.00011854807
-0.0013379802
-0.0025625837
-0.0034437661
0.0015552482
0.0022735829
-0.0025154884
-0.0018028467
0.0027855506
0.00096371022
-0.00030204233
-0.0015007253
-0.0027033804
-0.0035571655
0.0014812789
0.0022568009
-0.0026247956
-0.002148036
0.0024509358
0.00069460304
-0.0004939569
-0.0016145102
-0.0027398197
-0.0035212167
0.0015589491
0.0022853832
-0.0028795815
-0.0028666432
0.0019000581
0.00034632302
-0.00069239065
-0.0016779613
-0.0026655671
-0.0033002493
0.0018794778
0.0024004911
-0.0033862397
-0.0042986923
0.00094563205
-7.4935608e-05
-0.00088008123
-0.0016919608
-0.0024829036
-0.0028152533
0.0028248198
0.0028059663
-0.0027742549
-0.0041236967
-3.6485434e-05
-0.00040955432
-0.0010007373
-0.0016742604
-0.0022673682
-0.0020343786
0.0064262721
0.0048014593
-0.0044251779
-0.0044448599
0.0032668504
0.001539257
0.00040879588
-0.00054836118
-0.0012110931
-0.00097215182
0.0030781401
0.0022206949
-0.0022918835
-0.0012165784
0.0033089768
0.0015278423
0.0003093976
-0.00079057919
-0.0017705043
-0.0021494389
0.0031551673
0.0027959776
-0.0022729902
-0.0011530951
0.0033399546
0.0014737683
0.00015612219
-0.0010798262
-0.0022993766
-0.0031757891
0.0017160866
0.0022921623
-0.0022637992
-0.0011434742
0.0032995494
0.0013675792
-2.2194675e-05
-0.0013462441
-0.0026770872
-0.0036837648
0.0011837877
0.0021295068
-0.0022806
-0.0012185838
0.0031796916
0.0012120545
-0.00020902046
-0.0015675196
-0.0029352428
-0.0039647685
0.00094286067
0.0020641376
-0.0023300647
-0.0013961479
0.0029679571
0.0010024366
-0.0004009241
-0.0017383007
-0.0030836785
-0.0040850294
0.00086382266
0.002046081
-0.0024420787
-0.0017500488
0.0026240267
0.00072436108
-0.00060107707
-0.0018597079
-0.0031272793
-0.0040555917
0.00093646988
0.0020733397
-0.0027030055
-0.0024844314
0.0020613742
0.00036657043
-0.00080751545
-0.0019303372
-0.003060005
-0.0038416274
0.0012507391
0.0021866068
-0.0032269368
-0.0039536861
0.0010897008
-6.461832e-05
-0.0010023417
-0.0019505312
-0.0028838773
-0.0033641907
0.002189683
0.002590524
-0.002651654
-0.0038464849
8.9994575e-05
-0.00040665547
-0.0011274805
-0.001936728
-0.0026730886
-0.0025884143
0.005825124
0.0046102341
-0.004175841
-0.0039298957
0.0034731978
0.0016032421
0.00034239455
-0.00074060773
-0.0015264364
-0.0014022615
0.0025837349
0.0020524348
-0.0020866244
-0.00078110001
0.003496636
0.0015836843
0.00023799874
-0.0009877979
-0.0020949317
-0.002605589
0.0025830734
0.002589095
-0.0020766439
-0.0007403975
0.0035123631
0.0015198168
7.7556919e-05
-0.0012835159
-0.0026311276
-0.0036424142
0.0011303037
0.0020804274
-0.002070999
-0.00074193475
0.0034612144
0.0014047005
-0.00010833088
-0.0015569493
-0.0030158936
-0.0041578274
0.000591091
0.0019157289
-0.0020896825
-0.00082382288
0.0033333793
0.0012414085
-0.00030240053
-0.001785105
-0.0032806892
-0.004445005
0.0003454085
0.0018491325
-0.0021405962
-0.0010067724
0.0031148847
0.0010247431
-0.00050118434
-0.0019625631
-0.003435577
-0.0045711537
0.0002619559
0.0018299541
-0.0022544759
-0.001366731
0.002764228
0.00073981938
-0.00070801438
-0.0020905897
-0.0034858797
-0.0045482782
0.00032920396
0.0018557356
-0.002519593
-0.0021114636
0.0021939228
0.00037518147
-0.00092086777
-0.0021677536
-0.0034258806
-0.0043426041
0.00063523442
0.0019664395
-0.0030566942
-0.0036068838
0.0012119895
-6.2771431e-05
-0.0011213406
-0.0021938629
-0.0032573301
-0.0038757737
0.0015616184
0.002366125
-0.002520034
-0.0035648948
0.0002019404
-0.00040971376
-0.0012500028
-0.0021839582
-0.0030526021
-0.0031101897
0.0052064103
0.0043963008
-0.0039150096
-0.003424973
0.0036371726
0.0016451731
0.00026938139
-0.00092546647
-0.0018224077
-0.0018071617
0.0020936716
0.0018784877
-0.0018815298
-0.00037242091
0.0036429127
0.0016180743
0.00016094779
-0.001175744
-0.0023957892
-0.0030273505
0.0020197528
0.0023753137
-0.0018799749
-0.0003533803
0.0036441771
0.0015453809
-5.2289408e-06
-0.001475664
-0.0029354144
-0.0040673254
0.00056357427
0.001865423
-0.001877703
-0.00036541642
0.0035832237
0.0014225701
-0.00019708672
-0.0017539826
-0.003324376
-0.004586437
2.1333278e-05
0.0016998704
-0.0018980407
-0.00045317242
0.0034486729
0.001252974
-0.00039678115
-0.0019872086
-0.0035937792
-0.0048776289
-0.00022727399
0.0016325423
-0.0019499921
-0.00064002677
0.0032251891
0.0010310179
-0.00060082999
-0.0021698923
-0.003753835
-0.0050085974
-0.00031441339
0.0016124141
-0.0020648924
-0.00100337
0.0028704343
0.00074142945
-0.00081269089
-0.0023034275
-0.0038102483
-0.0049921866
-0.00025280603
0.0016366034
-0.0023322464
-0.0017530335
0.0022966024
0.00037265312
-0.0010302891
-0.0023863615
-0.0037576475
-0.0047958563
4.3264228e-05
0.0017441056
-0.0028783516
-0.0032635336
0.0013113478
-6.887405e-05
-0.0012348513
-0.0024179853
-0.0035975072
-0.0043423266
0.00095145518
0.0021370912
-0.0023815256
-0.0032831308
0.00029818284
-0.00041819514
-0.0013660357
-0.0024118935
-0.0033999699
-0.0035915951
0.0045820273
0.0041644871
-0.0036463539
-0.0029365873
0.0037575187
0.0016652285
0.00019134388
-0.0010999604
-0.0020946426
-0.0021810392
0.0016156565
0.0017018027
-0.0016793579
4.5068846e-06
0.003746793
0.0016312866
7.987141e-05
-0.0013514361
-0.0026687409
-0.0034089023
0.0014738975
0.0021582195
-0.0016856244
3.3004255e-06
0.0037345732
0.0015508443
-9.055118e-05
-0.0016532721
-0.003207934
-0.00444482
2.4436784e-05
0.0016506904
-0.0016865083
-1.8438547e-05
0.0036648784
0.001421664
-0.00028671498
-0.0019343083
-0.0035982214
-0.0049639119
-0.0005169818
0.0014854616
-0.0017082524
-0.00011108375
0.0035249507
0.0012472989
-0.00049035219
-0.0021707412
-0.003870157
-0.0052569291
-0.00076666742
0.0014179004
-0.0017608233
-0.00030033359
0.003298292
0.001021863
-0.00069798892
-0.0023571296
-0.0040340218
-0.0053915752
-0.00085670653
0.0013970102
-0.0018759028
-0.00066439543
0.0029420785
0.00072982981
-0.00091317354
-0.0024949762
-0.0040958416
-0.0053813998
-0.00080085885
0.0014195279
-0.0021435555
-0.001413625
0.0023688114
0.00035963995
-0.0011337893
-0.0025828142
-0.0040506057
-0.0051952484
-0.00051622439
0.001523271
-0.0026944783
-0.0029281763
0.0013870689
-8.227922e-05
-0.0013408369
-0.002619447
-0.0038995148
-0.0047573745
0.00036866262
0.001907293
-0.0022380615
-0.0030048448
0.00037793212
-0.00043146424
-0.001473514
-0.0026170057
-0.0037101236
-0.004025727
0.0039625892
0.0039192221
-0.0033732009
-0.0024703074
0.0038336121
0.001663869
0.00010983922
-0.0012614458
-0.0023393996
-0.0025189482
0.0011564554
0.0015250255
-0.0014825196
0.00034563803