/*--------------------------------*- C++ -*----------------------------------*\
| =========                 |                                                 |
| \\      /  F ield         | OpenFOAM: The Open Source CFD Toolbox           |
|  \\    /   O peration     | Version:  v2106                                 |
|   \\  /    A nd           | Website:  www.openfoam.com                      |
|    \\/     M anipulation  |                                                 |
\*---------------------------------------------------------------------------*/
FoamFile
{
    version     2.0;
    format      ascii;
    arch        "LSB;label=32;scalar=64";
    class       volScalarField;
    location    "75";
    object      gradTz;
}
// * * * * * * * * * * * * * * * * * * * * * * * * * * * * * * * * * * * * * //

dimensions      [0 -1 0 1 0 0 0];

internalField   nonuniform List<scalar> 
4000
(
570.21675
570.21415
570.21394
570.21379
570.21375
570.21381
570.21397
570.21425
570.21466
570.21516
570.21415
570.21238
570.21222
570.21208
570.21205
570.21211
570.21226
570.21253
570.21295
570.21368
570.21394
570.21222
570.21208
570.21197
570.21194
570.21199
570.21214
570.21238
570.21276
570.21341
570.21379
570.21208
570.21197
570.21186
570.21183
570.21189
570.21202
570.21225
570.21261
570.21324
570.21375
570.21205
570.21194
570.21183
570.21181
570.21186
570.21199
570.21221
570.21256
570.21318
570.21381
570.21211
570.21199
570.21189
570.21186
570.21191
570.21204
570.21226
570.2126
570.21322
570.21397
570.21226
570.21214
570.21202
570.21199
570.21204
570.21216
570.21239
570.21274
570.21336
570.21425
570.21253
570.21238
570.21225
570.21221
570.21226
570.21239
570.21262
570.21298
570.21362
570.21466
570.21295
570.21276
570.21261
570.21256
570.2126
570.21274
570.21298
570.21337
570.21404
570.21516
570.21368
570.21341
570.21324
570.21318
570.21322
570.21336
570.21362
570.21404
570.21476
1157.4943
1157.4904
1157.49
1157.4897
1157.4896
1157.4898
1157.4901
1157.4906
1157.4915
1157.4929
1157.4904
1157.4877
1157.4873
1157.4871
1157.487
1157.4871
1157.4874
1157.4879
1157.4888
1157.4906
1157.49
1157.4873
1157.487
1157.4868
1157.4868
1157.4869
1157.4871
1157.4876
1157.4883
1157.49
1157.4897
1157.4871
1157.4868
1157.4866
1157.4866
1157.4867
1157.4869
1157.4874
1157.4881
1157.4897
1157.4896
1157.487
1157.4868
1157.4866
1157.4865
1157.4866
1157.4869
1157.4873
1157.488
1157.4896
1157.4898
1157.4871
1157.4869
1157.4867
1157.4866
1157.4867
1157.487
1157.4874
1157.4881
1157.4897
1157.4901
1157.4874
1157.4871
1157.4869
1157.4869
1157.487
1157.4872
1157.4876
1157.4883
1157.49
1157.4906
1157.4879
1157.4876
1157.4874
1157.4873
1157.4874
1157.4876
1157.4881
1157.4888
1157.4905
1157.4915
1157.4888
1157.4883
1157.4881
1157.488
1157.4881
1157.4883
1157.4888
1157.4895
1157.4913
1157.4929
1157.4906
1157.49
1157.4897
1157.4896
1157.4897
1157.49
1157.4905
1157.4913
1157.4933
1112.8097
1112.8072
1112.8069
1112.8067
1112.8067
1112.8068
1112.8071
1112.8075
1112.8083
1112.8099
1112.8072
1112.8054
1112.8051
1112.805
1112.805
1112.8051
1112.8053
1112.8057
1112.8064
1112.8084
1112.8069
1112.8051
1112.805
1112.8049
1112.8048
1112.8049
1112.8052
1112.8055
1112.8061
1112.808
1112.8067
1112.805
1112.8049
1112.8048
1112.8047
1112.8048
1112.805
1112.8054
1112.8059
1112.8077
1112.8067
1112.805
1112.8048
1112.8047
1112.8047
1112.8048
1112.805
1112.8053
1112.8058
1112.8076
1112.8068
1112.8051
1112.8049
1112.8048
1112.8048
1112.8049
1112.8051
1112.8054
1112.8059
1112.8077
1112.8071
1112.8053
1112.8052
1112.805
1112.805
1112.8051
1112.8053
1112.8056
1112.8061
1112.8079
1112.8075
1112.8057
1112.8055
1112.8054
1112.8053
1112.8054
1112.8056
1112.8059
1112.8065
1112.8083
1112.8083
1112.8064
1112.8061
1112.8059
1112.8058
1112.8059
1112.8061
1112.8065
1112.8071
1112.8091
1112.8099
1112.8084
1112.808
1112.8077
1112.8076
1112.8077
1112.8079
1112.8083
1112.8091
1112.8116
1072.6691
1072.6672
1072.6671
1072.6671
1072.6671
1072.6672
1072.6674
1072.6677
1072.6683
1072.6697
1072.6672
1072.6659
1072.6658
1072.6658
1072.6658
1072.6659
1072.6661
1072.6664
1072.6669
1072.6686
1072.6671
1072.6658
1072.6658
1072.6658
1072.6658
1072.6659
1072.6661
1072.6663
1072.6667
1072.6683
1072.6671
1072.6658
1072.6658
1072.6658
1072.6658
1072.6659
1072.666
1072.6662
1072.6666
1072.6682
1072.6671
1072.6658
1072.6658
1072.6658
1072.6658
1072.6659
1072.666
1072.6662
1072.6665
1072.6681
1072.6672
1072.6659
1072.6659
1072.6659
1072.6659
1072.666
1072.6661
1072.6663
1072.6666
1072.6681
1072.6674
1072.6661
1072.6661
1072.666
1072.666
1072.6661
1072.6662
1072.6664
1072.6667
1072.6683
1072.6677
1072.6664
1072.6663
1072.6662
1072.6662
1072.6663
1072.6664
1072.6666
1072.667
1072.6686
1072.6683
1072.6669
1072.6667
1072.6666
1072.6665
1072.6666
1072.6667
1072.667
1072.6674
1072.6692
1072.6697
1072.6686
1072.6683
1072.6682
1072.6681
1072.6681
1072.6683
1072.6686
1072.6692
1072.6715
1036.3261
1036.3246
1036.3247
1036.3247
1036.3248
1036.3249
1036.325
1036.3252
1036.3256
1036.3268
1036.3246
1036.3236
1036.3238
1036.3238
1036.3239
1036.3239
1036.3241
1036.3242
1036.3245
1036.3259
1036.3247
1036.3238
1036.3239
1036.324
1036.324
1036.3241
1036.3242
1036.3243
1036.3245
1036.3258
1036.3247
1036.3238
1036.324
1036.324
1036.3241
1036.3241
1036.3242
1036.3243
1036.3244
1036.3257
1036.3248
1036.3239
1036.324
1036.3241
1036.3241
1036.3242
1036.3242
1036.3243
1036.3244
1036.3257
1036.3249
1036.3239
1036.3241
1036.3241
1036.3242
1036.3242
1036.3243
1036.3243
1036.3244
1036.3257
1036.325
1036.3241
1036.3242
1036.3242
1036.3242
1036.3243
1036.3243
1036.3243
1036.3245
1036.3258
1036.3252
1036.3242
1036.3243
1036.3243
1036.3243
1036.3243
1036.3243
1036.3244
1036.3246
1036.3259
1036.3256
1036.3245
1036.3245
1036.3244
1036.3244
1036.3244
1036.3245
1036.3246
1036.3248
1036.3263
1036.3268
1036.3259
1036.3258
1036.3257
1036.3257
1036.3257
1036.3258
1036.3259
1036.3263
1036.3283
1003.1985
1003.1973
1003.1975
1003.1977
1003.1978
1003.1978
1003.1979
1003.198
1003.1982
1003.1991
1003.1973
1003.1966
1003.1969
1003.197
1003.1971
1003.1971
1003.1972
1003.1972
1003.1973
1003.1984
1003.1975
1003.1969
1003.1971
1003.1973
1003.1974
1003.1974
1003.1974
1003.1974
1003.1974
1003.1984
1003.1977
1003.197
1003.1973
1003.1974
1003.1975
1003.1975
1003.1975
1003.1975
1003.1974
1003.1984
1003.1978
1003.1971
1003.1974
1003.1975
1003.1975
1003.1976
1003.1975
1003.1975
1003.1974
1003.1984
1003.1978
1003.1971
1003.1974
1003.1975
1003.1976
1003.1976
1003.1975
1003.1975
1003.1974
1003.1984
1003.1979
1003.1972
1003.1974
1003.1975
1003.1975
1003.1975
1003.1975
1003.1974
1003.1974
1003.1984
1003.198
1003.1972
1003.1974
1003.1975
1003.1975
1003.1975
1003.1974
1003.1974
1003.1974
1003.1984
1003.1982
1003.1973
1003.1974
1003.1974
1003.1974
1003.1974
1003.1974
1003.1974
1003.1974
1003.1986
1003.1991
1003.1984
1003.1984
1003.1984
1003.1984
1003.1984
1003.1984
1003.1984
1003.1986
1003.2002
972.82437
972.82349
972.82384
972.82402
972.82413
972.82418
972.82418
972.82417
972.82425
972.82493
972.82349
972.82305
972.8234
972.82359
972.82369
972.82372
972.8237
972.82363
972.82358
972.82442
972.82384
972.8234
972.82375
972.82394
972.82403
972.82405
972.824
972.82388
972.82373
972.82446
972.82402
972.82359
972.82394
972.82412
972.8242
972.82421
972.82414
972.82398
972.82379
972.82449
972.82413
972.82369
972.82403
972.8242
972.82428
972.82427
972.82418
972.82401
972.8238
972.82448
972.82418
972.82372
972.82405
972.82421
972.82427
972.82425
972.82415
972.82397
972.82376
972.82444
972.82418
972.8237
972.824
972.82414
972.82418
972.82415
972.82405
972.82388
972.82367
972.82436
972.82417
972.82363
972.82388
972.82398
972.82401
972.82397
972.82388
972.82371
972.82354
972.82426
972.82425
972.82358
972.82373
972.82379
972.8238
972.82376
972.82367
972.82354
972.82342
972.82425
972.82493
972.82442
972.82446
972.82449
972.82448
972.82444
972.82436
972.82426
972.82425
972.82561
944.83219
944.83157
944.832
944.83222
944.83234
944.83236
944.8323
944.8322
944.83214
944.83263
944.83157
944.83134
944.83176
944.83198
944.83209
944.8321
944.83202
944.83186
944.83167
944.83226
944.832
944.83176
944.83217
944.83239
944.83249
944.83249
944.83238
944.83217
944.83188
944.83237
944.83222
944.83198
944.83239
944.83261
944.8327
944.83268
944.83255
944.8323
944.83197
944.83242
944.83234
944.83209
944.83249
944.8327
944.83277
944.83274
944.83259
944.83233
944.83198
944.83242
944.83236
944.8321
944.83249
944.83268
944.83274
944.83269
944.83253
944.83226
944.83191
944.83234
944.8323
944.83202
944.83238
944.83255
944.83259
944.83253
944.83237
944.8321
944.83175
944.8322
944.8322
944.83186
944.83217
944.8323
944.83233
944.83226
944.8321
944.83184
944.83152
944.83199
944.83214
944.83167
944.83188
944.83197
944.83198
944.83191
944.83175
944.83152
944.83125
944.83182
944.83263
944.83226
944.83237
944.83242
944.83242
944.83234
944.8322
944.83199
944.83182
944.83288
918.91918
918.9188
918.91928
918.91953
918.91965
918.91964
918.91954
918.91935
918.91917
918.91948
918.9188
918.91875
918.91921
918.91946
918.91957
918.91956
918.91942
918.91918
918.91888
918.91925
918.91928
918.91921
918.91966
918.91991
918.92001
918.91998
918.91982
918.91952
918.91913
918.9194
918.91953
918.91946
918.91991
918.92014
918.92023
918.92018
918.92
918.91968
918.91924
918.91948
918.91965
918.91957
918.92001
918.92023
918.9203
918.92024
918.92004
918.9197
918.91925
918.91947
918.91964
918.91956
918.91998
918.92018
918.92024
918.92017
918.91996
918.91961
918.91915
918.91936
918.91954
918.91942
918.91982
918.92
918.92004
918.91996
918.91974
918.91939
918.91893
918.91916
918.91935
918.91918
918.91952
918.91968
918.9197
918.91961
918.91939
918.91905
918.91861
918.91886
918.91917
918.91888
918.91913
918.91924
918.91925
918.91915
918.91893
918.91861
918.91822
918.91856
918.91948
918.91925
918.9194
918.91948
918.91947
918.91936
918.91916
918.91886
918.91856
918.91934
894.83596
894.83579
894.83629
894.83656
894.83667
894.83664
894.83649
894.83624
894.83596
894.83612
894.83579
894.83588
894.83637
894.83663
894.83674
894.8367
894.83652
894.83621
894.83582
894.836
894.83629
894.83637
894.83684
894.8371
894.83719
894.83714
894.83694
894.83658
894.8361
894.83618
894.83656
894.83663
894.8371
894.83734
894.83742
894.83735
894.83713
894.83674
894.83622
894.83628
894.83667
894.83674
894.83719
894.83742
894.83749
894.83741
894.83717
894.83676
894.83622
894.83626
894.83664
894.8367
894.83714
894.83735
894.83741
894.83731
894.83705
894.83664
894.83609
894.83613
894.83649
894.83652
894.83694
894.83713
894.83717
894.83705
894.8368
894.83638
894.83583
894.83587
894.83624
894.83621
894.83658
894.83674
894.83676
894.83664
894.83638
894.83597
894.83544
894.8355
894.83596
894.83582
894.8361
894.83622
894.83622
894.83609
894.83583
894.83544
894.83495
894.83508
894.83612
894.836
894.83618
894.83628
894.83626
894.83613
894.83587
894.8355
894.83508
894.83562
872.37501
872.37502
872.37553
872.37581
872.37591
872.37587
872.37568
872.37536
872.37501
872.37503
872.37502
872.37524
872.37574
872.376
872.3761
872.37604
872.37583
872.37547
872.375
872.37501
872.37553
872.37574
872.37622
872.37647
872.37656
872.37648
872.37625
872.37584
872.3753
872.37522
872.37581
872.376
872.37647
872.37672
872.37679
872.3767
872.37644
872.37601
872.37543
872.37532
872.37591
872.3761
872.37656
872.37679
872.37685
872.37674
872.37647
872.37602
872.37542
872.3753
872.37587
872.37604
872.37648
872.3767
872.37674
872.37662
872.37634
872.37588
872.37527
872.37514
872.37568
872.37583
872.37625
872.37644
872.37647
872.37634
872.37604
872.37558
872.37497
872.37485
872.37536
872.37547
872.37584
872.37601
872.37602
872.37588
872.37558
872.37512
872.37452
872.37441
872.37501
872.375
872.3753
872.37543
872.37542
872.37527
872.37497
872.37452
872.37395
872.37391
872.37503
872.37501
872.37522
872.37532
872.3753
872.37514
872.37485
872.37441
872.37391
872.37423
851.36212
851.36229
851.3628
851.36307
851.36317
851.3631
851.36288
851.36253
851.36212
851.36201
851.36229
851.36262
851.36311
851.36337
851.36345
851.36338
851.36314
851.36274
851.36222
851.36208
851.3628
851.36311
851.36358
851.36383
851.36391
851.36381
851.36355
851.36311
851.36252
851.3623
851.36307
851.36337
851.36383
851.36407
851.36413
851.36402
851.36374
851.36327
851.36265
851.36241
851.36317
851.36345
851.36391
851.36413
851.36418
851.36405
851.36375
851.36327
851.36263
851.36237
851.3631
851.36338
851.36381
851.36402
851.36405
851.36391
851.3636
851.36311
851.36246
851.3622
851.36288
851.36314
851.36355
851.36374
851.36375
851.3636
851.36328
851.36279
851.36213
851.36188
851.36253
851.36274
851.36311
851.36327
851.36327
851.36311
851.36279
851.36229
851.36165
851.3614
851.36212
851.36222
851.36252
851.36265
851.36263
851.36246
851.36213
851.36165
851.36103
851.36083
851.36201
851.36208
851.3623
851.36241
851.36237
851.3622
851.36188
851.3614
851.36083
851.36095
831.64982
831.65012
831.65062
831.65088
831.65096
831.65087
831.65063
831.65025
831.64979
831.64959
831.65012
831.65053
831.65101
831.65126
831.65133
831.65123
831.65097
831.65055
831.64999
831.64974
831.65062
831.65101
831.65146
831.6517
831.65176
831.65165
831.65137
831.65091
831.65029
831.64996
831.65088
831.65126
831.6517
831.65193
831.65197
831.65185
831.65155
831.65107
831.65042
831.65006
831.65096
831.65133
831.65176
831.65197
831.65201
831.65187
831.65155
831.65106
831.65039
831.65002
831.65087
831.65123
831.65165
831.65185
831.65187
831.65172
831.65139
831.65088
831.65021
831.64984
831.65063
831.65097
831.65137
831.65155
831.65155
831.65139
831.65106
831.65054
831.64986
831.64949
831.65025
831.65055
831.65091
831.65107
831.65106
831.65088
831.65054
831.65003
831.64935
831.64899
831.64979
831.64999
831.65029
831.65042
831.65039
831.65021
831.64986
831.64935
831.64869
831.64837
831.64959
831.64974
831.64996
831.65006
831.65002
831.64984
831.64949
831.64899
831.64837
831.64832
813.1123
813.11272
813.1132
813.11344
813.11351
813.11341
813.11315
813.11275
813.11226
813.11197
813.11272
813.11321
813.11365
813.11389
813.11394
813.11384
813.11356
813.11312
813.11254
813.11218
813.1132
813.11365
813.11408
813.1143
813.11435
813.11423
813.11393
813.11347
813.11283
813.11241
813.11344
813.11389
813.1143
813.11451
813.11454
813.11441
813.1141
813.11361
813.11295
813.11251
813.11351
813.11394
813.11435
813.11454
813.11457
813.11442
813.11409
813.11359
813.11291
813.11246
813.11341
813.11384
813.11423
813.11441
813.11442
813.11425
813.11392
813.11341
813.11272
813.11226
813.11315
813.11356
813.11393
813.1141
813.11409
813.11392
813.11358
813.11306
813.11237
813.11191
813.11275
813.11312
813.11347
813.11361
813.11359
813.11341
813.11306
813.11253
813.11185
813.11139
813.11226
813.11254
813.11283
813.11295
813.11291
813.11272
813.11237
813.11185
813.11117
813.11075
813.11197
813.11218
813.11241
813.11251
813.11246
813.11226
813.11191
813.11139
813.11075
813.11055
795.64153
795.64205
795.64249
795.64272
795.64277
795.64265
795.64239
795.64198
795.64147
795.64111
795.64205
795.64258
795.643
795.64321
795.64325
795.64313
795.64285
795.64241
795.64182
795.64138
795.64249
795.643
795.64339
795.64359
795.64362
795.64349
795.64319
795.64273
795.64209
795.6416
795.64272
795.64321
795.64359
795.64378
795.6438
795.64365
795.64334
795.64286
795.6422
795.64169
795.64277
795.64325
795.64362
795.6438
795.64381
795.64365
795.64333
795.64283
795.64216
795.64164
795.64265
795.64313
795.64349
795.64365
795.64365
795.64348
795.64315
795.64264
795.64196
795.64144
795.64239
795.64285
795.64319
795.64334
795.64333
795.64315
795.64281
795.64229
795.64161
795.64108
795.64198
795.64241
795.64273
795.64286
795.64283
795.64264
795.64229
795.64177
795.64109
795.64056
795.64147
795.64182
795.64209
795.6422
795.64216
795.64196
795.64161
795.64109
795.64041
795.6399
795.64111
795.64138
795.6416
795.64169
795.64164
795.64144
795.64108
795.64056
795.6399
795.63957
779.14407
779.14468
779.14508
779.14528
779.14531
779.14519
779.14492
779.14451
779.144
779.14359
779.14468
779.14525
779.14562
779.14581
779.14584
779.14571
779.14543
779.14499
779.14441
779.1439
779.14508
779.14562
779.14598
779.14615
779.14617
779.14603
779.14574
779.14528
779.14466
779.14411
779.14528
779.14581
779.14615
779.14632
779.14632
779.14617
779.14587
779.14539
779.14476
779.14419
779.14531
779.14584
779.14617
779.14632
779.14632
779.14616
779.14584
779.14536
779.14471
779.14413
779.14519
779.14571
779.14603
779.14617
779.14616
779.14599
779.14566
779.14517
779.14451
779.14393
779.14492
779.14543
779.14574
779.14587
779.14584
779.14566
779.14532
779.14483
779.14417
779.14358
779.14451
779.14499
779.14528
779.14539
779.14536
779.14517
779.14483
779.14432
779.14366
779.14307
779.144
779.14441
779.14466
779.14476
779.14471
779.14451
779.14417
779.14366
779.14299
779.14242
779.14359
779.1439
779.14411
779.14419
779.14413
779.14393
779.14358
779.14307
779.14242
779.14198
763.53866
763.53933
763.53969
763.53986
763.53988
763.53976
763.53949
763.53909
763.53858
763.53812
763.53933
763.53993
763.54026
763.54042
763.54044
763.5403
763.54003
763.5396
763.53904
763.53847
763.53969
763.54026
763.54057
763.54072
763.54072
763.54058
763.5403
763.53986
763.53927
763.53867
763.53986
763.54042
763.54072
763.54086
763.54085
763.5407
763.5404
763.53995
763.53935
763.53874
763.53988
763.54044
763.54072
763.54085
763.54084
763.54068
763.54037
763.53991
763.53929
763.53868
763.53976
763.5403
763.54058
763.5407
763.54068
763.54051
763.54019
763.53972
763.5391
763.53849
763.53949
763.54003
763.5403
763.5404
763.54037
763.54019
763.53987
763.53939
763.53877
763.53815
763.53909
763.5396
763.53986
763.53995
763.53991
763.53972
763.53939
763.53891
763.53828
763.53765
763.53858
763.53904
763.53927
763.53935
763.53929
763.5391
763.53877
763.53828
763.53764
763.53701
763.53812
763.53847
763.53867
763.53874
763.53868
763.53849
763.53815
763.53765
763.53701
763.53648
748.75418
748.75491
748.75522
748.75536
748.75537
748.75524
748.75498
748.75459
748.7541
748.75361
748.75491
748.75552
748.7558
748.75593
748.75593
748.7558
748.75553
748.75513
748.75459
748.75399
748.75522
748.7558
748.75606
748.75618
748.75617
748.75603
748.75576
748.75535
748.75479
748.75417
748.75536
748.75593
748.75618
748.7563
748.75628
748.75613
748.75585
748.75542
748.75486
748.75423
748.75537
748.75593
748.75617
748.75628
748.75625
748.75609
748.7558
748.75538
748.7548
748.75417
748.75524
748.7558
748.75603
748.75613
748.75609
748.75593
748.75563
748.7552
748.75462
748.75398
748.75498
748.75553
748.75576
748.75585
748.7558
748.75563
748.75533
748.75489
748.7543
748.75366
748.75459
748.75513
748.75535
748.75542
748.75538
748.7552
748.75489
748.75444
748.75384
748.75319
748.7541
748.75459
748.75479
748.75486
748.7548
748.75462
748.7543
748.75384
748.75324
748.75258
748.75361
748.75399
748.75417
748.75423
748.75417
748.75398
748.75366
748.75319
748.75258
748.75197
734.72806
734.72883
734.72908
734.7292
734.72919
734.72906
734.72881
734.72845
734.72797
734.72746
734.72883
734.72944
734.72967
734.72977
734.72976
734.72963
734.72937
734.729
734.7285
734.72787
734.72908
734.72967
734.72988
734.72997
734.72995
734.72981
734.72956
734.72918
734.72866
734.72802
734.7292
734.72977
734.72997
734.73006
734.73003
734.72988
734.72962
734.72924
734.72872
734.72807
734.72919
734.72976
734.72995
734.73003
734.72999
734.72984
734.72957
734.72918
734.72866
734.72801
734.72906
734.72963
734.72981
734.72988
734.72984
734.72968
734.72941
734.72901
734.72849
734.72784
734.72881
734.72937
734.72956
734.72962
734.72957
734.72941
734.72913
734.72873
734.72819
734.72754
734.72845
734.729
734.72918
734.72924
734.72918
734.72901
734.72873
734.72832
734.72777
734.72711
734.72797
734.7285
734.72866
734.72872
734.72866
734.72849
734.72819
734.72777
734.72721
734.72653
734.72746
734.72787
734.72802
734.72807
734.72801
734.72784
734.72754
734.72711
734.72653
734.72587
721.40494
721.40574
721.40594
721.40602
721.406
721.40587
721.40564
721.4053
721.40486
721.40433
721.40574
721.40635
721.40652
721.4066
721.40657
721.40644
721.40621
721.40587
721.4054
721.40476
721.40594
721.40652
721.40668
721.40675
721.40671
721.40658
721.40634
721.406
721.40554
721.40489
721.40602
721.4066
721.40675
721.4068
721.40676
721.40662
721.40638
721.40604
721.40558
721.40493
721.406
721.40657
721.40671
721.40676
721.40672
721.40657
721.40633
721.40598
721.40552
721.40487
721.40587
721.40644
721.40658
721.40662
721.40657
721.40643
721.40618
721.40583
721.40536
721.40471
721.40564
721.40621
721.40634
721.40638
721.40633
721.40618
721.40593
721.40557
721.40509
721.40444
721.4053
721.40587
721.406
721.40604
721.40598
721.40583
721.40557
721.4052
721.40472
721.40405
721.40486
721.4054
721.40554
721.40558
721.40552
721.40536
721.40509
721.40472
721.40421
721.40352
721.40433
721.40476
721.40489
721.40493
721.40487
721.40471
721.40444
721.40405
721.40352
721.40281
708.73562
708.73643
708.73658
708.73663
708.73659
708.73647
708.73626
708.73595
708.73555
708.73502
708.73643
708.73703
708.73715
708.7372
708.73716
708.73703
708.73682
708.73652
708.7361
708.73545
708.73658
708.73715
708.73725
708.73729
708.73725
708.73712
708.73691
708.73661
708.7362
708.73557
708.73663
708.7372
708.73729
708.73732
708.73727
708.73714
708.73693
708.73663
708.73623
708.73559
708.73659
708.73716
708.73725
708.73727
708.73722
708.73709
708.73687
708.73657
708.73617
708.73554
708.73647
708.73703
708.73712
708.73714
708.73709
708.73695
708.73673
708.73643
708.73603
708.73539
708.73626
708.73682
708.73691
708.73693
708.73687
708.73673
708.73651
708.73621
708.73579
708.73515
708.73595
708.73652
708.73661
708.73663
708.73657
708.73643
708.73621
708.73589
708.73547
708.73481
708.73555
708.7361
708.7362
708.73623
708.73617
708.73603
708.73579
708.73547
708.73502
708.73434
708.73502
708.73545
708.73557
708.73559
708.73554
708.73539
708.73515
708.73481
708.73434
708.73359
696.67612
696.67694
696.67703
696.67705
696.677
696.67689
696.6767
696.67643
696.67606
696.67553
696.67694
696.67752
696.67759
696.6776
696.67755
696.67743
696.67725
696.67699
696.67662
696.67598
696.67703
696.67759
696.67764
696.67764
696.67759
696.67747
696.67729
696.67703
696.67669
696.67607
696.67705
696.6776
696.67764
696.67764
696.67759
696.67747
696.67729
696.67704
696.6767
696.67608
696.677
696.67755
696.67759
696.67759
696.67753
696.67741
696.67723
696.67698
696.67665
696.67603
696.67689
696.67743
696.67747
696.67747
696.67741
696.67729
696.67711
696.67686
696.67652
696.6759
696.6767
696.67725
696.67729
696.67729
696.67723
696.67711
696.67692
696.67667
696.67632
696.6757
696.67643
696.67699
696.67703
696.67704
696.67698
696.67686
696.67667
696.6764
696.67605
696.67541
696.67606
696.67662
696.67669
696.6767
696.67665
696.67652
696.67632
696.67605
696.67567
696.675
696.67553
696.67598
696.67607
696.67608
696.67603
696.6759
696.6757
696.67541
696.675
696.67422
685.18697
685.18779
685.18782
685.18781
685.18776
685.18765
685.18748
685.18725
685.18693
685.18641
685.18779
685.18835
685.18836
685.18834
685.18828
685.18818
685.18802
685.1878
685.18749
685.18686
685.18782
685.18836
685.18835
685.18833
685.18827
685.18816
685.18801
685.18781
685.18753
685.18693
685.18781
685.18834
685.18833
685.18831
685.18824
685.18814
685.18799
685.18779
685.18753
685.18693
685.18776
685.18828
685.18827
685.18824
685.18818
685.18807
685.18793
685.18773
685.18747
685.18688
685.18765
685.18818
685.18816
685.18814
685.18807
685.18797
685.18782
685.18763
685.18737
685.18678
685.18748
685.18802
685.18801
685.18799
685.18793
685.18782
685.18767
685.18748
685.18721
685.18661
685.18725
685.1878
685.18781
685.18779
685.18773
685.18763
685.18748
685.18727
685.18699
685.18638
685.18693
685.18749
685.18753
685.18753
685.18747
685.18737
685.18721
685.18699
685.18668
685.18603
685.18641
685.18686
685.18693
685.18693
685.18688
685.18678
685.18661
685.18638
685.18603
685.18524
674.23257
674.23338
674.23335
674.23332
674.23325
674.23315
674.23301
674.23282
674.23255
674.23205
674.23338
674.23391
674.23386
674.23382
674.23375
674.23365
674.23352
674.23335
674.23311
674.23249
674.23335
674.23386
674.2338
674.23376
674.23369
674.23359
674.23347
674.23332
674.23311
674.23254
674.23332
674.23382
674.23376
674.2337
674.23364
674.23354
674.23343
674.23329
674.23309
674.23253
674.23325
674.23375
674.23369
674.23364
674.23357
674.23348
674.23337
674.23323
674.23304
674.23249
674.23315
674.23365
674.23359
674.23354
674.23348
674.23339
674.23328
674.23315
674.23296
674.2324
674.23301
674.23352
674.23347
674.23343
674.23337
674.23328
674.23317
674.23303
674.23284
674.23228
674.23282
674.23335
674.23332
674.23329
674.23323
674.23315
674.23303
674.23289
674.23268
674.2321
674.23255
674.23311
674.23311
674.23309
674.23304
674.23296
674.23284
674.23268
674.23244
674.23182
674.23205
674.23249
674.23254
674.23253
674.23249
674.2324
674.23228
674.2321
674.23182
674.23103
663.78065
663.78145
663.78136
663.7813
663.78122
663.78114
663.78103
663.78088
663.78066
663.78018
663.78145
663.78194
663.78184
663.78177
663.7817
663.78161
663.78151
663.78139
663.78121
663.78062
663.78136
663.78184
663.78173
663.78166
663.78158
663.7815
663.78141
663.78132
663.78118
663.78064
663.7813
663.78177
663.78166
663.78158
663.78151
663.78143
663.78135
663.78127
663.78115
663.78063
663.78122
663.7817
663.78158
663.78151
663.78144
663.78137
663.7813
663.78122
663.7811
663.78059
663.78114
663.78161
663.7815
663.78143
663.78137
663.7813
663.78123
663.78116
663.78104
663.78053
663.78103
663.78151
663.78141
663.78135
663.7813
663.78123
663.78116
663.78108
663.78097
663.78044
663.78088
663.78139
663.78132
663.78127
663.78122
663.78116
663.78108
663.781
663.78086
663.78033
663.78066
663.78121
663.78118
663.78115
663.7811
663.78104
663.78097
663.78086
663.7807
663.78012
663.78018
663.78062
663.78064
663.78063
663.78059
663.78053
663.78044
663.78033
663.78012
663.77933
653.80186
653.80264
653.8025
653.80241
653.80233
653.80225
653.80217
653.80207
653.8019
653.80144
653.80264
653.80309
653.80294
653.80285
653.80277
653.80269
653.80263
653.80256
653.80244
653.80188
653.8025
653.80294
653.80278
653.80268
653.8026
653.80254
653.80248
653.80244
653.80237
653.80187
653.80241
653.80285
653.80268
653.80258
653.80251
653.80245
653.80241
653.80238
653.80233
653.80185
653.80233
653.80277
653.8026
653.80251
653.80244
653.80239
653.80235
653.80233
653.8023
653.80182
653.80225
653.80269
653.80254
653.80245
653.80239
653.80234
653.80231
653.80229
653.80226
653.80179
653.80217
653.80263
653.80248
653.80241
653.80235
653.80231
653.80228
653.80226
653.80223
653.80175
653.80207
653.80256
653.80244
653.80238
653.80233
653.80229
653.80226
653.80224
653.80218
653.80169
653.8019
653.80244
653.80237
653.80233
653.8023
653.80226
653.80223
653.80218
653.8021
653.80155
653.80144
653.80188
653.80187
653.80185
653.80182
653.80179
653.80175
653.80169
653.80155
653.80079
644.26936
644.27011
644.26992
644.2698
644.26972
644.26966
644.26961
644.26956
644.26944
644.26901
644.27011
644.27053
644.27033
644.27021
644.27012
644.27007
644.27003
644.27001
644.26996
644.26943
644.26992
644.27033
644.27012
644.27
644.26992
644.26987
644.26985
644.26986
644.26986
644.26941
644.2698
644.27021
644.27
644.26988
644.2698
644.26976
644.26976
644.26979
644.26981
644.26938
644.26972
644.27012
644.26992
644.2698
644.26973
644.2697
644.2697
644.26974
644.26979
644.26936
644.26966
644.27007
644.26987
644.26976
644.2697
644.26967
644.26969
644.26973
644.26978
644.26935
644.26961
644.27003
644.26985
644.26976
644.2697
644.26969
644.2697
644.26974
644.26978
644.26935
644.26956
644.27001
644.26986
644.26979
644.26974
644.26973
644.26974
644.26978
644.2698
644.26936
644.26944
644.26996
644.26986
644.26981
644.26979
644.26978
644.26978
644.2698
644.2698
644.2693
644.26901
644.26943
644.26941
644.26938
644.26936
644.26935
644.26935
644.26936
644.2693
644.26855
635.15852
635.15925
635.159
635.15886
635.15878
635.15873
635.15871
635.15871
635.15864
635.15825
635.15925
635.15962
635.15937
635.15923
635.15914
635.1591
635.1591
635.15913
635.15914
635.15866
635.159
635.15937
635.15912
635.15898
635.15889
635.15886
635.15888
635.15895
635.15902
635.15861
635.15886
635.15923
635.15898
635.15884
635.15876
635.15874
635.15877
635.15886
635.15896
635.15858
635.15878
635.15914
635.15889
635.15876
635.15869
635.15868
635.15873
635.15883
635.15894
635.15857
635.15873
635.1591
635.15886
635.15874
635.15868
635.15868
635.15873
635.15884
635.15896
635.15859
635.15871
635.1591
635.15888
635.15877
635.15873
635.15873
635.15879
635.15889
635.15901
635.15863
635.15871
635.15913
635.15895
635.15886
635.15883
635.15884
635.15889
635.15899
635.15909
635.1587
635.15864
635.15914
635.15902
635.15896
635.15894
635.15896
635.15901
635.15909
635.15916
635.15871
635.15825
635.15866
635.15861
635.15858
635.15857
635.15859
635.15863
635.1587
635.15871
635.15799
626.44664
626.44734
626.44705
626.44689
626.4468
626.44676
626.44678
626.44682
626.44682
626.44646
626.44734
626.44767
626.44737
626.44721
626.44713
626.4471
626.44714
626.44722
626.44729
626.44685
626.44705
626.44737
626.44708
626.44692
626.44684
626.44683
626.44688
626.447
626.44715
626.44679
626.44689
626.44721
626.44692
626.44676
626.44669
626.44669
626.44676
626.4469
626.44708
626.44675
626.4468
626.44713
626.44684
626.44669
626.44662
626.44663
626.44672
626.44688
626.44707
626.44675
626.44676
626.4471
626.44683
626.44669
626.44663
626.44666
626.44675
626.44691
626.44711
626.44679
626.44678
626.44714
626.44688
626.44676
626.44672
626.44675
626.44685
626.44701
626.44721
626.44689
626.44682
626.44722
626.447
626.4469
626.44688
626.44691
626.44701
626.44717
626.44735
626.44701
626.44682
626.44729
626.44715
626.44708
626.44707
626.44711
626.44721
626.44735
626.4475
626.4471
626.44646
626.44685
626.44679
626.44675
626.44675
626.44679
626.44689
626.44701
626.4471
626.44641
618.11272
618.11338
618.11304
618.11286
618.11278
618.11276
618.11281
618.1129
618.11295
618.11263
618.11338
618.11366
618.11333
618.11315
618.11307
618.11306
618.11313
618.11327
618.1134
618.11301
618.11304
618.11333
618.113
618.11282
618.11274
618.11275
618.11284
618.11301
618.11323
618.11292
618.11286
618.11315
618.11282
618.11265
618.11258
618.1126
618.11271
618.11291
618.11316
618.11288
618.11278