/*--------------------------------*- C++ -*----------------------------------*\
| =========                 |                                                 |
| \\      /  F ield         | OpenFOAM: The Open Source CFD Toolbox           |
|  \\    /   O peration     | Version:  v2106                                 |
|   \\  /    A nd           | Website:  www.openfoam.com                      |
|    \\/     M anipulation  |                                                 |
\*---------------------------------------------------------------------------*/
FoamFile
{
    version     2.0;
    format      ascii;
    arch        "LSB;label=32;scalar=64";
    class       volScalarField;
    location    "75";
    object      gradTx;
}
// * * * * * * * * * * * * * * * * * * * * * * * * * * * * * * * * * * * * * //

dimensions      [0 -1 0 1 0 0 0];

internalField   nonuniform List<scalar> 
4000
(
0.00014719618
0.00032341985
0.00016286168
8.8243799e-05
2.8205051e-05
-2.4020604e-05
-6.8585538e-05
-0.00010112779
-0.00010801759
-3.4171588e-05
0.00013050642
0.00029258153
0.00015480408
8.4667727e-05
2.5672755e-05
-2.687865e-05
-7.3262792e-05
-0.00011097953
-0.00013143614
-4.5235699e-05
0.00012663731
0.00028289731
0.0001483976
8.0207617e-05
2.1870402e-05
-3.1010722e-05
-7.8757507e-05
-0.00011906075
-0.00014231102
-4.9252021e-05
0.00012513469
0.00027811745
0.00014359142
7.5842934e-05
1.7705048e-05
-3.5390823e-05
-8.3762844e-05
-0.00012484091
-0.00014802332
-5.1010879e-05
0.00012425326
0.00027486114
0.00013957281
7.1679067e-05
1.3543117e-05
-3.9615301e-05
-8.8108174e-05
-0.00012912234
-0.00015152751
-5.1961624e-05
0.00012344648
0.0002717828
0.00013562372
6.7515644e-05
9.4294669e-06
-4.3623944e-05
-9.1961934e-05
-0.00013259679
-0.00015410652
-5.2615505e-05
0.00012234788
0.000267871
0.00013106064
6.3074493e-05
5.3099939e-06
-4.7449001e-05
-9.5513382e-05
-0.00013573045
-0.00015641129
-5.3198841e-05
0.00012032833
0.00026161085
0.00012512366
5.8164978e-05
1.2303827e-06
-5.1029155e-05
-9.8829009e-05
-0.00013880637
-0.00015888785
-5.387375e-05
0.00011578006
0.00024993805
0.00011719926
5.3012898e-05
-2.4458765e-06
-5.4057109e-05
-0.00010172297
-0.00014185537
-0.00016188731
-5.4816845e-05
0.00010471595
0.0002273174
0.00010853649
4.8948496e-05
-4.8528222e-06
-5.5912935e-05
-0.00010361033
-0.00014428238
-0.00016517128
-5.6063072e-05
0.00064233745
0.0014397096
0.00076288223
0.00042029593
0.00013236152
-0.0001221385
-0.00034223038
-0.00050948803
-0.00056734529
-0.00018613652
0.0005615402
0.0012916481
0.00072542768
0.00040332811
0.00012008417
-0.00013612029
-0.00036543869
-0.00056062726
-0.0007070837
-0.00025528591
0.00054362973
0.0012467129
0.00069527711
0.0003818736
0.00010160732
-0.00015628848
-0.00039235373
-0.00060040503
-0.00075977297
-0.00027446047
0.0005365705
0.0012240429
0.00067216586
0.00036070648
8.1324139e-05
-0.00017766056
-0.00041680446
-0.00062865401
-0.00078759918
-0.00028299516
0.00053231785
0.0012082906
0.00065265548
0.00034043628
6.1029979e-05
-0.0001982811
-0.00043802835
-0.00064956994
-0.00080470942
-0.00028763426
0.00052838559
0.0011932887
0.00063340584
0.00032012913
4.095107e-05
-0.0002178635
-0.00045687173
-0.00066657598
-0.00081734481
-0.00029083975
0.00052299665
0.0011741406
0.00061111521
0.00029844366
2.0827034e-05
-0.00023657246
-0.00047428215
-0.00068199702
-0.00082874829
-0.00029373868
0.00051291339
0.0011431654
0.00058204007
0.00027445452
8.8379747e-07
-0.00025411731
-0.00049062455
-0.00069733652
-0.00084135098
-0.00029723177
0.00048890384
0.0010832237
0.00054308845
0.00024927873
-1.7094918e-05
-0.00026899953
-0.0005050427
-0.00071301309
-0.00085776181
-0.00030262998
0.00041975446
0.00095073773
0.00050152459
0.00022951807
-2.8861835e-05
-0.00027815618
-0.00051463072
-0.00072635003
-0.00087962219
-0.00031180537
0.0010362896
0.0023534224
0.001287354
0.00071367684
0.00021319074
-0.00023884645
-0.00063999312
-0.00096761278
-0.0011581067
-0.00040250721
0.00090606468
0.0021140804
0.0012254132
0.0006846279
0.0001916379
-0.0002637183
-0.00068165712
-0.0010604175
-0.0014150283
-0.00053007316
0.00087672819
0.0020396732
0.0011741772
0.00064735444
0.00015907424
-0.0002995402
-0.00072964883
-0.0011313788
-0.0015077017
-0.00056341024
0.00086477083
0.0020009036
0.0011340601
0.0006101882
0.00012319631
-0.00033750402
-0.00077316521
-0.0011816269
-0.0015568688
-0.00057838821
0.00085736223
0.0019733508
0.0010997375
0.00057435536
8.7193976e-05
-0.00037417493
-0.00081096424
-0.0012188856
-0.0015872908
-0.00058661721
0.00085040227
0.0019467871
0.0010656185
0.00053830793
5.1487508e-05
-0.00040907055
-0.0008446208
-0.0012493343
-0.0016099601
-0.00059237448
0.00084078099
0.001912657
0.0010259518
0.00049972062
1.5627438e-05
-0.00044251315
-0.00087591331
-0.0012772974
-0.0016308965
-0.00059775072
0.00082262627
0.0018571314
0.00097411038
0.00045699252
-1.9968084e-05
-0.00047401963
-0.00090565335
-0.0013059441
-0.0016554827
-0.00060480973
0.00077891121
0.001748891
0.00090474238
0.00041221386
-5.2079929e-05
-0.00050092504
-0.00093252313
-0.0013371613
-0.0016924905
-0.00061800196
0.00065134524
0.0015075365
0.00083226983
0.0003774034
-7.3059347e-05
-0.0005176253
-0.000951176
-0.0013675381
-0.0017621177
-0.00065122787
0.001387821
0.0031645091
0.0017473899
0.00096470177
0.00026482029
-0.0003788353
-0.00096206163
-0.0014583338
-0.0017902313
-0.00063359532
0.0012136626
0.0028442071
0.0016637747
0.00092461682
0.00023447778
-0.00041428413
-0.0010218751
-0.0015923513
-0.0021633185
-0.00081909045
0.0011742864
0.002743726
0.0015934919
0.00087264404
0.00018848855
-0.0004652725
-0.0010904524
-0.0016938255
-0.0022948814
-0.00086613053
0.0011579191
0.0026903091
0.0015376085
0.00082035699
0.00013764266
-0.00051932369
-0.0011525493
-0.0017655216
-0.0023647366
-0.00088731784
0.0011475631
0.0026516682
0.001489232
0.00076961065
8.6458617e-05
-0.00057160855
-0.00120654
-0.0018187666
-0.0024081519
-0.00089904017
0.0011376908
0.0026139773
0.0014407734
0.00071832704
3.5550633e-05
-0.00062148521
-0.0012547755
-0.0018625192
-0.0024407913
-0.0009073377
0.0011239305
0.002565231
0.0013841925
0.00066327458
-1.5702908e-05
-0.00066945593
-0.0012999221
-0.001903197
-0.0024715561
-0.00091529705
0.0010978152
0.0024855866
0.0013100992
0.00060223948
-6.667559e-05
-0.00071486737
-0.0013433261
-0.0019458615
-0.0025091756
-0.0009263017
0.0010345855
0.0023297394
0.0012110221
0.00053833343
-0.00011270042
-0.00075388625
-0.0013832645
-0.0019941738
-0.0025693899
-0.00094831143
0.0008490904
0.0019809365
0.0011086811
0.00048896898
-0.00014273022
-0.00077827157
-0.0014117104
-0.0020436954
-0.0026907775
-0.0010072268
0.0017152937
0.0039109627
0.0021567762
0.0011774004
0.00028832857
-0.0005400225
-0.0013015882
-0.0019644957
-0.002432651
-0.00086669259
0.0014994175
0.0035141001
0.0020530533
0.0011270337
0.00024964283
-0.00058567191
-0.0013790361
-0.0021386292
-0.0029187062
-0.0011085018
0.0014507186
0.0033894755
0.0019651382
0.0010612902
0.00019087949
-0.00065126372
-0.0014675554
-0.0022697076
-0.0030879272
-0.0011687876
0.0014302689
0.0033224621
0.0018945119
0.00099470693
0.00012572642
-0.00072081828
-0.0015476383
-0.0023621877
-0.0031777925
-0.0011959681
0.0014171408
0.0032733653
0.0018328114
0.0009297245
5.9950746e-05
-0.00078819658
-0.001617341
-0.0024309695
-0.0032338258
-0.0012110781
0.0014044784
0.003225013
0.0017705955
0.0008637782
-5.651296e-06
-0.00085262895
-0.0016798133
-0.0024877667
-0.0032762637
-0.0012218738
0.0013867079
0.003162124
0.0016976651
0.00079279165
-7.1859919e-05
-0.00091480815
-0.0017386272
-0.0025411023
-0.0033168835
-0.0012324327
0.0013528464
0.0030590458
0.0016019933
0.00071399261
-0.00013782632
-0.00097391509
-0.001795681
-0.0025979642
-0.0033677978
-0.0012474675
0.0012706189
0.0028569121
0.0014741066
0.00063152976
-0.00019743894
-0.0010249409
-0.0018488247
-0.0026637491
-0.0034515858
-0.0012783776
0.0010288096
0.0024037696
0.0013429071
0.00056809405
-0.0002362975
-0.0010569728
-0.0018872152
-0.0027326665
-0.003623987
-0.0013624017
0.0020229143
0.0046047547
0.0025245444
0.0013572154
0.00028776639
-0.00071744043
-0.0016505159
-0.0024732775
-0.0030691923
-0.0010961855
0.0017671708
0.0041348931
0.0024018773
0.0012971766
0.00024116142
-0.00077286188
-0.0017449298
-0.0026860329
-0.0036639408
-0.0013921671
0.0017096732
0.0039875525
0.0022974318
0.0012184655
0.00017026562
-0.00085242928
-0.00185261
-0.0028455821
-0.0038693362
-0.0014651637
0.0016853927
0.0039077805
0.0022129399
0.0011383607
9.1487746e-05
-0.00093683192
-0.0019499749
-0.0029580506
-0.0039784287
-0.0014980971
0.0016696474
0.0038488026
0.0021386159
0.001059834
1.1763025e-05
-0.0010187013
-0.0020348071
-0.0030418114
-0.0040466224
-0.001516469
0.0016543227
0.0037902797
0.0020632662
0.00097985809
-6.7946608e-05
-0.001097164
-0.0021110529
-0.0031112619
-0.0040985749
-0.0015296907
0.0016326997
0.0037138138
0.0019746459
0.000893562
-0.00014856908
-0.0011731039
-0.002183177
-0.0031769846
-0.0041488664
-0.0015428028
0.0015913801
0.0035881857
0.0018582211
0.00079766096
-0.00022902454
-0.0012455339
-0.0022536143
-0.0032478476
-0.004212908
-0.0015618138
0.0014908628
0.0033415091
0.0017026282
0.00069733271
-0.00030178039
-0.0013082771
-0.0023197627
-0.0033308896
-0.0043198728
-0.0016014457
0.0011948812
0.0027880418
0.0015437332
0.00062037482
-0.00034917077
-0.0013477779
-0.0023679473
-0.0034188539
-0.0045419397
-0.0017098584
0.0023113002
0.0052495611
0.0028559701
0.0015089286
0.00026782495
-0.00090551054
-0.0020014552
-0.0029752058
-0.003689724
-0.0013188048
0.0020176635
0.0047104004
0.0027154399
0.001439783
0.00021372747
-0.00097022783
-0.0021120497
-0.0032248124
-0.0043881712
-0.0016664676
0.0019518597
0.0045416579
0.0025954622
0.0013488635
0.00013135322
-0.00106308
-0.0022379898
-0.003411508
-0.0046280247
-0.0017515619
0.0019239768
0.0044498925
0.0024979265
0.0012559996
3.9664691e-05
-0.0011616055
-0.0023518287
-0.0035430409
-0.0047554434
-0.0017899744
0.0019057627
0.0043815928
0.0024116788
0.0011646467
-5.3312162e-05
-0.0012572837
-0.0024511081
-0.0036411169
-0.0048352544
-0.0018114605
0.0018879118
0.0043134208
0.0023238637
0.0010713342
-0.00014646571
-0.0013491552
-0.0025405506
-0.0037227108
-0.0048963425
-0.001827011
0.0018626178
0.0042240233
0.0022203012
0.00097044307
-0.00024086188
-0.0014382895
-0.0026254834
-0.0038003874
-0.0049559797
-0.001842591
0.0018141821
0.0040768861
0.0020840847
0.00085821596
-0.00033518754
-0.0015235304
-0.0027088508
-0.0038848187
-0.0050327496
-0.0018654553
0.0016962134
0.0037877211
0.0019020728
0.00074083414
-0.0004205318
-0.00159756
-0.0027875913
-0.0039845975
-0.0051621559
-0.0019135226
0.0013485506
0.0031385854
0.0017168125
0.00065098627
-0.00047608664
-0.0016442558
-0.0028452578
-0.0040909948
-0.0054321736
-0.0020454671
0.0025799605
0.0058458872
0.0031540308
0.0016362648
0.00023282499
-0.0010990486
-0.0023481057
-0.0034630264
-0.0042870236
-0.0015322732
0.0022506029
0.0052414533
0.0029967488
0.0015585837
0.00017168123
-0.0011725393
-0.0024739973
-0.0037474867
-0.0050835598
-0.0019288225
0.0021770046
0.0050526516
0.0028622353
0.0014562219
7.851376e-05
-0.0012779224
-0.0026171898
-0.0039598376
-0.0053559479
-0.0020253302
0.0021457482
0.0049496577
0.0027524811
0.0013513819
-2.5327531e-05
-0.0013897755
-0.0027465981
-0.0041093935
-0.0055006804
-0.0020689156
0.0021252171
0.0048726087
0.0026550335
0.0012479607
-0.00013080134
-0.0014985035
-0.0028595502
-0.0042210242
-0.0055914873
-0.0020933476
0.0021049857
0.0047953465
0.0025554723
0.0011420668
-0.00023666068
-0.0016030742
-0.0029615138
-0.0043141526
-0.0056612546
-0.0021111099
0.0020762233
0.0046937349
0.0024377973
0.0010273796
-0.00034410002
-0.0017047345
-0.0030586374
-0.0044032288
-0.0057298126
-0.0021290459
0.0020210579
0.0045262624
0.0022828715
0.00089970636
-0.00045157631
-0.0018021614
-0.0031543457
-0.0045006402
-0.0058187693
-0.0021556
0.0018865831
0.0041969237
0.0020758906
0.00076619295
-0.00054885913
-0.0018869391
-0.0032451251
-0.0046164509
-0.0059696734
-0.0022117461
0.0014900338
0.0034573382
0.001865751
0.00066416696
-0.00061215059
-0.0019404867
-0.0033118603
-0.0047405011
-0.0062856021
-0.0023662191
0.0028280409
0.0063929366
0.0034203754
0.0017420057
0.0001864101
-0.0012935865
-0.002685216
-0.0039309635
-0.0048554447
-0.001734804
0.002465336
0.0057276084
0.0032475191
0.0016563871
0.00011869392
-0.0013752834
-0.0028254341
-0.0042480794
-0.0057439032
-0.0021771687
0.0023844888
0.0055201665
0.0030995076
0.0015433825
1.546027e-05
-0.001492381
-0.0029847746
-0.0044844468
-0.0060467172
-0.0022843413
0.0023500985
0.0054067406
0.0029783932
0.0014273881
-9.9724999e-05
-0.0016166986
-0.0031287592
-0.0046508782
-0.0062076499
-0.0023327634
0.0023274098
0.0053215434
0.0028705085
0.0013127051
-0.00021688072
-0.0017376451
-0.0032545267
-0.0047752177
-0.0063087622
-0.0023599547
0.0023049544
0.0052357908
0.0027599743
0.0011950471
-0.00033463744
-0.0018541264
-0.0033682503
-0.0048791889
-0.0063866895
-0.002379796
0.0022729452
0.0051227488
0.0026290934
0.001067441
-0.00045430853
-0.0019675572
-0.0034768533
-0.0049790171
-0.0064636693
-0.002399957
0.0022114756
0.0049362322
0.0024566492
0.00092529496
-0.00057412855
-0.002076453
-0.0035842099
-0.0050887084
-0.0065641699
-0.0024300077
0.0020615346
0.0045692656
0.0022262945
0.00077667006
-0.00068261918
-0.0021713566
-0.0036863728
-0.0052197144
-0.0067354701
-0.0024938202
0.0016191699
0.0037449597
0.0019929025
0.00066324989
-0.00075316813
-0.00223136
-0.0037616903
-0.0053605092
-0.0070949769
-0.0026696789
0.0030545962
0.0068893998
0.0036558914
0.0018282055
0.00013154296
-0.0014853935
-0.0030084288
-0.0043742841
-0.0053903299
-0.0019249051
0.002661107
0.0061678951
0.0034687135
0.0017352819
5.7758465e-05
-0.0015746867
-0.0031619242
-0.004721677
-0.0063640392
-0.0024097627
0.0025735931
0.00594332
0.0033082977
0.001612477
-5.4768967e-05
-0.001702623
-0.0033362204
-0.0049802894
-0.0066950038
-0.0025267937
0.0025363217
0.0058203013
0.0031767263
0.0014861964
-0.00018043651
-0.0018384772
-0.0034937078
-0.005162354
-0.0068709329
-0.0025796899
0.002511644
0.0057275915
0.0030592122
0.0013611095
-0.00030840059
-0.001970744
-0.0036313591
-0.0052984811
-0.0069815995
-0.002609438
0.0024871321
0.0056339894
0.0029385313
0.0012325647
-0.00043718126
-0.0020982773
-0.0037560084
-0.0054125335
-0.0070671146
-0.0026312121
0.0024521152
0.0055103621
0.0027954217
0.0010929884
-0.0005682007
-0.0022226482
-0.0038753016
-0.0055223912
-0.0071519585
-0.0026534515
0.0023848018
0.0053061978
0.0026067477
0.00093742606
-0.00069948184
-0.0023422197
-0.0039935316
-0.0056435737
-0.0072632796
-0.0026867821
0.00222052
0.0049043568
0.0023547447
0.00077479677
-0.00081838018
-0.0024465584
-0.0041063417
-0.005788833
-0.007453741
-0.0027578003
0.0017356623
0.0040015239
0.002099854
0.00065083042
-0.00089566357
-0.0025125787
-0.0041896966
-0.0059453561
-0.0078542265
-0.0029537724
0.0032587057
0.0073338242
0.0038610361
0.0018963912
7.060492e-05
-0.0016713894
-0.0033141233
-0.0047890406
-0.0058877366
-0.002101297
0.0028371677
0.0065611714
0.0036608619
0.0017968297
-8.7140853e-06
-0.0017676297
-0.003479776
-0.0051641705
-0.006939571
-0.002625099
0.0027436038
0.0063210559
0.0034891931
0.0016651122
-0.00012971833
-0.0019054734
-0.0036677568
-0.0054431381
-0.0072962628
-0.0027511304
0.0027037182
0.0061893284
0.0033481156
0.001529461
-0.00026495535
-0.0020518768
-0.0038376012
-0.0056395091
-0.007485904
-0.0028081141
0.0026772295
0.0060897769
0.0032218245
0.0013948784
-0.00040279937
-0.0021945054
-0.0039861391
-0.0057864366
-0.0076053204
-0.0028402023
0.0026508389
0.0059890051
0.0030918743
0.00125638
-0.0005416716
-0.0023321699
-0.004120816
-0.005909749
-0.0076978067
-0.0028637519
0.0026130693
0.0058556929
0.0029375775
0.0011058464
-0.00068309252
-0.0024665865
-0.0042499447
-0.0060288509
-0.0077899079
-0.0028879105
0.0025404037
0.0056353716
0.0027340491
0.00093799773
-0.00082488638
-0.0025959755
-0.0043782047
-0.0061606626
-0.0079112582
-0.0029242838
0.0023629827
0.0052015955
0.0024622388
0.00076254789
-0.00095333236
-0.0027090007
-0.0045008583
-0.0063191441
-0.008119529
-0.0030020035
0.0018391807
0.0042268453
0.0021877162
0.00062894008
-0.0010367891
-0.002780563
-0.0045916561
-0.0064902837
-0.008558151
-0.0032166984
0.0034395293
0.0077248052
0.004036036
0.0019477208
5.5138372e-06
-0.0018490358
-0.0035992831
-0.0051719135
-0.0063442962
-0.0022628747
0.0029928313
0.0069063094
0.0038242568
0.001842221
-7.8778559e-05
-0.0019515387
-0.0037759109
-0.0055720977
-0.0074667286
-0.0028218721
0.0028938655
0.0066523246
0.0036425409
0.0017025209
-0.00020740145
-0.0020983089
-0.0039762351
-0.0058694263
-0.0078465935
-0.0029560009
0.0028516452
0.0065128142
0.0034929528
0.0015584596
-0.00035124821
-0.0022542206
-0.004157227
-0.0060787031
-0.0080485922
-0.0030166647
0.0028235323
0.0064071247
0.0033587795
0.0014153359
-0.00049799404
-0.0024061988
-0.0043155967
-0.0062353865
-0.0081759082
-0.0030508643
0.0027954502
0.0062998989
0.0032204832
0.001267867
-0.00064597303
-0.0025530195
-0.0044593482
-0.0063670862
-0.0082747102
-0.0030760221
0.002755197
0.0061578516
0.0030560977
0.001107446
-0.00079679295
-0.0026965316
-0.0045974019
-0.0064945936
-0.0083734203
-0.0031019297
0.0026776984
0.0059229469
0.002839167
0.00092850549
-0.00094809416
-0.0028348247
-0.0047347897
-0.0066361101
-0.0085039495
-0.0031410909
0.0024884075
0.0054603388
0.0025494923
0.00074148589
-0.001085176
-0.0029557387
-0.0048664259
-0.0068067047
-0.0087285743
-0.0032249693
0.0019294101
0.0044206496
0.0022573035
0.0005991908
-0.0011742122
-0.0030323368
-0.004964029
-0.0069912642
-0.0092022703
-0.0034568881
0.0035963375
0.0080610942
0.0041810141
0.0019831027
-6.2170923e-05
-0.0020162366
-0.0038613943
-0.0055201098
-0.0067571368
-0.0024086882
0.0031275015
0.0072023011
0.0039590787
0.0018723928
-0.00015085148
-0.002124287
-0.0040477605
-0.0059425419
-0.0079422918
-0.0029989586
0.0030238088
0.0069361865
0.003768569
0.0017256777
-0.00028619836
-0.0022789592
-0.0042590265
-0.0062561476
-0.0083426637
-0.0031402426
0.0029795445
0.006789856
0.0036115061
0.0015742066
-0.00043765364
-0.0024432918
-0.0044499013
-0.0064768655
-0.0085556048
-0.0032041614
0.0029500022
0.0066787615
0.0034703828
0.0014235373
-0.00059227966
-0.0026035606
-0.0046169983
-0.0066422109
-0.0086899304
-0.003240233
0.0029204242
0.0065658285
0.0033247039
0.0012681253
-0.00074833509
-0.0027585159
-0.0047688242
-0.0067813815
-0.00879436
-0.0032668238
0.0028779686
0.0064160389
0.003151378
0.0010989359
-0.00090750369
-0.0029101258
-0.0049148447
-0.0069164102
-0.0088989946
-0.0032943006
0.00279618
0.0061681964
0.0029225632
0.0009101535
-0.001067258
-0.0030563622
-0.0050604086
-0.0070666533
-0.0090378013
-0.0033359794
0.0025963471
0.0056800011
0.0026170544
0.00071287247
-0.0012120196
-0.003184325
-0.0052001165
-0.0072481842
-0.0092772329
-0.0034254389
0.0020060767
0.0045826695
0.0023092503
0.0005628868
-0.0013060132
-0.0032654264
-0.0053038499
-0.0074448916
-0.0097827426
-0.0036729859
0.0037285288
0.0083416647
0.0042960729
0.0020032831
-0.00013116366
-0.0021712571
-0.0040983672
-0.0058312941
-0.0071238359
-0.0025379315
0.0032406893
0.0074483229
0.0040654783
0.0018881153
-0.00022362673
-0.0022841137
-0.0042931897
-0.006273064
-0.0083635445
-0.0031554061
0.0031329677
0.0071718749
0.0038674682
0.0017353849
-0.000364772
-0.0024456268
-0.0045139446
-0.0066007869
-0.0087816634
-0.0033028709
0.0030869596
0.0070197183
0.0037040003
0.0015775381
-0.00052279946
-0.0026172537
-0.0047133912
-0.0068314281
-0.0090040812
-0.0033696046
0.0030561891
0.0069039767
0.003556891
0.0014203536
-0.00068424712
-0.0027847149
-0.0048880696
-0.0070043004
-0.0091444933
-0.0034073002
0.0030253175
0.0067861099
0.0034048275
0.001258063
-0.00084731025
-0.0029467435
-0.0050469302
-0.0071499885
-0.0092538346
-0.0034351415
0.0029809514
0.0066296069
0.0032237511
0.0010812656
-0.001013737
-0.0031054136
-0.0051999189
-0.0072916158
-0.0093636789
-0.0034639998
0.0028954358
0.0063705325
0.002984626
0.00088393798
-0.0011808492
-0.0032585928
-0.005352665
-0.0074495612
-0.0095098177
-0.0035079124
0.0026864381
0.0058601141
0.002665387
0.00067775209
-0.0013322974
-0.003392729
-0.0054994916
-0.0076407927
-0.0097624283
-0.003602345
0.0020689634
0.004712705
0.0023440893
0.00052110803
-0.0014306027
-0.0034777784
-0.0056086481
-0.0078483106
-0.010296318
-0.0038638387
0.0038356412
0.0085657546
0.0043813515
0.0020089101
-0.0002003874
-0.0023126608
-0.0043084787
-0.0061035414
-0.0074423893
-0.0026499364
0.003332024
0.0076437768
0.0041436332
0.0018900558
-0.00029601089
-0.0024295614
-0.0045104384
-0.0065616543
-0.0087282441
-0.0032904274
0.0032209893
0.007358837
0.0039394478
0.0017323353
-0.000442004
-0.0025968246
-0.0047391882
-0.006901274
-0.0091612749
-0.0034430727
0.0031735451
0.0072018731
0.0037706717
0.0015691742
-0.00060553878
-0.0027745869
-0.0049458582
-0.0071402771
-0.009391663
-0.0035121693
0.0031417531
0.0070822622
0.0036185662
0.0014065332
-0.00077271962
-0.0029481105
-0.005126938
-0.0073195077
-0.0095372118
-0.0035512338
0.0031097961
0.0069602565
0.0034611438
0.0012384586
-0.00094169051
-0.0031161195
-0.0052917613
-0.0074707299
-0.0096507265
-0.0035801374
0.0030638194
0.0067980984
0.0032735407
0.0010552473
-0.0011142521
-0.0032807795
-0.005450687
-0.0076180016
-0.0097650402
-0.0036101828
0.0029751563
0.006529547
0.003025724
0.00085070879
-0.0012875936
-0.0034398684
-0.0056095863
-0.0077825863
-0.0099175284
-0.003656034
0.0027584108
0.0060003659
0.0026949179
0.00063701351
-0.0014447049
-0.0035792733
-0.0057625434
-0.0079822332
-0.010181621
-0.0037548056
0.0021179198
0.0048106615
0.0023623051
0.00047477185
-0.0015466571
-0.0036676968
-0.0058763883
-0.0081991674
-0.010740306
-0.0040284906
0.0039173583
0.0087328927
0.0044370643
0.0020005793
-0.00026892522
-0.0024392619
-0.0044903291
-0.0063353018
-0.0077111902
-0.0027441674
0.0034012595
0.0077883168
0.0041937857
0.001878824
-0.00036707463
-0.0025594281
-0.0046980786
-0.0068066984
-0.009034601
-0.0034033957
0.0032876411
0.0074967601
0.0039847735
0.0017171578
-0.00051694614
-0.0027313279
-0.004933298
-0.0071559479
-0.009479652
-0.0035602021
0.0032390738
0.0073360261
0.0038118063
0.0015497644
-0.00068490177
-0.0029140428
-0.0051458142
-0.0074017191
-0.0097164733
-0.0036312005
0.0032064708
0.0072133386
0.0036557138
0.0013827469
-0.00085670449
-0.0030924742
-0.0053320897
-0.0075861137
-0.0098661885
-0.0036713734
0.0031736409
0.0070880051
0.0034939792
0.001210006
-0.0010304593
-0.0032653457
-0.0055017789
-0.0077418634
-0.0099831205
-0.0037011468
0.00312636
0.0069212725
0.0033010992
0.0010216006
-0.0012080074
-0.0034349002
-0.0056655843
-0.0078937997
-0.010101143
-0.0037321793
0.0030351412
0.0066450363
0.0030462436
0.00081121434
-0.001386424
-0.0035988403
-0.0058295802
-0.0080639299
-0.010258968
-0.0037796645
0.0028120956
0.0061006265
0.0027060785
0.00059143483
-0.0015481517
-0.0037425862
-0.0059876508
-0.0082706658
-0.010532789
-0.0038821191
0.0021528674
0.0048765745
0.0023643713
0.00042467787
-0.0016530712
-0.0038337952
-0.0061054273
-0.0084955754
-0.011112559
-0.0041661782
0.0039735139
0.0088429159
0.004463527
0.0019788672
-0.00033598412
-0.0025500891
-0.0046428096
-0.006525375
-0.0079290125
-0.0028202183
0.0034482779
0.0078818655
0.00421627
0.0018550056
-0.00043601661
-0.0026727317
-0.004854982
-0.0070069512
-0.0092812621
-0.0034938413
0.0033328136
0.0075855881
0.0040037941
0.0016904504
-0.00058878449
-0.0028481393
-0.0050951241
-0.0073635321
-0.0097354036
-0.0036537765
0.0032834399
0.0074221326
0.0038277661
0.0015199201
-0.00076005986
-0.0030346071
-0.0053120897
-0.0076144548
-0.0099771002
-0.0037262097
0.0032502392
0.0072971713
0.0036687086
0.0013496208
-0.00093535752
-0.0032167749
-0.005502337
-0.0078028013
-0.010129997
-0.0037672268
0.0032167516
0.0071693322
0.0035037228
0.0011733471
-0.0011127558
-0.0033933739
-0.0056757774
-0.0079620549
-0.010249578
-0.0037976743
0.0031684774
0.006999121
0.0033068332
0.00098098525
-0.0012941243
-0.0035667092
-0.0058433866
-0.0081176577
-0.010370534
-0.00382949
0.0030753034
0.0067170177
0.0030466151
0.00076613425
-0.0014764435
-0.0037344235
-0.0060114018
-0.0082922156
-0.010532658
-0.003878297
0.0028474266
0.006160964
0.0026993297
0.00054171608
-0.0016417244
-0.0038815657
-0.0061735473
-0.008504682
-0.010814408
-0.0039837613
0.0021738036
0.0049106266
0.002350777
0.0003715407
-0.0017489212
-0.0039749606
-0.0062944814
-0.008736089
-0.011411453
-0.0042763272
0.0040040927
0.0088959785
0.004461175
0.0019443544
-0.00040086836
-0.0026443587
-0.0047650771
-0.0066728896
-0.0080949974
-0.002877809
0.0034730913
0.0079246239
0.0042115294
0.0018191853
-0.00050213693
-0.0027686826
-0.0049802947
-0.0071615164
-0.009467297
-0.0035614483
0.003356523
0.007625531
0.0039969588
0.0016528035
-0.00065681265
-0.0029464609
-0.005223801
-0.007523113
-0.0099275801
-0.0037234741
0.003306661
0.0074604078
0.0038190062
0.0014802387
-0.00083029901
-0.0031354729
-0.0054438084
-0.0077775585
-0.010172583
-0.0037968719
0.0032730769
0.0073339802
0.0036580123
0.0013077597
-0.0010079561
-0.0033201961
-0.0056367933
-0.0079686345
-0.010327669
-0.0038384669
0.0032391486
0.0072044635
0.0034908441
0.0011290953
-0.0011878481
-0.0034993775
-0.0058128597
-0.0081303586
-0.010449123
-0.0038693908
0.0031901944
0.007031878
0.003291222
0.00093402441
-0.0013718607
-0.0036753692
-0.0059831848
-0.0082886174
-0.010572227
-0.003901783
0.0030956702
0.0067457397
0.0030273305
0.00071610291
-0.0015568994
-0.003845769
-0.0061541282
-0.0084664687
-0.010737595
-0.0039515944
0.0028644432
0.0061816547
0.0026751798
0.00048850288
-0.0017246607
-0.0039953521
-0.006319295
-0.0086832839
-0.01102544
-0.004059382
0.0021808038
0.004913157
0.0023220444
0.00031601365
-0.001833439
-0.0040903262
-0.0064426005
-0.0089196826
-0.011635874
-0.0043585501
0.0040092309
0.008892556
0.0044305738
0.0018976422
-0.00046295964
-0.0027214538
-0.0048565346
-0.0067772865
-0.008208642
-0.0029167827
0.0034758416
0.0079170753
0.0041801279
0.0017719636
-0.00056481707
-0.0028466627
-0.0050734175
-0.0072698293
-0.0095921859
-0.0036060514
0.0033589105
0.0076170697
0.0039648293
0.0016048168
-0.00072041186
-0.0030256734
-0.0053187273
-0.0076341235
-0.010055661
-0.0037691296
0.0033088777
0.0074513309
0.0037860871
0.0014313198
-0.00089499965
-0.0032160195
-0.0055403669
-0.007890461
-0.0103024
-0.0038430218
0.0032751247
0.0073242442
0.0036241855
0.0012577638
-0.0010738794
-0.0034021152
-0.0057348529
-0.0080830417
-0.010458681
-0.0038849281
0.0032409727
0.0071938786
0.0034559046
0.0010778523
-0.001255113
-0.0035827307
-0.0059124165
-0.0082461989
-0.010581228
-0.0039161299
0.0031916521
0.0070200246
0.0032548287
0.00088132203
-0.0014405906
-0.0037602504
-0.0060843647
-0.0084060977
-0.010705688
-0.0039488903
0.0030963841
0.0067316859
0.0029889552
0.00066172672
-0.0016271626
-0.0039322426
-0.0062571383
-0.0085860987
-0.010873237
-0.0039993854
0.0028632903
0.0061631877
0.0026341969
0.00043240377
-0.0017963285
-0.0040833064
-0.0064242646
-0.0088058668
-0.011165323
-0.0041088014
0.0021740215
0.0048846673
0.0022787414
0.00025870604
-0.0019059906
-0.0041792497
-0.0065491479
-0.0090457335
-0.011785208
-0.0044126418
0.0039892143
0.008833445
0.0043724268
0.0018393651
-0.00052170194
-0.0027809072
-0.0049168143
-0.0068383041
-0.0082697873
-0.0029371027
0.0034567994
0.0078599857
0.0041227572
0.001713969
-0.00062350481
-0.0029062088
-0.0051339889
-0.0073316421
-0.0096558072
-0.0036276323
0.0033402415
0.0075609555
0.0039080864
0.0015471114
-0.00077903565
-0.0030853195
-0.0053795493
-0.0076963272
-0.01011954
-0.0037907312
0.003290353
0.0073956453
0.0037296818
0.0013737773
-0.00095362136
-0.0032757954
-0.005601418
-0.0079529338
-0.010366454
-0.0038646502
0.0032566441
0.0072687018
0.0035678948
0.0012002413
-0.0011325923
-0.0034620856
-0.0057961735
-0.0081457995
-0.010522941
-0.0039066024
0.0032224844
0.0071383117
0.0033995652
0.0010202207
-0.0013140205
-0.0036429915
-0.005974109
-0.0083093552
-0.010645803
-0.0039378842
0.0031731097
0.0069642896
0.0031983081
0.00082347511
-0.0014997884
-0.003820914
-0.0061465892
-0.0084698782
-0.010770829
-0.0039708045
0.0030777013
0.0066755766
0.0029321361
0.00060359656
-0.0016867115
-0.0039934073
-0.0063200953
-0.0086508833
-0.010939491
-0.0040216613
0.0028442177
0.0061062665
0.0025770164
0.00037400285
-0.0018562098
-0.0041449927
-0.0064881174
-0.0088722027
-0.011233952
-0.0041320066
0.0021536881
0.0048258237
0.0022214895
0.00020019603
-0.0019660608
-0.0042412959
-0.0066137829
-0.0091140057
-0.011859325
-0.0044385766
0.0039444755
0.0087197589
0.004287578
0.001770198
-0.00057658947
-0.0028223875
-0.004945763
-0.0068559643
-0.0082786069
-0.0029388488
0.0034163615
0.0077544005
0.0040402402
0.0016458661
-0.00067770201
-0.0029469981
-0.0051618702
-0.0073470094
-0.0096584244
-0.0036263154
0.0033009032
0.0074582084
0.0038275342
0.0014803382
-0.00083219756
-0.003125089
-0.0054061452
-0.0077098042
-0.010119517
-0.0037884163
0.0032514697
0.0072943567
0.0036505794
0.001308249
-0.0010056903
-0.0033145036
-0.005626855
-0.0079650746
-0.010365061
-0.0038619
0.0032180152
0.0071683485
0.0034899171
0.0011358171
-0.0011836334
-0.0034998229
-0.0058206609
-0.0081570177
-0.010520774
-0.0039036356
0.0031840613
0.0070387486
0.0033225911
0.00095681306
-0.0013641211
-0.0036798862
-0.0059978533
-0.0083199465
-0.010643182
-0.0039348012
0.0031349415
0.0068656471
0.0031224116
0.00076108315
-0.0015490161
-0.0038570961
-0.0061697829
-0.0084800848
-0.010767987
-0.0039676741
0.0030399898
0.0065783664
0.0028576063
0.0005422974
-0.0017351194
-0.0040290083
-0.0063429303
-0.0086609532
-0.010936696
-0.0040185711
0.0028075781
0.0060118072
0.0025043464
0.00031386961
-0.001903888
-0.0041801632
-0.0065107896
-0.0088824255
-0.011231668
-0.0041291467
0.0021201115
0.0047374561
0.0021509696
0.00014104058
-0.0020132399
-0.004276221
-0.0066364444
-0.0091246344
-0.011858566
-0.0044365031
0.0038755901
0.0085529221
0.0041770137
0.0016908639
-0.00062715647
-0.0028456863
-0.0049434283
-0.0068305588
-0.0082355941
-0.0029222139
0.003355048
0.0076016392
0.0039335331
0.0015683625
-0.00072695433
-0.0029688356
-0.0051571317
-0.0073162734
-0.0096006722
-0.0036023639
0.0032414015
0.0073101109
0.0037241018
0.001405185
-0.00087946067
-0.003144806
-0.0053986111