/*--------------------------------*- C++ -*----------------------------------*\
| =========                 |                                                 |
| \\      /  F ield         | OpenFOAM: The Open Source CFD Toolbox           |
|  \\    /   O peration     | Version:  v2106                                 |
|   \\  /    A nd           | Website:  www.openfoam.com                      |
|    \\/     M anipulation  |                                                 |
\*---------------------------------------------------------------------------*/
FoamFile
{
    version     2.0;
    format      ascii;
    arch        "LSB;label=32;scalar=64";
    class       volScalarField;
    location    "75";
    object      gradTz;
}
// * * * * * * * * * * * * * * * * * * * * * * * * * * * * * * * * * * * * * //

dimensions      [0 -1 0 1 0 0 0];

internalField   nonuniform List<scalar> 
4000
(
570.04786
570.04894
570.04947
570.04978
570.04992
570.04992
570.04979
570.04956
570.04925
570.04896
570.04894
570.0499
570.05039
570.05069
570.05083
570.05082
570.05068
570.05043
570.05009
570.0497
570.04947
570.05039
570.05086
570.05115
570.05128
570.05126
570.05111
570.05084
570.05047
570.05005
570.04978
570.05069
570.05115
570.05143
570.05154
570.05152
570.05135
570.05107
570.05068
570.05025
570.04992
570.05083
570.05128
570.05154
570.05165
570.05161
570.05144
570.05114
570.05075
570.0503
570.04992
570.05082
570.05126
570.05152
570.05161
570.05156
570.05138
570.05107
570.05067
570.05022
570.04979
570.05068
570.05111
570.05135
570.05144
570.05138
570.05119
570.05087
570.05046
570.05001
570.04956
570.05043
570.05084
570.05107
570.05114
570.05107
570.05087
570.05055
570.05013
570.04967
570.04925
570.05009
570.05047
570.05068
570.05075
570.05067
570.05046
570.05013
570.0497
570.04923
570.04896
570.0497
570.05005
570.05025
570.0503
570.05022
570.05001
570.04967
570.04923
570.04875
842.36405
842.36538
842.36608
842.36651
842.3667
842.36669
842.36649
842.36612
842.36562
842.36507
842.36538
842.36654
842.3672
842.36762
842.3678
842.36778
842.36757
842.36717
842.36662
842.36589
842.36608
842.3672
842.36783
842.36823
842.3684
842.36837
842.36813
842.36771
842.36712
842.36635
842.36651
842.36762
842.36823
842.36861
842.36876
842.36871
842.36846
842.36802
842.3674
842.36661
842.3667
842.3678
842.3684
842.36876
842.3689
842.36884
842.36857
842.36811
842.36748
842.36668
842.36669
842.36778
842.36837
842.36871
842.36884
842.36875
842.36847
842.368
842.36735
842.36654
842.36649
842.36757
842.36813
842.36846
842.36857
842.36847
842.36817
842.36769
842.36703
842.36622
842.36612
842.36717
842.36771
842.36802
842.36811
842.368
842.36769
842.36719
842.36652
842.3657
842.36562
842.36662
842.36712
842.3674
842.36748
842.36735
842.36703
842.36652
842.36584
842.36499
842.36507
842.36589
842.36635
842.36661
842.36668
842.36654
842.36622
842.3657
842.36499
842.3641
836.8687
836.86981
836.87042
836.8708
836.87096
836.87093
836.87071
836.87031
836.86976
836.86909
836.86981
836.87079
836.87137
836.87173
836.87189
836.87184
836.87161
836.87119
836.87058
836.86973
836.87042
836.87137
836.87192
836.87226
836.87241
836.87235
836.8721
836.87165
836.87101
836.87012
836.8708
836.87173
836.87226
836.8726
836.87272
836.87265
836.87238
836.87192
836.87125
836.87034
836.87096
836.87189
836.87241
836.87272
836.87284
836.87275
836.87246
836.87198
836.87129
836.87038
836.87093
836.87184
836.87235
836.87265
836.87275
836.87265
836.87235
836.87185
836.87115
836.87022
836.87071
836.87161
836.8721
836.87238
836.87246
836.87235
836.87203
836.87152
836.87081
836.86988
836.87031
836.87119
836.87165
836.87192
836.87198
836.87185
836.87152
836.871
836.87027
836.86933
836.86976
836.87058
836.87101
836.87125
836.87129
836.87115
836.87081
836.87027
836.86953
836.86856
836.86909
836.86973
836.87012
836.87034
836.87038
836.87022
836.86988
836.86933
836.86856
836.86752
831.46686
831.46788
831.46842
831.46875
831.46888
831.46882
831.46858
831.46816
831.46758
831.46689
831.46788
831.46877
831.46928
831.4696
831.46972
831.46965
831.4694
831.46896
831.46832
831.46745
831.46842
831.46928
831.46977
831.47007
831.47018
831.4701
831.46983
831.46936
831.46869
831.46778
831.46875
831.4696
831.47007
831.47036
831.47045
831.47036
831.47007
831.46958
831.46889
831.46796
831.46888
831.46972
831.47018
831.47045
831.47054
831.47043
831.47012
831.46962
831.46891
831.46797
831.46882
831.46965
831.4701
831.47036
831.47043
831.4703
831.46998
831.46947
831.46874
831.4678
831.46858
831.4694
831.46983
831.47007
831.47012
831.46998
831.46965
831.46912
831.46839
831.46743
831.46816
831.46896
831.46936
831.46958
831.46962
831.46947
831.46912
831.46858
831.46783
831.46686
831.46758
831.46832
831.46869
831.46889
831.46891
831.46874
831.46839
831.46783
831.46706
831.46607
831.46689
831.46745
831.46778
831.46796
831.46797
831.4678
831.46743
831.46686
831.46607
831.465
826.156
826.15695
826.15744
826.15773
826.15783
826.15775
826.1575
826.15707
826.15648
826.15579
826.15695
826.15779
826.15825
826.15852
826.15862
826.15853
826.15826
826.15781
826.15717
826.15631
826.15744
826.15825
826.15869
826.15895
826.15903
826.15893
826.15864
826.15817
826.15749
826.15659
826.15773
826.15852
826.15895
826.1592
826.15927
826.15915
826.15885
826.15835
826.15766
826.15674
826.15783
826.15862
826.15903
826.15927
826.15932
826.15919
826.15888
826.15836
826.15765
826.15673
826.15775
826.15853
826.15893
826.15915
826.15919
826.15905
826.15872
826.15819
826.15747
826.15653
826.1575
826.15826
826.15864
826.15885
826.15888
826.15872
826.15837
826.15783
826.1571
826.15616
826.15707
826.15781
826.15817
826.15835
826.15836
826.15819
826.15783
826.15728
826.15653
826.15558
826.15648
826.15717
826.15749
826.15766
826.15765
826.15747
826.1571
826.15653
826.15576
826.15478
826.15579
826.15631
826.15659
826.15674
826.15673
826.15653
826.15616
826.15558
826.15478
826.15373
820.93364
820.93453
820.93498
820.93523
820.93531
820.93521
820.93494
820.93451
820.93393
820.93325
820.93453
820.93531
820.93573
820.93597
820.93604
820.93593
820.93566
820.9352
820.93457
820.93373
820.93498
820.93573
820.93613
820.93636
820.93642
820.9363
820.936
820.93553
820.93486
820.93399
820.93523
820.93597
820.93636
820.93657
820.93662
820.93649
820.93618
820.93568
820.935
820.93411
820.93531
820.93604
820.93642
820.93662
820.93665
820.93651
820.93618
820.93567
820.93497
820.93407
820.93521
820.93593
820.9363
820.93649
820.93651
820.93635
820.93601
820.93549
820.93477
820.93387
820.93494
820.93566
820.936
820.93618
820.93618
820.93601
820.93566
820.93512
820.9344
820.93348
820.93451
820.9352
820.93553
820.93568
820.93567
820.93549
820.93512
820.93457
820.93384
820.93291
820.93393
820.93457
820.93486
820.935
820.93497
820.93477
820.9344
820.93384
820.93308
820.93212
820.93325
820.93373
820.93399
820.93411
820.93407
820.93387
820.93348
820.93291
820.93212
820.9311
815.79742
815.79826
815.79866
815.79888
815.79894
815.79883
815.79856
815.79813
815.79757
815.79691
815.79826
815.79898
815.79936
815.79958
815.79962
815.79951
815.79922
815.79878
815.79816
815.79736
815.79866
815.79936
815.79973
815.79993
815.79996
815.79983
815.79954
815.79907
815.79842
815.79758
815.79888
815.79958
815.79993
815.80011
815.80014
815.8
815.79969
815.7992
815.79854
815.79768
815.79894
815.79962
815.79996
815.80014
815.80015
815.8
815.79967
815.79917
815.79849
815.79763
815.79883
815.79951
815.79983
815.8
815.8
815.79983
815.79949
815.79898
815.79829
815.79742
815.79856
815.79922
815.79954
815.79969
815.79967
815.79949
815.79914
815.79862
815.79791
815.79703
815.79813
815.79878
815.79907
815.7992
815.79917
815.79898
815.79862
815.79808
815.79736
815.79647
815.79757
815.79816
815.79842
815.79854
815.79849
815.79829
815.79791
815.79736
815.79663
815.79571
815.79691
815.79736
815.79758
815.79768
815.79763
815.79742
815.79703
815.79647
815.79571
815.79473
810.74516
810.74594
810.74631
810.7465
810.74654
810.74642
810.74615
810.74574
810.7452
810.74457
810.74594
810.74661
810.74696
810.74714
810.74717
810.74705
810.74677
810.74633
810.74574
810.74498
810.74631
810.74696
810.74729
810.74746
810.74748
810.74734
810.74705
810.7466
810.74598
810.74518
810.7465
810.74714
810.74746
810.74762
810.74763
810.74748
810.74718
810.74671
810.74607
810.74525
810.74654
810.74717
810.74748
810.74763
810.74763
810.74747
810.74715
810.74667
810.74601
810.74519
810.74642
810.74705
810.74734
810.74748
810.74747
810.7473
810.74696
810.74647
810.74581
810.74498
810.74615
810.74677
810.74705
810.74718
810.74715
810.74696
810.74662
810.74611
810.74544
810.7446
810.74574
810.74633
810.7466
810.74671
810.74667
810.74647
810.74611
810.74559
810.74491
810.74406
810.7452
810.74574
810.74598
810.74607
810.74601
810.74581
810.74544
810.74491
810.74421
810.74333
810.74457
810.74498
810.74518
810.74525
810.74519
810.74498
810.7446
810.74406
810.74333
810.7424
805.77484
805.77555
805.77588
805.77605
805.77607
805.77595
805.77569
805.77529
805.77477
805.77419
805.77555
805.77616
805.77648
805.77664
805.77665
805.77652
805.77625
805.77583
805.77528
805.77455
805.77588
805.77648
805.77677
805.77692
805.77693
805.77679
805.7765
805.77607
805.77548
805.77473
805.77605
805.77664
805.77692
805.77706
805.77706
805.77691
805.77661
805.77616
805.77555
805.77479
805.77607
805.77665
805.77693
805.77706
805.77704
805.77688
805.77657
805.77611
805.77549
805.77472
805.77595
805.77652
805.77679
805.77691
805.77688
805.7767
805.77638
805.77591
805.77528
805.7745
805.77569
805.77625
805.7765
805.77661
805.77657
805.77638
805.77605
805.77557
805.77493
805.77414
805.77529
805.77583
805.77607
805.77616
805.77611
805.77591
805.77557
805.77507
805.77442
805.77363
805.77477
805.77528
805.77548
805.77555
805.77549
805.77528
805.77493
805.77442
805.77376
805.77294
805.77419
805.77455
805.77473
805.77479
805.77472
805.7745
805.77414
805.77363
805.77294
805.77206
800.88455
800.88519
800.88549
800.88563
800.88564
800.88552
800.88526
800.88489
800.8844
800.88386
800.88519
800.88575
800.88602
800.88616
800.88617
800.88604
800.88577
800.88538
800.88486
800.88419
800.88549
800.88602
800.88629
800.88641
800.88641
800.88627
800.886
800.88559
800.88504
800.88434
800.88563
800.88616
800.88641
800.88653
800.88652
800.88637
800.88608
800.88566
800.88509
800.88438
800.88564
800.88617
800.88641
800.88652
800.88649
800.88633
800.88603
800.8856
800.88502
800.8843
800.88552
800.88604
800.88627
800.88637
800.88633
800.88616
800.88585
800.88541
800.88482
800.8841
800.88526
800.88577
800.886
800.88608
800.88603
800.88585
800.88554
800.88508
800.88449
800.88375
800.88489
800.88538
800.88559
800.88566
800.8856
800.88541
800.88508
800.88461
800.88401
800.88327
800.8844
800.88486
800.88504
800.88509
800.88502
800.88482
800.88449
800.88401
800.88339
800.88262
800.88386
800.88419
800.88434
800.88438
800.8843
800.8841
800.88375
800.88327
800.88262
800.8818
796.07253
796.07311
796.07337
796.07349
796.07349
796.07336
796.07312
796.07277
796.07233
796.07182
796.07311
796.07361
796.07385
796.07396
796.07395
796.07383
796.07358
796.07321
796.07273
796.07211
796.07337
796.07385
796.07408
796.07418
796.07417
796.07403
796.07377
796.07339
796.07288
796.07224
796.07349
796.07396
796.07418
796.07428
796.07425
796.07411
796.07384
796.07344
796.07292
796.07227
796.07349
796.07395
796.07417
796.07425
796.07422
796.07406
796.07378
796.07338
796.07285
796.07219
796.07336
796.07383
796.07403
796.07411
796.07406
796.0739
796.07361
796.0732
796.07266
796.07199
796.07312
796.07358
796.07377
796.07384
796.07378
796.07361
796.07331
796.07289
796.07234
796.07167
796.07277
796.07321
796.07339
796.07344
796.07338
796.0732
796.07289
796.07245
796.0719
796.07121
796.07233
796.07273
796.07288
796.07292
796.07285
796.07266
796.07234
796.0719
796.07132
796.07062
796.07182
796.07211
796.07224
796.07227
796.07219
796.07199
796.07167
796.07121
796.07062
796.06987
791.33716
791.33767
791.33789
791.33799
791.33797
791.33785
791.33763
791.33731
791.3369
791.33644
791.33767
791.3381
791.33831
791.3384
791.33838
791.33826
791.33803
791.33769
791.33725
791.33669
791.33789
791.33831
791.3385
791.33859
791.33856
791.33843
791.33819
791.33784
791.33738
791.33679
791.33799
791.3384
791.33859
791.33866
791.33863
791.33849
791.33824
791.33788
791.3374
791.33681
791.33797
791.33838
791.33856
791.33863
791.33859
791.33844
791.33818
791.33781
791.33733
791.33673
791.33785
791.33826
791.33843
791.33849
791.33844
791.33828
791.33802
791.33764
791.33714
791.33654
791.33763
791.33803
791.33819
791.33824
791.33818
791.33802
791.33774
791.33735
791.33685
791.33624
791.33731
791.33769
791.33784
791.33788
791.33781
791.33764
791.33735
791.33695
791.33644
791.33583
791.3369
791.33725
791.33738
791.3374
791.33733
791.33714
791.33685
791.33644
791.33592
791.33529
791.33644
791.33669
791.33679
791.33681
791.33673
791.33654
791.33624
791.33583
791.33529
791.3346
786.6769
786.67734
786.67752
786.6776
786.67758
786.67746
786.67725
786.67696
786.67659
786.67618
786.67734
786.67771
786.67788
786.67795
786.67793
786.67781
786.67759
786.67729
786.67689
786.67639
786.67752
786.67788
786.67804
786.6781
786.67807
786.67795
786.67773
786.67741
786.67699
786.67647
786.6776
786.67795
786.6781
786.67816
786.67812
786.67799
786.67776
786.67743
786.67701
786.67648
786.67758
786.67793
786.67807
786.67812
786.67808
786.67794
786.6777
786.67736
786.67693
786.6764
786.67746
786.67781
786.67795
786.67799
786.67794
786.67779
786.67754
786.6772
786.67676
786.67622
786.67725
786.67759
786.67773
786.67776
786.6777
786.67754
786.67729
786.67694
786.67649
786.67595
786.67696
786.67729
786.67741
786.67743
786.67736
786.6772
786.67694
786.67658
786.67613
786.67558
786.67659
786.67689
786.67699
786.67701
786.67693
786.67676
786.67649
786.67613
786.67566
786.67509
786.67618
786.67639
786.67647
786.67648
786.6764
786.67622
786.67595
786.67558
786.67509
786.67448
782.09034
782.0907
782.09085
782.0909
782.09087
782.09076
782.09058
782.09032
782.08999
782.08963
782.0907
782.09101
782.09114
782.09119
782.09116
782.09105
782.09086
782.09059
782.09024
782.0898
782.09085
782.09114
782.09127
782.09131
782.09128
782.09116
782.09096
782.09068
782.09031
782.08986
782.0909
782.09119
782.09131
782.09135
782.09131
782.09118
782.09098
782.09069
782.09031
782.08985
782.09087
782.09116
782.09128
782.09131
782.09126
782.09113
782.09092
782.09062
782.09024
782.08977
782.09076
782.09105
782.09116
782.09118
782.09113
782.09099
782.09077
782.09047
782.09008
782.08961
782.09058
782.09086
782.09096
782.09098
782.09092
782.09077
782.09055
782.09024
782.08984
782.08937
782.09032
782.09059
782.09068
782.09069
782.09062
782.09047
782.09024
782.08992
782.08952
782.08904
782.08999
782.09024
782.09031
782.09031
782.09024
782.09008
782.08984
782.08952
782.08911
782.08862
782.08963
782.0898
782.08986
782.08985
782.08977
782.08961
782.08937
782.08904
782.08862
782.08808
777.57615
777.57643
777.57654
777.57657
777.57654
777.57644
777.57627
777.57604
777.57577
777.57546
777.57643
777.57667
777.57677
777.5768
777.57676
777.57666
777.57649
777.57625
777.57595
777.57558
777.57654
777.57677
777.57686
777.57689
777.57685
777.57674
777.57656
777.57632
777.57601
777.57562
777.57657
777.5768
777.57689
777.57691
777.57686
777.57675
777.57656
777.57631
777.57599
777.5756
777.57654
777.57676
777.57685
777.57686
777.57681
777.57669
777.5765
777.57624
777.57592
777.57552
777.57644
777.57666
777.57674
777.57675
777.57669
777.57656
777.57637
777.57611
777.57578
777.57538
777.57627
777.57649
777.57656
777.57656
777.5765
777.57637
777.57617
777.5759
777.57557
777.57517
777.57604
777.57625
777.57632
777.57631
777.57624
777.57611
777.5759
777.57563
777.57529
777.57488
777.57577
777.57595
777.57601
777.57599
777.57592
777.57578
777.57557
777.57529
777.57494
777.57452
777.57546
777.57558
777.57562
777.5756
777.57552
777.57538
777.57517
777.57488
777.57452
777.57407
773.13307
773.13328
773.13335
773.13336
773.13332
773.13323
773.13308
773.13289
773.13266
773.13241
773.13328
773.13346
773.13352
773.13353
773.13348
773.13339
773.13324
773.13304
773.1328
773.13249
773.13335
773.13352
773.13358
773.13358
773.13354
773.13344
773.13329
773.13308
773.13282
773.13251
773.13336
773.13353
773.13358
773.13359
773.13353
773.13343
773.13327
773.13306
773.1328
773.13248
773.13332
773.13348
773.13354
773.13353
773.13348
773.13337
773.13321
773.133
773.13273
773.1324
773.13323
773.13339
773.13344
773.13343
773.13337
773.13326
773.13309
773.13288
773.1326
773.13228
773.13308
773.13324
773.13329
773.13327
773.13321
773.13309
773.13292
773.1327
773.13243
773.1321
773.13289
773.13304
773.13308
773.13306
773.133
773.13288
773.1327
773.13247
773.13219
773.13186
773.13266
773.1328
773.13282
773.1328
773.13273
773.1326
773.13243
773.13219
773.1319
773.13156
773.13241
773.13249
773.13251
773.13248
773.1324
773.13228
773.1321
773.13186
773.13156
773.13119
768.75995
768.76008
768.76011
768.7601
768.76006
768.75997
768.75985
768.7597
768.75951
768.75931
768.76008
768.76019
768.76022
768.76021
768.76016
768.76007
768.75995
768.75979
768.75959
768.75936
768.76011
768.76022
768.76024
768.76023
768.76018
768.76009
768.75996
768.7598
768.75959
768.75935
768.7601
768.76021
768.76023
768.76021
768.76016
768.76007
768.75994
768.75977
768.75956
768.75931
768.76006
768.76016
768.76018
768.76016
768.7601
768.76001
768.75987
768.7597
768.75949
768.75924
768.75997
768.76007
768.76009
768.76007
768.76001
768.75991
768.75977
768.7596
768.75938
768.75913
768.75985
768.75995
768.75996
768.75994
768.75987
768.75977
768.75963
768.75946
768.75924
768.75898
768.7597
768.75979
768.7598
768.75977
768.7597
768.7596
768.75946
768.75927
768.75905
768.7588
768.75951
768.75959
768.75959
768.75956
768.75949
768.75938
768.75924
768.75905
768.75883
768.75856
768.75931
768.75936
768.75935
768.75931
768.75924
768.75913
768.75898
768.7588
768.75856
768.75827
764.45567
764.45572
764.45572
764.45569
764.45564
764.45556
764.45547
764.45535
764.45521
764.45507
764.45572
764.45576
764.45576
764.45573
764.45568
764.4556
764.4555
764.45538
764.45524
764.45507
764.45572
764.45576
764.45575
764.45572
764.45567
764.45559
764.45549
764.45536
764.45522
764.45504
764.45569
764.45573
764.45572
764.45569
764.45563
764.45555
764.45545
764.45532
764.45517
764.455
764.45564
764.45568
764.45567
764.45563
764.45557
764.45549
764.45539
764.45526
764.45511
764.45493
764.45556
764.4556
764.45559
764.45555
764.45549
764.45541
764.4553
764.45517
764.45502
764.45484
764.45547
764.4555
764.45549
764.45545
764.45539
764.4553
764.45519
764.45506
764.45491
764.45473
764.45535
764.45538
764.45536
764.45532
764.45526
764.45517
764.45506
764.45493
764.45477
764.45459
764.45521
764.45524
764.45522
764.45517
764.45511
764.45502
764.45491
764.45477
764.4546
764.45442
764.45507
764.45507
764.45504
764.455
764.45493
764.45484
764.45473
764.45459
764.45442
764.45421
760.21919
760.21917
760.21913
760.21908
760.21902
760.21896
760.21888
760.2188
760.21872
760.21863
760.21917
760.21914
760.2191
760.21905
760.219
760.21893
760.21886
760.21878
760.21869
760.21859
760.21913
760.2191
760.21906
760.21901
760.21895
760.21889
760.21882
760.21873
760.21864
760.21854
760.21908
760.21905
760.21901
760.21896
760.21891
760.21884
760.21876
760.21868
760.21859
760.21849
760.21902
760.219
760.21895
760.21891
760.21885
760.21878
760.21871
760.21862
760.21853
760.21843
760.21896
760.21893
760.21889
760.21884
760.21878
760.21871
760.21864
760.21855
760.21846
760.21836
760.21888
760.21886
760.21882
760.21876
760.21871
760.21864
760.21856
760.21847
760.21838
760.21828
760.2188
760.21878
760.21873
760.21868
760.21862
760.21855
760.21847
760.21839
760.21829
760.21818
760.21872
760.21869
760.21864
760.21859
760.21853
760.21846
760.21838
760.21829
760.21819
760.21808
760.21863
760.21859
760.21854
760.21849
760.21843
760.21836
760.21828
760.21818
760.21808
760.21796
756.04951
756.04941
756.04933
756.04927
756.04921
756.04915
756.04911
756.04906
756.04903
756.04899
756.04941
756.04932
756.04925
756.04918
756.04912
756.04907
756.04902
756.04898
756.04894
756.04891
756.04933
756.04925
756.04918
756.04911
756.04905
756.049
756.04895
756.04891
756.04888
756.04885
756.04927
756.04918
756.04911
756.04905
756.04899
756.04893
756.04889
756.04885
756.04881
756.04879
756.04921
756.04912
756.04905
756.04899
756.04893
756.04888
756.04883
756.04879
756.04876
756.04873
756.04915
756.04907
756.049
756.04893
756.04888
756.04883
756.04878
756.04874
756.04871
756.04868
756.04911
756.04902
756.04895
756.04889
756.04883
756.04878
756.04873
756.04869
756.04866
756.04863
756.04906
756.04898
756.04891
756.04885
756.04879
756.04874
756.04869
756.04865
756.04862
756.04859
756.04903
756.04894
756.04888
756.04881
756.04876
756.04871
756.04866
756.04862
756.04858
756.04855
756.04899
756.04891
756.04885
756.04879
756.04873
756.04868
756.04863
756.04859
756.04855
756.04852
751.94567
751.9455
751.94539
751.94531
751.94525
751.9452
751.94518
751.94518
751.94519
751.94521
751.9455
751.94535
751.94525
751.94516
751.9451
751.94506
751.94504
751.94504
751.94505
751.94509
751.94539
751.94525
751.94514
751.94506
751.945
751.94496
751.94494
751.94494
751.94496
751.94501
751.94531
751.94516
751.94506
751.94498
751.94492
751.94489
751.94487
751.94487
751.94489
751.94494
751.94525
751.9451
751.945
751.94492
751.94487
751.94483
751.94481
751.94482
751.94484
751.94489
751.9452
751.94506
751.94496
751.94489
751.94483
751.94479
751.94478
751.94478
751.94481
751.94486
751.94518
751.94504
751.94494
751.94487
751.94481
751.94478
751.94477
751.94477
751.9448
751.94484
751.94518
751.94504
751.94494
751.94487
751.94482
751.94478
751.94477
751.94478
751.94481
751.94485
751.94519
751.94505
751.94496
751.94489
751.94484
751.94481
751.9448
751.94481
751.94483
751.94488
751.94521
751.94509
751.94501
751.94494
751.94489
751.94486
751.94484
751.94485
751.94488
751.94493
747.90677
747.90653
747.90639
747.90629
747.90622
747.90619
747.90619
747.90622
747.90628
747.90636
747.90653
747.90632
747.90618
747.90608
747.90602
747.90599
747.90599
747.90603
747.9061
747.9062
747.90639
747.90618
747.90605
747.90595
747.90589
747.90586
747.90587
747.90591
747.90599
747.9061
747.90629
747.90608
747.90595
747.90586
747.9058
747.90578
747.90579
747.90583
747.90591
747.90603
747.90622
747.90602
747.90589
747.9058
747.90574
747.90572
747.90573
747.90578
747.90586
747.90598
747.90619
747.90599
747.90586
747.90578
747.90572
747.9057
747.90572
747.90577
747.90585
747.90597
747.90619
747.90599
747.90587
747.90579
747.90573
747.90572
747.90574
747.90579
747.90587
747.90599
747.90622
747.90603
747.90591
747.90583
747.90578
747.90577
747.90579
747.90584
747.90593
747.90605
747.90628
747.9061
747.90599
747.90591
747.90586
747.90585
747.90587
747.90593
747.90602
747.90614
747.90636
747.9062
747.9061
747.90603
747.90598
747.90597
747.90599
747.90605
747.90614
747.90627
743.93191
743.9316
743.93143
743.93131
743.93124
743.93122
743.93125
743.93132
743.93143
743.93156
743.9316
743.93133
743.93116
743.93105
743.93098
743.93096
743.931
743.93107
743.93119
743.93136
743.93143
743.93116
743.931
743.93089
743.93083
743.93082
743.93085
743.93093
743.93106
743.93124
743.93131
743.93105
743.93089
743.93078
743.93073
743.93072
743.93075
743.93084
743.93098
743.93116
743.93124
743.93098
743.93083
743.93073
743.93067
743.93067
743.93071
743.9308
743.93094
743.93113
743.93122
743.93096
743.93082
743.93072
743.93067
743.93066
743.93071
743.9308
743.93095
743.93114
743.93125
743.931
743.93085
743.93075
743.93071
743.93071
743.93076
743.93086
743.931
743.93119
743.93132
743.93107
743.93093
743.93084
743.9308
743.9308
743.93086
743.93096
743.9311
743.9313
743.93143
743.93119
743.93106
743.93098
743.93094
743.93095
743.931
743.9311
743.93125
743.93145
743.93156
743.93136
743.93124
743.93116
743.93113
743.93114
743.93119
743.9313
743.93145
743.93166
740.02023
740.01985
740.01965
740.01951
740.01945
740.01944
740.01949
740.0196
740.01975
740.01993
740.01985
740.01952
740.01933
740.0192
740.01913
740.01913
740.01918
740.0193
740.01947
740.0197
740.01965
740.01933
740.01914
740.01902
740.01895
740.01895
740.01902
740.01914
740.01932
740.01957
740.01951
740.0192
740.01902
740.0189
740.01884
740.01885
740.01891
740.01904
740.01923
740.01948
740.01945
740.01913
740.01895
740.01884
740.01879
740.0188
740.01887
740.019
740.0192
740.01945
740.01944
740.01913
740.01895
740.01885
740.0188
740.01881
740.01889
740.01902
740.01922
740.01948
740.01949
740.01918
740.01902
740.01891
740.01887
740.01889
740.01897
740.01911
740.01931
740.01957
740.0196
740.0193
740.01914
740.01904
740.019
740.01902
740.01911
740.01925
740.01946
740.01972
740.01975
740.01947
740.01932
740.01923
740.0192
740.01922
740.01931
740.01946
740.01967
740.01994
740.01993
740.0197
740.01957
740.01948
740.01945
740.01948
740.01957
740.01972
740.01994
740.02023
736.17088
736.17044
736.1702
736.17006
736.16999
736.16999
736.17007
736.17021
736.17041
736.17064
736.17044
736.17005
736.16983
736.16969
736.16962
736.16963
736.16971
736.16986
736.17008
736.17038
736.1702
736.16983
736.16962
736.16948
736.16942
736.16943
736.16952
736.16968
736.16991
736.17023
736.17006
736.16969
736.16948
736.16935
736.1693
736.16932
736.16941
736.16958
736.16982
736.17014
736.16999
736.16962
736.16942
736.1693
736.16925
736.16927
736.16937
736.16954
736.16979
736.17012
736.16999
736.16963
736.16943
736.16932
736.16927
736.1693
736.16941
736.16959
736.16984
736.17017
736.17007
736.16971
736.16952
736.16941
736.16937
736.16941
736.16952
736.1697
736.16996
736.17029
736.17021
736.16986
736.16968
736.16958
736.16954
736.16959
736.1697
736.16989
736.17015
736.17049
736.17041
736.17008
736.16991
736.16982
736.16979
736.16984
736.16996
736.17015
736.17042
736.17076
736.17064
736.17038
736.17023
736.17014
736.17012
736.17017
736.17029
736.17049
736.17076
736.17113
732.38302
732.38252
732.38226
732.3821
732.38203
732.38204
732.38214
732.38232
732.38256
732.38284
732.38252
732.38208
732.38183
732.38168
732.38161
732.38164
732.38174
732.38193
732.38219
732.38255
732.38226
732.38183
732.3816
732.38145
732.38139
732.38142
732.38153
732.38173
732.38201
732.38239
732.3821
732.38168
732.38145
732.38131
732.38126
732.38129
732.38141
732.38162
732.38191
732.38229
732.38203
732.38161
732.38139
732.38126
732.38121
732.38125
732.38138
732.38159
732.38189
732.38228
732.38204
732.38164
732.38142
732.38129
732.38125
732.3813
732.38143
732.38165
732.38196
732.38235
732.38214
732.38174
732.38153
732.38141
732.38138
732.38143
732.38157
732.3818
732.38211
732.3825
732.38232
732.38193
732.38173
732.38162
732.38159
732.38165
732.3818
732.38203
732.38235
732.38275
732.38256
732.38219
732.38201
732.38191
732.38189
732.38196
732.38211
732.38235
732.38267
732.38308
732.38284
732.38255
732.38239
732.38229
732.38228
732.38235
732.3825
732.38275
732.38308
732.38352
728.65582
728.65526
728.65498
728.65481
728.65474
728.65477
728.65489
728.6551
728.65539
728.65571
728.65526
728.65478
728.65451
728.65435
728.65428
728.65432
728.65445
728.65467
728.65498
728.65539
728.65498
728.65451
728.65425
728.6541
728.65404
728.65408
728.65422
728.65445
728.65478
728.65522
728.65481
728.65435
728.6541
728.65395
728.6539
728.65395
728.65409
728.65434
728.65468
728.65512
728.65474
728.65428
728.65404
728.6539
728.65386
728.65391
728.65407
728.65432
728.65467
728.65512
728.65477
728.65432
728.65408
728.65395
728.65391
728.65398
728.65414
728.6544
728.65475
728.65521
728.65489
728.65445
728.65422
728.65409
728.65407
728.65414
728.65431
728.65457
728.65493
728.65539
728.6551
728.65467
728.65445
728.65434
728.65432
728.6544
728.65457
728.65484
728.65521
728.65568
728.65539
728.65498
728.65478
728.65468
728.65467
728.65475
728.65493
728.65521
728.65559
728.65607
728.65571
728.65539
728.65522
728.65512
728.65512
728.65521
728.65539
728.65568
728.65607
728.65657
724.98846
724.98786
724.98755
724.98737
724.9873
724.98734
724.98749
724.98773
724.98805
724.98843
724.98786
724.98733
724.98704
724.98686
724.9868
724.98685
724.987
724.98726
724.98761
724.98808
724.98755
724.98704
724.98676
724.9866
724.98654
724.9866
724.98676
724.98703
724.9874
724.98789
724.98737
724.98686
724.9866
724.98644
724.98639
724.98646
724.98663
724.98691
724.9873
724.9878
724.9873
724.9868
724.98654
724.98639
724.98636
724.98643
724.98661
724.9869
724.98729
724.9878
724.98734
724.98685
724.9866
724.98646
724.98643
724.98651
724.9867
724.98699
724.9874
724.98791
724.98749
724.987
724.98676
724.98663
724.98661
724.9867
724.98689
724.9872
724.98761
724.98812
724.98773
724.98726
724.98703
724.98691
724.9869
724.98699
724.9872
724.98751
724.98793
724.98845
724.98805
724.98761
724.9874
724.9873
724.98729
724.9874
724.98761
724.98793
724.98836
724.98889
724.98843
724.98808
724.98789
724.9878
724.9878
724.98791
724.98812
724.98845
724.98889
724.98946
721.38012
721.37946
721.37913
721.37895
721.37888
721.37894
721.37911
721.37938
721.37974
721.38015
721.37946
721.37889
721.37858
721.3784
721.37835
721.37841
721.37858
721.37887
721.37926
721.37978
721.37913
721.37858
721.37829
721.37812
721.37807
721.37814
721.37832
721.37862
721.37904
721.37959
721.37895
721.3784
721.37812
721.37796
721.37792
721.37799
721.37819
721.3785
721.37893
721.37949
721.37888
721.37835
721.37807
721.37792
721.37788
721.37797
721.37818
721.3785
721.37894
721.3795
721.37894
721.37841
721.37814
721.37799
721.37797
721.37807
721.37828
721.37861
721.37906
721.37963
721.37911
721.37858
721.37832
721.37819
721.37818
721.37828
721.3785
721.37884
721.3793
721.37987
721.37938
721.37887
721.37862
721.3785
721.3785
721.37861
721.37884
721.37919
721.37966
721.38024
721.37974
721.37926
721.37904
721.37893
721.37894
721.37906
721.3793
721.37966
721.38014
721.38073
721.38015
721.37978
721.37959
721.37949
721.3795
721.37963
721.37987
721.38024
721.38073
721.38137
717.82995
717.82925
717.8289
717.82871
717.82865
717.82872
717.82891
717.82921
717.82961
717.83006
717.82925
717.82864
717.82832
717.82813
717.82808
717.82815
717.82835
717.82867
717.8291
717.82967
717.8289
717.82832
717.82801
717.82784
717.82779
717.82787
717.82808
717.82841
717.82887
717.82946
717.82871
717.82813
717.82784
717.82767
717.82763
717.82773
717.82795
717.82829
717.82877
717.82937
717.82865
717.82808