/*--------------------------------*- C++ -*----------------------------------*\
| =========                 |                                                 |
| \\      /  F ield         | OpenFOAM: The Open Source CFD Toolbox           |
|  \\    /   O peration     | Version:  v2106                                 |
|   \\  /    A nd           | Website:  www.openfoam.com                      |
|    \\/     M anipulation  |                                                 |
\*---------------------------------------------------------------------------*/
FoamFile
{
    version     2.0;
    format      ascii;
    arch        "LSB;label=32;scalar=64";
    class       volScalarField;
    location    "75";
    object      laplacianT;
}
// * * * * * * * * * * * * * * * * * * * * * * * * * * * * * * * * * * * * * //

dimensions      [0 -2 0 1 0 0 0];

internalField   nonuniform List<scalar> 
4000
(
41263.222
41263.21
41263.257
41263.28
41263.29
41263.291
41263.281
41263.265
41263.243
41263.224
41263.21
41263.205
41263.25
41263.271
41263.282
41263.281
41263.271
41263.254
41263.23
41263.21
41263.257
41263.25
41263.292
41263.313
41263.323
41263.321
41263.311
41263.292
41263.266
41263.245
41263.28
41263.271
41263.313
41263.333
41263.342
41263.34
41263.328
41263.308
41263.282
41263.259
41263.29
41263.282
41263.323
41263.342
41263.35
41263.347
41263.335
41263.314
41263.286
41263.263
41263.291
41263.281
41263.321
41263.34
41263.347
41263.343
41263.33
41263.309
41263.281
41263.257
41263.281
41263.271
41263.311
41263.328
41263.335
41263.33
41263.317
41263.295
41263.266
41263.242
41263.265
41263.254
41263.292
41263.308
41263.314
41263.309
41263.295
41263.272
41263.242
41263.218
41263.243
41263.23
41263.266
41263.282
41263.286
41263.281
41263.266
41263.242
41263.212
41263.188
41263.224
41263.21
41263.245
41263.259
41263.263
41263.257
41263.242
41263.218
41263.188
41263.163
-553.88885
-554.23361
-554.18958
-554.18936
-554.18978
-554.18979
-554.18941
-554.18869
-554.18771
-554.17373
-554.23361
-554.48775
-554.45142
-554.45159
-554.45202
-554.452
-554.45155
-554.45072
-554.44956
-554.36565
-554.18958
-554.45142
-554.41584
-554.416
-554.41639
-554.41634
-554.41586
-554.41499
-554.41375
-554.33462
-554.18936
-554.45159
-554.416
-554.41613
-554.41648
-554.4164
-554.41588
-554.41496
-554.41366
-554.33434
-554.18978
-554.45202
-554.41639
-554.41648
-554.41681
-554.41669
-554.41613
-554.41517
-554.41384
-554.33448
-554.18979
-554.452
-554.41634
-554.4164
-554.41669
-554.41653
-554.41594
-554.41495
-554.4136
-554.33421
-554.18941
-554.45155
-554.41586
-554.41588
-554.41613
-554.41594
-554.41532
-554.4143
-554.41292
-554.33353
-554.18869
-554.45072
-554.41499
-554.41496
-554.41517
-554.41495
-554.4143
-554.41325
-554.41185
-554.33245
-554.18771
-554.44956
-554.41375
-554.41366
-554.41384
-554.4136
-554.41292
-554.41185
-554.41041
-554.33099
-554.17373
-554.36565
-554.33462
-554.33434
-554.33448
-554.33421
-554.33353
-554.33245
-554.33099
-554.24865
-544.17445
-544.68822
-544.61585
-544.61502
-544.6155
-544.61548
-544.61495
-544.61397
-544.61261
-544.52466
-544.68822
-545.06167
-545.00242
-545.00228
-545.00277
-545.0027
-545.00207
-545.00093
-544.9993
-544.78124
-544.61586
-545.00242
-544.94452
-544.94438
-544.94483
-544.94472
-544.94406
-544.94285
-544.94113
-544.73422
-544.61502
-545.00228
-544.94438
-544.9442
-544.9446
-544.94445
-544.94373
-544.94247
-544.94067
-544.73353
-544.6155
-545.00277
-544.94483
-544.9446
-544.94496
-544.94476
-544.944
-544.94269
-544.94085
-544.73364
-544.61548
-545.0027
-544.94472
-544.94445
-544.94476
-544.94452
-544.94371
-544.94236
-544.94048
-544.73325
-544.61495
-545.00207
-544.94406
-544.94373
-544.944
-544.94371
-544.94287
-544.94148
-544.93957
-544.73233
-544.61397
-545.00093
-544.94285
-544.94247
-544.94269
-544.94236
-544.94148
-544.94005
-544.9381
-544.73088
-544.61261
-544.9993
-544.94113
-544.94067
-544.94085
-544.94048
-544.93957
-544.9381
-544.93611
-544.7289
-544.52466
-544.78124
-544.73422
-544.73353
-544.73364
-544.73325
-544.73233
-544.73088
-544.7289
-544.49022
-534.73822
-535.41383
-535.31519
-535.31379
-535.31431
-535.31424
-535.31355
-535.3123
-535.31057
-535.15463
-535.41383
-535.9034
-535.82274
-535.82229
-535.82283
-535.82268
-535.82186
-535.8204
-535.81832
-535.47239
-535.31519
-535.82274
-535.74394
-535.74351
-535.744
-535.74381
-535.74294
-535.74141
-535.73921
-535.4109
-535.31379
-535.82229
-535.74351
-535.74303
-535.74346
-535.74322
-535.7423
-535.74069
-535.73841
-535.40985
-535.31431
-535.82283
-535.744
-535.74346
-535.74384
-535.74354
-535.74256
-535.7409
-535.73856
-535.40991
-535.31424
-535.82268
-535.74381
-535.74322
-535.74354
-535.7432
-535.74216
-535.74045
-535.73806
-535.40939
-535.31355
-535.82186
-535.74294
-535.7423
-535.74256
-535.74216
-535.74107
-535.73931
-535.73689
-535.40822
-535.3123
-535.8204
-535.74141
-535.74069
-535.7409
-535.74045
-535.73931
-535.7375
-535.73503
-535.4064
-535.31057
-535.81832
-535.73921
-535.73841
-535.73856
-535.73806
-535.73689
-535.73503
-535.7325
-535.4039
-535.15463
-535.47239
-535.4109
-535.40985
-535.40991
-535.40939
-535.40822
-535.4064
-535.4039
-535.01763
-525.57135
-526.40364
-526.27969
-526.27774
-526.27828
-526.27815
-526.2773
-526.27579
-526.2737
-526.05167
-526.40364
-527.00554
-526.90422
-526.90347
-526.90402
-526.90379
-526.90278
-526.901
-526.89849
-526.4284
-526.27969
-526.90422
-526.80525
-526.80453
-526.80503
-526.80476
-526.80369
-526.80183
-526.79918
-526.35304
-526.27774
-526.90347
-526.80453
-526.80375
-526.80418
-526.80385
-526.80271
-526.80077
-526.79802
-526.35163
-526.27828
-526.90402
-526.80503
-526.80418
-526.80456
-526.80416
-526.80295
-526.80094
-526.79813
-526.35164
-526.27815
-526.90379
-526.80476
-526.80385
-526.80416
-526.8037
-526.80243
-526.80036
-526.7975
-526.35097
-526.2773
-526.90278
-526.80369
-526.80271
-526.80295
-526.80243
-526.8011
-526.79898
-526.79606
-526.34956
-526.27579
-526.901
-526.80183
-526.80077
-526.80094
-526.80036
-526.79898
-526.7968
-526.79383
-526.34738
-526.2737
-526.89849
-526.79918
-526.79802
-526.79813
-526.7975
-526.79606
-526.79383
-526.79079
-526.3444
-526.05167
-526.4284
-526.35304
-526.35163
-526.35164
-526.35097
-526.34956
-526.34738
-526.3444
-525.81551
-516.65877
-517.64093
-517.49265
-517.49016
-517.49071
-517.49051
-517.4895
-517.48773
-517.48531
-517.19931
-517.64093
-518.35011
-518.22892
-518.22786
-518.22842
-518.22811
-518.22689
-518.22481
-518.22189
-517.63202
-517.49265
-518.22892
-518.11057
-518.10955
-518.11005
-518.10968
-518.10841
-518.10624
-518.10316
-517.54337
-517.49016
-518.22786
-518.10955
-518.10846
-518.10889
-518.10845
-518.1071
-518.10484
-518.10165
-517.5416
-517.49071
-518.22842
-518.11005
-518.10889
-518.10926
-518.10875
-518.10732
-518.10497
-518.10171
-517.54155
-517.49051
-518.22811
-518.10968
-518.10845
-518.10875
-518.10816
-518.10667
-518.10426
-518.10093
-517.54074
-517.4895
-518.22689
-518.10841
-518.1071
-518.10732
-518.10667
-518.1051
-518.10263
-518.09925
-517.53909
-517.48773
-518.22481
-518.10624
-518.10484
-518.10497
-518.10426
-518.10263
-518.10009
-518.09665
-517.53657
-517.48531
-518.22189
-518.10316
-518.10165
-518.10171
-518.10093
-518.09925
-518.09665
-518.09312
-517.53313
-517.19931
-517.63202
-517.54337
-517.5416
-517.54155
-517.54074
-517.53909
-517.53657
-517.53313
-516.86657
-507.98416
-509.10842
-508.93692
-508.93389
-508.93444
-508.93417
-508.933
-508.93099
-508.92825
-508.58083
-509.10842
-509.91916
-509.779
-509.77764
-509.7782
-509.77779
-509.77639
-509.77402
-509.7707
-509.06616
-508.93692
-509.779
-509.64216
-509.64085
-509.64134
-509.64088
-509.63941
-509.63694
-509.63346
-508.96487
-508.93389
-509.77764
-509.64085
-509.63946
-509.63988
-509.63933
-509.63778
-509.6352
-509.6316
-508.96275
-508.93444
-509.7782
-509.64134
-509.63988
-509.64022
-509.6396
-509.63796
-509.6353
-509.63161
-508.96263
-508.93417
-509.77779
-509.64088
-509.63933
-509.6396
-509.6389
-509.63718
-509.63444
-509.63069
-508.96169
-508.933
-509.77639
-509.63941
-509.63778
-509.63796
-509.63718
-509.63538
-509.63258
-509.62876
-508.95981
-508.93099
-509.77402
-509.63694
-509.6352
-509.6353
-509.63444
-509.63258
-509.6297
-509.62581
-508.95696
-508.92825
-509.7707
-509.63346
-509.6316
-509.63161
-509.63069
-509.62876
-509.62581
-509.62182
-508.95309
-508.58083
-509.06616
-508.96487
-508.96275
-508.96263
-508.96169
-508.95981
-508.95696
-508.95309
-508.15456
-499.53217
-500.78994
-500.59648
-500.59292
-500.59347
-500.59312
-500.5918
-500.58956
-500.58653
-500.18057
-500.78994
-501.69593
-501.53784
-501.53617
-501.53673
-501.53623
-501.53464
-501.53199
-501.52832
-500.71488
-500.59648
-501.53784
-501.38352
-501.38191
-501.3824
-501.38184
-501.38018
-501.37743
-501.37357
-500.60166
-500.59292
-501.53617
-501.38191
-501.38022
-501.38063
-501.37998
-501.37823
-501.37536
-501.37137
-500.5992
-500.59347
-501.53673
-501.3824
-501.38063
-501.38094
-501.38021
-501.37836
-501.3754
-501.37132
-500.59902
-500.59312
-501.53623
-501.38184
-501.37998
-501.38021
-501.37939
-501.37746
-501.37442
-501.37026
-500.59794
-500.5918
-501.53464
-501.38018
-501.37823
-501.37836
-501.37746
-501.37545
-501.37233
-501.3681
-500.59584
-500.58956
-501.53199
-501.37743
-501.37536
-501.3754
-501.37442
-501.37233
-501.36913
-501.36482
-500.59269
-500.58653
-501.52832
-501.37357
-501.37137
-501.37132
-501.37026
-501.3681
-501.36482
-501.36041
-500.58843
-500.18057
-500.71488
-500.60166
-500.5992
-500.59902
-500.59794
-500.59584
-500.59269
-500.58843
-499.66442
-491.28856
-492.67048
-492.45643
-492.45238
-492.45291
-492.45249
-492.45103
-492.44858
-492.44527
-491.98402
-492.67048
-493.66489
-493.49001
-493.48804
-493.48858
-493.48799
-493.48623
-493.48333
-493.47932
-492.56336
-492.45643
-493.49001
-493.31932
-493.31742
-493.31789
-493.31723
-493.3154
-493.31239
-493.30818
-492.43902
-492.45238
-493.48804
-493.31742
-493.31545
-493.31582
-493.31507
-493.31314
-493.31
-493.30565
-492.43624
-492.45291
-493.48858
-493.31789
-493.31582
-493.31611
-493.31527
-493.31323
-493.30999
-493.30554
-492.43599
-492.45249
-493.48799
-493.31723
-493.31507
-493.31527
-493.31433
-493.3122
-493.30887
-493.30435
-492.43478
-492.45103
-493.48623
-493.3154
-493.31314
-493.31323
-493.3122
-493.30998
-493.30657
-493.30197
-492.43249
-492.44858
-493.48333
-493.31239
-493.31
-493.30999
-493.30887
-493.30657
-493.30308
-493.29839
-492.42905
-492.44527
-493.47932
-493.30818
-493.30565
-493.30554
-493.30435
-493.30197
-493.29839
-493.29358
-492.42442
-491.98402
-492.56336
-492.43902
-492.43624
-492.43599
-492.43478
-492.43249
-492.42905
-492.42442
-491.38214
-483.24011
-484.73615
-484.50302
-484.49849
-484.499
-484.49852
-484.49692
-484.49428
-484.49072
-483.97772
-484.73615
-485.81168
-485.62125
-485.61899
-485.61951
-485.61883
-485.6169
-485.61377
-485.60945
-484.59795
-484.50302
-485.62125
-485.43538
-485.43322
-485.43366
-485.43291
-485.43091
-485.42766
-485.42313
-484.46334
-484.49849
-485.61899
-485.43322
-485.43096
-485.43131
-485.43046
-485.42835
-485.42497
-485.42029
-484.46026
-484.499
-485.61951
-485.43366
-485.43131
-485.43156
-485.43061
-485.4284
-485.4249
-485.42012
-484.45994
-484.49852
-485.61883
-485.43291
-485.43046
-485.43061
-485.42957
-485.42725
-485.42367
-485.4188
-484.45861
-484.49692
-485.6169
-485.43091
-485.42835
-485.4284
-485.42725
-485.42485
-485.42117
-485.41622
-484.45613
-484.49428
-485.61377
-485.42766
-485.42497
-485.4249
-485.42367
-485.42117
-485.4174
-485.41236
-484.45244
-484.49072
-485.60945
-485.42313
-485.42029
-485.42012
-485.4188
-485.41622
-485.41236
-485.4072
-484.44748
-483.97772
-484.59795
-484.46334
-484.46026
-484.45994
-484.45861
-484.45613
-484.45244
-484.44748
-483.29479
-475.37463
-476.97415
-476.72356
-476.71859
-476.71908
-476.71852
-476.7168
-476.71398
-476.71021
-476.14928
-476.97415
-478.1231
-477.91842
-477.91589
-477.91638
-477.91562
-477.91354
-477.91019
-477.9056
-476.80602
-476.72356
-477.91842
-477.71868
-477.71625
-477.71666
-477.71583
-477.71368
-477.71021
-477.7054
-476.66208
-476.71859
-477.91589
-477.71625
-477.71373
-477.71404
-477.71311
-477.71084
-477.70723
-477.70226
-476.6587
-476.71908
-477.91638
-477.71666
-477.71404
-477.71426
-477.71321
-477.71084
-477.70711
-477.70203
-476.65832
-476.71852
-477.91562
-477.71583
-477.71311
-477.71321
-477.71207
-477.70959
-477.70576
-477.70059
-476.65688
-476.7168
-477.91354
-477.71368
-477.71084
-477.71084
-477.70959
-477.707
-477.70308
-477.69783
-476.65423
-476.71398
-477.91019
-477.71021
-477.70723
-477.70711
-477.70576
-477.70308
-477.69907
-477.69372
-476.65031
-476.71021
-477.9056
-477.7054
-477.70226
-477.70203
-477.70059
-477.69783
-477.69372
-477.68823
-476.64506
-476.14928
-476.80602
-476.66208
-476.6587
-476.65832
-476.65688
-476.65423
-476.65031
-476.64506
-475.39043
-467.68092
-469.37275
-469.10641
-469.10101
-469.10148
-469.10086
-469.09903
-469.09605
-469.09208
-468.48732
-469.37275
-470.58701
-470.3695
-470.36671
-470.36717
-470.36633
-470.36412
-470.36057
-470.35574
-469.17603
-469.10641
-470.3695
-470.15726
-470.15458
-470.15496
-470.15405
-470.15176
-470.14809
-470.14303
-469.02372
-469.10101
-470.36671
-470.15458
-470.15181
-470.15209
-470.15106
-470.14865
-470.14484
-470.13961
-469.02007
-469.10148
-470.36717
-470.15496
-470.15209
-470.15226
-470.15113
-470.1486
-470.14467
-470.13932
-469.01963
-469.10086
-470.36633
-470.15405
-470.15106
-470.15113
-470.14989
-470.14725
-470.14322
-470.13778
-469.01809
-469.09903
-470.36412
-470.15176
-470.14865
-470.1486
-470.14725
-470.14451
-470.14038
-470.13486
-469.01528
-469.09605
-470.36057
-470.14809
-470.14484
-470.14467
-470.14322
-470.14038
-470.13614
-470.13052
-469.01117
-469.09208
-470.35574
-470.14303
-470.13961
-470.13932
-470.13778
-470.13486
-470.13052
-470.12475
-469.00566
-468.48732
-469.17603
-469.02372
-469.02007
-469.01963
-469.01809
-469.01528
-469.01117
-469.00566
-467.65811
-460.14867
-461.92119
-461.64091
-461.63513
-461.63556
-461.63489
-461.63295
-461.62984
-461.6257
-460.98142
-461.92119
-463.19239
-462.9635
-462.96048
-462.96091
-462.95999
-462.95766
-462.95395
-462.9489
-461.69741
-461.64091
-462.9635
-462.7402
-462.7373
-462.73764
-462.73665
-462.73424
-462.73041
-462.72512
-461.53774
-461.63513
-462.96048
-462.7373
-462.73429
-462.73453
-462.73343
-462.73089
-462.72691
-462.72145
-461.53386
-461.63556
-462.96091
-462.73764
-462.73453
-462.73466
-462.73345
-462.73079
-462.72668
-462.72111
-461.53335
-461.63489
-462.95999
-462.73665
-462.73343
-462.73345
-462.73212
-462.72935
-462.72513
-462.71947
-461.53172
-461.63295
-462.95766
-462.73424
-462.73089
-462.73079
-462.72935
-462.72647
-462.72215
-462.7164
-461.52878
-461.62984
-462.95395
-462.73041
-462.72691
-462.72668
-462.72513
-462.72215
-462.71773
-462.71186
-461.52449
-461.6257
-462.9489
-462.72512
-462.72145
-462.72111
-462.71947
-462.7164
-462.71186
-462.70585
-461.51876
-460.98142
-461.69741
-461.53774
-461.53386
-461.53335
-461.53172
-461.52878
-461.52449
-461.51876
-460.08779
-452.76851
-454.60973
-454.31737
-454.31125
-454.31165
-454.31091
-454.3089
-454.30567
-454.30139
-453.62209
-454.60973
-455.92921
-455.69049
-455.68724
-455.68764
-455.68665
-455.68421
-455.68036
-455.67514
-454.36055
-454.31737
-455.69049
-455.45762
-455.4545
-455.45481
-455.45375
-455.45123
-455.44726
-455.44179
-454.1946
-454.31125
-455.68724
-455.4545
-455.45129
-455.45149
-455.45031
-455.44766
-455.44353
-455.43789
-454.19049
-454.31165
-455.68764
-455.45481
-455.45149
-455.45157
-455.45028
-455.44751
-455.44325
-455.43749
-454.18992
-454.31091
-455.68665
-455.45375
-455.45031
-455.45028
-455.44888
-455.44599
-455.44162
-455.43576
-454.18821
-454.3089
-455.68421
-455.45123
-455.44766
-455.44751
-455.44599
-455.443
-455.43852
-455.43257
-454.18517
-454.30567
-455.68036
-455.44726
-455.44353
-455.44325
-455.44162
-455.43852
-455.43394
-455.42787
-454.18073
-454.30139
-455.67514
-455.44179
-455.43789
-455.43749
-455.43576
-455.43257
-455.42787
-455.42166
-454.17482
-453.62209
-454.36055
-454.1946
-454.19049
-454.18992
-454.18821
-454.18517
-454.18073
-454.17482
-452.67032
-445.53191
-447.42954
-447.12703
-447.1206
-447.12097
-447.12019
-447.1181
-447.11477
-447.11038
-446.40073
-447.42954
-448.78846
-448.54149
-448.53804
-448.5384
-448.53735
-448.53482
-448.53085
-448.52548
-447.15678
-447.12703
-448.54149
-448.30059
-448.29728
-448.29755
-448.29643
-448.29382
-448.28973
-448.28412
-446.98562
-447.1206
-448.53804
-448.29728
-448.29387
-448.29403
-448.29279
-448.29005
-448.2858
-448.28001
-446.98132
-447.12097
-448.5384
-448.29755
-448.29403
-448.29408
-448.29272
-448.28986
-448.28547
-448.27956
-446.98071
-447.12019
-448.53735
-448.29643
-448.29279
-448.29272
-448.29125
-448.28826
-448.28377
-448.27776
-446.97893
-447.1181
-448.53482
-448.29382
-448.29005
-448.28986
-448.28826
-448.28517
-448.28056
-448.27446
-446.97579
-447.11477
-448.53085
-448.28973
-448.2858
-448.28547
-448.28377
-448.28056
-448.27585
-448.26963
-446.97123
-447.11038
-448.52548
-448.28412
-448.28001
-448.27956
-448.27776
-448.27446
-448.26963
-448.26325
-446.96518
-446.40073
-447.15678
-446.98562
-446.98132
-446.98071
-446.97893
-446.97579
-446.97123
-446.96518
-445.39741
-438.43114
-440.37269
-440.06202
-440.05532
-440.05565
-440.05482
-440.05268
-440.04928
-440.0448
-439.3096
-440.37269
-441.76208
-441.50847
-441.50484
-441.50516
-441.50406
-441.50145
-441.4974
-441.49192
-440.0783
-440.06202
-441.50847
-441.26113
-441.25765
-441.25788
-441.2567
-441.25402
-441.24984
-441.24412
-439.90306
-440.05532
-441.50484
-441.25765
-441.25407
-441.25419
-441.25289
-441.25008
-441.24573
-441.23983
-439.89859
-440.05565
-441.50516
-441.25788
-441.25419
-441.25419
-441.25277
-441.24983
-441.24536
-441.23933
-439.89793
-440.05482
-441.50406
-441.2567
-441.25289
-441.25277
-441.25124
-441.24818
-441.24359
-441.23746
-439.89609
-440.05268
-441.50145
-441.25402
-441.25008
-441.24983
-441.24818
-441.24501
-441.24031
-441.23408
-439.89288
-440.04928
-441.4974
-441.24984
-441.24573
-441.24536
-441.24359
-441.24031
-441.23549
-441.22915
-439.88824
-440.0448
-441.49192
-441.24412
-441.23983
-441.23933
-441.23746
-441.23408
-441.22915
-441.22266
-439.88209
-439.3096
-440.0783
-439.90306
-439.89859
-439.89793
-439.89609
-439.89288
-439.88824
-439.88209
-438.26156
-431.45929
-433.43211
-433.1153
-433.10838
-433.10867
-433.1078
-433.10561
-433.10216
-433.09763
-432.34178
-433.43211
-434.84292
-434.58432
-434.58054
-434.58082
-434.57966
-434.577
-434.57288
-434.56734
-433.11817
-433.1153
-434.58432
-434.33214
-434.32852
-434.3287
-434.32748
-434.32474
-434.3205
-434.3147
-432.93997
-433.10838
-434.58054
-434.32852
-434.32479
-434.32486
-434.32352
-434.32065
-434.31624
-434.31027
-432.93537
-433.10867
-434.58082
-434.3287
-434.32486
-434.32482
-434.32336
-434.32036
-434.31582
-434.30972
-432.93466
-433.1078
-434.57966
-434.32748
-434.32352
-434.32336
-434.32178
-434.31866
-434.314
-434.3078
-432.93278
-433.10561
-434.577
-434.32474
-434.32065
-434.32036
-434.31866
-434.31543
-434.31066
-434.30436
-432.92952
-433.10216
-434.57288
-434.3205
-434.31624
-434.31582
-434.314
-434.31066
-434.30578
-434.29936
-432.92482
-433.09763
-434.56734
-434.3147
-434.31027
-434.30972
-434.3078
-434.30436
-434.29936
-434.29278
-432.9186
-432.34178
-433.11817
-432.93997
-432.93537
-432.93466
-432.93278
-432.92952
-432.92482
-432.9186
-431.25605
-424.61015
-426.60157
-426.28065
-426.27355
-426.2738
-426.2729
-426.27068
-426.2672
-426.26264
-425.49112
-426.60157
-428.02472
-427.7628
-427.75889
-427.75912
-427.75792
-427.75523
-427.75107
-427.74548
-426.27025
-426.28065
-427.7628
-427.5074
-427.50365
-427.5038
-427.50253
-427.49976
-427.49548
-427.48965
-426.09023
-426.27355
-427.75889
-427.50365
-427.4998
-427.49983
-427.49845
-427.49554
-427.4911
-427.48509
-426.08552
-426.2738
-427.75912
-427.5038
-427.49983
-427.49975
-427.49825
-427.49522
-427.49064
-427.4845
-426.08478
-426.2729
-427.75792
-427.50253
-427.49845
-427.49825
-427.49663
-427.49347
-427.48878
-427.48254
-426.08286
-426.27068
-427.75523
-427.49976
-427.49554
-427.49522
-427.49347
-427.4902
-427.4854
-427.47906
-426.07957
-426.2672
-427.75107
-427.49548
-427.4911
-427.49064
-427.48878
-427.4854
-427.48048
-427.47402
-426.07485
-426.26264
-427.74548
-427.48965
-427.48509
-427.4845
-427.48254
-427.47906
-427.47402
-427.46741
-426.0686
-425.49112
-426.27025
-426.09023
-426.08552
-426.08478
-426.08286
-426.07957
-426.07485
-426.0686
-424.37489
-417.87825
-419.87561
-419.55262
-419.5454
-419.5456
-419.54468
-419.54243
-419.53895
-419.53439
-418.7522
-419.87561
-421.30205
-421.03847
-421.03446
-421.03464
-421.03342
-421.0307
-421.02653
-421.02094
-419.52917
-419.55262
-421.03847
-420.78149
-420.77764
-420.77774
-420.77645
-420.77365
-420.76936
-420.76353
-419.34847
-419.5454
-421.03446
-420.77764
-420.77369
-420.77369
-420.77227
-420.76935
-420.76489
-420.75888
-419.34369
-419.5456
-421.03464
-420.77774
-420.77369
-420.77356
-420.77203
-420.76898
-420.76439
-420.75825
-419.34291
-419.54468
-421.03342
-420.77645
-420.77227
-420.77203
-420.77038
-420.76721
-420.76251
-420.75627
-419.34097
-419.54243
-421.0307
-420.77365
-420.76935
-420.76898
-420.76721
-420.76392
-420.75911
-420.75277
-419.33767
-419.53895
-421.02653
-420.76936
-420.76489
-420.76439
-420.76251
-420.75911
-420.75418
-420.74773
-419.33295
-419.53439
-421.02094
-420.76353
-420.75888
-420.75825
-420.75627
-420.75277
-420.74773
-420.74111
-419.32672
-418.7522
-419.52917
-419.34847
-419.34369
-419.34291
-419.34097
-419.33767
-419.33295
-419.32672
-417.61278
-411.25876
-413.2495
-412.92649
-412.91918
-412.91935
-412.9184
-412.91616
-412.91269
-412.90815
-412.1203
-413.2495
-414.67029
-414.40672
-414.40263
-414.40277
-414.40152
-414.39879
-414.39463
-414.38908
-412.89027
-412.92649
-414.40672
-414.14977
-414.14585
-414.14591
-414.14459
-414.1418
-414.13752
-414.13172
-412.71004
-412.91918
-414.40263
-414.14585
-414.14183
-414.14178
-414.14035
-414.13742
-414.13299
-414.12701
-412.70521
-412.91935
-414.40277
-414.14591
-414.14178
-414.14162
-414.14007
-414.13702
-414.13245
-414.12635
-412.7044
-412.9184
-414.40152
-414.14459
-414.14035
-414.14007
-414.1384
-414.13523
-414.13055
-414.12435
-412.70246
-412.91616
-414.39879
-414.1418
-414.13742
-414.13702
-414.13523
-414.13195
-414.12715
-414.12086
-412.69917
-412.91269
-414.39463
-414.13752
-414.13299
-414.13245
-414.13055
-414.12715
-414.12225
-414.11584
-412.69448
-412.90815
-414.38908
-414.13172
-414.12701
-414.12635
-414.12435
-414.12086
-414.11584
-414.10927
-412.6883
-412.1203
-412.89027
-412.71004
-412.70521
-412.7044
-412.70246
-412.69917
-412.69448
-412.6883
-410.96507
-404.74749
-406.71924
-406.39824
-406.39089
-406.39102
-406.39006
-406.38782
-406.38439
-406.3799
-405.59139
-406.71924
-408.12556
-407.86365
-407.85951
-407.85961
-407.85834
-407.85563
-407.85151
-407.84601
-406.34961
-406.39824
-407.86365
-407.60834
-407.60438
-407.6044
-407.60307
-407.60029
-407.59605
-407.59033
-406.17098
-406.39089
-407.85951
-407.60438
-407.60032
-407.60023
-407.59879
-407.59588
-407.59148
-407.58558
-406.16613
-406.39102
-407.85961
-407.6044
-407.60023
-407.60004
-407.59848
-407.59544
-407.59092
-407.5849
-406.1653
-406.39006
-407.85834
-407.60307
-407.59879
-407.59848
-407.5968
-407.59365
-407.58902
-407.5829
-406.16336
-406.38782
-407.85563
-407.60029
-407.59588
-407.59544
-407.59365
-407.59039
-407.58564
-407.57943
-406.1601
-406.38439
-407.85151
-407.59605
-407.59148
-407.59092
-407.58902
-407.58564
-407.58079
-407.57446
-406.15547
-406.3799
-407.84601
-407.59033
-407.58558
-407.5849
-407.5829
-407.57943
-407.57446
-407.56797
-406.14938
-405.59139
-406.34961
-406.17098
-406.16613
-406.1653
-406.16336
-406.1601
-406.15547
-406.14938
-404.42772
-398.34085
-400.28149
-399.96448
-399.95715
-399.95723
-399.95626
-399.95405
-399.95067
-399.94627
-399.16202
-400.28149
-401.66471
-401.40609
-401.40193
-401.40199
-401.40071
-401.39803
-401.39397
-401.38857
-399.90389
-399.96448
-401.40609
-401.15402
-401.15003
-401.15002
-401.14868
-401.14593
-401.14176
-401.13613
-399.72795
-399.95715
-401.40193
-401.15003
-401.14596
-401.14583
-401.14439
-401.14151
-401.13719
-401.13139
-399.72313
-399.95723
-401.40199
-401.15002
-401.14583
-401.1456
-401.14404
-401.14104
-401.1366
-401.13068
-399.72228
-399.95626
-401.40071
-401.14868
-401.14439
-401.14404
-401.14237
-401.13926
-401.1347
-401.12869
-399.72035
-399.95405
-401.39803
-401.14593
-401.14151
-401.14104
-401.13926
-401.13604
-401.13137
-401.12527
-399.71715
-399.95067
-401.39397
-401.14176
-401.13719
-401.1366
-401.1347
-401.13137
-401.1266
-401.12039
-399.7126
-399.94627
-401.38857
-401.13613
-401.13139
-401.13068
-401.12869
-401.12527
-401.12039
-401.11402
-399.70663
-399.16202
-399.90389
-399.72795
-399.72313
-399.72228
-399.72035
-399.71715
-399.7126
-399.70663
-397.99728
-392.0358
-393.93352
-393.62246
-393.61519
-393.61524
-393.61426
-393.61209
-393.60878
-393.60449
-392.82935
-393.93352
-395.28526
-395.03153
-395.02738
-395.02739
-395.02612
-395.02347
-395.0195
-395.01423
-393.5504
-393.62246
-395.03153
-394.78424
-394.78027
-394.78021
-394.77887
-394.77617
-394.77209
-394.7666
-393.37825
-393.61519
-395.02738
-394.78027
-394.7762
-394.77604
-394.7746
-394.77177
-394.76755
-394.76189
-393.37347
-393.61524
-395.02739
-394.78021
-394.77604
-394.77578
-394.77423
-394.77128
-394.76693
-394.76116
-393.37262
-393.61426
-395.02612
-394.77887
-394.7746
-394.77423
-394.77257
-394.76951
-394.76506
-394.7592
-393.37072
-393.61209
-395.02347
-394.77617
-394.77177
-394.77128
-394.76951
-394.76635
-394.7618
-394.75584
-393.36758
-393.60878
-395.0195
-394.77209
-394.76755
-394.76693
-394.76506
-394.7618
-394.75713
-394.75107
-393.36314
-393.60449
-395.01423
-394.7666
-394.76189
-394.76116
-394.7592
-394.75584
-394.75107
-394.74486
-393.35733
-392.82935
-393.5504
-393.37825
-393.37347
-393.37262
-393.37072
-393.36758
-393.36314
-393.35733
-391.67083
-385.8298
-387.67319
-387.36999
-387.36283
-387.36283
-387.36186
-387.35974
-387.35652
-387.35236
-386.59107
-387.67319
-388.98537
-388.73807
-388.73396
-388.73393
-388.73266
-388.73008
-388.72621
-388.7211
-387.28703
-387.36999
-388.73807
-388.49708
-388.49314
-388.49304
-388.49172
-388.48908
-388.48512
-388.4798
-387.11971
-387.36283
-388.73396
-388.49314
-388.48911
-388.48892
-388.4875
-388.48474
-388.48063
-388.47515
-387.11501
-387.36283
-388.73393
-388.49304
-388.48892
-388.48862
-388.4871
-388.48422
-388.48
-388.47441
-387.11415
-387.36186
-388.73266
-388.49172
-388.4875
-388.4871
-388.48546
-388.48248
-388.47816
-388.47248
-387.11229
-387.35974
-388.73008
-388.48908
-388.48474
-388.48422
-388.48248
-388.4794
-388.47498
-388.46921
-387.10924
-387.35652
-388.72621
-388.48512
-388.48063
-388.48
-388.47816
-388.47498
-388.47045
-388.46457
-387.10494
-387.35236
-388.7211
-388.4798
-388.47515
-388.47441
-388.47248
-388.46921
-388.46457
-388.45855
-387.09932
-386.59107
-387.28703
-387.11971
-387.11501
-387.11415
-387.11229
-387.10924
-387.10494
-387.09932
-385.44595
-379.72082
-381.49892
-381.20541
-381.19841
-381.19837
-381.19741
-381.19535
-381.19225
-381.18824
-380.4454
-381.49892
-382.76378
-382.52441
-382.52036
-382.52029
-382.51904
-382.51653
-382.5128
-382.50788
-381.11216
-381.20541
-382.52441
-382.29117
-382.28729
-382.28716
-382.28586
-382.2833
-382.27947
-382.27435
-380.95069
-381.19841
-382.52036
-382.28729
-382.28333
-382.28311
-382.28171
-382.27904
-382.27507
-382.26979
-380.94611
-381.19837
-382.52029
-382.28716
-382.28311
-382.28279
-382.28129
-382.2785
-382.27443
-382.26905
-380.94525
-381.19741
-382.51904
-382.28586
-382.28171
-382.28129
-382.27969
-382.2768
-382.27263
-382.26716
-380.94344
-381.19535
-382.51653
-382.2833
-382.27904
-382.2785
-382.2768
-382.27382
-382.26955
-382.264
-380.94049
-381.19225
-382.5128
-382.27947
-382.27507
-382.27443
-382.27263
-382.26955
-382.26518
-382.25953
-380.93635
-381.18824
-382.50788
-382.27435
-382.26979
-382.26905
-382.26716
-382.264
-382.25953
-382.25373
-380.93095
-380.4454
-381.11216
-380.95069
-380.94611
-380.94525
-380.94344
-380.94049
-380.93635
-380.93095
-379.32067
-373.70726
-375.40961
-375.12756
-375.12076
-375.12068
-375.11974
-375.11775
-375.11478
-375.11095
-374.39099
-375.40961
-376.61977
-376.38978
-376.38581
-376.3857
-376.38448
-376.38206
-376.37848
-376.37377
-375.0247
-375.12756
-376.38978
-376.16569
-376.1619
-376.16173
-376.16046
-376.15799
-376.15432
-376.14943
-374.87005
-375.12076
-376.38581
-376.1619
-376.15803
-376.15777
-376.15641
-376.15384
-376.15004
-376.14499
-374.86561
-375.12068
-376.3857
-376.16173
-376.15777
-376.15743
-376.15597
-376.15329
-376.14939
-376.14424
-374.86476
-375.11974
-376.38448
-376.16046
-376.15641
-376.15597
-376.15441
-376.15164
-376.14764
-376.14242
-374.86301
-375.11775
-376.38206
-376.15799
-376.15384
-376.15329
-376.15164
-376.14877
-376.14468
-376.13938
-374.86018
-375.11478
-376.37848
-376.15432
-376.15004
-376.14939
-376.14764
-376.14468
-376.1405
-376.1351
-374.85623
-375.11095
-376.37377
-376.14943
-376.14499
-376.14424
-376.14242
-376.13938
-376.1351
-376.12956
-374.85108
-374.39099
-375.0247
-374.87005
-374.86561
-374.86476
-374.86301
-374.86018
-374.85623
-374.85108
-373.29349
-367.78791
-369.40464
-369.13573
-369.12917
-369.12907
-369.12815
-369.12625
-369.12342
-369.11979
-368.42694
-369.40464
-370.55314
-370.33388
-370.33004
-370.32989
-370.3287
-370.32639
-370.32298
-370.31851
-369.02399
-369.13573
-370.33388
-370.12028
-370.1166
-370.1164
-370.11517
-370.11281
-370.10932
-370.10468
-368.87708
-369.12917
-370.33004
-370.1166
-370.11285
-370.11257
-370.11125
-370.10879
-370.10518
-370.1004
-368.87281
-369.12907
-370.32989
-370.1164
-370.11257
-370.11221
-370.11079
-370.10824
-370.10453
-370.09965
-368.87197
-369.12815
-370.3287
-370.11517
-370.11125
-370.11079
-370.10929
-370.10665
-370.10285
-370.09789
-368.87029
-369.12625
-370.32639
-370.11281
-370.10879
-370.10824
-370.10665
-370.10391
-370.10003
-370.095
-368.86761
-369.12342
-370.32298
-370.10932
-370.10518
-370.10453
-370.10285
-370.10003
-370.09606
-370.09093
-368.86386
-369.11979
-370.31851
-370.10468
-370.1004
-370.09965