/*--------------------------------*- C++ -*----------------------------------*\
| =========                 |                                                 |
| \\      /  F ield         | OpenFOAM: The Open Source CFD Toolbox           |
|  \\    /   O peration     | Version:  v2106                                 |
|   \\  /    A nd           | Website:  www.openfoam.com                      |
|    \\/     M anipulation  |                                                 |
\*---------------------------------------------------------------------------*/
FoamFile
{
    version     2.0;
    format      ascii;
    arch        "LSB;label=32;scalar=64";
    class       volScalarField;
    location    "75";
    object      T;
}
// * * * * * * * * * * * * * * * * * * * * * * * * * * * * * * * * * * * * * //

dimensions      [0 0 0 1 0 0 0];

internalField   nonuniform List<scalar> 
4000
(
274.32393
274.32392
274.32392
274.32392
274.32392
274.32392
274.32392
274.32392
274.32393
274.32393
274.32392
274.32392
274.32392
274.32392
274.32392
274.32392
274.32392
274.32392
274.32392
274.32392
274.32392
274.32392
274.32392
274.32392
274.32392
274.32392
274.32392
274.32392
274.32392
274.32392
274.32392
274.32392
274.32392
274.32392
274.32392
274.32392
274.32392
274.32392
274.32392
274.32392
274.32392
274.32392
274.32392
274.32392
274.32392
274.32392
274.32392
274.32392
274.32392
274.32392
274.32392
274.32392
274.32392
274.32392
274.32392
274.32392
274.32392
274.32392
274.32392
274.32392
274.32392
274.32392
274.32392
274.32392
274.32392
274.32392
274.32392
274.32392
274.32392
274.32392
274.32392
274.32392
274.32392
274.32392
274.32392
274.32392
274.32392
274.32392
274.32392
274.32392
274.32393
274.32392
274.32392
274.32392
274.32392
274.32392
274.32392
274.32392
274.32392
274.32392
274.32393
274.32392
274.32392
274.32392
274.32392
274.32392
274.32392
274.32392
274.32392
274.32392
286.13471
286.13465
286.13465
286.13464
286.13464
286.13465
286.13465
286.13466
286.13466
286.13468
286.13465
286.13461
286.13461
286.13461
286.13461
286.13461
286.13461
286.13462
286.13463
286.13464
286.13465
286.13461
286.13461
286.1346
286.1346
286.1346
286.13461
286.13461
286.13462
286.13464
286.13464
286.13461
286.1346
286.1346
286.1346
286.1346
286.13461
286.13461
286.13462
286.13463
286.13464
286.13461
286.1346
286.1346
286.1346
286.1346
286.1346
286.13461
286.13462
286.13463
286.13465
286.13461
286.1346
286.1346
286.1346
286.1346
286.13461
286.13461
286.13462
286.13463
286.13465
286.13461
286.13461
286.13461
286.1346
286.13461
286.13461
286.13461
286.13462
286.13464
286.13466
286.13462
286.13461
286.13461
286.13461
286.13461
286.13461
286.13462
286.13463
286.13464
286.13466
286.13463
286.13462
286.13462
286.13462
286.13462
286.13462
286.13463
286.13464
286.13465
286.13468
286.13464
286.13464
286.13463
286.13463
286.13463
286.13464
286.13464
286.13465
286.13467
297.47382
297.47373
297.47372
297.47372
297.47372
297.47372
297.47372
297.47374
297.47375
297.47378
297.47373
297.47367
297.47366
297.47366
297.47366
297.47366
297.47367
297.47368
297.4737
297.47373
297.47372
297.47366
297.47366
297.47365
297.47365
297.47366
297.47366
297.47367
297.47369
297.47372
297.47372
297.47366
297.47365
297.47365
297.47365
297.47365
297.47366
297.47367
297.47368
297.47372
297.47372
297.47366
297.47365
297.47365
297.47365
297.47365
297.47366
297.47366
297.47368
297.47371
297.47372
297.47366
297.47366
297.47365
297.47365
297.47365
297.47366
297.47367
297.47368
297.47371
297.47372
297.47367
297.47366
297.47366
297.47366
297.47366
297.47366
297.47367
297.47369
297.47372
297.47374
297.47368
297.47367
297.47367
297.47366
297.47367
297.47367
297.47368
297.4737
297.47373
297.47375
297.4737
297.47369
297.47368
297.47368
297.47368
297.47369
297.4737
297.47371
297.47375
297.47378
297.47373
297.47372
297.47372
297.47371
297.47371
297.47372
297.47373
297.47375
297.47379
308.3909
308.3908
308.39079
308.39078
308.39078
308.39078
308.39079
308.39081
308.39083
308.39087
308.3908
308.39072
308.39071
308.39071
308.39071
308.39071
308.39072
308.39073
308.39076
308.39081
308.39079
308.39071
308.39071
308.3907
308.3907
308.3907
308.39071
308.39072
308.39074
308.3908
308.39078
308.39071
308.3907
308.3907
308.3907
308.3907
308.39071
308.39072
308.39074
308.39079
308.39078
308.39071
308.3907
308.3907
308.3907
308.3907
308.3907
308.39072
308.39073
308.39079
308.39078
308.39071
308.3907
308.3907
308.3907
308.3907
308.39071
308.39072
308.39074
308.39079
308.39079
308.39072
308.39071
308.39071
308.3907
308.39071
308.39071
308.39072
308.39074
308.3908
308.39081
308.39073
308.39072
308.39072
308.39072
308.39072
308.39072
308.39074
308.39076
308.39081
308.39083
308.39076
308.39074
308.39074
308.39073
308.39074
308.39074
308.39076
308.39078
308.39083
308.39087
308.39081
308.3908
308.39079
308.39079
308.39079
308.3908
308.39081
308.39083
308.3909
318.9272
318.92708
318.92707
318.92706
318.92706
318.92706
318.92707
318.92709
318.92712
318.92718
318.92708
318.92699
318.92698
318.92698
318.92698
318.92698
318.92699
318.92701
318.92703
318.92711
318.92707
318.92698
318.92698
318.92697
318.92697
318.92697
318.92698
318.927
318.92702
318.92709
318.92706
318.92698
318.92697
318.92697
318.92697
318.92697
318.92698
318.92699
318.92701
318.92708
318.92706
318.92698
318.92697
318.92697
318.92697
318.92697
318.92698
318.92699
318.92701
318.92708
318.92706
318.92698
318.92697
318.92697
318.92697
318.92697
318.92698
318.92699
318.92701
318.92708
318.92707
318.92699
318.92698
318.92698
318.92698
318.92698
318.92699
318.927
318.92702
318.92709
318.92709
318.92701
318.927
318.92699
318.92699
318.92699
318.927
318.92701
318.92704
318.9271
318.92712
318.92703
318.92702
318.92701
318.92701
318.92701
318.92702
318.92704
318.92706
318.92713
318.92718
318.92711
318.92709
318.92708
318.92708
318.92708
318.92709
318.9271
318.92713
318.92722
329.11743
329.11729
329.11728
329.11727
329.11727
329.11728
329.11729
329.11731
329.11734
329.11741
329.11729
329.11719
329.11719
329.11718
329.11718
329.11719
329.1172
329.11722
329.11725
329.11733
329.11728
329.11719
329.11718
329.11718
329.11718
329.11719
329.11719
329.11721
329.11723
329.11731
329.11727
329.11718
329.11718
329.11718
329.11718
329.11718
329.11719
329.1172
329.11723
329.1173
329.11727
329.11718
329.11718
329.11718
329.11718
329.11718
329.11719
329.1172
329.11722
329.1173
329.11728
329.11719
329.11719
329.11718
329.11718
329.11718
329.11719
329.1172
329.11723
329.1173
329.11729
329.1172
329.11719
329.11719
329.11719
329.11719
329.1172
329.11721
329.11723
329.11731
329.11731
329.11722
329.11721
329.1172
329.1172
329.1172
329.11721
329.11723
329.11725
329.11733
329.11734
329.11725
329.11723
329.11723
329.11722
329.11723
329.11723
329.11725
329.11728
329.11736
329.11741
329.11733
329.11731
329.1173
329.1173
329.1173
329.11731
329.11733
329.11736
329.11747
338.99117
338.99102
338.99102
338.99101
338.99101
338.99102
338.99103
338.99105
338.99109
338.99116
338.99102
338.99092
338.99092
338.99092
338.99092
338.99092
338.99093
338.99095
338.99098
338.99107
338.99102
338.99092
338.99092
338.99092
338.99092
338.99092
338.99093
338.99095
338.99097
338.99106
338.99101
338.99092
338.99092
338.99091
338.99092
338.99092
338.99093
338.99094
338.99096
338.99105
338.99101
338.99092
338.99092
338.99092
338.99092
338.99092
338.99093
338.99094
338.99096
338.99104
338.99102
338.99092
338.99092
338.99092
338.99092
338.99092
338.99093
338.99094
338.99096
338.99104
338.99103
338.99093
338.99093
338.99093
338.99093
338.99093
338.99094
338.99095
338.99097
338.99105
338.99105
338.99095
338.99095
338.99094
338.99094
338.99094
338.99095
338.99096
338.99098
338.99107
338.99109
338.99098
338.99097
338.99096
338.99096
338.99096
338.99097
338.99098
338.99101
338.9911
338.99116
338.99107
338.99106
338.99105
338.99104
338.99104
338.99105
338.99107
338.9911
338.99123
348.57391
348.57376
348.57376
348.57375
348.57376
348.57376
348.57377
348.57379
348.57383
348.57391
348.57376
348.57366
348.57366
348.57366
348.57366
348.57366
348.57367
348.57369
348.57372
348.57382
348.57376
348.57366
348.57366
348.57366
348.57366
348.57367
348.57367
348.57369
348.57371
348.5738
348.57375
348.57366
348.57366
348.57366
348.57366
348.57367
348.57367
348.57368
348.5737
348.57379
348.57376
348.57366
348.57366
348.57366
348.57366
348.57367
348.57367
348.57368
348.5737
348.57379
348.57376
348.57366
348.57367
348.57367
348.57367
348.57367
348.57368
348.57368
348.5737
348.57379
348.57377
348.57367
348.57367
348.57367
348.57367
348.57368
348.57368
348.57369
348.57371
348.5738
348.57379
348.57369
348.57369
348.57368
348.57368
348.57368
348.57369
348.5737
348.57372
348.57381
348.57383
348.57372
348.57371
348.5737
348.5737
348.5737
348.57371
348.57372
348.57374
348.57385
348.57391
348.57382
348.5738
348.57379
348.57379
348.57379
348.5738
348.57381
348.57385
348.57398
357.88781
357.88765
357.88766
357.88766
357.88766
357.88767
357.88768
357.88769
357.88773
357.88781
357.88765
357.88755
357.88755
357.88756
357.88756
357.88756
357.88757
357.88759
357.88761
357.88772
357.88766
357.88755
357.88756
357.88756
357.88757
357.88757
357.88758
357.88759
357.88761
357.8877
357.88766
357.88756
357.88756
357.88757
357.88757
357.88757
357.88758
357.88759
357.8876
357.88769
357.88766
357.88756
357.88757
357.88757
357.88757
357.88758
357.88758
357.88759
357.8876
357.88769
357.88767
357.88756
357.88757
357.88757
357.88758
357.88758
357.88758
357.88759
357.8876
357.88769
357.88768
357.88757
357.88758
357.88758
357.88758
357.88758
357.88758
357.88759
357.8876
357.8877
357.88769
357.88759
357.88759
357.88759
357.88759
357.88759
357.88759
357.8876
357.88761
357.88771
357.88773
357.88761
357.88761
357.8876
357.8876
357.8876
357.8876
357.88761
357.88763
357.88774
357.88781
357.88772
357.8877
357.88769
357.88769
357.88769
357.8877
357.88771
357.88774
357.88788
366.9523
366.95213
366.95214
366.95214
366.95215
366.95216
366.95216
366.95218
366.95221
366.9523
366.95213
366.95203
366.95204
366.95204
366.95205
366.95205
366.95206
366.95207
366.9521
366.9522
366.95214
366.95204
366.95205
366.95206
366.95206
366.95207
366.95207
366.95208
366.95209
366.95219
366.95214
366.95204
366.95206
366.95206
366.95207
366.95207
366.95207
366.95208
366.95209
366.95218
366.95215
366.95205
366.95206
366.95207
366.95207
366.95207
366.95207
366.95208
366.95208
366.95218
366.95216
366.95205
366.95207
366.95207
366.95207
366.95207
366.95207
366.95208
366.95208
366.95218
366.95216
366.95206
366.95207
366.95207
366.95207
366.95207
366.95208
366.95208
366.95209
366.95218
366.95218
366.95207
366.95208
366.95208
366.95208
366.95208
366.95208
366.95208
366.95209
366.95219
366.95221
366.9521
366.95209
366.95209
366.95208
366.95208
366.95209
366.95209
366.95211
366.95222
366.9523
366.9522
366.95219
366.95218
366.95218
366.95218
366.95218
366.95219
366.95222
366.95237
375.78453
375.78437
375.78438
375.78439
375.78439
375.7844
375.78441
375.78442
375.78445
375.78453
375.78437
375.78427
375.78428
375.78429
375.78429
375.7843
375.7843
375.78431
375.78433
375.78444
375.78438
375.78428
375.7843
375.78431
375.78431
375.78432
375.78432
375.78432
375.78433
375.78443
375.78439
375.78429
375.78431
375.78431
375.78432
375.78432
375.78432
375.78432
375.78433
375.78442
375.78439
375.78429
375.78431
375.78432
375.78432
375.78432
375.78432
375.78432
375.78432
375.78442
375.7844
375.7843
375.78432
375.78432
375.78432
375.78432
375.78432
375.78432
375.78432
375.78441
375.78441
375.7843
375.78432
375.78432
375.78432
375.78432
375.78432
375.78432
375.78432
375.78441
375.78442
375.78431
375.78432
375.78432
375.78432
375.78432
375.78432
375.78432
375.78432
375.78442
375.78445
375.78433
375.78433
375.78433
375.78432
375.78432
375.78432
375.78432
375.78433
375.78444
375.78453
375.78444
375.78443
375.78442
375.78442
375.78441
375.78441
375.78442
375.78444
375.7846
384.3998
384.39963
384.39965
384.39966
384.39967
384.39967
384.39968
384.39969
384.39971
384.3998
384.39963
384.39954
384.39956
384.39956
384.39957
384.39958
384.39958
384.39958
384.3996
384.3997
384.39965
384.39956
384.39958
384.39959
384.39959
384.3996
384.3996
384.39959
384.3996
384.39969
384.39966
384.39956
384.39959
384.3996
384.3996
384.3996
384.3996
384.3996
384.39959
384.39969
384.39967
384.39957
384.39959
384.3996
384.39961
384.39961
384.3996
384.3996
384.39959
384.39968
384.39967
384.39958
384.3996
384.3996
384.39961
384.39961
384.3996
384.39959
384.39959
384.39968
384.39968
384.39958
384.3996
384.3996
384.3996
384.3996
384.3996
384.39959
384.39958
384.39968
384.39969
384.39958
384.39959
384.3996
384.3996
384.39959
384.39959
384.39958
384.39958
384.39968
384.39971
384.3996
384.3996
384.39959
384.39959
384.39959
384.39958
384.39958
384.39959
384.39969
384.3998
384.3997
384.39969
384.39969
384.39968
384.39968
384.39968
384.39968
384.39969
384.39985
392.81178
392.81161
392.81164
392.81165
392.81166
392.81166
392.81166
392.81167
392.81169
392.81178
392.81161
392.81152
392.81154
392.81156
392.81156
392.81157
392.81157
392.81157
392.81157
392.81168
392.81164
392.81154
392.81157
392.81158
392.81159
392.81159
392.81159
392.81158
392.81158
392.81167
392.81165
392.81156
392.81158
392.8116
392.8116
392.8116
392.8116
392.81159
392.81158
392.81167
392.81166
392.81156
392.81159
392.8116
392.81161
392.8116
392.8116
392.81159
392.81157
392.81166
392.81166
392.81157
392.81159
392.8116
392.8116
392.8116
392.81159
392.81158
392.81157
392.81166
392.81166
392.81157
392.81159
392.8116
392.8116
392.81159
392.81159
392.81157
392.81156
392.81165
392.81167
392.81157
392.81158
392.81159
392.81159
392.81158
392.81157
392.81156
392.81155
392.81165
392.81169
392.81157
392.81158
392.81158
392.81157
392.81157
392.81156
392.81155
392.81155
392.81166
392.81178
392.81168
392.81167
392.81167
392.81166
392.81166
392.81165
392.81165
392.81166
392.81182
401.03279
401.03264
401.03267
401.03268
401.03269
401.03269
401.03269
401.03269
401.03271
401.03279
401.03264
401.03255
401.03258
401.03259
401.0326
401.0326
401.0326
401.03259
401.0326
401.0327
401.03267
401.03258
401.03261
401.03262
401.03263
401.03263
401.03262
401.03261
401.0326
401.03269
401.03268
401.03259
401.03262
401.03264
401.03264
401.03264
401.03263
401.03262
401.0326
401.03269
401.03269
401.0326
401.03263
401.03264
401.03265
401.03264
401.03263
401.03262
401.0326
401.03268
401.03269
401.0326
401.03263
401.03264
401.03264
401.03264
401.03263
401.03261
401.03259
401.03268
401.03269
401.0326
401.03262
401.03263
401.03263
401.03263
401.03262
401.0326
401.03258
401.03267
401.03269
401.03259
401.03261
401.03262
401.03262
401.03261
401.0326
401.03258
401.03257
401.03266
401.03271
401.0326
401.0326
401.0326
401.0326
401.03259
401.03258
401.03257
401.03256
401.03266
401.03279
401.0327
401.03269
401.03269
401.03268
401.03268
401.03267
401.03266
401.03266
401.03282
409.07402
409.07387
409.0739
409.07392
409.07393
409.07393
409.07393
409.07392
409.07393
409.07401
409.07387
409.07378
409.07382
409.07383
409.07384
409.07384
409.07384
409.07383
409.07383
409.07393
409.0739
409.07382
409.07385
409.07387
409.07388
409.07388
409.07387
409.07385
409.07384
409.07392
409.07392
409.07383
409.07387
409.07389
409.07389
409.07389
409.07388
409.07386
409.07384
409.07392
409.07393
409.07384
409.07388
409.07389
409.0739
409.07389
409.07388
409.07386
409.07383
409.07391
409.07393
409.07384
409.07388
409.07389
409.07389
409.07389
409.07387
409.07385
409.07382
409.0739
409.07393
409.07384
409.07387
409.07388
409.07388
409.07387
409.07386
409.07383
409.07381
409.07389
409.07392
409.07383
409.07385
409.07386
409.07386
409.07385
409.07383
409.07381
409.07379
409.07388
409.07393
409.07383
409.07384
409.07384
409.07383
409.07382
409.07381
409.07379
409.07378
409.07387
409.07401
409.07393
409.07392
409.07392
409.07391
409.0739
409.07389
409.07388
409.07387
409.07403
416.94562
416.94548
416.94551
416.94553
416.94554
416.94554
416.94554
416.94553
416.94554
416.94561
416.94548
416.9454
416.94544
416.94545
416.94546
416.94546
416.94545
416.94544
416.94543
416.94553
416.94551
416.94544
416.94547
416.94549
416.9455
416.9455
416.94549
416.94547
416.94544
416.94553
416.94553
416.94545
416.94549
416.94551
416.94552
416.94551
416.9455
416.94548
416.94545
416.94552
416.94554
416.94546
416.9455
416.94552
416.94552
416.94552
416.9455
416.94547
416.94544
416.94552
416.94554
416.94546
416.9455
416.94551
416.94552
416.94551
416.94549
416.94546
416.94543
416.94551
416.94554
416.94545
416.94549
416.9455
416.9455
416.94549
416.94547
416.94545
416.94541
416.94549
416.94553
416.94544
416.94547
416.94548
416.94547
416.94546
416.94545
416.94542
416.94539
416.94547
416.94554
416.94543
416.94544
416.94545
416.94544
416.94543
416.94541
416.94539
416.94537
416.94546
416.94561
416.94553
416.94553
416.94552
416.94552
416.94551
416.94549
416.94547
416.94546
416.94561
424.6569
424.65676
424.6568
424.65682
424.65683
424.65683
424.65683
424.65681
424.65681
424.65689
424.65676
424.65669
424.65673
424.65675
424.65676
424.65676
424.65675
424.65673
424.65671
424.6568
424.6568
424.65673
424.65677
424.65679
424.6568
424.6568
424.65678
424.65676
424.65673
424.6568
424.65682
424.65675
424.65679
424.65681
424.65682
424.65681
424.6568
424.65677
424.65673
424.6568
424.65683
424.65676
424.6568
424.65682
424.65682
424.65682
424.6568
424.65676
424.65673
424.6568
424.65683
424.65676
424.6568
424.65681
424.65682
424.65681
424.65679
424.65675
424.65671
424.65678
424.65683
424.65675
424.65678
424.6568
424.6568
424.65679
424.65676
424.65673
424.65669
424.65676
424.65681
424.65673
424.65676
424.65677
424.65676
424.65675
424.65673
424.6567
424.65666
424.65674
424.65681
424.65671
424.65673
424.65673
424.65673
424.65671
424.65669
424.65666
424.65664
424.65672
424.65689
424.6568
424.6568
424.6568
424.6568
424.65678
424.65676
424.65674
424.65672
424.65687
432.2164
432.21626
432.21631
432.21633
432.21634
432.21634
432.21633
432.21631
432.21631
432.21638
432.21626
432.2162
432.21624
432.21626
432.21627
432.21627
432.21626
432.21623
432.21621
432.2163
432.21631
432.21624
432.21629
432.21631
432.21632
432.21631
432.21629
432.21626
432.21623
432.2163
432.21633
432.21626
432.21631
432.21633
432.21633
432.21633
432.21631
432.21627
432.21623
432.2163
432.21634
432.21627
432.21632
432.21633
432.21634
432.21633
432.21631
432.21627
432.21623
432.21629
432.21634
432.21627
432.21631
432.21633
432.21633
432.21632
432.2163
432.21626
432.21621
432.21628
432.21633
432.21626
432.21629
432.21631
432.21631
432.2163
432.21627
432.21623
432.21619
432.21625
432.21631
432.21623
432.21626
432.21627
432.21627
432.21626
432.21623
432.2162
432.21616
432.21622
432.21631
432.21621
432.21623
432.21623
432.21623
432.21621
432.21619
432.21616
432.21612
432.2162
432.21638
432.2163
432.2163
432.2163
432.21629
432.21628
432.21625
432.21622
432.2162
432.21634
439.63199
439.63186
439.63191
439.63193
439.63194
439.63194
439.63192
439.63191
439.6319
439.63196
439.63186
439.6318
439.63185
439.63187
439.63188
439.63187
439.63186
439.63183
439.63181
439.63188
439.63191
439.63185
439.63189
439.63192
439.63192
439.63192
439.6319
439.63186
439.63182
439.63189
439.63193
439.63187
439.63192
439.63194
439.63194
439.63194
439.63191
439.63188
439.63183
439.63189
439.63194
439.63188
439.63192
439.63194
439.63195
439.63194
439.63191
439.63187
439.63182
439.63188
439.63194
439.63187
439.63192
439.63194
439.63194
439.63193
439.6319
439.63186
439.63181
439.63186
439.63192
439.63186
439.6319
439.63191
439.63191
439.6319
439.63187
439.63183
439.63178
439.63184
439.63191
439.63183
439.63186
439.63188
439.63187
439.63186
439.63183
439.63179
439.63174
439.6318
439.6319
439.63181
439.63182
439.63183
439.63182
439.63181
439.63178
439.63174
439.6317
439.63177
439.63196
439.63188
439.63189
439.63189
439.63188
439.63186
439.63184
439.6318
439.63177
439.6319
446.91096
446.91084
446.91089
446.91091
446.91092
446.91092
446.9109
446.91088
446.91087
446.91092
446.91084
446.91078
446.91083
446.91086
446.91087
446.91086
446.91084
446.91081
446.91078
446.91085
446.91089
446.91083
446.91088
446.91091
446.91091
446.91091
446.91088
446.91085
446.9108
446.91086
446.91091
446.91086
446.91091
446.91093
446.91094
446.91093
446.9109
446.91086
446.91081
446.91086
446.91092
446.91087
446.91091
446.91094
446.91094
446.91093
446.9109
446.91086
446.9108
446.91085
446.91092
446.91086
446.91091
446.91093
446.91093
446.91091
446.91088
446.91084
446.91078
446.91083
446.9109
446.91084
446.91088
446.9109
446.9109
446.91088
446.91085
446.91081
446.91075
446.9108
446.91088
446.91081
446.91085
446.91086
446.91086
446.91084
446.91081
446.91076
446.91071
446.91076
446.91087
446.91078
446.9108
446.91081
446.9108
446.91078
446.91075
446.91071
446.91067
446.91073
446.91092
446.91085
446.91086
446.91086
446.91085
446.91083
446.9108
446.91076
446.91073
446.91086
454.06009
454.05998
454.06003
454.06005
454.06006
454.06005
454.06004
454.06001
454.05999
454.06005
454.05998
454.05993
454.05998
454.06
454.06001
454.06
454.05998
454.05995
454.05991
454.05998
454.06003
454.05998
454.06003
454.06005
454.06006
454.06005
454.06002
454.05998
454.05994
454.05999
454.06005
454.06
454.06005
454.06007
454.06008
454.06007
454.06004
454.06
454.05994
454.05999
454.06006
454.06001
454.06006
454.06008
454.06008
454.06007
454.06004
454.05999
454.05993
454.05998
454.06005
454.06
454.06005
454.06007
454.06007
454.06005
454.06002
454.05997
454.05991
454.05996
454.06004
454.05998
454.06002
454.06004
454.06004
454.06002
454.05999
454.05994
454.05988
454.05992
454.06001
454.05995
454.05998
454.06
454.05999
454.05997
454.05994
454.05989
454.05984
454.05988
454.05999
454.05991
454.05994
454.05994
454.05993
454.05991
454.05988
454.05984
454.05979
454.05984
454.06005
454.05998
454.05999
454.05999
454.05998
454.05996
454.05992
454.05988
454.05984
454.05996
461.08567
461.08557
461.08562
461.08565
461.08566
461.08565
461.08563
461.0856
461.08558
461.08563
461.08557
461.08553
461.08558
461.0856
461.08561
461.0856
461.08558
461.08554
461.0855
461.08556
461.08562
461.08558
461.08563
461.08565
461.08566
461.08565
461.08562
461.08558
461.08553
461.08557
461.08565
461.0856
461.08565
461.08568
461.08568
461.08567
461.08564
461.08559
461.08553
461.08557
461.08566
461.08561
461.08566
461.08568
461.08568
461.08567
461.08564
461.08559
461.08553
461.08556
461.08565
461.0856
461.08565
461.08567
461.08567
461.08565
461.08562
461.08557
461.0855
461.08554
461.08563
461.08558
461.08562
461.08564
461.08564
461.08562
461.08558
461.08553
461.08547
461.08551
461.0856
461.08554
461.08558
461.08559
461.08559
461.08557
461.08553
461.08548
461.08542
461.08546
461.08558
461.0855
461.08553
461.08553
461.08553
461.0855
461.08547
461.08542
461.08537
461.08542
461.08563
461.08556
461.08557
461.08557
461.08556
461.08554
461.08551
461.08546
461.08542
461.08553
467.99361
467.99351
467.99357
467.99359
467.9936
467.99359
467.99357
467.99354
467.99352
467.99356
467.99351
467.99348
467.99353
467.99355
467.99356
467.99355
467.99353
467.99349
467.99345
467.9935
467.99357
467.99353
467.99358
467.9936
467.99361
467.9936
467.99357
467.99353
467.99347
467.99351
467.99359
467.99355
467.9936
467.99363
467.99363
467.99362
467.99359
467.99354
467.99348
467.99351
467.9936
467.99356
467.99361
467.99363
467.99363
467.99362
467.99358
467.99353
467.99347
467.9935
467.99359
467.99355
467.9936
467.99362
467.99362
467.9936
467.99356
467.99351
467.99344
467.99347
467.99357
467.99353
467.99357
467.99359
467.99358
467.99356
467.99353
467.99347
467.99341
467.99344
467.99354
467.99349
467.99353
467.99354
467.99353
467.99351
467.99347
467.99342
467.99336
467.99339
467.99352
467.99345
467.99347
467.99348
467.99347
467.99344
467.99341
467.99336
467.9933
467.99334
467.99356
467.9935
467.99351
467.99351
467.9935
467.99347
467.99344
467.99339
467.99334
467.99345
474.78941
474.78933
474.78938
474.7894
474.78941
474.7894
474.78938
474.78935
474.78932
474.78935
474.78933
474.78929
474.78934
474.78937
474.78938
474.78937
474.78934
474.7893
474.78925
474.7893
474.78938
474.78934
474.7894
474.78942
474.78942
474.78941
474.78938
474.78934
474.78928
474.78931
474.7894
474.78937
474.78942
474.78944
474.78945
474.78943
474.7894
474.78935
474.78928
474.78931
474.78941
474.78938
474.78942
474.78945
474.78945
474.78943
474.7894
474.78934
474.78927
474.7893
474.7894
474.78937
474.78941
474.78943
474.78943
474.78941
474.78938
474.78932
474.78925
474.78928
474.78938
474.78934
474.78938
474.7894
474.7894
474.78938
474.78934
474.78928
474.78921
474.78924
474.78935
474.7893
474.78934
474.78935
474.78934
474.78932
474.78928
474.78923
474.78916
474.78919
474.78932
474.78925
474.78928
474.78928
474.78927
474.78925
474.78921
474.78916
474.7891
474.78914
474.78935
474.7893
474.78931
474.78931
474.7893
474.78928
474.78924
474.78919
474.78914
474.78923
481.47826
481.47818
481.47823
481.47826
481.47826
481.47826
481.47823
481.4782
481.47817
481.4782
481.47818
481.47815
481.4782
481.47823
481.47823
481.47822
481.4782
481.47816
481.47811
481.47815
481.47823
481.4782
481.47826
481.47828
481.47828
481.47827
481.47824
481.47819
481.47813
481.47816
481.47826
481.47823
481.47828
481.4783
481.4783
481.47829
481.47825
481.4782
481.47814
481.47816
481.47826
481.47823
481.47828
481.4783
481.4783
481.47829
481.47825
481.4782
481.47813
481.47815
481.47826
481.47822
481.47827
481.47829
481.47829
481.47827
481.47823
481.47817
481.4781
481.47812
481.47823
481.4782
481.47824
481.47825
481.47825
481.47823
481.47819
481.47813
481.47806
481.47808
481.4782
481.47816
481.47819
481.4782
481.4782
481.47817
481.47813
481.47808
481.47801
481.47803
481.47817
481.47811
481.47813
481.47814
481.47813
481.4781
481.47806
481.47801
481.47795
481.47798
481.4782
481.47815
481.47816
481.47816
481.47815
481.47812
481.47808
481.47803
481.47798
481.47807
488.06502
488.06495
488.06501
488.06503
488.06503
488.06502
488.065
488.06496
488.06493
488.06496
488.06495
488.06493
488.06498
488.065
488.06501
488.065
488.06497
488.06493
488.06488
488.06491
488.06501
488.06498
488.06503
488.06505
488.06506
488.06504
488.06501
488.06496
488.0649
488.06492
488.06503
488.065
488.06505
488.06507
488.06508
488.06506
488.06503
488.06497
488.06491
488.06492
488.06503
488.06501
488.06506
488.06508
488.06508
488.06506
488.06502
488.06497
488.0649
488.06491
488.06502
488.065
488.06504
488.06506
488.06506
488.06504
488.065
488.06494
488.06487
488.06489
488.065
488.06497
488.06501
488.06503
488.06502
488.065
488.06496
488.0649
488.06483
488.06485
488.06496
488.06493
488.06496
488.06497
488.06497
488.06494
488.0649
488.06485
488.06478
488.06479
488.06493
488.06488
488.0649
488.06491
488.0649
488.06487
488.06483
488.06478
488.06471
488.06474
488.06496
488.06491
488.06492
488.06492
488.06491
488.06489
488.06485
488.06479
488.06474
488.06482
494.5543
494.55424
494.55428
494.55431
494.55431
494.5543
494.55428
494.55424
494.5542
494.55423
494.55424
494.55422
494.55426
494.55429
494.55429
494.55428
494.55425
494.55421
494.55416
494.55418
494.55428
494.55426
494.55431
494.55433
494.55434
494.55432
494.55429
494.55424
494.55418
494.55419
494.55431
494.55429
494.55433
494.55435
494.55435
494.55434
494.5543
494.55425
494.55418
494.55419
494.55431
494.55429
494.55434
494.55435
494.55435
494.55433
494.5543
494.55424
494.55417
494.55418
494.5543
494.55428
494.55432
494.55434
494.55433
494.55431
494.55428
494.55422
494.55415
494.55416
494.55428
494.55425
494.55429
494.5543
494.5543
494.55428
494.55424
494.55418
494.55411
494.55412
494.55424
494.55421
494.55424
494.55425
494.55424
494.55422
494.55418
494.55412
494.55405
494.55407
494.5542
494.55416
494.55418
494.55418
494.55417
494.55415
494.55411
494.55405
494.55399
494.55401
494.55423
494.55418
494.55419
494.55419
494.55418
494.55416
494.55412
494.55407
494.55401
494.55408
500.95041
500.95036
500.9504
500.95043
500.95043
500.95042
500.95039
500.95036
500.95032
500.95034
500.95036
500.95034
500.95039
500.95041
500.95041
500.9504
500.95037
500.95033
500.95028
500.9503
500.9504
500.95039
500.95043
500.95045
500.95045
500.95044
500.95041
500.95036
500.9503
500.95031
500.95043
500.95041
500.95045
500.95047
500.95047
500.95045
500.95042
500.95037
500.9503
500.95031
500.95043
500.95041
500.95045
500.95047
500.95047
500.95045
500.95042
500.95036
500.95029
500.9503
500.95042
500.9504
500.95044
500.95045
500.95045
500.95043
500.95039
500.95034
500.95027
500.95027
500.95039
500.95037
500.95041
500.95042
500.95042
500.95039
500.95035
500.9503
500.95023
500.95023
500.95036
500.95033
500.95036
500.95037
500.95036
500.95034
500.9503
500.95024
500.95017
500.95018
500.95032
500.95028
500.9503
500.9503
500.95029
500.95027
500.95023
500.95017
500.95011
500.95013
500.95034
500.9503
500.95031
500.95031
500.9503
500.95027
500.95023
500.95018
500.95013
500.95019
507.25747
507.25742
507.25746
507.25748
507.25749
507.25747
507.25745
507.25741
507.25738
507.25739
507.25742
507.25741
507.25745
507.25747
507.25747
507.25746
507.25743
507.25739
507.25734
507.25736
507.25746
507.25745
507.25749
507.25751
507.25751
507.2575
507.25747
507.25742
507.25736
507.25737
507.25748
507.25747
507.25751
507.25753
507.25753
507.25751
507.25748
507.25743
507.25736
507.25737
507.25749
507.25747
507.25751
507.25753
507.25753
507.25751
507.25747
507.25742
507.25735
507.25735
507.25747
507.25746
507.2575
507.25751
507.25751
507.25749
507.25745
507.2574
507.25733
507.25733
507.25745
507.25743
507.25747
507.25748
507.25747
507.25745
507.25741
507.25736
507.25729
507.25729
507.25741
507.25739
507.25742
507.25743
507.25742
507.2574
507.25736
507.2573
507.25724
507.25724
507.25738
507.25734
507.25736
507.25736
507.25735
507.25733
507.25729
507.25724
507.25717
507.25719
507.25739
507.25736
507.25737
507.25737
507.25735
507.25733
507.25729
507.25724
507.25719
507.25724
513.47934
513.4793
513.47934
513.47936
513.47937
513.47935
513.47933
513.47929
513.47926
513.47927
513.4793
513.4793
513.47933
513.47935
513.47935
513.47934
513.47931
513.47927
513.47922
513.47924
513.47934
513.47933
513.47937
513.47939
513.47939
513.47938
513.47935
513.4793
513.47924
513.47925
513.47936
513.47935
513.47939
513.47941
513.47941
513.47939
513.47936
513.47931
513.47924
513.47925
513.47937
513.47935
513.47939
513.47941
513.4794
513.47938
513.47935