/*--------------------------------*- C++ -*----------------------------------*\
| =========                 |                                                 |
| \\      /  F ield         | OpenFOAM: The Open Source CFD Toolbox           |
|  \\    /   O peration     | Version:  v2106                                 |
|   \\  /    A nd           | Website:  www.openfoam.com                      |
|    \\/     M anipulation  |                                                 |
\*---------------------------------------------------------------------------*/
FoamFile
{
    version     2.0;
    format      ascii;
    arch        "LSB;label=32;scalar=64";
    class       volScalarField;
    location    "30";
    object      gradTx;
}
// * * * * * * * * * * * * * * * * * * * * * * * * * * * * * * * * * * * * * //

dimensions      [0 -1 0 1 0 0 0];

internalField   nonuniform List<scalar> 
4000
(
-9.902583e-05
0.00028341022
0.00021968428
-0.00037125963
-0.00020632195
-3.27196e-05
5.2444009e-05
7.0213785e-05
4.9736827e-05
1.15731e-05
0.0002052192
0.00046359108
-8.7665411e-05
-0.00038867009
-0.00017982767
-7.3666068e-06
7.3110825e-05
6.3279329e-05
-1.4690339e-06
-1.2570805e-05
2.1094742e-05
0.00014705048
-0.00011991305
-0.00036949697
-0.00015663195
2.2618722e-05
0.00011360034
9.40868e-05
-3.4252395e-05
-3.9875986e-05
3.1940575e-07
0.00012399374
-0.00010165722
-0.00035025438
-0.00013694698
4.9044064e-05
0.00015462973
0.00015487889
3.9631714e-05
-1.4350646e-05
9.4877716e-06
0.00014881314
-8.1497349e-05
-0.00033282832
-0.00011975105
6.8558785e-05
0.00017914544
0.00018613038
7.4605228e-05
-2.626706e-06
1.7982256e-05
0.00017368375
-5.877653e-05
-0.00031337348
-0.00010295418
8.3918333e-05
0.00019345916
0.00019906491
8.4862368e-05
1.8046527e-07
2.638977e-05
0.00020415147
-2.5086673e-05
-0.00028688825
-8.487678e-05
9.6866219e-05
0.0002024681
0.00020375421
8.5352041e-05
-2.9487145e-07
3.1760135e-05
0.00023484008
2.2742379e-05
-0.00024782838
-6.4124759e-05
0.00010724099
0.00020630688
0.00020112385
7.7320815e-05
-3.6606764e-06
2.1766801e-05
0.00022802448
6.6512885e-05
-0.00019484467
-4.069076e-05
0.00011449006
0.00020452703
0.00019048728
5.9215552e-05
-1.0628162e-05
-2.3771084e-06
0.00015085086
6.3843129e-05
-0.00013897076
-1.8894099e-05
0.00011798782
0.00019876533
0.00017498735
3.619381e-05
-1.9008507e-05
-0.00019377515
0.00057093359
0.00031092505
-0.00097068918
-0.00054672471
-7.5095002e-05
0.00016952897
0.00021398349
0.00018770312
6.1091212e-05
0.0003506168
0.00083592834
-0.00030354918
-0.00100146
-0.0004795677
-1.2349499e-06
0.00022952113
0.00016576329
1.237911e-05
-9.5254052e-06
-1.7111987e-05
0.00018476053
-0.000390634
-0.00096096472
-0.00041583307
8.8782394e-05
0.00035215872
0.00025196831
-8.4336694e-05
-8.5906356e-05
-5.9032686e-05
0.00013436928
-0.00035432036
-0.00091150194
-0.00035847258
0.00016819484
0.00047464651
0.00042629278
0.00011512224
-1.9285456e-05
-3.7625868e-05
0.00019448499
-0.00030067594
-0.00086104763
-0.00030695257
0.00022708932
0.00054875184
0.00051971963
0.00021865444
1.5395107e-05
-1.4261352e-05
0.00026526093
-0.00023322523
-0.00080262145
-0.00025634621
0.00027341505
0.00059231329
0.00055975598
0.00025166757
2.4804581e-05
1.1614167e-05
0.00035836239
-0.00013124614
-0.00072274071
-0.00020173237
0.00031223753
0.00061880842
0.00057281434
0.00025141644
2.2662712e-05
2.5733425e-05
0.00044789068
1.190015e-05
-0.00060602833
-0.00013867945
0.00034347164
0.00062856504
0.00056057952
0.00021873397
8.8042295e-06
-2.0532633e-05
0.0003963472
0.00012928335
-0.00045498939
-6.8269172e-05
0.00036533223
0.00061963196
0.00051983192
0.0001495331
-1.8094447e-05
-9.1149252e-05
0.00017585085
0.00011464327
-0.00030303719
-2.1341141e-06
0.00037623364
0.00059563144
0.00045869618
8.3169686e-05
-3.5438047e-05
-0.00026136604
0.00062177798
0.00016593486
-0.001473405
-0.00079879554
-5.9440515e-05
0.0003218624
0.0003385125
0.0003467368
0.00014416298
0.00043201628
0.00096284293
-0.00060976446
-0.001503229
-0.00069468548
6.8887351e-05
0.00043378069
0.00022430238
-3.3713128e-05
-6.107768e-06
-3.3989403e-05
0.0001327627
-0.00072334417
-0.0014430155
-0.00059344305
0.00022001711
0.00064752841
0.00038175762
-0.00016608084
-0.00011856377
-8.5116598e-05
7.3563909e-05
-0.00067022297
-0.0013664511
-0.00050052741
0.00035064449
0.00084889873
0.0006614854
0.00014185059
-1.7945782e-05
-5.3872068e-05
0.00016315214
-0.00058656627
-0.0012847573
-0.00041561047
0.00044798539
0.00097105611
0.00081346474
0.00030757271
3.7199348e-05
-1.570989e-05
0.0002789164
-0.00047606489
-0.0011886185
-0.00033173256
0.00052496304
0.0010434977
0.00087993144
0.0003625981
5.302742e-05
3.167984e-05
0.00044260976
-0.00030480914
-0.001056789
-0.00024129191
0.00058909916
0.0010861314
0.00089849102
0.00035685889
4.7332073e-05
5.89023e-05
0.0006045824
-6.094686e-05
-0.00086509079
-0.00013713357
0.00064003834
0.0010977761
0.00086660781
0.00028022455
1.4757242e-05
-4.4460237e-05
0.00048585489
0.00013237388
-0.00062508192
-2.284587e-05
0.00067412543
0.0010728078
0.00077396218
0.00012749774
-4.381161e-05
-0.00019473098
9.1764763e-05
0.00011461686
-0.00039143724
8.3613928e-05
0.00068932452
0.0010154025
0.00063724665
0.00010904561
2.4558283e-06
-0.00035805646
0.00060366726
3.5171934e-05
-0.0018966763
-0.00097799805
2.0902766e-05
0.00052691499
0.00045292125
0.00042323088
0.0001929467
0.00047169289
0.001022509
-0.00087733991
-0.0019224991
-0.00083750563
0.00020804936
0.00070709507
0.00030050937
-0.00011269447
-1.431616e-05
-7.8828649e-05
4.267594e-05
-0.0010072613
-0.0018413908
-0.00070002301
0.0004188145
0.0010100765
0.00052200005
-0.0002882177
-0.0001638454
-0.00013664833
-1.9924227e-05
-0.00093555441
-0.001737988
-0.0005726144
0.0005990656
0.0012873392
0.00089900022
0.00011294829
-3.533829e-05
-9.6043842e-05
9.7961352e-05
-0.00082275017
-0.0016258348
-0.00045510808
0.00073390961
0.0014561899
0.0011065142
0.00033524202
3.7971692e-05
-4.2986717e-05
0.00025805081
-0.00067066316
-0.001493073
-0.00033881115
0.00084067591
0.0015565743
0.0011981906
0.0004108888
5.9776227e-05
2.8720553e-05
0.00049587308
-0.00043173394
-0.0013107397
-0.00021349778
0.00092903661
0.0016135822
0.0012191079
0.00039494293
4.8730908e-05
7.7133339e-05
0.00074121232
-9.041904e-05
-0.0010469596
-6.9576102e-05
0.0009980682
0.0016227596
0.0011565033
0.00025262714
-1.1821754e-05
-7.2887369e-05
0.00056495189
0.00016675691
-0.0007262255
8.5692648e-05
0.0010416303
0.0015718949
0.00098361189
-3.4948904e-05
-0.00012260272
-0.00028015023
2.9763734e-05
0.00013522372
-0.00042349987
0.00022836442
0.0010577691
0.0014644979
0.00072661144
6.563269e-05
5.5232645e-05
-0.00044522711
0.00061297442
-4.7760675e-05
-0.0022524816
-0.0010949909
0.00016175617
0.00079624366
0.00061984888
0.00051261479
0.00023744555
0.00051279501
0.0011030518
-0.0010908104
-0.0022743478
-0.00091973123
0.00040642494
0.0010450794
0.0004310473
-0.00016561422
-1.8706779e-05
-0.00011850889
-1.8700272e-05
-0.0012344087
-0.0021722836
-0.0007471997
0.000674743
0.0014336992
0.00070922486
-0.00038949406
-0.00020543373
-0.0001825715
-8.3596316e-05
-0.0011436735
-0.0020423628
-0.00058624387
0.00090305053
0.0017840217
0.0011774298
9.5889776e-05
-5.2256263e-05
-0.00013308639
6.1497662e-05
-0.0010024237
-0.0019005031
-0.00043711234
0.0010742008
0.0019979653
0.0014377754
0.00037069611
3.7683389e-05
-6.5731719e-05
0.00026419489
-0.00081018614
-0.0017322755
-0.00028951362
0.001209602
0.0021251502
0.0015534979
0.00046591598
6.5166379e-05
3.0026123e-05
0.00057448448
-0.00050579814
-0.0015010453
-0.00013056089
0.0013210252
0.0021953086
0.0015752641
0.00043786773
4.8085364e-05
0.00010015876
0.00090165042
-7.1243833e-05
-0.0011680093
5.1614931e-05
0.0014069453
0.0021998957
0.0014765364
0.0002179614
-4.5770976e-05
-9.5841589e-05
0.00066386048
0.00024058439
-0.00077249479
0.00024550719
0.0014585139
0.0021183471
0.0012070594
-0.00024037138
-0.00022442272
-0.00035199392
-4.5844399e-07
0.00019026016
-0.00040781912
0.00042164115
0.0014741169
0.0019519411
0.00079829728
-1.7184601e-05
0.00010302022
-0.00051976258
0.00065132701
-9.1860281e-05
-0.0025525954
-0.0011619529
0.00034770079
0.001110213
0.00082767368
0.00062278843
0.00028362551
0.0005591104
0.0012068204
-0.0012596918
-0.0025707277
-0.00095359571
0.00064760777
0.0014253715
0.00060165004
-0.00019369557
-1.8864296e-05
-0.00014943366
-5.0377053e-05
-0.0014158701
-0.0024482182
-0.00074724564
0.0009714092
0.0018962962
0.00093197306
-0.00046752866
-0.00024219053
-0.00021944393
-0.00011718945
-0.001306433
-0.0022924901
-0.00055386861
0.0012460574
0.0023168663
0.0014866787
9.6311731e-05
-6.6230708e-05
-0.00016152184
5.4000202e-05
-0.0011376325
-0.0021219061
-0.0003743015
0.0014520678
0.0025740648
0.0017973316
0.00042058733
3.9294573e-05
-8.0539129e-05
0.00029751782
-0.00090670595
-0.001919546
-0.00019673857
0.0016147368
0.0027267226
0.0019358965
0.00053453016
7.2262938e-05
3.8416145e-05
0.00067770862
-0.00053918293
-0.0016412475
-5.6220425e-06
0.0017479437
0.0028089889
0.0019577915
0.00049410375
4.9143754e-05
0.00012956658
0.001083601
-1.5211168e-05
-0.0012417773
0.00021311774
0.0018496609
0.0028080384
0.0018212147
0.00019260745
-7.9864717e-05
-0.00011226628
0.00078200801
0.00034584576
-0.00077588895
0.00044359569
0.0019084036
0.0026943072
0.0014490827
-0.00045095972
-0.00033281053
-0.00041475609
-6.7160404e-06
0.00027479613
-0.00035366131
0.00065133616
0.0019231774
0.0024661157
0.00087615121
-0.00011287893
0.00014552248
-0.00058542828
0.00070639421
-0.00010836996
-0.0028061597
-0.0011891449
0.0005650802
0.0014509458
0.0010597408
0.00074658534
0.00033121223
0.00060719069
0.0013229998
-0.0013940338
-0.0028205554
-0.00094917501
0.00091804547
0.0018300782
0.00079703328
-0.00020374451
-1.5741513e-05
-0.00017435792
-6.212165e-05
-0.0015618451
-0.0026783621
-0.00071038114
0.0012951246
0.0023799886
0.001176388
-0.00052701342
-0.00027454459
-0.00024991856
-0.00013047537
-0.0014343622
-0.0024978327
-0.00048593389
0.0016141628
0.0028678014
0.0018133297
0.00011068689
-7.7246721e-05
-0.00018395505
6.5675865e-05
-0.0012391225
-0.0022997357
-0.00027731906
0.0018533848
0.0031662086
0.0021717632
0.00048174168
4.2992009e-05
-8.993863e-05
0.00034828838
-0.0009711211
-0.0020647706
-7.1294593e-05
0.0020418096
0.0033428637
0.0023318557
0.00061349913
8.1237483e-05
5.1355128e-05
0.0007957203
-0.00054300511
-0.0017414755
0.00015032769
0.0021954089
0.0034361806
0.0023533633
0.00056092617
5.2296776e-05
0.00016281629
0.0012773311
6.6602148e-05
-0.0012785505
0.0004037677
0.0023117815
0.0034291588
0.0021789001
0.00017783199
-0.00011191809
-0.0001237832
0.00091236759
0.00047329136
-0.00074610035
0.00066885364
0.0023770089
0.0032832251
0.001703449
-0.00065380399
-0.00044055592
-0.00047073695
3.7323683e-06
0.00038103355
-0.00026979545
0.00090657995
0.0023909661
0.0029934917
0.00096416994
-0.00020753572
0.0001855941
-0.00064425786
0.00077029443
-0.00010511217
-0.0030195998
-0.0011844034
0.00080383625
0.0018063772
0.0013051464
0.00087820059
0.00037933217
0.00065467513
0.0014440471
-0.0015007373
-0.0030301942
-0.0009143597
0.0012075688
0.0022470012
0.0010071108
-0.00020037282
-9.9923243e-06
-0.00019508943
-6.0525439e-05
-0.0016791841
-0.0028692415
-0.00064468791
0.0016354574
0.0028722907
0.0014327461
-0.00057152426
-0.00030278419
-0.00027574165
-0.00013002484
-0.0015344879
-0.0026651178
-0.00039071483
0.0019966988
0.0034240523
0.0021475739
0.00013562912
-8.5509187e-05
-0.00020215234
8.9832873e-05
-0.0013141077
-0.0024408953
-0.0001545876
0.0022673376
0.0037614578
0.0025511609
0.00055078241
4.8586863e-05
-9.5712512e-05
0.00040969065
-0.001010843
-0.0021750175
7.8288326e-05
0.0024799353
0.0039605667
0.002731388
0.00069931964
9.1844244e-05
6.7002718e-05
0.00092145406
-0.0005249777
-0.0018090151
0.0003286489
0.0026524977
0.0040638745
0.0027520241
0.00063487751
5.7311026e-05
0.00019803679
0.0014756041
0.00016620812
-0.0012858503
0.00061480272
0.002782352
0.0040503948
0.002540322
0.00017192837
-0.00014135896
-0.00013168766
0.0010490538
0.00061548537
-0.00069060025
0.00091246309
0.0028533608
0.0038728084
0.001963403
-0.00084510805
-0.00054473337
-0.00052101215
2.5879235e-05
0.00050221007
-0.00016354367
0.0011784932
0.0028664471
0.0035230036
0.0010603364
-0.00029570682
0.00022490852
-0.00069699464
0.00083854194
-8.7405957e-05
-0.0031974906
-0.0011538774
0.0010561805
0.0021678354
0.0015565787
0.0010134227
0.00042711475
0.0007002387
0.0015652681
-0.0015844076
-0.0032042379
-0.00085546154
0.0015081306
0.002667162
0.0012249566
-0.00018683745
-2.2026294e-06
-0.00021251054
-4.9508031e-05
-0.0017724293
-0.0030255758
-0.00055666054
0.0019840773
0.0033638366
0.001694062
-0.00060376228
-0.00032722448
-0.00029776238
-0.00011975524
-0.0016114726
-0.0027992126
-0.00027486565
0.0023851204
0.0039759428
0.0024821332
0.00016826066
-9.1376127e-05
-0.00021700876
0.00012240681
-0.001367404
-0.0025503904
-1.2878471e-05
0.0026852655
0.004349996
0.0029281076
0.00062471627
5.5684779e-05
-9.8818438e-05
0.00047746166
-0.0010308767
-0.0022554305
0.00024515824
0.0029204155
0.0045699947
0.0031270489
0.00078891912
0.00010364812
8.4291314e-05
0.0010503035
-0.00049041416
-0.0018492022
0.0005224166
0.0031105203
0.0046822861
0.0031463908
0.00071290006
6.3742055e-05
0.00023406596
0.0016734629
0.00027790409
-0.0012692712
0.00083921019
0.0032527056
0.0046620955
0.002898479
0.00017271215
-0.00016823694
-0.00013679008
0.0011877868
0.00076676246
-0.00061515651
0.0011673323
0.0033288035
0.0044537161
0.0022232275
-0.0010243007
-0.00064422418
-0.00056610745
5.6277989e-05
0.00063300221
-4.0792623e-05
0.0014598686
0.0033408894
0.0040458886
0.0011612782
-0.00037611702
0.00026388553
-0.00074392177
0.00090817071
-5.9080518e-05
-0.0033431403
-0.0011024648
0.001315801
0.0025285223
0.0018085922
0.0011489759
0.00047376445
0.00074299744
0.0016833821
-0.0016482463
-0.0033460218
-0.00077754909
0.0018131382
0.0030834239
0.0014453777
-0.00016561252
7.0906579e-06
-0.00022711418
-3.1664503e-05
-0.0018447204
-0.0031508041
-0.00045153198
0.0023341219
0.003847093
0.0019549596
-0.00062582507
-0.00034817915
-0.00031644642
-0.00010225782
-0.0016685513
-0.0029036783
-0.00014376017
0.0027723656
0.0045156299
0.0028112747
0.00020619088
-9.5243075e-05
-0.00022903515
0.00016067174
-0.0014023769
-0.0026319022
0.00014232686
0.0030999951
0.0049238401
0.0032967083
0.00070099208
6.38377e-05
-9.9835967e-05
0.00054867498
-0.0010347624
-0.0023098194
0.0004237537
0.0033560353
0.0051631449
0.0035129268
0.00087970224
0.00011617788
0.00010252299
0.0011789927
-0.00044314943
-0.0018660291
0.00072599656
0.0035622696
0.0052834749
0.0035306413
0.0007924661
7.113206e-05
0.00027009846
0.0018672457
0.00039744357
-0.0012330723
0.0010712688
0.0037156701
0.0052564616
0.003247859
0.00017824872
-0.00019275474
-0.00013962004
0.0013253601
0.00092274758
-0.00052428037
0.0014276487
0.0037962026
0.005018407
0.0024782462
-0.0011916513
-0.00073853766
-0.00060629383
9.2444681e-05
0.00076924699
9.3744903e-05
0.0017447801
0.0038071441
0.0045550081
0.0012637416
-0.00044904077
0.00030231892
-0.00078516028
0.00097697984
-2.3000957e-05
-0.0034589373
-0.0010340566
0.0015775113
0.0028828798
0.0020568758
0.0012822425
0.00051859643
0.00078227614
0.0017958886
-0.0016945486
-0.0034579555
-0.0006846708
0.0021171372
0.0034899011
0.0016642765
-0.00013859259
1.7437793e-05
-0.00023922115
-8.873468e-06
-0.001898294
-0.0032474279
-0.0003335013
0.0026798835
0.0043157909
0.0022111318
-0.00063930158
-0.00036590107
-0.00033208894
-7.9404491e-05
-0.0017080433
-0.0029811256
-1.7291853e-06
0.0031525349
0.0050365423
0.0031303237
0.00024751185
-9.7453555e-05
-0.00023856665
0.00020263591
-0.001421464
-0.0026881538
0.00030659097
0.0035055113
0.0054762709
0.0036521112
0.00077752298
7.2644195e-05
-9.9165055e-05
0.00062115084
-0.0010251017
-0.0023410333
0.00060954978
0.0037807225
0.0057332595
0.0038841399
0.000969543
0.00012901539
0.00012118397
0.0013050081
-0.00038606627
-0.001862526
0.00093477856
0.0040016591
0.0058607244
0.003899977
0.00087154334
7.9091897e-05
0.00030551584
0.002054062
0.00052153952
-0.0011805533
0.001306267
0.0041651761
0.0058269017
0.0035839426
0.00018700883
-0.00021509103
-0.00014054893
0.0014592641
0.001079981
-0.00042154659
0.0016885947
0.0042495249
0.0055605272
0.0027246111
-0.0013474401
-0.00082734275
-0.00064170756
0.00013251785
0.00090764397
0.00023627131
0.0020282981
0.0042591964
0.0050443675
0.0013649591
-0.00051510725
0.00033979754
-0.00082075223
0.0010432637
1.8643907e-05
-0.0035466046
-0.00095174957
0.0018370199
0.0032262712
0.002297908
0.0014111059
0.00056103741
0.00081753625
0.0019008137
-0.001724992
-0.0035417816
-0.00058006726
0.0024155852
0.0038816468
0.0018783239
-0.00010723015
2.8480359e-05
-0.00024905225
1.7448667e-05
-0.0019347757
-0.0033172734
-0.00020594921
0.0030165809
0.0047646214
0.0024590422
-0.00064537596
-0.00038057074
-0.00034488767
-5.2605869e-05
-0.0017316502
-0.0030334823
0.00014772148
0.0035206634
0.0055330807
0.0034353883
0.00029072822
-9.827645e-05
-0.00024583689
0.00024677985
-0.0014264764
-0.00272118
0.00047630231
0.003896731
0.0060015368
0.0039902419
0.00085263064
8.1776764e-05
-9.7099454e-05
0.00069319449
-0.0010038614
-0.0023512308
0.0007988421
0.0041893242
0.0062745312
0.004236567
0.0010567175
0.0001418169
0.0001398733
0.0014263409
-0.00032139825
-0.0018410299
0.0011449631
0.0044235018
0.0064082444
0.0042503411
0.0009485015
8.7311264e-05
0.0003398176
0.0022315447
0.00064757254
-0.0011143155
0.0015402926
0.0045960318
0.0063677254
0.0039029238
0.00019782204
-0.00023536395
-0.00013984941
0.001587475
0.0012356661
-0.00030983012
0.0019461418
0.004683601
0.0060746012
0.0029591118
-0.0014917624
-0.00091032336
-0.00067240646
0.00017506281
0.0010455309
0.00038369113
0.0023062818
0.0046919027
0.00550883
0.0014626599
-0.00057488361
0.00037588856
-0.0008506944
0.001105678
6.4153958e-05
-0.0036074039
-0.00085803796
0.0020907391
0.0035547731
0.0025287518
0.0015338306
0.00060060868
0.00084834453
0.0019965769
-0.001740829
-0.0035987808
-0.00046636453
0.0027046614
0.0042544472
0.0020847568
-7.2654415e-05
3.9934475e-05
-0.00025676182
4.620966e-05
-0.0019553745
-0.0033616989
-7.163172e-05
0.0033401715
0.0051890335
0.0026957325
-0.00064493625
-0.00039231096
-0.00035497742
-2.2951556e-05
-0.0017406509
-0.0030622014
0.00030171797
0.0038725345
0.0060004212
0.0037231777
0.00033466299
-9.7916106e-05
-0.00025101311
0.00029191461
-0.0014187951
-0.002732535
0.00064848465
0.0042693218
0.0064946644
0.0043076319
0.00092496138
9.0974947e-05
-9.38618e-05
0.00076345468
-0.00097256842
-0.002342085
0.00098856112
0.0045774325
0.006781922
0.004566683
0.0011398207
0.00015430507
0.00015826845
0.001541347
-0.00025092198
-0.0018033847
0.0013533826
0.0048233442
0.0069209964
0.0045782552
0.0010220196
9.5545077e-05
0.00037258757
0.0023977151
0.00077340564
-0.0010364541
0.0017700619
0.0050037645
0.0068739724
0.0042015478
0.00020979252
-0.00025363965
-0.00013772824
0.0017083277
0.0013874989
-0.00019148537
0.0021968879
0.0050939675
0.0065558613
0.0031790381
-0.0016245349
-0.00098715135
-0.00069840244
0.00021894824
0.001180723
0.00053344348
0.0025752196
0.0051008227
0.0059439442
0.0015549934
-0.00062878112
0.00041019618
-0.00087496054
0.0011631513
0.0001121853
-0.0036422929
-0.00075497245
0.0023356315
0.0038650266
0.0027469194
0.0016489721
0.00063690771
0.00087435302
0.0020819026
-0.0017430227
-0.0036299311
-0.00034573227
0.0029811156
0.0046046754
0.0022812422
-3.5763088e-05
5.1571736e-05
-0.00026245965
7.6550137e-05
-0.0019610194
-0.0033817531
6.7162918e-05
0.0036472017
0.0055850921
0.0029186923
-0.00063866355
-0.00040120565
-0.00036245231
8.6979611e-06
-0.0017360386
-0.0030684182
0.00045786305
0.0042045346
0.0064343781
0.0039908789
0.00037837583
-9.6528878e-05
-0.00025421844
0.00033709003
-0.0013995064
-0.0027234486
0.00082064455
0.0046195599
0.0069513274
0.0046013017
0.00099341154
0.00010003085
-8.9625521e-05
0.00083083333
-0.00093244332
-0.0023149366
0.0011761239
0.0049412489
0.007251039
0.0048714495
0.0012176967
0.00016625523
0.00017610428
0.0016486603
-0.00017608739
-0.0017510904
0.0015573589
0.0051973383
0.0073945779
0.0048807151
0.0010910144
0.00010359795
0.00040347369
0.0025508988
0.00089725943
-0.00094870127
0.0019927848
0.0053844995
0.0073413029
0.0044770102
0.00022222807
-0.00026994774
-0.00013434714
0.0018204332
0.0015335493
-6.8480941e-05
0.0024379295
0.0054767517
0.0070001387
0.0033820846
-0.0017455471
-0.0010574926
-0.00071968311
0.00026326314
0.0013113983
0.00068337382
0.0028321056
0.0054821023
0.0063458342
0.0016404488
-0.00067706633
0.00044237276
-0.00089351768
0.0012148224
0.00016165509
-0.0036520449
-0.00064428196
0.0025690938
0.0041541307
0.002950279
0.0017553141
0.00066959412
0.00089528494
0.0021557591
-0.0017323444
-0.0036360262
-0.00022000464
0.0032421531
0.0049291875
0.0024657853
2.7119088e-06
6.3204288e-05
-0.00026622648
0.00010777968
-0.0019524566
-0.0033782929
0.00020849457
0.0039346953
0.0059493772
0.003125769
-0.00062709714
-0.00040731517
-0.0003673814
4.1647453e-05
-0.0017186176
-0.003053068
0.00061411835
0.0045135429
0.0068313075
0.0042360718
0.00042110217
-9.4237187e-05
-0.00025554733
0.00038153167
-0.0013694984
-0.002694941
0.00099065587
0.0049442241
0.0073677534
0.0048686815
0.0010570712
0.00010877653
-8.4529855e-05
0.00089442399
-0.00088449464
-0.0022709067
0.0013593221
0.0052774825
0.0076780468
0.00514824
0.0012893858
0.00017748364
0.00019315888
0.0017471332
-9.8108654e-05
-0.0016854122
0.0017545955
0.0055421448
0.0078251406
0.0051551213
0.0011545896
0.00011131216
0.00043217471
0.0026896705
0.0010176253
-0.00085253046
0.0022060614
0.0057348697
0.0077659207
0.0047268895
0.00023458838
-0.00028429421
-0.00012983691
0.0019226232
0.0016721778
5.7500321e-05
0.0026667637
0.0058285846
0.0074037901
0.0035662849
-0.001854511
-0.0011210185
-0.00073622674
0.00030725925
0.0014360156
0.00083163787
0.003074345
0.005832388
0.0067111233
0.0017177888
-0.0007198958
0.00047211596
-0.00090633804
0.0012599959
0.00021167261
-0.0036373363
-0.0005274646
0.0027888711
0.0044195668
0.003136992
0.0018518247
0.00069837989
0.00091092475
0.0022173151
-0.0017094443
-0.0036177632
-9.0770334e-05
0.0034853514
0.0052252489
0.0026366651
4.2158433e-05
7.467422e-05
-0.0002681252
0.00013933145
-0.0019303206
-0.0033520712
0.00035068255
0.0042000711
0.0062789133
0.0033151065
-0.00061068077
-0.00041068748
-0.00036981986
7.5321856e-05
-0.0016890732
-0.0030169718
0.00076871714
0.004796852
0.0071880387
0.0044566704
0.00046220967
-9.1139975e-05
-0.00025507647
0.00042459657
-0.0013295292
-0.002647908
0.0011566746
0.0052405186
0.0077406597
0.0051075552
0.0011151834
0.00011707429
-7.8690359e-05
0.000953469
-0.0008295857
-0.0022109798
0.0015362386
0.0055832749
0.008059606
0.0053947879
0.0013540866
0.00018783856
0.00020924375
0.0018357966
-1.8028664e-05
-0.0016074605
0.0019430975
0.0058548618
0.0082093322
0.0053992296
0.0012119991
0.00011855885
0.00045843104
0.0028128155
0.0011332041
-0.00074923338
0.0024078059
0.0060519474
0.0081445186
0.0049490995
0.0002464477
-0.00029667083
-0.00012430743
0.0020139112
0.0018019766
0.0001849881
0.002881215
0.0061465362
0.0077636438
0.0037299632
-0.0019511013
-0.0011774172
-0.0007480131
0.00035031014
0.0015532553
0.00097663075
0.0032996828
0.0061487631
0.0070368797
0.0017859992
-0.00075734981
0.00049916346
-0.00091340766
0.0012981101
0.00026148897
-0.0035988121
-0.00040585464
0.0029929944
0.0046591443
0.003305467
0.0019376261
0.00072302257
0.00092111108
0.0022659084
-0.0016749031
-0.0035758079
4.056129e-05
0.0037085988
0.0054904816
0.0027923895
8.2051508e-05
8.5846045e-05
-0.00026820878
0.00017072955
-0.0018951856
-0.0033038001
0.00049224048
0.0044410836
0.0065711192
0.0034851014
-0.00058979581
-0.00041136616
-0.00036981698
0.00010923384
-0.0016480224
-0.0029608991
0.00092010067
0.0050521103
0.0075018269
0.004650882
0.00050116698
-8.7320186e-05
-0.00025287263
0.00046574154
-0.0012802769
-0.0025831824
0.0013170765
0.0055060169
0.0080672067
0.0053160213
0.0011671147
0.00012480978
-7.2206359e-05
0.001007329
-0.00076848301
-0.0021360631
0.0017051877
0.0058561472
0.0083928294
0.0056091492
0.0014111283
0.00019719368
0.00022419692
0.0019138307
6.3234592e-05
-0.001518249
0.0021211135
0.0061329735
0.0085442549
0.0056111159
0.0012626202
0.00012523166
0.00048201847
0.0029193038
0.0012428623
-0.00063997566
0.0025961902
0.0063331954
0.0084742385
0.0051418555
0.00025746697
-0.00030706236
-0.00011785477
0.002093465
0.0019217271
0.0003126709
0.0030793807
0.0064280681
0.0080769612
0.0038716987
-0.0020349861
-0.0012264013
-0.00075503128
0.0003918819
0.0016619778
0.0011169348
0.0035061515
0.0064287009
0.0073205772
0.0018442493
-0.00078946019
0.00052328825
-0.00091473268
0.0013287137
0.00031046008
-0.0035371341
-0.00028067187
0.0031797355
0.0048709624
0.0034543291
0.0020119735
0.00074332059
0.00092573142
0.0023010235
-0.00162927
-0.0035108422
0.00017271153
0.0039100499
0.0057228275
0.0029316626
0.00012192962
9.6601381e-05
-0.00026652617
0.00020156514
-0.0018476031
-0.0032341989
0.00063182862
0.00465578
0.0068237723
0.0036343713
-0.00056478553
-0.0004093963
-0.00036742196
0.00014296023
-0.0015960515
-0.002885615
0.0010668713
0.00527728
0.0077703193
0.0048171774
0.0005375209
-8.2850299e-05
-0.00024899827
0.00050450028
-0.0012223759
-0.0025015795
0.0014704119
0.0057386219
0.0083449662
0.0054924655
0.0012123337
0.00013188681
-6.5166362e-05
0.0010554607
-0.00070189166
-0.0020470317
0.0018646708
0.0060939606
0.0086752513
0.0057896763
0.0014599499
0.00020544329
0.00023787803
0.0019805448
0.00014485421
-0.0014187376
0.0022870925
0.0063743129
0.0088274363
0.0057891507
0.0013059335
0.00013124186
0.00050274373
0.0030082707
0.0013456002
-0.00052583789
0.0027696028
0.0065764308
0.0087526433
0.0053036489
0.00026737277
-0.00031545191
-0.0001105663
0.002160587
0.002030369
0.00043935665
0.0032595914
0.0066709981
0.0083414089
0.0039902992
-0.0021058526
-0.0012677158
-0.00075728549
0.0004315117
0.0017611915
0.0012512813
0.0036920318
0.0066700306
0.0075600661
0.0018918627
-0.00081623248
0.00054429486
-0.00091034405
0.0013514475
0.00035801887
-0.0034530163
-0.00015305806
0.0033475729
0.0050533812
0.0035823955
0.0020742382
0.00075910975
0.00092471822
0.0023222736
-0.0015730909
-0.0034236
0.00030449636
0.0040880936
0.0059205211
0.0030533615
0.00016137727
0.00010683494
-0.00026312666
0.00023147869
-0.0017881302
-0.0031440289
0.0007682184
0.004842469
0.0070349833
0.0037617329
-0.00053597307
-0.00040482885
-0.00036268832
0.00017612448
-0.0015337433
-0.002791914
0.0012077582
0.0054706073
0.0079915307
0.0049542695
0.00057087933
-7.7796456e-05
-0.00024351578
0.00054046616
-0.0011564442
-0.0024039309
0.0016153717
0.0059365361
0.008571898
0.0056355402
0.0012503949
0.00013822344
-5.7652047e-05
0.0010974009
-0.00063048138
-0.0019447607
0.0020133434
0.0062948881
0.0089048054
0.0059349982
0.001500085
0.00021249852
0.00025016469
0.0020353622
0.00022606947
-0.0013098638
0.0024396525
0.0065770338
0.0090568078
0.0059319804
0.0013415079
0.00013651468
0.00052044119
0.003079003
0.0014405283
-0.00040784591
0.002926618
0.0067797978
0.0089776958
0.0054332278
0.00027594095
-0.0003218252
-0.00010252463
0.0022146996
0.0021269774
0.00056394358
0.0034203812
0.006873474
0.0085550374
0.0040847807
-0.0021634263
-0.0013011434
-0.00075479944
0.00046879168
0.0018500303
0.001378522
0.0038558237
0.0068709108
0.0077535518
0.0019282936
-0.00083766348
0.00056201665
-0.00090030102
0.0013660312
0.00040365388
-0.0033472523
-2.4104534e-05
0.0034951676
0.0052050017
0.0036886588
0.0021238966
0.00077026055
0.00091804557
0.0023293879
-0.0015069302
-0.0033148936
0.00043479919
0.0042413283
0.0060820694
0.0031565184
0.0002000116
0.00011645155
-0.00025806328
0.00026014627
-0.0017173508
-0.0030341194
0.00090026583
0.0049996965
0.0072031766
0.003866184
-0.00050367521
-0.00039772394
-0.00035567716
0.0002083832
-0.0014616982
-0.0026806461
0.0013415909
0.0056305984
0.0081638253
0.0050610974
0.00060089811
-7.2221623e-05
-0.00023649075
0.00057327921
-0.0010831034
-0.0022911095
0.0017507619
0.0060982392
0.0087463328
0.0057441487
0.0012809258
0.00014374896
-4.9741343e-05
0.0011327536
-0.00055490646
-0.00183015
0.0021499903
0.0064573927
0.0090798076
0.0060440058
0.0015311493
0.00021828443
0.0002609497
0.0020778082
0.00030616683
-0.0011925668
0.0025775562
0.0067395897
0.0092306879
0.0060385127
0.001368988
0.00014098641
0.00053497048
0.0031309285
0.0015268495
-0.00028699379
0.0030659726
0.0069417477
0.0091477429
0.0055295827
0.00028298346
-0.00032617401
-9.3810519e-05
0.0022553334
0.0022107457
0.0006853979
0.0035604646
0.0070339537
0.0087162647
0.0041543506
-0.0022074867
-0.0013265087
-0.00074761953
0.00050335665
0.001927736
0.0014976072
0.0039962237
0.0070298099
0.0078995771
0.0019531079
-0.00085375546
0.0005763135
-0.00088469378
0.0013722519
0.00044689205
-0.0032207355
0.00010512613
0.0036213419
0.0053246476
0.0037722724
0.0021605196
0.00077667604
0.00090572633
0.0023221994
-0.0014313871
-0.0031856341
0.00056254953
0.0043685419
0.0062062355
0.0032403063
0.00023747176
0.00012536374
-0.00025139541
0.00028726848
-0.0016358921
-0.0029053886
0.0010268903
0.0051262268
0.0073270751
0.0039468903
-0.00046821338
-0.00038815345
-0.00034645978
0.00023941528
-0.0013805508
-0.002552737
0.0014672789
0.0057560017
0.0082859015
0.0051368126
0.00062727036
-6.6188151e-05
-0.00022799443
0.00060261542
-0.001002995
-0.0021640495
0.0018754837
0.0062224702
0.0088669568
0.0058174326
0.0013036172
0.00014840146
-4.1510839e-05
0.0011611795
-0.00047582137
-0.0017041437
0.0022735061
0.0065802097
0.009198942
0.0061158392
0.0015528307
0.00022273768
0.0002701389
0.0021075003
0.00038446475
-0.0010678061
0.0026996916
0.0068607172
0.0093477689
0.0061079038
0.0013880845
0.00014460191
0.00054621441
0.003163607
0.0016038447
-0.00016426195
0.0031865466
0.0070610218
0.0092615014
0.0055919334
0.00028833748
-0.00032849893
-8.4505198e-05
0.0022821182
0.0022809711
0.00080273621
0.0036787182
0.0071511884
0.0088238631
0.0041983946
-0.0022378814
-0.0013436829
-0.0007358175
0.00053487397
0.0019936433
0.0016075686
0.0041121069
0.0071454891
0.0079970082
0.0019659675
-0.00086452804
0.00058706999
-0.00086364557
0.0013699533
0.00048728371
-0.0030744765
0.0002335817
0.0037250628
0.0054113511
0.0038325382
0.0021837642
0.00077828971
0.00088780944