/*--------------------------------*- C++ -*----------------------------------*\
| =========                 |                                                 |
| \\      /  F ield         | OpenFOAM: The Open Source CFD Toolbox           |
|  \\    /   O peration     | Version:  v2106                                 |
|   \\  /    A nd           | Website:  www.openfoam.com                      |
|    \\/     M anipulation  |                                                 |
\*---------------------------------------------------------------------------*/
FoamFile
{
    version     2.0;
    format      ascii;
    arch        "LSB;label=32;scalar=64";
    class       volVectorField;
    location    "30";
    object      gradT;
}
// * * * * * * * * * * * * * * * * * * * * * * * * * * * * * * * * * * * * * //

dimensions      [0 -1 0 1 0 0 0];

internalField   nonuniform List<vector> 
4000
(
(-9.902583e-05 -9.9025827e-05 735.03184)
(0.00028341022 0.0002052192 735.03135)
(0.00021968428 2.1094744e-05 735.03279)
(-0.00037125963 3.1940696e-07 735.032)
(-0.00020632195 9.4877743e-06 735.0314)
(-3.27196e-05 1.7982258e-05 735.03122)
(5.2444009e-05 2.6389769e-05 735.03128)
(7.0213785e-05 3.1760135e-05 735.03144)
(4.9736827e-05 2.1766799e-05 735.03157)
(1.15731e-05 -2.377106e-06 735.03166)
(0.0002052192 0.00028341022 735.03135)
(0.00046359108 0.00046359108 735.03232)
(-8.7665411e-05 0.00014705049 735.03284)
(-0.00038867009 0.00012399375 735.03194)
(-0.00017982767 0.00014881315 735.03139)
(-7.3666068e-06 0.00017368375 735.03126)
(7.3110825e-05 0.00020415147 735.03138)
(6.3279329e-05 0.00023484008 735.03156)
(-1.4690339e-06 0.00022802449 735.03161)
(-1.2570805e-05 0.00015085086 735.03157)
(2.1094742e-05 0.00021968428 735.03279)
(0.00014705048 -8.7665407e-05 735.03284)
(-0.00011991305 -0.00011991305 735.03321)
(-0.00036949697 -0.00010165722 735.03234)
(-0.00015663195 -8.1497349e-05 735.03183)
(2.2618722e-05 -5.8776532e-05 735.03175)
(0.00011360034 -2.5086678e-05 735.03193)
(9.40868e-05 2.2742375e-05 735.03221)
(-3.4252395e-05 6.6512885e-05 735.03229)
(-3.9875986e-05 6.3843123e-05 735.03208)
(3.1940575e-07 -0.00037125963 735.032)
(0.00012399374 -0.00038867009 735.03194)
(-0.00010165722 -0.00036949697 735.03234)
(-0.00035025438 -0.00035025438 735.0315)
(-0.00013694698 -0.00033282832 735.03103)
(4.9044064e-05 -0.00031337349 735.03099)
(0.00015462973 -0.00028688826 735.03124)
(0.00015487889 -0.00024782839 735.03161)
(3.9631714e-05 -0.00019484468 735.03183)
(-1.4350646e-05 -0.00013897076 735.03177)
(9.4877716e-06 -0.00020632195 735.0314)
(0.00014881314 -0.00017982768 735.03139)
(-8.1497349e-05 -0.00015663195 735.03183)
(-0.00033282832 -0.00013694698 735.03103)
(-0.00011975105 -0.00011975105 735.03059)
(6.8558785e-05 -0.00010295418 735.03058)
(0.00017914544 -8.487678e-05 735.03088)
(0.00018613038 -6.4124752e-05 735.03131)
(7.4605228e-05 -4.0690765e-05 735.03159)
(-2.626706e-06 -1.8894098e-05 735.0316)
(1.7982256e-05 -3.2719608e-05 735.03122)
(0.00017368375 -7.3666105e-06 735.03126)
(-5.877653e-05 2.2618723e-05 735.03175)
(-0.00031337348 4.9044066e-05 735.03099)
(-0.00010295418 6.8558788e-05 735.03058)
(8.3918333e-05 8.3918334e-05 735.03061)
(0.00019345916 9.6866222e-05 735.03093)
(0.00019906491 0.000107241 735.03139)
(8.4862368e-05 0.00011449006 735.0317)
(1.8046527e-07 0.00011798781 735.03173)
(2.638977e-05 5.2444006e-05 735.03128)
(0.00020415147 7.3110825e-05 735.03138)
(-2.5086673e-05 0.00011360034 735.03193)
(-0.00028688825 0.00015462973 735.03124)
(-8.487678e-05 0.00017914544 735.03088)
(9.6866219e-05 0.00019345915 735.03093)
(0.0002024681 0.0002024681 735.03128)
(0.00020375421 0.00020630688 735.03175)
(8.5352041e-05 0.00020452703 735.03207)
(-2.9487145e-07 0.00019876532 735.03209)
(3.1760135e-05 7.0213783e-05 735.03144)
(0.00023484008 6.327933e-05 735.03156)
(2.2742379e-05 9.4086794e-05 735.03221)
(-0.00024782838 0.00015487889 735.03161)
(-6.4124759e-05 0.00018613038 735.03131)
(0.00010724099 0.00019906491 735.03139)
(0.00020630688 0.00020375422 735.03175)
(0.00020112385 0.00020112384 735.03222)
(7.7320815e-05 0.00019048728 735.03253)
(-3.6606764e-06 0.00017498735 735.03252)
(2.1766801e-05 4.9736828e-05 735.03157)
(0.00022802448 -1.4690376e-06 735.03161)
(6.6512885e-05 -3.4252393e-05 735.03229)
(-0.00019484467 3.9631712e-05 735.03183)
(-4.069076e-05 7.460523e-05 735.03159)
(0.00011449006 8.4862372e-05 735.0317)
(0.00020452703 8.5352051e-05 735.03207)
(0.00019048728 7.7320816e-05 735.03253)
(5.9215552e-05 5.9215557e-05 735.03279)
(-1.0628162e-05 3.6193811e-05 735.03274)
(-2.3771084e-06 1.1573102e-05 735.03166)
(0.00015085086 -1.2570808e-05 735.03157)
(6.3843129e-05 -3.9875981e-05 735.03208)
(-0.00013897076 -1.4350646e-05 735.03177)
(-1.8894099e-05 -2.6267072e-06 735.0316)
(0.00011798782 1.8046148e-07 735.03173)
(0.00019876533 -2.9487023e-07 735.03209)
(0.00017498735 -3.6606745e-06 735.03252)
(3.619381e-05 -1.0628157e-05 735.03274)
(-1.9008507e-05 -1.9008502e-05 735.03265)
(-0.00019377515 -0.00019377515 735.13216)
(0.00057093359 0.0003506168 735.13192)
(0.00031092505 -1.7111982e-05 735.1325)
(-0.00097068918 -5.9032688e-05 735.13186)
(-0.00054672471 -3.7625868e-05 735.1314)
(-7.5095002e-05 -1.4261351e-05 735.13127)
(0.00016952897 1.1614167e-05 735.13137)
(0.00021398349 2.5733423e-05 735.13154)
(0.00018770312 -2.0532634e-05 735.13164)
(6.1091212e-05 -9.1149252e-05 735.13184)
(0.0003506168 0.00057093359 735.13192)
(0.00083592834 0.00083592834 735.13226)
(-0.00030354918 0.00018476054 735.13242)
(-0.00100146 0.00013436928 735.13173)
(-0.0004795677 0.00019448499 735.1313)
(-1.2349499e-06 0.00026526092 735.13122)
(0.00022952113 0.00035836239 735.13138)
(0.00016576329 0.00044789068 735.13158)
(1.237911e-05 0.00039634721 735.13154)
(-9.5254052e-06 0.00017585086 735.13155)
(-1.7111987e-05 0.00031092506 735.1325)
(0.00018476053 -0.00030354917 735.13242)
(-0.000390634 -0.000390634 735.13248)
(-0.00096096472 -0.00035432035 735.13181)
(-0.00041583307 -0.00030067593 735.13141)
(8.8782394e-05 -0.00023322523 735.13138)
(0.00035215872 -0.00013124614 735.13161)
(0.00025196831 1.1900147e-05 735.13191)
(-8.4336694e-05 0.00012928335 735.1319)
(-8.5906356e-05 0.00011464328 735.13178)
(-5.9032686e-05 -0.00097068918 735.13186)
(0.00013436928 -0.00100146 735.13173)
(-0.00035432036 -0.00096096473 735.13181)
(-0.00091150194 -0.00091150194 735.13117)
(-0.00035847258 -0.00086104764 735.1308)
(0.00016819484 -0.00080262145 735.1308)
(0.00047464651 -0.00072274071 735.1311)
(0.00042629278 -0.00060602833 735.1315)
(0.00011512224 -0.00045498939 735.1316)
(-1.9285456e-05 -0.0003030372 735.1316)
(-3.7625868e-05 -0.00054672472 735.1314)
(0.00019448499 -0.00047956772 735.1313)
(-0.00030067594 -0.00041583307 735.13141)
(-0.00086104763 -0.00035847258 735.1308)
(-0.00030695257 -0.00030695257 735.13046)
(0.00022708932 -0.00025634622 735.1305)
(0.00054875184 -0.00020173236 735.13084)
(0.00051971963 -0.00013867944 735.13129)
(0.00021865444 -6.8269168e-05 735.13147)
(1.5395107e-05 -2.1341131e-06 735.13153)
(-1.4261352e-05 -7.5095007e-05 735.13127)
(0.00026526093 -1.2349545e-06 735.13122)
(-0.00023322523 8.878239e-05 735.13138)
(-0.00080262145 0.00016819484 735.1308)
(-0.00025634621 0.00022708932 735.1305)
(0.00027341505 0.00027341505 735.13057)
(0.00059231329 0.00031223753 735.13094)
(0.00055975598 0.00034347163 735.13142)
(0.00025166757 0.00036533223 735.13162)
(2.4804581e-05 0.00037623364 735.1317)
(1.1614167e-05 0.00016952897 735.13137)
(0.00035836239 0.00022952114 735.13138)
(-0.00013124614 0.00035215872 735.13161)
(-0.00072274071 0.00047464652 735.1311)
(-0.00020173237 0.00054875184 735.13084)
(0.00031223753 0.00059231328 735.13094)
(0.00061880842 0.00061880842 735.13133)
(0.00057281434 0.00062856503 735.13183)
(0.00025141644 0.00061963196 735.13203)
(2.2662712e-05 0.00059563143 735.1321)
(2.5733425e-05 0.00021398349 735.13154)
(0.00044789068 0.00016576329 735.13158)
(1.190015e-05 0.00025196831 735.13191)
(-0.00060602833 0.00042629278 735.1315)
(-0.00013867945 0.00051971963 735.13129)
(0.00034347164 0.00055975598 735.13142)
(0.00062856504 0.00057281433 735.13183)
(0.00056057952 0.00056057952 735.13232)
(0.00021873397 0.00051983191 735.13249)
(8.8042295e-06 0.00045869617 735.13252)
(-2.0532633e-05 0.00018770313 735.13164)
(0.0003963472 1.2379111e-05 735.13154)
(0.00012928335 -8.4336701e-05 735.1319)
(-0.00045498939 0.00011512224 735.1316)
(-6.8269172e-05 0.00021865444 735.13147)
(0.00036533223 0.00025166757 735.13162)
(0.00061963196 0.00025141644 735.13203)
(0.00051983192 0.00021873397 735.13249)
(0.0001495331 0.0001495331 735.13261)
(-1.8094447e-05 8.3169689e-05 735.13256)
(-9.1149252e-05 6.1091211e-05 735.13184)
(0.00017585085 -9.5254078e-06 735.13155)
(0.00011464327 -8.5906357e-05 735.13178)
(-0.00030303719 -1.9285458e-05 735.1316)
(-2.1341141e-06 1.5395108e-05 735.13153)
(0.00037623364 2.4804581e-05 735.1317)
(0.00059563144 2.2662713e-05 735.1321)
(0.00045869618 8.8042333e-06 735.13252)
(8.3169686e-05 -1.8094444e-05 735.13256)
(-3.5438047e-05 -3.5438044e-05 735.13259)
(-0.00026136604 -0.00026136604 735.31608)
(0.00062177798 0.00043201628 735.31583)
(0.00016593486 -3.3989404e-05 735.31611)
(-0.001473405 -8.51166e-05 735.31555)
(-0.00079879554 -5.387207e-05 735.31518)
(-5.9440515e-05 -1.5709894e-05 735.31512)
(0.0003218624 3.1679841e-05 735.31528)
(0.0003385125 5.8902296e-05 735.31548)
(0.0003467368 -4.4460239e-05 735.31552)
(0.00014416298 -0.00019473099 735.31572)
(0.00043201628 0.00062177798 735.31583)
(0.00096284293 0.00096284293 735.31601)
(-0.00060976446 0.0001327627 735.31602)
(-0.001503229 7.3563902e-05 735.31544)
(-0.00069468548 0.00016315214 735.3151)
(6.8887351e-05 0.00027891639 735.31508)
(0.00043378069 0.00044260976 735.3153)
(0.00022430238 0.00060458239 735.31556)
(-3.3713128e-05 0.00048585489 735.31544)
(-6.107768e-06 9.1764754e-05 735.31543)
(-3.3989403e-05 0.00016593486 735.31611)
(0.0001327627 -0.00060976446 735.31602)
(-0.00072334417 -0.00072334416 735.31597)
(-0.0014430155 -0.00067022297 735.3154)
(-0.00059344305 -0.00058656628 735.31509)
(0.00022001711 -0.0004760649 735.31512)
(0.00064752841 -0.00030480914 735.31542)
(0.00038175762 -6.0946853e-05 735.31577)
(-0.00016608084 0.00013237388 735.31569)
(-0.00011856377 0.00011461686 735.31557)
(-8.5116598e-05 -0.001473405 735.31555)
(7.3563909e-05 -0.001503229 735.31544)
(-0.00067022297 -0.0014430155 735.3154)
(-0.0013664511 -0.0013664511 735.31486)
(-0.00050052741 -0.0012847573 735.31457)
(0.00035064449 -0.0011886185 735.31464)
(0.00084889873 -0.001056789 735.315)
(0.0006614854 -0.00086509079 735.31546)
(0.00014185059 -0.00062508192 735.31548)
(-1.7945782e-05 -0.00039143723 735.31545)
(-5.3872068e-05 -0.00079879555 735.31518)
(0.00016315214 -0.00069468549 735.3151)
(-0.00058656627 -0.00059344306 735.31509)
(-0.0012847573 -0.00050052741 735.31457)
(-0.00041561047 -0.00041561046 735.31432)
(0.00044798539 -0.00033173255 735.31443)
(0.00097105611 -0.00024129191 735.31483)
(0.00081346474 -0.00013713358 735.31533)
(0.00030757271 -2.2845868e-05 735.31542)
(3.7199348e-05 8.3613934e-05 735.31545)
(-1.570989e-05 -5.9440515e-05 735.31512)
(0.0002789164 6.8887346e-05 735.31508)
(-0.00047606489 0.0002200171 735.31512)
(-0.0011886185 0.00035064448 735.31464)
(-0.00033173256 0.00044798539 735.31443)
(0.00052496304 0.00052496304 735.31456)
(0.0010434977 0.00058909916 735.31499)
(0.00087993144 0.00064003834 735.31552)
(0.0003625981 0.00067412543 735.31563)
(5.302742e-05 0.00068932452 735.31568)
(3.167984e-05 0.00032186241 735.31528)
(0.00044260976 0.00043378069 735.3153)
(-0.00030480914 0.0006475284 735.31542)
(-0.001056789 0.00084889873 735.315)
(-0.00024129191 0.0009710561 735.31483)
(0.00058909916 0.0010434977 735.31499)
(0.0010861314 0.0010861314 735.31545)
(0.00089849102 0.0010977761 735.31599)
(0.00035685889 0.0010728078 735.31609)
(4.7332073e-05 0.0010154025 735.31613)
(5.89023e-05 0.0003385125 735.31548)
(0.0006045824 0.00022430238 735.31556)
(-6.094686e-05 0.00038175763 735.31577)
(-0.00086509079 0.0006614854 735.31546)
(-0.00013713357 0.00081346474 735.31533)
(0.00064003834 0.00087993144 735.31552)
(0.0010977761 0.00089849101 735.31599)
(0.00086660781 0.0008666078 735.31652)
(0.00028022455 0.00077396218 735.31658)
(1.4757242e-05 0.00063724665 735.31655)
(-4.4460237e-05 0.00034673679 735.31552)
(0.00048585489 -3.3713133e-05 735.31544)
(0.00013237388 -0.00016608084 735.31569)
(-0.00062508192 0.00014185059 735.31548)
(-2.284587e-05 0.00030757271 735.31542)
(0.00067412543 0.00036259809 735.31563)
(0.0010728078 0.00035685889 735.31609)
(0.00077396218 0.00028022454 735.31658)
(0.00012749774 0.00012749773 735.31656)
(-4.381161e-05 0.00010904561 735.3164)
(-0.00019473098 0.00014416298 735.31572)
(9.1764763e-05 -6.1077685e-06 735.31543)
(0.00011461686 -0.00011856377 735.31557)
(-0.00039143724 -1.7945779e-05 735.31545)
(8.3613928e-05 3.719935e-05 735.31545)
(0.00068932452 5.302742e-05 735.31568)
(0.0010154025 4.7332072e-05 735.31613)
(0.00063724665 1.4757244e-05 735.31655)
(0.00010904561 -4.3811614e-05 735.3164)
(2.4558283e-06 2.4558245e-06 735.31653)
(-0.00035805646 -0.00035805646 735.59025)
(0.00060366726 0.0004716929 735.58997)
(3.5171934e-05 -7.8828648e-05 735.59024)
(-0.0018966763 -0.00013664833 735.58976)
(-0.00097799805 -9.6043846e-05 735.58946)
(2.0902766e-05 -4.2986717e-05 735.58946)
(0.00052691499 2.8720551e-05 735.58968)
(0.00045292125 7.7133336e-05 735.58994)
(0.00042323088 -7.288737e-05 735.58996)
(0.0001929467 -0.00028015023 735.5901)
(0.00047169289 0.00060366726 735.58997)
(0.001022509 0.001022509 735.5901)
(-0.00087733991 4.2675941e-05 735.59011)
(-0.0019224991 -1.9924235e-05 735.58961)
(-0.00083750563 9.7961348e-05 735.58934)
(0.00020804936 0.00025805081 735.58939)
(0.00070709507 0.00049587308 735.58968)
(0.00030050937 0.00074121232 735.59)
(-0.00011269447 0.00056495189 735.58989)
(-1.431616e-05 2.9763736e-05 735.58987)
(-7.8828649e-05 3.5171927e-05 735.59024)
(4.267594e-05 -0.0008773399 735.59011)
(-0.0010072613 -0.0010072613 735.59009)
(-0.0018413908 -0.0009355544 735.5896)
(-0.00070002301 -0.00082275017 735.58936)
(0.0004188145 -0.00067066317 735.58945)
(0.0010100765 -0.00043173394 735.58981)
(0.00052200005 -9.0419038e-05 735.59024)
(-0.0002882177 0.00016675691 735.59014)
(-0.0001638454 0.00013522372 735.59001)
(-0.00013664833 -0.0018966763 735.58976)
(-1.9924227e-05 -0.0019224991 735.58961)
(-0.00093555441 -0.0018413908 735.5896)
(-0.001737988 -0.0017379879 735.58914)
(-0.0005726144 -0.0016258348 735.58893)
(0.0005990656 -0.001493073 735.58905)
(0.0012873392 -0.0013107397 735.58948)
(0.00089900022 -0.0010469596 735.58999)
(0.00011294829 -0.0007262255 735.59)
(-3.533829e-05 -0.00042349986 735.58994)
(-9.6043842e-05 -0.00097799805 735.58946)
(9.7961352e-05 -0.00083750564 735.58934)
(-0.00082275017 -0.00070002301 735.58936)
(-0.0016258348 -0.0005726144 735.58893)
(-0.00045510808 -0.00045510808 735.58874)
(0.00073390961 -0.00033881114 735.58891)
(0.0014561899 -0.00021349776 735.58937)
(0.0011065142 -6.9576094e-05 735.58993)
(0.00033524202 8.5692643e-05 735.58999)
(3.7971692e-05 0.00022836442 735.59)
(-4.2986717e-05 2.090277e-05 735.58946)
(0.00025805081 0.00020804936 735.58939)
(-0.00067066316 0.0004188145 735.58945)
(-0.001493073 0.0005990656 735.58905)
(-0.00033881115 0.0007339096 735.58891)
(0.00084067591 0.0008406759 735.5891)
(0.0015565743 0.00092903661 735.58959)
(0.0011981906 0.0009980682 735.59018)
(0.0004108888 0.0010416303 735.59026)
(5.9776227e-05 0.0010577691 735.59028)
(2.8720553e-05 0.00052691499 735.58968)
(0.00049587308 0.00070709508 735.58968)
(-0.00043173394 0.0010100765 735.58981)
(-0.0013107397 0.0012873392 735.58948)
(-0.00021349778 0.0014561899 735.58937)
(0.00092903661 0.0015565742 735.58959)
(0.0016135822 0.0016135822 735.5901)
(0.0012191079 0.0016227596 735.5907)
(0.00039494293 0.0015718949 735.59078)
(4.8730908e-05 0.0014644979 735.59078)
(7.7133339e-05 0.00045292125 735.58994)
(0.00074121232 0.00030050937 735.59)
(-9.041904e-05 0.00052200006 735.59024)
(-0.0010469596 0.00089900021 735.58999)
(-6.9576102e-05 0.0011065142 735.58993)
(0.0009980682 0.0011981906 735.59018)
(0.0016227596 0.0012191079 735.5907)
(0.0011565033 0.0011565033 735.59128)
(0.00025262714 0.00098361188 735.59131)
(-1.1821754e-05 0.00072661144 735.59122)
(-7.2887369e-05 0.00042323089 735.58996)
(0.00056495189 -0.00011269447 735.58989)
(0.00016675691 -0.0002882177 735.59014)
(-0.0007262255 0.00011294829 735.59)
(8.5692648e-05 0.00033524202 735.58999)
(0.0010416303 0.00041088881 735.59026)
(0.0015718949 0.00039494292 735.59078)
(0.00098361189 0.00025262713 735.59131)
(-3.4948904e-05 -3.4948917e-05 735.59121)
(-0.00012260272 6.5632682e-05 735.59094)
(-0.00028015023 0.0001929467 735.5901)
(2.9763734e-05 -1.4316161e-05 735.58987)
(0.00013522372 -0.0001638454 735.59001)
(-0.00042349987 -3.5338288e-05 735.58994)
(0.00022836442 3.7971689e-05 735.59)
(0.0010577691 5.9776227e-05 735.59028)
(0.0014644979 4.8730911e-05 735.59078)
(0.00072661144 -1.1821752e-05 735.59122)
(6.563269e-05 -0.00012260272 735.59094)
(5.5232645e-05 5.5232644e-05 735.59109)
(-0.00044522711 -0.00044522711 735.95312)
(0.00061297442 0.00051279501 735.95288)
(-4.7760675e-05 -0.00011850889 735.95317)
(-0.0022524816 -0.0001825715 735.95275)
(-0.0010949909 -0.00013308639 735.95251)
(0.00016175617 -6.5731722e-05 735.95257)
(0.00079624366 3.0026121e-05 735.95284)
(0.00061984888 0.00010015875 735.95315)
(0.00051261479 -9.5841594e-05 735.95322)
(0.00023744555 -0.00035199392 735.95335)
(0.00051279501 0.00061297443 735.95288)
(0.0011030518 0.0011030518 735.95301)
(-0.0010908104 -1.8700271e-05 735.95306)
(-0.0022743478 -8.3596312e-05 735.95263)
(-0.00091973123 6.149766e-05 735.95242)
(0.00040642494 0.00026419488 735.95251)
(0.0010450794 0.00057448448 735.95286)
(0.0004310473 0.00090165041 735.95323)
(-0.00016561422 0.00066386047 735.95316)
(-1.8706779e-05 -4.5844684e-07 735.95315)
(-0.00011850889 -4.7760661e-05 735.95317)
(-1.8700272e-05 -0.0010908104 735.95306)
(-0.0012344087 -0.0012344087 735.95308)
(-0.0021722836 -0.0011436735 735.95266)
(-0.0007471997 -0.0010024237 735.95247)
(0.000674743 -0.00081018614 735.95261)
(0.0014336992 -0.00050579814 735.95302)
(0.00070922486 -7.1243835e-05 735.9535)
(-0.00038949406 0.00024058439 735.95343)
(-0.00020543373 0.00019026017 735.95332)
(-0.0001825715 -0.0022524816 735.95275)
(-8.3596316e-05 -0.0022743478 735.95263)
(-0.0011436735 -0.0021722836 735.95266)
(-0.0020423628 -0.0020423628 735.95226)
(-0.00058624387 -0.0019005031 735.9521)
(0.00090305053 -0.0017322755 735.95228)
(0.0017840217 -0.0015010453 735.95275)
(0.0011774298 -0.0011680093 735.95331)
(9.5889776e-05 -0.00077249479 735.95334)
(-5.2256263e-05 -0.00040781912 735.95329)
(-0.00013308639 -0.0010949909 735.95251)
(6.1497662e-05 -0.00091973122 735.95242)
(-0.0010024237 -0.00074719969 735.95247)
(-0.0019005031 -0.00058624386 735.9521)
(-0.00043711234 -0.00043711233 735.95197)
(0.0010742008 -0.00028951362 735.95218)
(0.0019979653 -0.00013056089 735.95269)
(0.0014377754 5.1614947e-05 735.9533)
(0.00037069611 0.00024550719 735.95338)
(3.7683389e-05 0.00042164115 735.95339)
(-6.5731719e-05 0.00016175617 735.95257)
(0.00026419489 0.00040642494 735.95251)
(-0.00081018614 0.00067474299 735.95261)
(-0.0017322755 0.00090305053 735.95228)
(-0.00028951362 0.0010742008 735.95218)
(0.001209602 0.001209602 735.95242)
(0.0021251502 0.0013210252 735.95296)
(0.0015534979 0.0014069453 735.95359)
(0.00046591598 0.0014585139 735.95369)
(6.5166379e-05 0.0014741169 735.95371)
(3.0026123e-05 0.00079624365 735.95284)
(0.00057448448 0.0010450794 735.95286)
(-0.00050579814 0.0014336992 735.95302)
(-0.0015010453 0.0017840217 735.95275)
(-0.00013056089 0.0019979653 735.95269)
(0.0013210252 0.0021251502 735.95296)
(0.0021953086 0.0021953086 735.95351)
(0.0015752641 0.0021998957 735.95415)
(0.00043786773 0.0021183471 735.95425)
(4.8085364e-05 0.0019519411 735.95425)
(0.00010015876 0.00061984886 735.95315)
(0.00090165042 0.0004310473 735.95323)
(-7.1243833e-05 0.00070922486 735.9535)
(-0.0011680093 0.0011774298 735.95331)
(5.1614931e-05 0.0014377754 735.9533)
(0.0014069453 0.0015534979 735.95359)
(0.0021998957 0.0015752641 735.95415)
(0.0014765364 0.0014765364 735.95477)
(0.0002179614 0.0012070594 735.95482)
(-4.5770976e-05 0.00079829728 735.95471)
(-9.5841589e-05 0.00051261479 735.95322)
(0.00066386048 -0.00016561422 735.95316)
(0.00024058439 -0.00038949406 735.95343)
(-0.00077249479 9.588977e-05 735.95334)
(0.00024550719 0.00037069611 735.95338)
(0.0014585139 0.00046591599 735.95369)
(0.0021183471 0.00043786773 735.95425)
(0.0012070594 0.0002179614 735.95482)
(-0.00024037138 -0.0002403714 735.95472)
(-0.00022442272 -1.7184609e-05 735.9544)
(-0.00035199392 0.00023744556 735.95335)
(-4.5844399e-07 -1.8706776e-05 735.95315)
(0.00019026016 -0.00020543372 735.95332)
(-0.00040781912 -5.2256259e-05 735.95329)
(0.00042164115 3.7683385e-05 735.95339)
(0.0014741169 6.5166379e-05 735.95371)
(0.0019519411 4.8085366e-05 735.95425)
(0.00079829728 -4.5770976e-05 735.95471)
(-1.7184601e-05 -0.00022442273 735.9544)
(0.00010302022 0.00010302021 735.95454)
(-0.00051976258 -0.00051976258 736.4027)
(0.00065132701 0.0005591104 736.40249)
(-9.1860281e-05 -0.00014943366 736.40279)
(-0.0025525954 -0.00021944393 736.40243)
(-0.0011619529 -0.00016152184 736.40224)
(0.00034770079 -8.0539129e-05 736.40234)
(0.001110213 3.8416147e-05 736.40264)
(0.00082767368 0.00012956658 736.40299)
(0.00062278843 -0.00011226628 736.40308)
(0.00028362551 -0.00041475608 736.40322)
(0.0005591104 0.00065132701 736.40249)
(0.0012068204 0.0012068204 736.40263)
(-0.0012596918 -5.0377053e-05 736.40271)
(-0.0025707277 -0.00011718945 736.40233)
(-0.00095359571 5.4000207e-05 736.40216)
(0.00064760777 0.00029751782 736.4023)
(0.0014253715 0.00067770863 736.40268)
(0.00060165004 0.001083601 736.40308)
(-0.00019369557 0.00078200801 736.40304)
(-1.8864296e-05 -6.7160471e-06 736.40305)
(-0.00014943366 -9.1860273e-05 736.40279)
(-5.0377053e-05 -0.0012596918 736.40271)
(-0.0014158701 -0.0014158701 736.40275)
(-0.0024482182 -0.001306433 736.40238)
(-0.00074724564 -0.0011376325 736.40225)
(0.0009714092 -0.00090670595 736.40242)
(0.0018962962 -0.00053918293 736.40287)
(0.00093197306 -1.5211171e-05 736.40337)
(-0.00046752866 0.00034584575 736.40333)
(-0.00024219053 0.00027479613 736.40323)
(-0.00021944393 -0.0025525954 736.40243)
(-0.00011718945 -0.0025707277 736.40233)
(-0.001306433 -0.0024482182 736.40238)
(-0.0022924901 -0.0022924901 736.40204)
(-0.00055386861 -0.0021219061 736.40193)
(0.0012460574 -0.001919546 736.40214)
(0.0023168663 -0.0016412475 736.40264)
(0.0014866787 -0.0012417773 736.40322)
(9.6311731e-05 -0.00077588896 736.40327)
(-6.6230708e-05 -0.00035366131 736.40324)
(-0.00016152184 -0.0011619529 736.40224)
(5.4000202e-05 -0.00095359571 736.40216)
(-0.0011376325 -0.00074724565 736.40225)
(-0.0021219061 -0.00055386861 736.40193)
(-0.0003743015 -0.0003743015 736.40185)
(0.0014520678 -0.00019673857 736.40209)
(0.0025740648 -5.6220376e-06 736.40263)
(0.0017973316 0.00021311773 736.40326)
(0.00042058733 0.00044359569 736.40336)
(3.9294573e-05 0.00065133616 736.40337)
(-8.0539129e-05 0.00034770079 736.40234)
(0.00029751782 0.00064760776 736.4023)
(-0.00090670595 0.0009714092 736.40242)
(-0.001919546 0.0012460574 736.40214)
(-0.00019673857 0.0014520678 736.40209)
(0.0016147368 0.0016147368 736.40236)
(0.0027267226 0.0017479437 736.40292)
(0.0019358965 0.0018496609 736.40357)
(0.00053453016 0.0019084036 736.4037)
(7.2262938e-05 0.0019231774 736.40372)
(3.8416145e-05 0.001110213 736.40264)
(0.00067770862 0.0014253715 736.40268)
(-0.00053918293 0.0018962962 736.40287)
(-0.0016412475 0.0023168663 736.40264)
(-5.6220425e-06 0.0025740649 736.40263)
(0.0017479437 0.0027267226 736.40292)
(0.0028089889 0.0028089889 736.4035)
(0.0019577915 0.0028080384 736.40416)
(0.00049410375 0.0026943072 736.40428)
(4.9143754e-05 0.0024661157 736.40428)
(0.00012956658 0.00082767367 736.40299)
(0.001083601 0.00060165003 736.40308)
(-1.5211168e-05 0.00093197306 736.40337)
(-0.0012417773 0.0014866787 736.40322)
(0.00021311774 0.0017973316 736.40326)
(0.0018496609 0.0019358965 736.40357)
(0.0028080384 0.0019577915 736.40416)
(0.0018212147 0.0018212147 736.4048)
(0.00019260745 0.0014490827 736.40486)
(-7.9864717e-05 0.00087615122 736.40476)
(-0.00011226628 0.00062278842 736.40308)
(0.00078200801 -0.00019369558 736.40304)
(0.00034584576 -0.00046752866 736.40333)
(-0.00077588895 9.6311721e-05 736.40327)
(0.00044359569 0.00042058732 736.40336)
(0.0019084036 0.00053453015 736.4037)
(0.0026943072 0.00049410375 736.40428)
(0.0014490827 0.00019260745 736.40486)
(-0.00045095972 -0.00045095973 736.40477)
(-0.00033281053 -0.00011287893 736.40445)
(-0.00041475609 0.00028362551 736.40322)
(-6.7160404e-06 -1.8864297e-05 736.40305)
(0.00027479613 -0.00024219052 736.40323)
(-0.00035366131 -6.6230717e-05 736.40324)
(0.00065133616 3.9294568e-05 736.40337)
(0.0019231774 7.2262933e-05 736.40372)
(0.0024661157 4.9143755e-05 736.40428)
(0.00087615121 -7.9864719e-05 736.40476)
(-0.00011287893 -0.00033281054 736.40445)
(0.00014552248 0.00014552247 736.40457)
(-0.00058542828 -0.00058542828 736.93621)
(0.00070639421 0.00060719069 736.93602)
(-0.00010836996 -0.00017435791 736.93632)
(-0.0028061597 -0.00024991856 736.93601)
(-0.0011891449 -0.00018395505 736.93586)
(0.0005650802 -8.9938626e-05 736.93598)
(0.0014509458 5.1355124e-05 736.93631)
(0.0010597408 0.00016281629 736.93668)
(0.00074658534 -0.0001237832 736.93679)
(0.00033121223 -0.00047073694 736.93693)
(0.00060719069 0.00070639422 736.93602)
(0.0013229998 0.0013229998 736.93616)
(-0.0013940338 -6.2121645e-05 736.93626)
(-0.0028205554 -0.00013047537 736.93592)
(-0.00094917501 6.5675873e-05 736.9358)
(0.00091804547 0.00034828839 736.93596)
(0.0018300782 0.00079572031 736.93636)
(0.00079703328 0.0012773311 736.93678)
(-0.00020374451 0.00091236758 736.93676)
(-1.5741513e-05 3.7323559e-06 736.93678)
(-0.00017435792 -0.00010836996 736.93632)
(-6.212165e-05 -0.0013940338 736.93626)
(-0.0015618451 -0.0015618451 736.93631)
(-0.0026783621 -0.0014343622 736.93599)
(-0.00071038114 -0.0012391225 736.93589)
(0.0012951246 -0.0009711211 736.9361)
(0.0023799886 -0.00054300511 736.93656)
(0.001176388 6.660214e-05 736.93707)
(-0.00052701342 0.00047329135 736.93706)
(-0.00027454459 0.00038103354 736.93697)
(-0.00024991856 -0.0028061597 736.93601)
(-0.00013047537 -0.0028205554 736.93592)
(-0.0014343622 -0.0026783621 736.93599)
(-0.0024978327 -0.0024978327 736.93569)
(-0.00048593389 -0.0022997357 736.93562)
(0.0016141628 -0.0020647706 736.93586)
(0.0028678014 -0.0017414755 736.93637)
(0.0018133297 -0.0012785506 736.93696)
(0.00011068689 -0.00074610035 736.93703)
(-7.7246721e-05 -0.00026979545 736.937)
(-0.00018395505 -0.0011891449 736.93586)
(6.5675865e-05 -0.000949175 736.9358)
(-0.0012391225 -0.00071038114 736.93589)
(-0.0022997357 -0.00048593389 736.93562)
(-0.00027731906 -0.00027731906 736.93557)
(0.0018533848 -7.1294588e-05 736.93584)
(0.0031662086 0.00015032769 736.93639)
(0.0021717632 0.0004037677 736.93703)
(0.00048174168 0.00066885363 736.93714)
(4.2992009e-05 0.00090657994 736.93716)
(-8.993863e-05 0.0005650802 736.93598)
(0.00034828838 0.00091804547 736.93596)
(-0.0009711211 0.0012951246 736.9361)
(-0.0020647706 0.0016141628 736.93586)
(-7.1294593e-05 0.0018533848 736.93584)
(0.0020418096 0.0020418096 736.93613)
(0.0033428637 0.0021954089 736.9367)
(0.0023318557 0.0023117816 736.93736)
(0.00061349913 0.0023770089 736.9375)
(8.1237483e-05 0.0023909661 736.93753)
(5.1355128e-05 0.0014509458 736.93631)
(0.0007957203 0.0018300782 736.93636)
(-0.00054300511 0.0023799886 736.93656)
(-0.0017414755 0.0028678014 736.93637)
(0.00015032769 0.0031662086 736.93639)
(0.0021954089 0.0033428637 736.9367)
(0.0034361806 0.0034361806 736.93729)
(0.0023533633 0.0034291588 736.93796)
(0.00056092617 0.0032832251 736.93809)
(5.2296776e-05 0.0029934917 736.9381)
(0.00016281629 0.0010597408 736.93668)
(0.0012773311 0.00079703327 736.93678)
(6.6602148e-05 0.001176388 736.93707)
(-0.0012785505 0.0018133297 736.93696)
(0.0004037677 0.0021717632 736.93703)
(0.0023117815 0.0023318557 736.93736)
(0.0034291588 0.0023533633 736.93796)
(0.0021789001 0.0021789001 736.93861)
(0.00017783199 0.001703449 736.93868)
(-0.00011191809 0.00096416996 736.93859)
(-0.0001237832 0.00074658533 736.93679)
(0.00091236759 -0.00020374453 736.93676)
(0.00047329136 -0.00052701342 736.93706)
(-0.00074610035 0.00011068687 736.93703)
(0.00066885364 0.00048174167 736.93714)
(0.0023770089 0.00061349912 736.9375)
(0.0032832251 0.00056092618 736.93809)
(0.001703449 0.00017783199 736.93868)
(-0.00065380399 -0.00065380399 736.9386)
(-0.00044055592 -0.00020753571 736.93828)
(-0.00047073695 0.00033121223 736.93693)
(3.7323683e-06 -1.5741519e-05 736.93678)
(0.00038103355 -0.00027454459 736.93697)
(-0.00026979545 -7.7246727e-05 736.937)
(0.00090657995 4.299201e-05 736.93716)
(0.0023909661 8.1237479e-05 736.93753)
(0.0029934917 5.2296777e-05 736.9381)
(0.00096416994 -0.00011191809 736.93859)
(-0.00020753572 -0.00044055592 736.93828)
(0.0001855941 0.00018559409 736.9384)
(-0.00064425786 -0.00064425786 737.55031)
(0.00077029443 0.00065467513 737.55014)
(-0.00010511217 -0.00019508943 737.55044)
(-0.0030195998 -0.00027574164 737.55016)
(-0.0011844034 -0.00020215234 737.55005)
(0.00080383625 -9.5712508e-05 737.5502)
(0.0018063772 6.7002723e-05 737.55054)
(0.0013051464 0.00019803679 737.55092)
(0.00087820059 -0.00013168766 737.55104)
(0.00037933217 -0.00052101215 737.55118)
(0.00065467513 0.00077029443 737.55014)
(0.0014440471 0.0014440471 737.55028)
(-0.0015007373 -6.0525435e-05 737.55039)
(-0.0030301942 -0.00013002484 737.55009)
(-0.0009143597 8.9832881e-05 737.55)
(0.0012075688 0.00040969065 737.55019)
(0.0022470012 0.00092145406 737.55059)
(0.0010071108 0.0014756041 737.55102)
(-0.00020037282 0.0010490538 737.55102)
(-9.9923243e-06 2.5879227e-05 737.55104)
(-0.00019508943 -0.00010511216 737.55044)
(-6.0525439e-05 -0.0015007373 737.55039)
(-0.0016791841 -0.0016791841 737.55046)
(-0.0028692415 -0.0015344879 737.55018)
(-0.00064468791 -0.0013141077 737.55011)
(0.0016354574 -0.001010843 737.55033)
(0.0028722907 -0.00052497771 737.5508)