/*--------------------------------*- C++ -*----------------------------------*\
| =========                 |                                                 |
| \\      /  F ield         | OpenFOAM: The Open Source CFD Toolbox           |
|  \\    /   O peration     | Version:  v2106                                 |
|   \\  /    A nd           | Website:  www.openfoam.com                      |
|    \\/     M anipulation  |                                                 |
\*---------------------------------------------------------------------------*/
FoamFile
{
    version     2.0;
    format      ascii;
    arch        "LSB;label=32;scalar=64";
    class       volScalarField;
    location    "30";
    object      T;
}
// * * * * * * * * * * * * * * * * * * * * * * * * * * * * * * * * * * * * * //

dimensions      [0 0 0 1 0 0 0];

internalField   nonuniform List<scalar> 
4000
(
276.67508
276.67508
276.67509
276.67508
276.67508
276.67508
276.67508
276.67508
276.67508
276.67508
276.67508
276.67508
276.67509
276.67508
276.67508
276.67508
276.67508
276.67508
276.67508
276.67508
276.67509
276.67509
276.67509
276.67509
276.67508
276.67508
276.67508
276.67508
276.67508
276.67508
276.67508
276.67508
276.67509
276.67508
276.67508
276.67508
276.67508
276.67508
276.67508
276.67508
276.67508
276.67508
276.67508
276.67508
276.67508
276.67508
276.67508
276.67508
276.67508
276.67508
276.67508
276.67508
276.67508
276.67508
276.67508
276.67508
276.67508
276.67508
276.67508
276.67508
276.67508
276.67508
276.67508
276.67508
276.67508
276.67508
276.67508
276.67508
276.67508
276.67508
276.67508
276.67508
276.67508
276.67508
276.67508
276.67508
276.67508
276.67508
276.67509
276.67509
276.67508
276.67508
276.67508
276.67508
276.67508
276.67508
276.67508
276.67509
276.67509
276.67509
276.67508
276.67508
276.67508
276.67508
276.67508
276.67508
276.67508
276.67509
276.67509
276.67509
284.02571
284.02571
284.02572
284.02571
284.0257
284.0257
284.0257
284.0257
284.02571
284.02571
284.02571
284.02572
284.02572
284.02571
284.0257
284.0257
284.0257
284.0257
284.02571
284.0257
284.02572
284.02572
284.02573
284.02571
284.02571
284.02571
284.02571
284.02571
284.02571
284.02571
284.02571
284.02571
284.02571
284.0257
284.0257
284.0257
284.0257
284.0257
284.02571
284.02571
284.0257
284.0257
284.02571
284.0257
284.02569
284.02569
284.02569
284.0257
284.0257
284.02571
284.0257
284.0257
284.02571
284.0257
284.02569
284.02569
284.0257
284.0257
284.02571
284.02571
284.0257
284.0257
284.02571
284.0257
284.02569
284.0257
284.0257
284.02571
284.02571
284.02571
284.0257
284.0257
284.02571
284.0257
284.0257
284.0257
284.02571
284.02571
284.02572
284.02572
284.02571
284.02571
284.02571
284.02571
284.0257
284.02571
284.02571
284.02572
284.02572
284.02572
284.02571
284.0257
284.02571
284.02571
284.02571
284.02571
284.02571
284.02572
284.02572
284.02572
291.37772
291.37772
291.37774
291.37772
291.37771
291.3777
291.37771
291.37771
291.37771
291.37772
291.37772
291.37773
291.37774
291.37772
291.37771
291.3777
291.37771
291.37771
291.37771
291.37771
291.37774
291.37774
291.37774
291.37772
291.37771
291.37771
291.37772
291.37772
291.37772
291.37772
291.37772
291.37772
291.37772
291.3777
291.37769
291.37769
291.3777
291.37771
291.37771
291.37771
291.37771
291.37771
291.37771
291.37769
291.37769
291.37769
291.37769
291.37771
291.37771
291.37771
291.3777
291.3777
291.37771
291.37769
291.37769
291.37769
291.3777
291.37771
291.37771
291.37772
291.37771
291.37771
291.37772
291.3777
291.37769
291.3777
291.37771
291.37772
291.37772
291.37773
291.37771
291.37771
291.37772
291.37771
291.37771
291.37771
291.37772
291.37773
291.37774
291.37774
291.37771
291.37771
291.37772
291.37771
291.37771
291.37771
291.37772
291.37774
291.37774
291.37774
291.37772
291.37771
291.37772
291.37771
291.37771
291.37772
291.37773
291.37774
291.37774
291.37774
298.73203
298.73202
298.73204
298.73202
298.73201
298.732
298.73201
298.73201
298.73202
298.73202
298.73202
298.73204
298.73204
298.73202
298.732
298.732
298.73201
298.73202
298.73201
298.73201
298.73204
298.73204
298.73205
298.73202
298.73201
298.73201
298.73202
298.73203
298.73203
298.73202
298.73202
298.73202
298.73202
298.732
298.73199
298.73199
298.732
298.73201
298.73202
298.73202
298.73201
298.732
298.73201
298.73199
298.73198
298.73198
298.73199
298.73201
298.73201
298.73201
298.732
298.732
298.73201
298.73199
298.73198
298.73198
298.732
298.73201
298.73202
298.73202
298.73201
298.73201
298.73202
298.732
298.73199
298.732
298.73201
298.73203
298.73203
298.73204
298.73201
298.73202
298.73203
298.73201
298.73201
298.73201
298.73203
298.73205
298.73205
298.73205
298.73202
298.73201
298.73203
298.73202
298.73201
298.73202
298.73203
298.73205
298.73205
298.73205
298.73202
298.73201
298.73202
298.73202
298.73201
298.73202
298.73204
298.73205
298.73205
298.73205
306.08953
306.08952
306.08954
306.08952
306.0895
306.08949
306.0895
306.08951
306.08951
306.08952
306.08952
306.08953
306.08954
306.08951
306.08949
306.08949
306.0895
306.08951
306.08951
306.08951
306.08954
306.08954
306.08954
306.08951
306.0895
306.0895
306.08951
306.08953
306.08953
306.08952
306.08952
306.08951
306.08951
306.08949
306.08947
306.08948
306.08949
306.08951
306.08951
306.08951
306.0895
306.08949
306.0895
306.08947
306.08946
306.08946
306.08948
306.0895
306.08951
306.08951
306.08949
306.08949
306.0895
306.08948
306.08946
306.08947
306.08949
306.08951
306.08952
306.08952
306.0895
306.0895
306.08951
306.08949
306.08948
306.08949
306.08951
306.08953
306.08954
306.08954
306.08951
306.08951
306.08953
306.08951
306.0895
306.08951
306.08953
306.08956
306.08956
306.08956
306.08951
306.08951
306.08953
306.08951
306.08951
306.08952
306.08954
306.08956
306.08956
306.08956
306.08952
306.08951
306.08952
306.08951
306.08951
306.08952
306.08954
306.08956
306.08956
306.08956
313.4511
313.45108
313.45111
313.45108
313.45106
313.45105
313.45106
313.45108
313.45108
313.45109
313.45108
313.4511
313.4511
313.45107
313.45105
313.45105
313.45107
313.45108
313.45108
313.45108
313.45111
313.4511
313.45111
313.45108
313.45106
313.45106
313.45108
313.4511
313.4511
313.45109
313.45108
313.45107
313.45108
313.45104
313.45103
313.45103
313.45105
313.45108
313.45108
313.45108
313.45106
313.45105
313.45106
313.45103
313.45102
313.45102
313.45104
313.45107
313.45108
313.45108
313.45105
313.45105
313.45106
313.45103
313.45102
313.45103
313.45105
313.45108
313.45109
313.4511
313.45106
313.45107
313.45108
313.45105
313.45104
313.45105
313.45108
313.45111
313.45112
313.45112
313.45108
313.45108
313.4511
313.45108
313.45107
313.45108
313.45111
313.45114
313.45115
313.45114
313.45108
313.45108
313.4511
313.45108
313.45108
313.45109
313.45112
313.45115
313.45115
313.45114
313.45109
313.45108
313.45109
313.45108
313.45108
313.4511
313.45112
313.45114
313.45114
313.45114
320.81758
320.81757
320.8176
320.81756
320.81754
320.81754
320.81755
320.81757
320.81757
320.81758
320.81757
320.81758
320.81759
320.81756
320.81754
320.81754
320.81755
320.81757
320.81757
320.81757
320.8176
320.81759
320.8176
320.81756
320.81754
320.81755
320.81757
320.81759
320.81759
320.81758
320.81756
320.81756
320.81756
320.81753
320.81751
320.81752
320.81754
320.81758
320.81758
320.81758
320.81754
320.81754
320.81754
320.81751
320.8175
320.81751
320.81753
320.81757
320.81758
320.81758
320.81754
320.81754
320.81755
320.81752
320.81751
320.81752
320.81755
320.81758
320.81759
320.8176
320.81755
320.81755
320.81757
320.81754
320.81753
320.81755
320.81758
320.81762
320.81762
320.81763
320.81757
320.81757
320.81759
320.81758
320.81757
320.81758
320.81762
320.81765
320.81766
320.81766
320.81757
320.81757
320.81759
320.81758
320.81758
320.81759
320.81762
320.81766
320.81766
320.81765
320.81758
320.81757
320.81758
320.81758
320.81758
320.8176
320.81763
320.81766
320.81765
320.81765
328.18982
328.1898
328.18983
328.1898
328.18977
328.18977
328.18979
328.18981
328.18982
328.18983
328.1898
328.18982
328.18983
328.18979
328.18977
328.18977
328.18979
328.18982
328.18981
328.18981
328.18983
328.18983
328.18983
328.1898
328.18978
328.18978
328.18981
328.18984
328.18984
328.18983
328.1898
328.18979
328.1898
328.18976
328.18974
328.18975
328.18978
328.18982
328.18982
328.18982
328.18977
328.18977
328.18978
328.18974
328.18973
328.18974
328.18977
328.18981
328.18982
328.18982
328.18977
328.18977
328.18978
328.18975
328.18974
328.18975
328.18979
328.18983
328.18984
328.18985
328.18979
328.18979
328.18981
328.18978
328.18977
328.18979
328.18983
328.18987
328.18988
328.18988
328.18981
328.18982
328.18984
328.18982
328.18981
328.18983
328.18987
328.18991
328.18992
328.18992
328.18982
328.18981
328.18984
328.18982
328.18982
328.18984
328.18988
328.18992
328.18992
328.1899
328.18983
328.18981
328.18983
328.18982
328.18982
328.18985
328.18988
328.18992
328.1899
328.18991
335.56859
335.56857
335.56861
335.56857
335.56854
335.56854
335.56856
335.56859
335.56859
335.56861
335.56857
335.56859
335.5686
335.56856
335.56854
335.56854
335.56857
335.56859
335.56859
335.56859
335.56861
335.5686
335.56861
335.56856
335.56855
335.56855
335.56858
335.56862
335.56862
335.56861
335.56857
335.56856
335.56856
335.56853
335.56851
335.56852
335.56856
335.5686
335.56861
335.5686
335.56854
335.56854
335.56855
335.56851
335.56849
335.56851
335.56855
335.5686
335.56861
335.56861
335.56854
335.56854
335.56855
335.56852
335.56851
335.56853
335.56857
335.56862
335.56863
335.56863
335.56856
335.56857
335.56858
335.56856
335.56855
335.56857
335.56861
335.56866
335.56867
335.56867
335.56859
335.56859
335.56862
335.5686
335.5686
335.56862
335.56866
335.56871
335.56872
335.56871
335.56859
335.56859
335.56862
335.56861
335.56861
335.56863
335.56867
335.56872
335.56872
335.5687
335.56861
335.56859
335.56861
335.5686
335.56861
335.56863
335.56867
335.56871
335.5687
335.56871
342.95464
342.95462
342.95466
342.95462
342.95459
342.9546
342.95462
342.95465
342.95466
342.95467
342.95462
342.95464
342.95465
342.95461
342.95459
342.95459
342.95462
342.95466
342.95465
342.95465
342.95466
342.95465
342.95466
342.95462
342.9546
342.95461
342.95464
342.95469
342.95468
342.95467
342.95462
342.95461
342.95462
342.95458
342.95456
342.95457
342.95462
342.95466
342.95467
342.95467
342.95459
342.95459
342.9546
342.95456
342.95455
342.95456
342.95461
342.95466
342.95467
342.95468
342.9546
342.95459
342.95461
342.95457
342.95456
342.95458
342.95463
342.95469
342.9547
342.9547
342.95462
342.95462
342.95464
342.95462
342.95461
342.95463
342.95468
342.95474
342.95475
342.95475
342.95465
342.95466
342.95469
342.95466
342.95466
342.95469
342.95474
342.95479
342.9548
342.95479
342.95466
342.95465
342.95468
342.95467
342.95467
342.9547
342.95475
342.9548
342.9548
342.95478
342.95467
342.95465
342.95467
342.95467
342.95468
342.9547
342.95475
342.95479
342.95478
342.95479
350.34868
350.34866
350.3487
350.34866
350.34863
350.34864
350.34866
350.3487
350.34871
350.34872
350.34866
350.34868
350.34869
350.34865
350.34863
350.34863
350.34867
350.3487
350.3487
350.3487
350.3487
350.34869
350.3487
350.34866
350.34864
350.34865
350.34869
350.34874
350.34873
350.34872
350.34866
350.34865
350.34866
350.34861
350.3486
350.34861
350.34866
350.34872
350.34872
350.34872
350.34863
350.34863
350.34864
350.3486
350.34858
350.3486
350.34865
350.34871
350.34873
350.34873
350.34864
350.34863
350.34865
350.34861
350.3486
350.34863
350.34868
350.34874
350.34876
350.34876
350.34866
350.34867
350.34869
350.34866
350.34865
350.34868
350.34873
350.3488
350.34881
350.34881
350.3487
350.3487
350.34874
350.34872
350.34871
350.34874
350.3488
350.34886
350.34887
350.34886
350.34871
350.3487
350.34873
350.34872
350.34873
350.34876
350.34881
350.34887
350.34887
350.34884
350.34872
350.3487
350.34872
350.34872
350.34873
350.34876
350.34881
350.34886
350.34884
350.34885
357.75136
357.75134
357.75138
357.75134
357.75131
357.75132
357.75135
357.75138
357.75139
357.75141
357.75134
357.75136
357.75137
357.75133
357.7513
357.75131
357.75135
357.75139
357.75139
357.75139
357.75138
357.75137
357.75138
357.75134
357.75132
357.75133
357.75138
357.75143
357.75143
357.75141
357.75134
357.75133
357.75134
357.75129
357.75127
357.75129
357.75135
357.75141
357.75141
357.75141
357.75131
357.7513
357.75132
357.75127
357.75126
357.75128
357.75134
357.7514
357.75142
357.75142
357.75132
357.75131
357.75133
357.75129
357.75128
357.75131
357.75137
357.75144
357.75145
357.75146
357.75135
357.75135
357.75138
357.75135
357.75134
357.75137
357.75143
357.7515
357.75151
357.75152
357.75138
357.75139
357.75143
357.75141
357.7514
357.75144
357.7515
357.75156
357.75157
357.75157
357.75139
357.75139
357.75143
357.75141
357.75142
357.75145
357.75151
357.75157
357.75157
357.75154
357.75141
357.75139
357.75141
357.75141
357.75142
357.75146
357.75152
357.75157
357.75154
357.75156
365.16328
365.16325
365.1633
365.16325
365.16323
365.16324
365.16327
365.16331
365.16332
365.16334
365.16325
365.16328
365.16329
365.16324
365.16322
365.16323
365.16327
365.16332
365.16332
365.16332
365.1633
365.16329
365.1633
365.16325
365.16323
365.16325
365.1633
365.16336
365.16335
365.16334
365.16325
365.16324
365.16325
365.16321
365.16319
365.16321
365.16327
365.16333
365.16334
365.16334
365.16323
365.16322
365.16323
365.16319
365.16318
365.16321
365.16326
365.16334
365.16335
365.16335
365.16324
365.16323
365.16325
365.16321
365.16321
365.16323
365.1633
365.16337
365.16339
365.16339
365.16327
365.16327
365.1633
365.16327
365.16326
365.1633
365.16336
365.16344
365.16345
365.16346
365.16331
365.16332
365.16336
365.16333
365.16334
365.16337
365.16344
365.16351
365.16352
365.16351
365.16332
365.16332
365.16335
365.16334
365.16335
365.16339
365.16345
365.16352
365.16352
365.16349
365.16334
365.16332
365.16334
365.16334
365.16335
365.16339
365.16346
365.16351
365.16349
365.1635
372.58498
372.58495
372.585
372.58495
372.58493
372.58494
372.58498
372.58502
372.58503
372.58505
372.58495
372.58498
372.58499
372.58494
372.58492
372.58494
372.58498
372.58503
372.58503
372.58503
372.585
372.58499
372.585
372.58495
372.58494
372.58496
372.58501
372.58507
372.58507
372.58505
372.58495
372.58494
372.58495
372.58491
372.58489
372.58492
372.58498
372.58505
372.58506
372.58505
372.58493
372.58492
372.58494
372.58489
372.58488
372.58491
372.58497
372.58505
372.58507
372.58507
372.58494
372.58494
372.58496
372.58492
372.58491
372.58494
372.58501
372.58509
372.58511
372.58511
372.58498
372.58498
372.58501
372.58498
372.58497
372.58501
372.58508
372.58516
372.58517
372.58518
372.58502
372.58503
372.58507
372.58505
372.58505
372.58509
372.58516
372.58523
372.58525
372.58524
372.58503
372.58503
372.58507
372.58506
372.58507
372.58511
372.58517
372.58525
372.58524
372.58521
372.58505
372.58503
372.58505
372.58505
372.58507
372.58511
372.58518
372.58524
372.58521
372.58522
380.01694
380.01692
380.01697
380.01692
380.01689
380.01691
380.01695
380.01699
380.017
380.01702
380.01692
380.01694
380.01696
380.01691
380.01689
380.0169
380.01695
380.017
380.017
380.017
380.01697
380.01696
380.01697
380.01692
380.0169
380.01692
380.01698
380.01704
380.01704
380.01703
380.01692
380.01691
380.01692
380.01687
380.01686
380.01689
380.01695
380.01702
380.01703
380.01703
380.01689
380.01689
380.0169
380.01686
380.01685
380.01688
380.01695
380.01703
380.01704
380.01705
380.01691
380.0169
380.01692
380.01689
380.01688
380.01691
380.01698
380.01707
380.01709
380.01709
380.01695
380.01695
380.01698
380.01695
380.01695
380.01698
380.01706
380.01714
380.01716
380.01716
380.01699
380.017
380.01704
380.01702
380.01703
380.01707
380.01714
380.01722
380.01724
380.01723
380.017
380.017
380.01704
380.01703
380.01704
380.01709
380.01716
380.01724
380.01723
380.0172
380.01702
380.017
380.01703
380.01703
380.01705
380.01709
380.01716
380.01723
380.0172
380.01721
387.45959
387.45957
387.45962
387.45957
387.45955
387.45956
387.4596
387.45965
387.45966
387.45968
387.45957
387.45959
387.45961
387.45956
387.45954
387.45956
387.45961
387.45966
387.45966
387.45966
387.45962
387.45961
387.45962
387.45957
387.45955
387.45958
387.45964
387.4597
387.4597
387.45969
387.45957
387.45956
387.45957
387.45953
387.45951
387.45954
387.45961
387.45968
387.4597
387.45969
387.45955
387.45954
387.45955
387.45951
387.4595
387.45953
387.45961
387.45969
387.45971
387.45971
387.45956
387.45956
387.45958
387.45954
387.45953
387.45957
387.45965
387.45973
387.45975
387.45976
387.4596
387.45961
387.45964
387.45961
387.45961
387.45965
387.45972
387.45981
387.45983
387.45983
387.45965
387.45966
387.4597
387.45968
387.45969
387.45973
387.45981
387.4599
387.45991
387.4599
387.45966
387.45966
387.4597
387.4597
387.45971
387.45975
387.45983
387.45991
387.45991
387.45987
387.45968
387.45966
387.45969
387.45969
387.45971
387.45976
387.45983
387.4599
387.45987
387.45989
394.91328
394.91325
394.91331
394.91326
394.91324
394.91325
394.91329
394.91334
394.91336
394.91338
394.91325
394.91328
394.9133
394.91325
394.91323
394.91325
394.9133
394.91336
394.91336
394.91336
394.91331
394.9133
394.91331
394.91326
394.91324
394.91327
394.91333
394.9134
394.9134
394.91339
394.91326
394.91325
394.91326
394.91321
394.9132
394.91323
394.9133
394.91338
394.9134
394.91339
394.91324
394.91323
394.91324
394.9132
394.91319
394.91323
394.9133
394.91339
394.91341
394.91341
394.91325
394.91325
394.91327
394.91323
394.91323
394.91327
394.91335
394.91344
394.91346
394.91346
394.91329
394.9133
394.91333
394.9133
394.9133
394.91335
394.91343
394.91352
394.91354
394.91354
394.91334
394.91336
394.9134
394.91338
394.91339
394.91344
394.91352
394.9136
394.91362
394.91361
394.91336
394.91336
394.9134
394.9134
394.91341
394.91346
394.91354
394.91362
394.91362
394.91358
394.91338
394.91336
394.91339
394.91339
394.91341
394.91346
394.91354
394.91361
394.91358
394.91359
402.37829
402.37827
402.37832
402.37827
402.37825
402.37827
402.37831
402.37836
402.37838
402.3784
402.37827
402.37829
402.37831
402.37826
402.37824
402.37826
402.37832
402.37838
402.37838
402.37838
402.37832
402.37831
402.37832
402.37827
402.37826
402.37829
402.37835
402.37842
402.37842
402.37841
402.37827
402.37826
402.37827
402.37823
402.37822
402.37825
402.37832
402.37841
402.37842
402.37842
402.37825
402.37824
402.37826
402.37822
402.37821
402.37825
402.37832
402.37841
402.37843
402.37844
402.37827
402.37826
402.37829
402.37825
402.37825
402.37829
402.37837
402.37846
402.37848
402.37849
402.37831
402.37832
402.37835
402.37832
402.37832
402.37837
402.37845
402.37854
402.37857
402.37857
402.37836
402.37838
402.37842
402.37841
402.37841
402.37846
402.37854
402.37864
402.37865
402.37864
402.37838
402.37838
402.37842
402.37842
402.37843
402.37848
402.37857
402.37865
402.37865
402.37861
402.3784
402.37838
402.37841
402.37842
402.37844
402.37849
402.37857
402.37864
402.37861
402.37863
409.85484
409.85482
409.85487
409.85482
409.8548
409.85482
409.85487
409.85492
409.85494
409.85496
409.85482
409.85485
409.85486
409.85481
409.8548
409.85482
409.85488
409.85494
409.85494
409.85494
409.85487
409.85486
409.85488
409.85483
409.85481
409.85484
409.85491
409.85498
409.85499
409.85497
409.85482
409.85481
409.85483
409.85478
409.85477
409.85481
409.85488
409.85497
409.85498
409.85498
409.8548
409.8548
409.85481
409.85477
409.85477
409.8548
409.85488
409.85498
409.855
409.855
409.85482
409.85482
409.85484
409.85481
409.8548
409.85485
409.85493
409.85503
409.85505
409.85506
409.85487
409.85488
409.85491
409.85488
409.85488
409.85493
409.85502
409.85511
409.85513
409.85514
409.85492
409.85494
409.85498
409.85497
409.85498
409.85503
409.85511
409.85521
409.85522
409.85521
409.85494
409.85494
409.85499
409.85498
409.855
409.85505
409.85513
409.85522
409.85522
409.85518
409.85496
409.85494
409.85497
409.85498
409.855
409.85506
409.85514
409.85521
409.85518
409.85519
417.34308
417.34305
417.34311
417.34306
417.34304
417.34306
417.34311
417.34317
417.34318
417.34321
417.34305
417.34308
417.3431
417.34305
417.34303
417.34306
417.34312
417.34318
417.34318
417.34319
417.34311
417.3431
417.34311
417.34307
417.34305
417.34308
417.34315
417.34323
417.34323
417.34322
417.34306
417.34305
417.34307
417.34302
417.34301
417.34305
417.34312
417.34321
417.34323
417.34322
417.34304
417.34303
417.34305
417.34301
417.34301
417.34305
417.34313
417.34322
417.34324
417.34325
417.34306
417.34306
417.34308
417.34305
417.34305
417.34309
417.34318
417.34327
417.3433
417.3433
417.34311
417.34312
417.34315
417.34312
417.34313
417.34318
417.34326
417.34336
417.34338
417.34339
417.34317
417.34318
417.34323
417.34321
417.34322
417.34327
417.34336
417.34346
417.34347
417.34346
417.34318
417.34318
417.34323
417.34323
417.34324
417.3433
417.34338
417.34347
417.34347
417.34343
417.34321
417.34319
417.34322
417.34322
417.34325
417.3433
417.34339
417.34346
417.34343
417.34344
424.84307
424.84305
424.8431
424.84306
424.84304
424.84306
424.84311
424.84316
424.84318
424.84321
424.84305
424.84307
424.84309
424.84305
424.84303
424.84306
424.84312
424.84318
424.84318
424.84319
424.8431
424.84309
424.84311
424.84306
424.84305
424.84308
424.84315
424.84323
424.84323
424.84322
424.84306
424.84305
424.84306
424.84302
424.84301
424.84305
424.84312
424.84321
424.84323
424.84323
424.84304
424.84303
424.84305
424.84301
424.84301
424.84305
424.84313
424.84322
424.84325
424.84325
424.84306
424.84306
424.84308
424.84305
424.84305
424.84309
424.84318
424.84328
424.8433
424.84331
424.84311
424.84312
424.84315
424.84312
424.84313
424.84318
424.84327
424.84337
424.84339
424.84339
424.84316
424.84318
424.84323
424.84321
424.84322
424.84328
424.84337
424.84346
424.84348
424.84347
424.84318
424.84318
424.84323
424.84323
424.84325
424.8433
424.84339
424.84348
424.84347
424.84343
424.84321
424.84319
424.84322
424.84323
424.84325
424.84331
424.84339
424.84347
424.84343
424.84345
432.35482
432.3548
432.35485
432.35481
432.35479
432.35481
432.35486
432.35492
432.35494
432.35496
432.3548
432.35482
432.35484
432.3548
432.35478
432.35481
432.35487
432.35494
432.35494
432.35494
432.35485
432.35484
432.35486
432.35481
432.3548
432.35483
432.35491
432.35498
432.35499
432.35497
432.35481
432.3548
432.35481
432.35477
432.35476
432.3548
432.35488
432.35497
432.35498
432.35498
432.35479
432.35478
432.3548
432.35476
432.35476
432.3548
432.35489
432.35498
432.355
432.35501
432.35481
432.35481
432.35483
432.3548
432.3548
432.35485
432.35494
432.35504
432.35506
432.35507
432.35486
432.35487
432.35491
432.35488
432.35489
432.35494
432.35503
432.35512
432.35515
432.35515
432.35492
432.35494
432.35498
432.35497
432.35498
432.35504
432.35512
432.35522
432.35524
432.35523
432.35494
432.35494
432.35499
432.35498
432.355
432.35506
432.35515
432.35524
432.35523
432.35519
432.35496
432.35494
432.35497
432.35498
432.35501
432.35507
432.35515
432.35523
432.35519
432.35521
439.87826
439.87823
439.87828
439.87824
439.87823
439.87825
439.8783
439.87836
439.87838
439.8784
439.87823
439.87826
439.87828
439.87823
439.87822
439.87825
439.87831
439.87838
439.87838
439.87838
439.87828
439.87828
439.87829
439.87825
439.87824
439.87827
439.87834
439.87842
439.87842
439.87841
439.87824
439.87823
439.87825
439.87821
439.8782
439.87824
439.87832
439.87841
439.87842
439.87842
439.87823
439.87822
439.87824
439.8782
439.8782
439.87824
439.87833
439.87842
439.87845
439.87845
439.87825
439.87825
439.87827
439.87824
439.87824
439.87829
439.87838
439.87848
439.8785
439.87851
439.8783
439.87831
439.87834
439.87832
439.87833
439.87838
439.87847
439.87857
439.87859
439.87859
439.87836
439.87838
439.87842
439.87841
439.87842
439.87848
439.87857
439.87866
439.87868
439.87867
439.87838
439.87838
439.87842
439.87842
439.87845
439.8785
439.87859
439.87868
439.87867
439.87863
439.8784
439.87838
439.87841
439.87842
439.87845
439.87851
439.87859
439.87867
439.87863
439.87865
447.41323
447.41321
447.41326
447.41322
447.4132
447.41323
447.41328
447.41334
447.41336
447.41338
447.41321
447.41323
447.41325
447.41321
447.4132
447.41323
447.41329
447.41335
447.41336
447.41336
447.41326
447.41325
447.41326
447.41322
447.41322
447.41325
447.41332
447.4134
447.4134
447.41339
447.41322
447.41321
447.41322
447.41319
447.41318
447.41322
447.4133
447.41339
447.4134
447.4134
447.4132
447.4132
447.41322
447.41318
447.41318
447.41323
447.41331
447.4134
447.41343
447.41343
447.41323
447.41323
447.41325
447.41322
447.41323
447.41327
447.41336
447.41346
447.41348
447.41349
447.41328
447.41329
447.41332
447.4133
447.41331
447.41336
447.41345
447.41355
447.41357
447.41357
447.41334
447.41335
447.4134
447.41339
447.4134
447.41346
447.41355
447.41364
447.41366
447.41365
447.41336
447.41336
447.4134
447.4134
447.41343
447.41348
447.41357
447.41366
447.41365
447.41361
447.41338
447.41336
447.41339
447.4134
447.41343
447.41349
447.41357
447.41365
447.41361
447.41363
454.95953
454.95951
454.95955
454.95952
454.9595
454.95953
454.95958
454.95964
454.95966
454.95968
454.95951
454.95953
454.95955
454.95951
454.9595
454.95953
454.95959
454.95966
454.95966
454.95966
454.95955
454.95955
454.95956
454.95952
454.95952
454.95955
454.95962
454.9597
454.9597
454.95969
454.95952
454.95951
454.95952
454.95949
454.95949
454.95953
454.9596
454.95969
454.95971
454.95971
454.9595
454.9595
454.95952
454.95949
454.95949
454.95953
454.95961
454.95971
454.95973
454.95973
454.95953
454.95953
454.95955
454.95953
454.95953
454.95958
454.95966
454.95976
454.95978
454.95979
454.95958
454.95959
454.95962
454.9596
454.95961
454.95966
454.95975
454.95985
454.95987
454.95988
454.95964
454.95966
454.9597
454.95969
454.95971
454.95976
454.95985
454.95994
454.95996
454.95995
454.95966
454.95966
454.9597
454.95971
454.95973
454.95978
454.95987
454.95996
454.95995
454.95991
454.95968
454.95966
454.95969
454.95971
454.95973
454.95979
454.95988
454.95995
454.95991
454.95993
462.51687
462.51684
462.51689
462.51686
462.51684
462.51687
462.51692
462.51698
462.517
462.51702
462.51684
462.51687
462.51689
462.51685
462.51684
462.51687
462.51693
462.517
462.517
462.517
462.51689
462.51689
462.5169
462.51686
462.51686
462.51689
462.51696
462.51704
462.51704
462.51703
462.51686
462.51685
462.51686
462.51683
462.51683
462.51687
462.51695
462.51703
462.51705
462.51705
462.51684
462.51684
462.51686
462.51683
462.51683
462.51688
462.51696
462.51705
462.51707
462.51707
462.51687
462.51687
462.51689
462.51687
462.51688
462.51692
462.51701
462.5171
462.51713
462.51713
462.51692
462.51693
462.51696
462.51695
462.51696
462.51701
462.51709
462.51719
462.51721
462.51722
462.51698
462.517
462.51704
462.51703
462.51705
462.5171
462.51719
462.51728
462.5173
462.51729
462.517
462.517
462.51704
462.51705
462.51707
462.51713
462.51721
462.5173
462.51729
462.51725
462.51702
462.517
462.51703
462.51705
462.51707
462.51713
462.51722
462.51729
462.51725
462.51727
470.08489
470.08487
470.08491
470.08488
470.08487
470.0849
470.08495
470.085
470.08502
470.08505
470.08487
470.08489
470.08491
470.08487
470.08487
470.0849
470.08496
470.08502
470.08502
470.08503
470.08491
470.08491
470.08492
470.08489
470.08488
470.08492
470.08499
470.08506
470.08507
470.08506
470.08488
470.08487
470.08489
470.08486
470.08486
470.0849
470.08497
470.08506
470.08507
470.08507
470.08487
470.08487
470.08488
470.08486
470.08486
470.08491
470.08498
470.08507
470.08509
470.0851
470.0849
470.0849
470.08492
470.0849
470.08491
470.08495
470.08503
470.08513
470.08515
470.08516
470.08495
470.08496
470.08499
470.08497
470.08498
470.08503
470.08512
470.08521
470.08523
470.08524
470.085
470.08502
470.08506
470.08506
470.08507
470.08513
470.08521
470.0853
470.08532
470.08531
470.08502
470.08502
470.08507
470.08507
470.08509
470.08515
470.08523
470.08532
470.08531
470.08527
470.08505
470.08503
470.08506
470.08507
470.0851
470.08516
470.08524
470.08531
470.08527
470.08529
477.66318
477.66316
477.6632
477.66317
477.66316
477.66319
477.66324
477.66329
477.66331
477.66333
477.66316
477.66318
477.6632
477.66316
477.66316
477.66319
477.66325
477.66331
477.66331
477.66332
477.6632
477.6632
477.66321
477.66318
477.66318
477.66321
477.66328
477.66335
477.66336
477.66335
477.66317
477.66316
477.66318
477.66315
477.66315
477.66319
477.66327
477.66335
477.66336
477.66336
477.66316
477.66316
477.66318
477.66315
477.66316
477.6632
477.66328
477.66336
477.66338
477.66339
477.66319
477.66319
477.66321
477.66319
477.6632
477.66325
477.66333
477.66341
477.66344
477.66344
477.66324
477.66325
477.66328
477.66327
477.66328
477.66333
477.66341
477.6635
477.66352
477.66352
477.66329
477.66331
477.66335
477.66335
477.66336
477.66341
477.6635
477.66358
477.6636
477.66359
477.66331
477.66331
477.66336
477.66336
477.66338
477.66344
477.66352
477.6636
477.66359
477.66356
477.66333
477.66332
477.66335
477.66336
477.66339
477.66344
477.66352
477.66359
477.66356
477.66357
485.25125
485.25123
485.25127
485.25125
485.25124
485.25127
485.25131
485.25137
485.25139
485.25141
485.25123
485.25125
485.25127
485.25124
485.25124
485.25127
485.25132
485.25138
485.25139
485.25139
485.25127
485.25127
485.25128
485.25125
485.25125
485.25129
485.25135
485.25142
485.25143
485.25142
485.25125
485.25124
485.25125
485.25123
485.25123
485.25127
485.25134
485.25142
485.25143
485.25143
485.25124
485.25124
485.25125
485.25123
485.25124
485.25128
485.25135
485.25144
485.25146
485.25146
485.25127
485.25127
485.25129
485.25127
485.25128
485.25132
485.2514
485.25149
485.25151
485.25151
485.25131
485.25132
485.25135
485.25134
485.25135
485.2514
485.25148
485.25156
485.25158
485.25159
485.25137
485.25138
485.25142
485.25142
485.25144
485.25149
485.25156
485.25165
485.25166
485.25165
485.25139
485.25139
485.25143
485.25143
485.25146
485.25151
485.25158
485.25166
485.25166
485.25162
485.25141
485.25139
485.25142
485.25143
485.25146
485.25151
485.25159
485.25165
485.25162
485.25164
492.84856
492.84855
492.84858
492.84856
492.84856
492.84858
492.84863
492.84868
492.8487
492.84872
492.84855
492.84856
492.84858
492.84855
492.84855
492.84858
492.84864
492.84869
492.8487
492.8487
492.84858
492.84858
492.84859
492.84857
492.84857
492.8486
492.84866
492.84873
492.84874
492.84873
492.84856
492.84855
492.84857
492.84855
492.84855
492.84859
492.84866
492.84873
492.84874
492.84874
492.84856
492.84855
492.84857
492.84855