/*--------------------------------*- C++ -*----------------------------------*\
| =========                 |                                                 |
| \\      /  F ield         | OpenFOAM: The Open Source CFD Toolbox           |
|  \\    /   O peration     | Version:  v2106                                 |
|   \\  /    A nd           | Website:  www.openfoam.com                      |
|    \\/     M anipulation  |                                                 |
\*---------------------------------------------------------------------------*/
FoamFile
{
    version     2.0;
    format      ascii;
    arch        "LSB;label=32;scalar=64";
    class       volScalarField;
    location    "30";
    object      T;
}
// * * * * * * * * * * * * * * * * * * * * * * * * * * * * * * * * * * * * * //

dimensions      [0 0 0 1 0 0 0];

internalField   nonuniform List<scalar> 
500
(
280.34911
280.34912
280.34911
280.3491
280.3491
280.34912
280.34912
280.3491
280.3491
280.3491
280.34911
280.3491
280.34909
280.34909
280.34909
280.3491
280.3491
280.34909
280.34909
280.3491
280.3491
280.3491
280.34909
280.3491
280.3491
295.05104
295.05106
295.05102
295.05101
295.05101
295.05106
295.05105
295.05102
295.05101
295.05101
295.05102
295.05102
295.051
295.05099
295.051
295.05101
295.05101
295.05099
295.051
295.051
295.05101
295.05101
295.051
295.051
295.05101
309.76402
309.76404
309.764
309.76398
309.76397
309.76404
309.76403
309.76399
309.76398
309.76398
309.764
309.76399
309.76396
309.76396
309.76397
309.76398
309.76398
309.76396
309.76397
309.76398
309.76397
309.76398
309.76397
309.76398
309.76398
324.49512
324.49514
324.49509
324.49507
324.49506
324.49514
324.49513
324.49508
324.49508
324.49507
324.49509
324.49508
324.49504
324.49505
324.49506
324.49507
324.49508
324.49505
324.49508
324.49509
324.49506
324.49507
324.49506
324.49509
324.49509
339.25095
339.25098
339.25092
339.2509
339.25089
339.25098
339.25096
339.25091
339.25091
339.25091
339.25092
339.25091
339.25087
339.25089
339.25091
339.2509
339.25091
339.25089
339.25093
339.25094
339.25089
339.25091
339.25091
339.25094
339.25094
354.03754
354.03757
354.0375
354.03749
354.03748
354.03757
354.03755
354.0375
354.03751
354.03751
354.0375
354.0375
354.03746
354.03749
354.03751
354.03749
354.03751
354.03749
354.03754
354.03756
354.03748
354.03751
354.03751
354.03756
354.03755
368.86013
368.86016
368.8601
368.86009
368.86008
368.86016
368.86015
368.86009
368.86011
368.86011
368.8601
368.86009
368.86006
368.8601
368.86012
368.86009
368.86011
368.8601
368.86016
368.86018
368.86008
368.86011
368.86012
368.86018
368.86017
383.72311
383.72314
383.72307
383.72307
383.72307
383.72314
383.72312
383.72307
383.7231
383.7231
383.72307
383.72307
383.72304
383.72309
383.72312
383.72307
383.7231
383.72309
383.72316
383.72319
383.72307
383.7231
383.72312
383.72319
383.72317
398.62983
398.62986
398.6298
398.62981
398.6298
398.62986
398.62985
398.6298
398.62984
398.62984
398.6298
398.6298
398.62977
398.62983
398.62986
398.62981
398.62984
398.62983
398.62991
398.62994
398.6298
398.62984
398.62986
398.62994
398.62993
413.58261
413.58264
413.58258
413.58259
413.58259
413.58264
413.58262
413.58258
413.58262
413.58263
413.58258
413.58258
413.58256
413.58263
413.58266
413.58259
413.58262
413.58263
413.58271
413.58274
413.58259
413.58263
413.58266
413.58274
413.58273
428.58259
428.58262
428.58257
428.58259
428.58259
428.58262
428.58261
428.58257
428.58262
428.58263
428.58257
428.58257
428.58256
428.58263
428.58266
428.58259
428.58262
428.58263
428.58272
428.58275
428.58259
428.58263
428.58266
428.58275
428.58274
443.62979
443.62982
443.62977
443.6298
443.6298
443.62982
443.62981
443.62978
443.62983
443.62984
443.62977
443.62978
443.62977
443.62985
443.62988
443.6298
443.62983
443.62985
443.62994
443.62997
443.6298
443.62984
443.62988
443.62997
443.62996
458.72304
458.72307
458.72303
458.72306
458.72306
458.72307
458.72306
458.72304
458.72309
458.72311
458.72303
458.72304
458.72303
458.72311
458.72315
458.72306
458.72309
458.72311
458.7232
458.72324
458.72306
458.72311
458.72315
458.72324
458.72322
473.86005
473.86007
473.86004
473.86007
473.86008
473.86007
473.86007
473.86005
473.86011
473.86012
473.86004
473.86005
473.86005
473.86013
473.86016
473.86007
473.86011
473.86013
473.86022
473.86025
473.86008
473.86012
473.86016
473.86025
473.86023
489.03743
489.03746
489.03743
489.03747
489.03748
489.03746
489.03745
489.03744
489.0375
489.03752
489.03743
489.03744
489.03745
489.03753
489.03756
489.03747
489.0375
489.03753
489.03761
489.03764
489.03748
489.03752
489.03756
489.03764
489.03763
504.25084
504.25085
504.25084
504.25087
504.25088
504.25085
504.25085
504.25085
504.2509
504.25092
504.25084
504.25085
504.25086
504.25093
504.25096
504.25087
504.2509
504.25093
504.25101
504.25104
504.25088
504.25092
504.25096
504.25104
504.25102
519.495
519.49501
519.49501
519.49504
519.49505
519.49501
519.49501
519.49502
519.49507
519.49508
519.49501
519.49502
519.49503
519.4951
519.49512
519.49504
519.49507
519.4951
519.49516
519.49519
519.49505
519.49508
519.49512
519.49519
519.49517
534.76392
534.76392
534.76392
534.76395
534.76396
534.76392
534.76392
534.76393
534.76397
534.76399
534.76392
534.76393
534.76395
534.764
534.76402
534.76395
534.76397
534.764
534.76406
534.76407
534.76396
534.76399
534.76402
534.76407
534.76406
550.05097
550.05096
550.05097
550.05099
550.051
550.05096
550.05096
550.05097
550.051
550.05101
550.05097
550.05097
550.05099
550.05102
550.05104
550.05099
550.051
550.05102
550.05106
550.05107
550.051
550.05101
550.05104
550.05107
550.05106
565.34908
565.34908
565.34908
565.34909
565.3491
565.34908
565.34908
565.34908
565.3491
565.3491
565.34908
565.34908
565.34909
565.34911
565.34911
565.34909
565.3491
565.34911
565.34912
565.34913
565.3491
565.3491
565.34911
565.34913
565.34911
)
;

boundaryField
{
    wall_minX
    {
        type            zeroGradient;
    }
    wall_maxX
    {
        type            zeroGradient;
    }
    wall_minY
    {
        type            zeroGradient;
    }
    wall_maxY
    {
        type            zeroGradient;
    }
    inlet_minZ
    {
        type            fixedValue;
        value           uniform 273;
    }
    outlet_maxZ
    {
        type            fixedValue;
        value           uniform 573;
    }
}


// ************************************************************************* //
