/*--------------------------------*- C++ -*----------------------------------*\
| =========                 |                                                 |
| \\      /  F ield         | OpenFOAM: The Open Source CFD Toolbox           |
|  \\    /   O peration     | Version:  v2106                                 |
|   \\  /    A nd           | Website:  www.openfoam.com                      |
|    \\/     M anipulation  |                                                 |
\*---------------------------------------------------------------------------*/
FoamFile
{
    version     2.0;
    format      ascii;
    arch        "LSB;label=32;scalar=64";
    class       volScalarField;
    location    "80";
    object      DT;
}
// * * * * * * * * * * * * * * * * * * * * * * * * * * * * * * * * * * * * * //

dimensions      [0 2 -1 0 0 0 0];

internalField   nonuniform List<scalar> 
4000
(
0.00054863094
0.00054863097
0.00054863098
0.00054863099
0.000548631
0.000548631
0.000548631
0.00054863099
0.00054863098
0.00054863098
0.00054863097
0.000548631
0.00054863101
0.00054863102
0.00054863102
0.00054863102
0.00054863102
0.00054863101
0.00054863101
0.000548631
0.00054863098
0.00054863101
0.00054863102
0.00054863103
0.00054863104
0.00054863104
0.00054863103
0.00054863103
0.00054863102
0.00054863101
0.00054863099
0.00054863102
0.00054863103
0.00054863104
0.00054863104
0.00054863104
0.00054863104
0.00054863103
0.00054863102
0.00054863101
0.000548631
0.00054863102
0.00054863104
0.00054863104
0.00054863105
0.00054863105
0.00054863104
0.00054863104
0.00054863103
0.00054863102
0.000548631
0.00054863102
0.00054863104
0.00054863104
0.00054863105
0.00054863105
0.00054863104
0.00054863104
0.00054863103
0.00054863101
0.000548631
0.00054863102
0.00054863103
0.00054863104
0.00054863104
0.00054863104
0.00054863104
0.00054863103
0.00054863102
0.00054863101
0.00054863099
0.00054863101
0.00054863103
0.00054863103
0.00054863104
0.00054863104
0.00054863103
0.00054863102
0.00054863101
0.000548631
0.00054863098
0.00054863101
0.00054863102
0.00054863102
0.00054863103
0.00054863103
0.00054863102
0.00054863101
0.000548631
0.00054863099
0.00054863098
0.000548631
0.00054863101
0.00054863101
0.00054863102
0.00054863101
0.00054863101
0.000548631
0.00054863099
0.00054863098
0.00057210556
0.00057210581
0.00057210594
0.00057210603
0.00057210608
0.00057210608
0.00057210606
0.000572106
0.00057210593
0.00057210585
0.00057210581
0.00057210603
0.00057210616
0.00057210625
0.00057210629
0.0005721063
0.00057210627
0.00057210621
0.00057210612
0.00057210602
0.00057210594
0.00057210616
0.00057210629
0.00057210637
0.00057210642
0.00057210642
0.00057210639
0.00057210632
0.00057210623
0.00057210612
0.00057210603
0.00057210625
0.00057210637
0.00057210645
0.00057210649
0.00057210649
0.00057210646
0.00057210639
0.00057210629
0.00057210618
0.00057210608
0.00057210629
0.00057210642
0.00057210649
0.00057210653
0.00057210653
0.00057210649
0.00057210642
0.00057210632
0.0005721062
0.00057210608
0.0005721063
0.00057210642
0.00057210649
0.00057210653
0.00057210652
0.00057210648
0.00057210641
0.00057210631
0.00057210619
0.00057210606
0.00057210627
0.00057210639
0.00057210646
0.00057210649
0.00057210648
0.00057210644
0.00057210636
0.00057210626
0.00057210614
0.000572106
0.00057210621
0.00057210632
0.00057210639
0.00057210642
0.00057210641
0.00057210636
0.00057210629
0.00057210618
0.00057210606
0.00057210593
0.00057210612
0.00057210623
0.00057210629
0.00057210632
0.00057210631
0.00057210626
0.00057210618
0.00057210608
0.00057210595
0.00057210585
0.00057210602
0.00057210612
0.00057210618
0.0005721062
0.00057210619
0.00057210614
0.00057210606
0.00057210595
0.00057210583
0.00059464999
0.00059465041
0.00059465065
0.0005946508
0.00059465088
0.00059465089
0.00059465084
0.00059465073
0.00059465058
0.00059465042
0.00059465041
0.00059465078
0.00059465101
0.00059465116
0.00059465124
0.00059465125
0.00059465119
0.00059465108
0.00059465091
0.00059465069
0.00059465065
0.00059465101
0.00059465124
0.00059465138
0.00059465145
0.00059465146
0.00059465139
0.00059465127
0.00059465109
0.00059465086
0.0005946508
0.00059465116
0.00059465138
0.00059465152
0.00059465159
0.00059465159
0.00059465152
0.00059465139
0.0005946512
0.00059465096
0.00059465088
0.00059465124
0.00059465145
0.00059465159
0.00059465165
0.00059465165
0.00059465157
0.00059465144
0.00059465124
0.000594651
0.00059465089
0.00059465125
0.00059465146
0.00059465159
0.00059465165
0.00059465164
0.00059465156
0.00059465142
0.00059465122
0.00059465098
0.00059465084
0.00059465119
0.00059465139
0.00059465152
0.00059465157
0.00059465156
0.00059465148
0.00059465133
0.00059465113
0.00059465089
0.00059465073
0.00059465108
0.00059465127
0.00059465139
0.00059465144
0.00059465142
0.00059465133
0.00059465119
0.00059465098
0.00059465073
0.00059465058
0.00059465091
0.00059465109
0.0005946512
0.00059465124
0.00059465122
0.00059465113
0.00059465098
0.00059465078
0.00059465052
0.00059465042
0.00059465069
0.00059465086
0.00059465096
0.000594651
0.00059465098
0.00059465089
0.00059465073
0.00059465052
0.00059465026
0.0006163628
0.00061636336
0.00061636368
0.00061636389
0.000616364
0.00061636401
0.00061636393
0.00061636377
0.00061636355
0.00061636329
0.00061636336
0.00061636386
0.00061636417
0.00061636438
0.00061636448
0.00061636449
0.0006163644
0.00061636423
0.00061636398
0.00061636364
0.00061636368
0.00061636417
0.00061636448
0.00061636467
0.00061636477
0.00061636477
0.00061636468
0.0006163645
0.00061636422
0.00061636387
0.00061636389
0.00061636438
0.00061636467
0.00061636486
0.00061636495
0.00061636495
0.00061636485
0.00061636466
0.00061636437
0.00061636401
0.000616364
0.00061636448
0.00061636477
0.00061636495
0.00061636504
0.00061636503
0.00061636492
0.00061636472
0.00061636443
0.00061636406
0.00061636401
0.00061636449
0.00061636477
0.00061636495
0.00061636503
0.00061636501
0.00061636489
0.00061636469
0.00061636439
0.00061636402
0.00061636393
0.0006163644
0.00061636468
0.00061636485
0.00061636492
0.00061636489
0.00061636477
0.00061636456
0.00061636426
0.00061636388
0.00061636377
0.00061636423
0.0006163645
0.00061636466
0.00061636472
0.00061636469
0.00061636456
0.00061636434
0.00061636404
0.00061636366
0.00061636355
0.00061636398
0.00061636422
0.00061636437
0.00061636443
0.00061636439
0.00061636426
0.00061636404
0.00061636373
0.00061636334
0.00061636329
0.00061636364
0.00061636387
0.00061636401
0.00061636406
0.00061636402
0.00061636388
0.00061636366
0.00061636334
0.00061636294
0.00063732588
0.00063732656
0.00063732696
0.00063732722
0.00063732734
0.00063732735
0.00063732724
0.00063732703
0.00063732673
0.00063732638
0.00063732656
0.00063732718
0.00063732756
0.00063732781
0.00063732793
0.00063732793
0.00063732782
0.00063732759
0.00063732725
0.0006373268
0.00063732696
0.00063732756
0.00063732793
0.00063732817
0.00063732828
0.00063732828
0.00063732815
0.00063732791
0.00063732755
0.00063732707
0.00063732722
0.00063732781
0.00063732817
0.0006373284
0.00063732851
0.00063732849
0.00063732836
0.0006373281
0.00063732773
0.00063732724
0.00063732734
0.00063732793
0.00063732828
0.00063732851
0.00063732861
0.00063732858
0.00063732844
0.00063732818
0.0006373278
0.0006373273
0.00063732735
0.00063732793
0.00063732828
0.00063732849
0.00063732858
0.00063732855
0.0006373284
0.00063732813
0.00063732774
0.00063732724
0.00063732724
0.00063732782
0.00063732815
0.00063732836
0.00063732844
0.0006373284
0.00063732824
0.00063732796
0.00063732757
0.00063732706
0.00063732703
0.00063732759
0.00063732791
0.0006373281
0.00063732818
0.00063732813
0.00063732796
0.00063732768
0.00063732728
0.00063732677
0.00063732673
0.00063732725
0.00063732755
0.00063732773
0.0006373278
0.00063732774
0.00063732757
0.00063732728
0.00063732687
0.00063732635
0.00063732638
0.0006373268
0.00063732707
0.00063732724
0.0006373273
0.00063732724
0.00063732706
0.00063732677
0.00063732635
0.00063732581
0.00065760816
0.00065760895
0.00065760941
0.00065760971
0.00065760985
0.00065760985
0.00065760971
0.00065760945
0.00065760908
0.00065760864
0.00065760895
0.00065760967
0.00065761011
0.0006576104
0.00065761053
0.00065761053
0.00065761038
0.0006576101
0.00065760968
0.00065760913
0.00065760941
0.00065761011
0.00065761053
0.00065761081
0.00065761094
0.00065761092
0.00065761077
0.00065761047
0.00065761003
0.00065760944
0.00065760971
0.0006576104
0.00065761081
0.00065761108
0.0006576112
0.00065761117
0.000657611
0.00065761069
0.00065761023
0.00065760963
0.00065760985
0.00065761053
0.00065761094
0.0006576112
0.00065761131
0.00065761127
0.00065761109
0.00065761077
0.0006576103
0.00065760969
0.00065760985
0.00065761053
0.00065761092
0.00065761117
0.00065761127
0.00065761122
0.00065761103
0.0006576107
0.00065761022
0.00065760961
0.00065760971
0.00065761038
0.00065761077
0.000657611
0.00065761109
0.00065761103
0.00065761083
0.00065761049
0.00065761001
0.00065760939
0.00065760945
0.0006576101
0.00065761047
0.00065761069
0.00065761077
0.0006576107
0.00065761049
0.00065761014
0.00065760965
0.00065760902
0.00065760908
0.00065760968
0.00065761003
0.00065761023
0.0006576103
0.00065761022
0.00065761001
0.00065760965
0.00065760915
0.00065760851
0.00065760864
0.00065760913
0.00065760944
0.00065760963
0.00065760969
0.00065760961
0.00065760939
0.00065760902
0.00065760851
0.00065760784
0.00067726836
0.00067726925
0.00067726976
0.00067727009
0.00067727025
0.00067727024
0.00067727007
0.00067726976
0.00067726932
0.0006772688
0.00067726925
0.00067727006
0.00067727055
0.00067727086
0.00067727101
0.000677271
0.00067727082
0.00067727049
0.00067727
0.00067726934
0.00067726976
0.00067727055
0.00067727102
0.00067727133
0.00067727147
0.00067727144
0.00067727125
0.0006772709
0.00067727038
0.00067726969
0.00067727009
0.00067727086
0.00067727133
0.00067727162
0.00067727175
0.00067727171
0.00067727151
0.00067727114
0.0006772706
0.00067726989
0.00067727025
0.00067727101
0.00067727147
0.00067727175
0.00067727187
0.00067727182
0.0006772716
0.00067727122
0.00067727067
0.00067726995
0.00067727024
0.000677271
0.00067727144
0.00067727171
0.00067727182
0.00067727175
0.00067727153
0.00067727113
0.00067727058
0.00067726985
0.00067727007
0.00067727082
0.00067727125
0.00067727151
0.0006772716
0.00067727153
0.00067727129
0.00067727089
0.00067727032
0.00067726959
0.00067726976
0.00067727049
0.0006772709
0.00067727114
0.00067727122
0.00067727113
0.00067727089
0.00067727047
0.0006772699
0.00067726916
0.00067726932
0.00067727
0.00067727038
0.0006772706
0.00067727067
0.00067727058
0.00067727032
0.0006772699
0.00067726931
0.00067726856
0.0006772688
0.00067726934
0.00067726969
0.00067726989
0.00067726995
0.00067726985
0.00067726959
0.00067726916
0.00067726856
0.00067726777
0.00069635701
0.00069635799
0.00069635855
0.00069635891
0.00069635907
0.00069635905
0.00069635886
0.0006963585
0.00069635799
0.0006963574
0.00069635799
0.00069635888
0.00069635941
0.00069635976
0.00069635991
0.00069635988
0.00069635968
0.0006963593
0.00069635874
0.00069635799
0.00069635855
0.00069635941
0.00069635993
0.00069636026
0.0006963604
0.00069636036
0.00069636014
0.00069635974
0.00069635915
0.00069635836
0.00069635891
0.00069635976
0.00069636026
0.00069636058
0.00069636071
0.00069636066
0.00069636042
0.00069636
0.00069635939
0.00069635858
0.00069635907
0.00069635991
0.0006963604
0.00069636071
0.00069636083
0.00069636076
0.00069636051
0.00069636008
0.00069635945
0.00069635864
0.00069635905
0.00069635988
0.00069636036
0.00069636066
0.00069636076
0.00069636068
0.00069636042
0.00069635997
0.00069635934
0.00069635852
0.00069635886
0.00069635968
0.00069636014
0.00069636042
0.00069636051
0.00069636042
0.00069636015
0.00069635969
0.00069635904
0.00069635822
0.0006963585
0.0006963593
0.00069635974
0.00069636
0.00069636008
0.00069635997
0.00069635969
0.00069635922
0.00069635856
0.00069635773
0.00069635799
0.00069635874
0.00069635915
0.00069635939
0.00069635945
0.00069635934
0.00069635904
0.00069635856
0.00069635789
0.00069635704
0.0006963574
0.00069635799
0.00069635836
0.00069635858
0.00069635864
0.00069635852
0.00069635822
0.00069635773
0.00069635704
0.00069635614
0.00071491803
0.00071491908
0.00071491968
0.00071492006
0.00071492023
0.0007149202
0.00071491997
0.00071491957
0.00071491901
0.00071491835
0.00071491908
0.00071492003
0.00071492061
0.00071492097
0.00071492113
0.00071492109
0.00071492086
0.00071492043
0.00071491981
0.00071491898
0.00071491968
0.00071492061
0.00071492116
0.00071492151
0.00071492166
0.0007149216
0.00071492135
0.0007149209
0.00071492025
0.00071491938
0.00071492006
0.00071492097
0.00071492151
0.00071492184
0.00071492198
0.00071492191
0.00071492164
0.00071492117
0.0007149205
0.00071491961
0.00071492023
0.00071492113
0.00071492166
0.00071492198
0.0007149221
0.00071492202
0.00071492173
0.00071492125
0.00071492056
0.00071491966
0.0007149202
0.00071492109
0.0007149216
0.00071492191
0.00071492202
0.00071492192
0.00071492163
0.00071492113
0.00071492042
0.00071491951
0.00071491997
0.00071492086
0.00071492135
0.00071492164
0.00071492173
0.00071492163
0.00071492132
0.00071492081
0.00071492009
0.00071491918
0.00071491957
0.00071492043
0.0007149209
0.00071492117
0.00071492125
0.00071492113
0.00071492081
0.00071492028
0.00071491955
0.00071491863
0.00071491901
0.00071491981
0.00071492025
0.0007149205
0.00071492056
0.00071492042
0.00071492009
0.00071491955
0.00071491881
0.00071491787
0.00071491835
0.00071491898
0.00071491938
0.00071491961
0.00071491966
0.00071491951
0.00071491918
0.00071491863
0.00071491787
0.00071491687
0.00073298986
0.00073299098
0.00073299161
0.000732992
0.00073299217
0.00073299213
0.00073299188
0.00073299144
0.00073299083
0.00073299011
0.00073299098
0.00073299199
0.00073299259
0.00073299297
0.00073299313
0.00073299308
0.00073299282
0.00073299235
0.00073299168
0.00073299078
0.00073299161
0.00073299259
0.00073299317
0.00073299353
0.00073299368
0.00073299362
0.00073299334
0.00073299285
0.00073299213
0.00073299119
0.000732992
0.00073299297
0.00073299353
0.00073299388
0.00073299402
0.00073299394
0.00073299364
0.00073299313
0.00073299239
0.00073299142
0.00073299217
0.00073299313
0.00073299368
0.00073299402
0.00073299414
0.00073299404
0.00073299373
0.0007329932
0.00073299245
0.00073299147
0.00073299213
0.00073299308
0.00073299362
0.00073299394
0.00073299404
0.00073299393
0.0007329936
0.00073299306
0.00073299229
0.00073299131
0.00073299188
0.00073299282
0.00073299334
0.00073299364
0.00073299373
0.0007329936
0.00073299326
0.0007329927
0.00073299193
0.00073299093
0.00073299144
0.00073299235
0.00073299285
0.00073299313
0.0007329932
0.00073299306
0.0007329927
0.00073299213
0.00073299134
0.00073299034
0.00073299083
0.00073299168
0.00073299213
0.00073299239
0.00073299245
0.00073299229
0.00073299193
0.00073299134
0.00073299053
0.00073298951
0.00073299011
0.00073299078
0.00073299119
0.00073299142
0.00073299147
0.00073299131
0.00073299093
0.00073299034
0.00073298951
0.00073298843
0.00075060645
0.00075060763
0.00075060828
0.00075060869
0.00075060886
0.0007506088
0.00075060853
0.00075060806
0.0007506074
0.00075060663
0.00075060763
0.00075060868
0.00075060931
0.0007506097
0.00075060986
0.0007506098
0.00075060951
0.00075060901
0.00075060829
0.00075060732
0.00075060828
0.00075060931
0.00075060991
0.00075061028
0.00075061043
0.00075061036
0.00075061005
0.00075060952
0.00075060876
0.00075060775
0.00075060869
0.0007506097
0.00075061028
0.00075061064
0.00075061078
0.00075061068
0.00075061036
0.00075060981
0.00075060902
0.00075060799
0.00075060886
0.00075060986
0.00075061043
0.00075061078
0.00075061089
0.00075061078
0.00075061045
0.00075060987
0.00075060907
0.00075060802
0.0007506088
0.0007506098
0.00075061036
0.00075061068
0.00075061078
0.00075061066
0.0007506103
0.00075060972
0.0007506089
0.00075060784
0.00075060853
0.00075060951
0.00075061005
0.00075061036
0.00075061045
0.0007506103
0.00075060993
0.00075060933
0.0007506085
0.00075060744
0.00075060806
0.00075060901
0.00075060952
0.00075060981
0.00075060987
0.00075060972
0.00075060933
0.00075060872
0.00075060787
0.0007506068
0.0007506074
0.00075060829
0.00075060876
0.00075060902
0.00075060907
0.0007506089
0.0007506085
0.00075060787
0.00075060701
0.00075060591
0.00075060663
0.00075060732
0.00075060775
0.00075060799
0.00075060802
0.00075060784
0.00075060744
0.0007506068
0.00075060591
0.00075060475
0.00076779797
0.0007677992
0.00076779987
0.00076780029
0.00076780046
0.00076780039
0.0007678001
0.00076779959
0.0007677989
0.00076779809
0.0007677992
0.00076780029
0.00076780093
0.00076780133
0.00076780149
0.00076780142
0.00076780111
0.00076780058
0.00076779982
0.0007677988
0.00076779987
0.00076780093
0.00076780155
0.00076780194
0.00076780208
0.00076780199
0.00076780167
0.0007678011
0.0007678003
0.00076779923
0.00076780029
0.00076780133
0.00076780194
0.0007678023
0.00076780243
0.00076780233
0.00076780198
0.00076780139
0.00076780056
0.00076779947
0.00076780046
0.00076780149
0.00076780208
0.00076780243
0.00076780255
0.00076780242
0.00076780206
0.00076780145
0.0007678006
0.0007677995
0.00076780039
0.00076780142
0.00076780199
0.00076780233
0.00076780242
0.00076780228
0.0007678019
0.00076780128
0.00076780042
0.0007677993
0.0007678001
0.00076780111
0.00076780167
0.00076780198
0.00076780206
0.0007678019
0.00076780151
0.00076780087
0.00076779999
0.00076779887
0.00076779959
0.00076780058
0.0007678011
0.00076780139
0.00076780145
0.00076780128
0.00076780087
0.00076780022
0.00076779932
0.00076779819
0.0007677989
0.00076779982
0.0007678003
0.00076780056
0.0007678006
0.00076780042
0.00076779999
0.00076779932
0.00076779841
0.00076779725
0.00076779809
0.0007677988
0.00076779923
0.00076779947
0.0007677995
0.0007677993
0.00076779887
0.00076779819
0.00076779725
0.00076779603
0.00078459142
0.00078459268
0.00078459337
0.00078459379
0.00078459396
0.00078459388
0.00078459357
0.00078459304
0.00078459231
0.00078459146
0.00078459268
0.0007845938
0.00078459446
0.00078459486
0.00078459502
0.00078459493
0.00078459461
0.00078459405
0.00078459325
0.00078459219
0.00078459337
0.00078459446
0.00078459509
0.00078459548
0.00078459562
0.00078459552
0.00078459517
0.00078459458
0.00078459374
0.00078459262
0.00078459379
0.00078459486
0.00078459548
0.00078459585
0.00078459597
0.00078459586
0.00078459549
0.00078459487
0.000784594
0.00078459286
0.00078459396
0.00078459502
0.00078459562
0.00078459597
0.00078459608
0.00078459595
0.00078459556
0.00078459493
0.00078459404
0.00078459289
0.00078459388
0.00078459493
0.00078459552
0.00078459586
0.00078459595
0.00078459579
0.00078459539
0.00078459474
0.00078459383
0.00078459267
0.00078459357
0.00078459461
0.00078459517
0.00078459549
0.00078459556
0.00078459539
0.00078459497
0.00078459431
0.00078459339
0.00078459222
0.00078459304
0.00078459405
0.00078459458
0.00078459487
0.00078459493
0.00078459474
0.00078459431
0.00078459362
0.00078459269
0.00078459151
0.00078459231
0.00078459325
0.00078459374
0.000784594
0.00078459404
0.00078459383
0.00078459339
0.00078459269
0.00078459173
0.00078459053
0.00078459146
0.00078459219
0.00078459262
0.00078459286
0.00078459289
0.00078459267
0.00078459222
0.00078459151
0.00078459053
0.00078458925
0.00080101107
0.00080101235
0.00080101305
0.00080101347
0.00080101364
0.00080101355
0.00080101322
0.00080101267
0.00080101192
0.00080101104
0.00080101235
0.0008010135
0.00080101416
0.00080101457
0.00080101472
0.00080101462
0.00080101428
0.0008010137
0.00080101287
0.00080101177
0.00080101305
0.00080101416
0.0008010148
0.00080101519
0.00080101533
0.00080101521
0.00080101485
0.00080101424
0.00080101336
0.00080101221
0.00080101347
0.00080101457
0.00080101519
0.00080101556
0.00080101568
0.00080101555
0.00080101517
0.00080101453
0.00080101362
0.00080101245
0.00080101364
0.00080101472
0.00080101533
0.00080101568
0.00080101578
0.00080101564
0.00080101523
0.00080101457
0.00080101365
0.00080101246
0.00080101355
0.00080101462
0.00080101521
0.00080101555
0.00080101564
0.00080101547
0.00080101505
0.00080101437
0.00080101344
0.00080101224
0.00080101322
0.00080101428
0.00080101485
0.00080101517
0.00080101523
0.00080101505
0.00080101461
0.00080101392
0.00080101297
0.00080101176
0.00080101267
0.0008010137
0.00080101424
0.00080101453
0.00080101457
0.00080101437
0.00080101392
0.00080101321
0.00080101224
0.00080101102
0.00080101192
0.00080101287
0.00080101336
0.00080101362
0.00080101365
0.00080101344
0.00080101297
0.00080101224
0.00080101125
0.00080101001
0.00080101104
0.00080101177
0.00080101221
0.00080101245
0.00080101246
0.00080101224
0.00080101176
0.00080101102
0.00080101001
0.00080100868
0.00081707888
0.00081708017
0.00081708088
0.0008170813
0.00081708145
0.00081708136
0.00081708102
0.00081708045
0.00081707967
0.00081707877
0.00081708017
0.00081708133
0.000817082
0.0008170824
0.00081708255
0.00081708244
0.00081708209
0.00081708149
0.00081708064
0.00081707951
0.00081708088
0.000817082
0.00081708264
0.00081708303
0.00081708316
0.00081708304
0.00081708266
0.00081708203
0.00081708113
0.00081707995
0.0008170813
0.0008170824
0.00081708303
0.0008170834
0.00081708351
0.00081708337
0.00081708297
0.00081708231
0.00081708139
0.00081708018
0.00081708145
0.00081708255
0.00081708316
0.00081708351
0.00081708361
0.00081708345
0.00081708303
0.00081708235
0.00081708141
0.00081708019
0.00081708136
0.00081708244
0.00081708304
0.00081708337
0.00081708345
0.00081708327
0.00081708284
0.00081708214
0.00081708118
0.00081707995
0.00081708102
0.00081708209
0.00081708266
0.00081708297
0.00081708303
0.00081708284
0.00081708238
0.00081708167
0.00081708069
0.00081707946
0.00081708045
0.00081708149
0.00081708203
0.00081708231
0.00081708235
0.00081708214
0.00081708167
0.00081708094
0.00081707995
0.0008170787
0.00081707967
0.00081708064
0.00081708113
0.00081708139
0.00081708141
0.00081708118
0.00081708069
0.00081707995
0.00081707893
0.00081707765
0.00081707877
0.00081707951
0.00081707995
0.00081708018
0.00081708019
0.00081707995
0.00081707946
0.0008170787
0.00081707765
0.0008170763
0.0008328148
0.0008328161
0.0008328168
0.00083281722
0.00083281737
0.00083281727
0.00083281691
0.00083281633
0.00083281554
0.00083281462
0.0008328161
0.00083281726
0.00083281793
0.00083281833
0.00083281847
0.00083281835
0.00083281799
0.00083281737
0.00083281651
0.00083281536
0.0008328168
0.00083281793
0.00083281857
0.00083281895
0.00083281908
0.00083281894
0.00083281856
0.00083281791
0.000832817
0.0008328158
0.00083281722
0.00083281833
0.00083281895
0.00083281931
0.00083281942
0.00083281927
0.00083281886
0.00083281819
0.00083281725
0.00083281602
0.00083281737
0.00083281847
0.00083281908
0.00083281942
0.00083281951
0.00083281934
0.00083281892
0.00083281822
0.00083281726
0.00083281602
0.00083281727
0.00083281835
0.00083281894
0.00083281927
0.00083281934
0.00083281916
0.00083281871
0.000832818
0.00083281702
0.00083281577
0.00083281691
0.00083281799
0.00083281856
0.00083281886
0.00083281892
0.00083281871
0.00083281825
0.00083281752
0.00083281652
0.00083281527
0.00083281633
0.00083281737
0.00083281791
0.00083281819
0.00083281822
0.000832818
0.00083281752
0.00083281677
0.00083281576
0.00083281449
0.00083281554
0.00083281651
0.000832817
0.00083281725
0.00083281726
0.00083281702
0.00083281652
0.00083281576
0.00083281473
0.00083281343
0.00083281462
0.00083281536
0.0008328158
0.00083281602
0.00083281602
0.00083281577
0.00083281527
0.00083281449
0.00083281343
0.00083281205
0.00084823705
0.00084823835
0.00084823905
0.00084823946
0.0008482396
0.00084823949
0.00084823913
0.00084823854
0.00084823774
0.00084823681
0.00084823835
0.00084823951
0.00084824017
0.00084824056
0.0008482407
0.00084824057
0.0008482402
0.00084823958
0.0008482387
0.00084823754
0.00084823905
0.00084824017
0.0008482408
0.00084824118
0.0008482413
0.00084824116
0.00084824076
0.00084824011
0.00084823918
0.00084823797
0.00084823946
0.00084824056
0.00084824118
0.00084824154
0.00084824164
0.00084824148
0.00084824106
0.00084824038
0.00084823943
0.00084823819
0.0008482396
0.0008482407
0.0008482413
0.00084824164
0.00084824172
0.00084824155
0.00084824111
0.0008482404
0.00084823943
0.00084823818
0.00084823949
0.00084824057
0.00084824116
0.00084824148
0.00084824155
0.00084824135
0.00084824089
0.00084824017
0.00084823918
0.00084823793
0.00084823913
0.0008482402
0.00084824076
0.00084824106
0.00084824111
0.00084824089
0.00084824042
0.00084823968
0.00084823868
0.00084823741
0.00084823854
0.00084823958
0.00084824011
0.00084824038
0.0008482404
0.00084824017
0.00084823968
0.00084823893
0.00084823791
0.00084823662
0.00084823774
0.0008482387
0.00084823918
0.00084823943
0.00084823943
0.00084823918
0.00084823868
0.00084823791
0.00084823686
0.00084823555
0.00084823681
0.00084823754
0.00084823797
0.00084823819
0.00084823818
0.00084823793
0.00084823741
0.00084823662
0.00084823555
0.00084823416
0.00086336234
0.00086336363
0.00086336431
0.00086336472
0.00086336485
0.00086336474
0.00086336437
0.00086336377
0.00086336297
0.00086336203
0.00086336363
0.00086336478
0.00086336543
0.00086336581
0.00086336594
0.00086336581
0.00086336543
0.0008633648
0.00086336392
0.00086336276
0.00086336431
0.00086336543
0.00086336605
0.00086336642
0.00086336653
0.00086336639
0.00086336598
0.00086336532
0.0008633644
0.00086336318
0.00086336472
0.00086336581
0.00086336642
0.00086336677
0.00086336686
0.0008633667
0.00086336628
0.00086336559
0.00086336463
0.00086336339
0.00086336485
0.00086336594
0.00086336653
0.00086336686
0.00086336694
0.00086336676
0.00086336631
0.00086336561
0.00086336463
0.00086336338
0.00086336474
0.00086336581
0.00086336639
0.0008633667
0.00086336676
0.00086336656
0.00086336609
0.00086336537
0.00086336438
0.00086336311
0.00086336437
0.00086336543
0.00086336598
0.00086336628
0.00086336631
0.00086336609
0.00086336561
0.00086336487
0.00086336386
0.00086336259
0.00086336377
0.0008633648
0.00086336532
0.00086336559
0.00086336561
0.00086336537
0.00086336487
0.00086336411
0.00086336309
0.0008633618
0.00086336297
0.00086336392
0.0008633644
0.00086336463
0.00086336463
0.00086336438
0.00086336386
0.00086336309
0.00086336204
0.00086336072
0.00086336203
0.00086336276
0.00086336318
0.00086336339
0.00086336338
0.00086336311
0.00086336259
0.0008633618
0.00086336072
0.00086335932
0.00087820604
0.00087820731
0.00087820798
0.00087820837
0.0008782085
0.00087820838
0.00087820801
0.00087820741
0.00087820661
0.00087820568
0.00087820731
0.00087820844
0.00087820908
0.00087820945
0.00087820957
0.00087820944
0.00087820905
0.00087820842
0.00087820755
0.00087820639
0.00087820798
0.00087820908
0.00087820969
0.00087821005
0.00087821015
0.00087821
0.0008782096
0.00087820893
0.00087820801
0.0008782068
0.00087820837
0.00087820945
0.00087821005
0.00087821039
0.00087821047
0.0008782103
0.00087820988
0.00087820919
0.00087820824
0.000878207
0.0008782085
0.00087820957
0.00087821015
0.00087821047
0.00087821054
0.00087821035
0.00087820991
0.0008782092
0.00087820823
0.00087820698
0.00087820838
0.00087820944
0.00087821
0.0008782103
0.00087821035
0.00087821015
0.00087820968
0.00087820896
0.00087820797
0.00087820671
0.00087820801
0.00087820905
0.0008782096
0.00087820988
0.00087820991
0.00087820968
0.0008782092
0.00087820846
0.00087820745
0.00087820619
0.00087820741
0.00087820842
0.00087820893
0.00087820919
0.0008782092
0.00087820896
0.00087820846
0.0008782077
0.00087820667
0.00087820539
0.00087820661
0.00087820755
0.00087820801
0.00087820824
0.00087820823
0.00087820797
0.00087820745
0.00087820667
0.00087820563
0.00087820432
0.00087820568
0.00087820639
0.0008782068
0.000878207
0.00087820698
0.00087820671
0.00087820619
0.00087820539
0.00087820432
0.00087820293
0.00089278235
0.00089278359
0.00089278425
0.00089278463
0.00089278475
0.00089278462
0.00089278425
0.00089278365
0.00089278286
0.00089278193
0.00089278359
0.0008927847
0.00089278532
0.00089278568
0.0008927858
0.00089278566
0.00089278527
0.00089278464
0.00089278377
0.00089278263
0.00089278425
0.00089278532
0.00089278592
0.00089278626
0.00089278636
0.0008927862
0.0008927858
0.00089278514
0.00089278422
0.00089278302
0.00089278463
0.00089278568
0.00089278626
0.00089278659
0.00089278667
0.0008927865
0.00089278607
0.00089278539
0.00089278444
0.00089278322
0.00089278475
0.0008927858
0.00089278636
0.00089278667
0.00089278673
0.00089278654
0.00089278609
0.00089278539
0.00089278442
0.00089278319
0.00089278462
0.00089278566
0.0008927862
0.0008927865
0.00089278654
0.00089278633
0.00089278586
0.00089278514
0.00089278416
0.00089278292
0.00089278425
0.00089278527
0.0008927858
0.00089278607
0.00089278609
0.00089278586
0.00089278538
0.00089278464
0.00089278365
0.00089278239
0.00089278365
0.00089278464
0.00089278514
0.00089278539
0.00089278539
0.00089278514
0.00089278464
0.00089278389
0.00089278287
0.00089278161
0.00089278286
0.00089278377
0.00089278422
0.00089278444
0.00089278442
0.00089278416
0.00089278365
0.00089278287
0.00089278184
0.00089278054
0.00089278193
0.00089278263
0.00089278302
0.00089278322
0.00089278319
0.00089278292
0.00089278239
0.00089278161
0.00089278054
0.00089277916
0.00090710442
0.00090710564
0.00090710627
0.00090710664
0.00090710675
0.00090710661
0.00090710625
0.00090710566
0.00090710487
0.00090710396
0.00090710564
0.00090710672
0.00090710732
0.00090710767
0.00090710777
0.00090710762
0.00090710724
0.00090710662
0.00090710576
0.00090710463
0.00090710627
0.00090710732
0.00090710789
0.00090710823
0.00090710831
0.00090710815
0.00090710775
0.0009071071
0.00090710619
0.00090710502
0.00090710664
0.00090710767
0.00090710823
0.00090710854
0.00090710861
0.00090710843
0.00090710801
0.00090710733
0.0009071064
0.0009071052
0.00090710675
0.00090710777
0.00090710831
0.00090710861
0.00090710866
0.00090710847
0.00090710802
0.00090710733
0.00090710638
0.00090710516
0.00090710661
0.00090710762
0.00090710815
0.00090710843
0.00090710847
0.00090710826
0.00090710779
0.00090710708
0.00090710611
0.00090710489
0.00090710625
0.00090710724
0.00090710775
0.00090710801
0.00090710802
0.00090710779
0.00090710732
0.00090710659
0.0009071056
0.00090710437
0.00090710566
0.00090710662
0.0009071071
0.00090710733
0.00090710733
0.00090710708
0.00090710659
0.00090710584
0.00090710484
0.00090710359
0.00090710487
0.00090710576
0.00090710619
0.0009071064
0.00090710638
0.00090710611
0.0009071056
0.00090710484
0.00090710382
0.00090710254
0.00090710396
0.00090710463
0.00090710502
0.0009071052
0.00090710516
0.00090710489
0.00090710437