/*--------------------------------*- C++ -*----------------------------------*\
| =========                 |                                                 |
| \\      /  F ield         | OpenFOAM: The Open Source CFD Toolbox           |
|  \\    /   O peration     | Version:  v2106                                 |
|   \\  /    A nd           | Website:  www.openfoam.com                      |
|    \\/     M anipulation  |                                                 |
\*---------------------------------------------------------------------------*/
FoamFile
{
    version     2.0;
    format      ascii;
    arch        "LSB;label=32;scalar=64";
    class       volVectorField;
    location    "80";
    object      flux;
}
// * * * * * * * * * * * * * * * * * * * * * * * * * * * * * * * * * * * * * //

dimensions      [0 1 -1 1 0 0 0];

internalField   nonuniform List<vector> 
4000
(
(1.1983762e-07 1.1983762e-07 0.72632374)
(2.6330803e-07 1.0624988e-07 0.72632462)
(1.3259275e-07 1.0309987e-07 0.72632505)
(7.184426e-08 1.0187653e-07 0.7263253)
(2.2965007e-08 1.0115893e-07 0.72632542)
(-1.9553508e-08 1.0050213e-07 0.72632542)
(-5.5835334e-08 9.9607737e-08 0.72632531)
(-8.2329285e-08 9.7963574e-08 0.72632512)
(-8.7939024e-08 9.4260731e-08 0.72632487)
(-2.781978e-08 8.5253147e-08 0.72632464)
(1.0624987e-07 2.6330803e-07 0.72632462)
(2.3820141e-07 2.3820141e-07 0.7263254)
(1.2603273e-07 2.3031711e-07 0.7263258)
(6.8932842e-08 2.2642566e-07 0.72632605)
(2.0903405e-08 2.237746e-07 0.72632616)
(-2.1880292e-08 2.2126845e-07 0.72632615)
(-5.9643162e-08 2.180838e-07 0.72632604)
(-9.0349795e-08 2.1298727e-07 0.72632583)
(-1.0700466e-07 2.0348418e-07 0.72632555)
(-3.6827364e-08 1.8506812e-07 0.72632524)
(1.0309987e-07 1.3259276e-07 0.72632505)
(2.303171e-07 1.2603274e-07 0.7263258)
(1.2081701e-07 1.20817e-07 0.72632619)
(6.5301751e-08 1.1690416e-07 0.72632642)
(1.7807794e-08 1.1363249e-07 0.72632653)
(-2.5244303e-08 1.1041744e-07 0.72632651)
(-6.4116517e-08 1.0670254e-07 0.72632639)
(-9.6928903e-08 1.0186912e-07 0.72632617)
(-1.1585818e-07 9.5417667e-08 0.72632587)
(-4.0097158e-08 8.8365092e-08 0.72632553)
(1.0187653e-07 7.1844262e-08 0.7263253)
(2.2642566e-07 6.8932849e-08 0.72632605)
(1.1690415e-07 6.5301749e-08 0.72632642)
(6.1748327e-08 6.1748337e-08 0.72632665)
(1.4416685e-08 5.835843e-08 0.72632674)
(-2.881024e-08 5.4968892e-08 0.72632672)
(-6.8191488e-08 5.1353238e-08 0.72632659)
(-1.0163467e-07 4.7356286e-08 0.72632636)
(-1.2050869e-07 4.3161856e-08 0.72632604)
(-4.1529081e-08 3.9852937e-08 0.72632569)
(1.0115893e-07 2.2965004e-08 0.72632542)
(2.2377459e-07 2.0903388e-08 0.72632616)
(1.1363249e-07 1.7807797e-08 0.72632653)
(5.8358433e-08 1.441669e-08 0.72632674)
(1.1028349e-08 1.1028356e-08 0.72632683)
(-3.2249495e-08 7.6793196e-09 0.7263268)
(-7.1729123e-08 4.3255741e-09 0.72632666)
(-1.0512029e-07 1.0042609e-09 0.72632641)
(-1.2336153e-07 -1.9886739e-09 0.72632609)
(-4.2303104e-08 -3.9482152e-09 0.72632573)
(1.0050212e-07 -1.9553511e-08 0.72632542)
(2.2126845e-07 -2.188029e-08 0.72632615)
(1.1041745e-07 -2.5244305e-08 0.72632651)
(5.4968886e-08 -2.8810248e-08 0.72632672)
(7.679315e-09 -3.2249492e-08 0.7263268)
(-3.5513022e-08 -3.5513023e-08 0.72632676)
(-7.4866547e-08 -3.8627095e-08 0.72632661)
(-1.0794892e-07 -4.1541784e-08 0.72632636)
(-1.2546116e-07 -4.4006924e-08 0.72632603)
(-4.2835441e-08 -4.5517799e-08 0.72632566)
(9.9607741e-08 -5.5835338e-08 0.72632531)
(2.1808379e-07 -5.9643161e-08 0.72632604)
(1.0670254e-07 -6.4116519e-08 0.72632639)
(5.1353246e-08 -6.8191493e-08 0.72632659)
(4.3255741e-09 -7.1729118e-08 0.72632666)
(-3.8627099e-08 -7.4866548e-08 0.72632661)
(-7.7757884e-08 -7.7757882e-08 0.72632645)
(-1.1050012e-07 -8.0457227e-08 0.72632619)
(-1.2733754e-07 -8.2813272e-08 0.72632586)
(-4.3310353e-08 -8.4349854e-08 0.72632549)
(9.7963573e-08 -8.2329291e-08 0.72632512)
(2.1298727e-07 -9.0349797e-08 0.72632583)
(1.0186912e-07 -9.6928901e-08 0.72632617)
(4.7356288e-08 -1.0163467e-07 0.72632636)
(1.0042599e-09 -1.0512029e-07 0.72632641)
(-4.1541786e-08 -1.0794892e-07 0.72632636)
(-8.0457226e-08 -1.1050011e-07 0.72632619)
(-1.1300431e-07 -1.130043e-07 0.72632593)
(-1.2935379e-07 -1.154866e-07 0.72632559)
(-4.3859829e-08 -1.1746252e-07 0.72632521)
(9.4260736e-08 -8.7939029e-08 0.72632487)
(2.0348418e-07 -1.0700466e-07 0.72632555)
(9.5417664e-08 -1.1585818e-07 0.72632587)
(4.3161861e-08 -1.2050869e-07 0.72632604)
(-1.9886749e-09 -1.2336152e-07 0.72632609)
(-4.4006921e-08 -1.2546117e-07 0.72632603)
(-8.2813268e-08 -1.2733754e-07 0.72632586)
(-1.154866e-07 -1.2935378e-07 0.72632559)
(-1.3179576e-07 -1.3179575e-07 0.72632524)
(-4.4627634e-08 -1.3446935e-07 0.72632486)
(8.5253149e-08 -2.7819781e-08 0.72632464)
(1.8506812e-07 -3.6827369e-08 0.72632524)
(8.8365096e-08 -4.0097157e-08 0.72632553)
(3.9852942e-08 -4.1529081e-08 0.72632569)
(-3.9482198e-09 -4.2303103e-08 0.72632573)
(-4.5517801e-08 -4.2835444e-08 0.72632566)
(-8.4349842e-08 -4.3310356e-08 0.72632549)
(-1.1746252e-07 -4.3859827e-08 0.72632521)
(-1.3446936e-07 -4.4627635e-08 0.72632486)
(-4.5642226e-08 -4.5642226e-08 0.72632447)
(5.2641682e-07 5.2641682e-07 1.0804109)
(1.1798924e-06 4.6020083e-07 1.080412)
(6.2521405e-07 4.4552257e-07 1.0804126)
(3.4445588e-07 4.3973727e-07 1.080413)
(1.08486e-07 4.3625211e-07 1.0804131)
(-1.0008403e-07 4.3302957e-07 1.0804131)
(-2.8045628e-07 4.2861326e-07 1.080413)
(-4.1753018e-07 4.2034987e-07 1.0804127)
(-4.6494838e-07 4.0067352e-07 1.0804122)
(-1.5254229e-07 3.4400389e-07 1.0804118)
(4.6020082e-07 1.1798924e-06 1.080412)
(1.058551e-06 1.058551e-06 1.080413)
(5.9451871e-07 1.0217251e-06 1.0804136)
(3.305502e-07 1.0031463e-06 1.0804139)
(9.8424451e-08 9.9023687e-07 1.080414)
(-1.1154231e-07 9.7794254e-07 1.080414)
(-2.9947583e-07 9.6225036e-07 1.0804139)
(-4.5943978e-07 9.3686559e-07 1.0804135)
(-5.7946736e-07 8.8774203e-07 1.0804131)
(-2.0921193e-07 7.7916658e-07 1.0804125)
(4.4552257e-07 6.2521404e-07 1.0804126)
(1.0217251e-06 5.9451872e-07 1.0804136)
(5.6980936e-07 5.6980937e-07 1.0804141)
(3.1296762e-07 5.5086904e-07 1.0804144)
(8.328223e-08 5.3487979e-07 1.0804145)
(-1.2807055e-07 5.1910429e-07 1.0804145)
(-3.2153323e-07 5.0083669e-07 1.0804143)
(-4.920385e-07 4.7700901e-07 1.080414)
(-6.226474e-07 4.4508733e-07 1.0804135)
(-2.2492593e-07 4.1102481e-07 1.0804128)
(4.3973728e-07 3.4445589e-07 1.080413)
(1.0031463e-06 3.3055021e-07 1.0804139)
(5.5086904e-07 3.1296763e-07 1.0804144)
(2.9562062e-07 2.9562064e-07 1.0804147)
(6.6659694e-08 2.7900872e-07 1.0804148)
(-1.4558541e-07 2.6236658e-07 1.0804148)
(-3.4157111e-07 2.4459487e-07 1.0804146)
(-5.1518914e-07 2.2493527e-07 1.0804142)
(-6.4545156e-07 2.0430321e-07 1.0804137)
(-2.3192027e-07 1.8810893e-07 1.0804131)
(4.3625212e-07 1.08486e-07 1.0804131)
(9.9023688e-07 9.8424434e-08 1.080414)
(5.3487979e-07 8.3282226e-08 1.0804145)
(2.7900871e-07 6.6659703e-08 1.0804148)
(5.0028162e-08 5.0028186e-08 1.080415)
(-1.624844e-07 3.3573073e-08 1.0804149)
(-3.5896453e-07 1.7080992e-08 1.0804147)
(-5.3233016e-07 7.3709212e-10 1.0804143)
(-6.5947374e-07 -1.3996854e-08 1.0804138)
(-2.3572211e-07 -2.3640094e-08 1.0804131)
(4.3302956e-07 -1.0008403e-07 1.0804131)
(9.7794255e-07 -1.1154231e-07 1.080414)
(5.1910431e-07 -1.2807055e-07 1.0804145)
(2.6236658e-07 -1.4558542e-07 1.0804148)
(3.3573064e-08 -1.6248439e-07 1.0804149)
(-1.785326e-07 -1.7853259e-07 1.0804148)
(-3.7440709e-07 -1.9386498e-07 1.0804146)
(-5.4626699e-07 -2.0824339e-07 1.0804142)
(-6.6982874e-07 -2.2043975e-07 1.0804137)
(-2.383491e-07 -2.2794385e-07 1.080413)
(4.2861327e-07 -2.8045628e-07 1.080413)
(9.6225036e-07 -2.9947582e-07 1.0804139)
(5.0083668e-07 -3.2153323e-07 1.0804143)
(2.4459487e-07 -3.4157112e-07 1.0804146)
(1.7080991e-08 -3.5896454e-07 1.0804147)
(-1.9386499e-07 -3.7440709e-07 1.0804146)
(-3.8867534e-07 -3.8867534e-07 1.0804144)
(-5.5890493e-07 -4.0206834e-07 1.080414)
(-6.791742e-07 -4.1388441e-07 1.0804134)
(-2.4072485e-07 -4.2174209e-07 1.0804127)
(4.2034987e-07 -4.1753017e-07 1.0804127)
(9.3686559e-07 -4.5943979e-07 1.0804135)
(4.7700901e-07 -4.920385e-07 1.080414)
(2.2493527e-07 -5.1518915e-07 1.0804142)
(7.3708612e-10 -5.3233018e-07 1.0804143)
(-2.082434e-07 -5.4626699e-07 1.0804142)
(-4.0206833e-07 -5.5890493e-07 1.080414)
(-5.7147606e-07 -5.7147606e-07 1.0804135)
(-6.895025e-07 -5.8432349e-07 1.080413)
(-2.4358755e-07 -5.9525356e-07 1.0804123)
(4.0067352e-07 -4.6494839e-07 1.0804122)
(8.8774203e-07 -5.7946736e-07 1.0804131)
(4.4508733e-07 -6.2264741e-07 1.0804135)
(2.043032e-07 -6.4545155e-07 1.0804137)
(-1.3996849e-08 -6.5947374e-07 1.0804138)
(-2.2043974e-07 -6.6982874e-07 1.0804137)
(-4.1388441e-07 -6.7917419e-07 1.0804134)
(-5.8432349e-07 -6.895025e-07 1.080413)
(-7.029517e-07 -7.0295169e-07 1.0804124)
(-2.4801157e-07 -7.2086699e-07 1.0804117)
(3.4400389e-07 -1.525423e-07 1.0804118)
(7.7916658e-07 -2.0921193e-07 1.0804125)
(4.1102482e-07 -2.2492593e-07 1.0804128)
(1.8810894e-07 -2.3192027e-07 1.0804131)
(-2.3640099e-08 -2.3572211e-07 1.0804131)
(-2.2794384e-07 -2.383491e-07 1.080413)
(-4.2174209e-07 -2.4072484e-07 1.0804127)
(-5.9525357e-07 -2.4358756e-07 1.0804123)
(-7.2086699e-07 -2.4801156e-07 1.0804117)
(-2.5553109e-07 -2.5553108e-07 1.080411)
(8.5483207e-07 8.5483207e-07 1.0803931)
(1.941336e-06 7.4741024e-07 1.080394)
(1.0619472e-06 7.2321063e-07 1.0803945)
(5.8872735e-07 7.1334703e-07 1.0803949)
(1.7588137e-07 7.0723575e-07 1.080395)
(-1.9700045e-07 7.0149462e-07 1.080395)
(-5.279042e-07 6.9355826e-07 1.0803948)
(-7.9815739e-07 6.785828e-07 1.0803944)
(-9.552983e-07 6.4252289e-07 1.080394)
(-3.3202089e-07 5.3729528e-07 1.0803934)
(7.4741023e-07 1.941336e-06 1.080394)
(1.7439038e-06 1.7439038e-06 1.0803949)
(1.0108524e-06 1.6825256e-06 1.0803953)
(5.6476503e-07 1.6505447e-06 1.0803956)
(1.5810276e-07 1.6278167e-06 1.0803958)
(-2.1751669e-07 1.6059048e-06 1.0803957)
(-5.6227193e-07 1.5777516e-06 1.0803955)
(-8.7471044e-07 1.5319495e-06 1.0803952)
(-1.1672296e-06 1.4426636e-06 1.0803947)
(-4.3724851e-07 1.2435733e-06 1.080394)
(7.2321063e-07 1.0619472e-06 1.0803945)
(1.6825256e-06 1.0108523e-06 1.0803953)
(9.6858806e-07 9.6858806e-07 1.0803958)
(5.3401846e-07 9.3549573e-07 1.0803961)
(1.3124144e-07 9.0718348e-07 1.0803962)
(-2.4706558e-07 8.7903919e-07 1.0803962)
(-6.0185949e-07 8.4631883e-07 1.0803959)
(-9.3324534e-07 8.0355567e-07 1.0803956)
(-1.2436745e-06 7.4633506e-07 1.080395)
(-4.647478e-07 6.865535e-07 1.0803943)
(7.1334703e-07 5.8872735e-07 1.0803949)
(1.6505447e-06 5.6476503e-07 1.0803956)
(9.3549574e-07 5.3401847e-07 1.0803961)
(5.0336045e-07 5.0336046e-07 1.0803964)
(1.0164621e-07 4.7380241e-07 1.0803965)
(-2.7838134e-07 4.4406742e-07 1.0803964)
(-6.3775545e-07 4.1223737e-07 1.0803962)
(-9.7469421e-07 3.7699161e-07 1.0803958)
(-1.2842317e-06 3.4005441e-07 1.0803952)
(-4.7710288e-07 3.1133983e-07 1.0803945)
(7.0723575e-07 1.7588137e-07 1.080395)
(1.6278167e-06 1.5810277e-07 1.0803958)
(9.0718349e-07 1.3124144e-07 1.0803962)
(4.7380241e-07 1.0164622e-07 1.0803965)
(7.1948397e-08 7.19484e-08 1.0803966)
(-3.0863062e-07 4.2494677e-08 1.0803965)
(-6.689353e-07 1.2914252e-08 1.0803963)
(-1.0054283e-06 -1.6447972e-08 1.0803959)
(-1.3093263e-06 -4.293656e-08 1.0803953)
(-4.8389085e-07 -6.0242153e-08 1.0803945)
(7.0149463e-07 -1.9700045e-07 1.080395)
(1.6059048e-06 -2.1751667e-07 1.0803957)
(8.7903919e-07 -2.4706557e-07 1.0803962)
(4.4406742e-07 -2.7838134e-07 1.0803964)
(4.2494671e-08 -3.0863062e-07 1.0803965)
(-3.3741549e-07 -3.374155e-07 1.0803964)
(-6.966981e-07 -3.6500182e-07 1.0803962)
(-1.030545e-06 -3.9099107e-07 1.0803957)
(-1.3280259e-06 -4.1318503e-07 1.0803952)
(-4.8863994e-07 -4.2696091e-07 1.0803944)
(6.9355827e-07 -5.2790419e-07 1.0803948)
(1.5777516e-06 -5.6227194e-07 1.0803955)
(8.4631882e-07 -6.0185949e-07 1.0803959)
(4.1223736e-07 -6.3775546e-07 1.0803962)
(1.2914238e-08 -6.6893528e-07 1.0803963)
(-3.6500183e-07 -6.966981e-07 1.0803962)
(-7.2251087e-07 -7.2251087e-07 1.0803959)
(-1.0536115e-06 -7.4704306e-07 1.0803955)
(-1.3452962e-06 -7.6920769e-07 1.0803949)
(-4.9307477e-07 -7.845944e-07 1.0803941)
(6.785828e-07 -7.981574e-07 1.0803944)
(1.5319495e-06 -8.7471047e-07 1.0803952)
(8.0355566e-07 -9.3324534e-07 1.0803956)
(3.7699163e-07 -9.7469421e-07 1.0803958)
(-1.6447966e-08 -1.0054283e-06 1.0803959)
(-3.9099108e-07 -1.030545e-06 1.0803957)
(-7.4704306e-07 -1.0536115e-06 1.0803955)
(-1.0772418e-06 -1.0772418e-06 1.080395)
(-1.3655773e-06 -1.1029927e-06 1.0803944)
(-4.9889775e-07 -1.1280504e-06 1.0803936)
(6.425229e-07 -9.5529831e-07 1.080394)
(1.4426636e-06 -1.1672296e-06 1.0803947)
(7.4633508e-07 -1.2436745e-06 1.080395)
(3.4005441e-07 -1.2842317e-06 1.0803952)
(-4.2936559e-08 -1.3093263e-06 1.0803953)
(-4.1318503e-07 -1.3280259e-06 1.0803952)
(-7.692077e-07 -1.3452962e-06 1.0803949)
(-1.1029927e-06 -1.3655772e-06 1.0803944)
(-1.3961047e-06 -1.3961047e-06 1.0803938)
(-5.0977994e-07 -1.4535396e-06 1.080393)
(5.3729529e-07 -3.320209e-07 1.0803934)
(1.2435733e-06 -4.372485e-07 1.080394)
(6.865535e-07 -4.6474781e-07 1.0803943)
(3.1133984e-07 -4.7710288e-07 1.0803945)
(-6.0242153e-08 -4.8389085e-07 1.0803945)
(-4.2696091e-07 -4.8863995e-07 1.0803944)
(-7.8459439e-07 -4.9307477e-07 1.0803941)
(-1.1280504e-06 -4.9889774e-07 1.0803936)
(-1.4535396e-06 -5.0977993e-07 1.080393)
(-5.3718765e-07 -5.3718764e-07 1.0803921)
(1.1522075e-06 1.1522075e-06 1.0803651)
(2.6272712e-06 1.007617e-06 1.0803659)
(1.4507512e-06 9.7492578e-07 1.0803664)
(8.0094854e-07 9.6133725e-07 1.0803667)
(2.1989267e-07 9.5273945e-07 1.0803668)
(-3.1448446e-07 9.4454339e-07 1.0803667)
(-7.9869326e-07 9.3311952e-07 1.0803665)
(-1.2107125e-06 9.1143829e-07 1.0803662)
(-1.486266e-06 8.5894411e-07 1.0803657)
(-5.2601795e-07 7.0494277e-07 1.0803651)
(1.007617e-06 2.6272712e-06 1.0803659)
(2.3613485e-06 2.3613486e-06 1.0803667)
(1.3813315e-06 2.2779264e-06 1.0803671)
(7.6766904e-07 2.2335784e-06 1.0803674)
(1.9470187e-07 2.201498e-06 1.0803675)
(-3.4391435e-07 2.1702066e-06 1.0803674)
(-8.4835091e-07 2.1297369e-06 1.0803672)
(-1.3219756e-06 2.0636151e-06 1.0803668)
(-1.7960093e-06 1.9342284e-06 1.0803663)
(-6.8001929e-07 1.6446462e-06 1.0803656)
(9.7492579e-07 1.4507511e-06 1.0803664)
(2.2779264e-06 1.3813315e-06 1.0803671)
(1.322981e-06 1.322981e-06 1.0803675)
(7.2452012e-07 1.2765855e-06 1.0803678)
(1.5652084e-07 1.2364224e-06 1.0803679)
(-3.862456e-07 1.1961913e-06 1.0803678)
(-9.0528476e-07 1.1492171e-06 1.0803676)
(-1.4062209e-06 1.0877038e-06 1.0803672)
(-1.9052349e-06 1.0054485e-06 1.0803666)
(-7.1907277e-07 9.2048329e-07 1.0803659)
(9.6133725e-07 8.0094853e-07 1.0803667)
(2.2335784e-06 7.6766902e-07 1.0803674)
(1.2765855e-06 7.2452013e-07 1.0803678)
(6.8111042e-07 6.8111042e-07 1.080368)
(1.1430773e-07 6.3897993e-07 1.0803681)
(-4.311197e-07 5.9640349e-07 1.080368)
(-9.5683846e-07 5.5069815e-07 1.0803678)
(-1.4657441e-06 5.0002591e-07 1.0803674)
(-1.9632298e-06 4.4697016e-07 1.0803668)
(-7.3666277e-07 4.0598711e-07 1.080366)
(9.5273945e-07 2.1989267e-07 1.0803668)
(2.201498e-06 1.9470188e-07 1.0803675)
(1.2364224e-06 1.5652083e-07 1.0803679)
(6.3897993e-07 1.1430773e-07 1.0803681)
(7.1813912e-08 7.1813914e-08 1.0803682)
(-4.7452738e-07 2.9549315e-08 1.0803681)
(-1.0016623e-06 -1.300214e-08 1.0803678)
(-1.5099489e-06 -5.532044e-08 1.0803674)
(-1.9992737e-06 -9.3530979e-08 1.0803668)
(-7.463948e-07 -1.1846217e-07 1.080366)
(9.4454339e-07 -3.1448445e-07 1.0803667)
(2.1702066e-06 -3.4391435e-07 1.0803674)
(1.1961913e-06 -3.8624561e-07 1.0803678)
(5.964035e-07 -4.3111971e-07 1.080368)
(2.9549312e-08 -4.7452738e-07 1.0803681)
(-5.1593576e-07 -5.1593576e-07 1.080368)
(-1.0417082e-06 -5.5576182e-07 1.0803677)
(-1.546273e-06 -5.9346313e-07 1.0803673)
(-2.0263715e-06 -6.258573e-07 1.0803667)
(-7.5328356e-07 -6.4610252e-07 1.0803659)
(9.3311952e-07 -7.9869327e-07 1.0803665)
(2.1297369e-06 -8.4835091e-07 1.0803672)
(1.149217e-06 -9.0528476e-07 1.0803676)
(5.5069815e-07 -9.5683847e-07 1.0803678)
(-1.3002144e-08 -1.0016623e-06 1.0803678)
(-5.5576181e-07 -1.0417082e-06 1.0803677)
(-1.0791897e-06 -1.0791897e-06 1.0803674)
(-1.5800444e-06 -1.1152245e-06 1.080367)
(-2.0519131e-06 -1.1483821e-06 1.0803664)
(-7.5989161e-07 -1.1719987e-06 1.0803656)
(9.114383e-07 -1.2107125e-06 1.0803662)
(2.0636151e-06 -1.3219756e-06 1.0803668)
(1.0877038e-06 -1.4062209e-06 1.0803672)
(5.0002592e-07 -1.4657441e-06 1.0803674)
(-5.5320433e-08 -1.5099489e-06 1.0803674)
(-5.9346314e-07 -1.5462729e-06 1.0803673)
(-1.1152245e-06 -1.5800444e-06 1.080367)
(-1.6154653e-06 -1.6154653e-06 1.0803665)
(-2.0831458e-06 -1.6555753e-06 1.0803659)
(-7.6902796e-07 -1.6966892e-06 1.0803651)
(8.5894412e-07 -1.486266e-06 1.0803657)
(1.9342284e-06 -1.7960093e-06 1.0803663)
(1.0054485e-06 -1.9052349e-06 1.0803666)
(4.4697018e-07 -1.9632298e-06 1.0803668)
(-9.3530962e-08 -1.9992737e-06 1.0803668)
(-6.2585731e-07 -2.0263715e-06 1.0803667)
(-1.1483821e-06 -2.0519131e-06 1.0803664)
(-1.6555753e-06 -2.0831458e-06 1.0803659)
(-2.133137e-06 -2.133137e-06 1.0803652)
(-7.8730092e-07 -2.2339152e-06 1.0803644)
(7.0494277e-07 -5.2601795e-07 1.0803651)
(1.6446462e-06 -6.8001929e-07 1.0803656)
(9.2048329e-07 -7.1907276e-07 1.0803659)
(4.0598712e-07 -7.3666276e-07 1.080366)
(-1.1846218e-07 -7.463948e-07 1.080366)
(-6.4610253e-07 -7.5328357e-07 1.0803659)
(-1.1719987e-06 -7.5989161e-07 1.0803656)
(-1.6966892e-06 -7.6902796e-07 1.0803651)
(-2.2339152e-06 -7.8730092e-07 1.0803644)
(-8.3621341e-07 -8.3621341e-07 1.0803635)
(1.4331727e-06 1.4331727e-06 1.0803273)
(3.2677229e-06 1.2528036e-06 1.0803281)
(1.8020702e-06 1.2121145e-06 1.0803285)
(9.83785e-07 1.1950283e-06 1.0803288)
(2.4094923e-07 1.1840596e-06 1.0803288)
(-4.5115453e-07 1.17348e-06 1.0803288)
(-1.0874594e-06 1.1586327e-06 1.0803286)
(-1.641335e-06 1.1303412e-06 1.0803282)
(-2.0324935e-06 1.061639e-06 1.0803277)
(-7.2412837e-07 8.5960379e-07 1.0803271)
(1.2528036e-06 3.2677229e-06 1.0803281)
(2.9361355e-06 2.9361355e-06 1.0803288)
(1.7154072e-06 2.8320087e-06 1.0803292)
(9.4170258e-07 2.7760175e-06 1.0803294)
(2.0862683e-07 2.7349963e-06 1.0803295)
(-4.8929485e-07 2.6945975e-06 1.0803294)
(-1.1521676e-06 2.6420532e-06 1.0803292)
(-1.7868255e-06 2.5559304e-06 1.0803288)
(-2.4385996e-06 2.3870451e-06 1.0803283)
(-9.261636e-07 2.0084378e-06 1.0803275)
(1.2121145e-06 1.8020702e-06 1.0803285)
(2.8320087e-06 1.7154072e-06 1.0803292)
(1.6419522e-06 1.6419522e-06 1.0803296)
(8.8677258e-07 1.5829426e-06 1.0803298)
(1.5952921e-07 1.5313908e-06 1.0803299)
(-5.4409757e-07 1.4794086e-06 1.0803298)
(-1.2261265e-06 1.4184744e-06 1.0803295)
(-1.8963431e-06 1.3385395e-06 1.0803291)
(-2.5799861e-06 1.2316885e-06 1.0803286)
(-9.7653326e-07 1.1220695e-06 1.0803278)
(1.1950283e-06 9.8378499e-07 1.0803288)
(2.7760175e-06 9.4170257e-07 1.0803294)
(1.5829426e-06 8.8677259e-07 1.0803298)
(8.3114118e-07 8.3114118e-07 1.08033)
(1.0509289e-07 7.768474e-07 1.0803301)
(-6.0221129e-07 7.2174838e-07 1.08033)
(-1.2930367e-06 6.6243825e-07 1.0803297)
(-1.9736114e-06 5.9660068e-07 1.0803293)
(-2.6550696e-06 5.2770193e-07 1.0803287)
(-9.9924294e-07 4.7470063e-07 1.0803279)
(1.1840596e-06 2.4094923e-07 1.0803288)
(2.7349963e-06 2.0862683e-07 1.0803295)
(1.5313908e-06 1.5952921e-07 1.0803299)
(7.768474e-07 1.050929e-07 1.0803301)
(5.0136412e-08 5.0136414e-08 1.0803301)
(-6.5850673e-07 -4.6749591e-09 1.08033)
(-1.3512742e-06 -5.9993112e-08 1.0803297)
(-2.0310795e-06 -1.151089e-07 1.0803293)
(-2.7018861e-06 -1.6491605e-07 1.0803287)
(-1.0118675e-06 -1.973829e-07 1.0803279)
(1.17348e-06 -4.5115451e-07 1.0803288)
(2.6945975e-06 -4.8929485e-07 1.0803294)
(1.4794087e-06 -5.4409757e-07 1.0803298)
(7.2174839e-07 -6.0221129e-07 1.08033)
(-4.6749644e-09 -6.5850672e-07 1.08033)
(-7.1234081e-07 -7.1234081e-07 1.0803299)
(-1.4034706e-06 -7.6429237e-07 1.0803296)
(-2.0785343e-06 -8.1367705e-07 1.0803292)
(-2.7373436e-06 -8.563099e-07 1.0803285)
(-1.0208875e-06 -8.8307313e-07 1.0803277)
(1.1586327e-06 -1.0874593e-06 1.0803286)
(2.6420532e-06 -1.1521676e-06 1.0803292)
(1.4184744e-06 -1.2261265e-06 1.0803295)
(6.6243826e-07 -1.2930367e-06 1.0803297)
(-5.9993113e-08 -1.3512742e-06 1.0803297)
(-7.6429238e-07 -1.4034706e-06 1.0803296)
(-1.4526104e-06 -1.4526104e-06 1.0803293)
(-2.123097e-06 -1.5002798e-06 1.0803289)
(-2.7712822e-06 -1.5446822e-06 1.0803282)
(-1.0297096e-06 -1.5767583e-06 1.0803274)
(1.1303412e-06 -1.641335e-06 1.0803282)
(2.5559304e-06 -1.7868255e-06 1.0803288)
(1.3385396e-06 -1.8963431e-06 1.0803291)
(5.9660068e-07 -1.9736114e-06 1.0803293)
(-1.1510889e-07 -2.0310795e-06 1.0803293)
(-8.1367706e-07 -2.0785343e-06 1.0803292)
(-1.5002798e-06 -2.123097e-06 1.0803289)
(-2.1706061e-06 -2.1706061e-06 1.0803284)
(-2.8138221e-06 -2.2255705e-06 1.0803277)
(-1.0422716e-06 -2.2831523e-06 1.0803269)
(1.061639e-06 -2.0324935e-06 1.0803277)
(2.3870451e-06 -2.4385996e-06 1.0803283)
(1.2316885e-06 -2.5799861e-06 1.0803286)
(5.2770192e-07 -2.6550696e-06 1.0803287)
(-1.6491605e-07 -2.7018861e-06 1.0803287)
(-8.5630989e-07 -2.7373436e-06 1.0803285)
(-1.5446822e-06 -2.7712822e-06 1.0803282)
(-2.2255705e-06 -2.8138221e-06 1.0803277)
(-2.8838284e-06 -2.8838284e-06 1.0803271)
(-1.0680974e-06 -3.0278719e-06 1.0803262)
(8.5960379e-07 -7.2412836e-07 1.0803271)
(2.0084378e-06 -9.261636e-07 1.0803275)
(1.1220695e-06 -9.7653327e-07 1.0803278)
(4.7470064e-07 -9.9924294e-07 1.0803279)
(-1.9738289e-07 -1.0118675e-06 1.0803279)
(-8.8307314e-07 -1.0208875e-06 1.0803277)
(-1.5767583e-06 -1.0297096e-06 1.0803274)
(-2.2831523e-06 -1.0422716e-06 1.0803269)
(-3.0278719e-06 -1.0680975e-06 1.0803262)
(-1.1383006e-06 -1.1383006e-06 1.0803253)
(1.7008515e-06 1.7008515e-06 1.0802801)
(3.871659e-06 1.485826e-06 1.0802808)
(2.1226545e-06 1.4374826e-06 1.0802812)
(1.1411838e-06 1.4170677e-06 1.0802815)
(2.4200798e-07 1.4038294e-06 1.0802815)
(-6.031554e-07 1.3909448e-06 1.0802814)
(-1.3876734e-06 1.3727649e-06 1.0802812)
(-2.0794428e-06 1.3380244e-06 1.0802808)
(-2.5804851e-06 1.2535117e-06 1.0802803)
(-9.216422e-07 1.0046561e-06 1.0802798)
(1.4858259e-06 3.871659e-06 1.0802808)
(3.4766056e-06 3.4766056e-06 1.0802815)
(2.0195172e-06 3.3527231e-06 1.0802819)
(1.090704e-06 3.2856518e-06 1.0802821)
(2.0282358e-07 3.2360642e-06 1.0802822)
(-6.4975214e-07 3.1868596e-06 1.0802821)
(-1.467054e-06 3.122569e-06 1.0802818)
(-2.2583226e-06 3.016944e-06 1.0802814)
(-3.0805375e-06 2.8095437e-06 1.0802809)
(-1.1704977e-06 2.3441991e-06 1.0802802)
(1.4374826e-06 2.1226545e-06 1.0802812)
(3.3527231e-06 2.0195172e-06 1.0802819)
(1.9317007e-06 1.9317007e-06 1.0802822)
(1.024525e-06 1.8606611e-06 1.0802825)
(1.432158e-07 1.7981709e-06 1.0802825)
(-7.1665061e-07 1.7348185e-06 1.0802824)
(-1.557589e-06 1.6603085e-06 1.0802821)
(-2.3924682e-06 1.5624212e-06 1.0802817)
(-3.2532299e-06 1.4316019e-06 1.0802812)
(-1.2318719e-06 1.2980062e-06 1.0802804)
(1.4170677e-06 1.1411838e-06 1.0802815)
(3.2856518e-06 1.090704e-06 1.0802821)
(1.8606611e-06 1.024525e-06 1.0802825)
(9.571742e-07 9.5717422e-07 1.0802826)
(7.6980933e-08 8.9115055e-07 1.0802827)
(-7.8761453e-07 8.2390843e-07 1.0802826)
(-1.6394513e-06 7.5135258e-07 1.0802823)
(-2.4870292e-06 6.7072108e-07 1.0802819)
(-3.3449525e-06 5.8636725e-07 1.0802813)
(-1.2595615e-06 5.2166274e-07 1.0802805)
(1.4038294e-06 2.4200798e-07 1.0802815)
(3.2360642e-06 2.0282357e-07 1.0802822)
(1.7981709e-06 1.4321579e-07 1.0802825)
(8.9115055e-07 7.6980934e-08 1.0802827)
(9.9500114e-09 9.9500226e-09 1.0802827)
(-8.5644858e-07 -5.7068163e-08 1.0802826)
(-1.7107764e-06 -1.2485382e-07 1.0802823)
(-2.5574535e-06 -1.9249906e-07 1.0802819)
(-3.4022882e-06 -2.5367066e-07 1.0802813)
(-1.2750082e-06 -2.9351555e-07 1.0802805)
(1.3909448e-06 -6.0315539e-07 1.0802814)
(3.1868596e-06 -6.4975215e-07 1.0802821)
(1.7348185e-06 -7.1665062e-07 1.0802824)
(8.2390844e-07 -7.8761454e-07 1.0802826)
(-5.7068165e-08 -8.5644858e-07 1.0802826)
(-9.2241837e-07 -9.2241836e-07 1.0802825)
(-1.7748822e-06 -9.8626703e-07 1.0802822)
(-2.615846e-06 -1.0471647e-06 1.0802817)
(-3.445969e-06 -1.0999179e-06 1.0802811)
(-1.2861248e-06 -1.1331296e-06 1.0802803)
(1.3727648e-06 -1.3876734e-06 1.0802812)
(3.122569e-06 -1.467054e-06 1.0802818)
(1.6603085e-06 -1.557589e-06 1.0802821)
(7.5135259e-07 -1.6394513e-06 1.0802823)
(-1.2485381e-07 -1.7107764e-06 1.0802823)
(-9.8626703e-07 -1.7748822e-06 1.0802822)
(-1.8355227e-06 -1.8355227e-06 1.0802819)
(-2.6711044e-06 -1.894745e-06 1.0802814)
(-3.4882532e-06 -1.9503614e-06 1.0802808)
(-1.2971493e-06 -1.9908743e-06 1.08028)
(1.3380244e-06 -2.0794428e-06 1.0802808)
(3.0169439e-06 -2.2583226e-06 1.0802814)
(1.5624212e-06 -2.3924682e-06 1.0802817)
(6.707211e-07 -2.4870292e-06 1.0802819)
(-1.9249906e-07 -2.5574535e-06 1.0802819)
(-1.0471647e-06 -2.615846e-06 1.0802817)
(-1.894745e-06 -2.6711044e-06 1.0802814)
(-2.7306847e-06 -2.7306847e-06 1.0802809)
(-3.5420983e-06 -2.8005048e-06 1.0802803)
(-1.3131334e-06 -2.8744636e-06 1.0802795)
(1.2535117e-06 -2.5804851e-06 1.0802803)
(2.8095437e-06 -3.0805375e-06 1.0802809)
(1.4316019e-06 -3.2532299e-06 1.0802812)
(5.8636726e-07 -3.3449525e-06 1.0802813)
(-2.5367066e-07 -3.4022882e-06 1.0802813)
(-1.099918e-06 -3.445969e-06 1.0802811)
(-1.9503614e-06 -3.4882532e-06 1.0802808)
(-2.8005048e-06 -3.5420983e-06 1.0802803)
(-3.6320321e-06 -3.6320321e-06 1.0802796)
(-1.3464552e-06 -3.8187405e-06 1.0802788)
(1.0046562e-06 -9.2164219e-07 1.0802798)
(2.3441991e-06 -1.1704977e-06 1.0802802)
(1.2980062e-06 -1.2318719e-06 1.0802804)
(5.2166273e-07 -1.2595616e-06 1.0802805)
(-2.9351555e-07 -1.2750082e-06 1.0802805)
(-1.1331297e-06 -1.2861248e-06 1.0802803)
(-1.9908743e-06 -1.2971493e-06 1.08028)
(-2.8744636e-06 -1.3131334e-06 1.0802795)
(-3.8187405e-06 -1.3464552e-06 1.0802788)
(-1.4376057e-06 -1.4376057e-06 1.0802779)
(1.955424e-06 1.955424e-06 1.0802239)
(4.4412936e-06 1.7070017e-06 1.0802246)
(2.4162757e-06 1.6513301e-06 1.080225)
(1.2766546e-06 1.6277405e-06 1.0802252)
(2.266577e-07 1.6123311e-06 1.0802252)
(-7.660074e-07 1.5972291e-06 1.0802251)
(-1.6931998e-06 1.5758303e-06 1.0802249)
(-2.5170155e-06 1.5348533e-06 1.0802245)
(-3.1215177e-06 1.4350503e-06 1.080224)
(-1.1157155e-06 1.1409227e-06 1.0802235)
(1.7070017e-06 4.4412936e-06 1.0802246)
(3.9851527e-06 3.9851527e-06 1.0802253)
(2.2973839e-06 3.8423924e-06 1.0802256)
(1.2181561e-06 3.7647569e-06 1.0802258)
(1.8089062e-07 3.7069742e-06 1.0802258)
(-8.2075858e-07 3.6493e-06 1.0802257)
(-1.7867635e-06 3.573669e-06 1.0802255)
(-2.7281855e-06 3.4491895e-06 1.0802251)
(-3.7124137e-06 3.2045523e-06 1.0802246)
(-1.4098432e-06 2.655374e-06 1.0802238)
(1.6513301e-06 2.4162757e-06 1.080225)
(3.8423924e-06 2.2973839e-06 1.0802256)
(2.19588e-06 2.19588e-06 1.0802259)
(1.1412364e-06 2.1133629e-06 1.0802261)
(1.112008e-07 2.0403959e-06 1.0802261)
(-8.9931262e-07 1.9661033e-06 1.080226)
(-1.8933104e-06 1.8784881e-06 1.0802258)
(-2.8861323e-06 1.7632473e-06 1.0802254)
(-3.9153332e-06 1.6092628e-06 1.0802248)
(-1.4818343e-06 1.4525299e-06 1.0802241)
(1.6277405e-06 1.2766546e-06 1.0802252)
(3.7647569e-06 1.2181561e-06 1.0802258)
(2.1133629e-06 1.1412364e-06 1.0802261)
(1.062672e-06 1.062672e-06 1.0802263)
(3.3630982e-08 9.853861e-07 1.0802263)
(-9.8266639e-07 9.0644246e-07 1.0802262)
(-1.9896195e-06 8.210873e-07 1.0802259)
(-2.9974107e-06 7.2614175e-07 1.0802255)
(-4.0231311e-06 6.2683522e-07 1.0802249)
(-1.5143318e-06 5.5082275e-07 1.0802241)
(1.6123311e-06 2.266577e-07 1.0802252)
(3.7069743e-06 1.8089061e-07 1.0802258)
(2.0403959e-06 1.1120079e-07 1.0802261)
(9.853861e-07 3.3630967e-08 1.0802263)
(-4.502874e-08 -4.5028726e-08 1.0802263)
(-1.0636114e-06 -1.2383787e-07 1.0802262)
(-2.0736111e-06 -2.0369824e-07 1.0802259)
(-3.0803843e-06 -2.8349897e-07 1.0802255)
(-4.0906522e-06 -3.5570136e-07 1.0802249)
(-1.5325093e-06 -4.0270156e-07 1.0802241)
(1.5972291e-06 -7.6600738e-07 1.0802251)
(3.6493e-06 -8.2075858e-07 1.0802257)
(1.9661032e-06 -8.9931262e-07 1.080226)
(9.0644247e-07 -9.8266641e-07 1.0802262)
(-1.2383785e-07 -1.0636114e-06 1.0802262)
(-1.1413359e-06 -1.1413359e-06 1.080226)
(-2.1492806e-06 -1.2167447e-06 1.0802257)
(-3.1494139e-06 -1.2888597e-06 1.0802253)
(-4.1423337e-06 -1.3514898e-06 1.0802247)
(-1.5456652e-06 -1.3909953e-06 1.0802239)
(1.5758303e-06 -1.6931998e-06 1.0802249)
(3.573669e-06 -1.7867635e-06 1.0802255)
(1.8784881e-06 -1.8933104e-06 1.0802258)
(8.2108729e-07 -1.9896195e-06 1.0802259)
(-2.0369823e-07 -2.0736111e-06 1.0802259)
(-1.2167447e-06 -2.1492806e-06 1.0802257)
(-2.2211349e-06 -2.2211349e-06 1.0802254)
(-3.2151294e-06 -2.2916649e-06 1.080225)
(-4.1927878e-06 -2.3582805e-06 1.0802244)
(-1.5588463e-06 -2.4070675e-06 1.0802236)
(1.5348533e-06 -2.5170155e-06 1.0802245)
(3.4491895e-06 -2.7281855e-06 1.0802251)
(1.7632473e-06 -2.8861323e-06 1.0802254)
(7.2614176e-07 -2.9974107e-06 1.0802255)
(-2.8349898e-07 -3.0803843e-06 1.0802255)
(-1.2888597e-06 -3.1494139e-06 1.0802253)
(-2.2916649e-06 -3.2151294e-06 1.080225)
(-3.2865595e-06 -3.2865595e-06 1.0802245)
(-4.2577363e-06 -3.3709736e-06 1.0802239)
(-1.5781899e-06 -3.4609872e-06 1.0802231)
(1.4350503e-06 -3.1215177e-06 1.080224)
(3.2045523e-06 -3.7124137e-06 1.0802246)
(1.6092628e-06 -3.9153332e-06 1.0802248)
(6.2683523e-07 -4.0231311e-06 1.0802249)
(-3.5570137e-07 -4.0906522e-06 1.0802249)
(-1.3514898e-06 -4.1423337e-06 1.0802247)
(-2.3582805e-06 -4.1927878e-06 1.0802244)
(-3.3709736e-06 -4.2577363e-06 1.0802239)
(-4.3672155e-06 -4.3672154e-06 1.0802232)
(-1.6188553e-06 -4.5956522e-06 1.0802224)
(1.1409227e-06 -1.1157155e-06 1.0802235)
(2.655374e-06 -1.4098432e-06 1.0802238)
(1.4525299e-06 -1.4818343e-06 1.0802241)
(5.5082275e-07 -1.5143318e-06 1.0802241)
(-4.0270156e-07 -1.5325093e-06 1.0802241)
(-1.3909953e-06 -1.5456652e-06 1.0802239)
(-2.4070675e-06 -1.5588463e-06 1.0802236)
(-3.4609872e-06 -1.5781899e-06 1.0802231)
(-4.5956522e-06 -1.6188553e-06 1.0802224)
(-1.730481e-06 -1.730481e-06 1.0802216)
(2.1961447e-06 2.1961447e-06 1.0801591)
(4.9762296e-06 1.9157881e-06 1.0801598)
(2.684868e-06 1.8531393e-06 1.0801601)
(1.3929131e-06 1.826533e-06 1.0801603)
(1.9827384e-07 1.8090566e-06 1.0801604)
(-9.3544777e-07 1.7918354e-06 1.0801603)
(-1.9986756e-06 1.7673526e-06 1.08016)
(-2.9477251e-06 1.7203952e-06 1.0801597)
(-3.6491362e-06 1.6059282e-06 1.0801592)
(-1.3042817e-06 1.2683786e-06 1.0801586)
(1.9157881e-06 4.9762296e-06 1.0801598)