/*--------------------------------*- C++ -*----------------------------------*\
| =========                 |                                                 |
| \\      /  F ield         | OpenFOAM: The Open Source CFD Toolbox           |
|  \\    /   O peration     | Version:  v2106                                 |
|   \\  /    A nd           | Website:  www.openfoam.com                      |
|    \\/     M anipulation  |                                                 |
\*---------------------------------------------------------------------------*/
FoamFile
{
    version     2.0;
    format      ascii;
    arch        "LSB;label=32;scalar=64";
    class       volScalarField;
    location    "80";
    object      gradTx;
}
// * * * * * * * * * * * * * * * * * * * * * * * * * * * * * * * * * * * * * //

dimensions      [0 -1 0 1 0 0 0];

internalField   nonuniform List<scalar> 
4000
(
9.3978435e-05
0.00020649006
0.0001039812
5.6341334e-05
1.8009499e-05
-1.5334151e-05
-4.3786897e-05
-6.4563846e-05
-6.8963086e-05
-2.1816684e-05
8.3322727e-05
0.00018680108
9.8836733e-05
5.4058157e-05
1.639276e-05
-1.7158849e-05
-4.6773051e-05
-7.0853648e-05
-8.3914643e-05
-2.8880565e-05
8.0852445e-05
0.00018061808
9.4746486e-05
5.1210601e-05
1.3965136e-05
-1.9796957e-05
-5.0281123e-05
-7.6013083e-05
-9.0857699e-05
-3.1444786e-05
7.9893087e-05
0.00017756636
9.1677966e-05
4.8423954e-05
1.1305778e-05
-2.2593417e-05
-5.3476776e-05
-7.9703413e-05
-9.45047e-05
-3.2567721e-05
7.933033e-05
0.00017548735
8.9112286e-05
4.5765548e-05
8.6485947e-06
-2.5290532e-05
-5.6251041e-05
-8.2436886e-05
-9.6741937e-05
-3.3174721e-05
7.8815253e-05
0.000173522
8.6591001e-05
4.3107415e-05
6.0222326e-06
-2.7849838e-05
-5.8711456e-05
-8.465514e-05
-9.8388505e-05
-3.3592188e-05
7.8113867e-05
0.00017102454
8.367771e-05
4.0271977e-05
3.3921793e-06
-3.0291943e-05
-6.0978885e-05
-8.6655828e-05
-9.9859987e-05
-3.3964621e-05
7.6824486e-05
0.00016702777
7.9887273e-05
3.7137503e-05
7.8755546e-07
-3.2577684e-05
-6.3095749e-05
-8.8619652e-05
-0.00010144116
-3.4395528e-05
7.3920667e-05
0.00015957531
7.4827946e-05
3.3848171e-05
-1.5595483e-06
-3.451088e-05
-6.4943392e-05
-9.0566306e-05
-0.00010335619
-3.4997652e-05
6.6856783e-05
0.00014513316
6.9297218e-05
3.1253268e-05
-3.0962525e-06
-3.5695734e-05
-6.6148397e-05
-9.211585e-05
-0.00010545286
-3.579331e-05
0.00041010797
0.00091920175
0.0004870765
0.00026835028
8.4516627e-05
-7.7971021e-05
-0.00021849103
-0.00032527922
-0.00036222064
-0.00011883892
0.00035852202
0.00082467006
0.00046316312
0.00025751698
7.6678117e-05
-8.6897661e-05
-0.00023330832
-0.00035792912
-0.00045143728
-0.00016298772
0.00034708685
0.00079598067
0.00044391316
0.00024381917
6.4881485e-05
-9.9774073e-05
-0.00025049225
-0.00038332534
-0.00048507693
-0.0001752298
0.00034257978
0.00078150674
0.00042915759
0.00023030489
5.1931606e-05
-0.00011341913
-0.00026610288
-0.00040136097
-0.00050284263
-0.00018067878
0.00033986465
0.00077144956
0.00041670108
0.00021736329
3.8974719e-05
-0.00012658437
-0.00027965332
-0.00041471478
-0.00051376669
-0.00018364063
0.0003373541
0.0007618716
0.0004044111
0.00020439815
2.6155283e-05
-0.00013908682
-0.00029168393
-0.00042557234
-0.00052183382
-0.0001856872
0.00033391356
0.00074964651
0.00039017961
0.000190553
1.3307042e-05
-0.0001510316
-0.00030279969
-0.000435418
-0.00052911445
-0.00018753804
0.00032747591
0.00072987037
0.00037161653
0.00017523708
5.7423105e-07
-0.00016223318
-0.00031323358
-0.00044521161
-0.00053716077
-0.00018976824
0.00031214694
0.00069160038
0.00034674776
0.00015916355
-1.0904323e-05
-0.00017173481
-0.00032243896
-0.00045522047
-0.00054763845
-0.0001932148
0.00026799815
0.00060701407
0.00032021118
0.00014654732
-1.8416951e-05
-0.00017758092
-0.00032856053
-0.00046373562
-0.00056159546
-0.00019907292
0.00066163739
0.0015025881
0.00082194382
0.00045567315
0.00013613164
-0.00015247774
-0.00040859621
-0.00061777135
-0.00073939793
-0.00025698315
0.00057849321
0.0013497762
0.00078239658
0.00043712638
0.00012237104
-0.00016835724
-0.00043519673
-0.00067702317
-0.00090343208
-0.00033842899
0.00055976279
0.0013022696
0.00074968415
0.00041332863
0.00010158047
-0.00019122799
-0.00046583737
-0.00072232899
-0.00096260024
-0.00035971336
0.00055212839
0.0012775165
0.00072407079
0.00038959942
7.8673852e-05
-0.00021546629
-0.00049362074
-0.00075441029
-0.00099399138
-0.00036927615
0.00054739828
0.0012599251
0.0007021572
0.00036672159
5.5687835e-05
-0.00023887914
-0.00051775384
-0.00077819837
-0.0010134145
-0.00037453002
0.00054295467
0.0012429653
0.00068037359
0.0003437068
3.2890743e-05
-0.00026115854
-0.00053924216
-0.00079763864
-0.0010278879
-0.0003782058
0.00053681195
0.0012211748
0.00065504813
0.00031907044
9.9955798e-06
-0.00028251028
-0.00055922116
-0.00081549203
-0.0010412551
-0.00038163835
0.00052522099
0.0011857242
0.00062194958
0.00029179035
-1.2730675e-05
-0.00030262588
-0.00057820901
-0.00083378184
-0.0010569526
-0.00038614531
0.00049731074
0.0011166172
0.00057766103
0.00026320106
-3.3232763e-05
-0.00031980393
-0.00059536437
-0.0008537129
-0.0010805807
-0.0003945681
0.0004158649
0.00096252187
0.00053139029
0.00024097607
-4.6627239e-05
-0.00033046642
-0.00060727363
-0.00087310753
-0.0011250352
-0.00041578159
0.00088608865
0.0020204651
0.0011156793
0.00061595795
0.00016910529
-0.00024184974
-0.00061422356
-0.00093108099
-0.0011429915
-0.00040452655
0.00077489336
0.0018159611
0.0010622931
0.00059036482
0.00014973267
-0.00026448238
-0.00065241205
-0.0010166463
-0.0013811951
-0.00052295906
0.00074975265
0.0017518065
0.0010174195
0.00055718176
0.0001203701
-0.00029703661
-0.0006961962
-0.0010814339
-0.0014651935
-0.00055299257
0.00073930258
0.0017177013
0.00098173966
0.00052379815
8.7906709e-05
-0.00033154639
-0.00073584283
-0.0011272094
-0.0015097936
-0.0005665199
0.00073269056
0.0016930303
0.00095085283
0.0004913983
5.5227453e-05
-0.00036492844
-0.00077031399
-0.0011612045
-0.0015375127
-0.00057400418
0.0007263875
0.0016689661
0.0009199137
0.00045865551
2.2724473e-05
-0.00039677296
-0.00080111069
-0.0011891389
-0.0015583518
-0.00057930188
0.00071760214
0.0016378435
0.00088378881
0.00042350648
-9.9991115e-06
-0.00042740061
-0.0008299353
-0.0012151104
-0.0015779942
-0.00058438371
0.00070092851
0.0015869935
0.00083648292
0.00038453773
-4.2543382e-05
-0.00045639428
-0.00085764732
-0.0012423504
-0.0016020133
-0.00059140989
0.00066055862
0.0014874905
0.00077322569
0.00034373598
-7.1928639e-05
-0.00048130655
-0.00088314673
-0.0012731963
-0.0016404583
-0.00060546246
0.00054212611
0.0012647915
0.00070788443
0.00031221855
-9.1101634e-05
-0.00049687585
-0.00090130874
-0.0013048144
-0.0017179604
-0.00064307792
0.0010951857
0.0024970915
0.0013770856
0.00075177766
0.00018412585
-0.00034475815
-0.00083100235
-0.0012542568
-0.0015531678
-0.00055335622
0.00095735328
0.0022437027
0.0013108604
0.00071961958
0.00015942608
-0.00037390378
-0.00088045034
-0.001365436
-0.0018635014
-0.00070774521
0.00092625993
0.0021641323
0.0012547284
0.00067764379
0.00012190722
-0.0004157823
-0.00093696739
-0.001449126
-0.0019715445
-0.00074623612
0.00091320315
0.0021213455
0.0012096351
0.00063513201
8.0308689e-05
-0.00046019097
-0.00098809807
-0.0015081719
-0.002028921
-0.00076359014
0.00090482121
0.0020899984
0.0011702408
0.00059364241
3.8312673e-05
-0.00050321018
-0.0010326013
-0.0015520872
-0.0020646967
-0.0007732374
0.00089673663
0.0020591269
0.0011305177
0.00055153747
-3.5724611e-06
-0.0005443485
-0.0010724882
-0.0015883508
-0.0020917922
-0.00078013024
0.00088539078
0.0020189742
0.0010839536
0.00050621454
-4.5844855e-05
-0.00058404826
-0.0011100393
-0.0016224042
-0.002117727
-0.00078687182
0.0008637713
0.0019531619
0.00102287
0.00045590353
-8.7962607e-05
-0.00062178649
-0.0011464668
-0.0016587092
-0.0021502347
-0.00079647129
0.00081127128
0.0018241051
0.00094121775
0.00040325327
-0.00012602367
-0.00065436517
-0.0011803977
-0.0017007113
-0.0022037313
-0.00081620663
0.00065688229
0.0015347852
0.00085745035
0.00036275136
-0.00015083382
-0.00067481682
-0.0012049093
-0.0017447135
-0.0023138049
-0.00086985366
0.001291615
0.0029401113
0.0016119293
0.00086660716
0.0001837792
-0.00045803207
-0.0010537897
-0.0015791146
-0.0019596027
-0.00069988879
0.0011283261
0.0026401104
0.0015336075
0.00082827312
0.00015402283
-0.00049341731
-0.0011140707
-0.0017149547
-0.002339339
-0.00088886795
0.0010916144
0.0025460349
0.0014669202
0.00077801722
0.00010875709
-0.00054421953
-0.0011828224
-0.0018168239
-0.0024704805
-0.00093547506
0.0010761115
0.0024951014
0.0014129732
0.00072687149
5.8458789e-05
-0.00059810904
-0.001244988
-0.0018886328
-0.0025401339
-0.00095650241
0.0010660584
0.0024574449
0.0013655186
0.00067673358
7.55597e-06
-0.00065038114
-0.0012991518
-0.0019421126
-0.0025836743
-0.0009682325
0.0010562739
0.0024200792
0.0013174092
0.00062567039
-4.3337171e-05
-0.00070047815
-0.0013478333
-0.0019864555
-0.0026168452
-0.00097667437
0.0010424682
0.0023712574
0.0012608268
0.00057057198
-9.4813121e-05
-0.00074896439
-0.0013938833
-0.0020284184
-0.0026489556
-0.00098504634
0.0010160866
0.0022910465
0.0011864919
0.00050934099
-0.00014618246
-0.00079520965
-0.0014388563
-0.0020736632
-0.0026898452
-0.00099718457
0.00095190819
0.0021335482
0.0010871487
0.00044528327
-0.00019263576
-0.00083527015
-0.001481091
-0.0021266842
-0.0027581404
-0.0010224889
0.00076292902
0.0017801688
0.00098569699
0.0003961471
-0.00022289369
-0.00086049089
-0.0015118563
-0.002182848
-0.0028999255
-0.001091708
0.0014757709
0.0033518722
0.0018235785
0.00096349924
0.00017105998
-0.00057811058
-0.0012778685
-0.0018996074
-0.0023558291
-0.00084203752
0.0012882849
0.0030076197
0.00173385
0.00091934999
0.00013651928
-0.00061943163
-0.0013484816
-0.0020589787
-0.0028017819
-0.0010640175
0.0012462692
0.0028998776
0.0016572443
0.00086129823
8.392394e-05
-0.00067871684
-0.0014288931
-0.0021781821
-0.0029549265
-0.0011183497
0.0012284659
0.0028412856
0.0015949681
0.00080200517
2.5381511e-05
-0.00074162445
-0.0015015782
-0.0022621646
-0.0030362822
-0.0011428757
0.0012168364
0.0027976766
0.0015398995
0.00074367702
-3.398347e-05
-0.00080271417
-0.0015649672
-0.0023247853
-0.0030872408
-0.0011565944
0.0012054388
0.0027541495
0.0014838304
0.00068409778
-9.3461199e-05
-0.00086137332
-0.0016220755
-0.0023768823
-0.0031262452
-0.0011665233
0.001189289
0.0026970703
0.0014177067
0.0006196797
-0.00015373233
-0.00091828484
-0.0016763044
-0.0024264783
-0.0031643232
-0.0011764711
0.0011583634
0.0026031249
0.0013307338
0.00054802372
-0.00021395845
-0.00097271049
-0.0017295338
-0.002480387
-0.0032133403
-0.0011910699
0.0010830415
0.0024184957
0.0012145208
0.00047307647
-0.00026845005
-0.0010199779
-0.0017798091
-0.002544095
-0.003295965
-0.0012217603
0.00086106154
0.0020040275
0.0010962334
0.00041570939
-0.0003039214
-0.0010497929
-0.001816629
-0.0026120288
-0.0034683678
-0.001306005
0.00164734
0.0037326967
0.002013934
0.0010448316
0.00014872627
-0.0007016844
-0.0014992173
-0.0022111045
-0.0027372368
-0.0009783488
0.001437043
0.0033467612
0.0019135078
0.00099523159
0.00010968594
-0.00074860795
-0.0015795987
-0.0023927324
-0.0032458269
-0.0012315465
0.0013900497
0.0032262094
0.0018276196
0.00092987291
5.0198225e-05
-0.00081589513
-0.0016710273
-0.0025283188
-0.0034197475
-0.0012931671
0.0013700922
0.0031604469
0.0017575408
0.00086293204
-1.6104774e-05
-0.00088731354
-0.0017536546
-0.0026238105
-0.0035121595
-0.0013209965
0.0013569831
0.0031112507
0.0016953201
0.00079689725
-8.345007e-05
-0.00095673661
-0.0018257748
-0.0026950869
-0.0035701399
-0.0013365963
0.0013440653
0.0030619188
0.0016317501
0.00072928375
-0.00015104148
-0.0010235052
-0.0018908787
-0.0027545496
-0.0036146866
-0.0013479377
0.0013257007
0.00299704
0.0015566145
0.00065605576
-0.00021964169
-0.0010884155
-0.0019528924
-0.002811425
-0.0036584612
-0.00135939
0.0012904777
0.0028901089
0.0014576941
0.00057453623
-0.00028826551
-0.0011506228
-0.0020140023
-0.0028736224
-0.0037152603
-0.0013763449
0.0012046154
0.0026798257
0.0013255364
0.00048928765
-0.00035038082
-0.0012047536
-0.0020719652
-0.0029475677
-0.0038116125
-0.001412194
0.00095141764
0.0022075982
0.0011913615
0.00042414384
-0.00039079263
-0.0012389441
-0.002114576
-0.0030267738
-0.0040133314
-0.0015108242
0.0018057768
0.0040820755
0.0021840478
0.0011123795
0.00011910378
-0.00082590143
-0.0017144836
-0.0025099187
-0.0031002211
-0.0011076819
0.0015741833
0.0036572513
0.0020736753
0.0010577104
7.586618e-05
-0.00087806552
-0.0018040141
-0.0027124008
-0.0036675139
-0.0013901379
0.0015225606
0.0035247951
0.0019791668
0.00098555491
9.94998e-06
-0.00095283383
-0.0019057549
-0.0028633245
-0.003860865
-0.0014585693
0.0015006016
0.0034523703
0.001901833
0.00091149053
-6.3597502e-05
-0.0010322123
-0.001997691
-0.0029695932
-0.0039636228
-0.0014894875
0.0014861145
0.0033979705
0.001832947
0.0008382637
-0.00013840309
-0.0011094382
-0.0020779952
-0.0030489856
-0.0040281844
-0.0015068496
0.0014717766
0.0033432165
0.0017623693
0.00076313747
-0.00021359235
-0.0011838131
-0.0021506092
-0.0031153727
-0.0040779422
-0.0015195185
0.0014513385
0.0032710381
0.0016788002
0.00068165931
-0.00029000393
-0.0012562401
-0.0022199537
-0.0031791144
-0.0041270949
-0.0015323917
0.0014120896
0.0031519452
0.0015686924
0.00059089722
-0.00036651059
-0.0013257716
-0.0022885023
-0.0032491536
-0.0041912659
-0.0015515795
0.0013163504
0.0029176323
0.0014216079
0.0004959982
-0.00043578336
-0.0013863689
-0.0023537346
-0.0033328023
-0.0043006426
-0.0015923243
0.0010338944
0.0023913013
0.0012725835
0.00042357783
-0.00048082992
-0.0014246821
-0.0024018261
-0.0034227013
-0.0045301894
-0.0017046107
0.0019504771
0.0043991715
0.0023344857
0.0011674539
8.4083528e-05
-0.00094838003
-0.0019208857
-0.0027930283
-0.0034418087
-0.0012290844
0.0016992226
0.003938469
0.0022149663
0.0011081192
3.6970341e-05
-0.0010053955
-0.0020188957
-0.003014847
-0.004063547
-0.0015386785
0.001643342
0.0037950701
0.0021125354
0.0010297046
-3.4881484e-05
-0.001087086
-0.0021301882
-0.0031799776
-0.0042748769
-0.0016134061
0.0016195431
0.0037165187
0.002028523
0.00094907074
-0.00011512359
-0.0011738324
-0.0022307478
-0.0032962305
-0.0043872122
-0.0016471817
0.0016037856
0.0036573209
0.0019534869
0.00086919935
-0.00019683203
-0.0012582882
-0.0023186417
-0.0033831511
-0.0044578757
-0.0016661767
0.0015881343
0.0035975537
0.0018764291
0.00078712018
-0.00027906182
-0.0013397214
-0.0023982334
-0.0034559765
-0.0045124795
-0.0016800801
0.0015657753
0.0035186149
0.0017850501
0.00069799718
-0.00036272108
-0.0014191354
-0.0024744051
-0.0035261235
-0.0045666545
-0.0016942806
0.0015227942
0.0033882512
0.001664577
0.00059866665
-0.00044654742
-0.0014954848
-0.0025498979
-0.0036035013
-0.0046377358
-0.001715563
0.0014178962
0.0031316656
0.0015036665
0.00049482363
-0.0005224671
-0.0015621078
-0.0026219299
-0.0036962525
-0.004759349
-0.0017609094
0.001108302
0.002555183
0.0013409118
0.00041566783
-0.00057181465
-0.0016042637
-0.0026751542
-0.0037961957
-0.005015065
-0.0018860403
0.0020808525
0.0046830555
0.0024655385
0.0012110288
4.518539e-05
-0.0010671538
-0.0021161117
-0.0030579127
-0.0037594818
-0.001341739
0.0018116828
0.0041896836
0.002337718
0.0011474544
-5.4627696e-06
-0.0011286065
-0.0022218867
-0.0032974469
-0.0044311184
-0.0016762068
0.0017519379
0.0040363586
0.0022280995
0.001063347
-8.2728846e-05
-0.0012166249
-0.0023419196
-0.0034755784
-0.0046588804
-0.0017566831
0.0017264691
0.0039522446
0.0021380153
0.00097672806
-0.00016908308
-0.0013101091
-0.0024503717
-0.003600969
-0.0047799738
-0.0017930694
0.001709555
0.0038886768
0.0020573732
0.00089079164
-0.00025710192
-0.0014011831
-0.0025452189
-0.0036947878
-0.0048562259
-0.001813559
0.0016927037
0.0038243303
0.0019743949
0.00080235498
-0.00034577722
-0.0014890871
-0.0026312152
-0.0037735275
-0.004915282
-0.0018285964
0.0016685865
0.0037392057
0.0018758706
0.00070623354
-0.00043607989
-0.0015749172
-0.0027136687
-0.0038495786
-0.0049740922
-0.0018440227
0.001622187
0.0035985225
0.0017459099
0.00059905568
-0.0005266207
-0.001657537
-0.0027955674
-0.003933745
-0.0050515787
-0.0018672483
0.0015088971
0.00332154
0.0015723485
0.00048702412
-0.00060863845
-0.0017297079
-0.0028738862
-0.0040349406
-0.0051845659
-0.0019168747
0.0011744293
0.0026991239
0.0013970546
0.00040171022
-0.00066192895
-0.0017754034
-0.0029318641
-0.0041442187
-0.0054646375
-0.0020539627
0.0021963658
0.0049328285
0.0025773495
0.0012438426
3.6333461e-06
-0.0011806023
-0.0022982357
-0.0033024517
-0.0040510886
-0.0014449399
0.0019111245
0.004410173
0.0024421157
0.0011764749
-5.0191645e-05
-0.0012460553
-0.002411021
-0.0035579894
-0.0047678198
-0.0018018889
0.0018479288
0.0042479884
0.0023260792
0.0010872684
-0.00013232429
-0.0013397756
-0.0025389384
-0.0037478493
-0.005010384
-0.0018875374
0.0018209687
0.0041589028
0.0022305586
0.00099527733
-0.00022417816
-0.0014393334
-0.0026545111
-0.0038814834
-0.0051393709
-0.0019262746
0.0018030171
0.0040914142
0.0021448816
0.00090388512
-0.00031788316
-0.0015363794
-0.0027556384
-0.0039815339
-0.0052206689
-0.0019481128
0.0017850853
0.0040229451
0.0020565721
0.00080971848
-0.00041237547
-0.001630132
-0.0028474311
-0.004065631
-0.0052837592
-0.0019641775
0.0017593817
0.0039322409
0.0019516035
0.00070728132
-0.00050868179
-0.0017217718
-0.0029355854
-0.0041470509
-0.0053467907
-0.0019807209
0.0017098951
0.0037822425
0.001813082
0.00059301848
-0.00060529545
-0.001810079
-0.0030233143
-0.004237416
-0.0054301397
-0.0020057271
0.0015890233
0.0034868433
0.0016281094
0.00047359662
-0.00069282937
-0.0018872888
-0.0031073704
-0.0043463483
-0.0055735722
-0.002059287
0.0012320743
0.0028229471
0.0014415309
0.00038273358
-0.00074968377
-0.0019362008
-0.0031696949
-0.0044641975
-0.0058760449
-0.0022073757
0.00229655
0.0051476907
0.0026699954
0.0012664744
-3.9577384e-05
-0.0012873869
-0.0024656517
-0.0035248609
-0.0043147941
-0.0015380801
0.0019971659
0.0045992914
0.0025282733
0.0011957783
-9.6205704e-05
-0.0013563838
-0.0025846582
-0.0037946111
-0.0050715934
-0.0019150067
0.0019309505
0.0044293574
0.0024066187
0.0011020902
-0.00018263387
-0.0014551522
-0.0027195654
-0.0039948691
-0.0053272582
-0.0020052263
0.0019026845
0.0043359146
0.0023063228
0.0010053654
-0.00027934833
-0.0015600895
-0.0028414516
-0.0041358122
-0.0054632354
-0.0020460428
0.0018838197
0.0042649732
0.0022162058
0.00090915279
-0.00037808742
-0.0016624318
-0.002948154
-0.0042413962
-0.0055490113
-0.002069077
0.0018649322
0.0041928581
0.0021231801
0.00080991184
-0.00047773917
-0.0017613809
-0.0030451048
-0.0043302657
-0.0056156966
-0.002086057
0.0018378218
0.0040972079
0.0020125001
0.00070187319
-0.00057937881
-0.0018581937
-0.0031383482
-0.0044164901
-0.0056825125
-0.0021036027
0.0017855946
0.0039389445
0.0018663868
0.00058132318
-0.00068139242
-0.0019515751
-0.0032313
-0.0045124295
-0.0057711489
-0.0021302172
0.0016579883
0.0036271997
0.001671299
0.00045534607
-0.0007738323
-0.0020332876
-0.003320512
-0.0046283474
-0.0059240391
-0.0021873418
0.0012810617
0.0029264804
0.0014747449
0.00035957002
-0.00083385358
-0.0020850763
-0.0033867523
-0.004753956
-0.0062468324
-0.0023454127
0.0023810199
0.0053269839
0.0027435402
0.0012793997
-8.3626238e-05
-0.0013864
-0.0026170248
-0.003723648
-0.0045490498
-0.0016206442
0.0020694938
0.0047565101
0.0025962853
0.0012058552
-0.00014267133
-0.0014584676
-0.002741434
-0.004005753
-0.005340703
-0.0020149513
0.0020007041
0.0045799735
0.0024698383
0.0011083237
-0.00023280424
-0.0015616067
-0.0028824037
-0.0042150307
-0.0056077065
-0.00210912
0.0019713239
0.0044828082
0.0023654499
0.0010075252
-0.00033371777
-0.0016712043
-0.0030097665
-0.0043623137
-0.0057497385
-0.002151735
0.0019516744
0.0044088975
0.0022715083
0.00090714992
-0.00043681528
-0.0017781419
-0.0031213127
-0.0044727067
-0.0058394032
-0.0021758067
0.0019319605
0.0043336302
0.0021744034
0.00080351416
-0.00054094428
-0.0018816102
-0.0032227578
-0.0045657401
-0.0059092264
-0.0021935857
0.0019036293
0.0042336907
0.0020587715
0.00069061475
-0.0006472211
-0.0019829336
-0.0033204531
-0.0046561801
-0.0059793706
-0.002212014
0.001849021
0.0040682512
0.0019060709
0.00056460518
-0.00075393559
-0.0020807506
-0.0034179931
-0.0047570399
-0.0060726909
-0.0022400554
0.0017155593
0.0037423081
0.0017022108
0.00043293873
-0.00085064746
-0.002166407
-0.0035117529
-0.0048791548
-0.0062339998
-0.0023003569
0.0013212522
0.0030095945
0.0014970354
0.00033290854
-0.00091342348
-0.0022207179
-0.0035814576
-0.0050116691
-0.0065749219
-0.0024673369
0.0024494791
0.0054702182
0.0027980709
0.0012830311
-0.00012782588
-0.0014767237
-0.0027512535
-0.003897582
-0.0047525739
-0.0016922049
0.0021278703
0.0048814445
0.0026462633
0.0012071307
-0.00018889058
-0.0015513755
-0.0028802235
-0.0041901302
-0.005573714
-0.0021012192
0.0020569633
0.004699481
0.0025158698
0.0011064103
-0.00028212142
-0.001658189
-0.003026302
-0.0044070099
-0.0058502465
-0.0021986984
0.0020266653
0.0045992435
0.0024080892
0.0010022157
-0.00038655427
-0.0017717073
-0.0031582806
-0.0045596364
-0.0059973717
-0.0022428233
0.002006363
0.0045228601
0.0023109549
0.00089835357
-0.00049331537
-0.0018825187
-0.0032739173
-0.0046740923
-0.0060903187
-0.0022677698
0.0019859555
0.0044449479
0.0022104255
0.00079102178
-0.00060121944
-0.0019898084
-0.0033791725
-0.0047706619
-0.0061628086
-0.0022862275
0.0019565951
0.0043413948
0.002090623
0.00067402387
-0.00071141643
-0.0020949592
-0.0034806613
-0.0048647083
-0.0062358084
-0.0023054143
0.0018999755
0.0041698994
0.0019323684
0.00054340651
-0.00082211139
-0.0021965523
-0.0035821329
-0.0049698101
-0.0063331853
-0.0023346943
0.001761563
0.0038319669
0.0017211168
0.00040694153
-0.00092244192
-0.0022855753
-0.0036798095
-0.0050973014
-0.0065018299
-0.0023977678
0.0013525487
0.0030722268
0.0015087107
0.00030333436
-0.00098754828
-0.0023420421
-0.0037525096
-0.0052358316
-0.0068585931
-0.0025725364
0.0025017241
0.0055770895
0.0028337224
0.0012777481
-0.000171591
-0.0015576003
-0.0028674429
-0.0040456715
-0.0049243378
-0.0017524193
0.002172137
0.0049738707
0.0026783605
0.0011999932
-0.00023427025
-0.0016343394
-0.0030001134
-0.0043467097
-0.0057694809
-0.002173409
0.0020995783
0.0047876772
0.0025448814
0.0010967507
-0.00032998011
-0.0017441165
-0.003150327
-0.0045697443
-0.0060536962
-0.0022735478
0.0020685624
0.0046850297
0.0024344218
0.00098985081
-0.00043723864
-0.0018608003
-0.0032860422
-0.0047266965
-0.0062049332
-0.0023188883
0.0020477417
0.0046066798
0.002334739
0.00088319135
-0.00054695386
-0.0019747485
-0.0034049996
-0.0048444529
-0.006300543
-0.0023445432
0.0020267762
0.0045266406
0.0022314533
0.00077287705
-0.00065791555
-0.0020851459
-0.0035133647
-0.004943916
-0.006375217
-0.0023635569
0.0019965823
0.0044201636
0.0021082781
0.0006525594
-0.00077129953
-0.0021934249
-0.003617972
-0.0050409434
-0.0064505871
-0.0023833745
0.0019383292
0.0042437565
0.0019455246
0.00051820448
-0.00088523804
-0.0022981183
-0.0037227006
-0.0051495889
-0.0065513737
-0.0024136985
0.0017958902
0.0038960908
0.0017282913
0.00037785081
-0.00098851898
-0.0023899155
-0.0038236449
-0.00528161
-0.0067262344
-0.0024791253
0.0013749005
0.0031143981
0.0015100723
0.00027135765
-0.0010555218
-0.0024481623
-0.0038988573
-0.0054252362
-0.0070964704
-0.0026605225
0.0025376473
0.0056474902
0.0028506947
0.0012639178
-0.00021441533
-0.001628409
-0.0029648835
-0.0041671476
-0.005063556
-0.001801027
0.0022022172
0.0050337362
0.0026927883
0.0011848159
-0.00027829868
-0.0017067315
-0.0031003818
-0.004474694
-0.0059271363
-0.0022312195
0.002128478
0.0048445235
0.002557094
0.0010797259
-0.00037586053
-0.0018187514
-0.0032537428
-0.0047024159
-0.0062171639
-0.0023333589
0.0020969463
0.0047401355
0.002444677
0.0009708202
-0.00048524173
-0.0019378347
-0.0033923027
-0.0048626619
-0.0063715181
-0.0023796169
0.0020757434
0.0046603316
0.0023430983
0.00086206229
-0.00059719151
-0.0020541717
-0.0035137995
-0.0049829447
-0.0064691622
-0.0024058115
0.0020543574
0.0045786903
0.0022377339
0.00074948921
-0.00071048265
-0.0021669523
-0.0036245627
-0.0050846479
-0.0065455294
-0.0024252561
0.0020235284
0.0044699893
0.0021119951
0.00062664197
-0.00082630912
-0.0022776483
-0.0037316016
-0.005184019
-0.0066227745
-0.0024455743
0.0019640252
0.0042898311
0.0019458131
0.00048943256
-0.00094274265
-0.0023847544
-0.0038388994
-0.0052954945
-0.0067263088
-0.0024767431
0.0018184975
0.0039347209
0.0017240273
0.00034611317
-0.0010482952
-0.0024787227
-0.0039424482
-0.0054311781
-0.0069062367
-0.0025440933
0.001388305
0.0031362231
0.0015014313
0.00023743434
-0.001116754
-0.0025383668
-0.0040196788
-0.0055789567
-0.0072875127
-0.0027309271
0.0025572374
0.0056815153
0.0028492637
0.0012419099
-0.00025585459
-0.0016886485
-0.0030430353
-0.0042614516
-0.0051696771
-0.0018378483
0.0022181174
0.0050611662
0.0026898282
0.0011619712
-0.00032052891
-0.0017680467
-0.0031804817
-0.0045735082
-0.0060460828
-0.0022744479
0.0021436713
0.004870151
0.0025527929
0.0010557121
-0.00041931155
-0.0018815833
-0.0033359949
-0.0048044389
-0.0063400397
-0.0023779248
0.002111827
0.0047646954
0.002439144
0.00094550454
-0.0005301074
-0.0020022943
-0.0034765007
-0.0049669385
-0.0064965091
-0.0024247999
0.0020903788
0.0046839532
0.0023363262
0.00083535194
-0.00064356672
-0.0021202661
-0.0035997488
-0.0050889674
-0.0065955538
-0.0024513643
0.0020687108
0.0046012385
0.0022295655
0.00072124936
-0.00075845311
-0.0022346985
-0.0037121917
-0.0051922507
-0.0066731185
-0.0024711135
0.0020374467
0.0044910184
0.0021020786
0.00059666909
-0.00087597097
-0.0023470936
-0.0038209676
-0.0052933204
-0.006751737
-0.0024918003
0.0019770798
0.0043082789
0.0019335465
0.00045749545
-0.00099414407
-0.0024559173
-0.0039301378
-0.0054069016
-0.0068573459
-0.0025236112
0.001829409
0.0039480311
0.0017086483
0.00031214056
-0.0011012832
-0.0025514466
-0.0040356185
-0.0055453655
-0.0070411706
-0.0025924467
0.0013928094
0.0031379163
0.0014831202
0.00020198137
-0.0011707535
-0.0026121006
-0.0041143651
-0.0056963351
-0.0074310051
-0.0027835009
0.0025605797
0.0056794652
0.002829789
0.001212108
-0.00029551386
-0.0017379239
-0.0031015151
-0.004328224
-0.005242377
-0.0018627818
0.0022199267
0.0050564664
0.0026698386
0.0011318419
-0.00036056585
-0.0018178892
-0.0032400285
-0.0046427891
-0.0061259848
-0.002302987
0.0021452472
0.0048648637
0.0025323351
0.0010250917
-0.00045993783
-0.0019322156
-0.0033966973
-0.0048754482
-0.006421987
-0.0024071385
0.0021132931
0.0047590125
0.0024181793
0.00091428606
-0.00057143977
-0.0020537815
-0.0035382489
-0.00503916
-0.0065795691
-0.0024543305
0.0020917365
0.0046778474
0.0023147793
0.0008034431
-0.0006856826
-0.0021726327
-0.0036624586
-0.0051621529
-0.0066793794
-0.0024810943
0.0020699251
0.0045945885
0.0022073054
0.0006885413
-0.00080142857
-0.0022879838
-0.0037758603
-0.0052663538
-0.0067576442
-0.0025010215
0.0020384263
0.0044835556
0.0020788869
0.000563026
-0.00091988485
-0.0024013574
-0.0038856753
-0.0053684731
-0.0068371309
-0.0025219439
0.0019775829
0.0042994063
0.001909085
0.00042278006
-0.00103904
-0.0025112006
-0.0039960169
-0.0054834299
-0.0069441347
-0.0025541922
0.0018287162
0.0039363314
0.001682516
0.00027632131
-0.0011470786
-0.0026076776
-0.0041027514
-0.0056237826
-0.0071306715
-0.0026240692
0.001388511
0.0031197963
0.0014555007
0.00016538765
-0.0012171151
-0.0026689521
-0.0041825074
-0.0057769705
-0.0075265506
-0.0028181116
0.0025478554
0.005641845
0.002792718
0.0011749162
-0.00033303788
-0.0017759357
-0.0031400864
-0.0043672952
-0.005281551
-0.001875803
0.0022078168
0.0050201227
0.0026332597
0.0010948287
-0.0003980566
-0.0018559621
-0.0032787895
-0.0046823757
-0.006166761
-0.0023168239
0.0021333739
0.0048291386
0.002496154
0.00098826067
-0.0004973901
-0.0019703552
-0.0034356221
-0.0049152901
-0.0064629353
-0.0024209912
0.0021015112
0.0047235587
0.002382211
0.00087755649
-0.00060889336
-0.0020920069
-0.0035773234
-0.0050791776
-0.0066206325
-0.0024682014
0.0020799822
0.0046424831
0.0022788818
0.00076672362
-0.00072319714
-0.0022109852
-0.0037017081
-0.0052023554
-0.0067205764
-0.0024949951
0.0020581654
0.0045592065
0.0021713743
0.00065174944
-0.00083907013
-0.0023265244
-0.00381535
-0.0053068133
-0.0067990448
-0.0025149739
0.0020266312
0.0044480636
0.002042837
0.00052609364
-0.0009577146
-0.0024401578
-0.0039255073
-0.0054093336
-0.0068788945
-0.0025359989
0.0019656967
0.0042636708
0.0018728404
0.00038566346
-0.0010770968
-0.0025503236
-0.0040363192
-0.0055249341
-0.0069866111
-0.0025684788
0.0018165775
0.0039000687
0.0016460351
0.00023902834
-0.0011853503
-0.002647136
-0.0041436282
-0.0056662807
-0.0071746689
-0.0026389508
0.0013755567
0.0030822865
0.0014189689
0.00012802236
-0.001255509
-0.0027086416
-0.0042238855
-0.0058207086
-0.0075740621
-0.0028347409
0.0025193392
0.0055693628
0.0027385883
0.0011307651
-0.00036810335
-0.0018024712
-0.0031586495
-0.0043786766
-0.0052873069
-0.0018769619
0.0021820398
0.0049528002
0.0025806156
0.0010513554
-0.00043268271
-0.0018820583
-0.0032966742
-0.0046923001
-0.0061685761
-0.0023160367
0.0021082975
0.0047636244
0.0024447616
0.00094563419
-0.00053135733
-0.0019958027
-0.0034526895
-0.0049240126
-0.0064630711
-0.0024195689
0.0020767247
0.0046589736
0.0023317421
0.00083572252
-0.00064216516
-0.0021167794
-0.0035936539
-0.0050870505
-0.0066198972
-0.0024665023
0.0020553577
0.0045784935
0.0022291287
0.00072559225
-0.00075581517
-0.0022351403
-0.003717435
-0.005209642
-0.0067193491
-0.0024931583
0.0020336718
0.0044957196
0.0021222596
0.00061126468
-0.0008710901
-0.0023501441
-0.003830605
-0.0053137018
-0.0067975288
-0.0025130633
0.0020022996
0.0043851619
0.0019944076
0.00048625464
-0.00098917981
-0.0024633251
-0.0039404131
-0.0054159787
-0.0068772389
-0.0025340585
0.0019416553
0.0042016796
0.0018252799
0.00034651914
-0.0011080411
-0.0025731222
-0.0040509984
-0.0055314945
-0.0069849884
-0.0025665647
0.0017932173
0.003839826
0.0015996572
0.00020062525
-0.0012158311
-0.0026696618
-0.0041582058
-0.0056729419
-0.0071733768
-0.0026371854
0.0013541425
0.0030259154
0.0013739588
9.024119e-05
-0.0012856726
-0.002731012
-0.004238458
-0.0058276324
-0.007573753
-0.0028334822
0.0024753975
0.0054629254
0.0026680283
0.0010801159
-0.00040041249
-0.0018173962
-0.0031572328
-0.0043625518