/*--------------------------------*- C++ -*----------------------------------*\
| =========                 |                                                 |
| \\      /  F ield         | OpenFOAM: The Open Source CFD Toolbox           |
|  \\    /   O peration     | Version:  v2106                                 |
|   \\  /    A nd           | Website:  www.openfoam.com                      |
|    \\/     M anipulation  |                                                 |
\*---------------------------------------------------------------------------*/
FoamFile
{
    version     2.0;
    format      ascii;
    arch        "LSB;label=32;scalar=64";
    class       volScalarField;
    location    "80";
    object      gradTy;
}
// * * * * * * * * * * * * * * * * * * * * * * * * * * * * * * * * * * * * * //

dimensions      [0 -1 0 1 0 0 0];

internalField   nonuniform List<scalar> 
4000
(
0.00048243872
0.00044130234
0.00043097026
0.00042669432
0.00042401729
0.00042140487
0.00041764884
0.00041044598
0.00039360807
0.00035214999
0.001089422
0.0010122193
0.0009857712
0.00097187273
0.00096184067
0.00095183099
0.00093850598
0.00091637735
0.00087375218
0.00078994008
0.00059408852
0.00057217648
0.00055374198
0.0005392701
0.00052666935
0.00051380773
0.00049841732
0.00047779929
0.0004496814
0.00041881119
0.0003460332
0.00033560374
0.00032210266
0.0003085311
0.00029529392
0.0002817705
0.00026701591
0.00025034201
0.00023252668
0.00021839009
0.00013695865
0.00012902449
0.00011691691
0.00010356211
9.0156308e-05
7.6830952e-05
6.3371226e-05
4.9891332e-05
3.7602109e-05
2.9485751e-05
-4.9688059e-05
-5.924073e-05
-7.3022751e-05
-8.7492754e-05
-0.00010130076
-0.00011427784
-0.00012657387
-0.00013803254
-0.00014769861
-0.00015362089
-0.00021211547
-0.00022855382
-0.0002475691
-0.00026456225
-0.00027899759
-0.00029150187
-0.00030275228
-0.00031300859
-0.00032175554
-0.0003273538
-0.00033417189
-0.00037023305
-0.00039892569
-0.00041896897
-0.00043341493
-0.00044473809
-0.00045453967
-0.00046374135
-0.00047248054
-0.00047921015
-0.00036744045
-0.00045488443
-0.00049387772
-0.00051387253
-0.00052582964
-0.00053427811
-0.00054141799
-0.00054862333
-0.0005568868
-0.00056558881
-0.00011763057
-0.00015908865
-0.0001735053
-0.00017966879
-0.00018292969
-0.00018507969
-0.00018687788
-0.00018881187
-0.00019136429
-0.00019461321
0.004155389
0.0037575052
0.003661305
0.0036204315
0.0035945085
0.0035691582
0.0035326948
0.003462358
0.0032925583
0.0028021709
0.009684082
0.0089429561
0.0086945793
0.0085611734
0.0084640863
0.0083670489
0.0082377925
0.0080224146
0.0075989597
0.0066581044
0.0056429997
0.0054373892
0.005261217
0.0051215716
0.0049996175
0.0048750007
0.004725809
0.0045258436
0.0042529128
0.0039584231
0.0033237151
0.0032235204
0.0030932221
0.0029619208
0.002833713
0.0027026577
0.0025596308
0.0023979845
0.002225311
0.0020886871
0.0013112662
0.0012343563
0.0011171417
0.00098778538
0.00085787861
0.00072870635
0.00059819585
0.00046746385
0.00034826729
0.00026952519
-0.00049710253
-0.00058982309
-0.00072339632
-0.00086363159
-0.00099747845
-0.0011233143
-0.0012426056
-0.0013538542
-0.0014478064
-0.0015054937
-0.0020794129
-0.0022396133
-0.0024240472
-0.0025887704
-0.0027287204
-0.0028500129
-0.0029592602
-0.0030590708
-0.0031445727
-0.0031997854
-0.0032891547
-0.0036493595
-0.0039279875
-0.0041222556
-0.0042623073
-0.0043721842
-0.0044675081
-0.0045574967
-0.0046441403
-0.0047130799
-0.0036915545
-0.0046818352
-0.0050558647
-0.0052492557
-0.0053651622
-0.0054471944
-0.0055168017
-0.005587909
-0.0056723849
-0.0057710496
-0.0012034387
-0.001693826
-0.0018306756
-0.0018901525
-0.0019217582
-0.0019426473
-0.0019602164
-0.0019794557
-0.0020061761
-0.0020452321
0.0069316227
0.0062694675
0.0061050293
0.0060330003
0.0059863303
0.0059402035
0.0058735163
0.005744218
0.0054296398
0.0045110286
0.016397249
0.015157359
0.014728321
0.01449151
0.014316299
0.014139757
0.013903672
0.013508941
0.012728966
0.01098285
0.0098641203
0.0095094195
0.0091982712
0.0089476796
0.008726801
0.0085000027
0.0082278315
0.0078626445
0.0073646743
0.0068350954
0.0058501522
0.0056721037
0.0054381301
0.0052006335
0.0049676905
0.004728936
0.0044679829
0.0041728981
0.0038579653
0.0036101645
0.0022495833
0.0021103881
0.0018978303
0.0016627112
0.0014261328
0.0011905
0.00095208262
0.00071298018
0.00049482308
0.00035071813
-0.0010473263
-0.0012165473
-0.0014599532
-0.0017155168
-0.0019596608
-0.002189567
-0.0024080585
-0.0026125781
-0.0027862703
-0.0028938111
-0.0040023336
-0.004296312
-0.0046331495
-0.0049336702
-0.0051891875
-0.00541119
-0.0056121986
-0.0057977889
-0.0059601259
-0.0060692109
-0.006429465
-0.0070952798
-0.0076041712
-0.007958437
-0.0082141888
-0.0084156966
-0.0085924006
-0.0087636238
-0.0089388557
-0.0090990063
-0.007834656
-0.0096844401
-0.010360747
-0.010711989
-0.010923481
-0.011074251
-0.011204714
-0.011345673
-0.011540096
-0.011879709
-0.0027309746
-0.0036495858
-0.0038950519
-0.0040026384
-0.0040602524
-0.0040987083
-0.0041319463
-0.0041714317
-0.0042387133
-0.0043978401
0.0092866664
0.0083933777
0.0081708207
0.0080717973
0.0080066147
0.0079415357
0.0078469454
0.0076628169
0.0072129313
0.0058933292
0.02205825
0.020384482
0.019800891
0.019473705
0.019228454
0.018979368
0.018644867
0.018083964
0.016972338
0.01447554
0.013388472
0.012906101
0.012477695
0.012128661
0.01181844
0.011498275
0.011113015
0.010595455
0.009889953
0.0091452131
0.0079296228
0.0076833137
0.007357186
0.0070240584
0.0066958265
0.0063583758
0.0059888763
0.0055707325
0.0051247044
0.0047750063
0.0029222485
0.0027268562
0.0024279118
0.0020964698
0.0017622291
0.0014286355
0.0010904817
0.000750864
0.00044073717
0.0002359155
-0.0017394198
-0.0019789237
-0.0023230067
-0.0026843484
-0.003029957
-0.0033560958
-0.0036669923
-0.003959226
-0.0042087813
-0.0043643358
-0.006002752
-0.0064208301
-0.0068981561
-0.0073236498
-0.0076857994
-0.0080014213
-0.0082889296
-0.0085572314
-0.0087960875
-0.0089608527
-0.0096543859
-0.010605407
-0.011326915
-0.011828469
-0.012191087
-0.012478214
-0.012732876
-0.012985372
-0.013254463
-0.013515613
-0.012110554
-0.014764785
-0.015718978
-0.016215027
-0.016514704
-0.016729976
-0.016919814
-0.017133597
-0.017450055
-0.018054367
-0.0043111018
-0.0056307039
-0.0059756335
-0.0061271972
-0.0062087656
-0.0062637449
-0.0063124686
-0.0063735884
-0.0064865685
-0.0067764632
0.011372595
0.010264405
0.0099896883
0.0098666362
0.0097848006
0.0097024457
0.0095822089
0.0093474767
0.0087724696
0.0070818452
0.027000068
0.024925708
0.024204051
0.023796288
0.023487898
0.023172672
0.022747817
0.02203383
0.020616177
0.017426343
0.016364019
0.015767366
0.015234599
0.014797346
0.014406255
0.014000862
0.01351185
0.01285421
0.011957959
0.011016358
0.0096208669
0.0093135353
0.0089047133
0.0084851921
0.0080702569
0.0076424635
0.0071732179
0.006641812
0.0060751944
0.0056320727
0.0033511148
0.0031048291
0.0027274992
0.0023083449
0.0018847706
0.0014611394
0.0010309213
0.00059823348
0.00020282791
-5.8253353e-05
-0.0025574762
-0.0028613638
-0.0032975571
-0.0037557687
-0.0041945961
-0.004609618
-0.0050064559
-0.005380908
-0.0057021274
-0.005903315
-0.0080396504
-0.0085721039
-0.0091784926
-0.0097187558
-0.010179144
-0.010581662
-0.010950434
-0.011297703
-0.011610897
-0.011830468
-0.012848376
-0.014062985
-0.014980016
-0.015616876
-0.016078039
-0.016444969
-0.016773711
-0.017105432
-0.017468011
-0.017830143
-0.016281056
-0.019679503
-0.020888543
-0.021517355
-0.021898283
-0.022173842
-0.02242069
-0.022706608
-0.023145401
-0.024009706
-0.0058411757
-0.0075318001
-0.0079677317
-0.0081595339
-0.0082631462
-0.008333588
-0.0083972712
-0.0084799691
-0.0086386925
-0.0090561728
0.013236009
0.011927378
0.01160511
0.01146039
0.01136351
0.011265449
0.01112179
0.010840751
0.010151157
0.0081206265
0.031354515
0.028908166
0.028061259
0.027580894
0.027215423
0.026840056
0.026332719
0.025478772
0.023781221
0.01995758
0.018891751
0.018191269
0.017564478
0.017047688
0.016583348
0.016100375
0.015516636
0.014731003
0.013660634
0.012540167
0.010986578
0.010624178
0.010140742
0.0096430485
0.0091493257
0.0086390996
0.0080785978
0.0074434933
0.006766584
0.006238283
0.0035771259
0.0032847133
0.0028362881
0.0023374002
0.0018323392
0.001326257
0.00081144255
0.00029304798
-0.00018093571
-0.00049379735
-0.0034643518
-0.0038269319
-0.0043470555
-0.0048936439
-0.0054177834
-0.0059145406
-0.0063908633
-0.006841794
-0.0072299999
-0.0074739746
-0.010061732
-0.010698779
-0.011423016
-0.012068151
-0.012618622
-0.01310136
-0.013545875
-0.013967556
-0.014351498
-0.014623552
-0.015930009
-0.017385959
-0.018481507
-0.019241961
-0.019793521
-0.02023434
-0.020632658
-0.021039962
-0.021492678
-0.021952309
-0.020240413
-0.024320599
-0.025761605
-0.026511435
-0.026966816
-0.027298281
-0.027598996
-0.027954277
-0.028511343
-0.029625604
-0.0072839913
-0.0093145213
-0.0098330856
-0.010061499
-0.010185286
-0.010270073
-0.010347936
-0.010451443
-0.010654357
-0.011194283
0.0148951
0.013401015
0.013035453
0.01287118
0.01276073
0.012648468
0.012483592
0.012160575
0.011367064
0.0090281449
0.03518457
0.0323951
0.031434589
0.030888766
0.030471804
0.030042042
0.029459989
0.028479221
0.026528104
0.022130377
0.021036885
0.020242132
0.019530551
0.018942081
0.018411596
0.017858385
0.017188773
0.016287148
0.015059243
0.013777732
0.01207911
0.011667025
0.011116324
0.01054807
0.0099830505
0.0093980351
0.0087546156
0.0080252989
0.0072483456
0.0066430339
0.003642592
0.0033085249
0.0027958683
0.0022248287
0.0016458337
0.0010647147
0.00047271737
-0.00012397569
-0.00066973993
-0.0010298354
-0.0044201978
-0.0048359059
-0.0054320128
-0.0060587283
-0.0066604477
-0.0072318446
-0.0077810897
-0.0083024827
-0.008752609
-0.0090362131
-0.012023799
-0.01275564
-0.01358662
-0.014326877
-0.014959357
-0.015515567
-0.016029995
-0.016520913
-0.016971138
-0.017292584
-0.01884496
-0.020519752
-0.021776844
-0.022649283
-0.023283114
-0.02379174
-0.024254634
-0.024732884
-0.025270844
-0.02582293
-0.023933337
-0.028631981
-0.03028218
-0.031141397
-0.031664445
-0.032047257
-0.032398176
-0.032818928
-0.033488222
-0.034839578
-0.0086223535
-0.010961272
-0.011554171
-0.011815613
-0.011957712
-0.012055676
-0.012146782
-0.012269974
-0.012514839
-0.013170877
0.016359018
0.014695251
0.014290607
0.014108802
0.013986197
0.013861203
0.013677296
0.013316629
0.0124299
0.0098142018
0.038526189
0.035423573
0.034360809
0.033756334
0.033293232
0.032814682
0.032165597
0.031071115
0.028892761
0.023980654
0.022843296
0.021963622
0.021176058
0.020523377
0.01993357
0.019317289
0.018570555
0.017564872
0.016195933
0.014770988
0.012939361
0.012482746
0.011871783
0.011240258
0.010611195
0.0099588863
0.0092408139
0.0084267412
0.0075599657
0.0068857531
0.0035843577
0.0032129597
0.002642705
0.0020068714
0.0013613335
0.00071251431
5.07524e-05
-0.00061676241
-0.0012274198
-0.0016301498
-0.0053899938
-0.005853345
-0.0065176286
-0.0072163601
-0.0078880097
-0.0085269412
-0.0091424259
-0.0097280404
-0.010234747
-0.010554623
-0.013890157
-0.014707017
-0.015633723
-0.016459434
-0.017165868
-0.017788711
-0.018366967
-0.018921524
-0.019433023
-0.019800324
-0.021556899
-0.023427993
-0.024829735
-0.025802614
-0.026510583
-0.027080787
-0.027602904
-0.028146842
-0.028764272
-0.029402858
-0.027328158
-0.032581799
-0.03441862
-0.035375684
-0.035959608
-0.036389071
-0.03678619
-0.037267871
-0.038042207
-0.039615809
-0.0098471947
-0.012462893
-0.013121933
-0.013412856
-0.013571408
-0.013681343
-0.013784658
-0.01392621
-0.014210382
-0.014975278
0.017633916
0.015816911
0.015377424
0.015180076
0.015046699
0.014910419
0.01470965
0.014315638
0.013346338
0.010485342
0.041404052
0.038019314
0.036865614
0.036209156
0.035705145
0.035183323
0.03447482
0.033279643
0.030900209
0.025533027
0.024342633
0.02338738
0.022532475
0.021822871
0.021180419
0.020508127
0.019692939
0.018595047
0.017101431
0.015550384
0.013598976
0.013102889
0.012438508
0.011750832
0.011064847
0.010352655
0.0095681455
0.0086787367
0.0077323082
0.0069972235
0.0034323382
0.0030278532
0.0024065052
0.0017131083
0.0010083285
0.00029910822
-0.00042498573
-0.0011557973
-0.0018244081
-0.0022651501
-0.0063455195
-0.0068510918
-0.007575845
-0.0083385713
-0.0090725463
-0.0097718855
-0.010446831
-0.011090268
-0.011648035
-0.012000698
-0.015634054
-0.016526226
-0.017537734
-0.018439306
-0.019211653
-0.019894211
-0.020530035
-0.021142345
-0.021709757
-0.02211909
-0.024041521
-0.026086489
-0.027616132
-0.028677997
-0.029451969
-0.030077419
-0.030653173
-0.031257142
-0.031947699
-0.032666213
-0.030406035
-0.036151479
-0.03815265
-0.039196142
-0.039834164
-0.040305495
-0.040744594
-0.04128224
-0.042153666
-0.043933155
-0.010953488
-0.013814485
-0.014531609
-0.014848516
-0.015021665
-0.015142344
-0.015256774
-0.015415232
-0.015735784
-0.016601559
0.018725073
0.016771773
0.016301704
0.016090788
0.015948002
0.015801865
0.015586377
0.015163276
0.01412194
0.011046805
0.043838017
0.040202963
0.038969645
0.038267801
0.037728041
0.037168391
0.036407994
0.035124991
0.032570322
0.026806636
0.025559425
0.024537948
0.023624263
0.022864923
0.022176407
0.02145508
0.020580017
0.019401632
0.017799479
0.016139321
0.014082759
0.013552206
0.012841154
0.01210435
0.011368476
0.010603746
0.0097609574
0.0088055665
0.0077895587
0.0070015178
0.0032101332
0.002776748
0.002110723
0.0013669048
0.00061011903
-0.00015223533
-0.00093123238
-0.0017178042
-0.0024374211
-0.0029115591
-0.0072650429
-0.0078074812
-0.0085850897
-0.0094038703
-0.010192608
-0.010945222
-0.011672793
-0.012367556
-0.012970753
-0.013352643
-0.017236174
-0.018194057
-0.019279574
-0.020247504
-0.021077754
-0.021813073
-0.022500088
-0.02316408
-0.023781816
-0.024229161
-0.026282947
-0.028479602
-0.030120619
-0.03126014
-0.032092017
-0.032766328
-0.033389978
-0.034048056
-0.034805007
-0.035596431
-0.033156171
-0.039330878
-0.041474525
-0.042593189
-0.043278574
-0.043786944
-0.044263661
-0.044852025
-0.045812036
-0.047779888
-0.011938642
-0.015013778
-0.015781099
-0.01612055
-0.01630646
-0.016436642
-0.016561053
-0.016734872
-0.017088669
-0.018046774
0.019637695
0.01756536
0.017068976
0.016846448
0.0166956
0.016541011
0.016312914
0.015864912
0.014761905
0.011503298
0.045845921
0.041992843
0.040691192
0.03995049
0.039380071
0.038787963
0.037983084
0.036624915
0.033920412
0.027817759
0.026513906
0.025435538
0.024471553
0.023669578
0.022941497
0.022178023
0.021251551
0.020004213
0.018309372
0.016556687
0.014410608
0.013850544
0.013099487
0.012320487
0.011541679
0.010731679
0.0098386896
0.0088265649
0.0077509096
0.0069176823
0.0029362041
0.0024780482
0.0017736767
0.00098649347
0.00018486842
-0.00062340208
-0.0014499076
-0.0022847339
-0.0030484449
-0.0035513979
-0.008132289
-0.0087063191
-0.0095292762
-0.010396265
-0.011232265
-0.012031041
-0.012804388
-0.013543941
-0.014186887
-0.014594402
-0.018683117
-0.019697264
-0.020846165
-0.021871074
-0.022751279
-0.023532406
-0.024264179
-0.024973671
-0.025635992
-0.026117199
-0.028271467
-0.03059798
-0.032334139
-0.03354016
-0.034421919
-0.035138697
-0.035804418
-0.03651051
-0.037326853
-0.038183841
-0.035573401
-0.042115823
-0.044380557
-0.045563349
-0.046289439
-0.046830013
-0.0473399
-0.047973541
-0.049013231
-0.051151039
-0.012801759
-0.016060365
-0.016870194
-0.017228822
-0.017425679
-0.017564124
-0.017697355
-0.017884929
-0.018268681
-0.019310134
0.020377213
0.018203259
0.017684804
0.017452595
0.017295011
0.01713335
0.016894713
0.016425911
0.015271374
0.011859325
0.047444863
0.043406249
0.042047455
0.041274338
0.040678275
0.040058985
0.039216896
0.037795957
0.034966459
0.028581081
0.02722362
0.026097624
0.02509171
0.024254099
0.023492857
0.022694018
0.021724456
0.020419478
0.018647441
0.01681835
0.014598917
0.014014228
0.013229738
0.012415376
0.011600491
0.010752394
0.0098171689
0.0087574108
0.0076318525
0.0067610316
0.0026250294
0.0021461631
0.0014096758
0.00058608174
-0.00025330606
-0.0011003515
-0.0019670413
-0.0028426891
-0.0036436587
-0.0041709055
-0.0089353316
-0.0095357793
-0.01039671
-0.011304181
-0.012180033
-0.013017916
-0.013830218
-0.014608034
-0.01528504
-0.015714571
-0.019966111
-0.02102727
-0.022229139
-0.02330181
-0.024224122
-0.025044148
-0.02581424
-0.026563001
-0.027264086
-0.027774921
-0.030002042
-0.032437049
-0.034252479
-0.035514064
-0.036437795
-0.037190681
-0.037892617
-0.038640528
-0.039509083
-0.04042406
-0.037656783
-0.044506663
-0.046871659
-0.04810779
-0.048868038
-0.049436006
-0.049974575
-0.050647927
-0.051758107
-0.054046828
-0.013543221
-0.016955271
-0.01780014
-0.018174664
-0.018380687
-0.018526162
-0.018667041
-0.018866719
-0.019277026
-0.020392533
0.020949389
0.018691241
0.018154907
0.017914915
0.017751896
0.017584515
0.017337355
0.016851749
0.015655564
0.012119327
0.048651797
0.044460073
0.043055169
0.042255966
0.041639176
0.040997871
0.040125675
0.038654048
0.035723733
0.029110346
0.027704368
0.026539879
0.025500261
0.024633891
0.023845774
0.023018218
0.022013706
0.020662129
0.018827971
0.016938085
0.014661573
0.014057056
0.01324558
0.012402569
0.011558346
0.010679198
0.0097095539
0.0086110746
0.0074451288
0.0065441013
0.0022880619
0.0017924618
0.0010299672
0.00017678896
-0.00069340323
-0.0015721916
-0.002471849
-0.0033809982
-0.004212504
-0.0047596066
-0.0096656286
-0.01028744
-0.01117913
-0.012119508
-0.013027922
-0.013897953
-0.014742461
-0.015552063
-0.016257479
-0.016705433
-0.021079985
-0.022179134
-0.023423809
-0.024535224
-0.025491932
-0.02634403
-0.027146042
-0.027927844
-0.028661845
-0.029198033
-0.03147324
-0.033995927
-0.035875182
-0.037181662
-0.038139607
-0.038922317
-0.039654625
-0.04043812
-0.041351605
-0.042316855
-0.039408661
-0.046507294
-0.048952363
-0.050231338
-0.051019336
-0.051609946
-0.052172706
-0.052880135
-0.054051441
-0.056471611
-0.014164422
-0.017700659
-0.018573347
-0.018960583
-0.019174032
-0.019325318
-0.019472668
-0.019682776
-0.020116167
-0.021296223
0.021360334
0.019035296
0.018485202
0.018239283
0.018072096
0.017900311
0.017646589
0.017148055
0.015919801
0.012287754
0.049483802
0.045171104
0.043730905
0.042911801
0.042279089
0.041620804
0.040725406
0.039214813
0.036207112
0.029418716
0.027970782
0.026776762
0.025711479
0.02482307
0.024014221
0.02316444
0.022132907
0.020745456
0.018863784
0.016928156
0.014610639
0.013990981
0.013158824
0.012293723
0.011426753
0.010523446
0.0095270168
0.0083985023
0.007201418
0.0062773403
0.0019344686
0.0014260119
0.00064347201
-0.00023261884
-0.0011268054
-0.0020304466
-0.0029559984
-0.0038914786
-0.0047469444
-0.0053095685
-0.01031725
-0.01095551
-0.011870932
-0.012836823
-0.013770669
-0.014666016
-0.015536089
-0.016371094
-0.017099342
-0.017562169
-0.022022367
-0.023150751
-0.024428358
-0.025569734
-0.026553302
-0.027430766
-0.02825838
-0.029067042
-0.029828128
-0.030385388
-0.032686449
-0.035276632
-0.037204743
-0.038545755
-0.039530342
-0.040336701
-0.041093595
-0.041906449
-0.04285755
-0.043865283
-0.040833996
-0.048124448
-0.050630093
-0.051941748
-0.052751255
-0.053359838
-0.053942329
-0.054678184
-0.055901163
-0.058433093
-0.01466757
-0.018299617
-0.019193167
-0.019590036
-0.019809219
-0.019965118
-0.02011777
-0.020336625
-0.020789592
-0.022024578
0.021616485
0.019241629
0.018681797
0.018431756
0.018261635
0.018086722
0.017828335
0.017320616
0.016069542
0.012369086
0.0499582
0.045556168
0.04409122
0.043258232
0.042614265
0.041943888
0.041031973
0.039493737
0.036431259
0.029518972
0.028036684
0.026821875
0.025738748
0.024834838
0.024011231
0.023145531
0.022094667
0.020681716
0.01876662
0.016799712
0.014456847
0.013826603
0.012979892
0.012099086
0.011215785
0.010295024
0.0092792314
0.0081291075
0.0069098345
0.0059696105
0.0015716843
0.0010541334
0.00025734066
-0.00063517369
-0.001546722
-0.0024684992
-0.0034130484
-0.0043678723
-0.0052408976
-0.0058148308
-0.01088628
-0.01153623
-0.012468572
-0.013452795
-0.014405126
-0.015319121
-0.016208261
-0.017062415
-0.017808021
-0.018282232
-0.022793068
-0.023942228
-0.025243219
-0.026406043
-0.027409136
-0.028305416
-0.029152429
-0.029981861
-0.03076426
-0.03133834
-0.033645281
-0.03628347
-0.038245995
-0.039611517
-0.040615392
-0.041439366
-0.042215152
-0.043051197
-0.044032623
-0.045075047
-0.041939844
-0.049367139
-0.051914609
-0.053249143
-0.054074106
-0.054696101
-0.055293924
-0.05605258
-0.057317773
-0.059941717
-0.015055535
-0.018755991
-0.019663726
-0.020067263
-0.020290542
-0.020449885
-0.020606682
-0.020832604
-0.021301631
-0.0225819
0.021724577
0.01931664
0.018750981
0.018498564
0.018326701
0.018149891
0.017888665
0.017375361
0.016110359
0.012367844
0.050092581
0.045632187
0.04415272
0.04331167
0.042660964
0.041983215
0.041061225
0.039506239
0.036410707
0.029423631
0.027915318
0.026688203
0.0255948
0.024681717
0.023849137
0.022973616
0.021910842
0.020482381
0.018547401
0.016563052
0.014209922
0.013573501
0.012718166
0.011827837
0.010934419
0.010002699
0.0089747227
0.0078111255
0.006578286
0.0056285482
0.0012058179
0.000682808
-0.00012263675
-0.0010252929
-0.001947775
-0.0028811726
-0.0038380279
-0.0048054206
-0.0056898064
-0.0062709744
-0.011370369
-0.012027423
-0.012970109
-0.013965718
-0.014929805
-0.015855971
-0.016757857
-0.017625063
-0.018382687
-0.018864874
-0.023393618
-0.024555413
-0.025870594
-0.027046648
-0.028062167
-0.028970896
-0.029831259
-0.030675491
-0.031473528
-0.032060229
-0.034355117
-0.037022575
-0.039005634
-0.040386016
-0.041402071
-0.042237794
-0.043026901
-0.043880063
-0.044884601
-0.045953976
-0.042734958
-0.050246233
-0.052817567
-0.054165562
-0.055000144
-0.055631116
-0.056239956
-0.057015854
-0.058313868
-0.061010176
-0.015331728
-0.019074243
-0.019989779
-0.020397142
-0.020622937
-0.020784587
-0.020944396
-0.021175721
-0.021657312
-0.02297326
0.021691603
0.019266902
0.018699195
0.018446083
0.018273625
0.018096101
0.017833789
0.017318348
0.016047932
0.01228859
0.049904801
0.045416188
0.043932074
0.043088569
0.042435472
0.04175489
0.040829007
0.039267707
0.036159909
0.029145013
0.02761949
0.026388262
0.025291871
0.024375711
0.023539728
0.022660259
0.021592705
0.020158314
0.018216402
0.016227807
0.013878825
0.01324047
0.012382224
0.011488328
0.010590784
0.0096543658
0.0086211181
0.0074518681
0.0062137325
0.0052608266
0.00084195052
0.0003169773
-0.00049172877
-0.001398475
-0.0023256911
-0.0032644204
-0.0042271221
-0.0052005467
-0.0060903177
-0.0066747981
-0.011768394
-0.012428149
-0.01337486
-0.014375173
-0.015344525
-0.016276604
-0.017185115
-0.018059463
-0.018823922
-0.019310775
-0.023826904
-0.024993533
-0.026314086
-0.027495478
-0.028516584
-0.029431604
-0.030299443
-0.031152662
-0.031960789
-0.032555996
-0.034822751
-0.037501536
-0.039491849
-0.040877839
-0.041899234
-0.042741034
-0.043538042
-0.04440238
-0.045422936
-0.04651163
-0.043229465
-0.050774103
-0.053352159
-0.05470461
-0.055543201
-0.056178861
-0.056794513
-0.057582196
-0.058903763
-0.061653015
-0.015500003
-0.019259345
-0.0201766
-0.020585075
-0.020811871
-0.020974729
-0.02113644
-0.021371533
-0.021862236
-0.023204368
0.021524773
0.019099127
0.018533007
0.018280814
0.018108859
0.017931754
0.017670027
0.017155739
0.015888024
0.012135916
0.049412941
0.044925292
0.043446012
0.042605427
0.041954105
0.041275033
0.040351165
0.038793504
0.035693251
0.028695281
0.027161664
0.025934194
0.024841799
0.023928407
0.023094364
0.022216569
0.021151057
0.019719881
0.017783379
0.015803065
0.013471914
0.012835692
0.011980008
0.011088257
0.010192334
0.009257223
0.0082253289
0.0070579092
0.005822376
0.0048723473
0.00048435305
-3.9237088e-05
-0.00084604063
-0.0017510743
-0.0026770743
-0.0036150948
-0.0045774377
-0.0055506172
-0.0064400409
-0.0070240752
-0.012080202
-0.01273845
-0.013683142
-0.014681758
-0.015650148
-0.016582121
-0.017491363
-0.018367155
-0.019133445
-0.019621764
-0.024096893
-0.025260915
-0.026578423
-0.027757604
-0.028777736
-0.029693126
-0.03056277
-0.031419343
-0.032232168
-0.032831868
-0.035056116
-0.037729121
-0.039714031
-0.041096799
-0.042116984
-0.042959402
-0.043759066
-0.044628799
-0.045658442
-0.046758973
-0.043434612
-0.050964345
-0.053532834
-0.054881161
-0.055718396
-0.05635462
-0.056973005
-0.057767145
-0.059103179
-0.061886305
-0.015564576
-0.019316684
-0.020229889
-0.020636893
-0.020863241
-0.021026249
-0.021188788
-0.02142605
-0.021922475
-0.023281467
0.021231478
0.018820144
0.018259091
0.018009353
0.01783895
0.01766334
0.01740379
0.016893776
0.015636468
0.011914441
0.04863527
0.044176689
0.042711302
0.041878763
0.041233189
0.040559767
0.039643531
0.03809896
0.035025049
0.028086453
0.026554021
0.025337833
0.024256095
0.023351044
0.022524038
0.021653282
0.020596306
0.019177037
0.017257653
0.015297465
0.012997058
0.012366847
0.011518945
0.01063479
0.0097459768
0.0088179044
0.0077936828
0.0066352208
0.0054097991
0.004468382
0.00013664714
-0.00038237134
-0.0011823493
-0.0020801338
-0.0029992348
-0.0039307734
-0.0048868253
-0.0058537615
-0.0067373647
-0.0073173681
-0.012306418
-0.012959157
-0.013896076
-0.01488689
-0.01584837
-0.016774481
-0.017678804
-0.018550572
-0.019313887
-0.019800597
-0.024208424
-0.02536277
-0.026669231
-0.027839015
-0.028851914
-0.029762003
-0.030628006
-0.031482505
-0.032294814
-0.032895118
-0.035064063
-0.037715046
-0.039682545
-0.041053698
-0.042066428
-0.042904238
-0.043701511
-0.044571046
-0.045603042
-0.046708118
-0.043362552
-0.050831555
-0.053375059
-0.054711127
-0.055541898
-0.056174733
-0.056791922
-0.057587347
-0.058928995
-0.061727377
-0.015529959
-0.019251986
-0.02015569
-0.020558778
-0.020783302
-0.020945447
-0.021107775
-0.021345649
-0.021844492
-0.023211237
0.020819255
0.018436869
0.017884194
0.017638371
0.017470514
0.017297422
0.017041553
0.016538766
0.015299146
0.011628796
0.047590194
0.043187602
0.041744724
0.040925094
0.040289038
0.039625189
0.038721905
0.03719936
0.034169549
0.027330413
0.02580849
0.024610743
0.023545981
0.022654563
0.021839433
0.020980802
0.019938518
0.01853938
0.016648171
0.014719261
0.012461724
0.011841203
0.011006038
0.010134654
0.0092581626
0.0083425742
0.0073320228
0.006189275
0.0049810712
0.0040536805
-0.00019807316
-0.00070949648
-0.0014979785
-0.0023832571
-0.0032900586
-0.0042096252
-0.0051537435
-0.0061087328
-0.0069813147
-0.0075538845
-0.012448294
-0.013091735
-0.014015427
-0.01499265
-0.015941567
-0.016856335
-0.017750355
-0.018612879
-0.019368625
-0.019850783
-0.024167036
-0.02530502
-0.026592865
-0.027746442
-0.028746164
-0.02964555
-0.030502708
-0.031349929
-0.032156711
-0.032753868
-0.034856183
-0.037469794
-0.039408539
-0.04076014
-0.04175949
-0.042587711
-0.04337776
-0.044241714
-0.045269557
-0.046372114
-0.043026181
-0.050391136
-0.052895128
-0.054211254
-0.055030723
-0.055656406
-0.056268627
-0.057060345
-0.058399027
-0.061194592
-0.015400905
-0.019071255
-0.01996033
-0.020357195
-0.02057859
-0.020738908
-0.020900029
-0.021137013
-0.021635067
-0.023000723
0.020295755
0.017956279
0.017415122
0.017174591
0.017010217
0.016840607
0.016589837
0.016097054
0.014881971
0.011283617
0.046296209
0.041975259
0.040563035
0.039760906
0.039137926
0.038487353
0.03760203
0.036109919
0.033140904
0.026438908
0.024936777
0.023764246
0.022722424
0.021849634
0.021050948
0.020209249
0.019187459
0.017816194
0.015963553
0.014076371
0.011873038
0.011265681
0.01044793
0.0095942051
0.0087349602
0.0078370012
0.0068457844
0.0057251236
0.00454083
0.0036325544
-0.00051714627
-0.001018122
-0.0017907
-0.0026585075
-0.0035479039
-0.0044503046
-0.0053771497
-0.0063147957
-0.0071714393
-0.007733362
-0.01250759
-0.013138162
-0.014043487
-0.015001651
-0.015932662
-0.016830897
-0.017709506
-0.018557828
-0.019301639
-0.019776445
-0.023978829
-0.025094159
-0.026356262
-0.027487214
-0.02846814
-0.029351705
-0.03019507
-0.031030052
-0.031826513
-0.032416926
-0.034442663
-0.037004461
-0.038903789
-0.040228366
-0.041208743
-0.042022656
-0.042800876
-0.043654098
-0.044671533
-0.045764764
-0.042438984
-0.04965914
-0.052109995
-0.053398962
-0.054202565
-0.054817529
-0.055421182
-0.056204402
-0.057531848
-0.060307151
-0.015182362
-0.018780716
-0.019650359
-0.020038838
-0.020255876
-0.020413453
-0.020572414
-0.020807062
-0.021301235
-0.022657263
0.01966871
0.017385391
0.016858708
0.016624762
0.016464753
0.016299528
0.016055184
0.015575005
0.01439087
0.01088353
0.044771852
0.04055685
0.039182942
0.038402624
0.037796061
0.037162237
0.036299571
0.034845764
0.031953162
0.025423546
0.023950379
0.022809437
0.021796154
0.020946682
0.020168733
0.019348474
0.018352622
0.017016481
0.015212128
0.013376415
0.011237836
0.010646903
0.0098509556
0.0090194825
0.0081821132
0.0073066196
0.0063400581
0.0052474642
0.0040933508
0.0032089478
-0.0008182644
-0.001306116
-0.002058652
-0.0029043241
-0.0037715149
-0.0046518625
-0.0055564085
-0.006471633
-0.0073077138
-0.0078559699
-0.012486472
-0.013100826
-0.013982962
-0.014916937
-0.015825017
-0.016701831
-0.01756021
-0.018389646
-0.019117393
-0.019582198
-0.023650348
-0.024737133
-0.02596682
-0.027069125
-0.028025975
-0.028888896
-0.029713791
-0.030531827
-0.031313407
-0.031893646
-0.033834156
-0.036330626
-0.038180566
-0.039471121
-0.040427273
-0.041222426
-0.041984456
-0.042822042
-0.043823091
-0.044900473
-0.041614914
-0.048652126
-0.051037133
-0.052292192
-0.053075649
-0.053676529
-0.054268201
-0.055038348
-0.056346632
-0.059084921
-0.014879428
-0.018386768
-0.019232506
-0.019610576
-0.019822108
-0.019976081
-0.020131978
-0.020362907
-0.020850232
-0.022188433
0.018945901
0.016731237
0.016221797
0.015995643
0.01584082
0.015680823
0.015444141
0.014978987
0.013831766
0.010433147
0.043035651
0.038949494
0.037621066
0.036866581
0.036279554
0.035665718
0.034830086
0.033421909
0.030620247
0.024295786
0.022860594
0.021757203
0.020777681
0.019955905
0.0192027
0.018408092
0.017443255
0.016148993
0.014401963
0.01262675
0.010562706
0.0099912413
0.0092211946
0.0084162605
0.0076050916
0.0067565824
0.0058196459
0.0047606982
0.0036426065
0.0027864993
-0.0010994031
-0.0015716336
-0.002300266
-0.0031194463
-0.0039599441
-0.0048136665
-0.0056912096
-0.0065792606
-0.0073904535
-0.0079222219
-0.012387419
-0.012982437
-0.013836887
-0.014741881
-0.015622333
-0.016473147
-0.017306776
-0.018112928
-0.018820727
-0.019273037
-0.023188478
-0.024241232
-0.025432287
-0.026500331
-0.027428171
-0.028265925
-0.029067953
-0.029864605