/*--------------------------------*- C++ -*----------------------------------*\
| =========                 |                                                 |
| \\      /  F ield         | OpenFOAM: The Open Source CFD Toolbox           |
|  \\    /   O peration     | Version:  v2106                                 |
|   \\  /    A nd           | Website:  www.openfoam.com                      |
|    \\/     M anipulation  |                                                 |
\*---------------------------------------------------------------------------*/
FoamFile
{
    version     2.0;
    format      ascii;
    arch        "LSB;label=32;scalar=64";
    class       volScalarField;
    location    "80";
    object      gradTz;
}
// * * * * * * * * * * * * * * * * * * * * * * * * * * * * * * * * * * * * * //

dimensions      [0 -1 0 1 0 0 0];

internalField   nonuniform List<scalar> 
4000
(
569.59384
569.59454
569.59487
569.59507
569.59516
569.59516
569.59508
569.59493
569.59473
569.59455
569.59454
569.59514
569.59546
569.59565
569.59574
569.59573
569.59565
569.59549
569.59527
569.59502
569.59487
569.59546
569.59576
569.59594
569.59603
569.59602
569.59592
569.59575
569.59551
569.59524
569.59507
569.59565
569.59594
569.59612
569.5962
569.59618
569.59607
569.59589
569.59565
569.59537
569.59516
569.59574
569.59603
569.5962
569.59626
569.59624
569.59613
569.59594
569.59569
569.5954
569.59516
569.59573
569.59602
569.59618
569.59624
569.59621
569.59609
569.5959
569.59564
569.59535
569.59508
569.59565
569.59592
569.59607
569.59613
569.59609
569.59597
569.59577
569.5955
569.59521
569.59493
569.59549
569.59575
569.59589
569.59594
569.5959
569.59577
569.59556
569.59529
569.595
569.59473
569.59527
569.59551
569.59565
569.59569
569.59564
569.5955
569.59529
569.59502
569.59472
569.59455
569.59502
569.59524
569.59537
569.5954
569.59535
569.59521
569.595
569.59472
569.59441
841.70019
841.70104
841.70149
841.70176
841.70189
841.70188
841.70175
841.70151
841.7012
841.70084
841.70104
841.70178
841.70221
841.70247
841.70259
841.70257
841.70244
841.70219
841.70183
841.70137
841.70149
841.70221
841.70261
841.70286
841.70297
841.70295
841.7028
841.70253
841.70215
841.70166
841.70176
841.70247
841.70286
841.7031
841.7032
841.70317
841.70301
841.70273
841.70233
841.70183
841.70189
841.70259
841.70297
841.7032
841.70329
841.70325
841.70308
841.70279
841.70238
841.70187
841.70188
841.70257
841.70295
841.70317
841.70325
841.7032
841.70301
841.70271
841.7023
841.70179
841.70175
841.70244
841.7028
841.70301
841.70308
841.70301
841.70283
841.70252
841.7021
841.70158
841.70151
841.70219
841.70253
841.70273
841.70279
841.70271
841.70252
841.7022
841.70177
841.70124
841.7012
841.70183
841.70215
841.70233
841.70238
841.7023
841.7021
841.70177
841.70133
841.70079
841.70084
841.70137
841.70166
841.70183
841.70187
841.70179
841.70158
841.70124
841.70079
841.70022
836.22093
836.22164
836.22203
836.22227
836.22238
836.22236
836.22222
836.22196
836.22161
836.22118
836.22164
836.22227
836.22264
836.22287
836.22297
836.22294
836.22279
836.22252
836.22213
836.22159
836.22203
836.22264
836.22299
836.22321
836.2233
836.22327
836.2231
836.22282
836.22241
836.22184
836.22227
836.22287
836.22321
836.22342
836.2235
836.22346
836.22329
836.22299
836.22256
836.22198
836.22238
836.22297
836.2233
836.2235
836.22358
836.22352
836.22334
836.22303
836.22259
836.22201
836.22236
836.22294
836.22327
836.22346
836.22352
836.22345
836.22326
836.22294
836.2225
836.22191
836.22222
836.22279
836.2231
836.22329
836.22334
836.22326
836.22306
836.22273
836.22228
836.22169
836.22196
836.22252
836.22282
836.22299
836.22303
836.22294
836.22273
836.2224
836.22194
836.22134
836.22161
836.22213
836.22241
836.22256
836.22259
836.2225
836.22228
836.22194
836.22146
836.22084
836.22118
836.22159
836.22184
836.22198
836.22201
836.22191
836.22169
836.22134
836.22084
836.22018
830.83923
830.83988
830.84022
830.84043
830.84052
830.84048
830.84033
830.84006
830.83969
830.83925
830.83988
830.84045
830.84077
830.84098
830.84106
830.84101
830.84085
830.84057
830.84016
830.83961
830.84022
830.84077
830.84109
830.84128
830.84135
830.8413
830.84112
830.84083
830.8404
830.83982
830.84043
830.84098
830.84128
830.84146
830.84152
830.84146
830.84128
830.84097
830.84053
830.83993
830.84052
830.84106
830.84135
830.84152
830.84158
830.84151
830.84131
830.84099
830.84054
830.83994
830.84048
830.84101
830.8413
830.84146
830.84151
830.84143
830.84122
830.84089
830.84043
830.83983
830.84033
830.84085
830.84112
830.84128
830.84131
830.84122
830.84101
830.84067
830.8402
830.8396
830.84006
830.84057
830.84083
830.84097
830.84099
830.84089
830.84067
830.84033
830.83985
830.83923
830.83969
830.84016
830.8404
830.84053
830.84054
830.84043
830.8402
830.83985
830.83936
830.83872
830.83925
830.83961
830.83982
830.83993
830.83994
830.83983
830.8396
830.83923
830.83872
830.83804
825.55227
825.55288
825.55319
825.55337
825.55344
825.55339
825.55322
825.55295
825.55257
825.55213
825.55288
825.55341
825.5537
825.55388
825.55394
825.55388
825.55371
825.55342
825.55301
825.55246
825.55319
825.5537
825.55398
825.55415
825.5542
825.55414
825.55395
825.55365
825.55322
825.55265
825.55337
825.55388
825.55415
825.55431
825.55435
825.55428
825.55409
825.55377
825.55332
825.55274
825.55344
825.55394
825.5542
825.55435
825.55439
825.5543
825.5541
825.55378
825.55332
825.55273
825.55339
825.55388
825.55414
825.55428
825.5543
825.55421
825.554
825.55367
825.5532
825.55261
825.55322
825.55371
825.55395
825.55409
825.5541
825.554
825.55378
825.55344
825.55297
825.55237
825.55295
825.55342
825.55365
825.55377
825.55378
825.55367
825.55344
825.55308
825.55261
825.552
825.55257
825.55301
825.55322
825.55332
825.55332
825.5532
825.55297
825.55261
825.55211
825.55149
825.55213
825.55246
825.55265
825.55274
825.55273
825.55261
825.55237
825.552
825.55149
825.55081
820.35731
820.35788
820.35817
820.35833
820.35838
820.35832
820.35815
820.35787
820.3575
820.35707
820.35788
820.35838
820.35865
820.3588
820.35885
820.35878
820.3586
820.35831
820.35791
820.35737
820.35817
820.35865
820.3589
820.35905
820.35909
820.35901
820.35882
820.35852
820.3581
820.35754
820.35833
820.3588
820.35905
820.35919
820.35922
820.35913
820.35894
820.35862
820.35818
820.35761
820.35838
820.35885
820.35909
820.35922
820.35924
820.35915
820.35894
820.35861
820.35817
820.35759
820.35832
820.35878
820.35901
820.35913
820.35915
820.35904
820.35883
820.35849
820.35804
820.35746
820.35815
820.3586
820.35882
820.35894
820.35894
820.35883
820.3586
820.35826
820.3578
820.35722
820.35787
820.35831
820.35852
820.35862
820.35861
820.35849
820.35826
820.35791
820.35744
820.35685
820.3575
820.35791
820.3581
820.35818
820.35817
820.35804
820.3578
820.35744
820.35696
820.35635
820.35707
820.35737
820.35754
820.35761
820.35759
820.35746
820.35722
820.35685
820.35635
820.35569
815.25178
815.25231
815.25257
815.25271
815.25275
815.25268
815.2525
815.25223
815.25187
815.25145
815.25231
815.25277
815.25302
815.25315
815.25318
815.25311
815.25293
815.25264
815.25225
815.25174
815.25257
815.25302
815.25325
815.25338
815.2534
815.25332
815.25313
815.25283
815.25242
815.25188
815.25271
815.25315
815.25338
815.2535
815.25351
815.25342
815.25322
815.25291
815.25249
815.25194
815.25275
815.25318
815.2534
815.25351
815.25352
815.25342
815.25321
815.2529
815.25246
815.25191
815.25268
815.25311
815.25332
815.25342
815.25342
815.25332
815.2531
815.25277
815.25233
815.25177
815.2525
815.25293
815.25313
815.25322
815.25321
815.2531
815.25288
815.25254
815.25209
815.25153
815.25223
815.25264
815.25283
815.25291
815.2529
815.25277
815.25254
815.2522
815.25174
815.25117
815.25187
815.25225
815.25242
815.25249
815.25246
815.25233
815.25209
815.25174
815.25127
815.25069
815.25145
815.25174
815.25188
815.25194
815.25191
815.25177
815.25153
815.25117
815.25069
815.25006
810.23321
810.23371
810.23394
810.23407
810.23409
810.23402
810.23384
810.23358
810.23323
810.23283
810.23371
810.23414
810.23436
810.23448
810.2345
810.23442
810.23424
810.23396
810.23358
810.23309
810.23394
810.23436
810.23457
810.23468
810.23469
810.2346
810.23442
810.23413
810.23373
810.23322
810.23407
810.23448
810.23468
810.23478
810.23479
810.23469
810.2345
810.2342
810.23379
810.23327
810.23409
810.2345
810.23469
810.23479
810.23479
810.23468
810.23448
810.23417
810.23376
810.23323
810.23402
810.23442
810.2346
810.23469
810.23468
810.23457
810.23436
810.23405
810.23362
810.23309
810.23384
810.23424
810.23442
810.2345
810.23448
810.23436
810.23414
810.23382
810.23339
810.23286
810.23358
810.23396
810.23413
810.2342
810.23417
810.23405
810.23382
810.23349
810.23305
810.23251
810.23323
810.23358
810.23373
810.23379
810.23376
810.23362
810.23339
810.23305
810.2326
810.23204
810.23283
810.23309
810.23322
810.23327
810.23323
810.23309
810.23286
810.23251
810.23204
810.23145
805.29932
805.29977
805.29998
805.30009
805.30011
805.30003
805.29986
805.29961
805.29928
805.2989
805.29977
805.30017
805.30036
805.30047
805.30048
805.30039
805.30022
805.29996
805.2996
805.29914
805.29998
805.30036
805.30055
805.30065
805.30065
805.30056
805.30038
805.3001
805.29973
805.29925
805.30009
805.30047
805.30065
805.30074
805.30074
805.30064
805.30045
805.30016
805.29978
805.29929
805.30011
805.30048
805.30065
805.30074
805.30073
805.30062
805.30042
805.30013
805.29974
805.29924
805.30003
805.30039
805.30056
805.30064
805.30062
805.30051
805.30031
805.3
805.2996
805.29911
805.29986
805.30022
805.30038
805.30045
805.30042
805.30031
805.30009
805.29978
805.29938
805.29888
805.29961
805.29996
805.3001
805.30016
805.30013
805.3
805.29978
805.29947
805.29905
805.29855
805.29928
805.2996
805.29973
805.29978
805.29974
805.2996
805.29938
805.29905
805.29863
805.29811
805.2989
805.29914
805.29925
805.29929
805.29924
805.29911
805.29888
805.29855
805.29811
805.29754
800.44792
800.44834
800.44852
800.44862
800.44862
800.44854
800.44838
800.44814
800.44783
800.44748
800.44834
800.44869
800.44887
800.44896
800.44896
800.44887
800.44871
800.44846
800.44812
800.44769
800.44852
800.44887
800.44904
800.44912
800.44911
800.44902
800.44885
800.44859
800.44824
800.44779
800.44862
800.44896
800.44912
800.44919
800.44918
800.44909
800.4489
800.44863
800.44827
800.44782
800.44862
800.44896
800.44911
800.44918
800.44917
800.44906
800.44887
800.4486
800.44823
800.44777
800.44854
800.44887
800.44902
800.44909
800.44906
800.44895
800.44876
800.44847
800.4481
800.44764
800.44838
800.44871
800.44885
800.4489
800.44887
800.44876
800.44856
800.44826
800.44789
800.44742
800.44814
800.44846
800.44859
800.44863
800.4486
800.44847
800.44826
800.44797
800.44758
800.44711
800.44783
800.44812
800.44824
800.44827
800.44823
800.4481
800.44789
800.44758
800.44718
800.4467
800.44748
800.44769
800.44779
800.44782
800.44777
800.44764
800.44742
800.44711
800.4467
800.44617
795.67698
795.67735
795.67752
795.67759
795.67759
795.67751
795.67736
795.67714
795.67685
795.67653
795.67735
795.67767
795.67782
795.6779
795.67789
795.67781
795.67765
795.67742
795.67711
795.67671
795.67752
795.67782
795.67797
795.67804
795.67803
795.67794
795.67777
795.67753
795.67721
795.6768
795.67759
795.6779
795.67804
795.6781
795.67808
795.67799
795.67782
795.67757
795.67723
795.67681
795.67759
795.67789
795.67803
795.67808
795.67806
795.67796
795.67778
795.67752
795.67719
795.67676
795.67751
795.67781
795.67794
795.67799
795.67796
795.67786
795.67767
795.67741
795.67706
795.67664
795.67736
795.67765
795.67777
795.67782
795.67778
795.67767
795.67748
795.67721
795.67686
795.67643
795.67714
795.67742
795.67753
795.67757
795.67752
795.67741
795.67721
795.67693
795.67658
795.67614
795.67685
795.67711
795.67721
795.67723
795.67719
795.67706
795.67686
795.67658
795.67621
795.67576
795.67653
795.67671
795.6768
795.67681
795.67676
795.67664
795.67643
795.67614
795.67576
795.67528
790.98457
790.98489
790.98503
790.98509
790.98509
790.98501
790.98487
790.98466
790.9844
790.9841
790.98489
790.98517
790.9853
790.98536
790.98535
790.98527
790.98512
790.98491
790.98462
790.98426
790.98503
790.9853
790.98542
790.98548
790.98546
790.98538
790.98522
790.985
790.98471
790.98433
790.98509
790.98536
790.98548
790.98553
790.98551
790.98542
790.98526
790.98503
790.98472
790.98434
790.98509
790.98535
790.98546
790.98551
790.98548
790.98539
790.98522
790.98498
790.98467
790.98429
790.98501
790.98527
790.98538
790.98542
790.98539
790.98528
790.98511
790.98487
790.98456
790.98417
790.98487
790.98512
790.98522
790.98526
790.98522
790.98511
790.98494
790.98469
790.98437
790.98398
790.98466
790.98491
790.985
790.98503
790.98498
790.98487
790.98469
790.98444
790.98411
790.98372
790.9844
790.98462
790.98471
790.98472
790.98467
790.98456
790.98437
790.98411
790.98378
790.98337
790.9841
790.98426
790.98433
790.98434
790.98429
790.98417
790.98398
790.98372
790.98337
790.98293
786.36885
786.36913
786.36925
786.36929
786.36928
786.36921
786.36908
786.36889
786.36865
786.36839
786.36913
786.36937
786.36948
786.36952
786.3695
786.36943
786.36929
786.3691
786.36884
786.36852
786.36925
786.36948
786.36958
786.36962
786.3696
786.36952
786.36938
786.36917
786.36891
786.36858
786.36929
786.36952
786.36962
786.36966
786.36963
786.36955
786.3694
786.36919
786.36892
786.36858
786.36928
786.3695
786.3696
786.36963
786.3696
786.36951
786.36936
786.36915
786.36887
786.36853
786.36921
786.36943
786.36952
786.36955
786.36951
786.36942
786.36926
786.36904
786.36876
786.36842
786.36908
786.36929
786.36938
786.3694
786.36936
786.36926
786.3691
786.36888
786.36859
786.36824
786.36889
786.3691
786.36917
786.36919
786.36915
786.36904
786.36888
786.36865
786.36836
786.368
786.36865
786.36884
786.36891
786.36892
786.36887
786.36876
786.36859
786.36836
786.36806
786.3677
786.36839
786.36852
786.36858
786.36858
786.36853
786.36842
786.36824
786.368
786.3677
786.36731
781.82811
781.82834
781.82844
781.82847
781.82845
781.82838
781.82826
781.8281
781.82789
781.82766
781.82834
781.82854
781.82863
781.82866
781.82864
781.82857
781.82844
781.82827
781.82805
781.82777
781.82844
781.82863
781.82871
781.82874
781.82871
781.82864
781.82851
781.82833
781.8281
781.82781
781.82847
781.82866
781.82874
781.82876
781.82873
781.82865
781.82852
781.82834
781.8281
781.8278
781.82845
781.82864
781.82871
781.82873
781.8287
781.82862
781.82848
781.82829
781.82805
781.82775
781.82838
781.82857
781.82864
781.82865
781.82862
781.82853
781.82839
781.8282
781.82795
781.82765
781.82826
781.82844
781.82851
781.82852
781.82848
781.82839
781.82824
781.82805
781.8278
781.82749
781.8281
781.82827
781.82833
781.82834
781.82829
781.8282
781.82805
781.82784
781.82759
781.82728
781.82789
781.82805
781.8281
781.8281
781.82805
781.82795
781.8278
781.82759
781.82733
781.82701
781.82766
781.82777
781.82781
781.8278
781.82775
781.82765
781.82749
781.82728
781.82701
781.82667
777.36072
777.3609
777.36097
777.36099
777.36097
777.36091
777.3608
777.36066
777.36048
777.36028
777.3609
777.36106
777.36112
777.36114
777.36112
777.36105
777.36094
777.36079
777.3606
777.36036
777.36097
777.36112
777.36118
777.3612
777.36117
777.3611
777.36099
777.36083
777.36063
777.36039
777.36099
777.36114
777.3612
777.36121
777.36118
777.36111
777.36099
777.36083
777.36063
777.36037
777.36097
777.36112
777.36117
777.36118
777.36115
777.36107
777.36095
777.36079
777.36058
777.36032
777.36091
777.36105
777.3611
777.36111
777.36107
777.36099
777.36087
777.3607
777.36049
777.36023
777.3608
777.36094
777.36099
777.36099
777.36095
777.36087
777.36074
777.36057
777.36035
777.3601
777.36066
777.36079
777.36083
777.36083
777.36079
777.3607
777.36057
777.36039
777.36018
777.35992
777.36048
777.3606
777.36063
777.36063
777.36058
777.36049
777.36035
777.36018
777.35995
777.35968
777.36028
777.36036
777.36039
777.36037
777.36032
777.36023
777.3601
777.35992
777.35968
777.35939
772.96513
772.96526
772.96531
772.96531
772.96529
772.96523
772.96514
772.96501
772.96487
772.9647
772.96526
772.96537
772.96541
772.96542
772.96539
772.96533
772.96524
772.96511
772.96495
772.96476
772.96531
772.96541
772.96545
772.96546
772.96542
772.96536
772.96526
772.96513
772.96497
772.96477
772.96531
772.96542
772.96546
772.96546
772.96542
772.96536
772.96526
772.96512
772.96495
772.96475
772.96529
772.96539
772.96542
772.96542
772.96539
772.96532
772.96522
772.96508
772.96491
772.9647
772.96523
772.96533
772.96536
772.96536
772.96532
772.96525
772.96514
772.965
772.96483
772.96462
772.96514
772.96524
772.96526
772.96526
772.96522
772.96514
772.96503
772.96489
772.96471
772.9645
772.96501
772.96511
772.96513
772.96512
772.96508
772.965
772.96489
772.96475
772.96457
772.96435
772.96487
772.96495
772.96497
772.96495
772.96491
772.96483
772.96471
772.96457
772.96438
772.96416
772.9647
772.96476
772.96477
772.96475
772.9647
772.96462
772.9645
772.96435
772.96416
772.96392
768.63986
768.63994
768.63996
768.63996
768.63993
768.63988
768.6398
768.6397
768.63958
768.63945
768.63994
768.64001
768.64003
768.64002
768.63999
768.63994
768.63986
768.63976
768.63963
768.63948
768.63996
768.64003
768.64005
768.64004
768.64001
768.63995
768.63987
768.63976
768.63963
768.63948
768.63996
768.64002
768.64004
768.64003
768.63999
768.63994
768.63985
768.63975
768.63961
768.63945
768.63993
768.63999
768.64001
768.63999
768.63996
768.6399
768.63981
768.6397
768.63957
768.63941
768.63988
768.63994
768.63995
768.63994
768.6399
768.63984
768.63975
768.63964
768.6395
768.63934
768.6398
768.63986
768.63987
768.63985
768.63981
768.63975
768.63966
768.63955
768.63941
768.63924
768.6397
768.63976
768.63976
768.63975
768.6397
768.63964
768.63955
768.63943
768.63929
768.63912
768.63958
768.63963
768.63963
768.63961
768.63957
768.6395
768.63941
768.63929
768.63914
768.63897
768.63945
768.63948
768.63948
768.63945
768.63941
768.63934
768.63924
768.63912
768.63897
768.63879
764.38352
764.38355
764.38355
764.38353
764.3835
764.38345
764.38339
764.38331
764.38322
764.38313
764.38355
764.38358
764.38357
764.38355
764.38352
764.38347
764.38341
764.38333
764.38324
764.38313
764.38355
764.38357
764.38357
764.38355
764.38351
764.38346
764.3834
764.38332
764.38323
764.38312
764.38353
764.38355
764.38355
764.38353
764.38349
764.38344
764.38338
764.38329
764.3832
764.38309
764.3835
764.38352
764.38351
764.38349
764.38345
764.3834
764.38334
764.38325
764.38316
764.38304
764.38345
764.38347
764.38346
764.38344
764.3834
764.38335
764.38328
764.3832
764.3831
764.38299
764.38339
764.38341
764.3834
764.38338
764.38334
764.38328
764.38321
764.38313
764.38303
764.38291
764.38331
764.38333
764.38332
764.38329
764.38325
764.3832
764.38313
764.38304
764.38294
764.38282
764.38322
764.38324
764.38323
764.3832
764.38316
764.3831
764.38303
764.38294
764.38284
764.38272
764.38313
764.38313
764.38312
764.38309
764.38304
764.38299
764.38291
764.38282
764.38272
764.38258
760.19475
760.19474
760.19472
760.19468
760.19465
760.19461
760.19456
760.19451
760.19446
760.1944
760.19474
760.19473
760.1947
760.19467
760.19463
760.19459
760.19454
760.19449
760.19444
760.19437
760.19472
760.1947
760.19467
760.19464
760.19461
760.19457
760.19452
760.19447
760.19441
760.19434
760.19468
760.19467
760.19464
760.19461
760.19458
760.19453
760.19449
760.19443
760.19437
760.19431
760.19465
760.19463
760.19461
760.19458
760.19454
760.1945
760.19445
760.19439
760.19433
760.19427
760.19461
760.19459
760.19457
760.19453
760.1945
760.19445
760.1944
760.19435
760.19429
760.19422
760.19456
760.19454
760.19452
760.19449
760.19445
760.1944
760.19435
760.1943
760.19424
760.19417
760.19451
760.19449
760.19447
760.19443
760.19439
760.19435
760.1943
760.19424
760.19418
760.19411
760.19446
760.19444
760.19441
760.19437
760.19433
760.19429
760.19424
760.19418
760.19412
760.19405
760.1944
760.19437
760.19434
760.19431
760.19427
760.19422
760.19417
760.19411
760.19405
760.19397
756.0723
756.07224
756.07219
756.07214
756.07211
756.07207
756.07204
756.07202
756.07199
756.07197
756.07224
756.07218
756.07213
756.07209
756.07205
756.07202
756.07199
756.07196
756.07194
756.07192
756.07219
756.07213
756.07209
756.07204
756.07201
756.07197
756.07194
756.07192
756.07189
756.07188
756.07214
756.07209
756.07204
756.072
756.07197
756.07193
756.0719
756.07188
756.07186
756.07184
756.07211
756.07205
756.07201
756.07197
756.07193
756.0719
756.07187
756.07184
756.07182
756.0718
756.07207
756.07202
756.07197
756.07193
756.0719
756.07186
756.07183
756.07181
756.07179
756.07177
756.07204
756.07199
756.07194
756.0719
756.07187
756.07183
756.0718
756.07178
756.07176
756.07174
756.07202
756.07196
756.07192
756.07188
756.07184
756.07181
756.07178
756.07175
756.07173
756.07171
756.07199
756.07194
756.07189
756.07186
756.07182
756.07179
756.07176
756.07173
756.07171
756.07169
756.07197
756.07192
756.07188
756.07184
756.0718
756.07177
756.07174
756.07171
756.07169
756.07167
752.01491
752.0148
752.01473
752.01468
752.01464
752.01461
752.0146
752.0146
752.0146
752.01462
752.0148
752.01471
752.01464
752.01459
752.01455
752.01452
752.01451
752.01451
752.01452
752.01454
752.01473
752.01464
752.01457
752.01452
752.01448
752.01446
752.01445
752.01445
752.01446
752.01449
752.01468
752.01459
752.01452
752.01447
752.01443
752.01441
752.0144
752.0144
752.01441
752.01444
752.01464
752.01455
752.01448
752.01443
752.0144
752.01437
752.01436
752.01437
752.01438
752.01441
752.01461
752.01452
752.01446
752.01441
752.01437
752.01435
752.01434
752.01435
752.01436
752.01439
752.0146
752.01451
752.01445
752.0144
752.01436
752.01434
752.01433
752.01434
752.01435
752.01438
752.0146
752.01451
752.01445
752.0144
752.01437
752.01435
752.01434
752.01434
752.01436
752.01439
752.0146
752.01452
752.01446
752.01441
752.01438
752.01436
752.01435
752.01436
752.01438
752.01441
752.01462
752.01454
752.01449
752.01444
752.01441
752.01439
752.01438
752.01439
752.01441
752.01444
748.02142
748.02126
748.02117
748.02111
748.02106
748.02104
748.02105
748.02107
748.02111
748.02115
748.02126
748.02113
748.02104
748.02098
748.02093
748.02092
748.02092
748.02094
748.02099
748.02105
748.02117
748.02104
748.02095
748.02089
748.02085
748.02084
748.02084
748.02087
748.02092
748.02099
748.02111
748.02098
748.02089
748.02083
748.0208
748.02078
748.02079
748.02082
748.02087
748.02094
748.02106
748.02093
748.02085
748.0208
748.02076
748.02075
748.02075
748.02079
748.02084
748.02091
748.02104
748.02092
748.02084
748.02078
748.02075
748.02073
748.02074
748.02078
748.02083
748.02091
748.02105
748.02092
748.02084
748.02079
748.02075
748.02074
748.02076
748.02079
748.02084
748.02092
748.02107
748.02094
748.02087
748.02082
748.02079
748.02078
748.02079
748.02082
748.02088
748.02096
748.02111
748.02099
748.02092
748.02087
748.02084
748.02083
748.02084
748.02088
748.02094
748.02102
748.02115
748.02105
748.02099
748.02094
748.02091
748.02091
748.02092
748.02096
748.02102
748.0211
744.09067
744.09047
744.09036
744.09028
744.09024
744.09022
744.09024
744.09029
744.09035
744.09044
744.09047
744.09029
744.09019
744.09011
744.09007
744.09006
744.09008
744.09013
744.0902
744.09031
744.09036
744.09019
744.09008
744.09001
744.08997
744.08996
744.08999
744.09004
744.09012
744.09024
744.09028
744.09011
744.09001
744.08994
744.08991
744.0899
744.08993
744.08998
744.09007
744.09019
744.09024
744.09007
744.08997
744.08991
744.08987
744.08987
744.0899
744.08995
744.09004
744.09016
744.09022
744.09006
744.08996
744.0899
744.08987
744.08987
744.0899
744.08996
744.09005
744.09017
744.09024
744.09008
744.08999
744.08993
744.0899
744.0899
744.08993
744.08999
744.09008
744.0902
744.09029
744.09013
744.09004
744.08998
744.08995
744.08996
744.08999
744.09005
744.09015
744.09027
744.09035
744.0902
744.09012
744.09007
744.09004
744.09005
744.09008
744.09015
744.09024
744.09037
744.09044
744.09031
744.09024
744.09019
744.09016
744.09017
744.0902
744.09027
744.09037
744.09051
740.22155
740.22131
740.22118
740.22109
740.22105
740.22104
740.22107
740.22114
740.22124
740.22136
740.22131
740.2211
740.22097
740.22089
740.22085
740.22084
740.22088
740.22095
740.22106
740.22121
740.22118
740.22097
740.22085
740.22077
740.22073
740.22073
740.22077
740.22085
740.22097
740.22112
740.22109
740.22089
740.22077
740.2207
740.22066
740.22066
740.22071
740.22079
740.22091
740.22107
740.22105
740.22085
740.22073
740.22066
740.22063
740.22063
740.22068
740.22076
740.22089
740.22105
740.22104
740.22084
740.22073
740.22066
740.22063
740.22064
740.22069
740.22078
740.2209
740.22107
740.22107
740.22088
740.22077
740.22071
740.22068
740.22069
740.22074
740.22083
740.22096
740.22113
740.22114
740.22095
740.22085
740.22079
740.22076
740.22078
740.22083
740.22092
740.22106
740.22122
740.22124
740.22106
740.22097
740.22091
740.22089
740.2209
740.22096
740.22106
740.22119
740.22136
740.22136
740.22121
740.22112
740.22107
740.22105
740.22107
740.22113
740.22122
740.22136
740.22155
736.41299
736.41271
736.41256
736.41246
736.41242
736.41242
736.41247
736.41256
736.41269
736.41284
736.41271
736.41246
736.41232
736.41223
736.41218
736.41219
736.41224
736.41234
736.41248
736.41267
736.41256
736.41232
736.41218
736.4121
736.41206
736.41207
736.41212
736.41222
736.41237
736.41257
736.41246
736.41223
736.4121
736.41201
736.41198
736.41199
736.41205
736.41216
736.41231
736.41251
736.41242
736.41218
736.41206
736.41198
736.41195
736.41196
736.41202
736.41214
736.41229
736.4125
736.41242
736.41219
736.41207
736.41199
736.41196
736.41198
736.41205
736.41216
736.41232
736.41253
736.41247
736.41224
736.41212
736.41205
736.41202
736.41205
736.41212
736.41224
736.4124
736.41261
736.41256
736.41234
736.41222
736.41216
736.41214
736.41216
736.41224
736.41236
736.41252
736.41274
736.41269
736.41248
736.41237
736.41231
736.41229
736.41232
736.4124
736.41252
736.4127
736.41291
736.41284
736.41267
736.41257
736.41251
736.4125
736.41253
736.41261
736.41274
736.41291
736.41315
732.66393
732.66361
732.66344
732.66334
732.6633
732.66331
732.66337
732.66348
732.66364
732.66382
732.66361
732.66333
732.66317
732.66308
732.66303
732.66305
732.66311
732.66323
732.6634
732.66363
732.66344
732.66317
732.66302
732.66293
732.66289
732.66291
732.66298
732.66311
732.66329
732.66353
732.66334
732.66308
732.66293
732.66284
732.66281
732.66283
732.66291
732.66304
732.66322
732.66347
732.6633
732.66303
732.66289
732.66281
732.66278
732.6628
732.66288
732.66302
732.66321
732.66346
732.66331
732.66305
732.66291
732.66283
732.6628
732.66283
732.66292
732.66306
732.66325
732.6635
732.66337
732.66311
732.66298
732.66291
732.66288
732.66292
732.66301
732.66315
732.66335
732.6636
732.66348
732.66323
732.66311
732.66304
732.66302
732.66306
732.66315
732.6633
732.6635
732.66376
732.66364
732.6634
732.66329
732.66322
732.66321
732.66325
732.66335
732.6635
732.66371
732.66397
732.66382
732.66363
732.66353
732.66347
732.66346
732.6635
732.6636
732.66376
732.66397
732.66425
728.97335
728.97299
728.97281
728.9727
728.97266
728.97268
728.97276
728.97289
728.97307
728.97328
728.97299
728.97268
728.97251
728.97241
728.97237
728.97239
728.97247
728.97261
728.97281
728.97308
728.97281
728.97251
728.97235
728.97225
728.97221
728.97224
728.97233
728.97247
728.97269
728.97296
728.9727
728.97241
728.97225
728.97215
728.97212
728.97215
728.97225
728.9724
728.97262
728.9729
728.97266
728.97237
728.97221
728.97212
728.97209
728.97213
728.97223
728.97239
728.97261
728.9729
728.97268
728.97239
728.97224
728.97215
728.97213
728.97217
728.97227
728.97244
728.97267
728.97296
728.97276
728.97247
728.97233
728.97225
728.97223
728.97227
728.97238
728.97255
728.97278
728.97307
728.97289
728.97261
728.97247
728.9724
728.97239
728.97244
728.97255
728.97272
728.97296
728.97326
728.97307
728.97281
728.97269
728.97262
728.97261
728.97267
728.97278
728.97296
728.9732
728.9735
728.97328
728.97308
728.97296
728.9729
728.9729
728.97296
728.97307
728.97326
728.9735
728.97383
725.34023
725.33984
725.33965
725.33953
725.33949
725.33952
725.33961
725.33976
725.33997
725.34021
725.33984
725.33951
725.33932
725.33921
725.33917
725.3392
725.3393
725.33946
725.33969
725.33999
725.33965
725.33932
725.33914
725.33904
725.33901
725.33904
725.33914
725.33931
725.33955
725.33987
725.33953
725.33921
725.33904
725.33894
725.33891
725.33895
725.33906
725.33924
725.33949
725.33981
725.33949
725.33917
725.33901
725.33891
725.33889
725.33893
725.33905
725.33923
725.33948
725.33981
725.33952
725.3392
725.33904
725.33895
725.33893
725.33898
725.3391
725.33929
725.33955
725.33988
725.33961
725.3393
725.33914
725.33906
725.33905
725.3391
725.33923
725.33942
725.33968
725.34001
725.33976
725.33946
725.33931
725.33924
725.33923
725.33929
725.33942
725.33962
725.33989
725.34022
725.33997
725.33969
725.33955
725.33949
725.33948
725.33955
725.33968
725.33989
725.34016
725.34051
725.34021
725.33999
725.33987
725.33981
725.33981
725.33988
725.34001
725.34022
725.34051
725.34087
721.76359
721.76317
721.76296
721.76284
721.7628
721.76283
721.76294
721.76311
721.76334
721.76361
721.76317
721.7628
721.76261
721.76249
721.76245
721.76249
721.7626
721.76279
721.76304
721.76337
721.76296
721.76261
721.76242
721.76231
721.76228
721.76232
721.76244
721.76263
721.7629
721.76325
721.76284
721.76249
721.76231
721.76221
721.76218
721.76223
721.76235
721.76255
721.76283
721.76319
721.7628
721.76245
721.76228
721.76218
721.76216
721.76222
721.76235
721.76255
721.76283
721.76319
721.76283
721.76249
721.76232
721.76223
721.76222
721.76228
721.76241
721.76263
721.76291
721.76327
721.76294
721.7626
721.76244
721.76235
721.76235
721.76241
721.76256
721.76277
721.76306
721.76343
721.76311
721.76279
721.76263
721.76255
721.76255
721.76263
721.76277
721.763
721.76329
721.76366
721.76334
721.76304
721.7629
721.76283
721.76283
721.76291
721.76306
721.76329
721.7636
721.76398
721.76361
721.76337
721.76325
721.76319
721.76319
721.76327
721.76343
721.76366
721.76398
721.76438
718.24242
718.24198
718.24176
718.24164
718.2416
718.24164
718.24176
718.24195
718.24221
718.2425
718.24198
718.24159
718.24139
718.24127
718.24123
718.24128
718.24141
718.24161
718.24189
718.24225
718.24176
718.24139
718.24119
718.24108
718.24105
718.2411
718.24123
718.24145
718.24174
718.24212
718.24164
718.24127
718.24108
718.24097
718.24095
718.24101
718.24115
718.24137
718.24167
718.24206