/*--------------------------------*- C++ -*----------------------------------*\
| =========                 |                                                 |
| \\      /  F ield         | OpenFOAM: The Open Source CFD Toolbox           |
|  \\    /   O peration     | Version:  v2106                                 |
|   \\  /    A nd           | Website:  www.openfoam.com                      |
|    \\/     M anipulation  |                                                 |
\*---------------------------------------------------------------------------*/
FoamFile
{
    version     2.0;
    format      ascii;
    arch        "LSB;label=32;scalar=64";
    class       volScalarField;
    location    "80";
    object      laplacianT;
}
// * * * * * * * * * * * * * * * * * * * * * * * * * * * * * * * * * * * * * //

dimensions      [0 -2 0 1 0 0 0];

internalField   nonuniform List<scalar> 
4000
(
41230.664
41230.656
41230.687
41230.701
41230.708
41230.708
41230.702
41230.692
41230.678
41230.666
41230.656
41230.654
41230.682
41230.696
41230.702
41230.702
41230.696
41230.685
41230.669
41230.657
41230.687
41230.682
41230.709
41230.723
41230.729
41230.728
41230.721
41230.709
41230.693
41230.679
41230.701
41230.696
41230.723
41230.735
41230.741
41230.74
41230.732
41230.72
41230.702
41230.688
41230.708
41230.702
41230.729
41230.741
41230.746
41230.744
41230.736
41230.723
41230.705
41230.691
41230.708
41230.702
41230.728
41230.74
41230.744
41230.742
41230.734
41230.72
41230.702
41230.687
41230.702
41230.696
41230.721
41230.732
41230.736
41230.734
41230.725
41230.711
41230.692
41230.677
41230.692
41230.685
41230.709
41230.72
41230.723
41230.72
41230.711
41230.696
41230.677
41230.662
41230.678
41230.669
41230.693
41230.702
41230.705
41230.702
41230.692
41230.677
41230.658
41230.643
41230.666
41230.657
41230.679
41230.688
41230.691
41230.687
41230.677
41230.662
41230.643
41230.626
-552.6287
-552.84882
-552.82071
-552.82056
-552.82083
-552.82084
-552.8206
-552.82014
-552.81951
-552.81059
-552.84882
-553.01107
-552.98788
-552.98799
-552.98826
-552.98825
-552.98796
-552.98743
-552.98669
-552.93312
-552.82071
-552.98788
-552.96516
-552.96526
-552.96551
-552.96548
-552.96518
-552.96462
-552.96383
-552.91331
-552.82056
-552.98799
-552.96526
-552.96534
-552.96557
-552.96552
-552.96519
-552.9646
-552.96377
-552.91313
-552.82083
-552.98826
-552.96551
-552.96557
-552.96578
-552.9657
-552.96535
-552.96473
-552.96389
-552.91322
-552.82084
-552.98825
-552.96548
-552.96552
-552.9657
-552.9656
-552.96523
-552.96459
-552.96373
-552.91305
-552.8206
-552.98796
-552.96518
-552.96519
-552.96535
-552.96523
-552.96483
-552.96418
-552.9633
-552.91261
-552.82014
-552.98743
-552.96462
-552.9646
-552.96473
-552.96459
-552.96418
-552.96351
-552.96261
-552.91192
-552.81951
-552.98669
-552.96383
-552.96377
-552.96389
-552.96373
-552.9633
-552.96261
-552.9617
-552.91099
-552.81059
-552.93312
-552.91331
-552.91313
-552.91322
-552.91305
-552.91261
-552.91192
-552.91099
-552.85842
-542.58018
-542.9082
-542.862
-542.86146
-542.86177
-542.86176
-542.86142
-542.86079
-542.85992
-542.80377
-542.9082
-543.14664
-543.10881
-543.10872
-543.10903
-543.10898
-543.10858
-543.10785
-543.10682
-542.96759
-542.862
-543.10881
-543.07184
-543.07175
-543.07204
-543.07197
-543.07154
-543.07077
-543.06967
-542.93757
-542.86146
-543.10872
-543.07175
-543.07163
-543.07189
-543.07179
-543.07133
-543.07053
-543.06938
-542.93713
-542.86177
-543.10903
-543.07204
-543.07189
-543.07212
-543.07199
-543.07151
-543.07067
-543.06949
-542.9372
-542.86176
-543.10898
-543.07197
-543.07179
-543.07199
-543.07184
-543.07132
-543.07046
-543.06926
-542.93696
-542.86142
-543.10858
-543.07154
-543.07133
-543.07151
-543.07132
-543.07078
-543.06989
-543.06868
-542.93637
-542.86079
-543.10785
-543.07077
-543.07053
-543.07067
-543.07046
-543.06989
-543.06898
-543.06774
-542.93544
-542.85992
-543.10682
-543.06967
-543.06938
-543.06949
-543.06926
-543.06868
-543.06774
-543.06647
-542.93418
-542.80377
-542.96759
-542.93757
-542.93713
-542.9372
-542.93696
-542.93637
-542.93544
-542.93418
-542.78179
-532.83161
-533.26296
-533.19999
-533.1991
-533.19943
-533.19938
-533.19894
-533.19815
-533.19704
-533.09748
-533.26296
-533.57554
-533.52404
-533.52376
-533.5241
-533.52401
-533.52348
-533.52255
-533.52122
-533.30036
-533.19999
-533.52404
-533.47373
-533.47346
-533.47377
-533.47365
-533.4731
-533.47212
-533.47071
-533.2611
-533.1991
-533.52376
-533.47346
-533.47315
-533.47342
-533.47327
-533.47268
-533.47166
-533.4702
-533.26043
-533.19943
-533.5241
-533.47377
-533.47342
-533.47366
-533.47348
-533.47285
-533.47179
-533.4703
-533.26047
-533.19938
-533.52401
-533.47365
-533.47327
-533.47348
-533.47326
-533.47259
-533.4715
-533.46998
-533.26013
-533.19894
-533.52348
-533.4731
-533.47268
-533.47285
-533.47259
-533.4719
-533.47078
-533.46923
-533.25939
-533.19815
-533.52255
-533.47212
-533.47166
-533.47179
-533.4715
-533.47078
-533.46962
-533.46805
-533.25823
-533.19704
-533.52122
-533.47071
-533.4702
-533.4703
-533.46998
-533.46923
-533.46805
-533.46643
-533.25663
-533.09748
-533.30036
-533.2611
-533.26043
-533.26047
-533.26013
-533.25939
-533.25823
-533.25663
-533.01001
-523.372
-523.9034
-523.82426
-523.82301
-523.82336
-523.82327
-523.82273
-523.82177
-523.82044
-523.67868
-523.9034
-524.2877
-524.223
-524.22252
-524.22288
-524.22273
-524.22208
-524.22095
-524.21935
-523.91921
-523.82426
-524.223
-524.15982
-524.15935
-524.15967
-524.1595
-524.15882
-524.15763
-524.15594
-523.87109
-523.82301
-524.22252
-524.15935
-524.15885
-524.15913
-524.15892
-524.15819
-524.15695
-524.1552
-523.87019
-523.82336
-524.22288
-524.15967
-524.15913
-524.15937
-524.15912
-524.15835
-524.15707
-524.15527
-523.8702
-523.82327
-524.22273
-524.1595
-524.15892
-524.15912
-524.15882
-524.15801
-524.15669
-524.15487
-523.86978
-523.82273
-524.22208
-524.15882
-524.15819
-524.15835
-524.15801
-524.15717
-524.15581
-524.15395
-523.86888
-523.82177
-524.22095
-524.15763
-524.15695
-524.15707
-524.15669
-524.15581
-524.15442
-524.15253
-523.86749
-523.82044
-524.21935
-524.15594
-524.1552
-524.15527
-524.15487
-524.15395
-524.15253
-524.15059
-523.86558
-523.67868
-523.91921
-523.87109
-523.87019
-523.8702
-523.86978
-523.86888
-523.86749
-523.86558
-523.5279
-514.18663
-514.81373
-514.71906
-514.71747
-514.71782
-514.71769
-514.71704
-514.71592
-514.71437
-514.53177
-514.81373
-515.26654
-515.18915
-515.18848
-515.18884
-515.18864
-515.18786
-515.18654
-515.18467
-514.80805
-514.71906
-515.18915
-515.11359
-515.11294
-515.11326
-515.11302
-515.11221
-515.11083
-515.10886
-514.75145
-514.71747
-515.18848
-515.11294
-515.11224
-515.11252
-515.11224
-515.11138
-515.10993
-515.1079
-514.75032
-514.71782
-515.18884
-515.11326
-515.11252
-515.11275
-515.11243
-515.11152
-515.11002
-515.10794
-514.75029
-514.71769
-515.18864
-515.11302
-515.11224
-515.11243
-515.11205
-515.1111
-515.10956
-515.10744
-514.74977
-514.71704
-515.18786
-515.11221
-515.11138
-515.11152
-515.1111
-515.1101
-515.10852
-515.10637
-514.74872
-514.71592
-515.18654
-515.11083
-515.10993
-515.11002
-515.10956
-515.10852
-515.1069
-515.10471
-514.74711
-514.71437
-515.18467
-515.10886
-515.1079
-515.10794
-515.10744
-515.10637
-515.10471
-515.10246
-514.74492
-514.53177
-514.80805
-514.75145
-514.75032
-514.75029
-514.74977
-514.74872
-514.74711
-514.74492
-514.31933
-505.26031
-505.97815
-505.86865
-505.86671
-505.86706
-505.86689
-505.86614
-505.86486
-505.86311
-505.64129
-505.97815
-506.4958
-506.40631
-506.40544
-506.4058
-506.40554
-506.40464
-506.40313
-506.40102
-505.95118
-505.86865
-506.40631
-506.31894
-506.3181
-506.31842
-506.31812
-506.31718
-506.31561
-506.31339
-505.8865
-505.86671
-506.40544
-506.3181
-506.31721
-506.31748
-506.31713
-506.31614
-506.3145
-506.3122
-505.88515
-505.86706
-506.4058
-506.31842
-506.31748
-506.3177
-506.3173
-506.31625
-506.31456
-506.3122
-505.88507
-505.86689
-506.40554
-506.31812
-506.31713
-506.3173
-506.31685
-506.31576
-506.31401
-506.31162
-505.88447
-505.86614
-506.40464
-506.31718
-506.31614
-506.31625
-506.31576
-506.31461
-506.31282
-506.31039
-505.88327
-505.86486
-506.40313
-506.31561
-506.3145
-506.31456
-506.31401
-506.31282
-506.31098
-506.3085
-505.88145
-505.86311
-506.40102
-506.31339
-506.3122
-506.3122
-506.31162
-506.31039
-506.3085
-506.30596
-505.87899
-505.64129
-505.95118
-505.8865
-505.88515
-505.88507
-505.88447
-505.88327
-505.88145
-505.87899
-505.36914
-496.57868
-497.38177
-497.25824
-497.25598
-497.25632
-497.2561
-497.25526
-497.25383
-497.2519
-496.9927
-497.38177
-497.96025
-497.85932
-497.85825
-497.8586
-497.85829
-497.85727
-497.85558
-497.85324
-497.33386
-497.25824
-497.85932
-497.76078
-497.75975
-497.76006
-497.7597
-497.75865
-497.75689
-497.75443
-497.26157
-497.25598
-497.85825
-497.75975
-497.75867
-497.75893
-497.75852
-497.7574
-497.75557
-497.75302
-497.26
-497.25632
-497.8586
-497.76006
-497.75893
-497.75913
-497.75867
-497.75749
-497.7556
-497.75299
-497.25988
-497.2561
-497.85829
-497.7597
-497.75852
-497.75867
-497.75814
-497.75691
-497.75497
-497.75232
-497.25919
-497.25526
-497.85727
-497.75865
-497.7574
-497.75749
-497.75691
-497.75563
-497.75364
-497.75094
-497.25786
-497.25383
-497.85558
-497.75689
-497.75557
-497.7556
-497.75497
-497.75364
-497.75159
-497.74885
-497.25585
-497.2519
-497.85324
-497.75443
-497.75302
-497.75299
-497.75232
-497.75094
-497.74885
-497.74603
-497.25312
-496.9927
-497.33386
-497.26157
-497.26
-497.25988
-497.25919
-497.25786
-497.25585
-497.25312
-496.66315
-488.12835
-489.01073
-488.87406
-488.87147
-488.87181
-488.87154
-488.87061
-488.86905
-488.86694
-488.57243
-489.01073
-489.64569
-489.53402
-489.53277
-489.53311
-489.53274
-489.53161
-489.52976
-489.5272
-488.94236
-488.87406
-489.53402
-489.42503
-489.42382
-489.42412
-489.4237
-489.42253
-489.42061
-489.41792
-488.86296
-488.87147
-489.53277
-489.42382
-489.42256
-489.4228
-489.42232
-489.42109
-489.41909
-489.41631
-488.86119
-488.87181
-489.53311
-489.42412
-489.4228
-489.42298
-489.42244
-489.42115
-489.41908
-489.41624
-488.86103
-488.87154
-489.53274
-489.4237
-489.42232
-489.42244
-489.42185
-489.42049
-489.41837
-489.41548
-488.86026
-488.87061
-489.53161
-489.42253
-489.42109
-489.42115
-489.42049
-489.41908
-489.4169
-489.41396
-488.85879
-488.86905
-489.52976
-489.42061
-489.41909
-489.41908
-489.41837
-489.4169
-489.41467
-489.41168
-488.8566
-488.86694
-489.5272
-489.41792
-489.41631
-489.41624
-489.41548
-489.41396
-489.41168
-489.40861
-488.85365
-488.57243
-488.94236
-488.86296
-488.86119
-488.86103
-488.86026
-488.85879
-488.8566
-488.85365
-488.18814
-479.89682
-480.85209
-480.70324
-480.70034
-480.70067
-480.70036
-480.69934
-480.69765
-480.69539
-480.36783
-480.85209
-481.53886
-481.41726
-481.41582
-481.41615
-481.41572
-481.41449
-481.41249
-481.40973
-480.76387
-480.70324
-481.41726
-481.29858
-481.2972
-481.29748
-481.297
-481.29573
-481.29365
-481.29076
-480.67792
-480.70034
-481.41582
-481.2972
-481.29576
-481.29598
-481.29544
-481.29409
-481.29193
-481.28895
-480.67595
-480.70067
-481.41615
-481.29748
-481.29598
-481.29614
-481.29553
-481.29412
-481.29189
-481.28884
-480.67574
-480.70036
-481.41572
-481.297
-481.29544
-481.29553
-481.29487
-481.29339
-481.2911
-481.288
-480.6749
-480.69934
-481.41449
-481.29573
-481.29409
-481.29412
-481.29339
-481.29186
-481.28951
-481.28635
-480.67331
-480.69765
-481.41249
-481.29365
-481.29193
-481.29189
-481.2911
-481.28951
-481.2871
-481.28389
-480.67096
-480.69539
-481.40973
-481.29076
-481.28895
-481.28884
-481.288
-481.28635
-481.28389
-481.2806
-480.6678
-480.36783
-480.76387
-480.67792
-480.67595
-480.67574
-480.6749
-480.67331
-480.67096
-480.6678
-479.93178
-471.87246
-472.89383
-472.73382
-472.73064
-472.73095
-472.7306
-472.7295
-472.7277
-472.72529
-472.36713
-472.89383
-473.62749
-473.49679
-473.49517
-473.49549
-473.495
-473.49368
-473.49154
-473.48861
-472.78649
-472.73382
-473.49679
-473.36925
-473.3677
-473.36796
-473.36743
-473.36606
-473.36384
-473.36077
-472.69458
-472.73064
-473.49517
-473.3677
-473.36609
-473.36629
-473.36569
-473.36424
-473.36194
-473.35877
-472.69242
-472.73095
-473.49549
-473.36796
-473.36629
-473.36642
-473.36576
-473.36424
-473.36186
-473.35862
-472.69218
-472.7306
-473.495
-473.36743
-473.36569
-473.36576
-473.36503
-473.36344
-473.361
-473.35771
-472.69126
-472.7295
-473.49368
-473.36606
-473.36424
-473.36424
-473.36344
-473.3618
-473.3593
-473.35594
-472.68957
-472.7277
-473.49154
-473.36384
-473.36194
-473.36186
-473.361
-473.3593
-473.35673
-473.35332
-472.68707
-472.72529
-473.48861
-473.36077
-473.35877
-473.35862
-473.35771
-473.35594
-473.35332
-473.34982
-472.68372
-472.36713
-472.78649
-472.69458
-472.69242
-472.69218
-472.69126
-472.68957
-472.68707
-472.68372
-471.8826
-464.04445
-465.12479
-464.95472
-464.95127
-464.95157
-464.95117
-464.95
-464.9481
-464.94557
-464.55941
-465.12479
-465.90017
-465.76127
-465.75949
-465.75979
-465.75925
-465.75784
-465.75558
-465.75249
-464.9992
-464.95472
-465.76127
-465.62575
-465.62404
-465.62428
-465.6237
-465.62224
-465.6199
-465.61667
-464.90194
-464.95127
-465.75949
-465.62404
-465.62227
-465.62245
-465.62179
-465.62026
-465.61782
-465.61448
-464.89961
-464.95157
-465.75979
-465.62428
-465.62245
-465.62256
-465.62183
-465.62022
-465.61771
-465.6143
-464.89933
-464.95117
-465.75925
-465.6237
-465.62179
-465.62183
-465.62104
-465.61936
-465.61679
-465.61332
-464.89834
-464.95
-465.75784
-465.62224
-465.62026
-465.62022
-465.61936
-465.61761
-465.61498
-465.61145
-464.89655
-464.9481
-465.75558
-465.6199
-465.61782
-465.61771
-465.61679
-465.61498
-465.61227
-465.60868
-464.89393
-464.94557
-465.75249
-465.61667
-465.61448
-465.6143
-465.61332
-465.61145
-465.60868
-465.605
-464.89041
-464.55941
-464.9992
-464.90194
-464.89961
-464.89933
-464.89834
-464.89655
-464.89393
-464.89041
-464.02994
-456.40275
-457.53464
-457.35566
-457.35197
-457.35225
-457.35182
-457.35058
-457.3486
-457.34595
-456.93455
-457.53464
-458.3464
-458.20024
-458.19831
-458.19858
-458.198
-458.19651
-458.19414
-458.19092
-457.39177
-457.35566
-458.20024
-458.05765
-458.05579
-458.05601
-458.05538
-458.05384
-458.05139
-458.04802
-457.28981
-457.35197
-458.19831
-458.05579
-458.05387
-458.05402
-458.05332
-458.0517
-458.04916
-458.04568
-457.28733
-457.35225
-458.19858
-458.05601
-458.05402
-458.05411
-458.05333
-458.05164
-458.04901
-458.04546
-457.287
-457.35182
-458.198
-458.05538
-458.05332
-458.05333
-458.05249
-458.05072
-458.04803
-458.04441
-457.28596
-457.35058
-458.19651
-458.05384
-458.0517
-458.05164
-458.05072
-458.04888
-458.04613
-458.04245
-457.28409
-457.3486
-458.19414
-458.05139
-458.04916
-458.04901
-458.04803
-458.04613
-458.0433
-458.03956
-457.28135
-457.34595
-458.19092
-458.04802
-458.04568
-458.04546
-458.04441
-458.04245
-458.03956
-458.03572
-457.27769
-456.93455
-457.39177
-457.28981
-457.28733
-457.287
-457.28596
-457.28409
-457.28135
-457.27769
-456.36393
-448.93809
-450.11387
-449.92717
-449.92326
-449.92352
-449.92305
-449.92176
-449.91971
-449.91697
-449.48319
-450.11387
-450.95648
-450.80404
-450.80196
-450.80222
-450.80159
-450.80003
-450.79757
-450.79424
-449.95478
-449.92717
-450.80404
-450.65533
-450.65334
-450.65354
-450.65286
-450.65125
-450.64872
-450.64523
-449.8488
-449.92326
-450.80196
-450.65334
-450.65129
-450.65141
-450.65066
-450.64897
-450.64634
-450.64274
-449.84618
-449.92352
-450.80222
-450.65354
-450.65141
-450.65147
-450.65065
-450.64888
-450.64616
-450.64248
-449.84582
-449.92305
-450.80159
-450.65286
-450.65066
-450.65065
-450.64975
-450.64791
-450.64512
-450.64138
-449.84473
-449.92176
-450.80003
-450.65125
-450.64897
-450.64888
-450.64791
-450.646
-450.64314
-450.63934
-449.84278
-449.91971
-450.79757
-450.64872
-450.64634
-450.64616
-450.64512
-450.64314
-450.64021
-450.63634
-449.83995
-449.91697
-450.79424
-450.64523
-450.64274
-450.64248
-450.64138
-450.63934
-450.63634
-450.63238
-449.83618
-449.48319
-449.95478
-449.8488
-449.84618
-449.84582
-449.84473
-449.84278
-449.83995
-449.83618
-448.87545
-441.64188
-442.85371
-442.66054
-442.65643
-442.65666
-442.65616
-442.65483
-442.65271
-442.6499
-442.19673
-442.85371
-443.72153
-443.56382
-443.56161
-443.56184
-443.56117
-443.55956
-443.55703
-443.5536
-442.67956
-442.66054
-443.56382
-443.40998
-443.40787
-443.40804
-443.40732
-443.40566
-443.40305
-443.39947
-442.57026
-442.65643
-443.56161
-443.40787
-443.40569
-443.40579
-443.405
-443.40325
-443.40054
-443.39684
-442.56752
-442.65666
-443.56184
-443.40804
-443.40579
-443.40582
-443.40496
-443.40313
-443.40033
-443.39655
-442.56712
-442.65616
-443.56117
-443.40732
-443.405
-443.40496
-443.40401
-443.40211
-443.39924
-443.3954
-442.56599
-442.65483
-443.55956
-443.40566
-443.40325
-443.40313
-443.40211
-443.40014
-443.3972
-443.3933
-442.56398
-442.65271
-443.55703
-443.40305
-443.40054
-443.40033
-443.39924
-443.3972
-443.39419
-443.39022
-442.56108
-442.6499
-443.5536
-443.39947
-443.39684
-443.39655
-443.3954
-443.3933
-443.39022
-443.38615
-442.55721
-442.19673
-442.67956
-442.57026
-442.56752
-442.56712
-442.56599
-442.56398
-442.56108
-442.55721
-441.55605
-434.50623
-435.74614
-435.54774
-435.54347
-435.54368
-435.54315
-435.54178
-435.53961
-435.53675
-435.06726
-435.74614
-436.63343
-436.47148
-436.46916
-436.46936
-436.46866
-436.467
-436.46441
-436.46091
-435.55817
-435.54774
-436.47148
-436.31353
-436.3113
-436.31145
-436.3107
-436.30899
-436.30632
-436.30267
-435.44626
-435.54347
-436.46916
-436.3113
-436.30902
-436.30909
-436.30827
-436.30647
-436.3037
-436.29993
-435.44341
-435.54368
-436.46936
-436.31145
-436.30909
-436.30909
-436.30819
-436.30631
-436.30346
-436.29961
-435.44298
-435.54315
-436.46866
-436.3107
-436.30827
-436.30819
-436.30721
-436.30526
-436.30233
-436.29842
-435.44181
-435.54178
-436.467
-436.30899
-436.30647
-436.30631
-436.30526
-436.30323
-436.30023
-436.29626
-435.43976
-435.53961
-436.46441
-436.30632
-436.3037
-436.30346
-436.30233
-436.30023
-436.29716
-436.29311
-435.4368
-435.53675
-436.46091
-436.30267
-436.29993
-436.29961
-436.29842
-436.29626
-436.29311
-436.28896
-435.43287
-435.06726
-435.55817
-435.44626
-435.44341
-435.44298
-435.44181
-435.43976
-435.4368
-435.43287
-434.398
-427.52389
-428.78381
-428.58148
-428.57706
-428.57725
-428.5767
-428.5753
-428.5731
-428.5702
-428.08751
-428.78381
-429.6848
-429.51966
-429.51724
-429.51742
-429.51668
-429.51498
-429.51235
-429.50881
-428.58335
-428.58148
-429.51966
-429.35861
-429.35629
-429.35641
-429.35563
-429.35388
-429.35117
-429.34747
-428.46955
-428.57706
-429.51724
-429.35629
-429.35391
-429.35396
-429.3531
-429.35127
-429.34846
-429.34464
-428.46661
-428.57725
-429.51742
-429.35641
-429.35396
-429.35394
-429.353
-429.35109
-429.34819
-429.34429
-428.46615
-428.5767
-429.51668
-429.35563
-429.3531
-429.353
-429.35199
-429.35
-429.34703
-429.34307
-428.46495
-428.5753
-429.51498
-429.35388
-429.35127
-429.35109
-429.35
-429.34794
-429.34489
-429.34087
-428.46287
-428.5731
-429.51235
-429.35117
-429.34846
-429.34819
-429.34703
-429.34489
-429.34178
-429.33768
-428.45987
-428.5702
-429.50881
-429.34747
-429.34464
-429.34429
-429.34307
-429.34087
-429.33768
-429.33348
-428.4559
-428.08751
-428.58335
-428.46955
-428.46661
-428.46615
-428.46495
-428.46287
-428.45987
-428.4559
-427.39417
-420.68822
-421.96004
-421.75509
-421.75056
-421.75072
-421.75015
-421.74872
-421.74651
-421.74359
-421.25088
-421.96004
-422.86894
-422.70167
-422.69917
-422.69932
-422.69856
-422.69684
-422.69418
-422.69061
-421.74848
-421.75509
-422.70167
-422.53856
-422.53617
-422.53626
-422.53546
-422.53368
-422.53095
-422.52723
-421.63352
-421.75056
-422.69917
-422.53617
-422.53371
-422.53373
-422.53285
-422.53099
-422.52815
-422.52431
-421.63051
-421.75072
-422.69932
-422.53626
-422.53373
-422.53368
-422.53272
-422.53078
-422.52786
-422.52394
-421.63003
-421.75015
-422.69856
-422.53546
-422.53285
-422.53272
-422.53169
-422.52967
-422.52667
-422.52269
-421.62881
-421.74872
-422.69684
-422.53368
-422.53099
-422.53078
-422.52967
-422.52758
-422.52451
-422.52047
-421.62671
-421.74651
-422.69418
-422.53095
-422.52815
-422.52786
-422.52667
-422.52451
-422.52137
-422.51725
-421.62369
-421.74359
-422.69061
-422.52723
-422.52431
-422.52394
-422.52269
-422.52047
-422.51725
-422.51303
-421.61971
-421.25088
-421.74848
-421.63352
-421.63051
-421.63003
-421.62881
-421.62671
-421.62369
-421.61971
-420.53805
-413.99316
-415.26881
-415.06253
-415.05792
-415.05805
-415.05746
-415.05603
-415.0538
-415.05089
-414.55135
-415.26881
-416.17983
-416.0115
-416.00893
-416.00905
-416.00827
-416.00653
-416.00387
-416.0003
-415.04758
-415.06253
-416.0115
-415.84737
-415.84492
-415.84498
-415.84416
-415.84237
-415.83963
-415.83591
-414.93218
-415.05792
-416.00893
-415.84492
-415.8424
-415.84239
-415.84149
-415.83962
-415.83678
-415.83294
-414.92913
-415.05805
-416.00905
-415.84498
-415.84239
-415.84231
-415.84134
-415.83939
-415.83646
-415.83254
-414.92863
-415.05746
-416.00827
-415.84416
-415.84149
-415.84134
-415.84028
-415.83826
-415.83525
-415.83127
-414.92739
-415.05603
-416.00653
-415.84237
-415.83962
-415.83939
-415.83826
-415.83616
-415.83308
-415.82904
-414.92529
-415.0538
-416.00387
-415.83963
-415.83678
-415.83646
-415.83525
-415.83308
-415.82994
-415.82582
-414.92227
-415.05089
-416.0003
-415.83591
-415.83294
-415.83254
-415.83127
-415.82904
-415.82582
-415.82159
-414.91829
-414.55135
-415.04758
-414.93218
-414.92913
-414.92863
-414.92739
-414.92529
-414.92227
-414.91829
-413.82369
-407.4332
-408.70465
-408.49835
-408.49368
-408.49379
-408.49318
-408.49175
-408.48954
-408.48664
-407.98347
-408.70465
-409.61208
-409.44375
-409.44113
-409.44122
-409.44043
-409.43869
-409.43603
-409.43248
-408.47525
-408.49835
-409.44375
-409.27964
-409.27714
-409.27718
-409.27634
-409.27455
-409.27182
-409.26812
-408.36014
-408.49368
-409.44113
-409.27714
-409.27457
-409.27454
-409.27363
-409.27176
-409.26892
-409.26511
-408.35706
-408.49379
-409.44122
-409.27718
-409.27454
-409.27444
-409.27345
-409.2715
-409.26858
-409.26469
-408.35654
-408.49318
-409.44043
-409.27634
-409.27363
-409.27345
-409.27239
-409.27036
-409.26737
-409.26341
-408.3553
-408.49175
-409.43869
-409.27455
-409.27176
-409.2715
-409.27036
-409.26826
-409.2652
-409.26118
-408.3532
-408.48954
-409.43603
-409.27182
-409.26892
-409.26858
-409.26737
-409.2652
-409.26207
-409.25797
-408.3502
-408.48664
-409.43248
-409.26812
-409.26511
-409.26469
-409.26341
-409.26118
-409.25797
-409.25378
-408.34626
-407.98347
-408.47525
-408.36014
-408.35706
-408.35654
-408.3553
-408.3532
-408.3502
-408.34626
-407.2457
-401.00333
-402.26268
-402.05766
-402.05297
-402.05305
-402.05243
-402.051
-402.04881
-402.04595
-401.54234
-402.26268
-403.16089
-402.99361
-402.99097
-402.99103
-402.99022
-402.98849
-402.98586
-402.98235
-402.02663
-402.05766
-402.99361
-402.83055
-402.82802
-402.82804
-402.82719
-402.82541
-402.8227
-402.81905
-401.91254
-402.05297
-402.99097
-402.82802
-402.82543
-402.82538
-402.82445
-402.82259
-402.81979
-402.81602
-401.90945
-402.05305
-402.99103
-402.82804
-402.82538
-402.82525
-402.82425
-402.82231
-402.81943
-402.81558
-401.90892
-402.05243
-402.99022
-402.82719
-402.82445
-402.82425
-402.82318
-402.82117
-402.81821
-402.8143
-401.90768
-402.051
-402.98849
-402.82541
-402.82259
-402.82231
-402.82117
-402.81909
-402.81606
-402.81209
-401.90559
-402.04881
-402.98586
-402.8227
-402.81979
-402.81943
-402.81821
-402.81606
-402.81296
-402.80891
-401.90264
-402.04595
-402.98235
-402.81905
-402.81602
-402.81558
-402.8143
-402.81209
-402.80891
-402.80477
-401.89874
-401.54234
-402.02663
-401.91254
-401.90945
-401.90892
-401.90768
-401.90559
-401.90264
-401.89874
-400.79917
-394.69905
-395.93855
-395.73608
-395.7314
-395.73145
-395.73083
-395.72942
-395.72726
-395.72445
-395.22356
-395.93855
-396.82203
-396.65685
-396.6542
-396.65423
-396.65342
-396.6517
-396.64911
-396.64566
-395.69741
-395.73608
-396.65685
-396.49586
-396.49331
-396.4933
-396.49245
-396.49069
-396.48803
-396.48444
-395.58504
-395.7314
-396.6542
-396.49331
-396.49071
-396.49063
-396.48971
-396.48787
-396.48511
-396.48141
-395.58196
-395.73145
-396.65423
-396.4933
-396.49063
-396.49048
-396.48949
-396.48757
-396.48473
-396.48095
-395.58142
-395.73083
-396.65342
-396.49245
-396.48971
-396.48949
-396.48842
-396.48643
-396.48352
-396.47968
-395.58019
-395.72942
-396.6517
-396.49069
-396.48787
-396.48757
-396.48643
-396.48437
-396.4814
-396.4775
-395.57814
-395.72726
-396.64911
-396.48803
-396.48511
-396.48473
-396.48352
-396.4814
-396.47835
-396.47438
-395.57523
-395.72445
-396.64566
-396.48444
-396.48141
-396.48095
-396.47968
-396.4775
-396.47438
-396.47031
-395.57142
-395.22356
-395.69741
-395.58504
-395.58196
-395.58142
-395.58019
-395.57814
-395.57523
-395.57142
-394.47968
-388.5163
-389.72842
-389.52975
-389.52511
-389.52513
-389.52451
-389.52312
-389.52101
-389.51827
-389.02318
-389.72842
-390.59182
-390.42976
-390.4271
-390.42711
-390.4263
-390.42461
-390.42207
-390.41871
-389.48375
-389.52975
-390.42976
-390.27181
-390.26927
-390.26923
-390.26838
-390.26666
-390.26405
-390.26055
-389.37379
-389.52511
-390.4271
-390.26927
-390.26668
-390.26657
-390.26566
-390.26385
-390.26115
-390.25754
-389.37074
-389.52513
-390.42711
-390.26923
-390.26657
-390.26641
-390.26542
-390.26354
-390.26076
-390.25707
-389.37019
-389.52451
-390.4263
-390.26838
-390.26566
-390.26542
-390.26436
-390.26241
-390.25956
-390.25582
-389.36898
-389.52312
-390.42461
-390.26666
-390.26385
-390.26354
-390.26241
-390.26039
-390.25748
-390.25367
-389.36698
-389.52101
-390.42207
-390.26405
-390.26115
-390.26076
-390.25956
-390.25748
-390.2545
-390.25062
-389.36414
-389.51827
-390.41871
-390.26055
-390.25754
-390.25707
-390.25582
-390.25367
-390.25062
-390.24665
-389.36043
-389.02318
-389.48375
-389.37379
-389.37074
-389.37019
-389.36898
-389.36698
-389.36414
-389.36043
-388.28325
-382.45146
-383.62891
-383.43525
-383.43067
-383.43067
-383.43005
-383.4287
-383.42664
-383.42399
-382.93774
-383.62891
-384.46705
-384.3091
-384.30647
-384.30645
-384.30564
-384.30399
-384.30152
-384.29825
-383.38228
-383.43525
-384.3091
-384.15517
-384.15265
-384.15259
-384.15175
-384.15006
-384.14753
-384.14413
-383.27541
-383.43067
-384.30647
-384.15265
-384.15008
-384.14996
-384.14905
-384.14728
-384.14466
-384.14116
-383.27241
-383.43067
-384.30645
-384.15259
-384.14996
-384.14977
-384.14879
-384.14696
-384.14426
-384.14069
-383.27186
-383.43005
-384.30564
-384.15175
-384.14905
-384.14879
-384.14775
-384.14584
-384.14308
-384.13945
-383.27067
-383.4287
-384.30399
-384.15006
-384.14728
-384.14696
-384.14584
-384.14388
-384.14105
-384.13736
-383.26872
-383.42664
-384.30152
-384.14753
-384.14466
-384.14426
-384.14308
-384.14105
-384.13816
-384.1344
-383.26597
-383.42399
-384.29825
-384.14413
-384.14116
-384.14069
-384.13945
-384.13736
-384.1344
-384.13056
-383.26238
-382.93774
-383.38228
-383.27541
-383.27241
-383.27186
-383.27067
-383.26872
-383.26597
-383.26238
-382.20634
-376.50131
-377.63707
-377.44959
-377.44512
-377.4451
-377.44448
-377.44317
-377.44119
-377.43863
-376.96415
-377.63707
-378.445
-378.29211
-378.28952
-378.28948
-378.28868
-378.28708
-378.28469
-378.28155
-377.39006
-377.44959
-378.29211
-378.14313
-378.14066
-378.14057
-378.13974
-378.1381
-378.13566
-378.13238
-377.28692
-377.44512
-378.28952
-378.14066
-378.13813
-378.13798
-378.13709
-378.13538
-378.13285
-378.12948
-377.28399
-377.4451
-378.28948
-378.14057
-378.13798
-378.13778
-378.13682
-378.13504
-378.13244
-378.129
-377.28344
-377.44448
-378.28868
-378.13974
-378.13709
-378.13682
-378.1358
-378.13395
-378.13129
-378.12779
-377.28228
-377.44317
-378.28708
-378.1381
-378.13538
-378.13504
-378.13395
-378.13205
-378.12932
-378.12577
-377.2804
-377.44119
-378.28469
-378.13566
-378.13285
-378.13244
-378.13129
-378.12932
-378.12653
-378.12292
-377.27776
-377.43863
-378.28155
-378.13238
-378.12948
-378.129
-378.12779
-378.12577
-378.12292
-378.11922
-377.27431
-376.96415
-377.39006
-377.28692
-377.28399
-377.28344
-377.28228
-377.2804
-377.27776
-377.27431
-376.24577
-370.66297
-371.75037
-371.57022
-371.56587
-371.56583
-371.56522
-371.56395
-371.56205
-371.55961
-371.09973
-371.75037
-372.52338
-372.37648
-372.37394
-372.37388
-372.37309
-372.37155
-372.36926
-372.36625
-371.50454
-371.57022
-372.37648
-372.23334
-372.23092
-372.23081
-372.23
-372.22842
-372.22608
-372.22295
-371.40575
-371.56587
-372.37394
-372.23092
-372.22845
-372.22829
-372.22742
-372.22577
-372.22334
-372.22012
-371.40292
-371.56583
-372.37388
-372.23081
-372.22829
-372.22807
-372.22713
-372.22542
-372.22293
-372.21964
-371.40237
-371.56522
-372.37309
-372.23
-372.22742
-372.22713
-372.22614
-372.22437
-372.22181
-372.21847
-371.40125
-371.56395
-372.37155
-372.22842
-372.22577
-372.22542
-372.22437
-372.22254
-372.21992
-372.21653
-371.39945
-371.56205
-372.36926
-372.22608
-372.22334
-372.22293
-372.22181
-372.21992
-372.21725
-372.2138
-371.39692
-371.55961
-372.36625
-372.22295
-372.22012
-372.21964
-372.21847
-372.21653
-372.2138
-372.21026
-371.39363
-371.09973
-371.50454
-371.40575
-371.40292
-371.40237
-371.40125
-371.39945
-371.39692
-371.39363
-370.39873
-364.93395
-365.96667
-365.79491
-365.79072
-365.79065
-365.79006
-365.78885
-365.78704
-365.78472
-365.34216
-365.96667
-366.70031
-366.56026
-366.5578
-366.55771
-366.55695
-366.55547
-366.55329
-366.55044
-365.72355
-365.79491
-366.56026
-366.42381
-366.42147
-366.42134
-366.42055
-366.41904
-366.41682
-366.41385
-365.62971
-365.79072
-366.5578
-366.42147
-366.41907
-366.41889
-366.41805
-366.41648
-366.41417
-366.41111
-365.62698
-365.79065
-366.55771
-366.42134
-366.41889
-366.41866
-366.41776
-366.41612
-366.41375
-366.41064
-365.62644
-365.79006
-366.55695
-366.42055
-366.41805
-366.41776
-366.4168
-366.41511
-366.41268
-366.40951
-365.62537
-365.78885
-366.55547
-366.41904
-366.41648
-366.41612
-366.41511
-366.41336
-366.41088
-366.40766
-365.62365
-365.78704
-366.55329
-366.41682
-366.41417
-366.41375
-366.41268
-366.41088
-366.40834
-366.40507
-365.62126
-365.78472
-366.55044