/*--------------------------------*- C++ -*----------------------------------*\
| =========                 |                                                 |
| \\      /  F ield         | OpenFOAM: The Open Source CFD Toolbox           |
|  \\    /   O peration     | Version:  v2106                                 |
|   \\  /    A nd           | Website:  www.openfoam.com                      |
|    \\/     M anipulation  |                                                 |
\*---------------------------------------------------------------------------*/
FoamFile
{
    version     2.0;
    format      ascii;
    arch        "LSB;label=32;scalar=64";
    class       volScalarField;
    location    "80";
    object      T;
}
// * * * * * * * * * * * * * * * * * * * * * * * * * * * * * * * * * * * * * //

dimensions      [0 0 0 1 0 0 0];

internalField   nonuniform List<scalar> 
4000
(
274.31547
274.31548
274.31549
274.3155
274.3155
274.3155
274.3155
274.3155
274.31549
274.31549
274.31548
274.3155
274.3155
274.31551
274.31551
274.31551
274.31551
274.31551
274.3155
274.3155
274.31549
274.3155
274.31551
274.31552
274.31552
274.31552
274.31552
274.31551
274.31551
274.3155
274.3155
274.31551
274.31552
274.31552
274.31552
274.31552
274.31552
274.31552
274.31551
274.31551
274.3155
274.31551
274.31552
274.31552
274.31552
274.31552
274.31552
274.31552
274.31551
274.31551
274.3155
274.31551
274.31552
274.31552
274.31552
274.31552
274.31552
274.31552
274.31551
274.31551
274.3155
274.31551
274.31552
274.31552
274.31552
274.31552
274.31552
274.31552
274.31551
274.3155
274.3155
274.31551
274.31551
274.31552
274.31552
274.31552
274.31552
274.31551
274.31551
274.3155
274.31549
274.3155
274.31551
274.31551
274.31551
274.31551
274.31551
274.31551
274.3155
274.3155
274.31549
274.3155
274.3155
274.31551
274.31551
274.31551
274.3155
274.3155
274.3155
274.31549
286.05278
286.0529
286.05297
286.05302
286.05304
286.05304
286.05303
286.053
286.05296
286.05293
286.0529
286.05302
286.05308
286.05312
286.05315
286.05315
286.05313
286.0531
286.05306
286.05301
286.05297
286.05308
286.05315
286.05319
286.05321
286.05321
286.05319
286.05316
286.05311
286.05306
286.05302
286.05312
286.05319
286.05323
286.05325
286.05325
286.05323
286.0532
286.05315
286.05309
286.05304
286.05315
286.05321
286.05325
286.05326
286.05326
286.05324
286.05321
286.05316
286.0531
286.05304
286.05315
286.05321
286.05325
286.05326
286.05326
286.05324
286.0532
286.05315
286.0531
286.05303
286.05313
286.05319
286.05323
286.05324
286.05324
286.05322
286.05318
286.05313
286.05307
286.053
286.0531
286.05316
286.0532
286.05321
286.0532
286.05318
286.05314
286.05309
286.05303
286.05296
286.05306
286.05311
286.05315
286.05316
286.05315
286.05313
286.05309
286.05304
286.05298
286.05293
286.05301
286.05306
286.05309
286.0531
286.0531
286.05307
286.05303
286.05298
286.05292
297.325
297.3252
297.32532
297.3254
297.32544
297.32545
297.32542
297.32537
297.32529
297.32521
297.3252
297.32539
297.32551
297.32558
297.32562
297.32562
297.3256
297.32554
297.32545
297.32534
297.32532
297.32551
297.32562
297.32569
297.32573
297.32573
297.3257
297.32564
297.32555
297.32543
297.3254
297.32558
297.32569
297.32576
297.32579
297.32579
297.32576
297.3257
297.3256
297.32548
297.32544
297.32562
297.32573
297.32579
297.32583
297.32582
297.32579
297.32572
297.32562
297.3255
297.32545
297.32562
297.32573
297.32579
297.32582
297.32582
297.32578
297.32571
297.32561
297.32549
297.32542
297.3256
297.3257
297.32576
297.32579
297.32578
297.32574
297.32567
297.32557
297.32544
297.32537
297.32554
297.32564
297.3257
297.32572
297.32571
297.32567
297.32559
297.32549
297.32537
297.32529
297.32545
297.32555
297.3256
297.32562
297.32561
297.32557
297.32549
297.32539
297.32526
297.32521
297.32534
297.32543
297.32548
297.3255
297.32549
297.32544
297.32537
297.32526
297.32513
308.1814
308.18168
308.18184
308.18195
308.182
308.18201
308.18197
308.18189
308.18177
308.18164
308.18168
308.18193
308.18209
308.18219
308.18224
308.18224
308.1822
308.18212
308.18199
308.18182
308.18184
308.18209
308.18224
308.18234
308.18239
308.18239
308.18234
308.18225
308.18211
308.18193
308.18195
308.18219
308.18234
308.18243
308.18248
308.18247
308.18242
308.18233
308.18219
308.182
308.182
308.18224
308.18239
308.18248
308.18252
308.18251
308.18246
308.18236
308.18221
308.18203
308.18201
308.18224
308.18239
308.18247
308.18251
308.1825
308.18245
308.18234
308.1822
308.18201
308.18197
308.1822
308.18234
308.18242
308.18246
308.18245
308.18239
308.18228
308.18213
308.18194
308.18189
308.18212
308.18225
308.18233
308.18236
308.18234
308.18228
308.18217
308.18202
308.18183
308.18177
308.18199
308.18211
308.18219
308.18221
308.1822
308.18213
308.18202
308.18187
308.18167
308.18164
308.18182
308.18193
308.182
308.18203
308.18201
308.18194
308.18183
308.18167
308.18147
318.66294
318.66328
318.66348
318.66361
318.66367
318.66367
318.66362
318.66351
318.66336
318.66319
318.66328
318.66359
318.66378
318.6639
318.66397
318.66397
318.66391
318.66379
318.66363
318.6634
318.66348
318.66378
318.66396
318.66408
318.66414
318.66414
318.66408
318.66395
318.66378
318.66354
318.66361
318.6639
318.66408
318.6642
318.66425
318.66425
318.66418
318.66405
318.66387
318.66362
318.66367
318.66397
318.66414
318.66425
318.6643
318.66429
318.66422
318.66409
318.6639
318.66365
318.66367
318.66397
318.66414
318.66425
318.66429
318.66428
318.6642
318.66406
318.66387
318.66362
318.66362
318.66391
318.66408
318.66418
318.66422
318.6642
318.66412
318.66398
318.66378
318.66353
318.66351
318.66379
318.66395
318.66405
318.66409
318.66406
318.66398
318.66384
318.66364
318.66338
318.66336
318.66363
318.66378
318.66387
318.6639
318.66387
318.66378
318.66364
318.66343
318.66317
318.66319
318.6634
318.66354
318.66362
318.66365
318.66362
318.66353
318.66338
318.66317
318.6629
328.80408
328.80448
328.80471
328.80485
328.80493
328.80493
328.80486
328.80472
328.80454
328.80432
328.80448
328.80483
328.80505
328.8052
328.80527
328.80526
328.80519
328.80505
328.80484
328.80456
328.80471
328.80505
328.80527
328.80541
328.80547
328.80546
328.80538
328.80523
328.80501
328.80472
328.80485
328.8052
328.80541
328.80554
328.8056
328.80559
328.8055
328.80534
328.80512
328.80481
328.80493
328.80527
328.80547
328.8056
328.80565
328.80564
328.80554
328.80538
328.80515
328.80484
328.80493
328.80526
328.80546
328.80559
328.80564
328.80561
328.80552
328.80535
328.80511
328.8048
328.80486
328.80519
328.80538
328.8055
328.80554
328.80552
328.80542
328.80525
328.805
328.80469
328.80472
328.80505
328.80523
328.80534
328.80538
328.80535
328.80525
328.80507
328.80483
328.80451
328.80454
328.80484
328.80501
328.80512
328.80515
328.80511
328.805
328.80483
328.80457
328.80425
328.80432
328.80456
328.80472
328.80481
328.80484
328.8048
328.80469
328.80451
328.80425
328.80392
338.63418
338.63463
338.63488
338.63505
338.63512
338.63512
338.63504
338.63488
338.63466
338.6344
338.63463
338.63503
338.63527
338.63543
338.63551
338.6355
338.63541
338.63524
338.635
338.63467
338.63488
338.63527
338.63551
338.63566
338.63573
338.63572
338.63562
338.63545
338.63519
338.63484
338.63505
338.63543
338.63566
338.63581
338.63588
338.63586
338.63575
338.63557
338.6353
338.63495
338.63512
338.63551
338.63573
338.63588
338.63593
338.63591
338.6358
338.63561
338.63533
338.63498
338.63512
338.6355
338.63572
338.63586
338.63591
338.63588
338.63576
338.63557
338.63529
338.63493
338.63504
338.63541
338.63562
338.63575
338.6358
338.63576
338.63564
338.63544
338.63516
338.63479
338.63488
338.63524
338.63545
338.63557
338.63561
338.63557
338.63544
338.63524
338.63495
338.63458
338.63466
338.635
338.63519
338.6353
338.63533
338.63529
338.63516
338.63495
338.63465
338.63428
338.6344
338.63467
338.63484
338.63495
338.63498
338.63493
338.63479
338.63458
338.63428
338.63388
348.17851
348.179
348.17928
348.17945
348.17954
348.17953
348.17943
348.17925
348.179
348.1787
348.179
348.17944
348.17971
348.17988
348.17996
348.17994
348.17984
348.17965
348.17937
348.179
348.17928
348.17971
348.17996
348.18013
348.1802
348.18018
348.18007
348.17987
348.17957
348.17918
348.17945
348.17988
348.18013
348.18029
348.18035
348.18033
348.18021
348.18
348.17969
348.17929
348.17954
348.17996
348.1802
348.18035
348.18041
348.18038
348.18026
348.18004
348.17973
348.17932
348.17953
348.17994
348.18018
348.18033
348.18038
348.18034
348.18021
348.17999
348.17967
348.17926
348.17943
348.17984
348.18007
348.18021
348.18026
348.18021
348.18007
348.17984
348.17952
348.17911
348.17925
348.17965
348.17987
348.18
348.18004
348.17999
348.17984
348.17961
348.17928
348.17886
348.179
348.17937
348.17957
348.17969
348.17973
348.17967
348.17952
348.17928
348.17895
348.17852
348.1787
348.179
348.17918
348.17929
348.17932
348.17926
348.17911
348.17886
348.17852
348.17807
357.45901
357.45954
357.45984
357.46003
357.46011
357.4601
357.45999
357.45979
357.45951
357.45918
357.45954
357.46002
357.4603
357.46048
357.46056
357.46055
357.46043
357.46021
357.45991
357.45949
357.45984
357.4603
357.46058
357.46075
357.46083
357.4608
357.46068
357.46045
357.46012
357.45969
357.46003
357.46048
357.46075
357.46092
357.46099
357.46096
357.46082
357.46059
357.46025
357.4598
357.46011
357.46056
357.46083
357.46099
357.46105
357.46101
357.46087
357.46062
357.46028
357.45983
357.4601
357.46055
357.4608
357.46096
357.46101
357.46096
357.46081
357.46056
357.46021
357.45976
357.45999
357.46043
357.46068
357.46082
357.46087
357.46081
357.46066
357.4604
357.46005
357.45959
357.45979
357.46021
357.46045
357.46059
357.46062
357.46056
357.4604
357.46014
357.45978
357.45931
357.45951
357.45991
357.46012
357.46025
357.46028
357.46021
357.46005
357.45978
357.45941
357.45893
357.45918
357.45949
357.45969
357.4598
357.45983
357.45976
357.45959
357.45931
357.45893
357.45844
366.49493
366.49549
366.4958
366.496
366.49609
366.49607
366.49594
366.49572
366.49542
366.49506
366.49549
366.49599
366.49629
366.49648
366.49656
366.49654
366.49641
366.49618
366.49584
366.49539
366.4958
366.49629
366.49658
366.49677
366.49684
366.49681
366.49667
366.49642
366.49607
366.49559
366.496
366.49648
366.49677
366.49694
366.49701
366.49697
366.49682
366.49656
366.4962
366.49571
366.49609
366.49656
366.49684
366.49701
366.49707
366.49702
366.49686
366.4966
366.49622
366.49573
366.49607
366.49654
366.49681
366.49697
366.49702
366.49697
366.4968
366.49653
366.49615
366.49565
366.49594
366.49641
366.49667
366.49682
366.49686
366.4968
366.49663
366.49635
366.49596
366.49547
366.49572
366.49618
366.49642
366.49656
366.4966
366.49653
366.49635
366.49607
366.49567
366.49517
366.49542
366.49584
366.49607
366.4962
366.49622
366.49615
366.49596
366.49567
366.49527
366.49475
366.49506
366.49539
366.49559
366.49571
366.49573
366.49565
366.49547
366.49517
366.49475
366.49421
375.30322
375.30381
375.30414
375.30434
375.30443
375.3044
375.30427
375.30403
375.3037
375.30332
375.30381
375.30434
375.30465
375.30485
375.30493
375.3049
375.30476
375.3045
375.30414
375.30366
375.30414
375.30465
375.30495
375.30514
375.30522
375.30518
375.30503
375.30476
375.30438
375.30387
375.30434
375.30485
375.30514
375.30532
375.30539
375.30534
375.30518
375.3049
375.30451
375.30399
375.30443
375.30493
375.30522
375.30539
375.30545
375.30539
375.30522
375.30494
375.30453
375.30401
375.3044
375.3049
375.30518
375.30534
375.30539
375.30533
375.30515
375.30486
375.30445
375.30392
375.30427
375.30476
375.30503
375.30518
375.30522
375.30515
375.30497
375.30467
375.30425
375.30372
375.30403
375.3045
375.30476
375.3049
375.30494
375.30486
375.30467
375.30436
375.30394
375.3034
375.3037
375.30414
375.30438
375.30451
375.30453
375.30445
375.30425
375.30394
375.3035
375.30296
375.30332
375.30366
375.30387
375.30399
375.30401
375.30392
375.30372
375.3034
375.30296
375.30238
383.89899
383.8996
383.89994
383.90014
383.90023
383.9002
383.90005
383.8998
383.89945
383.89904
383.8996
383.90014
383.90047
383.90067
383.90075
383.90071
383.90056
383.90029
383.89991
383.8994
383.89994
383.90047
383.90078
383.90097
383.90104
383.901
383.90083
383.90055
383.90015
383.89961
383.90014
383.90067
383.90097
383.90115
383.90122
383.90116
383.90099
383.9007
383.90028
383.89974
383.90023
383.90075
383.90104
383.90122
383.90127
383.90121
383.90103
383.90073
383.9003
383.89975
383.9002
383.90071
383.901
383.90116
383.90121
383.90114
383.90095
383.90064
383.90021
383.89965
383.90005
383.90056
383.90083
383.90099
383.90103
383.90095
383.90075
383.90044
383.9
383.89944
383.8998
383.90029
383.90055
383.9007
383.90073
383.90064
383.90044
383.90011
383.89966
383.8991
383.89945
383.89991
383.90015
383.90028
383.9003
383.90021
383.9
383.89966
383.89921
383.89863
383.89904
383.8994
383.89961
383.89974
383.89975
383.89965
383.89944
383.8991
383.89863
383.89802
392.29571
392.29634
392.29668
392.29689
392.29698
392.29694
392.29678
392.29652
392.29616
392.29573
392.29634
392.2969
392.29723
392.29743
392.29751
392.29747
392.2973
392.29702
392.29662
392.29609
392.29668
392.29723
392.29755
392.29774
392.29781
392.29776
392.29759
392.29729
392.29687
392.29631
392.29689
392.29743
392.29774
392.29792
392.29799
392.29793
392.29774
392.29744
392.297
392.29643
392.29698
392.29751
392.29781
392.29799
392.29804
392.29797
392.29778
392.29746
392.29702
392.29644
392.29694
392.29747
392.29776
392.29793
392.29797
392.2979
392.2977
392.29737
392.29692
392.29634
392.29678
392.2973
392.29759
392.29774
392.29778
392.2977
392.29749
392.29715
392.29669
392.29611
392.29652
392.29702
392.29729
392.29744
392.29746
392.29737
392.29715
392.29681
392.29634
392.29575
392.29616
392.29662
392.29687
392.297
392.29702
392.29692
392.29669
392.29634
392.29587
392.29526
392.29573
392.29609
392.29631
392.29643
392.29644
392.29634
392.29611
392.29575
392.29526
392.29462
400.50554
400.50618
400.50653
400.50674
400.50682
400.50677
400.50661
400.50633
400.50596
400.50552
400.50618
400.50675
400.50708
400.50728
400.50736
400.50731
400.50714
400.50685
400.50644
400.50589
400.50653
400.50708
400.5074
400.50759
400.50766
400.50761
400.50743
400.50712
400.50668
400.50611
400.50674
400.50728
400.50759
400.50778
400.50784
400.50777
400.50758
400.50726
400.50681
400.50622
400.50682
400.50736
400.50766
400.50784
400.50789
400.50782
400.50762
400.50729
400.50683
400.50623
400.50677
400.50731
400.50761
400.50777
400.50782
400.50773
400.50752
400.50719
400.50672
400.50612
400.50661
400.50714
400.50743
400.50758
400.50762
400.50752
400.50731
400.50696
400.50648
400.50588
400.50633
400.50685
400.50712
400.50726
400.50729
400.50719
400.50696
400.5066
400.50612
400.50551
400.50596
400.50644
400.50668
400.50681
400.50683
400.50672
400.50648
400.50612
400.50563
400.505
400.50552
400.50589
400.50611
400.50622
400.50623
400.50612
400.50588
400.50551
400.505
400.50434
408.53944
408.54009
408.54044
408.54065
408.54073
408.54068
408.54051
408.54022
408.53984
408.53938
408.54009
408.54066
408.541
408.5412
408.54127
408.54122
408.54104
408.54074
408.54032
408.53976
408.54044
408.541
408.54132
408.54151
408.54158
408.54152
408.54133
408.54101
408.54056
408.53998
408.54065
408.5412
408.54151
408.5417
408.54176
408.54168
408.54149
408.54116
408.54069
408.54009
408.54073
408.54127
408.54158
408.54176
408.5418
408.54172
408.54152
408.54118
408.5407
408.54009
408.54068
408.54122
408.54152
408.54168
408.54172
408.54164
408.54142
408.54107
408.54059
408.53998
408.54051
408.54104
408.54133
408.54149
408.54152
408.54142
408.54119
408.54083
408.54035
408.53973
408.54022
408.54074
408.54101
408.54116
408.54118
408.54107
408.54083
408.54047
408.53997
408.53935
408.53984
408.54032
408.54056
408.54069
408.5407
408.54059
408.54035
408.53997
408.53947
408.53883
408.53938
408.53976
408.53998
408.54009
408.54009
408.53998
408.53973
408.53935
408.53883
408.53815
416.4074
416.40805
416.4084
416.40861
416.40868
416.40863
416.40846
416.40816
416.40777
416.40731
416.40805
416.40863
416.40896
416.40916
416.40923
416.40918
416.40899
416.40869
416.40825
416.40768
416.4084
416.40896
416.40928
416.40947
416.40954
416.40947
416.40928
416.40895
416.4085
416.4079
416.40861
416.40916
416.40947
416.40966
416.40971
416.40964
416.40943
416.4091
416.40862
416.40801
416.40868
416.40923
416.40954
416.40971
416.40976
416.40967
416.40946
416.40911
416.40863
416.40801
416.40863
416.40918
416.40947
416.40964
416.40967
416.40958
416.40936
416.409
416.40851
416.40789
416.40846
416.40899
416.40928
416.40943
416.40946
416.40936
416.40912
416.40876
416.40826
416.40763
416.40816
416.40869
416.40895
416.4091
416.40911
416.409
416.40876
416.40839
416.40788
416.40725
416.40777
416.40825
416.4085
416.40862
416.40863
416.40851
416.40826
416.40788
416.40736
416.40671
416.40731
416.40768
416.4079
416.40801
416.40801
416.40789
416.40763
416.40725
416.40671
416.40603
424.11852
424.11918
424.11952
424.11973
424.1198
424.11974
424.11956
424.11927
424.11887
424.1184
424.11918
424.11975
424.12008
424.12028
424.12035
424.12029
424.1201
424.11979
424.11935
424.11877
424.11952
424.12008
424.1204
424.12059
424.12065
424.12058
424.12038
424.12005
424.11959
424.11899
424.11973
424.12028
424.12059
424.12077
424.12082
424.12074
424.12053
424.12019
424.11971
424.1191
424.1198
424.12035
424.12065
424.12082
424.12086
424.12077
424.12055
424.1202
424.11972
424.11909
424.11974
424.12029
424.12058
424.12074
424.12077
424.12068
424.12045
424.12009
424.11959
424.11896
424.11956
424.1201
424.12038
424.12053
424.12055
424.12045
424.12021
424.11984
424.11934
424.11871
424.11927
424.11979
424.12005
424.12019
424.1202
424.12009
424.11984
424.11946
424.11895
424.11831
424.11887
424.11935
424.11959
424.11971
424.11972
424.11959
424.11934
424.11895
424.11843
424.11778
424.1184
424.11877
424.11899
424.1191
424.11909
424.11896
424.11871
424.11831
424.11778
424.11708
431.68117
431.68181
431.68216
431.68236
431.68243
431.68237
431.68219
431.68189
431.68148
431.68102
431.68181
431.68239
431.68271
431.68291
431.68297
431.68291
431.68272
431.6824
431.68196
431.68138
431.68216
431.68271
431.68303
431.68321
431.68327
431.68319
431.68299
431.68266
431.6822
431.68159
431.68236
431.68291
431.68321
431.68339
431.68343
431.68335
431.68314
431.68279
431.68232
431.6817
431.68243
431.68297
431.68327
431.68343
431.68347
431.68338
431.68316
431.6828
431.68231
431.68169
431.68237
431.68291
431.68319
431.68335
431.68338
431.68328
431.68305
431.68268
431.68219
431.68156
431.68219
431.68272
431.68299
431.68314
431.68316
431.68305
431.68281
431.68244
431.68193
431.6813
431.68189
431.6824
431.68266
431.68279
431.6828
431.68268
431.68244
431.68206
431.68154
431.6809
431.68148
431.68196
431.6822
431.68232
431.68231
431.68219
431.68193
431.68154
431.68102
431.68036
431.68102
431.68138
431.68159
431.6817
431.68169
431.68156
431.6813
431.6809
431.68036
431.67966
439.10302
439.10366
439.10399
439.10419
439.10425
439.10419
439.10401
439.10371
439.1033
439.10284
439.10366
439.10422
439.10454
439.10473
439.10479
439.10472
439.10453
439.10421
439.10377
439.1032
439.10399
439.10454
439.10485
439.10502
439.10508
439.105
439.1048
439.10447
439.104
439.1034
439.10419
439.10473
439.10502
439.10519
439.10524
439.10515
439.10494
439.1046
439.10412
439.1035
439.10425
439.10479
439.10508
439.10524
439.10527
439.10518
439.10495
439.1046
439.10411
439.10349
439.10419
439.10472
439.105
439.10515
439.10518
439.10507
439.10484
439.10448
439.10398
439.10336
439.10401
439.10453
439.1048
439.10494
439.10495
439.10484
439.1046
439.10423
439.10373
439.10309
439.10371
439.10421
439.10447
439.1046
439.1046
439.10448
439.10423
439.10385
439.10334
439.1027
439.1033
439.10377
439.104
439.10412
439.10411
439.10398
439.10373
439.10334
439.10281
439.10216
439.10284
439.1032
439.1034
439.1035
439.10349
439.10336
439.10309
439.1027
439.10216
439.10146
446.39117
446.3918
446.39212
446.39231
446.39237
446.39231
446.39212
446.39183
446.39143
446.39097
446.3918
446.39235
446.39266
446.39284
446.3929
446.39283
446.39264
446.39232
446.39189
446.39131
446.39212
446.39266
446.39296
446.39313
446.39318
446.3931
446.3929
446.39257
446.39211
446.39151
446.39231
446.39284
446.39313
446.3933
446.39333
446.39325
446.39303
446.39269
446.39222
446.39161
446.39237
446.3929
446.39318
446.39333
446.39336
446.39327
446.39305
446.39269
446.39221
446.39159
446.39231
446.39283
446.3931
446.39325
446.39327
446.39316
446.39293
446.39257
446.39208
446.39146
446.39212
446.39264
446.3929
446.39303
446.39305
446.39293
446.39269
446.39232
446.39182
446.3912
446.39183
446.39232
446.39257
446.39269
446.39269
446.39257
446.39232
446.39194
446.39144
446.3908
446.39143
446.39189
446.39211
446.39222
446.39221
446.39208
446.39182
446.39144
446.39092
446.39027
446.39097
446.39131
446.39151
446.39161
446.39159
446.39146
446.3912
446.3908
446.39027
446.38958
453.55221
453.55282
453.55314
453.55332
453.55337
453.55331
453.55312
453.55283
453.55243
453.55198
453.55282
453.55336
453.55366
453.55383
453.55388
453.55381
453.55362
453.55331
453.55288
453.55232
453.55314
453.55366
453.55395
453.55411
453.55416
453.55408
453.55388
453.55355
453.5531
453.55251
453.55332
453.55383
453.55411
453.55427
453.5543
453.55422
453.554
453.55367
453.5532
453.5526
453.55337
453.55388
453.55416
453.5543
453.55433
453.55423
453.55401
453.55366
453.55319
453.55258
453.55331
453.55381
453.55408
453.55422
453.55423
453.55413
453.5539
453.55354
453.55306
453.55244
453.55312
453.55362
453.55388
453.554
453.55401
453.5539
453.55366
453.55329
453.5528
453.55218
453.55283
453.55331
453.55355
453.55367
453.55366
453.55354
453.55329
453.55292
453.55242
453.5518
453.55243
453.55288
453.5531
453.5532
453.55319
453.55306
453.5528
453.55242
453.55191
453.55127
453.55198
453.55232
453.55251
453.5526
453.55258
453.55244
453.55218
453.5518
453.55127
453.55059
460.59225
460.59284
460.59314
460.59332
460.59337
460.5933
460.59312
460.59283
460.59244
460.59199
460.59284
460.59336
460.59365
460.59381
460.59386
460.59379
460.5936
460.59329
460.59287
460.59232
460.59314
460.59365
460.59393
460.59408
460.59412
460.59404
460.59384
460.59352
460.59308
460.5925
460.59332
460.59381
460.59408
460.59423
460.59426
460.59417
460.59397
460.59363
460.59318
460.59259
460.59337
460.59386
460.59412
460.59426
460.59429
460.59419
460.59397
460.59363
460.59316
460.59257
460.5933
460.59379
460.59404
460.59417
460.59419
460.59408
460.59385
460.5935
460.59303
460.59243
460.59312
460.5936
460.59384
460.59397
460.59397
460.59385
460.59362
460.59326
460.59278
460.59217
460.59283
460.59329
460.59352
460.59363
460.59363
460.5935
460.59326
460.59289
460.5924
460.59179
460.59244
460.59287
460.59308
460.59318
460.59316
460.59303
460.59278
460.5924
460.5919
460.59128
460.59199
460.59232
460.5925
460.59259
460.59257
460.59243
460.59217
460.59179
460.59128
460.59061
467.51698
467.51755
467.51784
467.51801
467.51805
467.51798
467.5178
467.51752
467.51714
467.51671
467.51755
467.51805
467.51833
467.51849
467.51853
467.51845
467.51827
467.51797
467.51756
467.51702
467.51784
467.51833
467.51859
467.51874
467.51878
467.5187
467.5185
467.51819
467.51776
467.5172
467.51801
467.51849
467.51874
467.51889
467.51891
467.51882
467.51862
467.51829
467.51785
467.51727
467.51805
467.51853
467.51878
467.51891
467.51893
467.51883
467.51862
467.51828
467.51783
467.51725
467.51798
467.51845
467.5187
467.51882
467.51883
467.51873
467.5185
467.51816
467.5177
467.51712
467.5178
467.51827
467.5185
467.51862
467.51862
467.5185
467.51827
467.51792
467.51745
467.51687
467.51752
467.51797
467.51819
467.51829
467.51828
467.51816
467.51792
467.51756
467.51709
467.51649
467.51714
467.51756
467.51776
467.51785
467.51783
467.5177
467.51745
467.51709
467.5166
467.51599
467.51671
467.51702
467.5172
467.51727
467.51725
467.51712
467.51687
467.51649
467.51599
467.51534
474.33174
474.33228
474.33256
474.33272
474.33276
474.33269
474.33252
474.33224
474.33187
474.33145
474.33228
474.33276
474.33303
474.33318
474.33321
474.33314
474.33296
474.33267
474.33227
474.33175
474.33256
474.33303
474.33328
474.33342
474.33345
474.33337
474.33318
474.33288
474.33246
474.33191
474.33272
474.33318
474.33342
474.33355
474.33358
474.33349
474.33329
474.33297
474.33254
474.33199
474.33276
474.33321
474.33345
474.33358
474.33359
474.3335
474.33329
474.33296
474.33252
474.33196
474.33269
474.33314
474.33337
474.33349
474.3335
474.33339
474.33317
474.33284
474.33239
474.33183
474.33252
474.33296
474.33318
474.33329
474.33329
474.33317
474.33295
474.33261
474.33215
474.33158
474.33224
474.33267
474.33288
474.33297
474.33296
474.33284
474.33261
474.33226
474.3318
474.33122
474.33187
474.33227
474.33246
474.33254
474.33252
474.33239
474.33215
474.3318
474.33132
474.33074
474.33145
474.33175
474.33191
474.33199
474.33196
474.33183
474.33158
474.33122
474.33074
474.33011
481.04152
481.04203
481.0423
481.04244
481.04248
481.04241
481.04224
481.04197
481.04162
481.04121
481.04203
481.04249
481.04274
481.04288
481.04291
481.04284
481.04266
481.04238
481.042
481.0415
481.0423
481.04274
481.04298
481.04311
481.04313
481.04305
481.04287
481.04257
481.04217
481.04165
481.04244
481.04288
481.04311
481.04323
481.04325
481.04316
481.04297
481.04266
481.04225
481.04172
481.04248
481.04291
481.04313
481.04325
481.04326
481.04317
481.04296
481.04265
481.04223
481.04169
481.04241
481.04284
481.04305
481.04316
481.04317
481.04306
481.04285
481.04253
481.0421
481.04156
481.04224
481.04266
481.04287
481.04297
481.04296
481.04285
481.04263
481.0423
481.04187
481.04132
481.04197
481.04238
481.04257
481.04266
481.04265
481.04253
481.0423
481.04197
481.04152
481.04097
481.04162
481.042
481.04217
481.04225
481.04223
481.0421
481.04187
481.04152
481.04107
481.0405
481.04121
481.0415
481.04165
481.04172
481.04169
481.04156
481.04132
481.04097
481.0405
481.0399
487.65099
487.65148
487.65172
487.65186
487.65189
487.65182
487.65166
487.6514
487.65107
487.65068
487.65148
487.65191
487.65214
487.65227
487.6523
487.65223
487.65206
487.65179
487.65142
487.65094
487.65172
487.65214
487.65236
487.65249
487.65251
487.65243
487.65225
487.65197
487.65158
487.65108
487.65186
487.65227
487.65249
487.6526
487.65262
487.65253
487.65234
487.65205
487.65165
487.65114
487.65189
487.6523
487.65251
487.65262
487.65262
487.65253
487.65233
487.65203
487.65163
487.65112
487.65182
487.65223
487.65243
487.65253
487.65253
487.65243
487.65223
487.65192
487.65151
487.65099
487.65166
487.65206
487.65225
487.65234
487.65233
487.65223
487.65201
487.6517
487.65128
487.65076
487.6514
487.65179
487.65197
487.65205
487.65203
487.65192
487.6517
487.65138
487.65095
487.65043
487.65107
487.65142
487.65158
487.65165
487.65163
487.65151
487.65128
487.65095
487.65052
487.64998
487.65068
487.65094
487.65108
487.65114
487.65112
487.65099
487.65076
487.65043
487.64998
487.6494
494.16457
494.16503
494.16525
494.16538
494.16541
494.16534
494.16518
494.16494
494.16462
494.16425
494.16503
494.16543
494.16564
494.16576
494.16579
494.16572
494.16555
494.1653
494.16495
494.16449
494.16525
494.16564
494.16585
494.16596
494.16598
494.16591
494.16573
494.16547
494.1651
494.16463
494.16538
494.16576
494.16596
494.16607
494.16608
494.166
494.16582
494.16554
494.16516
494.16468
494.16541
494.16579
494.16598
494.16608
494.16609
494.16599
494.16581
494.16552
494.16514
494.16465
494.16534
494.16572
494.16591
494.166
494.16599
494.1659
494.1657
494.16541
494.16502
494.16453
494.16518
494.16555
494.16573
494.16582
494.16581
494.1657
494.1655
494.1652
494.1648
494.16431
494.16494
494.1653
494.16547
494.16554
494.16552
494.16541
494.1652
494.16489
494.16449
494.16399
494.16462
494.16495
494.1651
494.16516
494.16514
494.16502
494.1648
494.16449
494.16408
494.16356
494.16425
494.16449
494.16463
494.16468
494.16465
494.16453
494.16431
494.16399
494.16356
494.16302
500.5864
500.58683
500.58704
500.58715
500.58718
500.58711
500.58696
500.58673
500.58642
500.58608
500.58683
500.5872
500.5874
500.58751
500.58753
500.58746
500.5873
500.58706
500.58673
500.5863
500.58704
500.5874
500.58759
500.58769
500.58771
500.58763
500.58747
500.58722
500.58687
500.58642
500.58715
500.58751
500.58769
500.58779
500.5878
500.58772
500.58754
500.58728
500.58693
500.58647
500.58718
500.58753
500.58771
500.5878
500.5878
500.58771
500.58753
500.58726
500.5869
500.58644
500.58711
500.58746
500.58763
500.58772
500.58771
500.58762
500.58743
500.58715
500.58679
500.58632
500.58696
500.5873
500.58747
500.58754
500.58753
500.58743
500.58724
500.58696
500.58658
500.58612
500.58673
500.58706
500.58722
500.58728
500.58726
500.58715
500.58696
500.58667
500.58629
500.58582
500.58642
500.58673
500.58687
500.58693
500.5869
500.58679
500.58658
500.58629
500.5859
500.58541
500.58608
500.5863
500.58642
500.58647
500.58644
500.58632
500.58612
500.58582
500.58541
500.5849
506.92041
506.9208
506.921
506.9211
506.92112
506.92105
506.92091
506.92069
506.92041
506.92008
506.9208
506.92115
506.92133
506.92143
506.92144
506.92137
506.92123
506.921
506.92069
506.92029
506.921
506.92133
506.9215
506.92159
506.9216
506.92153
506.92138
506.92114
506.92082
506.9204
506.9211
506.92143
506.92159
506.92168
506.92168
506.92161
506.92144
506.9212
506.92086
506.92044
506.92112
506.92144
506.9216
506.92168
506.92168
506.9216
506.92143
506.92118
506.92084
506.92041
506.92105
506.92137
506.92153
506.92161
506.9216
506.92151
506.92133
506.92107
506.92073
506.9203
506.92091
506.92123
506.92138
506.92144
506.92143
506.92133
506.92115
506.92089
506.92054
506.9201
506.92069
506.921
506.92114
506.9212
506.92118
506.92107
506.92089
506.92062
506.92026
506.91982
506.92041
506.92069
506.92082
506.92086
506.92084
506.92073
506.92054
506.92026
506.91989
506.91944
506.92008
506.92029
506.9204
506.92044
506.92041
506.9203
506.9201
506.91982
506.91944
506.91896
513.1703
513.17065
513.17083
513.17092
513.17093
513.17087
513.17074
513.17054
513.17027
513.16997
513.17065
513.17097
513.17113
513.17122
513.17123
513.17116
513.17102
513.17081
513.17053
513.17016
513.17083
513.17113
513.17129
513.17137
513.17137
513.17131
513.17116
513.17094
513.17064
513.17025
513.17092
513.17122
513.17137
513.17144
513.17145
513.17137
513.17122
513.17099
513.17068
513.17029
513.17093
513.17123
513.17137
513.17145
513.17144
513.17136
513.1712
513.17097
513.17065
513.17026
513.17087
513.17116