/*--------------------------------*- C++ -*----------------------------------*\
| =========                 |                                                 |
| \\      /  F ield         | OpenFOAM: The Open Source CFD Toolbox           |
|  \\    /   O peration     | Version:  v2106                                 |
|   \\  /    A nd           | Website:  www.openfoam.com                      |
|    \\/     M anipulation  |                                                 |
\*---------------------------------------------------------------------------*/
FoamFile
{
    version     2.0;
    format      ascii;
    arch        "LSB;label=32;scalar=64";
    class       volScalarField;
    location    "20";
    object      Tmode_lapla2;
}
// * * * * * * * * * * * * * * * * * * * * * * * * * * * * * * * * * * * * * //

dimensions      [0 -2 0 0 0 0 0];

internalField   nonuniform List<scalar> 
4000
(
0.05273308
0.052670968
0.052737501
0.052761753
0.052689053
0.052710504
0.052725812
0.05272809
0.052726983
0.052725091
0.052670968
0.052718918
0.052771869
0.052704508
0.052683924
0.052717945
0.052731091
0.052731199
0.052730065
0.05272978
0.0527375
0.052771869
0.05275122
0.052733587
0.052718453
0.052747801
0.052758042
0.052756666
0.052751381
0.052739789
0.052761753
0.052704508
0.052733587
0.052725547
0.052708856
0.052735666
0.052745166
0.052746542
0.052744996
0.052733386
0.052689053
0.052683924
0.052718453
0.052708856
0.052689299
0.052713487
0.052720566
0.052721708
0.052725374
0.052724056
0.052710504
0.052717945
0.052747801
0.052735666
0.052713487
0.052735573
0.052740212
0.052737273
0.052735848
0.052729547
0.052725812
0.052731091
0.052758042
0.052745166
0.052720566
0.052740212
0.052744123
0.052740353
0.052737412
0.052729172
0.05272809
0.052731199
0.052756666
0.052746542
0.052721708
0.052737273
0.052740353
0.052737214
0.052735312
0.052728718
0.052726983
0.052730065
0.052751381
0.052744996
0.052725374
0.052735848
0.052737412
0.052735312
0.052735538
0.052731385
0.052725091
0.05272978
0.052739789
0.052733386
0.052724056
0.052729547
0.052729172
0.052728718
0.052731385
0.052725989
0.15859789
0.15855367
0.15861704
0.1586403
0.15852421
0.15857447
0.1586052
0.1586088
0.15860526
0.1585988
0.15855367
0.15861396
0.1586496
0.1585516
0.15852977
0.15859806
0.15862258
0.15862287
0.15862033
0.15862091
0.15861704
0.1586496
0.15860825
0.15858898
0.15857173
0.15862991
0.15864922
0.15864592
0.15862824
0.1586079
0.1586403
0.1585516
0.15858898
0.15858288
0.1585611
0.15861347
0.15863206
0.15863747
0.15862821
0.15860598
0.15852421
0.15852977
0.15857173
0.1585611
0.15853267
0.15857851
0.15859099
0.15859615
0.15859786
0.15859364
0.15857447
0.15859806
0.15862991
0.15861347
0.15857851
0.15861893
0.15862526
0.15862122
0.15861257
0.15859846
0.1586052
0.15862258
0.15864922
0.15863206
0.15859099
0.15862526
0.15862951
0.15862357
0.15861213
0.15859607
0.1586088
0.15862287
0.15864592
0.15863747
0.15859615
0.15862122
0.15862357
0.15861962
0.15861182
0.15860148
0.15860526
0.15862033
0.15862824
0.15862821
0.15859786
0.15861257
0.15861213
0.15861182
0.15861062
0.15860247
0.1585988
0.15862091
0.1586079
0.15860598
0.15859364
0.15859846
0.15859607
0.15860148
0.15860247
0.15858837
0.26568558
0.26567951
0.26571063
0.26573064
0.26560611
0.26568125
0.26572141
0.26572582
0.26572013
0.26569742
0.26567951
0.26572374
0.26575501
0.26563801
0.26562862
0.26572232
0.2657533
0.26575219
0.26574925
0.2657446
0.26571063
0.26575501
0.26570265
0.26568047
0.26567367
0.26575309
0.26577967
0.26577488
0.2657435
0.26571399
0.26573064
0.26563801
0.26568047
0.26567243
0.26565766
0.26572711
0.26575275
0.26576409
0.26574683
0.26571586
0.26560611
0.26562862
0.26567367
0.26565766
0.26563251
0.26569109
0.26570566
0.26571454
0.26571005
0.26569968
0.26568125
0.26572232
0.26575309
0.26572711
0.26569109
0.26574119
0.26574619
0.26574143
0.26572231
0.26569957
0.26572141
0.2657533
0.26577967
0.26575275
0.26570566
0.26574619
0.26574816
0.26574122
0.26571967
0.26569903
0.26572582
0.26575219
0.26577488
0.26576409
0.26571454
0.26574143
0.26574122
0.26573893
0.26572572
0.26571354
0.26572013
0.26574925
0.2657435
0.26574683
0.26571005
0.26572231
0.26571967
0.26572572
0.26572439
0.2657031
0.26569742
0.2657446
0.26571399
0.26571586
0.26569968
0.26569957
0.26569903
0.26571354
0.2657031
0.26568868
0.37482447
0.3748121
0.37484232
0.37487711
0.37473469
0.37482799
0.37487574
0.37488151
0.37487939
0.37483269
0.3748121
0.3748589
0.37490097
0.37477206
0.37476487
0.3748781
0.37491607
0.37491143
0.37490912
0.37490086
0.37484232
0.37490097
0.37484314
0.37482519
0.37481916
0.37491387
0.37494978
0.3749435
0.37489894
0.37486079
0.37487711
0.37477206
0.37482519
0.37482303
0.37480593
0.37488617
0.37492045
0.37493625
0.37490766
0.37486405
0.37473469
0.37476487
0.37481916
0.37480593
0.37477506
0.37484028
0.37485912
0.37487136
0.37485825
0.37483963
0.37482799
0.3748781
0.37491387
0.37488617
0.37484028
0.37489394
0.37489987
0.37489457
0.37486361
0.37483331
0.37487574
0.37491607
0.37494978
0.37492045
0.37485912
0.37489987
0.3749018
0.3748945
0.37486275
0.37484082
0.37488151
0.37491143
0.3749435
0.37493625
0.37487136
0.37489457
0.3748945
0.37489556
0.37487827
0.37486136
0.37487939
0.37490912
0.37489894
0.37490766
0.37485825
0.37486361
0.37486275
0.37487827
0.37487602
0.37483722
0.37483269
0.37490086
0.37486079
0.37486405
0.37483963
0.37483331
0.37484082
0.37486136
0.37483722
0.37482578
0.48674834
0.486732
0.48676838
0.48682087
0.48665353
0.48676217
0.48681746
0.48682413
0.48682478
0.48675718
0.486732
0.48678524
0.48684467
0.48670086
0.48668891
0.48681872
0.48686588
0.48686059
0.48685873
0.48684598
0.48676838
0.48684467
0.48678398
0.48676849
0.48675654
0.48686296
0.4869096
0.48690308
0.48684372
0.4867953
0.48682087
0.48670086
0.48676849
0.48677096
0.48674504
0.4868325
0.48687723
0.48689901
0.48685717
0.48679873
0.48665353
0.48668891
0.48675654
0.48674504
0.48670199
0.48677021
0.48679533
0.48681309
0.48679037
0.48676304
0.48676217
0.48681872
0.48686296
0.4868325
0.48677021
0.48682357
0.48683235
0.48682885
0.48678564
0.48674952
0.48681746
0.48686588
0.4869096
0.48687723
0.48679533
0.48683235
0.48683622
0.48683138
0.48679018
0.48677055
0.48682413
0.48686059
0.48690308
0.48689901
0.48681309
0.48682885
0.48683138
0.48683967
0.4868198
0.4867934
0.48682478
0.48685873
0.48684372
0.48685717
0.48679037
0.48678564
0.48679018
0.4868198
0.48681164
0.48675677
0.48675718
0.48684598
0.4867953
0.48679873
0.48676304
0.48674952
0.48677055
0.4867934
0.48675677
0.48674916
0.60213495
0.6021276
0.60216645
0.60223823
0.60204025
0.6021625
0.60222577
0.60223561
0.60223982
0.60215229
0.6021276
0.60219127
0.60226833
0.60210648
0.60208457
0.60222844
0.60228426
0.6022796
0.60227943
0.60226321
0.60216645
0.60226833
0.60220176
0.60218698
0.60216436
0.60228005
0.60233715
0.60233097
0.60225721
0.60219953
0.60223823
0.60210648
0.60218698
0.60219273
0.6021533
0.60224555
0.60230096
0.60232993
0.60227538
0.60220256
0.60204025
0.60208457
0.60216436
0.6021533
0.60209327
0.6021619
0.60219355
0.60221843
0.60218742
0.60215329
0.6021625
0.60222844
0.60228005
0.60224555
0.6021619
0.60221213
0.60222382
0.60222367
0.60216985
0.60213152
0.60222577
0.60228426
0.60233715
0.60230096
0.60219355
0.60222382
0.60222965
0.60222929
0.60218155
0.60216999
0.60223561
0.6022796
0.60233097
0.60232993
0.60221843
0.60222367
0.60222929
0.6022483
0.60223031
0.60219389
0.60223982
0.60227943
0.60225721
0.60227538
0.60218742
0.60216985
0.60218155
0.60223031
0.60221489
0.60214512
0.60215229
0.60226321
0.60219953
0.60220256
0.60215329
0.60213152
0.60216999
0.60219389
0.60214512
0.60214238
0.72159321
0.72159814
0.72163463
0.72172861
0.72149517
0.72162974
0.72170018
0.72171286
0.72172007
0.72161068
0.72159814
0.72166967
0.72176487
0.72158325
0.72154765
0.72170446
0.72176804
0.72176294
0.72176469
0.72174575
0.72163463
0.72176487
0.72168926
0.72167475
0.72163808
0.72176202
0.72182916
0.72182187
0.72173265
0.72166674
0.72172861
0.72158325
0.72167475
0.72168368
0.72162732
0.72172331
0.72178936
0.72182472
0.7217564
0.72166937
0.72149517
0.72154765
0.72163808
0.72162732
0.72154676
0.72161449
0.72165256
0.72168403
0.72164437
0.72160476
0.72162974
0.72170446
0.72176202
0.72172331
0.72161449
0.72166003
0.72167423
0.72167671
0.72161194
0.72157378
0.72170018
0.72176804
0.72182916
0.72178936
0.72165256
0.72167423
0.72168149
0.72168503
0.72163112
0.72163182
0.72171286
0.72176294
0.72182187
0.72182472
0.72168403
0.72167671
0.72168503
0.7217151
0.72170105
0.72165598
0.72172007
0.72176469
0.72173265
0.7217564
0.72164437
0.72161194
0.72163112
0.72170105
0.72167814
0.72159578
0.72161068
0.72174575
0.72166674
0.72166937
0.72160476
0.72157378
0.72163182
0.72165598
0.72159578
0.72159925
0.84559572
0.84561353
0.84564368
0.84576399
0.8454909
0.84563743
0.845715
0.84573029
0.84574049
0.84560698
0.84561353
0.84568902
0.84580408
0.84560197
0.84554968
0.84571952
0.84579112
0.84578466
0.84578917
0.84576885
0.84564368
0.84580408
0.84571716
0.84570342
0.84564996
0.84578226
0.84586011
0.8458504
0.84574475
0.84567219
0.84576399
0.84560197
0.84570342
0.84571629
0.84564021
0.84573993
0.84581767
0.84585879
0.84577561
0.84567479
0.8454909
0.84554968
0.84564996
0.84564021
0.84553612
0.84560272
0.84564815
0.84568587
0.84563716
0.84559349
0.84563743
0.84571952
0.84578226
0.84573993
0.84560272
0.84564306
0.84566045
0.84566496
0.84558874
0.84555279
0.845715
0.84579112
0.84586011
0.84581767
0.84564815
0.84566045
0.84566963
0.84567642
0.84561614
0.84563205
0.84573029
0.84578466
0.8458504
0.84585879
0.84568587
0.84566496
0.84567642
0.84571734
0.84570783
0.84565527
0.84574049
0.84578917
0.84574475
0.84577561
0.84563716
0.84558874
0.84561614
0.84570783
0.84567679
0.84558459
0.84560698
0.84576885
0.84567219
0.84567479
0.84559349
0.84555279
0.84563205
0.84565527
0.84558459
0.84559554
0.97446357
0.97449498
0.97451523
0.97466667
0.97434993
0.97450847
0.97459372
0.97461177
0.97462541
0.97446555
0.97449498
0.97457065
0.97470796
0.97448504
0.9744132
0.97459661
0.97467721
0.97466872
0.97467732
0.97465728
0.97451523
0.97470796
0.97460791
0.97459583
0.97452292
0.97466411
0.97475408
0.97474078
0.9746179
0.97454061
0.97466667
0.97448504
0.97459583
0.97461379
0.97451524
0.9746191
0.97471034
0.9747568
0.97465771
0.97454369
0.97434993
0.9744132
0.97452292
0.97451524
0.97438469
0.97445032
0.9745048
0.9745487
0.97449066
0.97444455
0.97450847
0.97459661
0.97466411
0.9746191
0.97445032
0.97448538
0.9745074
0.97451367
0.97442568
0.97439397
0.97459372
0.97467721
0.97475408
0.97471034
0.9745048
0.9745074
0.97451982
0.97452954
0.97446268
0.97449626
0.97461177
0.97466872
0.97474078
0.9747568
0.9745487
0.97451367
0.97452954
0.97458122
0.97457638
0.97451677
0.97462541
0.97467732
0.9746179
0.97465771
0.97449066
0.97442568
0.97446268
0.97457638
0.97453598
0.97443674
0.97446555
0.97465728
0.97454061
0.97454369
0.97444455
0.97439397
0.97449626
0.97451677
0.97443674
0.97445617
1.1083308
1.1083767
1.1083836
1.1085713
1.1082068
1.1083775
1.1084712
1.1084923
1.1085101
1.1083214
1.1083767
1.1084489
1.108611
1.1083672
1.1082728
1.1084704
1.1085612
1.1085501
1.1085643
1.1085464
1.1083836
1.108611
1.1084961
1.1084868
1.1083916
1.1085423
1.1086461
1.108628
1.1084871
1.1084072
1.1085713
1.1083672
1.1084868
1.1085111
1.1083872
1.1084957
1.1086026
1.108654
1.1085379
1.1084113
1.1082068
1.1082728
1.1083916
1.1083872
1.1082271
1.108292
1.1083576
1.1084077
1.1083401
1.1082932
1.1083775
1.1084704
1.1085423
1.1084957
1.108292
1.1083217
1.1083502
1.1083581
1.1082581
1.1082328
1.1084712
1.1085612
1.1086461
1.1086026
1.1083576
1.1083502
1.1083677
1.1083802
1.1083067
1.1083602
1.1084923
1.1085501
1.108628
1.108654
1.1084077
1.1083581
1.1083802
1.1084427
1.1084425
1.1083757
1.1085101
1.1085643
1.1084871
1.1085379
1.1083401
1.1082581
1.1083067
1.1084425
1.1083911
1.1082877
1.1083214
1.1085464
1.1084072
1.1084113
1.1082932
1.1082328
1.1083602
1.1083757
1.1082877
1.1083164
1.2470964
1.2471578
1.2471477
1.2473769
1.2469606
1.2471435
1.2472465
1.247271
1.2472936
1.2470737
1.2471578
1.2472227
1.2474121
1.2471474
1.2470275
1.2472397
1.2473422
1.2473277
1.2473492
1.2473354
1.2471477
1.2474121
1.2472809
1.2472753
1.247155
1.2473156
1.2474352
1.2474111
1.2472514
1.2471711
1.2473769
1.2471474
1.2472753
1.2473073
1.247155
1.2472685
1.2473934
1.2474494
1.2473152
1.2471768
1.2469606
1.2470275
1.247155
1.247155
1.2469621
1.2470264
1.2471055
1.2471617
1.2470843
1.2470385
1.2471435
1.2472397
1.2473156
1.2472685
1.2470264
1.2470507
1.2470879
1.2470972
1.2469849
1.2469684
1.2472465
1.2473422
1.2474352
1.2473934
1.2471055
1.2470879
1.2471123
1.2471275
1.2470474
1.2471234
1.247271
1.2473277
1.2474111
1.2474494
1.2471617
1.2470972
1.2471275
1.247201
1.2472057
1.2471312
1.2472936
1.2473492
1.2472514
1.2473152
1.2470843
1.2469849
1.2470474
1.2472057
1.2471411
1.2470368
1.2470737
1.2473354
1.2471711
1.2471768
1.2470385
1.2469684
1.2471234
1.2471312
1.2470368
1.2470753
1.3903673
1.3904452
1.3904147
1.3906904
1.3902183
1.3904133
1.3905264
1.3905547
1.3905829
1.390329
1.3904452
1.390499
1.3907182
1.3904327
1.3902839
1.3905112
1.3906268
1.3906081
1.3906388
1.390631
1.3904147
1.3907182
1.3905689
1.3905682
1.3904196
1.3905906
1.3907281
1.3906965
1.3905172
1.3904391
1.3906904
1.3904327
1.3905682
1.3906091
1.3904252
1.390544
1.3906896
1.3907495
1.3905961
1.3904468
1.3902183
1.3902839
1.3904196
1.3904252
1.3901962
1.39026
1.390355
1.3904174
1.3903299
1.3902873
1.3904133
1.3905112
1.3905906
1.390544
1.39026
1.3902787
1.3903268
1.3903373
1.3902127
1.3902077
1.3905264
1.3906268
1.3907281
1.3906896
1.390355
1.3903268
1.3903605
1.3903783
1.3902916
1.3903929
1.3905547
1.3906081
1.3906965
1.3907495
1.3904174
1.3903373
1.3903783
1.390463
1.3904726
1.3903899
1.3905829
1.3906388
1.3905172
1.3905961
1.3903299
1.3902127
1.3902916
1.3904726
1.3903925
1.3902908
1.390329
1.390631
1.3904391
1.3904468
1.3902873
1.3902077
1.3903929
1.3903899
1.3902908
1.3903399
1.5373904
1.5374854
1.537431
1.5377583
1.5372263
1.5374334
1.5375573
1.5375897
1.5376244
1.5373338
1.5374854
1.5375243
1.5377754
1.5374693
1.5372886
1.5375311
1.5376612
1.5376375
1.5376791
1.5376797
1.537431
1.5377754
1.5376066
1.5376118
1.537432
1.5376136
1.5377709
1.5377303
1.5375306
1.5374575
1.5377583
1.5374693
1.5376118
1.5376627
1.5374442
1.5375684
1.5377373
1.5378005
1.5376267
1.5374676
1.5372263
1.5372886
1.537432
1.5374442
1.5371757
1.5372388
1.5373524
1.5374207
1.537323
1.5372857
1.5374334
1.5375311
1.5376136
1.5375684
1.5372388
1.5372517
1.5373131
1.5373247
1.5371876
1.5371969
1.5375573
1.5376612
1.5377709
1.5377373
1.5373524
1.5373131
1.5373585
1.5373788
1.5372858
1.5374152
1.5375897
1.5376375
1.5377303
1.5378005
1.5374207
1.5373247
1.5373788
1.5374749
1.5374896
1.5373978
1.5376244
1.5376791
1.5375306
1.5376267
1.537323
1.5371876
1.5372858
1.5374896
1.5373914
1.5372963
1.5373338
1.5376797
1.5374575
1.5374676
1.5372857
1.5371969
1.5374152
1.5373978
1.5372963
1.5373565
1.686969
1.6870816
1.6870001
1.6873835
1.6867881
1.6870071
1.6871423
1.6871792
1.6872211
1.6868914
1.6870816
1.6871019
1.6873867
1.6870602
1.6868447
1.6871025
1.6872483
1.6872187
1.6872732
1.6872845
1.6870001
1.6873867
1.6871969
1.6872091
1.686995
1.6871873
1.6873666
1.6873153
1.6870947
1.6870294
1.6873835
1.6870602
1.6872091
1.6872712
1.6870148
1.6871445
1.6873392
1.687405
1.6872097
1.6870423
1.6867881
1.6868447
1.686995
1.6870148
1.6867035
1.6867658
1.6869006
1.6869746
1.6868664
1.6868369
1.6870071
1.6871025
1.6871873
1.6871445
1.6867658
1.6867725
1.6868497
1.686862
1.6867125
1.6867393
1.6871423
1.6872483
1.6873666
1.6873392
1.6869006
1.6868497
1.6869092
1.6869318
1.6868328
1.6869936
1.6871792
1.6872187
1.6873153
1.687405
1.6869746
1.686862
1.6869318
1.6870394
1.6870596
1.6869581
1.6872211
1.6872732
1.6870947
1.6872097
1.6868664
1.6867125
1.6868328
1.6870596
1.6869406
1.6868565
1.6868914
1.6872845
1.6870294
1.6870423
1.6868369
1.6867393
1.6869936
1.6869581
1.6868565
1.6869286
1.8373622
1.8374926
1.8373809
1.8378245
1.8371622
1.837393
1.8375401
1.8375816
1.8376316
1.8372602
1.8374926
1.8374907
1.8378104
1.8374639
1.8372109
1.8374838
1.8376466
1.8376099
1.8376793
1.8377038
1.8373809
1.8378104
1.8375984
1.8376186
1.8373674
1.8375704
1.8377734
1.8377098
1.8374677
1.8374134
1.8378245
1.8374639
1.8376186
1.8376927
1.8373954
1.8375306
1.8377536
1.8378211
1.8376034
1.8374294
1.8371622
1.8372109
1.8373674
1.8373954
1.8370382
1.8370996
1.837258
1.8373373
1.8372185
1.8371996
1.837393
1.8374838
1.8375704
1.8375306
1.8370996
1.8370997
1.837195
1.8372077
1.8370459
1.8370935
1.8375401
1.8376466
1.8377734
1.8377536
1.837258
1.837195
1.8372712
1.8372959
1.8371913
1.837387
1.8375816
1.8376099
1.8377098
1.8378211
1.8373373
1.8372077
1.8372959
1.8374152
1.8374412
1.8373291
1.8376316
1.8376793
1.8374677
1.8376034
1.8372185
1.8370459
1.8371913
1.8374412
1.8372985
1.8372301
1.8372602
1.8377038
1.8374134
1.8374294
1.8371996
1.8370935
1.837387
1.8373291
1.8372301
1.8373149
1.9861607
1.9863086
1.9861642
1.9866713
1.9859394
1.9861817
1.9863411
1.9863873
1.9864462
1.986031
1.9863086
1.9862811
1.9866368
1.9862705
1.9859776
1.9862655
1.9864462
1.9864013
1.9864874
1.9865278
1.9861642
1.9866368
1.9864013
1.9864304
1.9861395
1.986353
1.9865815
1.9865037
1.9862398
1.9862
1.9866713
1.9862705
1.9864304
1.9865172
1.9861764
1.9863167
1.9865704
1.9866385
1.9863977
1.9862192
1.9859394
1.9859776
1.9861395
1.9861764
1.9857704
1.9858305
1.986015
1.9860991
1.9859697
1.9859642
1.9861817
1.9862655
1.986353
1.9863167
1.9858305
1.9858236
1.9859395
1.985952
1.985778
1.98585
1.9863411
1.9864462
1.9865815
1.9865704
1.986015
1.9859395
1.9860347
1.9860612
1.9859517
1.9861858
1.9863873
1.9864013
1.9865037
1.9866385
1.9860991
1.985952
1.9860612
1.9861922
1.9862245
1.9861012
1.9864462
1.9864874
1.9862398
1.9863977
1.9859697
1.985778
1.9859517
1.9862245
1.9860551
1.9860077
1.986031
1.9865278
1.9862
1.9862192
1.9859642
1.98585
1.9861858
1.9861012
1.9860077
1.986106
2.1301351
2.1302998
2.1301206
2.1306938
2.1298898
2.1301437
2.1303154
2.1303663
2.1304348
2.129974
2.1302998
2.1302437
2.1306356
2.1302498
2.1299153
2.1302178
2.1304171
2.1303626
2.1304674
2.1305264
2.1301206
2.1306356
2.1303756
2.1304145
2.1300817
2.1303054
2.1305609
2.130467
2.130181
2.1301592
2.1306938
2.1302498
2.1304145
2.1305144
2.1301277
2.1302729
2.1305592
2.1306269
2.1303624
2.1301818
2.1298898
2.1299153
2.1300817
2.1301277
2.1296706
2.129729
2.1299417
2.1300299
2.1298899
2.129901
2.1301437
2.1302178
2.1303054
2.1302729
2.129729
2.1297149
2.1298535
2.1298652
2.1296792
2.1297794
2.1303154
2.1304171
2.1305609
2.1305592
2.1299417
2.1298535
2.1299699
2.1299979
2.129884
2.1301603
2.1303663
2.1303626
2.130467
2.1306269
2.1300299
2.1298652
2.1299979
2.1301406
2.1301797
2.1300446
2.1304348
2.1304674
2.130181
2.1303624
2.1298899
2.1296792
2.129884
2.1301797
2.1299806
2.1299596
2.129974
2.1305264
2.1301592
2.1301818
2.129901
2.1297794
2.1301603
2.1300446
2.1299596
2.1300724
2.2650496
2.26523
2.2650145
2.2656554
2.2647773
2.2650431
2.265227
2.2652823
2.2653612
2.2648534
2.26523
2.2651427
2.2655704
2.2651651
2.2647882
2.2651048
2.265323
2.2652575
2.2653827
2.2654631
2.2650145
2.2655704
2.265285
2.2653344
2.2649581
2.2651915
2.265475
2.2653633
2.2650552
2.2650549
2.2656554
2.2651651
2.2653344
2.2654476
2.2650131
2.2651628
2.2654834
2.2655495
2.2652608
2.2650809
2.2647773
2.2647882
2.2649581
2.2650131
2.2645031
2.2645595
2.2648021
2.2648936
2.2647432
2.264774
2.2650431
2.2651048
2.2651915
2.2651628
2.2645595
2.2645379
2.264701
2.2647112
2.2645137
2.2646457
2.265227
2.265323
2.265475
2.2654834
2.2648021
2.264701
2.2648408
2.2648698
2.2647523
2.2650745
2.2652823
2.2652575
2.2653633
2.2655495
2.2648936
2.2647112
2.2648698
2.265024
2.2650705
2.2649231
2.2653612
2.2653827
2.2650552
2.2652608
2.2647432
2.2645137
2.2647523
2.2650705
2.264839
2.26485
2.2648534
2.2654631
2.2650549
2.2650809
2.264774
2.2646457
2.2650745
2.2649231
2.26485
2.2649782
2.3854338
2.3856282
2.3853756
2.3860846
2.3851312
2.3854095
2.3856052
2.3856644
2.3857541
2.3851984
2.3856282
2.3855076
2.3859701
2.3855449
2.3851256
2.3854561
2.385693
2.3856149
2.385762
2.3858668
2.3853756
2.3859701
2.3856586
2.3857189
2.3852983
2.385541
2.385853
2.3857215
2.3853913
2.3854163
2.3860846
2.3855449
2.3857189
2.3858454
2.3853619
2.3855158
2.3858717
2.3859348
2.385622
2.3854459
2.3851312
2.3851256
2.3852983
2.3853619
2.3847976
2.3848519
2.3851256
2.3852193
2.3850589
2.3851129
2.3854095
2.3854561
2.385541
2.3855158
2.3848519
2.3848228
2.385012
2.3850198
2.3848112
2.3849786
2.3856052
2.385693
2.385853
2.3858717
2.3851256
2.385012
2.3851769
2.3852062
2.385086
2.3854577
2.3856644
2.3856149
2.3857215
2.3859348
2.3852193
2.3850198
2.3852062
2.3853715
2.3854262
2.3852661
2.3857541
2.385762
2.3853913
2.385622
2.3850589
2.3848112
2.385086
2.3854262
2.3851595
2.3852083
2.3851984
2.3858668
2.3854163
2.3854459
2.3851129
2.3849786
2.3854577
2.3852661
2.3852083
2.385353
2.4843035
2.4845097
2.48422
2.4849967
2.483967
2.484259
2.4844657
2.4845281
2.484629
2.4840251
2.4845097
2.4843547
2.4848502
2.4844044
2.4839436
2.4842879
2.4845427
2.4844504
2.4846208
2.4847529
2.48422
2.4848502
2.4845117
2.4845836
2.4841183
2.4843702
2.4847106
2.4845572
2.4842054
2.4842592
2.4849967
2.4844044
2.4845836
2.4847231
2.4841899
2.4843478
2.4847393
2.484798
2.4844615
2.4842924
2.483967
2.4839436
2.4841183
2.4841899
2.483571
2.4836231
2.4839285
2.4840231
2.4838531
2.4839337
2.484259
2.4842879
2.4843702
2.4843478
2.4836231
2.483587
2.483803
2.4838072
2.4835882
2.4837944
2.4844657
2.4845427
2.4847106
2.4847393
2.4839285
2.483803
2.4839942
2.4840232
2.4839011
2.4843257
2.4845281
2.4844504
2.4845572
2.484798
2.4840231
2.4838072
2.4840232
2.4841991
2.4842626
2.4840898
2.484629
2.4846208
2.4842054
2.4844615
2.4838531
2.4835882
2.4839011
2.4842626
2.4839585
2.4840506
2.4840251
2.4847529
2.4842592
2.4842924
2.4839337
2.4837944
2.4843257
2.4840898
2.4840506
2.4842127
2.5528234
2.5530387
2.5527127
2.5535554
2.5524487
2.5527564
2.5529733
2.5530377
2.55315
2.552498
2.5530387
2.5528488
2.5533751
2.5529072
2.5524072
2.5527657
2.5530371
2.5529284
2.5531232
2.5532856
2.5527127
2.5533751
2.5530087
2.5530927
2.5525835
2.5528445
2.5532125
2.5530353
2.5526621
2.5527481
2.5535554
2.5529072
2.5530927
2.5532445
2.5526621
2.5528239
2.5532507
2.5533035
2.5529438
2.5527853
2.5524487
2.5524072
2.5525835
2.5526621
2.5519888
2.5520392
2.5523761
2.5524702
2.5522913
2.5524016
2.5527564
2.5527657
2.5528445
2.5528239
2.5520392
2.5519971
2.5522401
2.5522394
2.5520103
2.5522582
2.5529733
2.5530371
2.5532125
2.5532507
2.5523761
2.5522401
2.5524584
2.552486
2.5523629
2.5528433
2.5530377
2.5529284
2.5530353
2.5533035
2.5524702
2.5522394
2.552486
2.5526718
2.5527447
2.5525593
2.55315
2.5531232
2.5526621
2.5529438
2.5522913
2.5520103
2.5523629
2.5527447
2.5524012
2.5525418
2.552498
2.5532856
2.5527481
2.5527853
2.5524016
2.5522582
2.5528433
2.5525593
2.5525418
2.5527222
2.5799021
2.5801236
2.5797629
2.5806692
2.5794849
2.5798114
2.5800373
2.5801022
2.5802259
2.5795262
2.5801236
2.5798996
2.5804537
2.5799618
2.579426
2.5797997
2.5800857
2.5799584
2.5801785
2.580374
2.5797629
2.5804537
2.5800588
2.5801551
2.5796039
2.5798745
2.5802686
2.5800653
2.5796711
2.5797924
2.5806692
2.5799618
2.5801551
2.5803189
2.5796883
2.5798547
2.5803154
2.5803607
2.5799786
2.579834
2.5794849
2.579426
2.5796039
2.5796883
2.5789622
2.5790117
2.5793788
2.5794707
2.5792837
2.5794267
2.5798114
2.5797997
2.5798745
2.5798547
2.5790117
2.5789651
2.5792345
2.5792272
2.5789886
2.5792804
2.5800373
2.5800857
2.5802686
2.5803154
2.5793788
2.5792345
2.5794801
2.5795051
2.5793815
2.5799199
2.5801022
2.5799584
2.5800653
2.5803607
2.5794707
2.5792272
2.5795051
2.5796996
2.5797826
2.5795844
2.5802259
2.5801785
2.5796711
2.5799786
2.5792837
2.5789886
2.5793815
2.5797826
2.5793982
2.5795918
2.5795262
2.580374
2.5797924
2.579834
2.5794267
2.5792804
2.5799199
2.5795844
2.5795918
2.579791
2.5517188
2.5519436
2.5515507
2.5525174
2.551255
2.5516045
2.551838
2.5519015
2.5520364
2.5512897
2.5519436
2.5516878
2.5522664
2.5517475
2.5511808
2.5515718
2.5518699
2.5517213
2.5519672
2.5521982
2.5515507
2.5522664
2.5518421
2.5519513
2.5513608
2.5516423
2.5520602
2.5518286
2.5514135
2.5515722
2.5525174
2.5517475
2.5519513
2.5521264
2.5514498
2.5516219
2.5521145
2.5521506
2.5517472
2.5516193
2.551255
2.5511808
2.5513608
2.5514498
2.5506733
2.5507236
2.5511189
2.5512065
2.5510122
2.5511901
2.5516045
2.5515718
2.5516423
2.5516219
2.5507236
2.5506751
2.5509695
2.5509535
2.5507055
2.551042
2.551838
2.5518699
2.5520602
2.5521145
2.5511189
2.5509695
2.5512416
2.5512624
2.5511387
2.5517361
2.5519015
2.5517213
2.5518286
2.5521506
2.5512065
2.5509535
2.5512624
2.5514644
2.5515578
2.5513467
2.5520364
2.5519672
2.5514135
2.5517472
2.5510122
2.5507055
2.5511387
2.5515578
2.5511316
2.5513813
2.5512897
2.5521982
2.5515722
2.5516193
2.5511901
2.551042
2.5517361
2.5513467
2.5513813
2.5515993
2.4511833
2.4514092
2.4509874
2.4520108
2.4506696
2.4510474
2.4512875
2.4513472
2.4514926
2.4506996
2.4514092
2.4511255
2.451725
2.4511759
2.4505839
2.4509955
2.4513028
2.45113
2.4514017
2.4516701
2.4509874
2.451725
2.4512708
2.4513931
2.4507675
2.451062
2.451501
2.4512386
2.4508024
2.4509997
2.4520108
2.4511759
2.4513931
2.4515793
2.4508602
2.4510399
2.4515616
2.4515869
2.4511631
2.4510539
2.4506696
2.4505839
2.4507675
2.4508602
2.4500368
2.4500904
2.450511
2.4505922
2.4503913
2.4506052
2.4510474
2.4509955
2.451062
2.4510399
2.4500904
2.4500436
2.4503607
2.4503335
2.4500758
2.4504563
2.4512875
2.4513028
2.451501
2.4515616
2.450511
2.4503607
2.4506581
2.4506726
2.4505484
2.4512044
2.4513472
2.45113
2.4512386
2.4515869
2.4505922
2.4503335
2.4506726
2.4508803
2.4509841
2.4507593
2.4514926
2.4514017
2.4508024
2.4511631
2.4503913
2.4500758
2.4505484
2.4509841
2.4505157
2.4508231
2.4506996
2.4516701
2.4509997
2.4510539
2.4506052
2.4504563
2.4512044
2.4507593
2.4508231
2.4510589
2.2573472
2.2575728
2.2571261
2.2582022
2.2567816
2.2571941
2.2574401
2.2574935
2.2576486
2.2568091
2.2575728
2.2572678
2.257884
2.2573013
2.2566906
2.2571277
2.2574412
2.257241
2.2575381
2.2578447
2.2571261
2.257884
2.2573999
2.2575357
2.2568802
2.2571913
2.2576482
2.2573525
2.2568941
2.2571299
2.2582022
2.2573013
2.2575357
2.2577335
2.2569764
2.2571668
2.2577141
2.257727
2.2572836
2.2571934
2.2567816
2.2566906
2.2568802
2.2569764
2.256111
2.2561713
2.2566135
2.2566859
2.2564789
2.2567281
2.2571941
2.2571277
2.2571913
2.2571668
2.2561713
2.2561307
2.2564675
2.2564264
2.2561579
2.2565792
2.2574401
2.2574412
2.2576482
2.2577141
2.2566135
2.2564675
2.2567884
2.2567941
2.2566683
2.2573803
2.2574935
2.257241
2.2573525
2.257727
2.2566859
2.2564264
2.2567941
2.2570055
2.2571191
2.2568787
2.2576486
2.2575381
2.2568941
2.2572836
2.2564789
2.2561579
2.2566683
2.2571191
2.2566087
2.2569726
2.2568091
2.2578447
2.2571299
2.2571934
2.2567281
2.2565792
2.2573803
2.2568787
2.2569726
2.2572239
1.9447957
1.9450215
1.9445546
1.9456791
1.9441795
1.9446331
1.944885
1.9449295
1.9450934
1.9442064
1.9450215
1.9447046
1.9453331
1.9447146
1.9440915
1.9445604
1.9448779
1.9446468
1.9449685
1.9453125
1.9445546
1.9453331
1.9448206
1.9449701
1.9442908
1.9446233
1.9450955
1.9447639
1.9442816
1.9445531
1.9456791
1.9447146
1.9449701
1.9451805
1.9443916
1.9445966
1.9451665
1.9451657
1.9447025
1.9446291
1.9441795
1.9440915
1.9442908
1.9443916
1.9434904
1.9435617
1.9440217
1.9440832
1.9438699
1.9441509
1.9446331
1.9445604
1.9446233
1.9445966
1.9435617
1.9435329
1.9438862
1.9438279
1.9435466
1.9440025
1.944885
1.9448779
1.9450955
1.9451665
1.9440217
1.9438862
1.9442281
1.9442223
1.9440924
1.9448548
1.9449295
1.9446468
1.9447639
1.9451657
1.9440832
1.9438279
1.9442223
1.944435
1.9445571
1.9442972
1.9450934
1.9449685
1.9442816
1.9447025
1.9438699
1.9435466
1.9440924
1.9445571
1.944005
1.9444208
1.9442064
1.9453125
1.9445531
1.9446291
1.9441509
1.9440025
1.9448548
1.9442972
1.9444208
1.9446829
1.4830662
1.4832949
1.4828132
1.4839814
1.482405
1.4829054
1.4831644
1.4831979
1.4833696
1.4824321
1.4832949
1.482979
1.4836143
1.4829607
1.4823309
1.4828388
1.4831595
1.4828945
1.4832395
1.4836171
1.4828132
1.4836143
1.4830776
1.4832408
1.4825451
1.4829047
1.4833908
1.4830212
1.4825121
1.4828133
1.4839814
1.4829607
1.4832408
1.4834663
1.4826531
1.4828778
1.4834678
1.4834525
1.4829688
1.482906
1.482405
1.4823309
1.4825451
1.4826531
1.4817242
1.4818117
1.4822861
1.4823349
1.4821143
1.4824192
1.4829054
1.4828388
1.4829047
1.4828778
1.4818117
1.4818006
1.4821672
1.4820888
1.4817915
1.4822707
1.4831644
1.4831595
1.4833908
1.4834678
1.4822861
1.4821672
1.4825281
1.4825077
1.4823696
1.4831727
1.4831979
1.4828945
1.4830212
1.4834525
1.4823349
1.4820888
1.4825077
1.4827192
1.4828475
1.4825607
1.4833696
1.4832395
1.4825121
1.4829688
1.4821143
1.4817915
1.4823696
1.4828475
1.4822546
1.4827124
1.4824321
1.4836171
1.4828133
1.482906
1.4824192
1.4822707
1.4831727
1.4825607
1.4827124
1.482977
0.83613165
0.8363682
0.83587831
0.83708328
0.83543734
0.83598651
0.83625542
0.8362773
0.83645635
0.83546308
0.8363682
0.8360698
0.83670407
0.83602119
0.83538848
0.83594212
0.83626827
0.83596742
0.83633418
0.83673725
0.83587831
0.83670407
0.83615205
0.83632814
0.83562388
0.83601692
0.83651795
0.83610947
0.83556991
0.83589032
0.83708328
0.83602119
0.83632814
0.83657185
0.8357442
0.83599382
0.83660382
0.83657447
0.83606797
0.83600394
0.83543734
0.83538848
0.83562388
0.8357442
0.8347981
0.83490668
0.83539407
0.83542957
0.83519926
0.8355138
0.83598651
0.83594212
0.83601692
0.83599382
0.83490668
0.83491872
0.83529706
0.83519643
0.83487844
0.83536342
0.83625542
0.83626827
0.83651795
0.83660382
0.83539407
0.83529706
0.83567542
0.83563787
0.83548577
0.83631358
0.8362773
0.83596742
0.83610947
0.83657447
0.83542957
0.83519643
0.83563787
0.8358459
0.8359771
0.83565043
0.83645635
0.83633418
0.83556991
0.83606797
0.83519926
0.83487844
0.83548577
0.8359771
0.83534414
0.83582672
0.83546308
0.83673725
0.83589032
0.83600394
0.8355138
0.83536342
0.83631358
0.83565043
0.83582672
0.8360799
-0.038062599
-0.037812491
-0.038302736
-0.037071879
-0.03877188
-0.038178612
-0.037895893
-0.037883949
-0.037696967
-0.038753568
-0.037812491
-0.038075384
-0.037454114
-0.038152746
-0.038788377
-0.038185872
-0.037848167
-0.038183838
-0.037797174
-0.037382052
-0.038302736