/*--------------------------------*- C++ -*----------------------------------*\
| =========                 |                                                 |
| \\      /  F ield         | OpenFOAM: The Open Source CFD Toolbox           |
|  \\    /   O peration     | Version:  v2106                                 |
|   \\  /    A nd           | Website:  www.openfoam.com                      |
|    \\/     M anipulation  |                                                 |
\*---------------------------------------------------------------------------*/
FoamFile
{
    version     2.0;
    format      ascii;
    arch        "LSB;label=32;scalar=64";
    class       volScalarField;
    location    "20";
    object      Tmode2;
}
// * * * * * * * * * * * * * * * * * * * * * * * * * * * * * * * * * * * * * //

dimensions      [0 0 0 0 0 0 0];

internalField   nonuniform List<scalar> 
4000
(
-0.012366917
-0.012366916
-0.012366918
-0.012366918
-0.012366917
-0.012366918
-0.01236692
-0.01236692
-0.012366921
-0.012366921
-0.012366916
-0.012366917
-0.012366918
-0.012366917
-0.012366917
-0.012366919
-0.01236692
-0.012366921
-0.012366921
-0.012366921
-0.012366918
-0.012366918
-0.012366918
-0.012366918
-0.012366918
-0.012366919
-0.012366921
-0.012366921
-0.012366921
-0.012366921
-0.012366918
-0.012366917
-0.012366918
-0.012366918
-0.012366918
-0.012366919
-0.01236692
-0.012366921
-0.012366921
-0.01236692
-0.012366917
-0.012366917
-0.012366918
-0.012366918
-0.012366917
-0.012366918
-0.012366919
-0.012366919
-0.012366919
-0.012366919
-0.012366918
-0.012366919
-0.012366919
-0.012366919
-0.012366918
-0.012366919
-0.012366919
-0.012366919
-0.012366919
-0.012366919
-0.01236692
-0.01236692
-0.012366921
-0.01236692
-0.012366919
-0.012366919
-0.012366919
-0.012366919
-0.012366919
-0.012366918
-0.01236692
-0.012366921
-0.012366921
-0.012366921
-0.012366919
-0.012366919
-0.012366919
-0.012366919
-0.012366918
-0.012366918
-0.012366921
-0.012366921
-0.012366921
-0.012366921
-0.012366919
-0.012366919
-0.012366919
-0.012366918
-0.012366918
-0.012366917
-0.012366921
-0.012366921
-0.012366921
-0.01236692
-0.012366919
-0.012366919
-0.012366918
-0.012366918
-0.012366917
-0.012366917
-0.01312694
-0.01312694
-0.013126943
-0.013126943
-0.013126941
-0.013126945
-0.013126949
-0.013126951
-0.013126952
-0.013126952
-0.01312694
-0.013126942
-0.013126944
-0.013126941
-0.013126941
-0.013126946
-0.01312695
-0.013126952
-0.013126953
-0.013126952
-0.013126943
-0.013126944
-0.013126943
-0.013126942
-0.013126943
-0.013126948
-0.013126951
-0.013126953
-0.013126952
-0.013126951
-0.013126943
-0.013126941
-0.013126942
-0.013126942
-0.013126943
-0.013126947
-0.01312695
-0.013126951
-0.01312695
-0.013126949
-0.013126941
-0.013126941
-0.013126943
-0.013126943
-0.013126943
-0.013126945
-0.013126947
-0.013126948
-0.013126947
-0.013126947
-0.013126945
-0.013126946
-0.013126948
-0.013126947
-0.013126945
-0.013126947
-0.013126948
-0.013126947
-0.013126946
-0.013126945
-0.013126949
-0.01312695
-0.013126951
-0.01312695
-0.013126947
-0.013126948
-0.013126947
-0.013126946
-0.013126944
-0.013126943
-0.013126951
-0.013126952
-0.013126953
-0.013126951
-0.013126948
-0.013126947
-0.013126946
-0.013126945
-0.013126943
-0.013126942
-0.013126952
-0.013126953
-0.013126952
-0.01312695
-0.013126947
-0.013126946
-0.013126944
-0.013126943
-0.013126941
-0.01312694
-0.013126952
-0.013126952
-0.013126951
-0.013126949
-0.013126947
-0.013126945
-0.013126943
-0.013126942
-0.01312694
-0.013126939
-0.013871104
-0.013871105
-0.013871107
-0.013871107
-0.013871106
-0.013871112
-0.013871118
-0.013871122
-0.013871123
-0.013871122
-0.013871105
-0.013871107
-0.013871108
-0.013871106
-0.013871107
-0.013871114
-0.01387112
-0.013871123
-0.013871124
-0.013871123
-0.013871107
-0.013871108
-0.013871108
-0.013871107
-0.013871109
-0.013871116
-0.013871121
-0.013871123
-0.013871122
-0.013871121
-0.013871107
-0.013871106
-0.013871107
-0.013871107
-0.013871109
-0.013871114
-0.013871119
-0.013871121
-0.013871119
-0.013871118
-0.013871106
-0.013871107
-0.013871109
-0.013871109
-0.013871109
-0.013871113
-0.013871115
-0.013871116
-0.013871114
-0.013871113
-0.013871112
-0.013871114
-0.013871116
-0.013871114
-0.013871113
-0.013871114
-0.013871115
-0.013871114
-0.013871111
-0.013871109
-0.013871118
-0.01387112
-0.013871121
-0.013871119
-0.013871115
-0.013871115
-0.013871114
-0.013871112
-0.013871109
-0.013871106
-0.013871122
-0.013871123
-0.013871123
-0.013871121
-0.013871116
-0.013871114
-0.013871112
-0.013871109
-0.013871106
-0.013871104
-0.013871123
-0.013871124
-0.013871122
-0.013871119
-0.013871114
-0.013871111
-0.013871109
-0.013871106
-0.013871104
-0.013871101
-0.013871122
-0.013871123
-0.013871121
-0.013871118
-0.013871113
-0.013871109
-0.013871106
-0.013871104
-0.013871101
-0.013871099
-0.014588698
-0.014588699
-0.014588701
-0.014588702
-0.014588701
-0.014588709
-0.014588717
-0.014588721
-0.014588722
-0.01458872
-0.014588699
-0.014588702
-0.014588703
-0.014588701
-0.014588702
-0.014588712
-0.014588719
-0.014588723
-0.014588723
-0.014588722
-0.014588701
-0.014588703
-0.014588703
-0.014588702
-0.014588705
-0.014588713
-0.01458872
-0.014588723
-0.014588721
-0.014588719
-0.014588702
-0.014588701
-0.014588702
-0.014588703
-0.014588705
-0.014588711
-0.014588717
-0.014588719
-0.014588717
-0.014588714
-0.014588701
-0.014588702
-0.014588705
-0.014588705
-0.014588704
-0.014588708
-0.014588711
-0.014588711
-0.014588709
-0.014588707
-0.014588709
-0.014588712
-0.014588713
-0.014588711
-0.014588708
-0.014588709
-0.014588709
-0.014588708
-0.014588704
-0.014588701
-0.014588717
-0.014588719
-0.01458872
-0.014588717
-0.014588711
-0.014588709
-0.014588707
-0.014588704
-0.0145887
-0.014588697
-0.014588721
-0.014588723
-0.014588723
-0.014588719
-0.014588711
-0.014588708
-0.014588704
-0.014588701
-0.014588697
-0.014588694
-0.014588722
-0.014588723
-0.014588721
-0.014588717
-0.014588709
-0.014588704
-0.0145887
-0.014588697
-0.014588693
-0.01458869
-0.01458872
-0.014588722
-0.014588719
-0.014588714
-0.014588707
-0.014588701
-0.014588697
-0.014588694
-0.01458869
-0.014588687
-0.015268807
-0.015268808
-0.015268811
-0.015268813
-0.015268811
-0.01526882
-0.01526883
-0.015268835
-0.015268835
-0.015268833
-0.015268808
-0.015268811
-0.015268814
-0.015268811
-0.015268813
-0.015268823
-0.015268832
-0.015268836
-0.015268836
-0.015268834
-0.015268811
-0.015268814
-0.015268814
-0.015268813
-0.015268816
-0.015268825
-0.015268833
-0.015268835
-0.015268833
-0.01526883
-0.015268813
-0.015268811
-0.015268813
-0.015268814
-0.015268815
-0.015268822
-0.015268828
-0.01526883
-0.015268826
-0.015268823
-0.015268811
-0.015268813
-0.015268816
-0.015268815
-0.015268814
-0.015268817
-0.01526882
-0.01526882
-0.015268816
-0.015268813
-0.01526882
-0.015268823
-0.015268825
-0.015268822
-0.015268817
-0.015268817
-0.015268816
-0.015268813
-0.015268808
-0.015268804
-0.01526883
-0.015268832
-0.015268833
-0.015268828
-0.01526882
-0.015268816
-0.015268813
-0.015268808
-0.015268803
-0.015268799
-0.015268835
-0.015268836
-0.015268835
-0.01526883
-0.01526882
-0.015268813
-0.015268808
-0.015268804
-0.015268799
-0.015268795
-0.015268835
-0.015268836
-0.015268833
-0.015268826
-0.015268816
-0.015268808
-0.015268803
-0.015268799
-0.015268794
-0.01526879
-0.015268833
-0.015268834
-0.01526883
-0.015268823
-0.015268813
-0.015268804
-0.015268799
-0.015268795
-0.01526879
-0.015268786
-0.015900238
-0.01590024
-0.015900244
-0.015900245
-0.015900243
-0.015900253
-0.015900263
-0.015900268
-0.015900268
-0.015900265
-0.01590024
-0.015900244
-0.015900247
-0.015900244
-0.015900245
-0.015900256
-0.015900266
-0.015900269
-0.015900269
-0.015900266
-0.015900244
-0.015900247
-0.015900247
-0.015900246
-0.015900248
-0.015900258
-0.015900266
-0.015900268
-0.015900264
-0.01590026
-0.015900245
-0.015900244
-0.015900246
-0.015900246
-0.015900246
-0.015900253
-0.015900259
-0.01590026
-0.015900256
-0.01590025
-0.015900243
-0.015900245
-0.015900248
-0.015900246
-0.015900243
-0.015900245
-0.015900247
-0.015900246
-0.015900242
-0.015900237
-0.015900253
-0.015900256
-0.015900258
-0.015900253
-0.015900245
-0.015900243
-0.015900241
-0.015900237
-0.015900231
-0.015900226
-0.015900263
-0.015900266
-0.015900266
-0.015900259
-0.015900247
-0.015900241
-0.015900236
-0.015900231
-0.015900224
-0.01590022
-0.015900268
-0.015900269
-0.015900268
-0.01590026
-0.015900246
-0.015900237
-0.015900231
-0.015900225
-0.015900219
-0.015900214
-0.015900268
-0.015900269
-0.015900264
-0.015900256
-0.015900242
-0.015900231
-0.015900224
-0.015900219
-0.015900213
-0.015900208
-0.015900265
-0.015900266
-0.01590026
-0.01590025
-0.015900237
-0.015900226
-0.01590022
-0.015900214
-0.015900208
-0.015900204
-0.016471452
-0.016471454
-0.016471458
-0.016471459
-0.016471455
-0.016471465
-0.016471476
-0.016471481
-0.016471481
-0.016471476
-0.016471454
-0.016471459
-0.016471462
-0.016471458
-0.016471458
-0.016471469
-0.016471479
-0.016471482
-0.016471481
-0.016471478
-0.016471458
-0.016471462
-0.016471462
-0.01647146
-0.01647146
-0.01647147
-0.016471478
-0.016471479
-0.016471474
-0.016471469
-0.016471459
-0.016471458
-0.01647146
-0.016471459
-0.016471457
-0.016471463
-0.016471468
-0.016471469
-0.016471463
-0.016471457
-0.016471455
-0.016471458
-0.01647146
-0.016471457
-0.016471451
-0.016471452
-0.016471453
-0.016471451
-0.016471445
-0.01647144
-0.016471465
-0.016471469
-0.01647147
-0.016471463
-0.016471452
-0.016471447
-0.016471443
-0.016471438
-0.016471431
-0.016471425
-0.016471476
-0.016471479
-0.016471478
-0.016471468
-0.016471453
-0.016471443
-0.016471436
-0.01647143
-0.016471422
-0.016471417
-0.016471481
-0.016471482
-0.016471479
-0.016471469
-0.016471451
-0.016471438
-0.01647143
-0.016471424
-0.016471417
-0.016471411
-0.016471481
-0.016471481
-0.016471474
-0.016471463
-0.016471445
-0.016471431
-0.016471422
-0.016471417
-0.016471409
-0.016471403
-0.016471476
-0.016471478
-0.016471469
-0.016471457
-0.01647144
-0.016471425
-0.016471417
-0.016471411
-0.016471403
-0.016471398
-0.0169705
-0.016970504
-0.016970507
-0.016970508
-0.016970502
-0.016970512
-0.016970522
-0.016970527
-0.016970526
-0.01697052
-0.016970504
-0.016970508
-0.016970511
-0.016970506
-0.016970504
-0.016970515
-0.016970524
-0.016970527
-0.016970525
-0.016970521
-0.016970507
-0.016970511
-0.016970511
-0.016970508
-0.016970506
-0.016970515
-0.016970522
-0.016970523
-0.016970517
-0.01697051
-0.016970508
-0.016970506
-0.016970508
-0.016970505
-0.016970501
-0.016970505
-0.01697051
-0.01697051
-0.016970502
-0.016970495
-0.016970502
-0.016970504
-0.016970506
-0.016970501
-0.016970492
-0.01697049
-0.01697049
-0.016970487
-0.016970479
-0.016970473
-0.016970512
-0.016970515
-0.016970515
-0.016970505
-0.01697049
-0.016970482
-0.016970476
-0.01697047
-0.016970461
-0.016970455
-0.016970522
-0.016970524
-0.016970522
-0.01697051
-0.01697049
-0.016970476
-0.016970467
-0.01697046
-0.016970451
-0.016970446
-0.016970527
-0.016970527
-0.016970523
-0.01697051
-0.016970487
-0.01697047
-0.01697046
-0.016970453
-0.016970445
-0.016970438
-0.016970526
-0.016970525
-0.016970517
-0.016970502
-0.016970479
-0.016970461
-0.016970451
-0.016970445
-0.016970436
-0.016970429
-0.01697052
-0.016970521
-0.01697051
-0.016970495
-0.016970473
-0.016970455
-0.016970446
-0.016970438
-0.016970429
-0.016970424
-0.017384983
-0.017384987
-0.01738499
-0.01738499
-0.017384981
-0.01738499
-0.017385
-0.017385004
-0.017385003
-0.017384995
-0.017384987
-0.017384991
-0.017384994
-0.017384987
-0.017384983
-0.017384993
-0.017385002
-0.017385004
-0.017385001
-0.017384996
-0.01738499
-0.017384994
-0.017384993
-0.017384988
-0.017384984
-0.017384991
-0.017384998
-0.017384998
-0.01738499
-0.017384983
-0.01738499
-0.017384987
-0.017384988
-0.017384984
-0.017384977
-0.017384979
-0.017384983
-0.017384982
-0.017384972
-0.017384963
-0.017384981
-0.017384983
-0.017384984
-0.017384977
-0.017384963
-0.017384959
-0.017384957
-0.017384953
-0.017384944
-0.017384937
-0.01738499
-0.017384993
-0.017384991
-0.017384979
-0.017384959
-0.017384947
-0.01738494
-0.017384932
-0.017384922
-0.017384915
-0.017385
-0.017385002
-0.017384998
-0.017384983
-0.017384957
-0.01738494
-0.017384928
-0.017384919
-0.017384909
-0.017384904
-0.017385004
-0.017385004
-0.017384998
-0.017384982
-0.017384953
-0.017384932
-0.017384919
-0.017384911
-0.017384903
-0.017384896
-0.017385003
-0.017385001
-0.01738499
-0.017384972
-0.017384944
-0.017384922
-0.017384909
-0.017384903
-0.017384893
-0.017384885
-0.017384995
-0.017384996
-0.017384983
-0.017384963
-0.017384937
-0.017384915
-0.017384904
-0.017384896
-0.017384885
-0.01738488
-0.017702012
-0.017702016
-0.017702018
-0.017702018
-0.017702006
-0.017702013
-0.017702023
-0.017702026
-0.017702024
-0.017702015
-0.017702016
-0.017702021
-0.017702023
-0.017702014
-0.017702007
-0.017702015
-0.017702024
-0.017702026
-0.017702022
-0.017702016
-0.017702018
-0.017702023
-0.017702021
-0.017702014
-0.017702007
-0.017702012
-0.017702019
-0.017702017
-0.017702008
-0.017701999
-0.017702018
-0.017702014
-0.017702014
-0.017702007
-0.017701996
-0.017701997
-0.017702
-0.017701997
-0.017701986
-0.017701976
-0.017702006
-0.017702007
-0.017702007
-0.017701996
-0.017701979
-0.017701972
-0.017701968
-0.017701963
-0.017701953
-0.017701945
-0.017702013
-0.017702015
-0.017702012
-0.017701997
-0.017701972
-0.017701956
-0.017701947
-0.017701938
-0.017701926
-0.017701919
-0.017702023
-0.017702024
-0.017702019
-0.017702
-0.017701968
-0.017701947
-0.017701933
-0.017701922
-0.017701911
-0.017701906
-0.017702026
-0.017702026
-0.017702017
-0.017701997
-0.017701963
-0.017701938
-0.017701922
-0.017701913
-0.017701904
-0.017701896
-0.017702024
-0.017702022
-0.017702008
-0.017701986
-0.017701953
-0.017701926
-0.017701911
-0.017701904
-0.017701893
-0.017701884
-0.017702015
-0.017702016
-0.017701999
-0.017701976
-0.017701945
-0.017701919
-0.017701906
-0.017701896
-0.017701884
-0.017701879
-0.0179082
-0.017908204
-0.017908205
-0.017908204
-0.017908188
-0.017908194
-0.017908204
-0.017908206
-0.017908203
-0.017908192
-0.017908204
-0.017908209
-0.017908211
-0.0179082
-0.017908189
-0.017908196
-0.017908204
-0.017908204
-0.0179082
-0.017908193
-0.017908205
-0.017908211
-0.017908207
-0.017908198
-0.017908187
-0.017908191
-0.017908197
-0.017908194
-0.017908182
-0.017908173
-0.017908204
-0.0179082
-0.017908198
-0.017908189
-0.017908174
-0.017908172
-0.017908174
-0.01790817
-0.017908157
-0.017908146
-0.017908188
-0.017908189
-0.017908187
-0.017908174
-0.017908152
-0.017908141
-0.017908136
-0.01790813
-0.017908118
-0.017908109
-0.017908194
-0.017908196
-0.017908191
-0.017908172
-0.017908141
-0.017908122
-0.01790811
-0.017908099
-0.017908086
-0.017908079
-0.017908204
-0.017908204
-0.017908197
-0.017908174
-0.017908136
-0.01790811
-0.017908094
-0.017908082
-0.01790807
-0.017908065
-0.017908206
-0.017908204
-0.017908194
-0.01790817
-0.01790813
-0.017908099
-0.017908082
-0.017908072
-0.017908061
-0.017908053
-0.017908203
-0.0179082
-0.017908182
-0.017908157
-0.017908118
-0.017908086
-0.01790807
-0.017908061
-0.017908049
-0.01790804
-0.017908192
-0.017908193
-0.017908173
-0.017908146
-0.017908109
-0.017908079
-0.017908065
-0.017908053
-0.01790804
-0.017908034
-0.017989671
-0.017989675
-0.017989675
-0.017989673
-0.017989653
-0.017989657
-0.017989665
-0.017989668
-0.017989663
-0.017989651
-0.017989675
-0.017989679
-0.01798968
-0.017989667
-0.017989652
-0.017989657
-0.017989665
-0.017989664
-0.017989659
-0.017989652
-0.017989675
-0.01798968
-0.017989675
-0.017989663
-0.017989648
-0.01798965
-0.017989655
-0.017989651
-0.017989638
-0.017989628
-0.017989673
-0.017989667
-0.017989663
-0.017989651
-0.017989632
-0.017989627
-0.017989628
-0.017989623
-0.017989608
-0.017989596
-0.017989653
-0.017989652
-0.017989648
-0.017989632
-0.017989605
-0.017989591
-0.017989585
-0.017989577
-0.017989563
-0.017989554
-0.017989657
-0.017989657
-0.01798965
-0.017989627
-0.017989591
-0.017989567
-0.017989554
-0.017989541
-0.017989527
-0.01798952
-0.017989665
-0.017989665
-0.017989655
-0.017989628
-0.017989585
-0.017989554
-0.017989535
-0.017989522
-0.017989509
-0.017989504
-0.017989668
-0.017989664
-0.017989651
-0.017989623
-0.017989577
-0.017989541
-0.017989522
-0.01798951
-0.017989499
-0.017989491
-0.017989663
-0.017989659
-0.017989638
-0.017989608
-0.017989563
-0.017989527
-0.017989509
-0.017989499
-0.017989486
-0.017989477
-0.017989651
-0.017989652
-0.017989628
-0.017989596
-0.017989554
-0.01798952
-0.017989504
-0.017989491
-0.017989477
-0.017989471
-0.017932097
-0.017932101
-0.017932099
-0.017932096
-0.017932072
-0.017932074
-0.017932082
-0.017932083
-0.017932078
-0.017932064
-0.017932101
-0.017932104
-0.017932105
-0.017932088
-0.01793207
-0.017932073
-0.01793208
-0.017932078
-0.017932072
-0.017932064
-0.017932099
-0.017932105
-0.017932097
-0.017932083
-0.017932064
-0.017932064
-0.017932068
-0.017932062
-0.017932047
-0.017932036
-0.017932096
-0.017932088
-0.017932083
-0.017932068
-0.017932044
-0.017932037
-0.017932037
-0.01793203
-0.017932013
-0.017932
-0.017932072
-0.01793207
-0.017932064
-0.017932044
-0.017932011
-0.017931994
-0.017931986
-0.017931977
-0.017931962
-0.017931952
-0.017932074
-0.017932073
-0.017932064
-0.017932037
-0.017931994
-0.017931966
-0.01793195
-0.017931937
-0.017931921
-0.017931914
-0.017932082
-0.01793208
-0.017932068
-0.017932037
-0.017931986
-0.01793195
-0.017931929
-0.017931915
-0.017931901
-0.017931896
-0.017932083
-0.017932078
-0.017932062
-0.01793203
-0.017931977
-0.017931937
-0.017931915
-0.017931902
-0.017931891
-0.017931882
-0.017932078
-0.017932072
-0.017932047
-0.017932013
-0.017931962
-0.017931921
-0.017931901
-0.017931891
-0.017931877
-0.017931867
-0.017932064
-0.017932064
-0.017932036
-0.017932
-0.017931952
-0.017931914
-0.017931896
-0.017931882
-0.017931867
-0.017931861
-0.017720777
-0.017720781
-0.017720777
-0.017720772
-0.017720743
-0.017720743
-0.01772075
-0.017720751
-0.017720745
-0.017720729
-0.017720781
-0.017720783
-0.017720783
-0.017720763
-0.01772074
-0.017720741
-0.017720747
-0.017720744
-0.017720737
-0.017720729
-0.017720777
-0.017720783
-0.017720773
-0.017720755
-0.017720731
-0.017720729
-0.017720732
-0.017720725
-0.017720709
-0.017720697
-0.017720772
-0.017720763
-0.017720755
-0.017720737
-0.017720708
-0.017720698
-0.017720697
-0.017720689
-0.01772067
-0.017720656
-0.017720743
-0.01772074
-0.017720731
-0.017720708
-0.017720669
-0.017720648
-0.017720639
-0.017720629
-0.017720612
-0.017720602
-0.017720743
-0.017720741
-0.017720729
-0.017720698
-0.017720648
-0.017720616
-0.017720598
-0.017720583
-0.017720566
-0.017720559
-0.01772075
-0.017720747
-0.017720732
-0.017720697
-0.017720639
-0.017720598
-0.017720575
-0.017720559
-0.017720544
-0.017720541
-0.017720751
-0.017720744
-0.017720725
-0.017720689
-0.017720629
-0.017720583
-0.017720559
-0.017720546
-0.017720534
-0.017720525
-0.017720745
-0.017720737
-0.017720709
-0.01772067
-0.017720612
-0.017720566
-0.017720544
-0.017720534
-0.017720519
-0.017720509
-0.017720729
-0.017720729
-0.017720697
-0.017720656
-0.017720602
-0.017720559
-0.017720541
-0.017720525
-0.017720509
-0.017720503
-0.017340754
-0.017340757
-0.017340751
-0.017340745
-0.01734071
-0.017340708
-0.017340714
-0.017340714
-0.017340707
-0.01734069
-0.017340757
-0.017340758
-0.017340756
-0.017340733
-0.017340705
-0.017340704
-0.017340709
-0.017340705
-0.017340698
-0.017340689
-0.017340751
-0.017340756
-0.017340743
-0.017340723
-0.017340694
-0.017340689
-0.017340691
-0.017340683
-0.017340665
-0.017340653
-0.017340745
-0.017340733
-0.017340723
-0.017340701
-0.017340666
-0.017340653
-0.017340651
-0.017340642
-0.017340622
-0.017340607
-0.01734071
-0.017340705
-0.017340694
-0.017340666
-0.017340621
-0.017340597
-0.017340586
-0.017340575
-0.017340557
-0.017340547
-0.017340708
-0.017340704
-0.017340689
-0.017340653
-0.017340597
-0.01734056
-0.01734054
-0.017340524
-0.017340506
-0.0173405
-0.017340714
-0.017340709
-0.017340691
-0.017340651
-0.017340586
-0.01734054
-0.017340515
-0.017340498
-0.017340483
-0.01734048
-0.017340714
-0.017340705
-0.017340683
-0.017340642
-0.017340575
-0.017340524
-0.017340498
-0.017340484
-0.017340472
-0.017340463
-0.017340707
-0.017340698
-0.017340665
-0.017340622
-0.017340557
-0.017340506
-0.017340483
-0.017340472
-0.017340456
-0.017340447
-0.01734069
-0.017340689
-0.017340653
-0.017340607
-0.017340547
-0.0173405
-0.01734048
-0.017340463
-0.017340447
-0.017340441
-0.016776988
-0.01677699
-0.016776982
-0.016776974
-0.016776935
-0.01677693
-0.016776934
-0.016776933
-0.016776926
-0.016776907
-0.01677699
-0.01677699
-0.016776987
-0.01677696
-0.016776927
-0.016776924
-0.016776928
-0.016776923
-0.016776915
-0.016776906
-0.016776982
-0.016776987
-0.016776972
-0.016776947
-0.016776913
-0.016776906
-0.016776907
-0.016776897
-0.016776877
-0.016776865
-0.016776974
-0.01677696
-0.016776947
-0.016776922
-0.016776881
-0.016776865
-0.016776862
-0.016776852
-0.01677683
-0.016776814
-0.016776935
-0.016776927
-0.016776913
-0.016776881
-0.01677683
-0.016776801
-0.016776789
-0.016776777
-0.016776758
-0.016776748
-0.01677693
-0.016776924
-0.016776906
-0.016776865
-0.016776801
-0.01677676
-0.016776738
-0.016776721
-0.016776703
-0.016776697
-0.016776934
-0.016776928
-0.016776907
-0.016776862
-0.016776789
-0.016776738
-0.016776711
-0.016776694
-0.016776678
-0.016776677
-0.016776933
-0.016776923
-0.016776897
-0.016776852
-0.016776777
-0.016776721
-0.016776694
-0.016776679
-0.016776666
-0.016776658
-0.016776926
-0.016776915
-0.016776877
-0.01677683
-0.016776758
-0.016776703
-0.016776678
-0.016776666
-0.01677665
-0.016776641
-0.016776907
-0.016776906
-0.016776865
-0.016776814
-0.016776748
-0.016776697
-0.016776677
-0.016776658
-0.016776641
-0.016776636
-0.016014602
-0.016014603
-0.016014593
-0.016014583
-0.016014537
-0.01601453
-0.016014534
-0.016014532
-0.016014524
-0.016014503
-0.016014603
-0.016014602
-0.016014596
-0.016014566
-0.016014527
-0.016014522
-0.016014525
-0.016014519
-0.01601451
-0.016014501
-0.016014593
-0.016014596
-0.016014578
-0.01601455
-0.016014511
-0.0160145
-0.016014501
-0.016014489
-0.016014468
-0.016014456
-0.016014583
-0.016014566
-0.01601455
-0.016014521
-0.016014474
-0.016014454
-0.016014451
-0.016014439
-0.016014416
-0.0160144
-0.016014537
-0.016014527
-0.016014511
-0.016014474
-0.016014416
-0.016014383
-0.01601437
-0.016014357
-0.016014337
-0.016014327
-0.01601453
-0.016014522
-0.0160145
-0.016014454
-0.016014383
-0.016014337
-0.016014314
-0.016014296
-0.016014277
-0.016014272
-0.016014534
-0.016014525
-0.016014501
-0.016014451
-0.01601437
-0.016014314
-0.016014286
-0.016014267
-0.016014252
-0.016014251
-0.016014532
-0.016014519
-0.016014489
-0.016014439
-0.016014357
-0.016014296
-0.016014267
-0.016014253
-0.01601424
-0.016014231
-0.016014524
-0.01601451
-0.016014468
-0.016014416
-0.016014337
-0.016014277
-0.016014252
-0.01601424
-0.016014222
-0.016014214
-0.016014503
-0.016014501
-0.016014456
-0.0160144
-0.016014327
-0.016014272
-0.016014251
-0.016014231
-0.016014214
-0.01601421
-0.015039199
-0.0150392
-0.015039186
-0.015039175
-0.015039123
-0.015039113
-0.015039115
-0.015039113
-0.015039104
-0.015039081
-0.0150392
-0.015039196
-0.015039189
-0.015039155
-0.015039111
-0.015039102
-0.015039104
-0.015039097
-0.015039088
-0.01503908
-0.015039186
-0.015039189
-0.015039168
-0.015039135
-0.01503909
-0.015039077
-0.015039077
-0.015039063
-0.015039041
-0.015039029
-0.015039175
-0.015039155
-0.015039135
-0.015039102
-0.015039049
-0.015039026
-0.015039022
-0.015039009
-0.015038984
-0.015038968
-0.015039123
-0.015039111
-0.01503909
-0.015039049
-0.015038984
-0.015038948
-0.015038934
-0.01503892
-0.015038899
-0.01503889
-0.015039113
-0.015039102
-0.015039077
-0.015039026
-0.015038948
-0.015038897
-0.015038872
-0.015038854
-0.015038834
-0.015038831
-0.015039115
-0.015039104
-0.015039077
-0.015039022
-0.015038934
-0.015038872
-0.015038842
-0.015038823
-0.015038808
-0.015038809
-0.015039113
-0.015039097
-0.015039063
-0.015039009
-0.01503892
-0.015038854
-0.015038823
-0.015038809
-0.015038796
-0.015038788
-0.015039104
-0.015039088
-0.015039041
-0.015038984
-0.015038899
-0.015038834
-0.015038808
-0.015038796
-0.015038778
-0.015038771
-0.015039081
-0.01503908
-0.015039029
-0.015038968
-0.01503889
-0.015038831
-0.015038809
-0.015038788
-0.015038771
-0.015038767
-0.013837291
-0.01383729
-0.013837274
-0.01383726
-0.013837203
-0.013837189
-0.013837191
-0.013837187
-0.013837178
-0.013837153
-0.01383729
-0.013837285
-0.013837275
-0.013837237
-0.013837187
-0.013837176
-0.013837177
-0.013837168
-0.01383716
-0.013837151
-0.013837274
-0.013837275
-0.013837251
-0.013837214
-0.013837164
-0.013837147
-0.013837146
-0.013837131
-0.013837107
-0.013837096
-0.01383726
-0.013837237
-0.013837214
-0.013837177
-0.013837118
-0.013837091
-0.013837086
-0.013837072
-0.013837046
-0.01383703
-0.013837203
-0.013837187
-0.013837164
-0.013837118
-0.013837046
-0.013837005
-0.01383699
-0.013836975
-0.013836954
-0.013836946
-0.013837189
-0.013837176
-0.013837147
-0.013837091
-0.013837005
-0.01383695
-0.013836924
-0.013836905
-0.013836885
-0.013836883
-0.013837191
-0.013837177
-0.013837146
-0.013837086
-0.01383699
-0.013836924
-0.013836893
-0.013836874
-0.013836859
-0.013836862
-0.013837187
-0.013837168
-0.013837131
-0.013837072
-0.013836975
-0.013836905
-0.013836874
-0.013836859
-0.013836847
-0.013836839
-0.013837178
-0.01383716
-0.013837107
-0.013837046
-0.013836954
-0.013836885
-0.013836859
-0.013836847
-0.013836829
-0.013836823
-0.013837153
-0.013837151
-0.013837096
-0.01383703
-0.013836946
-0.013836883
-0.013836862
-0.013836839
-0.013836823
-0.01383682
-0.012396841
-0.012396839
-0.012396819
-0.012396803
-0.01239674
-0.012396724
-0.012396724
-0.012396719
-0.01239671
-0.012396684
-0.012396839
-0.012396832
-0.01239682
-0.012396777
-0.012396722
-0.012396708
-0.012396708
-0.012396698
-0.012396689
-0.012396681
-0.012396819
-0.01239682
-0.012396792
-0.012396751
-0.012396694
-0.012396675
-0.012396673
-0.012396656
-0.012396632
-0.012396621
-0.012396803
-0.012396777
-0.012396751
-0.012396709
-0.012396644
-0.012396614
-0.012396608
-0.012396593
-0.012396566
-0.01239655
-0.01239674
-0.012396722
-0.012396694
-0.012396644
-0.012396565
-0.01239652
-0.012396505
-0.012396489
-0.012396467
-0.01239646
-0.012396724
-0.012396708
-0.012396675
-0.012396614
-0.01239652
-0.01239646
-0.012396434
-0.012396414
-0.012396394
-0.012396394
-0.012396724
-0.012396708
-0.012396673
-0.012396608
-0.012396505
-0.012396434
-0.012396402
-0.012396382
-0.012396368
-0.012396373
-0.012396719
-0.012396698
-0.012396656
-0.012396593
-0.012396489
-0.012396414
-0.012396382
-0.012396368
-0.012396357
-0.01239635
-0.01239671
-0.012396689
-0.012396632
-0.012396566
-0.012396467
-0.012396394
-0.012396368
-0.012396357
-0.012396338
-0.012396334
-0.012396684
-0.012396681
-0.012396621
-0.01239655
-0.01239646
-0.012396394
-0.012396373
-0.01239635
-0.012396334
-0.012396333
-0.010707965
-0.010707962
-0.010707939
-0.01070792
-0.010707851
-0.010707832
-0.010707831
-0.010707825
-0.010707815
-0.010707788
-0.010707962
-0.010707952
-0.010707938
-0.010707891
-0.01070783
-0.010707813
-0.010707812
-0.010707801
-0.010707792
-0.010707785
-0.010707939
-0.010707938
-0.010707906
-0.010707861
-0.010707799
-0.010707777
-0.010707774
-0.010707755
-0.01070773
-0.01070772
-0.01070792
-0.010707891
-0.010707861
-0.010707815
-0.010707743
-0.01070771
-0.010707704
-0.010707688
-0.01070766
-0.010707645
-0.010707851
-0.01070783
-0.010707799
-0.010707743
-0.010707658
-0.010707609
-0.010707593
-0.010707577
-0.010707555
-0.010707549
-0.010707832
-0.010707813
-0.010707777
-0.01070771
-0.010707609
-0.010707546
-0.010707518
-0.010707498
-0.010707479
-0.010707481
-0.010707831
-0.010707812
-0.010707774
-0.010707704
-0.010707593
-0.010707518
-0.010707486
-0.010707467
-0.010707453
-0.010707461
-0.010707825
-0.010707801
-0.010707755
-0.010707688
-0.010707577
-0.010707498
-0.010707467
-0.010707453
-0.010707442
-0.010707436
-0.010707815
-0.010707792
-0.01070773
-0.01070766
-0.010707555
-0.010707479
-0.010707453
-0.010707442
-0.010707424
-0.010707421
-0.010707788
-0.010707785
-0.01070772
-0.010707645
-0.010707549
-0.010707481
-0.010707461
-0.010707436
-0.010707421
-0.010707422
-0.0087638144
-0.0087638091
-0.0087637829
-0.0087637625
-0.0087636871
-0.0087636657
-0.0087636634
-0.0087636571
-0.0087636466
-0.0087636175
-0.0087638091
-0.0087637973
-0.0087637803
-0.0087637299
-0.0087636634
-0.0087636442
-0.0087636419
-0.0087636295
-0.0087636209
-0.0087636143
-0.0087637829
-0.0087637803
-0.0087637451
-0.0087636966
-0.0087636287
-0.008763604
-0.0087636004
-0.0087635804
-0.0087635539
-0.0087635451
-0.0087637625
-0.0087637299
-0.0087636966
-0.0087636461
-0.0087635688
-0.0087635331
-0.0087635264
-0.0087635093
-0.0087634798
-0.0087634655
-0.0087636871
-0.0087636634
-0.0087636287
-0.0087635688
-0.0087634767
-0.0087634251
-0.0087634087
-0.0087633919
-0.0087633699
-0.0087633655
-0.0087636657
-0.0087636442
-0.008763604
-0.0087635331
-0.0087634251
-0.0087633577
-0.0087633301
-0.0087633094
-0.0087632907
-0.0087632948
-0.0087636634
-0.0087636419
-0.0087636004
-0.0087635264
-0.0087634087
-0.0087633301
-0.0087632972
-0.0087632782
-0.0087632657
-0.0087632759
-0.0087636571
-0.0087636295
-0.0087635804
-0.0087635093
-0.0087633919
-0.0087633094
-0.0087632782
-0.0087632655
-0.0087632555
-0.0087632505
-0.0087636466
-0.0087636209
-0.0087635539
-0.0087634798
-0.0087633699
-0.0087632907
-0.0087632657
-0.0087632555
-0.0087632374
-0.008763237
-0.0087636175
-0.0087636143
-0.0087635451
-0.0087634655
-0.0087633655
-0.0087632948
-0.0087632759
-0.0087632505
-0.008763237
-0.0087632391
-0.006561684
-0.0065616771
-0.0065616478
-0.0065616253
-0.0065615444
-0.006561521
-0.0065615176
-0.0065615103
-0.0065614994
-0.006561469
-0.0065616771
-0.0065616631
-0.0065616436
-0.0065615894
-0.0065615181
-0.0065614969
-0.0065614937
-0.0065614798
-0.0065614715
-0.0065614656
-0.0065616478
-0.0065616436
-0.0065616051
-0.006561553
-0.0065614803
-0.0065614533
-0.0065614491
-0.0065614274
-0.0065614
-0.0065613924
-0.0065616253
-0.0065615894
-0.006561553
-0.0065614989
-0.0065614164
-0.0065613781
-0.0065613712
-0.006561353
-0.0065613227
-0.0065613093
-0.0065615444
-0.0065615181
-0.0065614803
-0.0065614164
-0.0065613185
-0.006561264
-0.0065612474