/*--------------------------------*- C++ -*----------------------------------*\
| =========                 |                                                 |
| \\      /  F ield         | OpenFOAM: The Open Source CFD Toolbox           |
|  \\    /   O peration     | Version:  v2106                                 |
|   \\  /    A nd           | Website:  www.openfoam.com                      |
|    \\/     M anipulation  |                                                 |
\*---------------------------------------------------------------------------*/
FoamFile
{
    version     2.0;
    format      ascii;
    arch        "LSB;label=32;scalar=64";
    class       volScalarField;
    location    "20";
    object      Tmode_lapla0;
}
// * * * * * * * * * * * * * * * * * * * * * * * * * * * * * * * * * * * * * //

dimensions      [0 -2 0 0 0 0 0];

internalField   nonuniform List<scalar> 
4000
(
-0.0027246916
-0.0027262499
-0.0027430816
-0.0027224084
-0.0027272616
-0.00272983
-0.002730358
-0.0027301025
-0.0027299355
-0.0027301102
-0.0027262499
-0.0027491788
-0.0027337032
-0.0027262375
-0.0027328212
-0.0027352416
-0.0027352584
-0.0027346336
-0.0027342586
-0.0027324798
-0.0027430816
-0.0027337032
-0.0027352213
-0.002728157
-0.0027340548
-0.0027360463
-0.002735895
-0.0027355844
-0.0027363866
-0.0027341579
-0.0027224084
-0.0027262375
-0.002728157
-0.002720677
-0.0027262293
-0.0027279569
-0.0027274375
-0.0027267666
-0.0027282836
-0.002729382
-0.0027272616
-0.0027328212
-0.0027340548
-0.0027262293
-0.0027316324
-0.0027332737
-0.0027325449
-0.0027313032
-0.0027317777
-0.002731513
-0.00272983
-0.0027352416
-0.0027360463
-0.0027279569
-0.0027332737
-0.0027349134
-0.0027341728
-0.0027328383
-0.0027330774
-0.0027322982
-0.002730358
-0.0027352584
-0.002735895
-0.0027274375
-0.0027325449
-0.0027341728
-0.0027334532
-0.0027321352
-0.0027323793
-0.0027315843
-0.0027301025
-0.0027346336
-0.0027355844
-0.0027267666
-0.0027313032
-0.0027328383
-0.0027321352
-0.0027308664
-0.0027311981
-0.0027306273
-0.0027299355
-0.0027342586
-0.0027363866
-0.0027282836
-0.0027317777
-0.0027330774
-0.0027323793
-0.0027311981
-0.0027317193
-0.0027315508
-0.0027301102
-0.0027324798
-0.0027341579
-0.002729382
-0.002731513
-0.0027322982
-0.0027315843
-0.0027306273
-0.0027315508
-0.0027316391
-0.0081902414
-0.0081875925
-0.0082132855
-0.0081778881
-0.0081886811
-0.0081941054
-0.0081949097
-0.0081941315
-0.0081942496
-0.0081958142
-0.0081875925
-0.0082118538
-0.0081914513
-0.0081793974
-0.0081927562
-0.0081973928
-0.008196997
-0.008195634
-0.0081940243
-0.0081902646
-0.0082132855
-0.0081914513
-0.0081974239
-0.0081854964
-0.0081973665
-0.0082010583
-0.00820029
-0.008200294
-0.0082021754
-0.0081970481
-0.0081778881
-0.0081793974
-0.0081854964
-0.0081727358
-0.0081839319
-0.0081869886
-0.0081852021
-0.0081843525
-0.0081881878
-0.0081902545
-0.0081886811
-0.0081927562
-0.0081973665
-0.0081839319
-0.0081948453
-0.0081976915
-0.0081953223
-0.0081930264
-0.0081945002
-0.0081936864
-0.0081941054
-0.0081973928
-0.0082010583
-0.0081869886
-0.0081976915
-0.0082005266
-0.0081981004
-0.0081955289
-0.008196381
-0.0081943061
-0.0081949097
-0.008196997
-0.00820029
-0.0081852021
-0.0081953223
-0.0081981004
-0.0081957152
-0.0081931812
-0.0081940568
-0.0081921578
-0.0081941315
-0.008195634
-0.008200294
-0.0081843525
-0.0081930264
-0.0081955289
-0.0081931812
-0.0081908062
-0.0081920132
-0.0081911787
-0.0081942496
-0.0081940243
-0.0082021754
-0.0081881878
-0.0081945002
-0.008196381
-0.0081940567
-0.0081920132
-0.0081939807
-0.0081943498
-0.0081958142
-0.0081902646
-0.0081970481
-0.0081902545
-0.0081936864
-0.0081943061
-0.0081921578
-0.0081911787
-0.0081943498
-0.0081926738
-0.01366178
-0.013647064
-0.013675525
-0.01363496
-0.013650716
-0.013657983
-0.013658469
-0.013656954
-0.013656446
-0.013663644
-0.013647064
-0.013674975
-0.013649932
-0.013637831
-0.013656293
-0.013662049
-0.01366096
-0.01366013
-0.013655128
-0.013649569
-0.013675525
-0.013649932
-0.013656043
-0.013643778
-0.013660149
-0.013664371
-0.013662382
-0.013664316
-0.013666613
-0.013659994
-0.01363496
-0.013637831
-0.013643778
-0.01363039
-0.013645853
-0.013649067
-0.013645218
-0.013645407
-0.013650118
-0.013652622
-0.013650716
-0.013656293
-0.013660149
-0.013645853
-0.013660953
-0.013663859
-0.013659072
-0.013657026
-0.013658265
-0.0136566
-0.013657983
-0.013662049
-0.013664371
-0.013649067
-0.013663859
-0.013666747
-0.013661854
-0.013659356
-0.013659633
-0.013656227
-0.013658469
-0.01366096
-0.013662382
-0.013645218
-0.013659072
-0.013661854
-0.01365702
-0.013654598
-0.013654989
-0.013652427
-0.013656954
-0.01366013
-0.013664316
-0.013645407
-0.013657026
-0.013659356
-0.013654598
-0.013652537
-0.013653749
-0.013653762
-0.013656446
-0.013655128
-0.013666613
-0.013650118
-0.013658265
-0.013659633
-0.013654989
-0.013653749
-0.013656782
-0.013657297
-0.013663644
-0.013649569
-0.013659994
-0.013652622
-0.0136566
-0.013656227
-0.013652427
-0.013653762
-0.013657297
-0.013655315
-0.019127541
-0.019107047
-0.019141465
-0.019095003
-0.01911453
-0.019123147
-0.019123236
-0.019121516
-0.019119126
-0.019130139
-0.019107047
-0.019138548
-0.019111385
-0.019098035
-0.019120465
-0.019126738
-0.019124753
-0.019126139
-0.019118559
-0.019111232
-0.019141465
-0.019111385
-0.019119858
-0.019106246
-0.019126107
-0.019130266
-0.019126628
-0.019131655
-0.019133962
-0.01912436
-0.019095003
-0.019098035
-0.019106246
-0.01909131
-0.019110077
-0.0191129
-0.01910663
-0.019109234
-0.019114643
-0.019116033
-0.01911453
-0.019120465
-0.019126107
-0.019110077
-0.019128412
-0.019130829
-0.019123275
-0.019122923
-0.019123917
-0.019120184
-0.019123147
-0.019126738
-0.019130266
-0.0191129
-0.019130829
-0.019133213
-0.019125484
-0.019124494
-0.019124211
-0.019118483
-0.019123236
-0.019124753
-0.019126628
-0.01910663
-0.019123275
-0.019125484
-0.019117812
-0.01911694
-0.019116926
-0.019113076
-0.019121516
-0.019126139
-0.019131655
-0.019109234
-0.019122923
-0.019124494
-0.01911694
-0.019116725
-0.019118312
-0.019118982
-0.019119126
-0.019118559
-0.019133962
-0.019114643
-0.019123917
-0.019124211
-0.019116926
-0.019118312
-0.019123188
-0.019119234
-0.019130139
-0.019111232
-0.01912436
-0.019116033
-0.019120184
-0.019118483
-0.019113076
-0.019118982
-0.019119234
-0.019118816
-0.024589777
-0.024567342
-0.024607173
-0.024554555
-0.024577258
-0.024586896
-0.024586408
-0.024585091
-0.024582276
-0.024596696
-0.024567342
-0.024603907
-0.024574371
-0.024559229
-0.02458505
-0.024591411
-0.024587972
-0.024591688
-0.024582411
-0.024573676
-0.024607173
-0.024574371
-0.024584774
-0.024569366
-0.024592207
-0.024595938
-0.02459016
-0.024598479
-0.024601388
-0.024589174
-0.024554555
-0.024559229
-0.024569366
-0.024552473
-0.024574052
-0.024576134
-0.024566993
-0.024572337
-0.024579124
-0.024579753
-0.024577258
-0.02458505
-0.024592207
-0.024574052
-0.024595133
-0.024596709
-0.024585933
-0.02458764
-0.024589158
-0.024583846
-0.024586896
-0.024591411
-0.024595938
-0.024576134
-0.024596709
-0.024598221
-0.024587184
-0.024588054
-0.024587982
-0.024580542
-0.024586408
-0.024587972
-0.02459016
-0.024566993
-0.024585933
-0.024587184
-0.024576183
-0.024577208
-0.024577624
-0.024573418
-0.024585091
-0.024591688
-0.024598479
-0.024572337
-0.02458764
-0.024588054
-0.024577208
-0.024579288
-0.024582455
-0.024585486
-0.024582276
-0.024582411
-0.024601388
-0.024579124
-0.024589158
-0.024587982
-0.024577624
-0.024582455
-0.024591297
-0.02458148
-0.024596696
-0.024573676
-0.024589174
-0.024579753
-0.024583846
-0.024580542
-0.024573418
-0.024585486
-0.02458148
-0.024582723
-0.030054196
-0.030030236
-0.030074769
-0.030016099
-0.030041595
-0.03005203
-0.030050656
-0.030049436
-0.030046293
-0.030063612
-0.030030236
-0.030071547
-0.030039453
-0.030022328
-0.030051193
-0.030057445
-0.030052213
-0.03005787
-0.030046885
-0.030036623
-0.030074769
-0.030039453
-0.030051343
-0.030034007
-0.030059519
-0.030062655
-0.030054451
-0.030065737
-0.030069106
-0.030054279
-0.030016099
-0.030022328
-0.030034007
-0.03001505
-0.030039142
-0.030040323
-0.030028051
-0.030035884
-0.030043918
-0.030043744
-0.030041595
-0.030051193
-0.030059519
-0.030039142
-0.030062668
-0.030063237
-0.030048979
-0.03005252
-0.030054485
-0.030047637
-0.03005203
-0.030057445
-0.030062655
-0.030040323
-0.030063237
-0.030063701
-0.030049077
-0.030051562
-0.030051617
-0.03004256
-0.030050656
-0.030052213
-0.030054451
-0.030028051
-0.030048979
-0.030049077
-0.030034442
-0.030037095
-0.030037847
-0.030033527
-0.030049436
-0.03005787
-0.030065737
-0.030035884
-0.03005252
-0.030051562
-0.030037095
-0.030041203
-0.030046006
-0.030052198
-0.030046293
-0.030046885
-0.030069106
-0.030043918
-0.030054485
-0.030051617
-0.030037847
-0.030046006
-0.030059514
-0.030043844
-0.030063612
-0.030036623
-0.030054279
-0.030043744
-0.030047637
-0.03004256
-0.030033527
-0.030052198
-0.030043844
-0.03004684
-0.035519516
-0.035494039
-0.035542787
-0.035478392
-0.035506395
-0.035517524
-0.035515167
-0.035513888
-0.035510407
-0.035530366
-0.035494039
-0.035539636
-0.035505069
-0.03548595
-0.035517601
-0.035523682
-0.035516582
-0.035523983
-0.035511321
-0.035499571
-0.035542787
-0.035505069
-0.035518207
-0.035498976
-0.035526929
-0.035529427
-0.035518754
-0.035532806
-0.035536544
-0.035519206
-0.035478392
-0.03548595
-0.035498976
-0.03547801
-0.035504391
-0.035504635
-0.035489215
-0.035499382
-0.035508554
-0.035507599
-0.035506395
-0.035517601
-0.035526929
-0.035504391
-0.035530137
-0.035529656
-0.0355119
-0.03551715
-0.035519499
-0.035511208
-0.035517524
-0.035523682
-0.035529427
-0.035504635
-0.035529656
-0.035529019
-0.035510782
-0.035514746
-0.035514859
-0.0355043
-0.035515167
-0.035516582
-0.035518754
-0.035489215
-0.0355119
-0.035510782
-0.035492471
-0.035496592
-0.035497594
-0.0354933
-0.035513888
-0.035523983
-0.035532806
-0.035499382
-0.03551715
-0.035514746
-0.035496592
-0.035502551
-0.035508911
-0.035518581
-0.035510407
-0.035511321
-0.035536544
-0.035508554
-0.035519499
-0.035514859
-0.035497594
-0.035508911
-0.035527207
-0.035505964
-0.035530366
-0.035499571
-0.035519206
-0.035507599
-0.035511208
-0.0355043
-0.0354933
-0.035518581
-0.035505964
-0.035510832
-0.040984307
-0.040957393
-0.041009973
-0.040940295
-0.040970539
-0.040982301
-0.040978964
-0.040977584
-0.04097378
-0.040996208
-0.040957393
-0.041006887
-0.040970066
-0.040949021
-0.040983211
-0.040989106
-0.040980175
-0.040989219
-0.040974964
-0.040961832
-0.041009973
-0.040970066
-0.040984305
-0.040963285
-0.040993461
-0.040995322
-0.040982244
-0.040998925
-0.041002975
-0.040983277
-0.040940295
-0.040949021
-0.040963285
-0.040940434
-0.040968893
-0.040968208
-0.040949735
-0.040962141
-0.040972361
-0.040970665
-0.040970539
-0.040983211
-0.040993461
-0.040968893
-0.040996644
-0.040995118
-0.040973966
-0.04098086
-0.040983559
-0.04097393
-0.040982301
-0.040989106
-0.040995322
-0.040968208
-0.040995118
-0.040993377
-0.04097162
-0.040976993
-0.040977131
-0.040965198
-0.040978964
-0.040980175
-0.040982244
-0.040949735
-0.040973966
-0.04097162
-0.040949716
-0.040955227
-0.04095643
-0.040952269
-0.040977584
-0.040989219
-0.040998925
-0.040962141
-0.04098086
-0.040976993
-0.040955227
-0.040962941
-0.040970786
-0.040984018
-0.04097378
-0.040974964
-0.041002975
-0.040972361
-0.040983559
-0.040977131
-0.04095643
-0.040970786
-0.040993794
-0.040967244
-0.040996208
-0.040961832
-0.040983277
-0.040970665
-0.04097393
-0.040965198
-0.040952269
-0.040984018
-0.040967244
-0.040974059
-0.046447302
-0.046419104
-0.046475142
-0.046400687
-0.046432897
-0.046445238
-0.046440959
-0.046439482
-0.046435384
-0.046460104
-0.046419104
-0.046472132
-0.046433328
-0.046410452
-0.046446922
-0.046452626
-0.046441944
-0.046452559
-0.046436815
-0.046422419
-0.046475142
-0.046433328
-0.04644854
-0.046425864
-0.046458034
-0.046459274
-0.046443901
-0.046463085
-0.046467395
-0.046445493
-0.046400687
-0.046410452
-0.046425864
-0.046401282
-0.046431597
-0.046430007
-0.046408627
-0.046423192
-0.046434369
-0.046431956
-0.046432897
-0.046446922
-0.046458034
-0.046431597
-0.046461128
-0.046458576
-0.046434183
-0.046442678
-0.046445695
-0.046434825
-0.046445238
-0.046452626
-0.046459274
-0.046430007
-0.046458576
-0.046455743
-0.046430615
-0.046437355
-0.046437495
-0.046424304
-0.046440959
-0.046441944
-0.046443901
-0.046408627
-0.046434183
-0.046430615
-0.046405265
-0.046412117
-0.046413492
-0.046409544
-0.046439482
-0.046452559
-0.046463085
-0.046423192
-0.046442678
-0.046437355
-0.046412117
-0.046421526
-0.04643079
-0.04644755
-0.046435384
-0.046436815
-0.046467395
-0.046434369
-0.046445695
-0.046437495
-0.046413492
-0.04643079
-0.046458353
-0.046426732
-0.046460104
-0.046422419
-0.046445493
-0.046431956
-0.046434825
-0.046424304
-0.046409544
-0.04644755
-0.046426732
-0.046435515
-0.051907047
-0.05187775
-0.051936856
-0.051858171
-0.051892054
-0.051904915
-0.051899745
-0.051898189
-0.051893834
-0.051920646
-0.05187775
-0.05193394
-0.051893445
-0.051868851
-0.05190732
-0.051912829
-0.051900494
-0.051912609
-0.051895493
-0.05187995
-0.051936856
-0.051893445
-0.051909506
-0.05188532
-0.051919235
-0.051919871
-0.051902338
-0.051923894
-0.051928408
-0.051904462
-0.051858171
-0.051868851
-0.05188532
-0.051859175
-0.051891104
-0.051888636
-0.051864528
-0.051881166
-0.051893201
-0.051890087
-0.051892054
-0.05190732
-0.051919235
-0.051891104
-0.051922169
-0.051918615
-0.051891171
-0.051901224
-0.051904529
-0.051892509
-0.051904915
-0.051912829
-0.051919871
-0.051888636
-0.051918615
-0.051914707
-0.051886394
-0.05189446
-0.051894584
-0.051880253
-0.051899745
-0.051900494
-0.051902338
-0.051864528
-0.051891171
-0.051886394
-0.051857779
-0.05186593
-0.051867454
-0.051863791
-0.051898189
-0.051912609
-0.051923894
-0.051881166
-0.051901224
-0.05189446
-0.05186593
-0.051876984
-0.051887605
-0.051907796
-0.051893834
-0.051895493
-0.051928408
-0.051893201
-0.051904529
-0.051894584
-0.051867454
-0.051887605
-0.051919525
-0.051883067
-0.051920646
-0.05187995
-0.051904462
-0.051890087
-0.051892509
-0.051880253
-0.051863791
-0.051907796
-0.051883067
-0.051893801
-0.057361712
-0.057331518
-0.057393279
-0.057310942
-0.057346191
-0.057359504
-0.057353501
-0.057351888
-0.057347317
-0.057375999
-0.057331518
-0.057390478
-0.057348598
-0.057322413
-0.057362577
-0.057367883
-0.057354009
-0.057367544
-0.057349186
-0.057332619
-0.057393279
-0.057348598
-0.057365375
-0.057339838
-0.057375229
-0.057375279
-0.05735574
-0.057379522
-0.057384184
-0.057358364
-0.057310942
-0.057322413
-0.057339838
-0.057312309
-0.057345591
-0.057342275
-0.057315639
-0.057334255
-0.057347042
-0.057343243
-0.057346191
-0.057362577
-0.057375229
-0.057345591
-0.057377929
-0.057373399
-0.057343118
-0.057354681
-0.057358239
-0.057345166
-0.057359504
-0.057367883
-0.057375279
-0.057342275
-0.057373399
-0.057368433
-0.057337146
-0.057346494
-0.057346586
-0.05733124
-0.057353501
-0.057354009
-0.05735574
-0.057315639
-0.057343118
-0.057337146
-0.057305474
-0.05731488
-0.057316537
-0.057313231
-0.057351888
-0.057367544
-0.057379522
-0.057334255
-0.057354681
-0.057346494
-0.05731488
-0.057327528
-0.057339443
-0.057362932
-0.057347317
-0.057349186
-0.057384184
-0.057347042
-0.057358239
-0.057346586
-0.057316537
-0.057339443
-0.057375488
-0.05733445
-0.057375999
-0.057332619
-0.057358364
-0.057343243
-0.057345166
-0.05733124
-0.057313231
-0.057362932
-0.05733445
-0.057347094
-0.062809025
-0.062778143
-0.062842124
-0.062756741
-0.062793037
-0.062806728
-0.062799955
-0.062798308
-0.062793566
-0.062823879
-0.062778143
-0.062839461
-0.062796512
-0.062768874
-0.062810413
-0.062815505
-0.062800217
-0.062815084
-0.062795626
-0.062778161
-0.062842124
-0.062796512
-0.06281387
-0.062787147
-0.062823729
-0.06282321
-0.062801837
-0.062827683
-0.062832435
-0.062804925
-0.062756741
-0.062768874
-0.062787147
-0.062758421
-0.062792782
-0.062788648
-0.062759707
-0.062780191
-0.062793619
-0.062789154
-0.062793037
-0.062810413
-0.062823729
-0.062792782
-0.062826115
-0.062820635
-0.062787755
-0.062800771
-0.062804547
-0.062790526
-0.062806728
-0.062815505
-0.06282321
-0.062788648
-0.062820635
-0.06281463
-0.062780604
-0.062791184
-0.062791229
-0.062775004
-0.062799955
-0.062800217
-0.062801837
-0.062759707
-0.062787755
-0.062780604
-0.062746108
-0.06275672
-0.062758494
-0.062755621
-0.062798308
-0.062815084
-0.062827683
-0.062780191
-0.062800771
-0.062791184
-0.06275672
-0.062770905
-0.062784048
-0.062810677
-0.062793566
-0.062795626
-0.062832435
-0.062793619
-0.062804547
-0.062791229
-0.062758494
-0.062784048
-0.062823958
-0.062778626
-0.062823879
-0.062778161
-0.062804925
-0.062789154
-0.062790526
-0.062775004
-0.062755621
-0.062810677
-0.062778626
-0.062793122
-0.068246237
-0.068214884
-0.068280634
-0.068192833
-0.068229852
-0.068243837
-0.068236362
-0.068234708
-0.06822984
-0.06826153
-0.068214884
-0.068278132
-0.068234437
-0.068205498
-0.068248077
-0.06825294
-0.068236374
-0.068252477
-0.068232068
-0.06821384
-0.068280634
-0.068234437
-0.068252238
-0.068224502
-0.06826198
-0.068260908
-0.068237885
-0.068265621
-0.068270403
-0.068241401
-0.068192833
-0.068205498
-0.068224502
-0.068194775
-0.068229928
-0.068225008
-0.068194001
-0.068216233
-0.068230183
-0.068225076
-0.068229852
-0.068248077
-0.06826198
-0.068229928
-0.068263967
-0.068257566
-0.068222347
-0.068236748
-0.068240704
-0.068225848
-0.068243837
-0.06825294
-0.068260908
-0.068225008
-0.068257566
-0.068250542
-0.068214032
-0.068225788
-0.068225772
-0.068208814
-0.068236362
-0.068236374
-0.068237885
-0.068194001
-0.068222347
-0.068214032
-0.068176967
-0.06818873
-0.068190606
-0.068188247
-0.068234708
-0.068252477
-0.068265621
-0.068216233
-0.068236748
-0.068225788
-0.06818873
-0.068204387
-0.068218687
-0.068248274
-0.06822984
-0.068232068
-0.068270403
-0.068230183
-0.068240704
-0.068225772
-0.068190606
-0.068218687
-0.068262172
-0.068212865
-0.06826153
-0.06821384
-0.068241401
-0.068225076
-0.068225848
-0.068208814
-0.068188247
-0.068248274
-0.068212865
-0.068229143
-0.073670121
-0.073638519
-0.073705574
-0.073615996
-0.073653414
-0.073667599
-0.073659495
-0.073657861
-0.073652917
-0.073685719
-0.073638519
-0.073703256
-0.073659139
-0.073629068
-0.073672339
-0.073676953
-0.073659256
-0.07367649
-0.073655287
-0.073636436
-0.073705574
-0.073659139
-0.073677246
-0.073648678
-0.073686744
-0.073685134
-0.073660661
-0.073690097
-0.073694851
-0.073664566
-0.073615996
-0.073629068
-0.073648678
-0.07361815
-0.0736538
-0.073648124
-0.07361531
-0.073639157
-0.073653506
-0.073647785
-0.073653414
-0.073672339
-0.073686744
-0.0736538
-0.073688248
-0.073680955
-0.073643673
-0.073659385
-0.073663481
-0.073647908
-0.073667599
-0.073676953
-0.073685134
-0.073648124
-0.073680955
-0.073672932
-0.073634215
-0.073647081
-0.073646991
-0.073629458
-0.073659495
-0.073659256
-0.073660661
-0.07361531
-0.073643673
-0.073634215
-0.073594856
-0.073607707
-0.073609672
-0.07360791
-0.073657861
-0.07367649
-0.073690097
-0.073639157
-0.073659385
-0.073647081
-0.073607707
-0.073624765
-0.073640145
-0.073672486
-0.073652917
-0.073655287
-0.073694851
-0.073653506
-0.073663481
-0.073646991
-0.073609672
-0.073640145
-0.073686886
-0.073633956
-0.073685719
-0.073636436
-0.073664566
-0.073647785
-0.073647908
-0.073629458
-0.07360791
-0.073672486
-0.073633956
-0.073651936
-0.07907697
-0.079045342
-0.079113231
-0.079022526
-0.079060023
-0.079074306
-0.079065649
-0.079064062
-0.079059092
-0.079092735
-0.079045342
-0.079111119
-0.079066904
-0.079035883
-0.079079492
-0.079083831
-0.079065159
-0.079083412
-0.079061578
-0.079042247
-0.079113231
-0.079066904
-0.079085184
-0.079055966
-0.079094308
-0.079092171
-0.07906646
-0.079097396
-0.079102065
-0.079070716
-0.079022526
-0.079035883
-0.079055966
-0.079024842
-0.07906069
-0.079054287
-0.07901994
-0.079045255
-0.079059877
-0.079053579
-0.079060023
-0.079079492
-0.079094308
-0.07906069
-0.079095246
-0.079087088
-0.079048041
-0.079064978
-0.079069172
-0.079053009
-0.079074306
-0.079083831
-0.079092171
-0.079054287
-0.079087088
-0.079078089
-0.07903746
-0.079051364
-0.079051189
-0.079033246
-0.079065649
-0.079065159
-0.07906646
-0.07901994
-0.079048041
-0.07903746
-0.0789961
-0.07900997
-0.079012013
-0.079010933
-0.079064062
-0.079083412
-0.079097396
-0.079045255
-0.079064978
-0.079051364
-0.07900997
-0.07902835
-0.079044728
-0.079079598
-0.079059092
-0.079061578
-0.079102065
-0.079059877
-0.079069172
-0.079051189
-0.079012013
-0.079044728
-0.079094379
-0.079038207
-0.079092735
-0.079042247
-0.079070716
-0.079053579
-0.079053009
-0.079033246
-0.079010933
-0.079079598
-0.079038207
-0.079057796
-0.084462617
-0.084431188
-0.084499438
-0.084408254
-0.084445521
-0.084459791
-0.084450657
-0.084449147
-0.084444202
-0.084478409
-0.084431188
-0.084497552
-0.084453556
-0.084421784
-0.084465373
-0.084469404
-0.084449918
-0.084469072
-0.084446775
-0.084427108
-0.084499438
-0.084453556
-0.08447188
-0.084442199
-0.084480503
-0.084477847
-0.084451118
-0.084483343
-0.084487872
-0.084455689
-0.084408254
-0.084421784
-0.084442199
-0.084410686
-0.08444643
-0.084439331
-0.084403733
-0.084430359
-0.084445126
-0.084438293
-0.084445521
-0.084465373
-0.084480503
-0.08444643
-0.084480793
-0.0844718
-0.084431297
-0.084449366
-0.084453612
-0.08443699
-0.084459791
-0.084469404
-0.084477847
-0.084439331
-0.0844718
-0.084461846
-0.084419615
-0.084434479
-0.08443421
-0.084416028
-0.084450657
-0.084449918
-0.084451118
-0.084403733
-0.084431297
-0.084419615
-0.084376564
-0.084391379
-0.08439349
-0.084393175
-0.084449147
-0.084469072
-0.084483343
-0.084430359
-0.084449366
-0.084434479
-0.084391379
-0.084410993
-0.084428282
-0.084465435
-0.084444202
-0.084446775
-0.084487872
-0.084445126
-0.084453612
-0.08443421
-0.08439349
-0.084428282
-0.084480473
-0.084421467
-0.084478409
-0.084427108
-0.084455689
-0.084438293
-0.08443699
-0.084416028
-0.084393175
-0.084465435
-0.084421467
-0.084442565
-0.089822475
-0.089791468
-0.089859607
-0.089768585
-0.089805331
-0.089819466
-0.089809933
-0.08980853
-0.089803658
-0.089838155
-0.089791468
-0.089857967
-0.089814499
-0.089782188
-0.089825399
-0.089829082
-0.089808951
-0.089828882
-0.089806288
-0.08978643
-0.089859607
-0.089814499
-0.089832744
-0.089802789
-0.08984074
-0.089837569
-0.08981005
-0.089843346
-0.089847684
-0.089814902
-0.089768585
-0.089782188
-0.089802789
-0.089771092
-0.089806434
-0.089798664
-0.08976211
-0.089789879
-0.089804662
-0.089797342
-0.089805331
-0.089825399
-0.08984074
-0.089806434
-0.089840307
-0.089830507
-0.089788871
-0.089807966
-0.089812221
-0.089795275
-0.089819466
-0.089829082
-0.089837569
-0.089798664
-0.089830507
-0.08981962
-0.089776111
-0.089791851
-0.08979148
-0.089773237
-0.089809933
-0.089808951
-0.08981005
-0.08976211
-0.089788871
-0.089776111
-0.089731693
-0.089747372
-0.089749543
-0.089750073
-0.08980853
-0.089828882
-0.089843346
-0.089789879
-0.089807966
-0.089791851
-0.089747372
-0.089768124
-0.089786231
-0.089825405
-0.089803658
-0.089806288
-0.089847684
-0.089804662
-0.089812221
-0.08979148
-0.089749543
-0.089786231
-0.089840572
-0.089779164
-0.089838155
-0.08978643
-0.089814902
-0.089797342
-0.089795275
-0.089773237
-0.089750073
-0.089825405
-0.089779164
-0.089801657
-0.095151601
-0.095121234
-0.095188797
-0.09509856
-0.09513452
-0.095148386
-0.095138534
-0.095137266
-0.095132516
-0.095167032
-0.095121234
-0.095187419
-0.095144774
-0.095112154
-0.095154635
-0.095157919
-0.095137314
-0.095157894
-0.095135172
-0.095115265
-0.095188797
-0.095144774
-0.09516283
-0.095132786
-0.095170079
-0.09516639
-0.095138313
-0.095172456
-0.095176559
-0.095143416
-0.09509856
-0.095112154
-0.095132786
-0.095101108
-0.095135758
-0.09512734
-0.09509013
-0.095118861
-0.095133536
-0.095125784
-0.09513452
-0.095154635
-0.095170079
-0.095135758
-0.095168854
-0.095158274
-0.095115834
-0.095135843
-0.095140061
-0.095122927
-0.095148386
-0.095157919
-0.09516639
-0.09512734
-0.095158274
-0.095146475
-0.095102023
-0.095118549
-0.095118072
-0.095099947
-0.095138534
-0.095137314
-0.095138313
-0.09509013
-0.095115834
-0.095102023
-0.095056573
-0.095073029
-0.095075256
-0.095076703
-0.095137266
-0.095157894
-0.095172456
-0.095118861
-0.095135843
-0.095118549
-0.095073029
-0.095094814
-0.095113643
-0.095154557
-0.095132516
-0.095135172
-0.095176559
-0.095133536
-0.095140061
-0.095118072
-0.095075256
-0.095113643
-0.095169723
-0.095106368
-0.095167032
-0.095115265
-0.095143416
-0.095125784
-0.095122927
-0.095099947
-0.095076703
-0.095154557
-0.095106368
-0.095130132
-0.10044478
-0.10041527
-0.1004818
-0.10039295
-0.10042789
-0.10044134
-0.10043125
-0.10043014
-0.10042556
-0.10045983
-0.10041527
-0.1004807
-0.10043915
-0.10040647
-0.10044788
-0.1004507
-0.1004298
-0.1004509
-0.10042821
-0.10040839
-0.1004818
-0.10043915
-0.10045692
-0.10042697
-0.10046331
-0.1004591
-0.10043069
-0.10046546
-0.10046929
-0.10043602
-0.10039295
-0.10040647
-0.10042697
-0.10039551
-0.10042919
-0.10042015
-0.10038258
-0.10041208
-0.10042653
-0.10041841
-0.10042789
-0.10044788
-0.10046331
-0.10042919
-0.10046124
-0.1004499
-0.10040699
-0.10042779
-0.10043193
-0.10041475
-0.10044134
-0.1004507
-0.1004591
-0.10042015
-0.1004499
-0.10043721
-0.10039216
-0.10040938
-0.10040879
-0.10039096
-0.10043125
-0.1004298
-0.10043069
-0.10038258
-0.10040699
-0.10039216
-0.10034602
-0.10036316
-0.10036544
-0.10036787
-0.10043014
-0.1004509
-0.10046546
-0.10041208
-0.10042779
-0.10040938
-0.10036316
-0.10038587
-0.10040531
-0.10044768
-0.10042556
-0.10042821
-0.10046929
-0.10042653
-0.10043193
-0.10040879
-0.10036544
-0.10040531
-0.10046271
-0.10039788
-0.10045983
-0.10040839
-0.10043602
-0.10041841
-0.10041475
-0.10039096
-0.10036787
-0.10044768
-0.10039788
-0.10042278
-0.10569665
-0.10566819
-0.10573327
-0.10564636
-0.10568007
-0.10569296
-0.1056827
-0.10568179
-0.10567741
-0.1057112
-0.10566819
-0.10573245
-0.10569226
-0.10565976
-0.10569978
-0.10570207
-0.10568103
-0.10570252
-0.10568003
-0.10566043
-0.10573327
-0.10569226
-0.10570965
-0.10567997
-0.10571508
-0.10571032
-0.10568182
-0.10571697
-0.1057205
-0.10568736
-0.10564636
-0.10565976
-0.10567997
-0.10564892
-0.10568137
-0.10567171
-0.10563408
-0.10566416
-0.10567827
-0.10566984
-0.10568007
-0.10569978
-0.10571508
-0.10568137
-0.10571211
-0.10570004
-0.105657
-0.10567846
-0.10568247
-0.10566537
-0.10569296
-0.10570207
-0.10571032
-0.10567171
-0.10570004
-0.10568649
-0.10564118
-0.10565898
-0.1056583
-0.10564094
-0.1056827
-0.10568103
-0.10568182
-0.10563408
-0.105657
-0.10564118
-0.10559469
-0.10561242
-0.10561476
-0.10561822
-0.10568179
-0.10570252
-0.10571697
-0.10566416
-0.10567846
-0.10565898
-0.10561242
-0.10563593
-0.10565589
-0.10569939
-0.10567741
-0.10568003
-0.1057205
-0.10567827
-0.10568247
-0.1056583
-0.10561476
-0.10565589
-0.10571416
-0.10564834
-0.1057112
-0.10566043
-0.10568736
-0.10566984
-0.10566537
-0.10564094
-0.10561822
-0.10569939
-0.10564834
-0.10567424
-0.11090181
-0.11087459
-0.11093781
-0.11085336
-0.1108857
-0.11089786
-0.1108875
-0.1108868
-0.11088267
-0.11091575
-0.11087459
-0.11093728
-0.11089867
-0.11086662
-0.11090494
-0.11090663
-0.11088563
-0.11090737
-0.11088522
-0.11086596
-0.11093781
-0.11089867
-0.11091561
-0.11088638
-0.11091999
-0.11091467
-0.1108863
-0.11092161
-0.11092483
-0.11089203
-0.11085336
-0.11086662
-0.11088638
-0.11085591
-0.11088689
-0.11087663
-0.11083923
-0.11086969
-0.11088334
-0.11087468
-0.1108857
-0.11090494
-0.11091999
-0.11088689
-0.1109161
-0.11090332
-0.11086047
-0.11088245
-0.1108863
-0.11086942
-0.11089786
-0.11090663
-0.11091467
-0.11087663
-0.11090332
-0.11088893
-0.1108437
-0.11086198
-0.11086121
-0.1108445
-0.1108875
-0.11088563
-0.1108863
-0.11083923
-0.11086047
-0.1108437
-0.11079721
-0.11081543
-0.11081782
-0.11082237
-0.1108868
-0.11090737
-0.11092161
-0.11086969
-0.11088245
-0.11086198
-0.11081543
-0.1108396
-0.11085997
-0.1109043
-0.11088267
-0.11088522
-0.11092483
-0.11088334
-0.1108863
-0.11086121
-0.11081782
-0.11085997
-0.11091869
-0.11085236
-0.11091575
-0.11086596
-0.11089203
-0.11087468
-0.11086942
-0.1108445
-0.11082237
-0.1109043
-0.11085236
-0.1108791
-0.11605494
-0.11602913
-0.1160901
-0.11600859
-0.11603944
-0.11605071
-0.11604031
-0.11603985
-0.116036
-0.11606817
-0.11602913
-0.11608987
-0.11605303
-0.11602171
-0.11605806
-0.11605905
-0.11603825
-0.11606012
-0.11603844
-0.11601963
-0.1160901
-0.11605303
-0.11606947
-0.11604085
-0.11607273
-0.11606681
-0.11603879
-0.11607404
-0.11607693
-0.11604471
-0.11600859
-0.11602171
-0.11604085
-0.11601113
-0.11604043
-0.11602957
-0.11599268
-0.1160233
-0.11603641
-0.1160276
-0.11603944
-0.11605806
-0.11607273
-0.11604043
-0.1160679
-0.11605444
-0.11601211
-0.11603446
-0.1160381
-0.11602157
-0.11605071
-0.11605905
-0.11606681
-0.11602957
-0.11605444
-0.11603922
-0.11599442
-0.11601308
-0.11601223
-0.11599632
-0.11604031
-0.11603825
-0.11603879
-0.11599268
-0.11601211
-0.11599442
-0.11594827
-0.11596687
-0.11596933
-0.11597498
-0.11603985
-0.11606012
-0.11607404
-0.1160233
-0.11603446
-0.11601308
-0.11596687
-0.11599157
-0.11601223
-0.11605707
-0.116036
-0.11603844
-0.11607693
-0.11603641
-0.1160381
-0.11601223
-0.11596933
-0.11601223
-0.11607095
-0.11600463
-0.11606817
-0.11601963
-0.11604471
-0.1160276
-0.11602157
-0.11599632
-0.11597498
-0.11605707
-0.11600463
-0.11603204
-0.12115079
-0.12112655
-0.12118493
-0.12110677
-0.12113606
-0.12114626
-0.12113588
-0.12113569
-0.12113213
-0.12116322
-0.12112655
-0.12118498
-0.12115009
-0.12111978
-0.12115391
-0.1211541
-0.12113364
-0.12115551
-0.12113443
-0.12111618
-0.12118493
-0.12115009
-0.12116597
-0.12113812
-0.12116807
-0.12116151
-0.12113404
-0.12116901
-0.12117159
-0.12114015
-0.12110677
-0.12111978
-0.12113812
-0.1211093
-0.12113674
-0.12112528
-0.12108916
-0.12111973
-0.12113222
-0.12112335
-0.12113606
-0.12115391
-0.12116807
-0.12113674
-0.1211623
-0.12114817
-0.12110667
-0.12112924
-0.12113265
-0.12111658
-0.12114626
-0.1211541
-0.12116151
-0.12112528
-0.12114817
-0.12113217
-0.12108811
-0.12110703
-0.12110613
-0.12109119
-0.12113588
-0.12113364
-0.12113404
-0.12108916
-0.12110667
-0.12108811
-0.12104263
-0.12106151
-0.12106406
-0.12107081
-0.12113569
-0.12115551
-0.12116901
-0.12111973
-0.12112924
-0.12110703
-0.12106151
-0.1210866
-0.12110743