/*--------------------------------*- C++ -*----------------------------------*\
| =========                 |                                                 |
| \\      /  F ield         | OpenFOAM: The Open Source CFD Toolbox           |
|  \\    /   O peration     | Version:  v2106                                 |
|   \\  /    A nd           | Website:  www.openfoam.com                      |
|    \\/     M anipulation  |                                                 |
\*---------------------------------------------------------------------------*/
FoamFile
{
    version     2.0;
    format      ascii;
    arch        "LSB;label=32;scalar=64";
    class       volScalarField;
    location    "10";
    object      gradTx;
}
// * * * * * * * * * * * * * * * * * * * * * * * * * * * * * * * * * * * * * //

dimensions      [0 -1 0 1 0 0 0];

internalField   nonuniform List<scalar> 
10000
(
-0.00018097874
-6.2323108e-07
0.00071127806
0.0011028388
0.0017868518
0.0018477752
0.00093077463
0.00082060234
0.00086184343
0.00016579111
-4.9463362e-05
6.7986605e-05
0.00069331671
0.0016731537
0.0019963528
0.0014391122
0.0012724417
0.00099387381
8.5705892e-05
-0.00013366954
-0.00013523921
9.9841117e-05
0.0010983717
0.0016532282
0.0015564283
0.0015489984
0.0011958828
0.00026818284
-9.8079342e-06
4.5177008e-05
-6.1437561e-05
0.00045508037
0.0011721352
0.001123487
0.0014500558
0.001539401
0.0004991021
0.0001434812
0.00037118716
9.2582922e-05
0.00024497134
0.00065023116
0.00054870461
0.0010432465
0.0014260216
0.00075469975
0.00029423151
0.00043349797
5.1968499e-05
-0.00012886142
7.8229618e-05
0.00022465665
0.00062583823
0.00099308019
0.00067063084
0.0005529711
0.0004262055
-0.00011503147
-0.00025976294
-5.0280278e-05
-2.7470946e-05
0.00035145393
0.00064899376
0.00024894806
0.00043959156
0.00068523792
8.9476998e-05
-7.9014171e-05
9.7976283e-05
1.8804296e-05
0.00030600787
0.0004897652
-0.00014750148
9.1428944e-05
0.00059773453
0.0003482167
0.00033233565
0.00044594233
-0.0001445317
-0.00018553626
8.8043369e-05
-0.00020096545
-0.00020139865
0.0004142633
0.00018107914
0.00017272589
0.00065045077
0.00012355767
-0.00042910341
-0.000117659
-0.00021141733
-0.00038188631
0.00013798018
0.00015320526
-3.3215884e-05
0.00039422434
0.00044756695
-8.1137188e-05
-8.2412242e-05
4.5591264e-05
-0.00029907011
0.00030570655
0.0023246426
0.0038422245
0.0045440648
0.0041599198
0.0032918918
0.0021330904
0.00084174422
7.5198026e-05
-0.0001917007
0.00078979954
0.0027770285
0.0040687202
0.0049220467
0.0042052396
0.0028813286
0.0019316779
0.0004431256
-0.00017297255
2.3658705e-05
0.00096902838
0.002723153
0.004159018
0.0043518093
0.0035550605
0.0027518272
0.0013266544
-0.00013799567
-0.00019031959
0.00010989008
0.0011883103
0.0027084812
0.0034133133
0.0035644705
0.0031087687
0.0017063135
0.00064526856
0.00025845716
3.1264373e-05
0.00017465597
0.001285822
0.0020677462
0.0026134097
0.003045209
0.0020236251
0.00096168012
0.0007396514
0.00025750282
-4.5590695e-05
0.00036187799
0.00099605464
0.001350905
0.0021067132
0.002064327
0.0013717759
0.00088260217
0.0004064982
2.0886204e-05
-1.3003008e-05
0.00020486902
0.00068096276
0.00097127548
0.0010819745
0.0013082164
0.0014868815
0.00099280109
0.00048693036
0.00014829109
-5.9076607e-06
8.8169164e-05
0.00045599
0.00017589022
0.00031656651
0.001240616
0.001402897
0.0012229474
0.00070393693
4.4552933e-05
-4.2086792e-05
7.0594088e-05
-0.00012547309
-0.00031513363
0.00049497166
0.0010694463
0.0012341607
0.0012902399
0.00059350145
0.00028877679
0.00016137316
-0.00017757643
-0.00052374949
-8.7783008e-06
0.00071206506
0.0010030452
0.0012936853
0.0012466144
0.00084442272
0.00053315787
0.00012083397
-0.00011518652
0.0010575541
0.0034332507
0.0053160243
0.0062706775
0.0056010739
0.0042618497
0.002818059
0.0010521148
3.4934526e-05
-1.3307784e-05
0.0013680724
0.0039545561
0.0056650093
0.0061348954
0.0053802949
0.0040845484
0.0024914684
0.00046569855
-0.00019007221
9.1825674e-05
0.0016342674
0.0038737318
0.0052759727
0.0054638325
0.0047173186
0.0036405152
0.0017554673
0.00025219973
-1.000554e-05
0.00033422926
0.0018085537
0.0034461218
0.0044313069
0.004541417
0.0037974403
0.0023747058
0.0014350836
0.0010138812
0.00027005683
0.00032448253
0.001594216
0.0026400294
0.0035436322
0.0038065384
0.0026508328
0.0018043054
0.0017529875
0.0010433931
0.00015954769
0.00024370788
0.0010017085
0.0018526433
0.0027740132
0.0027507903
0.0021915121
0.001978342
0.0014372204
0.00076207183
0.00020330341
0.00017729635
0.00071046071
0.0010571752
0.0014771467
0.0022006107
0.0026261509
0.0021096837
0.0013457686
0.0010157489
0.00032642405
0.00012550712
0.00038037439
0.0001428013
0.00093780355
0.0023544268
0.0024968909
0.0020906907
0.0016965594
0.0012875973
0.0003680989
-4.0430545e-05
-0.00035213057
7.9080499e-07
0.0014746673
0.0022027477
0.0022189322
0.002369023
0.0021419914
0.0013561055
0.00025637388
-0.00026543718
-0.0004195403
0.00069098436
0.0017289969
0.0021026176
0.0024692468
0.0026162162
0.0020369161
0.0014945606
0.00046040231
3.0288447e-05
0.0015123983
0.0038433656
0.0054485276
0.0062611488
0.0058725928
0.0045370822
0.0030920609
0.0017208801
0.00032155318
0.00025327887
0.0018216978
0.0038863863
0.0055484542
0.0061180307
0.0054269457
0.0044369789
0.0032223226
0.0013855677
0.00012497444
0.00023648804
0.0018030514
0.0037746792
0.0051980484
0.0053643156
0.0047920229
0.004314751
0.0028895202
0.0013513846
0.00031814627
0.00028195952
0.0017530112
0.0035207806
0.004410204
0.0044974243
0.004186532
0.0034108322
0.0027744129
0.0021196491
0.00056497701
0.00030310569
0.0015525721
0.0026364289
0.0036741365
0.0040890957
0.0033332378
0.0031206089
0.0031972058
0.0021415761
0.00045681071
0.00018654731
0.00085617816
0.0019001745
0.0031349842
0.0033658899
0.0032626773
0.0034463714
0.0028344601
0.0019344676
0.00055894969
6.0078567e-06
0.00047200268
0.0013960156
0.0022153517
0.0031652413
0.0038249137
0.0033747147
0.0026747693
0.0021619047
0.00061323381
0.00011981168
0.00063384715
0.00087402864
0.0019408427
0.0034014295
0.0035167833
0.0032636077
0.0032547611
0.0022215728
0.00039608121
9.2849082e-05
0.00026946282
0.00094810628
0.0025230373
0.0032252889
0.0033024775
0.0037950159
0.0034794888
0.0015770452
7.3508942e-05
-0.00010372967
0.00026435228
0.0016081101
0.0027310345
0.0032162483
0.003537112
0.0035507132
0.0026699014
0.001416921
0.00028933187
0.00031519501
0.001695428
0.0032713917
0.0047952626
0.0055546454
0.0052905629
0.0045778624
0.0039356225
0.0028496523
0.00067297886
0.00022699193
0.001611606
0.00333105
0.0047059898
0.0053266494
0.0050740617
0.0049713449
0.0044467842
0.0025116345
0.00042848344
0.00025931358
0.0015961724
0.0031923281
0.0045288191
0.0048727434
0.0048779676
0.0052499969
0.0042148162
0.0023595711
0.00056388969
0.00026676418
0.0015325423
0.0030952133
0.0040000865
0.0044138017
0.0047522894
0.0045806644
0.0040929845
0.0030590952
0.00078067884
0.00019979863
0.0013297293
0.0024864246
0.0036739877
0.0044620073
0.0041973725
0.0044134858
0.0044698726
0.0030349057
0.00068370612
0.00011476681
0.00085064039
0.0021823659
0.0035893505
0.0040519382
0.0042915769
0.004654548
0.0039342713
0.0026467449
0.00069460538
5.5464286e-05
0.00091713398
0.0021646529
0.0029933933
0.0040012951
0.0047445665
0.0043040369
0.0036158434
0.0024762075
0.00050563443
0.00037708852
0.0015227753
0.0017916859
0.0027528399
0.0041258222
0.0041821283
0.0041880532
0.0039735284
0.0017659336
3.9037786e-06
0.00039623876
0.001196328
0.001810854
0.0032484502
0.0038425825
0.0038905377
0.0043432941
0.0029860921
0.00078969862
3.9586175e-05
0.00015174358
0.0010326947
0.0023391472
0.0034281748
0.0037134724
0.0036234305
0.0033072415
0.0022870198
-6.8607392e-05
-0.0005683004
0.00037868065
0.0015305131
0.002671934
0.0040598026
0.0048279183
0.0049326332
0.0049515259
0.0048654097
0.0037392709
0.00091354095
0.00015123552
0.0013187816
0.0028196928
0.0040380017
0.0048618466
0.0050498746
0.0055654313
0.0054533191
0.0032421425
0.00057065963
0.00023752654
0.0013471402
0.0027073485
0.0041327561
0.0047750567
0.0051503949
0.0060115756
0.0051764517
0.00286323
0.00060450509
0.00024974143
0.0013541963
0.0028021479
0.0039074791
0.0046647831
0.0052771069
0.0053587289
0.0048214198
0.0033440451
0.00078940997
0.00022299249
0.0014200939
0.002576826
0.0039021593
0.0048964672
0.0046982391
0.0049526606
0.0049024189
0.003191081
0.00068574159
0.00027236037
0.001301335
0.0026050849
0.0040288899
0.0044252702
0.0045720591
0.0049294026
0.0041966531
0.0025356567
0.00053667858
0.00030115352
0.0016378558
0.0028040593
0.0034500044
0.0041914196
0.0048147352
0.0045018785
0.0036502645
0.0019893782
0.00025707067
0.00068163089
0.0023613853
0.0023983831
0.0029699756
0.0039959448
0.0041212772
0.0042268212
0.0030951526
0.00073614976
-0.00011203038
0.00069309323
0.0019488985
0.0021721608
0.0031759722
0.0035666532
0.0035625808
0.003400378
0.0015346087
-0.00027521082
-0.00021229277
0.00035021189
0.0014853444
0.0025002861
0.0032978274
0.0031875566
0.0029195745
0.0024273149
0.00083056341
-0.00064477706
-0.00035840765
0.00028992417
0.0012986177
0.0024793567
0.0038573516
0.0046985271
0.004971762
0.0052299476
0.0053563306
0.0041165955
0.0009835008
9.8031705e-05
0.0012014385
0.002791649
0.0040931306
0.0049364254
0.0051369652
0.0058540042
0.0058905769
0.0033357526
0.00049517833
0.00022513778
0.0013782161
0.0027695804
0.0042383495
0.0049274382
0.005275923
0.006276512
0.0054029838
0.0026261973
0.00042797467
0.00030622654
0.0014916622
0.0029348824
0.0041207421
0.0048239492
0.0052556643
0.0052942153
0.0045965019
0.0028782654
0.00061738769
0.00038232414
0.0017592144
0.0027971922
0.0040816921
0.0047610435
0.004293475
0.0045235611
0.0044400071
0.0025792566
0.00044010068
0.00046482552
0.0017205735
0.0028224066
0.0039543481
0.0039377344
0.0040345595
0.0044116501
0.0036278871
0.0018444287
0.00025072658
0.00049245942
0.0020633759
0.002915892
0.0030992446
0.0035399393
0.0042225643
0.0038274776
0.0027437693
0.0012029703
6.4009556e-05
0.00088086326
0.0027671379
0.0022626184
0.0022013982
0.0030551696
0.0033384762
0.0030094346
0.0016227812
0.00022869915
-3.5051205e-05
0.00084862381
0.0021100293
0.0016218175
0.0021362686
0.0025713248
0.002526327
0.001822372
0.00077478404
-0.0006158649
-0.0005832159
0.00036030135
0.0012767403
0.0018051317
0.0021544576
0.0020213335
0.0019621902
0.001393705
-0.00019605366
-6.1769926e-05
0.00033434528
0.00015728345
0.0012807141
0.002885374
0.0042067048
0.0048773045
0.0049746103
0.0051085144
0.0052331457
0.0039618386
0.00091585448
0.00011907624
0.0015522826
0.0033528735
0.0044953627
0.0050797929
0.0049497443
0.0055659833
0.0056520004
0.0029271412
0.00030334345
0.00033832926
0.0018171792
0.0031818517
0.0044246792
0.0047751141
0.0048058043
0.0058179193
0.0048940936
0.0019428505
0.00018898224
0.00043074275
0.0018487605
0.0031653586
0.0040379896
0.0042824633
0.004454586
0.0044864488
0.0037492415
0.0020197855
0.00033972847
0.00053076784
0.0020351536
0.0027244786
0.0035619465
0.0038323485
0.0033448593
0.0035973887
0.0034670378
0.0016103833
0.00010116912
0.00056573483
0.0017465703
0.0023680294
0.0030952242
0.0030181339
0.003262491
0.0034339184
0.002562513
0.0010648517
4.4491421e-05
0.0005141905
0.001866348
0.0022293211
0.0021010018
0.002640254
0.0032622627
0.0025460387
0.0016726631
0.00068063275
-2.3162215e-05
0.00087071432
0.002455976
0.0012884954
0.00087469405
0.001965604
0.0022111413
0.0016253277
0.0011223567
3.938476e-05
-0.00029285648
0.00079342715
0.0015272963
0.00032656254
0.00067394692
0.0014535258
0.0014678878
0.0011058827
0.00031835199
-0.00032983442
-0.00016080374
0.00018091617
0.00043698816
0.00038114021
0.00054222716
0.0010106702
0.0012813909
0.00059986093
0.00011188937
-0.00022300483
-0.00022163654
0.00021314899
0.0017039164
0.0034728687
0.0045823326
0.004867252
0.0044846339
0.0044125829
0.0046657183
0.0035505983
0.00079094948
0.00024572195
0.002194158
0.0040155029
0.0046550351
0.0046776813
0.0041325445
0.0047740554
0.0050239017
0.0023036823
8.9243656e-05
0.00053997655
0.0023715105
0.0033716735
0.0040667356
0.0039115029
0.0037086602
0.0049006459
0.0041104269
0.0012755392
7.9953851e-06
0.00060747802
0.002092963
0.0028704974
0.0031967321
0.0030405873
0.0032519661
0.0034939048
0.0028884455
0.0012821411
0.00011216063
0.00058844508
0.0018559139
0.0019133709
0.0023336447
0.0026282111
0.0024224371
0.0027745009
0.0025408207
0.00088177063
-4.8196834e-05
0.00048109778
0.0011372142
0.0012334036
0.0019134405
0.0022427836
0.002588997
0.0025653608
0.001648313
0.00058306262
3.8861818e-05
0.00035371907
0.0010799408
0.0010327927
0.0010474222
0.001965242
0.0024366259
0.0017049869
0.001213407
0.00049796586
-3.0553167e-05
0.00072207941
0.0016252776
-4.6746576e-05
-0.00021270384
0.00131424
0.0015194828
0.001255911
0.0011104421
-0.00028263134
-0.00047907094
0.00059250796
0.00052464947
-0.0011026627
-0.00052218337
0.00072510983
0.0011092125
0.001167116
-4.5172754e-05
-0.00038592586
0.00015059557
-0.00010919795
-0.00064978161
-0.0010682871
-0.00060647159
0.00061516147
0.0011356778
0.00039021691
0.0002265505
-0.00036656991
-0.0004661671
0.00037936326
0.0022254396
0.0037951987
0.0044264681
0.004131451
0.0033872533
0.0034303369
0.0039214247
0.0029120319
0.00058498514
0.00046498968
0.0027218344
0.0040908456
0.0040487779
0.0035208646
0.0028828985
0.003809819
0.0041741065
0.0015487387
-0.00010657663
0.00071029319
0.0025415319
0.0028477267
0.0029275846
0.0024402451
0.0023772023
0.0038846259
0.0032080627
0.0006589128
-0.00010495415
0.00066208768
0.0017743627
0.0017956958
0.0016828095
0.0015219781
0.0020368084
0.0024939466
0.0020373947
0.00074934579
1.5148373e-05
0.00045849981
0.0010426486
0.00048175835
0.00083270186
0.001455168
0.001459016
0.0019223978
0.0017505088
0.00054886858
7.3781483e-06
0.00025502999
8.3156664e-05
-0.0002031903
0.00069773267
0.0013126545
0.0016994412
0.0018224559
0.0011713754
0.00049713231
0.00010659426
0.0001222632
3.2598024e-05
-0.00036433119
-8.5484345e-05
0.0011178008
0.0017423643
0.001363105
0.0011184452
0.00010576295
-0.00026812719
0.00050801841
0.0005374462
-0.0015190623
-0.0012644948
0.00064116418
0.0011401484
0.0013073988
0.00059952231
-0.00072413414
-0.00036348539
0.00029071809
-0.00068076346
-0.0025010424
-0.0015430372
0.00025178172
0.0011103004
0.00079125198
-8.0845981e-05
-0.0012086027
-0.00069079199
-0.0004008441
-0.0017156728
-0.0023184546
-0.001374539
0.00038895047
0.00069704276
8.6132817e-05
-0.00071484337
-0.0007809069
-7.8354576e-05
0.00059732931
0.0024993792
0.0033876216
0.00338687
0.0026923165
0.0020484664
0.0023770087
0.0029208663
0.0019697912
0.00031143331
0.0005878632
0.0026987346
0.0032642808
0.0025804057
0.0019047399
0.0015505677
0.0027327385
0.0029306096
0.00057495208
-0.0002678744
0.00073023282
0.0020676534
0.0015143575
0.0011756662
0.0007720401
0.001072317
0.0026346242
0.0019537456
-1.1863591e-05
-0.00017658323
0.00050563582
0.00082547027
0.00016305993
-8.394349e-05
6.033008e-05
0.00076443595
0.0011827966
0.0010308639
0.00041067617
2.5659915e-05
0.00019259005
-0.00014355029
-0.0011499918
-0.00063997425
0.00015108378
0.00015825808
0.00078080268
0.00098872703
0.00053926922
0.00016439225
-1.9415057e-05
-0.0010948057
-0.0016813499
-0.00070489992
-9.8586869e-05
0.00048134012
0.00089023015
0.00063604594
0.00037475939
9.2166505e-05
-0.0001393423
-0.0011196995
-0.0019361234
-0.001554033
-0.00013201188
0.00071965212
0.00048464631
0.00027764559
-0.00057316092
-0.0004594857
0.00021773855
-0.00083718967
-0.0032312913
-0.0025587208
-0.00039115326
0.00018518381
0.00025605987
-0.00065332041
-0.0013303813
-0.00033740745
-0.00013284674
-0.0020868198
-0.0038358685
-0.0025190512
-0.00052682981
8.5707965e-06
-0.00080472
-0.001585797
-0.0018157685
-0.00066623983
-0.00071215455
-0.0028188448
-0.0033955668
-0.0020075877
-0.00042706998
-0.00092724596
-0.0014490809
-0.0018959281
-0.0020656469
-0.00050399315
0.00077616655
0.0022930866
0.0021003866
0.0016478272
0.0010622642
0.00081298262
0.0012577725
0.0015955771
0.00087800273
7.5468144e-05
0.0005302205
0.0019894154
0.0016552646
0.0006938815
0.00037043219
0.00038922101
0.0015221087
0.0014282193
-0.00041836199
-0.00038397532
0.00057371898
0.0010272402
-0.00026009909
-0.00058318517
-0.00055434506
6.2849691e-05
0.0012512192
0.00051430535
-0.00063873275
-0.00024172618
0.00023347252
-0.00037107031
-0.0014382792
-0.0014541758
-0.00085842089
-0.00031791469
-0.00029651275
-8.1478251e-05
0.00012736035
7.2663607e-05
-6.2244548e-05
-0.0012037722
-0.0024081568
-0.0015652281
-0.00087570231
-0.0012079901
-0.00057231097
-1.4041154e-05
0.00036131872
0.00026854228
-0.0002277489
-0.0019876796
-0.0026671322
-0.0017755333
-0.001483116
-0.0010134139
-0.00071139539
-0.00061827993
-0.00018868632
1.9689665e-06
-0.0003447524
-0.001953905
-0.0031152921
-0.0028360678
-0.0015712016
-0.0011011699
-0.0015325029
-0.0014609789
-0.00069170076
-5.0469489e-05
-5.1524542e-05
-0.0019942324
-0.0044857537
-0.0035990633
-0.0018979981
-0.0019736057
-0.0022574871
-0.0023639851
-0.0016965943
-0.00032282236
-0.00045632436
-0.0030351766
-0.0046249893
-0.0033644141
-0.002108003
-0.0025481075
-0.0032782079
-0.0038055847
-0.0016192285
0.00029224515
-0.00091576779
-0.0035109678
-0.0039400308
-0.0025990118
-0.0022140449
-0.0030266249
-0.0037653946
-0.0032915126
-0.0015246596
-0.00025977632
0.00077711298
0.0015566806
0.00037853962
-0.00011447861
-0.00017785086
-0.00011754352
0.00010653011
0.00013705494
-9.4549793e-05
-5.5583259e-05
0.00034614706
0.00084914979
-0.00013132751
-0.00079168984
-0.00057999636
-0.00050683343
0.00011630041
-0.00011960898
-0.0012536122
-0.00050695509
0.00030542566
-0.00015957533
-0.0017044748
-0.0016263781
-0.0013122262
-0.00090188485
-0.00027496726
-0.00077286228
-0.0011091651
-0.0003213295
6.2354957e-06
-0.0012338648
-0.0023459523
-0.002144652
-0.0014944121
-0.0014061147
-0.0016275795
-0.0010098758
-0.0002286518
7.1509856e-05
-0.00014604844
-0.0016714746
-0.0030574368
-0.002141764
-0.0017211816
-0.0023551611
-0.0018998989
-0.0011833602
-0.00038843709
4.3821899e-05
-0.00026186141
-0.00236824
-0.0032603682
-0.0025536073
-0.0025537327
-0.0024822064
-0.0026819327
-0.0021398241
-0.00084931108
-0.000129506
-0.00040557512
-0.0024558158
-0.0039567178
-0.0035950402
-0.0027972731
-0.0031994864
-0.0037962688
-0.0029211851
-0.00081935113
0.000129036
-0.00025534785
-0.0027497374
-0.0050042479
-0.0041785387
-0.0036080855
-0.0043785761
-0.0046934162
-0.0039184905
-0.0015317845
3.1910776e-06
-0.00057668419
-0.003365733
-0.0048469847
-0.0040055376
-0.0039272212
-0.0049373108
-0.005574935
-0.0041333393
-0.00092240432
0.00020356613
-0.0010280562
-0.0037643526
-0.0039792873
-0.0034578105
-0.0042287449
-0.0048094897
-0.0053758893
-0.004021544
-5.6347545e-05
0.0005805623
0.00062668085
0.00061659248
-0.0010416653
-0.001211031
-0.00087662644
-0.0010493862
-0.0012877461
-0.0011548027
-0.00061870718
-5.7397599e-05
9.8658878e-05
-0.00019748069
-0.0013160667
-0.0015483674
-0.001391458
-0.0017550201
-0.0013111553
-0.0010918087
-0.0016324791
-0.00060699602
8.3965326e-05
-0.00096422187
-0.0024771935
-0.0023277292
-0.0021508371
-0.0018916749
-0.0013331961
-0.0014886756
-0.0013938627
-0.00037122657
-8.4275312e-05
-0.0016330088
-0.0029427979
-0.0026948741
-0.0019844439
-0.0021234985
-0.0025534695
-0.0019487278
-0.00099198297
-0.00013266533
-0.00014092543
-0.0020809198
-0.0036237005
-0.0024141628
-0.0021545164
-0.0031857345
-0.0033108644
-0.0026095713
-0.0015857172
-0.00039719888
-0.00042749648
-0.0029072197
-0.0035357837
-0.0026985534
-0.0032380421
-0.0038337054
-0.00436069
-0.0036729203
-0.0014414027
-6.9842939e-05
-0.00061134801
-0.0029232085
-0.0039921784
-0.0037082222
-0.0038647237
-0.0048074193
-0.0053071428
-0.0040605884
-0.0018563877
-0.00029201078
-0.00044310239
-0.0029526692
-0.0047780978
-0.0046762218
-0.0050452625
-0.0058299835
-0.0060320375
-0.0047462227
-0.001459672
0.00015024923
-0.00056935212
-0.0032570813
-0.0048490973
-0.0048291178
-0.0055889156
-0.0062584363
-0.0063804452
-0.0040929358
-0.00056361611
0.00013431255
-0.0011189505
-0.0037278248
-0.0041376014
-0.0048680764
-0.005494682
-0.0061006537
-0.006050307
-0.0034534512
-0.00053939658
0.00016639553
0.00049964171
1.1473301e-05
-0.0017160326
-0.0016490003
-0.001423703
-0.0020649641
-0.0024004758
-0.0017506392
-0.00076395699
-6.7717034e-05
-7.6438787e-05
-0.00070529581
-0.0017977425
-0.0018692315
-0.0019766926
-0.002781904
-0.0022291179
-0.0015894648
-0.0018994653
-0.0007145202
2.1795756e-05
-0.0013007694
-0.0026358867
-0.0024625625
-0.0026772158
-0.0027374282
-0.0022229279
-0.0021617312
-0.0019058949
-0.00049782682
-0.0001309121
-0.0016251498
-0.0029008731
-0.0027705559
-0.0025077738
-0.0029972101
-0.0035778093
-0.0030123624
-0.0017612277
-0.00035918254
-0.00012502511
-0.0021143319
-0.0035372111
-0.0026203938
-0.002795661
-0.0040410307
-0.0045963307
-0.0038109051
-0.0020368589
-0.00037795854
-0.00049957157
-0.0028786622
-0.0034319545
-0.0028890011
-0.0037871592
-0.0048931685
-0.00557901
-0.004674072
-0.0018661404
-5.2478426e-05
-0.00060298517
-0.0027867956
-0.0037525168
-0.0039239968
-0.0046916192
-0.0056208493
-0.0061752641
-0.0048608241
-0.0022207033
-0.0003680769
-0.00038533293
-0.0027011143
-0.0047806456
-0.0052624038
-0.00578836
-0.0064721018
-0.0065593776
-0.0047128546
-0.0016237774
-0.00012112366
-0.00049553535
-0.0031978877
-0.0051754148
-0.0055731704
-0.0063533287
-0.0066707682
-0.0062140466
-0.0050977196
-0.0011460097
0.00060496205
-0.0011423388
-0.0038430524
-0.0046424079
-0.0053933679
-0.0058932722
-0.0066559458
-0.0063170149
-0.0036381614
-0.0018536612
-0.00059289126
0.00052032101
8.1763065e-05
-0.00162462
-0.0016176749
-0.0016690595
-0.00271297
-0.0030124616
-0.0019524964
-0.0010310672
-0.000236899
-2.5987505e-05
-0.00044968573
-0.0015541101
-0.0018493369
-0.00248543
-0.0034800519
-0.0026856269
-0.0021203227
-0.0025260432
-0.00092719619
0.00016602174
-0.00097251399
-0.0023624612
-0.0027602165
-0.0031685462
-0.0031066005
-0.0029767916
-0.0027029837
-0.0021602811
-0.00058448849
2.1019105e-05
-0.001187527
-0.002994015
-0.0029909163
-0.002484136
-0.0035553109
-0.0044824699
-0.0032964666
-0.0017353122
-0.00042278913
1.1580751e-05
-0.0021150552
-0.003504041
-0.0022397398
-0.0029803207
-0.0049772136
-0.0053605831
-0.0041219734
-0.0022894266
-0.00044201208
-0.00052322805
-0.0026870139
-0.002992721
-0.0028026908
-0.0043641764
-0.0056257535
-0.0059609489
-0.0046161287
-0.0021825412
-0.00036909513
-0.00049980717
-0.0025086858
-0.0035793
-0.0041103526
-0.005050763
-0.0056408057
-0.0064411228
-0.0051342413
-0.0014643714
7.2544916e-05
-0.00030533816
-0.0026513438
-0.0047895644
-0.0051864826
-0.005842655
-0.0067062929
-0.006749589
-0.0048835955
-0.0020675243
-0.00031975016
-0.00061169169
-0.0032591738
-0.0047554439
-0.0055293421
-0.006370425
-0.0066530734
-0.0067085897
-0.0051417384
-0.002227132
-0.00026386698
-0.0013019889
-0.0037805577
-0.0039988334
-0.0053156279
-0.0062898841
-0.0058812376
-0.0066345723
-0.0056463565
-0.00083944038
0.00060537752
0.00068117822
0.00088493923
-0.00079279563
-0.0015636843
-0.00201691
-0.0026259481
-0.0029196364
-0.0022003242
-0.0014288394
-0.00042093117
0.0002901398
0.00043947397
-0.0013796289
-0.0021105626
-0.0021913472
-0.0033282315
-0.0029935112
-0.0021750719
-0.0027627662
-0.0011451012
0.00038420156
-0.00080660692
-0.0022034264
-0.0021077701
-0.0028667978
-0.0033948717
-0.0030666139
-0.0024476887
-0.002214524
-0.00067874816
-0.00010108253
-0.00097115657
-0.0019414551
-0.0022443716
-0.0026140326
-0.0039289268
-0.0043186274
-0.0030351108
-0.0018650727
-0.00047416387
1.9615947e-05
-0.0013506928
-0.0023372352
-0.0018794665
-0.003410641
-0.0052174874
-0.0050138674
-0.0036231365
-0.0019776095
-0.00042609724
-0.00021737376
-0.0018210442
-0.0023641407
-0.0027882145
-0.0044630984
-0.0052833031
-0.0054763107
-0.00375579
-0.0016117663
-0.00039535001
-0.00044857308
-0.0021196162
-0.0029379301
-0.0037020823
-0.0047650171
-0.0057575451
-0.0062512556
-0.0040923493
-0.002035589
-0.0006607057
-0.00026662347
-0.0019680218
-0.0036892572
-0.0047354677
-0.0056207816
-0.0065206913
-0.0063307604
-0.0052268539
-0.0028677323
-0.00030495469
-0.00043173838
-0.0023669811
-0.0037979691
-0.00487753
-0.005485696
-0.0062267579
-0.0077223198
-0.0056363315
-0.001620309
-0.00011086738
-0.0011559085
-0.0027537071
-0.0027915634
-0.0044985532
-0.0053674749
-0.0065786704
-0.0075867268
-0.0048115741
-0.0011250958
2.5187531e-05
0.00073992807
0.0017614862
0.00067482191
-0.00041410522
-0.0014979853
-0.002257619
-0.0022793429
-0.00193288
-0.0019357219
-0.0007234788
0.00049376345
0.0018165177
0.00068005872
-0.0014210073
-0.0020065575
-0.0024896214
-0.0023561717
-0.0020900803
-0.0032159283
-0.0013158415
0.00077661538
0.00096657593
-0.00096315603
-0.0019311252
-0.0025353032
-0.0027551794
-0.0024525122
-0.0028358193
-0.002487654
-0.00047876955
0.00049725477
0.00017853993
-0.0014491779
-0.001733838
-0.0021806935
-0.00341257
-0.0034918381
-0.0022685349
-0.0021959983
-0.0008902817
0.00010534761
-0.00055044358
-0.0012759866
-0.0014161633
-0.0030388143
-0.0044593082
-0.003746885
-0.0021801822
-0.0024871031
-0.0011897802
0.00015820664
-0.00085877809
-0.0016233136
-0.0022373489
-0.0043971401
-0.0049754149
-0.0038028643
-0.0031216238
-0.002052333
-0.00029678362
-4.9320625e-05
-0.0010480039
-0.0021989351
-0.0031202922
-0.0046016591
-0.005413854
-0.0045578683
-0.0033653484
-0.003203159
-0.0011254027
0.00010698735
-0.0010319472
-0.0027589801
-0.0035317217
-0.0047081662
-0.0057863985
-0.0060826047
-0.0048539991
-0.00327709
-0.00097486231
-0.00015412108
-0.0019509438
-0.0023773897
-0.0024646547
-0.0054547481
-0.0065990207
-0.0062902436
-0.0064586411
-0.0026105838
0.00033940891
-0.00074648344
-0.0015838792
-0.0017390498
-0.0035311709
-0.0045645006
-0.006502454
-0.0073073621
-0.0042614241
-0.0016123247
-0.00030935621
0.00055571827
0.0029049071
0.0031812199
0.0012227872
-0.00014046519
-0.00088065155
-0.001201305
-0.0018196248
-0.002754953
-0.0010062292
0.00079623611
0.0031148796
0.00296599
0.00099227555
-0.00048407691
-0.0010619802
-0.00089799417
-0.0020259925
-0.0036230771
-0.0012426577
0.00069570007
0.0020170375
0.0012779006
-0.00044833186
-0.0015382216
-0.00070921533
-0.00037980673
-0.0021415347
-0.0037310786
-0.0013637412
0.00065274961
0.0012115604
0.00011483646
-0.00089392009
-0.001559106
-0.0008444668
-0.00080921853
-0.0021063589
-0.0034641654
-0.0014035624
0.00054202574
0.0003459185
-0.00060829527
-0.0012752862
-0.0022501292
-0.001816663
-0.0011417109
-0.0025934313
-0.0041909924
-0.0013590848
0.000423675
-0.0001861963
-0.00096019261
-0.0016058279
-0.0035617087
-0.003471538
-0.001872346
-0.0022530221
-0.0042793491
-0.0016809997
0.00042113984
0.00051735475
-0.00039078168
-0.0023827339
-0.0048772008
-0.0037837093
-0.00277418
-0.0039344874
-0.0032766506
-0.000735685
0.00062588225
0.00063530209
-0.00087141701
-0.0023677322
-0.0046248366
-0.0051040078
-0.0044379253
-0.004947467
-0.0050341025
-0.0014970355
0.00028356162
0.00019544493
-0.00047114808
-0.0028346307
-0.0050238646
-0.0051247654
-0.0054686251
-0.0051164988
-0.0040517638
-0.0011397395
4.7132896e-05
-0.00034082344
-0.00071250525
-0.0028276457
-0.0054400202
-0.0041896662
-0.0051926792
-0.0057225804
-0.0013517514
0.00030297269
0.0010896674
0.0050174921
0.0057479787
0.0027493261
0.00073416498
0.00036626332
-0.00034169853
-0.0026961337
-0.0040996457
-0.0011744314
0.00053821554
0.0042940574
0.0061277475
0.0036908864
0.0016587315
0.0017888869
0.00063344609
-0.0031775058
-0.004240555
-0.0010730876
0.00060737771
0.0037544895
0.0044913354
0.0011717034
9.3542918e-05
0.0033567025
0.0024168651
-0.0030208574
-0.004283828
-0.001088704
0.00079139478
0.0030374143
0.0025699977
-0.0012231061
-0.0012608888
0.0032011372
0.0021883311
-0.0027538144
-0.0040003201
-0.0010516126
0.0012350844
0.0021768661
-0.0004226572
-0.0025459137
-0.001195152
0.0028064624
0.0025752069
-0.0030433445
-0.0060557753
-0.0017598809
0.0014077723
0.0023967917
-0.00034962256
-0.0025118009
-0.0019251978
0.00068967059
0.00041804872
-0.0035939922
-0.0057062831
-0.001621377
0.0021835001
0.0051673058
0.00098959334
-0.0030961546
-0.0037066192
-0.0023713798
-0.0018110658
-0.0041284794
-0.0048825189
-0.0011377683
0.0020578686
0.0051553553
0.0012052623
-0.0023534597
-0.0036954804
-0.0036966022
-0.0035449259
-0.006346651
-0.0067942885
-0.0016675147
0.0018625854
0.0048425822
0.0014132848
-0.0031186416
-0.004546797
-0.0034565149
-0.0045637248
-0.006842896
-0.0066112601
-0.0019594326
0.001963929
0.0049711732
0.0014454974
-0.004125407
-0.0054014438
-0.0025233463
-0.0046329314
-0.0080753922
-0.005025859
-0.00061058062
0.00037111487
0.0061568089
0.010071044
0.0065314774
0.0046583552
0.0057772512
0.0032798998
-0.0014361351
-0.00302291
-0.00099089429
0.0022922135
0.0077791449
0.0072478083
0.0044031345
0.003884128
0.0050493204
0.0031499808
-0.0018926365
-0.0037685018
-0.00092481852
0.0014526722
0.0057741225
0.0054084273
0.0031235693
0.0042641436
0.0052393112
0.0023861024
-0.0031547807
-0.0053207525
-0.0013768621
0.00041005663
0.0031165288
0.0028039041
0.0012680883
0.0038625472
0.0058518993
0.002569282
-0.0037990623
-0.0059409505
-0.0016850576
3.377714e-05
0.0023662147
0.0022733812
-0.00036503812
0.00090191054
0.0031492749
0.0013439046
-0.0025935619
-0.0036065882
-0.0010624105
-0.00010609492
0.0027223169
0.0027823235
-0.0020941448
-0.0026827368
0.0011081848
0.0013867283
-0.0028411556
-0.0043469598
-0.001276659
-0.0004515104
0.0018282743
0.0030759604
-0.0024550745
-0.0038418042
0.0011872121
0.0005982985
-0.005349466
-0.0065872686
-0.0017620169
-0.00019270763
0.0018285194
0.0022016245
-0.0031363424
-0.0038652904
0.00036257885
-0.0011312906
-0.0064395542
-0.0069937834
-0.0017953353
-0.00075584469
0.00010962827
0.0011695342
-0.0018938556
-0.0028838975
-0.0015686918
-0.0030000995
-0.0075530318
-0.0075465342
-0.0016592088
-0.00068976919
-0.00046932367
2.9175482e-05
-0.0014221785
-0.0022712998
-0.0026181015
-0.0037781139
-0.0073988193
-0.0074902944
-0.0017578423
-0.00044605984
0.0022306957
0.0081018371
0.0080515884
0.0071031083
0.0073844353
0.0028604444
0.00016771298
0.0012034973
0.00051024335
0.0012243756
0.0050734989
0.0070001137
0.0082151064
0.0075478555
0.0058121658
0.0038248227
0.00011656971
-0.0015087876
-0.0003445154
0.0014491423
0.0050988587
0.0058873769
0.0060461694
0.0065247303
0.0060926714
0.0028988976
-0.00092564744