/*--------------------------------*- C++ -*----------------------------------*\
| =========                 |                                                 |
| \\      /  F ield         | OpenFOAM: The Open Source CFD Toolbox           |
|  \\    /   O peration     | Version:  v2106                                 |
|   \\  /    A nd           | Website:  www.openfoam.com                      |
|    \\/     M anipulation  |                                                 |
\*---------------------------------------------------------------------------*/
FoamFile
{
    version     2.0;
    format      ascii;
    arch        "LSB;label=32;scalar=64";
    class       volVectorField;
    location    "10";
    object      gradT;
}
// * * * * * * * * * * * * * * * * * * * * * * * * * * * * * * * * * * * * * //

dimensions      [0 -1 0 1 0 0 0];

internalField   nonuniform List<vector> 
10000
(
(-5.5142323e-05 -5.5141963e-05 2999.7371)
(5.0850986e-05 -3.0466179e-06 2999.737)
(0.00058615257 7.7536583e-05 2999.7376)
(0.00080561836 6.2351035e-05 2999.7391)
(0.00041711124 2.837055e-05 2999.7405)
(0.00042033702 0.00020001655 2999.741)
(0.00029267039 6.4073145e-06 2999.742)
(-0.0001776975 -7.8037488e-06 2999.7419)
(0.00020030762 0.00018672398 2999.7415)
(0.00020961299 -6.2386865e-05 2999.7426)
(-3.0469779e-06 5.0852208e-05 2999.737)
(0.0002498688 0.00024987023 2999.7371)
(0.00068424904 0.00040387462 2999.738)
(0.00073186931 0.00028451703 2999.7397)
(0.00062360951 0.00022939304 2999.7409)
(0.00038739216 0.00029228696 2999.7418)
(-1.9060053e-05 7.080189e-06 2999.7424)
(9.2777498e-05 0.00014687467 2999.742)
(0.00011843295 0.00033973981 2999.7423)
(-3.9497858e-05 4.9049646e-05 2999.7425)
(7.7536356e-05 0.00058615433 2999.7376)
(0.0004038734 0.00068425058 2999.738)
(0.00062079937 0.0006208011 2999.7391)
(0.00063113677 0.00056111756 2999.7404)
(0.00042488116 0.00038310867 2999.7415)
(0.00019802417 -9.1807351e-05 2999.742)
(0.00014725811 0.00021273843 2999.7423)
(0.00015496212 0.00021441431 2999.7424)
(0.0001024826 -9.3570804e-05 2999.7427)
(1.5819542e-05 0.00011922725 2999.7428)
(6.2350523e-05 0.00080562006 2999.7391)
(0.00028451558 0.00073187056 2999.7397)
(0.00056111602 0.00063113808 2999.7404)
(0.00049417687 0.00049417804 2999.7415)
(-2.9315402e-05 8.9918618e-06 2999.7422)
(0.00021702192 0.00011764513 2999.7417)
(0.00028716161 0.00010039614 2999.7428)
(-0.00021353173 -0.00024665422 2999.7427)
(2.3245889e-05 2.7560446e-05 2999.7423)
(0.00010236751 -5.4154839e-05 2999.7425)
(2.837002e-05 0.00041711195 2999.7405)
(0.00022939142 0.00062361028 2999.7409)
(0.00038310685 0.00042488199 2999.7415)
(8.9905544e-06 -2.9314435e-05 2999.7422)
(4.8348255e-05 4.8349193e-05 2999.7417)
(0.00028942844 0.00012560284 2999.7423)
(-0.00021704125 -0.00027610213 2999.7427)
(8.2126434e-05 0.0001233193 2999.7416)
(0.00029498199 0.00022894992 2999.7424)
(-3.8657315e-05 -0.00033270865 2999.7423)
(0.00020001607 0.00042033739 2999.741)
(0.00029228562 0.00038739276 2999.7418)
(-9.1808687e-05 0.00019802545 2999.742)
(0.00011764408 0.0002170236 2999.7417)
(0.00012560187 0.0002894302 2999.7423)
(-0.0001074294 -0.00010742764 2999.7422)
(0.00028487807 9.1240537e-05 2999.742)
(0.00029152031 0.00010964771 2999.7425)
(-0.00043278206 -0.00020639052 2999.7426)
(-0.00027207153 -5.0210587e-05 2999.7415)
(6.4069354e-06 0.00029267201 2999.742)
(7.0794782e-06 -1.9057893e-05 2999.7424)
(0.00021273769 0.00014726029 2999.7423)
(0.00010039531 0.00028716465 2999.7428)
(-0.00027610298 -0.00021703781 2999.7427)
(9.1238775e-05 0.00028488171 2999.742)
(3.4105889e-08 3.7630181e-08 2999.7427)
(-0.00021550463 -0.00013087606 2999.742)
(0.00013512368 0.00054054624 2999.7421)
(6.5462643e-05 0.00075248963 2999.7422)
(-7.8038624e-06 -0.00017769526 2999.7419)
(0.0001468739 9.2780539e-05 2999.742)
(0.00021441386 0.00015496482 2999.7424)
(-0.00024665403 -0.00021352818 2999.7427)
(0.00012331893 8.2130583e-05 2999.7416)
(0.00010964604 0.00029152446 2999.7425)
(-0.0001308797 -0.00021550125 2999.742)
(0.00083202892 0.00083203247 2999.7424)
(0.00045058363 0.00093311249 2999.7441)
(-0.00013077594 0.00022311207 2999.7434)
(0.00018672413 0.00020030905 2999.7415)
(0.00033973956 0.00011843477 2999.7423)
(-9.3571032e-05 0.00010248479 2999.7427)
(2.7561071e-05 2.3248504e-05 2999.7423)
(0.00022894966 0.00029498503 2999.7424)
(-0.00020639305 -0.00043277979 2999.7426)
(0.00054054212 0.00013512485 2999.7421)
(0.00093310911 0.00045058505 2999.7441)
(-0.00047379672 -0.00047379453 2999.7444)
(-0.00040787097 -0.00079601656 2999.7426)
(-6.2386713e-05 0.00020961333 2999.7426)
(4.9049646e-05 -3.9497517e-05 2999.7425)
(0.00011922759 1.5820054e-05 2999.7428)
(-5.4153787e-05 0.00010236823 2999.7425)
(-0.00033270936 -3.8656519e-05 2999.7423)
(-5.021414e-05 -0.00027207111 2999.7415)
(0.00075248514 6.5462757e-05 2999.7422)
(0.00022310954 -0.00013077577 2999.7434)
(-0.00079601799 -0.00040787029 2999.7426)
(-0.00034559063 -0.00034558995 2999.7411)
(-7.0598585e-06 -7.0590812e-06 2999.7377)
(0.00049112373 0.0001766148 2999.7381)
(0.0013681006 0.00022918914 2999.739)
(0.0020220724 0.00042287515 2999.7399)
(0.0016455005 0.00025173678 2999.7408)
(0.00097891021 0.00024980587 2999.7417)
(0.00051423137 0.00033674786 2999.7415)
(-0.00019863202 8.2098078e-05 2999.7416)
(0.00039081462 0.00025223125 2999.7415)
(0.00040972204 8.7958843e-05 2999.7416)
(0.00017661402 0.00049112734 2999.7381)
(0.00084549606 0.00084549998 2999.7388)
(0.0017374911 0.0011191129 2999.7395)
(0.0020558938 0.0012271481 2999.7404)
(0.0013858966 0.00077587626 2999.7414)
(0.0011064268 0.00058483914 2999.7417)
(0.00026266969 0.0003536135 2999.7417)
(-0.00032540694 0.00033955249 2999.7419)
(0.00039960577 0.00076509946 2999.7417)
(0.00024544964 0.00025808305 2999.7417)
(0.00022918857 0.0013681057 2999.739)
(0.0011191092 0.0017374962 2999.7395)
(0.0017497488 0.0017497538 2999.7402)
(0.0016788358 0.001053164 2999.7411)
(0.0010031915 0.0008145779 2999.7414)
(0.00055664745 0.00013208154 2999.7419)
(0.00026894472 4.5241763e-05 2999.7422)
(0.00021285393 0.00050627159 2999.7421)
(0.00030934518 0.00017417173 2999.7416)
(7.1711099e-05 -0.00029390029 2999.7415)
(0.00042287434 0.0020220772 2999.7399)
(0.0012271441 0.0020558978 2999.7404)
(0.0010531589 0.0016788399 2999.7411)
(0.001120718 0.001120722 2999.7411)
(0.00046481418 0.00033083143 2999.7416)
(0.00033709068 0.00012089899 2999.7422)
(0.00063685974 0.00031589988 2999.7418)
(-0.00019647698 -0.00044979538 2999.7415)
(-0.00040056611 -0.00060414757 2999.7411)
(-6.6598375e-05 -0.00068989578 2999.7409)
(0.00025173565 0.0016455037 2999.7408)
(0.00077587197 0.0013858996 2999.7414)
(0.00081457304 0.0010031952 2999.7414)
(0.00033082733 0.00046481819 2999.7416)
(3.3684842e-06 3.3730316e-06 2999.7419)
(0.00054171591 0.00029433011 2999.7418)
(-0.00030174965 -0.00048299572 2999.7416)
(-0.00070719352 -0.00078433533 2999.7408)
(6.9244777e-05 -0.00025764928 2999.7405)
(1.4545625e-05 -0.00045621493 2999.7405)
(0.0002498049 0.00097891308 2999.7417)
(0.00058483553 0.0011064305 2999.7417)
(0.0001320775 0.00055665262 2999.7419)
(0.00012089583 0.00033709662 2999.7422)
(0.0002943261 0.00054172273 2999.7418)
(-0.00014927807 -0.00014927076 2999.7418)
(-0.0004418057 -0.00029189957 2999.7409)
(2.8869465e-05 0.00015803758 2999.7403)
(-7.2445716e-05 0.00028113544 2999.7404)
(-0.00019897548 7.322788e-05 2999.7404)
(0.00033674723 0.00051423595 2999.7415)
(0.00035361151 0.0002626756 2999.7417)
(4.5239205e-05 0.00026895202 2999.7422)
(0.00031589744 0.00063686835 2999.7418)
(-0.0004829989 -0.00030173993 2999.7416)
(-0.00029190639 -0.00044179524 2999.7409)
(5.5586895e-06 5.5688932e-06 2999.7409)
(-0.00013415851 0.00036159906 2999.7406)
(-1.5564922e-05 0.00066305819 2999.7403)
(-0.00012405942 0.00049753731 2999.7399)
(8.2098002e-05 -0.00019862637 2999.7416)
(0.0003395516 -0.00032540055 2999.7419)
(0.00050627025 0.00021286056 2999.7421)
(-0.00044979612 -0.00019646763 2999.7415)
(-0.00078433749 -0.00070718267 2999.7408)
(0.00015803076 2.8879895e-05 2999.7403)
(0.0003615886 -0.00013415004 2999.7406)
(0.00068635876 0.00068636746 2999.7398)
(6.3492535e-05 0.00059337165 2999.7394)
(-0.00030932273 -8.7834166e-05 2999.7392)
(0.00025223111 0.00039081834 2999.7415)
(0.00076509843 0.00039960901 2999.7417)
(0.00017417213 0.00030934964 2999.7416)
(-0.00060414578 -0.00040055846 2999.7411)
(-0.00025765138 6.9252877e-05 2999.7405)
(0.00028112623 -7.2440174e-05 2999.7404)
(0.00066304625 -1.5561512e-05 2999.7403)
(0.00059336318 6.3499101e-05 2999.7394)
(-0.00078976655 -0.00078975901 2999.7394)
(-0.00057819663 -0.0010438491 2999.7387)
(8.7958445e-05 0.00040972263 2999.7416)
(0.00025808291 0.00024544996 2999.7417)
(-0.00029389722 7.1712274e-05 2999.7415)
(-0.00068989289 -6.6596271e-05 2999.7409)
(-0.0004562192 1.4547538e-05 2999.7405)
(7.321637e-05 -0.00019897482 2999.7404)
(0.00049752788 -0.00012405904 2999.7399)
(-8.7838742e-05 -0.0003093204 2999.7392)
(-0.0010438556 -0.00057819365 2999.7387)
(-0.0004787161 -0.00047871312 2999.7388)
(0.00016533105 0.00016533259 2999.7393)
(0.0013605706 0.00048881962 2999.7398)
(0.0024532408 0.0003540337 2999.7403)
(0.0025339929 0.00038141945 2999.7412)
(0.0021496161 0.00042730879 2999.741)
(0.0010932834 0.00024915312 2999.7412)
(0.00024538647 0.0001792618 2999.7409)
(-0.00017265694 0.00015816962 2999.7408)
(0.00016691567 0.00035608616 2999.7405)
(0.00029864384 1.1500746e-06 2999.7404)
(0.00048881808 0.0013605767 2999.7398)
(0.0016436222 0.0016436285 2999.7408)
(0.0022921406 0.0015150151 2999.7413)
(0.0026439055 0.0014641745 2999.7415)
(0.0019512166 0.00084053684 2999.7414)
(0.00072121293 0.00053729977 2999.7417)
(0.00010891122 0.0007728878 2999.7411)
(9.2579597e-05 0.00061614242 2999.7408)
(-6.8613644e-05 0.00053109605 2999.7405)
(-5.6292246e-05 -6.8339887e-05 2999.7399)
(0.00035403222 0.002453249 2999.7403)
(0.0015150089 0.0022921489 2999.7413)
(0.0022737868 0.0022737947 2999.7409)
(0.0018595146 0.0012838881 2999.7413)
(0.0012227414 0.00065256666 2999.7412)
(0.0010256344 0.00035343834 2999.7414)
(0.00032422912 0.00032498303 2999.7412)
(-0.00041444869 -0.00012109359 2999.7406)
(-0.00051756663 -0.00073542654 2999.7399)
(-0.00010098012 -0.00071505474 2999.7395)
(0.00038141805 0.0025340005 2999.7412)
(0.001464168 0.0026439128 2999.7415)
(0.0012838797 0.0018595225 2999.7413)
(0.0010226774 0.0010226855 2999.7414)
(0.0010207669 0.00055102021 2999.7414)
(0.00039362931 4.1800433e-05 2999.7416)
(-0.00036562071 -0.00055841008 2999.7406)
(-0.00096782997 -0.0014900634 2999.7395)
(-0.00066257479 -0.001167723 2999.739)
(-4.2711046e-05 -0.00098923084 2999.7389)
(0.00042730708 0.0021496224 2999.741)
(0.00084053096 0.0019512233 2999.7414)
(0.00065255952 0.0012227497 2999.7412)
(0.00055101228 0.0010207765 2999.7414)
(0.00024185633 0.00024186607 2999.7413)
(-8.3795925e-05 -0.0002520774 2999.7407)
(-0.0012076347 -0.0011745123 2999.7394)
(-0.0010237616 -0.001102593 2999.7388)
(-1.6734077e-05 -0.0004405787 2999.7386)
(1.8014665e-05 -0.00079013657 2999.7385)
(0.00024915196 0.0010932904 2999.7412)
(0.00053729528 0.00072122168 2999.7417)
(0.00035343294 0.0010256446 2999.7414)
(4.179381e-05 0.00039364127 2999.7416)
(-0.00025208701 -8.3782452e-05 2999.7407)
(-0.0010227491 -0.0010227352 2999.74)
(-0.0012161363 -0.00060858233 2999.739)
(-0.00023389637 -0.00015531057 2999.7384)
(-0.00035011834 -0.00040548801 2999.738)
(-0.00027574962 -0.00068848445 2999.7377)
(0.00017926125 0.00024539526 2999.7409)
(0.00077288513 0.00010892091 2999.7411)
(0.00032497911 0.00032424035 2999.7412)
(-0.00055841477 -0.00036560698 2999.7406)
(-0.0011745202 -0.0012076184 2999.7394)
(-0.0006085958 -0.0012161191 2999.739)
(-0.00034021008 -0.0003401932 2999.7383)
(-0.00082066731 -0.00064511724 2999.7372)
(-0.00054990795 -0.00041190495 2999.7366)
(-0.00017064963 -0.00043753928 2999.7364)
(0.00015816907 -0.00017264966 2999.7408)
(0.00061614037 9.2586759e-05 2999.7408)
(-0.00012109496 -0.0004144396 2999.7406)
(-0.001490065 -0.00096781685 2999.7395)
(-0.0011025991 -0.0010237457 2999.7388)
(-0.00015532385 -0.000233881 2999.7384)
(-0.00064513449 -0.0008206537 2999.7372)
(-0.00030560813 -0.00030559357 2999.7358)
(-0.00014254039 5.4927028e-05 2999.7356)
(-0.00029283918 -0.0009483816 2999.7355)
(0.00035608554 0.00016691826 2999.7405)
(0.0005310952 -6.8611256e-05 2999.7405)
(-0.00073542449 -0.00051756047 2999.7399)
(-0.0011677209 -0.00066256507 2999.739)
(-0.0004405843 -1.6724584e-05 2999.7386)
(-0.00040550378 -0.00035011149 2999.738)
(-0.00041192266 -0.00054990002 2999.7366)
(5.4913415e-05 -0.00014252856 2999.7356)
(-0.001192696 -0.0011926875 2999.735)
(-0.00083952205 -0.0012354135 2999.7352)
(1.1493929e-06 0.00029864384 2999.7404)
(-6.8338353e-05 -5.6292303e-05 2999.7399)
(-0.00071504877 -0.00010097853 2999.7395)
(-0.00098922908 -4.2708488e-05 2999.7389)
(-0.00079014552 1.801601e-05 2999.7385)
(-0.00068849928 -0.0002757493 2999.7377)
(-0.00043755156 -0.00017064766 2999.7364)
(-0.00094839561 -0.00029283524 2999.7355)
(-0.0012354254 -0.00083952034 2999.7352)
(-0.00032132321 -0.0003213215 2999.7353)
(0.00032395354 0.0003239557 2999.7403)
(0.0015131669 0.00082422025 2999.7413)
(0.0027902879 0.00084123343 2999.741)
(0.0027028637 0.00060580495 2999.7409)
(0.001598445 0.00049289804 2999.7404)
(0.00083667009 0.00058540934 2999.7399)
(0.0001730885 0.00046165972 2999.7394)
(-0.00054342743 5.1639233e-05 2999.7388)
(-7.7283602e-05 0.00025876049 2999.7383)
(0.00030746325 -0.00019680486 2999.7385)
(0.00082421809 0.0015131753 2999.7413)
(0.0022890835 0.0022890925 2999.742)
(0.0024626649 0.0017109003 2999.7417)
(0.0021803606 0.0012639978 2999.7415)
(0.0015678516 0.0010116944 2999.7405)
(0.00078981262 0.00077243897 2999.7402)
(-0.00062756666 0.00072737595 2999.7398)
(-0.00084777628 0.00013107999 2999.7387)
(-0.00044994974 0.0001145132 2999.7381)
(-0.0001481021 -0.00066398161 2999.7376)
(0.00084123163 0.0027902989 2999.741)
(0.0017108918 0.0024626762 2999.7417)
(0.0017651932 0.001765205 2999.7411)
(0.0020036578 0.00099045619 2999.7408)
(0.0011068862 0.00080346325 2999.7406)
(0.00055235165 5.9130258e-05 2999.7398)
(-0.00046827048 -0.00040236625 2999.7389)
(-0.0011562902 -0.00078611041 2999.7379)
(-0.0008723452 -0.0013914683 2999.7372)
(-0.00021153329 -0.0013886057 2999.7368)
(0.00060580294 0.002702875 2999.7409)
(0.0012639896 0.0021803722 2999.7415)
(0.00099044496 0.0020036715 2999.7408)
(0.0012186189 0.0012186328 2999.7407)
(0.0006365257 0.00037909149 2999.7402)
(-0.00041601689 -0.00056358243 2999.7392)
(-0.0014728073 -0.0014841825 2999.7381)
(-0.0018368783 -0.0022492118 2999.737)
(-0.001052445 -0.0018556953 2999.7364)
(-0.00014619369 -0.0016251892 2999.7361)
(0.00049289641 0.0015984567 2999.7404)
(0.0010116883 0.0015678653 2999.7405)
(0.00080345382 0.0011069019 2999.7406)
(0.00037907785 0.00063654247 2999.7402)
(-0.00067532903 -0.00067531178 2999.7393)
(-0.0013109224 -0.0013304009 2999.7379)
(-0.0021538999 -0.0020945107 2999.7369)
(-0.0015278029 -0.0018728266 2999.7362)
(-0.00024832261 -0.0012685256 2999.7357)
(-5.7862566e-05 -0.0015978624 2999.7354)
(0.00058540864 0.00083668306 2999.7399)
(0.00077243473 0.00078982788 2999.7402)
(5.912213e-05 0.00055236751 2999.7398)
(-0.0005635948 -0.00041599935 2999.7392)
(-0.0013304176 -0.0013109027 2999.7379)
(-0.0018352158 -0.0018351954 2999.7369)
(-0.002015233 -0.0014031883 2999.7363)
(-0.0010108932 -0.0014469183 2999.7352)
(-0.00077748081 -0.0017803771 2999.7345)
(-0.00036575155 -0.0020214556 2999.7341)
(0.00046165962 0.00017310038 2999.7394)
(0.00072737271 -0.00062755495 2999.7398)
(-0.00040237342 -0.00046825747 2999.7389)
(-0.0014841924 -0.0014727901 2999.7381)
(-0.0020945251 -0.0021538785 2999.7369)
(-0.0014032079 -0.0020152097 2999.7363)
(-0.0017656228 -0.0017656001 2999.7351)
(-0.0019049918 -0.0022939699 2999.7334)
(-0.00082285985 -0.0016844456 2999.7331)
(-0.00021858153 -0.0016792528 2999.733)
(5.1638418e-05 -0.0005434209 2999.7388)
(0.00013107689 -0.00084777028 2999.7387)
(-0.00078611302 -0.0011562801 2999.7379)
(-0.0022492159 -0.0018368627 2999.737)
(-0.0018728372 -0.0015277836 2999.7362)
(-0.0014469374 -0.0010108736 2999.7352)
(-0.0022939932 -0.001904974 2999.7334)
(-0.00092973869 -0.00092971968 2999.7325)
(-0.00016276374 -0.00093304888 2999.7323)
(-0.00036228971 -0.0012916839 2999.7322)
(0.00025876003 -7.7282097e-05 2999.7383)
(0.00011451354 -0.00044994587 2999.7381)
(-0.0013914658 -0.00087233664 2999.7372)
(-0.0018556959 -0.0010524347 2999.7364)
(-0.001268536 -0.00024831303 2999.7357)
(-0.0017803984 -0.00077747146 2999.7345)
(-0.0016844689 -0.00082284745 2999.7331)
(-0.00093306664 -0.00016275405 2999.7323)
(-0.0011848241 -0.0011848189 2999.7312)
(-0.00045767155 -0.0013201058 2999.7324)
(-0.0001968041 0.00030746329 2999.7385)
(-0.00066397766 -0.00014810085 2999.7376)
(-0.0013886018 -0.00021153085 2999.7368)
(-0.0016251923 -0.00014619152 2999.7361)
(-0.001597874 -5.786175e-05 2999.7354)
(-0.0020214718 -0.00036575021 2999.7341)
(-0.0016792758 -0.00021857737 2999.733)
(-0.0012917101 -0.00036228818 2999.7322)
(-0.0013201154 -0.00045767303 2999.7324)
(-0.00045248095 -0.00045248242 2999.7319)
(0.00077448897 0.00077449141 2999.7401)
(0.0020531056 0.00095662642 2999.7407)
(0.0021049464 0.00081232271 2999.7401)
(0.0018963418 0.00074675148 2999.7392)
(0.0011604975 0.00051515171 2999.7384)
(9.9519782e-05 0.00042308322 2999.7377)
(-0.00090363781 0.00045441324 2999.7366)
(-0.0013093973 0.00013992491 2999.7356)
(-0.00012927271 0.00022604469 2999.7349)
(0.00043646454 -0.00059654311 2999.735)
(0.00095662398 0.0020531153 2999.7407)
(0.0021098526 0.0021098625 2999.741)
(0.001790134 0.0015528088 2999.7401)
(0.0014505853 0.0013024139 2999.7393)
(0.00067499508 0.0010852541 2999.7384)
(8.412087e-06 0.00042269355 2999.7372)
(-0.0013283753 0.00030249123 2999.7363)
(-0.0016519501 -0.0003015204 2999.7354)
(-0.0012339747 -0.00051586238 2999.7345)
(-0.00038612326 -0.0017558081 2999.7338)
(0.0008123204 0.0021049603 2999.7401)
(0.0015527991 0.0017901483 2999.7401)
(0.0012974978 0.0012975125 2999.7397)
(0.0014287872 0.00053983723 2999.7389)
(0.00028077713 0.00035985079 2999.738)
(-0.00068324309 -0.00064314457 2999.7366)
(-0.0016278518 -0.0013962873 2999.7353)
(-0.0021277509 -0.0018813713 2999.7342)
(-0.0015835604 -0.0024351679 2999.7334)
(-0.00039016591 -0.0022457342 2999.733)
(0.00074674928 0.0018963583 2999.7392)
(0.0013024047 0.0014506033 2999.7393)
(0.0005398229 0.0014288071 2999.7389)
(0.00051292366 0.00051294367 2999.7381)
(-0.00050798673 -0.00082401087 2999.7368)
(-0.001747726 -0.0018657877 2999.7353)
(-0.002566602 -0.0025808827 2999.7341)
(-0.0026908307 -0.0031964101 2999.7332)
(-0.0015983375 -0.0027162948 2999.7325)
(-0.00025983407 -0.0023608081 2999.7323)
(0.00051515038 0.0011605162 2999.7384)
(0.0010852478 0.00067501676 2999.7384)
(0.00035983817 0.00028080029 2999.738)
(-0.00082403076 -0.00050796376 2999.7368)
(-0.0020979543 -0.0020979303 2999.7352)
(-0.0024401149 -0.002503776 2999.734)
(-0.0029584741 -0.0029910852 2999.7332)
(-0.002263163 -0.0029078342 2999.7324)
(-0.0007479583 -0.0023081387 2999.7316)
(-0.00015317475 -0.0027020126 2999.7313)
(0.00042308297 9.9539305e-05 2999.7377)
(0.00042268877 8.4330364e-06 2999.7372)
(-0.00064315762 -0.00068322257 2999.7366)
(-0.0018658069 -0.0017477041 2999.7353)
(-0.002503799 -0.0024400894 2999.734)
(-0.0026408809 -0.0026408539 2999.7332)
(-0.0029706602 -0.0024626737 2999.7324)
(-0.0020078842 -0.0028971078 2999.7311)
(-0.0013925159 -0.0029432409 2999.7304)
(-0.00052241666 -0.003143904 2999.7299)
(0.00045441287 -0.00090362351 2999.7366)
(0.00030248595 -0.001328362 2999.7363)
(-0.001396299 -0.0016278364 2999.7353)
(-0.0025808976 -0.0025665812 2999.7341)
(-0.002991104 -0.002958448 2999.7332)
(-0.0024626992 -0.0029706317 2999.7324)
(-0.003214728 -0.0032147007 2999.7311)
(-0.0027437302 -0.003370752 2999.7299)
(-0.00099475452 -0.0026516899 2999.7296)
(-0.00028695016 -0.0024189055 2999.7294)
(0.000139924 -0.0013093909 2999.7356)
(-0.00030152412 -0.0016519427 2999.7354)
(-0.0018813768 -0.0021277381 2999.7342)
(-0.0031964185 -0.0026908128 2999.7332)
(-0.0029078494 -0.0022631419 2999.7324)
(-0.0028971336 -0.0020078626 2999.7311)
(-0.0033707805 -0.0027437095 2999.7299)
(-0.0014448734 -0.0014448538 2999.7294)
(-0.00044066948 -0.0018350073 2999.7285)
(-0.00036722709 -0.0015148395 2999.7287)
(0.00022604502 -0.00012926989 2999.7349)
(-0.0005158613 -0.0012339678 2999.7345)
(-0.0024351691 -0.0015835508 2999.7334)
(-0.0027163013 -0.0015983288 2999.7325)
(-0.0023081538 -0.00074794832 2999.7316)
(-0.0029432669 -0.0013925018 2999.7304)
(-0.0026517192 -0.00099473865 2999.7296)
(-0.0018350279 -0.00044066249 2999.7285)
(-0.0010647403 -0.0010647311 2999.7288)
(-7.3504962e-05 -0.001446691 2999.7283)
(-0.00059654127 0.00043646547 2999.735)
(-0.0017558051 -0.00038612082 2999.7338)
(-0.0022457378 -0.00039016371 2999.733)
(-0.002360816 -0.00025983327 2999.7323)
(-0.0027020224 -0.00015317348 2999.7313)
(-0.0031439239 -0.00052241235 2999.7299)
(-0.0024189412 -0.00028694484 2999.7294)
(-0.0015148659 -0.00036722705 2999.7287)
(-0.001446698 -7.3503465e-05 2999.7283)
(-0.00062186702 -0.00062186552 2999.7282)
(0.00066319429 0.00066319685 2999.7373)
(0.0014591158 0.0010783851 2999.7369)
(0.0013665814 0.00082173699 2999.7361)
(0.00097544429 0.00067900599 2999.7354)
(1.4648889e-05 0.00048371875 2999.7342)
(-0.00092838113 0.00026886028 2999.7331)
(-0.0018369953 0.00024384777 2999.732)
(-0.0022587577 -8.8428409e-05 2999.7312)
(-0.00071379799 -2.3054347e-05 2999.7303)
(0.00038520479 -0.0010163621 2999.7301)
(0.0010783826 0.0014591264 2999.7369)
(0.001696926 0.0016969364 2999.737)
(0.00076751269 0.0013497839 2999.736)
(0.00046841694 0.00091887438 2999.7351)
(-0.00060056968 0.00061778698 2999.734)
(-0.0012881876 -0.00024713643 2999.7325)
(-0.0023729283 -0.00060655364 2999.7312)
(-0.0026591109 -0.0013201131 2999.7304)
(-0.0021056986 -0.0014129589 2999.7296)
(-0.00060810299 -0.0026762347 2999.729)
(0.0008217343 0.0013665978 2999.7361)
(0.0013497732 0.00076753002 2999.736)
(0.00058851936 0.00058853709 2999.7355)
(0.0002434474 -0.00025002285 2999.7344)
(-0.0011513619 -0.00075165835 2999.7329)
(-0.0021527217 -0.0018023786 2999.7314)
(-0.002909972 -0.0025750406 2999.7301)
(-0.0030651629 -0.0029824736 2999.7293)
(-0.0020699196 -0.0033277166 2999.7287)
(-0.0004569791 -0.0028539037 2999.7286)
(0.00067900407 0.00097546612 2999.7354)
(0.00091886531 0.00046844187 2999.7351)
(-0.00025004019 0.00024347278 2999.7344)
(-0.0008717785 -0.00087175329 2999.7331)
(-0.0021529254 -0.0024368894 2999.7315)
(-0.0031115698 -0.0032383778 2999.7302)
(-0.0035530233 -0.0035395321 2999.7292)
(-0.0034117869 -0.0040776376 2999.7284)
(-0.0019771286 -0.0035765857 2999.7279)
(-0.00029222768 -0.0033131358 2999.7278)
(0.00048371813 1.4674895e-05 2999.7342)
(0.0006177799 -0.00060054165 2999.734)
(-0.0007516758 -0.0011513345 2999.7329)
(-0.0024369148 -0.0021528978 2999.7315)
(-0.0035179864 -0.0035179576 2999.73)
(-0.0032553644 -0.003436645 2999.729)
(-0.0037492318 -0.0038125011 2999.7282)
(-0.0031022166 -0.0039895864 2999.7273)
(-0.0013054178 -0.0033899508 2999.7269)
(-0.0002813458 -0.003973577 2999.7265)
(0.00026885971 -0.00092835666 2999.7331)
(-0.00024714413 -0.001288164 2999.7325)
(-0.0018023963 -0.0021526983 2999.7314)
(-0.0032384015 -0.0031115433 2999.7302)
(-0.0034366727 -0.0032553332 2999.729)
(-0.0034061134 -0.0034060808 2999.7282)
(-0.0041059647 -0.0035512201 2999.7273)
(-0.0029892367 -0.0039097432 2999.7264)
(-0.0019611192 -0.0038464981 2999.7258)
(-0.00068131175 -0.0039061398 2999.7256)
(0.00024384654 -0.0018369791 2999.732)
(-0.00060656177 -0.0023729127 2999.7312)
(-0.002575055 -0.0029099528 2999.7301)
(-0.0035395496 -0.0035529983 2999.7292)
(-0.0038125239 -0.0037492008 2999.7282)
(-0.0035512513 -0.0041059334 2999.7273)
(-0.0042528942 -0.0042528638 2999.7265)
(-0.0033974946 -0.004011997 2999.7258)
(-0.0013018144 -0.0036286065 2999.725)
(-0.00032110694 -0.0028643036 2999.725)
(-8.8429353e-05 -0.0022587486 2999.7312)
(-0.0013201178 -0.0026590988 2999.7304)
(-0.0029824819 -0.0030651468 2999.7293)
(-0.0040776495 -0.0034117677 2999.7284)
(-0.0039896078 -0.0031021947 2999.7273)
(-0.0039097764 -0.0029892138 2999.7264)
(-0.0040120282 -0.0033974688 2999.7258)
(-0.0023649793 -0.0023649558 2999.7251)
(-0.00081342577 -0.0016857039 2999.7242)
(-0.00017177643 -0.0024103948 2999.7245)
(-2.3053606e-05 -0.00071379125 2999.7303)
(-0.0014129599 -0.002105689 2999.7296)
(-0.0033277239 -0.0020699103 2999.7287)
(-0.0035765976 -0.0019771202 2999.7279)
(-0.00338997 -0.0013054051 2999.7269)
(-0.0038465254 -0.0019611003 2999.7258)
(-0.0036286362 -0.0013017961 2999.725)
(-0.0016857298 -0.00081340991 2999.7242)
(-0.0013472534 -0.0013472321 2999.725)
(-0.00080423418 -0.0018296048 2999.724)
(-0.0010163612 0.00038520689 2999.7301)
(-0.0026762369 -0.00060810066 2999.729)
(-0.0028539132 -0.00045697779 2999.7286)
(-0.0033131443 -0.00029222684 2999.7278)
(-0.0039735879 -0.00028134228 2999.7265)
(-0.0039061674 -0.00068130542 2999.7256)
(-0.0028643378 -0.00032110359 2999.725)
(-0.0024104154 -0.00017177319 2999.7245)
(-0.0018296207 -0.00080422734 2999.724)
(-0.00049335824 -0.0004933514 2999.7245)
(0.00054294444 0.00054294706 2999.731)
(0.00088776099 0.0010349143 2999.7305)
(0.00062493896 0.00073743722 2999.7299)
(9.9155128e-06 0.00050553098 2999.7293)
(-0.0012057715 0.00034762703 2999.7282)
(-0.0021017096 7.2205181e-05 2999.7271)
(-0.0027498774 -5.3020757e-05 2999.7262)
(-0.0030307676 -0.0003903011 2999.7257)
(-0.0012695362 -0.00025621044 2999.725)
(0.00029931414 -0.0012917107 2999.7249)
(0.0010349117 0.0008877723 2999.7305)
(0.0011794962 0.0011795079 2999.7303)
(-0.00016913603 0.0009540851 2999.7296)
(-0.00057479977 0.00023522603 2999.7286)
(-0.0018557602 -0.00026451539 2999.7275)
(-0.0027026813 -0.0012036241 2999.7265)
(-0.0034436368 -0.0015733812 2999.7255)
(-0.0033355521 -0.0022039816 2999.725)
(-0.0026216506 -0.0021015955 2999.7245)
(-0.00073618611 -0.003210843 2999.7242)
(0.00073743487 0.00062495852 2999.7299)
(0.00095407379 -0.00016911528 2999.7296)
(-0.00031934295 -0.00031932214 2999.7289)
(-0.001208685 -0.0014326996 2999.7277)
(-0.0026446217 -0.0021293989 2999.7263)
(-0.0034105754 -0.0030002042 2999.7254)
(-0.0037502349 -0.0034897119 2999.7246)
(-0.0035589819 -0.0038975389 2999.7242)
(-0.0022763976 -0.0041293463 2999.7239)
(-0.00044018414 -0.0034470199 2999.724)
(0.00050552916 9.9428248e-06 2999.7293)
(0.00023521557 -0.00057477047 2999.7286)
(-0.0014327203 -0.001208657 2999.7277)
(-0.0023848766 -0.0023848484 2999.7264)
(-0.0034232648 -0.0037240517 2999.7252)
(-0.0040629943 -0.0043532311 2999.7244)
(-0.0043409715 -0.0045325171 2999.7238)
(-0.0039751864 -0.0051976796 2999.7232)
(-0.0021711316 -0.0045178837 2999.723)
(-0.0002813019 -0.004507333 2999.7231)
(0.000347626 -0.0012057419 2999.7282)
(-0.00026452599 -0.0018557303 2999.7275)
(-0.0021294209 -0.0026445923 2999.7263)
(-0.0037240797 -0.0034232343 2999.7252)
(-0.0046130044 -0.0046129723 2999.7241)
(-0.0042190408 -0.0045223286 2999.7233)
(-0.0045946834 -0.0048323917 2999.7226)
(-0.0035443485 -0.0049031746 2999.7222)
(-0.001586051 -0.004382372 2999.7223)
(-0.00043315038 -0.0049854326 2999.7221)
(7.2203572e-05 -0.0021016845 2999.7271)
(-0.0012036349 -0.0027026572 2999.7265)
(-0.0030002244 -0.0034105491 2999.7254)
(-0.0043532565 -0.0040629633 2999.7244)
(-0.0045223592 -0.0042190055 2999.7233)
(-0.0042824137 -0.0042823785 2999.7225)
(-0.0047218175 -0.0041737983 2999.7222)
(-0.0035251668 -0.0043802155 2999.7219)
(-0.0022533896 -0.0048210015 2999.7213)
(-0.00068334227 -0.0045799766 2999.7215)
(-5.3022461e-05 -0.0027498595 2999.7262)
(-0.0015733906 -0.0034436177 2999.7255)
(-0.003489727 -0.0037502121 2999.7246)
(-0.0045325361 -0.0043409427 2999.7238)
(-0.0048324196 -0.0045946507 2999.7226)
(-0.0041738336 -0.0047217861 2999.7222)
(-0.0046925204 -0.0046924869 2999.722)
(-0.0041915517 -0.0047119642 2999.7215)
(-0.0017858121 -0.0042334789 2999.7207)
(-0.00027246712 -0.0034410356 2999.721)
(-0.00039030192 -0.0030307537 2999.7257)
(-0.0022039875 -0.0033355354 2999.725)
(-0.0038975493 -0.0035589631 2999.7242)
(-0.0051976952 -0.0039751657 2999.7232)
(-0.0049032026 -0.003544326 2999.7222)
(-0.0043802498 -0.0035251396 2999.7219)
(-0.0047119956 -0.004191517 2999.7215)
(-0.0030661588 -0.0030661255 2999.7209)
(-0.00098246099 -0.0018611058 2999.7212)
(-0.00015504677 -0.0025479122 2999.7205)
(-0.00025621027 -0.0012695252 2999.725)
(-0.0021016 -0.0026216395 2999.7245)
(-0.0041293573 -0.0022763874 2999.7239)
(-0.004517899 -0.0021711213 2999.723)
(-0.0043823935 -0.0015860379 2999.7223)
(-0.0048210246 -0.0022533735 2999.7213)
(-0.0042335063 -0.0017857962 2999.7207)
(-0.0018611405 -0.00098243796 2999.7212)
(-0.0012675987 -0.0012675744 2999.7199)
(-0.00073033802 -0.0015092462 2999.721)
(-0.0012917114 0.00029931704 2999.7249)
(-0.0032108497 -0.00073618414 2999.7242)
(-0.003447031 -0.00044018274 2999.724)
(-0.0045073457 -0.00028129998 2999.7231)
(-0.0049854549 -0.00043314717 2999.7221)
(-0.0045800081 -0.00068334094 2999.7215)
(-0.00344106 -0.00027246951 2999.721)
(-0.002547937 -0.00015504342 2999.7205)
(-0.0015092692 -0.00073033379 2999.721)
(-0.00031616133 -0.00031615711 2999.721)
(0.00032121121 0.00032121409 2999.7236)
(0.00037039038 0.00091722603 2999.723)
(0.00013548379 0.00058263468 2999.7227)
(-0.00081316057 0.00025259363 2999.722)
(-0.002137836 6.8639754e-05 2999.7212)
(-0.0028359875 -0.00017008483 2999.7208)
(-0.0032550325 -0.00028067285 2999.7205)
(-0.0034695056 -0.0005850654 2999.7203)
(-0.0015593541 -0.0003930241 2999.7199)
(0.00027556087 -0.0014681185 2999.7199)
(0.00091722315 0.00037040326 2999.723)
(0.00076252127 0.00076253494 2999.7227)
(-0.00086146482 0.00025869553 2999.7221)
(-0.001584153 -0.00069219615 2999.7212)
(-0.0027718536 -0.0012069222 2999.7204)
(-0.0033599564 -0.0020262628 2999.7201)
(-0.0038775034 -0.0022648313 2999.7199)
(-0.0036380325 -0.0027958761 2999.7197)
(-0.0028839337 -0.0025883544 2999.7195)
(-0.00079953351 -0.0035067382 2999.7195)
(0.00058263233 0.00013550658 2999.7227)
(0.00025868266 -0.00086144115 2999.7221)
(-0.0013192473 -0.0013192232 2999.7211)
(-0.0022787783 -0.0025332003 2999.7202)
(-0.0034719027 -0.0030621207 2999.7196)
(-0.0038938966 -0.0038662992 2999.7193)