/*--------------------------------*- C++ -*----------------------------------*\
| =========                 |                                                 |
| \\      /  F ield         | OpenFOAM: The Open Source CFD Toolbox           |
|  \\    /   O peration     | Version:  v2106                                 |
|   \\  /    A nd           | Website:  www.openfoam.com                      |
|    \\/     M anipulation  |                                                 |
\*---------------------------------------------------------------------------*/
FoamFile
{
    version     2.0;
    format      ascii;
    arch        "LSB;label=32;scalar=64";
    class       volVectorField;
    location    "82.5";
    object      flux;
}
// * * * * * * * * * * * * * * * * * * * * * * * * * * * * * * * * * * * * * //

dimensions      [0 1 -1 1 0 0 0];

internalField   nonuniform List<vector> 
4000
(
(9.5764629e-08 9.5764636e-08 0.72611791)
(2.1041477e-07 8.4906388e-08 0.72611862)
(1.0595772e-07 8.238916e-08 0.72611896)
(5.7412507e-08 8.1411562e-08 0.72611916)
(1.8352189e-08 8.0838112e-08 0.72611926)
(-1.5625142e-08 8.0313247e-08 0.72611926)
(-4.4618648e-08 7.9598529e-08 0.72611917)
(-6.579053e-08 7.828465e-08 0.72611902)
(-7.027347e-08 7.5325649e-08 0.72611882)
(-2.2231244e-08 6.8127523e-08 0.72611863)
(8.4906381e-08 2.1041477e-07 0.72611862)
(1.9035155e-07 1.9035156e-07 0.72611924)
(1.0071548e-07 1.8405106e-07 0.72611956)
(5.5085935e-08 1.8094133e-07 0.72611976)
(1.6704718e-08 1.788228e-07 0.72611985)
(-1.7484515e-08 1.7682011e-07 0.72611984)
(-4.7661545e-08 1.742752e-07 0.72611975)
(-7.2199852e-08 1.7020248e-07 0.72611959)
(-8.5509159e-08 1.6260839e-07 0.72611937)
(-2.9429369e-08 1.4789179e-07 0.72611911)
(8.2389154e-08 1.0595771e-07 0.72611896)
(1.8405105e-07 1.0071549e-07 0.72611956)
(9.6547496e-08 9.654749e-08 0.72611987)
(5.2184253e-08 9.342066e-08 0.72612006)
(1.4230971e-08 9.0806213e-08 0.72612014)
(-2.0172741e-08 8.8237021e-08 0.72612013)
(-5.1236283e-08 8.5268368e-08 0.72612003)
(-7.745734e-08 8.14059e-08 0.72611986)
(-9.2584156e-08 7.6250435e-08 0.72611962)
(-3.204231e-08 7.0614605e-08 0.72611934)
(8.1411565e-08 5.7412494e-08 0.72611916)
(1.8094133e-07 5.5085934e-08 0.72611976)
(9.3420652e-08 5.2184261e-08 0.72612006)
(4.9344658e-08 4.9344657e-08 0.72612024)
(1.1521079e-08 4.6635722e-08 0.72612031)
(-2.302236e-08 4.3927086e-08 0.7261203)
(-5.4492667e-08 4.1037746e-08 0.72612019)
(-8.1217785e-08 3.7843721e-08 0.72612)
(-9.6300454e-08 3.4491892e-08 0.72611975)
(-3.3186589e-08 3.1847675e-08 0.72611947)
(8.0838114e-08 1.8352187e-08 0.72611926)
(1.7882282e-07 1.6704719e-08 0.72611985)
(9.0806219e-08 1.4230977e-08 0.72612014)
(4.6635713e-08 1.1521081e-08 0.72612031)
(8.8133996e-09 8.8133959e-09 0.72612038)
(-2.5770717e-08 6.1371473e-09 0.72612036)
(-5.7319648e-08 3.4570994e-09 0.72612024)
(-8.4003195e-08 8.0299278e-10 0.72612005)
(-9.8580202e-08 -1.5887109e-09 0.72611979)
(-3.3805121e-08 -3.1546171e-09 0.72611951)
(8.0313253e-08 -1.5625137e-08 0.72611926)
(1.7682012e-07 -1.7484513e-08 0.72611984)
(8.8237013e-08 -2.0172754e-08 0.72612013)
(4.3927077e-08 -2.3022361e-08 0.7261203)
(6.1371463e-09 -2.577071e-08 0.72612036)
(-2.8378656e-08 -2.8378657e-08 0.72612033)
(-5.9826821e-08 -3.0867169e-08 0.72612021)
(-8.6263596e-08 -3.3196348e-08 0.72612001)
(-1.0025806e-07 -3.5166274e-08 0.72611974)
(-3.4230527e-08 -3.6373651e-08 0.72611945)
(7.959853e-08 -4.4618652e-08 0.72611917)
(1.742752e-07 -4.7661552e-08 0.72611975)
(8.5268371e-08 -5.1236289e-08 0.72612003)
(4.1037758e-08 -5.4492661e-08 0.72612019)
(3.457103e-09 -5.7319643e-08 0.72612024)
(-3.0867176e-08 -5.9826822e-08 0.72612021)
(-6.2137339e-08 -6.213733e-08 0.72612008)
(-8.83023e-08 -6.4294421e-08 0.72611988)
(-1.017575e-07 -6.6177185e-08 0.72611961)
(-3.4610039e-08 -6.7405095e-08 0.72611931)
(7.8284653e-08 -6.5790526e-08 0.72611902)
(1.7020248e-07 -7.2199851e-08 0.72611959)
(8.1405904e-08 -7.7457327e-08 0.72611986)
(3.7843723e-08 -8.1217783e-08 0.72612)
(8.0298451e-10 -8.4003192e-08 0.72612005)
(-3.3196343e-08 -8.6263595e-08 0.72612001)
(-6.429442e-08 -8.8302298e-08 0.72611988)
(-9.0303451e-08 -9.0303447e-08 0.72611966)
(-1.0336874e-07 -9.2287099e-08 0.72611939)
(-3.5049133e-08 -9.386609e-08 0.72611909)
(7.5325647e-08 -7.0273465e-08 0.72611882)
(1.626084e-07 -8.5509157e-08 0.72611937)
(7.6250438e-08 -9.2584154e-08 0.72611962)
(3.4491894e-08 -9.6300457e-08 0.72611975)
(-1.5887083e-09 -9.85802e-08 0.72611979)
(-3.5166282e-08 -1.0025806e-07 0.72611974)
(-6.6177192e-08 -1.0175751e-07 0.72611961)
(-9.22871e-08 -1.0336874e-07 0.72611939)
(-1.0532015e-07 -1.0532015e-07 0.72611911)
(-3.56627e-08 -1.0745667e-07 0.72611881)
(6.8127525e-08 -2.2231242e-08 0.72611863)
(1.4789179e-07 -2.9429364e-08 0.72611911)
(7.0614604e-08 -3.2042314e-08 0.72611934)
(3.1847677e-08 -3.3186587e-08 0.72611947)
(-3.1546218e-09 -3.3805125e-08 0.72611951)
(-3.637365e-08 -3.4230529e-08 0.72611945)
(-6.7405094e-08 -3.4610037e-08 0.72611931)
(-9.3866096e-08 -3.5049131e-08 0.72611909)
(-1.0745667e-07 -3.5662701e-08 0.72611881)
(-3.6473479e-08 -3.647348e-08 0.72611849)
(4.2067035e-07 4.2067035e-07 1.080106)
(9.4287637e-07 3.6775583e-07 1.0801069)
(4.9962239e-07 3.5602615e-07 1.0801073)
(2.7526334e-07 3.5140299e-07 1.0801076)
(8.6695369e-08 3.4861793e-07 1.0801077)
(-7.9976949e-08 3.4604274e-07 1.0801077)
(-2.2411599e-07 3.4251361e-07 1.0801076)
(-3.3365462e-07 3.3591019e-07 1.0801074)
(-3.7154788e-07 3.2018647e-07 1.080107)
(-1.2189914e-07 2.7490072e-07 1.0801067)
(3.6775583e-07 9.4287637e-07 1.0801069)
(8.4591006e-07 8.4591005e-07 1.0801076)
(4.7509313e-07 8.1648177e-07 1.0801081)
(2.6415102e-07 8.0163507e-07 1.0801083)
(7.8654992e-08 7.9131888e-07 1.0801085)
(-8.9133434e-08 7.8149427e-07 1.0801085)
(-2.3931482e-07 7.6895439e-07 1.0801083)
(-3.6714534e-07 7.4866899e-07 1.0801081)
(-4.6306209e-07 7.0941348e-07 1.0801077)
(-1.6718489e-07 6.2264883e-07 1.0801072)
(3.5602614e-07 4.9962239e-07 1.0801073)
(8.1648177e-07 4.7509314e-07 1.0801081)
(4.5534742e-07 4.5534741e-07 1.0801085)
(2.5010046e-07 4.4021184e-07 1.0801087)
(6.6554567e-08 4.2743453e-07 1.0801089)
(-1.0234144e-07 4.1482806e-07 1.0801088)
(-2.5694127e-07 4.0023009e-07 1.0801087)
(-3.9319554e-07 3.8118899e-07 1.0801084)
(-4.9756804e-07 3.5567981e-07 1.080108)
(-1.7974224e-07 3.2845984e-07 1.0801075)
(3.51403e-07 2.7526334e-07 1.0801076)
(8.0163508e-07 2.6415103e-07 1.0801083)
(4.4021184e-07 2.5010046e-07 1.0801087)
(2.3623815e-07 2.3623815e-07 1.080109)
(5.3271214e-08 2.2296329e-07 1.0801091)
(-1.1633787e-07 2.0966426e-07 1.0801091)
(-2.7295388e-07 1.9546258e-07 1.0801089)
(-4.1169561e-07 1.7975225e-07 1.0801086)
(-5.1579124e-07 1.632648e-07 1.0801082)
(-1.8533154e-07 1.5032368e-07 1.0801077)
(3.4861793e-07 8.6695373e-08 1.0801077)
(7.9131889e-07 7.8654994e-08 1.0801085)
(4.2743455e-07 6.6554581e-08 1.0801089)
(2.2296329e-07 5.3271223e-08 1.0801091)
(3.9980675e-08 3.9980688e-08 1.0801092)
(-1.2984215e-07 2.6831125e-08 1.0801092)
(-2.8685328e-07 1.3652014e-08 1.080109)
(-4.2539331e-07 5.9131126e-10 1.0801087)
(-5.2699661e-07 -1.1182841e-08 1.0801083)
(-1.8836965e-07 -1.8888914e-08 1.0801077)
(3.4604275e-07 -7.9976948e-08 1.0801077)
(7.8149428e-07 -8.913344e-08 1.0801085)
(4.1482807e-07 -1.0234144e-07 1.0801088)
(2.0966426e-07 -1.1633789e-07 1.0801091)
(2.6831116e-08 -1.2984216e-07 1.0801092)
(-1.4266655e-07 -1.4266654e-07 1.0801091)
(-2.991937e-07 -1.5491893e-07 1.0801089)
(-4.3653047e-07 -1.6640897e-07 1.0801086)
(-5.3527146e-07 -1.7615529e-07 1.0801082)
(-1.9046892e-07 -1.8215195e-07 1.0801076)
(3.4251361e-07 -2.2411598e-07 1.0801076)
(7.6895439e-07 -2.3931482e-07 1.0801083)
(4.002301e-07 -2.5694127e-07 1.0801087)
(1.9546258e-07 -2.7295389e-07 1.0801089)
(1.3652017e-08 -2.8685327e-07 1.080109)
(-1.5491893e-07 -2.991937e-07 1.0801089)
(-3.105957e-07 -3.105957e-07 1.0801087)
(-4.4662967e-07 -3.2129827e-07 1.0801084)
(-5.427396e-07 -3.3074072e-07 1.080108)
(-1.9236743e-07 -3.3701995e-07 1.0801074)
(3.3591019e-07 -3.3365462e-07 1.0801074)
(7.4866899e-07 -3.6714533e-07 1.0801081)
(3.81189e-07 -3.9319553e-07 1.0801084)
(1.7975226e-07 -4.1169561e-07 1.0801086)
(5.9131256e-10 -4.253933e-07 1.0801087)
(-1.6640898e-07 -4.3653047e-07 1.0801086)
(-3.2129828e-07 -4.4662966e-07 1.0801084)
(-4.5667549e-07 -4.5667549e-07 1.0801081)
(-5.5099314e-07 -4.6694212e-07 1.0801076)
(-1.9465507e-07 -4.7567655e-07 1.0801071)
(3.2018646e-07 -3.7154789e-07 1.080107)
(7.0941348e-07 -4.6306209e-07 1.0801077)
(3.5567982e-07 -4.9756805e-07 1.080108)
(1.632648e-07 -5.1579124e-07 1.0801082)
(-1.118284e-08 -5.2699661e-07 1.0801083)
(-1.7615529e-07 -5.3527146e-07 1.0801082)
(-3.3074073e-07 -5.4273959e-07 1.080108)
(-4.6694212e-07 -5.5099315e-07 1.0801076)
(-5.6174065e-07 -5.6174065e-07 1.0801072)
(-1.9819038e-07 -5.7605712e-07 1.0801066)
(2.7490072e-07 -1.2189914e-07 1.0801067)
(6.2264883e-07 -1.6718489e-07 1.0801072)
(3.2845985e-07 -1.7974224e-07 1.0801075)
(1.5032369e-07 -1.8533154e-07 1.0801077)
(-1.8888915e-08 -1.8836965e-07 1.0801077)
(-1.8215195e-07 -1.9046892e-07 1.0801076)
(-3.3701996e-07 -1.9236743e-07 1.0801074)
(-4.7567655e-07 -1.9465507e-07 1.0801071)
(-5.7605711e-07 -1.9819038e-07 1.0801066)
(-2.0419938e-07 -2.0419938e-07 1.080106)
(6.8311404e-07 6.8311405e-07 1.0800916)
(1.5513628e-06 5.9727113e-07 1.0800924)
(8.4862634e-07 5.7793273e-07 1.0800928)
(4.7046736e-07 5.7005052e-07 1.080093)
(1.4055416e-07 5.6516688e-07 1.0800931)
(-1.5742304e-07 5.6057905e-07 1.0800931)
(-4.2185492e-07 5.5423697e-07 1.080093)
(-6.3781999e-07 5.4226982e-07 1.0800927)
(-7.633951e-07 5.1345368e-07 1.0800923)
(-2.6532372e-07 4.2936431e-07 1.0800919)
(5.9727113e-07 1.5513628e-06 1.0800924)
(1.3935908e-06 1.3935908e-06 1.080093)
(8.0779542e-07 1.3445422e-06 1.0800934)
(4.5131859e-07 1.3189857e-06 1.0800936)
(1.2634695e-07 1.3008233e-06 1.0800937)
(-1.738179e-07 1.2833131e-06 1.0800937)
(-4.4931877e-07 1.2608154e-06 1.0800936)
(-6.9899493e-07 1.2242141e-06 1.0800933)
(-9.3275336e-07 1.1528641e-06 1.0800929)
(-3.494131e-07 9.9376727e-07 1.0800923)
(5.7793272e-07 8.4862634e-07 1.0800928)
(1.3445422e-06 8.0779543e-07 1.0800934)
(7.7402121e-07 7.7402119e-07 1.0800938)
(4.2674843e-07 7.4757648e-07 1.080094)
(1.0488157e-07 7.2495163e-07 1.0800941)
(-1.9743095e-07 7.0246101e-07 1.0800941)
(-4.8095389e-07 6.7631358e-07 1.0800939)
(-7.4577122e-07 6.4214077e-07 1.0800936)
(-9.9384196e-07 5.9641475e-07 1.0800932)
(-3.713883e-07 5.486422e-07 1.0800926)
(5.7005052e-07 4.7046736e-07 1.080093)
(1.3189857e-06 4.513186e-07 1.0800936)
(7.4757648e-07 4.2674842e-07 1.080094)
(4.0224903e-07 4.0224902e-07 1.0800942)
(8.1231484e-08 3.7862865e-07 1.0800943)
(-2.2245594e-07 3.5486689e-07 1.0800943)
(-5.09639e-07 3.2943092e-07 1.0800941)
(-7.7889376e-07 3.0126541e-07 1.0800938)
(-1.0262519e-06 2.7174823e-07 1.0800933)
(-3.8126147e-07 2.488019e-07 1.0800927)
(5.6516688e-07 1.4055416e-07 1.0800931)
(1.3008233e-06 1.2634695e-07 1.0800937)
(7.2495162e-07 1.0488158e-07 1.0800941)
(3.7862865e-07 8.123149e-08 1.0800943)
(5.7499433e-08 5.749944e-08 1.0800944)
(-2.4662868e-07 3.3962437e-08 1.0800943)
(-5.3455536e-07 1.0324188e-08 1.0800941)
(-8.0345392e-07 -1.3139679e-08 1.0800938)
(-1.0463055e-06 -3.4307193e-08 1.0800934)
(-3.8668586e-07 -4.8136413e-08 1.0800927)
(5.6057905e-07 -1.5742304e-07 1.0800931)
(1.2833131e-06 -1.738179e-07 1.0800937)
(7.0246102e-07 -1.9743095e-07 1.0800941)
(3.5486689e-07 -2.2245595e-07 1.0800943)
(3.3962431e-08 -2.4662868e-07 1.0800943)
(-2.696312e-07 -2.6963119e-07 1.0800943)
(-5.5674112e-07 -2.9167592e-07 1.0800941)
(-8.2352514e-07 -3.1244439e-07 1.0800937)
(-1.0612487e-06 -3.3018e-07 1.0800933)
(-3.9048095e-07 -3.4118857e-07 1.0800926)
(5.5423697e-07 -4.218549e-07 1.080093)
(1.2608154e-06 -4.4931877e-07 1.0800936)
(6.7631358e-07 -4.8095389e-07 1.0800939)
(3.2943092e-07 -5.0963901e-07 1.0800941)
(1.0324192e-08 -5.3455536e-07 1.0800941)
(-2.9167591e-07 -5.5674112e-07 1.0800941)
(-5.7736857e-07 -5.7736857e-07 1.0800938)
(-8.41958e-07 -5.969727e-07 1.0800935)
(-1.0750497e-06 -6.1468488e-07 1.080093)
(-3.940249e-07 -6.2698068e-07 1.0800924)
(5.4226981e-07 -6.3781999e-07 1.0800927)
(1.2242141e-06 -6.9899493e-07 1.0800933)
(6.4214078e-07 -7.4577121e-07 1.0800936)
(3.0126542e-07 -7.7889375e-07 1.0800938)
(-1.3139678e-08 -8.0345391e-07 1.0800938)
(-3.124444e-07 -8.2352514e-07 1.0800937)
(-5.9697271e-07 -8.4195799e-07 1.0800935)
(-8.6084145e-07 -8.6084144e-07 1.0800932)
(-1.0912566e-06 -8.814194e-07 1.0800927)
(-3.9867815e-07 -9.0144354e-07 1.080092)
(5.1345368e-07 -7.6339511e-07 1.0800923)
(1.1528641e-06 -9.3275338e-07 1.0800929)
(5.9641477e-07 -9.9384195e-07 1.0800932)
(2.7174822e-07 -1.0262519e-06 1.0800933)
(-3.4307199e-08 -1.0463055e-06 1.0800934)
(-3.3017999e-07 -1.0612487e-06 1.0800933)
(-6.1468487e-07 -1.0750496e-06 1.080093)
(-8.8141941e-07 -1.0912566e-06 1.0800927)
(-1.1156517e-06 -1.1156517e-06 1.0800922)
(-4.0737432e-07 -1.161549e-06 1.0800915)
(4.293643e-07 -2.6532372e-07 1.0800919)
(9.9376727e-07 -3.4941311e-07 1.0800923)
(5.4864222e-07 -3.713883e-07 1.0800926)
(2.488019e-07 -3.8126147e-07 1.0800927)
(-4.8136402e-08 -3.8668585e-07 1.0800927)
(-3.4118857e-07 -3.9048094e-07 1.0800926)
(-6.2698069e-07 -3.940249e-07 1.0800924)
(-9.0144354e-07 -3.9867815e-07 1.080092)
(-1.161549e-06 -4.0737432e-07 1.0800915)
(-4.2927634e-07 -4.2927634e-07 1.0800908)
(9.2075385e-07 9.2075386e-07 1.0800691)
(2.0995105e-06 8.0520863e-07 1.0800698)
(1.1593301e-06 7.790844e-07 1.0800701)
(6.4005996e-07 7.6822551e-07 1.0800704)
(1.7572654e-07 7.6135484e-07 1.0800705)
(-2.5130515e-07 7.5480523e-07 1.0800704)
(-6.3824656e-07 7.4567622e-07 1.0800703)
(-9.6750005e-07 7.2835036e-07 1.08007)
(-1.1877014e-06 6.8640125e-07 1.0800696)
(-4.203505e-07 5.6333575e-07 1.0800691)
(8.0520862e-07 2.0995105e-06 1.0800698)
(1.8870063e-06 1.8870063e-06 1.0800704)
(1.1038554e-06 1.8203419e-06 1.0800707)
(6.1346562e-07 1.7849025e-06 1.0800709)
(1.555961e-07 1.7592665e-06 1.080071)
(-2.7482308e-07 1.7342609e-06 1.080071)
(-6.7792887e-07 1.7019208e-06 1.0800708)
(-1.0564125e-06 1.6490817e-06 1.0800705)
(-1.4352233e-06 1.5456863e-06 1.0800701)
(-5.4341599e-07 1.3142755e-06 1.0800695)
(7.7908439e-07 1.1593301e-06 1.0800701)
(1.8203419e-06 1.1038555e-06 1.0800707)
(1.0572264e-06 1.0572264e-06 1.0800711)
(5.7898448e-07 1.0201508e-06 1.0800713)
(1.250849e-07 9.8805567e-07 1.0800713)
(-3.0865078e-07 9.5590625e-07 1.0800713)
(-7.2342577e-07 9.1836823e-07 1.0800711)
(-1.1237346e-06 8.6921182e-07 1.0800708)
(-1.5225076e-06 8.0348007e-07 1.0800703)
(-5.7462438e-07 7.3558274e-07 1.0800697)
(7.6822551e-07 6.4005996e-07 1.0800704)
(1.7849025e-06 6.1346563e-07 1.0800709)
(1.0201507e-06 5.7898448e-07 1.0800713)
(5.4429493e-07 5.4429493e-07 1.0800715)
(9.1351603e-08 5.1062766e-07 1.0800715)
(-3.4451052e-07 4.7660402e-07 1.0800715)
(-7.646233e-07 4.4008002e-07 1.0800713)
(-1.1713007e-06 3.995869e-07 1.0800709)
(-1.5688524e-06 3.5718906e-07 1.0800705)
(-5.8868088e-07 3.2443873e-07 1.0800698)
(7.6135484e-07 1.7572652e-07 1.0800705)
(1.7592664e-06 1.5559609e-07 1.080071)
(9.8805566e-07 1.250849e-07 1.0800713)
(5.1062765e-07 9.1351616e-08 1.0800715)
(5.7393991e-08 5.7394002e-08 1.0800716)
(-3.7919842e-07 2.3619566e-08 1.0800715)
(-8.0044289e-07 -1.0384096e-08 1.0800713)
(-1.2066255e-06 -4.4201439e-08 1.080071)
(-1.5976558e-06 -7.4736198e-08 1.0800705)
(-5.9645793e-07 -9.46592e-08 1.0800699)
(7.5480523e-07 -2.5130516e-07 1.0800704)
(1.7342609e-06 -2.748231e-07 1.080071)
(9.5590626e-07 -3.0865079e-07 1.0800713)
(4.7660402e-07 -3.4451053e-07 1.0800715)
(2.3619553e-08 -3.7919841e-07 1.0800715)
(-4.1228862e-07 -4.1228861e-07 1.0800714)
(-8.324443e-07 -4.4411436e-07 1.0800712)
(-1.2356528e-06 -4.742422e-07 1.0800709)
(-1.6193102e-06 -5.00129e-07 1.0800704)
(-6.0196288e-07 -5.1630736e-07 1.0800697)
(7.4567621e-07 -6.3824656e-07 1.0800703)
(1.7019208e-06 -6.7792886e-07 1.0800708)
(9.1836824e-07 -7.2342577e-07 1.0800711)
(4.4008003e-07 -7.6462331e-07 1.0800713)
(-1.0384096e-08 -8.0044289e-07 1.0800713)
(-4.4411437e-07 -8.3244431e-07 1.0800712)
(-8.6239648e-07 -8.6239648e-07 1.080071)
(-1.2626402e-06 -8.9119254e-07 1.0800706)
(-1.6397209e-06 -9.1768945e-07 1.0800701)
(-6.072435e-07 -9.3656194e-07 1.0800695)
(7.2835036e-07 -9.6750004e-07 1.08007)
(1.6490817e-06 -1.0564125e-06 1.0800705)
(8.6921182e-07 -1.1237346e-06 1.0800708)
(3.995869e-07 -1.1713007e-06 1.0800709)
(-4.4201447e-08 -1.2066255e-06 1.080071)
(-4.7424221e-07 -1.2356528e-06 1.0800709)
(-8.9119254e-07 -1.2626402e-06 1.0800706)
(-1.2909457e-06 -1.2909457e-06 1.0800703)
(-1.6646796e-06 -1.3229984e-06 1.0800698)
(-6.1454454e-07 -1.3558533e-06 1.0800691)
(6.8640124e-07 -1.1877014e-06 1.0800696)
(1.5456863e-06 -1.4352233e-06 1.0800701)
(8.0348007e-07 -1.5225076e-06 1.0800703)
(3.5718905e-07 -1.5688524e-06 1.0800705)
(-7.4736203e-08 -1.5976558e-06 1.0800705)
(-5.00129e-07 -1.6193102e-06 1.0800704)
(-9.1768944e-07 -1.6397209e-06 1.0800701)
(-1.3229984e-06 -1.6646796e-06 1.0800698)
(-1.7046285e-06 -1.7046285e-06 1.0800692)
(-6.2914682e-07 -1.7851623e-06 1.0800686)
(5.6333574e-07 -4.203505e-07 1.0800691)
(1.3142755e-06 -5.43416e-07 1.0800695)
(7.3558275e-07 -5.7462439e-07 1.0800697)
(3.2443873e-07 -5.8868088e-07 1.0800698)
(-9.4659199e-08 -5.9645794e-07 1.0800699)
(-5.1630735e-07 -6.0196288e-07 1.0800697)
(-9.3656195e-07 -6.072435e-07 1.0800695)
(-1.3558533e-06 -6.1454455e-07 1.0800691)
(-1.7851623e-06 -6.2914682e-07 1.0800686)
(-6.6823371e-07 -6.6823371e-07 1.0800678)
(1.1452807e-06 1.1452807e-06 1.0800388)
(2.6113134e-06 1.001144e-06 1.0800394)
(1.4400802e-06 9.6862846e-07 1.0800398)
(7.8617136e-07 9.5497446e-07 1.08004)
(1.9255557e-07 9.4620915e-07 1.08004)
(-3.605194e-07 9.3775481e-07 1.08004)
(-8.6900453e-07 9.2589004e-07 1.0800398)
(-1.3116191e-06 9.0328176e-07 1.0800395)
(-1.6242032e-06 8.4838049e-07 1.0800391)
(-5.7866472e-07 6.8692999e-07 1.0800386)
(1.001144e-06 2.6113134e-06 1.0800394)
(2.346335e-06 2.346335e-06 1.08004)
(1.3708259e-06 2.263125e-06 1.0800403)
(7.5254238e-07 2.2183812e-06 1.0800405)
(1.667261e-07 2.1856003e-06 1.0800406)
(-3.9099805e-07 2.1533168e-06 1.0800405)
(-9.2071411e-07 2.1113277e-06 1.0800403)
(-1.4278834e-06 2.0425053e-06 1.08004)
(-1.9487308e-06 1.9075457e-06 1.0800396)
(-7.4011522e-07 1.6049927e-06 1.080039)
(9.6862846e-07 1.4400802e-06 1.0800398)
(2.263125e-06 1.3708259e-06 1.0800403)
(1.3121264e-06 1.3121264e-06 1.0800406)
(7.0864668e-07 1.2649706e-06 1.0800408)
(1.2749121e-07 1.2237745e-06 1.0800409)
(-4.3479196e-07 1.1822346e-06 1.0800408)
(-9.798161e-07 1.1335408e-06 1.0800406)
(-1.5154011e-06 1.0696633e-06 1.0800403)
(-2.0617157e-06 9.8427647e-07 1.0800398)
(-7.8036666e-07 8.9667769e-07 1.0800392)
(9.5497445e-07 7.8617136e-07 1.08004)
(2.2183812e-06 7.5254239e-07 1.0800405)
(1.2649706e-06 7.0864669e-07 1.0800408)
(6.6419049e-07 6.641905e-07 1.080041)
(8.3990053e-08 6.2080326e-07 1.080041)
(-4.8123178e-07 5.7677254e-07 1.0800409)
(-1.0332854e-06 5.2937663e-07 1.0800407)
(-1.5771477e-06 4.7676454e-07 1.0800404)
(-2.1217164e-06 4.2170618e-07 1.0800399)
(-7.9851441e-07 3.7935179e-07 1.0800393)
(9.4620915e-07 1.9255556e-07 1.08004)
(2.1856003e-06 1.6672609e-07 1.0800406)
(1.2237745e-06 1.2749121e-07 1.0800409)
(6.2080325e-07 8.3990058e-08 1.080041)
(4.0073242e-08 4.0073243e-08 1.0800411)
(-5.2621859e-07 -3.7276111e-09 1.080041)
(-1.0798241e-06 -4.7933442e-08 1.0800408)
(-1.6230716e-06 -9.1977556e-08 1.0800404)
(-2.1591284e-06 -1.3177942e-07 1.0800399)
(-8.0860292e-07 -1.5772434e-07 1.0800393)
(9.3775481e-07 -3.605194e-07 1.08004)
(2.1533168e-06 -3.9099805e-07 1.0800405)
(1.1822346e-06 -4.3479197e-07 1.0800408)
(5.7677253e-07 -4.8123179e-07 1.0800409)
(-3.7276163e-09 -5.262186e-07 1.080041)
(-5.6923847e-07 -5.6923847e-07 1.0800409)
(-1.1215353e-06 -6.1075399e-07 1.0800406)
(-1.6609937e-06 -6.5021827e-07 1.0800403)
(-2.1874632e-06 -6.8428703e-07 1.0800398)
(-8.1581102e-07 -7.0567409e-07 1.0800392)
(9.2589005e-07 -8.6900452e-07 1.0800398)
(2.1113277e-06 -9.2071409e-07 1.0800403)
(1.1335408e-06 -9.798161e-07 1.0800406)
(5.2937663e-07 -1.0332854e-06 1.0800407)
(-4.7933443e-08 -1.0798241e-06 1.0800408)
(-6.1075399e-07 -1.1215353e-06 1.0800406)
(-1.1608039e-06 -1.1608039e-06 1.0800404)
(-1.6966046e-06 -1.1988974e-06 1.08004)
(-2.2145842e-06 -1.2343803e-06 1.0800395)
(-8.2286096e-07 -1.260013e-06 1.0800389)
(9.0328176e-07 -1.3116191e-06 1.0800395)
(2.0425053e-06 -1.4278834e-06 1.08004)
(1.0696633e-06 -1.5154011e-06 1.0800403)
(4.7676453e-07 -1.5771477e-06 1.0800404)
(-9.1977533e-08 -1.6230716e-06 1.0800404)
(-6.5021827e-07 -1.6609937e-06 1.0800403)
(-1.1988975e-06 -1.6966046e-06 1.08004)
(-1.7345701e-06 -1.7345701e-06 1.0800397)
(-2.2485788e-06 -1.7784933e-06 1.0800392)
(-8.3289947e-07 -1.824508e-06 1.0800385)
(8.4838049e-07 -1.6242032e-06 1.0800391)
(1.9075456e-06 -1.9487308e-06 1.0800396)
(9.8427647e-07 -2.0617157e-06 1.0800398)
(4.2170618e-07 -2.1217164e-06 1.0800399)
(-1.3177943e-07 -2.1591284e-06 1.0800399)
(-6.8428702e-07 -2.1874632e-06 1.0800398)
(-1.2343803e-06 -2.2145843e-06 1.0800395)
(-1.7784933e-06 -2.2485788e-06 1.0800392)
(-2.3045222e-06 -2.3045222e-06 1.0800386)
(-8.5353746e-07 -2.4196301e-06 1.080038)
(6.8692999e-07 -5.7866473e-07 1.0800386)
(1.6049927e-06 -7.4011523e-07 1.080039)
(8.9667769e-07 -7.8036666e-07 1.0800392)
(3.7935178e-07 -7.9851442e-07 1.0800393)
(-1.5772435e-07 -8.0860292e-07 1.0800393)
(-7.0567409e-07 -8.1581103e-07 1.0800392)
(-1.260013e-06 -8.2286097e-07 1.0800389)
(-1.824508e-06 -8.3289948e-07 1.0800385)
(-2.4196301e-06 -8.5353745e-07 1.080038)
(-9.0963808e-07 -9.0963808e-07 1.0800372)
(1.3591911e-06 1.3591911e-06 1.0800009)
(3.0939383e-06 1.1873595e-06 1.0800016)
(1.6962709e-06 1.1487272e-06 1.0800019)
(9.1195583e-07 1.1324133e-06 1.0800021)
(1.9340419e-07 1.1218342e-06 1.0800021)
(-4.819851e-07 1.1115379e-06 1.0800021)
(-1.1089116e-06 1.0970099e-06 1.0800019)
(-1.6617209e-06 1.0692481e-06 1.0800016)
(-2.0621162e-06 1.0017122e-06 1.0800012)
(-7.3650274e-07 8.0284636e-07 1.0800007)
(1.1873595e-06 3.0939383e-06 1.0800016)
(2.7782425e-06 2.7782425e-06 1.0800021)
(1.6138515e-06 2.6792451e-06 1.0800024)
(8.7161627e-07 2.6256469e-06 1.0800026)
(1.6209111e-07 2.5860205e-06 1.0800026)
(-5.1922149e-07 2.5467e-06 1.0800026)
(-1.1723462e-06 2.4953241e-06 1.0800024)
(-1.8046675e-06 2.4109169e-06 1.0800021)
(-2.4617189e-06 2.2451789e-06 1.0800016)
(-9.3536859e-07 1.873312e-06 1.080001)
(1.1487272e-06 1.6962709e-06 1.0800019)
(2.6792451e-06 1.6138515e-06 1.0800024)
(1.5436753e-06 1.5436753e-06 1.0800027)
(8.1873115e-07 1.4869061e-06 1.0800029)
(1.1445726e-07 1.4369688e-06 1.0800029)
(-5.7268145e-07 1.3863425e-06 1.0800028)
(-1.2446947e-06 1.3268e-06 1.0800026)
(-1.9118661e-06 1.2485762e-06 1.0800023)
(-2.5997211e-06 1.1440358e-06 1.0800018)
(-9.8441403e-07 1.0372765e-06 1.0800012)
(1.1324133e-06 9.1195584e-07 1.0800021)
(2.6256469e-06 8.7161628e-07 1.0800026)
(1.486906e-06 8.1873115e-07 1.0800029)
(7.6490968e-07 7.6490969e-07 1.080003)
(6.1527565e-08 7.1214878e-07 1.080003)
(-6.2939023e-07 6.5841417e-07 1.080003)
(-1.3101125e-06 6.0043327e-07 1.0800027)
(-1.9874318e-06 5.3599895e-07 1.0800024)
(-2.6730186e-06 4.6859002e-07 1.0800019)
(-1.0065414e-06 4.1688324e-07 1.0800013)
(1.1218342e-06 1.9340419e-07 1.0800021)
(2.5860205e-06 1.620911e-07 1.0800026)
(1.4369688e-06 1.1445724e-07 1.0800029)
(7.1214877e-07 6.1527567e-08 1.080003)
(7.9617303e-09 7.9617416e-09 1.0800031)
(-6.8439696e-07 -4.5593899e-08 1.080003)
(-1.3671099e-06 -9.9762837e-08 1.0800027)
(-2.0437093e-06 -1.5381958e-07 1.0800024)
(-2.7188368e-06 -2.0270309e-07 1.0800019)
(-1.0188852e-06 -2.3454399e-07 1.0800013)
(1.1115379e-06 -4.8198512e-07 1.0800021)
(2.5467e-06 -5.192215e-07 1.0800026)
(1.3863425e-06 -5.7268146e-07 1.0800028)
(6.5841418e-07 -6.2939022e-07 1.080003)
(-4.5593901e-08 -6.8439697e-07 1.080003)
(-7.371148e-07 -7.371148e-07 1.0800029)
(-1.4183382e-06 -7.881376e-07 1.0800026)
(-2.090372e-06 -8.3680221e-07 1.0800023)
(-2.753743e-06 -8.7895847e-07 1.0800018)
(-1.0277687e-06 -9.0549865e-07 1.0800011)
(1.0970099e-06 -1.1089116e-06 1.0800019)
(2.4953241e-06 -1.1723462e-06 1.0800024)
(1.3268e-06 -1.2446947e-06 1.0800026)
(6.0043327e-07 -1.3101126e-06 1.0800027)
(-9.9762844e-08 -1.3671099e-06 1.0800027)
(-7.881376e-07 -1.4183382e-06 1.0800026)
(-1.4667973e-06 -1.4667973e-06 1.0800024)
(-2.1345302e-06 -1.5141231e-06 1.080002)
(-2.7875333e-06 -1.5585673e-06 1.0800015)
(-1.0365787e-06 -1.5909421e-06 1.0800009)
(1.0692481e-06 -1.6617209e-06 1.0800016)
(2.4109169e-06 -1.8046675e-06 1.0800021)
(1.2485762e-06 -1.9118661e-06 1.0800023)
(5.3599893e-07 -1.9874318e-06 1.0800024)
(-1.5381956e-07 -2.0437094e-06 1.0800024)
(-8.3680218e-07 -2.090372e-06 1.0800023)
(-1.5141231e-06 -2.1345302e-06 1.080002)
(-2.1821421e-06 -2.182142e-06 1.0800016)
(-2.830562e-06 -2.2379368e-06 1.0800011)
(-1.0493519e-06 -2.2970388e-06 1.0800005)
(1.0017122e-06 -2.0621162e-06 1.0800012)
(2.2451789e-06 -2.4617189e-06 1.0800016)
(1.1440358e-06 -2.5997211e-06 1.0800018)
(4.6859001e-07 -2.6730186e-06 1.0800019)
(-2.0270309e-07 -2.7188368e-06 1.0800019)
(-8.7895845e-07 -2.753743e-06 1.0800018)
(-1.5585673e-06 -2.7875333e-06 1.0800015)
(-2.2379368e-06 -2.830562e-06 1.0800011)
(-2.90243e-06 -2.90243e-06 1.0800006)
(-1.07598e-06 -3.0516324e-06 1.0799999)
(8.0284637e-07 -7.3650274e-07 1.0800007)
(1.873312e-06 -9.3536859e-07 1.080001)
(1.0372765e-06 -9.8441403e-07 1.0800012)
(4.1688325e-07 -1.0065415e-06 1.0800013)
(-2.3454397e-07 -1.0188852e-06 1.0800013)
(-9.0549865e-07 -1.0277687e-06 1.0800011)
(-1.5909421e-06 -1.0365787e-06 1.0800009)
(-2.2970388e-06 -1.0493519e-06 1.0800005)
(-3.0516324e-06 -1.07598e-06 1.0799999)
(-1.1488202e-06 -1.1488202e-06 1.0799992)
(1.5626293e-06 1.5626293e-06 1.0799559)
(3.5491549e-06 1.3641093e-06 1.0799565)
(1.9309164e-06 1.3196208e-06 1.0799568)
(1.020218e-06 1.3007697e-06 1.079957)
(1.8114016e-07 1.2884557e-06 1.079957)
(-6.1212264e-07 1.2763874e-06 1.0799569)
(-1.3530649e-06 1.2592872e-06 1.0799568)
(-2.0113967e-06 1.2265415e-06 1.0799565)
(-2.4944701e-06 1.1467867e-06 1.0799561)
(-8.9159206e-07 9.1174248e-07 1.0799556)
(1.3641093e-06 3.5491549e-06 1.0799565)
(3.1846422e-06 3.1846422e-06 1.079957)
(1.835907e-06 3.070559e-06 1.0799573)
(9.7347039e-07 3.0085186e-06 1.0799575)
(1.4456667e-07 2.9623431e-06 1.0799575)
(-6.5587549e-07 2.9162543e-06 1.0799574)
(-1.4278337e-06 2.8558159e-06 1.0799572)
(-2.1801474e-06 2.7563416e-06 1.0799569)
(-2.9666687e-06 2.5608464e-06 1.0799565)
(-1.1266363e-06 2.1219853e-06 1.0799559)
(1.3196208e-06 1.9309164e-06 1.0799568)
(3.070559e-06 1.835907e-06 1.0799573)
(1.7547928e-06 1.7547928e-06 1.0799576)
(9.1200208e-07 1.6888514e-06 1.0799577)
(8.8875939e-08 1.6305418e-06 1.0799578)
(-7.1864979e-07 1.5711729e-06 1.0799577)
(-1.5129777e-06 1.5011577e-06 1.0799575)
(-2.3063662e-06 1.4090661e-06 1.0799571)
(-3.1288264e-06 1.2860136e-06 1.0799567)
(-1.1841661e-06 1.1607647e-06 1.0799561)
(1.3007697e-06 1.020218e-06 1.079957)
(3.0085185e-06 9.7347039e-07 1.0799575)
(1.6888514e-06 9.1200207e-07 1.0799577)
(8.4921943e-07 8.4921942e-07 1.0799579)
(2.6888133e-08 7.8745849e-07 1.0799579)
(-7.8525966e-07 7.2437285e-07 1.0799578)
(-1.5899405e-06 6.5616362e-07 1.0799576)
(-2.3952914e-06 5.8029048e-07 1.0799572)
(-3.2149702e-06 5.0093238e-07 1.0799568)
(-1.2101356e-06 4.4018907e-07 1.0799562)
(1.2884557e-06 1.8114017e-07 1.079957)
(2.9623431e-06 1.4456668e-07 1.0799575)
(1.6305418e-06 8.8875941e-08 1.0799578)
(7.8745851e-07 2.6888137e-08 1.0799579)
(-3.5970637e-08 -3.5970631e-08 1.0799579)
(-8.4994467e-07 -9.8948796e-08 1.0799578)
(-1.65706e-06 -1.6276702e-07 1.0799576)
(-2.4615975e-06 -2.265376e-07 1.0799572)
(-3.2689278e-06 -2.8423616e-07 1.0799567)
(-1.2246616e-06 -3.217951e-07 1.0799561)
(1.2763874e-06 -6.1212265e-07 1.0799569)
(2.9162543e-06 -6.5587548e-07 1.0799574)
(1.5711729e-06 -7.1864978e-07 1.0799577)
(7.2437285e-07 -7.8525966e-07 1.0799578)
(-9.8948799e-08 -8.4994467e-07 1.0799578)
(-9.1205605e-07 -9.1205603e-07 1.0799577)
(-1.7175293e-06 -9.7231694e-07 1.0799574)
(-2.5167605e-06 -1.0299457e-06 1.0799571)
(-3.3102277e-06 -1.0799948e-06 1.0799566)
(-1.2351749e-06 -1.1115646e-06 1.079956)
(1.2592872e-06 -1.3530649e-06 1.0799568)
(2.8558159e-06 -1.4278337e-06 1.0799572)
(1.5011577e-06 -1.5129777e-06 1.0799575)
(6.5616361e-07 -1.5899405e-06 1.0799576)
(-1.6276701e-07 -1.65706e-06 1.0799576)
(-9.7231693e-07 -1.7175293e-06 1.0799574)
(-1.7749497e-06 -1.7749497e-06 1.0799572)
(-2.5692753e-06 -1.8313118e-06 1.0799568)
(-3.3505467e-06 -1.8845458e-06 1.0799563)
(-1.2457081e-06 -1.9235326e-06 1.0799557)
(1.2265415e-06 -2.0113967e-06 1.0799565)
(2.7563416e-06 -2.1801474e-06 1.0799569)
(1.4090661e-06 -2.3063662e-06 1.0799571)
(5.8029049e-07 -2.3952914e-06 1.0799572)
(-2.2653758e-07 -2.4615975e-06 1.0799572)
(-1.0299457e-06 -2.5167605e-06 1.0799571)
(-1.8313118e-06 -2.5692753e-06 1.0799568)
(-2.6263567e-06 -2.6263567e-06 1.0799564)
(-3.4024485e-06 -2.6938139e-06 1.0799559)
(-1.2611661e-06 -2.7657457e-06 1.0799553)
(1.1467867e-06 -2.4944701e-06 1.0799561)
(2.5608464e-06 -2.9666687e-06 1.0799565)
(1.2860136e-06 -3.1288264e-06 1.0799567)
(5.0093238e-07 -3.2149702e-06 1.0799568)
(-2.8423616e-07 -3.2689278e-06 1.0799567)
(-1.0799948e-06 -3.3102277e-06 1.0799566)
(-1.8845458e-06 -3.3505467e-06 1.0799563)
(-2.6938139e-06 -3.4024485e-06 1.0799559)
(-3.4899357e-06 -3.4899357e-06 1.0799554)
(-1.2936627e-06 -3.6724842e-06 1.0799548)
(9.1174248e-07 -8.9159206e-07 1.0799556)
(2.1219853e-06 -1.1266363e-06 1.0799559)
(1.1607647e-06 -1.1841661e-06 1.0799561)
(4.4018907e-07 -1.2101356e-06 1.0799562)
(-3.2179508e-07 -1.2246617e-06 1.0799561)
(-1.1115645e-06 -1.2351749e-06 1.079956)
(-1.9235326e-06 -1.2457081e-06 1.0799557)
(-2.7657457e-06 -1.2611661e-06 1.0799553)
(-3.6724842e-06 -1.2936627e-06 1.0799548)
(-1.3828651e-06 -1.3828651e-06 1.0799541)
(1.7549993e-06 1.7549993e-06 1.0799041)
(3.9766461e-06 1.5309596e-06 1.0799047)
(2.1455623e-06 1.4808952e-06 1.0799049)
(1.113128e-06 1.4596335e-06 1.0799051)
(1.584608e-07 1.4456676e-06 1.0799051)
(-7.4752569e-07 1.4319058e-06 1.079905)
(-1.597179e-06 1.412341e-06 1.0799048)
(-2.3555898e-06 1.3748162e-06 1.0799045)
(-2.9161068e-06 1.2833428e-06 1.0799041)
(-1.0422814e-06 1.0135986e-06 1.0799037)
(1.5309596e-06 3.9766461e-06 1.0799047)
(3.5654899e-06 3.5654899e-06 1.0799051)