/*--------------------------------*- C++ -*----------------------------------*\
| =========                 |                                                 |
| \\      /  F ield         | OpenFOAM: The Open Source CFD Toolbox           |
|  \\    /   O peration     | Version:  v2106                                 |
|   \\  /    A nd           | Website:  www.openfoam.com                      |
|    \\/     M anipulation  |                                                 |
\*---------------------------------------------------------------------------*/
FoamFile
{
    version     2.0;
    format      ascii;
    arch        "LSB;label=32;scalar=64";
    class       volVectorField;
    location    "82.5";
    object      gradT;
}
// * * * * * * * * * * * * * * * * * * * * * * * * * * * * * * * * * * * * * //

dimensions      [0 -1 0 1 0 0 0];

internalField   nonuniform List<vector> 
4000
(
(7.5100078e-05 7.5100083e-05 569.43271)
(0.00016501046 6.658488e-05 569.43326)
(8.3093655e-05 6.4610831e-05 569.43353)
(4.5023761e-05 6.3844184e-05 569.43369)
(1.4392066e-05 6.3394476e-05 569.43376)
(-1.2253474e-05 6.2982869e-05 569.43376)
(-3.4990622e-05 6.2422377e-05 569.43369)
(-5.1593934e-05 6.1392012e-05 569.43357)
(-5.5109523e-05 5.9071519e-05 569.43342)
(-1.7434079e-05 5.342664e-05 569.43327)
(6.6584875e-05 0.00016501046 569.43326)
(0.00014927658 0.00014927658 569.43375)
(7.8982611e-05 0.00014433564 569.434)
(4.3199228e-05 0.00014189694 569.43415)
(1.3100094e-05 0.00014023556 569.43422)
(-1.3711622e-05 0.00013866502 569.43422)
(-3.7376908e-05 0.00013666926 569.43415)
(-5.6620221e-05 0.00013347537 569.43402)
(-6.7057582e-05 0.00012751997 569.43384)
(-2.3078959e-05 0.00011597899 569.43364)
(6.4610827e-05 8.309365e-05 569.43353)
(0.00014433563 7.8982617e-05 569.434)
(7.5714014e-05 7.5714009e-05 569.43424)
(4.0923685e-05 7.3261901e-05 569.43439)
(1.1160144e-05 7.1211612e-05 569.43445)
(-1.581977e-05 6.9196813e-05 569.43444)
(-4.0180272e-05 6.6868751e-05 569.43437)
(-6.0743224e-05 6.3839744e-05 569.43423)
(-7.2605902e-05 5.979675e-05 569.43404)
(-2.5128066e-05 5.5377046e-05 569.43383)
(6.3844187e-05 4.5023751e-05 569.43369)
(0.00014189694 4.3199227e-05 569.43415)
(7.3261895e-05 4.0923691e-05 569.43439)
(3.8696831e-05 3.869683e-05 569.43453)
(9.0350056e-06 3.6572442e-05 569.43459)
(-1.8054484e-05 3.4448288e-05 569.43457)
(-4.2733978e-05 3.2182424e-05 569.43449)
(-6.3692222e-05 2.9677621e-05 569.43434)
(-7.552028e-05 2.7049066e-05 569.43415)
(-2.6025428e-05 2.4975431e-05 569.43393)
(6.3394478e-05 1.4392064e-05 569.43376)
(0.00014023557 1.3100095e-05 569.43422)
(7.1211617e-05 1.1160149e-05 569.43445)
(3.6572435e-05 9.0350064e-06 569.43459)
(6.9116019e-06 6.911599e-06 569.43464)
(-2.0209788e-05 4.8128442e-06 569.43462)
(-4.4950939e-05 2.7111099e-06 569.43453)
(-6.5876582e-05 6.2971914e-07 569.43438)
(-7.7308093e-05 -1.2458912e-06 569.43418)
(-2.6510489e-05 -2.4738987e-06 569.43395)
(6.2982874e-05 -1.225347e-05 569.43376)
(0.00013866502 -1.3711621e-05 569.43422)
(6.9196807e-05 -1.5819781e-05 569.43444)
(3.4448281e-05 -1.8054485e-05 569.43457)
(4.8128434e-06 -2.0209782e-05 569.43462)
(-2.2254974e-05 -2.2254974e-05 569.4346)
(-4.6917103e-05 -2.4206503e-05 569.4345)
(-6.7649223e-05 -2.6033081e-05 569.43435)
(-7.8623898e-05 -2.7577927e-05 569.43414)
(-2.6844099e-05 -2.852477e-05 569.43391)
(6.2422377e-05 -3.4990625e-05 569.43369)
(0.00013666926 -3.7376913e-05 569.43415)
(6.6868753e-05 -4.0180277e-05 569.43437)
(3.2182434e-05 -4.2733973e-05 569.43449)
(2.7111127e-06 -4.4950935e-05 569.43453)
(-2.4206508e-05 -4.6917103e-05 569.4345)
(-4.8729046e-05 -4.8729039e-05 569.4344)
(-6.9248006e-05 -5.0420662e-05 569.43424)
(-7.9799782e-05 -5.1897155e-05 569.43403)
(-2.7141719e-05 -5.28601e-05 569.4338)
(6.1392015e-05 -5.159393e-05 569.43357)
(0.00013347537 -5.662022e-05 569.43402)
(6.3839747e-05 -6.0743214e-05 569.43423)
(2.9677623e-05 -6.369222e-05 569.43434)
(6.2971266e-07 -6.587658e-05 569.43438)
(-2.6033077e-05 -6.7649222e-05 569.43435)
(-5.0420662e-05 -6.9248004e-05 569.43424)
(-7.0817339e-05 -7.0817336e-05 569.43408)
(-8.1063335e-05 -7.2372946e-05 569.43386)
(-2.7486063e-05 -7.3611215e-05 569.43363)
(5.9071517e-05 -5.5109519e-05 569.43342)
(0.00012751998 -6.7057581e-05 569.43384)
(5.9796753e-05 -7.2605901e-05 569.43404)
(2.7049067e-05 -7.5520282e-05 569.43415)
(-1.2458892e-06 -7.7308091e-05 569.43418)
(-2.7577933e-05 -7.8623897e-05 569.43414)
(-5.189716e-05 -7.9799783e-05 569.43403)
(-7.2372947e-05 -8.1063335e-05 569.43386)
(-8.2593661e-05 -8.2593664e-05 569.43365)
(-2.7967232e-05 -8.4269155e-05 569.43341)
(5.3426641e-05 -1.7434078e-05 569.43327)
(0.00011597899 -2.3078955e-05 569.43364)
(5.5377046e-05 -2.512807e-05 569.43383)
(2.4975432e-05 -2.6025426e-05 569.43393)
(-2.4739023e-06 -2.6510493e-05 569.43395)
(-2.8524769e-05 -2.6844101e-05 569.43391)
(-5.2860099e-05 -2.7141717e-05 569.4338)
(-7.3611219e-05 -2.7486061e-05 569.43363)
(-8.4269156e-05 -2.7967232e-05 569.43341)
(-2.8603057e-05 -2.8603058e-05 569.43316)
(0.00032772636 0.00032772636 841.46458)
(0.00073455482 0.00028650291 841.46526)
(0.00038923453 0.00027736481 841.46561)
(0.00021444594 0.0002737631 841.46583)
(6.7540669e-05 0.00027159338 841.46593)
(-6.2306634e-05 0.00026958716 841.46592)
(-0.00017459922 0.00026683776 841.46582)
(-0.00025993611 0.00026169332 841.46563)
(-0.00028945713 0.00024944364 841.46538)
(-9.4966426e-05 0.00021416344 841.4651)
(0.00028650291 0.00073455482 841.46526)
(0.00065901249 0.00065901248 841.46585)
(0.00037012482 0.00063608616 841.46619)
(0.00020578881 0.00062451974 841.4664)
(6.1276754e-05 0.00061648283 841.46649)
(-6.9440061e-05 0.00060882889 841.46648)
(-0.00018643998 0.00059905961 841.46637)
(-0.00028602729 0.00058325612 841.46617)
(-0.00036075195 0.00055267382 841.46589)
(-0.00013024663 0.00048507918 841.46552)
(0.0002773648 0.00038923452 841.46561)
(0.00063608616 0.00037012482 841.46619)
(0.00035474178 0.00035474177 841.46651)
(0.00019484261 0.00034295029 841.46671)
(5.1849827e-05 0.00033299603 841.4668)
(-7.9729853e-05 0.00032317487 841.46678)
(-0.00020017199 0.00031180221 841.46666)
(-0.00030632189 0.0002969681 841.46645)
(-0.00038763407 0.00027709499 841.46614)
(-0.00014002952 0.00025588907 841.46575)
(0.00027376311 0.00021444594 841.46583)
(0.00062451974 0.00020578881 841.4664)
(0.00034295029 0.00019484261 841.46671)
(0.00018404308 0.00018404308 841.4669)
(4.1501333e-05 0.0001737012 841.46698)
(-9.0633881e-05 0.00016334049 841.46696)
(-0.00021264674 0.00015227657 841.46683)
(-0.00032073451 0.00014003732 841.4666)
(-0.00040183098 0.00012719265 841.46629)
(-0.00014438391 0.00011711078 841.46589)
(0.00027159338 6.7540672e-05 841.46593)
(0.00061648283 6.1276755e-05 841.46649)
(0.00033299604 5.1849838e-05 841.4668)
(0.0001737012 4.150134e-05 841.46698)
(3.1147241e-05 3.114725e-05 841.46705)
(-0.00010115449 2.0902986e-05 841.46702)
(-0.00022347517 1.0635703e-05 841.46688)
(-0.00033140581 4.6066541e-07 841.46665)
(-0.00041056061 -8.7120753e-06 841.46633)
(-0.00014675077 -1.4715548e-05 841.46592)
(0.00026958716 -6.2306634e-05 841.46592)
(0.0006088289 -6.9440065e-05 841.46648)
(0.00032317487 -7.9729857e-05 841.46678)
(0.00016334049 -9.063389e-05 841.46696)
(2.0902979e-05 -0.00010115449 841.46702)
(-0.00011114543 -0.00011114543 841.46698)
(-0.00023308906 -0.00012069074 841.46683)
(-0.00034008229 -0.00012964214 841.46659)
(-0.00041700719 -0.00013723508 841.46626)
(-0.00014838622 -0.00014190683 841.46585)
(0.00026683776 -0.00017459921 841.46582)
(0.00059905961 -0.00018643998 841.46637)
(0.00031180222 -0.000200172 841.46666)
(0.00015227657 -0.00021264675 841.46683)
(1.0635705e-05 -0.00022347516 841.46688)
(-0.00012069074 -0.00023308906 841.46683)
(-0.00024197188 -0.00024197188 841.46668)
(-0.00034795014 -0.0002503098 841.46644)
(-0.0004228253 -0.00025766601 841.4661)
(-0.00014986527 -0.00026255789 841.46568)
(0.00026169332 -0.0002599361 841.46563)
(0.00058325612 -0.00028602729 841.46617)
(0.00029696811 -0.00030632189 841.46645)
(0.00014003732 -0.00032073451 841.4666)
(4.6066643e-07 -0.0003314058 841.46665)
(-0.00012964214 -0.00034008229 841.46659)
(-0.0002503098 -0.00034795014 841.46644)
(-0.00035577642 -0.00035577642 841.46618)
(-0.00042925529 -0.00036377471 841.46584)
(-0.00015164748 -0.00037057934 841.46542)
(0.00024944363 -0.00028945713 841.46538)
(0.00055267382 -0.00036075195 841.46589)
(0.000277095 -0.00038763407 841.46614)
(0.00012719265 -0.00040183098 841.46629)
(-8.7120742e-06 -0.00041056061 841.46633)
(-0.00013723508 -0.00041700719 841.46626)
(-0.00025766601 -0.00042282529 841.4661)
(-0.00036377471 -0.00042925529 841.46584)
(-0.00043762821 -0.00043762821 841.46549)
(-0.00015440169 -0.00044878156 841.46506)
(0.00021416344 -9.4966431e-05 841.4651)
(0.00048507918 -0.00013024662 841.46552)
(0.00025588908 -0.00014002952 841.46575)
(0.00011711078 -0.0001443839 841.46589)
(-1.4715549e-05 -0.00014675077 841.46592)
(-0.00014190683 -0.00014838622 841.46585)
(-0.00026255789 -0.00014986527 841.46568)
(-0.00037057934 -0.00015164748 841.46542)
(-0.00044878156 -0.00015440168 841.46506)
(-0.00015908304 -0.00015908304 841.4646)
(0.00052873035 0.00052873035 835.99103)
(0.001200755 0.00046228792 835.9916)
(0.00065683688 0.00044731999 835.99191)
(0.00036414178 0.00044121916 835.9921)
(0.00010878893 0.00043743922 835.99218)
(-0.00012184545 0.00043388824 835.99217)
(-0.00032651575 0.00042897947 835.99205)
(-0.00049367274 0.00041971689 835.99185)
(-0.00059086789 0.0003974132 835.99157)
(-0.00020536059 0.00033232802 835.99123)
(0.00046228792 0.001200755 835.9916)
(0.0010786394 0.0010786394 835.99209)
(0.00062523373 0.0010406758 835.99239)
(0.00034932063 0.001020895 835.99257)
(9.7792553e-05 0.0010068373 835.99265)
(-0.00013453507 0.00099328445 835.99263)
(-0.00034777277 0.00097587121 835.99251)
(-0.00054102214 0.00094754185 835.9923)
(-0.00072195119 0.00089231696 835.99199)
(-0.00027044577 0.00076917597 835.99155)
(0.00044731998 0.00065683687 835.99191)
(0.0010406758 0.00062523373 835.99239)
(0.00059909248 0.00059909247 835.99267)
(0.00033030332 0.00057862426 835.99285)
(8.1178341e-05 0.00056111262 835.99292)
(-0.00015281157 0.00054370488 835.99289)
(-0.00037225835 0.00052346677 835.99276)
(-0.00057722699 0.00049701702 835.99253)
(-0.00076923377 0.00046162507 835.9922)
(-0.00028745458 0.00042464912 835.99175)
(0.00044121916 0.00036414178 835.9921)
(0.001020895 0.00034932064 835.99257)
(0.00057862426 0.00033030331 835.99285)
(0.00031134078 0.00031134078 835.99302)
(6.2873175e-05 0.0002930586 835.99308)
(-0.00017218092 0.000274667 835.99304)
(-0.00039446063 0.00025497956 835.99291)
(-0.00060286384 0.00023317946 835.99267)
(-0.0007943191 0.00021033315 835.99233)
(-0.00029509641 0.00019257269 835.99186)
(0.00043743922 0.00010878893 835.99218)
(0.0010068373 9.7792553e-05 835.99265)
(0.00056111262 8.117835e-05 835.99292)
(0.00029305861 6.287318e-05 835.99308)
(4.4504566e-05 4.4504571e-05 835.99314)
(-0.00019089062 2.6286929e-05 835.99309)
(-0.0004137459 7.9909222e-06 835.99295)
(-0.0006218734 -1.0170113e-05 835.9927)
(-0.00080984054 -2.655377e-05 835.99235)
(-0.00029929489 -3.7257588e-05 835.99188)
(0.00043388824 -0.00012184545 835.99217)
(0.00099328445 -0.00013453507 835.99263)
(0.00054370489 -0.00015281157 835.99289)
(0.000274667 -0.00017218092 835.99304)
(2.6286925e-05 -0.00019089062 835.99309)
(-0.00020869457 -0.00020869456 835.99304)
(-0.00043091767 -0.00022575719 835.99289)
(-0.00063740853 -0.00024183199 835.99263)
(-0.00082140657 -0.00025555935 835.99228)
(-0.00030223229 -0.00026407999 835.99181)
(0.00042897947 -0.00032651574 835.99205)
(0.0009758712 -0.00034777277 835.99251)
(0.00052346677 -0.00037225835 835.99276)
(0.00025497956 -0.00039446064 835.99291)
(7.9909256e-06 -0.0004137459 835.99295)
(-0.00022575718 -0.00043091767 835.99289)
(-0.00044688332 -0.00044688332 835.99273)
(-0.00065167557 -0.00046205693 835.99247)
(-0.00083208854 -0.00047576615 835.9921)
(-0.00030497531 -0.00048528311 835.99163)
(0.00041971689 -0.00049367274 835.99185)
(0.00094754184 -0.00054102214 835.9923)
(0.00049701702 -0.00057722698 835.99253)
(0.00023317946 -0.00060286383 835.99267)
(-1.0170112e-05 -0.0006218734 835.9927)
(-0.00024183199 -0.00063740853 835.99263)
(-0.00046205693 -0.00065167556 835.99247)
(-0.00066629136 -0.00066629136 835.9922)
(-0.00084463275 -0.0006822187 835.99183)
(-0.00030857693 -0.00069771739 835.99135)
(0.0003974132 -0.0005908679 835.99157)
(0.00089231696 -0.00072195121 835.99199)
(0.00046162508 -0.00076923376 835.9922)
(0.00021033315 -0.0007943191 835.99233)
(-2.6553775e-05 -0.00080984053 835.99235)
(-0.00025555935 -0.00082140656 835.99228)
(-0.00047576615 -0.00083208852 835.9921)
(-0.00068221871 -0.00084463275 835.99183)
(-0.00086351457 -0.00086351456 835.99145)
(-0.00031530777 -0.00089903908 835.99096)
(0.00033232801 -0.00020536059 835.99123)
(0.00076917597 -0.00027044578 835.99155)
(0.00042464913 -0.00028745458 835.99175)
(0.00019257269 -0.00029509642 835.99186)
(-3.725758e-05 -0.00029929489 835.99188)
(-0.00026407998 -0.00030223229 835.99181)
(-0.00048528312 -0.00030497531 835.99163)
(-0.00069771739 -0.00030857693 835.99135)
(-0.00089903908 -0.00031530777 835.99096)
(-0.00033225994 -0.00033225994 835.99042)
(0.00070809666 0.00070809667 830.61647)
(0.0016146078 0.00061923774 830.61699)
(0.00089157136 0.00059914715 830.61726)
(0.00049223178 0.00059079623 830.61743)
(0.00013514075 0.0005855124 830.6175)
(-0.00019326374 0.00058047549 830.61747)
(-0.0004908372 0.00057345492 830.61734)
(-0.00074404634 0.00056013064 830.61713)
(-0.00091339003 0.0005278701 830.61683)
(-0.0003232664 0.0004332278 830.61648)
(0.00061923773 0.0016146078 830.61699)
(0.0014511835 0.0014511835 830.61744)
(0.0008489091 0.0013999159 830.6177)
(0.00047177966 0.0013726616 830.61786)
(0.00011965964 0.0013529464 830.61793)
(-0.00021134997 0.0013337162 830.61789)
(-0.00052135448 0.0013088454 830.61776)
(-0.00081242358 0.0012682099 830.61754)
(-0.0011037443 0.0011886948 830.61721)
(-0.0004179087 0.0010107306 830.61677)
(0.00059914715 0.00089157137 830.61726)
(0.0013999159 0.00084890911 830.6177)
(0.00081304946 0.00081304946 830.61795)
(0.00044526227 0.00078453683 830.6181)
(9.6195301e-05 0.00075985442 830.61816)
(-0.00023736482 0.00073513023 830.61812)
(-0.00055634342 0.00070626198 830.61798)
(-0.00086419694 0.00066845874 830.61774)
(-0.0011708694 0.00061790839 830.6174)
(-0.0004419092 0.00056569263 830.61694)
(0.00059079623 0.00049223178 830.61743)
(0.0013726616 0.00047177967 830.61786)
(0.00078453681 0.00044526228 830.6181)
(0.00041858462 0.00041858462 830.61825)
(7.0253045e-05 0.00039269314 830.6183)
(-0.0002649424 0.0003665276 830.61825)
(-0.00058802597 0.00033843918 830.6181)
(-0.00090077717 0.00030729835 830.61786)
(-0.0012065104 0.00027469271 830.6175)
(-0.0004527192 0.0002495064 830.61703)
(0.0005855124 0.00013514074 830.6175)
(0.0013529464 0.00011965963 830.61793)
(0.00075985441 9.6195306e-05 830.61816)
(0.00039269313 7.0253055e-05 830.6183)
(4.413828e-05 4.4138288e-05 830.61834)
(-0.00029161878 1.8164393e-05 830.61829)
(-0.00061557267 -7.9857858e-06 830.61813)
(-0.00092794341 -3.3992679e-05 830.61787)
(-0.0012286614 -5.7475133e-05 830.61751)
(-0.00045870007 -7.2796721e-05 830.61703)
(0.00058047549 -0.00019326374 830.61747)
(0.0013337162 -0.00021134999 830.61789)
(0.00073513024 -0.00023736483 830.61812)
(0.0003665276 -0.0002649424 830.61825)
(1.8164383e-05 -0.00029161878 830.61829)
(-0.00031706647 -0.00031706647 830.61822)
(-0.00064018304 -0.00034154175 830.61806)
(-0.00095026652 -0.00036471127 830.6178)
(-0.0012453144 -0.00038461926 830.61743)
(-0.0004629336 -0.00039706107 830.61695)
(0.00057345491 -0.0004908372 830.61734)
(0.0013088453 -0.00052135448 830.61776)
(0.00070626199 -0.00055634342 830.61798)
(0.00033843918 -0.00058802597 830.6181)
(-7.9857858e-06 -0.00061557267 830.61813)
(-0.00034154175 -0.00064018304 830.61806)
(-0.00066321747 -0.00066321747 830.61789)
(-0.00097102092 -0.0006853628 830.61762)
(-0.0012610112 -0.00070573999 830.61724)
(-0.00046699461 -0.0007202537 830.61676)
(0.00056013064 -0.00074404633 830.61713)
(0.0012682099 -0.00081242357 830.61754)
(0.00066845874 -0.00086419693 830.61774)
(0.00030729834 -0.00090077717 830.61786)
(-3.3992685e-05 -0.00092794341 830.61787)
(-0.00036471127 -0.00095026652 830.6178)
(-0.00068536279 -0.00097102092 830.61762)
(-0.00099278903 -0.00099278903 830.61734)
(-0.0012802053 -0.0010174388 830.61696)
(-0.0004726094 -0.0010427056 830.61647)
(0.00052787009 -0.00091339003 830.61683)
(0.0011886947 -0.0011037443 830.61721)
(0.00061790839 -0.0011708694 830.6174)
(0.00027469271 -0.0012065104 830.6175)
(-5.7475137e-05 -0.0012286614 830.61751)
(-0.00038461926 -0.0012453144 830.61743)
(-0.00070573998 -0.0012610112 830.61724)
(-0.0010174388 -0.0012802054 830.61696)
(-0.0013109277 -0.0013109277 830.61657)
(-0.00048383915 -0.0013728614 830.61606)
(0.00043322779 -0.0003232664 830.61648)
(0.0010107306 -0.0004179087 830.61677)
(0.00056569264 -0.0004419092 830.61694)
(0.00024950639 -0.00045271921 830.61703)
(-7.279672e-05 -0.00045870008 830.61703)
(-0.00039706106 -0.00046293359 830.61695)
(-0.0007202537 -0.00046699461 830.61676)
(-0.0010427056 -0.00047260941 830.61647)
(-0.0013728614 -0.00048383914 830.61606)
(-0.00051389854 -0.00051389854 830.61552)
(0.00087519421 0.00087519421 825.33798)
(0.0019954988 0.00076504861 825.33847)
(0.0011004724 0.00074020105 825.33872)
(0.00060077201 0.00072976701 825.33886)
(0.00014714603 0.00072306878 825.33892)
(-0.00027549968 0.00071660819 825.33888)
(-0.00066407099 0.00070754145 825.33874)
(-0.0010023057 0.00069026478 825.33852)
(-0.0012411745 0.00064831064 825.33823)
(-0.00044220076 0.00052493431 825.33787)
(0.00076504861 0.0019954988 825.33847)
(0.0017930091 0.0017930091 825.33889)
(0.00104755 0.0017294221 825.33913)
(0.0005750736 0.00169523 825.33927)
(0.00012740781 0.0016701797 825.33932)
(-0.00029879069 0.0016455095 825.33927)
(-0.00070358612 0.0016134225 825.33913)
(-0.0010911519 0.0015608302 825.3389)
(-0.0014891702 0.0014576975 825.33857)
(-0.0005655771 0.0012264943 825.33814)
(0.00074020105 0.0011004724 825.33872)
(0.0017294221 0.00104755 825.33913)
(0.0010026934 0.0010026934 825.33935)
(0.00054152962 0.00096665809 825.33948)
(9.7425512e-05 0.00093517711 825.33953)
(-0.00033225687 0.00090343333 825.33948)
(-0.00074875034 0.00086622281 825.33933)
(-0.0011580307 0.00081740926 825.33909)
(-0.0015755103 0.00075215886 825.33874)
(-0.00059633621 0.00068521812 825.33828)
(0.00072976701 0.00060077201 825.33886)
(0.00169523 0.0005750736 825.33927)
(0.00096665809 0.00054152962 825.33948)
(0.00050755734 0.00050755735 825.33961)
(6.4183044e-05 0.00047440192 825.33965)
(-0.00036774499 0.00044075478 825.33959)
(-0.00078961018 0.00040453604 825.33943)
(-0.0012052159 0.00036433123 825.33918)
(-0.0016213613 0.00032225705 825.33883)
(-0.00061020425 0.00028989092 825.33836)
(0.00072306878 0.00014714603 825.33892)
(0.0016701797 0.0001274078 825.33932)
(0.00093517711 9.7425512e-05 825.33953)
(0.00047440192 6.4183048e-05 825.33965)
(3.0622944e-05 3.0622945e-05 825.33967)
(-0.00040212275 -2.8485448e-06 825.33961)
(-0.00082517388 -3.6629507e-05 825.33945)
(-0.0012403097 -7.028689e-05 825.33919)
(-0.0016499506 -0.00010070246 825.33882)
(-0.00061791363 -0.0001205289 825.33835)
(0.00071660819 -0.00027549969 825.33888)
(0.0016455095 -0.00029879069 825.33927)
(0.00090343333 -0.00033225687 825.33948)
(0.00044075477 -0.00036774499 825.33959)
(-2.8485488e-06 -0.00040212275 825.33961)
(-0.00043499744 -0.00043499744 825.33954)
(-0.00085704852 -0.00046672254 825.33937)
(-0.0012692888 -0.00049688013 825.3391)
(-0.0016716033 -0.00052291461 825.33873)
(-0.00062342188 -0.00053925806 825.33825)
(0.00070754145 -0.00066407099 825.33874)
(0.0016134225 -0.0007035861 825.33913)
(0.00086622281 -0.00074875034 825.33933)
(0.00040453604 -0.00078961019 825.33943)
(-3.6629507e-05 -0.00082517388 825.33945)
(-0.00046672253 -0.00085704851 825.33937)
(-0.00088705657 -0.00088705657 825.33919)
(-0.0012965018 -0.0009161667 825.33892)
(-0.0016923285 -0.00094328181 825.33854)
(-0.00062880927 -0.00096286966 825.33806)
(0.00069026478 -0.0010023057 825.33852)
(0.0015608302 -0.0010911519 825.3389)
(0.00081740925 -0.0011580307 825.33909)
(0.00036433123 -0.0012052158 825.33918)
(-7.0286873e-05 -0.0012403097 825.33919)
(-0.00049688013 -0.0012692888 825.3391)
(-0.00091616671 -0.0012965018 825.33892)
(-0.001325514 -0.001325514 825.33863)
(-0.0017183063 -0.001359079 825.33825)
(-0.00063648045 -0.0013942423 825.33776)
(0.00064831064 -0.0012411745 825.33823)
(0.0014576975 -0.0014891702 825.33857)
(0.00075215885 -0.0015755103 825.33874)
(0.00032225705 -0.0016213613 825.33883)
(-0.00010070246 -0.0016499506 825.33882)
(-0.0005229146 -0.0016716033 825.33873)
(-0.0009432818 -0.0016923285 825.33854)
(-0.001359079 -0.0017183063 825.33825)
(-0.0017610568 -0.0017610568 825.33786)
(-0.00065225148 -0.0018490194 825.33736)
(0.00052493431 -0.00044220077 825.33787)
(0.0012264943 -0.0005655771 825.33814)
(0.00068521812 -0.00059633621 825.33828)
(0.00028989091 -0.00061020426 825.33836)
(-0.00012052891 -0.00061791363 825.33835)
(-0.00053925806 -0.00062342189 825.33825)
(-0.00096286965 -0.00062880927 825.33806)
(-0.0013942423 -0.00063648045 825.33776)
(-0.0018490194 -0.00065225147 825.33736)
(-0.00069512215 -0.00069512215 825.33682)
(0.0010321698 0.0010321698 820.15275)
(0.0023495368 0.00090168085 820.15321)
(0.0012881481 0.00087234347 820.15344)
(0.00069253925 0.00085995465 820.15357)
(0.00014687114 0.00085192089 820.1536)
(-0.00036601949 0.00084410188 820.15355)
(-0.00084210746 0.00083306935 820.15342)
(-0.0012619109 0.00081198705 820.1532)
(-0.0015659711 0.00076070027 820.1529)
(-0.0005593002 0.00060968155 820.15256)
(0.00090168085 0.0023495368 820.15321)
(0.0021097973 0.0021097973 820.1536)
(0.0012255588 0.0020346187 820.15382)
(0.00066190538 0.0019939162 820.15394)
(0.00012309198 0.0019638239 820.15398)
(-0.00039429679 0.0019339639 820.15392)
(-0.00089027971 0.0018949491 820.15378)
(-0.0013704645 0.0018308503 820.15355)
(-0.0018694293 0.0017049889 820.15323)
(-0.00071031892 0.0014225931 820.1528)
(0.00087234347 0.0012881481 820.15344)
(0.0020346187 0.0012255588 820.15382)
(0.001172267 0.001172267 820.15402)
(0.00062174441 0.0011291564 820.15414)
(8.6918837e-05 0.001091234 820.15417)
(-0.00043489428 0.0010527885 820.15411)
(-0.00094522111 0.0010075719 820.15396)
(-0.0014518711 0.00094816875 820.15372)
(-0.0019742282 0.00086878075 820.15338)
(-0.00074756402 0.00078770776 820.15293)
(0.00085995465 0.00069253926 820.15357)
(0.0019939162 0.00066190539 820.15394)
(0.0011291564 0.00062174441 820.15414)
(0.00058087239 0.0005808724 820.15425)
(4.6724031e-05 0.00054080576 820.15427)
(-0.00047795892 0.0004999997 820.15421)
(-0.00099489942 0.00045596901 820.15405)
(-0.0015092556 0.00040703759 820.1538)
(-0.0020298903 0.00035584726 820.15345)
(-0.00076436758 0.00031658114 820.15299)
(0.00085192088 0.00014687114 820.1536)
(0.0019638239 0.00012309198 820.15398)
(0.001091234 8.6918827e-05 820.15417)
(0.00054080576 4.6724032e-05 820.15427)
(6.0461377e-06 6.0461463e-06 820.15429)
(-0.00051973103 -3.4624006e-05 820.15422)
(-0.0010381832 -7.5759896e-05 820.15405)
(-0.0015519928 -0.00011681059 820.15379)
(-0.0020646847 -0.00015393273 820.15343)
(-0.00077374143 -0.00017811271 820.15297)
(0.00084410188 -0.00036601949 820.15355)
(0.0019339639 -0.0003942968 820.15392)
(0.0010527885 -0.00043489429 820.15411)
(0.0004999997 -0.00047795892 820.15421)
(-3.4624007e-05 -0.00051973104 820.15422)
(-0.00055976496 -0.00055976495 820.15414)
(-0.001077086 -0.00059851168 820.15396)
(-0.0015874285 -0.00063546758 820.1537)
(-0.0020911924 -0.00066748106 820.15333)
(-0.00078048756 -0.00068763568 820.15287)
(0.00083306935 -0.00084210746 820.15342)
(0.0018949491 -0.00089027971 820.15378)
(0.0010075719 -0.00094522111 820.15396)
(0.00045596901 -0.00099489944 820.15405)
(-7.5759901e-05 -0.0010381832 820.15405)
(-0.00059851167 -0.001077086 820.15396)
(-0.0011138858 -0.0011138858 820.15378)
(-0.0016209622 -0.0011498251 820.15351)
(-0.0021168528 -0.001183576 820.15314)
(-0.00078717785 -0.0012081615 820.15267)
(0.00081198705 -0.0012619109 820.1532)
(0.0018308503 -0.0013704645 820.15355)
(0.00094816874 -0.0014518711 820.15372)
(0.00040703758 -0.0015092557 820.1538)
(-0.00011681057 -0.0015519928 820.15379)
(-0.00063546756 -0.0015874285 820.1537)
(-0.0011498251 -0.0016209622 820.15351)
(-0.0016571187 -0.0016571187 820.15323)
(-0.0021495288 -0.0016994892 820.15285)
(-0.00079687786 -0.0017443713 820.15238)
(0.00076070027 -0.0015659711 820.1529)
(0.0017049889 -0.0018694293 820.15323)
(0.00086878074 -0.0019742282 820.15338)
(0.00035584725 -0.0020298903 820.15345)
(-0.00015393272 -0.0020646846 820.15343)
(-0.00066748104 -0.0020911924 820.15333)
(-0.001183576 -0.0021168528 820.15314)
(-0.0016994892 -0.0021495288 820.15285)
(-0.0022041054 -0.0022041054 820.15247)
(-0.00081709926 -0.0023174097 820.15198)
(0.00060968155 -0.0005593002 820.15256)
(0.0014225931 -0.00071031892 820.1528)
(0.00078770775 -0.00074756402 820.15293)
(0.00031658114 -0.00076436758 820.15299)
(-0.00017811269 -0.00077374143 820.15297)
(-0.00068763568 -0.00078048756 820.15287)
(-0.0012081615 -0.00078717785 820.15267)
(-0.0017443713 -0.00079687786 820.15238)
(-0.0023174097 -0.00081709926 820.15198)
(-0.00087241408 -0.00087241408 820.15146)
(0.0011793385 0.0011793385 815.0581)
(0.0026785976 0.0010295127 815.05853)
(0.00145729 0.00099593653 815.05873)
(0.00076997298 0.00098170935 815.05885)
(0.00013670904 0.00097241581 815.05888)
(-0.00046197763 0.00096330766 815.05882)
(-0.0010211773 0.00095040189 815.05868)
(-0.0015180296 0.0009256883 815.05846)
(-0.001882612 0.00086549623 815.05818)
(-0.0006728972 0.00068810501 815.05784)
(0.0010295127 0.0026785976 815.05853)
(0.0024034946 0.0024034946 815.0589)
(0.001385585 0.0023173944 815.05909)
(0.00073469189 0.0022705716 815.0592)
(0.00010910651 0.0022357223 815.05922)
(-0.00049499852 0.0022009384 815.05916)
(-0.0010776063 0.0021553247 815.05902)
(-0.0016453881 0.0020802501 815.05879)
(-0.002238987 0.0019327071 815.05848)
(-0.00085028842 0.0016014924 815.05807)
(0.00099593653 0.00145729 815.05873)
(0.0023173944 0.001385585 815.05909)
(0.001324367 0.001324367 815.05928)
(0.00068830088 0.0012746001 815.05938)
(6.7075929e-05 0.001230593 815.0594)
(-0.00054237517 0.0011857864 815.05933)
(-0.0011418657 0.0011329449 815.05918)
(-0.0017406473 0.0010634422 815.05894)
(-0.0023613696 0.00097057271 815.05861)
(-0.00089370697 0.00087604558 815.05818)
(0.00098170934 0.00076997299 815.05885)
(0.0022705716 0.00073469189 815.0592)
(0.0012746001 0.00068830087 815.05938)
(0.00064091792 0.00064091791 815.05948)
(2.0292854e-05 0.00059430606 815.05949)
(-0.00059264657 0.00054669443 815.05942)
(-0.0011999506 0.00049521597 815.05926)
(-0.0018077603 0.00043795345 815.05901)
(-0.0024263836 0.00037806076 815.05867)
(-0.0009133065 0.00033221694 815.05823)
(0.0009724158 0.00013670905 815.05888)
(0.0022357223 0.00010910652 815.05922)
(0.001230593 6.7075931e-05 815.0594)
(0.00059430607 2.0292857e-05 815.05949)
(-2.7147549e-05 -2.7147544e-05 815.05949)
(-0.00064146526 -7.4678056e-05 815.05942)
(-0.0012506067 -0.00012284257 815.05925)
(-0.0018578025 -0.00017097113 815.05899)
(-0.0024671062 -0.00021451706 815.05865)
(-0.00092426952 -0.00024286333 815.05821)
(0.00096330766 -0.00046197764 815.05882)
(0.0022009384 -0.00049499851 815.05916)
(0.0011857864 -0.00054237516 815.05933)
(0.00054669444 -0.00059264657 815.05942)
(-7.4678059e-05 -0.00064146527 815.05942)
(-0.0006883416 -0.00068834159 815.05933)
(-0.0012962437 -0.00073382136 815.05916)
(-0.0018994348 -0.00077731458 815.0589)
(-0.0024982758 -0.00081508739 815.05854)
(-0.00093220402 -0.00083891355 815.0581)
(0.00095040188 -0.0010211773 815.05868)
(0.0021553247 -0.0010776063 815.05902)
(0.0011329449 -0.0011418657 815.05918)
(0.00049521596 -0.0011999506 815.05926)
(-0.00012284257 -0.0012506067 815.05925)
(-0.00073382135 -0.0012962437 815.05916)
(-0.0013395796 -0.0013395796 815.05898)
(-0.0019390685 -0.0013821169 815.05871)
(-0.0025287051 -0.0014222934 815.05835)
(-0.00094015363 -0.0014517174 815.0579)
(0.0009256883 -0.0015180296 815.05846)
(0.0020802501 -0.0016453881 815.05879)
(0.0010634422 -0.0017406473 815.05894)
(0.00043795345 -0.0018077603 815.05901)
(-0.00017097112 -0.0018578025 815.05899)
(-0.00077731457 -0.0018994348 815.0589)
(-0.0013821169 -0.0019390685 815.05871)
(-0.0019821486 -0.0019821486 815.05844)
(-0.0025678762 -0.0020330596 815.05807)
(-0.00095181996 -0.0020873475 815.05762)
(0.00086549622 -0.001882612 815.05818)
(0.0019327071 -0.002238987 815.05848)
(0.00097057271 -0.0023613697 815.05861)
(0.00037806077 -0.0024263836 815.05867)
(-0.00021451706 -0.0024671062 815.05865)
(-0.00081508738 -0.0024982758 815.05854)
(-0.0014222934 -0.0025287051 815.05835)
(-0.0020330596 -0.0025678762 815.05807)
(-0.002633904 -0.002633904 815.0577)
(-0.00097634562 -0.0027716761 815.05723)
(0.000688105 -0.0006728972 815.05784)
(0.0016014924 -0.00085028842 815.05807)
(0.00087604557 -0.00089370697 815.05818)
(0.00033221694 -0.00091330651 815.05823)
(-0.00024286332 -0.00092426953 815.05821)
(-0.00083891353 -0.00093220402 815.0581)
(-0.0014517174 -0.00094015363 815.0579)
(-0.0020873475 -0.00095181996 815.05762)
(-0.0027716761 -0.00097634562 815.05723)
(-0.001043668 -0.001043668 815.05673)
(0.0013164501 0.0013164501 810.05149)
(0.0029829389 0.0011483946 810.05188)
(0.0016094169 0.0011108406 810.05207)
(0.00083497315 0.0010948919 810.05217)
(0.00011886371 0.0010844159 810.05219)
(-0.00056072967 0.0010740929 810.05213)
(-0.0011980668 0.0010594171 810.05199)
(-0.0017669615 0.0010312693 810.05178)
(-0.0021874133 0.00096265378 810.05151)
(-0.00078183016 0.00076031476 810.05119)
(0.0011483946 0.0029829389 810.05188)
(0.0026745247 0.0026745247 810.05223)
(0.0015291627 0.0025781875 810.0524)
(0.00079533605 0.0025256344 810.0525)
(8.7665276e-05 0.00248632 810.05251)
(-0.00059822783 0.0024468973 810.05245)
(-0.0012623022 0.0023950504 810.05231)
(-0.0019121066 0.0023095982 810.05209)
(-0.0025938451 0.0021415537 810.05179)
(-0.00098416918 0.0017641804 810.05139)
(0.0011108406 0.0016094169 810.05207)
(0.0025781875 0.0015291628 810.0524)