/*--------------------------------*- C++ -*----------------------------------*\
| =========                 |                                                 |
| \\      /  F ield         | OpenFOAM: The Open Source CFD Toolbox           |
|  \\    /   O peration     | Version:  v2106                                 |
|   \\  /    A nd           | Website:  www.openfoam.com                      |
|    \\/     M anipulation  |                                                 |
\*---------------------------------------------------------------------------*/
FoamFile
{
    version     2.0;
    format      ascii;
    arch        "LSB;label=32;scalar=64";
    class       volScalarField;
    location    "82.5";
    object      gradTx;
}
// * * * * * * * * * * * * * * * * * * * * * * * * * * * * * * * * * * * * * //

dimensions      [0 -1 0 1 0 0 0];

internalField   nonuniform List<scalar> 
4000
(
7.5100078e-05
0.00016501046
8.3093655e-05
4.5023761e-05
1.4392066e-05
-1.2253474e-05
-3.4990622e-05
-5.1593934e-05
-5.5109523e-05
-1.7434079e-05
6.6584875e-05
0.00014927658
7.8982611e-05
4.3199228e-05
1.3100094e-05
-1.3711622e-05
-3.7376908e-05
-5.6620221e-05
-6.7057582e-05
-2.3078959e-05
6.4610827e-05
0.00014433563
7.5714014e-05
4.0923685e-05
1.1160144e-05
-1.581977e-05
-4.0180272e-05
-6.0743224e-05
-7.2605902e-05
-2.5128066e-05
6.3844187e-05
0.00014189694
7.3261895e-05
3.8696831e-05
9.0350056e-06
-1.8054484e-05
-4.2733978e-05
-6.3692222e-05
-7.552028e-05
-2.6025428e-05
6.3394478e-05
0.00014023557
7.1211617e-05
3.6572435e-05
6.9116019e-06
-2.0209788e-05
-4.4950939e-05
-6.5876582e-05
-7.7308093e-05
-2.6510489e-05
6.2982874e-05
0.00013866502
6.9196807e-05
3.4448281e-05
4.8128434e-06
-2.2254974e-05
-4.6917103e-05
-6.7649223e-05
-7.8623898e-05
-2.6844099e-05
6.2422377e-05
0.00013666926
6.6868753e-05
3.2182434e-05
2.7111127e-06
-2.4206508e-05
-4.8729046e-05
-6.9248006e-05
-7.9799782e-05
-2.7141719e-05
6.1392015e-05
0.00013347537
6.3839747e-05
2.9677623e-05
6.2971266e-07
-2.6033077e-05
-5.0420662e-05
-7.0817339e-05
-8.1063335e-05
-2.7486063e-05
5.9071517e-05
0.00012751998
5.9796753e-05
2.7049067e-05
-1.2458892e-06
-2.7577933e-05
-5.189716e-05
-7.2372947e-05
-8.2593661e-05
-2.7967232e-05
5.3426641e-05
0.00011597899
5.5377046e-05
2.4975432e-05
-2.4739023e-06
-2.8524769e-05
-5.2860099e-05
-7.3611219e-05
-8.4269156e-05
-2.8603057e-05
0.00032772636
0.00073455482
0.00038923453
0.00021444594
6.7540669e-05
-6.2306634e-05
-0.00017459922
-0.00025993611
-0.00028945713
-9.4966426e-05
0.00028650291
0.00065901249
0.00037012482
0.00020578881
6.1276754e-05
-6.9440061e-05
-0.00018643998
-0.00028602729
-0.00036075195
-0.00013024663
0.0002773648
0.00063608616
0.00035474178
0.00019484261
5.1849827e-05
-7.9729853e-05
-0.00020017199
-0.00030632189
-0.00038763407
-0.00014002952
0.00027376311
0.00062451974
0.00034295029
0.00018404308
4.1501333e-05
-9.0633881e-05
-0.00021264674
-0.00032073451
-0.00040183098
-0.00014438391
0.00027159338
0.00061648283
0.00033299604
0.0001737012
3.1147241e-05
-0.00010115449
-0.00022347517
-0.00033140581
-0.00041056061
-0.00014675077
0.00026958716
0.0006088289
0.00032317487
0.00016334049
2.0902979e-05
-0.00011114543
-0.00023308906
-0.00034008229
-0.00041700719
-0.00014838622
0.00026683776
0.00059905961
0.00031180222
0.00015227657
1.0635705e-05
-0.00012069074
-0.00024197188
-0.00034795014
-0.0004228253
-0.00014986527
0.00026169332
0.00058325612
0.00029696811
0.00014003732
4.6066643e-07
-0.00012964214
-0.0002503098
-0.00035577642
-0.00042925529
-0.00015164748
0.00024944363
0.00055267382
0.000277095
0.00012719265
-8.7120742e-06
-0.00013723508
-0.00025766601
-0.00036377471
-0.00043762821
-0.00015440169
0.00021416344
0.00048507918
0.00025588908
0.00011711078
-1.4715549e-05
-0.00014190683
-0.00026255789
-0.00037057934
-0.00044878156
-0.00015908304
0.00052873035
0.001200755
0.00065683688
0.00036414178
0.00010878893
-0.00012184545
-0.00032651575
-0.00049367274
-0.00059086789
-0.00020536059
0.00046228792
0.0010786394
0.00062523373
0.00034932063
9.7792553e-05
-0.00013453507
-0.00034777277
-0.00054102214
-0.00072195119
-0.00027044577
0.00044731998
0.0010406758
0.00059909248
0.00033030332
8.1178341e-05
-0.00015281157
-0.00037225835
-0.00057722699
-0.00076923377
-0.00028745458
0.00044121916
0.001020895
0.00057862426
0.00031134078
6.2873175e-05
-0.00017218092
-0.00039446063
-0.00060286384
-0.0007943191
-0.00029509641
0.00043743922
0.0010068373
0.00056111262
0.00029305861
4.4504566e-05
-0.00019089062
-0.0004137459
-0.0006218734
-0.00080984054
-0.00029929489
0.00043388824
0.00099328445
0.00054370489
0.000274667
2.6286925e-05
-0.00020869457
-0.00043091767
-0.00063740853
-0.00082140657
-0.00030223229
0.00042897947
0.0009758712
0.00052346677
0.00025497956
7.9909256e-06
-0.00022575718
-0.00044688332
-0.00065167557
-0.00083208854
-0.00030497531
0.00041971689
0.00094754184
0.00049701702
0.00023317946
-1.0170112e-05
-0.00024183199
-0.00046205693
-0.00066629136
-0.00084463275
-0.00030857693
0.0003974132
0.00089231696
0.00046162508
0.00021033315
-2.6553775e-05
-0.00025555935
-0.00047576615
-0.00068221871
-0.00086351457
-0.00031530777
0.00033232801
0.00076917597
0.00042464913
0.00019257269
-3.725758e-05
-0.00026407998
-0.00048528312
-0.00069771739
-0.00089903908
-0.00033225994
0.00070809666
0.0016146078
0.00089157136
0.00049223178
0.00013514075
-0.00019326374
-0.0004908372
-0.00074404634
-0.00091339003
-0.0003232664
0.00061923773
0.0014511835
0.0008489091
0.00047177966
0.00011965964
-0.00021134997
-0.00052135448
-0.00081242358
-0.0011037443
-0.0004179087
0.00059914715
0.0013999159
0.00081304946
0.00044526227
9.6195301e-05
-0.00023736482
-0.00055634342
-0.00086419694
-0.0011708694
-0.0004419092
0.00059079623
0.0013726616
0.00078453681
0.00041858462
7.0253045e-05
-0.0002649424
-0.00058802597
-0.00090077717
-0.0012065104
-0.0004527192
0.0005855124
0.0013529464
0.00075985441
0.00039269313
4.413828e-05
-0.00029161878
-0.00061557267
-0.00092794341
-0.0012286614
-0.00045870007
0.00058047549
0.0013337162
0.00073513024
0.0003665276
1.8164383e-05
-0.00031706647
-0.00064018304
-0.00095026652
-0.0012453144
-0.0004629336
0.00057345491
0.0013088453
0.00070626199
0.00033843918
-7.9857858e-06
-0.00034154175
-0.00066321747
-0.00097102092
-0.0012610112
-0.00046699461
0.00056013064
0.0012682099
0.00066845874
0.00030729834
-3.3992685e-05
-0.00036471127
-0.00068536279
-0.00099278903
-0.0012802053
-0.0004726094
0.00052787009
0.0011886947
0.00061790839
0.00027469271
-5.7475137e-05
-0.00038461926
-0.00070573998
-0.0010174388
-0.0013109277
-0.00048383915
0.00043322779
0.0010107306
0.00056569264
0.00024950639
-7.279672e-05
-0.00039706106
-0.0007202537
-0.0010427056
-0.0013728614
-0.00051389854
0.00087519421
0.0019954988
0.0011004724
0.00060077201
0.00014714603
-0.00027549968
-0.00066407099
-0.0010023057
-0.0012411745
-0.00044220076
0.00076504861
0.0017930091
0.00104755
0.0005750736
0.00012740781
-0.00029879069
-0.00070358612
-0.0010911519
-0.0014891702
-0.0005655771
0.00074020105
0.0017294221
0.0010026934
0.00054152962
9.7425512e-05
-0.00033225687
-0.00074875034
-0.0011580307
-0.0015755103
-0.00059633621
0.00072976701
0.00169523
0.00096665809
0.00050755734
6.4183044e-05
-0.00036774499
-0.00078961018
-0.0012052159
-0.0016213613
-0.00061020425
0.00072306878
0.0016701797
0.00093517711
0.00047440192
3.0622944e-05
-0.00040212275
-0.00082517388
-0.0012403097
-0.0016499506
-0.00061791363
0.00071660819
0.0016455095
0.00090343333
0.00044075477
-2.8485488e-06
-0.00043499744
-0.00085704852
-0.0012692888
-0.0016716033
-0.00062342188
0.00070754145
0.0016134225
0.00086622281
0.00040453604
-3.6629507e-05
-0.00046672253
-0.00088705657
-0.0012965018
-0.0016923285
-0.00062880927
0.00069026478
0.0015608302
0.00081740925
0.00036433123
-7.0286873e-05
-0.00049688013
-0.00091616671
-0.001325514
-0.0017183063
-0.00063648045
0.00064831064
0.0014576975
0.00075215885
0.00032225705
-0.00010070246
-0.0005229146
-0.0009432818
-0.001359079
-0.0017610568
-0.00065225148
0.00052493431
0.0012264943
0.00068521812
0.00028989091
-0.00012052891
-0.00053925806
-0.00096286965
-0.0013942423
-0.0018490194
-0.00069512215
0.0010321698
0.0023495368
0.0012881481
0.00069253925
0.00014687114
-0.00036601949
-0.00084210746
-0.0012619109
-0.0015659711
-0.0005593002
0.00090168085
0.0021097973
0.0012255588
0.00066190538
0.00012309198
-0.00039429679
-0.00089027971
-0.0013704645
-0.0018694293
-0.00071031892
0.00087234347
0.0020346187
0.001172267
0.00062174441
8.6918837e-05
-0.00043489428
-0.00094522111
-0.0014518711
-0.0019742282
-0.00074756402
0.00085995465
0.0019939162
0.0011291564
0.00058087239
4.6724031e-05
-0.00047795892
-0.00099489942
-0.0015092556
-0.0020298903
-0.00076436758
0.00085192088
0.0019638239
0.001091234
0.00054080576
6.0461377e-06
-0.00051973103
-0.0010381832
-0.0015519928
-0.0020646847
-0.00077374143
0.00084410188
0.0019339639
0.0010527885
0.0004999997
-3.4624007e-05
-0.00055976496
-0.001077086
-0.0015874285
-0.0020911924
-0.00078048756
0.00083306935
0.0018949491
0.0010075719
0.00045596901
-7.5759901e-05
-0.00059851167
-0.0011138858
-0.0016209622
-0.0021168528
-0.00078717785
0.00081198705
0.0018308503
0.00094816874
0.00040703758
-0.00011681057
-0.00063546756
-0.0011498251
-0.0016571187
-0.0021495288
-0.00079687786
0.00076070027
0.0017049889
0.00086878074
0.00035584725
-0.00015393272
-0.00066748104
-0.001183576
-0.0016994892
-0.0022041054
-0.00081709926
0.00060968155
0.0014225931
0.00078770775
0.00031658114
-0.00017811269
-0.00068763568
-0.0012081615
-0.0017443713
-0.0023174097
-0.00087241408
0.0011793385
0.0026785976
0.00145729
0.00076997298
0.00013670904
-0.00046197763
-0.0010211773
-0.0015180296
-0.001882612
-0.0006728972
0.0010295127
0.0024034946
0.001385585
0.00073469189
0.00010910651
-0.00049499852
-0.0010776063
-0.0016453881
-0.002238987
-0.00085028842
0.00099593653
0.0023173944
0.001324367
0.00068830088
6.7075929e-05
-0.00054237517
-0.0011418657
-0.0017406473
-0.0023613696
-0.00089370697
0.00098170934
0.0022705716
0.0012746001
0.00064091792
2.0292854e-05
-0.00059264657
-0.0011999506
-0.0018077603
-0.0024263836
-0.0009133065
0.0009724158
0.0022357223
0.001230593
0.00059430607
-2.7147549e-05
-0.00064146526
-0.0012506067
-0.0018578025
-0.0024671062
-0.00092426952
0.00096330766
0.0022009384
0.0011857864
0.00054669444
-7.4678059e-05
-0.0006883416
-0.0012962437
-0.0018994348
-0.0024982758
-0.00093220402
0.00095040188
0.0021553247
0.0011329449
0.00049521596
-0.00012284257
-0.00073382135
-0.0013395796
-0.0019390685
-0.0025287051
-0.00094015363
0.0009256883
0.0020802501
0.0010634422
0.00043795345
-0.00017097112
-0.00077731457
-0.0013821169
-0.0019821486
-0.0025678762
-0.00095181996
0.00086549622
0.0019327071
0.00097057271
0.00037806077
-0.00021451706
-0.00081508738
-0.0014222934
-0.0020330596
-0.002633904
-0.00097634562
0.000688105
0.0016014924
0.00087604557
0.00033221694
-0.00024286332
-0.00083891353
-0.0014517174
-0.0020873475
-0.0027716761
-0.001043668
0.0013164501
0.0029829389
0.0016094169
0.00083497315
0.00011886371
-0.00056072967
-0.0011980668
-0.0017669615
-0.0021874133
-0.00078183016
0.0011483946
0.0026745247
0.0015291627
0.00079533605
8.7665276e-05
-0.00059822783
-0.0012623022
-0.0019121066
-0.0025938451
-0.00098416918
0.0011108406
0.0025781875
0.0014605265
0.00074310566
4.0126609e-05
-0.00065199928
-0.0013353658
-0.0020204582
-0.0027328311
-0.0010334123
0.0010948919
0.0025256344
0.001404524
0.0006896109
-1.285837e-05
-0.00070907215
-0.0014013962
-0.0020967689
-0.0028066806
-0.0010556517
0.0010844159
0.00248632
0.0013548013
0.00063684026
-6.6676285e-05
-0.00076455048
-0.0014590298
-0.0021537283
-0.0028530147
-0.0010681181
0.0010740929
0.0024468973
0.0013040004
0.000582808
-0.00012069087
-0.00081790748
-0.0015110565
-0.002201247
-0.0028886135
-0.0010771813
0.0010594171
0.0023950504
0.001243957
0.00052428905
-0.00017551162
-0.00086977951
-0.0015606138
-0.002246698
-0.0029235953
-0.0010863333
0.0010312693
0.0023095982
0.0011649064
0.00045914403
-0.00023035122
-0.00091949142
-0.0016094487
-0.002296402
-0.0029689854
-0.0010998825
0.00096265377
0.0021415537
0.0010592947
0.00039101898
-0.00027998966
-0.00096274919
-0.0016557688
-0.0023554941
-0.0030459835
-0.0011285307
0.00076031476
0.0017641804
0.00095207088
0.00033896034
-0.00031228412
-0.00099007196
-0.0016898206
-0.0024187902
-0.0032071834
-0.0012073491
0.0014430682
0.0032621536
0.0017453693
0.00088895832
9.5193566e-05
-0.0006599965
-0.0013700969
-0.0020057602
-0.0024774943
-0.00088518754
0.0012579934
0.0029226609
0.0016571664
0.00084527017
6.0640827e-05
-0.00070168269
-0.001441644
-0.0021675711
-0.0029308391
-0.0011109086
0.0012167398
0.0028168101
0.0015816411
0.00078760799
7.9647521e-06
-0.00076143279
-0.0015229488
-0.0022881798
-0.0030853533
-0.0011655947
0.0011991915
0.0027589327
0.0015198407
0.00072842037
-5.0809762e-05
-0.00082486701
-0.0015964183
-0.0023731031
-0.0031674709
-0.0011903026
0.0011876143
0.0027154598
0.0014647913
0.0006699021
-0.00011058968
-0.00088658115
-0.0016605924
-0.0024365485
-0.0032190644
-0.0012041773
0.0011761563
0.0026717039
0.0014083901
0.00060986594
-0.00017067619
-0.00094601683
-0.0017186209
-0.0024896008
-0.0032588277
-0.0012143016
0.0011598235
0.0026140235
0.001341607
0.00054475374
-0.00023173948
-0.0010038959
-0.0017740366
-0.0025405391
-0.0032981074
-0.001224589
0.0011284583
0.002518852
0.0012536158
0.00047222241
-0.00029287876
-0.001059461
-0.0018288162
-0.0025965099
-0.0033493888
-0.0012399226
0.0010519496
0.0023316039
0.001136075
0.00039638509
-0.00034823719
-0.0011078865
-0.0018809458
-0.0026633566
-0.0034367954
-0.0012724832
0.00082622847
0.0019109931
0.001016984
0.00033851128
-0.00038423557
-0.001138504
-0.0019193774
-0.002735198
-0.0036202339
-0.001362215
0.0015587102
0.0035155724
0.0018655992
0.0009329759
6.7209693e-05
-0.00075787493
-0.0015350449
-0.0022320107
-0.0027504789
-0.00098220808
0.0013579229
0.0031474066
0.0017700863
0.00088555917
2.9559675e-05
-0.00080343824
-0.0016133685
-0.0024092748
-0.003247335
-0.0012296173
0.0013132664
0.0030328107
0.0016882296
0.00082289484
-2.7859991e-05
-0.00086872036
-0.0017023068
-0.0025412374
-0.0034162173
-0.0012893351
0.0012942476
0.002970037
0.0016210918
0.00075845705
-9.198469e-05
-0.00093804286
-0.001782668
-0.0026341398
-0.003505989
-0.0013163266
0.0012816552
0.0029227296
0.0015611274
0.0006946286
-0.00015728118
-0.0010055348
-0.0018529075
-0.0027036015
-0.003562459
-0.0013315062
0.0012691476
0.0028749673
0.0014995475
0.00062903585
-0.00022299429
-0.0010706114
-0.0019165124
-0.0027617992
-0.0036060951
-0.001342617
0.0012512797
0.0028118842
0.0014265228
0.0005578141
-0.00028984973
-0.0011340743
-0.0019773842
-0.0028178563
-0.0036493885
-0.0013539652
0.0012169319
0.0027077054
0.001330248
0.0004784351
-0.00035683869
-0.0011950881
-0.0020377135
-0.0028796919
-0.0037061923
-0.0013709728
0.0011331036
0.0025026576
0.0012016579
0.00039544999
-0.00041750914
-0.0012483291
-0.002095277
-0.0029538129
-0.0038033779
-0.0014072108
0.00088569447
0.002041967
0.0010715939
0.00033219338
-0.00045694475
-0.0012820176
-0.0021378107
-0.0030336813
-0.0040077298
-0.0015072073
0.0016629057
0.0037424523
0.0019703387
0.00096780416
3.612657e-05
-0.00085279359
-0.001691063
-0.0024436988
-0.0030043548
-0.0010722387
0.0014478007
0.0033481777
0.0018681917
0.00091699906
-4.3485249e-06
-0.000901903
-0.0017755923
-0.0026351209
-0.0035410888
-0.0013395265
0.0014000559
0.0032256489
0.0017805907
0.00084978518
-6.60952e-05
-0.00097224232
-0.0018715158
-0.0027774735
-0.0037231034
-0.0014038387
0.0013797027
0.0031584296
0.0017086004
0.00078056417
-0.00013510464
-0.0010469496
-0.0019581845
-0.0028776785
-0.0038198744
-0.0014329166
0.0013661859
0.0031076299
0.0016441558
0.00071188866
-0.00020544429
-0.0011197307
-0.002033981
-0.0029526533
-0.0038808108
-0.0014492907
0.0013527193
0.0030562079
0.0015778443
0.0006412151
-0.00027630853
-0.0011899786
-0.0021027043
-0.0030155775
-0.0039280051
-0.0014613078
0.0013334463
0.0029881812
0.0014991092
0.00056440029
-0.00034847329
-0.0012585691
-0.0021685965
-0.0030763531
-0.0039750028
-0.0014736355
0.0012963664
0.0028757552
0.0013952521
0.00047874985
-0.00042082835
-0.0013245941
-0.0022340452
-0.003143614
-0.0040369254
-0.0014921961
0.0012058315
0.0026544064
0.0012565515
0.00038922058
-0.00048637226
-0.0013822689
-0.002296633
-0.0032244835
-0.0041432008
-0.0015318545
0.00093854377
0.0021570065
0.0011164664
0.0003210425
-0.00052895901
-0.0014187861
-0.0023429655
-0.003311812
-0.0043670168
-0.0016414068
0.001755225
0.0039420746
0.0020597021
0.00099403307
2.9222633e-06
-0.00094345742
-0.0018366122
-0.0026391299
-0.0032374024
-0.0011547154
0.0015272757
0.0035243967
0.0019516304
0.00094019637
-4.0091775e-05
-0.00099576387
-0.0019267441
-0.0028433419
-0.0038101757
-0.0014399699
0.0014767731
0.0033947873
0.0018589001
0.00086890721
-0.00010572781
-0.0010706601
-0.0020289688
-0.0029950678
-0.0040040202
-0.0015084158
0.0014552279
0.0033235946
0.001782565
0.0007953928
-0.00017913252
-0.0011502214
-0.0021213284
-0.0031018611
-0.0041070997
-0.0015393724
0.0014408819
0.0032696614
0.0017140965
0.000722357
-0.00025401654
-0.0012277754
-0.0022021439
-0.0031818161
-0.0041720688
-0.0015568244
0.0014265519
0.0032149446
0.0016435243
0.00064710407
-0.00032952973
-0.0013026974
-0.0022754996
-0.003249022
-0.0042224871
-0.0015696625
0.001406011
0.0031424587
0.001559639
0.00056524178
-0.00040649258
-0.001375931
-0.0023459478
-0.0033140883
-0.0042728585
-0.001582883
0.0013664639
0.003022588
0.0014489401
0.00047392904
-0.00048370102
-0.0014465014
-0.0024160559
-0.003386303
-0.0043394664
-0.0016028667
0.0012698696
0.0027865207
0.0013011198
0.00037849347
-0.00055365341
-0.0015082032
-0.0024832289
-0.0034733556
-0.0044540893
-0.0016456686
0.00098461504
0.0022559701
0.001152016
0.00030588052
-0.00059908843
-0.0015472911
-0.0025330352
-0.0035675339
-0.0046958078
-0.0017640123
0.001835295
0.0041137998
0.0021337505
0.0010121251
-3.1607999e-05
-0.0010287968
-0.001970409
-0.0028168779
-0.0034481549
-0.0012291527
0.0015960426
0.003675547
0.0020204932
0.00095562823
-7.6862491e-05
-0.0010839356
-0.0020655129
-0.0030324487
-0.004052951
-0.0015303736
0.0015431265
0.0035397441
0.0019232728
0.00088075737
-0.00014593156
-0.0011628663
-0.002173324
-0.0031924849
-0.0042572657
-0.0016024727
0.0015205377
0.0034650692
0.0018431212
0.00080345969
-0.00022322094
-0.001246727
-0.0022707293
-0.0033051196
-0.0043659319
-0.0016350912
0.0015054619
0.0034083763
0.0017711042
0.00072657136
-0.00030212827
-0.0013285138
-0.0023560006
-0.003389497
-0.0044344798
-0.001653499
0.001490368
0.0033507456
0.0016967627
0.00064726299
-0.00038176493
-0.0014075889
-0.0024334787
-0.003460517
-0.0044877712
-0.0016670686
0.0014687027
0.0032743068
0.0016083128
0.00056092391
-0.0004629902
-0.0014849568
-0.0025079941
-0.0035294231
-0.0045411671
-0.0016810903
0.0014269654
0.0031478307
0.0014915464
0.0004645864
-0.00054451434
-0.0015595824
-0.0025822763
-0.0036060928
-0.0046120007
-0.0017023591
0.0013249888
0.0028986998
0.0013356419
0.00036391178
-0.00061838763
-0.0016248829
-0.0026535699
-0.0036987282
-0.0047341821
-0.00174801
0.0010237679
0.0023387198
0.0011785655
0.00028737231
-0.00066635366
-0.0016662698
-0.0027065057
-0.0037991078
-0.0049921406
-0.0018743314
0.0019028075
0.0042571013
0.0021925347
0.0010224602
-6.680851e-05
-0.0011079264
-0.0020913863
-0.0029757499
-0.0036353745
-0.0012951389
0.0016538508
0.0038012059
0.0020748553
0.00096368677
-0.00011399454
-0.0011655194
-0.0021908083
-0.0032011951
-0.0042680268
-0.0016102508
0.0015988773
0.0036601259
0.0019738046
0.0008857441
-0.00018602457
-0.0012479434
-0.0023034647
-0.00336844
-0.0044814038
-0.0016855061
0.0015753979
0.0035824758
0.0018903822
0.00080519061
-0.00026666999
-0.0013355287
-0.0024052471
-0.0034861418
-0.0045949092
-0.0017195621
0.001559695
0.0035234098
0.0018153084
0.00072497534
-0.00034906069
-0.0014209882
-0.0024943896
-0.0035743627
-0.004666565
-0.0017387991
0.0015439406
0.0034632597
0.0017377067
0.00064215448
-0.00043227569
-0.0015036751
-0.0025754597
-0.0036487106
-0.0047223644
-0.0017530072
0.0015212996
0.0033833928
0.0016452992
0.00055193055
-0.00051720713
-0.001584648
-0.0026535331
-0.0037209859
-0.0047784202
-0.0017677342
0.0014776592
0.0032511813
0.0015232679
0.0004512296
-0.00060248834
-0.0016628187
-0.0027314824
-0.0038015881
-0.0048529972
-0.0017901435
0.0013710029
0.0029907027
0.0013603524
0.0003460079
-0.00067977591
-0.0017312713
-0.0028064106
-0.0038991761
-0.0049819069
-0.0018383333
0.001055891
0.002405152
0.0011963855
0.00026606839
-0.00072994359
-0.0017746739
-0.0028621151
-0.0040050747
-0.0052543539
-0.0019717749
0.0019575255
0.0043715871
0.0022361239
0.0010253679
-0.00010213002
-0.0011801128
-0.0021986639
-0.0031147621
-0.0037980365
-0.0013523323
0.0017005102
0.0039010654
0.0021148057
0.00096471146
-0.00015093026
-0.0012397712
-0.002301731
-0.0033485539
-0.0044542562
-0.0016791988
0.0016438443
0.0037556479
0.0020106007
0.00088422002
-0.00022543633
-0.0013251319
-0.0024184707
-0.0035218748
-0.0046752492
-0.0017571001
0.0016196314
0.0036755423
0.001924467
0.00080095219
-0.00030889456
-0.0014158509
-0.0025239423
-0.0036438473
-0.0047928254
-0.0017923629
0.0016034067
0.0036145
0.0018468415
0.00071795003
-0.0003942134
-0.0015044065
-0.0026163541
-0.0037353155
-0.0048671046
-0.001812299
0.001587098
0.003552236
0.0017665027
0.0006321751
-0.00048044565
-0.0015901477
-0.0027004694
-0.0038124897
-0.0049250354
-0.0018270497
0.0015636344
0.0034694808
0.0016707618
0.00053867545
-0.00056851026
-0.0016741797
-0.0027815747
-0.0038876473
-0.0049833735
-0.0018423829
0.0015183865
0.0033324292
0.0015442915
0.00043429173
-0.00065697283
-0.0017553684
-0.0028626662
-0.0039716398
-0.0050611926
-0.001865782
0.0014077733
0.0030623681
0.0013754683
0.00032523479
-0.0007371526
-0.0018265115
-0.0029407249
-0.0040735248
-0.0051959652
-0.0019161873
0.0010809067
0.0024552164
0.0012057223
0.00024243636
-0.0007891828
-0.0018716373
-0.0029988235
-0.0041842315
-0.0054810726
-0.0020558537
0.0019992862
0.0044570138
0.0022646257
0.0010211513
-0.00013710481
-0.0012447503
-0.0022915263
-0.0032331216
-0.0039353186
-0.0014004587
0.0017358939
0.0039749462
0.0021404665
0.00095901264
-0.00018719554
-0.001306077
-0.0023975512
-0.0034736993
-0.0046107233
-0.0017368969
0.0016779078
0.0038261477
0.0020337952
0.00087650521
-0.00026368308
-0.0013938065
-0.0025175959
-0.0036519397
-0.0048378571
-0.0018169239
0.0016531211
0.0037441158
0.0019455202
0.00079107505
-0.00034939983
-0.0014870555
-0.0026260541
-0.0037773697
-0.0049587198
-0.0018531583
0.001636482
0.0036815016
0.0018658576
0.00070583704
-0.00043707985
-0.0015781183
-0.0027211201
-0.0038714759
-0.0050351274
-0.0018736607
0.0016197273
0.0036175375
0.0017833159
0.00061767826
-0.00052575597
-0.0016663435
-0.002807721
-0.0039509628
-0.0050948038
-0.0018888557
0.0015955975
0.0035324454
0.0016848792
0.00052152519
-0.00061636788
-0.0017528757
-0.0028913189
-0.004028503
-0.0051550364
-0.0019046931
0.001549044
0.0033914679
0.001554813
0.00041415412
-0.00070742294
-0.0018365423
-0.0029750135
-0.0041153278
-0.0052355807
-0.0019289267
0.0014352124
0.0031136273
0.0013812087
0.00030198902
-0.0007899609
-0.0019099028
-0.0030556839
-0.0042208332
-0.0053753214
-0.0019812128
0.0010987742
0.0024889294
0.0012068165
0.00021688386
-0.00084350691
-0.0019564513
-0.0031157904
-0.0043356128
-0.0056711967
-0.0021261769
0.0020280032
0.0045132949
0.0022781996
0.0010101036
-0.0001713283
-0.0013013425
-0.0023694062
-0.0033302138
-0.0040465926
-0.0014393099
0.0017599404
0.004022806
0.0021520065
0.00094688824
-0.00022238154
-0.001363935
-0.0024776915
-0.0035759937
-0.0047367346
-0.0017831041
0.0017010106
0.003871594
0.0020435644
0.00086290404
-0.00030034944
-0.0014534572
-0.002600252
-0.0037579808
-0.0049685143
-0.0018647303
0.0016758117
0.0037881708
0.0019537247
0.00077587055
-0.00038776293
-0.0015486242
-0.002710984
-0.0038860435
-0.0050918686
-0.001901698
0.0016588671
0.0037243944
0.0018725467
0.00068895517
-0.0004772291
-0.0016415965
-0.0028080798
-0.0039821692
-0.0051699022
-0.0019226318
0.0016417762
0.0036591496
0.0017883433
0.00059899088
-0.0005677672
-0.0017317265
-0.0028965976
-0.0040634466
-0.0052309321
-0.0019381712
0.0016171388
0.0035722798
0.0016878575
0.00050081585
-0.00066033145
-0.0018201907
-0.002982139
-0.0041428602
-0.0052926634
-0.0019544087
0.001569586
0.0034283039
0.0015550508
0.00039116311
-0.0007533808
-0.0019057858
-0.0030678872
-0.0042319469
-0.0053754038
-0.0019793175
0.0014532855
0.0031445128
0.0013778076
0.00027662744
-0.00083773449
-0.0019808816
-0.0031506394
-0.0043403796
-0.0055191945
-0.002033141
0.0011094914
0.0025063822
0.0011999168
0.00018977521
-0.00089244426
-0.002028547
-0.0032123589
-0.0044584781
-0.0058238937
-0.0021824503
0.0020436675
0.0045405057
0.0022770659
0.00099252032
-0.00020444546
-0.0013494889
-0.0024318719
-0.0034055919
-0.0041314176
-0.0014687421
0.0017726546
0.0040447442
0.0021496503
0.00092863587
-0.00025613104
-0.0014129412
-0.0025417145
-0.0036549771
-0.0048318119
-0.001817658
0.0017131598
0.0038920911
0.0020401361
0.00084371706
-0.00033507488
-0.001503676
-0.0026659955
-0.0038395294
-0.0050667328
-0.0019003535
0.0016877109
0.0038078144
0.0019493115
0.00075564275
-0.00042361928
-0.0016001442
-0.0027782831
-0.0039693937
-0.0051917781
-0.0019378145
0.0016705702
0.0037432878
0.0018671429
0.00066761244
-0.0005142922
-0.0016944234
-0.0028767789
-0.0040669152
-0.0052709313
-0.0019590439
0.0016532538
0.0036771849
0.0017818233
0.00057642543
-0.00060610556
-0.0017858739
-0.0029666394
-0.0041494557
-0.0053329185
-0.0019748268
0.0016282686
0.0035891008
0.00167994
0.00047686502
-0.00070002187
-0.0018756962
-0.0030535693
-0.004230227
-0.0053957476
-0.001991359
0.0015800254
0.0034430614
0.0015452547
0.00036564207
-0.00079446183
-0.0019626643
-0.0031408143
-0.0043209969
-0.0054801462
-0.0020167811
0.0014620118
0.0031551632
0.0013655234
0.00024947922
-0.00088008379
-0.002039008
-0.0032251106
-0.0044316519
-0.0056270516
-0.0020717917
0.0011130959
0.0025077461
0.0011852885
0.00016144357
-0.00093560221
-0.0020874806
-0.003288042
-0.004552301
-0.0059385916
-0.0022244744
0.0020463469
0.0045388858
0.0022615117
0.0009687077
-0.00023614064
-0.0013888736
-0.002478617
-0.0034589681
-0.0041895338
-0.0014886741
0.0017741078
0.0040410047
0.0021336841
0.00090456138
-0.00028812825
-0.0014527795
-0.0025893128
-0.0037103591
-0.0048956867
-0.001840473
0.0017144262
0.0038878815
0.0020237952
0.00081924973
-0.00036754341
-0.0015441458
-0.0027145178
-0.0038962934
-0.0051322432
-0.0019237079
0.0016888894
0.0038032883
0.0019325652
0.00073069711
-0.00045665246
-0.0016412977
-0.0028276416
-0.0040271271
-0.0052581781
-0.0019614224
0.001671662
0.0037384235
0.001849931
0.00064211468
-0.00054795192
-0.00173628
-0.0029269062
-0.0041254193
-0.0053379436
-0.0019828112
0.001654231
0.0036718855
0.001764041
0.0005502886
-0.00064045261
-0.001828465
-0.0030175335
-0.0042086934
-0.0054004904
-0.0019987364
0.0016290581
0.0035831514
0.0016614128
0.00044998053
-0.00073511926
-0.0019190697
-0.0031052941
-0.0042903039
-0.0054640137
-0.0020154569
0.0015804339
0.0034359848
0.0015257122
0.00033790016
-0.00083034443
-0.0020068529
-0.0031934755
-0.0043821734
-0.0055495273
-0.0020412286
0.0014614641
0.003145826
0.0013446448
0.00022085469
-0.00091668562
-0.0020839543
-0.0032787742
-0.0044943384
-0.0056986008
-0.0020970717
0.0011096652
0.0024932753
0.0011632207
0.00013219972
-0.0009726567
-0.0021329229
-0.0033425125
-0.0046167606
-0.0060149727
-0.0022521432
0.002036186
0.0045088386
0.0022318943
0.00093898867
-0.00026612991
-0.0014192573
-0.0025094521
-0.0034902065
-0.0042208573
-0.0014990863
0.0017644369
0.0040119757
0.0021044595
0.00087498481
-0.00031809114
-0.0014832123
-0.0026202999
-0.0037420105
-0.0049282935
-0.0018515384
0.0017049441
0.0038593462
0.0019948881
0.00078981841
-0.00039747586
-0.0015746322
-0.0027456364
-0.0039281495
-0.0051649885
-0.0019347862
0.0016794803
0.0037749695
0.0019038278
0.00070134653
-0.00048658632
-0.001671853
-0.0028588803
-0.0040591242
-0.005291016
-0.0019725154
0.0016622749
0.003710176
0.0018212498
0.00061277183
-0.00057793488
-0.0017669372
-0.0029582852
-0.0041575645
-0.0053708885
-0.0019939283
0.0016448395
0.0036436235
0.0017353327
0.00052088754
-0.00067053745
-0.001859273
-0.0030491047
-0.0042410444
-0.0054335982
-0.0020098948
0.0016196382
0.0035548011
0.0016326091
0.00042046677
-0.00076535488
-0.0019500857
-0.0031371393
-0.0043229756
-0.0054974117
-0.0020266973
0.0015709409
0.0034074392
0.0014967523
0.00030823874
-0.00086076184
-0.0020381271
-0.0032256969
-0.00441536
-0.0055834954
-0.0020526542
0.0014517689
0.003116858
0.0013154954
0.00019105181
-0.00094727507
-0.0021154968
-0.0033114549
-0.0045283197
-0.005733785
-0.0021089731
0.0010993168
0.0024633081
0.0011340299
0.00010233871
-0.0010033441
-0.0021646503
-0.0033755941
-0.0046517333
-0.0060529664
-0.0022654418
0.0020134042
0.0044509294
0.0021886432
0.00090370732
-0.00029415486
-0.0014404697
-0.0025242973
-0.003499316
-0.0042254738
-0.0015000183
0.0017438431
0.0039581881
0.0020623952
0.0008402449
-0.00034576519
-0.0015040738
-0.0026346034
-0.0037499566
-0.0049297634
-0.0018509165
0.00168491
0.0038070032
0.0019538237
0.00075575491
-0.00042462364
-0.0015949757
-0.0027592872
-0.0039351358
-0.0051651172
-0.0019336572
0.0016596778
0.0037233686
0.001863501
0.00066791603
-0.00051317867
-0.0016916575
-0.0028719427
-0.004065432
-0.005290449
-0.0019711652
0.0016426017
0.0036590507
0.0017814948
0.00057990248
-0.00060400509
-0.0017862487
-0.0029708656
-0.0041634041
-0.0053699286
-0.0019924681
0.0016252709
0.0035928998
0.0016960876
0.00048853459
-0.00069613007
-0.0018781569
-0.0030613082
-0.0042465662
-0.0054324079
-0.0020083757
0.001600199
0.0035045447
0.0015939112
0.00038862951
-0.00079050451
-0.0019686083
-0.0031490641
-0.0043283032
-0.0054961101
-0.0020251545
0.0015517335
0.0033579099
0.0014587483
0.00027695621
-0.00088549557
-0.0020563554
-0.0032374409
-0.0044206203
-0.0055822204
-0.0020511325
0.0014331053
0.0030687249
0.0012784358
0.0001603612
-0.00097163873
-0.0021335074
-0.0033231181
-0.0045336609
-0.0057327747
-0.0021075704
0.0010822071
0.0024182666
0.0010980627
7.2144783e-05
-0.0010274544
-0.0021825369
-0.0033872534