/*--------------------------------*- C++ -*----------------------------------*\
| =========                 |                                                 |
| \\      /  F ield         | OpenFOAM: The Open Source CFD Toolbox           |
|  \\    /   O peration     | Version:  v2106                                 |
|   \\  /    A nd           | Website:  www.openfoam.com                      |
|    \\/     M anipulation  |                                                 |
\*---------------------------------------------------------------------------*/
FoamFile
{
    version     2.0;
    format      ascii;
    arch        "LSB;label=32;scalar=64";
    class       volScalarField;
    location    "82.5";
    object      laplacianT;
}
// * * * * * * * * * * * * * * * * * * * * * * * * * * * * * * * * * * * * * //

dimensions      [0 -2 0 1 0 0 0];

internalField   nonuniform List<scalar> 
4000
(
41219.109
41219.103
41219.127
41219.139
41219.144
41219.144
41219.139
41219.131
41219.12
41219.11
41219.103
41219.101
41219.123
41219.134
41219.139
41219.139
41219.134
41219.125
41219.113
41219.103
41219.127
41219.123
41219.145
41219.156
41219.16
41219.16
41219.154
41219.145
41219.132
41219.121
41219.139
41219.134
41219.156
41219.166
41219.17
41219.169
41219.163
41219.153
41219.14
41219.128
41219.144
41219.139
41219.16
41219.17
41219.174
41219.173
41219.167
41219.156
41219.142
41219.13
41219.144
41219.139
41219.16
41219.169
41219.173
41219.171
41219.164
41219.153
41219.139
41219.127
41219.139
41219.134
41219.154
41219.163
41219.167
41219.164
41219.157
41219.146
41219.131
41219.119
41219.131
41219.125
41219.145
41219.153
41219.156
41219.153
41219.146
41219.134
41219.12
41219.107
41219.12
41219.113
41219.132
41219.14
41219.142
41219.139
41219.131
41219.12
41219.104
41219.092
41219.11
41219.103
41219.121
41219.128
41219.13
41219.127
41219.119
41219.107
41219.092
41219.079
-552.18169
-552.35758
-552.33512
-552.33501
-552.33522
-552.33523
-552.33503
-552.33467
-552.33417
-552.32703
-552.35758
-552.48725
-552.46871
-552.4688
-552.46902
-552.469
-552.46878
-552.46835
-552.46776
-552.42495
-552.33512
-552.46871
-552.45056
-552.45064
-552.45084
-552.45081
-552.45057
-552.45012
-552.44949
-552.40912
-552.33501
-552.4688
-552.45064
-552.4507
-552.45088
-552.45084
-552.45058
-552.45011
-552.44945
-552.40898
-552.33522
-552.46902
-552.45084
-552.45088
-552.45105
-552.45099
-552.45071
-552.45022
-552.44954
-552.40905
-552.33523
-552.469
-552.45081
-552.45084
-552.45099
-552.45091
-552.45061
-552.4501
-552.44941
-552.40891
-552.33503
-552.46878
-552.45057
-552.45058
-552.45071
-552.45061
-552.45029
-552.44977
-552.44907
-552.40856
-552.33467
-552.46835
-552.45012
-552.45011
-552.45022
-552.4501
-552.44977
-552.44924
-552.44852
-552.40801
-552.33417
-552.46776
-552.44949
-552.44945
-552.44954
-552.44941
-552.44907
-552.44852
-552.44779
-552.40727
-552.32703
-552.42495
-552.40912
-552.40898
-552.40905
-552.40891
-552.40856
-552.40801
-552.40727
-552.36526
-542.01462
-542.27675
-542.23983
-542.2394
-542.23965
-542.23964
-542.23937
-542.23887
-542.23817
-542.1933
-542.27675
-542.46729
-542.43706
-542.43699
-542.43724
-542.4372
-542.43688
-542.4363
-542.43547
-542.32421
-542.23983
-542.43706
-542.40752
-542.40745
-542.40768
-542.40762
-542.40728
-542.40667
-542.40579
-542.30022
-542.2394
-542.43699
-542.40745
-542.40735
-542.40756
-542.40748
-542.40711
-542.40647
-542.40556
-542.29987
-542.23965
-542.43724
-542.40768
-542.40756
-542.40774
-542.40764
-542.40725
-542.40658
-542.40564
-542.29993
-542.23964
-542.4372
-542.40762
-542.40748
-542.40764
-542.40752
-542.4071
-542.40642
-542.40546
-542.29973
-542.23937
-542.43688
-542.40728
-542.40711
-542.40725
-542.4071
-542.40667
-542.40596
-542.40499
-542.29926
-542.23887
-542.4363
-542.40667
-542.40647
-542.40658
-542.40642
-542.40596
-542.40524
-542.40424
-542.29852
-542.23817
-542.43547
-542.40579
-542.40556
-542.40564
-542.40546
-542.40499
-542.40424
-542.40323
-542.29751
-542.1933
-542.32421
-542.30022
-542.29987
-542.29993
-542.29973
-542.29926
-542.29852
-542.29751
-542.17574
-532.15524
-532.49994
-532.44961
-532.4489
-532.44916
-532.44913
-532.44878
-532.44814
-532.44726
-532.3677
-532.49994
-532.74973
-532.70857
-532.70835
-532.70862
-532.70854
-532.70813
-532.70738
-532.70632
-532.52982
-532.44961
-532.70857
-532.66837
-532.66815
-532.6684
-532.6683
-532.66786
-532.66708
-532.66596
-532.49845
-532.4489
-532.70835
-532.66815
-532.6679
-532.66812
-532.668
-532.66753
-532.66671
-532.66555
-532.49791
-532.44916
-532.70862
-532.6684
-532.66812
-532.66831
-532.66816
-532.66766
-532.66682
-532.66562
-532.49794
-532.44913
-532.70854
-532.6683
-532.668
-532.66816
-532.66799
-532.66746
-532.66659
-532.66537
-532.49768
-532.44878
-532.70813
-532.66786
-532.66753
-532.66766
-532.66746
-532.66691
-532.66601
-532.66477
-532.49708
-532.44814
-532.70738
-532.66708
-532.66671
-532.66682
-532.66659
-532.66601
-532.66509
-532.66383
-532.49616
-532.44726
-532.70632
-532.66596
-532.66555
-532.66562
-532.66537
-532.66477
-532.66383
-532.66254
-532.49488
-532.3677
-532.52982
-532.49845
-532.49791
-532.49794
-532.49768
-532.49708
-532.49616
-532.49488
-532.2978
-522.59174
-523.0164
-522.95316
-522.95216
-522.95244
-522.95237
-522.95194
-522.95117
-522.9501
-522.83682
-523.0164
-523.3235
-523.2718
-523.27142
-523.2717
-523.27159
-523.27107
-523.27017
-523.26889
-523.02904
-522.95316
-523.2718
-523.22131
-523.22094
-523.2212
-523.22106
-523.22051
-523.21957
-523.21821
-522.99059
-522.95216
-523.27142
-523.22094
-523.22054
-523.22076
-523.22059
-523.22001
-523.21902
-523.21762
-522.98987
-522.95244
-523.2717
-523.2212
-523.22076
-523.22096
-523.22075
-523.22014
-523.21911
-523.21768
-522.98987
-522.95237
-523.27159
-523.22106
-523.22059
-523.22075
-523.22052
-523.21987
-523.21882
-523.21736
-522.98953
-522.95194
-523.27107
-523.22051
-523.22001
-523.22014
-523.21987
-523.21919
-523.21811
-523.21663
-522.98881
-522.95117
-523.27017
-523.21957
-523.21902
-523.21911
-523.21882
-523.21811
-523.217
-523.21549
-522.9877
-522.9501
-523.26889
-523.21821
-523.21762
-523.21768
-523.21736
-523.21663
-523.21549
-523.21394
-522.98618
-522.83682
-523.02904
-522.99059
-522.98987
-522.98987
-522.98953
-522.98881
-522.9877
-522.98618
-522.71633
-513.30958
-513.81071
-513.73506
-513.73378
-513.73406
-513.73396
-513.73344
-513.73254
-513.73131
-513.58539
-513.81071
-514.17256
-514.11072
-514.11018
-514.11047
-514.11031
-514.10969
-514.10863
-514.10714
-513.80617
-513.73506
-514.11072
-514.05034
-514.04981
-514.05007
-514.04988
-514.04924
-514.04813
-514.04656
-513.76094
-513.73378
-514.11018
-514.04981
-514.04926
-514.04948
-514.04926
-514.04857
-514.04741
-514.04579
-513.76004
-513.73406
-514.11047
-514.05007
-514.04948
-514.04967
-514.04941
-514.04868
-514.04748
-514.04582
-513.76001
-513.73396
-514.11031
-514.04988
-514.04926
-514.04941
-514.04911
-514.04835
-514.04712
-514.04542
-513.7596
-513.73344
-514.10969
-514.04924
-514.04857
-514.04868
-514.04835
-514.04755
-514.04629
-514.04457
-513.75876
-513.73254
-514.10863
-514.04813
-514.04741
-514.04748
-514.04712
-514.04629
-514.04499
-514.04324
-513.75747
-513.73131
-514.10714
-514.04656
-514.04579
-514.04582
-514.04542
-514.04457
-514.04324
-514.04144
-513.75572
-513.58539
-513.80617
-513.76094
-513.76004
-513.76001
-513.7596
-513.75876
-513.75747
-513.75572
-513.41562
-504.29391
-504.86756
-504.78006
-504.77851
-504.77879
-504.77865
-504.77806
-504.77703
-504.77564
-504.59837
-504.86756
-505.28124
-505.20972
-505.20903
-505.20931
-505.20911
-505.20839
-505.20718
-505.20549
-504.84601
-504.78006
-505.20972
-505.1399
-505.13923
-505.13948
-505.13925
-505.1385
-505.13724
-505.13546
-504.79432
-504.77851
-505.20903
-505.13923
-505.13852
-505.13873
-505.13846
-505.13766
-505.13635
-505.13451
-504.79324
-504.77879
-505.20931
-505.13948
-505.13873
-505.13891
-505.13859
-505.13776
-505.1364
-505.13452
-504.79318
-504.77865
-505.20911
-505.13925
-505.13846
-505.13859
-505.13823
-505.13736
-505.13596
-505.13405
-504.7927
-504.77806
-505.20839
-505.1385
-505.13766
-505.13776
-505.13736
-505.13644
-505.13501
-505.13307
-504.79175
-504.77703
-505.20718
-505.13724
-505.13635
-505.1364
-505.13596
-505.13501
-505.13354
-505.13156
-504.79029
-504.77564
-505.20549
-505.13546
-505.13451
-505.13452
-505.13405
-505.13307
-505.13156
-505.12953
-504.78832
-504.59837
-504.84601
-504.79432
-504.79324
-504.79318
-504.7927
-504.79175
-504.79029
-504.78832
-504.38089
-495.53077
-496.17255
-496.07383
-496.07202
-496.0723
-496.07212
-496.07145
-496.07031
-496.06876
-495.86163
-496.17255
-496.63484
-496.55417
-496.55332
-496.5536
-496.55335
-496.55254
-496.55119
-496.54932
-496.13426
-496.07383
-496.55417
-496.47543
-496.47461
-496.47485
-496.47457
-496.47372
-496.47232
-496.47035
-496.07649
-496.07202
-496.55332
-496.47461
-496.47375
-496.47395
-496.47362
-496.47273
-496.47127
-496.46923
-496.07524
-496.0723
-496.5536
-496.47485
-496.47395
-496.47411
-496.47374
-496.4728
-496.47129
-496.46921
-496.07514
-496.07212
-496.55335
-496.47457
-496.47362
-496.47374
-496.47332
-496.47234
-496.47079
-496.46867
-496.0746
-496.07145
-496.55254
-496.47372
-496.47273
-496.4728
-496.47234
-496.47131
-496.46972
-496.46757
-496.07353
-496.07031
-496.55119
-496.47232
-496.47127
-496.47129
-496.47079
-496.46972
-496.46809
-496.46589
-496.07192
-496.06876
-496.54932
-496.47035
-496.46923
-496.46921
-496.46867
-496.46757
-496.46589
-496.46365
-496.06975
-495.86163
-496.13426
-496.07649
-496.07524
-496.07514
-496.0746
-496.07353
-496.07192
-496.06975
-495.59828
-487.00705
-487.7122
-487.60298
-487.60091
-487.60118
-487.60097
-487.60022
-487.59897
-487.59729
-487.36193
-487.7122
-488.21961
-488.13038
-488.12938
-488.12965
-488.12935
-488.12845
-488.12697
-488.12493
-487.65756
-487.60298
-488.13038
-488.04328
-488.04231
-488.04255
-488.04222
-488.04128
-488.03975
-488.0376
-487.59411
-487.60091
-488.12938
-488.04231
-488.0413
-488.0415
-488.04112
-488.04013
-488.03853
-488.03631
-487.59269
-487.60118
-488.12965
-488.04255
-488.0415
-488.04164
-488.04121
-488.04017
-488.03852
-488.03625
-487.59256
-487.60097
-488.12935
-488.04222
-488.04112
-488.04121
-488.04074
-488.03965
-488.03796
-488.03565
-487.59195
-487.60022
-488.12845
-488.04128
-488.04013
-488.04017
-488.03965
-488.03852
-488.03678
-488.03444
-487.59078
-487.59897
-488.12697
-488.03975
-488.03853
-488.03852
-488.03796
-488.03678
-488.035
-488.03261
-487.58903
-487.59729
-488.12493
-488.0376
-488.03631
-488.03625
-488.03565
-488.03444
-488.03261
-488.03016
-487.58667
-487.36193
-487.65756
-487.59411
-487.59269
-487.59256
-487.59195
-487.59078
-487.58903
-487.58667
-487.05484
-478.71052
-479.47391
-479.35495
-479.35264
-479.3529
-479.35266
-479.35184
-479.35049
-479.34868
-479.08692
-479.47391
-480.02274
-479.92556
-479.92441
-479.92467
-479.92433
-479.92335
-479.92175
-479.91955
-479.40341
-479.35495
-479.92556
-479.83072
-479.82961
-479.82984
-479.82946
-479.82844
-479.82678
-479.82447
-479.33472
-479.35264
-479.92441
-479.82961
-479.82846
-479.82864
-479.82821
-479.82713
-479.82541
-479.82302
-479.33315
-479.3529
-479.92467
-479.82984
-479.82864
-479.82877
-479.82829
-479.82716
-479.82537
-479.82294
-479.33299
-479.35266
-479.92433
-479.82946
-479.82821
-479.82829
-479.82775
-479.82657
-479.82474
-479.82226
-479.33231
-479.35184
-479.92335
-479.82844
-479.82713
-479.82716
-479.82657
-479.82535
-479.82347
-479.82095
-479.33104
-479.35049
-479.92175
-479.82678
-479.82541
-479.82537
-479.82474
-479.82347
-479.82155
-479.81898
-479.32916
-479.34868
-479.91955
-479.82447
-479.82302
-479.82294
-479.82226
-479.82095
-479.81898
-479.81635
-479.32664
-479.08692
-479.40341
-479.33472
-479.33315
-479.33299
-479.33231
-479.33104
-479.32916
-479.32664
-478.73846
-470.62972
-471.44594
-471.31807
-471.31553
-471.31578
-471.3155
-471.31462
-471.31318
-471.31126
-471.02503
-471.44594
-472.03224
-471.9278
-471.9265
-471.92676
-471.92637
-471.92531
-471.9236
-471.92126
-471.36017
-471.31807
-471.9278
-471.82587
-471.82463
-471.82484
-471.82442
-471.82332
-471.82155
-471.8191
-471.28672
-471.31553
-471.9265
-471.82463
-471.82335
-471.82351
-471.82303
-471.82187
-471.82003
-471.8175
-471.28499
-471.31578
-471.92676
-471.82484
-471.82351
-471.82361
-471.82308
-471.82187
-471.81997
-471.81738
-471.2848
-471.3155
-471.92637
-471.82442
-471.82303
-471.82308
-471.8225
-471.82123
-471.81928
-471.81665
-471.28406
-471.31462
-471.92531
-471.82332
-471.82187
-471.82187
-471.82123
-471.81992
-471.81792
-471.81524
-471.28271
-471.31318
-471.9236
-471.82155
-471.82003
-471.81997
-471.81928
-471.81792
-471.81587
-471.81314
-471.28071
-471.31126
-471.92126
-471.8191
-471.8175
-471.81738
-471.81665
-471.81524
-471.81314
-471.81035
-471.27804
-471.02503
-471.36017
-471.28672
-471.28499
-471.2848
-471.28406
-471.28271
-471.28071
-471.27804
-470.63783
-462.754
-463.61734
-463.48143
-463.47868
-463.47892
-463.4786
-463.47767
-463.47615
-463.47413
-463.16553
-463.61734
-464.23699
-464.12599
-464.12457
-464.12481
-464.12438
-464.12325
-464.12144
-464.11898
-463.51699
-463.48143
-464.12599
-464.01769
-464.01632
-464.01652
-464.01605
-464.01488
-464.01302
-464.01043
-463.43926
-463.47868
-464.12457
-464.01632
-464.01491
-464.01505
-464.01453
-464.0133
-464.01136
-464.00869
-463.4374
-463.47892
-464.12481
-464.01652
-464.01505
-464.01514
-464.01456
-464.01327
-464.01127
-464.00854
-463.43717
-463.4786
-464.12438
-464.01605
-464.01453
-464.01456
-464.01393
-464.01259
-464.01053
-464.00776
-463.43639
-463.47767
-464.12325
-464.01488
-464.0133
-464.01327
-464.01259
-464.01119
-464.00908
-464.00626
-463.43496
-463.47615
-464.12144
-464.01302
-464.01136
-464.01127
-464.01053
-464.00908
-464.00692
-464.00405
-463.43286
-463.47413
-464.11898
-464.01043
-464.00869
-464.00854
-464.00776
-464.00626
-464.00405
-464.00111
-463.43005
-463.16553
-463.51699
-463.43926
-463.4374
-463.43717
-463.43639
-463.43496
-463.43286
-463.43005
-462.74241
-455.0734
-455.97795
-455.83491
-455.83197
-455.83219
-455.83184
-455.83086
-455.82927
-455.82716
-455.49838
-455.97795
-456.62666
-456.50986
-456.50832
-456.50854
-456.50807
-456.50688
-456.50499
-456.50241
-455.86377
-455.83491
-456.50986
-456.39591
-456.39442
-456.3946
-456.3941
-456.39287
-456.39091
-456.38822
-455.78229
-455.83197
-456.50832
-456.39442
-456.39289
-456.39301
-456.39245
-456.39116
-456.38913
-456.38634
-455.78031
-455.83219
-456.50854
-456.3946
-456.39301
-456.39308
-456.39246
-456.39111
-456.38901
-456.38617
-455.78005
-455.83184
-456.50807
-456.3941
-456.39245
-456.39246
-456.39178
-456.39037
-456.38822
-456.38533
-455.77922
-455.83086
-456.50688
-456.39287
-456.39116
-456.39111
-456.39037
-456.3889
-456.3867
-456.38377
-455.77772
-455.82927
-456.50499
-456.39091
-456.38913
-456.38901
-456.38822
-456.3867
-456.38445
-456.38145
-455.77553
-455.82716
-456.50241
-456.38822
-456.38634
-456.38617
-456.38533
-456.38377
-456.38145
-456.37839
-455.77261
-455.49838
-455.86377
-455.78229
-455.78031
-455.78005
-455.77922
-455.77772
-455.77553
-455.77261
-455.04238
-447.57868
-448.51831
-448.36911
-448.36598
-448.36619
-448.36582
-448.36479
-448.36314
-448.36096
-448.0143
-448.51831
-449.19168
-449.06986
-449.0682
-449.0684
-449.0679
-449.06666
-449.06469
-449.06203
-448.39117
-448.36911
-449.06986
-448.95102
-448.94943
-448.94959
-448.94905
-448.94776
-448.94574
-448.94295
-448.30648
-448.36598
-449.0682
-448.94943
-448.94779
-448.94789
-448.94729
-448.94594
-448.94383
-448.94096
-448.30439
-448.36619
-449.0684
-448.94959
-448.94789
-448.94794
-448.94728
-448.94586
-448.94369
-448.94075
-448.3041
-448.36582
-449.0679
-448.94905
-448.94729
-448.94728
-448.94656
-448.94509
-448.94286
-448.93987
-448.30323
-448.36479
-449.06666
-448.94776
-448.94594
-448.94586
-448.94509
-448.94356
-448.94128
-448.93824
-448.30167
-448.36314
-449.06469
-448.94574
-448.94383
-448.94369
-448.94286
-448.94128
-448.93894
-448.93585
-448.29941
-448.36096
-449.06203
-448.94295
-448.94096
-448.94075
-448.93987
-448.93824
-448.93585
-448.93268
-448.29639
-448.0143
-448.39117
-448.30648
-448.30439
-448.3041
-448.30323
-448.30167
-448.29941
-448.29639
-447.52863
-440.26125
-441.22969
-441.07532
-441.07203
-441.07222
-441.07182
-441.07076
-441.06906
-441.06682
-440.70467
-441.22969
-441.92322
-441.79718
-441.79542
-441.7956
-441.79507
-441.79378
-441.79175
-441.78902
-441.09052
-441.07532
-441.79718
-441.67424
-441.67255
-441.67269
-441.67212
-441.67079
-441.6687
-441.66584
-441.00318
-441.07203
-441.79542
-441.67255
-441.67081
-441.67089
-441.67026
-441.66887
-441.6667
-441.66374
-441.00098
-441.07222
-441.7956
-441.67269
-441.67089
-441.67092
-441.67023
-441.66876
-441.66653
-441.66351
-441.00067
-441.07182
-441.79507
-441.67212
-441.67026
-441.67023
-441.66947
-441.66795
-441.66566
-441.66259
-440.99976
-441.07076
-441.79378
-441.67079
-441.66887
-441.66876
-441.66795
-441.66637
-441.66403
-441.66091
-440.99816
-441.06906
-441.79175
-441.6687
-441.6667
-441.66653
-441.66566
-441.66403
-441.66162
-441.65845
-440.99584
-441.06682
-441.78902
-441.66584
-441.66374
-441.66351
-441.66259
-441.66091
-441.65845
-441.65519
-440.99275
-440.70467
-441.09052
-441.00318
-441.00098
-441.00067
-440.99976
-440.99816
-440.99584
-440.99275
-440.19267
-433.11315
-434.10403
-433.94549
-433.94207
-433.94224
-433.94182
-433.94072
-433.93899
-433.9367
-433.5615
-434.10403
-434.81313
-434.6837
-434.68185
-434.68201
-434.68145
-434.68012
-434.67805
-434.67526
-433.95383
-433.94549
-434.6837
-434.55747
-434.5557
-434.55581
-434.55521
-434.55385
-434.55171
-434.54879
-433.86439
-433.94207
-434.68185
-434.5557
-434.55387
-434.55393
-434.55327
-434.55183
-434.54962
-434.54661
-433.86211
-433.94224
-434.68201
-434.55581
-434.55393
-434.55393
-434.55321
-434.55171
-434.54943
-434.54635
-433.86177
-433.94182
-434.68145
-434.55521
-434.55327
-434.55321
-434.55243
-434.55087
-434.54852
-434.5454
-433.86083
-433.94072
-434.68012
-434.55385
-434.55183
-434.55171
-434.55087
-434.54925
-434.54685
-434.54367
-433.8592
-433.93899
-434.67805
-434.55171
-434.54962
-434.54943
-434.54852
-434.54685
-434.54439
-434.54116
-433.85683
-433.9367
-434.67526
-434.54879
-434.54661
-434.54635
-434.5454
-434.54367
-434.54116
-434.53784
-433.85369
-433.5615
-433.95383
-433.86439
-433.86211
-433.86177
-433.86083
-433.8592
-433.85683
-433.85369
-433.02667
-426.12702
-427.1339
-426.97221
-426.96868
-426.96883
-426.96839
-426.96727
-426.96551
-426.96319
-426.57745
-427.1339
-427.85395
-427.72197
-427.72004
-427.72018
-427.71959
-427.71823
-427.71613
-427.7133
-426.97371
-426.97221
-427.72197
-427.59326
-427.59141
-427.59151
-427.59089
-427.58949
-427.58732
-427.58437
-426.88276
-426.96868
-427.72004
-427.59141
-427.58951
-427.58955
-427.58887
-427.5874
-427.58515
-427.5821
-426.88041
-426.96883
-427.72018
-427.59151
-427.58955
-427.58953
-427.58878
-427.58725
-427.58494
-427.58182
-426.88005
-426.96839
-427.71959
-427.59089
-427.58887
-427.58878
-427.58798
-427.58639
-427.58401
-427.58085
-426.87909
-426.96727
-427.71823
-427.58949
-427.5874
-427.58725
-427.58639
-427.58474
-427.5823
-427.57909
-426.87743
-426.96551
-427.71613
-427.58732
-427.58515
-427.58494
-427.58401
-427.5823
-427.57981
-427.57654
-426.87503
-426.96319
-427.7133
-427.58437
-427.5821
-427.58182
-427.58085
-427.57909
-427.57654
-427.57318
-426.87186
-426.57745
-426.97371
-426.88276
-426.88041
-426.88005
-426.87909
-426.87743
-426.87503
-426.87186
-426.02336
-419.29606
-420.31246
-420.14867
-420.14505
-420.14518
-420.14472
-420.14358
-420.14181
-420.13948
-419.74572
-420.31246
-421.03883
-420.90515
-420.90315
-420.90327
-420.90266
-420.90129
-420.89916
-420.89631
-420.1434
-420.14867
-420.90515
-420.7748
-420.77289
-420.77296
-420.77232
-420.7709
-420.76872
-420.76574
-420.05152
-420.14505
-420.90315
-420.77289
-420.77092
-420.77094
-420.77024
-420.76875
-420.76648
-420.76341
-420.04911
-420.14518
-420.90327
-420.77296
-420.77094
-420.7709
-420.77013
-420.76858
-420.76625
-420.76311
-420.04873
-420.14472
-420.90266
-420.77232
-420.77024
-420.77013
-420.7693
-420.76769
-420.7653
-420.76212
-420.04776
-420.14358
-420.90129
-420.7709
-420.76875
-420.76858
-420.76769
-420.76603
-420.76357
-420.76034
-420.04608
-420.14181
-420.89916
-420.76872
-420.76648
-420.76625
-420.7653
-420.76357
-420.76106
-420.75777
-420.04367
-420.13948
-420.89631
-420.76574
-420.76341
-420.76311
-420.76212
-420.76034
-420.75777
-420.75439
-420.04048
-419.74572
-420.1434
-420.05152
-420.04911
-420.04873
-420.04776
-420.04608
-420.04367
-420.04048
-419.17606
-412.61402
-413.63347
-413.46862
-413.46494
-413.46504
-413.46457
-413.46343
-413.46165
-413.45932
-413.0601
-413.63347
-414.36154
-414.22701
-414.22496
-414.22506
-414.22444
-414.22305
-414.22092
-414.21807
-413.45668
-413.46862
-414.22701
-414.09585
-414.09389
-414.09394
-414.09328
-414.09185
-414.08966
-414.08669
-413.36446
-413.46494
-414.22496
-414.09389
-414.09187
-414.09187
-414.09115
-414.08966
-414.08738
-414.08431
-413.36202
-413.46504
-414.22506
-414.09394
-414.09187
-414.09181
-414.09103
-414.08947
-414.08713
-414.084
-413.36162
-413.46457
-414.22444
-414.09328
-414.09115
-414.09103
-414.09018
-414.08857
-414.08617
-414.08298
-413.36063
-413.46343
-414.22305
-414.09185
-414.08966
-414.08947
-414.08857
-414.08689
-414.08443
-414.0812
-413.35895
-413.46165
-414.22092
-414.08966
-414.08738
-414.08713
-414.08617
-414.08443
-414.08192
-414.07862
-413.35654
-413.45932
-414.21807
-414.08669
-414.08431
-414.084
-414.08298
-414.0812
-414.07862
-414.07525
-413.35336
-413.0601
-413.45668
-413.36446
-413.36202
-413.36162
-413.36063
-413.35895
-413.35654
-413.35336
-412.47859
-406.07511
-407.09122
-406.92636
-406.92263
-406.92272
-406.92223
-406.92109
-406.91932
-406.917
-406.51489
-407.09122
-407.81642
-407.6819
-407.67981
-407.67988
-407.67925
-407.67785
-407.67573
-407.6729
-406.9079
-406.92636
-407.6819
-407.55075
-407.54875
-407.54878
-407.54811
-407.54668
-407.5445
-407.54154
-406.81591
-406.92263
-407.67981
-407.54875
-407.5467
-407.54668
-407.54595
-407.54445
-407.54219
-407.53914
-406.81345
-406.92272
-407.67988
-407.54878
-407.54668
-407.54659
-407.5458
-407.54424
-407.54191
-407.5388
-406.81303
-406.92223
-407.67925
-407.54811
-407.54595
-407.5458
-407.54495
-407.54333
-407.54094
-407.53778
-406.81204
-406.92109
-407.67785
-407.54668
-407.54445
-407.54424
-407.54333
-407.54166
-407.53921
-407.536
-406.81036
-406.91932
-407.67573
-407.5445
-407.54219
-407.54191
-407.54094
-407.53921
-407.53671
-407.53343
-406.80797
-406.917
-407.6729
-407.54154
-407.53914
-407.5388
-407.53778
-407.536
-407.53343
-407.53008
-406.80482
-406.51489
-406.9079
-406.81591
-406.81345
-406.81303
-406.81204
-406.81036
-406.80797
-406.80482
-405.92528
-399.67408
-400.68052
-400.51668
-400.51293
-400.51299
-400.5125
-400.51136
-400.50961
-400.50732
-400.10485
-400.68052
-401.39836
-401.26467
-401.26256
-401.26261
-401.26197
-401.26058
-401.25848
-401.25567
-400.49189
-400.51668
-401.26467
-401.13436
-401.13234
-401.13235
-401.13167
-401.13025
-401.12809
-401.12517
-400.40071
-400.51293
-401.26256
-401.13234
-401.13027
-401.13022
-401.12949
-401.128
-401.12576
-401.12274
-400.39824
-400.51299
-401.26261
-401.13235
-401.13022
-401.13012
-401.12933
-401.12778
-401.12547
-401.1224
-400.39781
-400.5125
-401.26197
-401.13167
-401.12949
-401.12933
-401.12847
-401.12686
-401.1245
-401.12137
-400.39682
-400.51136
-401.26058
-401.13025
-401.128
-401.12778
-401.12686
-401.1252
-401.12278
-401.1196
-400.39516
-400.50961
-401.25848
-401.12809
-401.12576
-401.12547
-401.1245
-401.12278
-401.1203
-401.11707
-400.39279
-400.50732
-401.25567
-401.12517
-401.12274
-401.1224
-401.12137
-401.1196
-401.11707
-401.11376
-400.38968
-400.10485
-400.49189
-400.40071
-400.39824
-400.39781
-400.39682
-400.39516
-400.39279
-400.38968
-399.51093
-393.40608
-394.39667
-394.23486
-394.23112
-394.23116
-394.23066
-394.22954
-394.22781
-394.22556
-393.82526
-394.39667
-395.10273
-394.97073
-394.9686
-394.96863
-394.96798
-394.96661
-394.96454
-394.96178
-394.20396
-394.23486
-394.97073
-394.84206
-394.84003
-394.84002
-394.83934
-394.83793
-394.8358
-394.83293
-394.11415
-394.23112
-394.9686
-394.84003
-394.83795
-394.83788
-394.83715
-394.83568
-394.83347
-394.83051
-394.11169
-394.23116
-394.96863
-394.84002
-394.83788
-394.83777
-394.83697
-394.83544
-394.83317
-394.83015
-394.11126
-394.23066
-394.96798
-394.83934
-394.83715
-394.83697
-394.83612
-394.83453
-394.8322
-394.82913
-394.11028
-394.22954
-394.96661
-394.83793
-394.83568
-394.83544
-394.83453
-394.83288
-394.8305
-394.82739
-394.10864
-394.22781
-394.96454
-394.8358
-394.83347
-394.83317
-394.8322
-394.8305
-394.82807
-394.82489
-394.10632
-394.22556
-394.96178
-394.83293
-394.83051
-394.83015
-394.82913
-394.82739
-394.82489
-394.82164
-394.10327
-393.82526
-394.20396
-394.11415
-394.11169
-394.11126
-394.11028
-394.10864
-394.10632
-394.10327
-393.23077
-387.2667
-388.23541
-388.07664
-388.07293
-388.07295
-388.07245
-388.07134
-388.06965
-388.06746
-387.6718
-388.23541
-388.92542
-388.79591
-388.79379
-388.7938
-388.79315
-388.7918
-388.78977
-388.78708
-388.03988
-388.07664
-388.79591
-388.66968
-388.66765
-388.66762
-388.66694
-388.66556
-388.66348
-388.66068
-387.952
-388.07293
-388.79379
-388.66765
-388.66558
-388.6655
-388.66476
-388.66332
-388.66116
-388.65827
-387.94956
-388.07295
-388.7938
-388.66762
-388.6655
-388.66536
-388.66457
-388.66307
-388.66085
-388.6579
-387.94913
-388.07245
-388.79315
-388.66694
-388.66476
-388.66457
-388.66373
-388.66217
-388.65989
-388.6569
-387.94816
-388.07134
-388.7918
-388.66556
-388.66332
-388.66307
-388.66217
-388.66055
-388.65823
-388.65519
-387.94655
-388.06965
-388.78977
-388.66348
-388.66116
-388.66085
-388.65989
-388.65823
-388.65584
-388.65275
-387.94429
-388.06746
-388.78708
-388.66068
-388.65827
-388.6579
-388.6569
-388.65519
-388.65275
-388.64958
-387.94132
-387.6718
-388.03988
-387.952
-387.94956
-387.94913
-387.94816
-387.94655
-387.94429
-387.94132
-387.08047
-381.25194
-382.19293
-382.03816
-382.03451
-382.03451
-382.03401
-382.03293
-382.03129
-382.02916
-381.64056
-382.19293
-382.86277
-382.73653
-382.73443
-382.73441
-382.73377
-382.73245
-382.73048
-382.72787
-381.99583
-382.03816
-382.73653
-382.61351
-382.6115
-382.61145
-382.61078
-382.60943
-382.60741
-382.60469
-381.91042
-382.03451
-382.73443
-382.6115
-382.60945
-382.60935
-382.60862
-382.60721
-382.60512
-382.60232
-381.90803
-382.03451
-382.73441
-382.61145
-382.60935
-382.6092
-382.60842
-382.60695
-382.6048
-382.60194
-381.90759
-382.03401
-382.73377
-382.61078
-382.60862
-382.60842
-382.60758
-382.60606
-382.60385
-382.60095
-381.90664
-382.03293
-382.73245
-382.60943
-382.60721
-382.60695
-382.60606
-382.60449
-382.60223
-382.59929
-381.90508
-382.03129
-382.73048
-382.60741
-382.60512
-382.6048
-382.60385
-382.60223
-382.59992
-382.59692
-381.90289
-382.02916
-382.72787
-382.60469
-382.60232
-382.60194
-382.60095
-382.59929
-382.59692
-382.59385
-381.90002
-381.64056
-381.99583
-381.91042
-381.90803
-381.90759
-381.90664
-381.90508
-381.90289
-381.90002
-381.05605
-375.35813
-376.26581
-376.11599
-376.11241
-376.11239
-376.1119
-376.11085
-376.10927
-376.10722
-375.72803
-376.26581
-376.91151
-376.78932
-376.78725
-376.78721
-376.78658
-376.7853
-376.78339
-376.78088
-376.06841
-376.11599
-376.78932
-376.67026
-376.66828
-376.66821
-376.66755
-376.66624
-376.66428
-376.66167
-375.98598
-376.11241
-376.78725
-376.66828
-376.66626
-376.66614
-376.66543
-376.66406
-376.66204
-376.65934
-375.98364
-376.11239
-376.78721
-376.66821
-376.66614
-376.66598
-376.66521
-376.66379
-376.66171
-376.65896
-375.9832
-376.1119
-376.78658
-376.66755
-376.66543
-376.66521
-376.6644
-376.66292
-376.66079
-376.658
-375.98228
-376.11085
-376.7853
-376.66624
-376.66406
-376.66379
-376.66292
-376.6614
-376.65922
-376.65638
-375.98077
-376.10927
-376.78339
-376.66428
-376.66204
-376.66171
-376.66079
-376.65922
-376.65699
-376.6541
-375.97866
-376.10722
-376.78088
-376.66167
-376.65934
-376.65896
-376.658
-376.65638
-376.6541
-376.65114
-375.9759
-375.72803
-376.06841
-375.98598
-375.98364
-375.9832
-375.98228
-375.98077
-375.97866
-375.9759
-375.15391
-369.58197
-370.45101
-370.30704
-370.30356
-370.30353
-370.30304
-370.30203
-370.30051
-370.29856
-369.93103
-370.45101
-371.0688
-370.95139
-370.94937
-370.94931
-370.94869
-370.94745
-370.94563
-370.94322
-370.25455
-370.30704
-370.95139
-370.837
-370.83506
-370.83498
-370.83433
-370.83307
-370.8312
-370.8287
-370.1756
-370.30356
-370.94937
-370.83506
-370.83309
-370.83296
-370.83226
-370.83095
-370.82901
-370.82643
-370.17333
-370.30353
-370.94931
-370.83498
-370.83296
-370.83278
-370.83204
-370.83067
-370.82868
-370.82605
-370.1729
-370.30304
-370.94869
-370.83433
-370.83226
-370.83204
-370.83124
-370.82983
-370.82779
-370.82512
-370.17201
-370.30203
-370.94745
-370.83307
-370.83095
-370.83067
-370.82983
-370.82836
-370.82628
-370.82357
-370.17056
-370.30051
-370.94563
-370.8312
-370.82901
-370.82868
-370.82779
-370.82628
-370.82414
-370.82138
-370.16854
-370.29856
-370.94322
-370.8287
-370.82643
-370.82605
-370.82512
-370.82357
-370.82138
-370.81855
-370.16591
-369.93103
-370.25455
-370.1756
-370.17333
-370.1729
-370.17201
-370.17056
-370.16854
-370.16591
-369.3708
-363.92049
-364.74584
-364.60857
-364.60522
-364.60516
-364.60469
-364.60372
-364.60228
-364.60042
-364.24674
-364.74584
-365.33216
-365.22023
-365.21827
-365.21819
-365.21759
-365.2164
-365.21466
-365.21238
-364.55154
-364.60857
-365.22023
-365.11119
-365.10931
-365.10921
-365.10858
-365.10737
-365.10559
-365.10322
-364.47654
-364.60522
-365.21827
-365.10931
-365.1074
-365.10725
-365.10658
-365.10532
-365.10348
-365.10104
-364.47436
-364.60516
-365.21819
-365.10921
-365.10725
-365.10707
-365.10635
-365.10504
-365.10315
-365.10066
-364.47394
-364.60469
-365.21759
-365.10858
-365.10658
-365.10635
-365.10558
-365.10423
-365.10229
-365.09976
-364.47308
-364.60372
-365.2164
-365.10737
-365.10532
-365.10504
-365.10423
-365.10283
-365.10085
-365.09828
-364.47171
-364.60228
-365.21466
-365.10559
-365.10348
-365.10315
-365.10229
-365.10085
-365.09882