/*--------------------------------*- C++ -*----------------------------------*\
| =========                 |                                                 |
| \\      /  F ield         | OpenFOAM: The Open Source CFD Toolbox           |
|  \\    /   O peration     | Version:  v2106                                 |
|   \\  /    A nd           | Website:  www.openfoam.com                      |
|    \\/     M anipulation  |                                                 |
\*---------------------------------------------------------------------------*/
FoamFile
{
    version     2.0;
    format      ascii;
    arch        "LSB;label=32;scalar=64";
    class       volScalarField;
    location    "82.5";
    object      T;
}
// * * * * * * * * * * * * * * * * * * * * * * * * * * * * * * * * * * * * * //

dimensions      [0 0 0 1 0 0 0];

internalField   nonuniform List<scalar> 
4000
(
275.16018
275.16018
275.16018
275.16018
275.16018
275.16018
275.16018
275.16018
275.16018
275.16018
275.16018
275.16018
275.16018
275.16018
275.16019
275.16019
275.16018
275.16018
275.16018
275.16018
275.16018
275.16018
275.16019
275.16019
275.16019
275.16019
275.16019
275.16019
275.16018
275.16018
275.16018
275.16018
275.16019
275.16019
275.16019
275.16019
275.16019
275.16019
275.16019
275.16018
275.16018
275.16019
275.16019
275.16019
275.16019
275.16019
275.16019
275.16019
275.16019
275.16018
275.16018
275.16019
275.16019
275.16019
275.16019
275.16019
275.16019
275.16019
275.16019
275.16018
275.16018
275.16018
275.16019
275.16019
275.16019
275.16019
275.16019
275.16019
275.16018
275.16018
275.16018
275.16018
275.16019
275.16019
275.16019
275.16019
275.16019
275.16018
275.16018
275.16018
275.16018
275.16018
275.16018
275.16019
275.16019
275.16019
275.16018
275.16018
275.16018
275.16018
275.16018
275.16018
275.16018
275.16018
275.16018
275.16018
275.16018
275.16018
275.16018
275.16018
283.60244
283.60245
283.60246
283.60246
283.60246
283.60246
283.60246
283.60246
283.60246
283.60245
283.60245
283.60246
283.60247
283.60247
283.60247
283.60247
283.60247
283.60247
283.60246
283.60246
283.60246
283.60247
283.60247
283.60247
283.60248
283.60247
283.60247
283.60247
283.60247
283.60246
283.60246
283.60247
283.60247
283.60248
283.60248
283.60248
283.60248
283.60247
283.60247
283.60247
283.60246
283.60247
283.60248
283.60248
283.60248
283.60248
283.60248
283.60247
283.60247
283.60247
283.60246
283.60247
283.60247
283.60248
283.60248
283.60248
283.60248
283.60247
283.60247
283.60246
283.60246
283.60247
283.60247
283.60248
283.60248
283.60248
283.60247
283.60247
283.60247
283.60246
283.60246
283.60247
283.60247
283.60247
283.60247
283.60247
283.60247
283.60247
283.60246
283.60246
283.60246
283.60246
283.60247
283.60247
283.60247
283.60247
283.60247
283.60246
283.60246
283.60246
283.60245
283.60246
283.60246
283.60247
283.60247
283.60246
283.60246
283.60246
283.60246
283.60245
291.98947
291.98949
291.98949
291.9895
291.9895
291.9895
291.9895
291.9895
291.98949
291.98948
291.98949
291.9895
291.98951
291.98951
291.98952
291.98951
291.98951
291.98951
291.9895
291.98949
291.98949
291.98951
291.98952
291.98952
291.98952
291.98952
291.98952
291.98951
291.98951
291.9895
291.9895
291.98951
291.98952
291.98952
291.98953
291.98953
291.98952
291.98952
291.98951
291.9895
291.9895
291.98952
291.98952
291.98953
291.98953
291.98953
291.98952
291.98952
291.98951
291.9895
291.9895
291.98951
291.98952
291.98953
291.98953
291.98953
291.98952
291.98952
291.98951
291.9895
291.9895
291.98951
291.98952
291.98952
291.98952
291.98952
291.98952
291.98951
291.98951
291.9895
291.9895
291.98951
291.98951
291.98952
291.98952
291.98952
291.98951
291.98951
291.9895
291.98949
291.98949
291.9895
291.98951
291.98951
291.98951
291.98951
291.98951
291.9895
291.98949
291.98948
291.98948
291.98949
291.9895
291.9895
291.9895
291.9895
291.9895
291.98949
291.98948
291.98947
300.32226
300.32229
300.3223
300.3223
300.32231
300.32231
300.3223
300.3223
300.32229
300.32228
300.32229
300.3223
300.32231
300.32232
300.32232
300.32232
300.32232
300.32231
300.3223
300.32229
300.3223
300.32231
300.32232
300.32233
300.32233
300.32233
300.32233
300.32232
300.32231
300.3223
300.3223
300.32232
300.32233
300.32234
300.32234
300.32234
300.32233
300.32233
300.32232
300.3223
300.32231
300.32232
300.32233
300.32234
300.32234
300.32234
300.32234
300.32233
300.32232
300.3223
300.32231
300.32232
300.32233
300.32234
300.32234
300.32234
300.32233
300.32233
300.32231
300.3223
300.3223
300.32232
300.32233
300.32233
300.32234
300.32233
300.32233
300.32232
300.32231
300.3223
300.3223
300.32231
300.32232
300.32233
300.32233
300.32233
300.32232
300.32231
300.3223
300.32229
300.32229
300.3223
300.32231
300.32232
300.32232
300.32231
300.32231
300.3223
300.32229
300.32227
300.32228
300.32229
300.3223
300.3223
300.3223
300.3223
300.3223
300.32229
300.32227
300.32226
308.6018
308.60183
308.60184
308.60185
308.60185
308.60185
308.60185
308.60184
308.60183
308.60181
308.60183
308.60185
308.60186
308.60187
308.60187
308.60187
308.60187
308.60186
308.60185
308.60183
308.60184
308.60186
308.60187
308.60188
308.60189
308.60188
308.60188
308.60187
308.60186
308.60184
308.60185
308.60187
308.60188
308.60189
308.60189
308.60189
308.60188
308.60187
308.60186
308.60184
308.60185
308.60187
308.60189
308.60189
308.60189
308.60189
308.60189
308.60188
308.60186
308.60184
308.60185
308.60187
308.60188
308.60189
308.60189
308.60189
308.60188
308.60187
308.60186
308.60184
308.60185
308.60187
308.60188
308.60188
308.60189
308.60188
308.60188
308.60187
308.60185
308.60183
308.60184
308.60186
308.60187
308.60187
308.60188
308.60187
308.60187
308.60186
308.60184
308.60182
308.60183
308.60185
308.60186
308.60186
308.60186
308.60186
308.60185
308.60184
308.60182
308.6018
308.60181
308.60183
308.60184
308.60184
308.60184
308.60184
308.60183
308.60182
308.6018
308.60178
316.82902
316.82905
316.82907
316.82908
316.82908
316.82908
316.82908
316.82907
316.82905
316.82904
316.82905
316.82908
316.8291
316.82911
316.82911
316.82911
316.8291
316.82909
316.82908
316.82905
316.82907
316.8291
316.82911
316.82912
316.82912
316.82912
316.82912
316.8291
316.82909
316.82906
316.82908
316.82911
316.82912
316.82913
316.82913
316.82913
316.82912
316.82911
316.82909
316.82907
316.82908
316.82911
316.82912
316.82913
316.82913
316.82913
316.82912
316.82911
316.82909
316.82907
316.82908
316.82911
316.82912
316.82913
316.82913
316.82913
316.82912
316.82911
316.82909
316.82907
316.82908
316.8291
316.82912
316.82912
316.82912
316.82912
316.82911
316.8291
316.82908
316.82906
316.82907
316.82909
316.8291
316.82911
316.82911
316.82911
316.8291
316.82908
316.82907
316.82904
316.82905
316.82908
316.82909
316.82909
316.82909
316.82909
316.82908
316.82907
316.82905
316.82902
316.82904
316.82905
316.82906
316.82907
316.82907
316.82907
316.82906
316.82904
316.82902
316.829
325.00486
325.00489
325.00491
325.00492
325.00492
325.00492
325.00491
325.0049
325.00488
325.00486
325.00489
325.00492
325.00494
325.00495
325.00495
325.00495
325.00494
325.00493
325.00491
325.00488
325.00491
325.00494
325.00495
325.00496
325.00497
325.00497
325.00496
325.00494
325.00492
325.0049
325.00492
325.00495
325.00496
325.00497
325.00498
325.00497
325.00497
325.00495
325.00493
325.0049
325.00492
325.00495
325.00497
325.00498
325.00498
325.00498
325.00497
325.00495
325.00493
325.0049
325.00492
325.00495
325.00497
325.00497
325.00498
325.00497
325.00496
325.00495
325.00493
325.0049
325.00491
325.00494
325.00496
325.00497
325.00497
325.00496
325.00495
325.00494
325.00491
325.00489
325.0049
325.00493
325.00494
325.00495
325.00495
325.00495
325.00494
325.00492
325.0049
325.00487
325.00488
325.00491
325.00492
325.00493
325.00493
325.00493
325.00491
325.0049
325.00487
325.00484
325.00486
325.00488
325.0049
325.0049
325.0049
325.0049
325.00489
325.00487
325.00484
325.00481
333.13019
333.13023
333.13025
333.13026
333.13026
333.13026
333.13025
333.13024
333.13022
333.13019
333.13023
333.13026
333.13028
333.13029
333.13029
333.13029
333.13028
333.13027
333.13024
333.13022
333.13025
333.13028
333.1303
333.13031
333.13031
333.13031
333.1303
333.13028
333.13026
333.13023
333.13026
333.13029
333.13031
333.13032
333.13032
333.13032
333.13031
333.13029
333.13027
333.13023
333.13026
333.13029
333.13031
333.13032
333.13032
333.13032
333.13031
333.13029
333.13027
333.13023
333.13026
333.13029
333.13031
333.13032
333.13032
333.13032
333.1303
333.13029
333.13026
333.13023
333.13025
333.13028
333.1303
333.13031
333.13031
333.1303
333.13029
333.13027
333.13025
333.13021
333.13024
333.13027
333.13028
333.13029
333.13029
333.13029
333.13027
333.13025
333.13023
333.13019
333.13022
333.13024
333.13026
333.13027
333.13027
333.13026
333.13025
333.13023
333.1302
333.13017
333.13019
333.13022
333.13023
333.13023
333.13023
333.13023
333.13021
333.13019
333.13017
333.13013
341.20588
341.20593
341.20595
341.20596
341.20597
341.20596
341.20595
341.20594
341.20591
341.20589
341.20593
341.20597
341.20599
341.206
341.206
341.206
341.20599
341.20597
341.20595
341.20591
341.20595
341.20599
341.20601
341.20602
341.20602
341.20602
341.20601
341.20599
341.20596
341.20593
341.20596
341.206
341.20602
341.20603
341.20603
341.20603
341.20602
341.206
341.20597
341.20593
341.20597
341.206
341.20602
341.20603
341.20604
341.20603
341.20602
341.206
341.20597
341.20593
341.20596
341.206
341.20602
341.20603
341.20603
341.20602
341.20601
341.20599
341.20596
341.20593
341.20595
341.20599
341.20601
341.20602
341.20602
341.20601
341.206
341.20598
341.20595
341.20591
341.20594
341.20597
341.20599
341.206
341.206
341.20599
341.20598
341.20595
341.20592
341.20589
341.20591
341.20595
341.20596
341.20597
341.20597
341.20596
341.20595
341.20592
341.20589
341.20586
341.20589
341.20591
341.20593
341.20593
341.20593
341.20593
341.20591
341.20589
341.20586
341.20581
349.2328
349.23284
349.23287
349.23288
349.23289
349.23288
349.23287
349.23285
349.23283
349.2328
349.23284
349.23288
349.23291
349.23292
349.23292
349.23292
349.23291
349.23289
349.23286
349.23282
349.23287
349.23291
349.23293
349.23294
349.23294
349.23294
349.23293
349.23291
349.23288
349.23284
349.23288
349.23292
349.23294
349.23295
349.23296
349.23295
349.23294
349.23291
349.23288
349.23284
349.23289
349.23292
349.23294
349.23296
349.23296
349.23295
349.23294
349.23291
349.23288
349.23284
349.23288
349.23292
349.23294
349.23295
349.23295
349.23295
349.23293
349.23291
349.23288
349.23283
349.23287
349.23291
349.23293
349.23294
349.23294
349.23293
349.23291
349.23289
349.23286
349.23282
349.23285
349.23289
349.23291
349.23291
349.23291
349.23291
349.23289
349.23287
349.23283
349.23279
349.23283
349.23286
349.23288
349.23288
349.23288
349.23288
349.23286
349.23283
349.2328
349.23276
349.2328
349.23282
349.23284
349.23284
349.23284
349.23283
349.23282
349.23279
349.23276
349.23271
357.21174
357.21179
357.21182
357.21183
357.21184
357.21183
357.21182
357.2118
357.21177
357.21174
357.21179
357.21184
357.21186
357.21187
357.21188
357.21187
357.21186
357.21184
357.21181
357.21177
357.21182
357.21186
357.21188
357.2119
357.2119
357.21189
357.21188
357.21186
357.21182
357.21178
357.21183
357.21187
357.2119
357.21191
357.21191
357.21191
357.21189
357.21187
357.21183
357.21179
357.21184
357.21188
357.2119
357.21191
357.21191
357.21191
357.21189
357.21187
357.21183
357.21179
357.21183
357.21187
357.21189
357.21191
357.21191
357.2119
357.21188
357.21186
357.21182
357.21178
357.21182
357.21186
357.21188
357.21189
357.21189
357.21188
357.21187
357.21184
357.2118
357.21176
357.2118
357.21184
357.21186
357.21187
357.21187
357.21186
357.21184
357.21181
357.21178
357.21173
357.21177
357.21181
357.21182
357.21183
357.21183
357.21182
357.2118
357.21178
357.21174
357.21169
357.21174
357.21177
357.21178
357.21179
357.21179
357.21178
357.21176
357.21173
357.21169
357.21165
365.14353
365.14358
365.14361
365.14362
365.14363
365.14362
365.14361
365.14358
365.14355
365.14352
365.14358
365.14363
365.14365
365.14367
365.14367
365.14366
365.14365
365.14363
365.14359
365.14355
365.14361
365.14365
365.14367
365.14369
365.14369
365.14369
365.14367
365.14365
365.14361
365.14357
365.14362
365.14367
365.14369
365.1437
365.1437
365.1437
365.14368
365.14365
365.14362
365.14357
365.14363
365.14367
365.14369
365.1437
365.14371
365.1437
365.14368
365.14365
365.14362
365.14357
365.14362
365.14366
365.14369
365.1437
365.1437
365.14369
365.14367
365.14365
365.14361
365.14356
365.14361
365.14365
365.14367
365.14368
365.14368
365.14367
365.14365
365.14363
365.14359
365.14354
365.14358
365.14363
365.14365
365.14365
365.14365
365.14365
365.14363
365.1436
365.14356
365.14351
365.14355
365.14359
365.14361
365.14362
365.14362
365.14361
365.14359
365.14356
365.14352
365.14347
365.14352
365.14355
365.14357
365.14357
365.14357
365.14356
365.14354
365.14351
365.14347
365.14342
373.02893
373.02899
373.02901
373.02903
373.02903
373.02903
373.02901
373.02899
373.02896
373.02892
373.02899
373.02903
373.02906
373.02907
373.02908
373.02907
373.02906
373.02903
373.029
373.02895
373.02901
373.02906
373.02908
373.0291
373.0291
373.0291
373.02908
373.02905
373.02901
373.02897
373.02903
373.02907
373.0291
373.02911
373.02911
373.02911
373.02909
373.02906
373.02902
373.02897
373.02903
373.02908
373.0291
373.02911
373.02912
373.02911
373.02909
373.02906
373.02902
373.02897
373.02903
373.02907
373.0291
373.02911
373.02911
373.0291
373.02908
373.02905
373.02901
373.02896
373.02901
373.02906
373.02908
373.02909
373.02909
373.02908
373.02906
373.02903
373.02899
373.02894
373.02899
373.02903
373.02905
373.02906
373.02906
373.02905
373.02903
373.029
373.02896
373.02891
373.02896
373.029
373.02901
373.02902
373.02902
373.02901
373.02899
373.02896
373.02892
373.02886
373.02892
373.02895
373.02897
373.02897
373.02897
373.02896
373.02894
373.02891
373.02886
373.02881
380.86872
380.86877
380.8688
380.86882
380.86882
380.86882
380.8688
380.86878
380.86874
380.8687
380.86877
380.86882
380.86885
380.86887
380.86887
380.86886
380.86885
380.86882
380.86878
380.86873
380.8688
380.86885
380.86888
380.86889
380.86889
380.86889
380.86887
380.86884
380.8688
380.86875
380.86882
380.86887
380.86889
380.8689
380.86891
380.8689
380.86888
380.86885
380.86881
380.86876
380.86882
380.86887
380.86889
380.86891
380.86891
380.8689
380.86888
380.86885
380.86881
380.86876
380.86882
380.86886
380.86889
380.8689
380.8689
380.86889
380.86887
380.86884
380.8688
380.86874
380.8688
380.86885
380.86887
380.86888
380.86888
380.86887
380.86885
380.86882
380.86877
380.86872
380.86878
380.86882
380.86884
380.86885
380.86885
380.86884
380.86882
380.86878
380.86874
380.86869
380.86874
380.86878
380.8688
380.86881
380.86881
380.8688
380.86877
380.86874
380.8687
380.86864
380.8687
380.86873
380.86875
380.86876
380.86876
380.86874
380.86872
380.86869
380.86864
380.86858
388.66363
388.66369
388.66372
388.66373
388.66374
388.66373
388.66372
388.66369
388.66365
388.66361
388.66369
388.66374
388.66377
388.66378
388.66379
388.66378
388.66376
388.66373
388.6637
388.66365
388.66372
388.66377
388.66379
388.66381
388.66381
388.6638
388.66379
388.66376
388.66371
388.66366
388.66373
388.66378
388.66381
388.66382
388.66382
388.66382
388.6638
388.66377
388.66372
388.66367
388.66374
388.66379
388.66381
388.66382
388.66383
388.66382
388.6638
388.66376
388.66372
388.66367
388.66373
388.66378
388.6638
388.66382
388.66382
388.66381
388.66378
388.66375
388.66371
388.66365
388.66372
388.66376
388.66379
388.6638
388.6638
388.66378
388.66376
388.66373
388.66368
388.66363
388.66369
388.66373
388.66376
388.66377
388.66376
388.66375
388.66373
388.66369
388.66365
388.66359
388.66365
388.6637
388.66371
388.66372
388.66372
388.66371
388.66368
388.66365
388.6636
388.66355
388.66361
388.66365
388.66366
388.66367
388.66367
388.66365
388.66363
388.66359
388.66355
388.66348
396.4144
396.41446
396.41449
396.41451
396.41451
396.4145
396.41449
396.41446
396.41442
396.41438
396.41446
396.41451
396.41454
396.41456
396.41456
396.41455
396.41453
396.4145
396.41446
396.41441
396.41449
396.41454
396.41457
396.41458
396.41458
396.41458
396.41456
396.41453
396.41448
396.41443
396.41451
396.41456
396.41458
396.4146
396.4146
396.41459
396.41457
396.41454
396.41449
396.41444
396.41451
396.41456
396.41458
396.4146
396.4146
396.41459
396.41457
396.41453
396.41449
396.41443
396.4145
396.41455
396.41458
396.41459
396.41459
396.41458
396.41456
396.41452
396.41448
396.41442
396.41449
396.41453
396.41456
396.41457
396.41457
396.41456
396.41453
396.4145
396.41445
396.41439
396.41446
396.4145
396.41453
396.41454
396.41453
396.41452
396.4145
396.41446
396.41442
396.41436
396.41442
396.41446
396.41448
396.41449
396.41449
396.41448
396.41445
396.41442
396.41437
396.41431
396.41438
396.41441
396.41443
396.41444
396.41443
396.41442
396.41439
396.41436
396.41431
396.41424
404.12174
404.1218
404.12183
404.12185
404.12185
404.12184
404.12183
404.1218
404.12176
404.12172
404.1218
404.12185
404.12188
404.1219
404.1219
404.12189
404.12187
404.12184
404.1218
404.12175
404.12183
404.12188
404.12191
404.12192
404.12193
404.12192
404.1219
404.12187
404.12182
404.12177
404.12185
404.1219
404.12192
404.12194
404.12194
404.12193
404.12191
404.12187
404.12183
404.12177
404.12185
404.1219
404.12193
404.12194
404.12194
404.12193
404.12191
404.12187
404.12183
404.12177
404.12184
404.12189
404.12192
404.12193
404.12193
404.12192
404.12189
404.12186
404.12181
404.12176
404.12183
404.12187
404.1219
404.12191
404.12191
404.12189
404.12187
404.12183
404.12179
404.12173
404.1218
404.12184
404.12187
404.12187
404.12187
404.12186
404.12183
404.1218
404.12175
404.12169
404.12176
404.1218
404.12182
404.12183
404.12183
404.12181
404.12179
404.12175
404.1217
404.12164
404.12172
404.12175
404.12177
404.12177
404.12177
404.12176
404.12173
404.12169
404.12164
404.12157
411.78635
411.78641
411.78644
411.78645
411.78646
411.78645
411.78643
411.7864
411.78636
411.78632
411.78641
411.78646
411.78649
411.7865
411.78651
411.7865
411.78648
411.78645
411.78641
411.78635
411.78644
411.78649
411.78651
411.78653
411.78653
411.78652
411.7865
411.78647
411.78642
411.78637
411.78645
411.7865
411.78653
411.78654
411.78654
411.78653
411.78651
411.78648
411.78643
411.78637
411.78646
411.78651
411.78653
411.78654
411.78654
411.78653
411.78651
411.78648
411.78643
411.78637
411.78645
411.7865
411.78652
411.78653
411.78653
411.78652
411.7865
411.78646
411.78641
411.78636
411.78643
411.78648
411.7865
411.78651
411.78651
411.7865
411.78647
411.78644
411.78639
411.78633
411.7864
411.78645
411.78647
411.78648
411.78648
411.78646
411.78644
411.7864
411.78635
411.78629
411.78636
411.78641
411.78642
411.78643
411.78643
411.78641
411.78639
411.78635
411.7863
411.78624
411.78632
411.78635
411.78637
411.78637
411.78637
411.78636
411.78633
411.78629
411.78624
411.78617
419.4089
419.40896
419.40899
419.409
419.40901
419.409
419.40898
419.40895
419.40891
419.40887
419.40896
419.40901
419.40904
419.40906
419.40906
419.40905
419.40903
419.409
419.40896
419.4089
419.40899
419.40904
419.40907
419.40908
419.40908
419.40907
419.40905
419.40902
419.40897
419.40892
419.409
419.40906
419.40908
419.40909
419.4091
419.40909
419.40906
419.40903
419.40898
419.40892
419.40901
419.40906
419.40908
419.4091
419.4091
419.40908
419.40906
419.40903
419.40898
419.40892
419.409
419.40905
419.40907
419.40909
419.40908
419.40907
419.40905
419.40901
419.40896
419.4089
419.40898
419.40903
419.40905
419.40906
419.40906
419.40905
419.40902
419.40899
419.40894
419.40888
419.40895
419.409
419.40902
419.40903
419.40903
419.40901
419.40899
419.40895
419.4089
419.40884
419.40891
419.40896
419.40897
419.40898
419.40898
419.40896
419.40894
419.4089
419.40885
419.40878
419.40887
419.4089
419.40892
419.40892
419.40892
419.4089
419.40888
419.40884
419.40878
419.40872
426.99007
426.99013
426.99016
426.99017
426.99018
426.99017
426.99015
426.99012
426.99008
426.99003
426.99013
426.99018
426.99021
426.99022
426.99023
426.99022
426.9902
426.99016
426.99012
426.99007
426.99016
426.99021
426.99023
426.99025
426.99025
426.99024
426.99022
426.99019
426.99014
426.99008
426.99017
426.99022
426.99025
426.99026
426.99026
426.99025
426.99023
426.99019
426.99015
426.99009
426.99018
426.99023
426.99025
426.99026
426.99026
426.99025
426.99023
426.99019
426.99014
426.99008
426.99017
426.99022
426.99024
426.99025
426.99025
426.99024
426.99021
426.99018
426.99013
426.99007
426.99015
426.9902
426.99022
426.99023
426.99023
426.99021
426.99019
426.99015
426.9901
426.99004
426.99012
426.99016
426.99019
426.99019
426.99019
426.99018
426.99015
426.99011
426.99006
426.99
426.99008
426.99012
426.99014
426.99015
426.99014
426.99013
426.9901
426.99006
426.99001
426.98995
426.99003
426.99007
426.99008
426.99009
426.99008
426.99007
426.99004
426.99
426.98995
426.98988
434.53051
434.53057
434.53059
434.53061
434.53061
434.5306
434.53058
434.53055
434.53051
434.53047
434.53057
434.53062
434.53065
434.53066
434.53066
434.53065
434.53063
434.5306
434.53056
434.5305
434.53059
434.53065
434.53067
434.53068
434.53069
434.53068
434.53065
434.53062
434.53058
434.53052
434.53061
434.53066
434.53068
434.5307
434.5307
434.53069
434.53066
434.53063
434.53058
434.53052
434.53061
434.53066
434.53069
434.5307
434.5307
434.53069
434.53066
434.53063
434.53058
434.53052
434.5306
434.53065
434.53068
434.53069
434.53069
434.53067
434.53065
434.53061
434.53056
434.5305
434.53058
434.53063
434.53065
434.53066
434.53066
434.53065
434.53062
434.53058
434.53054
434.53047
434.53055
434.5306
434.53062
434.53063
434.53063
434.53061
434.53058
434.53055
434.5305
434.53043
434.53051
434.53056
434.53058
434.53058
434.53058
434.53056
434.53054
434.5305
434.53045
434.53038
434.53047
434.5305
434.53052
434.53052
434.53052
434.5305
434.53047
434.53043
434.53038
434.53031
442.03086
442.03092
442.03094
442.03096
442.03096
442.03095
442.03093
442.0309
442.03086
442.03082
442.03092
442.03097
442.03099
442.03101
442.03101
442.031
442.03098
442.03095
442.0309
442.03085
442.03094
442.03099
442.03102
442.03103
442.03103
442.03102
442.031
442.03097
442.03092
442.03086
442.03096
442.03101
442.03103
442.03104
442.03104
442.03103
442.03101
442.03098
442.03093
442.03087
442.03096
442.03101
442.03103
442.03104
442.03104
442.03103
442.03101
442.03097
442.03092
442.03087
442.03095
442.031
442.03102
442.03103
442.03103
442.03102
442.03099
442.03096
442.03091
442.03085
442.03093
442.03098
442.031
442.03101
442.03101
442.03099
442.03097
442.03093
442.03088
442.03082
442.0309
442.03095
442.03097
442.03098
442.03097
442.03096
442.03093
442.03089
442.03084
442.03078
442.03086
442.0309
442.03092
442.03093
442.03092
442.03091
442.03088
442.03084
442.03079
442.03073
442.03082
442.03085
442.03086
442.03087
442.03087
442.03085
442.03082
442.03078
442.03073
442.03066
449.49175
449.49181
449.49183
449.49185
449.49185
449.49184
449.49182
449.49179
449.49175
449.49171
449.49181
449.49186
449.49188
449.49189
449.4919
449.49189
449.49187
449.49183
449.49179
449.49174
449.49183
449.49188
449.4919
449.49192
449.49192
449.49191
449.49189
449.49185
449.49181
449.49175
449.49185
449.49189
449.49192
449.49193
449.49193
449.49192
449.4919
449.49186
449.49182
449.49176
449.49185
449.4919
449.49192
449.49193
449.49193
449.49192
449.49189
449.49186
449.49181
449.49175
449.49184
449.49189
449.49191
449.49192
449.49192
449.4919
449.49188
449.49184
449.4918
449.49174
449.49182
449.49187
449.49189
449.4919
449.49189
449.49188
449.49185
449.49182
449.49177
449.49171
449.49179
449.49183
449.49185
449.49186
449.49186
449.49184
449.49182
449.49178
449.49173
449.49167
449.49175
449.49179
449.49181
449.49182
449.49181
449.4918
449.49177
449.49173
449.49168
449.49162
449.49171
449.49174
449.49175
449.49176
449.49175
449.49174
449.49171
449.49167
449.49162
449.49155
456.9138
456.91385
456.91388
456.91389
456.91389
456.91388
456.91386
456.91383
456.9138
456.91375
456.91385
456.9139
456.91393
456.91394
456.91394
456.91393
456.91391
456.91388
456.91384
456.91378
456.91388
456.91393
456.91395
456.91396
456.91396
456.91395
456.91393
456.9139
456.91385
456.9138
456.91389
456.91394
456.91396
456.91397
456.91397
456.91396
456.91394
456.9139
456.91386
456.9138
456.91389
456.91394
456.91396
456.91397
456.91397
456.91396
456.91393
456.9139
456.91385
456.9138
456.91388
456.91393
456.91395
456.91396
456.91396
456.91395
456.91392
456.91389
456.91384
456.91378
456.91386
456.91391
456.91393
456.91394
456.91393
456.91392
456.9139
456.91386
456.91381
456.91375
456.91383
456.91388
456.9139
456.9139
456.9139
456.91389
456.91386
456.91382
456.91377
456.91372
456.9138
456.91384
456.91385
456.91386
456.91385
456.91384
456.91381
456.91377
456.91372
456.91366
456.91375
456.91378
456.9138
456.9138
456.9138
456.91378
456.91375
456.91372
456.91366
456.9136
464.29761
464.29766
464.29769
464.2977
464.2977
464.29769
464.29767
464.29764
464.29761
464.29756
464.29766
464.29771
464.29773
464.29774
464.29774
464.29773
464.29771
464.29768
464.29764
464.29759
464.29769
464.29773
464.29775
464.29776
464.29777
464.29775
464.29773
464.2977
464.29766
464.2976
464.2977
464.29774
464.29776
464.29778
464.29777
464.29776
464.29774
464.29771
464.29766
464.29761
464.2977
464.29774
464.29777
464.29777
464.29777
464.29776
464.29774
464.2977
464.29766
464.2976
464.29769
464.29773
464.29775
464.29776
464.29776
464.29775
464.29772
464.29769
464.29764
464.29759
464.29767
464.29771
464.29773
464.29774
464.29774
464.29772
464.2977
464.29766
464.29762
464.29756
464.29764
464.29768
464.2977
464.29771
464.2977
464.29769
464.29766
464.29763
464.29758
464.29752
464.29761
464.29764
464.29766
464.29766
464.29766
464.29764
464.29762
464.29758
464.29753
464.29747
464.29756
464.29759
464.2976
464.29761
464.2976
464.29759
464.29756
464.29752
464.29747
464.29741
471.64377
471.64383
471.64385
471.64386
471.64386
471.64385
471.64383
471.64381
471.64377
471.64373
471.64383
471.64387
471.64389
471.6439
471.6439
471.6439
471.64388
471.64385
471.64381
471.64376
471.64385
471.64389
471.64391
471.64392
471.64392
471.64391
471.64389
471.64386
471.64382
471.64377
471.64386
471.6439
471.64392
471.64393
471.64393
471.64392
471.6439
471.64387
471.64383
471.64377
471.64386
471.6439
471.64392
471.64393
471.64393
471.64392
471.6439
471.64386
471.64382
471.64377
471.64385
471.6439
471.64391
471.64392
471.64392
471.64391
471.64388
471.64385
471.64381
471.64375
471.64383
471.64388
471.64389
471.6439
471.6439
471.64388
471.64386
471.64383
471.64378
471.64373
471.64381
471.64385
471.64386
471.64387
471.64386
471.64385
471.64383
471.64379
471.64374
471.64369
471.64377
471.64381
471.64382
471.64383
471.64382
471.64381
471.64378
471.64374
471.6437
471.64364
471.64373
471.64376
471.64377
471.64377
471.64377
471.64375
471.64373
471.64369
471.64364
471.64358
478.95288
478.95293
478.95295
478.95296
478.95296
478.95295
478.95294
478.95291
478.95287
478.95283
478.95293
478.95297
478.95299
478.953
478.953
478.95299
478.95297
478.95295
478.95291
478.95286
478.95295
478.95299
478.95301
478.95302
478.95302
478.95301
478.95299
478.95296
478.95292
478.95287
478.95296
478.953
478.95302
478.95303
478.95303
478.95302
478.953
478.95297
478.95293
478.95287
478.95296
478.953
478.95302
478.95303
478.95303
478.95302
478.95299
478.95296
478.95292
478.95287
478.95295
478.95299
478.95301
478.95302
478.95302
478.953
478.95298
478.95295
478.95291
478.95285
478.95294
478.95297
478.95299
478.953
478.95299
478.95298
478.95296
478.95293
478.95288
478.95283
478.95291
478.95295
478.95296
478.95297
478.95296
478.95295
478.95293
478.95289
478.95285
478.95279
478.95287
478.95291
478.95292
478.95293
478.95292
478.95291
478.95288
478.95285
478.9528
478.95275
478.95283
478.95286
478.95287
478.95287
478.95287
478.95285
478.95283
478.95279
478.95275
478.95269
486.2255
486.22554
486.22556
486.22557
486.22557
486.22556
486.22555
486.22552
486.22549
486.22545
486.22554
486.22558
486.2256
486.22561
486.22561
486.2256
486.22558
486.22556
486.22552
486.22547
486.22556
486.2256
486.22562
486.22563
486.22563
486.22562
486.2256
486.22557
486.22553
486.22548
486.22557
486.22561
486.22563
486.22564
486.22563
486.22562
486.2256
486.22557
486.22554
486.22549
486.22557
486.22561
486.22563
486.22563
486.22563
486.22562
486.2256
486.22557
486.22553
486.22548
486.22556
486.2256
486.22562
486.22562
486.22562
486.22561
486.22559
486.22556
486.22552
486.22547
486.22555
486.22558
486.2256
486.2256
486.2256
486.22559
486.22557
486.22553
486.22549
486.22544
486.22552
486.22556
486.22557
486.22557
486.22557
486.22556
486.22553
486.2255
486.22546
486.22541
486.22549
486.22552
486.22553
486.22554
486.22553
486.22552
486.22549
486.22546
486.22542
486.22536
486.22545
486.22547
486.22548
486.22549
486.22548
486.22547
486.22544
486.22541
486.22536
486.22531
493.46218
493.46222
493.46224
493.46225
493.46225
493.46224
493.46223
493.4622
493.46217
493.46214
493.46222
493.46226
493.46228
493.46229
493.46229
493.46228
493.46226
493.46224
493.4622
493.46216
493.46224
493.46228
493.4623
493.4623
493.4623
493.46229
493.46228
493.46225
493.46221
493.46217
493.46225
493.46229
493.4623
493.46231
493.46231
493.4623
493.46228
493.46225
493.46222
493.46217
493.46225
493.46229
493.4623
493.46231
493.46231
493.4623
493.46228
493.46225
493.46221
493.46216
493.46224
493.46228
493.46229
493.4623
493.4623
493.46229
493.46227
493.46224
493.4622
493.46215
493.46223
493.46226
493.46228
493.46228
493.46228
493.46227
493.46224
493.46221
493.46218
493.46213
493.4622
493.46224
493.46225
493.46225
493.46225
493.46224
493.46221
493.46218
493.46214
493.4621
493.46217
493.4622
493.46221
493.46222
493.46221
493.4622
493.46218
493.46214
493.4621
493.46205
493.46214
493.46216
493.46217
493.46217
493.46216
493.46215
493.46213
493.4621
493.46205
493.462
500.66349
500.66353
500.66355
500.66355
500.66355
500.66355
500.66353
500.66351
500.66348
500.66344
500.66353
500.66356
500.66358
500.66359
500.66359
500.66358
500.66356
500.66354
500.6635
500.66346
500.66355
500.66358
500.66359
500.6636
500.6636
500.66359
500.66357
500.66355
500.66352
500.66347
500.66355
500.66359
500.6636
500.66361
500.66361
500.6636
500.66358
500.66355
500.66352
500.66347
500.66355
500.66359
500.6636
500.66361
500.6636
500.66359