/*--------------------------------*- C++ -*----------------------------------*\
| =========                 |                                                 |
| \\      /  F ield         | OpenFOAM: The Open Source CFD Toolbox           |
|  \\    /   O peration     | Version:  v2106                                 |
|   \\  /    A nd           | Website:  www.openfoam.com                      |
|    \\/     M anipulation  |                                                 |
\*---------------------------------------------------------------------------*/
FoamFile
{
    version     2.0;
    format      ascii;
    arch        "LSB;label=32;scalar=64";
    class       volVectorField;
    location    "20";
    object      gradT;
}
// * * * * * * * * * * * * * * * * * * * * * * * * * * * * * * * * * * * * * //

dimensions      [0 -1 0 1 0 0 0];

internalField   nonuniform List<vector> 
500
(
(0.00079931638 0.00079931638 680.39705)
(-0.00045389205 -0.00020870202 680.40091)
(-0.0022439093 -0.00010743817 680.39498)
(-0.0007916251 1.7535467e-05 680.3928)
(-0.00013372159 0.00010314503 680.39193)
(-0.00020870202 -0.00045389205 680.40091)
(-0.0018140239 -0.0018140239 680.39978)
(-0.0019045531 -0.0014666007 680.39441)
(-0.0004757503 -0.0010168185 680.39301)
(-4.8112026e-05 -0.00052688744 680.3926)
(-0.00010743817 -0.0022439093 680.39498)
(-0.0014666007 -0.0019045531 680.39441)
(-0.0014467039 -0.0014467039 680.38982)
(0.00014808813 -0.0010210593 680.38945)
(0.00019289909 -0.00055392755 680.3904)
(1.7535468e-05 -0.0007916251 680.3928)
(-0.0010168185 -0.0004757503 680.39301)
(-0.0010210593 0.00014808813 680.38945)
(0.00041702608 0.00041702608 680.38974)
(0.00026330913 0.00053085343 680.39107)
(0.00010314503 -0.00013372159 680.39193)
(-0.00052688744 -4.8112025e-05 680.3926)
(-0.00055392755 0.00019289909 680.3904)
(0.00053085342 0.00026330913 680.39107)
(0.00026878399 0.00026878399 680.39234)
(0.0014628861 0.0014628861 682.24939)
(-0.0017362625 -0.00050709176 682.25056)
(-0.0054364138 -0.00025129022 682.24672)
(-0.0022010863 0.00015654075 682.2454)
(-0.00046350945 0.00035471455 682.24439)
(-0.00050709176 -0.0017362626 682.25056)
(-0.004307527 -0.004307527 682.2495)
(-0.004440965 -0.0033518338 682.24616)
(-0.0012920791 -0.0019645595 682.2458)
(-0.00026533564 -0.00071871661 682.24522)
(-0.00025129021 -0.0054364138 682.24672)
(-0.0033518338 -0.004440965 682.24616)
(-0.0030934463 -0.0030934463 682.24357)
(0.00043203098 -0.0018429692 682.24419)
(0.00036705251 -0.000623234 682.24467)
(0.00015654075 -0.0022010863 682.2454)
(-0.0019645595 -0.0012920791 682.2458)
(-0.0018429692 0.00043203098 682.24419)
(0.0011781332 0.0011781332 682.2454)
(0.00054782116 0.0013141395 682.24611)
(0.00035471456 -0.00046350945 682.24439)
(-0.0007187166 -0.00026533564 682.24522)
(-0.000623234 0.00036705251 682.24467)
(0.0013141395 0.00054782116 682.24611)
(0.00045772338 0.00045772338 682.24609)
(0.0015774319 0.0015774319 685.6255)
(-0.0031229539 -0.00091513641 685.62591)
(-0.0074078015 -0.00048065964 685.62329)
(-0.003123599 0.00028712051 685.62294)
(-0.00080326616 0.0006553165 685.62227)
(-0.00091513641 -0.0031229539 685.62591)
(-0.0062100912 -0.0062100912 685.62492)
(-0.0056044161 -0.0046247251 685.62284)
(-0.0014196348 -0.0022199167 685.62354)
(-0.00043507017 -0.00024445256 685.62329)
(-0.00048065964 -0.0074078015 685.62329)
(-0.004624725 -0.0056044161 685.62284)
(-0.003417627 -0.003417627 685.62146)
(0.0012566735 -0.0014239312 685.62308)
(0.0005137099 0.00033777554 685.6237)
(0.00028712051 -0.003123599 685.62294)
(-0.0022199166 -0.0014196348 685.62354)
(-0.0014239312 0.0012566735 685.62308)
(0.0023357677 0.0023357677 685.62519)
(0.00073940098 0.001944307 685.62589)
(0.0006553165 -0.00080326616 685.62227)
(-0.00024445255 -0.00043507017 685.62329)
(0.00033777554 0.0005137099 685.6237)
(0.001944307 0.00073940098 685.62589)
(0.0002527361 0.0002527361 685.62515)
(0.0017310688 0.0017310688 690.5857)
(-0.0039534054 -0.0011650151 690.5862)
(-0.008398729 -0.00055243345 690.58444)
(-0.0032219311 0.00055398695 690.58486)
(-0.00091547377 0.0010352993 690.5847)
(-0.0011650151 -0.0039534054 690.5862)
(-0.0073786587 -0.0073786587 690.58562)
(-0.0058202259 -0.0051840611 690.58438)
(-0.00084033209 -0.0018343296 690.58576)
(-0.00043416146 0.00071079368 690.58591)
(-0.00055243345 -0.008398729 690.58444)
(-0.0051840611 -0.0058202259 690.58438)
(-0.0028543999 -0.0028543999 690.58379)
(0.0026729237 -0.00019687174 690.586)
(0.00078127509 0.0019795231 690.58688)
(0.00055398695 -0.0032219311 690.58486)
(-0.0018343296 -0.00084033209 690.58576)
(-0.00019687174 0.0026729237 690.586)
(0.0039935909 0.0039935909 690.58862)
(0.0010167684 0.0027684308 690.58951)
(0.0010352993 -0.00091547377 690.5847)
(0.00071079369 -0.00043416146 690.58591)
(0.0019795231 0.00078127509 690.58688)
(0.0027684308 0.0010167684 690.58951)
(-3.5498346e-05 -3.5498346e-05 690.58867)
(0.0019138572 0.0019138572 697.00941)
(-0.0043776888 -0.00130414 697.00995)
(-0.0087567043 -0.00052521169 697.00885)
(-0.0028639679 0.00089059545 697.00969)
(-0.00090382551 0.001457798 697.00983)
(-0.00130414 -0.0043776888 697.00995)
(-0.0080362922 -0.0080362922 697.00965)
(-0.005464601 -0.0052817337 697.00902)
(0.0001105466 -0.0010794427 697.01073)
(-0.00033662297 0.0019333854 697.01111)
(-0.00052521169 -0.0087567043 697.00885)
(-0.0052817337 -0.005464601 697.00902)
(-0.0017998548 -0.0017998548 697.00897)
(0.0043511513 0.0014367544 697.0114)
(0.0011047266 0.0039401745 697.01239)
(0.00089059545 -0.0028639679 697.00969)
(-0.0010794427 0.0001105466 697.01073)
(0.0014367544 0.0043511513 697.0114)
(0.0058505758 0.0058505758 697.01418)
(0.0013323238 0.003731544 697.01513)
(0.001457798 -0.0009038255 697.00983)
(0.0019333854 -0.00033662297 697.01111)
(0.0039401745 0.0011047266 697.01239)
(0.003731544 0.0013323238 697.01513)
(-0.00030796131 -0.00030796131 697.01437)
(0.0020934814 0.0020934814 704.73828)
(-0.004515386 -0.0013653287 704.73878)
(-0.0086665657 -0.000438702 704.73822)
(-0.002239031 0.001250465 704.7393)
(-0.00081871561 0.0018854984 704.73963)
(-0.0013653287 -0.004515386 704.73878)
(-0.0083136611 -0.0083136611 704.73869)
(-0.0047428753 -0.0050675081 704.73853)
(0.0012472696 -0.00012191374 704.74037)
(-0.00018368219 0.0032719986 704.74088)
(-0.000438702 -0.0086665657 704.73822)
(-0.0050675081 -0.0047428753 704.73853)
(-0.00047481832 -0.00047481832 704.73887)
(0.0061004757 0.0032505955 704.74132)
(0.0014438926 0.0060057682 704.74232)
(0.001250465 -0.002239031 704.7393)
(-0.00012191374 0.0012472696 704.74037)
(0.0032505955 0.0061004757 704.74132)
(0.0077278561 0.0077278561 704.74404)
(0.0016530996 0.0047414244 704.74497)
(0.0018854984 -0.00081871561 704.73963)
(0.0032719986 -0.00018368219 704.74088)
(0.0060057682 0.0014438926 704.74232)
(0.0047414244 0.0016530996 704.74497)
(-0.00054706187 -0.00054706187 704.74431)
(0.0022467675 0.0022467675 713.582)
(-0.004441445 -0.00136747 713.5824)
(-0.0082357876 -0.00031607982 713.58231)
(-0.001453769 0.001604227 713.58353)
(-0.00068638509 0.0022902865 713.58397)
(-0.00136747 -0.004441445 713.5824)
(-0.0082857159 -0.0082857159 713.58246)
(-0.0037782421 -0.0046291593 713.58271)
(0.0024557806 0.00093497881 713.58455)
(-3.2556294e-07 0.0046222896 713.58512)
(-0.00031607982 -0.0082357876 713.58231)
(-0.0046291593 -0.0037782421 713.58271)
(0.00098490718 0.00098490718 713.58335)
(0.0077976799 0.0051023454 713.58567)
(0.0017718221 0.0080361909 713.58661)
(0.001604227 -0.001453769 713.58353)
(0.00093497881 0.0024557806 713.58455)
(0.0051023454 0.0077976799 713.58567)
(0.0095070643 0.0095070643 713.58819)
(0.0019555714 0.0057190258 713.58905)
(0.0022902865 -0.00068638509 713.58397)
(0.0046222896 -3.25565e-07 713.58512)
(0.0080361909 0.0017718221 713.58661)
(0.0057190258 0.0019555714 713.58905)
(-0.00075353691 -0.00075353691 713.58847)
(0.002358736 0.002358736 723.32287)
(-0.0042028318 -0.0013219883 723.32313)
(-0.0075330055 -0.0001718818 723.32348)
(-0.00057608157 0.0019319804 723.32476)
(-0.00052267454 0.0026517941 723.32528)
(-0.0013219883 -0.0042028318 723.32313)
(-0.0079987585 -0.0079987585 723.32332)
(-0.0026520525 -0.0040227059 723.32393)
(0.0036594323 0.0020215707 723.32568)
(0.00019713912 0.0059100304 723.32627)
(-0.0001718818 -0.0075330055 723.32348)
(-0.0040227059 -0.0026520525 723.32393)
(0.0024873236 0.0024873236 723.32482)
(0.0093566547 0.006893161 723.32691)
(0.0020696319 0.0099314437 723.32773)
(0.0019319804 -0.00057608156 723.32476)
(0.0020215707 0.0036594323 723.32568)
(0.006893161 0.0093566547 723.32691)
(0.011103552 0.011103552 723.32912)
(0.0022226609 0.0066046407 723.32985)
(0.0026517941 -0.00052267453 723.32528)
(0.0059100304 0.00019713912 723.32627)
(0.0099314437 0.0020696319 723.32773)
(0.0066046407 0.0022226609 723.32985)
(-0.00092964248 -0.00092964248 723.32937)
(0.002420125 0.002420125 733.72114)
(-0.0038312003 -0.0012365101 733.72124)
(-0.0066079571 -1.610383e-05 733.72199)
(0.00034573318 0.0022193799 733.72327)
(-0.00033846497 0.0029550847 733.72384)
(-0.0012365101 -0.0038312003 733.72124)
(-0.0074855435 -0.0074855435 733.72155)
(-0.0014241222 -0.003288364 733.72247)
(0.004802516 0.0030866094 733.72406)
(0.0003972399 0.0070799244 733.72465)
(-1.6103828e-05 -0.0066079571 733.72199)
(-0.003288364 -0.0014241222 733.72247)
(0.0039641958 0.0039641958 733.72356)
(0.010714022 0.0085489885 733.72534)
(0.002323745 0.011616124 733.72602)
(0.0022193799 0.00034573319 733.72327)
(0.0030866094 0.004802516 733.72406)
(0.0085489885 0.010714022 733.72534)
(0.012454444 0.012454444 733.72718)
(0.0024419967 0.0073544952 733.72775)
(0.0029550847 -0.00033846497 733.72384)
(0.0070799244 0.0003972399 733.72465)
(0.011616124 0.002323745 733.72602)
(0.0073544952 0.0024419967 733.72775)
(-0.0010762208 -0.0010762208 733.72735)
(0.0024255514 0.0024255514 744.52086)
(-0.0033508953 -0.0011169723 744.52079)
(-0.0055023247 0.00014363467 744.52191)
(0.001273548 0.0024556428 744.52314)
(-0.00014223315 0.003189067 744.52374)
(-0.0011169723 -0.0033508953 744.52079)
(-0.0067737704 -0.0067737704 744.52119)
(-0.00014340202 -0.0024590353 744.52239)
(0.0058416966 0.0040894053 744.52376)
(0.00059119111 0.0080890262 744.52433)
(0.00014363467 -0.0055023246 744.52191)
(-0.0024590353 -0.00014340202 744.52239)
(0.005360851 0.005360851 744.52363)
(0.01182161 0.010011302 744.52505)
(0.0025241808 0.013031454 744.52556)
(0.0024556428 0.001273548 744.52314)
(0.0040894053 0.0058416966 744.52376)
(0.010011302 0.01182161 744.52505)
(0.013512299 0.013512299 744.52645)
(0.0026046256 0.0079364853 744.52684)
(0.003189067 -0.00014223315 744.52374)
(0.0080890262 0.00059119111 744.52433)
(0.013031454 0.0025241808 744.52556)
(0.0079364853 0.0026046256 744.52684)
(-0.0011930285 -0.0011930285 744.52654)
(0.0023723109 0.0023723109 755.45616)
(-0.0027837677 -0.0009688537 755.45591)
(-0.0042557288 0.00030088951 755.45736)
(0.0021744415 0.0026324705 755.4585)
(5.8624178e-05 0.0033455289 755.4591)
(-0.00096885369 -0.0027837677 755.45591)
(-0.0058908997 -0.0058908998 755.45639)
(0.0011462575 -0.0015649596 755.45782)
(0.0067414005 0.0049955905 755.45893)
(0.00077168255 0.008902931 755.45945)
(0.00030088951 -0.0042557288 755.45736)
(-0.0015649596 0.0011462575 755.45782)
(0.0066307614 0.0066307614 755.45918)
(0.012642332 0.011232186 755.46019)
(0.0026635179 0.01413085 755.46051)
(0.0026324705 0.0021744415 755.4585)
(0.0049955905 0.0067414005 755.45893)
(0.011232186 0.012642332 755.46019)
(0.014241489 0.014241489 755.46109)
(0.0027041249 0.0083269095 755.46129)
(0.0033455289 5.8624181e-05 755.4591)
(0.008902931 0.00077168256 755.45945)
(0.01413085 0.0026635179 755.46051)
(0.0083269095 0.0027041249 755.46129)
(-0.001279535 -0.001279535 755.46108)
(0.002259534 0.002259534 766.25776)
(-0.0021522655 -0.00079795932 766.25734)
(-0.0029093224 0.00044963723 766.25907)
(0.0030177612 0.0027433639 766.26008)
(0.00025701141 0.0034184845 766.26067)
(-0.00079795931 -0.0021522655 766.25734)
(-0.0048671106 -0.0048671107 766.25787)
(0.0024026624 -0.00063655234 766.25949)
(0.0074710321 0.0057745002 766.26031)
(0.00093213198 0.0094932902 766.26075)
(0.00044963723 -0.0029093224 766.25907)
(-0.00063655234 0.0024026624 766.25949)
(0.0077322884 0.0077322884 766.26092)
(0.013147604 0.01217131 766.26149)
(0.0027362047 0.014877047 766.2616)
(0.0027433639 0.0030177612 766.26008)
(0.0057745002 0.0074710321 766.26031)
(0.01217131 0.013147604 766.26149)
(0.01461579 0.01461579 766.26187)
(0.0027359568 0.0085080033 766.26186)
(0.0034184845 0.00025701141 766.26067)
(0.0094932902 0.00093213199 766.26075)
(0.014877047 0.0027362047 766.2616)
(0.0085080033 0.0027359568 766.26186)
(-0.0013356533 -0.0013356533 766.26174)
(0.0020874299 0.0020874299 776.65966)
(-0.0014819551 -0.0006110662 776.65906)
(-0.0015085813 0.00058363677 776.66101)
(0.0037728132 0.0027830078 776.66186)
(0.00044552974 0.0034035585 776.6624)
(-0.0006110662 -0.0014819551 776.65906)
(-0.0037376447 -0.0037376447 776.65963)
(0.0035825298 0.00029328201 776.66138)
(0.0080026959 0.0063969235 776.66187)
(0.0010660804 0.0098355637 776.66222)
(0.00058363678 -0.0015085813 776.66101)
(0.00029328201 0.0035825298 776.66138)
(0.008625987 0.008625987 776.66283)
(0.013315095 0.012793299 776.66292)
(0.0027379565 0.015239489 776.66281)
(0.0027830078 0.0037728132 776.66186)
(0.0063969235 0.0080026959 776.66187)
(0.012793299 0.013315095 776.66292)
(0.014616198 0.014616198 776.66276)
(0.0026968738 0.0084656355 776.66253)
(0.0034035585 0.00044552974 776.6624)
(0.0098355637 0.0010660804 776.66222)
(0.015239489 0.0027379565 776.66281)
(0.0084656355 0.0026968738 776.66253)
(-0.0013624184 -0.0013624184 776.66249)
(0.0018563799 0.0018563799 786.40564)
(-0.00080449092 -0.00041671239 786.40486)
(-0.00010661392 0.00069561311 786.40696)
(0.004406114 0.0027464296 786.4076)
(0.00061577813 0.0032971256 786.40806)
(-0.00041671239 -0.00080449092 786.40486)
(-0.0025456411 -0.0025456411 786.40543)
(0.0046380991 0.001186235 786.40725)
(0.0083083827 0.0068321289 786.40736)
(0.0011664741 0.0099059725 786.4076)
(0.00069561311 -0.00010661391 786.40696)
(0.001186235 0.0046380991 786.40725)
(0.0092711561 0.0092711561 786.40866)
(0.013125851 0.01306429 786.40824)
(0.0026650072 0.015190855 786.4079)
(0.0027464296 0.004406114 786.4076)
(0.0068321289 0.0083083827 786.40736)
(0.01306429 0.013125851 786.40824)
(0.014228082 0.014228082 786.40752)
(0.0025841839 0.0081864518 786.40706)
(0.0032971256 0.00061577813 786.40806)
(0.0099059725 0.0011664741 786.4076)
(0.015190855 0.0026650072 786.4079)
(0.0081864518 0.0025841839 786.40706)
(-0.001362746 -0.001362746 786.40709)
(0.0015656685 0.0015656685 795.25562)
(-0.00016217917 -0.00022650972 795.25465)
(0.001230477 0.00077586253 795.25681)
(0.0048770965 0.0026275169 795.25717)
(0.00075729176 0.0030947856 795.25753)
(-0.00022650972 -0.00016217917 795.25465)
(-0.0013468881 -0.0013468881 795.25519)
(0.0055115169 0.0019936117 795.25698)
(0.008355481 0.0070427062 795.25668)
(0.0012245604 0.0096762314 795.25677)
(0.00077586253 0.001230477 795.25681)
(0.0019936117 0.0055115169 795.25698)
(0.0096200712 0.0096200712 795.25827)
(0.012559716 0.012946197 795.25732)
(0.0025129753 0.014701382 795.25673)
(0.0026275169 0.0048770965 795.25717)
(0.0070427062 0.008355481 795.25668)
(0.012946197 0.012559716 795.25732)
(0.013436792 0.013436792 795.256)
(0.0023946837 0.0076537198 795.25531)
(0.0030947856 0.00075729176 795.25753)
(0.0096762314 0.0012245604 795.25677)
(0.014701382 0.0025129753 795.25673)
(0.0076537198 0.0023946837 795.25531)
(-0.0013424061 -0.0013424061 795.25539)
(0.0012119528 0.0012119528 802.99161)
(0.00038455432 -5.7679745e-05 802.99044)
(0.0024137647 0.00080955059 802.99251)
(0.0051308565 0.0024161164 802.99252)
(0.00085581134 0.0027883595 802.99272)
(-5.7679748e-05 0.00038455432 802.99044)
(-0.00021904893 -0.00021904893 802.99087)
(0.006124459 0.0026466675 802.99251)
(0.0080990699 0.0069746164 802.99172)
(0.0012280544 0.00910349 802.99162)
(0.00080955059 0.0024137647 802.99251)
(0.0026466675 0.006124459 802.99251)
(0.00960743 0.00960743 802.99356)
(0.011587679 0.012386488 802.99202)
(0.0022750605 0.013729082 802.99116)
(0.0024161164 0.0051308565 802.99252)
(0.0069746164 0.0080990699 802.99172)
(0.012386488 0.011587679 802.99202)
(0.012220722 0.012220722 802.99007)
(0.0021231174 0.0068413533 802.98912)
(0.0027883595 0.00085581133 802.99272)
(0.00910349 0.0012280544 802.99162)
(0.013729082 0.0022750605 802.99116)
(0.0068413533 0.0021231174 802.98912)
(-0.0013111856 -0.0013111856 802.98921)
(0.00078964825 0.00078964825 809.42309)
(0.00074669008 6.1825383e-05 809.42173)
(0.0033124822 0.00077134972 809.42351)
(0.0050862556 0.0020922423 809.42304)
(0.00089066073 0.0023598072 809.423)
(6.1825382e-05 0.00074669007 809.42173)
(0.00071924228 0.00071924228 809.42195)
(0.0063581076 0.0030369883 809.42322)
(0.0074689418 0.0065372074 809.42184)
(0.0011582256 0.0081103286 809.42147)
(0.00077134972 0.0033124822 809.42351)
(0.0030369883 0.0063581076 809.42322)
(0.0091304473 0.0091304473 809.42384)
(0.010159596 0.011299569 809.42163)
(0.0019394083 0.012202848 809.42044)
(0.0020922423 0.0050862556 809.42304)
(0.0065372074 0.0074689418 809.42184)
(0.011299569 0.010159596 809.42163)
(0.010541343 0.010541343 809.41898)
(0.0017604115 0.0057072696 809.41774)
(0.0023598072 0.00089066073 809.423)
(0.0081103286 0.0011582257 809.42147)
(0.012202848 0.0019394083 809.42044)
(0.0057072696 0.0017604115 809.41774)
(-0.0012833071 -0.0012833071 809.4178)
(0.0003056071 0.0003056071 814.39175)
(0.00080366043 8.5047839e-05 814.39035)
(0.0037160019 0.00061685522 814.39148)
(0.0046185642 0.0016166208 814.39031)
(0.00083187472 0.0017713905 814.38993)
(8.5047839e-05 0.00080366043 814.39035)
(0.0012705326 0.0012705326 814.3902)
(0.0060133612 0.0029786725 814.39076)
(0.0063503671 0.0055651815 814.38858)
(0.00098664448 0.0065480083 814.38787)
(0.00061685522 0.0037160019 814.39148)
(0.0029786725 0.0060133612 814.39076)
(0.0080106508 0.0080106508 814.39062)
(0.0081879 0.0095321957 814.38756)
(0.0014870926 0.0099937015 814.38601)
(0.0016166208 0.0046185642 814.39031)
(0.0055651815 0.0063503671 814.38858)
(0.0095321957 0.0081879 814.38756)
(0.0083334179 0.0083334179 814.38409)
(0.001294315 0.0041957232 814.38254)
(0.0017713905 0.00083187472 814.38993)
(0.0065480083 0.00098664448 814.38787)
(0.0099937015 0.0014870926 814.38601)
(0.0041957232 0.001294315 814.38254)
(-0.0012713705 -0.0012713705 814.38261)
(-0.000144296 -0.000144296 817.77505)
(0.00047450938 -4.1006271e-05 817.77433)
(0.0032706169 0.00029357802 817.77438)
(0.0035418813 0.00093967383 817.7722)
(0.00064147856 0.00098028197 817.77139)
(-4.1006269e-05 0.00047450938 817.77433)
(0.0011313204 0.0011313204 817.77406)
(0.004741637 0.0021800376 817.77348)
(0.0045719373 0.0037899834 817.77018)
(0.00068208671 0.0041872185 817.76917)
(0.00029357802 0.0032706169 817.77438)
(0.0021800376 0.004741637 817.77348)
(0.0059292799 0.0059292799 817.77218)
(0.0055490623 0.0068054812 817.768)
(0.00090630196 0.0068787759 817.7663)
(0.00093967383 0.0035418813 817.7722)
(0.0037899834 0.0045719373 817.77018)
(0.0068054812 0.0055490623 817.768)
(0.0055214333 0.0055214333 817.76346)
(0.00073094985 0.0023022671 817.76194)
(0.00098028197 0.00064147856 817.77139)
(0.0041872185 0.00068208671 817.76917)
(0.0068787759 0.00090630196 817.7663)
(0.0023022671 0.00073094985 817.76194)
(-0.0012398088 -0.0012398088 817.76267)
(-0.00017668263 -0.00017668263 819.63186)
(0.00012964964 -9.5946237e-05 819.63254)
(0.0015813957 2.0021811e-05 819.63129)
(0.0016258693 0.00027411684 819.6272)
(0.00029276478 0.00029146532 819.62568)
(-9.5946239e-05 0.00012964964 819.63254)
(0.0004247063 0.0004247063 819.63287)
(0.0021364903 0.00077718149 819.63093)
(0.0020330346 0.0013664701 819.62543)
(0.00031011325 0.001465275 819.62382)
(2.0021807e-05 0.0015813957 819.63129)
(0.00077718149 0.0021364903 819.63093)
(0.0025231596 0.0025231596 819.62828)
(0.0023139628 0.0028084147 819.62194)
(0.00035863465 0.0027656462 819.61995)
(0.00027411684 0.0016258693 819.6272)
(0.0013664702 0.0020330346 819.62543)
(0.0028084147 0.0023139628 819.62194)
(0.0022755212 0.0022755212 819.61528)
(0.00028160096 0.00055647388 819.6137)
(0.00029146531 0.00029276478 819.62568)
(0.001465275 0.00031011325 819.62382)
(0.0027656462 0.00035863465 819.61995)
(0.00055647388 0.00028160096 819.6137)
(-0.00078739692 -0.00078739692 819.61731)
)
;

boundaryField
{
    wall_minX
    {
        type            extrapolatedCalculated;
        value           nonuniform List<vector> 
100
(
(0 0.00079931638 680.39705)
(0 -0.00045389205 680.40091)
(0 -0.0022439093 680.39498)
(0 -0.0007916251 680.3928)
(0 -0.00013372159 680.39193)
(0 0.0014628861 682.24939)
(0 -0.0017362626 682.25056)
(0 -0.0054364138 682.24672)
(0 -0.0022010863 682.2454)
(0 -0.00046350945 682.24439)
(0 0.0015774319 685.6255)
(0 -0.0031229539 685.62591)
(0 -0.0074078015 685.62329)
(0 -0.003123599 685.62294)
(0 -0.00080326616 685.62227)
(0 0.0017310688 690.5857)
(0 -0.0039534054 690.5862)
(0 -0.008398729 690.58444)
(0 -0.0032219311 690.58486)
(0 -0.00091547377 690.5847)
(0 0.0019138572 697.00941)
(0 -0.0043776888 697.00995)
(0 -0.0087567043 697.00885)
(0 -0.0028639679 697.00969)
(0 -0.0009038255 697.00983)
(0 0.0020934814 704.73828)
(0 -0.004515386 704.73878)
(0 -0.0086665657 704.73822)
(0 -0.002239031 704.7393)
(0 -0.00081871561 704.73963)
(0 0.0022467675 713.582)
(0 -0.004441445 713.5824)
(0 -0.0082357876 713.58231)
(0 -0.001453769 713.58353)
(0 -0.00068638509 713.58397)
(0 0.002358736 723.32287)
(0 -0.0042028318 723.32313)
(0 -0.0075330055 723.32348)
(0 -0.00057608156 723.32476)
(0 -0.00052267453 723.32528)
(0 0.002420125 733.72114)
(0 -0.0038312003 733.72124)
(0 -0.0066079571 733.72199)
(0 0.00034573319 733.72327)
(0 -0.00033846497 733.72384)
(0 0.0024255514 744.52086)
(0 -0.0033508953 744.52079)
(0 -0.0055023246 744.52191)
(0 0.001273548 744.52314)
(0 -0.00014223315 744.52374)
(0 0.0023723109 755.45616)
(0 -0.0027837677 755.45591)
(0 -0.0042557288 755.45736)
(0 0.0021744415 755.4585)
(0 5.8624181e-05 755.4591)
(0 0.002259534 766.25776)
(0 -0.0021522655 766.25734)
(0 -0.0029093224 766.25907)
(0 0.0030177612 766.26008)
(0 0.00025701141 766.26067)
(0 0.0020874299 776.65966)
(0 -0.0014819551 776.65906)
(0 -0.0015085813 776.66101)
(0 0.0037728132 776.66186)
(0 0.00044552974 776.6624)
(0 0.0018563799 786.40564)
(0 -0.00080449092 786.40486)
(0 -0.00010661391 786.40696)
(0 0.004406114 786.4076)
(0 0.00061577813 786.40806)
(0 0.0015656685 795.25562)
(0 -0.00016217917 795.25465)
(0 0.001230477 795.25681)
(0 0.0048770965 795.25717)
(0 0.00075729176 795.25753)
(0 0.0012119528 802.99161)
(0 0.00038455432 802.99044)
(0 0.0024137647 802.99251)
(0 0.0051308565 802.99252)
(0 0.00085581133 802.99272)
(0 0.00078964825 809.42309)
(0 0.00074669007 809.42173)
(0 0.0033124822 809.42351)
(0 0.0050862556 809.42304)
(0 0.00089066073 809.423)
(0 0.0003056071 814.39175)
(0 0.00080366043 814.39035)
(0 0.0037160019 814.39148)
(0 0.0046185642 814.39031)
(0 0.00083187472 814.38993)
(0 -0.000144296 817.77505)
(0 0.00047450938 817.77433)
(0 0.0032706169 817.77438)
(0 0.0035418813 817.7722)
(0 0.00064147856 817.77139)
(0 -0.00017668263 819.63186)
(0 0.00012964964 819.63254)
(0 0.0015813957 819.63129)
(0 0.0016258693 819.6272)
(0 0.00029276478 819.62568)
)
;
    }
    wall_maxX
    {
        type            extrapolatedCalculated;
        value           nonuniform List<vector> 
100
(
(0 0.00010314503 680.39193)
(0 -0.00052688744 680.3926)
(0 -0.00055392755 680.3904)
(0 0.00053085343 680.39107)
(0 0.00026878399 680.39234)
(0 0.00035471455 682.24439)
(0 -0.00071871661 682.24522)
(0 -0.000623234 682.24467)
(0 0.0013141395 682.24611)
(0 0.00045772338 682.24609)
(0 0.0006553165 685.62227)
(0 -0.00024445256 685.62329)
(0 0.00033777554 685.6237)
(0 0.001944307 685.62589)
(0 0.0002527361 685.62515)
(0 0.0010352993 690.5847)
(0 0.00071079368 690.58591)
(0 0.0019795231 690.58688)
(0 0.0027684308 690.58951)
(0 -3.5498346e-05 690.58867)
(0 0.001457798 697.00983)
(0 0.0019333854 697.01111)
(0 0.0039401745 697.01239)
(0 0.003731544 697.01513)
(0 -0.00030796131 697.01437)
(0 0.0018854984 704.73963)
(0 0.0032719986 704.74088)
(0 0.0060057682 704.74232)
(0 0.0047414244 704.74497)
(0 -0.00054706187 704.74431)
(0 0.0022902865 713.58397)
(0 0.0046222896 713.58512)
(0 0.0080361909 713.58661)
(0 0.0057190258 713.58905)
(0 -0.00075353691 713.58847)
(0 0.0026517941 723.32528)
(0 0.0059100304 723.32627)
(0 0.0099314437 723.32773)
(0 0.0066046407 723.32985)
(0 -0.00092964248 723.32937)
(0 0.0029550847 733.72384)
(0 0.0070799244 733.72465)
(0 0.011616124 733.72602)
(0 0.0073544952 733.72775)
(0 -0.0010762208 733.72735)
(0 0.003189067 744.52374)
(0 0.0080890262 744.52433)
(0 0.013031454 744.52556)
(0 0.0079364853 744.52684)
(0 -0.0011930285 744.52654)
(0 0.0033455289 755.4591)
(0 0.008902931 755.45945)
(0 0.01413085 755.46051)
(0 0.0083269095 755.46129)
(0 -0.001279535 755.46108)
(0 0.0034184845 766.26067)
(0 0.0094932902 766.26075)
(0 0.014877047 766.2616)
(0 0.0085080033 766.26186)
(0 -0.0013356533 766.26174)
(0 0.0034035585 776.6624)
(0 0.0098355637 776.66222)
(0 0.015239489 776.66281)
(0 0.0084656355 776.66253)
(0 -0.0013624184 776.66249)
(0 0.0032971256 786.40806)
(0 0.0099059725 786.4076)
(0 0.015190855 786.4079)
(0 0.0081864518 786.40706)
(0 -0.001362746 786.40709)
(0 0.0030947856 795.25753)
(0 0.0096762314 795.25677)
(0 0.014701382 795.25673)
(0 0.0076537198 795.25531)
(0 -0.0013424061 795.25539)
(0 0.0027883595 802.99272)
(0 0.00910349 802.99162)
(0 0.013729082 802.99116)
(0 0.0068413533 802.98912)
(0 -0.0013111856 802.98921)
(0 0.0023598072 809.423)
(0 0.0081103286 809.42147)
(0 0.012202848 809.42044)
(0 0.0057072696 809.41774)
(0 -0.0012833071 809.4178)
(0 0.0017713905 814.38993)
(0 0.0065480083 814.38787)
(0 0.0099937015 814.38601)
(0 0.0041957232 814.38254)
(0 -0.0012713705 814.38261)
(0 0.00098028197 817.77139)
(0 0.0041872185 817.76917)
(0 0.0068787759 817.7663)
(0 0.0023022671 817.76194)
(0 -0.0012398088 817.76267)
(0 0.00029146532 819.62568)
(0 0.001465275 819.62382)
(0 0.0027656462 819.61995)
(0 0.00055647388 819.6137)
(0 -0.00078739692 819.61731)
)
;
    }
    wall_minY
    {
        type            extrapolatedCalculated;
        value           nonuniform List<vector> 
100
(
(0.00079931638 0 680.39705)
(0.0014628861 0 682.24939)
(0.0015774319 0 685.6255)
(0.0017310688 0 690.5857)
(0.0019138572 0 697.00941)
(0.0020934814 0 704.73828)
(0.0022467675 0 713.582)
(0.002358736 0 723.32287)
(0.002420125 0 733.72114)
(0.0024255514 0 744.52086)
(0.0023723109 0 755.45616)
(0.002259534 0 766.25776)
(0.0020874299 0 776.65966)
(0.0018563799 0 786.40564)
(0.0015656685 0 795.25562)
(0.0012119528 0 802.99161)
(0.00078964825 0 809.42309)
(0.0003056071 0 814.39175)
(-0.000144296 0 817.77505)
(-0.00017668263 0 819.63186)
(-0.00045389205 0 680.40091)
(-0.0017362625 0 682.25056)
(-0.0031229539 0 685.62591)
(-0.0039534054 0 690.5862)
(-0.0043776888 0 697.00995)
(-0.004515386 0 704.73878)
(-0.004441445 0 713.5824)
(-0.0042028318 0 723.32313)
(-0.0038312003 0 733.72124)
(-0.0033508953 0 744.52079)
(-0.0027837677 0 755.45591)
(-0.0021522655 0 766.25734)
(-0.0014819551 0 776.65906)
(-0.00080449092 0 786.40486)
(-0.00016217917 0 795.25465)
(0.00038455432 0 802.99044)
(0.00074669008 0 809.42173)
(0.00080366043 0 814.39035)
(0.00047450938 0 817.77433)
(0.00012964964 0 819.63254)
(-0.0022439093 0 680.39498)
(-0.0054364138 0 682.24672)
(-0.0074078015 0 685.62329)
(-0.008398729 0 690.58444)
(-0.0087567043 0 697.00885)
(-0.0086665657 0 704.73822)
(-0.0082357876 0 713.58231)
(-0.0075330055 0 723.32348)
(-0.0066079571 0 733.72199)
(-0.0055023247 0 744.52191)
(-0.0042557288 0 755.45736)
(-0.0029093224 0 766.25907)
(-0.0015085813 0 776.66101)
(-0.00010661392 0 786.40696)
(0.001230477 0 795.25681)
(0.0024137647 0 802.99251)
(0.0033124822 0 809.42351)
(0.0037160019 0 814.39148)
(0.0032706169 0 817.77438)
(0.0015813957 0 819.63129)
(-0.0007916251 0 680.3928)
(-0.0022010863 0 682.2454)
(-0.003123599 0 685.62294)
(-0.0032219311 0 690.58486)
(-0.0028639679 0 697.00969)
(-0.002239031 0 704.7393)
(-0.001453769 0 713.58353)
(-0.00057608157 0 723.32476)
(0.00034573318 0 733.72327)
(0.001273548 0 744.52314)
(0.0021744415 0 755.4585)
(0.0030177612 0 766.26008)
(0.0037728132 0 776.66186)
(0.004406114 0 786.4076)
(0.0048770965 0 795.25717)
(0.0051308565 0 802.99252)
(0.0050862556 0 809.42304)
(0.0046185642 0 814.39031)
(0.0035418813 0 817.7722)
(0.0016258693 0 819.6272)
(-0.00013372159 0 680.39193)
(-0.00046350945 0 682.24439)
(-0.00080326616 0 685.62227)
(-0.00091547377 0 690.5847)
(-0.00090382551 0 697.00983)
(-0.00081871561 0 704.73963)
(-0.00068638509 0 713.58397)
(-0.00052267454 0 723.32528)
(-0.00033846497 0 733.72384)
(-0.00014223315 0 744.52374)
(5.8624178e-05 0 755.4591)
(0.00025701141 0 766.26067)
(0.00044552974 0 776.6624)
(0.00061577813 0 786.40806)
(0.00075729176 0 795.25753)
(0.00085581134 0 802.99272)
(0.00089066073 0 809.423)
(0.00083187472 0 814.38993)
(0.00064147856 0 817.77139)
(0.00029276478 0 819.62568)
)
;
    }
    wall_maxY
    {
        type            extrapolatedCalculated;
        value           nonuniform List<vector> 
100
(
(0.00010314503 0 680.39193)
(0.00035471456 0 682.24439)
(0.0006553165 0 685.62227)
(0.0010352993 0 690.5847)
(0.001457798 0 697.00983)
(0.0018854984 0 704.73963)
(0.0022902865 0 713.58397)
(0.0026517941 0 723.32528)
(0.0029550847 0 733.72384)
(0.003189067 0 744.52374)
(0.0033455289 0 755.4591)
(0.0034184845 0 766.26067)
(0.0034035585 0 776.6624)
(0.0032971256 0 786.40806)
(0.0030947856 0 795.25753)
(0.0027883595 0 802.99272)
(0.0023598072 0 809.423)
(0.0017713905 0 814.38993)
(0.00098028197 0 817.77139)
(0.00029146531 0 819.62568)
(-0.00052688744 0 680.3926)
(-0.0007187166 0 682.24522)
(-0.00024445255 0 685.62329)
(0.00071079369 0 690.58591)
(0.0019333854 0 697.01111)
(0.0032719986 0 704.74088)
(0.0046222896 0 713.58512)
(0.0059100304 0 723.32627)
(0.0070799244 0 733.72465)
(0.0080890262 0 744.52433)
(0.008902931 0 755.45945)
(0.0094932902 0 766.26075)
(0.0098355637 0 776.66222)
(0.0099059725 0 786.4076)
(0.0096762314 0 795.25677)
(0.00910349 0 802.99162)
(0.0081103286 0 809.42147)