/*--------------------------------*- C++ -*----------------------------------*\
| =========                 |                                                 |
| \\      /  F ield         | OpenFOAM: The Open Source CFD Toolbox           |
|  \\    /   O peration     | Version:  v2106                                 |
|   \\  /    A nd           | Website:  www.openfoam.com                      |
|    \\/     M anipulation  |                                                 |
\*---------------------------------------------------------------------------*/
FoamFile
{
    version     2.0;
    format      ascii;
    arch        "LSB;label=32;scalar=64";
    class       volScalarField;
    location    "20";
    object      gradTz;
}
// * * * * * * * * * * * * * * * * * * * * * * * * * * * * * * * * * * * * * //

dimensions      [0 -1 0 1 0 0 0];

internalField   nonuniform List<scalar> 
500
(
680.39705
680.40091
680.39498
680.3928
680.39193
680.40091
680.39978
680.39441
680.39301
680.3926
680.39498
680.39441
680.38982
680.38945
680.3904
680.3928
680.39301
680.38945
680.38974
680.39107
680.39193
680.3926
680.3904
680.39107
680.39234
682.24939
682.25056
682.24672
682.2454
682.24439
682.25056
682.2495
682.24616
682.2458
682.24522
682.24672
682.24616
682.24357
682.24419
682.24467
682.2454
682.2458
682.24419
682.2454
682.24611
682.24439
682.24522
682.24467
682.24611
682.24609
685.6255
685.62591
685.62329
685.62294
685.62227
685.62591
685.62492
685.62284
685.62354
685.62329
685.62329
685.62284
685.62146
685.62308
685.6237
685.62294
685.62354
685.62308
685.62519
685.62589
685.62227
685.62329
685.6237
685.62589
685.62515
690.5857
690.5862
690.58444
690.58486
690.5847
690.5862
690.58562
690.58438
690.58576
690.58591
690.58444
690.58438
690.58379
690.586
690.58688
690.58486
690.58576
690.586
690.58862
690.58951
690.5847
690.58591
690.58688
690.58951
690.58867
697.00941
697.00995
697.00885
697.00969
697.00983
697.00995
697.00965
697.00902
697.01073
697.01111
697.00885
697.00902
697.00897
697.0114
697.01239
697.00969
697.01073
697.0114
697.01418
697.01513
697.00983
697.01111
697.01239
697.01513
697.01437
704.73828
704.73878
704.73822
704.7393
704.73963
704.73878
704.73869
704.73853
704.74037
704.74088
704.73822
704.73853
704.73887
704.74132
704.74232
704.7393
704.74037
704.74132
704.74404
704.74497
704.73963
704.74088
704.74232
704.74497
704.74431
713.582
713.5824
713.58231
713.58353
713.58397
713.5824
713.58246
713.58271
713.58455
713.58512
713.58231
713.58271
713.58335
713.58567
713.58661
713.58353
713.58455
713.58567
713.58819
713.58905
713.58397
713.58512
713.58661
713.58905
713.58847
723.32287
723.32313
723.32348
723.32476
723.32528
723.32313
723.32332
723.32393
723.32568
723.32627
723.32348
723.32393
723.32482
723.32691
723.32773
723.32476
723.32568
723.32691
723.32912
723.32985
723.32528
723.32627
723.32773
723.32985
723.32937
733.72114
733.72124
733.72199
733.72327
733.72384
733.72124
733.72155
733.72247
733.72406
733.72465
733.72199
733.72247
733.72356
733.72534
733.72602
733.72327
733.72406
733.72534
733.72718
733.72775
733.72384
733.72465
733.72602
733.72775
733.72735
744.52086
744.52079
744.52191
744.52314
744.52374
744.52079
744.52119
744.52239
744.52376
744.52433
744.52191
744.52239
744.52363
744.52505
744.52556
744.52314
744.52376
744.52505
744.52645
744.52684
744.52374
744.52433
744.52556
744.52684
744.52654
755.45616
755.45591
755.45736
755.4585
755.4591
755.45591
755.45639
755.45782
755.45893
755.45945
755.45736
755.45782
755.45918
755.46019
755.46051
755.4585
755.45893
755.46019
755.46109
755.46129
755.4591
755.45945
755.46051
755.46129
755.46108
766.25776
766.25734
766.25907
766.26008
766.26067
766.25734
766.25787
766.25949
766.26031
766.26075
766.25907
766.25949
766.26092
766.26149
766.2616
766.26008
766.26031
766.26149
766.26187
766.26186
766.26067
766.26075
766.2616
766.26186
766.26174
776.65966
776.65906
776.66101
776.66186
776.6624
776.65906
776.65963
776.66138
776.66187
776.66222
776.66101
776.66138
776.66283
776.66292
776.66281
776.66186
776.66187
776.66292
776.66276
776.66253
776.6624
776.66222
776.66281
776.66253
776.66249
786.40564
786.40486
786.40696
786.4076
786.40806
786.40486
786.40543
786.40725
786.40736
786.4076
786.40696
786.40725
786.40866
786.40824
786.4079
786.4076
786.40736
786.40824
786.40752
786.40706
786.40806
786.4076
786.4079
786.40706
786.40709
795.25562
795.25465
795.25681
795.25717
795.25753
795.25465
795.25519
795.25698
795.25668
795.25677
795.25681
795.25698
795.25827
795.25732
795.25673
795.25717
795.25668
795.25732
795.256
795.25531
795.25753
795.25677
795.25673
795.25531
795.25539
802.99161
802.99044
802.99251
802.99252
802.99272
802.99044
802.99087
802.99251
802.99172
802.99162
802.99251
802.99251
802.99356
802.99202
802.99116
802.99252
802.99172
802.99202
802.99007
802.98912
802.99272
802.99162
802.99116
802.98912
802.98921
809.42309
809.42173
809.42351
809.42304
809.423
809.42173
809.42195
809.42322
809.42184
809.42147
809.42351
809.42322
809.42384
809.42163
809.42044
809.42304
809.42184
809.42163
809.41898
809.41774
809.423
809.42147
809.42044
809.41774
809.4178
814.39175
814.39035
814.39148
814.39031
814.38993
814.39035
814.3902
814.39076
814.38858
814.38787
814.39148
814.39076
814.39062
814.38756
814.38601
814.39031
814.38858
814.38756
814.38409
814.38254
814.38993
814.38787
814.38601
814.38254
814.38261
817.77505
817.77433
817.77438
817.7722
817.77139
817.77433
817.77406
817.77348
817.77018
817.76917
817.77438
817.77348
817.77218
817.768
817.7663
817.7722
817.77018
817.768
817.76346
817.76194
817.77139
817.76917
817.7663
817.76194
817.76267
819.63186
819.63254
819.63129
819.6272
819.62568
819.63254
819.63287
819.63093
819.62543
819.62382
819.63129
819.63093
819.62828
819.62194
819.61995
819.6272
819.62543
819.62194
819.61528
819.6137
819.62568
819.62382
819.61995
819.6137
819.61731
)
;

boundaryField
{
    wall_minX
    {
        type            calculated;
        value           nonuniform List<scalar> 
100
(
680.39705
680.40091
680.39498
680.3928
680.39193
682.24939
682.25056
682.24672
682.2454
682.24439
685.6255
685.62591
685.62329
685.62294
685.62227
690.5857
690.5862
690.58444
690.58486
690.5847
697.00941
697.00995
697.00885
697.00969
697.00983
704.73828
704.73878
704.73822
704.7393
704.73963
713.582
713.5824
713.58231
713.58353
713.58397
723.32287
723.32313
723.32348
723.32476
723.32528
733.72114
733.72124
733.72199
733.72327
733.72384
744.52086
744.52079
744.52191
744.52314
744.52374
755.45616
755.45591
755.45736
755.4585
755.4591
766.25776
766.25734
766.25907
766.26008
766.26067
776.65966
776.65906
776.66101
776.66186
776.6624
786.40564
786.40486
786.40696
786.4076
786.40806
795.25562
795.25465
795.25681
795.25717
795.25753
802.99161
802.99044
802.99251
802.99252
802.99272
809.42309
809.42173
809.42351
809.42304
809.423
814.39175
814.39035
814.39148
814.39031
814.38993
817.77505
817.77433
817.77438
817.7722
817.77139
819.63186
819.63254
819.63129
819.6272
819.62568
)
;
    }
    wall_maxX
    {
        type            calculated;
        value           nonuniform List<scalar> 
100
(
680.39193
680.3926
680.3904
680.39107
680.39234
682.24439
682.24522
682.24467
682.24611
682.24609
685.62227
685.62329
685.6237
685.62589
685.62515
690.5847
690.58591
690.58688
690.58951
690.58867
697.00983
697.01111
697.01239
697.01513
697.01437
704.73963
704.74088
704.74232
704.74497
704.74431
713.58397
713.58512
713.58661
713.58905
713.58847
723.32528
723.32627
723.32773
723.32985
723.32937
733.72384
733.72465
733.72602
733.72775
733.72735
744.52374
744.52433
744.52556
744.52684
744.52654
755.4591
755.45945
755.46051
755.46129
755.46108
766.26067
766.26075
766.2616
766.26186
766.26174
776.6624
776.66222
776.66281
776.66253
776.66249
786.40806
786.4076
786.4079
786.40706
786.40709
795.25753
795.25677
795.25673
795.25531
795.25539
802.99272
802.99162
802.99116
802.98912
802.98921
809.423
809.42147
809.42044
809.41774
809.4178
814.38993
814.38787
814.38601
814.38254
814.38261
817.77139
817.76917
817.7663
817.76194
817.76267
819.62568
819.62382
819.61995
819.6137
819.61731
)
;
    }
    wall_minY
    {
        type            calculated;
        value           nonuniform List<scalar> 
100
(
680.39705
682.24939
685.6255
690.5857
697.00941
704.73828
713.582
723.32287
733.72114
744.52086
755.45616
766.25776
776.65966
786.40564
795.25562
802.99161
809.42309
814.39175
817.77505
819.63186
680.40091
682.25056
685.62591
690.5862
697.00995
704.73878
713.5824
723.32313
733.72124
744.52079
755.45591
766.25734
776.65906
786.40486
795.25465
802.99044
809.42173
814.39035
817.77433
819.63254
680.39498
682.24672
685.62329
690.58444
697.00885
704.73822
713.58231
723.32348
733.72199
744.52191
755.45736
766.25907
776.66101
786.40696
795.25681
802.99251
809.42351
814.39148
817.77438
819.63129
680.3928
682.2454
685.62294
690.58486
697.00969
704.7393
713.58353
723.32476
733.72327
744.52314
755.4585
766.26008
776.66186
786.4076
795.25717
802.99252
809.42304
814.39031
817.7722
819.6272
680.39193
682.24439
685.62227
690.5847
697.00983
704.73963
713.58397
723.32528
733.72384
744.52374
755.4591
766.26067
776.6624
786.40806
795.25753
802.99272
809.423
814.38993
817.77139
819.62568
)
;
    }
    wall_maxY
    {
        type            calculated;
        value           nonuniform List<scalar> 
100
(
680.39193
682.24439
685.62227
690.5847
697.00983
704.73963
713.58397
723.32528
733.72384
744.52374
755.4591
766.26067
776.6624
786.40806
795.25753
802.99272
809.423
814.38993
817.77139
819.62568
680.3926
682.24522
685.62329
690.58591
697.01111
704.74088
713.58512
723.32627
733.72465
744.52433
755.45945
766.26075
776.66222
786.4076
795.25677
802.99162
809.42147
814.38787
817.76917
819.62382
680.3904
682.24467
685.6237
690.58688
697.01239
704.74232
713.58661
723.32773
733.72602
744.52556
755.46051
766.2616
776.66281
786.4079
795.25673
802.99116
809.42044
814.38601
817.7663
819.61995
680.39107
682.24611
685.62589
690.58951
697.01513
704.74497
713.58905
723.32985
733.72775
744.52684
755.46129
766.26186
776.66253
786.40706
795.25531
802.98912
809.41774
814.38254
817.76194
819.6137
680.39234
682.24609
685.62515
690.58867
697.01437
704.74431
713.58847
723.32937
733.72735
744.52654
755.46108
766.26174
776.66249
786.40709
795.25539
802.98921
809.4178
814.38261
817.76267
819.61731
)
;
    }
    inlet_minZ
    {
        type            calculated;
        value           nonuniform List<scalar> 
25
(
680.11066
680.11545
680.10884
680.10648
680.10567
680.11545
680.1142
680.1082
680.10658
680.10629
680.10884
680.1082
680.10297
680.10241
680.10357
680.10648
680.10658
680.10241
680.1025
680.10408
680.10567
680.10629
680.10357
680.10408
680.10569
)
;
    }
    outlet_maxZ
    {
        type            calculated;
        value           nonuniform List<scalar> 
25
(
819.91911
819.92017
819.91859
819.91384
819.91208
819.92017
819.92074
819.91847
819.91219
819.91033
819.91859
819.91847
819.91548
819.90837
819.90622
819.91384
819.91219
819.90837
819.90096
819.89927
819.91208
819.91033
819.90622
819.89927
819.904
)
;
    }
}


// ************************************************************************* //
