/*--------------------------------*- C++ -*----------------------------------*\
| =========                 |                                                 |
| \\      /  F ield         | OpenFOAM: The Open Source CFD Toolbox           |
|  \\    /   O peration     | Version:  v2106                                 |
|   \\  /    A nd           | Website:  www.openfoam.com                      |
|    \\/     M anipulation  |                                                 |
\*---------------------------------------------------------------------------*/
FoamFile
{
    version     2.0;
    format      ascii;
    arch        "LSB;label=32;scalar=64";
    class       volScalarField;
    location    "20";
    object      laplacianT;
}
// * * * * * * * * * * * * * * * * * * * * * * * * * * * * * * * * * * * * * //

dimensions      [0 -2 0 1 0 0 0];

internalField   nonuniform List<scalar> 
500
(
43.19868
42.502137
43.011494
42.989834
42.974336
42.502137
42.598895
42.927391
42.889947
42.869182
43.011494
42.927391
43.25906
43.206326
43.076994
42.989834
42.889947
43.206326
43.160349
43.037506
42.974336
42.869182
43.076994
43.037506
42.916523
128.39474
127.18497
128.15023
128.10017
128.11687
127.18497
127.29983
127.9381
127.80056
127.86301
128.15023
127.9381
128.57795
128.38736
128.19353
128.10017
127.80056
128.38736
128.21153
128.02826
128.11687
127.86301
128.19353
128.02826
127.90812
210.12858
208.73842
209.99592
209.87371
210.01218
208.73842
208.992
209.82338
209.48302
209.64952
209.99592
209.82338
210.6603
210.23953
210.0437
209.87371
209.48302
210.23953
209.83699
209.64385
210.01218
209.64952
210.0437
209.64385
209.78507
286.88342
285.27905
286.79198
286.56241
286.74296
285.27905
285.60836
286.61109
286.04638
286.28233
286.79198
286.61109
287.62216
286.94916
286.72627
286.56241
286.04638
286.94916
286.29422
286.0486
286.74296
286.28233
286.72627
286.0486
286.50162
356.5812
354.79902
356.53095
356.20022
356.41665
354.79902
355.19349
356.34354
355.56771
355.86968
356.53095
356.34354
357.50449
356.59469
356.35298
356.20022
355.56771
356.59469
355.70217
355.40829
356.41665
355.86968
356.35298
355.40829
356.17107
417.50828
415.5919
417.50006
417.07621
417.32306
415.5919
416.04161
417.31052
416.34227
416.7031
417.50006
417.31052
418.59263
417.46799
417.21384
417.07621
416.34227
417.46799
416.35951
416.02425
417.32306
416.7031
417.21384
416.02425
417.07949
468.16518
466.16166
468.19894
467.69225
467.96336
466.16166
466.65543
468.01184
466.8748
467.28556
468.19894
468.01184
469.38342
468.07141
467.81108
467.69225
466.8748
468.07141
466.77409
466.40555
467.96336
467.28556
467.81108
466.40555
467.72747
507.30349
505.26208
507.37827
506.80111
507.08975
505.26208
505.78772
507.19815
505.92022
506.37074
507.37827
507.19815
508.62538
507.15817
506.89803
506.80111
505.92022
507.15817
505.70384
505.31104
507.08975
506.37074
506.89803
505.31104
506.86712
533.95755
531.92848
534.07144
533.43797
533.73701
531.92848
532.47302
533.90271
532.51527
532.99446
534.07144
533.90271
535.3504
533.76406
533.51049
533.43797
532.51527
533.76406
532.18846
531.78103
533.73701
532.99446
533.51049
531.78103
533.53298
547.46843
545.50167
547.61861
546.94439
547.24645
545.50167
546.05169
547.46541
546.00259
546.49864
547.61861
547.46541
548.89789
547.23144
546.99067
546.94439
546.00259
547.23144
545.57332
545.16129
547.24645
546.49864
546.99067
545.16129
547.06599
547.50046
545.64443
547.68321
546.98483
547.28248
545.64443
546.18638
547.54931
546.04711
546.5478
547.68321
547.54931
548.9313
547.22575
547.00372
546.98483
546.04711
547.22575
545.52592
545.11943
547.28248
546.5478
547.00372
545.11943
547.13002
534.04965
532.35011
534.2605
533.55516
533.84107
532.35011
532.87065
534.14922
532.64462
533.13763
534.2605
534.14922
535.44668
533.74402
533.5462
533.55516
532.64462
533.74402
532.04434
531.6534
533.84107
533.13763
533.5462
531.6534
533.72039
507.44421
505.94305
507.678
506.98309
507.25022
505.94305
506.42937
507.59209
506.12217
506.59537
507.678
507.59209
508.77307
507.11526
506.94654
506.98309
506.12217
507.11526
505.45761
505.09187
507.25022
506.59537
506.94654
505.09187
507.16438
468.33663
467.0709
468.5877
467.92037
468.16218
467.0709
467.51105
468.52931
467.13032
467.57208
468.5877
468.52931
469.56475
467.99267
467.85724
467.92037
467.13032
467.99267
466.41792
466.08641
468.16218
467.57208
467.85724
466.08641
468.11343
417.68792
416.68888
417.95023
417.327
417.53757
416.68888
417.07209
417.92086
416.62735
417.02683
417.95023
417.92086
418.78532
417.33778
417.23902
417.327
416.62735
417.33778
415.88481
415.59575
417.53757
417.02683
417.23902
415.59575
417.5274
356.74402
356.03637
357.01146
356.44777
356.62202
356.03637
356.35355
357.01195
355.85596
356.20346
357.01146
357.01195
357.68425
356.39707
356.33756
356.44777
355.85596
356.39707
355.10183
354.86247
356.62202
356.20346
356.33756
354.86247
356.65128
287.00521
286.60611
287.27231
286.78195
286.91586
286.60611
286.85137
287.30316
286.3134
286.60087
287.27231
287.30316
287.76704
286.67213
286.65383
286.78195
286.3134
286.67213
285.56671
285.38344
286.91586
286.60087
286.65383
285.38344
286.98582
210.18919
210.10407
210.45397
210.04793
210.13892
210.10407
210.28331
210.51913
209.72002
209.94298
210.45397
210.51913
210.76563
209.88992
209.91627
210.04793
209.72002
209.88992
209.00151
208.88188
210.13892
209.94298
209.91627
208.88188
210.26137
128.18949
128.37999
128.46411
128.15023
128.19809
128.37999
128.55694
128.60419
128.01726
128.18494
128.46411
128.60419
128.66077
128.02763
128.11973
128.15023
128.01726
128.02763
127.37998
127.35098
128.19809
128.18494
128.11973
127.35098
128.49787
43.03315
43.195595
43.176919
42.96302
42.960943
43.195595
43.323551
43.301373
42.958401
42.989592
43.176919
43.301373
43.285332
42.931694
42.957431
42.96302
42.958401
42.931694
42.566139
42.501098
42.960943
42.989592
42.957431
42.501098
43.239781
)
;

boundaryField
{
    wall_minX
    {
        type            extrapolatedCalculated;
        value           nonuniform List<scalar> 
100
(
43.19868
42.502137
43.011494
42.989834
42.974336
128.39474
127.18497
128.15023
128.10017
128.11687
210.12858
208.73842
209.99592
209.87371
210.01218
286.88342
285.27905
286.79198
286.56241
286.74296
356.5812
354.79902
356.53095
356.20022
356.41665
417.50828
415.5919
417.50006
417.07621
417.32306
468.16518
466.16166
468.19894
467.69225
467.96336
507.30349
505.26208
507.37827
506.80111
507.08975
533.95755
531.92848
534.07144
533.43797
533.73701
547.46843
545.50167
547.61861
546.94439
547.24645
547.50046
545.64443
547.68321
546.98483
547.28248
534.04965
532.35011
534.2605
533.55516
533.84107
507.44421
505.94305
507.678
506.98309
507.25022
468.33663
467.0709
468.5877
467.92037
468.16218
417.68792
416.68888
417.95023
417.327
417.53757
356.74402
356.03637
357.01146
356.44777
356.62202
287.00521
286.60611
287.27231
286.78195
286.91586
210.18919
210.10407
210.45397
210.04793
210.13892
128.18949
128.37999
128.46411
128.15023
128.19809
43.03315
43.195595
43.176919
42.96302
42.960943
)
;
    }
    wall_maxX
    {
        type            extrapolatedCalculated;
        value           nonuniform List<scalar> 
100
(
42.974336
42.869182
43.076994
43.037506
42.916523
128.11687
127.86301
128.19353
128.02826
127.90812
210.01218
209.64952
210.0437
209.64385
209.78507
286.74296
286.28233
286.72627
286.0486
286.50162
356.41665
355.86968
356.35298
355.40829
356.17107
417.32306
416.7031
417.21384
416.02425
417.07949
467.96336
467.28556
467.81108
466.40555
467.72747
507.08975
506.37074
506.89803
505.31104
506.86712
533.73701
532.99446
533.51049
531.78103
533.53298
547.24645
546.49864
546.99067
545.16129
547.06599
547.28248
546.5478
547.00372
545.11943
547.13002
533.84107
533.13763
533.5462
531.6534
533.72039
507.25022
506.59537
506.94654
505.09187
507.16438
468.16218
467.57208
467.85724
466.08641
468.11343
417.53757
417.02683
417.23902
415.59575
417.5274
356.62202
356.20346
356.33756
354.86247
356.65128
286.91586
286.60087
286.65383
285.38344
286.98582
210.13892
209.94298
209.91627
208.88188
210.26137
128.19809
128.18494
128.11973
127.35098
128.49787
42.960943
42.989592
42.957431
42.501098
43.239781
)
;
    }
    wall_minY
    {
        type            extrapolatedCalculated;
        value           nonuniform List<scalar> 
100
(
43.19868
128.39474
210.12858
286.88342
356.5812
417.50828
468.16518
507.30349
533.95755
547.46843
547.50046
534.04965
507.44421
468.33663
417.68792
356.74402
287.00521
210.18919
128.18949
43.03315
42.502137
127.18497
208.73842
285.27905
354.79902
415.5919
466.16166
505.26208
531.92848
545.50167
545.64443
532.35011
505.94305
467.0709
416.68888
356.03637
286.60611
210.10407
128.37999
43.195595
43.011494
128.15023
209.99592
286.79198
356.53095
417.50006
468.19894
507.37827
534.07144
547.61861
547.68321
534.2605
507.678
468.5877
417.95023
357.01146
287.27231
210.45397
128.46411
43.176919
42.989834
128.10017
209.87371
286.56241
356.20022
417.07621
467.69225
506.80111
533.43797
546.94439
546.98483
533.55516
506.98309
467.92037
417.327
356.44777
286.78195
210.04793
128.15023
42.96302
42.974336
128.11687
210.01218
286.74296
356.41665
417.32306
467.96336
507.08975
533.73701
547.24645
547.28248
533.84107
507.25022
468.16218
417.53757
356.62202
286.91586
210.13892
128.19809
42.960943
)
;
    }
    wall_maxY
    {
        type            extrapolatedCalculated;
        value           nonuniform List<scalar> 
100
(
42.974336
128.11687
210.01218
286.74296
356.41665
417.32306
467.96336
507.08975
533.73701
547.24645
547.28248
533.84107
507.25022
468.16218
417.53757
356.62202
286.91586
210.13892
128.19809
42.960943
42.869182
127.86301
209.64952
286.28233
355.86968
416.7031
467.28556
506.37074
532.99446
546.49864
546.5478
533.13763
506.59537
467.57208
417.02683
356.20346
286.60087
209.94298
128.18494
42.989592
43.076994
128.19353
210.0437
286.72627
356.35298
417.21384
467.81108
506.89803
533.51049
546.99067
547.00372
533.5462
506.94654
467.85724
417.23902
356.33756
286.65383
209.91627
128.11973
42.957431
43.037506
128.02826
209.64385
286.0486
355.40829
416.02425
466.40555
505.31104
531.78103
545.16129
545.11943
531.6534
505.09187
466.08641
415.59575
354.86247
285.38344
208.88188
127.35098
42.501098
42.916523
127.90812
209.78507
286.50162
356.17107
417.07949
467.72747
506.86712
533.53298
547.06599
547.13002
533.72039
507.16438
468.11343
417.5274
356.65128
286.98582
210.26137
128.49787
43.239781
)
;
    }
    inlet_minZ
    {
        type            extrapolatedCalculated;
        value           nonuniform List<scalar> 
25
(
43.19868
42.502137
43.011494
42.989834
42.974336
42.502137
42.598895
42.927391
42.889947
42.869182
43.011494
42.927391
43.25906
43.206326
43.076994
42.989834
42.889947
43.206326
43.160349
43.037506
42.974336
42.869182
43.076994
43.037506
42.916523
)
;
    }
    outlet_maxZ
    {
        type            extrapolatedCalculated;
        value           nonuniform List<scalar> 
25
(
43.03315
43.195595
43.176919
42.96302
42.960943
43.195595
43.323551
43.301373
42.958401
42.989592
43.176919
43.301373
43.285332
42.931694
42.957431
42.96302
42.958401
42.931694
42.566139
42.501098
42.960943
42.989592
42.957431
42.501098
43.239781
)
;
    }
}


// ************************************************************************* //
