/*--------------------------------*- C++ -*----------------------------------*\
| =========                 |                                                 |
| \\      /  F ield         | OpenFOAM: The Open Source CFD Toolbox           |
|  \\    /   O peration     | Version:  v2106                                 |
|   \\  /    A nd           | Website:  www.openfoam.com                      |
|    \\/     M anipulation  |                                                 |
\*---------------------------------------------------------------------------*/
FoamFile
{
    version     2.0;
    format      ascii;
    arch        "LSB;label=32;scalar=64";
    class       volScalarField;
    location    "20";
    object      T;
}
// * * * * * * * * * * * * * * * * * * * * * * * * * * * * * * * * * * * * * //

dimensions      [0 0 0 1 0 0 0];

internalField   nonuniform List<scalar> 
4000
(
276.40216
276.40215
276.40219
276.40217
276.40216
276.40216
276.40216
276.40216
276.40216
276.40216
276.40215
276.40218
276.40219
276.40217
276.40217
276.40216
276.40217
276.40217
276.40217
276.40216
276.40219
276.40219
276.4022
276.40219
276.40218
276.40218
276.40218
276.40218
276.40218
276.40218
276.40217
276.40217
276.40219
276.40217
276.40217
276.40216
276.40217
276.40217
276.40217
276.40217
276.40216
276.40217
276.40218
276.40217
276.40216
276.40216
276.40216
276.40217
276.40217
276.40217
276.40216
276.40216
276.40218
276.40216
276.40216
276.40216
276.40216
276.40217
276.40217
276.40217
276.40216
276.40217
276.40218
276.40217
276.40216
276.40216
276.40216
276.40217
276.40217
276.40217
276.40216
276.40217
276.40218
276.40217
276.40217
276.40217
276.40217
276.40217
276.40218
276.40218
276.40216
276.40217
276.40218
276.40217
276.40217
276.40217
276.40217
276.40218
276.40218
276.40218
276.40216
276.40216
276.40218
276.40217
276.40217
276.40217
276.40217
276.40218
276.40218
276.40217
283.20865
283.20863
283.2087
283.20867
283.20865
283.20864
283.20864
283.20864
283.20865
283.20865
283.20863
283.20867
283.2087
283.20866
283.20864
283.20864
283.20864
283.20865
283.20864
283.20864
283.2087
283.2087
283.20872
283.20869
283.20867
283.20867
283.20867
283.20868
283.20868
283.20867
283.20867
283.20866
283.20869
283.20865
283.20864
283.20864
283.20864
283.20865
283.20866
283.20865
283.20865
283.20864
283.20867
283.20864
283.20862
283.20862
283.20863
283.20864
283.20865
283.20865
283.20864
283.20864
283.20867
283.20864
283.20862
283.20862
283.20863
283.20864
283.20865
283.20865
283.20864
283.20864
283.20867
283.20864
283.20863
283.20863
283.20864
283.20866
283.20866
283.20866
283.20864
283.20865
283.20868
283.20865
283.20864
283.20864
283.20866
283.20867
283.20868
283.20867
283.20865
283.20864
283.20868
283.20866
283.20865
283.20865
283.20866
283.20868
283.20868
283.20868
283.20865
283.20864
283.20867
283.20865
283.20865
283.20865
283.20866
283.20867
283.20868
283.20867
290.02156
290.02153
290.02162
290.02157
290.02154
290.02153
290.02154
290.02154
290.02154
290.02156
290.02153
290.02159
290.02162
290.02157
290.02154
290.02153
290.02154
290.02155
290.02154
290.02153
290.02162
290.02162
290.02164
290.02159
290.02157
290.02156
290.02158
290.02159
290.02158
290.02157
290.02157
290.02157
290.02159
290.02155
290.02152
290.02152
290.02153
290.02156
290.02156
290.02155
290.02154
290.02154
290.02157
290.02152
290.0215
290.0215
290.02152
290.02154
290.02154
290.02154
290.02153
290.02153
290.02156
290.02152
290.0215
290.0215
290.02152
290.02154
290.02155
290.02155
290.02154
290.02154
290.02158
290.02153
290.02152
290.02152
290.02154
290.02156
290.02157
290.02157
290.02154
290.02155
290.02159
290.02156
290.02154
290.02154
290.02156
290.02159
290.02159
290.02159
290.02154
290.02154
290.02158
290.02156
290.02154
290.02155
290.02157
290.02159
290.02159
290.02158
290.02156
290.02153
290.02157
290.02155
290.02154
290.02155
290.02157
290.02159
290.02158
290.02158
296.84513
296.84509
296.84519
296.84513
296.84509
296.84508
296.84509
296.8451
296.8451
296.84511
296.84509
296.84515
296.84518
296.84512
296.84509
296.84508
296.84509
296.84511
296.84509
296.84508
296.84519
296.84518
296.84521
296.84515
296.84512
296.84512
296.84513
296.84516
296.84514
296.84512
296.84513
296.84512
296.84515
296.84509
296.84506
296.84506
296.84508
296.84511
296.84511
296.8451
296.84509
296.84509
296.84512
296.84506
296.84503
296.84504
296.84506
296.8451
296.8451
296.84509
296.84508
296.84508
296.84512
296.84506
296.84504
296.84504
296.84507
296.8451
296.84511
296.8451
296.84509
296.84509
296.84513
296.84508
296.84506
296.84507
296.84509
296.84513
296.84514
296.84513
296.8451
296.84511
296.84516
296.84511
296.8451
296.8451
296.84513
296.84517
296.84517
296.84516
296.8451
296.84509
296.84514
296.84511
296.8451
296.84511
296.84514
296.84517
296.84516
296.84514
296.84511
296.84508
296.84512
296.8451
296.84509
296.8451
296.84513
296.84516
296.84514
296.84514
303.68351
303.68346
303.68357
303.6835
303.68346
303.68345
303.68346
303.68347
303.68347
303.68349
303.68346
303.68353
303.68356
303.68349
303.68345
303.68344
303.68346
303.68348
303.68346
303.68345
303.68357
303.68356
303.6836
303.68352
303.68349
303.68348
303.68351
303.68354
303.68352
303.68349
303.6835
303.68349
303.68352
303.68345
303.68342
303.68342
303.68345
303.68349
303.68349
303.68347
303.68346
303.68345
303.68349
303.68342
303.68339
303.68339
303.68343
303.68347
303.68347
303.68347
303.68345
303.68344
303.68348
303.68342
303.68339
303.6834
303.68344
303.68349
303.68349
303.68348
303.68346
303.68346
303.68351
303.68345
303.68343
303.68344
303.68348
303.68353
303.68353
303.68352
303.68347
303.68348
303.68354
303.68349
303.68347
303.68349
303.68353
303.68358
303.68357
303.68356
303.68347
303.68346
303.68352
303.68349
303.68347
303.68349
303.68353
303.68357
303.68356
303.68352
303.68349
303.68345
303.68349
303.68347
303.68347
303.68348
303.68352
303.68356
303.68352
303.68353
310.54078
310.54072
310.54085
310.54077
310.54072
310.54071
310.54072
310.54075
310.54074
310.54076
310.54072
310.5408
310.54084
310.54075
310.54071
310.54071
310.54073
310.54076
310.54073
310.54072
310.54085
310.54084
310.54088
310.54079
310.54075
310.54075
310.54079
310.54083
310.5408
310.54077
310.54077
310.54075
310.54079
310.54071
310.54067
310.54068
310.54072
310.54078
310.54076
310.54075
310.54072
310.54071
310.54075
310.54067
310.54064
310.54065
310.54069
310.54076
310.54075
310.54074
310.54071
310.54071
310.54075
310.54068
310.54065
310.54066
310.54071
310.54077
310.54077
310.54077
310.54072
310.54073
310.54079
310.54072
310.54069
310.54071
310.54076
310.54083
310.54082
310.54081
310.54075
310.54076
310.54083
310.54078
310.54076
310.54077
310.54083
310.54089
310.54088
310.54086
310.54074
310.54073
310.5408
310.54076
310.54075
310.54077
310.54082
310.54088
310.54086
310.54081
310.54076
310.54072
310.54077
310.54075
310.54074
310.54077
310.54081
310.54086
310.54081
310.54082
317.42091
317.42084
317.42098
317.42089
317.42084
317.42083
317.42085
317.42088
317.42087
317.4209
317.42084
317.42092
317.42097
317.42088
317.42083
317.42083
317.42086
317.4209
317.42086
317.42085
317.42098
317.42097
317.42101
317.42092
317.42087
317.42088
317.42092
317.42098
317.42095
317.4209
317.42089
317.42088
317.42092
317.42083
317.42079
317.4208
317.42085
317.42092
317.4209
317.42088
317.42084
317.42083
317.42087
317.42079
317.42075
317.42076
317.42082
317.4209
317.42089
317.42088
317.42083
317.42083
317.42088
317.4208
317.42076
317.42078
317.42084
317.42092
317.42092
317.42091
317.42085
317.42086
317.42092
317.42085
317.42082
317.42084
317.42091
317.42099
317.42098
317.42097
317.42088
317.4209
317.42098
317.42092
317.4209
317.42092
317.42099
317.42107
317.42105
317.42103
317.42087
317.42086
317.42095
317.4209
317.42089
317.42092
317.42098
317.42105
317.42102
317.42096
317.4209
317.42085
317.4209
317.42088
317.42088
317.42091
317.42097
317.42103
317.42096
317.42097
324.32771
324.32764
324.3278
324.3277
324.32764
324.32763
324.32766
324.3277
324.32769
324.32772
324.32764
324.32773
324.32779
324.32768
324.32763
324.32763
324.32767
324.32772
324.32768
324.32766
324.3278
324.32779
324.32783
324.32773
324.32768
324.32769
324.32774
324.32781
324.32777
324.32772
324.3277
324.32768
324.32773
324.32763
324.32758
324.3276
324.32766
324.32775
324.32773
324.3277
324.32764
324.32763
324.32768
324.32758
324.32755
324.32757
324.32763
324.32772
324.32772
324.3277
324.32763
324.32763
324.32769
324.3276
324.32757
324.32759
324.32766
324.32776
324.32775
324.32774
324.32766
324.32767
324.32774
324.32766
324.32763
324.32766
324.32774
324.32783
324.32783
324.32781
324.3277
324.32772
324.32781
324.32775
324.32772
324.32776
324.32783
324.32792
324.32791
324.32788
324.32769
324.32768
324.32777
324.32773
324.32772
324.32775
324.32783
324.32791
324.32787
324.32779
324.32772
324.32766
324.32772
324.3277
324.3277
324.32774
324.32781
324.32788
324.32779
324.32781
331.26486
331.26478
331.26495
331.26484
331.26478
331.26478
331.26481
331.26485
331.26485
331.26488
331.26478
331.26488
331.26493
331.26482
331.26477
331.26477
331.26482
331.26488
331.26483
331.26481
331.26495
331.26493
331.26498
331.26487
331.26482
331.26484
331.2649
331.26498
331.26494
331.26488
331.26484
331.26482
331.26487
331.26477
331.26472
331.26474
331.26481
331.26491
331.26489
331.26486
331.26478
331.26477
331.26482
331.26472
331.26468
331.26471
331.26479
331.26489
331.26488
331.26486
331.26478
331.26477
331.26484
331.26474
331.26471
331.26474
331.26482
331.26493
331.26492
331.26491
331.26481
331.26482
331.2649
331.26481
331.26479
331.26482
331.26491
331.26502
331.26501
331.26499
331.26485
331.26488
331.26498
331.26491
331.26489
331.26493
331.26502
331.26512
331.2651
331.26507
331.26485
331.26483
331.26494
331.26489
331.26488
331.26492
331.26501
331.2651
331.26506
331.26497
331.26488
331.26481
331.26488
331.26486
331.26486
331.26491
331.26499
331.26507
331.26497
331.26498
338.23581
338.23573
338.23591
338.23579
338.23573
338.23573
338.23577
338.23582
338.23581
338.23584
338.23573
338.23583
338.23589
338.23577
338.23571
338.23572
338.23578
338.23585
338.23579
338.23578
338.23591
338.23589
338.23594
338.23583
338.23578
338.23579
338.23587
338.23596
338.23591
338.23585
338.23579
338.23577
338.23583
338.23571
338.23567
338.23569
338.23577
338.23588
338.23586
338.23583
338.23573
338.23571
338.23578
338.23567
338.23563
338.23566
338.23575
338.23586
338.23585
338.23584
338.23573
338.23572
338.23579
338.23569
338.23566
338.23569
338.23579
338.23591
338.2359
338.23589
338.23577
338.23578
338.23587
338.23577
338.23575
338.23579
338.23588
338.23601
338.236
338.23598
338.23582
338.23585
338.23596
338.23588
338.23586
338.23591
338.23601
338.23613
338.23611
338.23606
338.23581
338.23579
338.23591
338.23586
338.23585
338.2359
338.236
338.23611
338.23605
338.23595
338.23584
338.23578
338.23585
338.23583
338.23584
338.23589
338.23598
338.23606
338.23595
338.23597
345.24383
345.24374
345.24393
345.24381
345.24375
345.24375
345.24379
345.24385
345.24384
345.24388
345.24374
345.24385
345.24392
345.24379
345.24373
345.24374
345.24381
345.24388
345.24383
345.24381
345.24393
345.24392
345.24397
345.24385
345.2438
345.24382
345.2439
345.244
345.24395
345.24389
345.24381
345.24379
345.24385
345.24373
345.24368
345.24371
345.24381
345.24393
345.2439
345.24387
345.24375
345.24373
345.2438
345.24368
345.24364
345.24368
345.24378
345.24391
345.2439
345.24388
345.24375
345.24374
345.24382
345.24371
345.24368
345.24372
345.24382
345.24396
345.24395
345.24394
345.24379
345.24381
345.2439
345.24381
345.24378
345.24382
345.24393
345.24407
345.24406
345.24404
345.24385
345.24388
345.244
345.24393
345.24391
345.24396
345.24407
345.2442
345.24418
345.24413
345.24384
345.24383
345.24395
345.2439
345.2439
345.24395
345.24406
345.24418
345.24412
345.244
345.24388
345.24381
345.24389
345.24387
345.24388
345.24394
345.24404
345.24413
345.244
345.24403
352.29195
352.29186
352.29206
352.29193
352.29187
352.29187
352.29192
352.29199
352.29198
352.29202
352.29186
352.29197
352.29204
352.29191
352.29185
352.29187
352.29194
352.29202
352.29196
352.29194
352.29206
352.29204
352.2921
352.29197
352.29192
352.29195
352.29204
352.29215
352.29209
352.29203
352.29193
352.29191
352.29197
352.29185
352.2918
352.29184
352.29194
352.29207
352.29205
352.29201
352.29187
352.29185
352.29192
352.2918
352.29176
352.2918
352.29191
352.29206
352.29204
352.29202
352.29187
352.29187
352.29195
352.29184
352.2918
352.29185
352.29197
352.29211
352.2921
352.29209
352.29192
352.29194
352.29204
352.29194
352.29191
352.29197
352.29208
352.29223
352.29222
352.2922
352.29199
352.29202
352.29215
352.29207
352.29206
352.29211
352.29223
352.29238
352.29235
352.2923
352.29198
352.29196
352.29209
352.29205
352.29204
352.2921
352.29222
352.29235
352.29229
352.29216
352.29202
352.29194
352.29203
352.29201
352.29202
352.29209
352.2922
352.2923
352.29216
352.29219
359.38296
359.38287
359.38308
359.38294
359.38288
359.38289
359.38294
359.38301
359.38301
359.38305
359.38287
359.38298
359.38306
359.38292
359.38286
359.38288
359.38296
359.38305
359.38299
359.38297
359.38308
359.38306
359.38312
359.38299
359.38294
359.38297
359.38306
359.38318
359.38313
359.38306
359.38294
359.38292
359.38299
359.38286
359.38281
359.38285
359.38296
359.38311
359.38308
359.38304
359.38288
359.38286
359.38294
359.38281
359.38277
359.38282
359.38294
359.38309
359.38308
359.38306
359.38289
359.38288
359.38297
359.38285
359.38282
359.38287
359.383
359.38315
359.38314
359.38313
359.38294
359.38296
359.38306
359.38296
359.38294
359.383
359.38312
359.38328
359.38327
359.38325
359.38301
359.38305
359.38318
359.38311
359.38309
359.38315
359.38328
359.38344
359.38341
359.38335
359.38301
359.38299
359.38313
359.38308
359.38308
359.38314
359.38327
359.38341
359.38334
359.3832
359.38305
359.38297
359.38306
359.38304
359.38306
359.38313
359.38325
359.38335
359.3832
359.38323
366.51939
366.51929
366.5195
366.51937
366.5193
366.51931
366.51937
366.51945
366.51944
366.51949
366.51929
366.51941
366.51948
366.51934
366.51928
366.51931
366.51939
366.51949
366.51942
366.5194
366.5195
366.51948
366.51955
366.51941
366.51936
366.5194
366.5195
366.51963
366.51957
366.5195
366.51937
366.51934
366.51941
366.51928
366.51924
366.51928
366.5194
366.51955
366.51952
366.51948
366.5193
366.51928
366.51936
366.51924
366.5192
366.51925
366.51938
366.51954
366.51952
366.5195
366.51931
366.51931
366.5194
366.51928
366.51925
366.5193
366.51944
366.51961
366.5196
366.51958
366.51937
366.51939
366.5195
366.5194
366.51938
366.51944
366.51958
366.51975
366.51973
366.51971
366.51945
366.51949
366.51963
366.51955
366.51954
366.51961
366.51975
366.51991
366.51988
366.51982
366.51944
366.51942
366.51957
366.51952
366.51952
366.5196
366.51973
366.51988
366.5198
366.51966
366.51949
366.5194
366.5195
366.51948
366.5195
366.51958
366.51971
366.51982
366.51966
366.51969
373.70346
373.70336
373.70358
373.70344
373.70338
373.70339
373.70346
373.70354
373.70353
373.70358
373.70336
373.70348
373.70356
373.70342
373.70336
373.70339
373.70348
373.70358
373.70352
373.70349
373.70358
373.70356
373.70363
373.70349
373.70344
373.70348
373.70359
373.70373
373.70367
373.70359
373.70344
373.70342
373.70349
373.70336
373.70331
373.70336
373.70349
373.70365
373.70362
373.70358
373.70338
373.70336
373.70344
373.70331
373.70328
373.70333
373.70347
373.70364
373.70362
373.7036
373.70339
373.70339
373.70348
373.70336
373.70333
373.70339
373.70353
373.70371
373.7037
373.70368
373.70346
373.70348
373.70359
373.70349
373.70347
373.70353
373.70368
373.70386
373.70384
373.70382
373.70354
373.70358
373.70373
373.70365
373.70364
373.70371
373.70386
373.70403
373.704
373.70394
373.70353
373.70352
373.70367
373.70362
373.70362
373.7037
373.70384
373.704
373.70392
373.70376
373.70358
373.70349
373.70359
373.70358
373.7036
373.70368
373.70382
373.70394
373.70376
373.7038
380.93714
380.93704
380.93726
380.93712
380.93706
380.93707
380.93715
380.93723
380.93723
380.93728
380.93704
380.93716
380.93724
380.9371
380.93704
380.93707
380.93717
380.93728
380.93721
380.93719
380.93726
380.93724
380.93731
380.93717
380.93712
380.93716
380.93728
380.93743
380.93736
380.93729
380.93712
380.9371
380.93717
380.93704
380.93699
380.93704
380.93718
380.93735
380.93732
380.93727
380.93706
380.93704
380.93712
380.93699
380.93696
380.93702
380.93716
380.93734
380.93732
380.9373
380.93707
380.93707
380.93716
380.93704
380.93702
380.93708
380.93723
380.93742
380.93741
380.93738
380.93715
380.93717
380.93728
380.93718
380.93716
380.93723
380.93738
380.93757
380.93756
380.93753
380.93723
380.93728
380.93743
380.93735
380.93734
380.93742
380.93757
380.93775
380.93772
380.93765
380.93723
380.93721
380.93736
380.93732
380.93732
380.93741
380.93756
380.93772
380.93764
380.93747
380.93728
380.93719
380.93729
380.93727
380.9373
380.93738
380.93753
380.93765
380.93747
380.93751
388.22206
388.22196
388.22219
388.22205
388.22198
388.222
388.22208
388.22217
388.22216
388.22221
388.22196
388.22208
388.22217
388.22202
388.22196
388.222
388.2221
388.22222
388.22214
388.22212
388.22219
388.22217
388.22224
388.2221
388.22205
388.22209
388.22222
388.22237
388.2223
388.22223
388.22205
388.22202
388.2221
388.22196
388.22192
388.22198
388.22212
388.22229
388.22226
388.22222
388.22198
388.22196
388.22205
388.22192
388.22189
388.22195
388.2221
388.22229
388.22227
388.22224
388.222
388.222
388.22209
388.22198
388.22195
388.22202
388.22217
388.22237
388.22235
388.22233
388.22208
388.2221
388.22222
388.22212
388.2221
388.22217
388.22233
388.22253
388.22251
388.22248
388.22217
388.22222
388.22237
388.22229
388.22229
388.22237
388.22253
388.22272
388.22268
388.22261
388.22216
388.22214
388.2223
388.22226
388.22227
388.22235
388.22251
388.22268
388.22259
388.22242
388.22221
388.22212
388.22223
388.22222
388.22224
388.22233
388.22248
388.22261
388.22242
388.22246
395.55956
395.55946
395.55969
395.55954
395.55948
395.5595
395.55958
395.55968
395.55967
395.55972
395.55946
395.55958
395.55966
395.55952
395.55946
395.5595
395.55961
395.55973
395.55965
395.55963
395.55969
395.55966
395.55974
395.5596
395.55955
395.5596
395.55973
395.55988
395.55982
395.55974
395.55954
395.55952
395.5596
395.55946
395.55942
395.55948
395.55962
395.55981
395.55977
395.55973
395.55948
395.55946
395.55955
395.55942
395.55939
395.55945
395.55961
395.5598
395.55978
395.55976
395.5595
395.5595
395.5596
395.55948
395.55945
395.55953
395.55969
395.55989
395.55987
395.55985
395.55958
395.55961
395.55973
395.55962
395.55961
395.55969
395.55985
395.56005
395.56004
395.56001
395.55968
395.55973
395.55988
395.55981
395.5598
395.55989
395.56005
395.56025
395.56021
395.56014
395.55967
395.55965
395.55982
395.55977
395.55978
395.55987
395.56004
395.56021
395.56012
395.55994
395.55972
395.55963
395.55974
395.55973
395.55976
395.55985
395.56001
395.56014
395.55994
395.55999
402.95063
402.95053
402.95076
402.95062
402.95056
402.95058
402.95066
402.95076
402.95076
402.95081
402.95053
402.95065
402.95074
402.95059
402.95054
402.95058
402.95069
402.95081
402.95074
402.95072
402.95076
402.95074
402.95081
402.95067
402.95062
402.95068
402.95081
402.95097
402.9509
402.95082
402.95062
402.95059
402.95067
402.95054
402.9505
402.95056
402.95071
402.95089
402.95086
402.95082
402.95056
402.95054
402.95062
402.9505
402.95047
402.95054
402.9507
402.95089
402.95088
402.95085
402.95058
402.95058
402.95068
402.95056
402.95054
402.95061
402.95078
402.95098
402.95097
402.95095
402.95066
402.95069
402.95081
402.95071
402.9507
402.95078
402.95095
402.95115
402.95113
402.9511
402.95076
402.95081
402.95097
402.95089
402.95089
402.95098
402.95115
402.95135
402.95131
402.95124
402.95076
402.95074
402.9509
402.95086
402.95088
402.95097
402.95113
402.95131
402.95122
402.95104
402.95081
402.95072
402.95082
402.95082
402.95085
402.95095
402.9511
402.95124
402.95104
402.95108
410.39595
410.39585
410.39608
410.39594
410.39588
410.39591
410.39599
410.39609
410.39609
410.39614
410.39585
410.39597
410.39606
410.39591
410.39586
410.3959
410.39602
410.39614
410.39607
410.39605
410.39608
410.39606
410.39613
410.39599
410.39595
410.396
410.39614
410.3963
410.39624
410.39616
410.39594
410.39591
410.39599
410.39586
410.39582
410.39589
410.39604
410.39623
410.3962
410.39615
410.39588
410.39586
410.39595
410.39582
410.3958
410.39587
410.39603
410.39623
410.39621
410.39619
410.39591
410.3959
410.396
410.39589
410.39587
410.39595
410.39611
410.39632
410.39631
410.39629
410.39599
410.39602
410.39614
410.39604
410.39603
410.39611
410.39629
410.3965
410.39648
410.39645
410.39609
410.39614
410.3963
410.39623
410.39623
410.39632
410.3965
410.3967
410.39666
410.39659
410.39609
410.39607
410.39624
410.3962
410.39621
410.39631
410.39648
410.39666
410.39657
410.39638
410.39614
410.39605
410.39616
410.39615
410.39619
410.39629
410.39645
410.39659
410.39638
410.39643
417.89586
417.89576
417.89598
417.89585
417.89579
417.89582
417.89591
417.89601
417.89601
417.89606
417.89576
417.89588
417.89596
417.89582
417.89577
417.89582
417.89593
417.89606
417.89599
417.89597
417.89598
417.89596
417.89604
417.8959
417.89586
417.89592
417.89606
417.89622
417.89615
417.89608
417.89585
417.89582
417.8959
417.89577
417.89574
417.8958
417.89596
417.89615
417.89612
417.89607
417.89579
417.89577
417.89586
417.89574
417.89571
417.89579
417.89595
417.89616
417.89614
417.89611
417.89582
417.89582
417.89592
417.8958
417.89579
417.89587
417.89604
417.89625
417.89623
417.89621
417.89591
417.89593
417.89606
417.89596
417.89595
417.89604
417.89621
417.89642
417.89641
417.89638
417.89601
417.89606
417.89622
417.89615
417.89616
417.89625
417.89642
417.89663
417.89659
417.89652
417.89601
417.89599
417.89615
417.89612
417.89614
417.89623
417.89641
417.89659
417.8965
417.89631
417.89606
417.89597
417.89608
417.89607
417.89611
417.89621
417.89638
417.89652
417.89631
417.89635
425.45035
425.45026
425.45048
425.45035
425.45029
425.45032
425.45041
425.45052
425.45052
425.45057
425.45026
425.45037
425.45046
425.45032
425.45027
425.45032
425.45044
425.45057
425.4505
425.45048
425.45048
425.45046
425.45053
425.4504
425.45036
425.45042
425.45056
425.45073
425.45066
425.45058
425.45035
425.45032
425.4504
425.45027
425.45024
425.45031
425.45047
425.45066
425.45063
425.45058
425.45029
425.45027
425.45036
425.45024
425.45022
425.4503
425.45046
425.45067
425.45065
425.45062
425.45032
425.45032
425.45042
425.45031
425.4503
425.45038
425.45055
425.45076
425.45075
425.45073
425.45041
425.45044
425.45056
425.45047
425.45046
425.45055
425.45073
425.45094
425.45092
425.45089
425.45052
425.45057
425.45073
425.45066
425.45067
425.45076
425.45094
425.45114
425.45111
425.45103
425.45052
425.4505
425.45066
425.45063
425.45065
425.45075
425.45092
425.45111
425.45101
425.45082
425.45057
425.45048
425.45058
425.45058
425.45062
425.45073
425.45089
425.45103
425.45082
425.45087
433.05911
433.05901
433.05923
433.0591
433.05905
433.05908
433.05917
433.05928
433.05928
433.05933
433.05901
433.05912
433.05921
433.05907
433.05903
433.05908
433.0592
433.05933
433.05926
433.05924
433.05923
433.05921
433.05928
433.05915
433.05912
433.05918
433.05932
433.05949
433.05942
433.05935
433.0591
433.05907
433.05915
433.05903
433.059
433.05907
433.05923
433.05942
433.05939
433.05935
433.05905
433.05903
433.05912
433.059
433.05898
433.05906
433.05923
433.05943
433.05941
433.05939
433.05908
433.05908
433.05918
433.05907
433.05906
433.05914
433.05932
433.05953
433.05951
433.05949
433.05917
433.0592
433.05932
433.05923
433.05923
433.05932
433.05949
433.0597
433.05969
433.05966
433.05928
433.05933
433.05949
433.05942
433.05943
433.05953
433.0597
433.05991
433.05987
433.0598
433.05928
433.05926
433.05942
433.05939
433.05941
433.05951
433.05969
433.05987
433.05977
433.05959
433.05933
433.05924
433.05935
433.05935
433.05939
433.05949
433.05966
433.0598
433.05959
433.05963
440.72144
440.72135
440.72156
440.72144
440.72139
440.72143
440.72152
440.72162
440.72162
440.72167
440.72135
440.72146
440.72154
440.72142
440.72138
440.72142
440.72155
440.72168
440.72161
440.72159
440.72156
440.72154
440.72162
440.72149
440.72146
440.72152
440.72166
440.72183
440.72176
440.72169
440.72144
440.72142
440.72149
440.72138
440.72135
440.72142
440.72158
440.72177
440.72174
440.72169
440.72139
440.72138
440.72146
440.72135
440.72133
440.72141
440.72158
440.72178
440.72176
440.72174
440.72143
440.72142
440.72152
440.72142
440.72141
440.72149
440.72167
440.72188
440.72186
440.72184
440.72152
440.72155
440.72166
440.72158
440.72158
440.72167
440.72184
440.72205
440.72203
440.722
440.72162
440.72168
440.72183
440.72177
440.72178
440.72188
440.72205
440.72226
440.72222
440.72214
440.72162
440.72161
440.72176
440.72174
440.72176
440.72186
440.72203
440.72222
440.72212
440.72193
440.72167
440.72159
440.72169
440.72169
440.72174
440.72184
440.722
440.72214
440.72193
440.72198
448.43637
448.43628
448.43648
448.43637
448.43632
448.43636
448.43645
448.43656
448.43656
448.43661
448.43628
448.43638
448.43646
448.43634
448.43631
448.43636
448.43648
448.43661
448.43654
448.43652
448.43648
448.43646
448.43654
448.43642
448.43639
448.43645
448.43659
448.43676
448.43669
448.43662
448.43637
448.43634
448.43642
448.43631
448.43628
448.43635
448.43651
448.4367
448.43667
448.43663
448.43632
448.43631
448.43639
448.43628
448.43627
448.43635
448.43651
448.43671
448.43669
448.43667
448.43636
448.43636
448.43645
448.43635
448.43635
448.43643
448.4366
448.43681
448.43679
448.43677
448.43645
448.43648
448.43659
448.43651
448.43651
448.4366
448.43678
448.43698
448.43696
448.43693
448.43656
448.43661
448.43676
448.4367
448.43671
448.43681
448.43698
448.43718
448.43714
448.43707
448.43656
448.43654
448.43669
448.43667
448.43669
448.43679
448.43696
448.43714
448.43705
448.43687
448.43661
448.43652
448.43662
448.43663
448.43667
448.43677
448.43693
448.43707
448.43687
448.43691
456.20256
456.20247
456.20267
456.20255
456.20251
456.20255
456.20264
456.20275
456.20275
456.2028
456.20247
456.20257
456.20265
456.20253
456.2025
456.20255
456.20267
456.2028
456.20273
456.20272
456.20267
456.20265
456.20272
456.2026
456.20258
456.20264
456.20278
456.20294
456.20288
456.20281
456.20255
456.20253
456.2026
456.2025
456.20248
456.20255
456.20271
456.20289
456.20286
456.20282
456.20251
456.2025
456.20258
456.20248
456.20247
456.20255
456.20271
456.20291
456.20289
456.20286
456.20255
456.20255
456.20264
456.20255
456.20255
456.20263
456.2028
456.203
456.20299
456.20297
456.20264
456.20267
456.20278
456.20271
456.20271
456.2028
456.20297
456.20317
456.20315
456.20312
456.20275
456.2028
456.20294
456.20289
456.20291
456.203
456.20317
456.20337
456.20333
456.20326
456.20275
456.20273
456.20288
456.20286
456.20289
456.20299
456.20315
456.20333
456.20324
456.20306
456.2028
456.20272
456.20281
456.20282
456.20286
456.20297
456.20312
456.20326
456.20306
456.2031
464.01837
464.01829
464.01847
464.01837
464.01833
464.01837
464.01846
464.01856
464.01856
464.01861
464.01829
464.01838
464.01845
464.01834
464.01832
464.01837
464.01848
464.01861
464.01855
464.01853
464.01847
464.01845
464.01852
464.01841
464.01839
464.01845
464.01859
464.01875
464.01869
464.01863
464.01837
464.01834
464.01841
464.01832
464.0183
464.01837
464.01852
464.0187
464.01867
464.01863
464.01833
464.01832
464.01839
464.0183
464.01829
464.01837
464.01853
464.01872
464.0187
464.01868
464.01837
464.01837
464.01845
464.01837
464.01837
464.01845
464.01862
464.01881
464.0188
464.01878
464.01846
464.01848
464.01859
464.01852
464.01853
464.01862
464.01878
464.01898
464.01896
464.01893
464.01856
464.01861
464.01875
464.0187
464.01872
464.01881
464.01898
464.01917
464.01913
464.01906
464.01856
464.01855
464.01869
464.01867
464.0187
464.0188
464.01896
464.01913
464.01904
464.01886
464.01861
464.01853
464.01863
464.01863
464.01868
464.01878
464.01893
464.01906
464.01886
464.01891
471.88185
471.88178
471.88195
471.88185
471.88182
471.88186
471.88195
471.88205
471.88205
471.8821
471.88178
471.88186
471.88193
471.88183
471.88181
471.88186
471.88197
471.8821
471.88204
471.88203
471.88195
471.88193
471.882
471.8819
471.88188
471.88194
471.88208
471.88223
471.88217
471.88211
471.88185
471.88183
471.8819
471.88181
471.8818
471.88187
471.88201
471.88219
471.88216
471.88212
471.88182
471.88181
471.88188
471.8818
471.88179
471.88187
471.88202
471.88221
471.88219
471.88217
471.88186
471.88186
471.88194
471.88187
471.88187
471.88195
471.88211
471.8823
471.88228
471.88227
471.88195
471.88197
471.88208
471.88201
471.88202
471.88211
471.88227
471.88246
471.88244
471.88241
471.88205
471.8821
471.88223
471.88219
471.88221
471.8823
471.88246
471.88264
471.88261
471.88254
471.88205
471.88204
471.88217
471.88216
471.88219
471.88228
471.88244
471.88261
471.88252
471.88235
471.8821
471.88203
471.88211
471.88212
471.88217
471.88227
471.88241
471.88254
471.88235
471.88239
479.79077
479.79071
479.79087
479.79078
479.79075
479.79079
479.79088
479.79097
479.79098
479.79102
479.79071
479.79078
479.79085
479.79076
479.79074
479.79079
479.7909
479.79102
479.79096
479.79095
479.79087
479.79085
479.79091
479.79082
479.79081
479.79087
479.791
479.79114
479.79109
479.79103
479.79078
479.79076
479.79082
479.79074
479.79073
479.7908
479.79094
479.79111
479.79108
479.79105
479.79075
479.79074
479.79081
479.79073
479.79073
479.7908
479.79095
479.79113
479.79111
479.79109
479.79079
479.79079
479.79087
479.7908
479.7908
479.79088
479.79103
479.79121
479.7912
479.79118
479.79088
479.7909
479.791
479.79094
479.79095
479.79103
479.79119
479.79137
479.79135
479.79133
479.79097
479.79102
479.79114
479.79111
479.79113
479.79121
479.79137
479.79155
479.79151
479.79145
479.79098
479.79096
479.79109
479.79108
479.79111
479.7912
479.79135
479.79151
479.79143
479.79126
479.79102
479.79095
479.79103
479.79105
479.79109
479.79118
479.79133
479.79145
479.79126
479.79131
487.74261
487.74255
487.7427
487.74262
487.74259
487.74263
487.74272
487.74281
487.74281
487.74285
487.74255
487.74262
487.74268
487.7426
487.74258
487.74263
487.74274
487.74285
487.7428
487.74279
487.7427
487.74268
487.74274
487.74266
487.74265
487.74271
487.74283
487.74297
487.74292
487.74287
487.74262
487.7426
487.74266
487.74258
487.74258
487.74265