/*--------------------------------*- C++ -*----------------------------------*\
| =========                 |                                                 |
| \\      /  F ield         | OpenFOAM: The Open Source CFD Toolbox           |
|  \\    /   O peration     | Version:  v2106                                 |
|   \\  /    A nd           | Website:  www.openfoam.com                      |
|    \\/     M anipulation  |                                                 |
\*---------------------------------------------------------------------------*/
FoamFile
{
    version     2.0;
    format      ascii;
    arch        "LSB;label=32;scalar=64";
    class       volScalarField;
    location    "7.5";
    object      calFieldValue;
}
// * * * * * * * * * * * * * * * * * * * * * * * * * * * * * * * * * * * * * //

dimensions      [0 0 0 1 0 0 0];

internalField   nonuniform List<scalar> 
4000
(
275.35315
275.35315
275.35314
275.35315
275.35316
275.35315
275.35315
275.35315
275.35314
275.35314
275.35315
275.35314
275.35315
275.35316
275.35315
275.35315
275.35315
275.35314
275.35314
275.35314
275.35314
275.35315
275.35315
275.35316
275.35316
275.35315
275.35315
275.35315
275.35314
275.35314
275.35315
275.35316
275.35316
275.35316
275.35316
275.35316
275.35316
275.35315
275.35315
275.35315
275.35316
275.35315
275.35316
275.35316
275.35316
275.35316
275.35316
275.35315
275.35315
275.35315
275.35315
275.35315
275.35315
275.35316
275.35316
275.35316
275.35315
275.35315
275.35315
275.35315
275.35315
275.35315
275.35315
275.35316
275.35316
275.35315
275.35315
275.35315
275.35315
275.35315
275.35315
275.35314
275.35315
275.35315
275.35315
275.35315
275.35315
275.35315
275.35315
275.35315
275.35314
275.35314
275.35314
275.35315
275.35315
275.35315
275.35315
275.35315
275.35315
275.35315
275.35314
275.35314
275.35314
275.35315
275.35315
275.35315
275.35315
275.35315
275.35315
275.35315
278.62099
278.62099
278.62098
278.62101
278.62101
278.62097
278.62096
278.62098
278.62098
278.62097
278.62099
278.62098
278.62099
278.62101
278.62101
278.62097
278.62096
278.62096
278.62098
278.62098
278.62098
278.62099
278.621
278.62102
278.62099
278.62098
278.62097
278.62096
278.62098
278.62098
278.62101
278.62101
278.62102
278.62101
278.621
278.62099
278.62099
278.62098
278.621
278.62099
278.62101
278.62101
278.62099
278.621
278.621
278.62099
278.62099
278.62098
278.62098
278.621
278.62097
278.62097
278.62098
278.62099
278.62099
278.62099
278.62098
278.62098
278.621
278.621
278.62096
278.62096
278.62097
278.62099
278.62099
278.62098
278.62098
278.62101
278.621
278.621
278.62098
278.62096
278.62096
278.62098
278.62098
278.62098
278.62101
278.621
278.621
278.62102
278.62098
278.62098
278.62098
278.621
278.62098
278.621
278.621
278.621
278.62102
278.62102
278.62097
278.62098
278.62098
278.62099
278.621
278.621
278.621
278.62102
278.62102
278.62101
281.91853
281.91854
281.91854
281.91857
281.91854
281.91853
281.91851
281.9185
281.91849
281.91849
281.91854
281.91854
281.91856
281.91858
281.91855
281.91853
281.91852
281.9185
281.9185
281.91852
281.91854
281.91856
281.91857
281.91856
281.91856
281.91852
281.91853
281.91852
281.91851
281.9185
281.91857
281.91858
281.91856
281.91858
281.91855
281.91854
281.91853
281.91854
281.91853
281.91852
281.91854
281.91855
281.91856
281.91855
281.91854
281.91853
281.91853
281.91854
281.91853
281.91853
281.91853
281.91853
281.91852
281.91854
281.91853
281.91853
281.91853
281.91855
281.91854
281.91856
281.91851
281.91852
281.91853
281.91853
281.91853
281.91853
281.91855
281.91855
281.91856
281.91856
281.9185
281.9185
281.91852
281.91854
281.91854
281.91855
281.91855
281.91857
281.91858
281.91858
281.91849
281.9185
281.91851
281.91853
281.91853
281.91854
281.91856
281.91858
281.91857
281.91857
281.91849
281.91852
281.9185
281.91852
281.91853
281.91856
281.91856
281.91858
281.91857
281.91859
285.26568
285.26569
285.26567
285.26571
285.26568
285.26566
285.26564
285.26562
285.26564
285.26563
285.26569
285.26569
285.26569
285.26572
285.26568
285.26566
285.26565
285.26563
285.26564
285.26564
285.26567
285.26569
285.26571
285.26571
285.26567
285.26565
285.26564
285.26564
285.26563
285.26565
285.26571
285.26572
285.26571
285.26573
285.26569
285.26568
285.26567
285.26567
285.26566
285.26568
285.26568
285.26568
285.26567
285.26569
285.26566
285.26565
285.26567
285.26568
285.26567
285.26569
285.26566
285.26566
285.26565
285.26568
285.26565
285.26565
285.26567
285.26569
285.2657
285.2657
285.26564
285.26565
285.26564
285.26567
285.26567
285.26567
285.2657
285.26571
285.26573
285.26572
285.26562
285.26563
285.26564
285.26567
285.26568
285.26569
285.26571
285.26573
285.26574
285.26574
285.26564
285.26564
285.26563
285.26566
285.26567
285.2657
285.26573
285.26574
285.26573
285.26575
285.26563
285.26564
285.26565
285.26568
285.26569
285.2657
285.26572
285.26574
285.26575
285.26575
288.68238
288.68239
288.68237
288.68241
288.68238
288.68236
288.68234
288.68232
288.68233
288.68232
288.68239
288.68236
288.68239
288.6824
288.68236
288.68234
288.68232
288.68232
288.68233
288.68233
288.68237
288.68239
288.68239
288.68241
288.68238
288.68236
288.68234
288.68234
288.68232
288.68235
288.68241
288.6824
288.68241
288.68241
288.68238
288.68236
288.68238
288.68238
288.68236
288.68238
288.68238
288.68236
288.68238
288.68238
288.68238
288.68237
288.68238
288.68239
288.6824
288.68239
288.68236
288.68234
288.68236
288.68236
288.68237
288.68236
288.68239
288.6824
288.68241
288.68243
288.68234
288.68232
288.68234
288.68238
288.68238
288.68239
288.68241
288.68243
288.68244
288.68246
288.68232
288.68232
288.68234
288.68238
288.68239
288.6824
288.68243
288.68246
288.68245
288.68247
288.68233
288.68233
288.68232
288.68236
288.6824
288.68241
288.68244
288.68245
288.68245
288.68248
288.68232
288.68233
288.68235
288.68238
288.68239
288.68243
288.68246
288.68247
288.68248
288.68247
292.18873
292.18874
292.18872
292.18877
292.18874
292.18871
292.18869
292.18869
292.18867
292.18866
292.18874
292.18874
292.18875
292.18876
292.18872
292.1887
292.1887
292.18867
292.18868
292.1887
292.18872
292.18875
292.18875
292.18878
292.18874
292.18872
292.1887
292.18869
292.1887
292.1887
292.18877
292.18876
292.18878
292.18878
292.18875
292.18873
292.18874
292.18874
292.18874
292.18876
292.18874
292.18872
292.18874
292.18875
292.18872
292.18874
292.18876
292.18876
292.18876
292.18878
292.18871
292.1887
292.18872
292.18873
292.18874
292.18874
292.18879
292.1888
292.1888
292.18882
292.18869
292.1887
292.1887
292.18874
292.18876
292.18879
292.18882
292.18883
292.18886
292.18885
292.18869
292.18867
292.18869
292.18874
292.18876
292.1888
292.18883
292.18886
292.18886
292.18888
292.18867
292.18868
292.1887
292.18874
292.18876
292.1888
292.18886
292.18886
292.18886
292.18889
292.18866
292.1887
292.1887
292.18876
292.18878
292.18882
292.18885
292.18888
292.18889
292.18888
295.80501
295.80502
295.80501
295.80506
295.80503
295.80498
295.80498
295.80498
295.80496
295.80497
295.80502
295.805
295.80503
295.80505
295.80502
295.80499
295.80497
295.80496
295.80497
295.80499
295.80501
295.80503
295.80504
295.80505
295.80501
295.80499
295.805
295.80499
295.80499
295.80501
295.80506
295.80505
295.80505
295.80505
295.80505
295.80504
295.80505
295.80504
295.80504
295.80505
295.80503
295.80502
295.80501
295.80505
295.80503
295.80502
295.80507
295.80507
295.80509
295.80511
295.80498
295.80499
295.80499
295.80504
295.80502
295.80505
295.8051
295.80514
295.80514
295.80516
295.80498
295.80497
295.805
295.80505
295.80507
295.8051
295.80516
295.80517
295.8052
295.80521
295.80498
295.80496
295.80499
295.80504
295.80507
295.80514
295.80517
295.8052
295.80519
295.80521
295.80496
295.80497
295.80499
295.80504
295.80509
295.80514
295.8052
295.80519
295.80522
295.80521
295.80497
295.80499
295.80501
295.80505
295.80511
295.80516
295.80521
295.80521
295.80521
295.80523
299.55165
299.55167
299.55165
299.55169
299.55166
299.55164
299.55163
299.55163
299.55163
299.55161
299.55167
299.55164
299.55168
299.5517
299.55167
299.55165
299.55162
299.55164
299.55164
299.55167
299.55165
299.55168
299.55169
299.5517
299.55167
299.55165
299.55166
299.55164
299.55167
299.55167
299.55169
299.5517
299.5517
299.55172
299.55169
299.55171
299.55172
299.55173
299.55173
299.55174
299.55166
299.55167
299.55167
299.55169
299.5517
299.5517
299.55174
299.55177
299.55179
299.55181
299.55164
299.55165
299.55165
299.55171
299.5517
299.55173
299.55179
299.55182
299.55184
299.55186
299.55163
299.55162
299.55166
299.55172
299.55174
299.55179
299.55185
299.5519
299.5519
299.55191
299.55163
299.55164
299.55164
299.55173
299.55177
299.55182
299.5519
299.55193
299.55192
299.55193
299.55163
299.55164
299.55167
299.55173
299.55179
299.55184
299.5519
299.55192
299.55191
299.55193
299.55161
299.55167
299.55167
299.55174
299.55181
299.55186
299.55191
299.55193
299.55193
299.55195
303.44929
303.44928
303.44927
303.44933
303.44931
303.44929
303.44928
303.44928
303.44928
303.44929
303.44928
303.44928
303.4493
303.44933
303.4493
303.44928
303.44928
303.44929
303.44929
303.44931
303.44927
303.4493
303.44931
303.44933
303.4493
303.44931
303.44932
303.44932
303.44932
303.44935
303.44933
303.44933
303.44933
303.44935
303.44935
303.44935
303.44938
303.4494
303.44939
303.4494
303.44931
303.4493
303.4493
303.44935
303.44934
303.44937
303.44942
303.44944
303.44946
303.44948
303.44929
303.44928
303.44931
303.44935
303.44937
303.44941
303.4495
303.44952
303.44954
303.44956
303.44928
303.44928
303.44932
303.44938
303.44942
303.4495
303.44956
303.44961
303.44961
303.44964
303.44928
303.44929
303.44932
303.4494
303.44944
303.44952
303.44961
303.44963
303.44964
303.44962
303.44928
303.44929
303.44932
303.44939
303.44946
303.44954
303.44961
303.44964
303.44963
303.44965
303.44929
303.44931
303.44935
303.4494
303.44948
303.44956
303.44964
303.44962
303.44965
303.44965
307.51868
307.51869
307.51869
307.51876
307.51874
307.51872
307.51871
307.51871
307.51873
307.51871
307.51869
307.51869
307.51872
307.51875
307.51873
307.51871
307.51873
307.51872
307.51875
307.51877
307.51869
307.51872
307.51873
307.51876
307.51874
307.51875
307.51875
307.51876
307.51878
307.5188
307.51876
307.51875
307.51876
307.51879
307.51877
307.51879
307.51883
307.51884
307.51885
307.51887
307.51874
307.51873
307.51874
307.51877
307.51879
307.51882
307.5189
307.51892
307.51893
307.51895
307.51872
307.51871
307.51875
307.51879
307.51882
307.51889
307.51896
307.51901
307.51903
307.51907
307.51871
307.51873
307.51875
307.51883
307.5189
307.51896
307.51905
307.5191
307.51912
307.51912
307.51871
307.51872
307.51876
307.51884
307.51892
307.51901
307.5191
307.51914
307.51913
307.51913
307.51873
307.51875
307.51878
307.51885
307.51893
307.51903
307.51912
307.51913
307.51913
307.51916
307.51871
307.51877
307.5188
307.51887
307.51895
307.51907
307.51912
307.51913
307.51916
307.51915
311.78083
311.78085
311.78085
311.7809
311.78091
311.78089
311.78089
311.78091
311.7809
311.78091
311.78085
311.78083
311.78086
311.78092
311.7809
311.78088
311.78091
311.78089
311.78092
311.78094
311.78085
311.78086
311.78088
311.78093
311.78091
311.7809
311.78094
311.78094
311.78096
311.78098
311.7809
311.78092
311.78093
311.78097
311.78095
311.78098
311.78105
311.78105
311.78107
311.78108
311.78091
311.7809
311.78091
311.78095
311.78098
311.78102
311.7811
311.78114
311.78116
311.78117
311.78089
311.78088
311.7809
311.78098
311.78102
311.7811
311.78119
311.78124
311.78126
311.7813
311.78089
311.78091
311.78094
311.78105
311.7811
311.78119
311.78129
311.78133
311.78137
311.78138
311.78091
311.78089
311.78094
311.78105
311.78114
311.78124
311.78133
311.78137
311.78138
311.78138
311.7809
311.78092
311.78096
311.78107
311.78116
311.78126
311.78137
311.78138
311.78138
311.7814
311.78091
311.78094
311.78098
311.78108
311.78117
311.7813
311.78138
311.78138
311.7814
311.78139
316.2568
316.25679
316.25679
316.25687
316.25687
316.25685
316.25687
316.25689
316.25688
316.25689
316.25679
316.25679
316.25683
316.25687
316.25686
316.25687
316.25689
316.2569
316.25693
316.25695
316.25679
316.25683
316.25685
316.25689
316.25687
316.25689
316.25693
316.25695
316.25697
316.257
316.25687
316.25687
316.25689
316.25693
316.25695
316.25698
316.25705
316.25705
316.25706
316.2571
316.25687
316.25686
316.25687
316.25695
316.25698
316.25702
316.25711
316.25715
316.25719
316.2572
316.25685
316.25687
316.25689
316.25698
316.25702
316.25711
316.25723
316.25728
316.25732
316.25733
316.25687
316.25689
316.25693
316.25705
316.25711
316.25723
316.25733
316.2574
316.25741
316.25742
316.25689
316.2569
316.25695
316.25705
316.25715
316.25728
316.2574
316.25744
316.25744
316.25744
316.25688
316.25693
316.25697
316.25706
316.25719
316.25732
316.25741
316.25744
316.25744
316.25746
316.25689
316.25695
316.257
316.2571
316.2572
316.25733
316.25742
316.25744
316.25746
316.25745
320.96766
320.96766
320.96766
320.96775
320.96775
320.96775
320.96776
320.96777
320.96779
320.96779
320.96766
320.96766
320.9677
320.96775
320.96774
320.96775
320.96778
320.96779
320.96781
320.96786
320.96766
320.9677
320.96773
320.96777
320.96776
320.96778
320.96784
320.96785
320.96786
320.96791
320.96775
320.96775
320.96777
320.96782
320.96784
320.96788
320.96795
320.96798
320.96801
320.96803
320.96775
320.96774
320.96776
320.96784
320.96788
320.96795
320.96804
320.96811
320.96812
320.96816
320.96775
320.96775
320.96778
320.96788
320.96795
320.96805
320.96817
320.96822
320.96826
320.96829
320.96776
320.96778
320.96784
320.96795
320.96804
320.96817
320.9683
320.96835
320.96838
320.96838
320.96777
320.96779
320.96785
320.96798
320.96811
320.96822
320.96835
320.96841
320.9684
320.9684
320.96779
320.96781
320.96786
320.96801
320.96812
320.96826
320.96838
320.9684
320.9684
320.96842
320.96779
320.96786
320.96791
320.96803
320.96816
320.96829
320.96838
320.9684
320.96842
320.96843
325.93449
325.93451
325.93452
325.93461
325.93462
325.9346
325.93463
325.93465
325.93467
325.93467
325.93451
325.9345
325.93454
325.93462
325.93461
325.93463
325.93466
325.93467
325.93472
325.93474
325.93452
325.93454
325.93457
325.93462
325.93464
325.93467
325.93473
325.93473
325.93477
325.9348
325.93461
325.93462
325.93462
325.93469
325.93472
325.93476
325.93484
325.93487
325.9349
325.93492
325.93462
325.93461
325.93464
325.93472
325.93477
325.93485
325.93494
325.93501
325.93504
325.93508
325.9346
325.93463
325.93467
325.93476
325.93485
325.93495
325.93508
325.93515
325.93519
325.93523
325.93463
325.93466
325.93473
325.93484
325.93494
325.93508
325.93522
325.93529
325.93532
325.93534
325.93465
325.93467
325.93473
325.93487
325.93501
325.93515
325.93529
325.93534
325.93534
325.93533
325.93467
325.93472
325.93477
325.9349
325.93504
325.93519
325.93532
325.93534
325.93533
325.93535
325.93467
325.93474
325.9348
325.93492
325.93508
325.93523
325.93534
325.93533
325.93535
325.93536
331.1782
331.1782
331.17823
331.17831
331.17834
331.17833
331.17836
331.1784
331.17842
331.17842
331.1782
331.17821
331.17825
331.17832
331.17834
331.17836
331.17839
331.17842
331.17845
331.17849
331.17823
331.17825
331.17829
331.17834
331.17837
331.1784
331.17846
331.17849
331.17851
331.17856
331.17831
331.17832
331.17834
331.17842
331.17846
331.17851
331.17861
331.17864
331.17867
331.17869
331.17834
331.17834
331.17837
331.17846
331.17851
331.1786
331.17872
331.17878
331.17882
331.17886
331.17833
331.17836
331.1784
331.17851
331.1786
331.17873
331.17887
331.17894
331.17898
331.17901
331.17836
331.17839
331.17846
331.17861
331.17872
331.17887
331.17903
331.1791
331.17913
331.17912
331.1784
331.17842
331.17849
331.17864
331.17878
331.17894
331.1791
331.17913
331.17915
331.17914
331.17842
331.17845
331.17851
331.17867
331.17882
331.17898
331.17913
331.17915
331.17914
331.17916
331.17842
331.17849
331.17856
331.17869
331.17886
331.17901
331.17912
331.17914
331.17916
331.17917
336.71931
336.71931
336.71935
336.71942
336.71946
336.71948
336.71951
336.71955
336.71957
336.71958
336.71931
336.71932
336.71937
336.71944
336.71947
336.71949
336.71955
336.71956
336.7196
336.71963
336.71935
336.71937
336.71941
336.71947
336.7195
336.71956
336.71963
336.71965
336.71967
336.71972
336.71942
336.71944
336.71947
336.71955
336.7196
336.71967
336.71978
336.71981
336.71984
336.71985
336.71946
336.71947
336.7195
336.7196
336.71966
336.71978
336.7199
336.71996
336.72
336.72004
336.71948
336.71949
336.71956
336.71967
336.71978
336.71992
336.72005
336.72012
336.72019
336.72022
336.71951
336.71955
336.71963
336.71978
336.7199
336.72005
336.72022
336.72029
336.72032
336.72033
336.71955
336.71956
336.71965
336.71981
336.71996
336.72012
336.72029
336.72034
336.72036
336.72034
336.71957
336.7196
336.71967
336.71984
336.72
336.72019
336.72032
336.72036
336.72034
336.72036
336.71958
336.71963
336.71972
336.71985
336.72004
336.72022
336.72033
336.72034
336.72036
336.72037
342.57779
342.57782
342.57784
342.57794
342.57799
342.57801
342.57805
342.57809
342.57811
342.57811
342.57782
342.57781
342.57788
342.57796
342.57799
342.57802
342.57808
342.57812
342.57816
342.57819
342.57784
342.57788
342.57793
342.57799
342.57803
342.5781
342.57817
342.57819
342.57823
342.57829
342.57794
342.57796
342.57799
342.57809
342.57814
342.57822
342.57833
342.57838
342.57841
342.57843
342.57799
342.57799
342.57803
342.57814
342.57823
342.57833
342.57848
342.57854
342.57858
342.57862
342.57801
342.57802
342.5781
342.57822
342.57833
342.57848
342.57864
342.57874
342.57877
342.5788
342.57805
342.57808
342.57817
342.57833
342.57848
342.57864
342.57881
342.57891
342.57893
342.57892
342.57809
342.57812
342.57819
342.57838
342.57854
342.57874
342.57891
342.57896
342.57894
342.57895
342.57811
342.57816
342.57823
342.57841
342.57858
342.57877
342.57893
342.57894
342.57895
342.57897
342.57811
342.57819
342.57829
342.57843
342.57862
342.5788
342.57892
342.57895
342.57897
342.57898
348.77289
348.77291
348.77294
348.77305
348.7731
348.77312
348.77316
348.7732
348.77325
348.77325
348.77291
348.7729
348.77298
348.77306
348.7731
348.77314
348.7732
348.77323
348.77328
348.77333
348.77294
348.77298
348.77303
348.7731
348.77315
348.77322
348.77329
348.77334
348.77338
348.77341
348.77305
348.77306
348.7731
348.7732
348.77326
348.77334
348.77348
348.77351
348.77354
348.77358
348.7731
348.7731
348.77315
348.77326
348.77336
348.77349
348.77362
348.77371
348.77374
348.77378
348.77312
348.77314
348.77322
348.77334
348.77349
348.77364
348.77381
348.77391
348.77394
348.77397
348.77316
348.7732
348.77329
348.77348
348.77362
348.77381
348.77398
348.77408
348.7741
348.77412
348.7732
348.77323
348.77334
348.77351
348.77371
348.77391
348.77408
348.77413
348.77414
348.77412
348.77325
348.77328
348.77338
348.77354
348.77374
348.77394
348.7741
348.77414
348.77412
348.77414
348.77325
348.77333
348.77341
348.77358
348.77378
348.77397
348.77412
348.77412
348.77414
348.77415
355.3226
355.32263
355.32265
355.32277
355.32282
355.32285
355.32292
355.32296
355.32298
355.32299
355.32263
355.32262
355.32267
355.32278
355.32283
355.32287
355.32296
355.32299
355.32304
355.32306
355.32265
355.32267
355.32275
355.32283
355.32288
355.32295
355.32305
355.32308
355.32312
355.32318
355.32277
355.32278
355.32283
355.32293
355.323
355.32311
355.32322
355.32328
355.32331
355.32335
355.32282
355.32283
355.32288
355.323
355.3231
355.32324
355.3234
355.32346
355.32352
355.32356
355.32285
355.32287
355.32295
355.32311
355.32324
355.32343
355.3236
355.32369
355.32373
355.32376
355.32292
355.32296
355.32305
355.32322
355.3234
355.3236
355.32377
355.32387
355.32389
355.3239
355.32296
355.32299
355.32308
355.32328
355.32346
355.32369
355.32387
355.32392
355.32393
355.32391
355.32298
355.32304
355.32312
355.32331
355.32352
355.32373
355.32389
355.32393
355.32391
355.32395
355.32299
355.32306
355.32318
355.32335
355.32356
355.32376
355.3239
355.32391
355.32395
355.32396
362.24345
362.24348
362.24351
362.24362
362.24369
362.24375
362.24379
362.24386
362.24388
362.24388
362.24348
362.24347
362.24355
362.24364
362.2437
362.24376
362.24383
362.24389
362.24394
362.24396
362.24351
362.24355
362.24361
362.24372
362.24378
362.24385
362.24395
362.24398
362.24403
362.24408
362.24362
362.24364
362.24372
362.2438
362.2439
362.24402
362.24413
362.24419
362.24422
362.24426
362.24369
362.2437
362.24378
362.2439
362.24401
362.24416
362.24431
362.2444
362.24444
362.24447
362.24375
362.24376
362.24385
362.24402
362.24416
362.24434
362.24452
362.24462
362.24468
362.2447
362.24379
362.24383
362.24395
362.24413
362.24431
362.24452
362.24472
362.24479
362.24484
362.24485
362.24386
362.24389
362.24398
362.24419
362.2444
362.24462
362.24479
362.24487
362.24487
362.24485
362.24388
362.24394
362.24403
362.24422
362.24444
362.24468
362.24484
362.24487
362.24485
362.24487
362.24388
362.24396
362.24408
362.24426
362.24447
362.2447
362.24485
362.24485
362.24487
362.24488
369.55
369.55003
369.55007
369.55018
369.55025
369.55032
369.55039
369.55043
369.55048
369.55049
369.55003
369.55003
369.55011
369.55021
369.55029
369.55034
369.55043
369.55047
369.55052
369.55057
369.55007
369.55011
369.55017
369.55028
369.55035
369.55043
369.55053
369.55059
369.55064
369.55069
369.55018
369.55021
369.55028
369.55039
369.55047
369.5506
369.55074
369.5508
369.55083
369.55087
369.55025
369.55029
369.55035
369.55047
369.55062
369.55077
369.55093
369.551
369.55106
369.55109
369.55032
369.55034
369.55043
369.5506
369.55077
369.55096
369.55114
369.55124
369.5513
369.55132
369.55039
369.55043
369.55053
369.55074
369.55093
369.55114
369.55132
369.55142
369.55146
369.55147
369.55043
369.55047
369.55059
369.5508
369.551
369.55124
369.55142
369.55149
369.5515
369.55148
369.55048
369.55052
369.55064
369.55083
369.55106
369.5513
369.55146
369.5515
369.55148
369.55149
369.55049
369.55057
369.55069
369.55087
369.55109
369.55132
369.55147
369.55148
369.55149
369.5515
377.25427
377.2543
377.25433
377.25445
377.25455
377.25459
377.25467
377.25474
377.25476
377.25477
377.2543
377.25429
377.25438
377.2545
377.25457
377.25464
377.25471
377.25478
377.25483
377.25485
377.25433
377.25438
377.25444
377.25455
377.25462
377.25474
377.25484
377.25488
377.25495
377.25497
377.25445
377.2545
377.25455
377.25467
377.25478
377.25491
377.25503
377.25509
377.25515
377.25519
377.25455
377.25457
377.25462
377.25478
377.25491
377.25509
377.25525
377.25532
377.25538
377.25541
377.25459
377.25464
377.25474
377.25491
377.25509
377.25529
377.25547
377.25556
377.25563
377.25565
377.25467
377.25471
377.25484
377.25503
377.25525
377.25547
377.25568
377.25574
377.25579
377.2558
377.25474
377.25478
377.25488
377.25509
377.25532
377.25556
377.25574
377.25582
377.25582
377.2558
377.25476
377.25483
377.25495
377.25515
377.25538
377.25563
377.25579
377.25582
377.2558
377.25585
377.25477
377.25485
377.25497
377.25519
377.25541
377.25565
377.2558
377.2558
377.25585
377.25582
385.36511
385.36514
385.3652
385.36532
385.3654
385.36548
385.36555
385.36562
385.36565
385.36566
385.36514
385.36516
385.36523
385.36535
385.36545
385.36552
385.3656
385.36567
385.36572
385.36574
385.3652
385.36523
385.36531
385.36543
385.36551
385.36562
385.36573
385.36579
385.36584
385.36589
385.36532
385.36535
385.36543
385.36555
385.36566
385.3658
385.36592
385.366
385.36605
385.36609
385.3654
385.36545
385.36551
385.36566
385.3658
385.36598
385.36615
385.36624
385.36628
385.36631
385.36548
385.36552
385.36562
385.3658
385.36598
385.36619
385.36637
385.36647
385.36653
385.36655
385.36555
385.3656
385.36573
385.36592
385.36615
385.36637
385.36658
385.36667
385.3667
385.3667
385.36562
385.36567
385.36579
385.366
385.36624
385.36647
385.36667
385.36673
385.36673
385.36671
385.36565
385.36572
385.36584
385.36605
385.36628
385.36653
385.3667
385.36673
385.36673
385.36675
385.36566
385.36574
385.36589
385.36609
385.36631
385.36655
385.3667
385.36671
385.36675
385.36675
393.88759
393.88762
393.88766
393.88778
393.88789
393.88797
393.88805
393.8881
393.88815
393.88816
393.88762
393.88762
393.88771
393.88784
393.88791
393.88802
393.8881
393.88817
393.88822
393.88824
393.88766
393.88771
393.88778
393.88789
393.888
393.88812
393.88823
393.88827
393.88832
393.88837
393.88778
393.88784
393.88789
393.88804
393.88816
393.8883
393.88842
393.88851
393.88855
393.88859
393.88789
393.88791
393.888
393.88816
393.8883
393.88849
393.88865
393.88875
393.88879
393.88882
393.88797
393.88802
393.88812
393.8883
393.88849
393.8887
393.88888
393.88898
393.88904
393.88907
393.88805
393.8881
393.88823
393.88842
393.88865
393.88888
393.88909
393.88919
393.88921
393.88921
393.8881
393.88817
393.88827
393.88851
393.88875
393.88898
393.88919
393.88924
393.88924
393.88922
393.88815
393.88822
393.88832
393.88855
393.88879
393.88904
393.88921
393.88924
393.88925
393.88926
393.88816
393.88824
393.88837
393.88859
393.88882
393.88907
393.88921
393.88922
393.88926
393.88927
402.82202
402.82205
402.82212
402.82223
402.82235
402.82243
402.82251
402.82257
402.82262
402.82264
402.82205
402.82205
402.82214
402.82227
402.82237
402.82246
402.82256
402.82261
402.82267
402.82271
402.82212
402.82214
402.82223
402.82235
402.82246
402.82258
402.8227
402.82274
402.82279
402.82284
402.82223
402.82227
402.82235
402.82247
402.82262
402.82276
402.82289
402.82298
402.82303
402.82307
402.82235
402.82237
402.82246
402.82262
402.82277
402.82296
402.82313
402.82322
402.82327
402.8233
402.82243
402.82246
402.82258
402.82276
402.82296
402.82317
402.82338
402.82346
402.82352
402.82354
402.82251
402.82256
402.8227
402.82289
402.82313
402.82338
402.82357
402.82366
402.82368
402.82369
402.82257
402.82261
402.82274
402.82298
402.82322
402.82346
402.82366
402.82371
402.82372
402.8237
402.82262
402.82267
402.82279
402.82303
402.82327
402.82352
402.82368
402.82372
402.8237
402.82374
402.82264
402.82271
402.82284
402.82307
402.8233
402.82354
402.82369
402.8237
402.82374
402.82372
412.16329
412.16332
412.16336
412.1635
412.16363
412.16371
412.16379
412.16385
412.1639
412.16392
412.16332
412.16332
412.16341
412.16354
412.16365
412.16376
412.16384
412.16392
412.16398
412.164
412.16336
412.16341
412.1635
412.16362
412.16373
412.16386
412.16397
412.16405
412.16411
412.16413
412.1635
412.16354
412.16362
412.16376
412.16389
412.16404
412.16419
412.16426
412.16431
412.16435
412.16363
412.16365
412.16373
412.16389
412.16407
412.16426
412.16443
412.16451
412.16458
412.16461
412.16371
412.16376
412.16386
412.16404
412.16426
412.16448
412.16466
412.16477
412.16481
412.16483
412.16379
412.16384
412.16397
412.16419
412.16443
412.16466
412.16487
412.16495
412.16497
412.16497
412.16385
412.16392
412.16405
412.16426
412.16451
412.16477
412.16495
412.16503
412.16501
412.16499
412.1639
412.16398
412.16411
412.16431
412.16458
412.16481
412.16497
412.16501
412.16502
412.16503
412.16392
412.164
412.16413
412.16435
412.16461
412.16483
412.16497
412.16499
412.16503
412.16501
421.89984
421.89987
421.89993
421.90005
421.90017
421.90025
421.90034
421.90042
421.90046
421.9005
421.89987
421.89989
421.89995
421.9001
421.90021
421.9003
421.90042
421.90047
421.90053
421.90058
421.89993
421.89995
421.90004
421.90018
421.9003
421.90043
421.90055
421.9006
421.90066
421.90071
421.90005
421.9001
421.90018
421.9003
421.90046
421.90061
421.90074
421.90081
421.90089
421.90091
421.90017
421.90021
421.9003
421.90046
421.90064
421.90081
421.90098
421.90108
421.90113
421.90116
421.90025
421.9003
421.90043
421.90061
421.90081
421.90102
421.90123
421.90132
421.90139
421.90141
421.90034
421.90042
421.90055
421.90074
421.90098
421.90123
421.90142
421.90152
421.90155
421.90153
421.90042
421.90047
421.9006
421.90081
421.90108
421.90132
421.90152
421.90158
421.90156
421.90154
421.90046
421.90053
421.90066
421.90089
421.90113
421.90139
421.90155
421.90156
421.90158
421.90159
421.9005
421.90058
421.90071
421.90091
421.90116
421.90141
421.90153
421.90154
421.90159
421.90157
432.01283
432.01286
432.01292
432.01306
432.01318
432.01327
432.01336
432.01342
432.01348
432.01351
432.01286
432.01288
432.01297
432.01309
432.0132
432.01332
432.01341
432.0135
432.01355
432.01358
432.01292
432.01297
432.01305
432.01317
432.01331
432.01342
432.01354
432.01362
432.01368
432.01371
432.01306
432.01309
432.01317
432.01331
432.01347
432.01362
432.01375
432.01383
432.01388
432.01393
432.01318
432.0132
432.01331
432.01347
432.01365
432.01382
432.01399
432.01408
432.01415
432.01416
432.01327
432.01332
432.01342
432.01362
432.01382
432.01404
432.01422
432.01433
432.01438
432.0144
432.01336
432.01341
432.01354
432.01375
432.01399
432.01422
432.01444
432.01451
432.01454
432.01455
432.01342
432.0135
432.01362
432.01383
432.01408
432.01433
432.01451
432.01457
432.01458
432.01457
432.01348
432.01355
432.01368
432.01388
432.01415
432.01438
432.01454
432.01458
432.01458
432.01459
432.01351
432.01358
432.01371
432.01393
432.01416
432.0144
432.01455
432.01457
432.01459
432.01457
442.47547
442.4755
442.47556
442.47566
442.47579
442.47588
442.476
442.47606
442.4761
442.47613
442.4755
442.4755
442.47557
442.47572
442.47584
442.47593
442.47605
442.47611
442.47617
442.47619
442.47556
442.47557
442.47566
442.4758
442.47592
442.47605
442.47617
442.47623
442.4763
442.47635
442.47566
442.47572
442.4758
442.47594
442.47607
442.47625
442.47638
442.47646
442.4765
442.47654
442.47579
442.47584
442.47592
442.47607
442.47625
442.47645
442.47662
442.47671
442.47676
442.4768
442.47588
442.47593
442.47605
442.47625
442.47645
442.47667
442.47685
442.47694
442.47699
442.47701
442.476
442.47605
442.47617
442.47638
442.47662
442.47685
442.47704
442.47712
442.47715
442.47713
442.47606
442.47611
442.47623
442.47646
442.47671
442.47694
442.47712
442.47718
442.47717
442.47716
442.4761
442.47617
442.4763
442.4765
442.47676
442.47699
442.47715
442.47717
442.47717
442.47718
442.47613
442.47619
442.47635
442.47654
442.4768
442.47701
442.47713
442.47716
442.47718
442.47718
453.25234
453.25237
453.25243
453.25256
453.25269
453.25278
453.25287
453.25294
453.25301
453.25304
453.25237
453.2524
453.25247
453.25261
453.25273
453.25283
453.25294
453.25301
453.25305
453.2531
453.25243
453.25247
453.25255
453.25269
453.25281
453.25294
453.25307
453.25313
453.2532
453.25323
453.25256
453.25261
453.25269
453.2528
453.25296
453.25311
453.25327
453.25333
453.25339
453.25342
453.25269
453.25273