/*--------------------------------*- C++ -*----------------------------------*\
| =========                 |                                                 |
| \\      /  F ield         | OpenFOAM: The Open Source CFD Toolbox           |
|  \\    /   O peration     | Version:  v2106                                 |
|   \\  /    A nd           | Website:  www.openfoam.com                      |
|    \\/     M anipulation  |                                                 |
\*---------------------------------------------------------------------------*/
FoamFile
{
    version     2.0;
    format      ascii;
    arch        "LSB;label=32;scalar=64";
    class       volScalarField;
    location    "7.5";
    object      gradTz;
}
// * * * * * * * * * * * * * * * * * * * * * * * * * * * * * * * * * * * * * //

dimensions      [0 -1 0 1 0 0 0];

internalField   nonuniform List<scalar> 
4000
(
292.01842
292.01711
292.01462
292.02119
292.01858
292.01558
292.01411
292.01366
292.01351
292.01329
292.01711
292.01361
292.01711
292.02054
292.01713
292.01427
292.0131
292.01284
292.01305
292.01374
292.01462
292.01711
292.01807
292.02039
292.01694
292.01441
292.01355
292.01319
292.01287
292.01357
292.02119
292.02054
292.02039
292.02252
292.01931
292.01727
292.01697
292.01696
292.01631
292.01604
292.01858
292.01713
292.01694
292.01931
292.01649
292.01492
292.01522
292.0159
292.01592
292.01614
292.01558
292.01427
292.01441
292.01727
292.01492
292.01377
292.01448
292.01559
292.01602
292.0166
292.01411
292.0131
292.01355
292.01697
292.01522
292.01448
292.01546
292.01673
292.01725
292.01784
292.01366
292.01284
292.01319
292.01696
292.0159
292.01559
292.01673
292.01798
292.01835
292.01872
292.01351
292.01305
292.01287
292.01631
292.01592
292.01602
292.01725
292.01835
292.01845
292.01859
292.01329
292.01374
292.01357
292.01604
292.01614
292.0166
292.01784
292.01872
292.01859
292.01875
294.76119
294.76271
294.76237
294.76511
294.76281
294.76051
294.75942
294.75906
294.75889
294.75809
294.76271
294.76267
294.7641
294.76526
294.76261
294.76052
294.75967
294.75932
294.7597
294.76014
294.76237
294.7641
294.76449
294.76507
294.76248
294.76074
294.76021
294.75966
294.75946
294.75998
294.76511
294.76526
294.76507
294.76557
294.76323
294.76196
294.762
294.76181
294.7614
294.76136
294.76281
294.76261
294.76248
294.76323
294.76125
294.76044
294.76105
294.76149
294.76162
294.76195
294.76051
294.76052
294.76074
294.76196
294.76044
294.76005
294.76106
294.76188
294.76236
294.76296
294.75942
294.75967
294.76021
294.762
294.76105
294.76106
294.76232
294.76327
294.76377
294.76427
294.75906
294.75932
294.75966
294.76181
294.76149
294.76188
294.76327
294.76414
294.76442
294.76461
294.75889
294.7597
294.75946
294.7614
294.76162
294.76236
294.76377
294.76442
294.76442
294.76452
294.75809
294.76014
294.75998
294.76136
294.76195
294.76296
294.76427
294.76461
294.76452
294.76474
299.82039
299.82229
299.82212
299.82346
299.82145
299.81974
299.81904
299.81876
299.81877
299.81768
299.82229
299.82229
299.8231
299.82339
299.82122
299.81979
299.81929
299.81879
299.81929
299.81965
299.82212
299.8231
299.82317
299.82312
299.82109
299.82006
299.81994
299.81921
299.81913
299.8197
299.82346
299.82339
299.82312
299.82308
299.82133
299.82078
299.82125
299.82089
299.82067
299.8209
299.82145
299.82122
299.82109
299.82133
299.81994
299.81984
299.82085
299.82107
299.82132
299.82187
299.81974
299.81979
299.82006
299.82078
299.81984
299.82014
299.82153
299.82209
299.82262
299.82333
299.81904
299.81929
299.81994
299.82125
299.82085
299.82153
299.82314
299.82377
299.82423
299.82473
299.81876
299.81879
299.81921
299.82089
299.82107
299.82209
299.82377
299.82424
299.82438
299.82449
299.81877
299.81929
299.81913
299.82067
299.82132
299.82262
299.82423
299.82438
299.8243
299.82473
299.81768
299.81965
299.8197
299.8209
299.82187
299.82333
299.82473
299.82449
299.82473
299.82481
307.38853
307.38938
307.38876
307.39
307.38843
307.38728
307.38696
307.38671
307.38675
307.38581
307.38938
307.38897
307.38937
307.38971
307.38807
307.38724
307.38717
307.38661
307.38702
307.38737
307.38876
307.38937
307.38916
307.38924
307.38778
307.38738
307.38772
307.38695
307.38688
307.38756
307.39
307.38971
307.38924
307.38938
307.38821
307.38829
307.38921
307.38878
307.38856
307.38894
307.38843
307.38807
307.38778
307.38821
307.3874
307.38792
307.38937
307.38947
307.38966
307.39029
307.38728
307.38724
307.38738
307.38829
307.38792
307.38883
307.39063
307.39104
307.39143
307.39215
307.38696
307.38717
307.38772
307.38921
307.38937
307.39063
307.3926
307.39302
307.39326
307.39364
307.38671
307.38661
307.38695
307.38878
307.38947
307.39104
307.39302
307.39318
307.39299
307.3929
307.38675
307.38702
307.38688
307.38856
307.38966
307.39143
307.39326
307.39299
307.39261
307.3934
307.38581
307.38737
307.38756
307.38894
307.39029
307.39215
307.39364
307.3929
307.3934
307.39342
317.43727
317.43753
317.43687
317.43829
317.43718
317.43655
317.43666
317.43656
317.43657
317.43575
317.43753
317.43686
317.43726
317.43786
317.4367
317.43642
317.43682
317.43645
317.43684
317.43721
317.43687
317.43726
317.43711
317.4375
317.43653
317.43668
317.43749
317.43692
317.43687
317.43755
317.43829
317.43786
317.4375
317.43796
317.43729
317.43792
317.43929
317.43902
317.4388
317.43917
317.43718
317.4367
317.43653
317.43729
317.43699
317.43804
317.43992
317.44015
317.44029
317.44087
317.43655
317.43642
317.43668
317.43792
317.43804
317.43947
317.44168
317.44217
317.44247
317.44308
317.43666
317.43682
317.43749
317.43929
317.43992
317.44168
317.44404
317.44449
317.44455
317.44474
317.43656
317.43645
317.43692
317.43902
317.44015
317.44217
317.44449
317.44459
317.44411
317.44371
317.43657
317.43684
317.43687
317.4388
317.44029
317.44247
317.44455
317.44411
317.44339
317.4442
317.43575
317.43721
317.43755
317.43917
317.44087
317.44308
317.44474
317.44371
317.4442
317.44419
329.93134
329.93153
329.93103
329.93269
329.93197
329.93177
329.93229
329.93247
329.9326
329.93192
329.93153
329.9309
329.93145
329.93232
329.93157
329.93172
329.93254
329.93246
329.93297
329.93341
329.93103
329.93145
329.93149
329.93216
329.93161
329.93219
329.9334
329.93311
329.93319
329.93392
329.93269
329.93232
329.93216
329.93292
329.93267
329.93371
329.93547
329.93545
329.93534
329.93575
329.93197
329.93157
329.93161
329.93267
329.93277
329.93424
329.93648
329.93692
329.93714
329.93773
329.93177
329.93172
329.93219
329.93371
329.93424
329.93606
329.93861
329.93929
329.93964
329.94023
329.93229
329.93254
329.9334
329.93547
329.93648
329.93861
329.94128
329.9419
329.94197
329.94207
329.93247
329.93246
329.93311
329.93545
329.93692
329.93929
329.9419
329.94212
329.94156
329.94099
329.9326
329.93297
329.93319
329.93534
329.93714
329.93964
329.94197
329.94156
329.9407
329.94142
329.93192
329.93341
329.93392
329.93575
329.93773
329.94023
329.94207
329.94099
329.94142
329.94134
344.82662
344.82688
344.82657
344.8284
344.82801
344.82815
344.82897
344.8294
344.82966
344.82908
344.82688
344.82637
344.82707
344.82814
344.82772
344.8282
344.82932
344.82948
344.83012
344.83061
344.82657
344.82707
344.82728
344.82818
344.82796
344.82886
344.83035
344.8303
344.8305
344.83127
344.8284
344.82814
344.82818
344.82917
344.82924
344.83059
344.83261
344.83281
344.83282
344.83326
344.82801
344.82772
344.82796
344.82924
344.82965
344.83141
344.8339
344.83453
344.83485
344.83546
344.82815
344.8282
344.82886
344.83059
344.83141
344.8335
344.83629
344.83714
344.83757
344.83815
344.82897
344.82932
344.83035
344.83261
344.8339
344.83629
344.83918
344.83994
344.84007
344.84014
344.8294
344.82948
344.8303
344.83281
344.83453
344.83714
344.83994
344.84029
344.83976
344.8391
344.82966
344.83012
344.8305
344.83282
344.83485
344.83757
344.84007
344.83976
344.83886
344.83951
344.82908
344.83061
344.83127
344.83326
344.83546
344.83815
344.84014
344.8391
344.83951
344.83938
362.06786
362.06819
362.06803
362.06998
362.06983
362.07022
362.07126
362.07186
362.07224
362.07173
362.06819
362.06777
362.06858
362.06981
362.06964
362.07037
362.07169
362.07203
362.07276
362.07329
362.06803
362.06858
362.06893
362.06999
362.07002
362.07115
362.07284
362.07296
362.07327
362.07405
362.06998
362.06981
362.06999
362.07115
362.07146
362.07303
362.07522
362.07558
362.07569
362.07615
362.06983
362.06964
362.07002
362.07146
362.0721
362.07406
362.07671
362.07748
362.07787
362.07849
362.07022
362.07037
362.07115
362.07303
362.07406
362.07635
362.07927
362.08024
362.08073
362.08131
362.07126
362.07169
362.07284
362.07522
362.07671
362.07927
362.08228
362.08316
362.08333
362.0834
362.07186
362.07203
362.07296
362.07558
362.07748
362.08024
362.08316
362.0836
362.08311
362.08243
362.07224
362.07276
362.07327
362.07569
362.07787
362.08073
362.08333
362.08311
362.08223
362.08284
362.07173
362.07329
362.07405
362.07615
362.07849
362.08131
362.0834
362.08243
362.08284
362.08268
381.58875
381.58912
381.58909
381.59108
381.59114
381.59172
381.59291
381.59364
381.59408
381.59363
381.58912
381.58879
381.58966
381.59099
381.59103
381.59194
381.5934
381.59386
381.59465
381.59519
381.58909
381.58966
381.59011
381.59128
381.59151
381.59281
381.59463
381.59487
381.59525
381.59603
381.59108
381.59099
381.59128
381.59255
381.59305
381.59477
381.59707
381.59754
381.59772
381.5982
381.59114
381.59103
381.59151
381.59305
381.59387
381.59596
381.5987
381.59955
381.6
381.60061
381.59172
381.59194
381.59281
381.59477
381.59596
381.59837
381.60136
381.6024
381.60293
381.6035
381.59291
381.5934
381.59463
381.59707
381.5987
381.60136
381.60443
381.60537
381.60558
381.60564
381.59364
381.59386
381.59487
381.59754
381.59955
381.6024
381.60537
381.60588
381.60542
381.60475
381.59408
381.59465
381.59525
381.59772
381.6
381.60293
381.60558
381.60542
381.60458
381.60516
381.59363
381.59519
381.59603
381.5982
381.60061
381.6035
381.60564
381.60475
381.60516
381.60499
403.3117
403.31209
403.31216
403.31417
403.31438
403.31511
403.31641
403.31721
403.31771
403.3173
403.31209
403.31183
403.31274
403.31412
403.31433
403.31538
403.31694
403.31748
403.3183
403.31884
403.31216
403.31274
403.31326
403.3145
403.31489
403.31632
403.31821
403.31854
403.31896
403.31974
403.31417
403.31412
403.3145
403.31584
403.31649
403.31832
403.32067
403.32121
403.32144
403.32192
403.31438
403.31433
403.31489
403.31649
403.31745
403.31963
403.32239
403.3233
403.32377
403.32438
403.31511
403.31538
403.31632
403.31832
403.31963
403.3221
403.3251
403.32618
403.32672
403.32729
403.31641
403.31694
403.31821
403.32067
403.32239
403.3251
403.32818
403.32915
403.32938
403.32944
403.31721
403.31748
403.31854
403.32121
403.3233
403.32618
403.32915
403.32969
403.32926
403.3286
403.31771
403.3183
403.31896
403.32144
403.32377
403.32672
403.32938
403.32926
403.32846
403.32903
403.3173
403.31884
403.31974
403.32192
403.32438
403.32729
403.32944
403.3286
403.32903
403.32885
427.14733
427.14774
427.14789
427.14987
427.15022
427.15107
427.15244
427.15329
427.15381
427.15345
427.14774
427.14754
427.14846
427.14987
427.15022
427.15138
427.15299
427.15359
427.15442
427.15495
427.14789
427.14846
427.14903
427.15031
427.15084
427.15235
427.15429
427.15467
427.15513
427.15589
427.14987
427.14987
427.15031
427.15169
427.15246
427.15435
427.15673
427.15731
427.15757
427.15805
427.15022
427.15022
427.15084
427.15246
427.15353
427.15575
427.15851
427.15943
427.15992
427.16051
427.15107
427.15138
427.15235
427.15435
427.15575
427.15825
427.16123
427.16232
427.16286
427.1634
427.15244
427.15299
427.15429
427.15673
427.15851
427.16123
427.16428
427.16524
427.16548
427.16553
427.15329
427.15359
427.15467
427.15731
427.15943
427.16232
427.16524
427.1658
427.16539
427.16474
427.15381
427.15442
427.15513
427.15757
427.15992
427.16286
427.16548
427.16539
427.16462
427.16517
427.15345
427.15495
427.15589
427.15805
427.16051
427.1634
427.16553
427.16474
427.16517
427.16499
452.99396
452.99437
452.99458
452.99651
452.99698
452.99793
452.99933
453.00022
453.00076
453.00043
452.99437
452.99423
452.99514
452.99655
452.99703
452.99826
452.99991
453.00054
453.00136
453.00188
452.99458
452.99514
452.99574
452.99704
452.99768
452.99926
453.00121
453.00164
453.0021
453.00283
452.99651
452.99655
452.99704
452.99843
452.99931
453.00124
453.0036
453.0042
453.00449
453.00496
452.99698
452.99703
452.99768
452.99931
453.00046
453.0027
453.00541
453.00634
453.00683
453.0074
452.99793
452.99826
452.99926
453.00124
453.0027
453.0052
453.00812
453.00919
453.00972
453.01023
452.99933
452.99991
453.00121
453.0036
453.00541
453.00812
453.01109
453.01204
453.01227
453.01231
453.00022
453.00054
453.00164
453.0042
453.00634
453.00919
453.01204
453.01259
453.0122
453.01156
453.00076
453.00136
453.0021
453.00449
453.00683
453.00972
453.01227
453.0122
453.01146
453.01198
453.00043
453.00188
453.00283
453.00496
453.0074
453.01023
453.01231
453.01156
453.01198
453.0118
480.73708
480.73748
480.73776
480.7396
480.74017
480.7412
480.74264
480.74353
480.74407
480.74378
480.73748
480.7374
480.73829
480.73968
480.74026
480.74156
480.74322
480.74388
480.74468
480.74517
480.73776
480.73829
480.7389
480.7402
480.74095
480.74257
480.7445
480.74497
480.74544
480.74613
480.7396
480.73968
480.7402
480.74159
480.74255
480.7445
480.74682
480.74744
480.74774
480.74819
480.74017
480.74026
480.74095
480.74255
480.74377
480.74601
480.74865
480.74956
480.75004
480.75057
480.7412
480.74156
480.74257
480.7445
480.74601
480.74848
480.75131
480.75234
480.75285
480.75333
480.74264
480.74322
480.7445
480.74682
480.74865
480.75131
480.75418
480.7551
480.75532
480.75534
480.74353
480.74388
480.74497
480.74744
480.74956
480.75234
480.7551
480.75563
480.75525
480.75462
480.74407
480.74468
480.74544
480.74774
480.75004
480.75285
480.75532
480.75525
480.75454
480.75502
480.74378
480.74517
480.74613
480.74819
480.75057
480.75333
480.75534
480.75462
480.75502
480.75484
510.24901
510.24939
510.24972
510.25146
510.25212
510.25322
510.25466
510.25556
510.2561
510.25584
510.24939
510.24936
510.25021
510.25156
510.25225
510.2536
510.25524
510.25592
510.25669
510.25715
510.24972
510.25021
510.25083
510.25211
510.25295
510.2546
510.2565
510.25699
510.25745
510.2581
510.25146
510.25156
510.25211
510.25348
510.25452
510.25646
510.25872
510.25934
510.25965
510.26008
510.25212
510.25225
510.25295
510.25452
510.25579
510.258
510.26055
510.26143
510.26189
510.26239
510.25322
510.2536
510.2546
510.25646
510.258
510.26042
510.26314
510.26413
510.26461
510.26504
510.25466
510.25524
510.2565
510.25872
510.26055
510.26314
510.26589
510.26676
510.26696
510.26695
510.25556
510.25592
510.25699
510.25934
510.26143
510.26413
510.26676
510.26726
510.26689
510.26628
510.2561
510.25669
510.25745
510.25965
510.26189
510.26461
510.26696
510.26689
510.26621
510.26665
510.25584
510.25715
510.2581
510.26008
510.26239
510.26504
510.26695
510.26628
510.26665
510.26647
541.38856
541.38891
541.38929
541.3909
541.39165
541.39281
541.39425
541.39514
541.39567
541.39545
541.38891
541.38894
541.38974
541.39103
541.39181
541.3932
541.39483
541.39551
541.39624
541.39667
541.38929
541.38974
541.39036
541.39161
541.39253
541.39419
541.39605
541.39655
541.39701
541.39761
541.3909
541.39103
541.39161
541.39293
541.39404
541.39597
541.39814
541.39876
541.39907
541.39948
541.39165
541.39181
541.39253
541.39404
541.39536
541.39752
541.39995
541.4008
541.40124
541.40169
541.39281
541.3932
541.39419
541.39597
541.39752
541.39987
541.40245
541.40339
541.40383
541.40421
541.39425
541.39483
541.39605
541.39814
541.39995
541.40245
541.40505
541.40587
541.40605
541.40602
541.39514
541.39551
541.39655
541.39876
541.4008
541.40339
541.40587
541.40634
541.40598
541.40538
541.39567
541.39624
541.39701
541.39907
541.40124
541.40383
541.40605
541.40598
541.40532
541.40573
541.39545
541.39667
541.39761
541.39948
541.40169
541.40421
541.40602
541.40538
541.40573
541.40554
574.00096
574.00129
574.00171
574.00317
574.004
574.00521
574.00664
574.00751
574.00802
574.00785
574.00129
574.00136
574.0021
574.00332
574.00419
574.00561
574.00721
574.00788
574.00857
574.00895
574.00171
574.0021
574.00272
574.00391
574.00491
574.00657
574.00837
574.00889
574.00933
574.00987
574.00317
574.00332
574.00391
574.00519
574.00635
574.00825
574.01032
574.01093
574.01124
574.01162
574.004
574.00419
574.00491
574.00635
574.0077
574.0098
574.0121
574.0129
574.01331
574.01372
574.00521
574.00561
574.00657
574.00825
574.0098
574.01206
574.01448
574.01536
574.01576
574.01609
574.00664
574.00721
574.00837
574.01032
574.0121
574.01448
574.01692
574.01767
574.01782
574.01777
574.00751
574.00788
574.00889
574.01093
574.0129
574.01536
574.01767
574.0181
574.01775
574.01716
574.00802
574.00857
574.00933
574.01124
574.01331
574.01576
574.01782
574.01775
574.01713
574.01749
574.00785
574.00895
574.00987
574.01162
574.01372
574.01609
574.01777
574.01716
574.01749
574.0173
607.91785
607.91815
607.91861
607.9199
607.92081
607.92205
607.92346
607.92432
607.92481
607.92467
607.91815
607.91827
607.91894
607.92007
607.92103
607.92247
607.92402
607.92468
607.92532
607.92567
607.91861
607.91894
607.91954
607.92067
607.92174
607.92339
607.92512
607.92564
607.92607
607.92655
607.9199
607.92007
607.92067
607.92188
607.9231
607.92494
607.9269
607.9275
607.92781
607.92816
607.92081
607.92103
607.92174
607.9231
607.92446
607.92649
607.92863
607.92939
607.92977
607.93013
607.92205
607.92247
607.92339
607.92494
607.92649
607.92864
607.93089
607.93169
607.93205
607.93233
607.92346
607.92402
607.92512
607.9269
607.92863
607.93089
607.93313
607.93382
607.93394
607.93386
607.92432
607.92468
607.92564
607.9275
607.92939
607.93169
607.93382
607.9342
607.93386
607.9333
607.92481
607.92532
607.92607
607.92781
607.92977
607.93205
607.93394
607.93386
607.93328
607.93359
607.92467
607.92567
607.92655
607.92816
607.93013
607.93233
607.93386
607.9333
607.93359
607.9334
642.95752
642.95778
642.95827
642.95939
642.96036
642.96165
642.96302
642.96385
642.96432
642.96423
642.95778
642.95795
642.95854
642.95958
642.96061
642.96206
642.96355
642.96421
642.96479
642.96509
642.95827
642.95854
642.95912
642.96018
642.96131
642.96293
642.96458
642.96511
642.96552
642.96594
642.95939
642.95958
642.96018
642.96131
642.96256
642.96435
642.96618
642.96676
642.96707
642.96738
642.96036
642.96061
642.96131
642.96256
642.96395
642.96587
642.96785
642.96855
642.9689
642.96921
642.96165
642.96206
642.96293
642.96435
642.96587
642.9679
642.96995
642.97068
642.97099
642.97122
642.96302
642.96355
642.96458
642.96618
642.96785
642.96995
642.97199
642.9726
642.97269
642.9726
642.96385
642.96421
642.96511
642.96676
642.96855
642.97068
642.9726
642.97293
642.97261
642.97208
642.96432
642.96479
642.96552
642.96707
642.9689
642.97099
642.97269
642.97261
642.97207
642.97234
642.96423
642.96509
642.96594
642.96738
642.96921
642.97122
642.9726
642.97208
642.97234
642.97215
678.92535
678.92556
678.92608
678.927
678.92803
678.92935
678.93067
678.93147
678.93191
678.93188
678.92556
678.92578
678.92628
678.9272
678.92831
678.92975
678.93118
678.93182
678.93235
678.9326
678.92608
678.92628
678.92682
678.92779
678.92899
678.93057
678.93212
678.93265
678.93305
678.9334
678.927
678.9272
678.92779
678.92883
678.93012
678.93184
678.93352
678.93408
678.93439
678.93467
678.92803
678.92831
678.92899
678.93012
678.93151
678.93333
678.93511
678.93575
678.93607
678.93633
678.92935
678.92975
678.93057
678.93184
678.93333
678.93521
678.93705
678.93769
678.93796
678.93813
678.93067
678.93118
678.93212
678.93352
678.93511
678.93705
678.93886
678.93939
678.93946
678.93934
678.93147
678.93182
678.93265
678.93408
678.93575
678.93769
678.93939
678.93967
678.93937
678.93887
678.93191
678.93235
678.93305
678.93439
678.93607
678.93796
678.93946
678.93937
678.93888
678.9391
678.93188
678.9326
678.9334
678.93467
678.93633
678.93813
678.93934
678.93887
678.9391
678.93891
715.61442
715.61458
715.61512
715.61583
715.61692
715.61825
715.61952
715.62029
715.6207
715.62072
715.61458
715.61484
715.61524
715.61604
715.61721
715.61865
715.61999
715.62062
715.62109
715.62129
715.61512
715.61524
715.61574
715.61662
715.61787
715.6194
715.62083
715.62137
715.62175
715.62203
715.61583
715.61604
715.61662
715.61756
715.61887
715.6205
715.62202
715.62256
715.62287
715.62311
715.61692
715.61721
715.61787
715.61887
715.62025
715.62194
715.62352
715.62409
715.62438
715.62458
715.61825
715.61865
715.6194
715.6205
715.62194
715.62367
715.62527
715.62582
715.62604
715.62616
715.61952
715.61999
715.62083
715.62202
715.62352
715.62527
715.62684
715.62728
715.62732
715.62718
715.62029
715.62062
715.62137
715.62256
715.62409
715.62582
715.62728
715.62751
715.62724
715.62678
715.6207
715.62109
715.62175
715.62287
715.62438
715.62604
715.62732
715.62724
715.6268
715.62697
715.62072
715.62129
715.62203
715.62311
715.62458
715.62616
715.62718
715.62678
715.62697
715.62679
752.80645
752.80655
752.80712
752.8076
752.80874
752.81007
752.81129
752.81201
752.81239
752.81246
752.80655
752.80685
752.80715
752.80782
752.80904
752.81046
752.81172
752.81232
752.81272
752.81287
752.80712
752.80715
752.80761
752.80838
752.80966
752.81114
752.81245
752.81299
752.81334
752.81355
752.8076
752.80782
752.80838
752.8092
752.81053
752.81205
752.8134
752.81391
752.81422
752.81443
752.80874
752.80904
752.80966
752.81053
752.81189
752.81343
752.8148
752.8153
752.81555
752.8157
752.81007
752.81046
752.81114
752.81205
752.81343
752.81499
752.81634
752.8168
752.81697
752.81702
752.81129
752.81172
752.81245
752.8134
752.8148
752.81634
752.81764
752.818
752.81801
752.81786
752.81201
752.81232
752.81299
752.81391
752.8153
752.8168
752.818
752.81817
752.81793
752.81751
752.81239
752.81272
752.81334
752.81422
752.81555
752.81697
752.81801
752.81793
752.81756
752.81768
752.81246
752.81287
752.81355
752.81443
752.8157
752.81702
752.81786
752.81751
752.81768
752.81751
790.2729
790.27295
790.27353
790.27378
790.27495
790.27628
790.27742
790.27809
790.27845
790.27858
790.27295
790.27329
790.27347
790.27399
790.27527
790.27665
790.2778
790.27839
790.27872
790.27882
790.27353
790.27347
790.27388
790.27453
790.27584
790.27725
790.27841
790.27895
790.27928
790.27942
790.27378
790.27399
790.27453
790.27523
790.27656
790.27796
790.27911
790.2796
790.2799
790.28008
790.27495
790.27527
790.27584
790.27656
790.27788
790.27927
790.28039
790.28082
790.28104
790.28113
790.27628
790.27665
790.27725
790.27796
790.27927
790.28063
790.28171
790.28207
790.2822
790.2822
790.27742
790.2778
790.27841
790.27911
790.28039
790.28171
790.28273
790.283
790.28299
790.28283
790.27809
790.27839
790.27895
790.2796
790.28082
790.28207
790.283
790.28312
790.28292
790.28255
790.27845
790.27872
790.27928
790.2799
790.28104
790.2822
790.28299
790.28292
790.28262
790.28268
790.27858
790.27882
790.27942
790.28008
790.28113
790.2822
790.28283
790.28255
790.28268
790.28252
827.77637
827.77635
827.77694
827.77694
827.77814
827.77946
827.78051
827.78113
827.78144
827.78164
827.77635
827.77672
827.77679
827.77715
827.77846
827.7798
827.78084
827.78139
827.78165
827.7817
827.77694
827.77679
827.77713
827.77765
827.77899
827.7803
827.78132
827.78185
827.78216
827.78222
827.77694
827.77715
827.77765
827.77821
827.77953
827.7808
827.78175
827.78221
827.78251
827.78265
827.77814
827.77846
827.77899
827.77953
827.78082
827.78203
827.7829
827.78325
827.78343
827.78347
827.77946
827.7798
827.7803
827.7808
827.78203
827.78318
827.78398
827.78424
827.78431
827.78425
827.78051
827.78084
827.78132
827.78175
827.7829
827.78398
827.7847
827.78488
827.78484
827.78466
827.78113
827.78139
827.78185
827.78221
827.78325
827.78424
827.78488
827.78494
827.78478
827.78447
827.78144
827.78165
827.78216
827.78251
827.78343
827.78431
827.78484
827.78478
827.78455
827.78456
827.78164
827.7817
827.78222
827.78265
827.78347
827.78425
827.78466
827.78447
827.78456
827.78442
865.07213
865.07205
865.07263
865.07238
865.07359
865.07489
865.07584
865.0764
865.07668
865.07693
865.07205
865.07245
865.07239
865.07259
865.07392
865.0752
865.07611
865.07663
865.07681
865.07681
865.07263
865.07239
865.07267
865.07304
865.07439
865.0756
865.07645
865.07698
865.07726
865.07724
865.07238
865.07259
865.07304
865.07346
865.07476
865.07587
865.07661
865.07703
865.07732
865.07742
865.07359
865.07392
865.07439
865.07476
865.07598
865.077
865.0776
865.07787
865.07801
865.07799
865.07489
865.0752
865.0756
865.07587
865.077
865.07792
865.07842
865.07858
865.0786
865.07848
865.07584
865.07611
865.07645
865.07661
865.0776
865.07842
865.07884
865.07891
865.07886
865.07867
865.0764
865.07663
865.07698
865.07703
865.07787
865.07858
865.07891
865.07892
865.0788
865.07855
865.07668
865.07681
865.07726
865.07732
865.07801
865.0786
865.07886
865.0788
865.07866
865.07861
865.07693
865.07681
865.07724
865.07742
865.07799
865.07848
865.07867
865.07855
865.07861
865.07848
901.91003
901.90988
901.91045
901.90993
901.91115
901.9124
901.91324
901.91373
901.91397
901.91429
901.90988
901.9103
901.91011
901.91013
901.91147
901.91267
901.91345
901.91393
901.91403
901.91397
901.91045
901.91011
901.91032
901.91054
901.91187
901.91296
901.91364
901.91415
901.9144
901.9143
901.90993
901.91013
901.91054
901.91079
901.91205
901.913
901.9135
901.91389
901.91417
901.91423
901.91115
901.91147
901.91187
901.91205
901.9132
901.91401
901.91433
901.91451
901.91461
901.91454
901.9124
901.91267
901.91296
901.913
901.91401
901.91469
901.91488
901.91492
901.91489
901.91472
901.91324
901.91345
901.91364
901.9135
901.91433
901.91488
901.91497
901.91494
901.91487
901.91467
901.91373
901.91393
901.91415
901.91389
901.91451
901.91492
901.91494
901.91489
901.91482
901.91464
901.91397
901.91403
901.9144
901.91417
901.91461
901.91489
901.91487
901.91482
901.91476
901.91465
901.91429
901.91397
901.9143
901.91423
901.91454
901.91472
901.91467
901.91464
901.91465
901.91455
938.03644
938.03622
938.03677
938.03598
938.03719
938.03838
938.0391
938.03951
938.03971
938.04008
938.03622
938.03666
938.03633
938.03617
938.03751
938.03861
938.03924
938.03967
938.03968
938.03957
938.03677
938.03633
938.03646
938.03652
938.03783
938.03878
938.03927
938.03976
938.03997
938.03979
938.03598
938.03617
938.03652
938.0366
938.03781
938.03857
938.03882
938.03916
938.03944
938.03946
938.03719
938.03751
938.03783
938.03781
938.03887
938.03945
938.03947
938.03956
938.03962
938.03949
938.03838
938.03861
938.03878
938.03857
938.03945
938.03986
938.03972
938.03965
938.03957
938.03934
938.0391
938.03924
938.03927
938.03882
938.03947
938.03972
938.03948
938.03935
938.03925
938.03905
938.03951
938.03967
938.03976
938.03916
938.03956
938.03965
938.03935
938.03924
938.03921
938.0391
938.03971
938.03968
938.03997
938.03944
938.03962
938.03957
938.03925
938.03921
938.03924
938.03908
938.04008
938.03957
938.03979
938.03946
938.03949
938.03934
938.03905
938.0391
938.03908
938.039
973.19652
973.19623
973.19675
973.19567
973.19686
973.19797
973.19855
973.19888
973.19902
973.19945
973.19623
973.19668
973.1962
973.19585
973.19716
973.19816
973.19861
973.19899
973.19891
973.19874
973.19675
973.1962
973.19625
973.19613
973.1974
973.1982
973.19847
973.19894
973.19911
973.19885
973.19567
973.19585
973.19613
973.19603
973.19716
973.19773
973.19772
973.198
973.19827
973.19824
973.19686
973.19716
973.1974
973.19716
973.19811
973.19845
973.19817
973.19815
973.19817
973.19797
973.19797
973.19816
973.1982
973.19773
973.19845
973.19859
973.19811
973.19792
973.19778
973.19749
973.19855
973.19861
973.19847
973.19772
973.19817
973.19811
973.19752
973.19727
973.19716
973.19695
973.19888
973.19899
973.19894
973.198
973.19815
973.19792
973.19727
973.1971
973.19712
973.19708
973.19902
973.19891
973.19911
973.19827
973.19817
973.19778
973.19716
973.19712
973.19724
973.19702
973.19945
973.19874
973.19885
973.19824
973.19797
973.19749
973.19695
973.19708
973.19702
973.19696
1007.1365
1007.1362
1007.1366
1007.1353
1007.1364
1007.1374
1007.1379
1007.1381
1007.1382
1007.1387
1007.1362
1007.1366
1007.136
1007.1354
1007.1367
1007.1376
1007.1378
1007.1381
1007.138
1007.1377
1007.1366
1007.136
1007.1359
1007.1356
1007.1368
1007.1375
1007.1375
1007.1379
1007.1381
1007.1377
1007.1353
1007.1354
1007.1356
1007.1354
1007.1364
1007.1367
1007.1364
1007.1367
1007.1369
1007.1368
1007.1364
1007.1367
1007.1368
1007.1364
1007.1372
1007.1373
1007.1367
1007.1366
1007.1365
1007.1363
1007.1374
1007.1376
1007.1375
1007.1367
1007.1373
1007.1371
1007.1363
1007.136
1007.1358
1007.1354
1007.1379
1007.1378
1007.1375
1007.1364
1007.1367
1007.1363
1007.1353
1007.135
1007.1348
1007.1346
1007.1381
1007.1381
1007.1379
1007.1367
1007.1366
1007.136
1007.135
1007.1347
1007.1348
1007.1348
1007.1382
1007.138
1007.1381
1007.1369
1007.1365
1007.1358
1007.1348
1007.1348
1007.135
1007.1347
1007.1387
1007.1377
1007.1377
1007.1368
1007.1363
1007.1354
1007.1346
1007.1348
1007.1347
1007.1347
1039.6063
1039.6059
1039.6063
1039.6047
1039.6057
1039.6066
1039.6069
1039.607
1039.607
1039.6075
1039.6059
1039.6063
1039.6056
1039.6048
1039.606
1039.6067
1039.6068
1039.607
1039.6067
1039.6064
1039.6063
1039.6056
1039.6054
1039.6049
1039.606
1039.6064
1039.6062
1039.6066
1039.6067
1039.6062
1039.6047
1039.6048
1039.6049
1039.6044
1039.6053
1039.6054
1039.6048
1039.605
1039.6052
1039.6051
1039.6057
1039.606
1039.606
1039.6053
1039.606
1039.6058
1039.6048
1039.6046
1039.6045
1039.6042
1039.6066
1039.6067
1039.6064
1039.6054
1039.6058
1039.6053
1039.6041
1039.6036
1039.6034
1039.603
1039.6069
1039.6068
1039.6062
1039.6048
1039.6048
1039.6041
1039.6028
1039.6023
1039.6021
1039.6019
1039.607
1039.607
1039.6066
1039.605
1039.6046
1039.6036
1039.6023
1039.602
1039.6021
1039.6022
1039.607
1039.6067
1039.6067
1039.6052
1039.6045
1039.6034
1039.6021
1039.6021
1039.6023
1039.602
1039.6075
1039.6064
1039.6062
1039.6051
1039.6042
1039.603
1039.6019
1039.6022
1039.602
1039.602
1070.3619
1070.3614
1070.3618
1070.3598
1070.3608
1070.3615
1070.3615
1070.3615
1070.3615
1070.362
1070.3614
1070.3618
1070.3609
1070.3599
1070.361
1070.3615
1070.3613
1070.3615
1070.3611
1070.3607
1070.3618
1070.3609
1070.3606
1070.3599
1070.3609
1070.3611
1070.3606
1070.3609
1070.3609
1070.3604
1070.3598
1070.3599
1070.3599
1070.3592
1070.3599
1070.3598
1070.3589
1070.3589
1070.3591
1070.3589
1070.3608
1070.361