/*--------------------------------*- C++ -*----------------------------------*\
| =========                 |                                                 |
| \\      /  F ield         | OpenFOAM: The Open Source CFD Toolbox           |
|  \\    /   O peration     | Version:  v2106                                 |
|   \\  /    A nd           | Website:  www.openfoam.com                      |
|    \\/     M anipulation  |                                                 |
\*---------------------------------------------------------------------------*/
FoamFile
{
    version     2.0;
    format      ascii;
    arch        "LSB;label=32;scalar=64";
    class       volScalarField;
    location    "7.5";
    object      gradTy;
}
// * * * * * * * * * * * * * * * * * * * * * * * * * * * * * * * * * * * * * //

dimensions      [0 -1 0 1 0 0 0];

internalField   nonuniform List<scalar> 
4000
(
-0.00037370693
-0.000855082
0.00042753426
-0.00019073705
-0.00034856959
-0.00032908568
-0.00027571394
-0.00023878523
-0.00018785495
-4.0102885e-05
-0.001389496
-0.00018763422
0.00094670354
-0.00030108724
-0.00055360745
-0.00043943057
-0.00027988543
-0.00024493802
-0.00030076679
-8.7138379e-05
0.0011396766
0.002136194
0.0010262235
0.00064842685
0.00069713182
0.00090326735
0.0011254247
0.0011950166
0.0009742725
0.00069365315
0.0012837634
0.0001196076
-0.00021654763
-0.00020948412
-4.7166191e-05
0.00019400522
0.00048581087
0.00075428957
0.00084483453
0.00070789881
-0.0014819098
-0.0016894327
-0.0016202531
-0.0014345922
-0.0012167638
-0.00099003559
-0.00073767882
-0.00045252357
-0.00016546209
6.4631715e-05
-0.0011875348
-0.0010782513
-0.00091381273
-0.00064995845
-0.00038083568
-0.00017087353
9.4708241e-07
0.00015103573
0.00028245558
0.00038448264
-0.0005050999
-0.00036964924
-0.00031060735
-7.7900006e-05
0.00024967701
0.00045961201
0.00057158626
0.00061200686
0.00060060031
0.0005594953
-0.00014424017
-1.2451684e-05
-0.00016512153
-0.00016360384
0.00019390213
0.00040861289
0.00047541063
0.00043762693
0.00033813395
0.00022806616
-5.5199397e-05
0.00024282412
0.00010260023
-0.00025853931
5.6209476e-05
0.00025861598
0.00028965639
0.00020610442
8.0095617e-05
-2.0786274e-06
-1.7056884e-05
0.00013069518
0.00012536205
-5.6384393e-05
3.407157e-05
9.7011482e-05
0.00010208961
6.9608147e-05
2.8711093e-05
1.4825322e-05
-0.00018197917
-0.00093577652
0.0012044553
-8.2005838e-05
-0.000404045
-0.00032616961
-0.00018380473
-0.00010042284
0.00010378128
0.00056817007
-0.0015215745
0.00055807721
0.0023256878
-0.00029644333
-0.00079566468
-0.00042895408
1.2105127e-05
3.8055033e-05
-4.5198245e-05
0.00067610905
0.0026992786
0.0039799346
0.0018447581
0.0010214272
0.0011875825
0.0017910333
0.0024397348
0.0025962036
0.0019741549
0.0013608926
0.0020762706
-0.00033647994
-0.0010450819
-0.00099365547
-0.0005303663
0.00017616124
0.0010352417
0.0017941073
0.0020318789
0.0017264922
-0.0039758863
-0.004342132
-0.0041083971
-0.0035725259
-0.0029385804
-0.0022677491
-0.0015227321
-0.00070830117
6.3717019e-05
0.00064488025
-0.0031420336
-0.0028116732
-0.0023342638
-0.001559521
-0.00076865582
-0.00014367273
0.00036523779
0.00079797815
0.0011541886
0.0013966915
-0.0013653006
-0.0010266804
-0.00089829148
-0.00022151006
0.00071965461
0.0013379378
0.0016613055
0.0017598163
0.0016896759
0.0015055631
-0.00046807708
-3.6698071e-05
-0.00052538045
-0.00050227791
0.00047125673
0.0010841712
0.0012602075
0.0011125416
0.00078483786
0.00044847614
-0.00038033119
0.00062255817
0.00025772281
-0.0006127529
0.00019010767
0.00074042855
0.00078882106
0.00048617539
0.00012475558
5.0516921e-05
-0.00015986237
0.00030452641
0.00032100915
-0.00010431516
0.00011741802
0.000283127
0.00027908667
0.00016038516
5.4845531e-05
0.00011089272
0.0006415727
-0.00088380522
0.0015803585
-9.1819278e-05
-0.00047919859
-0.00032126838
-0.0001128451
-6.4943593e-05
0.00035235119
0.0013254501
-0.00020066715
0.0012075116
0.0030590163
-0.00034285814
-0.00088483686
-0.00020440092
0.00050654626
0.0003548532
0.00026733589
0.0018017612
0.0035442544
0.0047322333
0.0019938847
0.00095789539
0.0013106671
0.0023467649
0.0034633544
0.0036878926
0.002672034
0.0019198791
0.0017206868
-0.0013686489
-0.0022231664
-0.0020518665
-0.0012768334
-0.00010459268
0.0013303342
0.0025818588
0.0030034291
0.0026817419
-0.006086776
-0.0064309496
-0.0059483188
-0.0050420801
-0.004001045
-0.00289956
-0.0016825942
-0.00038464046
0.0007987908
0.001658648
-0.0045757189
-0.0040261887
-0.0031843358
-0.0018735014
-0.00057716819
0.00044494934
0.0012647413
0.0019328186
0.0024359708
0.0027064057
-0.0019529672
-0.00156848
-0.0013937131
-0.0002273523
0.0012927384
0.0022875672
0.0027806077
0.0028723888
0.0026546682
0.0022088756
-0.00067482988
2.2964574e-05
-0.00091404024
-0.00076835585
0.00075905466
0.0017130292
0.0019302841
0.0015870897
0.00098239077
0.00047742403
-0.0010261639
0.0010594266
0.00042074406
-0.000708587
0.00052062718
0.0013347015
0.0012942142
0.00067118828
0.0001845486
0.00012765661
-0.00055250962
0.00042058927
0.00047044057
-8.0847374e-05
0.00025598244
0.00049239078
0.00043627239
0.00019519571
9.9627901e-05
0.00015726771
0.0010884192
-0.00093588865
0.001852585
-0.00013236191
-0.00055103896
-0.00029308131
-1.6728151e-05
-8.0761388e-05
0.00045304077
0.0018817631
0.00021390328
0.001360152
0.0033682
-0.00064333665
-0.0011490918
-0.00010520329
0.00090750917
0.00048765733
0.00032082996
0.0026962526
0.0038698678
0.0050751579
0.0018663792
0.00071051701
0.0012890398
0.0027793795
0.0043906951
0.0046928141
0.0033528296
0.0026076008
0.0013982496
-0.0022071863
-0.0031190423
-0.0027845256
-0.0016848345
-4.8958469e-05
0.0019496258
0.0036549791
0.0042243117
0.003890458
-0.0077016707
-0.0079427498
-0.0071635374
-0.0058738873
-0.0044279702
-0.0029069092
-0.0012402634
0.00049415042
0.0020169346
0.0030754806
-0.0055430121
-0.0047415459
-0.0034864112
-0.0016398906
0.00014804912
0.0015478162
0.00264737
0.003496689
0.0040643944
0.0042565074
-0.0023437191
-0.0020252393
-0.0017508585
-0.00011180471
0.001953079
0.0032892549
0.0039019519
0.0039102818
0.0034525712
0.0026614798
-0.00074632098
-4.1667582e-05
-0.0013330002
-0.0010795332
0.00094168578
0.0021776649
0.0023587102
0.0017282842
0.00085296248
0.00045209835
-0.0014582063
0.0014855804
0.0007503889
-0.00059963278
0.00098586777
0.0019816975
0.0017456862
0.00073289545
0.00046950039
0.00037584804
-0.00088261296
0.0005461094
0.00070100211
4.9290247e-05
0.00047843293
0.0007549876
0.00060650832
0.00022759337
0.00033926557
0.00016515847
0.0012052599
-0.0011542585
0.0019874216
-0.0002810759
-0.00071686169
-0.0003433808
2.6997952e-05
-0.00013045924
0.00052914437
0.0023669837
2.9294788e-05
0.0012025373
0.0034519097
-0.0010989598
-0.0015359312
-0.0001006753
0.0012580294
0.00059999931
0.00039844473
0.0035524474
0.0041613755
0.0054711494
0.0018598784
0.00062606998
0.0014470184
0.003394635
0.0054979075
0.0058609182
0.0042164682
0.0034851219
0.0013844907
-0.0026719342
-0.0036033502
-0.0030847942
-0.0016549568
0.00043834134
0.0029823881
0.0051017047
0.005780271
0.0054090694
-0.0088058907
-0.008899348
-0.0078076061
-0.0061307829
-0.0042844706
-0.0023557834
-0.00026183399
0.001867445
0.0036717908
0.0048696963
-0.0060379399
-0.0049221504
-0.0032439793
-0.00087126126
0.0013933656
0.0031513753
0.0045006599
0.005480419
0.0060366919
0.0060581893
-0.0025194377
-0.0022000554
-0.0018187631
0.00026622779
0.0028446002
0.0044894562
0.0051736439
0.0050179614
0.0042087444
0.0029601727
-0.00088677905
-0.00013355941
-0.0017463637
-0.0014149987
0.0010515192
0.0025186261
0.0025875512
0.0015537266
0.00033646497
0.00023815869
-0.0019264915
0.0018196729
0.0010259566
-0.00055612335
0.0013333213
0.002446128
0.0019110915
0.00038833926
0.0005955236
0.00064604319
-0.0011810807
0.00065675861
0.00092158772
0.00016919441
0.00067411992
0.00096779804
0.0006884515
0.00013541691
0.00062291397
0.00016909664
0.0012605645
-0.001383175
0.0021139769
-0.00042277485
-0.00087087756
-0.00037954376
9.062357e-05
-0.00015412889
0.00063525381
0.0028555215
-0.00018494655
0.001095172
0.003612426
-0.0014415596
-0.0017987823
2.9581409e-05
0.0017384325
0.0008444852
0.00062100481
0.0044989231
0.0046374302
0.0060780304
0.0021006985
0.00080903801
0.0018771105
0.0042761506
0.0068576959
0.0072590051
0.0053071382
0.0045678053
0.001711805
-0.0027654767
-0.0036994033
-0.0029890648
-0.0012303751
0.001310675
0.0043811101
0.0068822572
0.0076410911
0.0072085024
-0.0094468243
-0.0093819776
-0.0079756833
-0.005914865
-0.0036759435
-0.0013524621
0.0011487568
0.0036413004
0.0056880221
0.0069875425
-0.0060643492
-0.0046220975
-0.0025271344
0.00035848795
0.0030843509
0.0051831882
0.0067590302
0.0078342474
0.0083293248
0.0081210632
-0.0023278533
-0.001989731
-0.0015129495
0.00099312347
0.0040586326
0.005986886
0.0067096918
0.006336578
0.0050943892
0.0032885576
-0.00083816049
-2.121513e-05
-0.0019555882
-0.0015717728
0.0013043929
0.0029674925
0.0028746876
0.0013521899
-0.00030499614
-7.9020154e-05
-0.0022722049
0.0022422706
0.0013822329
-0.00044892927
0.0017084781
0.0028973128
0.0019952938
-0.00015070761
0.00056408384
0.00085298372
-0.0014286363
0.00079163137
0.0011566426
0.00029874275
0.00086825004
0.0011650897
0.00072940891
-3.8798034e-05
0.00088005957
0.00015380189
0.0013346345
-0.0015752472
0.0022668783
-0.00052633557
-0.00098437509
-0.00037668534
0.00019210391
-0.00013992121
0.00077573268
0.0033614469
-0.00027271767
0.0011256479
0.0039105332
-0.0016207692
-0.0018943168
0.00032065463
0.0023716465
0.0012365935
0.00098723909
0.0055519133
0.005317078
0.0068904454
0.0025706609
0.0012319168
0.0025455975
0.0053860388
0.0084302859
0.0088531424
0.0065892159
0.0058267516
0.0023231681
-0.0025537119
-0.0034816819
-0.0025787754
-0.00049718053
0.0024793138
0.0060572238
0.0089154348
0.0097348851
0.0092263333
-0.0097179023
-0.0094934269
-0.0077764785
-0.0053393049
-0.0027183893
-1.4046861e-05
0.0028759201
0.0057072733
0.0079699938
0.0093486633
-0.0057214801
-0.0039567616
-0.0014555168
0.0019279268
0.0050988875
0.0075222363
0.0093062204
0.010453925
0.010860037
0.010393466
-0.0018183816
-0.0014632354
-0.0009024428
0.0020038682
0.0055336782
0.0077251884
0.0084653671
0.007846293
0.0061303986
0.0037155089
-0.0005740671
0.00030137606
-0.0019584745
-0.0015396939
0.0017191868
0.0035543798
0.0032730031
0.0012194112
-0.00093619521
-0.00041033875
-0.0024828839
0.0027691682
0.001832436
-0.00025722257
0.0021433345
0.0033841674
0.0020828749
-0.00074661672
0.00045312492
0.0010039316
-0.0016366942
0.00094901999
0.001406422
0.00044071046
0.0010673875
0.0013598235
0.00075634014
-0.00025010301
0.0011069111
0.00011710146
0.0014340803
-0.0017293439
0.0024424294
-0.0005953205
-0.0010613734
-0.00033992875
0.00032472648
-9.4893158e-05
0.00094192938
0.0038795562
-0.000235358
0.0012771657
0.0043205924
-0.0016635658
-0.00185179
0.00074028583
0.0031227676
0.0017441204
0.0014637022
0.006687415
0.0061559227
0.0078569578
0.0032151912
0.0018367234
0.0033912411
0.0066604715
0.010151334
0.010584869
0.0080088094
0.0072167927
0.0031470084
-0.0021086957
-0.003025374
-0.0019326458
0.00046292741
0.0038604864
0.0079266345
0.011121483
0.011988193
0.011396728
-0.0097044476
-0.00932136
-0.007300596
-0.0044976119
-0.0015074637
0.0015627646
0.0048235601
0.0079731402
0.010432254
0.011875581
-0.0051065309
-0.003027381
-0.00013197322
0.0037327119
0.0073317339
0.010063736
0.012040181
0.01324416
0.013545573
0.012808715
-0.00107728
-0.00070972665
-7.3445472e-05
0.0032146708
0.007187551
0.0096250464
0.010367976
0.00948849
0.0072826343
0.0042404419
-0.00014319588
0.00078260846
-0.0018022613
-0.0013599162
0.0022592969
0.0042487777
0.003764689
0.0011634362
-0.0015154245
-0.00071191953
-0.0025894546
0.0033722194
0.0023538401
4.1431837e-06
0.0026290849
0.0039065841
0.0021936399
-0.0013414639
0.00031828415
0.0011290325
-0.0018173752
0.0011202516
0.0016651
0.00059224046
0.00127079
0.0015544586
0.00077955129
-0.00047366967
0.0013152213
6.6829254e-05
0.0015513387
-0.0018522603
0.0026312371
-0.00063786278
-0.0011099141
-0.00027782547
0.00047947115
-2.7385577e-05
0.0011253283
0.0044016907
-0.00010218427
0.0015176634
0.0048072952
-0.0016034697
-0.0017054078
0.001252485
0.0039547494
0.002333259
0.0020185427
0.0078761607
0.007104714
0.0089263102
0.0039835809
0.0025718321
0.0043605335
0.0080438715
0.011964296
0.012401036
0.0095173167
0.0086943957
0.0041218706
-0.0014898563
-0.0023908325
-0.0011129037
0.0015856948
0.0053881436
0.0099222895
0.013435029
0.014339153
0.013662242
-0.0094718976
-0.0089318416
-0.0066159429
-0.0034598023
-0.00011489563
0.0033052182
0.0069188279
0.010367703
0.013006731
0.014503823
-0.0042933045
-0.0019092267
0.0013668527
0.0056945356
0.0097034474
0.012728259
0.014883059
0.016130941
0.016318265
0.015307118
-0.00017535611
0.00020030373
0.00090541786
0.004557468
0.0089523038
0.011619953
0.012354986
0.01120866
0.0085096819
0.0048396692
0.00040406605
0.0013728518
-0.0015321406
-0.0010741273
0.0028847229
0.0050137757
0.0043199288
0.0011684719
-0.00203911
-0.0009718952
-0.0026201871
0.0040234274
0.0029227147
0.00031678741
0.0031499274
0.0044529069
0.0023261045
-0.0019160835
0.00018573735
0.0012491653
-0.0019774444
0.0012989181
0.0019276344
0.00075030407
0.0014763605
0.0017483654
0.00080226246
-0.00069830978
0.001513739
1.0642219e-05
0.0016792847
-0.0019493952
0.0028256788
-0.00066004834
-0.0011358909
-0.00019671785
0.00064964206
5.6521312e-05
0.0013195971
0.0049204989
0.00010170975
0.0018213009
0.0053428028
-0.0014655965
-0.0014805289
0.0018302773
0.0048395028
0.002978214
0.0026275073
0.0090929158
0.0081235995
0.01005762
0.0048367021
0.0033981654
0.0054130833
0.0094939174
0.013825384
0.014259491
0.011076002
0.010223303
0.0052004095
-0.00074194508
-0.0016229223
-0.00016556393
0.002823527
0.007012967
0.011993349
0.015805267
0.016738643
0.015976058
-0.0090673052
-0.0083723095
-0.0057714314
-0.0022765574
0.0014070995
0.0051599796
0.0091077318
0.012837188
0.015640691
0.017181982
-0.0033344017
-0.00065610221
0.00298563
0.0077561987
0.012155451
0.015456831
0.017776582
0.019058063
0.019125288
0.017839864
0.00083635924
0.001216218
0.0019842959
0.0059817912
0.010776596
0.013658999
0.014377829
0.012963061
0.009775181
0.0054860971
0.0010290371
0.0020339697
-0.0011829584
-0.00071541271
0.0035623364
0.0058175461
0.0049110427
0.0012148984
-0.0025162706
-0.001193909
-0.0025958618
0.0047001045
0.00351884
0.00066391714
0.0036896302
0.0050087113
0.0024714309
-0.0024682527
6.2623502e-05
0.0013718815
-0.0021206907
0.0014802111
0.0021895817
0.00091174546
0.0016811913
0.0019392728
0.00082424163
-0.00092011637
0.001705816
-4.7277702e-05
0.0018127829
-0.0020241235
0.0030201486
-0.00066587545
-0.0011431101
-0.00010089707
0.00083055325
0.00015264883
0.0015200924
0.005429736
0.00035838669
0.0021694352
0.0059066759
-0.0012673655
-0.0011947159
0.0024544233
0.0057564624
0.0036601439
0.0032726625
0.010317198
0.0091820312
0.011219403
0.0057452304
0.0042868191
0.0065188761
0.01097865
0.01570085
0.016127256
0.012654539
0.011774454
0.0063468218
0.00010193374
-0.00075457003
0.00087557941
0.0041412039
0.0086979605
0.014100935
0.018192483
0.01914767
0.018300472
-0.008523975
-0.0076765074
-0.0048021861
-0.00098467649
0.0030201949
0.0070874463
0.011349597
0.015340298
0.018292789
0.019868986
-0.0022672317
0.00069326333
0.0046839466
0.0098752368
0.014643677
0.018204639
0.020676044
0.02198185
0.021924852
0.020367507
0.0019215471
0.002301866
0.0031272677
0.0074504721
0.01262179
0.015703324
0.016399001
0.014717328
0.011049465
0.0061556085
0.0017035686
0.0027378773
-0.0007802313
-0.00030843281
0.0042665045
0.0066347596
0.0055153131
0.0012852233
-0.0029581397
-0.0013868121
-0.0025314552
0.0053841755
0.0041255993
0.0010313732
0.0042335882
0.0055600613
0.0026192454
-0.0030016587
-5.2789998e-05
0.0014963811
-0.0022494819
0.0016601617
0.0024468753
0.0010734379
0.0018820762
0.0021242361
0.00084384595
-0.0011383347
0.0018913976
-0.00010555395
0.0019480283
-0.0020785192
0.0032103069
-0.00065804782
-0.0011340933
6.5927378e-06
0.0010187265
0.00025799185
0.001723225
0.005923965
0.00065492333
0.0025483413
0.0064834154
-0.0010211418
-0.00086046882
0.0031106552
0.0066898829
0.0043648234
0.0039403648
0.01153216
0.010256213
0.01238692
0.0066867298
0.0052159105
0.0076549598
0.01247309
0.017563704
0.017977745
0.014228648
0.013324345
0.0075336123
0.001017012
0.00018972807
0.0019852419
0.0055120157
0.010414518
0.01621429
0.020564626
0.02153445
0.02060459
-0.0078655667
-0.0068686059
-0.0037337698
0.00038857382
0.0046955061
0.0090572707
0.013612685
0.017844196
0.020929595
0.02253124
-0.0011188926
0.0021103371
0.0064314591
0.012019081
0.017133733
0.02093626
0.02354572
0.024867024
0.024682851
0.022857636
0.0030538393
0.0034309379
0.0043080075
0.0089355926
0.014458116
0.017722518
0.01838888
0.016444122
0.012308695
0.0068284404
0.0024071837
0.0034639314
-0.00034233435
0.00012887513
0.0049778258
0.0074457848
0.006114957
0.0013655999
-0.0033742806
-0.0015596036
-0.0024376109
0.0060613489
0.0047297256
0.0014079494
0.004769689
0.0060949941
0.0027603008
-0.0035206874
-0.00016490268
0.001618505
-0.0023652732
0.0018354669
0.0026959235
0.0012325987
0.0020760167
0.0023003624
0.00085920649
-0.0013531408
0.0020689912
-0.00016420237
0.0020819737
-0.0021139088
0.0033925556
-0.00063851975
-0.0011106239
0.00012341666
0.0012113677
0.00037023619
0.001926044
0.006398275
0.00098153571
0.0029474085
0.0070606436
-0.00073613835
-0.00048716199
0.0037877436
0.0076269561
0.0050809317
0.004619753
0.012723445
0.011326958
0.013540042
0.0076434111
0.0061682305
0.0088030277
0.013956803
0.019391345
0.019788603
0.015778156
0.014853406
0.0087390764
0.0019843072
0.0011912709
0.0031439238
0.006914975
0.01213962
0.018308035
0.022894777
0.02387212
0.0228623
-0.0071090887
-0.0059661841
-0.0025852067
0.0018223884
0.0064104893
0.011045265
0.015871177
0.020321665
0.023523033
0.02514034
9.0495459e-05
0.0035734828
0.0082046136
0.0141618
0.019597674
0.023622487
0.026355824
0.027683919
0.02737046
0.0252829
0.004213576
0.0045838053
0.0055067641
0.010415605
0.016261921
0.019692005
0.020323353
0.018121197
0.013533633
0.0074889099
0.003124828
0.0041968425
0.00011762487
0.00058365341
0.0056817098
0.0082355101
0.006696346
0.0014457901
-0.0037714862
-0.001719467
-0.0023216533
0.0067204048
0.0053208602
0.0017852084
0.0052883838
0.0066038831
0.002887364
-0.0040284038
-0.000277893
0.0017336449
-0.0024687887
0.0020034423
0.0029336728
0.0013869427
0.0022604594
0.0024651471
0.00086875257
-0.0015646684
0.0022367654
-0.00022364316
0.00221202
-0.0021311865
0.0035637544
-0.00060880247
-0.0010740575
0.00024764427
0.0014060707
0.00048747832
0.0021259884
0.0068480901
0.0013304156
0.0033580171
0.0076279898
-0.00041959573
-8.2241733e-05
0.0044763125
0.008556658
0.0057989628
0.0053017484
0.013878343
0.012378203
0.014661779
0.0086005903
0.0071296489
0.0099478006
0.015412289
0.021163993
0.02154024
0.017285632
0.01634473
0.0099454937
0.0029887758
0.0022352622
0.0043359861
0.0083328814
0.013853918
0.020360311
0.025159392
0.026137114
0.025050745
-0.0062670406
-0.0049823704
-0.0013711323
0.0033002698
0.0081467995
0.013031298
0.018103134
0.022749203
0.026048611
0.027671414
0.00134552
0.0050657124
0.0099844198
0.016281904
0.022011849
0.026238239
0.02908051
0.03040663
0.029962475
0.027619523
0.00538566
0.0057454111
0.0067083103
0.011873362
0.018013784
0.021591266
0.022182176
0.019729991
0.014708544
0.0081247066
0.0038452766
0.0049251531
0.00059036694
0.001046793
0.0063671697
0.0089922701
0.0072491352
0.0015186379
-0.0041537895
-0.0018713156
-0.0021883842
0.0073525335
0.0058909964
0.0021570242
0.0057823492
0.0070792357
0.0029952417
-0.0045260489
-0.0003947118
0.0018379827
-0.0025601583
0.0021619435
0.0031575717
0.0015346755
0.0024333259
0.0026165443
0.00087135788
-0.0017726807
0.0023930072
-0.00028421773
0.0023358509
-0.0021310018
0.0037210678
-0.00057014388
-0.0010255071
0.00037757008
0.0016006454
0.0006080566
0.0023207352
0.0072690517
0.0016950048
0.0037728302
0.0081763999
-7.7532016e-05
0.00034801301
0.0051680961
0.0094690336
0.0065105305
0.005978395
0.014985204
0.013395993
0.01573728
0.0095456309
0.0080880283
0.011075942
0.016823927
0.022863677
0.023214866
0.018735451
0.017783179
0.011137836
0.0040179732
0.0033094487
0.0055482845
0.0097509693
0.01554042
0.022351522
0.027337134
0.028308042
0.02714924
-0.0053489818
-0.0039274109
-0.00010335373
0.0048084876
0.0098887814
0.014997832
0.02028911
0.025105706
0.028484191
0.030101957
0.0026338719
0.0065731008
0.011754893
0.018360835
0.024355446
0.028761164
0.031696556
0.033011788
0.032436186
0.029846248
0.0065580803
0.0069038101
0.0079005147
0.013294749
0.019697229
0.023402623
0.023947853
0.02125462
0.015820335
0.0087261713
0.0045599963
0.005640131
0.0010693577
0.0015119052
0.0070258776
0.0097069861
0.007765507
0.0015794679
-0.0045228446
-0.002017954
-0.0020407378
0.0079507548
0.006433936
0.002519068
0.0062460419
0.0075153184
0.0030805014
-0.00501313
-0.00051692052
0.0019288282
-0.0026390524
0.0023092641
0.0033654872
0.0016744161
0.0025929524
0.0027529263
0.0008663272
-0.0019765163
0.0025362543
-0.00034601716
0.0024513377
-0.0021138836
0.0038618779
-0.00052364337
-0.00096596252
0.00051159988
0.0017930104
0.00073044386
0.0025081039
0.0076569506
0.0020695143
0.0041853246
0.0086976914
0.00028475512
0.00079798444
0.0058554569
0.010354741
0.0072079153
0.0066424179
0.016033054
0.014367785
0.016753146
0.010467216
0.0090324779
0.012175326
0.018177272
0.02447358
0.024795859
0.020113161
0.019154759
0.012302844
0.005061083
0.0044031366
0.0067691928
0.011155959
0.017183583
0.024263495
0.029408079
0.030364948
0.029138538
-0.0043626957
-0.0028098308
0.001208006
0.0063349635
0.011622396
0.016928904
0.022411193
0.027371587
0.030809163
0.032411026
0.0039451837
0.0080836431
0.013501941
0.020381897
0.026609477
0.031170694
0.034182479
0.035477734
0.034770601
0.031943588
0.007720865
0.008049131
0.0090733234
0.014667718
0.02129782
0.025110401
0.02560486
0.022681158
0.016857897
0.0092856811
0.0052623201
0.0063349603
0.0015499966
0.0019745413
0.0076514501
0.010372511
0.0082395724
0.0016255485
-0.0048783791
-0.0021604305
-0.0018803084
0.0085094518
0.0069448306
0.002868352
0.0066752899
0.0079077917
0.0031411441
-0.0054876856
-0.000644835
0.0020045734
-0.0027048061
0.0024440407
0.0035556182
0.0018051065
0.0027380116
0.0028730152
0.0008533366
-0.0021751285
0.0026653023
-0.00040885622
0.0025564825
-0.0020803277
0.0039837359
-0.00047032833
-0.00089637134
0.00064817739
0.0019811267
0.00085317778
0.0026859976
0.0080076981
0.0024485965
0.0045894766
0.0091842688
0.00066234724
0.001262374
0.0065310717
0.011204767
0.0078837696
0.0072869317
0.017011359
0.015281981
0.01769698
0.011354852
0.009952846
0.013234544
0.01945861
0.025977632
0.02626738
0.021405085
0.020446223
0.013428382
0.0061082209
0.005506487
0.0079879129
0.012535395
0.018768702
0.026078914
0.03135321
0.032288819
0.031000346
-0.0033150548
-0.0016372962
0.0025536697
0.0078684679
0.013334458
0.01880941
0.024452343
0.029528165
0.033003884
0.034578715
0.0052701816
0.0095864286
0.015212574
0.022329517
0.028756094
0.033447402
0.036517939
0.037783976
0.036945936
0.033893326
0.0088653276
0.0091728281
0.010218025
0.015981598
0.022802534
0.026700353
0.027139108
0.02399714
0.017811614
0.0097971607
0.0059468432
0.0070041496
0.0020290081
0.0024316023
0.0082389135
0.010983143
0.0086669107
0.0016556499
-0.0052186137
-0.0022984098
-0.0017077641
0.0090240164
0.0074198252
0.0032028593
0.0070669618
0.0082534092
0.0031763125
-0.0059465705
-0.00077774719
0.0020645216
-0.0027565263
0.0025651743
0.0037264252
0.001925933
0.0028674432
0.0029758206
0.00083236993
-0.0023671485
0.0027791725
-0.00047230263
0.0026493867
-0.0020308592
0.004084341
-0.00041120441
-0.00081769311
0.00078573833
0.0021629589
0.00097481708
0.0028523703
0.0083173235
0.0028271266
0.0049795581
0.0096289511
0.0010504771
0.0017359757
0.0071877354
0.012010254
0.0085309355
0.0079052548
0.017909894
0.01612763
0.018557112
0.012198549
0.010839388
0.0142426
0.020654682
0.027360287
0.027614152
0.022598079
0.021644816
0.014502998
0.0071499465
0.0066100223
0.0091939973
0.013877204
0.020281509
0.027780984
0.033154118
0.034061306
0.032717038
-0.0022126597
-0.00041724562
0.0039245986
0.0093980486
0.01501211
0.020624628
0.026395966
0.031557293
0.035049334
0.036585823
0.0066000706
0.011071049
0.016874349
0.024188735
0.030778129
0.035572592
0.038683377
0.039910846
0.038943292
0.035678187
0.0099835236
0.010267142
0.011326724
0.017226612
0.024199333
0.028159276
0.028537587
0.025191207
0.018673013
0.010255704
0.006608981
0.0076430981
0.0025039819
0.0028808901
0.0087843042
0.011534258
0.0090442188
0.0016696839
-0.0055406303
-0.0024305118
-0.0015231704
0.0094905893
0.0078557886
0.003521253
0.0074187088
0.0085497832
0.0031860498
-0.0063857195
-0.00091414589
0.0021086965
-0.0027931816
0.0026717716
0.0038765782
0.0020362633
0.0029803993
0.0030605893
0.00080366281
-0.0025509501
0.0028770751
-0.00053572179
0.0027282386
-0.0019660763
0.0041615381
-0.00034728704
-0.00073093414
0.00092268466
0.0023364576
0.0010939163
0.0030052128
0.0085819932
0.0032000643
0.0053500135
0.010024882
0.0014443822
0.0022135325
0.00781825
0.012762423
0.0091423415
0.0084908015
0.018718699
0.016894255
0.019322439
0.012988623
0.011682562
0.015188722
0.021752548
0.028606418
0.028821369
0.023679403
0.022738147
0.01551564
0.0081769317
0.0077042905
0.01037703
0.015169407
0.021707932
0.029353236
0.034792852
0.035664583
0.034271507
-0.0010623081
0.0008426494
0.0053115597
0.010912635
0.016642461
0.022359899
0.028225645
0.033441123
0.036926924
0.038413677
0.0079260916
0.012527179
0.018474982
0.025944875
0.032658811
0.037528059
0.040659799
0.041839318
0.040744472
0.037281651
0.011067861
0.011324709
0.012391953
0.01839353
0.025476873
0.029474754
0.029788132
0.026252871
0.019434502
0.010657285
0.0072446418
0.0082477746
0.0029730202
0.0033207601
0.0092843668
0.012022039
0.0093690395
0.0016684086
-0.0058406903
-0.0025546078
-0.0013262462
0.009905869
0.0082501114
0.0038226468
0.0077287658
0.0087952012
0.0031710987
-0.0068003853
-0.0010519177
0.0021376647
-0.002813679
0.0027631014
0.0040049194
0.0021355972
0.003076202
0.0031267663
0.00076765454
-0.0027247118
0.0029583762
-0.00059832353
0.0027913141
-0.0018866804
0.0042133274
-0.00027961958
-0.00063716856
0.0010573732
0.0024995552
0.0012090139
0.0031425512
0.0087980437
0.0035623732
0.005695393
0.010365496
0.0018392174
0.0026896528
0.0084153754
0.013452551
0.0097109575
0.0090370287
0.019428082
0.01757177
0.019982361
0.013715594
0.012472914
0.016062274
0.022739533
0.02970132
0.029874692
0.02463669
0.02371414
0.016455487
0.0091797432
0.0087796435
0.011526423
0.016399948
0.023033969
0.030779457
0.036251885
0.037081316
0.035647126
0.00012866338
0.0021341526
0.0067048214
0.012400772
0.018212367
0.024000445
0.029924997
0.035162012
0.038618419
0.040044073
0.0092392065
0.013944292
0.020002105
0.027583338
0.034381613
0.039295968
0.042428688
0.043550928
0.042331914
0.038687866
0.012110821
0.012338282
0.013406403
0.019473441
0.026624319
0.030635008
0.030879279
0.027172366
0.020089189
0.010998528
0.0078499818
0.0088144758
0.0034344597
0.0037498451
0.0097363194
0.012443267
0.0096395449
0.0016531774
-0.0061145201
-0.0026680813
-0.0011165734
0.010266971
0.0086005506
0.0041064189
0.0079957921
0.0089884799
0.0031327295
-0.0071853591
-0.0011885291
0.0021523757
-0.0028169312
0.0028385613
0.0041104374
0.0022235279
0.0031543106
0.003173964
0.00072494538
-0.0028864769
0.0030225713
-0.000659207
0.0028369854
-0.0017934966
0.0042378832
-0.00020928253
-0.0005375498
0.0011881144
0.0026501727
0.0013186288
0.0032624553
0.0089620249
0.0039089788
0.0060103256
0.010644524
0.0022300065
0.0031587677
0.0089718215
0.01407199
0.010229788
0.0095374197
0.020028669
0.018150459
0.02052678
0.01437014
0.01320103
0.016852731
0.02360325
0.030630767
0.030760306
0.025457956
0.024561041
0.017311854
0.010148704
0.0098260975
0.012631295
0.017556604
0.02424564
0.032043688
0.037514146
0.038294708
0.036827778
0.0013521275
0.0034482229
0.0080939424
0.013850443
0.019708287
0.025531273
0.031477618
0.036702499
0.040105944
0.041459284
0.010529872
0.015311456
0.021443095
0.029089492
0.035930178
0.040858823
0.043971994
0.045027781
0.043688686
0.039881628
0.013104751
0.013300523
0.014362718
0.02045758
0.027631224
0.031628805
0.031800183
0.027940545
0.020630745
0.011276522
0.0084212133
0.0093396373
0.0038866429
0.0041668257
0.010137663
0.012795151
0.0098543547
0.0016257141
-0.0063575747
-0.0027680671
-0.00089377451
0.01057132
0.0089051061
0.0043720549
0.0082187377
0.0091288401
0.0030725843
-0.0075351822
-0.0013211969
0.002154016
-0.0028019178
0.0028976518
0.0041922482
0.0022997089
0.003214295
0.0032019358
0.00067625649
-0.003034213
0.0030692615
-0.00071740438
0.0028637344
-0.0016874881
0.0042335754
-0.00013739754
-0.00043331631
0.001313177
0.0027862324
0.0014212629
0.0033630511
0.0090707472
0.0042347508
0.0062895123
0.010856013
0.0026116176
0.0036151127
0.0094802659
0.014612218
0.010691888
0.0099854905
0.020511475
0.018620985
0.02094612
0.01494309
0.01385752
0.017549683
0.024331643
0.031381102
0.03146501
0.026131656
0.025267464
0.018074143
0.011073805
0.010833243
0.013680399
0.018626945
0.025328992
0.033130282
0.038563112
0.039288578
0.037797924
0.0025989738
0.0047748356
0.0094676221
0.015248959
0.021116216
0.026937136
0.032867085
0.038045336
0.041372034
0.042642122
0.011787875
0.016617198
0.02278498
0.030448617
0.037288317
0.042199487
0.045272178
0.046252601
0.044798534
0.040848403
0.014041715
0.014203843
0.015253337
0.021337211
0.028487457
0.03244541
0.032540572
0.02854881
0.021053295
0.011488658
0.0089544462
0.0098196742
0.0043277188
0.0045702278
0.010486015
0.013075177
0.010012371
0.0015879004
-0.0065652954
-0.0028516811
-0.00065767372
0.010816553
0.0091619126
0.0046190068
0.0083967246
0.0092157937
0.0029925268
-0.0078443583
-0.0014470547
0.0021438687
-0.0027677428
0.0029399534
0.00424958
0.0023638257
0.0032558108
0.0032105515
0.00062239031
-0.0031658732
0.0030981332
-0.00077192427
0.002870166
-0.0015697674
0.0041989892
-6.5129829e-05
-0.00032579475
0.0014307954
0.0029056734
0.001515405
0.0034425351
0.0091213302
0.0045344915
0.0065277264
0.010994355
0.002978747
0.0040527199
0.0099333815
0.015064891
0.011090389
0.010374803
0.020867977
0.018974406
0.021231363
0.015425427