/*--------------------------------*- C++ -*----------------------------------*\
| =========                 |                                                 |
| \\      /  F ield         | OpenFOAM: The Open Source CFD Toolbox           |
|  \\    /   O peration     | Version:  v2106                                 |
|   \\  /    A nd           | Website:  www.openfoam.com                      |
|    \\/     M anipulation  |                                                 |
\*---------------------------------------------------------------------------*/
FoamFile
{
    version     2.0;
    format      ascii;
    arch        "LSB;label=32;scalar=64";
    class       volVectorField;
    location    "7.5";
    object      gradT;
}
// * * * * * * * * * * * * * * * * * * * * * * * * * * * * * * * * * * * * * //

dimensions      [0 -1 0 1 0 0 0];

internalField   nonuniform List<vector> 
4000
(
(-0.00037370693 -0.00037370693 292.01842)
(-0.001389496 -0.000855082 292.01711)
(0.0011396766 0.00042753426 292.01462)
(0.0012837634 -0.00019073705 292.02119)
(-0.0014819098 -0.00034856959 292.01858)
(-0.0011875348 -0.00032908568 292.01558)
(-0.0005050999 -0.00027571394 292.01411)
(-0.00014424017 -0.00023878523 292.01366)
(-5.5199399e-05 -0.00018785495 292.01351)
(-1.7056885e-05 -4.0102885e-05 292.01329)
(-0.00085508201 -0.001389496 292.01711)
(-0.00018763422 -0.00018763422 292.01361)
(0.002136194 0.00094670354 292.01711)
(0.00011960759 -0.00030108724 292.02054)
(-0.0016894327 -0.00055360745 292.01713)
(-0.0010782513 -0.00043943057 292.01427)
(-0.00036964924 -0.00027988543 292.0131)
(-1.2451688e-05 -0.00024493802 292.01284)
(0.00024282413 -0.00030076679 292.01305)
(0.00013069518 -8.7138379e-05 292.01374)
(0.00042753426 0.0011396766 292.01462)
(0.00094670354 0.002136194 292.01711)
(0.0010262235 0.0010262235 292.01807)
(-0.00021654763 0.00064842685 292.02039)
(-0.0016202531 0.00069713182 292.01694)
(-0.00091381273 0.00090326735 292.01441)
(-0.00031060735 0.0011254247 292.01355)
(-0.00016512153 0.0011950166 292.01319)
(0.00010260024 0.0009742725 292.01287)
(0.00012536205 0.00069365315 292.01357)
(-0.00019073705 0.0012837634 292.02119)
(-0.00030108724 0.0001196076 292.02054)
(0.00064842685 -0.00021654763 292.02039)
(-0.00020948412 -0.00020948412 292.02252)
(-0.0014345922 -4.7166191e-05 292.01931)
(-0.00064995845 0.00019400522 292.01727)
(-7.7900006e-05 0.00048581087 292.01697)
(-0.00016360384 0.00075428957 292.01696)
(-0.00025853931 0.00084483453 292.01631)
(-5.6384389e-05 0.00070789881 292.01604)
(-0.00034856958 -0.0014819098 292.01858)
(-0.00055360745 -0.0016894327 292.01713)
(0.00069713182 -0.0016202531 292.01694)
(-4.7166188e-05 -0.0014345922 292.01931)
(-0.0012167637 -0.0012167638 292.01649)
(-0.00038083567 -0.00099003559 292.01492)
(0.00024967701 -0.00073767882 292.01522)
(0.00019390213 -0.00045252357 292.0159)
(5.6209475e-05 -0.00016546209 292.01592)
(3.4071574e-05 6.4631715e-05 292.01614)
(-0.00032908568 -0.0011875348 292.01558)
(-0.00043943057 -0.0010782513 292.01427)
(0.00090326734 -0.00091381273 292.01441)
(0.00019400521 -0.00064995845 292.01727)
(-0.00099003559 -0.00038083568 292.01492)
(-0.00017087352 -0.00017087353 292.01377)
(0.00045961202 9.4708241e-07 292.01448)
(0.00040861289 0.00015103573 292.01559)
(0.00025861598 0.00028245558 292.01602)
(9.7011484e-05 0.00038448264 292.0166)
(-0.00027571394 -0.0005050999 292.01411)
(-0.00027988543 -0.00036964924 292.0131)
(0.0011254247 -0.00031060735 292.01355)
(0.00048581087 -7.7900006e-05 292.01697)
(-0.00073767883 0.00024967701 292.01522)
(9.4708525e-07 0.00045961201 292.01448)
(0.00057158627 0.00057158626 292.01546)
(0.00047541062 0.00061200686 292.01673)
(0.00028965638 0.00060060031 292.01725)
(0.00010208962 0.0005594953 292.01784)
(-0.00023878523 -0.00014424017 292.01366)
(-0.00024493802 -1.2451684e-05 292.01284)
(0.0011950166 -0.00016512153 292.01319)
(0.00075428957 -0.00016360384 292.01696)
(-0.00045252357 0.00019390213 292.0159)
(0.00015103573 0.00040861289 292.01559)
(0.00061200686 0.00047541063 292.01673)
(0.00043762693 0.00043762693 292.01798)
(0.00020610442 0.00033813395 292.01835)
(6.9608149e-05 0.00022806616 292.01872)
(-0.00018785495 -5.5199397e-05 292.01351)
(-0.00030076679 0.00024282412 292.01305)
(0.0009742725 0.00010260023 292.01287)
(0.00084483453 -0.00025853931 292.01631)
(-0.00016546209 5.6209476e-05 292.01592)
(0.00028245558 0.00025861598 292.01602)
(0.00060060031 0.00028965639 292.01725)
(0.00033813395 0.00020610442 292.01835)
(8.0095612e-05 8.0095617e-05 292.01845)
(2.871109e-05 -2.0786274e-06 292.01859)
(-4.0102888e-05 -1.7056884e-05 292.01329)
(-8.7138386e-05 0.00013069518 292.01374)
(0.00069365314 0.00012536205 292.01357)
(0.00070789881 -5.6384393e-05 292.01604)
(6.4631718e-05 3.407157e-05 292.01614)
(0.00038448264 9.7011482e-05 292.0166)
(0.00055949531 0.00010208961 292.01784)
(0.00022806616 6.9608147e-05 292.01872)
(-2.078625e-06 2.8711093e-05 292.01859)
(1.4825319e-05 1.4825322e-05 292.01875)
(-0.00018197917 -0.00018197917 294.76119)
(-0.0015215745 -0.00093577652 294.76271)
(0.0026992786 0.0012044553 294.76237)
(0.0020762706 -8.2005838e-05 294.76511)
(-0.0039758863 -0.000404045 294.76281)
(-0.0031420336 -0.00032616961 294.76051)
(-0.0013653006 -0.00018380473 294.75942)
(-0.00046807708 -0.00010042284 294.75906)
(-0.00038033119 0.00010378128 294.75889)
(-0.00015986237 0.00056817007 294.75809)
(-0.00093577652 -0.0015215745 294.76271)
(0.00055807722 0.00055807721 294.76267)
(0.0039799346 0.0023256878 294.7641)
(-0.00033647995 -0.00029644333 294.76526)
(-0.004342132 -0.00079566468 294.76261)
(-0.0028116732 -0.00042895408 294.76052)
(-0.0010266804 1.2105127e-05 294.75967)
(-3.6698066e-05 3.8055033e-05 294.75932)
(0.00062255817 -4.5198245e-05 294.7597)
(0.00030452641 0.00067610905 294.76014)
(0.0012044553 0.0026992786 294.76237)
(0.0023256878 0.0039799346 294.7641)
(0.0018447581 0.0018447581 294.76449)
(-0.0010450819 0.0010214272 294.76507)
(-0.0041083971 0.0011875825 294.76248)
(-0.0023342638 0.0017910333 294.76074)
(-0.00089829148 0.0024397348 294.76021)
(-0.00052538046 0.0025962036 294.75966)
(0.00025772283 0.0019741549 294.75946)
(0.00032100916 0.0013608926 294.75998)
(-8.2005836e-05 0.0020762706 294.76511)
(-0.00029644333 -0.00033647994 294.76526)
(0.0010214272 -0.0010450819 294.76507)
(-0.00099365548 -0.00099365547 294.76557)
(-0.0035725259 -0.0005303663 294.76323)
(-0.001559521 0.00017616124 294.76196)
(-0.00022151008 0.0010352417 294.762)
(-0.0005022779 0.0017941073 294.76181)
(-0.00061275288 0.0020318789 294.7614)
(-0.00010431515 0.0017264922 294.76136)
(-0.00040404499 -0.0039758863 294.76281)
(-0.00079566468 -0.004342132 294.76261)
(0.0011875825 -0.0041083971 294.76248)
(-0.0005303663 -0.0035725259 294.76323)
(-0.0029385804 -0.0029385804 294.76125)
(-0.00076865583 -0.0022677491 294.76044)
(0.00071965461 -0.0015227321 294.76105)
(0.00047125673 -0.00070830117 294.76149)
(0.00019010768 6.3717019e-05 294.76162)
(0.00011741802 0.00064488025 294.76195)
(-0.00032616961 -0.0031420336 294.76051)
(-0.00042895407 -0.0028116732 294.76052)
(0.0017910333 -0.0023342638 294.76074)
(0.00017616124 -0.001559521 294.76196)
(-0.002267749 -0.00076865582 294.76044)
(-0.00014367274 -0.00014367273 294.76005)
(0.0013379378 0.00036523779 294.76106)
(0.0010841712 0.00079797815 294.76188)
(0.00074042855 0.0011541886 294.76236)
(0.000283127 0.0013966915 294.76296)
(-0.00018380473 -0.0013653006 294.75942)
(1.2105128e-05 -0.0010266804 294.75967)
(0.0024397348 -0.00089829148 294.76021)
(0.0010352417 -0.00022151006 294.762)
(-0.0015227321 0.00071965461 294.76105)
(0.00036523779 0.0013379378 294.76106)
(0.0016613055 0.0016613055 294.76232)
(0.0012602075 0.0017598163 294.76327)
(0.00078882105 0.0016896759 294.76377)
(0.00027908667 0.0015055631 294.76427)
(-0.00010042284 -0.00046807708 294.75906)
(3.8055038e-05 -3.6698071e-05 294.75932)
(0.0025962037 -0.00052538045 294.75966)
(0.0017941073 -0.00050227791 294.76181)
(-0.00070830119 0.00047125673 294.76149)
(0.00079797815 0.0010841712 294.76188)
(0.0017598163 0.0012602075 294.76327)
(0.0011125416 0.0011125416 294.76414)
(0.00048617539 0.00078483786 294.76442)
(0.00016038516 0.00044847614 294.76461)
(0.00010378128 -0.00038033119 294.75889)
(-4.5198243e-05 0.00062255817 294.7597)
(0.0019741549 0.00025772281 294.75946)
(0.0020318789 -0.0006127529 294.7614)
(6.3717016e-05 0.00019010767 294.76162)
(0.0011541886 0.00074042855 294.76236)
(0.0016896759 0.00078882106 294.76377)
(0.00078483786 0.00048617539 294.76442)
(0.00012475557 0.00012475558 294.76442)
(5.4845528e-05 5.0516921e-05 294.76452)
(0.00056817006 -0.00015986237 294.75809)
(0.00067610904 0.00030452641 294.76014)
(0.0013608926 0.00032100915 294.75998)
(0.0017264922 -0.00010431516 294.76136)
(0.00064488026 0.00011741802 294.76195)
(0.0013966915 0.000283127 294.76296)
(0.0015055631 0.00027908667 294.76427)
(0.00044847615 0.00016038516 294.76461)
(5.0516921e-05 5.4845531e-05 294.76452)
(0.00011089272 0.00011089272 294.76474)
(0.0006415727 0.0006415727 299.82039)
(-0.00020066715 -0.00088380522 299.82229)
(0.0035442544 0.0015803585 299.82212)
(0.0017206868 -9.1819278e-05 299.82346)
(-0.006086776 -0.00047919859 299.82145)
(-0.0045757189 -0.00032126838 299.81974)
(-0.0019529672 -0.0001128451 299.81904)
(-0.00067482988 -6.4943593e-05 299.81876)
(-0.0010261639 0.00035235119 299.81877)
(-0.00055250962 0.0013254501 299.81768)
(-0.00088380522 -0.00020066715 299.82229)
(0.0012075116 0.0012075116 299.82229)
(0.0047322333 0.0030590163 299.8231)
(-0.0013686489 -0.00034285814 299.82339)
(-0.0064309496 -0.00088483686 299.82122)
(-0.0040261887 -0.00020440092 299.81979)
(-0.00156848 0.00050654626 299.81929)
(2.2964565e-05 0.0003548532 299.81879)
(0.0010594266 0.00026733589 299.81929)
(0.00042058927 0.0018017612 299.81965)
(0.0015803585 0.0035442544 299.82212)
(0.0030590163 0.0047322333 299.8231)
(0.0019938847 0.0019938847 299.82317)
(-0.0022231664 0.00095789539 299.82312)
(-0.0059483188 0.0013106671 299.82109)
(-0.0031843358 0.0023467649 299.82006)
(-0.0013937131 0.0034633544 299.81994)
(-0.00091404025 0.0036878926 299.81921)
(0.00042074406 0.002672034 299.81913)
(0.00047044058 0.0019198791 299.8197)
(-9.1819274e-05 0.0017206868 299.82346)
(-0.00034285813 -0.0013686489 299.82339)
(0.00095789539 -0.0022231664 299.82312)
(-0.0020518665 -0.0020518665 299.82308)
(-0.0050420801 -0.0012768334 299.82133)
(-0.0018735014 -0.00010459268 299.82078)
(-0.00022735231 0.0013303342 299.82125)
(-0.00076835584 0.0025818588 299.82089)
(-0.00070858698 0.0030034291 299.82067)
(-8.0847373e-05 0.0026817419 299.8209)
(-0.00047919858 -0.006086776 299.82145)
(-0.00088483686 -0.0064309496 299.82122)
(0.0013106671 -0.0059483188 299.82109)
(-0.0012768334 -0.0050420801 299.82133)
(-0.004001045 -0.004001045 299.81994)
(-0.0005771682 -0.00289956 299.81984)
(0.0012927384 -0.0016825942 299.82085)
(0.00075905467 -0.00038464046 299.82107)
(0.00052062719 0.0007987908 299.82132)
(0.00025598244 0.001658648 299.82187)
(-0.00032126838 -0.0045757189 299.81974)
(-0.00020440092 -0.0040261887 299.81979)
(0.0023467649 -0.0031843358 299.82006)
(-0.00010459268 -0.0018735014 299.82078)
(-0.00289956 -0.00057716819 299.81984)
(0.00044494933 0.00044494934 299.82014)
(0.0022875672 0.0012647413 299.82153)
(0.0017130292 0.0019328186 299.82209)
(0.0013347015 0.0024359708 299.82262)
(0.00049239078 0.0027064057 299.82333)
(-0.0001128451 -0.0019529672 299.81904)
(0.00050654626 -0.00156848 299.81929)
(0.0034633544 -0.0013937131 299.81994)
(0.0013303342 -0.0002273523 299.82125)
(-0.0016825942 0.0012927384 299.82085)
(0.0012647413 0.0022875672 299.82153)
(0.0027806077 0.0027806077 299.82314)
(0.0019302841 0.0028723888 299.82377)
(0.0012942142 0.0026546682 299.82423)
(0.00043627239 0.0022088756 299.82473)
(-6.4943589e-05 -0.00067482988 299.81876)
(0.0003548532 2.2964574e-05 299.81879)
(0.0036878926 -0.00091404024 299.81921)
(0.0025818588 -0.00076835585 299.82089)
(-0.00038464046 0.00075905466 299.82107)
(0.0019328187 0.0017130292 299.82209)
(0.0028723888 0.0019302841 299.82377)
(0.0015870897 0.0015870897 299.82424)
(0.00067118828 0.00098239077 299.82438)
(0.0001951957 0.00047742403 299.82449)
(0.0003523512 -0.0010261639 299.81877)
(0.0002673359 0.0010594266 299.81929)
(0.002672034 0.00042074406 299.81913)
(0.0030034291 -0.000708587 299.82067)
(0.00079879081 0.00052062718 299.82132)
(0.0024359708 0.0013347015 299.82262)
(0.0026546682 0.0012942142 299.82423)
(0.00098239077 0.00067118828 299.82438)
(0.00018454861 0.0001845486 299.8243)
(9.9627901e-05 0.00012765661 299.82473)
(0.0013254501 -0.00055250962 299.81768)
(0.0018017612 0.00042058927 299.81965)
(0.0019198791 0.00047044057 299.8197)
(0.0026817419 -8.0847374e-05 299.8209)
(0.001658648 0.00025598244 299.82187)
(0.0027064057 0.00049239078 299.82333)
(0.0022088756 0.00043627239 299.82473)
(0.00047742403 0.00019519571 299.82449)
(0.00012765661 9.9627901e-05 299.82473)
(0.00015726771 0.00015726771 299.82481)
(0.0010884192 0.0010884192 307.38853)
(0.00021390328 -0.00093588865 307.38938)
(0.0038698678 0.001852585 307.38876)
(0.0013982496 -0.00013236191 307.39)
(-0.0077016707 -0.00055103896 307.38843)
(-0.0055430121 -0.00029308131 307.38728)
(-0.0023437191 -1.6728151e-05 307.38696)
(-0.00074632097 -8.0761388e-05 307.38671)
(-0.0014582063 0.00045304077 307.38675)
(-0.00088261296 0.0018817631 307.38581)
(-0.00093588866 0.00021390328 307.38938)
(0.001360152 0.001360152 307.38897)
(0.0050751579 0.0033682 307.38937)
(-0.0022071863 -0.00064333665 307.38971)
(-0.0079427498 -0.0011490918 307.38807)
(-0.0047415459 -0.00010520329 307.38724)
(-0.0020252393 0.00090750917 307.38717)
(-4.1667588e-05 0.00048765733 307.38661)
(0.0014855804 0.00032082996 307.38702)
(0.00054610939 0.0026962526 307.38737)
(0.001852585 0.0038698678 307.38876)
(0.0033682 0.0050751579 307.38937)
(0.0018663791 0.0018663792 307.38916)
(-0.0031190423 0.00071051701 307.38924)
(-0.0071635374 0.0012890398 307.38778)
(-0.0034864112 0.0027793795 307.38738)
(-0.0017508585 0.0043906951 307.38772)
(-0.0013330002 0.0046928141 307.38695)
(0.0007503889 0.0033528296 307.38688)
(0.00070100211 0.0026076008 307.38756)
(-0.00013236191 0.0013982496 307.39)
(-0.00064333665 -0.0022071863 307.38971)
(0.00071051701 -0.0031190423 307.38924)
(-0.0027845256 -0.0027845256 307.38938)
(-0.0058738873 -0.0016848345 307.38821)
(-0.0016398906 -4.8958469e-05 307.38829)
(-0.00011180471 0.0019496258 307.38921)
(-0.0010795331 0.0036549791 307.38878)
(-0.00059963277 0.0042243117 307.38856)
(4.9290247e-05 0.003890458 307.38894)
(-0.00055103896 -0.0077016707 307.38843)
(-0.0011490918 -0.0079427498 307.38807)
(0.0012890398 -0.0071635374 307.38778)
(-0.0016848345 -0.0058738873 307.38821)
(-0.0044279702 -0.0044279702 307.3874)
(0.00014804912 -0.0029069092 307.38792)
(0.001953079 -0.0012402634 307.38937)
(0.00094168578 0.00049415042 307.38947)
(0.00098586777 0.0020169346 307.38966)
(0.00047843293 0.0030754806 307.39029)
(-0.00029308131 -0.0055430121 307.38728)
(-0.00010520329 -0.0047415459 307.38724)
(0.0027793795 -0.0034864112 307.38738)
(-4.8958461e-05 -0.0016398906 307.38829)
(-0.0029069092 0.00014804912 307.38792)
(0.0015478161 0.0015478162 307.38883)
(0.0032892549 0.00264737 307.39063)
(0.0021776649 0.003496689 307.39104)
(0.0019816974 0.0040643944 307.39143)
(0.00075498759 0.0042565074 307.39215)
(-1.6728152e-05 -0.0023437191 307.38696)
(0.00090750917 -0.0020252393 307.38717)
(0.0043906951 -0.0017508585 307.38772)
(0.0019496258 -0.00011180471 307.38921)
(-0.0012402634 0.001953079 307.38937)
(0.00264737 0.0032892549 307.39063)
(0.0039019519 0.0039019519 307.3926)
(0.0023587102 0.0039102818 307.39302)
(0.0017456862 0.0034525712 307.39326)
(0.00060650832 0.0026614798 307.39364)
(-8.0761387e-05 -0.00074632098 307.38671)
(0.00048765733 -4.1667582e-05 307.38661)
(0.004692814 -0.0013330002 307.38695)
(0.0036549791 -0.0010795332 307.38878)
(0.00049415042 0.00094168578 307.38947)
(0.003496689 0.0021776649 307.39104)
(0.0039102818 0.0023587102 307.39302)
(0.0017282842 0.0017282842 307.39318)
(0.00073289546 0.00085296248 307.39299)
(0.00022759337 0.00045209835 307.3929)
(0.00045304078 -0.0014582063 307.38675)
(0.00032082997 0.0014855804 307.38702)
(0.0033528295 0.0007503889 307.38688)
(0.0042243117 -0.00059963278 307.38856)
(0.0020169346 0.00098586777 307.38966)
(0.0040643944 0.0019816975 307.39143)
(0.0034525711 0.0017456862 307.39326)
(0.00085296249 0.00073289545 307.39299)
(0.00046950039 0.00046950039 307.39261)
(0.00033926557 0.00037584804 307.3934)
(0.0018817631 -0.00088261296 307.38581)
(0.0026962526 0.0005461094 307.38737)
(0.0026076008 0.00070100211 307.38756)
(0.003890458 4.9290247e-05 307.38894)
(0.0030754807 0.00047843293 307.39029)
(0.0042565074 0.0007549876 307.39215)
(0.0026614798 0.00060650832 307.39364)
(0.00045209836 0.00022759337 307.3929)
(0.00037584805 0.00033926557 307.3934)
(0.00016515847 0.00016515847 307.39342)
(0.0012052599 0.0012052599 317.43727)
(2.9294788e-05 -0.0011542585 317.43753)
(0.0041613755 0.0019874216 317.43687)
(0.0013844907 -0.0002810759 317.43829)
(-0.0088058906 -0.00071686169 317.43718)
(-0.0060379399 -0.0003433808 317.43655)
(-0.0025194377 2.6997952e-05 317.43666)
(-0.00088677905 -0.00013045924 317.43656)
(-0.0019264915 0.00052914437 317.43657)
(-0.0011810807 0.0023669837 317.43575)
(-0.0011542585 2.9294788e-05 317.43753)
(0.0012025373 0.0012025373 317.43686)
(0.0054711494 0.0034519097 317.43726)
(-0.0026719342 -0.0010989598 317.43786)
(-0.008899348 -0.0015359312 317.4367)
(-0.0049221504 -0.0001006753 317.43642)
(-0.0022000554 0.0012580294 317.43682)
(-0.00013355942 0.00059999931 317.43645)
(0.0018196729 0.00039844473 317.43684)
(0.00065675861 0.0035524474 317.43721)
(0.0019874216 0.0041613755 317.43687)
(0.0034519097 0.0054711494 317.43726)
(0.0018598784 0.0018598784 317.43711)
(-0.0036033502 0.00062606998 317.4375)
(-0.0078076061 0.0014470184 317.43653)
(-0.0032439793 0.003394635 317.43668)
(-0.0018187631 0.0054979075 317.43749)
(-0.0017463637 0.0058609182 317.43692)
(0.0010259566 0.0042164682 317.43687)
(0.00092158772 0.0034851219 317.43755)
(-0.0002810759 0.0013844907 317.43829)
(-0.0010989598 -0.0026719342 317.43786)
(0.00062606998 -0.0036033502 317.4375)
(-0.0030847942 -0.0030847942 317.43796)
(-0.0061307829 -0.0016549568 317.43729)
(-0.00087126127 0.00043834134 317.43792)
(0.00026622779 0.0029823881 317.43929)
(-0.0014149987 0.0051017047 317.43902)
(-0.00055612334 0.005780271 317.4388)
(0.00016919441 0.0054090694 317.43917)
(-0.00071686169 -0.0088058907 317.43718)
(-0.0015359312 -0.008899348 317.4367)
(0.0014470184 -0.0078076061 317.43653)
(-0.0016549568 -0.0061307829 317.43729)
(-0.0042844706 -0.0042844706 317.43699)
(0.0013933656 -0.0023557834 317.43804)
(0.0028446002 -0.00026183399 317.43992)
(0.0010515192 0.001867445 317.44015)
(0.0013333213 0.0036717908 317.44029)
(0.00067411993 0.0048696963 317.44087)
(-0.00034338079 -0.0060379399 317.43655)
(-0.00010067528 -0.0049221504 317.43642)
(0.003394635 -0.0032439793 317.43668)
(0.00043834133 -0.00087126126 317.43792)
(-0.0023557834 0.0013933656 317.43804)
(0.0031513753 0.0031513753 317.43947)
(0.0044894562 0.0045006599 317.44168)
(0.0025186261 0.005480419 317.44217)
(0.002446128 0.0060366919 317.44247)
(0.00096779805 0.0060581893 317.44308)
(2.6997952e-05 -0.0025194377 317.43666)
(0.0012580294 -0.0022000554 317.43682)
(0.0054979075 -0.0018187631 317.43749)
(0.0029823881 0.00026622779 317.43929)
(-0.000261834 0.0028446002 317.43992)
(0.0045006599 0.0044894562 317.44168)
(0.0051736439 0.0051736439 317.44404)
(0.0025875512 0.0050179614 317.44449)
(0.0019110915 0.0042087444 317.44455)
(0.00068845149 0.0029601727 317.44474)
(-0.00013045924 -0.00088677905 317.43656)
(0.00059999931 -0.00013355941 317.43645)
(0.0058609182 -0.0017463637 317.43692)
(0.0051017047 -0.0014149987 317.43902)
(0.001867445 0.0010515192 317.44015)
(0.005480419 0.0025186261 317.44217)
(0.0050179614 0.0025875512 317.44449)
(0.0015537266 0.0015537266 317.44459)
(0.00038833926 0.00033646497 317.44411)
(0.00013541691 0.00023815869 317.44371)
(0.00052914438 -0.0019264915 317.43657)
(0.00039844472 0.0018196729 317.43684)
(0.0042164682 0.0010259566 317.43687)
(0.005780271 -0.00055612335 317.4388)
(0.0036717908 0.0013333213 317.44029)
(0.0060366919 0.002446128 317.44247)
(0.0042087444 0.0019110915 317.44455)
(0.00033646498 0.00038833926 317.44411)
(0.00059552361 0.0005955236 317.44339)
(0.00062291397 0.00064604319 317.4442)
(0.0023669837 -0.0011810807 317.43575)
(0.0035524474 0.00065675861 317.43721)
(0.0034851219 0.00092158772 317.43755)
(0.0054090693 0.00016919441 317.43917)
(0.0048696963 0.00067411992 317.44087)
(0.0060581893 0.00096779804 317.44308)
(0.0029601727 0.0006884515 317.44474)
(0.00023815869 0.00013541691 317.44371)
(0.0006460432 0.00062291397 317.4442)
(0.00016909664 0.00016909664 317.44419)
(0.0012605645 0.0012605645 329.93134)
(-0.00018494655 -0.001383175 329.93153)
(0.0046374302 0.0021139769 329.93103)
(0.001711805 -0.00042277485 329.93269)
(-0.0094468243 -0.00087087756 329.93197)
(-0.0060643492 -0.00037954376 329.93177)
(-0.0023278533 9.062357e-05 329.93229)
(-0.00083816049 -0.00015412889 329.93247)
(-0.0022722049 0.00063525381 329.9326)
(-0.0014286363 0.0028555215 329.93192)
(-0.001383175 -0.00018494655 329.93153)
(0.001095172 0.001095172 329.9309)
(0.0060780304 0.003612426 329.93145)
(-0.0027654767 -0.0014415596 329.93232)
(-0.0093819776 -0.0017987823 329.93157)
(-0.0046220975 2.9581409e-05 329.93172)
(-0.001989731 0.0017384325 329.93254)
(-2.1215134e-05 0.0008444852 329.93246)
(0.0022422706 0.00062100481 329.93297)
(0.00079163137 0.0044989231 329.93341)
(0.0021139769 0.0046374302 329.93103)
(0.003612426 0.0060780304 329.93145)
(0.0021006985 0.0021006985 329.93149)
(-0.0036994033 0.00080903801 329.93216)
(-0.0079756833 0.0018771105 329.93161)
(-0.0025271344 0.0042761506 329.93219)
(-0.0015129495 0.0068576959 329.9334)
(-0.0019555882 0.0072590051 329.93311)
(0.0013822329 0.0053071382 329.93319)
(0.0011566426 0.0045678053 329.93392)
(-0.00042277486 0.001711805 329.93269)
(-0.0014415596 -0.0027654767 329.93232)
(0.00080903801 -0.0036994033 329.93216)
(-0.0029890647 -0.0029890648 329.93292)
(-0.005914865 -0.0012303751 329.93267)
(0.00035848794 0.001310675 329.93371)
(0.00099312346 0.0043811101 329.93547)
(-0.0015717728 0.0068822572 329.93545)
(-0.00044892927 0.0076410911 329.93534)
(0.00029874275 0.0072085024 329.93575)
(-0.00087087756 -0.0094468243 329.93197)
(-0.0017987823 -0.0093819776 329.93157)
(0.0018771105 -0.0079756833 329.93161)
(-0.0012303751 -0.005914865 329.93267)
(-0.0036759435 -0.0036759435 329.93277)
(0.0030843509 -0.0013524621 329.93424)
(0.0040586326 0.0011487568 329.93648)
(0.0013043929 0.0036413004 329.93692)
(0.0017084781 0.0056880221 329.93714)
(0.00086825004 0.0069875425 329.93773)
(-0.00037954375 -0.0060643492 329.93177)
(2.9581409e-05 -0.0046220975 329.93172)
(0.0042761506 -0.0025271344 329.93219)
(0.001310675 0.00035848795 329.93371)
(-0.0013524621 0.0030843509 329.93424)
(0.0051831882 0.0051831882 329.93606)
(0.005986886 0.0067590302 329.93861)
(0.0029674925 0.0078342474 329.93929)
(0.0028973128 0.0083293248 329.93964)
(0.0011650897 0.0081210632 329.94023)
(9.0623568e-05 -0.0023278533 329.93229)
(0.0017384325 -0.001989731 329.93254)
(0.0068576959 -0.0015129495 329.9334)
(0.0043811101 0.00099312347 329.93547)
(0.0011487568 0.0040586326 329.93648)
(0.0067590302 0.005986886 329.93861)
(0.0067096918 0.0067096918 329.94128)
(0.0028746875 0.006336578 329.9419)
(0.0019952939 0.0050943892 329.94197)
(0.00072940891 0.0032885576 329.94207)
(-0.00015412889 -0.00083816049 329.93247)
(0.0008444852 -2.121513e-05 329.93246)
(0.0072590051 -0.0019555882 329.93311)
(0.0068822572 -0.0015717728 329.93545)
(0.0036413004 0.0013043929 329.93692)
(0.0078342474 0.0029674925 329.93929)
(0.006336578 0.0028746876 329.9419)
(0.0013521899 0.0013521899 329.94212)
(-0.0001507076 -0.00030499614 329.94156)
(-3.879803e-05 -7.9020154e-05 329.94099)
(0.00063525381 -0.0022722049 329.9326)
(0.00062100482 0.0022422706 329.93297)
(0.0053071382 0.0013822329 329.93319)
(0.0076410912 -0.00044892927 329.93534)
(0.0056880221 0.0017084781 329.93714)
(0.0083293248 0.0028973128 329.93964)
(0.0050943892 0.0019952938 329.94197)
(-0.00030499615 -0.00015070761 329.94156)
(0.00056408384 0.00056408384 329.9407)
(0.00088005957 0.00085298372 329.94142)
(0.0028555215 -0.0014286363 329.93192)
(0.0044989231 0.00079163137 329.93341)
(0.0045678053 0.0011566426 329.93392)
(0.0072085024 0.00029874275 329.93575)
(0.0069875425 0.00086825004 329.93773)
(0.0081210632 0.0011650897 329.94023)
(0.0032885576 0.00072940891 329.94207)
(-7.9020157e-05 -3.8798034e-05 329.94099)
(0.00085298372 0.00088005957 329.94142)
(0.00015380189 0.00015380189 329.94134)
(0.0013346345 0.0013346345 344.82662)
(-0.00027271768 -0.0015752472 344.82688)
(0.005317078 0.0022668783 344.82657)
(0.0023231681 -0.00052633557 344.8284)
(-0.0097179023 -0.00098437509 344.82801)
(-0.0057214801 -0.00037668534 344.82815)
(-0.0018183816 0.00019210391 344.82897)
(-0.00057406709 -0.00013992121 344.8294)
(-0.0024828839 0.00077573268 344.82966)
(-0.0016366942 0.0033614469 344.82908)
(-0.0015752472 -0.00027271767 344.82688)
(0.0011256479 0.0011256479 344.82637)
(0.0068904454 0.0039105332 344.82707)
(-0.0025537119 -0.0016207692 344.82814)
(-0.0094934269 -0.0018943168 344.82772)
(-0.0039567616 0.00032065463 344.8282)
(-0.0014632354 0.0023716465 344.82932)
(0.00030137606 0.0012365935 344.82948)
(0.0027691682 0.00098723909 344.83012)
(0.00094901999 0.0055519133 344.83061)
(0.0022668783 0.005317078 344.82657)
(0.0039105332 0.0068904454 344.82707)
(0.0025706609 0.0025706609 344.82728)
(-0.0034816819 0.0012319168 344.82818)
(-0.0077764785 0.0025455975 344.82796)
(-0.0014555168 0.0053860388 344.82886)
(-0.0009024428 0.0084302859 344.83035)
(-0.0019584745 0.0088531424 344.8303)
(0.001832436 0.0065892159 344.8305)
(0.001406422 0.0058267516 344.83127)
(-0.00052633557 0.0023231681 344.8284)
(-0.0016207692 -0.0025537119 344.82814)
(0.0012319168 -0.0034816819 344.82818)
(-0.0025787754 -0.0025787754 344.82917)
(-0.0053393049 -0.00049718053 344.82924)
(0.0019279268 0.0024793138 344.83059)
(0.0020038682 0.0060572238 344.83261)
(-0.0015396939 0.0089154348 344.83281)
(-0.00025722257 0.0097348851 344.83282)
(0.00044071046 0.0092263333 344.83326)
(-0.00098437509 -0.0097179023 344.82801)
(-0.0018943168 -0.0094934269 344.82772)
(0.0025455975 -0.0077764785 344.82796)
(-0.00049718054 -0.0053393049 344.82924)
(-0.0027183893 -0.0027183893 344.82965)
(0.0050988875 -1.4046861e-05 344.83141)
(0.0055336782 0.0028759201 344.8339)
(0.0017191868 0.0057072733 344.83453)
(0.0021433345 0.0079699938 344.83485)
(0.0010673875 0.0093486633 344.83546)
(-0.00037668533 -0.0057214801 344.82815)
(0.00032065463 -0.0039567616 344.8282)
(0.0053860388 -0.0014555168 344.82886)
(0.0024793138 0.0019279268 344.83059)
(-1.4046861e-05 0.0050988875 344.83141)
(0.0075222363 0.0075222363 344.8335)
(0.0077251883 0.0093062204 344.83629)
(0.0035543798 0.010453925 344.83714)
(0.0033841674 0.010860037 344.83757)
(0.0013598235 0.010393466 344.83815)
(0.00019210391 -0.0018183816 344.82897)
(0.0023716465 -0.0014632354 344.82932)
(0.0084302859 -0.0009024428 344.83035)
(0.0060572238 0.0020038682 344.83261)
(0.0028759201 0.0055336782 344.8339)
(0.0093062203 0.0077251884 344.83629)
(0.0084653671 0.0084653671 344.83918)
(0.0032730031 0.007846293 344.83994)
(0.0020828749 0.0061303986 344.84007)
(0.00075634014 0.0037155089 344.84014)
(-0.00013992121 -0.0005740671 344.8294)
(0.0012365935 0.00030137606 344.82948)
(0.0088531424 -0.0019584745 344.8303)
(0.0089154348 -0.0015396939 344.83281)
(0.0057072733 0.0017191868 344.83453)
(0.010453925 0.0035543798 344.83714)
(0.007846293 0.0032730031 344.83994)
(0.0012194112 0.0012194112 344.84029)
(-0.00074661672 -0.00093619521 344.83976)
(-0.00025010301 -0.00041033875 344.8391)
(0.00077573269 -0.0024828839 344.82966)
(0.0009872391 0.0027691682 344.83012)
(0.0065892159 0.001832436 344.8305)
(0.0097348851 -0.00025722257 344.83282)
(0.0079699938 0.0021433345 344.83485)
(0.010860037 0.0033841674 344.83757)
(0.0061303986 0.0020828749 344.84007)
(-0.00093619521 -0.00074661672 344.83976)
(0.00045312492 0.00045312492 344.83886)
(0.0011069111 0.0010039316 344.83951)
(0.0033614469 -0.0016366942 344.82908)
(0.0055519134 0.00094901999 344.83061)
(0.0058267516 0.001406422 344.83127)
(0.0092263333 0.00044071046 344.83326)
(0.0093486633 0.0010673875 344.83546)
(0.010393466 0.0013598235 344.83815)
(0.0037155089 0.00075634014 344.84014)
(-0.00041033876 -0.00025010301 344.8391)
(0.0010039316 0.0011069111 344.83951)
(0.00011710146 0.00011710146 344.83938)
(0.0014340803 0.0014340803 362.06786)
(-0.000235358 -0.0017293439 362.06819)
(0.0061559227 0.0024424294 362.06803)
(0.0031470084 -0.0005953205 362.06998)
(-0.0097044476 -0.0010613734 362.06983)
(-0.0051065309 -0.00033992875 362.07022)
(-0.00107728 0.00032472648 362.07126)
(-0.00014319587 -9.4893158e-05 362.07186)
(-0.0025894546 0.00094192938 362.07224)
(-0.0018173752 0.0038795562 362.07173)
(-0.0017293439 -0.000235358 362.06819)
(0.0012771657 0.0012771657 362.06777)
(0.0078569578 0.0043205924 362.06858)
(-0.0021086957 -0.0016635658 362.06981)
(-0.00932136 -0.00185179 362.06964)
(-0.003027381 0.00074028583 362.07037)
(-0.00070972663 0.0031227676 362.07169)
(0.00078260847 0.0017441204 362.07203)
(0.0033722194 0.0014637022 362.07276)
(0.0011202516 0.006687415 362.07329)
(0.0024424294 0.0061559227 362.06803)
(0.0043205924 0.0078569578 362.06858)
(0.0032151912 0.0032151912 362.06893)
(-0.003025374 0.0018367234 362.06999)
(-0.007300596 0.0033912411 362.07002)
(-0.00013197322 0.0066604715 362.07115)
(-7.3445459e-05 0.010151334 362.07284)
(-0.0018022613 0.010584869 362.07296)
(0.0023538401 0.0080088094 362.07327)
(0.0016651 0.0072167927 362.07405)
(-0.0005953205 0.0031470084 362.06998)
(-0.0016635658 -0.0021086957 362.06981)
(0.0018367234 -0.003025374 362.06999)
(-0.0019326459 -0.0019326458 362.07115)
(-0.0044976119 0.00046292741 362.07146)
(0.0037327119 0.0038604864 362.07303)
(0.0032146708 0.0079266345 362.07522)
(-0.0013599162 0.011121483 362.07558)
(4.1431891e-06 0.011988193 362.07569)
(0.00059224047 0.011396728 362.07615)