/*--------------------------------*- C++ -*----------------------------------*\
| =========                 |                                                 |
| \\      /  F ield         | OpenFOAM: The Open Source CFD Toolbox           |
|  \\    /   O peration     | Version:  v2106                                 |
|   \\  /    A nd           | Website:  www.openfoam.com                      |
|    \\/     M anipulation  |                                                 |
\*---------------------------------------------------------------------------*/
FoamFile
{
    version     2.0;
    format      ascii;
    arch        "LSB;label=32;scalar=64";
    class       volScalarField;
    location    "7.5";
    object      laplacianT;
}
// * * * * * * * * * * * * * * * * * * * * * * * * * * * * * * * * * * * * * //

dimensions      [0 -2 0 1 0 0 0];

internalField   nonuniform List<scalar> 
4000
(
126.29789
126.49365
127.73926
126.07199
126.56948
126.73646
126.75306
126.72924
126.71798
126.73401
126.49365
128.24374
126.95011
126.46863
127.01816
127.15325
127.13329
127.08414
127.05615
126.9149
127.73926
126.95011
127.11478
126.58531
127.07215
127.18111
127.15282
127.131
127.2021
127.04035
126.07199
126.46863
126.58531
126.00767
126.46988
126.56231
126.50649
126.45217
126.57355
126.6737
126.56948
127.01816
127.07215
126.46988
126.92508
127.01511
126.94694
126.84844
126.87991
126.85679
126.73646
127.15325
127.18111
126.56231
127.01511
127.10854
127.04353
126.94448
126.96582
126.9105
126.75306
127.13329
127.15282
126.50649
126.94694
127.04353
126.98147
126.88517
126.90944
126.85607
126.72924
127.08414
127.131
126.45217
126.84844
126.94448
126.88517
126.7918
126.82133
126.78285
126.71798
127.05615
127.2021
126.57355
126.87991
126.96582
126.90944
126.82133
126.8623
126.85119
126.73401
126.9149
127.04035
126.6737
126.85679
126.9105
126.85607
126.78285
126.85119
126.86152
379.74817
379.57105
381.54859
378.71548
379.75059
380.09605
380.10941
380.04238
380.0572
380.18938
379.57105
381.43287
379.78141
378.98376
380.06917
380.32376
380.25327
380.14575
380.0199
379.71863
381.54859
379.78141
380.34153
379.42811
380.38893
380.58567
380.49484
380.50119
380.67355
380.28978
378.71548
378.98376
379.42811
378.42776
379.34292
379.49943
379.33026
379.2561
379.56893
379.7558
379.75059
380.06917
380.38893
379.34292
380.24687
380.39779
380.19323
380.0065
380.11664
380.04875
380.09605
380.32376
380.58567
379.49943
380.39779
380.55704
380.35837
380.16524
380.24366
380.09295
380.10941
380.25327
380.49484
379.33026
380.19323
380.35837
380.16666
379.97988
380.06492
379.93116
380.04238
380.14575
380.50119
379.2561
380.0065
380.16524
379.97988
379.80264
379.90798
379.84803
380.0572
380.0199
380.67355
379.56893
380.11664
380.24366
380.06492
379.90798
380.06231
380.09197
380.18938
379.71863
380.28978
379.7558
380.04875
380.09295
379.93116
379.84803
380.09197
379.97054
632.36808
631.17991
633.45004
630.19993
631.64202
632.094
632.06754
631.94136
631.90826
632.51098
631.17991
633.38248
631.36751
630.59022
632.06092
632.36439
632.22981
632.16621
631.76699
631.32621
633.45004
631.36751
631.96381
631.02227
632.3238
632.52976
632.33252
632.49355
632.71402
632.21877
630.19993
630.59022
631.02227
629.9691
631.21204
631.35537
631.01417
631.01296
631.40165
631.63113
631.64202
632.06092
632.3238
631.21204
632.44359
632.58086
632.1847
632.01254
632.10803
631.97681
632.094
632.36439
632.52976
631.35537
632.58086
632.73125
632.34286
632.15787
632.20192
631.95395
632.06754
632.22981
632.33252
631.01417
632.1847
632.34286
631.96469
631.78978
631.84712
631.66174
631.94136
632.16621
632.49355
631.01296
632.01254
632.15787
631.78978
631.63606
631.74469
631.74618
631.90826
631.76699
632.71402
631.40165
632.10803
632.20192
631.84712
631.74469
631.97655
632.02822
632.51098
631.32621
632.21877
631.63113
631.97681
631.95395
631.66174
631.74618
632.02822
631.88337
882.29888
880.65579
883.42324
879.66451
881.43822
881.97015
881.90112
881.75647
881.5664
882.50722
880.65579
883.16407
880.95631
880.0924
881.87914
882.19485
881.97984
882.09588
881.48393
880.90293
883.42324
880.95631
881.756
880.69437
882.27577
882.45501
882.11463
882.52226
882.75782
882.03202
879.66451
880.0924
880.69437
879.50209
881.01502
881.11299
880.56912
880.75149
881.20734
881.36424
881.43822
881.87914
882.27577
881.01502
882.51673
882.60796
881.98892
881.94517
882.02842
881.7412
881.97015
882.19485
882.45501
881.11299
882.60796
882.71634
882.1054
882.04074
882.05281
881.62721
881.90112
881.97984
882.11463
880.56912
881.98892
882.1054
881.50639
881.45503
881.49022
881.19788
881.75647
882.09588
882.52226
880.75149
881.94517
882.04074
881.45503
881.44237
881.58023
881.63178
881.5664
881.48393
882.75782
881.20734
882.02842
882.05281
881.49022
881.58023
881.95093
881.66696
882.50722
880.90293
882.03202
881.36424
881.7412
881.62721
881.19788
881.63178
881.66696
881.64453
1128.8245
1127.0193
1130.2353
1125.9363
1128.0095
1128.602
1128.4765
1128.3621
1128.1305
1129.3748
1127.0193
1129.9458
1127.5115
1126.5214
1128.5939
1128.8942
1128.5514
1128.8525
1128.0964
1127.4046
1130.2353
1127.5115
1128.4781
1127.2622
1129.0975
1129.228
1128.7036
1129.3729
1129.6733
1128.7482
1125.9363
1126.5214
1127.2622
1125.8987
1127.6566
1127.6882
1126.9028
1127.293
1127.8736
1127.9902
1128.0095
1128.5939
1129.0975
1127.6566
1129.4036
1129.4276
1128.5461
1128.6565
1128.7898
1128.3859
1128.602
1128.8942
1129.228
1127.6882
1129.4276
1129.472
1128.5977
1128.6775
1128.7193
1128.1609
1128.4765
1128.5514
1128.7036
1126.9028
1128.5461
1128.5977
1127.7353
1127.8307
1127.9084
1127.5766
1128.3621
1128.8525
1129.3729
1127.293
1128.6565
1128.6775
1127.8307
1127.9886
1128.2484
1128.4918
1128.1305
1128.0964
1129.6733
1127.8736
1128.7898
1128.7193
1127.9084
1128.2484
1128.9334
1128.2016
1129.3748
1127.4046
1128.7482
1127.9902
1128.3859
1128.1609
1127.5766
1128.4918
1128.2016
1128.309
1371.4685
1369.5095
1373.1295
1368.2888
1370.6442
1371.2839
1371.0773
1370.9658
1370.6991
1372.2083
1369.5095
1372.8267
1370.1471
1369.019
1371.3622
1371.6368
1371.1403
1371.595
1370.6911
1369.8773
1373.1295
1370.1471
1371.2521
1369.8724
1371.9485
1372.0217
1371.2907
1372.1971
1372.5517
1371.4247
1368.2888
1369.019
1369.8724
1368.3292
1370.3194
1370.2765
1369.2277
1369.8053
1370.5015
1370.5748
1370.6442
1371.3622
1371.9485
1370.3194
1372.299
1372.2473
1371.0811
1371.3264
1371.5026
1370.9826
1371.2839
1371.6368
1372.0217
1370.2765
1372.2473
1372.2189
1371.0578
1371.2613
1371.324
1370.6344
1371.0773
1371.1403
1371.2907
1369.2277
1371.0811
1371.0578
1369.9069
1370.1254
1370.2343
1369.8729
1370.9658
1371.595
1372.1971
1369.8053
1371.3264
1371.2613
1370.1254
1370.4284
1370.8085
1371.3083
1370.6991
1370.6911
1372.5517
1370.5015
1371.5026
1371.324
1370.2343
1370.8085
1371.8667
1370.6848
1372.2083
1369.8773
1371.4247
1370.5748
1370.9826
1370.6344
1369.8729
1371.3083
1370.6848
1370.9284
1609.1464
1607.0253
1611.024
1605.6551
1608.2817
1608.9644
1608.6704
1608.55
1608.2482
1610.0086
1607.0253
1610.7052
1607.7821
1606.5156
1609.1194
1609.366
1608.7109
1609.3068
1608.2562
1607.3216
1611.024
1607.7821
1609.0131
1607.4707
1609.7785
1609.7932
1608.8518
1609.9842
1610.3887
1609.0651
1605.6551
1606.5156
1607.4707
1605.7498
1607.9637
1607.8453
1606.53
1607.2861
1608.0927
1608.1252
1608.2817
1609.1194
1609.7785
1607.9637
1610.1672
1610.0387
1608.5848
1608.957
1609.1729
1608.5419
1608.9644
1609.366
1609.7932
1607.8453
1610.0387
1609.936
1608.4847
1608.8033
1608.883
1608.0672
1608.6704
1608.7109
1608.8518
1606.53
1608.5848
1608.4847
1607.0407
1607.3719
1607.5054
1607.1192
1608.55
1609.3068
1609.9842
1607.2861
1608.957
1608.8033
1607.3719
1607.8066
1608.299
1609.0802
1608.2482
1608.2562
1610.3887
1608.0927
1609.1729
1608.883
1607.5054
1608.299
1609.7432
1608.128
1610.0086
1607.3216
1609.0651
1608.1252
1608.5419
1608.0672
1607.1192
1609.0802
1608.128
1608.5163
1840.7624
1838.481
1842.8397
1836.9632
1839.8502
1840.5735
1840.192
1840.0601
1839.7243
1841.7296
1838.481
1842.5028
1839.3467
1837.9457
1840.7999
1841.018
1840.2056
1840.938
1839.7447
1838.6954
1842.8397
1839.3467
1840.697
1838.9971
1841.5276
1841.4841
1840.3345
1841.687
1842.1397
1840.6277
1836.9632
1837.9457
1838.9971
1837.1044
1839.5333
1839.3401
1837.7619
1838.6922
1839.6062
1839.6014
1839.8502
1840.7999
1841.5276
1839.5333
1841.9521
1841.7475
1840.0098
1840.5058
1840.7605
1840.0248
1840.5735
1841.018
1841.4841
1839.3401
1841.7475
1841.5711
1839.8331
1840.2637
1840.3593
1839.4238
1840.192
1840.2056
1840.3345
1837.7619
1840.0098
1839.8331
1838.0993
1838.5393
1838.6951
1838.2885
1840.0601
1840.938
1841.687
1838.6922
1840.5058
1840.2637
1838.5393
1839.1001
1839.7
1840.7703
1839.7243
1839.7447
1842.1397
1839.6062
1840.7605
1840.3593
1838.6951
1839.7
1841.529
1839.4948
1841.7296
1838.6954
1840.6277
1839.6014
1840.0248
1839.4238
1838.2885
1840.7703
1839.4948
1840.0332
2065.2062
2062.7716
2067.4715
2061.112
2064.2477
2065.0089
2064.5415
2064.3983
2064.0301
2066.2737
2062.7716
2067.1161
2063.7407
2062.2106
2065.3035
2065.4927
2064.5263
2065.3924
2064.0613
2062.9035
2067.4715
2063.7407
2065.2043
2063.3537
2066.0967
2065.9953
2064.6421
2066.2095
2066.709
2065.0167
2061.112
2062.2106
2063.3537
2061.297
2063.931
2063.6641
2061.8289
2062.93
2063.9482
2063.9083
2064.2477
2065.3035
2066.0967
2063.931
2066.5553
2066.2757
2064.2606
2064.8789
2065.1717
2064.3365
2065.0089
2065.4927
2065.9953
2063.6641
2066.2757
2066.0264
2064.0082
2064.5491
2064.6605
2063.6112
2064.5415
2064.5263
2064.6421
2061.8289
2064.2606
2064.0082
2061.9909
2062.5377
2062.7148
2062.2914
2064.3983
2065.3924
2066.2095
2062.93
2064.8789
2064.5491
2062.5377
2063.2219
2063.9259
2065.2858
2064.0301
2064.0613
2066.709
2063.9482
2065.1717
2064.6605
2062.7148
2063.9259
2066.1338
2063.6921
2066.2737
2062.9035
2065.0167
2063.9083
2064.3365
2063.6112
2062.2914
2065.2858
2063.6921
2064.3828
2281.3219
2278.7439
2283.7642
2276.9496
2280.3204
2281.1165
2280.5653
2280.4116
2280.0127
2282.4867
2278.7439
2283.3905
2279.8114
2278.1584
2281.4767
2281.6362
2280.5199
2281.5169
2280.0537
2278.7937
2283.7642
2279.8114
2281.3818
2279.3883
2282.3318
2282.1731
2280.6218
2282.3986
2282.9432
2281.0788
2276.9496
2278.1584
2279.3883
2277.1761
2280.0039
2279.6643
2277.5797
2278.8481
2279.9667
2279.8932
2280.3204
2281.4767
2282.3318
2280.0039
2282.8225
2282.4689
2280.1847
2280.9236
2281.2538
2280.3241
2281.1165
2281.6362
2282.1731
2279.6643
2282.4689
2282.1478
2279.8575
2280.5074
2280.6344
2279.4771
2280.5653
2280.5199
2280.6218
2277.5797
2280.1847
2279.8575
2277.5647
2278.2169
2278.4148
2277.9778
2280.4116
2281.5169
2282.3986
2278.8481
2280.9236
2280.5074
2278.2169
2279.0221
2279.8276
2281.4743
2280.0127
2280.0537
2282.9432
2279.9667
2281.2538
2280.6344
2278.4148
2279.8276
2282.4067
2279.5683
2282.4867
2278.7937
2281.0788
2279.8932
2280.3241
2279.4771
2277.9778
2281.4743
2279.5683
2280.411
2487.9005
2485.1901
2490.5076
2483.269
2486.8596
2487.687
2487.0543
2486.8911
2486.4636
2489.1586
2485.1901
2490.1162
2486.3504
2484.5815
2488.1101
2488.239
2486.9775
2488.1021
2486.5135
2485.1579
2490.5076
2486.3504
2488.0203
2485.8925
2489.0233
2488.8077
2487.0647
2489.0446
2489.6323
2487.6048
2483.269
2484.5815
2485.8925
2483.5346
2486.5435
2486.1324
2483.8069
2485.2385
2486.4534
2486.3474
2486.8596
2488.1101
2489.0233
2486.5435
2489.5435
2489.1173
2486.5732
2487.4309
2487.7978
2486.7786
2487.687
2488.239
2488.8077
2486.1324
2489.1173
2488.7254
2486.1724
2486.9298
2487.0724
2485.8132
2487.0543
2486.9775
2487.0647
2483.8069
2486.5732
2486.1724
2483.6135
2484.3694
2484.5879
2484.1405
2486.8911
2488.1021
2489.0446
2485.2385
2487.4309
2486.9298
2484.3694
2485.2935
2486.1978
2488.1265
2486.4636
2486.5135
2489.6323
2486.4534
2487.7978
2487.0724
2484.5879
2486.1978
2489.1386
2485.9154
2489.1586
2485.1579
2487.6048
2486.3474
2486.7786
2485.8132
2484.1405
2488.1265
2485.9154
2486.9086
2683.6816
2680.851
2686.44
2678.8117
2682.6051
2683.4599
2682.7484
2682.5769
2682.1229
2685.028
2680.851
2686.0317
2682.0979
2680.2209
2683.9431
2684.0403
2682.639
2683.8876
2682.1806
2680.7367
2686.44
2682.0979
2683.8593
2681.6067
2684.91
2684.638
2682.7107
2684.8864
2685.5151
2683.3341
2678.8117
2680.2209
2681.6067
2679.114
2682.2896
2681.8085
2679.252
2680.8418
2682.1482
2682.011
2682.6051
2683.9431
2684.91
2682.2896
2685.4568
2684.9595
2682.1664
2683.1404
2683.5432
2682.4401
2683.4599
2684.0403
2684.638
2681.8085
2684.9595
2684.4981
2681.6932
2682.5559
2682.7144
2681.36
2682.7484
2682.639
2682.7107
2679.252
2682.1664
2681.6932
2678.8789
2679.7365
2679.9754
2679.5211
2682.5769
2683.8876
2684.8864
2680.8418
2683.1404
2682.5559
2679.7365
2680.7767
2681.7768
2683.9818
2682.1229
2682.1806
2685.5151
2682.1482
2683.5432
2682.7144
2679.9754
2681.7768
2685.0686
2681.4739
2685.028
2680.7367
2683.3341
2682.011
2682.4401
2681.36
2679.5211
2683.9818
2681.4739
2682.6152
2867.3609
2864.4235
2870.2559
2862.2755
2866.253
2867.1308
2866.3435
2866.1649
2865.6869
2868.7898
2864.4235
2869.8316
2865.7501
2863.7737
2867.6709
2867.7356
2866.2005
2867.5685
2865.7515
2864.227
2870.2559
2865.7501
2867.5941
2865.2275
2868.6868
2868.3592
2866.2558
2868.6187
2869.2859
2866.9625
2862.2755
2863.7737
2865.2275
2862.6118
2865.9384
2865.3889
2862.6125
2864.3548
2865.7473
2865.5802
2866.253
2867.6709
2868.6868
2865.9384
2869.2573
2868.6904
2865.6605
2866.7478
2867.1853
2866.0045
2867.1308
2867.7356
2868.3592
2865.3889
2868.6904
2868.161
2865.1164
2866.082
2866.2562
2864.814
2866.3435
2866.2005
2866.2558
2862.6125
2865.6605
2865.1164
2862.059
2863.0157
2863.2746
2862.817
2866.1649
2867.5685
2868.6187
2864.3548
2866.7478
2866.082
2863.0157
2864.1688
2865.2611
2867.7352
2865.6869
2865.7515
2869.2859
2865.7473
2867.1853
2866.2562
2863.2746
2865.2611
2868.8911
2864.9405
2868.7898
2864.227
2866.9625
2865.5802
2866.0045
2864.814
2862.817
2867.7352
2864.9405
2866.2262
3037.5998
3034.5702
3040.6155
3032.3242
3036.4654
3037.3613
3036.5016
3036.3172
3035.8178
3039.1046
3034.5702
3040.1766
3035.9693
3033.903
3037.9553
3037.9864
3036.3244
3037.8064
3035.8883
3034.2917
3040.6155
3035.9693
3037.8863
3035.4174
3039.015
3038.6325
3036.3625
3038.9027
3039.6057
3037.1518
3032.3242
3033.903
3035.4174
3032.6917
3036.1522
3035.5362
3032.5525
3034.4404
3035.913
3035.7173
3036.4654
3037.9553
3039.015
3036.1522
3039.6056
3038.9712
3035.7181
3036.9152
3037.3861
3036.134
3037.3613
3037.9864
3038.6325
3035.5362
3038.9712
3038.3757
3035.105
3036.1704
3036.3602
3034.8381
3036.5016
3036.3244
3036.3625
3032.5525
3035.7181
3035.105
3031.818
3032.8708
3033.1491
3032.692
3036.3172
3037.8064
3038.9027
3034.4404
3036.9152
3036.1704
3032.8708
3034.1328
3035.3134
3038.0478
3035.8178
3035.8883
3039.6057
3035.913
3037.3861
3036.3602
3033.1491
3035.3134
3039.267
3034.9776
3039.1046
3034.2917
3037.1518
3035.7173
3036.134
3034.8381
3032.692
3038.0478
3034.9776
3036.4038
3193.039
3189.9331
3196.1585
3187.6004
3191.8833
3192.7923
3191.864
3191.675
3191.157
3194.6124
3189.9331
3195.7064
3191.3968
3189.2511
3193.4367
3193.4333
3191.6519
3193.242
3191.2325
3189.5729
3196.1585
3191.3968
3193.3764
3190.8179
3194.5345
3194.0984
3191.6721
3194.3786
3195.1142
3192.5426
3187.6004
3189.2511
3190.8179
3187.9963
3191.5724
3190.8921
3187.7148
3189.7407
3191.2866
3191.0636
3191.8833
3193.4367
3194.5345
3191.5724
3195.1418
3194.4422
3190.9811
3192.2836
3192.7862
3191.4698
3192.7923
3193.4333
3194.0984
3190.8921
3194.4422
3193.7827
3190.3011
3191.4625
3191.6675
3190.0741
3191.864
3191.6519
3191.6721
3187.7148
3190.9811
3190.3011
3186.7998
3187.9449
3188.2419
3187.789
3191.675
3193.242
3194.3786
3189.7407
3192.2836
3191.4625
3187.9449
3189.3111
3190.5752
3193.5597
3191.157
3191.2325
3195.1142
3191.2866
3192.7862
3191.6675
3188.2419
3190.5752
3194.8359
3190.2271
3194.6124
3189.5729
3192.5426
3191.0636
3191.4698
3190.0741
3187.789
3193.5597
3190.2271
3191.7886
3332.3133
3329.1483
3335.5185
3326.7412
3331.1421
3332.0587
3331.0661
3330.8739
3330.3403
3333.9474
3329.1483
3335.0551
3330.6683
3328.4545
3332.7501
3332.7113
3330.8189
3332.5102
3330.42
3328.707
3335.5185
3330.6683
3332.6994
3330.065
3333.88
3333.3915
3330.8205
3333.681
3334.4457
3331.7702
3326.7412
3328.4545
3330.065
3327.1629
3330.8345
3330.0927
3326.7371
3328.8922
3330.5039
3330.255
3331.1421
3332.7501
3333.88
3330.8345
3334.5002
3333.7382
3330.0857
3331.4885
3332.0209
3330.6477
3332.0587
3332.7113
3333.3915
3330.0927
3333.7382
3333.017
3329.3413
3330.5943
3330.8141
3329.1584
3331.0661
3330.8189
3330.8205
3326.7371
3330.0857
3329.3413
3325.6425
3326.8756
3327.1903
3326.7455
3330.8739
3332.5102
3333.681
3328.8922
3331.4885
3330.5943
3326.8756
3328.3405
3329.6829
3332.9056
3330.3403
3330.42
3334.4457
3330.5039
3332.0209
3330.8141
3327.1903
3329.6829
3334.2317
3329.325
3333.9474
3328.707
3331.7702
3330.255
3330.6477
3329.1584
3326.7455
3332.9056
3329.325
3331.016
3454.07
3450.8642
3457.342
3448.396
3452.8898
3453.8083
3452.756
3452.5618
3452.0157
3455.7561
3450.8642
3456.8694
3452.4316
3450.162
3454.5429
3454.468
3452.4738
3454.2586
3452.0989
3450.3426
3457.342
3452.4316
3454.5026
3451.8071
3455.6984
3455.1592
3452.4561
3455.4568
3456.2468
3453.4823
3448.396
3450.162
3451.8071
3448.8409
3452.5869
3451.7864
3448.2693
3450.5437
3452.213
3451.9396
3452.8898
3454.5429
3455.6984
3452.5869
3456.3277
3455.5063
3451.6807
3453.1781
3453.738
3452.3158
3453.8083
3454.468
3455.1592
3451.7864
3455.5063
3454.7264
3450.8748
3452.2143
3452.4483
3450.7398
3452.756
3452.4738
3452.4561
3448.2693
3451.6807
3450.8748
3446.9969
3448.3128
3448.6442
3448.2112
3452.5618
3454.2586
3455.4568
3450.5437
3453.1781
3452.2143
3448.3128
3449.8703
3451.2849
3454.7322
3452.0157
3452.0989
3456.2468
3452.213
3453.738
3452.4483
3448.6442
3451.2849
3456.1009
3450.92
3455.7561
3450.3426
3453.4823
3451.9396
3452.3158
3450.7398
3448.2112
3454.7322
3450.92
3452.7334
3556.9886
3553.7613
3560.3075
3551.2464
3555.8063
3556.7207
3555.6138
3555.4191
3554.8638
3558.7174
3553.7613
3559.8282
3555.3671
3553.0547
3557.4948
3557.383
3555.2971
3557.1669
3554.9499
3553.1608
3560.3075
3555.3671
3557.4656
3554.7246
3558.6691
3558.0812
3555.2596
3558.3855
3559.1966
3556.3587
3551.2464
3553.0547
3554.7246
3551.7116
3555.5098
3554.6541
3550.9936
3553.3763
3555.0942
3554.7979
3555.8063
3557.4948
3558.6691
3555.5098
3559.3035
3558.4262
3554.4473
3556.0326
3556.6174
3555.1544
3556.7207
3557.383
3558.0812
3554.6541
3558.4262
3557.5908
3553.5833
3555.0035
3555.2507
3553.4994
3555.6138
3555.2971
3555.2596
3550.9936
3554.4473
3553.5833
3549.5461
3550.9392
3551.2858
3550.8682
3555.4191
3557.1669
3558.3855
3553.3763
3556.0326
3555.0035
3550.9392
3552.5822
3554.0622
3557.7188
3554.8638
3554.9499
3559.1966
3555.0942
3556.6174
3555.2507
3551.2858
3554.0622
3559.1223
3553.6929
3558.7174
3553.1608
3556.3587
3554.7979
3555.1544
3553.4994
3550.8682
3557.7188
3553.6929
3555.6208
3639.8027
3636.5742
3643.1478
3634.0275
3638.6257
3639.5299
3638.374
3638.18
3637.619
3641.5643
3636.5742
3642.6647
3638.2089
3635.8676
3640.3395
3640.1905
3638.0236
3639.9689
3637.7075
3635.8966
3643.1478
3638.2089
3640.3219
3637.5522
3641.5255
3640.8911
3637.966
3641.2006
3642.0282
3639.1336
3634.0275
3635.8676
3637.5522
3634.5107
3638.3376
3637.4305
3633.6462
3636.1252
3637.8821
3637.5642
3638.6257
3640.3395
3641.5255
3638.3376
3642.1609
3641.2317
3637.1207
3638.7865
3639.3933
3637.8982
3639.5299
3640.1905
3640.8911
3637.4305
3641.2317
3640.3445
3636.2024
3637.6967
3637.9561
3636.1725
3638.374
3638.0236
3637.966
3633.6462
3637.1207
3636.2024
3632.0276
3633.4913
3633.8515
3633.4528
3638.18
3639.9689
3641.2006
3636.1252
3638.7865
3637.6967
3633.4913
3635.212
3636.75
3640.5984
3637.619
3637.7075
3642.0282
3637.8821
3639.3933
3637.9561
3633.8515
3636.75
3642.0285
3636.3786
3641.5643
3635.8966
3639.1336
3637.5642
3637.8982
3636.1725
3633.4528
3640.5984
3636.3786
3638.4121
3701.3228
3698.1144
3704.673
3695.5517
3700.1591
3701.0467
3699.8478
3699.6559
3699.0928
3703.1068
3698.1144
3704.1891
3699.7681
3697.4126
3701.8879
3701.7013
3699.4652
3701.4756
3699.1832
3697.3619
3704.673
3699.7681
3701.8824
3699.1012
3703.0782
3702.3999
3699.387
3702.7128
3703.5519
3700.6178
3695.5517
3697.4126
3699.1012
3696.0505
3699.8818
3698.9276
3695.0403
3697.6025
3699.3881
3699.05
3700.1591
3701.8879
3703.0782
3699.8818
3703.7105
3702.7337
3698.5135
3700.2514
3700.877
3699.3585
3701.0467
3701.7013
3702.3999
3698.9276
3702.7337
3701.7987
3697.5451
3699.106
3699.3764
3697.5712
3699.8478
3699.4652
3699.387
3695.0403
3698.5135
3697.5451
3693.2557
3694.7827
3695.1546
3694.7782
3699.6559
3701.4756
3702.7128
3697.6025
3700.2514
3699.106
3694.7827
3696.5724
3698.1601
3702.1812
3699.0928
3699.1832
3703.5519
3699.3881
3700.877
3699.3764
3695.1546
3698.1601
3703.6295
3697.789
3703.1068
3697.3619
3700.6178
3699.05
3699.3585
3697.5712
3694.7782
3702.1812
3697.789
3699.9181
3740.4603
3737.294
3743.794
3734.7316
3739.3184
3740.183
3738.9476
3738.7591
3738.1974
3742.256
3737.294
3743.3126
3738.9566
3736.6021
3741.0515
3740.8273
3738.5344
3740.5988
3738.2896
3736.4694
3743.794
3738.9566
3741.0584
3738.2839
3742.2384
3741.5192
3738.4357
3741.8335
3742.679
3739.7235
3734.7316
3736.6021
3738.2839
3735.2438
3739.0545
3738.0578
3734.0898
3736.7209
3738.5244
3738.1676
3739.3184
3741.0515
3742.2384
3739.0545
3742.8635
3741.844
3737.5388
3739.3397
3739.9805
3738.4477
3740.183
3740.8273
3741.5192
3738.0578
3741.844
3740.8659
3736.5249
3738.1445
3738.4244
3736.6086
3738.9476
3738.5344
3738.4357
3734.0898
3737.5388
3736.5249
3732.1455
3733.7278
3734.1094
3733.7583
3738.7591
3740.5988
3741.8335
3736.7209
3739.3397
3738.1445
3733.7278
3735.5769
3737.2056
3741.3784
3738.1974
3738.2896
3742.679
3738.5244
3739.9805
3738.4244
3734.1094
3737.2056
3742.8359
3736.837
3742.256
3736.4694
3739.7235
3738.1676
3738.4477
3736.6086
3733.7583
3741.3784
3736.837
3739.0505
3756.2516
3753.1498
3759.5468
3750.6047
3755.1401
3755.9754
3754.7102
3754.5265
3753.9699
3758.0476
3753.1498
3759.0716
3754.8111
3752.4734
3756.8669
3756.6053
3754.2687
3756.3752
3754.0637
3752.2565
3759.5468
3754.8111
3756.8863
3754.1371
3758.0426
3757.2858
3754.1495
3757.5992
3758.4457
3755.4873
3750.6047
3752.4734
3754.1371
3751.1281
3754.8926
3753.8586
3749.8332
3752.5181
3754.3279
3753.9539
3755.1401
3756.8669
3758.0426
3754.8926
3758.6563
3757.5994
3753.2347
3755.0887
3755.7408
3754.2031
3755.9754
3756.6053
3757.2858
3753.8586
3757.5994
3756.5831
3752.1806
3753.8499
3754.1376
3752.3225
3754.7102
3754.2687
3754.1495
3749.8332
3753.2347
3752.1806
3747.7369
3749.3659
3749.7547
3749.4317
3754.5265
3756.3752
3757.5992
3752.5181
3755.0887
3753.8499
3749.3659
3751.2641
3752.9242
3757.2257
3753.9699
3754.0637
3758.4457
3754.3279
3755.7408
3754.1376
3749.7547
3752.9242
3758.6834
3752.56
3758.0476
3752.2565
3755.4873
3753.9539
3754.2031
3752.3225
3749.4317
3757.2257
3752.56
3754.8459
3747.8816
3744.8669
3751.1161
3742.3567
3746.8096
3747.609
3746.3215
3746.1437
3745.596
3749.6664
3744.8669
3750.651
3746.5166
3744.2118
3748.5191
3748.2206
3745.8542
3747.9901
3745.6913
3743.9089
3751.1161
3746.5166
3748.551
3745.8461
3749.6757
3748.8851
3745.7148
3749.1951
3750.0369
3747.0946
3742.3567
3744.2118
3745.8461
3742.8891
3746.5815
3745.5157
3741.4575
3744.1799
3745.9843
3745.5945
3746.8096
3748.5191
3749.6757
3746.5815
3750.274
3749.1854
3744.7879
3746.6842
3747.3434
3745.8102
3747.609
3748.2206
3748.8851
3745.5157
3749.1854
3748.1364
3743.6992
3745.4085
3745.7022
3743.8993
3746.3215
3745.8542
3745.7148
3741.4575
3744.7879
3743.6992
3739.2184
3740.8845
3741.278
3740.9857
3746.1437
3747.9901
3749.1951
3744.1799
3746.6842
3745.4085
3740.8845
3742.8206
3744.502
3748.9076
3745.596
3745.6913
3750.0369
3745.9843
3747.3434
3745.7022
3741.278
3744.502
3750.3561
3744.1442
3749.6664
3743.9089
3747.0946
3745.5945
3745.8102
3743.8993
3740.9857
3748.9076
3744.1442
3746.4893
3714.7066
3711.8019
3717.8584
3709.3441
3713.6833
3714.4405
3713.1383
3712.9677
3712.4326
3716.4683
3711.8019
3717.4073
3713.4296
3711.1741
3715.3647
3715.0302
3712.6484
3714.8003
3712.5295
3710.7838
3717.8584
3713.4296
3715.409
3712.7677
3716.4941
3715.6739
3712.4891
3715.978
3716.8091
3713.9021
3709.3441
3711.1741
3712.7677
3709.8837
3713.4778
3712.3863
3708.3208
3711.0637
3712.8502
3712.4463
3713.6833
3715.3647
3716.4941
3713.4778
3717.0731
3715.9589
3711.5563
3713.4835
3714.1454
3712.6262
3714.4405
3715.0302
3715.6739
3712.3863
3715.9589
3714.8831
3710.4392
3712.1782
3712.4757
3710.6966
3713.1383
3712.6484
3712.4891
3708.3208
3711.5563
3710.4392
3705.9493
3707.6424
3708.038
3707.7785
3712.9677
3714.8003
3715.978
3711.0637
3713.4835
3712.1782
3707.6424
3709.6047
3711.2966
3715.7799
3712.4326
3712.5295
3716.8091
3712.8502
3714.1454
3712.4757
3708.038
3711.2966
3717.2098
3710.9468
3716.4683
3710.7838
3713.9021
3712.4463
3712.6262
3710.6966
3707.7785
3715.7799
3710.9468
3713.3371
3656.2759
3653.5037
3659.3231
3651.1161
3655.3104
3656.0193
3654.7103
3654.548
3654.0292
3658.0025
3653.5037
3658.8902
3655.099
3652.9094
3656.953
3656.5835
3654.2013
3656.3552
3654.1278
3652.4307
3659.3231
3655.099
3657.0093
3654.4508
3658.0472
3657.2018
3654.0229
3657.4972
3658.3117
3655.4595
3651.1161
3652.9094
3654.4508
3651.661
3655.1308
3654.02
3649.9733
3652.719
3654.4751
3654.0586
3655.3104
3656.953
3658.0472
3655.1308
3658.6029
3657.4697
3653.0906
3655.0365
3655.6964
3654.2008
3656.0193
3656.5835
3657.2018
3654.02
3657.4697
3656.3735
3651.9515
3653.7094
3654.0085
3652.2646
3654.7103
3654.2013
3654.0229
3649.9733
3653.0906
3651.9515
3647.4815
3649.191
3649.5857
3649.3608
3654.548
3656.3552
3657.4972
3652.719
3655.0365
3653.7094
3649.191
3651.1668
3652.8581
3657.3913
3654.0292
3654.1278
3658.3117
3654.4751
3655.6964
3654.0085
3649.5857
3652.8581
3658.7931
3652.518
3658.0025
3652.4307
3655.4595
3654.0586
3654.2008
3652.2646
3649.3608
3657.3913
3652.518
3654.9384
3572.3505
3569.7332
3575.2718
3567.4335
3571.452
3572.1067
3570.7993
3570.6463
3570.1475
3574.03
3569.7332
3574.8614
3571.2858
3569.1785
3573.0451
3572.6422
3570.275
3572.4164
3570.248
3568.6109
3575.2718
3571.2858
3573.113
3570.6566
3574.0962
3573.2305
3570.0783
3573.5145
3574.3062
3571.5282
3567.4335
3569.1785
3570.6566
3567.9818
3571.3016
3570.1782
3566.1773
3568.9072
3570.6203
3570.1928
3571.452
3573.0451
3574.0962
3571.3016
3574.6249
3573.4797
3569.1532
3571.105
3571.7581
3570.2957
3572.1067
3572.6422
3573.2305
3570.1782
3573.4797
3572.3696
3567.999
3569.7642
3570.0626
3568.3654
3570.7993
3570.275
3570.0783
3566.1773
3569.1532
3567.999
3563.5787
3565.2933
3565.6839
3565.4951
3570.6463
3572.4164
3573.5145
3568.9072
3571.105
3569.7642
3565.2933
3567.2696
3568.9486
3573.5024
3570.1475
3570.248
3574.3062
3570.6203
3571.7581
3570.0626
3565.6839
3568.9486
3574.8666
3568.6194
3574.03
3568.6109
3571.5282
3570.1928
3570.2957
3568.3654
3565.4951
3573.5024
3568.6194
3571.0543
3462.9207
3460.4797
3465.6952
3458.2852
3462.0978
3462.6928
3461.3954
3461.2528
3460.7774
3464.5409
3460.4797
3465.3114
3461.9794
3459.9706
3463.631
3463.1966
3460.86
3462.9741
3460.88
3459.3144
3465.6952
3461.9794
3463.7099
3461.3743
3464.6314
3463.7505
3460.6461
3464.0201
3464.7829
3462.0984
3458.2852
3459.9706
3461.3743
3458.8351
3461.98
3460.8511
3456.9231
3459.6184
3461.2756
3460.8388
3462.0978
3463.631
3464.6314
3461.98
3465.1294
3463.9795
3459.735
3461.6795
3462.3208
3460.9009
3462.6928
3463.1966
3463.7505
3460.8511
3463.9795
3462.8625
3458.5731
3460.3337
3460.6288
3458.9895
3461.3954
3460.86
3460.6461
3456.9231
3459.735
3458.5731
3454.2326
3455.9405
3456.3239
3456.1722
3461.2528
3462.9741
3464.0201
3459.6184
3461.6795
3460.3337
3455.9405
3457.9036
3459.5586
3464.1025
3460.7774
3460.88
3464.7829
3461.2756
3462.3208
3460.6288
3456.3239
3459.5586
3465.4197
3459.2415
3464.5409
3459.3144
3462.0984
3460.8388
3460.9009
3458.9895
3456.1722
3464.1025
3459.2415
3461.6744
3328.2186
3325.9745
3330.8263
3323.9022
3327.4799
3328.0099
3326.7311
3326.5997
3326.1512
3329.7674
3325.9745
3330.4733
3327.4114
3325.5169
3328.943
3328.4791
3326.1891
3328.2608
3326.2561
3324.7729
3330.8263
3327.4114
3329.0321
3326.8356
3329.885
3328.9945
3325.9592
3329.2467
3329.9746
3327.4025
3323.9022
3325.5169
3326.8356
3324.4518
3327.3976
3326.2706
3322.4429
3325.0842
3326.6728
3326.2286
3327.4799
3328.943
3329.885
3327.3976
3330.349
3329.2018
3325.0691
3326.9926
3327.617
3326.249
3328.0099
3328.4791
3328.9945
3326.2706
3329.2018
3328.0853
3323.9071
3325.6506
3325.9399
3324.3694
3326.7311
3326.1891
3325.9592
3322.4429
3325.0691
3323.9071
3319.6765
3321.3657
3321.7386
3321.6247
3326.5997
3328.2608
3329.2467
3325.0842
3326.9926
3325.6506
3321.3657
3323.3018
3324.9205
3329.4233
3326.1512
3326.2561
3329.9746
3326.6728
3327.617
3325.9399
3321.7386
3324.9205
3330.6842
3324.6166
3329.7674
3324.7729
3327.4025
3326.2286
3326.249
3324.3694
3321.6247
3329.4233
3324.6166
3327.0307
3168.7289
3166.7011
3171.1509
3164.7673
3168.0822
3168.5424
3167.2911
3167.1716
3166.7533
3170.1945
3166.7011
3170.8326
3168.0656
3166.3004
3169.4655
3168.9747
3166.7471
3168.7611
3166.8606
3165.4703
3171.1509
3168.0656
3169.564
3167.524
3170.3419
3169.4476
3166.5028
3169.6794
3170.3664
3167.9252
3164.7673
3166.3004
3167.524
3165.3145
3168.0382
3166.9206
3163.2204
3165.7886
3167.2961
3166.8463
3168.0822
3169.4655
3170.3419
3168.0382
3170.7687
3169.632
3165.6405
3167.529
3168.1315
3166.8242
3168.5424
3168.9747
3169.4476
3166.9206
3169.632
3168.5234
3164.4862
3166.2
3166.4808
3164.9898
3167.2911
3166.7471
3166.5028
3163.2204
3165.6405
3164.4862
3160.3958
3162.0538
3162.413
3162.3371
3167.1716
3168.7611
3169.6794
3165.7886
3167.529
3166.2
3162.0538
3163.9487
3165.519
3169.9487
3166.7533
3166.8606
3170.3664
3167.2961
3168.1315
3166.4808
3162.413
3165.519
3171.1443
3165.2292
3170.1945
3165.4703
3167.9252
3166.8463
3166.8242
3164.9898
3162.3371
3169.9487
3165.2292
3167.607
2985.1946
2983.401
2987.4131
2981.6211
2984.647
2985.0334
2983.8181
2983.7111
2983.326
2986.5653
2983.401
2987.1334
2984.6838
2983.0623
2985.9412
2985.4264
2983.277
2985.2181
2983.436
2982.1484
2987.4131
2984.6838
2986.0482
2984.1812
2986.7452
2985.853
2983.0198
2986.0616
2986.7019
2984.4092
2981.6211
2983.0623
2984.1812
2982.1639
2984.6439
2983.5435
2979.9976
2982.4731
2983.8875
2983.4342
2984.647
2985.9412
2986.7452
2984.6439
2987.1317