/*--------------------------------*- C++ -*----------------------------------*\
| =========                 |                                                 |
| \\      /  F ield         | OpenFOAM: The Open Source CFD Toolbox           |
|  \\    /   O peration     | Version:  v2106                                 |
|   \\  /    A nd           | Website:  www.openfoam.com                      |
|    \\/     M anipulation  |                                                 |
\*---------------------------------------------------------------------------*/
FoamFile
{
    version     2.0;
    format      ascii;
    arch        "LSB;label=32;scalar=64";
    class       volScalarField;
    location    "7.5";
    object      T;
}
// * * * * * * * * * * * * * * * * * * * * * * * * * * * * * * * * * * * * * //

dimensions      [0 0 0 1 0 0 0];

internalField   nonuniform List<scalar> 
4000
(
274.45798
274.45797
274.45796
274.45799
274.45798
274.45797
274.45796
274.45796
274.45795
274.45795
274.45797
274.45795
274.45797
274.45799
274.45797
274.45796
274.45795
274.45795
274.45795
274.45795
274.45796
274.45797
274.45797
274.45799
274.45797
274.45796
274.45795
274.45795
274.45795
274.45795
274.45799
274.45799
274.45799
274.458
274.45798
274.45797
274.45797
274.45797
274.45797
274.45797
274.45798
274.45797
274.45797
274.45798
274.45797
274.45796
274.45796
274.45797
274.45797
274.45797
274.45797
274.45796
274.45796
274.45797
274.45796
274.45795
274.45796
274.45796
274.45797
274.45797
274.45796
274.45795
274.45795
274.45797
274.45796
274.45796
274.45796
274.45797
274.45797
274.45797
274.45796
274.45795
274.45795
274.45797
274.45797
274.45796
274.45797
274.45798
274.45798
274.45798
274.45795
274.45795
274.45795
274.45797
274.45797
274.45797
274.45797
274.45798
274.45798
274.45798
274.45795
274.45795
274.45795
274.45797
274.45797
274.45797
274.45797
274.45798
274.45798
274.45798
277.3866
277.3866
277.38657
277.38665
277.38661
277.38657
277.38655
277.38654
277.38654
277.38654
277.3866
277.38657
277.38661
277.38665
277.3866
277.38656
277.38655
277.38654
277.38654
277.38655
277.38657
277.38661
277.38662
277.38664
277.3866
277.38656
277.38655
277.38654
277.38654
277.38655
277.38665
277.38665
277.38664
277.38667
277.38663
277.3866
277.38659
277.38659
277.38658
277.38658
277.38661
277.3866
277.3866
277.38663
277.38659
277.38657
277.38657
277.38658
277.38658
277.38658
277.38657
277.38656
277.38656
277.3866
277.38657
277.38655
277.38656
277.38658
277.38659
277.38659
277.38655
277.38655
277.38655
277.38659
277.38657
277.38656
277.38658
277.3866
277.3866
277.38661
277.38654
277.38654
277.38654
277.38659
277.38658
277.38658
277.3866
277.38661
277.38662
277.38662
277.38654
277.38654
277.38654
277.38658
277.38658
277.38659
277.3866
277.38662
277.38662
277.38662
277.38654
277.38655
277.38655
277.38658
277.38658
277.38659
277.38661
277.38662
277.38662
277.38662
280.35321
280.35323
280.3532
280.3533
280.35324
280.35318
280.35315
280.35314
280.35313
280.35312
280.35323
280.3532
280.35325
280.35329
280.35322
280.35317
280.35314
280.35313
280.35314
280.35316
280.3532
280.35325
280.35326
280.35329
280.35322
280.35317
280.35316
280.35314
280.35314
280.35315
280.3533
280.35329
280.35329
280.35331
280.35325
280.35321
280.35321
280.35321
280.3532
280.35319
280.35324
280.35322
280.35322
280.35325
280.35319
280.35317
280.35318
280.3532
280.3532
280.35321
280.35318
280.35317
280.35317
280.35321
280.35317
280.35315
280.35318
280.3532
280.35321
280.35323
280.35315
280.35314
280.35316
280.35321
280.35318
280.35318
280.35321
280.35323
280.35325
280.35326
280.35314
280.35313
280.35314
280.35321
280.3532
280.3532
280.35323
280.35326
280.35327
280.35327
280.35313
280.35314
280.35314
280.3532
280.3532
280.35321
280.35325
280.35327
280.35327
280.35327
280.35312
280.35316
280.35315
280.35319
280.35321
280.35323
280.35326
280.35327
280.35327
280.35327
283.38301
283.38304
283.38301
283.38312
283.38304
283.38297
283.38293
283.38292
283.38292
283.38289
283.38304
283.38301
283.38307
283.38312
283.38303
283.38296
283.38293
283.38292
283.38293
283.38295
283.38301
283.38307
283.38308
283.38311
283.38302
283.38296
283.38295
283.38293
283.38292
283.38294
283.38312
283.38312
283.38311
283.38313
283.38305
283.38301
283.38302
283.38301
283.383
283.383
283.38304
283.38303
283.38302
283.38305
283.38299
283.38296
283.38299
283.383
283.38301
283.38302
283.38297
283.38296
283.38296
283.38301
283.38296
283.38295
283.38299
283.38302
283.38304
283.38306
283.38293
283.38293
283.38295
283.38302
283.38299
283.38299
283.38304
283.38307
283.38309
283.38311
283.38292
283.38292
283.38293
283.38301
283.383
283.38302
283.38307
283.3831
283.38311
283.38311
283.38292
283.38293
283.38292
283.383
283.38301
283.38304
283.38309
283.38311
283.38311
283.38312
283.38289
283.38295
283.38294
283.383
283.38302
283.38306
283.38311
283.38311
283.38312
283.38312
286.50098
286.50101
286.50098
286.5011
286.50101
286.50092
286.50089
286.50087
286.50087
286.50083
286.50101
286.50098
286.50104
286.50109
286.50098
286.50091
286.50089
286.50087
286.50088
286.5009
286.50098
286.50104
286.50105
286.50108
286.50098
286.50092
286.50091
286.50088
286.50088
286.5009
286.5011
286.50109
286.50108
286.5011
286.50101
286.50098
286.501
286.50098
286.50097
286.50097
286.50101
286.50098
286.50098
286.50101
286.50094
286.50093
286.50097
286.50098
286.50099
286.50101
286.50092
286.50091
286.50092
286.50098
286.50093
286.50093
286.50099
286.50102
286.50104
286.50107
286.50089
286.50089
286.50091
286.501
286.50097
286.50099
286.50106
286.50109
286.50111
286.50113
286.50087
286.50087
286.50088
286.50098
286.50098
286.50102
286.50109
286.50112
286.50113
286.50113
286.50087
286.50088
286.50088
286.50097
286.50099
286.50104
286.50111
286.50113
286.50112
286.50114
286.50083
286.5009
286.5009
286.50097
286.50101
286.50107
286.50113
286.50113
286.50114
286.50114
289.73176
289.73179
289.73175
289.73189
289.73179
289.7317
289.73166
289.73165
289.73165
289.73161
289.73179
289.73175
289.73182
289.73187
289.73176
289.73169
289.73167
289.73165
289.73167
289.73169
289.73175
289.73182
289.73182
289.73186
289.73175
289.7317
289.7317
289.73167
289.73166
289.7317
289.73189
289.73187
289.73186
289.73189
289.7318
289.73177
289.7318
289.73179
289.73177
289.73178
289.73179
289.73176
289.73175
289.7318
289.73173
289.73172
289.73179
289.73181
289.73181
289.73184
289.7317
289.73169
289.7317
289.73177
289.73172
289.73174
289.73183
289.73186
289.73189
289.73192
289.73166
289.73167
289.7317
289.7318
289.73179
289.73183
289.73192
289.73196
289.73198
289.732
289.73165
289.73165
289.73167
289.73179
289.73181
289.73186
289.73196
289.73199
289.73199
289.73199
289.73165
289.73167
289.73166
289.73177
289.73181
289.73189
289.73198
289.73199
289.73197
289.732
289.73161
289.73169
289.7317
289.73178
289.73184
289.73192
289.732
289.73199
289.732
289.732
293.0996
293.09964
293.0996
293.09975
293.09965
293.09956
293.09953
293.09952
293.09952
293.09947
293.09964
293.0996
293.09967
293.09974
293.09962
293.09955
293.09954
293.09952
293.09954
293.09957
293.0996
293.09967
293.09968
293.09972
293.09961
293.09956
293.09958
293.09954
293.09954
293.09958
293.09975
293.09974
293.09972
293.09976
293.09967
293.09965
293.09971
293.09969
293.09967
293.09969
293.09965
293.09962
293.09961
293.09967
293.0996
293.09961
293.0997
293.09972
293.09973
293.09977
293.09956
293.09955
293.09956
293.09965
293.09961
293.09965
293.09976
293.09981
293.09983
293.09987
293.09953
293.09954
293.09958
293.09971
293.0997
293.09976
293.09989
293.09993
293.09995
293.09997
293.09952
293.09952
293.09954
293.09969
293.09972
293.09981
293.09993
293.09996
293.09996
293.09995
293.09952
293.09954
293.09954
293.09967
293.09973
293.09983
293.09995
293.09996
293.09993
293.09997
293.09947
293.09957
293.09958
293.09969
293.09977
293.09987
293.09997
293.09995
293.09997
293.09997
296.62829
296.62833
296.62828
296.62845
296.62835
296.62826
296.62824
296.62824
296.62824
296.62819
296.62833
296.62828
296.62836
296.62844
296.62831
296.62825
296.62825
296.62824
296.62827
296.6283
296.62828
296.62836
296.62837
296.62842
296.62831
296.62827
296.62831
296.62827
296.62827
296.62832
296.62845
296.62844
296.62842
296.62847
296.62838
296.62838
296.62846
296.62845
296.62843
296.62845
296.62835
296.62831
296.62831
296.62838
296.62832
296.62835
296.62847
296.6285
296.62851
296.62855
296.62826
296.62825
296.62827
296.62838
296.62835
296.62841
296.62855
296.62861
296.62864
296.62868
296.62824
296.62825
296.62831
296.62846
296.62847
296.62855
296.62871
296.62876
296.62878
296.6288
296.62824
296.62824
296.62827
296.62845
296.6285
296.62861
296.62876
296.6288
296.62878
296.62877
296.62824
296.62827
296.62827
296.62843
296.62851
296.62864
296.62878
296.62878
296.62875
296.62879
296.62819
296.6283
296.62832
296.62845
296.62855
296.62868
296.6288
296.62877
296.62879
296.62879
300.34096
300.34101
300.34096
300.34115
300.34104
300.34096
300.34096
300.34096
300.34096
300.3409
300.34101
300.34095
300.34104
300.34113
300.34101
300.34095
300.34097
300.34096
300.341
300.34104
300.34096
300.34104
300.34106
300.34112
300.34101
300.34099
300.34104
300.341
300.341
300.34106
300.34115
300.34113
300.34112
300.34118
300.3411
300.34111
300.34121
300.3412
300.34119
300.34121
300.34104
300.34101
300.34101
300.3411
300.34104
300.34109
300.34123
300.34127
300.34129
300.34134
300.34096
300.34095
300.34099
300.34111
300.34109
300.34118
300.34135
300.34141
300.34145
300.3415
300.34096
300.34097
300.34104
300.34121
300.34123
300.34135
300.34153
300.3416
300.34162
300.34164
300.34096
300.34096
300.341
300.3412
300.34127
300.34141
300.3416
300.34164
300.34162
300.3416
300.34096
300.341
300.341
300.34119
300.34129
300.34145
300.34162
300.34162
300.34158
300.34162
300.3409
300.34104
300.34106
300.34121
300.34134
300.3415
300.34164
300.3416
300.34162
300.34162
304.26006
304.26011
304.26006
304.26028
304.26017
304.26009
304.2601
304.26011
304.26012
304.26006
304.26011
304.26005
304.26015
304.26026
304.26013
304.26009
304.26012
304.26011
304.26016
304.26021
304.26006
304.26015
304.26017
304.26025
304.26014
304.26013
304.2602
304.26017
304.26018
304.26024
304.26028
304.26026
304.26025
304.26032
304.26024
304.26028
304.2604
304.2604
304.26038
304.26041
304.26017
304.26013
304.26014
304.26024
304.2602
304.26027
304.26044
304.26049
304.26051
304.26056
304.26009
304.26009
304.26013
304.26028
304.26027
304.26038
304.26058
304.26065
304.2607
304.26075
304.2601
304.26012
304.2602
304.2604
304.26044
304.26058
304.26079
304.26087
304.26089
304.26092
304.26011
304.26011
304.26017
304.2604
304.26049
304.26065
304.26087
304.26091
304.26089
304.26086
304.26012
304.26016
304.26018
304.26038
304.26051
304.2607
304.26089
304.26089
304.26084
304.26089
304.26006
304.26021
304.26024
304.26041
304.26056
304.26075
304.26092
304.26086
304.26089
304.26089
308.4072
308.40725
308.4072
308.40743
308.40733
308.40726
308.40728
308.4073
308.40732
308.40725
308.40725
308.40719
308.40729
308.40741
308.4073
308.40726
308.40731
308.40731
308.40736
308.40741
308.4072
308.40729
308.40732
308.40741
308.40731
308.40731
308.4074
308.40737
308.40738
308.40746
308.40743
308.40741
308.40741
308.4075
308.40743
308.40748
308.40762
308.40763
308.40762
308.40765
308.40733
308.4073
308.40731
308.40743
308.40739
308.40749
308.40768
308.40774
308.40777
308.40782
308.40726
308.40726
308.40731
308.40748
308.40749
308.40762
308.40785
308.40794
308.40798
308.40805
308.40728
308.40731
308.4074
308.40762
308.40768
308.40785
308.4081
308.40818
308.40821
308.40823
308.4073
308.40731
308.40737
308.40763
308.40774
308.40794
308.40818
308.40823
308.4082
308.40817
308.40732
308.40736
308.40738
308.40762
308.40777
308.40798
308.40821
308.4082
308.40815
308.4082
308.40725
308.40741
308.40746
308.40765
308.40782
308.40805
308.40823
308.40817
308.4082
308.4082
312.80301
312.80307
312.80302
312.80327
312.80317
312.80312
312.80315
312.80318
312.8032
312.80313
312.80307
312.80301
312.80312
312.80325
312.80314
312.80312
312.80318
312.80318
312.80325
312.80331
312.80302
312.80312
312.80315
312.80325
312.80316
312.80318
312.80328
312.80326
312.80328
312.80336
312.80327
312.80325
312.80325
312.80336
312.80329
312.80337
312.80353
312.80354
312.80354
312.80357
312.80317
312.80314
312.80316
312.80329
312.80327
312.80339
312.80361
312.80368
312.80371
312.80377
312.80312
312.80312
312.80318
312.80337
312.80339
312.80355
312.80381
312.8039
312.80395
312.80402
312.80315
312.80318
312.80328
312.80353
312.80361
312.80381
312.80408
312.80417
312.8042
312.80423
312.80318
312.80318
312.80326
312.80354
312.80368
312.8039
312.80417
312.80423
312.8042
312.80416
312.8032
312.80325
312.80328
312.80354
312.80371
312.80395
312.8042
312.8042
312.80413
312.8042
312.80313
312.80331
312.80336
312.80357
312.80377
312.80402
312.80423
312.80416
312.8042
312.80419
317.46707
317.46714
317.46709
317.46736
317.46727
317.46722
317.46727
317.46731
317.46733
317.46726
317.46714
317.46707
317.4672
317.46734
317.46724
317.46723
317.46731
317.46732
317.46739
317.46745
317.46709
317.4672
317.46724
317.46735
317.46726
317.4673
317.46742
317.46741
317.46743
317.46751
317.46736
317.46734
317.46735
317.46747
317.46741
317.4675
317.4677
317.46771
317.46771
317.46775
317.46727
317.46724
317.46726
317.46741
317.4674
317.46754
317.46779
317.46787
317.4679
317.46797
317.46722
317.46723
317.4673
317.4675
317.46754
317.46773
317.46801
317.46812
317.46818
317.46825
317.46727
317.46731
317.46742
317.4677
317.46779
317.46801
317.46832
317.46842
317.46845
317.46848
317.46731
317.46732
317.46741
317.46771
317.46787
317.46812
317.46842
317.46848
317.46845
317.4684
317.46733
317.46739
317.46743
317.46771
317.4679
317.46818
317.46845
317.46845
317.46838
317.46844
317.46726
317.46745
317.46751
317.46775
317.46797
317.46825
317.46848
317.4684
317.46844
317.46844
322.41775
322.41782
322.41778
322.41807
322.41798
322.41794
322.418
322.41805
322.41808
322.418
322.41782
322.41775
322.41788
322.41805
322.41794
322.41795
322.41805
322.41806
322.41814
322.41821
322.41778
322.41788
322.41793
322.41806
322.41798
322.41803
322.41817
322.41816
322.41819
322.41828
322.41807
322.41805
322.41806
322.41819
322.41814
322.41826
322.41847
322.41849
322.41849
322.41854
322.41798
322.41794
322.41798
322.41814
322.41814
322.41831
322.41858
322.41867
322.41871
322.41878
322.41794
322.41795
322.41803
322.41826
322.41831
322.41852
322.41883
322.41895
322.41901
322.41909
322.418
322.41805
322.41817
322.41847
322.41858
322.41883
322.41916
322.41927
322.41931
322.41933
322.41805
322.41806
322.41816
322.41849
322.41867
322.41895
322.41927
322.41934
322.41931
322.41925
322.41808
322.41814
322.41819
322.41849
322.41871
322.41901
322.41931
322.41931
322.41923
322.4193
322.418
322.41821
322.41828
322.41854
322.41878
322.41909
322.41933
322.41925
322.4193
322.41929
327.67205
327.67213
327.67209
327.67239
327.67231
327.67229
327.67236
327.67242
327.67246
327.67238
327.67213
327.67206
327.6722
327.67238
327.67228
327.6723
327.67241
327.67244
327.67253
327.67259
327.67209
327.6722
327.67225
327.67239
327.67232
327.67239
327.67255
327.67255
327.67258
327.67268
327.67239
327.67238
327.67239
327.67254
327.6725
327.67263
327.67287
327.6729
327.6729
327.67295
327.67231
327.67228
327.67232
327.6725
327.67251
327.6727
327.673
327.67309
327.67314
327.67322
327.67229
327.6723
327.67239
327.67263
327.6727
327.67293
327.67328
327.6734
327.67347
327.67355
327.67236
327.67241
327.67255
327.67287
327.673
327.67328
327.67363
327.67375
327.67379
327.67382
327.67242
327.67244
327.67255
327.6729
327.67309
327.6734
327.67375
327.67383
327.67379
327.67373
327.67246
327.67253
327.67258
327.6729
327.67314
327.67347
327.67379
327.67379
327.6737
327.67378
327.67238
327.67259
327.67268
327.67295
327.67322
327.67355
327.67382
327.67373
327.67378
327.67377
333.24552
333.2456
333.24556
333.24588
333.24581
333.2458
333.24589
333.24595
333.24599
333.24591
333.2456
333.24553
333.24568
333.24587
333.24578
333.24581
333.24594
333.24597
333.24607
333.24614
333.24556
333.24568
333.24574
333.24589
333.24583
333.24591
333.2461
333.24609
333.24613
333.24623
333.24588
333.24587
333.24589
333.24605
333.24602
333.24617
333.24643
333.24647
333.24647
333.24653
333.24581
333.24578
333.24583
333.24602
333.24605
333.24626
333.24658
333.24668
333.24673
333.24682
333.2458
333.24581
333.24591
333.24617
333.24626
333.24651
333.24688
333.24702
333.24709
333.24717
333.24589
333.24594
333.2461
333.24643
333.24658
333.24688
333.24726
333.24739
333.24743
333.24746
333.24595
333.24597
333.24609
333.24647
333.24668
333.24702
333.24739
333.24747
333.24742
333.24736
333.24599
333.24607
333.24613
333.24647
333.24673
333.24709
333.24743
333.24742
333.24733
333.24741
333.24591
333.24614
333.24623
333.24653
333.24682
333.24717
333.24746
333.24736
333.24741
333.2474
339.15207
339.15215
339.15212
339.15246
339.15239
339.15239
339.1525
339.15257
339.15262
339.15253
339.15215
339.15209
339.15224
339.15244
339.15236
339.15241
339.15256
339.15259
339.1527
339.15277
339.15212
339.15224
339.15231
339.15247
339.15242
339.15252
339.15272
339.15273
339.15276
339.15287
339.15246
339.15244
339.15247
339.15264
339.15263
339.1528
339.15308
339.15312
339.15312
339.15318
339.15239
339.15236
339.15242
339.15263
339.15267
339.1529
339.15324
339.15335
339.15341
339.15349
339.15239
339.15241
339.15252
339.1528
339.1529
339.15317
339.15357
339.15371
339.15378
339.15387
339.1525
339.15256
339.15272
339.15308
339.15324
339.15357
339.15397
339.15411
339.15415
339.15417
339.15257
339.15259
339.15273
339.15312
339.15335
339.15371
339.15411
339.15419
339.15414
339.15407
339.15262
339.1527
339.15276
339.15312
339.15341
339.15378
339.15415
339.15414
339.15404
339.15413
339.15253
339.15277
339.15287
339.15318
339.15349
339.15387
339.15417
339.15407
339.15413
339.15411
345.40388
345.40396
345.40394
345.40428
345.40423
345.40424
345.40436
345.40444
345.40449
345.40441
345.40396
345.4039
345.40406
345.40427
345.4042
345.40426
345.40442
345.40447
345.40458
345.40466
345.40394
345.40406
345.40413
345.4043
345.40426
345.40438
345.4046
345.40461
345.40465
345.40476
345.40428
345.40427
345.4043
345.40449
345.40449
345.40467
345.40497
345.40502
345.40503
345.40509
345.40423
345.4042
345.40426
345.40449
345.40454
345.40479
345.40515
345.40527
345.40533
345.40542
345.40424
345.40426
345.40438
345.40467
345.40479
345.40509
345.4055
345.40565
345.40573
345.40582
345.40436
345.40442
345.4046
345.40497
345.40515
345.4055
345.40593
345.40607
345.40611
345.40613
345.40444
345.40447
345.40461
345.40502
345.40527
345.40565
345.40607
345.40615
345.4061
345.40603
345.40449
345.40458
345.40465
345.40503
345.40533
345.40573
345.40611
345.4061
345.406
345.40608
345.40441
345.40466
345.40476
345.40509
345.40542
345.40582
345.40613
345.40603
345.40608
345.40607
352.01122
352.01131
352.01129
352.01164
352.0116
352.01162
352.01176
352.01184
352.0119
352.01182
352.01131
352.01125
352.01141
352.01163
352.01158
352.01165
352.01183
352.01188
352.01199
352.01208
352.01129
352.01141
352.01149
352.01167
352.01164
352.01178
352.01201
352.01203
352.01207
352.01219
352.01164
352.01163
352.01167
352.01187
352.01188
352.01209
352.0124
352.01245
352.01247
352.01253
352.0116
352.01158
352.01164
352.01188
352.01195
352.01221
352.0126
352.01272
352.01279
352.01288
352.01162
352.01165
352.01178
352.01209
352.01221
352.01253
352.01296
352.01312
352.0132
352.0133
352.01176
352.01183
352.01201
352.0124
352.0126
352.01296
352.01341
352.01356
352.0136
352.01362
352.01184
352.01188
352.01203
352.01245
352.01272
352.01312
352.01356
352.01365
352.01359
352.01351
352.0119
352.01199
352.01207
352.01247
352.01279
352.0132
352.0136
352.01359
352.01348
352.01357
352.01182
352.01208
352.01219
352.01253
352.01288
352.0133
352.01362
352.01351
352.01357
352.01355
358.98239
358.98247
358.98246
358.98282
358.98279
358.98282
358.98297
358.98307
358.98313
358.98304
358.98247
358.98241
358.98258
358.98281
358.98277
358.98286
358.98305
358.9831
358.98322
358.98331
358.98246
358.98258
358.98266
358.98286
358.98284
358.98299
358.98324
358.98326
358.98331
358.98343
358.98282
358.98281
358.98286
358.98306
358.98309
358.98331
358.98364
358.9837
358.98372
358.98378
358.98279
358.98277
358.98284
358.98309
358.98317
358.98345
358.98386
358.98399
358.98405
358.98415
358.98282
358.98286
358.98299
358.98331
358.98345
358.98379
358.98424
358.9844
358.98449
358.98458
358.98297
358.98305
358.98324
358.98364
358.98386
358.98424
358.9847
358.98486
358.9849
358.98492
358.98307
358.9831
358.98326
358.9837
358.98399
358.9844
358.98486
358.98495
358.98489
358.9848
358.98313
358.98322
358.98331
358.98372
358.98405
358.98449
358.9849
358.98489
358.98478
358.98487
358.98304
358.98331
358.98343
358.98378
358.98415
358.98458
358.98492
358.9848
358.98487
358.98485
366.32351
366.3236
366.32359
366.32396
366.32394
366.32399
366.32415
366.32425
366.32432
366.32423
366.3236
366.32354
366.32372
366.32395
366.32392
366.32402
366.32423
366.32429
366.32441
366.3245
366.32359
366.32372
366.3238
366.32401
366.324
366.32417
366.32443
366.32445
366.32451
366.32463
366.32396
366.32395
366.32401
366.32422
366.32426
366.3245
366.32484
366.3249
366.32492
366.32499
366.32394
366.32392
366.324
366.32426
366.32435
366.32465
366.32507
366.3252
366.32527
366.32537
366.32399
366.32402
366.32417
366.3245
366.32465
366.32501
366.32547
366.32564
366.32573
366.32582
366.32415
366.32423
366.32443
366.32484
366.32507
366.32547
366.32595
366.32611
366.32615
366.32617
366.32425
366.32429
366.32445
366.3249
366.3252
366.32564
366.32611
366.3262
366.32614
366.32605
366.32432
366.32441
366.32451
366.32492
366.32527
366.32573
366.32615
366.32614
366.32602
366.32611
366.32423
366.3245
366.32463
366.32499
366.32537
366.32582
366.32617
366.32605
366.32611
366.32609
374.03852
374.0386
374.0386
374.03897
374.03896
374.03903
374.0392
374.03931
374.03938
374.03929
374.0386
374.03855
374.03873
374.03897
374.03895
374.03906
374.03928
374.03935
374.03948
374.03957
374.0386
374.03873
374.03882
374.03903
374.03903
374.03922
374.03949
374.03952
374.03958
374.0397
374.03897
374.03897
374.03903
374.03925
374.0393
374.03955
374.03991
374.03998
374.04
374.04007
374.03896
374.03895
374.03903
374.0393
374.03941
374.03972
374.04015
374.04029
374.04036
374.04046
374.03903
374.03906
374.03922
374.03955
374.03972
374.04009
374.04057
374.04074
374.04083
374.04092
374.0392
374.03928
374.03949
374.03991
374.04015
374.04057
374.04106
374.04122
374.04126
374.04128
374.03931
374.03935
374.03952
374.03998
374.04029
374.04074
374.04122
374.04131
374.04125
374.04115
374.03938
374.03948
374.03958
374.04
374.04036
374.04083
374.04126
374.04125
374.04113
374.04122
374.03929
374.03957
374.0397
374.04007
374.04046
374.04092
374.04128
374.04115
374.04122
374.0412
382.12897
382.12906
382.12906
382.12944
382.12944
382.12951
382.1297
382.12981
382.12989
382.1298
382.12906
382.12901
382.12919
382.12943
382.12943
382.12956
382.12978
382.12986
382.12999
382.13008
382.12906
382.12919
382.12928
382.1295
382.12952
382.12971
382.13
382.13003
382.13009
382.13022
382.12944
382.12943
382.1295
382.12972
382.12979
382.13005
382.13042
382.1305
382.13052
382.13059
382.12944
382.12943
382.12952
382.12979
382.12991
382.13024
382.13068
382.13082
382.13089
382.13099
382.12951
382.12956
382.12971
382.13005
382.13024
382.13062
382.1311
382.13128
382.13137
382.13147
382.1297
382.12978
382.13
382.13042
382.13068
382.1311
382.1316
382.13177
382.13181
382.13182
382.12981
382.12986
382.13003
382.1305
382.13082
382.13128
382.13177
382.13186
382.1318
382.1317
382.12989
382.12999
382.13009
382.13052
382.13089
382.13137
382.13181
382.1318
382.13167
382.13177
382.1298
382.13008
382.13022
382.13059
382.13099
382.13147
382.13182
382.1317
382.13177
382.13174
390.59404
390.59413
390.59414
390.59451
390.59452
390.59461
390.59481
390.59493
390.59501
390.59493
390.59413
390.59408
390.59426
390.59451
390.59452
390.59466
390.5949
390.59498
390.59511
390.5952
390.59414
390.59426
390.59436
390.59458
390.59461
390.59482
390.59512
390.59516
390.59522
390.59535
390.59451
390.59451
390.59458
390.59481
390.59489
390.59517
390.59554
390.59562
390.59565
390.59572
390.59452
390.59452
390.59461
390.59489
390.59502
390.59536
390.59581
390.59596
390.59603
390.59613
390.59461
390.59466
390.59482
390.59517
390.59536
390.59575
390.59625
390.59642
390.59651
390.59661
390.59481
390.5949
390.59512
390.59554
390.59581
390.59625
390.59675
390.59691
390.59695
390.59697
390.59493
390.59498
390.59516
390.59562
390.59596
390.59642
390.59691
390.59701
390.59694
390.59684
390.59501
390.59511
390.59522
390.59565
390.59603
390.59651
390.59695
390.59694
390.59682
390.59691
390.59493
390.5952
390.59535
390.59572
390.59613
390.59661
390.59697
390.59684
390.59691
390.59688
399.43041
399.4305
399.43051
399.43088
399.43091
399.43101
399.43121
399.43134
399.43142
399.43134
399.4305
399.43046
399.43064
399.43089
399.4309
399.43106
399.43131
399.43139
399.43152
399.43161
399.43051
399.43064
399.43073
399.43096
399.43101
399.43122
399.43153
399.43157
399.43164
399.43177
399.43088
399.43089
399.43096
399.43119
399.43128
399.43157
399.43195
399.43204
399.43207
399.43214
399.43091
399.4309
399.43101
399.43128
399.43143
399.43178
399.43223
399.43238
399.43245
399.43255
399.43101
399.43106
399.43122
399.43157
399.43178
399.43218
399.43267
399.43285
399.43294
399.43304
399.43121
399.43131
399.43153
399.43195
399.43223
399.43267
399.43318
399.43334
399.43338
399.4334
399.43134
399.43139
399.43157
399.43204
399.43238
399.43285
399.43334
399.43344
399.43337
399.43327
399.43142
399.43152
399.43164
399.43207
399.43245
399.43294
399.43338
399.43337
399.43325
399.43334
399.43134
399.43161
399.43177
399.43214
399.43255
399.43304
399.4334
399.43327
399.43334
399.43331
408.63224
408.63233
408.63235
408.63271
408.63275
408.63286
408.63307
408.6332
408.63328
408.63321
408.63233
408.63229
408.63246
408.63272
408.63275
408.63291
408.63317
408.63326
408.63339
408.63348
408.63235
408.63246
408.63257
408.63279
408.63285
408.63308
408.63339
408.63344
408.63351
408.63363
408.63271
408.63272
408.63279
408.63303
408.63313
408.63343
408.63381
408.6339
408.63393
408.63401
408.63275
408.63275
408.63285
408.63313
408.63329
408.63364
408.6341
408.63425
408.63432
408.63442
408.63286
408.63291
408.63308
408.63343
408.63364
408.63405
408.63454
408.63472
408.63481
408.6349
408.63307
408.63317
408.63339
408.63381
408.6341
408.63454
408.63505
408.63521
408.63525
408.63526
408.6332
408.63326
408.63344
408.6339
408.63425
408.63472
408.63521
408.63531
408.63524
408.63514
408.63328
408.63339
408.63351
408.63393
408.63432
408.63481
408.63525
408.63524
408.63511
408.6352
408.63321
408.63348
408.63363
408.63401
408.63442
408.6349
408.63526
408.63514
408.6352
408.63518
418.19114
418.19122
418.19125
418.1916
418.19165
418.19178
418.192
418.19213
418.19221
418.19214
418.19122
418.19119
418.19136
418.19161
418.19166
418.19183
418.19209
418.19218
418.19232
418.19241
418.19125
418.19136
418.19146
418.19169
418.19176
418.192
418.19231
418.19237
418.19244
418.19256
418.1916
418.19161
418.19169
418.19192
418.19204
418.19234
418.19273
418.19282
418.19286
418.19293
418.19165
418.19166
418.19176
418.19204
418.19221
418.19257
418.19302
418.19317
418.19325
418.19334
418.19178
418.19183
418.192
418.19234
418.19257
418.19297
418.19347
418.19365
418.19373
418.19382
418.192
418.19209
418.19231
418.19273
418.19302
418.19347
418.19397
418.19413
418.19417
418.19418
418.19213
418.19218
418.19237
418.19282
418.19317
418.19365
418.19413
418.19422
418.19416
418.19405
418.19221
418.19232
418.19244
418.19286
418.19325
418.19373
418.19417
418.19416
418.19403
418.19412
418.19214
418.19241
418.19256
418.19293
418.19334
418.19382
418.19418
418.19405
418.19412
418.19409
428.09617
428.09625
428.09628
428.09662
428.09668
428.09682
428.09704
428.09718
428.09726
428.0972
428.09625
428.09622
428.09639
428.09663
428.09669
428.09688
428.09714
428.09724
428.09737
428.09745
428.09628
428.09639
428.09649
428.09671
428.0968
428.09704
428.09736
428.09742
428.09749
428.09761
428.09662
428.09663
428.09671
428.09695
428.09707
428.09738
428.09777
428.09786
428.0979
428.09797
428.09668
428.09669
428.0968
428.09707
428.09725
428.09761
428.09806
428.09821
428.09829
428.09838
428.09682
428.09688
428.09704
428.09738
428.09761
428.09802
428.0985
428.09868
428.09877
428.09885
428.09704
428.09714
428.09736
428.09777
428.09806
428.0985
428.099
428.09916
428.0992
428.0992
428.09718
428.09724
428.09742
428.09786
428.09821
428.09868
428.09916
428.09925
428.09918
428.09908
428.09726
428.09737
428.09749
428.0979
428.09829
428.09877
428.0992
428.09918
428.09906
428.09914
428.0972
428.09745
428.09761
428.09797
428.09838
428.09885
428.0992
428.09908
428.09914
428.09911
438.33387
438.33395
438.33398
438.33431
438.33438
438.33453
438.33475
438.33489
438.33498
438.33492
438.33395
438.33392
438.33408
438.33432
438.33439
438.33458
438.33485
438.33495
438.33508
438.33516
438.33398
438.33408
438.33418
438.3344
438.3345
438.33475
438.33506
438.33513
438.3352
438.33532
438.33431
438.33432
438.3344
438.33463
438.33477
438.33508
438.33546
438.33555
438.33559
438.33567
438.33438
438.33439
438.3345
438.33477
438.33495
438.33531
438.33575
438.3359
438.33598
438.33607
438.33453
438.33458
438.33475
438.33508
438.33531
438.33572
438.33619
438.33636
438.33645
438.33653
438.33475
438.33485
438.33506
438.33546
438.33575
438.33619
438.33668
438.33683
438.33687
438.33687
438.33489
438.33495
438.33513
438.33555
438.3359
438.33636
438.33683
438.33692
438.33685
438.33675
438.33498
438.33508
438.3352
438.33559
438.33598
438.33645
438.33687
438.33685
438.33673
438.33681
438.33492
438.33516
438.33532
438.33567
438.33607
438.33653
438.33687
438.33675
438.33681
438.33678
448.8883
448.88837
448.88841
448.88872
448.8888
448.88895
448.88918
448.88932
448.8894
448.88935
448.88837
448.88835
448.8885
448.88873
448.88881
448.88901
448.88927
448.88937
448.8895
448.88958
448.88841
448.8885
448.8886
448.88881
448.88892
448.88917
448.88948
448.88955
448.88962
448.88974
448.88872
448.88873
448.88881
448.88904
448.88918
448.88949
448.88986
448.88996
448.89
448.89007
448.8888
448.88881
448.88892
448.88918
448.88937
448.88973