/*--------------------------------*- C++ -*----------------------------------*\
| =========                 |                                                 |
| \\      /  F ield         | OpenFOAM: The Open Source CFD Toolbox           |
|  \\    /   O peration     | Version:  v2106                                 |
|   \\  /    A nd           | Website:  www.openfoam.com                      |
|    \\/     M anipulation  |                                                 |
\*---------------------------------------------------------------------------*/
FoamFile
{
    version     2.0;
    format      ascii;
    arch        "LSB;label=32;scalar=64";
    class       volScalarField;
    location    "7.5";
    object      gradTz;
}
// * * * * * * * * * * * * * * * * * * * * * * * * * * * * * * * * * * * * * //

dimensions      [0 -1 0 1 0 0 0];

internalField   nonuniform List<scalar> 
4000
(
1208.4884
1208.489
1208.4918
1208.4861
1208.4852
1208.4858
1208.4868
1208.4879
1208.4888
1208.4894
1208.489
1208.4927
1208.4907
1208.4861
1208.4855
1208.4862
1208.4873
1208.4886
1208.4894
1208.4894
1208.4918
1208.4907
1208.4894
1208.4852
1208.4849
1208.4856
1208.4869
1208.4885
1208.4897
1208.4895
1208.4861
1208.4861
1208.4852
1208.4812
1208.4809
1208.4816
1208.4829
1208.4847
1208.4866
1208.4873
1208.4852
1208.4855
1208.4849
1208.4809
1208.4806
1208.4813
1208.4824
1208.4842
1208.4861
1208.4868
1208.4858
1208.4862
1208.4856
1208.4816
1208.4813
1208.4819
1208.483
1208.4847
1208.4865
1208.4871
1208.4868
1208.4873
1208.4869
1208.4829
1208.4824
1208.483
1208.4841
1208.4858
1208.4875
1208.4881
1208.4879
1208.4886
1208.4885
1208.4847
1208.4842
1208.4847
1208.4858
1208.4874
1208.4892
1208.4898
1208.4888
1208.4894
1208.4897
1208.4866
1208.4861
1208.4865
1208.4875
1208.4892
1208.4909
1208.4914
1208.4894
1208.4894
1208.4895
1208.4873
1208.4868
1208.4871
1208.4881
1208.4898
1208.4914
1208.4918
1767.5224
1767.5218
1767.5219
1767.5165
1767.5154
1767.5162
1767.5177
1767.5194
1767.5208
1767.522
1767.5218
1767.5226
1767.52
1767.5153
1767.5147
1767.5156
1767.5172
1767.5192
1767.5201
1767.5203
1767.5219
1767.52
1767.5178
1767.5135
1767.513
1767.514
1767.5158
1767.5184
1767.52
1767.52
1767.5165
1767.5153
1767.5135
1767.5094
1767.5089
1767.5099
1767.5117
1767.5146
1767.517
1767.5179
1767.5154
1767.5147
1767.513
1767.5089
1767.5084
1767.5093
1767.511
1767.5139
1767.5163
1767.5172
1767.5162
1767.5156
1767.514
1767.5099
1767.5093
1767.5101
1767.5117
1767.5145
1767.5168
1767.5177
1767.5177
1767.5172
1767.5158
1767.5117
1767.511
1767.5117
1767.5133
1767.516
1767.5183
1767.5192
1767.5194
1767.5192
1767.5184
1767.5146
1767.5139
1767.5145
1767.516
1767.5187
1767.521
1767.5219
1767.5208
1767.5201
1767.52
1767.517
1767.5163
1767.5168
1767.5183
1767.521
1767.5232
1767.5238
1767.522
1767.5203
1767.52
1767.5179
1767.5172
1767.5177
1767.5192
1767.5219
1767.5238
1767.5241
1728.271
1728.2689
1728.2675
1728.2639
1728.2633
1728.2642
1728.2657
1728.2675
1728.2687
1728.2702
1728.2689
1728.2682
1728.2657
1728.2625
1728.2622
1728.2631
1728.2648
1728.2671
1728.2679
1728.2682
1728.2675
1728.2657
1728.2634
1728.2605
1728.2603
1728.2612
1728.263
1728.266
1728.2675
1728.2677
1728.2639
1728.2625
1728.2605
1728.2578
1728.2575
1728.2583
1728.2602
1728.2634
1728.2655
1728.2662
1728.2633
1728.2622
1728.2603
1728.2575
1728.2572
1728.258
1728.2597
1728.2628
1728.2649
1728.2657
1728.2642
1728.2631
1728.2612
1728.2583
1728.258
1728.2586
1728.2603
1728.2633
1728.2654
1728.2662
1728.2657
1728.2648
1728.263
1728.2602
1728.2597
1728.2603
1728.2619
1728.2649
1728.267
1728.2678
1728.2675
1728.2671
1728.266
1728.2634
1728.2628
1728.2633
1728.2649
1728.268
1728.27
1728.2708
1728.2687
1728.2679
1728.2675
1728.2655
1728.2649
1728.2654
1728.267
1728.27
1728.2718
1728.2719
1728.2702
1728.2682
1728.2677
1728.2662
1728.2657
1728.2662
1728.2678
1728.2708
1728.2719
1728.2724
1682.3605
1682.3588
1682.3578
1682.355
1682.3548
1682.3557
1682.3572
1682.3593
1682.3606
1682.3619
1682.3588
1682.358
1682.3561
1682.3538
1682.3537
1682.3546
1682.3563
1682.359
1682.36
1682.3604
1682.3578
1682.3561
1682.3545
1682.3524
1682.3523
1682.3532
1682.355
1682.3582
1682.3597
1682.3599
1682.355
1682.3538
1682.3524
1682.3503
1682.3502
1682.351
1682.3528
1682.3562
1682.3582
1682.3588
1682.3548
1682.3537
1682.3523
1682.3502
1682.3501
1682.3507
1682.3524
1682.3557
1682.3577
1682.3584
1682.3557
1682.3546
1682.3532
1682.351
1682.3507
1682.3513
1682.3529
1682.3561
1682.3581
1682.3588
1682.3572
1682.3563
1682.355
1682.3528
1682.3524
1682.3529
1682.3544
1682.3577
1682.3597
1682.3605
1682.3593
1682.359
1682.3582
1682.3562
1682.3557
1682.3561
1682.3577
1682.361
1682.3631
1682.3638
1682.3606
1682.36
1682.3597
1682.3582
1682.3577
1682.3581
1682.3597
1682.3631
1682.3648
1682.3644
1682.3619
1682.3604
1682.3599
1682.3588
1682.3584
1682.3588
1682.3605
1682.3638
1682.3644
1682.3649
1630.6272
1630.6261
1630.6255
1630.6233
1630.6233
1630.6241
1630.6256
1630.6278
1630.6292
1630.6305
1630.6261
1630.6256
1630.6242
1630.6224
1630.6225
1630.6233
1630.6249
1630.6276
1630.6287
1630.6293
1630.6255
1630.6242
1630.6231
1630.6215
1630.6216
1630.6223
1630.6239
1630.6271
1630.6287
1630.629
1630.6233
1630.6224
1630.6215
1630.6199
1630.6199
1630.6206
1630.6221
1630.6254
1630.6274
1630.6281
1630.6233
1630.6225
1630.6216
1630.6199
1630.6199
1630.6204
1630.6218
1630.625
1630.627
1630.6277
1630.6241
1630.6233
1630.6223
1630.6206
1630.6204
1630.6208
1630.6221
1630.6252
1630.6273
1630.628
1630.6256
1630.6249
1630.6239
1630.6221
1630.6218
1630.6221
1630.6234
1630.6266
1630.6287
1630.6296
1630.6278
1630.6276
1630.6271
1630.6254
1630.625
1630.6252
1630.6266
1630.6299
1630.6321
1630.633
1630.6292
1630.6287
1630.6287
1630.6274
1630.627
1630.6273
1630.6287
1630.6321
1630.6339
1630.6333
1630.6305
1630.6293
1630.629
1630.6281
1630.6277
1630.628
1630.6296
1630.633
1630.6333
1630.6339
1573.9054
1573.9045
1573.9041
1573.9025
1573.9026
1573.9034
1573.9046
1573.9065
1573.9079
1573.9091
1573.9045
1573.9041
1573.9032
1573.9019
1573.9021
1573.9027
1573.9041
1573.9064
1573.9075
1573.9081
1573.9041
1573.9032
1573.9024
1573.9013
1573.9014
1573.902
1573.9033
1573.9061
1573.9075
1573.9079
1573.9025
1573.9019
1573.9013
1573.9001
1573.9001
1573.9006
1573.9018
1573.9047
1573.9065
1573.9071
1573.9026
1573.9021
1573.9014
1573.9001
1573.9001
1573.9005
1573.9015
1573.9043
1573.9061
1573.9068
1573.9034
1573.9027
1573.902
1573.9006
1573.9005
1573.9007
1573.9017
1573.9044
1573.9062
1573.9069
1573.9046
1573.9041
1573.9033
1573.9018
1573.9015
1573.9017
1573.9026
1573.9054
1573.9073
1573.9083
1573.9065
1573.9064
1573.9061
1573.9047
1573.9043
1573.9044
1573.9054
1573.9083
1573.9104
1573.9114
1573.9079
1573.9075
1573.9075
1573.9065
1573.9061
1573.9062
1573.9073
1573.9104
1573.9122
1573.9117
1573.9091
1573.9081
1573.9079
1573.9071
1573.9068
1573.9069
1573.9083
1573.9114
1573.9117
1573.9123
1513.0142
1513.0135
1513.0133
1513.0121
1513.0123
1513.0129
1513.0139
1513.0155
1513.0167
1513.0177
1513.0135
1513.0133
1513.0126
1513.0117
1513.0119
1513.0125
1513.0135
1513.0154
1513.0163
1513.0168
1513.0133
1513.0126
1513.0122
1513.0113
1513.0115
1513.012
1513.0129
1513.0152
1513.0164
1513.0167
1513.0121
1513.0117
1513.0113
1513.0105
1513.0106
1513.0109
1513.0117
1513.014
1513.0155
1513.016
1513.0123
1513.0119
1513.0115
1513.0106
1513.0106
1513.0108
1513.0114
1513.0137
1513.0151
1513.0157
1513.0129
1513.0125
1513.012
1513.0109
1513.0108
1513.0108
1513.0114
1513.0136
1513.015
1513.0157
1513.0139
1513.0135
1513.0129
1513.0117
1513.0114
1513.0114
1513.012
1513.0142
1513.0158
1513.0166
1513.0155
1513.0154
1513.0152
1513.014
1513.0137
1513.0136
1513.0142
1513.0167
1513.0184
1513.0194
1513.0167
1513.0163
1513.0164
1513.0155
1513.0151
1513.015
1513.0158
1513.0184
1513.02
1513.0196
1513.0177
1513.0168
1513.0167
1513.016
1513.0157
1513.0157
1513.0166
1513.0194
1513.0196
1513.0202
1448.7493
1448.7488
1448.7487
1448.7479
1448.7482
1448.7486
1448.7493
1448.7505
1448.7514
1448.7523
1448.7488
1448.7486
1448.7483
1448.7477
1448.748
1448.7483
1448.749
1448.7505
1448.7511
1448.7515
1448.7487
1448.7483
1448.7481
1448.7476
1448.7478
1448.748
1448.7486
1448.7504
1448.7512
1448.7514
1448.7479
1448.7477
1448.7476
1448.747
1448.7472
1448.7472
1448.7477
1448.7494
1448.7505
1448.7509
1448.7482
1448.748
1448.7478
1448.7472
1448.7472
1448.7471
1448.7474
1448.7491
1448.7501
1448.7505
1448.7486
1448.7483
1448.748
1448.7472
1448.7471
1448.747
1448.7472
1448.7488
1448.7498
1448.7503
1448.7493
1448.749
1448.7486
1448.7477
1448.7474
1448.7472
1448.7474
1448.749
1448.7502
1448.7509
1448.7505
1448.7505
1448.7504
1448.7494
1448.7491
1448.7488
1448.749
1448.7509
1448.7523
1448.7532
1448.7514
1448.7511
1448.7512
1448.7505
1448.7501
1448.7498
1448.7502
1448.7523
1448.7536
1448.7532
1448.7523
1448.7515
1448.7514
1448.7509
1448.7505
1448.7503
1448.7509
1448.7532
1448.7532
1448.7537
1381.8737
1381.8734
1381.8735
1381.873
1381.8733
1381.8736
1381.874
1381.8747
1381.8753
1381.876
1381.8734
1381.8733
1381.8732
1381.873
1381.8732
1381.8734
1381.8737
1381.8748
1381.8751
1381.8754
1381.8735
1381.8732
1381.8733
1381.873
1381.8732
1381.8733
1381.8735
1381.8747
1381.8752
1381.8753
1381.873
1381.873
1381.873
1381.8728
1381.8729
1381.8728
1381.8728
1381.874
1381.8747
1381.8748
1381.8733
1381.8732
1381.8732
1381.8729
1381.8728
1381.8726
1381.8725
1381.8736
1381.8742
1381.8744
1381.8736
1381.8734
1381.8733
1381.8728
1381.8726
1381.8723
1381.8721
1381.8732
1381.8738
1381.874
1381.874
1381.8737
1381.8735
1381.8728
1381.8725
1381.8721
1381.8719
1381.8731
1381.8738
1381.8743
1381.8747
1381.8748
1381.8747
1381.874
1381.8736
1381.8732
1381.8731
1381.8744
1381.8754
1381.876
1381.8753
1381.8751
1381.8752
1381.8747
1381.8742
1381.8738
1381.8738
1381.8754
1381.8763
1381.8759
1381.876
1381.8754
1381.8753
1381.8748
1381.8744
1381.874
1381.8743
1381.876
1381.8759
1381.8763
1313.1111
1313.1109
1313.1111
1313.111
1313.1112
1313.1114
1313.1115
1313.1119
1313.1121
1313.1126
1313.1109
1313.111
1313.1111
1313.1111
1313.1114
1313.1114
1313.1114
1313.1119
1313.112
1313.1121
1313.1111
1313.1111
1313.1113
1313.1114
1313.1115
1313.1114
1313.1113
1313.112
1313.1121
1313.112
1313.111
1313.1111
1313.1114
1313.1113
1313.1114
1313.1111
1313.1108
1313.1115
1313.1117
1313.1117
1313.1112
1313.1114
1313.1115
1313.1114
1313.1113
1313.1109
1313.1105
1313.111
1313.1112
1313.1112
1313.1114
1313.1114
1313.1114
1313.1111
1313.1109
1313.1104
1313.1099
1313.1104
1313.1106
1313.1106
1313.1115
1313.1114
1313.1113
1313.1108
1313.1105
1313.1099
1313.1094
1313.11
1313.1103
1313.1105
1313.1119
1313.1119
1313.112
1313.1115
1313.111
1313.1104
1313.11
1313.1107
1313.1113
1313.1118
1313.1121
1313.112
1313.1121
1313.1117
1313.1112
1313.1106
1313.1103
1313.1113
1313.1119
1313.1115
1313.1126
1313.1121
1313.112
1313.1117
1313.1112
1313.1106
1313.1105
1313.1118
1313.1115
1313.1117
1243.1407
1243.1407
1243.141
1243.1411
1243.1413
1243.1413
1243.1411
1243.1411
1243.1411
1243.1413
1243.1407
1243.1408
1243.1411
1243.1414
1243.1416
1243.1414
1243.1411
1243.1413
1243.1411
1243.141
1243.141
1243.1411
1243.1415
1243.1417
1243.1419
1243.1416
1243.1411
1243.1413
1243.1412
1243.141
1243.1411
1243.1414
1243.1417
1243.1419
1243.1419
1243.1415
1243.1409
1243.141
1243.1409
1243.1407
1243.1413
1243.1416
1243.1419
1243.1419
1243.1418
1243.1412
1243.1405
1243.1406
1243.1404
1243.1401
1243.1413
1243.1414
1243.1416
1243.1415
1243.1412
1243.1406
1243.1398
1243.1398
1243.1396
1243.1394
1243.1411
1243.1411
1243.1411
1243.1409
1243.1405
1243.1398
1243.139
1243.1391
1243.139
1243.139
1243.1411
1243.1413
1243.1413
1243.141
1243.1406
1243.1398
1243.1391
1243.1393
1243.1395
1243.1398
1243.1411
1243.1411
1243.1412
1243.1409
1243.1404
1243.1396
1243.139
1243.1395
1243.1398
1243.1393
1243.1413
1243.141
1243.141
1243.1407
1243.1401
1243.1394
1243.139
1243.1398
1243.1393
1243.1394
1172.5938
1172.594
1172.5943
1172.5946
1172.5948
1172.5946
1172.5942
1172.5939
1172.5936
1172.5936
1172.594
1172.5941
1172.5946
1172.595
1172.5952
1172.5948
1172.5943
1172.5941
1172.5936
1172.5934
1172.5943
1172.5946
1172.5951
1172.5955
1172.5956
1172.5951
1172.5944
1172.5942
1172.5937
1172.5934
1172.5946
1172.595
1172.5955
1172.5958
1172.5958
1172.5952
1172.5943
1172.594
1172.5935
1172.5931
1172.5948
1172.5952
1172.5956
1172.5958
1172.5956
1172.5949
1172.5939
1172.5935
1172.593
1172.5926
1172.5946
1172.5948
1172.5951
1172.5952
1172.5949
1172.5941
1172.5931
1172.5926
1172.5921
1172.5918
1172.5942
1172.5943
1172.5944
1172.5943
1172.5939
1172.5931
1172.5921
1172.5917
1172.5913
1172.5911
1172.5939
1172.5941
1172.5942
1172.594
1172.5935
1172.5926
1172.5917
1172.5915
1172.5913
1172.5914
1172.5936
1172.5936
1172.5937
1172.5935
1172.593
1172.5921
1172.5913
1172.5913
1172.5912
1172.5907
1172.5936
1172.5934
1172.5934
1172.5931
1172.5926
1172.5918
1172.5911
1172.5914
1172.5907
1172.5907
1102.0514
1102.0517
1102.052
1102.0526
1102.0527
1102.0524
1102.0517
1102.0512
1102.0506
1102.0504
1102.0517
1102.0519
1102.0525
1102.053
1102.0531
1102.0527
1102.0519
1102.0513
1102.0507
1102.0504
1102.052
1102.0525
1102.0531
1102.0536
1102.0536
1102.053
1102.0521
1102.0515
1102.0508
1102.0503
1102.0526
1102.053
1102.0536
1102.054
1102.0539
1102.0532
1102.0522
1102.0515
1102.0507
1102.0502
1102.0527
1102.0531
1102.0536
1102.0539
1102.0537
1102.0529
1102.0518
1102.051
1102.0502
1102.0496
1102.0524
1102.0527
1102.053
1102.0532
1102.0529
1102.052
1102.0508
1102.05
1102.0492
1102.0487
1102.0517
1102.0519
1102.0521
1102.0522
1102.0518
1102.0508
1102.0496
1102.0489
1102.0482
1102.0478
1102.0512
1102.0513
1102.0515
1102.0515
1102.051
1102.05
1102.0489
1102.0482
1102.0478
1102.0476
1102.0506
1102.0507
1102.0508
1102.0507
1102.0502
1102.0492
1102.0482
1102.0478
1102.0474
1102.0468
1102.0504
1102.0504
1102.0503
1102.0502
1102.0496
1102.0487
1102.0478
1102.0476
1102.0468
1102.0467
1032.0429
1032.0433
1032.0437
1032.0444
1032.0445
1032.044
1032.0432
1032.0424
1032.0417
1032.0413
1032.0433
1032.0436
1032.0442
1032.0449
1032.0449
1032.0443
1032.0434
1032.0426
1032.0418
1032.0413
1032.0437
1032.0442
1032.0449
1032.0455
1032.0454
1032.0447
1032.0436
1032.0427
1032.0418
1032.0413
1032.0444
1032.0449
1032.0455
1032.046
1032.0459
1032.0451
1032.0438
1032.0428
1032.0418
1032.0412
1032.0445
1032.0449
1032.0454
1032.0459
1032.0456
1032.0447
1032.0434
1032.0423
1032.0413
1032.0406
1032.044
1032.0443
1032.0447
1032.0451
1032.0447
1032.0438
1032.0425
1032.0413
1032.0403
1032.0397
1032.0432
1032.0434
1032.0436
1032.0438
1032.0434
1032.0425
1032.0411
1032.04
1032.0391
1032.0386
1032.0424
1032.0426
1032.0427
1032.0428
1032.0423
1032.0413
1032.04
1032.0391
1032.0384
1032.0381
1032.0417
1032.0418
1032.0418
1032.0418
1032.0413
1032.0403
1032.0391
1032.0384
1032.0378
1032.0372
1032.0413
1032.0413
1032.0413
1032.0412
1032.0406
1032.0397
1032.0386
1032.0381
1032.0372
1032.037
963.04567
963.04612
963.04647
963.04728
963.04732
963.04675
963.0458
963.04481
963.04397
963.04346
963.04612
963.04639
963.0471
963.04784
963.04781
963.04714
963.04607
963.04502
963.0441
963.04358
963.04647
963.0471
963.04778
963.04844
963.04833
963.04756
963.04636
963.04519
963.04416
963.04357
963.04728
963.04784
963.04844
963.04904
963.04885
963.04799
963.04668
963.04539
963.04423
963.04351
963.04732
963.04781
963.04833
963.04885
963.04859
963.04766
963.04628
963.04493
963.04371
963.04296
963.04675
963.04714
963.04756
963.04799
963.04766
963.04668
963.04526
963.0439
963.0427
963.04197
963.0458
963.04607
963.04636
963.04668
963.04628
963.04526
963.04385
963.04253
963.04142
963.04081
963.04481
963.04502
963.04519
963.04539
963.04493
963.0439
963.04253
963.04133
963.04038
963.03997
963.04397
963.0441
963.04416
963.04423
963.04371
963.0427
963.04142
963.04038
963.03959
963.03901
963.04346
963.04358
963.04357
963.04351
963.04296
963.04197
963.04081
963.03997
963.03901
963.0387
895.48494
895.48544
895.48576
895.48667
895.48666
895.48601
895.48497
895.48385
895.4829
895.48229
895.48544
895.4857
895.48644
895.48724
895.48715
895.48642
895.48527
895.48405
895.48306
895.48249
895.48576
895.48644
895.48712
895.48784
895.48768
895.48686
895.48559
895.48422
895.48309
895.48248
895.48667
895.48724
895.48784
895.48848
895.48826
895.48737
895.48601
895.48453
895.48324
895.48247
895.48666
895.48715
895.48768
895.48826
895.48798
895.48703
895.48562
895.48409
895.48276
895.48196
895.48601
895.48642
895.48686
895.48737
895.48703
895.48606
895.48462
895.48309
895.48177
895.48099
895.48497
895.48527
895.48559
895.48601
895.48562
895.48462
895.48318
895.48169
895.48044
895.47976
895.48385
895.48405
895.48422
895.48453
895.48409
895.48309
895.48169
895.48029
895.47919
895.47868
895.4829
895.48306
895.48309
895.48324
895.48276
895.48177
895.48044
895.47919
895.47824
895.47769
895.48229
895.48249
895.48248
895.48247
895.48196
895.48099
895.47976
895.47868
895.47769
895.47731
829.73486
829.73539
829.73567
829.73664
829.73659
829.73589
829.7348
829.73359
829.73258
829.73189
829.73539
829.73563
829.73638
829.73721
829.73707
829.7363
829.73511
829.73378
829.73276
829.73216
829.73567
829.73638
829.73704
829.73778
829.73758
829.73674
829.73544
829.73395
829.73276
829.73215
829.73664
829.73721
829.73778
829.73846
829.73821
829.73732
829.73595
829.73434
829.73298
829.7322
829.73659
829.73707
829.73758
829.73821
829.73791
829.73699
829.73559
829.73395
829.73255
829.73174
829.73589
829.7363
829.73674
829.73732
829.73699
829.73604
829.73463
829.73299
829.73161
829.73081
829.7348
829.73511
829.73544
829.73595
829.73559
829.73463
829.73322
829.73161
829.73028
829.72956
829.73359
829.73378
829.73395
829.73434
829.73395
829.73299
829.73161
829.73007
829.72887
829.72829
829.73258
829.73276
829.73276
829.73298
829.73255
829.73161
829.73028
829.72887
829.72782
829.7273
829.73189
829.73216
829.73215
829.7322
829.73174
829.73081
829.72956
829.72829
829.7273
829.72687
766.11951
766.12005
766.12029
766.1213
766.12121
766.12049
766.11938
766.11813
766.1171
766.11636
766.12005
766.12026
766.12099
766.12185
766.12167
766.12089
766.11969
766.1183
766.11728
766.11668
766.12029
766.12099
766.12163
766.12238
766.12215
766.12132
766.12003
766.11846
766.11726
766.11667
766.1213
766.12185
766.12238
766.12308
766.12281
766.12195
766.12061
766.11893
766.11755
766.11677
766.12121
766.12167
766.12215
766.12281
766.12252
766.12164
766.12028
766.11859
766.11718
766.11638
766.12049
766.12089
766.12132
766.12195
766.12164
766.12075
766.11939
766.1177
766.11631
766.11552
766.11938
766.11969
766.12003
766.12061
766.12028
766.11939
766.11805
766.11638
766.11502
766.11428
766.11813
766.1183
766.11846
766.11893
766.11859
766.1177
766.11638
766.11477
766.1135
766.11288
766.1171
766.11728
766.11726
766.11755
766.11718
766.11631
766.11502
766.1135
766.11239
766.11192
766.11636
766.11668
766.11667
766.11677
766.11638
766.11552
766.11428
766.11288
766.11192
766.11147
704.9146
704.91514
704.91532
704.91636
704.91624
704.91551
704.91442
704.91317
704.91214
704.91138
704.91514
704.9153
704.91601
704.91687
704.91667
704.91589
704.91472
704.91331
704.91233
704.91175
704.91532
704.91601
704.9166
704.91736
704.91711
704.91631
704.91506
704.91346
704.91228
704.91174
704.91636
704.91687
704.91736
704.91807
704.91779
704.91698
704.9157
704.914
704.91264
704.91189
704.91624
704.91667
704.91711
704.91779
704.91751
704.91669
704.91542
704.91372
704.91234
704.91157
704.91551
704.91589
704.91631
704.91698
704.91669
704.91588
704.91462
704.91293
704.91156
704.9108
704.91442
704.91472
704.91506
704.9157
704.91542
704.91462
704.91337
704.9117
704.91035
704.90962
704.91317
704.91331
704.91346
704.914
704.91372
704.91293
704.9117
704.91005
704.90877
704.90812
704.91214
704.91233
704.91228
704.91264
704.91234
704.91156
704.91035
704.90877
704.90763
704.90723
704.91138
704.91175
704.91174
704.91189
704.91157
704.9108
704.90962
704.90812
704.90723
704.90676
646.34943
646.34996
646.35008
646.35114
646.351
646.35028
646.34924
646.34801
646.34701
646.34625
646.34996
646.35008
646.35074
646.3516
646.35138
646.35064
646.34952
646.34813
646.3472
646.34666
646.35008
646.35074
646.35129
646.35204
646.35178
646.35103
646.34985
646.34826
646.34714
646.34665
646.35114
646.3516
646.35204
646.35275
646.35248
646.35173
646.35055
646.34887
646.34755
646.34686
646.351
646.35138
646.35178
646.35248
646.35221
646.35148
646.35032
646.34865
646.34732
646.34661
646.35028
646.35064
646.35103
646.35173
646.35148
646.35076
646.34962
646.34797
646.34666
646.34596
646.34924
646.34952
646.34985
646.35055
646.35032
646.34962
646.34849
646.34685
646.34555
646.34484
646.34801
646.34813
646.34826
646.34887
646.34865
646.34797
646.34685
646.34522
646.34395
646.34331
646.34701
646.3472
646.34714
646.34755
646.34732
646.34666
646.34555
646.34395
646.34282
646.34249
646.34625
646.34666
646.34665
646.34686
646.34661
646.34596
646.34484
646.34331
646.34249
646.34203
590.60925
590.60975
590.60982
590.61088
590.61073
590.61004
590.60906
590.60789
590.60695
590.6062
590.60975
590.60982
590.61044
590.61129
590.61106
590.61036
590.60932
590.60798
590.60713
590.60665
590.60982
590.61044
590.61094
590.61168
590.61142
590.61073
590.60965
590.6081
590.60705
590.60664
590.61088
590.61129
590.61168
590.61238
590.61213
590.61146
590.61039
590.60876
590.60752
590.6069
590.61073
590.61106
590.61142
590.61213
590.61189
590.61125
590.61022
590.60862
590.60737
590.60674
590.61004
590.61036
590.61073
590.61146
590.61125
590.61063
590.60963
590.60806
590.60683
590.60619
590.60906
590.60932
590.60965
590.61039
590.61022
590.60963
590.60865
590.60707
590.60584
590.60518
590.60789
590.60798
590.6081
590.60876
590.60862
590.60806
590.60707
590.60549
590.60426
590.60364
590.60695
590.60713
590.60705
590.60752
590.60737
590.60683
590.60584
590.60426
590.60316
590.60291
590.6062
590.60665
590.60664
590.6069
590.60674
590.60619
590.60518
590.60364
590.60291
590.60248
537.83785
537.83831
537.83833
537.83939
537.83923
537.83859
537.83769
537.83659
537.83572
537.835
537.83831
537.83834
537.83891
537.83974
537.83951
537.83887
537.83792
537.83665
537.83589
537.83547
537.83833
537.83891
537.83935
537.84008
537.83983
537.83921
537.83823
537.83675
537.8358
537.83547
537.83939
537.83974
537.84008
537.84077
537.84053
537.83995
537.83901
537.83746
537.83632
537.83578
537.83923
537.83951
537.83983
537.84053
537.84033
537.83979
537.8389
537.83739
537.83626
537.8357
537.83859
537.83887
537.83921
537.83995
537.83979
537.83929
537.83844
537.83696
537.83584
537.83528
537.83769
537.83792
537.83823
537.83901
537.8389
537.83844
537.83761
537.83612
537.83498
537.83438
537.83659
537.83665
537.83675
537.83746
537.83739
537.83696
537.83612
537.83462
537.83345
537.83286
537.83572
537.83589
537.8358
537.83632
537.83626
537.83584
537.83498
537.83345
537.8324
537.83225
537.835
537.83547
537.83547
537.83578
537.8357
537.83528
537.83438
537.83286
537.83225
537.83184
488.14043
488.14086
488.14083
488.14187
488.14171
488.14113
488.14032
488.13931
488.13853
488.13785
488.14086
488.14083
488.14136
488.14216
488.14194
488.14137
488.14053
488.13934
488.13869
488.13834
488.14083
488.14136
488.14174
488.14245
488.14222
488.14168
488.14083
488.13944
488.13859
488.13834
488.14187
488.14216
488.14245
488.14313
488.14293
488.14244
488.14163
488.14019
488.13915
488.13869
488.14171
488.14194
488.14222
488.14293
488.14276
488.14233
488.14159
488.14019
488.13917
488.13871
488.14113
488.14137
488.14168
488.14244
488.14233
488.14194
488.14125
488.13989
488.13888
488.13841
488.14032
488.14053
488.14083
488.14163
488.14159
488.14125
488.14057
488.1392
488.13816
488.13763
488.13931
488.13934
488.13944
488.14019
488.14019
488.13989
488.1392
488.13779
488.13671
488.13616
488.13853
488.13869
488.13859
488.13915
488.13917
488.13888
488.13816
488.13671
488.13573
488.13566
488.13785
488.13834
488.13834
488.13869
488.13871
488.13841
488.13763
488.13616
488.13566
488.13529
441.58676
441.58715
441.58707
441.5881
441.58795
441.58743
441.58672
441.58581
441.58512
441.58449
441.58715
441.58708
441.58755
441.58834
441.58813
441.58763
441.5869
441.58581
441.58527
441.58499
441.58707
441.58755
441.58788
441.58857
441.58837
441.58791
441.58718
441.5859
441.58517
441.585
441.5881
441.58834
441.58857
441.58924
441.58907
441.58868
441.58801
441.58668
441.58577
441.5854
441.58795
441.58813
441.58837
441.58907
441.58894
441.58862
441.58803
441.58676
441.58587
441.58549
441.58743
441.58763
441.58791
441.58868
441.58862
441.58835
441.58782
441.58658
441.5857
441.58532
441.58672
441.5869
441.58718
441.58801
441.58803
441.58782
441.5873
441.58605
441.58513
441.58467
441.58581
441.58581
441.5859
441.58668
441.58676
441.58658
441.58605
441.58475
441.58376
441.58326
441.58512
441.58527
441.58517
441.58577
441.58587
441.5857
441.58513
441.58376
441.58286
441.58288
441.58449
441.58499
441.585
441.5854
441.58549
441.58532
441.58467
441.58326
441.58288
441.58255
398.21447
398.21482
398.2147
398.2157
398.21557
398.21511
398.21451
398.2137
398.21311
398.21254
398.21482
398.2147
398.21513
398.21589
398.2157
398.21527
398.21466
398.21368
398.21325
398.21304
398.2147
398.21513
398.21541
398.21608
398.2159
398.21553
398.21493
398.21376
398.21315
398.21306
398.2157
398.21589
398.21608
398.21674
398.21659
398.2163
398.21578
398.21457
398.21378
398.2135
398.21557
398.2157
398.2159
398.21659
398.21651
398.2163
398.21586
398.21472
398.21395
398.21367
398.21511
398.21527
398.21553
398.2163
398.2163
398.21615
398.21576
398.21466
398.21391
398.21362
398.21451
398.21466
398.21493
398.21578
398.21586
398.21576
398.2154
398.21428
398.21348
398.2131
398.2137
398.21368
398.21376
398.21457
398.21472
398.21466
398.21428
398.2131
398.21221
398.21177
398.21311
398.21325
398.21315
398.21378
398.21395
398.21391
398.21348
398.21221
398.2114
398.21149
398.21254
398.21304
398.21306
398.2135
398.21367
398.21362
398.2131
398.21177
398.21149
398.21121
358.03255
358.03285
358.0327
358.03368
358.03357
358.03318
358.03268
358.03198
358.03149
358.03098
358.03285
358.0327
358.03308
358.03382
358.03365
358.03331
358.0328
358.03194
358.03162
358.03148
358.0327
358.03308
358.03333
358.03397
358.03382
358.03354
358.03307
358.03201
358.03152
358.03151
358.03368
358.03382
358.03397
358.03461
358.03451
358.03431
358.03392
358.03284
358.03217
358.03198
358.03357
358.03365
358.03382
358.03451
358.03447
358.03436
358.03406
358.03306
358.03242
358.03223
358.03318
358.03331
358.03354
358.03431
358.03436
358.03432
358.03408
358.03312
358.03249
358.03229
358.03268
358.0328
358.03307
358.03392
358.03406
358.03408
358.03386
358.03288
358.0322
358.03189
358.03198
358.03194
358.03201
358.03284
358.03306
358.03312
358.03288
358.03182
358.03104
358.03065
358.03149
358.03162
358.03152
358.03217
358.03242
358.03249
358.0322
358.03104
358.03032
358.03049
358.03098
358.03148
358.03151
358.03198
358.03223
358.03229
358.03189
358.03065
358.03049
358.03026
321.02501
321.02528
321.0251
321.02605
321.02596
321.02564
321.02524
321.02465
321.02426
321.0238
321.02528
321.02509
321.02543
321.02614
321.02601
321.02574
321.02534
321.02459
321.02437
321.0243
321.0251
321.02543
321.02564
321.02627
321.02615
321.02595
321.02559
321.02466
321.02428
321.02435
321.02605
321.02614
321.02627
321.02689
321.02682
321.02672
321.02646
321.02551
321.02496
321.02484
321.02596
321.02601
321.02615
321.02682
321.02683
321.02681
321.02665
321.02578
321.02527
321.02516
321.02564
321.02574
321.02595
321.02672
321.02681
321.02687
321.02677
321.02595
321.02545
321.02532
321.02524
321.02534
321.02559
321.02646
321.02665
321.02677
321.0267
321.02585
321.02528
321.02505
321.02465
321.02459
321.02466
321.02551
321.02578
321.02595
321.02585
321.02491
321.02423
321.0239
321.02426
321.02437
321.02428
321.02496
321.02527
321.02545
321.02528
321.02423
321.0236
321.02384
321.0238
321.0243
321.02435
321.02484
321.02516
321.02532
321.02505
321.0239
321.02384
321.02366
287.15461
287.15485
287.15465
287.15557
287.1555
287.15525
287.15495
287.15446
287.15416
287.15377
287.15485
287.15463
287.15494
287.15562
287.15551
287.15532
287.15503
287.15439
287.15427
287.15426
287.15465
287.15494
287.15511
287.15572
287.15563
287.15552
287.15527
287.15446
287.15418
287.15432
287.15557
287.15562
287.15572
287.15633
287.1563
287.15628
287.15614
287.15531
287.15488
287.15484
287.1555
287.15551
287.15563
287.1563
287.15635
287.15642
287.15639
287.15565
287.15525
287.15522
287.15525
287.15532
287.15552
287.15628
287.15642
287.15657
287.1566
287.15591
287.15552
287.15548
287.15495
287.15503
287.15527
287.15614
287.15639
287.1566
287.15665
287.15593
287.15548
287.15531
287.15446
287.15439
287.15446
287.15531
287.15565
287.15591
287.15593
287.15512
287.15454
287.15427
287.15416
287.15427
287.15418
287.15488
287.15525
287.15552
287.15548
287.15454
287.154
287.1543
287.15377
287.15426
287.15432
287.15484
287.15522
287.15548
287.15531
287.15427
287.1543
287.15416
256.36666
256.36686
256.36665
256.36754
256.3675
256.36732
256.36711
256.36672
256.36651
256.36617
256.36686
256.36662
256.3669
256.36756
256.36748
256.36736
256.36717
256.36663
256.36661
256.36666
256.36665
256.3669
256.36704
256.36764
256.36758
256.36754
256.3674
256.36671
256.36653
256.36672
256.36754
256.36756
256.36764
256.36823
256.36824
256.3683
256.36827
256.36757
256.36724
256.36727
256.3675
256.36748
256.36758
256.36824
256.36833
256.36849
256.36856
256.36795
256.36766
256.3677
256.36732
256.36736
256.36754
256.3683
256.36849
256.36872
256.36887
256.3683
256.36802
256.36805
256.36711
256.36717
256.3674
256.36827
256.36856
256.36887
256.36903
256.36843
256.36809
256.36799
256.36672
256.36663
256.36671
256.36757
256.36795
256.3683
256.36843
256.36774
256.36726
256.36705
256.36651
256.36661
256.36653
256.36724
256.36766
256.36802
256.36809
256.36726
256.36681
256.36716
256.36617
256.36666
256.36672
256.36727
256.3677
256.36805
256.36799
256.36705
256.36716
256.36707
228.5928
228.59297
228.59275
228.59362
228.5936
228.59348
228.59336
228.59307
228.59294
228.59266
228.59297
228.59271
228.59296
228.59361
228.59356
228.5935
228.59341
228.59298
228.59303
228.59314
228.59275
228.59296
228.59309
228.59367
228.59365
228.59368
228.59364
228.59305
228.59296
228.59322
228.59362
228.59361
228.59367
228.59425
228.5943
228.59443
228.5945
228.59392
228.59369
228.59378
228.5936