/*--------------------------------*- C++ -*----------------------------------*\
| =========                 |                                                 |
| \\      /  F ield         | OpenFOAM: The Open Source CFD Toolbox           |
|  \\    /   O peration     | Version:  v2106                                 |
|   \\  /    A nd           | Website:  www.openfoam.com                      |
|    \\/     M anipulation  |                                                 |
\*---------------------------------------------------------------------------*/
FoamFile
{
    version     2.0;
    format      ascii;
    arch        "LSB;label=32;scalar=64";
    class       volVectorField;
    location    "7.5";
    object      gradT;
}
// * * * * * * * * * * * * * * * * * * * * * * * * * * * * * * * * * * * * * //

dimensions      [0 -1 0 1 0 0 0];

internalField   nonuniform List<vector> 
4000
(
(8.9488493e-05 8.948849e-05 1208.4884)
(0.00092454574 0.00075693673 1208.489)
(-0.0004888383 -8.3445034e-05 1208.4918)
(-0.0014546364 8.3223998e-05 1208.4861)
(-5.3586413e-05 0.00014545161 1208.4852)
(0.00031397634 0.0001610572 1208.4858)
(0.00040145569 0.00017259803 1208.4868)
(0.00038828745 0.00018877222 1208.4879)
(0.00027870181 0.0001814579 1208.4888)
(6.6528236e-05 0.0001075937 1208.4894)
(0.00075693673 0.00092454573 1208.489)
(0.00066514545 0.00066514545 1208.4927)
(-0.0014994074 -0.0003874328 1208.4907)
(-0.0011112914 -2.7227397e-05 1208.4861)
(6.3163391e-05 9.7409298e-05 1208.4855)
(0.00035469597 0.00013253037 1208.4862)
(0.00044302821 0.00017643896 1208.4873)
(0.00040157726 0.00026947095 1208.4886)
(0.00015693404 0.00034293544 1208.4894)
(-7.3359653e-06 0.00019117388 1208.4894)
(-8.3445032e-05 -0.0004888383 1208.4918)
(-0.0003874328 -0.0014994074 1208.4907)
(-0.0011812111 -0.0011812111 1208.4894)
(-0.00096979426 -0.0010327496 1208.4852)
(0.00010617135 -0.00099330988 1208.4849)
(0.000393006 -0.00098331446 1208.4856)
(0.00053839628 -0.00095164166 1208.4869)
(0.00055478394 -0.00083802491 1208.4885)
(0.00020040473 -0.0006233809 1208.4897)
(-3.464614e-05 -0.0004742793 1208.4895)
(8.3223994e-05 -0.0014546364 1208.4861)
(-2.7227402e-05 -0.0011112914 1208.4861)
(-0.0010327496 -0.00096979426 1208.4852)
(-0.00092339013 -0.00092339013 1208.4812)
(0.00011259857 -0.00091825325 1208.4809)
(0.0003963642 -0.00092925477 1208.4816)
(0.00058831776 -0.00093868738 1208.4829)
(0.00072983802 -0.00091048112 1208.4847)
(0.00052067966 -0.00079066698 1208.4866)
(9.2065106e-05 -0.0006028201 1208.4873)
(0.00014545161 -5.3586417e-05 1208.4852)
(9.7409297e-05 6.3163398e-05 1208.4855)
(-0.00099330988 0.00010617136 1208.4849)
(-0.00091825325 0.00011259857 1208.4809)
(0.00010030671 0.00010030671 1208.4806)
(0.00037257186 8.0641379e-05 1208.4813)
(0.00055716993 5.4265939e-05 1208.4824)
(0.00070280434 2.3551048e-05 1208.4842)
(0.00050806575 -2.6128163e-06 1208.4861)
(9.0585112e-05 -2.0650149e-05 1208.4868)
(0.0001610572 0.00031397634 1208.4858)
(0.00013253037 0.00035469597 1208.4862)
(-0.00098331446 0.00039300599 1208.4856)
(-0.00092925477 0.0003963642 1208.4816)
(8.0641381e-05 0.00037257187 1208.4813)
(0.00035032343 0.00035032342 1208.4819)
(0.00053122743 0.00032974533 1208.483)
(0.00067295926 0.00030875292 1208.4847)
(0.00047647846 0.000287155 1208.4865)
(8.0040217e-05 0.0002671113 1208.4871)
(0.00017259802 0.00040145569 1208.4868)
(0.00017643895 0.00044302821 1208.4873)
(-0.00095164165 0.00053839628 1208.4869)
(-0.00093868737 0.00058831776 1208.4829)
(5.4265942e-05 0.00055716992 1208.4824)
(0.00032974533 0.00053122742 1208.483)
(0.00051559942 0.00051559942 1208.4841)
(0.000660214 0.00050591637 1208.4858)
(0.00046642413 0.00049875451 1208.4875)
(7.7222643e-05 0.00049431135 1208.4881)
(0.00018877221 0.00038828745 1208.4879)
(0.00026947096 0.00040157727 1208.4886)
(-0.00083802492 0.00055478394 1208.4885)
(-0.00091048112 0.00072983802 1208.4847)
(2.3551049e-05 0.00070280433 1208.4842)
(0.00030875292 0.00067295926 1208.4847)
(0.00050591637 0.00066021401 1208.4858)
(0.00065611435 0.00065611436 1208.4874)
(0.00046487345 0.00065061881 1208.4892)
(7.7078111e-05 0.00064072861 1208.4898)
(0.0001814579 0.00027870181 1208.4888)
(0.00034293544 0.00015693404 1208.4894)
(-0.0006233809 0.00020040473 1208.4897)
(-0.00079066698 0.00052067966 1208.4866)
(-2.6128151e-06 0.00050806575 1208.4861)
(0.00028715501 0.00047647847 1208.4865)
(0.00049875452 0.00046642413 1208.4875)
(0.0006506188 0.00046487345 1208.4892)
(0.00045103838 0.00045103838 1208.4909)
(7.0629175e-05 0.00041333557 1208.4914)
(0.0001075937 6.6528236e-05 1208.4894)
(0.00019117388 -7.3359655e-06 1208.4894)
(-0.0004742793 -3.4646141e-05 1208.4895)
(-0.0006028201 9.2065107e-05 1208.4873)
(-2.0650148e-05 9.0585113e-05 1208.4868)
(0.0002671113 8.0040219e-05 1208.4871)
(0.00049431136 7.7222638e-05 1208.4881)
(0.00064072861 7.7078115e-05 1208.4898)
(0.00041333556 7.0629175e-05 1208.4914)
(5.1942902e-05 5.1942903e-05 1208.4918)
(0.00036534454 0.00036534454 1767.5224)
(0.0022759291 0.0014187073 1767.5218)
(-0.0029552964 -0.00077417782 1767.5219)
(-0.00550581 -0.00026889462 1767.5165)
(-0.00030859894 -5.8267337e-05 1767.5154)
(0.001427301 3.6793497e-06 1767.5162)
(0.0019418819 6.3842985e-05 1767.5177)
(0.0019144772 0.0001448367 1767.5194)
(0.0014462499 6.0142678e-05 1767.5208)
(0.00037357069 -0.00026514968 1767.522)
(0.0014187073 0.0022759291 1767.5218)
(0.00056664555 0.00056664555 1767.5226)
(-0.0054866992 -0.0023173304 1767.52)
(-0.0044319443 -0.0011964197 1767.5153)
(0.00010026202 -0.00074963743 1767.5147)
(0.0016104665 -0.0005992674 1767.5156)
(0.0021536179 -0.00037366533 1767.5172)
(0.0019089267 9.3000181e-05 1767.5192)
(0.0008312703 0.00031516182 1767.5201)
(4.827833e-05 -0.00039997577 1767.5203)
(-0.00077417782 -0.0029552964 1767.5219)
(-0.0023173304 -0.0054866992 1767.52)
(-0.0047183616 -0.0047183616 1767.5178)
(-0.003938117 -0.0041970216 1767.5135)
(0.00028855332 -0.004025069 1767.513)
(0.0018032731 -0.0039739011 1767.514)
(0.0026341495 -0.0038104006 1767.5158)
(0.0026033043 -0.0032401288 1767.5184)
(0.00095327392 -0.0023100442 1767.52)
(-0.0001031877 -0.0017934468 1767.52)
(-0.00026889461 -0.00550581 1767.5165)
(-0.0011964197 -0.0044319443 1767.5153)
(-0.0041970216 -0.003938117 1767.5135)
(-0.0037386517 -0.0037386517 1767.5094)
(0.0003233825 -0.0037093979 1767.5089)
(0.0018251348 -0.0037595819 1767.5099)
(0.0028873902 -0.0037976213 1767.5117)
(0.0034092832 -0.003633681 1767.5146)
(0.0022779524 -0.0030615856 1767.517)
(0.00039267661 -0.0022782256 1767.5179)
(-5.8267335e-05 -0.00030859894 1767.5154)
(-0.00074963743 0.00010026201 1767.5147)
(-0.004025069 0.00028855333 1767.513)
(-0.0037093979 0.00032338249 1767.5089)
(0.00026762309 0.0002676231 1767.5084)
(0.0017150496 0.00017315225 1767.5093)
(0.0027600504 4.9829562e-05 1767.511)
(0.0033393401 -7.5051188e-05 1767.5139)
(0.0023087294 -0.00014747482 1767.5163)
(0.00041905227 -0.00016347794 1767.5172)
(3.6793511e-06 0.001427301 1767.5162)
(-0.0005992674 0.0016104665 1767.5156)
(-0.0039739011 0.0018032731 1767.514)
(-0.0037595819 0.0018251348 1767.5099)
(0.00017315225 0.0017150496 1767.5093)
(0.0016073413 0.0016073413 1767.5101)
(0.0026391868 0.0015084668 1767.5117)
(0.0032119788 0.0014128456 1767.5145)
(0.0021895256 0.001324427 1767.5168)
(0.00038200787 0.001254929 1767.5177)
(6.3842992e-05 0.0019418819 1767.5177)
(-0.00037366533 0.0021536179 1767.5172)
(-0.0038104007 0.0026341495 1767.5158)
(-0.0037976213 0.0028873902 1767.5117)
(4.9829569e-05 0.0027600504 1767.511)
(0.0015084668 0.0026391868 1767.5117)
(0.0025655547 0.0025655547 1767.5133)
(0.0031553004 0.0025214712 1767.516)
(0.0021508128 0.0024896633 1767.5183)
(0.00037272027 0.0024723549 1767.5192)
(0.0001448367 0.0019144772 1767.5194)
(9.3000181e-05 0.0019089267 1767.5192)
(-0.0032401288 0.0026033043 1767.5184)
(-0.003633681 0.0034092832 1767.5146)
(-7.5051193e-05 0.0033393401 1767.5139)
(0.0014128456 0.0032119788 1767.5145)
(0.0025214712 0.0031553004 1767.516)
(0.0031360874 0.0031360874 1767.5187)
(0.0021404093 0.0030968294 1767.521)
(0.00037046894 0.0030118212 1767.5219)
(6.0142681e-05 0.0014462499 1767.5208)
(0.00031516182 0.0008312703 1767.5201)
(-0.0023100442 0.00095327392 1767.52)
(-0.0030615856 0.0022779524 1767.517)
(-0.00014747482 0.0023087294 1767.5163)
(0.001324427 0.0021895256 1767.5168)
(0.0024896633 0.0021508128 1767.5183)
(0.0030968294 0.0021404093 1767.521)
(0.0020265466 0.0020265466 1767.5232)
(0.00031604812 0.0017274766 1767.5238)
(-0.00026514968 0.00037357069 1767.522)
(-0.00039997577 4.8278327e-05 1767.5203)
(-0.0017934468 -0.00010318771 1767.52)
(-0.0022782256 0.00039267661 1767.5179)
(-0.00016347794 0.00041905227 1767.5172)
(0.001254929 0.00038200787 1767.5177)
(0.0024723549 0.00037272027 1767.5192)
(0.0030118212 0.00037046894 1767.5219)
(0.0017274766 0.00031604812 1767.5238)
(0.00017108894 0.00017108894 1767.5241)
(-0.00033540248 -0.00033540248 1728.271)
(0.00044797873 0.0012774263 1728.2689)
(-0.0058236689 -0.0013639466 1728.2675)
(-0.007958049 -0.00066828009 1728.2639)
(-0.00026900642 -0.00037859096 1728.2633)
(0.0025643465 -0.00028729811 1728.2642)
(0.0035522697 -0.00016029614 1728.2657)
(0.0034753291 3.5626598e-05 1728.2675)
(0.0029024454 -0.00025444299 1728.2687)
(0.00088622047 -0.0010043172 1728.2702)
(0.0012774263 0.00044797873 1728.2689)
(-0.0010948375 -0.0010948375 1728.2682)
(-0.0087422284 -0.0045250355 1728.2657)
(-0.0064800155 -0.0029752646 1728.2625)
(0.00030246655 -0.0023570603 1728.2622)
(0.0028917888 -0.0021443879 1728.2631)
(0.0040366567 -0.0017184226 1728.2648)
(0.0033341089 -0.0007265322 1728.2671)
(0.0013425298 -0.00042470387 1728.2679)
(0.00013634629 -0.0018081707 1728.2682)
(-0.0013639466 -0.0058236689 1728.2675)
(-0.0045250355 -0.0087422284 1728.2657)
(-0.0077040961 -0.0077040961 1728.2634)
(-0.0057900738 -0.0069680618 1728.2605)
(0.00056187034 -0.0067310388 1728.2603)
(0.0032029843 -0.006685214 1728.2612)
(0.0049701254 -0.006431247 1728.263)
(0.0047690479 -0.0053800251 1728.266)
(0.0018208069 -0.0037356874 1728.2675)
(-3.6090752e-05 -0.0029120034 1728.2677)
(-0.00066828009 -0.007958049 1728.2639)
(-0.0029752646 -0.0064800156 1728.2625)
(-0.0069680618 -0.0057900738 1728.2605)
(-0.0055069583 -0.0055069583 1728.2578)
(0.00058531434 -0.0054821857 1728.2575)
(0.0031915805 -0.0055951218 1728.2583)
(0.0053418457 -0.0056971219 1728.2602)
(0.0060296685 -0.0054449587 1728.2634)
(0.0038105515 -0.0045398019 1728.2655)
(0.00068546896 -0.0033856114 1728.2662)
(-0.00037859095 -0.00026900642 1728.2633)
(-0.0023570603 0.00030246655 1728.2622)
(-0.0067310388 0.00056187034 1728.2603)
(-0.0054821857 0.00058531434 1728.2575)
(0.00047370683 0.00047370683 1728.2572)
(0.002988048 0.00029908453 1728.258)
(0.0051202885 7.8488943e-05 1728.2597)
(0.0059263679 -0.00012726531 1728.2628)
(0.0038801542 -0.00022444763 1728.2649)
(0.00073336956 -0.00022539163 1728.2657)
(-0.00028729811 0.0025643465 1728.2642)
(-0.0021443879 0.0028917888 1728.2631)
(-0.006685214 0.0032029842 1728.2612)
(-0.0055951218 0.0031915806 1728.2583)
(0.00029908453 0.002988048 1728.258)
(0.0027963627 0.0027963627 1728.2586)
(0.0049154959 0.0026269875 1728.2603)
(0.0057267319 0.0024751044 1728.2633)
(0.0037124251 0.0023512019 1728.2654)
(0.00068483963 0.0022782867 1728.2662)
(-0.00016029614 0.0035522697 1728.2657)
(-0.0017184226 0.0040366567 1728.2648)
(-0.006431247 0.0049701254 1728.263)
(-0.0056971219 0.0053418457 1728.2602)
(7.8488944e-05 0.0051202885 1728.2597)
(0.0026269874 0.0049154959 1728.2603)
(0.0047990302 0.0047990302 1728.2619)
(0.0056505823 0.0047398345 1728.2649)
(0.0036833364 0.0047004999 1728.267)
(0.00068475943 0.0046868242 1728.2678)
(3.5626598e-05 0.0034753292 1728.2675)
(-0.0007265322 0.0033341089 1728.2671)
(-0.0053800251 0.0047690479 1728.266)
(-0.0054449587 0.0060296685 1728.2634)
(-0.00012726531 0.0059263679 1728.2628)
(0.0024751044 0.0057267319 1728.2633)
(0.0047398345 0.0056505823 1728.2649)
(0.0056282016 0.0056282016 1728.268)
(0.0036594149 0.005510231 1728.27)
(0.00067572249 0.0052093983 1728.2708)
(-0.00025444299 0.0029024454 1728.2687)
(-0.00042470387 0.0013425298 1728.2679)
(-0.0037356874 0.0018208069 1728.2675)
(-0.0045398019 0.0038105515 1728.2655)
(-0.00022444764 0.0038801542 1728.2649)
(0.0023512019 0.0037124251 1728.2654)
(0.0047004999 0.0036833364 1728.267)
(0.005510231 0.0036594149 1728.27)
(0.0032645331 0.0032645331 1728.2718)
(0.00048420427 0.0026608163 1728.2719)
(-0.0010043172 0.00088622047 1728.2702)
(-0.0018081707 0.00013634629 1728.2682)
(-0.0029120034 -3.6090751e-05 1728.2677)
(-0.0033856114 0.00068546895 1728.2662)
(-0.00022539163 0.00073336956 1728.2657)
(0.0022782867 0.00068483963 1728.2662)
(0.0046868242 0.00068475943 1728.2678)
(0.0052093983 0.0006757225 1728.2708)
(0.0026608163 0.00048420427 1728.2719)
(0.00027324458 0.00027324458 1728.2724)
(-0.0010332198 -0.0010332198 1682.3605)
(-0.0012077521 0.00095230508 1682.3588)
(-0.0079910831 -0.0020026212 1682.3578)
(-0.0096936597 -0.0011497748 1682.355)
(-1.0148165e-05 -0.00080764451 1682.3548)
(0.0037807288 -0.00070329184 1682.3557)
(0.0052958795 -0.00050119277 1682.3572)
(0.0049813481 -9.8949293e-05 1682.3593)
(0.0041011906 -0.00048082981 1682.3606)
(0.0013235627 -0.0015600351 1682.3619)
(0.00095230508 -0.0012077521 1682.3588)
(-0.0026618543 -0.0026618543 1682.358)
(-0.011144203 -0.0064275667 1682.3561)
(-0.0079011947 -0.00453399 1682.3538)
(0.00065957635 -0.0038136659 1682.3537)
(0.0042404064 -0.0035934278 1682.3546)
(0.0062023933 -0.0029965779 1682.3563)
(0.0050118926 -0.0013851132 1682.359)
(0.0019095619 -0.00092296719 1682.36)
(0.00024435743 -0.0029127794 1682.3604)
(-0.0020026212 -0.0079910831 1682.3578)
(-0.0064275667 -0.011144203 1682.3561)
(-0.0098632189 -0.0098632189 1682.3545)
(-0.0070797589 -0.0089747452 1682.3524)
(0.00093041403 -0.0087203419 1682.3523)
(0.0045978168 -0.008725994 1682.3532)
(0.0075041942 -0.0084425636 1682.355)
(0.0070549589 -0.0069756418 1682.3582)
(0.0025735243 -0.0047647367 1682.3597)
(-2.9787855e-06 -0.0038037948 1682.3599)
(-0.0011497748 -0.0096936597 1682.355)
(-0.00453399 -0.0079011947 1682.3538)
(-0.0089747452 -0.0070797589 1682.3524)
(-0.0067583177 -0.0067583177 1682.3503)
(0.00090832755 -0.006767545 1682.3502)
(0.0045181847 -0.0069664502 1682.351)
(0.0079527455 -0.0071562163 1682.3528)
(0.0086897194 -0.0068371003 1682.3562)
(0.0050814089 -0.0056560763 1682.3582)
(0.00088498541 -0.0042237342 1682.3588)
(-0.00080764451 -1.0148165e-05 1682.3548)
(-0.0038136659 0.00065957634 1682.3537)
(-0.0087203419 0.00093041403 1682.3523)
(-0.006767545 0.00090832755 1682.3502)
(0.00072228153 0.00072228152 1682.3501)
(0.0042091456 0.00045738715 1682.3507)
(0.0076335441 0.00013625978 1682.3524)
(0.0085550989 -0.00014158309 1682.3557)
(0.0051868905 -0.00024888414 1682.3577)
(0.00095191595 -0.0002197224 1682.3584)
(-0.00070329184 0.0037807288 1682.3557)
(-0.0035934278 0.0042404064 1682.3546)
(-0.008725994 0.0045978168 1682.3532)
(-0.0069664502 0.0045181847 1682.351)
(0.00045738715 0.0042091456 1682.3507)
(0.003932163 0.003932163 1682.3513)
(0.0073537753 0.0037002323 1682.3529)
(0.0083045755 0.0035119353 1682.3561)
(0.0050032696 0.0033839029 1682.3581)
(0.00090442657 0.0033497773 1682.3588)
(-0.00050119277 0.0052958795 1682.3572)
(-0.0029965779 0.0062023933 1682.3563)
(-0.0084425636 0.0075041942 1682.355)
(-0.0071562163 0.0079527455 1682.3528)
(0.00013625978 0.0076335441 1682.3524)
(0.0037002323 0.0073537753 1682.3529)
(0.0072133164 0.0072133164 1682.3544)
(0.0082387694 0.0071649275 1682.3577)
(0.0050247325 0.0071357152 1682.3597)
(0.00092916554 0.0071236622 1682.3605)
(-9.8949292e-05 0.0049813481 1682.3593)
(-0.0013851132 0.0050118926 1682.359)
(-0.0069756418 0.0070549589 1682.3582)
(-0.0068371003 0.0086897194 1682.3562)
(-0.0001415831 0.0085550989 1682.3557)
(0.0035119353 0.0083045755 1682.3561)
(0.0071649275 0.0082387694 1682.3577)
(0.0082269743 0.0082269743 1682.361)
(0.0049620043 0.007937687 1682.3631)
(0.00089639128 0.007137327 1682.3638)
(-0.00048082982 0.0041011906 1682.3606)
(-0.00092296719 0.0019095619 1682.36)
(-0.0047647367 0.0025735243 1682.3597)
(-0.0056560763 0.0050814089 1682.3582)
(-0.00024888413 0.0051868905 1682.3577)
(0.0033839029 0.0050032696 1682.3581)
(0.0071357152 0.0050247325 1682.3597)
(0.0079376871 0.0049620043 1682.3631)
(0.0039350852 0.0039350852 1682.3648)
(0.00039559215 0.003287144 1682.3644)
(-0.0015600351 0.0013235627 1682.3619)
(-0.0029127794 0.00024435743 1682.3604)
(-0.0038037948 -2.9787843e-06 1682.3599)
(-0.0042237342 0.00088498541 1682.3588)
(-0.0002197224 0.00095191595 1682.3584)
(0.0033497773 0.00090442657 1682.3588)
(0.0071236622 0.00092916555 1682.3605)
(0.007137327 0.00089639128 1682.3638)
(0.003287144 0.00039559215 1682.3644)
(0.00046443048 0.00046443048 1682.3649)
(-0.001489507 -0.001489507 1630.6272)
(-0.0022583711 0.00074971448 1630.6261)
(-0.0095732563 -0.0024772956 1630.6255)
(-0.010961733 -0.0014869007 1630.6233)
(0.00038457277 -0.0011090523 1630.6233)
(0.0050187116 -0.0010120684 1630.6241)
(0.0071821828 -0.00076569179 1630.6256)
(0.0067974717 -0.00018061496 1630.6278)
(0.0054871119 -0.00065482064 1630.6292)
(0.0017668478 -0.0019991512 1630.6305)
(0.00074971448 -0.0022583711 1630.6261)
(-0.003740054 -0.003740054 1630.6256)
(-0.012928179 -0.0077909949 1630.6242)
(-0.0089093683 -0.0056045613 1630.6224)
(0.0010968213 -0.0048259225 1630.6225)
(0.0055337524 -0.0046491983 1630.6233)
(0.0084293629 -0.0039582412 1630.6249)
(0.0069637784 -0.0018046237 1630.6276)
(0.0027593075 -0.0012483599 1630.6287)
(0.0004225172 -0.0037621439 1630.6293)
(-0.0024772956 -0.0095732562 1630.6255)
(-0.0077909949 -0.012928179 1630.6242)
(-0.011437764 -0.011437764 1630.6231)
(-0.0079966608 -0.010436358 1630.6215)
(0.0013399357 -0.010197506 1630.6216)
(0.0058863929 -0.010287892 1630.6223)
(0.010026757 -0.010020568 1630.6239)
(0.009507353 -0.0082002009 1630.6271)
(0.0035295916 -0.0055303885 1630.6287)
(9.0991765e-05 -0.004492285 1630.629)
(-0.0014869007 -0.010961733 1630.6233)
(-0.0056045613 -0.0089093683 1630.6224)
(-0.010436358 -0.0079966608 1630.6215)
(-0.0076691109 -0.0076691109 1630.6199)
(0.0012452878 -0.007736698 1630.6199)
(0.0057106907 -0.0080415762 1630.6206)
(0.010517054 -0.0083389407 1630.6221)
(0.011453958 -0.0079743497 1630.6254)
(0.0064672235 -0.0065624708 1630.6274)
(0.0011145862 -0.0049024851 1630.6281)
(-0.0011090523 0.00038457277 1630.6233)
(-0.0048259225 0.0010968213 1630.6225)
(-0.010197506 0.0013399357 1630.6216)
(-0.007736698 0.0012452878 1630.6199)
(0.00096747049 0.00096747049 1630.6199)
(0.0052841502 0.00060203429 1630.6204)
(0.010093984 0.00017654844 1630.6218)
(0.011283823 -0.00016839433 1630.625)
(0.0066014562 -0.00027709053 1630.627)
(0.0011976489 -0.00020773548 1630.6277)
(-0.0010120684 0.0050187116 1630.6241)
(-0.0046491983 0.0055337524 1630.6233)
(-0.010287892 0.0058863929 1630.6223)
(-0.0080415762 0.0057106907 1630.6206)
(0.00060203429 0.0052841502 1630.6204)
(0.0049197686 0.0049197686 1630.6208)
(0.0097466252 0.0046332609 1630.6221)
(0.011000319 0.0044298211 1630.6252)
(0.0064278823 0.0043324364 1630.6273)
(0.0011608229 0.0043809839 1630.628)
(-0.00076569178 0.0071821828 1630.6256)
(-0.0039582412 0.0084293629 1630.6249)
(-0.010020568 0.010026757 1630.6239)
(-0.0083389407 0.010517054 1630.6221)
(0.00017654844 0.010093984 1630.6218)
(0.0046332609 0.0097466252 1630.6221)
(0.0096040363 0.0096040363 1630.6234)
(0.010982998 0.009606528 1630.6266)
(0.0065526191 0.009638066 1630.6287)
(0.0012300139 0.0096673798 1630.6296)
(-0.00018061496 0.0067974717 1630.6278)
(-0.0018046237 0.0069637784 1630.6276)
(-0.0082002009 0.009507353 1630.6271)
(-0.0079743497 0.011453958 1630.6254)
(-0.00016839433 0.011283823 1630.625)
(0.0044298211 0.011000319 1630.6252)
(0.009606528 0.010982998 1630.6266)
(0.011034349 0.011034349 1630.6299)
(0.0064887341 0.01056511 1630.6321)
(0.0011803654 0.0090370766 1630.633)
(-0.00065482064 0.0054871119 1630.6292)
(-0.0012483599 0.0027593075 1630.6287)
(-0.0055303885 0.0035295917 1630.6287)
(-0.0065624708 0.0064672235 1630.6274)
(-0.00027709052 0.0066014562 1630.627)
(0.0043324364 0.0064278823 1630.6273)
(0.009638066 0.0065526191 1630.6287)
(0.01056511 0.0064887341 1630.6321)
(0.0045553471 0.0045553471 1630.6339)
(0.0002113251 0.0037642043 1630.6333)
(-0.0019991512 0.0017668478 1630.6305)
(-0.0037621439 0.0004225172 1630.6293)
(-0.004492285 9.0991772e-05 1630.629)
(-0.0049024851 0.0011145862 1630.6281)
(-0.00020773548 0.0011976489 1630.6277)
(0.0043809839 0.0011608229 1630.628)
(0.0096673798 0.0012300139 1630.6296)
(0.0090370766 0.0011803654 1630.633)
(0.0037642043 0.0002113251 1630.6333)
(0.00065293684 0.00065293684 1630.6339)
(-0.0018251381 -0.0018251381 1573.9054)
(-0.002983187 0.00061610895 1573.9045)
(-0.010742475 -0.0028376305 1573.9041)
(-0.01187876 -0.0017254159 1573.9025)
(0.00082733742 -0.0013229006 1573.9026)
(0.0061308064 -0.0012450374 1573.9034)
(0.0089125057 -0.00097474606 1573.9046)
(0.0085655988 -0.000232623 1573.9065)
(0.0068605967 -0.00080132989 1573.9079)
(0.0021905331 -0.0023739431 1573.9091)
(0.00061610895 -0.002983187 1573.9045)
(-0.0045019256 -0.0045019256 1573.9041)
(-0.014254762 -0.0087836333 1573.9032)
(-0.0096066649 -0.0063453144 1573.9019)
(0.0015479052 -0.0055385231 1573.9021)
(0.0066530383 -0.0054373354 1573.9027)
(0.010431127 -0.0047058758 1573.9041)
(0.008825723 -0.0020867902 1573.9064)
(0.0036486166 -0.0014812784 1573.9075)
(0.0006179199 -0.0044571281 1573.9081)
(-0.0028376305 -0.010742475 1573.9041)
(-0.0087836333 -0.014254762 1573.9032)
(-0.012585863 -0.012585863 1573.9024)
(-0.0086336495 -0.011502754 1573.9013)
(0.0017353164 -0.011303954 1573.9014)
(0.0069634537 -0.011503448 1573.902)
(0.012263051 -0.011287967 1573.9033)
(0.011790196 -0.0091733681 1573.9061)
(0.0044902588 -0.0061233996 1573.9075)
(0.00020663327 -0.0050349844 1573.9079)
(-0.0017254159 -0.01187876 1573.9025)
(-0.0063453144 -0.0096066649 1573.9019)
(-0.011502754 -0.0086336495 1573.9013)
(-0.0083247552 -0.0083247552 1573.9001)
(0.0015472117 -0.0084697823 1573.9001)
(0.0066690253 -0.0088965747 1573.9006)
(0.012761207 -0.0093185755 1573.9018)
(0.01399029 -0.0089331031 1573.9047)
(0.0077870003 -0.007332858 1573.9065)
(0.00134353 -0.0054838688 1573.9071)
(-0.0013229006 0.00082733742 1573.9026)
(-0.0055385231 0.0015479052 1573.9021)
(-0.011303954 0.0017353164 1573.9014)
(-0.0084697823 0.0015472117 1573.9001)
(0.001163497 0.001163497 1573.9001)
(0.0061146605 0.00068869062 1573.9005)
(0.012226522 0.00015470346 1573.9015)
(0.013775914 -0.00025686801 1573.9043)
(0.0079394931 -0.00036523107 1573.9061)
(0.0014392928 -0.00025203937 1573.9068)
(-0.0012450374 0.0061308064 1573.9034)
(-0.0054373354 0.0066530383 1573.9027)
(-0.011503448 0.0069634537 1573.902)
(-0.0088965747 0.0066690253 1573.9006)
(0.00068869062 0.0061146605 1573.9005)
(0.0056602318 0.0056602318 1573.9007)
(0.011815649 0.0053243008 1573.9017)
(0.013470356 0.0051208618 1573.9044)
(0.0077918289 0.0050801513 1573.9062)
(0.0014189911 0.0052451642 1573.9069)
(-0.00097474606 0.0089125057 1573.9046)
(-0.0047058758 0.010431127 1573.9041)
(-0.011287967 0.012263051 1573.9033)
(-0.0093185755 0.012761207 1573.9018)
(0.00015470347 0.012226522 1573.9015)
(0.0053243008 0.011815649 1573.9017)
(0.011687153 0.011687153 1573.9026)
(0.013531764 0.011774689 1573.9054)
(0.0080637955 0.011922305 1573.9073)
(0.0015493013 0.012060569 1573.9083)
(-0.000232623 0.0085655988 1573.9065)
(-0.0020867902 0.008825723 1573.9064)
(-0.0091733681 0.011790196 1573.9061)
(-0.0089331031 0.01399029 1573.9047)
(-0.000256868 0.013775914 1573.9043)
(0.0051208618 0.013470356 1573.9044)
(0.011774689 0.013531764 1573.9054)
(0.013705509 0.013705509 1573.9083)
(0.0080777087 0.013127038 1573.9104)
(0.0015111668 0.010858829 1573.9114)
(-0.00080132989 0.0068605967 1573.9079)
(-0.0014812784 0.0036486166 1573.9075)
(-0.0061233996 0.0044902588 1573.9075)
(-0.007332858 0.0077870003 1573.9065)
(-0.00036523105 0.0079394931 1573.9061)
(0.0050801513 0.0077918289 1573.9062)
(0.011922305 0.0080637954 1573.9073)
(0.013127038 0.0080777087 1573.9104)
(0.0052171156 0.0052171156 1573.9122)
(3.7161628e-05 0.0042129703 1573.9117)
(-0.0023739431 0.0021905331 1573.9091)
(-0.0044571281 0.0006179199 1573.9081)
(-0.0050349844 0.00020663328 1573.9079)
(-0.0054838688 0.00134353 1573.9071)
(-0.00025203936 0.0014392928 1573.9068)
(0.0052451642 0.0014189911 1573.9069)
(0.012060569 0.0015493013 1573.9083)
(0.010858829 0.0015111668 1573.9114)
(0.0042129703 3.7161628e-05 1573.9117)
(0.00084173656 0.00084173656 1573.9123)
(-0.0020910548 -0.0020910548 1513.0142)
(-0.0035061637 0.0005203842 1513.0135)
(-0.011581955 -0.0031110772 1513.0133)
(-0.012507471 -0.0018920191 1513.0121)
(0.0012674852 -0.0014737867 1513.0123)
(0.0070525875 -0.0014228659 1513.0129)
(0.010358043 -0.0011434204 1513.0139)
(0.010094988 -0.00026733707 1513.0155)
(0.0080846671 -0.00092596788 1513.0167)
(0.0025718117 -0.0026986664 1513.0177)
(0.0005203842 -0.0035061637 1513.0135)
(-0.0050361973 -0.0050361972 1513.0133)
(-0.01520056 -0.0094877657 1513.0126)
(-0.010051535 -0.0068353353 1513.0117)
(0.001971215 -0.0060243824 1513.0119)
(0.0075481371 -0.0060211937 1513.0125)
(0.012091337 -0.0052910129 1513.0135)
(0.010421166 -0.0022795671 1513.0154)
(0.0044376731 -0.0016515658 1513.0163)
(0.00079911319 -0.00503862 1513.0168)
(-0.0031110771 -0.011581955 1513.0133)
(-0.0094877657 -0.01520056 1513.0126)
(-0.013381093 -0.013381093 1513.0122)
(-0.0090440876 -0.012242893 1513.0113)
(0.0020816269 -0.012102996 1513.0115)
(0.007785957 -0.012429678 1513.012)
(0.01409967 -0.012296244 1513.0129)
(0.013734435 -0.009947919 1513.0152)
(0.0053256142 -0.0065872426 1513.0164)
(0.00031377562 -0.0054714571 1513.0167)
(-0.0018920191 -0.012507471 1513.0121)
(-0.0068353353 -0.010051535 1513.0117)
(-0.012242893 -0.0090440876 1513.0113)
(-0.0087734382 -0.0087734382 1513.0105)
(0.00178443 -0.0090102714 1513.0106)
(0.0073548898 -0.0095706605 1513.0109)
(0.014573096 -0.010131197 1513.0117)
(0.016130167 -0.0097509567 1513.014)
(0.0089141351 -0.0080047669 1513.0155)
(0.0015429702 -0.0060044559 1513.016)
(-0.0014737867 0.0012674852 1513.0123)
(-0.0060243823 0.001971215 1513.0119)
(-0.012102996 0.0020816269 1513.0115)
(-0.0090102714 0.00178443 1513.0106)
(0.0012844046 0.0012844046 1513.0106)
(0.0066650311 0.00069373984 1513.0108)
(0.013919374 4.7855724e-05 1513.0114)
(0.015860865 -0.00043247963 1513.0137)
(0.009072115 -0.0005437168 1513.0151)
(0.0016473163 -0.00038902416 1513.0157)
(-0.0014228659 0.0070525875 1513.0129)
(-0.0060211937 0.0075481371 1513.0125)
(-0.012429678 0.007785957 1513.012)
(-0.0095706605 0.0073548898 1513.0109)
(0.00069373985 0.0066650311 1513.0108)
(0.0061183409 0.0061183409 1513.0108)
(0.013446877 0.0057359387 1513.0114)
(0.015538595 0.0055413415 1513.0136)
(0.0089575905 0.005572 1513.015)
(0.0016460986 0.0058711869 1513.0157)
(-0.0011434204 0.010358043 1513.0139)
(-0.0052910129 0.012091337 1513.0135)
(-0.012296244 0.01409967 1513.0129)
(-0.010131197 0.014573096 1513.0117)
(4.7855727e-05 0.013919374 1513.0114)
(0.0057359387 0.013446877 1513.0114)
(0.013342374 0.013342374 1513.012)
(0.015696926 0.013536696 1513.0142)
(0.0094019604 0.013838206 1513.0158)
(0.0018467742 0.014135993 1513.0166)
(-0.00026733708 0.010094988 1513.0155)
(-0.0022795671 0.010421166 1513.0154)
(-0.009947919 0.013734435 1513.0152)
(-0.0097509567 0.016130167 1513.014)
(-0.00043247963 0.015860865 1513.0137)
(0.0055413415 0.015538595 1513.0136)
(0.013536696 0.015696926 1513.0142)
(0.016034427 0.016034427 1513.0167)
(0.0095568873 0.015419537 1513.0184)
(0.0018446232 0.012484066 1513.0194)
(-0.00092596788 0.0080846671 1513.0167)
(-0.0016515659 0.0044376731 1513.0163)
(-0.0065872426 0.0053256142 1513.0164)
(-0.0080047669 0.0089141351 1513.0155)
(-0.00054371679 0.009072115 1513.0151)
(0.005572 0.0089575905 1513.015)
(0.013838206 0.0094019604 1513.0158)
(0.015419537 0.0095568873 1513.0184)
(0.0058516001 0.0058516001 1513.02)
(-0.00011020632 0.0046305061 1513.0196)
(-0.0026986664 0.0025718117 1513.0177)
(-0.00503862 0.00079911319 1513.0168)
(-0.0054714571 0.00031377562 1513.0167)
(-0.0060044559 0.0015429702 1513.016)
(-0.00038902417 0.0016473163 1513.0157)
(0.0058711869 0.0016460986 1513.0157)
(0.014135993 0.0018467742 1513.0166)
(0.012484066 0.0018446232 1513.0194)
(0.0046305061 -0.00011020632 1513.0196)
(0.0010305606 0.0010305606 1513.0202)
(-0.0022957936 -0.0022957936 1448.7493)
(-0.0038588668 0.00045747543 1448.7488)
(-0.012133744 -0.0033034493 1448.7487)
(-0.012892028 -0.0019929687 1448.7479)
(0.0016693329 -0.0015669592 1448.7482)
(0.0077528857 -0.0015487547 1448.7486)
(0.011469009 -0.0012725128 1448.7493)
(0.011306354 -0.00028529805 1448.7505)
(0.0090893539 -0.0010275172 1448.7514)
(0.0028946111 -0.0029750971 1448.7523)
(0.00045747542 -0.0038588668 1448.7488)
(-0.0053703504 -0.0053703504 1448.7486)
(-0.01580941 -0.0099322696 1448.7483)
(-0.010287293 -0.0071030634 1448.7477)
(0.0023356539 -0.0063082423 1448.748)
(0.0081945554 -0.0064195311 1448.7483)
(0.013364194 -0.0057261071 1448.749)
(0.011673848 -0.0023954726 1448.7505)
(0.0050546554 -0.0017675855 1448.7511)
(0.0009470312 -0.0055201904 1448.7515)
(-0.0033034493 -0.012133744 1448.7487)
(-0.0099322696 -0.01580941 1448.7483)
(-0.013866457 -0.013866457 1448.7481)
(-0.0092680012 -0.012696852 1448.7476)
(0.0023528652 -0.01263031 1448.7478)
(0.008335021 -0.013096831 1448.748)
(0.015493067 -0.013070533 1448.7486)
(0.015264876 -0.01054886 1448.7504)
(0.0059646361 -0.0069447234 1448.7512)
(0.00039287445 -0.0058250474 1448.7514)
(-0.0019929687 -0.012892028 1448.7479)
(-0.0071030634 -0.010287293 1448.7477)
(-0.012696852 -0.0092680012 1448.7476)
(-0.0090511464 -0.0090511464 1448.747)
(0.0019356752 -0.0093899288 1448.7472)
(0.0077543319 -0.010091299 1448.7472)
(0.015912165 -0.010800386 1448.7477)
(0.017799658 -0.010450458 1448.7494)
(0.0097784678 -0.0086001439 1448.7505)
(0.0016934819 -0.006486397 1448.7509)
(-0.0015669592 0.0016693329 1448.7482)
(-0.0063082423 0.0023356539 1448.748)
(-0.01263031 0.0023528652 1448.7478)
(-0.0093899288 0.0019356752 1448.7472)
(0.0013127127 0.0013127127 1448.7472)
(0.0069245642 0.00060249518 1448.7471)
(0.015133908 -0.00015699062 1448.7474)
(0.017465118 -0.00070867408 1448.7491)