/*--------------------------------*- C++ -*----------------------------------*\
| =========                 |                                                 |
| \\      /  F ield         | OpenFOAM: The Open Source CFD Toolbox           |
|  \\    /   O peration     | Version:  v2106                                 |
|   \\  /    A nd           | Website:  www.openfoam.com                      |
|    \\/     M anipulation  |                                                 |
\*---------------------------------------------------------------------------*/
FoamFile
{
    version     2.0;
    format      ascii;
    arch        "LSB;label=32;scalar=64";
    class       volScalarField;
    location    "7.5";
    object      T;
}
// * * * * * * * * * * * * * * * * * * * * * * * * * * * * * * * * * * * * * //

dimensions      [0 0 0 1 0 0 0];

internalField   nonuniform List<scalar> 
4000
(
277.60021
277.60022
277.60023
277.60021
277.6002
277.60021
277.60021
277.60021
277.60022
277.60022
277.60022
277.60024
277.60023
277.60021
277.60021
277.60021
277.60022
277.60022
277.60022
277.60022
277.60023
277.60023
277.60023
277.60021
277.60021
277.60021
277.60021
277.60022
277.60022
277.60022
277.60021
277.60021
277.60021
277.60019
277.60019
277.60019
277.6002
277.6002
277.60021
277.60021
277.6002
277.60021
277.60021
277.60019
277.60019
277.60019
277.6002
277.6002
277.60021
277.60021
277.60021
277.60021
277.60021
277.60019
277.60019
277.60019
277.6002
277.6002
277.60021
277.60021
277.60021
277.60022
277.60021
277.6002
277.6002
277.6002
277.6002
277.60021
277.60021
277.60022
277.60021
277.60022
277.60022
277.6002
277.6002
277.6002
277.60021
277.60021
277.60022
277.60022
277.60022
277.60022
277.60022
277.60021
277.60021
277.60021
277.60021
277.60022
277.60023
277.60023
277.60022
277.60022
277.60022
277.60021
277.60021
277.60021
277.60022
277.60022
277.60023
277.60023
295.45401
295.45402
295.45405
295.45396
295.45394
295.45395
295.45397
295.45399
295.45401
295.45402
295.45402
295.45406
295.45403
295.45395
295.45394
295.45395
295.45397
295.454
295.45401
295.45401
295.45405
295.45403
295.45401
295.45394
295.45393
295.45394
295.45396
295.45399
295.45402
295.45401
295.45396
295.45395
295.45394
295.45387
295.45386
295.45387
295.4539
295.45393
295.45397
295.45398
295.45394
295.45394
295.45393
295.45386
295.45385
295.45387
295.45389
295.45392
295.45395
295.45397
295.45395
295.45395
295.45394
295.45387
295.45387
295.45388
295.4539
295.45393
295.45396
295.45397
295.45397
295.45397
295.45396
295.4539
295.45389
295.4539
295.45392
295.45395
295.45398
295.45399
295.45399
295.454
295.45399
295.45393
295.45392
295.45393
295.45395
295.45398
295.45401
295.45402
295.45401
295.45401
295.45402
295.45397
295.45395
295.45396
295.45398
295.45401
295.45404
295.45405
295.45402
295.45401
295.45401
295.45398
295.45397
295.45397
295.45399
295.45402
295.45405
295.45406
312.95066
312.95065
312.95067
312.95054
312.95051
312.95053
312.95056
312.9506
312.95063
312.95066
312.95065
312.95069
312.95063
312.95052
312.9505
312.95052
312.95056
312.9506
312.95063
312.95063
312.95067
312.95063
312.95058
312.95048
312.95047
312.95049
312.95053
312.95059
312.95063
312.95062
312.95054
312.95052
312.95048
312.95038
312.95037
312.95039
312.95043
312.9505
312.95055
312.95057
312.95051
312.9505
312.95047
312.95037
312.95036
312.95038
312.95042
312.95048
312.95053
312.95056
312.95053
312.95052
312.95049
312.95039
312.95038
312.95039
312.95043
312.95049
312.95055
312.95057
312.95056
312.95056
312.95053
312.95043
312.95042
312.95043
312.95047
312.95053
312.95058
312.9506
312.9506
312.9506
312.95059
312.9505
312.95048
312.95049
312.95053
312.95059
312.95064
312.95066
312.95063
312.95063
312.95063
312.95055
312.95053
312.95055
312.95058
312.95064
312.95069
312.95071
312.95066
312.95063
312.95062
312.95057
312.95056
312.95057
312.9506
312.95066
312.95071
312.95071
330.01943
330.0194
330.0194
330.01924
330.01921
330.01924
330.01928
330.01934
330.01938
330.01942
330.0194
330.01942
330.01934
330.0192
330.01918
330.01922
330.01927
330.01934
330.01937
330.01938
330.0194
330.01934
330.01927
330.01915
330.01913
330.01916
330.01922
330.01931
330.01937
330.01937
330.01924
330.0192
330.01915
330.01902
330.01901
330.01904
330.0191
330.0192
330.01927
330.0193
330.01921
330.01918
330.01913
330.01901
330.019
330.01903
330.01908
330.01918
330.01925
330.01928
330.01924
330.01922
330.01916
330.01904
330.01903
330.01905
330.0191
330.0192
330.01927
330.0193
330.01928
330.01927
330.01922
330.0191
330.01908
330.0191
330.01916
330.01925
330.01932
330.01935
330.01934
330.01934
330.01931
330.0192
330.01918
330.0192
330.01925
330.01934
330.01941
330.01944
330.01938
330.01937
330.01937
330.01927
330.01925
330.01927
330.01932
330.01941
330.01948
330.01949
330.01942
330.01938
330.01937
330.0193
330.01928
330.0193
330.01935
330.01944
330.01949
330.01951
346.59787
346.59783
346.59783
346.59764
346.59761
346.59764
346.59771
346.59779
346.59785
346.5979
346.59783
346.59785
346.59775
346.59759
346.59758
346.59761
346.59769
346.59778
346.59783
346.59784
346.59783
346.59775
346.59767
346.59753
346.59751
346.59755
346.59763
346.59775
346.59782
346.59782
346.59764
346.59759
346.59753
346.59738
346.59737
346.59741
346.59749
346.59762
346.59771
346.59775
346.59761
346.59758
346.59751
346.59737
346.59736
346.59739
346.59746
346.59759
346.59769
346.59772
346.59764
346.59761
346.59755
346.59741
346.59739
346.59742
346.59749
346.59762
346.59771
346.59774
346.59771
346.59769
346.59763
346.59749
346.59746
346.59749
346.59756
346.59768
346.59778
346.59781
346.59779
346.59778
346.59775
346.59762
346.59759
346.59762
346.59768
346.59781
346.5979
346.59794
346.59785
346.59783
346.59782
346.59771
346.59769
346.59771
346.59778
346.5979
346.59799
346.59799
346.5979
346.59784
346.59782
346.59775
346.59772
346.59774
346.59781
346.59794
346.59799
346.59801
362.63197
362.63192
362.63191
362.6317
362.63167
362.63172
362.6318
362.6319
362.63197
362.63203
362.63192
362.63194
362.63183
362.63165
362.63164
362.63168
362.63177
362.63189
362.63194
362.63196
362.63191
362.63183
362.63174
362.63158
362.63156
362.63161
362.6317
362.63186
362.63194
362.63195
362.6317
362.63165
362.63158
362.63142
362.63141
362.63145
362.63154
362.63171
362.63182
362.63186
362.63167
362.63164
362.63156
362.63141
362.63139
362.63143
362.63152
362.63168
362.63179
362.63184
362.63172
362.63168
362.63161
362.63145
362.63143
362.63147
362.63155
362.6317
362.63182
362.63186
362.6318
362.63177
362.6317
362.63154
362.63152
362.63155
362.63162
362.63178
362.63189
362.63194
362.6319
362.63189
362.63186
362.63171
362.63168
362.6317
362.63178
362.63194
362.63205
362.6321
362.63197
362.63194
362.63194
362.63182
362.63179
362.63182
362.63189
362.63205
362.63216
362.63216
362.63203
362.63196
362.63195
362.63186
362.63184
362.63186
362.63194
362.6321
362.63216
362.63218
378.07598
378.07592
378.07591
378.07569
378.07566
378.07571
378.0758
378.07592
378.076
378.07608
378.07592
378.07593
378.07582
378.07563
378.07562
378.07567
378.07577
378.07591
378.07598
378.076
378.07591
378.07582
378.07572
378.07555
378.07554
378.07559
378.0757
378.07587
378.07597
378.07598
378.07569
378.07563
378.07555
378.07539
378.07537
378.07542
378.07552
378.07571
378.07584
378.07589
378.07566
378.07562
378.07554
378.07537
378.07536
378.0754
378.07549
378.07568
378.07581
378.07586
378.07571
378.07567
378.07559
378.07542
378.0754
378.07543
378.07552
378.0757
378.07583
378.07588
378.0758
378.07577
378.0757
378.07552
378.07549
378.07552
378.07561
378.07579
378.07592
378.07598
378.07592
378.07591
378.07587
378.07571
378.07568
378.0757
378.07579
378.07597
378.07611
378.07617
378.076
378.07598
378.07597
378.07584
378.07581
378.07583
378.07592
378.07611
378.07623
378.07623
378.07608
378.076
378.07598
378.07589
378.07586
378.07588
378.07598
378.07617
378.07623
378.07626
392.89226
392.89219
392.89218
392.89194
392.89192
392.89198
392.89208
392.89221
392.8923
392.89239
392.89219
392.8922
392.89208
392.89188
392.89187
392.89193
392.89204
392.8922
392.89227
392.8923
392.89218
392.89208
392.89198
392.8918
392.8918
392.89185
392.89196
392.89216
392.89227
392.89228
392.89194
392.89188
392.8918
392.89163
392.89162
392.89167
392.89178
392.89199
392.89213
392.89218
392.89192
392.89187
392.8918
392.89162
392.89161
392.89165
392.89175
392.89195
392.8921
392.89215
392.89198
392.89193
392.89185
392.89167
392.89165
392.89168
392.89177
392.89197
392.89212
392.89217
392.89208
392.89204
392.89196
392.89178
392.89175
392.89177
392.89186
392.89206
392.89221
392.89227
392.89221
392.8922
392.89216
392.89199
392.89195
392.89197
392.89206
392.89227
392.89242
392.89249
392.8923
392.89227
392.89227
392.89213
392.8921
392.89212
392.89221
392.89242
392.89256
392.89255
392.89239
392.8923
392.89228
392.89218
392.89215
392.89217
392.89227
392.89249
392.89255
392.89259
407.05097
407.05089
407.05089
407.05064
407.05062
407.05069
407.05079
407.05093
407.05103
407.05113
407.05089
407.05091
407.05078
407.05058
407.05058
407.05064
407.05075
407.05092
407.051
407.05103
407.05089
407.05078
407.05068
407.0505
407.0505
407.05055
407.05067
407.05088
407.051
407.05101
407.05064
407.05058
407.0505
407.05033
407.05032
407.05037
407.05048
407.0507
407.05085
407.05091
407.05062
407.05058
407.0505
407.05032
407.0503
407.05034
407.05044
407.05066
407.05081
407.05087
407.05069
407.05064
407.05055
407.05037
407.05034
407.05037
407.05047
407.05068
407.05083
407.05089
407.05079
407.05075
407.05067
407.05048
407.05044
407.05047
407.05056
407.05077
407.05093
407.051
407.05093
407.05092
407.05088
407.0507
407.05066
407.05068
407.05077
407.05099
407.05116
407.05123
407.05103
407.051
407.051
407.05085
407.05081
407.05083
407.05093
407.05116
407.0513
407.05129
407.05113
407.05103
407.05101
407.05091
407.05087
407.05089
407.051
407.05123
407.05129
407.05133
420.52973
420.52965
420.52965
420.5294
420.52939
420.52945
420.52956
420.5297
420.52981
420.52991
420.52965
420.52967
420.52954
420.52934
420.52934
420.5294
420.52951
420.52969
420.52977
420.52981
420.52965
420.52954
420.52945
420.52926
420.52926
420.52932
420.52943
420.52965
420.52977
420.52978
420.5294
420.52934
420.52926
420.52909
420.52908
420.52912
420.52923
420.52947
420.52963
420.52968
420.52939
420.52934
420.52926
420.52908
420.52906
420.5291
420.5292
420.52942
420.52958
420.52964
420.52945
420.5294
420.52932
420.52912
420.5291
420.52913
420.52922
420.52944
420.52959
420.52965
420.52956
420.52951
420.52943
420.52923
420.5292
420.52922
420.5293
420.52953
420.52969
420.52976
420.5297
420.52969
420.52965
420.52947
420.52942
420.52944
420.52953
420.52976
420.52993
420.53001
420.52981
420.52977
420.52977
420.52963
420.52958
420.52959
420.52969
420.52993
420.53008
420.53007
420.52991
420.52981
420.52978
420.52968
420.52964
420.52965
420.52976
420.53001
420.53007
420.53011
433.31319
433.31311
433.31311
433.31286
433.31285
433.31291
433.31302
433.31317
433.31327
433.31338
433.31311
433.31313
433.31301
433.31281
433.3128
433.31286
433.31298
433.31316
433.31324
433.31327
433.31311
433.31301
433.31291
433.31273
433.31273
433.31278
433.31289
433.31312
433.31324
433.31325
433.31286
433.31281
433.31273
433.31255
433.31255
433.31259
433.31269
433.31293
433.31309
433.31314
433.31285
433.3128
433.31273
433.31255
433.31253
433.31256
433.31265
433.31288
433.31304
433.31309
433.31291
433.31286
433.31278
433.31259
433.31256
433.31258
433.31266
433.31289
433.31304
433.3131
433.31302
433.31298
433.31289
433.31269
433.31265
433.31266
433.31274
433.31297
433.31313
433.31321
433.31317
433.31316
433.31312
433.31293
433.31288
433.31289
433.31297
433.31321
433.31338
433.31346
433.31327
433.31324
433.31324
433.31309
433.31304
433.31304
433.31313
433.31338
433.31354
433.31352
433.31338
433.31327
433.31325
433.31314
433.31309
433.3131
433.31321
433.31346
433.31352
433.31357
445.39254
445.39247
445.39247
445.39223
445.39221
445.39228
445.39238
445.39253
445.39263
445.39274
445.39247
445.39248
445.39237
445.39217
445.39217
445.39223
445.39234
445.39252
445.3926
445.39263
445.39247
445.39237
445.39228
445.3921
445.3921
445.39215
445.39225
445.39248
445.3926
445.3926
445.39223
445.39217
445.3921
445.39192
445.39192
445.39195
445.39205
445.39229
445.39244
445.39249
445.39221
445.39217
445.3921
445.39192
445.3919
445.39192
445.39201
445.39223
445.39239
445.39244
445.39228
445.39223
445.39215
445.39195
445.39192
445.39194
445.39201
445.39223
445.39238
445.39244
445.39238
445.39234
445.39225
445.39205
445.39201
445.39201
445.39208
445.39231
445.39247
445.39254
445.39253
445.39252
445.39248
445.39229
445.39223
445.39223
445.39231
445.39254
445.39272
445.3928
445.39263
445.3926
445.3926
445.39244
445.39239
445.39238
445.39247
445.39272
445.39288
445.39285
445.39274
445.39263
445.3926
445.39249
445.39244
445.39244
445.39254
445.3928
445.39285
445.3929
456.76506
456.76499
456.76499
456.76476
456.76475
456.76481
456.7649
456.76504
456.76515
456.76525
456.76499
456.76501
456.7649
456.76471
456.76471
456.76476
456.76486
456.76504
456.76511
456.76514
456.76499
456.7649
456.76481
456.76464
456.76464
456.76468
456.76478
456.765
456.76511
456.76512
456.76476
456.76471
456.76464
456.76447
456.76446
456.76449
456.76458
456.76481
456.76496
456.765
456.76475
456.76471
456.76464
456.76446
456.76444
456.76446
456.76453
456.76475
456.7649
456.76494
456.76481
456.76476
456.76468
456.76449
456.76446
456.76446
456.76453
456.76474
456.76488
456.76494
456.7649
456.76486
456.76478
456.76458
456.76453
456.76453
456.76458
456.7648
456.76496
456.76503
456.76504
456.76504
456.765
456.76481
456.76475
456.76474
456.7648
456.76504
456.76521
456.76529
456.76515
456.76511
456.76511
456.76496
456.7649
456.76488
456.76496
456.76521
456.76537
456.76533
456.76525
456.76514
456.76512
456.765
456.76494
456.76494
456.76503
456.76529
456.76533
456.76538
467.43357
467.4335
467.43351
467.43328
467.43327
467.43332
467.43341
467.43355
467.43364
467.43374
467.4335
467.43352
467.43342
467.43323
467.43323
467.43328
467.43337
467.43355
467.43361
467.43363
467.43351
467.43342
467.43334
467.43317
467.43317
467.43321
467.4333
467.43351
467.43361
467.43361
467.43328
467.43323
467.43317
467.433
467.433
467.43302
467.43309
467.43332
467.43346
467.4335
467.43327
467.43323
467.43317
467.433
467.43298
467.43298
467.43304
467.43325
467.43339
467.43343
467.43332
467.43328
467.43321
467.43302
467.43298
467.43298
467.43303
467.43323
467.43337
467.43341
467.43341
467.43337
467.4333
467.43309
467.43304
467.43303
467.43307
467.43328
467.43343
467.4335
467.43355
467.43355
467.43351
467.43332
467.43325
467.43323
467.43328
467.43351
467.43368
467.43376
467.43364
467.43361
467.43361
467.43346
467.43339
467.43337
467.43343
467.43368
467.43383
467.43379
467.43374
467.43363
467.43361
467.4335
467.43343
467.43341
467.4335
467.43376
467.43379
467.43383
477.40592
477.40586
477.40587
477.40564
477.40564
477.40569
477.40576
477.40589
477.40598
477.40608
477.40586
477.40588
477.40578
477.4056
477.4056
477.40565
477.40573
477.40589
477.40595
477.40597
477.40587
477.40578
477.40571
477.40555
477.40555
477.40558
477.40565
477.40586
477.40595
477.40594
477.40564
477.4056
477.40555
477.40539
477.40538
477.40539
477.40545
477.40567
477.4058
477.40583
477.40564
477.4056
477.40555
477.40538
477.40535
477.40535
477.4054
477.4056
477.40572
477.40576
477.40569
477.40565
477.40558
477.40539
477.40535
477.40534
477.40537
477.40557
477.40569
477.40573
477.40576
477.40573
477.40565
477.40545
477.4054
477.40537
477.40541
477.4056
477.40574
477.4058
477.40589
477.40589
477.40586
477.40567
477.4056
477.40557
477.4056
477.40582
477.40598
477.40605
477.40598
477.40595
477.40595
477.4058
477.40572
477.40569
477.40574
477.40598
477.40612
477.40608
477.40608
477.40597
477.40594
477.40583
477.40576
477.40573
477.4058
477.40605
477.40608
477.40612
486.69449
486.69442
486.69444
486.69422
486.69421
486.69426
486.69433
486.69444
486.69452
486.69461
486.69442
486.69445
486.69436
486.69419
486.69419
486.69422
486.6943
486.69445
486.69449
486.69451
486.69444
486.69436
486.69429
486.69414
486.69414
486.69416
486.69422
486.69441
486.69449
486.69448
486.69422
486.69419
486.69414
486.69399
486.69397
486.69398
486.69403
486.69423
486.69434
486.69437
486.69421
486.69419
486.69414
486.69397
486.69395
486.69394
486.69397
486.69415
486.69426
486.69429
486.69426
486.69422
486.69416
486.69398
486.69394
486.69391
486.69393
486.69411
486.69422
486.69425
486.69433
486.6943
486.69422
486.69403
486.69397
486.69393
486.69395
486.69413
486.69426
486.69431
486.69444
486.69445
486.69441
486.69423
486.69415
486.69411
486.69413
486.69434
486.69448
486.69455
486.69452
486.69449
486.69449
486.69434
486.69426
486.69422
486.69426
486.69448
486.69462
486.69457
486.69461
486.69451
486.69448
486.69437
486.69429
486.69425
486.69431
486.69455
486.69457
486.69461
495.31562
495.31557
495.31558
495.31538
495.31537
495.31541
495.31546
495.31557
495.31564
495.31572
495.31557
495.31559
495.31551
495.31535
495.31535
495.31538
495.31543
495.31557
495.31561
495.31562
495.31558
495.31551
495.31545
495.3153
495.3153
495.31531
495.31537
495.31554
495.31561
495.31559
495.31538
495.31535
495.3153
495.31516
495.31514
495.31514
495.31517
495.31536
495.31546
495.31548
495.31537
495.31535
495.3153
495.31514
495.31511
495.31509
495.31511
495.31528
495.31538
495.3154
495.31541
495.31538
495.31531
495.31514
495.31509
495.31506
495.31507
495.31523
495.31533
495.31535
495.31546
495.31543
495.31537
495.31517
495.31511
495.31507
495.31507
495.31524
495.31535
495.3154
495.31557
495.31557
495.31554
495.31536
495.31528
495.31523
495.31524
495.31542
495.31556
495.31563
495.31564
495.31561
495.31561
495.31546
495.31538
495.31533
495.31535
495.31556
495.31569
495.31563
495.31572
495.31562
495.31559
495.31548
495.3154
495.31535
495.3154
495.31563
495.31563
495.31567
503.28918
503.28913
503.28915
503.28896
503.28895
503.28898
503.28902
503.28912
503.28918
503.28925
503.28913
503.28916
503.28909
503.28893
503.28893
503.28895
503.289
503.28912
503.28915
503.28915
503.28915
503.28909
503.28903
503.28889
503.28889
503.28889
503.28893
503.28909
503.28915
503.28912
503.28896
503.28893
503.28889
503.28875
503.28874
503.28872
503.28875
503.28891
503.289
503.28901
503.28895
503.28893
503.28889
503.28874
503.28871
503.28868
503.28868
503.28883
503.28892
503.28893
503.28898
503.28895
503.28889
503.28872
503.28868
503.28863
503.28863
503.28877
503.28885
503.28887
503.28902
503.289
503.28893
503.28875
503.28868
503.28863
503.28861
503.28877
503.28886
503.2889
503.28912
503.28912
503.28909
503.28891
503.28883
503.28877
503.28877
503.28894
503.28906
503.28912
503.28918
503.28915
503.28915
503.289
503.28892
503.28885
503.28886
503.28906
503.28918
503.28912
503.28925
503.28915
503.28912
503.28901
503.28893
503.28887
503.2889
503.28912
503.28912
503.28915
510.63801
510.63797
510.63799
510.6378
510.63779
510.63782
510.63785
510.63793
510.63798
510.63805
510.63797
510.638
510.63793
510.63779
510.63778
510.63779
510.63783
510.63794
510.63795
510.63795
510.63799
510.63793
510.63788
510.63775
510.63774
510.63774
510.63777
510.63791
510.63796
510.63793
510.6378
510.63779
510.63775
510.63762
510.6376
510.63758
510.63759
510.63774
510.63781
510.63781
510.63779
510.63778
510.63774
510.6376
510.63756
510.63753
510.63752
510.63765
510.63772
510.63772
510.63782
510.63779
510.63774
510.63758
510.63753
510.63748
510.63745
510.63758
510.63765
510.63766
510.63785
510.63783
510.63777
510.63759
510.63752
510.63745
510.63743
510.63757
510.63765
510.63768
510.63793
510.63794
510.63791
510.63774
510.63765
510.63758
510.63757
510.63772
510.63783
510.63788
510.63798
510.63795
510.63796
510.63781
510.63772
510.63765
510.63765
510.63783
510.63793
510.63787
510.63805
510.63795
510.63793
510.63781
510.63772
510.63766
510.63768
510.63788
510.63787
510.6379
517.38748
517.38743
517.38746
517.38728
517.38727
517.38729
517.38731
517.38738
517.38742
517.38748
517.38743
517.38747
517.38741
517.38727
517.38726
517.38727
517.38729
517.38739
517.38739
517.38738
517.38746
517.38741
517.38737
517.38724
517.38723
517.38722
517.38723
517.38736
517.3874
517.38736
517.38728
517.38727
517.38724
517.38712
517.38709
517.38706
517.38706
517.38719
517.38725
517.38725
517.38727
517.38726
517.38723
517.38709
517.38706
517.38701
517.38699
517.38711
517.38716
517.38716
517.38729
517.38727
517.38722
517.38706
517.38701
517.38695
517.38692
517.38703
517.38709
517.38708
517.38731
517.38729
517.38723
517.38706
517.38699
517.38692
517.38688
517.387
517.38707
517.3871
517.38738
517.38739
517.38736
517.38719
517.38711
517.38703
517.387
517.38714
517.38724
517.38728
517.38742
517.38739
517.3874
517.38725
517.38716
517.38709
517.38707
517.38724
517.38733
517.38726
517.38748
517.38738
517.38736
517.38725
517.38716
517.38708
517.3871
517.38728
517.38726
517.38728
523.565
523.56497
523.56499
523.56483
523.56481
523.56482
523.56484
523.56489
523.56492
523.56497
523.56497
523.565
523.56495
523.56482
523.56481
523.56481
523.56482
523.5649
523.5649
523.56488
523.56499
523.56495
523.56491
523.56479
523.56478
523.56476
523.56476
523.56488
523.5649
523.56486
523.56483
523.56482
523.56479
523.56467
523.56465
523.56461
523.5646
523.56471
523.56476
523.56475
523.56481
523.56481
523.56478
523.56465
523.56461
523.56456
523.56452
523.56462
523.56467
523.56466
523.56482
523.56481
523.56476
523.56461
523.56456
523.56449
523.56445
523.56454
523.56458
523.56458
523.56484
523.56482
523.56476
523.5646
523.56452
523.56445
523.5644
523.5645
523.56456
523.56458
523.56489
523.5649
523.56488
523.56471
523.56462
523.56454
523.5645
523.56462
523.56471
523.56475
523.56492
523.5649
523.5649
523.56476
523.56467
523.56458
523.56456
523.56471
523.56479
523.56472
523.56497
523.56488
523.56486
523.56475
523.56466
523.56458
523.56458
523.56475
523.56472
523.56474
529.19966
529.19963
529.19965
529.1995
529.19949
529.19949
529.19949
529.19954
529.19956
529.1996
529.19963
529.19967
529.19962
529.1995
529.19949
529.19948
529.19948
529.19955
529.19954
529.19952
529.19965
529.19962
529.19959
529.19948
529.19946
529.19943
529.19943
529.19952
529.19954
529.19949
529.1995
529.1995
529.19948
529.19936
529.19934
529.19929
529.19927
529.19937
529.1994
529.19939
529.19949
529.19949
529.19946
529.19934
529.19929
529.19924
529.19919
529.19928
529.19931
529.19929
529.19949
529.19948
529.19943
529.19929
529.19924
529.19916
529.19911
529.19919
529.19922
529.19921
529.19949
529.19948
529.19943
529.19927
529.19919
529.19911
529.19906
529.19914
529.19919
529.1992
529.19954
529.19955
529.19952
529.19937
529.19928
529.19919
529.19914
529.19925
529.19932
529.19936
529.19956
529.19954
529.19954
529.1994
529.19931
529.19922
529.19919
529.19932
529.19939
529.19932
529.1996
529.19952
529.19949
529.19939
529.19929
529.19921
529.1992
529.19936
529.19932
529.19933
534.32176
534.32173
534.32176
534.32161
534.3216
534.32159
534.32159
534.32162
534.32163
534.32167
534.32173
534.32177
534.32172
534.32161
534.3216
534.32158
534.32158
534.32163
534.32162
534.32159
534.32176
534.32172
534.3217
534.32159
534.32157
534.32154
534.32153
534.32161
534.32162
534.32157
534.32161
534.32161
534.32159
534.32149
534.32146
534.32141
534.32138
534.32146
534.32149
534.32147
534.3216
534.3216
534.32157
534.32146
534.32142
534.32135
534.3213
534.32137
534.32139
534.32137
534.32159
534.32158
534.32154
534.32141
534.32135
534.32128
534.32122
534.32128
534.3213
534.32128
534.32159
534.32158
534.32153
534.32138
534.3213
534.32122
534.32115
534.32122
534.32126
534.32127
534.32162
534.32163
534.32161
534.32146
534.32137
534.32128
534.32122
534.32132
534.32138
534.32141
534.32163
534.32162
534.32162
534.32149
534.32139
534.3213
534.32126
534.32138
534.32144
534.32137
534.32167
534.32159
534.32157
534.32147
534.32137
534.32128
534.32127
534.32141
534.32137
534.32137
538.96247
538.96245
538.96247
538.96234
538.96232
538.96231
538.9623
538.96232
538.96233
538.96236
538.96245
538.96248
538.96244
538.96234
538.96232
538.9623
538.96229
538.96234
538.96231
538.96228
538.96247
538.96244
538.96242
538.96232
538.9623
538.96227
538.96224
538.96231
538.96231
538.96226
538.96234
538.96234
538.96232
538.96223
538.96219
538.96214
538.9621
538.96217
538.96219
538.96216
538.96232
538.96232
538.9623
538.96219
538.96215
538.96208
538.96202
538.96208
538.96209
538.96207
538.96231
538.9623
538.96227
538.96214
538.96208
538.962
538.96194
538.96199
538.962
538.96198
538.9623
538.96229
538.96224
538.9621
538.96202
538.96194
538.96187
538.96193
538.96195
538.96195
538.96232
538.96234
538.96231
538.96217
538.96208
538.96199
538.96193
538.962
538.96205
538.96208
538.96233
538.96231
538.96231
538.96219
538.96209
538.962
538.96195
538.96205
538.96211
538.96203
538.96236
538.96228
538.96226
538.96216
538.96207
538.96198
538.96195
538.96208
538.96203
538.96204
543.15349
543.15348
543.1535
543.15338
543.15336
543.15334
543.15332
543.15334
543.15334
543.15336
543.15348
543.15351
543.15347
543.15338
543.15336
543.15334
543.15331
543.15335
543.15332
543.15329
543.1535
543.15347
543.15345
543.15337
543.15334
543.1533
543.15327
543.15333
543.15332
543.15327
543.15338
543.15338
543.15337
543.15327
543.15324
543.15319
543.15314
543.1532
543.1532
543.15317
543.15336
543.15336
543.15334
543.15324
543.15319
543.15312
543.15306
543.15311
543.15311
543.15308
543.15334
543.15334
543.1533
543.15319
543.15312
543.15304
543.15297
543.15301
543.15302
543.15299
543.15332
543.15331
543.15327
543.15314
543.15306
543.15297
543.1529
543.15295
543.15296
543.15296
543.15334
543.15335
543.15333
543.1532
543.15311
543.15301
543.15295
543.15301
543.15305
543.15307
543.15334
543.15332
543.15332
543.1532
543.15311
543.15302
543.15296
543.15305
543.1531
543.15302
543.15336
543.15329
543.15327
543.15317
543.15308
543.15299
543.15296
543.15307
543.15302
543.15302
546.92676
546.92674
546.92676
546.92665
546.92663
546.92661
546.92659
546.9266
546.92659
546.92661
546.92674
546.92678
546.92675
546.92666
546.92664
546.92661
546.92658
546.92661
546.92657
546.92654
546.92676
546.92675
546.92673
546.92665
546.92662
546.92658
546.92654
546.92659
546.92657
546.92652
546.92665
546.92666
546.92665
546.92656
546.92653
546.92647
546.92642
546.92646
546.92646
546.92643
546.92663
546.92664
546.92662
546.92653
546.92648
546.92641
546.92634
546.92638
546.92637
546.92634
546.92661
546.92661
546.92658
546.92647
546.92641
546.92633
546.92625
546.92628
546.92628
546.92625
546.92659
546.92658
546.92654
546.92642
546.92634
546.92625
546.92617
546.92621
546.92622
546.92621
546.9266
546.92661
546.92659
546.92646
546.92638
546.92628
546.92621
546.92627
546.9263
546.92631
546.92659
546.92657
546.92657
546.92646
546.92637
546.92628
546.92622
546.9263
546.92633
546.92626
546.92661
546.92654
546.92652
546.92643
546.92634
546.92625
546.92621
546.92631
546.92626
546.92626
550.31414
550.31413
550.31415
550.31405
550.31403
550.314
550.31398
550.31398
550.31397
550.31398
550.31413
550.31416
550.31414
550.31406
550.31403
550.314
550.31397
550.31399
550.31395
550.31392
550.31415
550.31414
550.31412
550.31405
550.31402
550.31397
550.31393
550.31397
550.31395
550.3139
550.31405
550.31406
550.31405
550.31397
550.31393
550.31387
550.31382
550.31385
550.31385
550.31381
550.31403
550.31403
550.31402
550.31393
550.31388
550.31381
550.31374
550.31377
550.31376
550.31372
550.314
550.314
550.31397
550.31387
550.31381
550.31373
550.31365
550.31367
550.31367
550.31364
550.31398
550.31397
550.31393
550.31382
550.31374
550.31365
550.31358
550.3136
550.31361
550.3136
550.31398
550.31399
550.31397
550.31385
550.31377
550.31367
550.3136
550.31365
550.31367
550.31369
550.31397
550.31395
550.31395
550.31385
550.31376
550.31367
550.31361
550.31367
550.3137
550.31363
550.31398
550.31392
550.3139
550.31381
550.31372
550.31364
550.3136
550.31369
550.31363
550.31363
553.34726
553.34725
553.34727
553.34717
553.34715
553.34712
553.3471
553.34709
553.34708
553.34709
553.34725
553.34728
553.34725
553.34718
553.34716
553.34712
553.34709
553.3471
553.34706
553.34703
553.34727
553.34725
553.34724
553.34717
553.34714
553.3471
553.34705
553.34708
553.34706
553.34701
553.34717
553.34718
553.34717
553.3471
553.34706
553.347
553.34695
553.34697
553.34696
553.34693
553.34715
553.34716
553.34714
553.34706
553.34702
553.34694
553.34687
553.34689
553.34688
553.34684
553.34712
553.34712
553.3471
553.347
553.34694
553.34686
553.34679
553.3468
553.34679
553.34676
553.3471
553.34709
553.34705
553.34695
553.34687
553.34679
553.34671
553.34673
553.34673
553.34671
553.34709
553.3471
553.34708
553.34697
553.34689
553.3468
553.34673
553.34676
553.34678
553.34679
553.34708
553.34706
553.34706
553.34696
553.34688
553.34679
553.34673
553.34678
553.34681
553.34674
553.34709
553.34703
553.34701
553.34693
553.34684
553.34676
553.34671
553.34679
553.34674
553.34673
556.05724
556.05723
556.05724
556.05716
556.05714
556.05711
556.05708
556.05707
556.05705
556.05706
556.05723
556.05726
556.05724
556.05717
556.05715
556.05711
556.05707
556.05708
556.05704
556.05701
556.05724
556.05724
556.05722
556.05716
556.05713
556.05708
556.05704
556.05706
556.05703
556.05698
556.05716
556.05717
556.05716
556.05709
556.05706
556.057
556.05694
556.05696
556.05695
556.05691
556.05714
556.05715
556.05713
556.05706
556.05701
556.05694
556.05687
556.05688
556.05686
556.05683
556.05711
556.05711
556.05708
556.057
556.05694
556.05686
556.05679
556.05679
556.05678
556.05675
556.05708
556.05707
556.05704
556.05694
556.05687
556.05679
556.05671
556.05672
556.05672
556.0567
556.05707
556.05708
556.05706
556.05696
556.05688
556.05679
556.05672
556.05675
556.05676
556.05677
556.05705
556.05704
556.05703
556.05695
556.05686
556.05678
556.05672
556.05676
556.05678
556.05672
556.05706
556.05701
556.05698
556.05691
556.05683
556.05675
556.0567
556.05677
556.05672
556.05671
558.47459
558.47459
558.4746
558.47452
558.4745
558.47447
558.47444
558.47443
558.47441
558.47441
558.47459
558.47461
558.47459
558.47453
558.47451
558.47447
558.47443
558.47443
558.47439
558.47436
558.4746
558.47459
558.47458
558.47452
558.4745
558.47445
558.4744
558.47442
558.47439
558.47434
558.47452
558.47453
558.47452
558.47446
558.47443
558.47437
558.47431
558.47432
558.47431
558.47427
558.4745
558.47451
558.4745