/*--------------------------------*- C++ -*----------------------------------*\
| =========                 |                                                 |
| \\      /  F ield         | OpenFOAM: The Open Source CFD Toolbox           |
|  \\    /   O peration     | Version:  v2106                                 |
|   \\  /    A nd           | Website:  www.openfoam.com                      |
|    \\/     M anipulation  |                                                 |
\*---------------------------------------------------------------------------*/
FoamFile
{
    version     2.0;
    format      ascii;
    arch        "LSB;label=32;scalar=64";
    class       volScalarField;
    location    "12.5";
    object      calFieldValue;
}
// * * * * * * * * * * * * * * * * * * * * * * * * * * * * * * * * * * * * * //

dimensions      [0 0 0 1 0 0 0];

internalField   nonuniform List<scalar> 
4000
(
272.37312
272.37312
272.37312
272.37312
272.37312
272.37312
272.37312
272.37312
272.37312
272.37312
272.37312
272.37312
272.37312
272.37312
272.37312
272.37312
272.37312
272.37312
272.37312
272.37312
272.37312
272.37312
272.37312
272.37312
272.37312
272.37312
272.37312
272.37312
272.37312
272.37312
272.37312
272.37312
272.37312
272.37312
272.37312
272.37312
272.37312
272.37312
272.37312
272.37312
272.37312
272.37312
272.37312
272.37312
272.37312
272.37312
272.37312
272.37312
272.37312
272.37312
272.37312
272.37312
272.37312
272.37312
272.37312
272.37312
272.37312
272.37312
272.37312
272.37312
272.37312
272.37312
272.37312
272.37312
272.37312
272.37312
272.37312
272.37312
272.37312
272.37312
272.37312
272.37312
272.37312
272.37312
272.37312
272.37312
272.37312
272.37312
272.37312
272.37312
272.37312
272.37312
272.37312
272.37312
272.37312
272.37312
272.37312
272.37312
272.37312
272.37312
272.37312
272.37312
272.37312
272.37312
272.37312
272.37312
272.37312
272.37312
272.37312
272.37312
278.16116
278.16116
278.16116
278.16117
278.16117
278.16114
278.16114
278.16116
278.16116
278.16116
278.16116
278.16116
278.16116
278.16117
278.16117
278.16114
278.16114
278.16114
278.16116
278.16116
278.16116
278.16116
278.16117
278.16117
278.16114
278.16114
278.16114
278.16114
278.16116
278.16116
278.16117
278.16117
278.16117
278.16114
278.16114
278.16114
278.16114
278.16114
278.16116
278.16116
278.16117
278.16117
278.16114
278.16114
278.16114
278.16114
278.16114
278.16114
278.16114
278.16116
278.16114
278.16114
278.16114
278.16114
278.16114
278.16114
278.16114
278.16114
278.16117
278.16117
278.16114
278.16114
278.16114
278.16114
278.16114
278.16114
278.16114
278.16117
278.16117
278.16117
278.16116
278.16114
278.16114
278.16114
278.16114
278.16114
278.16117
278.16117
278.16117
278.16119
278.16116
278.16116
278.16116
278.16116
278.16114
278.16117
278.16117
278.16117
278.16119
278.16119
278.16116
278.16116
278.16116
278.16116
278.16116
278.16117
278.16117
278.16119
278.16119
278.16119
283.96184
283.96184
283.96184
283.96184
283.96182
283.96181
283.96181
283.96181
283.96181
283.96181
283.96184
283.96184
283.96184
283.96184
283.96182
283.96181
283.96181
283.96181
283.96181
283.96183
283.96184
283.96184
283.96184
283.96182
283.96182
283.96179
283.96181
283.96181
283.96181
283.96181
283.96184
283.96184
283.96182
283.96182
283.96179
283.96179
283.96179
283.96181
283.96181
283.96181
283.96182
283.96182
283.96182
283.96179
283.96179
283.96179
283.96179
283.96182
283.96181
283.96181
283.96181
283.96181
283.96179
283.96179
283.96179
283.96179
283.96179
283.96182
283.96182
283.96184
283.96181
283.96181
283.96181
283.96179
283.96179
283.96179
283.96182
283.96182
283.96184
283.96184
283.96181
283.96181
283.96181
283.96181
283.96182
283.96182
283.96182
283.96184
283.96187
283.96187
283.96181
283.96181
283.96181
283.96181
283.96181
283.96182
283.96184
283.96187
283.96187
283.96187
283.96181
283.96183
283.96181
283.96181
283.96181
283.96184
283.96184
283.96187
283.96187
283.96189
289.78357
289.78357
289.78355
289.78355
289.78352
289.78352
289.78352
289.78351
289.78354
289.78354
289.78357
289.78357
289.78355
289.78355
289.78352
289.78352
289.78352
289.78351
289.78354
289.78354
289.78355
289.78355
289.78355
289.78353
289.7835
289.7835
289.78349
289.78352
289.78352
289.78354
289.78355
289.78355
289.78353
289.78353
289.7835
289.7835
289.7835
289.78352
289.78352
289.78355
289.78352
289.78352
289.7835
289.7835
289.78348
289.78347
289.7835
289.78352
289.78352
289.78355
289.78352
289.78352
289.7835
289.7835
289.78347
289.78347
289.7835
289.78353
289.78355
289.78355
289.78352
289.78352
289.78349
289.7835
289.7835
289.7835
289.78353
289.78355
289.78358
289.78358
289.78351
289.78351
289.78352
289.78352
289.78352
289.78353
289.78355
289.78358
289.7836
289.7836
289.78354
289.78354
289.78352
289.78352
289.78352
289.78355
289.78358
289.7836
289.7836
289.78363
289.78354
289.78354
289.78354
289.78355
289.78355
289.78355
289.78358
289.7836
289.78363
289.78363
295.63473
295.63474
295.63471
295.63472
295.63469
295.63469
295.63468
295.63468
295.6347
295.6347
295.63474
295.63471
295.63471
295.63469
295.63466
295.63466
295.63466
295.63468
295.6347
295.6347
295.63471
295.63471
295.63469
295.6347
295.63467
295.63466
295.63466
295.63468
295.63468
295.63471
295.63472
295.63469
295.6347
295.63467
295.63465
295.63464
295.63467
295.63469
295.63469
295.63471
295.63469
295.63466
295.63467
295.63465
295.63464
295.63464
295.63467
295.63469
295.63472
295.63472
295.63469
295.63466
295.63466
295.63464
295.63464
295.63464
295.63467
295.63469
295.63472
295.63474
295.63468
295.63466
295.63466
295.63467
295.63467
295.63467
295.6347
295.63472
295.63475
295.63477
295.63468
295.63468
295.63468
295.63469
295.63469
295.63469
295.63472
295.63477
295.63477
295.6348
295.6347
295.6347
295.63468
295.63469
295.63472
295.63472
295.63475
295.63477
295.63479
295.63482
295.6347
295.6347
295.63471
295.63471
295.63472
295.63474
295.63477
295.6348
295.63482
295.63482
301.52372
301.52373
301.5237
301.52371
301.52368
301.52368
301.52367
301.52369
301.52369
301.52369
301.52373
301.52372
301.5237
301.52368
301.52366
301.52365
301.52367
301.52367
301.52369
301.52372
301.5237
301.5237
301.52368
301.52369
301.52366
301.52365
301.52365
301.52367
301.5237
301.5237
301.52371
301.52368
301.52369
301.52367
301.52364
301.52363
301.52366
301.52368
301.5237
301.52373
301.52368
301.52366
301.52366
301.52364
301.52361
301.52364
301.52366
301.52369
301.52371
301.52373
301.52368
301.52365
301.52365
301.52363
301.52364
301.52364
301.52369
301.52371
301.52374
301.52376
301.52367
301.52367
301.52365
301.52366
301.52366
301.52369
301.52372
301.52374
301.52379
301.52379
301.52369
301.52367
301.52367
301.52368
301.52369
301.52371
301.52374
301.52379
301.52382
301.52384
301.52369
301.52369
301.5237
301.5237
301.52371
301.52374
301.52379
301.52382
301.52384
301.52387
301.52369
301.52372
301.5237
301.52373
301.52373
301.52376
301.52379
301.52384
301.52387
301.52387
307.45892
307.45892
307.4589
307.45891
307.45888
307.45885
307.45887
307.45889
307.45889
307.45891
307.45892
307.45889
307.4589
307.45888
307.45885
307.45885
307.45884
307.45887
307.45889
307.45892
307.4589
307.4589
307.45888
307.45886
307.45883
307.45883
307.45885
307.45887
307.45889
307.45892
307.45891
307.45888
307.45886
307.45884
307.45884
307.45884
307.45886
307.45888
307.4589
307.45893
307.45888
307.45885
307.45883
307.45884
307.45881
307.45881
307.45886
307.45889
307.45894
307.45896
307.45885
307.45885
307.45883
307.45884
307.45881
307.45884
307.45889
307.45894
307.45897
307.45899
307.45887
307.45884
307.45885
307.45886
307.45886
307.45889
307.45895
307.45897
307.45902
307.45905
307.45889
307.45887
307.45887
307.45888
307.45889
307.45894
307.45897
307.45902
307.45905
307.45907
307.45889
307.45889
307.45889
307.4589
307.45894
307.45897
307.45902
307.45905
307.45909
307.45909
307.45891
307.45892
307.45892
307.45893
307.45896
307.45899
307.45905
307.45907
307.45909
307.45912
313.44863
313.44864
313.44861
313.4486
313.44857
313.44857
313.44859
313.44861
313.44863
313.44863
313.44864
313.44861
313.44862
313.4486
313.44857
313.44857
313.44856
313.44861
313.44863
313.44866
313.44861
313.44862
313.4486
313.44858
313.44855
313.44855
313.44857
313.44859
313.44864
313.44864
313.4486
313.4486
313.44858
313.44856
313.44853
313.44856
313.44858
313.44863
313.44865
313.44868
313.44857
313.44857
313.44855
313.44853
313.44853
313.44853
313.44859
313.44864
313.44868
313.44871
313.44857
313.44857
313.44855
313.44856
313.44853
313.44856
313.44862
313.44867
313.44872
313.44874
313.44859
313.44856
313.44857
313.44858
313.44859
313.44862
313.44867
313.44875
313.44877
313.4488
313.44861
313.44861
313.44859
313.44863
313.44864
313.44867
313.44875
313.4488
313.44882
313.44884
313.44863
313.44863
313.44864
313.44865
313.44868
313.44872
313.44877
313.44882
313.44884
313.44887
313.44863
313.44866
313.44864
313.44868
313.44871
313.44874
313.4488
313.44884
313.44887
313.44889
319.50115
319.50113
319.50111
319.50112
319.50109
319.50109
319.50111
319.50113
319.50115
319.50118
319.50113
319.50113
319.50111
319.50109
319.50107
319.50106
319.50108
319.50113
319.50116
319.50118
319.50111
319.50111
319.50109
319.50107
319.50104
319.50107
319.50109
319.50114
319.50116
319.50119
319.50112
319.50109
319.50107
319.50105
319.50105
319.50105
319.50111
319.50115
319.50117
319.5012
319.50109
319.50107
319.50104
319.50105
319.50103
319.50106
319.50111
319.50116
319.50121
319.50124
319.50109
319.50106
319.50107
319.50105
319.50106
319.50109
319.50117
319.50122
319.50127
319.5013
319.50111
319.50108
319.50109
319.50111
319.50111
319.50117
319.50123
319.50131
319.50133
319.50138
319.50113
319.50113
319.50114
319.50115
319.50116
319.50122
319.50131
319.50135
319.5014
319.5014
319.50115
319.50116
319.50116
319.50117
319.50121
319.50127
319.50133
319.5014
319.50142
319.50145
319.50118
319.50118
319.50119
319.5012
319.50124
319.5013
319.50138
319.5014
319.50145
319.50145
325.62463
325.62464
325.62461
325.62463
325.6246
325.6246
325.62462
325.62464
325.62469
325.62469
325.62464
325.62464
325.62462
325.62461
325.62458
325.62457
325.62462
325.62464
325.62469
325.62472
325.62461
325.62462
325.6246
325.62458
325.62456
325.62458
325.62461
325.62465
325.6247
325.62473
325.62463
325.62461
325.62458
325.62457
325.62454
325.62457
325.62462
325.62467
325.62471
325.62474
325.6246
325.62458
325.62456
325.62454
325.62454
325.62457
325.62465
325.6247
325.62475
325.62478
325.6246
325.62457
325.62458
325.62457
325.62457
325.62463
325.62469
325.62477
325.62481
325.62487
325.62462
325.62462
325.62461
325.62462
325.62465
325.62469
325.62477
325.62485
325.6249
325.62492
325.62464
325.62464
325.62465
325.62467
325.6247
325.62477
325.62485
325.62493
325.62495
325.62497
325.62469
325.62469
325.6247
325.62471
325.62475
325.62481
325.6249
325.62495
325.62499
325.62502
325.62469
325.62472
325.62473
325.62474
325.62478
325.62487
325.62492
325.62497
325.62502
325.62502
331.82726
331.82726
331.82724
331.82723
331.82723
331.82722
331.82724
331.82729
331.82732
331.82734
331.82726
331.82723
331.82722
331.82723
331.8272
331.8272
331.82725
331.82727
331.82732
331.82735
331.82724
331.82722
331.8272
331.82721
331.82718
331.82718
331.82723
331.82728
331.82733
331.82735
331.82723
331.82723
331.82721
331.82719
331.82717
331.8272
331.82728
331.82732
331.82737
331.82739
331.82723
331.8272
331.82718
331.82717
331.82717
331.8272
331.82728
331.82736
331.82741
331.82743
331.82722
331.8272
331.82718
331.8272
331.8272
331.82726
331.82735
331.82742
331.82747
331.82752
331.82724
331.82725
331.82723
331.82728
331.82728
331.82735
331.82743
331.82751
331.82758
331.82761
331.82729
331.82727
331.82728
331.82732
331.82736
331.82742
331.82751
331.82759
331.82763
331.82765
331.82732
331.82732
331.82733
331.82737
331.82741
331.82747
331.82758
331.82763
331.82767
331.8277
331.82734
331.82735
331.82735
331.82739
331.82743
331.82752
331.82761
331.82765
331.8277
331.8277
338.11697
338.11695
338.11693
338.11694
338.11692
338.11692
338.11697
338.11701
338.11704
338.11706
338.11695
338.11695
338.11694
338.11692
338.1169
338.11692
338.11697
338.11702
338.11707
338.11709
338.11693
338.11694
338.11692
338.1169
338.11688
338.1169
338.11696
338.11703
338.11707
338.1171
338.11694
338.11692
338.1169
338.11689
338.11689
338.11692
338.117
338.11705
338.11709
338.11714
338.11692
338.1169
338.11688
338.11689
338.11689
338.11693
338.11701
338.11709
338.11716
338.11719
338.11692
338.11692
338.1169
338.11692
338.11693
338.11699
338.1171
338.11718
338.11725
338.11728
338.11697
338.11697
338.11696
338.117
338.11701
338.1171
338.11719
338.11729
338.11734
338.11736
338.11701
338.11702
338.11703
338.11705
338.11709
338.11718
338.11729
338.11737
338.11741
338.11743
338.11704
338.11707
338.11707
338.11709
338.11716
338.11725
338.11734
338.11741
338.11745
338.11748
338.11706
338.11709
338.1171
338.11714
338.11719
338.11728
338.11736
338.11743
338.11748
338.11748
344.50159
344.50157
344.50155
344.50157
344.50154
344.50157
344.50159
344.50164
344.50169
344.50171
344.50157
344.50157
344.50156
344.50155
344.50152
344.50154
344.5016
344.50164
344.50169
344.50175
344.50155
344.50156
344.50154
344.50153
344.5015
344.50153
344.50161
344.50165
344.5017
344.50175
344.50157
344.50155
344.50153
344.50151
344.50152
344.50155
344.50163
344.5017
344.50177
344.5018
344.50154
344.50152
344.5015
344.50152
344.50152
344.50158
344.50167
344.50177
344.50182
344.50187
344.50157
344.50154
344.50153
344.50155
344.50158
344.50164
344.50176
344.50184
344.50191
344.50196
344.50159
344.5016
344.50161
344.50163
344.50167
344.50176
344.50187
344.50195
344.50202
344.50205
344.50164
344.50164
344.50165
344.5017
344.50177
344.50184
344.50195
344.50205
344.5021
344.50212
344.50169
344.50169
344.5017
344.50177
344.50182
344.50191
344.50202
344.5021
344.50214
344.50216
344.50171
344.50175
344.50175
344.5018
344.50187
344.50196
344.50205
344.50212
344.50216
344.50219
350.98874
350.98874
350.98872
350.98874
350.98872
350.98871
350.98876
350.98881
350.98886
350.98888
350.98874
350.98872
350.9887
350.98872
350.98869
350.98872
350.98877
350.98882
350.98889
350.98892
350.98872
350.9887
350.98869
350.98867
350.98867
350.9887
350.98878
350.98883
350.9889
350.98893
350.98874
350.98872
350.98867
350.98869
350.98869
350.98872
350.9888
350.98888
350.98895
350.98898
350.98872
350.98869
350.98867
350.98869
350.9887
350.98876
350.98885
350.98895
350.98902
350.98907
350.98871
350.98872
350.9887
350.98872
350.98876
350.98882
350.98894
350.98904
350.98912
350.98917
350.98876
350.98877
350.98878
350.9888
350.98885
350.98894
350.98905
350.98916
350.98923
350.98928
350.98881
350.98882
350.98883
350.98888
350.98895
350.98904
350.98916
350.98926
350.9893
350.98932
350.98886
350.98889
350.9889
350.98895
350.98902
350.98912
350.98923
350.9893
350.98934
350.98937
350.98888
350.98892
350.98893
350.98898
350.98907
350.98917
350.98928
350.98932
350.98937
350.98939
357.58578
357.58576
357.58577
357.58576
357.58576
357.58576
357.58581
357.58589
357.58594
357.58596
357.58576
357.58576
357.58575
357.58574
357.58574
357.58577
357.58582
357.58589
357.58594
357.586
357.58577
357.58575
357.58573
357.58572
357.58573
357.58575
357.58583
357.58591
357.58595
357.58601
357.58576
357.58574
357.58572
357.58574
357.58574
357.58577
357.58588
357.58596
357.58603
357.58606
357.58576
357.58574
357.58573
357.58574
357.58575
357.58581
357.58593
357.58603
357.5861
357.58615
357.58576
357.58577
357.58575
357.58577
357.58581
357.5859
357.58602
357.58612
357.5862
357.58625
357.58581
357.58582
357.58583
357.58588
357.58593
357.58602
357.58616
357.58627
357.58634
357.58636
357.58589
357.58589
357.58591
357.58596
357.58603
357.58612
357.58627
357.58634
357.58641
357.58643
357.58594
357.58594
357.58595
357.58603
357.5861
357.5862
357.58634
357.58641
357.58645
357.58648
357.58596
357.586
357.58601
357.58606
357.58615
357.58625
357.58636
357.58643
357.58648
357.5865
364.29973
364.29971
364.29972
364.29971
364.29972
364.29974
364.29979
364.29987
364.29992
364.29994
364.29971
364.29971
364.2997
364.29969
364.29969
364.29972
364.2998
364.29985
364.29992
364.29995
364.29972
364.2997
364.29968
364.29967
364.29968
364.29973
364.29982
364.29989
364.29994
364.29999
364.29971
364.29969
364.29967
364.29969
364.2997
364.29976
364.29987
364.29994
364.30001
364.30004
364.29972
364.29969
364.29968
364.2997
364.29971
364.2998
364.29991
364.30001
364.30009
364.30014
364.29974
364.29972
364.29973
364.29976
364.2998
364.29989
364.30001
364.30011
364.30021
364.30026
364.29979
364.2998
364.29982
364.29987
364.29991
364.30001
364.30015
364.30026
364.30033
364.30038
364.29987
364.29985
364.29989
364.29994
364.30001
364.30011
364.30026
364.30036
364.30042
364.30044
364.29992
364.29992
364.29994
364.30001
364.30009
364.30021
364.30033
364.30042
364.30047
364.30049
364.29994
364.29995
364.29999
364.30004
364.30014
364.30026
364.30038
364.30044
364.30049
364.30052
371.13718
371.13719
371.13717
371.13719
371.1372
371.13722
371.13728
371.13735
371.1374
371.13742
371.13719
371.13716
371.13718
371.13717
371.13718
371.1372
371.13728
371.13736
371.13743
371.13746
371.13717
371.13718
371.13717
371.13716
371.13716
371.13722
371.1373
371.13737
371.13745
371.1375
371.13719
371.13717
371.13716
371.13717
371.13718
371.13724
371.13735
371.13745
371.13753
371.13755
371.1372
371.13718
371.13716
371.13718
371.13722
371.13728
371.13742
371.13753
371.1376
371.13765
371.13722
371.1372
371.13722
371.13724
371.13728
371.13738
371.13752
371.13765
371.13773
371.13778
371.13728
371.13728
371.1373
371.13735
371.13742
371.13752
371.13767
371.1378
371.13787
371.13789
371.13735
371.13736
371.13737
371.13745
371.13753
371.13765
371.1378
371.1379
371.13794
371.13798
371.1374
371.13743
371.13745
371.13753
371.1376
371.13773
371.13787
371.13794
371.13801
371.13803
371.13742
371.13746
371.1375
371.13755
371.13765
371.13778
371.13789
371.13798
371.13803
371.13806
378.1043
378.10431
378.10429
378.10431
378.10432
378.10434
378.1044
378.10447
378.10455
378.10457
378.10431
378.10428
378.1043
378.10429
378.1043
378.10432
378.10441
378.10448
378.10456
378.10461
378.10429
378.1043
378.10428
378.10428
378.10428
378.10434
378.10442
378.10452
378.1046
378.10462
378.10431
378.10429
378.10428
378.10429
378.1043
378.10436
378.1045
378.10458
378.10465
378.1047
378.10432
378.1043
378.10428
378.1043
378.10434
378.10443
378.10455
378.10468
378.10475
378.1048
378.10434
378.10432
378.10434
378.10436
378.10443
378.10453
378.10467
378.10481
378.10488
378.10493
378.1044
378.10441
378.10442
378.1045
378.10455
378.10467
378.10482
378.10495
378.10502
378.10507
378.10447
378.10448
378.10452
378.10458
378.10468
378.10481
378.10495
378.10505
378.10512
378.10514
378.10455
378.10456
378.1046
378.10465
378.10475
378.10488
378.10502
378.10512
378.10516
378.10519
378.10457
378.10461
378.10462
378.1047
378.1048
378.10493
378.10507
378.10514
378.10519
378.10521
385.20654
385.20655
385.20653
385.20656
385.20656
385.20659
385.20667
385.20675
385.2068
385.20682
385.20655
385.20653
385.20652
385.20654
385.20654
385.20657
385.20668
385.20675
385.20683
385.20686
385.20653
385.20652
385.20653
385.20652
385.20653
385.20659
385.2067
385.20677
385.20685
385.2069
385.20656
385.20654
385.20652
385.20654
385.20655
385.20664
385.20675
385.20685
385.20693
385.20698
385.20656
385.20654
385.20653
385.20655
385.20659
385.20668
385.20683
385.20693
385.20703
385.20708
385.20659
385.20657
385.20659
385.20664
385.20668
385.20681
385.20695
385.20708
385.20716
385.20721
385.20667
385.20668
385.2067
385.20675
385.20683
385.20695
385.2071
385.20723
385.2073
385.20735
385.20675
385.20675
385.20677
385.20685
385.20693
385.20708
385.20723
385.20733
385.2074
385.20742
385.2068
385.20683
385.20685
385.20693
385.20703
385.20716
385.2073
385.2074
385.20744
385.20749
385.20682
385.20686
385.2069
385.20698
385.20708
385.20721
385.20735
385.20742
385.20749
385.20751
392.44866
392.44866
392.44865
392.44867
392.44868
392.44873
392.44879
392.44889
392.44894
392.44896
392.44866
392.44864
392.44866
392.44865
392.44866
392.44872
392.4488
392.4489
392.44898
392.449
392.44865
392.44866
392.44865
392.44866
392.44867
392.44873
392.44884
392.44892
392.44899
392.44905
392.44867
392.44865
392.44866
392.44866
392.44869
392.44878
392.4489
392.449
392.44907
392.44912
392.44868
392.44866
392.44867
392.44869
392.44874
392.44883
392.44897
392.4491
392.44918
392.44923
392.44873
392.44872
392.44873
392.44878
392.44883
392.44895
392.4491
392.44923
392.44933
392.44938
392.44879
392.4488
392.44884
392.4489
392.44897
392.4491
392.44928
392.44938
392.44948
392.44953
392.44889
392.4489
392.44892
392.449
392.4491
392.44923
392.44938
392.44951
392.44957
392.44959
392.44894
392.44898
392.44899
392.44907
392.44918
392.44933
392.44948
392.44957
392.44961
392.44964
392.44896
392.449
392.44905
392.44912
392.44923
392.44938
392.44953
392.44959
392.44964
392.44966
399.83452
399.83453
399.83451
399.83454
399.83455
399.8346
399.83468
399.83476
399.83484
399.83486
399.83453
399.8345
399.83452
399.83452
399.83455
399.83458
399.83469
399.83477
399.83484
399.8349
399.83451
399.83452
399.83451
399.83453
399.83454
399.8346
399.83471
399.83481
399.83489
399.83494
399.83454
399.83452
399.83453
399.83455
399.83456
399.83465
399.83479
399.83489
399.83497
399.83502
399.83455
399.83455
399.83454
399.83456
399.83463
399.83473
399.83487
399.83497
399.83507
399.83513
399.8346
399.83458
399.8346
399.83465
399.83473
399.83485
399.835
399.83513
399.83523
399.83528
399.83468
399.83469
399.83471
399.83479
399.83487
399.835
399.83515
399.83528
399.83538
399.83542
399.83476
399.83477
399.83481
399.83489
399.83497
399.83513
399.83528
399.83541
399.83547
399.83549
399.83484
399.83484
399.83489
399.83497
399.83507
399.83523
399.83538
399.83547
399.83551
399.83554
399.83486
399.8349
399.83494
399.83502
399.83513
399.83528
399.83542
399.83549
399.83554
399.83556
407.36691
407.36691
407.3669
407.36692
407.36696
407.36699
407.36707
407.36718
407.36723
407.36725
407.36691
407.36689
407.36691
407.36693
407.36694
407.367
407.36708
407.36718
407.36726
407.36729
407.3669
407.36691
407.3669
407.36692
407.36693
407.36701
407.36713
407.3672
407.3673
407.36733
407.36692
407.36693
407.36692
407.36694
407.36698
407.36707
407.36718
407.36729
407.36739
407.36744
407.36696
407.36694
407.36693
407.36698
407.36702
407.36714
407.36729
407.36739
407.36749
407.36754
407.36699
407.367
407.36701
407.36707
407.36714
407.36727
407.36742
407.36755
407.36765
407.3677
407.36707
407.36708
407.36713
407.36718
407.36729
407.36742
407.36759
407.3677
407.3678
407.36784
407.36718
407.36718
407.3672
407.36729
407.36739
407.36755
407.3677
407.36782
407.36789
407.36791
407.36723
407.36726
407.3673
407.36739
407.36749
407.36765
407.3678
407.36789
407.36793
407.36798
407.36725
407.36729
407.36733
407.36744
407.36754
407.3677
407.36784
407.36791
407.36798
407.36798
415.04735
415.04736
415.04737
415.04739
415.0474
415.04746
415.04754
415.04764
415.0477
415.04772
415.04736
415.04736
415.04735
415.04737
415.04741
415.04747
415.04755
415.04765
415.04773
415.04776
415.04737
415.04735
415.04736
415.04739
415.0474
415.04748
415.0476
415.0477
415.04777
415.04783
415.04739
415.04737
415.04739
415.04741
415.04745
415.04754
415.04765
415.04778
415.04786
415.04791
415.0474
415.04741
415.0474
415.04745
415.04749
415.04761
415.04776
415.04789
415.04796
415.04802
415.04746
415.04747
415.04748
415.04754
415.04761
415.04774
415.04789
415.04802
415.04812
415.04817
415.04754
415.04755
415.0476
415.04765
415.04776
415.04789
415.04807
415.0482
415.04827
415.04831
415.04764
415.04765
415.0477
415.04778
415.04789
415.04802
415.0482
415.0483
415.04836
415.04838
415.0477
415.04773
415.04777
415.04786
415.04796
415.04812
415.04827
415.04836
415.04843
415.04846
415.04772
415.04776
415.04783
415.04791
415.04802
415.04817
415.04831
415.04838
415.04846
415.04848
422.87595
422.87596
422.87594
422.87597
422.87601
422.87606
422.87614
422.87622
422.8763
422.87632
422.87596
422.87594
422.87595
422.87598
422.87599
422.87607
422.87615
422.87626
422.87634
422.87636
422.87594
422.87595
422.87594
422.87596
422.876
422.87609
422.8762
422.87628
422.87635
422.87641
422.87597
422.87598
422.87596
422.87601
422.87605
422.87614
422.87626
422.87639
422.87646
422.87651
422.87601
422.87599
422.876
422.87605
422.8761
422.87622
422.87637
422.8765
422.87657
422.87662
422.87606
422.87607
422.87609
422.87614
422.87622
422.87635
422.8765
422.87663
422.87673
422.87678
422.87614
422.87615
422.8762
422.87626
422.87637
422.8765
422.87667
422.8768
422.87688
422.87692
422.87622
422.87626
422.87628
422.87639
422.8765
422.87663
422.8768
422.8769
422.87697
422.87699
422.8763
422.87634
422.87635
422.87646
422.87657
422.87673
422.87688
422.87697
422.87704
422.87706
422.87632
422.87636
422.87641
422.87651
422.87662
422.87678
422.87692
422.87699
422.87706
422.87708
430.85101
430.85102
430.85103
430.85105
430.85109
430.85115
430.85123
430.85131
430.85139
430.85141
430.85102
430.851
430.85101
430.85104
430.85107
430.85113
430.85124
430.85132
430.8514
430.85145
430.85103
430.85101
430.85103
430.85105
430.85109
430.85118
430.85129
430.85137
430.85144
430.8515
430.85105
430.85104
430.85105
430.85107
430.85114
430.85123
430.85135
430.85148
430.85155
430.8516
430.85109
430.85107
430.85109
430.85114
430.85118
430.85131
430.85145
430.85159
430.85166
430.85171
430.85115
430.85113
430.85118
430.85123
430.85131
430.85144
430.85161
430.85172
430.85182
430.85187
430.85123
430.85124
430.85129
430.85135
430.85145
430.85161
430.85176
430.85189
430.85197
430.85201
430.85131
430.85132
430.85137
430.85148
430.85159
430.85172
430.85189
430.852
430.85206
430.85208
430.85139
430.8514
430.85144
430.85155
430.85166
430.85182
430.85197
430.85206
430.8521
430.85215
430.85141
430.85145
430.8515
430.8516
430.85171
430.85187
430.85201
430.85208
430.85215
430.85215
438.96899
438.969
438.96899
438.96904
438.96908
438.96913
438.96922
438.9693
438.96937
438.9694
438.969
438.96898
438.969
438.96902
438.96906
438.96914
438.96923
438.96933
438.96941
438.96944
438.96899
438.969
438.96901
438.96903
438.96907
438.96916
438.96927
438.96937
438.96945
438.96948
438.96904
438.96902
438.96903
438.96908
438.96912
438.96921
438.96935
438.96946
438.96953
438.96959
438.96908
438.96906
438.96907
438.96912
438.96919
438.96932
438.96946
438.96957
438.96967
438.96972
438.96913
438.96914
438.96916
438.96921
438.96932
438.96944
438.96959
438.96973
438.9698
438.96985
438.96922
438.96923
438.96927
438.96935
438.96946
438.96959
438.96977
438.96988
438.96995
438.96999
438.9693
438.96933
438.96937
438.96946
438.96957
438.96973
438.96988
438.97
438.97004
438.97006
438.96937
438.96941
438.96945
438.96953
438.96967
438.9698
438.96995
438.97004
438.97011
438.97014
438.9694
438.96944
438.96948
438.96959
438.96972
438.96985
438.96999
438.97006
438.97014
438.97013
447.22409
447.2241
447.22411
447.22413
447.22418
447.22423
447.22432
447.22442
447.22447
447.22453
447.2241
447.2241
447.22409
447.22414
447.22418
447.22424
447.22435
447.22443
447.22451
447.22456
447.22411
447.22409
447.22411
447.22416
447.22419
447.22428
447.2244
447.22447
447.22455
447.22461
447.22413
447.22414
447.22416
447.22418
447.22424
447.22434
447.22445
447.22456
447.22466
447.22469
447.22418
447.22418
447.22419
447.22424
447.22432
447.22441
447.22456
447.22469
447.22477
447.22482
447.22423
447.22424
447.22428
447.22434
447.22441
447.22454
447.22472
447.22483
447.22493
447.22498
447.22432
447.22435
447.2244
447.22445
447.22456
447.22472
447.22487
447.225
447.22507
447.22509
447.22442
447.22443
447.22447
447.22456
447.22469
447.22483
447.225
447.2251
447.22514
447.22516
447.22447
447.22451
447.22455
447.22466
447.22477
447.22493
447.22507
447.22514
447.22521
447.22524
447.22453
447.22456
447.22461
447.22469
447.22482
447.22498
447.22509
447.22516
447.22524
447.22523
455.60812
455.60812
455.60813
455.60818
455.60822
455.60828
455.60836
455.60844
455.60852
455.60855
455.60812
455.60813
455.60814
455.60817
455.6082
455.60829
455.60837
455.60848
455.60856
455.60858
455.60813
455.60814
455.60816
455.60818
455.60824
455.6083
455.60842
455.60852
455.6086
455.60863
455.60818
455.60817
455.60818
455.60822
455.60829
455.60838
455.6085
455.6086
455.60868
455.60873
455.60822
455.6082
455.60824
455.60829
455.60836
455.60846
455.60861
455.60871
455.60882
455.60884
455.60828
455.60829
455.6083
455.60838
455.60846
455.60859
455.60874
455.60887
455.60895
455.609
455.60836
455.60837
455.60842
455.6085
455.60861
455.60874
455.60892
455.60902
455.6091
455.60914
455.60844
455.60848
455.60852
455.6086
455.60871
455.60887
455.60902
455.60912
455.60919
455.60921
455.60852
455.60856
455.6086
455.60868
455.60882
455.60895
455.6091
455.60919
455.60923
455.60926
455.60855
455.60858
455.60863
455.60873
455.60884
455.609
455.60914
455.60921
455.60926
455.60926
464.11032
464.11032
464.11033
464.11035
464.11039
464.11045
464.11056
464.11064
464.11069
464.11072
464.11032
464.1103
464.11031
464.11036
464.1104
464.11046
464.11057
464.11065
464.11073
464.11076
464.11033
464.11031
464.11033
464.11037
464.11041
464.1105
464.11061
464.11069
464.11077
464.11083
464.11035
464.11036
464.11037
464.11042
464.11046
464.11058
464.11069
464.1108
464.11085
464.11091
464.11039
464.1104
464.11041
464.11046
464.11053
464.11065
464.1108
464.11091
464.11099
464.11104
464.11045
464.11046
464.1105
464.11058
464.11065
464.11078
464.11093
464.11104
464.11112
464.11117
464.11056
464.11057
464.11061
464.11069
464.1108
464.11093
464.11108
464.11119
464.11127
464.11129
464.11064
464.11065
464.11069
464.1108
464.11091
464.11104
464.11119
464.11129
464.11134
464.11136
464.11069
464.11073
464.11077
464.11085
464.11099
464.11112
464.11127
464.11134
464.11138
464.11141
464.11072
464.11076
464.11083
464.11091
464.11104
464.11117
464.11129
464.11136
464.11141
464.11143
472.71716
472.71717
472.71718
472.71722
472.71727
472.71732
472.71741
472.71749
472.71757
472.7176
472.71717
472.71717
472.71719
472.71723
472.71727
472.71733
472.71744
472.71752
472.71758
472.71763
472.71718
472.71719
472.7172
472.71724
472.71728
472.71737
472.71748
472.71756
472.71765
472.71767
472.71722
472.71723
472.71724
472.71726
472.71733
472.71742
472.71756
472.71764
472.71772
472.71775
472.71727