/*--------------------------------*- C++ -*----------------------------------*\
| =========                 |                                                 |
| \\      /  F ield         | OpenFOAM: The Open Source CFD Toolbox           |
|  \\    /   O peration     | Version:  v2106                                 |
|   \\  /    A nd           | Website:  www.openfoam.com                      |
|    \\/     M anipulation  |                                                 |
\*---------------------------------------------------------------------------*/
FoamFile
{
    version     2.0;
    format      ascii;
    arch        "LSB;label=32;scalar=64";
    class       volVectorField;
    location    "12.5";
    object      flux;
}
// * * * * * * * * * * * * * * * * * * * * * * * * * * * * * * * * * * * * * //

dimensions      [0 1 -1 1 0 0 0];

internalField   nonuniform List<vector> 
4000
(
(-4.6565947e-07 -4.6565947e-07 1.3272865)
(-1.7330314e-06 -1.0957498e-06 1.327285)
(1.6235986e-06 5.935048e-07 1.3272819)
(1.8241303e-06 -2.1529324e-07 1.3272908)
(-1.8314241e-06 -4.2220511e-07 1.3272877)
(-1.4776542e-06 -3.9671339e-07 1.3272839)
(-6.1425548e-07 -3.2711346e-07 1.3272821)
(-1.6941609e-07 -2.7974928e-07 1.3272816)
(-7.2291746e-08 -2.1438111e-07 1.3272814)
(-2.4593703e-08 -2.145593e-08 1.3272811)
(-1.0957498e-06 -1.7330314e-06 1.327285)
(-1.4428497e-07 -1.4428498e-07 1.3272806)
(2.9442834e-06 1.3581672e-06 1.3272854)
(3.0056543e-07 -2.7426935e-07 1.3272902)
(-2.1035543e-06 -6.0444997e-07 1.327286)
(-1.3350168e-06 -4.5394616e-07 1.3272824)
(-4.3880931e-07 -2.4524895e-07 1.327281)
(-3.175505e-10 -2.0281694e-07 1.3272807)
(3.1514828e-07 -2.8164764e-07 1.327281)
(1.6833147e-07 -4.8154105e-09 1.3272819)
(5.9350481e-07 1.6235986e-06 1.3272819)
(1.3581672e-06 2.9442835e-06 1.3272854)
(1.4936142e-06 1.4936142e-06 1.3272869)
(-1.3848684e-07 1.0002709e-06 1.3272903)
(-2.0111009e-06 1.0666803e-06 1.327286)
(-1.1184532e-06 1.3396645e-06 1.3272829)
(-3.6312626e-07 1.6322726e-06 1.3272819)
(-2.0581478e-07 1.7212571e-06 1.3272815)
(1.2570978e-07 1.4251214e-06 1.327281)
(1.5996112e-07 1.0504036e-06 1.3272819)
(-2.1529324e-07 1.8241303e-06 1.3272908)
(-2.7426934e-07 3.0056543e-07 1.3272902)
(1.0002709e-06 -1.3848683e-07 1.3272903)
(-1.2636849e-07 -1.2636848e-07 1.3272934)
(-1.7641608e-06 9.0397471e-08 1.3272894)
(-7.6942442e-07 4.1087944e-07 1.327287)
(-5.7216708e-08 7.9692089e-07 1.3272867)
(-2.0746877e-07 1.1499375e-06 1.3272867)
(-3.5570519e-07 1.2657274e-06 1.3272859)
(-8.1480399e-08 1.0806549e-06 1.3272855)
(-4.2220511e-07 -1.8314241e-06 1.3272877)
(-6.0444995e-07 -2.1035543e-06 1.327286)
(1.0666803e-06 -2.0111009e-06 1.327286)
(9.0397462e-08 -1.7641608e-06 1.3272894)
(-1.473853e-06 -1.473853e-06 1.327286)
(-4.119298e-07 -1.1715412e-06 1.3272842)
(3.7593184e-07 -8.3609639e-07 1.3272847)
(2.6299174e-07 -4.58897e-07 1.3272856)
(5.6427133e-08 -8.1091308e-08 1.3272856)
(3.6579432e-08 2.2024835e-07 1.3272859)
(-3.9671339e-07 -1.4776542e-06 1.3272839)
(-4.5394616e-07 -1.3350168e-06 1.3272824)
(1.3396645e-06 -1.1184532e-06 1.3272829)
(4.1087942e-07 -7.6942441e-07 1.327287)
(-1.1715412e-06 -4.119298e-07 1.3272842)
(-1.3166778e-07 -1.316678e-07 1.3272829)
(6.5542754e-07 9.8147929e-08 1.327284)
(5.4753631e-07 2.9848122e-07 1.3272855)
(3.2344016e-07 4.730406e-07 1.327286)
(1.1941271e-07 6.0777348e-07 1.3272867)
(-3.2711345e-07 -6.1425548e-07 1.3272821)
(-2.4524894e-07 -4.3880932e-07 1.327281)
(1.6322727e-06 -3.6312627e-07 1.3272819)
(7.9692089e-07 -5.7216702e-08 1.3272867)
(-8.360964e-07 3.7593185e-07 1.3272847)
(9.8147929e-08 6.5542754e-07 1.327284)
(8.0608086e-07 8.0608085e-07 1.3272854)
(6.3788441e-07 8.6201762e-07 1.3272871)
(3.657194e-07 8.4892512e-07 1.3272878)
(1.2640136e-07 7.9586549e-07 1.3272885)
(-2.7974928e-07 -1.6941609e-07 1.3272816)
(-2.0281695e-07 -3.1756286e-10 1.3272807)
(1.7212571e-06 -2.0581479e-07 1.3272815)
(1.1499375e-06 -2.0746878e-07 1.3272867)
(-4.58897e-07 2.6299174e-07 1.3272856)
(2.9848122e-07 5.4753633e-07 1.3272855)
(8.6201762e-07 6.3788442e-07 1.3272871)
(5.9038058e-07 5.9038059e-07 1.3272888)
(2.5728803e-07 4.6127165e-07 1.3272893)
(8.4039622e-08 3.1779372e-07 1.3272898)
(-2.143811e-07 -7.2291757e-08 1.3272814)
(-2.8164764e-07 3.1514826e-07 1.327281)
(1.4251214e-06 1.2570979e-07 1.327281)
(1.2657274e-06 -3.5570519e-07 1.3272859)
(-8.1091296e-08 5.6427144e-08 1.3272856)
(4.730406e-07 3.2344016e-07 1.327286)
(8.4892511e-07 3.657194e-07 1.3272878)
(4.6127165e-07 2.5728803e-07 1.3272893)
(9.3132535e-08 9.3132556e-08 1.3272894)
(3.0749404e-08 -1.3074789e-08 1.3272896)
(-2.1455932e-08 -2.4593704e-08 1.3272811)
(-4.8153979e-09 1.6833147e-07 1.3272819)
(1.0504036e-06 1.5996112e-07 1.3272819)
(1.0806549e-06 -8.1480399e-08 1.3272855)
(2.2024835e-07 3.6579438e-08 1.3272859)
(6.0777347e-07 1.194127e-07 1.3272867)
(7.958655e-07 1.2640135e-07 1.3272885)
(3.1779374e-07 8.4039617e-08 1.3272898)
(-1.3074791e-08 3.0749412e-08 1.3272896)
(1.3234725e-08 1.3234734e-08 1.3272898)
(-1.5813149e-07 -1.5813149e-07 1.3309017)
(-1.7026765e-06 -1.1360431e-06 1.3309038)
(3.9178698e-06 1.6751276e-06 1.3309037)
(3.1198599e-06 -3.7098668e-09 1.3309075)
(-4.8760955e-06 -4.2441637e-07 1.3309047)
(-3.8758205e-06 -3.2214679e-07 1.3309019)
(-1.6436447e-06 -1.3678332e-07 1.3309006)
(-5.5598087e-07 -3.098045e-08 1.3309002)
(-5.0428112e-07 2.3273682e-07 1.3309)
(-2.1915383e-07 8.3785884e-07 1.3308989)
(-1.1360431e-06 -1.7026765e-06 1.3309038)
(1.0472121e-06 1.0472121e-06 1.330904)
(5.6163697e-06 3.3868717e-06 1.3309061)
(-2.9456018e-08 -3.3837926e-08 1.3309079)
(-5.3537509e-06 -6.8263741e-07 1.3309047)
(-3.444371e-06 -1.9890089e-07 1.3309021)
(-1.2068952e-06 3.7745164e-07 1.3309011)
(-1.7006556e-09 4.0056098e-07 1.3309007)
(7.9897781e-07 2.7570144e-07 1.3309012)
(3.8596818e-07 1.2103689e-06 1.3309018)
(1.6751276e-06 3.9178698e-06 1.3309037)
(3.3868717e-06 5.6163697e-06 1.3309061)
(2.8368198e-06 2.8368198e-06 1.3309068)
(-9.4964916e-07 1.7674218e-06 1.3309079)
(-5.0411584e-06 1.9939226e-06 1.3309048)
(-2.8157315e-06 2.7930052e-06 1.3309027)
(-1.0441829e-06 3.646841e-06 1.3309021)
(-6.5773108e-07 3.8446663e-06 1.3309014)
(3.0552679e-07 3.0108919e-06 1.3309012)
(4.0395781e-07 2.1906202e-06 1.3309018)
(-3.7098561e-09 3.11986e-06 1.3309075)
(-3.3837914e-08 -2.9455988e-08 1.3309079)
(1.7674218e-06 -9.4964915e-07 1.3309079)
(-8.7235323e-07 -8.723532e-07 1.3309088)
(-4.3281674e-06 -2.5316131e-07 1.330906)
(-1.7914525e-06 6.8531084e-07 1.3309046)
(-1.5523415e-07 1.8209382e-06 1.3309048)
(-6.3764977e-07 2.8176306e-06 1.3309046)
(-8.5506827e-07 3.1204187e-06 1.330904)
(-1.6087961e-07 2.7057289e-06 1.3309039)
(-4.2441637e-07 -4.8760955e-06 1.3309047)
(-6.8263742e-07 -5.3537509e-06 1.3309047)
(1.9939226e-06 -5.0411585e-06 1.3309048)
(-2.5316132e-07 -4.3281674e-06 1.330906)
(-3.4834944e-06 -3.4834944e-06 1.3309037)
(-7.4163195e-07 -2.5896369e-06 1.3309029)
(1.0881369e-06 -1.6001616e-06 1.3309038)
(6.4174939e-07 -5.2388722e-07 1.3309044)
(1.9362508e-07 4.9061944e-07 1.3309046)
(1.2749795e-07 1.2495642e-06 1.330905)
(-3.2214679e-07 -3.8758205e-06 1.3309019)
(-1.9890089e-07 -3.444371e-06 1.3309021)
(2.7930052e-06 -2.8157315e-06 1.3309027)
(6.8531084e-07 -1.7914526e-06 1.3309046)
(-2.5896369e-06 -7.4163195e-07 1.3309029)
(9.1880235e-08 9.1880239e-08 1.3309026)
(1.9105155e-06 7.7194529e-07 1.3309041)
(1.4531313e-06 1.3490841e-06 1.3309052)
(9.1838315e-07 1.8217811e-06 1.3309058)
(3.4508356e-07 2.1413189e-06 1.3309065)
(-1.3678332e-07 -1.6436447e-06 1.3309006)
(3.7745165e-07 -1.2068952e-06 1.3309011)
(3.646841e-06 -1.0441829e-06 1.3309021)
(1.8209382e-06 -1.5523416e-07 1.3309048)
(-1.6001616e-06 1.0881369e-06 1.3309038)
(7.719453e-07 1.9105155e-06 1.3309041)
(2.3453407e-06 2.3453407e-06 1.3309059)
(1.6915852e-06 2.482822e-06 1.3309072)
(9.8585988e-07 2.3960773e-06 1.3309078)
(3.4052313e-07 2.1569159e-06 1.3309084)
(-3.0980454e-08 -5.5598086e-07 1.3309002)
(4.0056098e-07 -1.7006769e-09 1.3309007)
(3.8446663e-06 -6.5773109e-07 1.3309014)
(2.8176306e-06 -6.3764978e-07 1.3309046)
(-5.2388722e-07 6.4174938e-07 1.3309044)
(1.3490841e-06 1.4531313e-06 1.3309052)
(2.482822e-06 1.6915852e-06 1.3309072)
(1.5038679e-06 1.5038679e-06 1.3309084)
(5.9247704e-07 1.0786034e-06 1.3309087)
(1.8564263e-07 6.4140443e-07 1.3309089)
(2.327368e-07 -5.0428113e-07 1.3309)
(2.7570142e-07 7.9897781e-07 1.3309012)
(3.0108919e-06 3.0552678e-07 1.3309012)
(3.1204187e-06 -8.550683e-07 1.330904)
(4.9061945e-07 1.9362509e-07 1.3309046)
(1.8217811e-06 9.1838316e-07 1.3309058)
(2.3960773e-06 9.8585991e-07 1.3309078)
(1.0786034e-06 5.9247705e-07 1.3309087)
(1.2339644e-07 1.2339644e-07 1.3309087)
(4.9057129e-08 3.4431292e-08 1.3309088)
(8.3785883e-07 -2.1915384e-07 1.3308989)
(1.2103689e-06 3.8596819e-07 1.3309018)
(2.1906202e-06 4.039578e-07 1.3309018)
(2.7057289e-06 -1.6087962e-07 1.3309039)
(1.2495642e-06 1.2749796e-07 1.330905)
(2.1413189e-06 3.4508357e-07 1.3309065)
(2.1569159e-06 3.4052313e-07 1.3309084)
(6.4140441e-07 1.8564264e-07 1.3309089)
(3.4431285e-08 4.9057133e-08 1.3309088)
(1.2633253e-07 1.2633253e-07 1.3309091)
(9.7932645e-07 9.7932646e-07 1.3375613)
(2.4181381e-07 -1.0019787e-06 1.337564)
(5.2572308e-06 2.2197578e-06 1.337564)
(2.8884803e-06 4.5473396e-08 1.337566)
(-7.4068719e-06 -4.5771374e-07 1.3375636)
(-5.5767519e-06 -2.5013279e-07 1.3375616)
(-2.3085874e-06 2.0333804e-08 1.3375608)
(-7.8825571e-07 7.594184e-08 1.3375605)
(-1.363773e-06 6.1612191e-07 1.3375605)
(-7.4553228e-07 1.8847921e-06 1.3375591)
(-1.0019787e-06 2.4181382e-07 1.337564)
(2.1024607e-06 2.1024608e-06 1.3375642)
(6.828409e-06 4.5448441e-06 1.3375654)
(-1.1277269e-06 1.248242e-07 1.3375661)
(-7.8502811e-06 -5.7189634e-07 1.3375635)
(-4.8596806e-06 3.2522415e-07 1.3375618)
(-1.8194755e-06 1.2526733e-06 1.3375613)
(1.0542645e-07 1.0333321e-06 1.3375607)
(1.3495023e-06 8.9327673e-07 1.3375614)
(5.2313787e-07 2.8861199e-06 1.3375618)
(2.2197578e-06 5.2572308e-06 1.337564)
(4.5448441e-06 6.828409e-06 1.3375654)
(3.2795942e-06 3.2795942e-06 1.3375658)
(-2.2282601e-06 1.9436158e-06 1.3375659)
(-7.2064719e-06 2.4214912e-06 1.3375636)
(-3.7521823e-06 3.7918517e-06 1.3375625)
(-1.6004795e-06 5.2596191e-06 1.3375624)
(-1.1476522e-06 5.5409021e-06 1.3375615)
(4.8901479e-07 4.18194e-06 1.3375614)
(5.8302982e-07 3.1748034e-06 1.3375621)
(4.5473397e-08 2.8884803e-06 1.337566)
(1.2482421e-07 -1.1277269e-06 1.3375661)
(1.9436158e-06 -2.2282601e-06 1.3375659)
(-1.9858299e-06 -1.9858299e-06 1.3375661)
(-6.0020453e-06 -9.5100415e-07 1.3375641)
(-2.0215527e-06 6.0393235e-07 1.3375637)
(-7.04251e-08 2.4978148e-06 1.3375644)
(-9.7225266e-07 4.1387655e-06 1.337564)
(-1.0165964e-06 4.6763608e-06 1.3375637)
(-1.4828656e-07 4.2344391e-06 1.3375639)
(-4.5771375e-07 -7.4068719e-06 1.3375636)
(-5.7189635e-07 -7.8502811e-06 1.3375635)
(2.4214912e-06 -7.2064719e-06 1.3375636)
(-9.5100416e-07 -6.0020453e-06 1.3375641)
(-4.6167097e-06 -4.6167096e-06 1.3375626)
(-3.0336331e-07 -3.151194e-06 1.3375627)
(1.9343537e-06 -1.5375382e-06 1.3375642)
(1.0308937e-06 1.7459506e-07 1.3375645)
(5.8468838e-07 1.7260476e-06 1.3375649)
(2.884154e-07 2.8451039e-06 1.3375655)
(-2.5013278e-07 -5.5767519e-06 1.3375616)
(3.2522416e-07 -4.8596806e-06 1.3375618)
(3.7918517e-06 -3.7521823e-06 1.3375625)
(6.0393235e-07 -2.0215527e-06 1.3375637)
(-3.151194e-06 -3.0336329e-07 1.3375627)
(1.0576187e-06 1.0576188e-06 1.3375634)
(3.2553639e-06 2.1514086e-06 1.3375653)
(2.2913331e-06 3.0411305e-06 1.3375661)
(1.6539124e-06 3.7076467e-06 1.3375668)
(5.9775097e-07 4.0623245e-06 1.3375677)
(2.03338e-08 -2.3085875e-06 1.3375608)
(1.2526732e-06 -1.8194755e-06 1.3375613)
(5.2596192e-06 -1.6004795e-06 1.3375624)
(2.4978148e-06 -7.0425115e-08 1.3375644)
(-1.5375382e-06 1.9343537e-06 1.3375642)
(2.1514086e-06 3.2553639e-06 1.3375653)
(3.9178654e-06 3.9178654e-06 1.3375676)
(2.5871318e-06 4.0506406e-06 1.3375685)
(1.6058824e-06 3.7729952e-06 1.3375691)
(5.2486723e-07 3.1919004e-06 1.3375697)
(7.5941845e-08 -7.8825571e-07 1.3375605)
(1.0333321e-06 1.0542646e-07 1.3375607)
(5.5409021e-06 -1.1476522e-06 1.3375615)
(4.1387655e-06 -9.7225269e-07 1.337564)
(1.7459504e-07 1.0308937e-06 1.3375645)
(3.0411304e-06 2.2913331e-06 1.3375661)
(4.0506407e-06 2.5871318e-06 1.3375685)
(2.146463e-06 2.146463e-06 1.3375692)
(7.9517214e-07 1.3622315e-06 1.3375693)
(2.1035439e-07 7.1019544e-07 1.3375694)
(6.1612192e-07 -1.363773e-06 1.3375605)
(8.9327673e-07 1.3495023e-06 1.3375614)
(4.18194e-06 4.8901478e-07 1.3375614)
(4.6763608e-06 -1.0165964e-06 1.3375637)
(1.7260476e-06 5.8468839e-07 1.3375649)
(3.7076467e-06 1.6539125e-06 1.3375668)
(3.7729952e-06 1.6058824e-06 1.3375691)
(1.3622314e-06 7.9517213e-07 1.3375693)
(1.6961481e-07 1.6961479e-07 1.3375692)
(9.0176551e-08 1.1240097e-07 1.3375697)
(1.8847921e-06 -7.4553228e-07 1.3375591)
(2.8861199e-06 5.2313787e-07 1.3375618)
(3.1748034e-06 5.8302983e-07 1.3375621)
(4.2344391e-06 -1.4828655e-07 1.3375639)
(2.8451039e-06 2.8841541e-07 1.3375655)
(4.0623245e-06 5.9775098e-07 1.3375677)
(3.1919003e-06 5.2486722e-07 1.3375697)
(7.1019541e-07 2.1035439e-07 1.3375694)
(1.1240098e-07 9.0176542e-08 1.3375697)
(1.7221184e-07 1.7221184e-07 1.3375698)
(1.6147148e-06 1.6147148e-06 1.3475029)
(9.7980343e-07 -1.0065896e-06 1.3475041)
(5.8896033e-06 2.6189143e-06 1.3475036)
(2.6901072e-06 5.0026182e-08 1.3475053)
(-9.2637093e-06 -4.895109e-07 1.3475036)
(-6.6427607e-06 -1.505931e-07 1.3475023)
(-2.701629e-06 2.0694999e-07 1.3475021)
(-8.356345e-07 1.1131543e-07 1.3475019)
(-1.9344321e-06 7.9910485e-07 1.3475019)
(-1.186407e-06 2.6578175e-06 1.3475007)
(-1.0065896e-06 9.7980345e-07 1.3475041)
(2.4861027e-06 2.4861027e-06 1.3475038)
(7.4745271e-06 5.1208765e-06 1.3475045)
(-1.9725305e-06 -6.4592513e-08 1.3475051)
(-9.5646383e-06 -7.0318769e-07 1.3475033)
(-5.5980694e-06 6.7126842e-07 1.3475025)
(-2.3087662e-06 1.9901535e-06 1.3475026)
(5.2597789e-08 1.4097653e-06 1.3475019)
(1.885321e-06 1.1564231e-06 1.3475024)
(6.7230573e-07 4.2392253e-06 1.3475028)
(2.6189143e-06 5.8896033e-06 1.3475036)
(5.1208765e-06 7.4745271e-06 1.3475045)
(3.3389081e-06 3.3389081e-06 1.3475044)
(-3.133957e-06 1.8618452e-06 1.3475048)
(-8.5278484e-06 2.6419015e-06 1.3475031)
(-3.9494195e-06 4.6091197e-06 1.3475029)
(-1.9631321e-06 6.7231147e-06 1.3475035)
(-1.6693649e-06 7.1002927e-06 1.3475026)
(8.9502782e-07 5.3126796e-06 1.3475025)
(8.6879448e-07 4.3147166e-06 1.3475033)
(5.0026185e-08 2.6901072e-06 1.3475053)
(-6.4592513e-08 -1.9725305e-06 1.3475051)
(1.8618452e-06 -3.133957e-06 1.3475048)
(-2.6695372e-06 -2.6695372e-06 1.3475052)
(-6.8173637e-06 -1.2042555e-06 1.347504)
(-1.5168562e-06 9.6084251e-07 1.3475043)
(1.8240672e-07 3.5924667e-06 1.3475057)
(-1.3578374e-06 5.8226734e-06 1.3475052)
(-9.0025506e-07 6.5468766e-06 1.3475049)
(6.9970838e-09 6.0853614e-06 1.3475054)
(-4.8951089e-07 -9.2637093e-06 1.3475036)
(-7.0318768e-07 -9.5646383e-06 1.3475033)
(2.6419015e-06 -8.5278484e-06 1.3475031)
(-1.2042556e-06 -6.8173637e-06 1.347504)
(-4.8974687e-06 -4.8974687e-06 1.3475032)
(8.473027e-07 -2.8784584e-06 1.3475042)
(2.8986987e-06 -6.7402284e-07 1.3475062)
(1.285045e-06 1.6075571e-06 1.3475064)
(1.1577159e-06 3.5970421e-06 1.3475066)
(5.6111767e-07 4.9681466e-06 1.3475074)
(-1.5059309e-07 -6.6427607e-06 1.3475023)
(6.7126845e-07 -5.5980694e-06 1.3475025)
(4.6091197e-06 -3.9494195e-06 1.3475029)
(9.6084251e-07 -1.5168562e-06 1.3475043)
(-2.8784585e-06 8.4730271e-07 1.3475042)
(2.7065897e-06 2.7065897e-06 1.3475056)
(4.6684223e-06 4.1700884e-06 1.3475081)
(2.9132276e-06 5.2984595e-06 1.3475087)
(2.4603344e-06 6.0480451e-06 1.3475092)
(9.2106674e-07 6.2964968e-06 1.3475101)
(2.0694999e-07 -2.701629e-06 1.3475021)
(1.9901535e-06 -2.3087662e-06 1.3475026)
(6.7231147e-06 -1.9631321e-06 1.3475035)
(3.5924667e-06 1.824067e-07 1.3475057)
(-6.7402287e-07 2.8986987e-06 1.3475062)
(4.1700884e-06 4.6684222e-06 1.3475081)
(5.4905686e-06 5.4905686e-06 1.3475109)
(3.1630018e-06 5.5166141e-06 1.3475115)
(2.1557531e-06 4.9264844e-06 1.3475118)
(7.2675211e-07 3.8945222e-06 1.3475122)
(1.1131545e-07 -8.3563451e-07 1.3475019)
(1.4097653e-06 5.2597784e-08 1.3475019)
(7.1002927e-06 -1.6693649e-06 1.3475026)
(5.8226733e-06 -1.3578374e-06 1.3475052)
(1.6075571e-06 1.285045e-06 1.3475064)
(5.2984596e-06 2.9132276e-06 1.3475087)
(5.5166141e-06 3.1630018e-06 1.3475115)
(2.3491434e-06 2.3491434e-06 1.3475117)
(8.382425e-07 1.2167658e-06 1.3475115)
(2.3309193e-07 7.1307037e-07 1.3475113)
(7.9910485e-07 -1.9344321e-06 1.3475019)
(1.1564231e-06 1.885321e-06 1.3475024)
(5.3126795e-06 8.950278e-07 1.3475025)
(6.5468766e-06 -9.0025506e-07 1.3475049)
(3.5970421e-06 1.1577159e-06 1.3475066)
(6.0480451e-06 2.4603344e-06 1.3475092)
(4.9264844e-06 2.1557531e-06 1.3475118)
(1.2167658e-06 8.3824249e-07 1.3475115)
(5.1968007e-07 5.1968006e-07 1.347511)
(3.9095514e-07 4.2442422e-07 1.347512)
(2.6578175e-06 -1.186407e-06 1.3475007)
(4.2392253e-06 6.7230573e-07 1.3475028)
(4.3147166e-06 8.6879448e-07 1.3475033)
(6.0853614e-06 6.997098e-09 1.3475054)
(4.9681466e-06 5.6111766e-07 1.3475074)
(6.2964968e-06 9.2106675e-07 1.3475101)
(3.8945222e-06 7.2675211e-07 1.3475122)
(7.1307037e-07 2.3309192e-07 1.3475113)
(4.2442424e-07 3.9095513e-07 1.347512)
(1.6958804e-07 1.6958804e-07 1.347512)
(1.8075356e-06 1.8075356e-06 1.3606649)
(9.152319e-07 -1.2322434e-06 1.3606654)
(6.4575936e-06 2.8272984e-06 1.3606648)
(2.8929748e-06 -9.2241962e-08 1.3606667)
(-1.041919e-05 -6.4820129e-07 1.3606656)
(-7.05871e-06 -1.5815095e-07 1.3606651)
(-2.7916579e-06 3.2034386e-07 1.3606654)
(-9.6093719e-07 9.8522714e-08 1.3606654)
(-2.5397013e-06 9.4494201e-07 1.3606654)
(-1.5801412e-06 3.3281428e-06 1.3606644)
(-1.2322434e-06 9.1523191e-07 1.3606654)
(2.4448761e-06 2.4448761e-06 1.3606647)
(8.1675957e-06 5.3778109e-06 1.3606653)
(-2.3202748e-06 -4.6934313e-07 1.3606663)
(-1.0518054e-05 -1.0053731e-06 1.3606652)
(-5.6058923e-06 8.8042031e-07 1.3606651)
(-2.4066474e-06 2.6467174e-06 1.3606658)
(-2.4039965e-08 1.7473407e-06 1.3606654)
(2.3047288e-06 1.4414856e-06 1.3606659)
(8.0305963e-07 5.5252081e-06 1.3606664)
(2.8272984e-06 6.4575936e-06 1.3606648)
(5.3778109e-06 8.1675957e-06 1.3606653)
(3.5433744e-06 3.5433744e-06 1.3606653)
(-3.4902092e-06 1.9837653e-06 1.3606661)
(-9.0694267e-06 3.0863404e-06 1.3606652)
(-3.4066195e-06 5.6500953e-06 1.3606656)
(-1.9247375e-06 8.4021571e-06 1.3606669)
(-2.166169e-06 8.8531687e-06 1.3606662)
(1.2381661e-06 6.6684467e-06 1.3606662)
(1.1423405e-06 5.6920324e-06 1.360667)
(-9.2241976e-08 2.8929748e-06 1.3606667)
(-4.6934314e-07 -2.3202748e-06 1.3606663)
(1.9837653e-06 -3.4902092e-06 1.3606661)
(-2.7773088e-06 -2.7773088e-06 1.3606669)
(-6.8517237e-06 -8.7760455e-07 1.3606664)
(-2.9007552e-07 1.8845155e-06 1.3606675)
(7.9642605e-07 5.2238788e-06 1.3606695)
(-1.7577504e-06 7.9858959e-06 1.3606692)
(-8.5640741e-07 8.8450075e-06 1.3606689)
(1.521168e-07 8.3326731e-06 1.3606694)
(-6.4820128e-07 -1.041919e-05 1.3606656)
(-1.0053731e-06 -1.0518054e-05 1.3606652)
(3.0863404e-06 -9.0694266e-06 1.3606652)
(-8.7760458e-07 -6.8517236e-06 1.3606664)
(-4.4076024e-06 -4.4076024e-06 1.3606663)
(2.6948639e-06 -1.8556266e-06 1.360668)
(4.1766429e-06 9.0481314e-07 1.3606706)
(1.4549597e-06 3.6955636e-06 1.360671)
(1.5849433e-06 6.0423054e-06 1.3606712)
(8.0078425e-07 7.5843164e-06 1.3606719)
(-1.5815094e-07 -7.05871e-06 1.3606651)
(8.8042036e-07 -5.6058923e-06 1.3606651)
(5.6500953e-06 -3.4066195e-06 1.3606656)
(1.8845155e-06 -2.9007551e-07 1.3606675)
(-1.8556266e-06 2.6948639e-06 1.360668)
(5.02234e-06 5.02234e-06 1.3606701)
(6.3476163e-06 6.8122225e-06 1.3606732)
(3.3797419e-06 8.1092414e-06 1.3606739)
(3.0323454e-06 8.8395793e-06 1.3606743)
(1.1801241e-06 8.8592841e-06 1.360675)
(3.2034386e-07 -2.7916579e-06 1.3606654)
(2.6467174e-06 -2.4066474e-06 1.3606658)
(8.4021571e-06 -1.9247375e-06 1.3606669)
(5.2238788e-06 7.9642605e-07 1.3606695)
(9.0481313e-07 4.1766429e-06 1.3606706)
(6.8122225e-06 6.3476163e-06 1.3606732)
(7.2635443e-06 7.2635443e-06 1.3606764)
(3.4823165e-06 7.0760385e-06 1.3606771)
(2.3349861e-06 6.0272527e-06 1.3606772)
(8.1392083e-07 4.3986188e-06 1.3606774)
(9.8522721e-08 -9.6093722e-07 1.3606654)
(1.7473407e-06 -2.4039984e-08 1.3606654)
(8.8531687e-06 -2.166169e-06 1.3606662)
(7.9858959e-06 -1.7577504e-06 1.3606692)
(3.6955636e-06 1.4549597e-06 1.360671)
(8.1092414e-06 3.3797418e-06 1.3606739)
(7.0760385e-06 3.4823165e-06 1.3606771)
(2.1434502e-06 2.1434502e-06 1.3606773)
(3.5492576e-07 5.7143598e-07 1.3606767)
(9.4368237e-08 4.7996065e-07 1.3606761)
(9.4494202e-07 -2.5397013e-06 1.3606654)
(1.4414856e-06 2.3047288e-06 1.3606659)
(6.6684467e-06 1.2381661e-06 1.3606662)
(8.8450075e-06 -8.5640744e-07 1.3606689)
(6.0423054e-06 1.5849433e-06 1.3606712)
(8.8395793e-06 3.0323454e-06 1.3606743)
(6.0272527e-06 2.3349861e-06 1.3606772)
(5.71436e-07 3.5492574e-07 1.3606767)
(6.7149649e-07 6.7149648e-07 1.3606757)
(7.5293727e-07 7.7825593e-07 1.3606768)
(3.3281428e-06 -1.5801411e-06 1.3606644)
(5.5252081e-06 8.0305964e-07 1.3606664)
(5.6920324e-06 1.1423405e-06 1.360667)
(8.3326731e-06 1.521168e-07 1.3606694)
(7.5843164e-06 8.0078425e-07 1.3606719)
(8.8592841e-06 1.1801241e-06 1.360675)
(4.3986188e-06 8.1392083e-07 1.3606774)
(4.7996065e-07 9.4368223e-08 1.3606761)
(7.7825595e-07 7.5293726e-07 1.3606768)
(1.655412e-07 1.6554119e-07 1.3606767)
(1.9122407e-06 1.9122407e-06 1.37697)
(8.0176575e-07 -1.4725963e-06 1.3769703)
(7.2518507e-06 3.0157135e-06 1.3769699)
(3.5423619e-06 -2.2856695e-07 1.3769722)
(-1.0931695e-05 -7.935355e-07 1.3769716)
(-6.825734e-06 -1.5030214e-07 1.3769717)
(-2.3720955e-06 4.5593436e-07 1.3769726)
(-8.1636978e-07 1.1703499e-07 1.376973)
(-2.9628719e-06 1.1258232e-06 1.3769732)
(-1.8989829e-06 3.9932149e-06 1.3769723)
(-1.4725963e-06 8.0176576e-07 1.3769703)
(2.4569749e-06 2.4569749e-06 1.3769697)
(9.1178947e-06 5.716671e-06 1.3769705)
(-2.1715116e-06 -7.3289075e-07 1.3769718)
(-1.0814298e-05 -1.1509406e-06 1.3769712)
(-4.9515292e-06 1.2444812e-06 1.3769718)
(-1.9710898e-06 3.4603805e-06 1.3769731)
(1.8846345e-07 2.2484666e-06 1.3769731)
(2.8513979e-06 1.9090615e-06 1.3769738)
(9.6840882e-07 6.9130648e-06 1.3769743)
(3.0157135e-06 7.2518507e-06 1.3769699)
(5.716671e-06 9.1178947e-06 1.3769705)
(4.061985e-06 4.061985e-06 1.3769708)
(-3.3252498e-06 2.4493631e-06 1.3769719)
(-8.9543229e-06 3.8781937e-06 1.3769715)
(-2.2144129e-06 7.0251914e-06 1.3769726)
(-1.3681101e-06 1.0391536e-05 1.3769744)
(-2.3676888e-06 1.0886642e-05 1.3769741)
(1.7017263e-06 8.3073156e-06 1.3769743)
(1.4370193e-06 7.3265534e-06 1.3769752)
(-2.2856696e-07 3.5423619e-06 1.3769722)
(-7.3289076e-07 -2.1715116e-06 1.3769718)
(2.4493631e-06 -3.3252497e-06 1.3769719)
(-2.3553029e-06 -2.3553029e-06 1.3769731)
(-6.2384693e-06 -2.7093903e-08 1.3769731)
(1.5618131e-06 3.3131658e-06 1.3769748)
(1.8903611e-06 7.3278048e-06 1.3769773)
(-1.8957569e-06 1.0573614e-05 1.3769774)
(-7.0869096e-07 1.1528541e-05 1.3769773)
(3.1456735e-07 1.0935784e-05 1.3769778)
(-7.9353549e-07 -1.0931695e-05 1.3769716)
(-1.1509406e-06 -1.0814298e-05 1.3769712)
(3.8781937e-06 -8.9543228e-06 1.3769715)
(-2.7093906e-08 -6.2384693e-06 1.3769731)
(-3.2858542e-06 -3.2858542e-06 1.3769736)
(5.1404858e-06 -2.2361417e-07 1.3769758)
(5.8923376e-06 3.060173e-06 1.376979)
(1.8330478e-06 6.3122649e-06 1.3769796)
(2.0638964e-06 8.9597052e-06 1.37698)
(1.0418475e-06 1.061995e-05 1.3769807)
(-1.5030214e-07 -6.825734e-06 1.3769717)
(1.2444812e-06 -4.9515292e-06 1.3769718)
(7.0251914e-06 -2.2144129e-06 1.3769726)
(3.3131658e-06 1.5618131e-06 1.3769748)
(-2.2361417e-07 5.1404858e-06 1.3769758)
(7.9078402e-06 7.9078402e-06 1.3769785)
(8.4262402e-06 9.9893508e-06 1.376982)
(4.0037753e-06 1.1405822e-05 1.376983)
(3.5989945e-06 1.2049595e-05 1.3769835)
(1.4213975e-06 1.1762608e-05 1.3769842)
(4.5593437e-07 -2.3720955e-06 1.3769726)
(3.4603805e-06 -1.9710898e-06 1.3769731)
(1.0391536e-05 -1.3681101e-06 1.3769744)
(7.3278048e-06 1.8903611e-06 1.3769773)
(3.060173e-06 5.8923376e-06 1.376979)
(9.9893507e-06 8.4262403e-06 1.376982)
(9.3903194e-06 9.3903194e-06 1.3769857)
(3.8932925e-06 8.9189779e-06 1.3769866)
(2.4206821e-06 7.3061977e-06 1.3769867)
(8.5052232e-07 4.9527473e-06 1.3769868)
(1.1703501e-07 -8.1636979e-07 1.376973)
(2.2484666e-06 1.8846342e-07 1.3769731)
(1.0886642e-05 -2.3676887e-06 1.3769741)
(1.0573614e-05 -1.8957569e-06 1.3769774)
(6.312265e-06 1.8330478e-06 1.3769796)
(1.1405822e-05 4.0037753e-06 1.376983)
(8.9189778e-06 3.8932925e-06 1.3769866)
(1.9196535e-06 1.9196536e-06 1.3769869)
(-3.6723605e-07 -2.1812332e-07 1.3769862)
(-1.4756943e-07 1.3099577e-07 1.3769855)
(1.1258232e-06 -2.9628719e-06 1.3769732)
(1.9090615e-06 2.8513979e-06 1.3769738)
(8.3073157e-06 1.7017263e-06 1.3769743)
(1.1528541e-05 -7.0869095e-07 1.3769773)
(8.9597052e-06 2.0638964e-06 1.37698)
(1.2049595e-05 3.5989945e-06 1.3769835)
(7.3061977e-06 2.4206821e-06 1.3769867)
(-2.1812333e-07 -3.6723607e-07 1.3769862)
(6.3202431e-07 6.3202429e-07 1.3769851)
(1.0832684e-06 1.0647636e-06 1.3769861)
(3.9932149e-06 -1.8989829e-06 1.3769723)
(6.9130648e-06 9.6840882e-07 1.3769743)
(7.3265534e-06 1.4370193e-06 1.3769752)
(1.0935784e-05 3.1456735e-07 1.3769778)
(1.061995e-05 1.0418475e-06 1.3769807)
(1.1762608e-05 1.4213975e-06 1.3769842)
(4.9527473e-06 8.505223e-07 1.3769868)
(1.3099577e-07 -1.4756945e-07 1.3769855)
(1.0647636e-06 1.0832684e-06 1.3769861)
(1.4092342e-07 1.4092341e-07 1.376986)
(2.0349362e-06 2.0349362e-06 1.3963231)
(8.4615752e-07 -1.6647945e-06 1.3963235)
(8.2974748e-06 3.2300193e-06 1.3963233)
(4.5627111e-06 -3.1759783e-07 1.3963258)
(-1.0924399e-05 -8.8749069e-07 1.3963257)
(-6.0749241e-06 -9.4396778e-08 1.3963262)
(-1.5064259e-06 6.3700695e-07 1.3963275)
(-3.6320705e-07 1.824334e-07 1.3963283)
(-3.1828934e-06 1.3472225e-06 1.3963287)
(-2.1563842e-06 4.6705697e-06 1.396328)
(-1.6647945e-06 8.4615753e-07 1.3963235)
(2.6387822e-06 2.6387822e-06 1.396323)
(1.031827e-05 6.218225e-06 1.396324)
(-1.6135539e-06 -7.8814765e-07 1.3963256)
(-1.0589597e-05 -1.0826463e-06 1.3963254)
(-3.7881776e-06 1.8088143e-06 1.3963264)
(-1.0911807e-06 4.4596983e-06 1.3963281)
(7.0211626e-07 2.932778e-06 1.3963285)
(3.549311e-06 2.5568204e-06 1.3963294)
(1.166963e-06 8.4220526e-06 1.39633)
(3.2300193e-06 8.2974748e-06 1.3963233)
(6.218225e-06 1.031827e-05 1.396324)
(4.870545e-06 4.870545e-06 1.3963245)
(-2.7381602e-06 3.2217866e-06 1.3963259)
(-8.3274365e-06 4.9716901e-06 1.396326)
(-5.3257942e-07 8.6820973e-06 1.3963275)
(-3.8246221e-07 1.2635465e-05 1.3963297)
(-2.266085e-06 1.3152861e-05 1.3963298)
(2.3063811e-06 1.0179984e-05 1.3963301)
(1.7537706e-06 9.1777299e-06 1.3963311)
(-3.1759783e-07 4.5627111e-06 1.3963258)
(-7.8814764e-07 -1.6135538e-06 1.3963256)
(3.2217866e-06 -2.7381602e-06 1.3963259)
(-1.5124088e-06 -1.5124088e-06 1.3963274)
(-5.1292863e-06 1.2314583e-06 1.3963278)
(3.8755973e-06 5.1265369e-06 1.3963299)
(3.3795829e-06 9.7831814e-06 1.3963328)
(-1.753365e-06 1.3473981e-05 1.3963332)
(-4.2581988e-07 1.449809e-05 1.3963333)
(4.9879382e-07 1.3808058e-05 1.3963339)
(-8.8749068e-07 -1.0924398e-05 1.3963257)
(-1.0826464e-06 -1.0589597e-05 1.3963254)
(4.9716901e-06 -8.3274365e-06 1.396326)
(1.2314583e-06 -5.1292862e-06 1.3963278)
(-1.6884909e-06 -1.6884909e-06 1.3963288)
(8.0191437e-06 1.8590694e-06 1.3963314)
(7.964982e-06 5.6348238e-06 1.3963348)
(2.4488237e-06 9.3093964e-06 1.3963358)
(2.6404583e-06 1.2217812e-05 1.3963362)
(1.2937494e-06 1.3964004e-05 1.396337)
(-9.4396774e-08 -6.0749241e-06 1.3963262)
(1.8088143e-06 -3.7881776e-06 1.3963264)
(8.6820973e-06 -5.325794e-07 1.3963275)
(5.1265369e-06 3.8755973e-06 1.3963299)
(1.8590694e-06 8.0191437e-06 1.3963314)
(1.1198912e-05 1.1198912e-05 1.3963344)
(1.082991e-05 1.3543303e-05 1.3963382)
(4.8296228e-06 1.5046029e-05 1.3963395)
(4.228788e-06 1.5565566e-05 1.39634)
(1.6629223e-06 1.4935359e-05 1.3963408)
(6.3700695e-07 -1.506426e-06 1.3963275)
(4.4596983e-06 -1.0911807e-06 1.3963281)
(1.2635465e-05 -3.8246222e-07 1.3963297)
(9.7831814e-06 3.3795829e-06 1.3963328)
(5.6348238e-06 7.964982e-06 1.3963348)
(1.3543303e-05 1.082991e-05 1.3963382)
(1.1812099e-05 1.1812099e-05 1.3963422)
(4.4710872e-06 1.1020422e-05 1.3963433)
(2.5297883e-06 8.7935532e-06 1.3963435)
(8.7361113e-07 5.6521717e-06 1.3963435)
(1.824334e-07 -3.6320707e-07 1.3963283)
(2.932778e-06 7.0211625e-07 1.3963285)
(1.3152861e-05 -2.266085e-06 1.3963298)
(1.3473981e-05 -1.753365e-06 1.3963332)
(9.3093964e-06 2.4488237e-06 1.3963358)
(1.5046029e-05 4.8296228e-06 1.3963395)
(1.1020422e-05 4.4710872e-06 1.3963433)
(1.8110771e-06 1.8110771e-06 1.3963438)
(-1.1394624e-06 -9.6535363e-07 1.3963432)
(-4.3133201e-07 -2.0991408e-07 1.3963423)
(1.3472225e-06 -3.1828934e-06 1.3963287)
(2.5568204e-06 3.549311e-06 1.3963294)
(1.0179984e-05 2.3063811e-06 1.3963301)
(1.449809e-05 -4.2581989e-07 1.3963333)
(1.2217812e-05 2.6404583e-06 1.3963362)
(1.5565566e-05 4.228788e-06 1.39634)
(8.7935531e-06 2.5297883e-06 1.3963435)
(-9.6535365e-07 -1.1394624e-06 1.3963432)
(5.0879718e-07 5.0879718e-07 1.3963421)
(1.3772375e-06 1.2965987e-06 1.3963429)
(4.6705697e-06 -2.1563842e-06 1.396328)
(8.4220526e-06 1.166963e-06 1.39633)
(9.1777299e-06 1.7537706e-06 1.3963311)
(1.3808058e-05 4.9879382e-07 1.3963339)
(1.3964004e-05 1.2937494e-06 1.396337)
(1.4935359e-05 1.6629223e-06 1.3963408)
(5.6521717e-06 8.7361113e-07 1.3963435)
(-2.099141e-07 -4.3133201e-07 1.3963423)
(1.2965987e-06 1.3772375e-06 1.3963429)
(9.3868974e-08 9.3868978e-08 1.3963428)
(2.1842044e-06 2.1842044e-06 1.4186097)
(1.04581e-06 -1.8075527e-06 1.4186101)
(9.5340397e-06 3.4652583e-06 1.4186102)
(5.8569277e-06 -3.64188e-07 1.4186127)
(-1.051325e-05 -9.3569274e-07 1.418613)
(-4.9381157e-06 2.2113646e-09 1.4186139)
(-3.1006501e-07 8.5393696e-07 1.4186155)
(3.3516209e-07 2.8496991e-07 1.4186165)
(-3.2383121e-06 1.5971477e-06 1.4186171)
(-2.3673763e-06 5.3522339e-06 1.4186165)
(-1.8075527e-06 1.04581e-06 1.4186101)
(2.9673909e-06 2.9673909e-06 1.4186098)
(1.1699087e-05 6.8478799e-06 1.4186109)
(-7.4449886e-07 -6.7177979e-07 1.4186126)
(-9.9636505e-06 -8.4071635e-07 1.4186129)
(-2.2536711e-06 2.5284101e-06 1.4186142)
(1.140728e-07 5.5955773e-06 1.4186162)
(1.4499782e-06 3.7555876e-06 1.4186168)
(4.3625839e-06 3.3386261e-06 1.4186179)
(1.3877099e-06 1.0017397e-05 1.4186185)