/*--------------------------------*- C++ -*----------------------------------*\
| =========                 |                                                 |
| \\      /  F ield         | OpenFOAM: The Open Source CFD Toolbox           |
|  \\    /   O peration     | Version:  v2106                                 |
|   \\  /    A nd           | Website:  www.openfoam.com                      |
|    \\/     M anipulation  |                                                 |
\*---------------------------------------------------------------------------*/
FoamFile
{
    version     2.0;
    format      ascii;
    arch        "LSB;label=32;scalar=64";
    class       volScalarField;
    location    "12.5";
    object      gradTx;
}
// * * * * * * * * * * * * * * * * * * * * * * * * * * * * * * * * * * * * * //

dimensions      [0 -1 0 1 0 0 0];

internalField   nonuniform List<scalar> 
4000
(
-0.00018626379
-0.00069321255
0.00064943944
0.00072965212
-0.00073256965
-0.00059106169
-0.00024570219
-6.7766435e-05
-2.8916698e-05
-9.8374812e-06
-0.00043829993
-5.7713989e-05
0.0011777134
0.00012022617
-0.00084142174
-0.00053400671
-0.00017552372
-1.270202e-07
0.00012605931
6.7332589e-05
0.00023740192
0.00054326688
0.00059744569
-5.5394737e-05
-0.00080444037
-0.00044738129
-0.0001452505
-8.2325911e-05
5.0283913e-05
6.3984446e-05
-8.6117298e-05
-0.00010970774
0.00040010838
-5.0547396e-05
-0.00070566432
-0.00030776977
-2.2886683e-05
-8.2987507e-05
-0.00014228208
-3.2592159e-05
-0.00016888204
-0.00024177998
0.00042667212
3.6158985e-05
-0.00058954121
-0.00016477192
0.00015037274
0.0001051967
2.2570853e-05
1.4631773e-05
-0.00015868536
-0.00018157846
0.00053586579
0.00016435177
-0.0004686165
-5.2667112e-05
0.00026217102
0.00021901453
0.00012937607
4.7765084e-05
-0.00013084538
-9.8099574e-05
0.00065290906
0.00031876836
-0.00033443856
3.9259172e-05
0.00032243234
0.00025515376
0.00014628776
5.0560542e-05
-0.00011189971
-8.112678e-05
0.00068850284
0.00045997502
-0.0001835588
0.00011939249
0.00034480705
0.00023615223
0.00010291521
3.3615849e-05
-8.5752442e-05
-0.00011265905
0.00057004858
0.00050629097
-3.2436518e-05
0.00018921624
0.00033957005
0.00018450866
3.7253014e-05
1.2299761e-05
-8.5823729e-06
-1.9261591e-06
0.00042016146
0.00043226196
8.8099338e-05
0.00024310939
0.0003183462
0.0001271175
-5.2299164e-06
5.2938901e-06
-6.3252598e-05
-0.00068107061
0.0015671479
0.001247944
-0.0019504382
-0.0015503282
-0.00065745789
-0.00022239235
-0.00020171245
-8.7661533e-05
-0.00045441724
0.00041888485
0.0022465479
-1.1782407e-05
-0.0021415003
-0.0013777484
-0.00048275809
-6.8026225e-07
0.00031959112
0.00015438727
0.00067005104
0.0013547487
0.0011347279
-0.00037985967
-0.0020164634
-0.0011262926
-0.00041767314
-0.00026309243
0.00012221072
0.00016158312
-1.4839424e-06
-1.3535166e-05
0.00070696871
-0.00034894129
-0.001731267
-0.00071658102
-6.2093662e-05
-0.00025505991
-0.00034202731
-6.4351844e-05
-0.00016976655
-0.00027305497
0.00079756904
-0.00010126453
-0.0013933978
-0.00029665278
0.00043525476
0.00025669975
7.745003e-05
5.0999181e-05
-0.00012885872
-7.9560355e-05
0.0011172021
0.00027412434
-0.0010358548
3.6752094e-05
0.00076420622
0.00058125251
0.00036735326
0.00013803343
-5.4713326e-05
0.00015098066
0.0014587364
0.00072837528
-0.00064006464
0.00030877812
0.0009381363
0.00067663408
0.00039434395
0.00013620925
-1.2392182e-05
0.00016022439
0.0015378665
0.0011270522
-0.00020955489
0.00053963363
0.00099312882
0.00060154715
0.00023699082
7.4257052e-05
9.3094722e-05
0.00011028057
0.0012043568
0.0012481675
0.00019624778
0.00072871245
0.00095843093
0.00043144137
4.9358575e-05
1.9622852e-05
0.00033514353
0.00048414755
0.00087624807
0.0010822916
0.00049982569
0.00085652756
0.00086276637
0.00025656176
1.3772514e-05
5.0533012e-05
0.00039173058
9.6725524e-05
0.0021028923
0.0011553921
-0.0029627487
-0.0022307007
-0.00092343498
-0.00031530228
-0.00054550921
-0.00029821291
-0.0004007915
0.0008409843
0.0027313636
-0.00045109077
-0.0031401125
-0.0019438722
-0.0007277902
4.2170581e-05
0.00053980092
0.00020925515
0.0008879031
0.0018179376
0.0013118377
-0.00089130403
-0.0028825888
-0.0015008729
-0.00064019181
-0.00045906089
0.00019560591
0.00023321193
1.8189359e-05
4.9929684e-05
0.00077744632
-0.00079433197
-0.0024008181
-0.00080862107
-2.817004e-05
-0.00038890106
-0.00040663856
-5.9314624e-05
-0.0001830855
-0.00022875854
0.0009685965
-0.00038040167
-0.0018466839
-0.00012134532
0.00077374146
0.00041235749
0.00023387535
0.00011536616
-0.00010005311
0.00013008966
0.0015167407
0.00024157294
-0.0012604776
0.0004230475
0.0013021456
0.00091653326
0.00066156497
0.00023910039
8.1335202e-06
0.0005010693
0.0021038477
0.00099912594
-0.0006150153
0.00086056343
0.0015671461
0.0010348527
0.00064235295
0.00020994689
3.0376738e-05
0.00041333284
0.0022163608
0.0016555062
6.9838018e-05
0.0012164522
0.0016202563
0.00085858521
0.00031806886
8.4141757e-05
0.00024644877
0.00035731069
0.001672776
0.0018705443
0.00069041904
0.0014830587
0.0015091981
0.00054489257
6.7845924e-05
3.6070621e-05
0.00075391682
0.001154448
0.0012699213
0.0016937757
0.0011380416
0.0016249298
0.0012767601
0.00028407816
4.496039e-05
6.8884738e-05
0.0006458859
0.00039192137
0.0023558413
0.0010760429
-0.0037054837
-0.0026571043
-0.0010806516
-0.0003342538
-0.00077377285
-0.00047456279
-0.00040263586
0.00099444107
0.0029898108
-0.00078901221
-0.0038258553
-0.0022392278
-0.00092350649
2.1039116e-05
0.00075412841
0.00026892229
0.0010475657
0.0020483506
0.0013355632
-0.0012535828
-0.0034111394
-0.0015797678
-0.00078525285
-0.00066774596
0.00035801113
0.00034751779
2.0010474e-05
-2.5837005e-05
0.00074473807
-0.0010678149
-0.0027269455
-0.00060674247
7.2962689e-05
-0.00054313494
-0.00036010203
2.7988335e-06
-0.00019580436
-0.00028127507
0.0010567606
-0.00048170223
-0.0019589875
0.00033892108
0.0011594795
0.00051401801
0.00046308634
0.00022444707
-6.0237236e-05
0.00026850738
0.0018436479
0.000384337
-0.0011513834
0.0010826359
0.0018673689
0.001165291
0.00098413376
0.0003684267
8.2779997e-05
0.00079606141
0.0026892459
0.0014369867
-0.00026960915
0.0016680354
0.0021962274
0.0012652007
0.00086230125
0.00029070084
4.4526178e-05
0.00056390613
0.0028401171
0.0023290693
0.00064302284
0.0021193838
0.0022066456
0.00093965737
0.000335297
9.3236774e-05
0.00031964194
0.00046256924
0.0021250718
0.0026187506
0.0014388168
0.0024192181
0.0019705938
0.00048670633
0.00020787203
0.00015638206
0.001063127
0.0016956901
0.0017258866
0.0024341446
0.0019872586
0.0025185987
0.0015578089
0.00028522815
0.00016976969
6.7835218e-05
0.00072301426
0.00036609276
0.0025830374
0.0011571899
-0.004167676
-0.002823484
-0.0011166631
-0.00038437488
-0.0010158805
-0.00063205646
-0.00049289735
0.00097795043
0.0032670383
-0.00092810991
-0.0042072214
-0.0022423569
-0.00096265895
-9.6159859e-06
0.00092189154
0.00032122385
0.0011309194
0.0021511244
0.0014173498
-0.0013960837
-0.0036277707
-0.0013626478
-0.000769895
-0.0008664676
0.00049526645
0.00045693621
-3.689679e-05
-0.00018773726
0.00079350613
-0.0011109235
-0.0027406895
-0.00011603021
0.00031857042
-0.00070310016
-0.00034256297
6.0846721e-05
-0.00025928051
-0.00040214923
0.0012345361
-0.00035104183
-0.001763041
0.0010779455
0.0016706572
0.00058198388
0.00063397732
0.0003203137
-6.3260376e-05
0.00035216814
0.0022600381
0.00075380618
-0.00074225066
0.002008936
0.0025390465
0.0013518967
0.0012129382
0.00047204966
0.00012813755
0.001058687
0.0033608628
0.0020895515
0.00036192525
0.002724889
0.0029054177
0.0013929266
0.00093399443
0.00032556833
3.9409088e-05
0.00069893628
0.0035412675
0.0031943584
0.0014782254
0.0032436965
0.0028304154
0.00085738009
0.0001419703
3.7747295e-05
0.00037797681
0.00057659424
0.0026673787
0.003538003
0.0024169222
0.0035358317
0.0024109011
0.0002285744
0.0002685986
0.00030117491
0.0013312571
0.0022100832
0.002276813
0.0033330692
0.0030337266
0.0035437136
0.0017594475
0.00019198426
0.00031130238
6.621648e-05
0.00076489628
0.0003207063
0.0029007403
0.0014169447
-0.0043726779
-0.0027302936
-0.0009488382
-0.00032654791
-0.0011851488
-0.00075959315
-0.0005890385
0.00098278997
0.0036471579
-0.00086860464
-0.004325719
-0.0019806117
-0.00078843592
7.5385379e-05
0.0011405592
0.00038736353
0.0012062854
0.0022866684
0.001624794
-0.0013300999
-0.0035817291
-0.00088576516
-0.00054724404
-0.0009470755
0.00068069054
0.00057480773
-9.1426784e-05
-0.00029315631
0.00097974522
-0.00094212115
-0.0024953877
0.00062472522
0.00075614445
-0.00075830276
-0.00028347638
0.00012582694
-0.0003174142
-0.00046037624
0.0015512775
-1.0837562e-05
-0.0013143417
0.0020561943
0.002356935
0.00073321911
0.00082555857
0.000416739
-6.0120855e-05
0.00049779248
0.0028100766
0.0013252663
-8.944567e-05
0.0031631361
0.0033704961
0.0016015101
0.0014395978
0.000568559
0.00018237375
0.0013841522
0.0041566144
0.0029311219
0.0012240692
0.0039957403
0.0037561278
0.001557317
0.00096827284
0.00034020893
4.6814003e-05
0.00089938665
0.0043546569
0.0042294454
0.002524906
0.0045623288
0.0035675911
0.00076786142
-0.00014689442
-5.9027773e-05
0.00045032927
0.00076362461
0.0033229263
0.0046114165
0.0035838821
0.0048198382
0.0029224791
-8.7249334e-05
0.00025280972
0.00043330735
0.0015972859
0.0027652259
0.0029306214
0.0043743134
0.0042479802
0.0047050431
0.0019810989
5.2398309e-05
0.00042590544
5.6369367e-05
0.00081397447
0.00033846301
0.0033189899
0.0018250844
-0.0043697594
-0.0024299696
-0.00060257037
-0.00014528282
-0.0012731574
-0.00086255366
-0.00066591781
0.0010555129
0.0041273079
-0.00064542154
-0.0042358388
-0.001515271
-0.00043647227
0.0002808465
0.0014197244
0.00046678521
0.0012920077
0.00248729
0.001948218
-0.0010952641
-0.0033309746
-0.00021303177
-0.00015298488
-0.00090643398
0.00092255246
0.00070150825
-0.00012703913
-0.00031525906
0.0012887146
-0.00060496352
-0.0020517145
0.0015502389
0.0013518331
-0.00070134599
-0.00017032795
0.00019951753
-0.00035499627
-0.00043305854
0.001988676
0.00049258333
-0.00067539635
0.0032076575
0.0031859928
0.00097952949
0.0010561833
0.00051749975
-3.775871e-05
0.00072352572
0.0034728389
0.0020506148
0.00074362775
0.0044795648
0.004331964
0.0019318491
0.0016915152
0.00066516892
0.00025480278
0.0017838793
0.005054186
0.0039132726
0.0022539295
0.0054173211
0.0047248396
0.0017884349
0.0010119153
0.00034944445
7.297336e-05
0.0011731112
0.0052611443
0.0053895925
0.0037237586
0.0060184115
0.0044081689
0.00072443082
-0.00045578496
-0.00017253281
0.000538889
0.0010227282
0.0040719935
0.0057992361
0.0048871246
0.0062262265
0.0035174213
-0.00038614146
0.00020351887
0.000550895
0.0018682279
0.003368821
0.003671092
0.0055232233
0.0055856017
0.0059741436
0.0022608687
-8.3965638e-05
0.00051863946
3.754759e-05
0.00087368176
0.00041832402
0.0038136159
0.0023427711
-0.0042052998
-0.0019752463
-0.00012402601
0.00013406484
-0.0012953248
-0.00094695051
-0.00072302108
0.0011869563
0.0046796347
-0.00029779954
-0.0039854602
-0.00090146845
4.5629119e-05
0.00057999126
0.0017450336
0.00055508397
0.0013861033
0.002739152
0.0023579476
-0.00073266742
-0.0029252239
0.0005992712
0.000366845
-0.00076871564
0.001209399
0.00083405506
-0.0001456752
-0.00026871191
0.001688766
-0.00014262407
-0.001461199
0.002603121
0.0020606854
-0.00055310361
-1.0224346e-05
0.00028055587
-0.00037427709
-0.00033628654
0.0025131231
0.0011142287
0.0001008815
0.004474215
0.0041135198
0.0013023609
0.001321968
0.00062237249
8.8454181e-07
0.001011364
0.0042130272
0.0028834813
0.0017032833
0.0059001894
0.0053805883
0.0023276296
0.0019695692
0.00076342035
0.00034157479
0.0022382309
0.0060177126
0.0049891725
0.0033979498
0.0069330053
0.0057723314
0.0020780505
0.001076862
0.00035917252
0.00011398796
0.001502235
0.0062280835
0.0066301561
0.0050231863
0.0075590009
0.0053207531
0.00073315999
-0.00075187724
-0.0002889497
0.00063885907
0.0013354505
0.0048846177
0.007060249
0.0062786831
0.0077086949
0.0041778617
-0.00064374217
0.00015155659
0.00066023699
0.0021408935
0.0040069588
0.0044728256
0.0067427252
0.0070029798
0.007313895
0.0025993067
-0.00019214546
0.00060635436
1.4248814e-05
0.00093991406
0.00054406844
0.004357448
0.0029358532
-0.0039162963
-0.0014075852
0.00044777505
0.00048433568
-0.0012664042
-0.0010161857
-0.00076415582
0.0013595348
0.0052759986
0.00014090743
-0.003612155
-0.0001816443
0.00061911418
0.00094619696
0.002101654
0.00064892213
0.0014835583
0.0030230415
0.0028258596
-0.00027636489
-0.0024032408
0.0015077667
0.00097449698
-0.00055798114
0.0015286643
0.00096977019
-0.00015178872
-0.00017205358
0.0021510899
0.00040967409
-0.00076391013
0.0037389142
0.0028451567
-0.00033569051
0.00018721417
0.00036734896
-0.00037973885
-0.00018917658
0.0030946262
0.0018176365
0.00097336148
0.0058106643
0.0051019442
0.0016805103
0.0016147559
0.00073029673
5.097213e-05
0.0013410019
0.0049993348
0.0037862764
0.002747723
0.0073797477
0.0064795683
0.0027693931
0.0022679986
0.00086310931
0.00043755505
0.0027261753
0.0070151847
0.006120534
0.004614195
0.0084983883
0.0068640736
0.0024107939
0.0011632292
0.00037141569
0.00016519821
0.0018677239
0.0072253774
0.0079137236
0.0063821346
0.0091418771
0.0062754303
0.00078668164
-0.0010234564
-0.00040181529
0.00074546256
0.0016838585
0.0057332973
0.0083590254
0.0077192785
0.0092286719
0.0048813622
-0.00085670171
0.0001116912
0.00076597925
0.0024105704
0.0046627923
0.0053109375
0.0079998152
0.0084629191
0.0086903504
0.0029839753
-0.00026485637
0.00070059667
-9.2116428e-06
0.0010087995
0.00070149637
0.0049280939
0.0035772434
-0.0035308781
-0.0007580424
0.001083525
0.00088387888
-0.0011977789
-0.0010722766
-0.0007924733
0.0015587829
0.005893606
0.00064458116
-0.0031444749
0.00061237143
0.0012549777
0.0013582478
0.002477149
0.00074570966
0.0015803239
0.0033236167
0.0033297059
0.00024724082
-0.0017945057
0.0024796975
0.0016414092
-0.00029358849
0.0018691904
0.0011062127
-0.00014879856
-3.9605119e-05
0.0026532378
0.0010247857
9.6385926e-06
0.0049237935
0.0036763622
-6.7441871e-05
0.00041267393
0.00045812166
-0.00037478424
-6.3857974e-06
0.0037099104
0.002574738
0.0019106596
0.0071824208
0.0061219504
0.0020957409
0.001925696
0.00083968407
0.00010880353
0.0016967673
0.0058073513
0.0047299509
0.0038449438
0.0088834618
0.0075998984
0.003239755
0.0025791397
0.00096306901
0.00053882497
0.0032313541
0.0080213324
0.0072774613
0.0058703279
0.010079151
0.0079724871
0.0027717883
0.0012667424
0.00038624864
0.00022310529
0.0022546515
0.0082287358
0.0092104921
0.0077684801
0.010733999
0.0072475141
0.00087488403
-0.001268373
-0.00050867416
0.00085507093
0.0020538867
0.0065956427
0.0096667907
0.0091775248
0.010755198
0.0056076161
-0.0010291159
8.8131126e-05
0.00086984109
0.0026730572
0.0053216208
0.0061642607
0.0092669977
0.0099349458
0.010075045
0.0034000014
-0.00030372724
0.00080544406
-3.0465531e-05
0.0010775549
0.00088012611
0.005508091
0.0042457956
-0.0030704941
-5.0176387e-05
0.0017611951
0.0013161237
-0.0010982359
-0.0011166536
-0.00081009849
0.0017740139
0.0065146905
0.0011929776
-0.0026042925
0.001456253
0.0019313658
0.0017997576
0.002861229
0.00084322855
0.0016734801
0.0036295082
0.0038523759
0.00081776622
-0.0011216969
0.0034898218
0.0023458821
9.4441195e-06
0.0022213902
0.0012410874
-0.0001390322
0.00011829874
0.0031780719
0.0016817789
0.00083587937
0.0061314761
0.00453204
0.00023716154
0.00065780708
0.0005510232
-0.00036173188
0.0002014788
0.0043411772
0.0033638409
0.0028884389
0.0085624359
0.007150649
0.0025332759
0.0022464309
0.0009487111
0.00017176882
0.0020670959
0.0066182439
0.0056919147
0.0049700053
0.010383992
0.0087187237
0.0037243121
0.00289524
0.0010617006
0.00064255439
0.003741477
0.0090164002
0.0084364549
0.0071409552
0.01164815
0.0090756325
0.0031482892
0.0013818857
0.00040288923
0.00028521595
0.0026517829
0.009218918
0.010496682
0.009156689
0.012308976
0.0082170142
0.00098817816
-0.0014881699
-0.00060889554
0.00096497702
0.0024347974
0.0074538041
0.010960287
0.010628106
0.012263164
0.0063394986
-0.0011669507
7.9936683e-05
0.00097167583
0.0029248592
0.0059714089
0.0070154961
0.010521722
0.011394122
0.011444431
0.0038336043
-0.00031377084
0.00092016961
-4.8740261e-05
0.0011441606
0.0010721718
0.0060837155
0.0049247954
-0.002551842
0.00069761534
0.0024637301
0.001768227
-0.00097464618
-0.0011504075
-0.00081848462
0.0019972205
0.0071252621
0.0017701845
-0.0020087344
0.0023308457
0.0026313276
0.002257945
0.0032454112
0.00093956263
0.0017608597
0.0039321188
0.004380517
0.0014192049
-0.00040267805
0.0045180973
0.0030709924
0.00033943222
0.0025772098
0.0013723184
-0.0001241202
0.00029402202
0.0037122645
0.0023641872
0.0016961386
0.007340911
0.0053946157
0.00056673937
0.00091549435
0.00064431556
-0.00034221422
0.00042652822
0.0049745197
0.0041678
0.0038873063
0.0099288899
0.0081697526
0.0029812722
0.0025696434
0.0010556069
0.00023795153
0.0024431859
0.0074171375
0.0066541715
0.0061029079
0.011859159
0.0098176347
0.0042113546
0.0032093256
0.0011573747
0.000746606
0.0042470102
0.009984585
0.0095785926
0.0084055541
0.01318324
0.010155718
0.0035297944
0.0015033778
0.00042033777
0.00034968317
0.0030504482
0.010180426
0.011752932
0.010525927
0.013845124
0.0091675749
0.0011184082
-0.0016852798
-0.00070249346
0.0010730847
0.0028182153
0.0082933794
0.012220433
0.012050169
0.013731763
0.0070627719
-0.0012758985
8.4354213e-05
0.0010705265
0.0031630548
0.0066023041
0.0078505088
0.011745365
0.012819758
0.012778859
0.0042729696
-0.00030061535
0.0010419365
-6.4105251e-05
0.001207073
0.0012716347
0.0066439702
0.0056007921
-0.0019882365
0.0014705482
0.0031775173
0.0022300189
-0.000832417
-0.001174367
-0.0008186838
0.0022221992
0.0077140965
0.0023634488
-0.0013715394
0.0032206369
0.0033413251
0.0027226607
0.0036227241
0.0010330901
0.0018407826
0.0042247326
0.004903476
0.0020387145
0.00034812341
0.0055481625
0.0038031747
0.00068716355
0.0029299774
0.0014981014
-0.00010526628
0.00048170494
0.0042451877
0.0030587498
0.0025752314
0.0085347688
0.0062498538
0.00091226941
0.0011798304
0.00073647396
-0.00031744627
0.00066265498
0.005598777
0.0049727229
0.0048913879
0.011263693
0.0091642887
0.0034301892
0.0028891706
0.0011587965
0.00030586517
0.0028180649
0.0081919584
0.0076020142
0.0072271694
0.013290465
0.010881449
0.0046913573
0.0035154625
0.0012486243
0.0008492795
0.0047402693
0.010912909
0.010688253
0.0096470838
0.014665857
0.011198004
0.0039077385
0.0016267011
0.00043766606
0.00041507036
0.0034437223
0.011100487
0.012963128
0.011858765
0.01532418
0.010085603
0.0012589266
-0.0018619108
-0.00078960484
0.0011777074
0.003197414
0.0091025176
0.013431279
0.013426172
0.015143406
0.0077655732
-0.0013607121
9.8397425e-05
0.0011652227
0.0033851645
0.0072061166
0.0086575934
0.012922322
0.014194397
0.01406171
0.0047082294
-0.00026937711
0.0011673953
-7.6939576e-05
0.0012650694
0.0014737491
0.0071798859
0.0062627707
-0.0013905576
0.0022564338
0.0038914049
0.0026932729
-0.00067584025
-0.0011891531
-0.00081149681
0.0024440116
0.0082720364
0.0029623427
-0.00070400154
0.0041127513
0.0040502691
0.0031856917
0.0039874225
0.0011224561
0.001911911
0.0045019723
0.005412578
0.0026657653
0.0011187675
0.0065663418
0.0045312875
0.0010452484
0.0032741768
0.001616899
-8.3396408e-05
0.00067670373
0.0047681707
0.0037545423
0.0034605075
0.0096984593
0.0070859618
0.0012664928
0.001445953
0.00082620012
-0.00028837432
0.00090496691
0.0062047777
0.0057670922
0.0058873769
0.01255152
0.010121744
0.0038722513
0.0031998891
0.0012569309
0.00037430763
0.0031860288
0.0089326797
0.0085231518
0.0083288865
0.014662161
0.011897404
0.0051565061
0.0038087075
0.0013341947
0.00094917062
0.0052148749
0.011790486
0.01175227
0.010851078
0.016080126
0.01219006
0.0042751188
0.0017481653
0.00045410447
0.00048021712
0.0038259114
0.011968372
0.014113608
0.013140329
0.016730477
0.01095964
0.0014043947
-0.0020197389
-0.00087030911
0.0012774498
0.0035668503
0.0098712868
0.014579273
0.014741092
0.016482993
0.008437949
-0.0014251377
0.00011942928
0.0012546354
0.003589059
0.0077759284
0.0094269029
0.014039321
0.015503084
0.015278753
0.0051311933
-0.00022434136
0.0012933933
-8.7666414e-05
0.0013171631
0.0016746391
0.0076840386
0.0069015603
-0.00076792408
0.0030449841
0.0045960476
0.0031511974
-0.00050837587
-0.0011952333
-0.00079755897
0.0026586453
0.0087915091
0.0035581651
-1.5641245e-05
0.0049962626
0.0047488719
0.0036402649
0.004334732
0.0012065304
0.0019731672
0.0047594579
0.0059006312
0.0032915353
0.0018991326
0.0075609669
0.0052459811
0.0014076408
0.0036052152
0.0017274066
-5.9245262e-05
0.00087523794
0.0052739954
0.0044423692
0.0043411879
0.010819468
0.007892982
0.0016234626
0.0017098331
0.00091239517
-0.0002557629
0.0011494329
0.0067848354
0.0065411598
0.0068638806
0.013779166
0.011031486
0.0043010307
0.0034975328
0.0013488673
0.00044227662
0.0035422946
0.0096308246
0.0094071172
0.0093961006
0.015960629
0.01285461
0.005600318
0.0040849558
0.0014130316
0.0010450895
0.0056654158
0.012608041
0.012759359
0.012005041
0.017412282
0.013121269
0.0046261659
0.0018648026
0.00046904356
0.00054415952
0.0041922281
0.012774935
0.015192622
0.014357729
0.018050411
0.01177992
0.001550532
-0.0021599165
-0.00094459197
0.0013711344
0.0039218592
0.010591239
0.015652749
0.015981897
0.017737417
0.0090714828
-0.0014720514
0.00014529106
0.0013377582
0.0037728981
0.0083058191
0.010150036
0.01508494
0.016732851
0.016417681
0.0055350475
-0.00016897951
0.0014171998
-9.6652809e-05
0.0013625512
0.0018710877
0.0081502064
0.0075094041
-0.00012818376
0.0038273176
0.0052834514
0.003598072
-0.0003328756
-0.0011929708
-0.00077739628
0.0028627823
0.0092661821
0.0041435062
0.00068530825
0.0058617072
0.0054291959
0.0040806896
0.0046606412
0.0012843651
0.0020236809
0.0049935765
0.0063615764
0.0039084736
0.0026804343
0.0085219006
0.0059392556
0.0017692883
0.0039192247
0.0018285156
-3.3412493e-05
0.0010741523
0.005756544
0.0051143293
0.0052078916
0.011886895
0.0086623684
0.0019782087
0.0019680856
0.00099412368
-0.00022025098
0.001392646
0.0073323995
0.007286522
0.0078109607
0.014935109
0.011884364
0.0047111353
0.0037785197
0.0014336369
0.00050891551
0.0038827704
0.010279127
0.010244856
0.010418357
0.017173961
0.013743677
0.006017353
0.0043407845
0.0014842523
0.0011360087
0.006087229
0.013357587
0.01369973
0.013098027
0.018650273
0.013982473
0.0049560822
0.0019742293
0.00048200956
0.0006060785
0.0045385746
0.0135123
0.016189964
0.015499665
0.01927207
0.012538051
0.0016938871
-0.0022831759
-0.0010123584
0.0014577538
0.0042584453
0.011255106
0.016641577
0.017137171
0.01889522
0.0096590071
-0.0015036428
0.00017426481
0.0014137198
0.0039350897
0.0087906749
0.010819744
0.016049259
0.017872364
0.017467779
0.0059140911
-0.00010607742
0.0015365217
-0.0001041871
0.0014005771
0.0020603709
0.0085731203
0.0080796449
0.00052172766
0.0045956043
0.0059466485
0.0040289856
-0.00015175361
-0.0011826647
-0.00075146528
0.0030536339
0.0096907151
0.0047119294
0.001391545
0.0067007341
0.006084331
0.0045020989
0.0049617424
0.0013551595
0.0020627524
0.0052013183
0.006790235
0.0045099836
0.003454876
0.0094401962
0.0066041451
0.0021258744
0.0042129076
0.0019192799
-6.4021378e-06
0.0012707485
0.0062105471
0.0057635039
0.0060522961
0.012891127
0.0093866846
0.0023264902
0.0022178181
0.0010705817
-0.00018239128
0.001631657
0.0078418096
0.0079958151
0.008719806
0.016009192
0.012672422
0.0050979768
0.0040398118
0.001510415
0.00057347608
0.0042038969
0.010871298
0.011028434
0.011386392
0.018291667
0.014556447
0.0064029978
0.0045733218
0.0015471182
0.0012210286
0.0064762489
0.014032203
0.01456481
0.014120346
0.019783489
0.014765731
0.0052608395
0.0020745222
0.00049263746
0.00066526436
0.0048613934
0.014173652
0.017096711
0.016556154
0.020384975
0.013226784
0.0018316492
-0.0023899435
-0.0010734572
0.0015364375
0.0045731377
0.011856594
0.017536913
0.018196853
0.019946352
0.010194382
-0.0015215863
0.00020499075
0.0014817735
0.0040742617
0.0092260546
0.011429727
0.016923615
0.018911658
0.018419686
0.006263519
-3.7882262e-05
0.0016494475
-0.000110486
0.0014307043
0.0022401362
0.0089482823
0.0086064941
0.0011755224
0.005342806
0.0065794627
0.0044396451
3.2885521e-05
-0.0011645814
-0.00072018239
0.003228819
0.010060579
0.0052577372
0.0020964376
0.0075058516
0.0067081617
0.0049002606
0.0052351134
0.0014182332
0.0020898262
0.0053801587
0.0071821263
0.0050901911
0.0042153943
0.010307852
0.0072344894
0.0024736302
0.0044834202
0.0019988917
2.1348762e-05
0.001462663
0.0066314027
0.0063837302
0.006866891
0.013823605
0.010059385
0.0026646122
0.002456516
0.0011410715
-0.0001426784
0.0018638556
0.0083081193
0.0086624969
0.0095824961
0.016992404
0.013388698
0.0054575992
0.0042788072
0.0015784979
0.00063529225
0.004502535
0.011401856
0.011750832
0.012291911
0.019304466
0.015285805
0.0067533048
0.0047801451
0.0016010123
0.001299352
0.0068289016
0.014625873
0.015347049
0.015063357
0.02080256
0.015464133
0.0055370254
0.0021641178
0.00050064771
0.0007210916
0.0051575617
0.01475308
0.017905041
0.017518331
0.021379901
0.013839837
0.001961498
-0.0024804413
-0.0011277051
0.0016064289
0.0048628867
0.012390225
0.018331018
0.019152049
0.020881987
0.010672326
-0.0015271877
0.00023638322
0.0015412818
0.0041892435
0.0096080963
0.011974482
0.017700428
0.01984196
0.019265211
0.0065792502
3.3763467e-05
0.0017543761
-0.0001157099
0.0014524957
0.0024083119
0.0092718304
0.0090848607
0.0018273652
0.0060624867
0.0071763364
0.0048262346
0.00021915035
-0.0011389787
-0.00068394587
0.0033862754
0.010371923
0.0057757994
0.0027938333
0.0082702419
0.0072951958
0.0052714365
0.0054782289
0.0014730059
0.0021044714
0.0055279706
0.007533333
0.0056437741
0.0049554725
0.011117633
0.0078247657
0.002809192
0.0047282849
0.0020666622
4.9449045e-05
0.001647778
0.0070150436
0.0069694356
0.0076447986
0.014676652
0.010674656
0.0029892877
0.0026819551
0.0012049827
-0.00010156955
0.002086884
0.0087269693
0.0092806885
0.010391831
0.017876724
0.014027069
0.0057865485
0.0044932573
0.0016372846
0.00069376106
0.0047758852
0.011866009
0.012405794
0.013127425
0.020204133
0.015925536
0.0070648692
0.0049592018
0.0016454212
0.0013702673
0.0071420304
0.015133379
0.016039779
0.015919312
0.021699219
0.01607167
0.0057817235
0.0022417318
0.00050582729
0.00077300065
0.0054243145
0.015245469
0.018608097
0.018378304
0.022248734
0.014371763
0.002081483
-0.0025547718
-0.0011749079
0.0016670685
0.0051249877
0.01285123
0.019017136
0.019994893
0.021694394
0.011088283
-0.0015215062
0.00026755667
0.0015917033
0.004279053
0.0099334491
0.012449196
0.018373069
0.020655551
0.019997209
0.0068577898
0.00010730784
0.0018499502
-0.00011997891
0.0014655987
0.0025630383
0.0095404377
0.0095102227
0.0024717261
0.0067486694
0.0077322011
0.0051853073
0.00040528842
-0.0011061243
-0.00064315243
0.0035241906
0.010621472
0.0062614224
0.0034779131
0.0089876227
0.0078404343
0.005612276
0.0056888933
0.0015189818
0.0021063669
0.0056429587
0.0078404007
0.0061658354
0.0056690005
0.011862938
0.0083699616
0.0031294931
0.004945324
0.0021220078
7.7537451e-05
0.0018241536
0.0073578385
0.007515514
0.0083796401
0.015443347
0.011227293
0.003297531
0.0028921334
0.001261777
-5.9499964e-05
0.0022985715
0.0090944923
0.0098450551
0.011141202
0.018654994
0.01458214
0.0060817726
0.0046812026
0.0016862625
0.00074832874
0.005021428
0.012259566
0.012987715
0.013886129
0.020983391
0.016470215
0.0073347322
0.0051087467
0.0016799216
0.0014331355
0.0074128402
0.015550217
0.016637111
0.016681246
0.022466195
0.016583125
0.0059924177
0.002306294
0.00050801408
0.00082048422
0.0056591885
0.015646425
0.019199893
0.01912905
0.022984376
0.014817853
0.0021899245
-0.0026129893
-0.0012148781
0.0017177813
0.005357026
0.013235472
0.01958939
0.020718447
0.02237684
0.011438317
-0.0015054562
0.00029776236
0.0016325801
0.0043428875
0.010199224
0.012849665
0.018935772
0.021345664
0.020609467
0.0070961171
0.00018139289
0.0019349984
-0.00012338744
0.0014697327
0.0027026138
0.0097512309
0.0098785244
0.0031032649
0.007395725
0.0082423746
0.0055137001
0.00058962639
-0.0010663117
-0.00059821026
0.0036409489
0.010806451
0.0067102477
0.0041430797
0.0096521384
0.0083392697
0.0059197304
0.0058651861
0.0015557373
0.0020952894
0.0057236067
0.0081002575
0.0066518021
0.0063501668
0.012537695
0.0088654738
0.0034316763
0.0051326048
0.0021644376
0.00010527
0.0019899754
0.0076565138
0.008017229
0.0090654315
0.016117432
0.011712606
0.0035865715
0.0030852158
0.0013109763
-1.6895037e-05
0.0024968844
0.0094072387
0.010350714
0.011824495
0.019320833
0.015049153
0.0063405381
0.0048409194
0.001724996
0.00079847987
0.0052368774
0.012578866
0.013491557
0.014561812
0.021635822
0.016915124
0.0075603018
0.0052272895
0.0017041681
0.0014873806
0.0076388549
0.015872532
0.017133852
0.017342885
0.023097127
0.016993991
0.0061669121
0.0023568919
0.00050708344
0.00086307662
0.0058599766
0.015952202
0.019675237
0.019764329
0.02358066
0.015174042
0.0022853297
-0.0026551624
-0.0012474512
0.0017580674
0.0055568311
0.013539373
0.020042714
0.021316615
0.022923501
0.011719019
-0.0014798957
0.00032633312
0.0016635279
0.0043801164
0.010402955
0.013172232
0.019383551
0.021906403
0.021096633
0.0072915904
0.00025477098
0.0020084841
-0.00012601724
0.0014646786
0.0028254474
0.0099017211
0.01018609
0.0037167342
0.0079982777
0.0087024739
0.0058084599
0.00077051866
-0.0010198726
-0.00054954997
0.0037350839
0.01092451
0.0071181647
0.0047838627
0.01025827
0.0087873985
0.0061909785
0.0060054148
0.0015829096
0.002071103
0.0057686316
0.008310146
0.0070973411
0.0069933667
0.013136276
0.0093070227
0.0037130177
0.0052883929
0.0021935442
0.00013230923
0.0021435088
0.0079080869
0.0084701315
0.0096964963
0.016693222
0.012126335
0.0038537788
0.0032594866
0.001352152
2.5819499e-05
0.0026798828
0.0096621129
0.010793157
0.012436007
0.019868558
0.015423909
0.0065603587
0.0049708729
0.0017531157
0.00084372825
0.0054201413
0.01282072
0.013912772
0.015148775
0.02215579
0.017256172
0.0077392814
0.0053135483
0.0017178827
0.0015324808
0.0078178812
0.016097065
0.01752544
0.017898575
0.023586497
0.017300399
0.0063032594
0.0023927209
0.00050293596
0.0009003446
0.0060246901
0.016159657
0.020029658
0.020278612
0.02403228
0.015436839
0.0023663167
-0.0026814301
-0.0012724997
0.0017874932
0.005722439
0.013759865
0.020372781
0.021784078
0.023329398
0.011927434
-0.0014457066
0.0003526327
0.001684226
0.0043902754
0.010542564