/*--------------------------------*- C++ -*----------------------------------*\
| =========                 |                                                 |
| \\      /  F ield         | OpenFOAM: The Open Source CFD Toolbox           |
|  \\    /   O peration     | Version:  v2106                                 |
|   \\  /    A nd           | Website:  www.openfoam.com                      |
|    \\/     M anipulation  |                                                 |
\*---------------------------------------------------------------------------*/
FoamFile
{
    version     2.0;
    format      ascii;
    arch        "LSB;label=32;scalar=64";
    class       volScalarField;
    location    "12.5";
    object      gradTz;
}
// * * * * * * * * * * * * * * * * * * * * * * * * * * * * * * * * * * * * * //

dimensions      [0 -1 0 1 0 0 0];

internalField   nonuniform List<scalar> 
4000
(
530.91461
530.91399
530.91277
530.91633
530.91506
530.91357
530.91285
530.91264
530.91256
530.91245
530.91399
530.91222
530.91415
530.91607
530.91439
530.91296
530.9124
530.91229
530.9124
530.91276
530.91277
530.91415
530.91476
530.91611
530.9144
530.91315
530.91275
530.91258
530.91241
530.91277
530.91633
530.91607
530.91611
530.91735
530.91577
530.91478
530.91468
530.91469
530.91434
530.91418
530.91506
530.91439
530.9144
530.91577
530.9144
530.91366
530.91388
530.91426
530.91426
530.91435
530.91357
530.91296
530.91315
530.91478
530.91366
530.91315
530.91358
530.91419
530.91441
530.91469
530.91285
530.9124
530.91275
530.91468
530.91388
530.91358
530.91416
530.91485
530.91512
530.91541
530.91264
530.91229
530.91258
530.91469
530.91426
530.91419
530.91485
530.91554
530.91573
530.9159
530.91256
530.9124
530.91241
530.91434
530.91426
530.91441
530.91512
530.91573
530.91578
530.91583
530.91245
530.91276
530.91277
530.91418
530.91435
530.91469
530.91541
530.9159
530.91583
530.9159
532.36067
532.36154
532.36146
532.36299
532.36189
532.36076
532.36025
532.36009
532.36
532.35957
532.36154
532.3616
532.36244
532.36315
532.36187
532.36085
532.36046
532.3603
532.3605
532.36071
532.36146
532.36244
532.36274
532.36315
532.3619
532.36107
532.36085
532.36058
532.36047
532.36073
532.36299
532.36315
532.36315
532.36353
532.36241
532.36183
532.36191
532.36183
532.3616
532.36156
532.36189
532.36187
532.3619
532.36241
532.36149
532.36115
532.36153
532.36178
532.36184
532.36199
532.36076
532.36085
532.36107
532.36183
532.36115
532.36104
532.36163
532.36208
532.36233
532.36261
532.36025
532.36046
532.36085
532.36191
532.36153
532.36163
532.36235
532.36287
532.36313
532.36337
532.36009
532.3603
532.36058
532.36183
532.36178
532.36208
532.36287
532.36336
532.36349
532.36357
532.36
532.3605
532.36047
532.3616
532.36184
532.36233
532.36313
532.36349
532.36349
532.36353
532.35957
532.36071
532.36073
532.36156
532.36199
532.36261
532.36337
532.36357
532.36353
532.36362
535.02454
535.0256
535.02561
535.02639
535.02544
535.02463
535.02433
535.02421
535.02422
535.02364
535.0256
535.02568
535.02618
535.02642
535.0254
535.02474
535.02454
535.0243
535.02456
535.02473
535.02561
535.02618
535.0263
535.02638
535.02543
535.02498
535.02498
535.02461
535.02457
535.02485
535.02639
535.02642
535.02638
535.02646
535.02566
535.02546
535.02577
535.0256
535.02548
535.02558
535.02544
535.0254
535.02543
535.02566
535.02505
535.02509
535.02568
535.02582
535.02594
535.0262
535.02463
535.02474
535.02498
535.02546
535.02509
535.02535
535.02614
535.02645
535.02672
535.02707
535.02433
535.02454
535.02498
535.02577
535.02568
535.02614
535.02704
535.0274
535.02763
535.02786
535.02421
535.0243
535.02461
535.0256
535.02582
535.02645
535.0274
535.02766
535.02773
535.02776
535.02422
535.02456
535.02457
535.02548
535.02594
535.02672
535.02763
535.02773
535.02769
535.02789
535.02364
535.02473
535.02485
535.02558
535.0262
535.02707
535.02786
535.02776
535.02789
535.02792
539.00116
539.00166
539.00143
539.00214
539.00143
539.00093
539.00084
539.00074
539.00077
539.00027
539.00166
539.00152
539.0018
539.00206
539.00132
539.00099
539.00102
539.00075
539.00097
539.00114
539.00143
539.0018
539.00176
539.0019
539.00126
539.00116
539.0014
539.00103
539.00099
539.00133
539.00214
539.00206
539.0019
539.00207
539.00158
539.00173
539.00228
539.00208
539.00196
539.00214
539.00143
539.00132
539.00126
539.00158
539.00129
539.00167
539.00249
539.00257
539.00266
539.00297
539.00093
539.00099
539.00116
539.00173
539.00167
539.00225
539.00325
539.00349
539.00369
539.00404
539.00084
539.00102
539.0014
539.00228
539.00249
539.00325
539.00435
539.00459
539.00471
539.00488
539.00074
539.00075
539.00103
539.00208
539.00257
539.00349
539.00459
539.0047
539.00459
539.00452
539.00077
539.00097
539.00099
539.00196
539.00266
539.00369
539.00471
539.00459
539.00439
539.00479
539.00027
539.00114
539.00133
539.00214
539.00297
539.00404
539.00488
539.00452
539.00479
539.00479
544.26597
544.26615
544.2659
544.2667
544.26624
544.26603
544.26617
544.26616
544.26618
544.26575
544.26615
544.26587
544.26614
544.26653
544.26606
544.26603
544.26632
544.26616
544.26637
544.26655
544.2659
544.26614
544.26614
544.26643
544.26606
544.26626
544.26676
544.2665
544.26648
544.26682
544.2667
544.26653
544.26643
544.26676
544.26655
544.267
544.26779
544.26768
544.26757
544.26776
544.26624
544.26606
544.26606
544.26655
544.26653
544.2672
544.26825
544.2684
544.26847
544.26876
544.26603
544.26603
544.26626
544.267
544.2672
544.26806
544.26928
544.26956
544.26972
544.27002
544.26617
544.26632
544.26676
544.26779
544.26825
544.26928
544.27058
544.27084
544.27087
544.27095
544.26616
544.26616
544.2665
544.26768
544.2684
544.26956
544.27084
544.27092
544.27067
544.27044
544.26618
544.26637
544.26648
544.26757
544.26847
544.26972
544.27087
544.27067
544.2703
544.27071
544.26575
544.26655
544.26682
544.26776
544.26876
544.27002
544.27095
544.27044
544.27071
544.2707
550.788
550.78814
550.78797
550.78887
550.78864
550.78867
550.78904
550.78919
550.78927
550.78893
550.78814
550.78788
550.78822
550.78874
550.7885
550.78871
550.78923
550.78924
550.78952
550.78973
550.78797
550.78822
550.78831
550.78875
550.78861
550.78904
550.78976
550.78966
550.78972
550.79009
550.78887
550.78874
550.78875
550.78923
550.78925
550.78992
550.79092
550.79096
550.79092
550.79113
550.78864
550.7885
550.78861
550.78925
550.78945
550.79034
550.79158
550.79186
550.79198
550.79228
550.78867
550.78871
550.78904
550.78992
550.79034
550.79141
550.79281
550.7932
550.79339
550.79368
550.78904
550.78923
550.78976
550.79092
550.79158
550.79281
550.79428
550.79463
550.79467
550.79471
550.78919
550.78924
550.78966
550.79096
550.79186
550.7932
550.79463
550.79478
550.7945
550.79418
550.78927
550.78952
550.78972
550.79092
550.79198
550.79339
550.79467
550.7945
550.79406
550.79443
550.78893
550.78973
550.79009
550.79113
550.79228
550.79368
550.79471
550.79418
550.79443
550.79439
558.52924
558.5294
558.52934
558.53032
558.53026
558.53048
558.53102
558.53131
558.53148
558.5312
558.5294
558.5292
558.52961
558.53023
558.53018
558.53057
558.53126
558.53141
558.53176
558.53201
558.52934
558.52961
558.52979
558.53034
558.53039
558.531
558.53187
558.53191
558.53205
558.53244
558.53032
558.53023
558.53034
558.53094
558.53114
558.53198
558.53312
558.53328
558.53332
558.53356
558.53026
558.53018
558.53039
558.53114
558.53151
558.53255
558.53393
558.53431
558.5345
558.53481
558.53048
558.53057
558.531
558.53198
558.53255
558.53377
558.53529
558.53578
558.53602
558.53631
558.53102
558.53126
558.53187
558.53312
558.53393
558.53529
558.53687
558.53731
558.53739
558.53742
558.53131
558.53141
558.53191
558.53328
558.53431
558.53578
558.53731
558.53753
558.53727
558.53693
558.53148
558.53176
558.53205
558.53332
558.5345
558.53602
558.53739
558.53727
558.53683
558.53717
558.5312
558.53201
558.53244
558.53356
558.53481
558.53631
558.53742
558.53693
558.53717
558.53711
567.44387
567.44406
567.44407
567.44509
567.44518
567.44555
567.44621
567.4466
567.44684
567.44661
567.44406
567.44391
567.44436
567.44506
567.44515
567.44568
567.44648
567.44674
567.44715
567.44742
567.44407
567.44436
567.44461
567.44524
567.44543
567.44617
567.44715
567.44729
567.4475
567.4479
567.44509
567.44506
567.44524
567.44592
567.44625
567.44721
567.44844
567.4487
567.44881
567.44906
567.44518
567.44515
567.44543
567.44625
567.44675
567.4479
567.44936
567.44982
567.45006
567.45038
567.44555
567.44568
567.44617
567.44721
567.4479
567.44921
567.4508
567.45136
567.45164
567.45194
567.44621
567.44648
567.44715
567.44844
567.44936
567.4508
567.45244
567.45294
567.45306
567.45309
567.4466
567.44674
567.44729
567.4487
567.44982
567.45136
567.45294
567.45323
567.453
567.45266
567.44684
567.44715
567.4475
567.44881
567.45006
567.45164
567.45306
567.453
567.45259
567.45291
567.44661
567.44742
567.4479
567.44906
567.45038
567.45194
567.45309
567.45266
567.45291
567.45284
577.47884
577.47904
577.47912
577.48016
577.48036
577.48083
577.48157
577.48204
577.48232
577.48214
577.47904
577.47894
577.47941
577.48015
577.48036
577.48099
577.48187
577.4822
577.48265
577.48294
577.47912
577.47941
577.47971
577.48039
577.48069
577.48152
577.48257
577.48279
577.48304
577.48345
577.48016
577.48015
577.48039
577.48112
577.48155
577.48259
577.48387
577.4842
577.48436
577.48463
577.48036
577.48036
577.48069
577.48155
577.48215
577.48336
577.48486
577.48537
577.48565
577.48598
577.48083
577.48099
577.48152
577.48259
577.48336
577.48473
577.48635
577.48695
577.48726
577.48756
577.48157
577.48187
577.48257
577.48387
577.48486
577.48635
577.488
577.48855
577.4887
577.48874
577.48204
577.4822
577.48279
577.4842
577.48537
577.48695
577.48855
577.48888
577.48869
577.48836
577.48232
577.48265
577.48304
577.48436
577.48565
577.48726
577.4887
577.48869
577.48831
577.48863
577.48214
577.48294
577.48345
577.48463
577.48598
577.48756
577.48874
577.48836
577.48863
577.48856
588.57433
588.57453
588.57466
588.57568
588.57597
588.57653
588.57733
588.57784
588.57816
588.57801
588.57453
588.57446
588.57495
588.5757
588.576
588.57671
588.57764
588.57802
588.57849
588.57878
588.57466
588.57495
588.57527
588.57597
588.57636
588.57726
588.57835
588.57863
588.57891
588.57932
588.57568
588.5757
588.57597
588.57673
588.57725
588.57833
588.57964
588.58002
588.58021
588.58049
588.57597
588.576
588.57636
588.57725
588.57791
588.57916
588.58066
588.58121
588.58151
588.58184
588.57653
588.57671
588.57726
588.57833
588.57916
588.58055
588.58217
588.58279
588.58312
588.58342
588.57733
588.57764
588.57835
588.57964
588.58066
588.58217
588.58381
588.58438
588.58455
588.5846
588.57784
588.57802
588.57863
588.58002
588.58121
588.58279
588.58438
588.58473
588.58458
588.58427
588.57816
588.57849
588.57891
588.58021
588.58151
588.58312
588.58455
588.58458
588.58424
588.58455
588.57801
588.57878
588.57932
588.58049
588.58184
588.58342
588.5846
588.58427
588.58455
588.58449
600.66406
600.66426
600.66443
600.66542
600.66578
600.66639
600.66723
600.66778
600.66812
600.668
600.66426
600.66422
600.6647
600.66545
600.66582
600.66659
600.66754
600.66796
600.66844
600.66873
600.66443
600.6647
600.66504
600.66575
600.66621
600.66714
600.66825
600.66857
600.66888
600.66928
600.66542
600.66545
600.66575
600.66651
600.66709
600.6682
600.66951
600.66992
600.67014
600.67042
600.66578
600.66582
600.66621
600.66709
600.6678
600.66907
600.67055
600.67111
600.67143
600.67176
600.66639
600.66659
600.66714
600.6682
600.66907
600.67046
600.67204
600.67267
600.67301
600.6733
600.66723
600.66754
600.66825
600.66951
600.67055
600.67204
600.67365
600.67422
600.67441
600.67446
600.66778
600.66796
600.66857
600.66992
600.67111
600.67267
600.67422
600.67459
600.67447
600.67418
600.66812
600.66844
600.66888
600.67014
600.67143
600.67301
600.67441
600.67447
600.67416
600.67446
600.668
600.66873
600.66928
600.67042
600.67176
600.6733
600.67446
600.67418
600.67446
600.67441
613.67567
613.67586
613.67606
613.677
613.67742
613.67808
613.67894
613.6795
613.67985
613.67976
613.67586
613.67585
613.67631
613.67705
613.67748
613.67828
613.67925
613.67969
613.68017
613.68045
613.67606
613.67631
613.67666
613.67736
613.67788
613.67883
613.67994
613.68029
613.68061
613.681
613.677
613.67705
613.67736
613.67812
613.67874
613.67986
613.68114
613.68157
613.68182
613.6821
613.67742
613.67748
613.67788
613.67874
613.67949
613.68074
613.68219
613.68276
613.68308
613.6834
613.67808
613.67828
613.67883
613.67986
613.68074
613.68211
613.68365
613.68428
613.68462
613.6849
613.67894
613.67925
613.67994
613.68114
613.68219
613.68365
613.6852
613.68577
613.68596
613.68602
613.6795
613.67969
613.68029
613.68157
613.68276
613.68428
613.68577
613.68615
613.68604
613.68577
613.67985
613.68017
613.68061
613.68182
613.68308
613.68462
613.68596
613.68604
613.68577
613.68606
613.67976
613.68045
613.681
613.6821
613.6834
613.6849
613.68602
613.68577
613.68606
613.68602
627.5311
627.53128
627.5315
627.53238
627.53284
627.53354
627.5344
627.53497
627.53533
627.53527
627.53128
627.53129
627.53173
627.53244
627.53292
627.53375
627.5347
627.53516
627.53563
627.53591
627.5315
627.53173
627.53207
627.53276
627.53332
627.53428
627.53537
627.53574
627.53607
627.53644
627.53238
627.53244
627.53276
627.5335
627.53415
627.53526
627.53651
627.53695
627.53721
627.53748
627.53284
627.53292
627.53332
627.53415
627.53492
627.53615
627.53754
627.5381
627.53843
627.53874
627.53354
627.53375
627.53428
627.53526
627.53615
627.53749
627.53896
627.53957
627.5399
627.54017
627.5344
627.5347
627.53537
627.53651
627.53754
627.53896
627.54044
627.54099
627.54118
627.54124
627.53497
627.53516
627.53574
627.53695
627.5381
627.53957
627.54099
627.54136
627.54128
627.54102
627.53533
627.53563
627.53607
627.53721
627.53843
627.5399
627.54118
627.54128
627.54104
627.54131
627.53527
627.53591
627.53644
627.53748
627.53874
627.54017
627.54124
627.54102
627.54131
627.54128
642.14702
642.14718
642.14742
642.14822
642.14872
642.14944
642.1503
642.15086
642.15122
642.15119
642.14718
642.14721
642.14762
642.14829
642.14881
642.14965
642.15059
642.15105
642.15151
642.15177
642.14742
642.14762
642.14795
642.14862
642.14921
642.15017
642.15122
642.15161
642.15194
642.15228
642.14822
642.14829
642.14862
642.14932
642.15
642.15109
642.15228
642.15273
642.153
642.15326
642.14872
642.14881
642.14921
642.15
642.15078
642.15197
642.15329
642.15384
642.15416
642.15445
642.14944
642.14965
642.15017
642.15109
642.15197
642.15325
642.15464
642.15523
642.15555
642.1558
642.1503
642.15059
642.15122
642.15228
642.15329
642.15464
642.15604
642.15657
642.15676
642.1568
642.15086
642.15105
642.15161
642.15273
642.15384
642.15523
642.15657
642.15692
642.15686
642.15662
642.15122
642.15151
642.15194
642.153
642.15416
642.15555
642.15676
642.15686
642.15664
642.1569
642.15119
642.15177
642.15228
642.15326
642.15445
642.1558
642.1568
642.15662
642.1569
642.15687
657.43526
657.4354
657.43565
657.43637
657.4369
657.43764
657.43847
657.43903
657.43938
657.43937
657.4354
657.43545
657.43582
657.43645
657.437
657.43784
657.43875
657.43922
657.43965
657.43989
657.43565
657.43582
657.43615
657.43677
657.43739
657.43833
657.43934
657.43974
657.44007
657.44039
657.43637
657.43645
657.43677
657.43744
657.43813
657.43918
657.44032
657.44076
657.44103
657.44128
657.4369
657.437
657.43739
657.43813
657.43891
657.44005
657.44129
657.44182
657.44213
657.4424
657.43764
657.43784
657.43833
657.43918
657.44005
657.44127
657.44257
657.44312
657.44343
657.44365
657.43847
657.43875
657.43934
657.44032
657.44129
657.44257
657.44386
657.44436
657.44454
657.44459
657.43903
657.43922
657.43974
657.44076
657.44182
657.44312
657.44436
657.4447
657.44465
657.44444
657.43938
657.43965
657.44007
657.44103
657.44213
657.44343
657.44454
657.44465
657.44446
657.4447
657.43937
657.43989
657.44039
657.44128
657.4424
657.44365
657.44459
657.44444
657.4447
657.44468
673.30335
673.30347
673.30373
673.30436
673.30491
673.30565
673.30646
673.307
673.30734
673.30736
673.30347
673.30354
673.30387
673.30444
673.30502
673.30585
673.30672
673.30718
673.30759
673.30781
673.30373
673.30387
673.30417
673.30476
673.30539
673.30631
673.30727
673.30767
673.30799
673.30828
673.30436
673.30444
673.30476
673.30538
673.30608
673.30709
673.30815
673.30858
673.30885
673.30909
673.30491
673.30502
673.30539
673.30608
673.30685
673.30793
673.30908
673.30957
673.30987
673.31012
673.30565
673.30585
673.30631
673.30709
673.30793
673.30908
673.31026
673.31078
673.31107
673.31127
673.30646
673.30672
673.30727
673.30815
673.30908
673.31026
673.31145
673.31191
673.31208
673.31212
673.307
673.30718
673.30767
673.30858
673.30957
673.31078
673.31191
673.31223
673.31219
673.312
673.30734
673.30759
673.30799
673.30885
673.30987
673.31107
673.31208
673.31219
673.31203
673.31225
673.30736
673.30781
673.30828
673.30909
673.31012
673.31127
673.31212
673.312
673.31225
673.31223
689.655
689.65511
689.65537
689.6559
689.65647
689.65721
689.65799
689.6585
689.65883
689.65887
689.65511
689.65519
689.65547
689.65599
689.65659
689.6574
689.65823
689.65868
689.65905
689.65925
689.65537
689.65547
689.65576
689.65629
689.65694
689.65783
689.65873
689.65912
689.65943
689.65969
689.6559
689.65599
689.65629
689.65686
689.65756
689.65852
689.6595
689.65992
689.66019
689.66041
689.65647
689.65659
689.65694
689.65756
689.65832
689.65933
689.66037
689.66084
689.66112
689.66134
689.65721
689.6574
689.65783
689.65852
689.65933
689.66039
689.66146
689.66194
689.6622
689.66238
689.65799
689.65823
689.65873
689.6595
689.66037
689.66146
689.66253
689.66295
689.66311
689.66314
689.6585
689.65868
689.65912
689.65992
689.66084
689.66194
689.66295
689.66324
689.66321
689.66304
689.65883
689.65905
689.65943
689.66019
689.66112
689.6622
689.66311
689.66321
689.66308
689.66328
689.65887
689.65925
689.65969
689.66041
689.66134
689.66238
689.66314
689.66304
689.66328
689.66326
706.39072
706.39079
706.39106
706.39149
706.39207
706.3928
706.39354
706.39403
706.39433
706.3944
706.39079
706.39089
706.39113
706.39158
706.39219
706.39298
706.39376
706.39419
706.39453
706.39471
706.39106
706.39113
706.39139
706.39187
706.39252
706.39337
706.3942
706.39459
706.39488
706.39511
706.39149
706.39158
706.39187
706.39238
706.39307
706.39397
706.39486
706.39526
706.39552
706.39572
706.39207
706.39219
706.39252
706.39307
706.39381
706.39475
706.39568
706.3961
706.39636
706.39655
706.3928
706.39298
706.39337
706.39397
706.39475
706.39571
706.39666
706.39708
706.39732
706.39747
706.39354
706.39376
706.3942
706.39486
706.39568
706.39666
706.39759
706.39797
706.39811
706.39813
706.39403
706.39419
706.39459
706.39526
706.3961
706.39708
706.39797
706.39823
706.39821
706.39806
706.39433
706.39453
706.39488
706.39552
706.39636
706.39732
706.39811
706.39821
706.39811
706.39828
706.3944
706.39471
706.39511
706.39572
706.39655
706.39747
706.39813
706.39806
706.39828
706.39826
723.4083
723.40835
723.40862
723.40894
723.40952
723.41024
723.41093
723.41139
723.41168
723.41176
723.40835
723.40846
723.40864
723.40903
723.40965
723.41041
723.41113
723.41154
723.41184
723.41199
723.40862
723.40864
723.40888
723.4093
723.40996
723.41076
723.41151
723.41189
723.41217
723.41235
723.40894
723.40903
723.4093
723.40975
723.41043
723.41126
723.41205
723.41243
723.41269
723.41287
723.40952
723.40965
723.40996
723.41043
723.41114
723.41199
723.4128
723.41319
723.41343
723.41359
723.41024
723.41041
723.41076
723.41126
723.41199
723.41286
723.41367
723.41404
723.41425
723.41437
723.41093
723.41113
723.41151
723.41205
723.4128
723.41367
723.41447
723.41479
723.41492
723.41493
723.41139
723.41154
723.41189
723.41243
723.41319
723.41404
723.41479
723.41502
723.41502
723.41489
723.41168
723.41184
723.41217
723.41269
723.41343
723.41425
723.41492
723.41502
723.41494
723.41508
723.41176
723.41199
723.41235
723.41287
723.41359
723.41437
723.41493
723.41489
723.41508
723.41507
740.60351
740.60354
740.60381
740.60402
740.6046
740.60529
740.60593
740.60636
740.60662
740.60673
740.60354
740.60367
740.60379
740.6041
740.60473
740.60545
740.60611
740.60649
740.60676
740.60688
740.60381
740.60379
740.604
740.60436
740.60501
740.60575
740.60643
740.6068
740.60705
740.6072
740.60402
740.6041
740.60436
740.60474
740.60541
740.60616
740.60685
740.6072
740.60745
740.6076
740.6046
740.60473
740.60501
740.60541
740.60608
740.60684
740.60752
740.60786
740.60808
740.60821
740.60529
740.60545
740.60575
740.60616
740.60684
740.6076
740.60827
740.60859
740.60877
740.60886
740.60593
740.60611
740.60643
740.60685
740.60752
740.60827
740.60892
740.60919
740.60931
740.60931
740.60636
740.60649
740.6068
740.6072
740.60786
740.60859
740.60919
740.60939
740.6094
740.60929
740.60662
740.60676
740.60705
740.60745
740.60808
740.60877
740.60931
740.6094
740.60935
740.60946
740.60673
740.60688
740.6072
740.6076
740.60821
740.60886
740.60931
740.60929
740.60946
740.60945
757.87069
757.87069
757.87096
757.87105
757.87163
757.8723
757.87288
757.87327
757.8735
757.87363
757.87069
757.87083
757.8709
757.87114
757.87176
757.87244
757.87303
757.87339
757.87361
757.8737
757.87096
757.8709
757.87108
757.87137
757.87201
757.8727
757.87329
757.87363
757.87387
757.87398
757.87105
757.87114
757.87137
757.87169
757.87233
757.873
757.87358
757.8739
757.87413
757.87427
757.87163
757.87176
757.87201
757.87233
757.87296
757.87362
757.87417
757.87446
757.87465
757.87475
757.8723
757.87244
757.8727
757.873
757.87362
757.87427
757.87479
757.87505
757.8752
757.87526
757.87288
757.87303
757.87329
757.87358
757.87417
757.87479
757.87529
757.87551
757.87561
757.8756
757.87327
757.87339
757.87363
757.8739
757.87446
757.87505
757.87551
757.87567
757.87569
757.8756
757.8735
757.87361
757.87387
757.87413
757.87465
757.8752
757.87561
757.87569
757.87567
757.87574
757.87363
757.8737
757.87398
757.87427
757.87475
757.87526
757.8756
757.8756
757.87574
757.87574
775.10338
775.10335
775.10361
775.10359
775.10416
775.1048
775.10532
775.10566
775.10587
775.10602
775.10335
775.1035
775.10352
775.10367
775.10429
775.10492
775.10544
775.10576
775.10594
775.10601
775.10361
775.10352
775.10366
775.10388
775.10451
775.10513
775.10563
775.10595
775.10616
775.10623
775.10359
775.10367
775.10388
775.10412
775.10474
775.10533
775.10579
775.10608
775.1063
775.10641
775.10416
775.10429
775.10451
775.10474
775.10533
775.10588
775.1063
775.10654
775.1067
775.10677
775.1048
775.10492
775.10513
775.10533
775.10588
775.10641
775.10679
775.10698
775.1071
775.10712
775.10532
775.10544
775.10563
775.10579
775.1063
775.10679
775.10713
775.10729
775.10736
775.10735
775.10566
775.10576
775.10595
775.10608
775.10654
775.10698
775.10729
775.10741
775.10744
775.10737
775.10587
775.10594
775.10616
775.1063
775.1067
775.1071
775.10736
775.10744
775.10744
775.10749
775.10602
775.10601
775.10623
775.10641
775.10677
775.10712
775.10735
775.10737
775.10749
775.10748
792.19499
792.19493
792.19518
792.19505
792.1956
792.1962
792.19665
792.19695
792.19713
792.1973
792.19493
792.19509
792.19505
792.19512
792.19573
792.19631
792.19674
792.19704
792.19717
792.1972
792.19518
792.19505
792.19516
792.19531
792.19591
792.19646
792.19686
792.19716
792.19735
792.19738
792.19505
792.19512
792.19531
792.19547
792.19605
792.19655
792.19689
792.19715
792.19735
792.19743
792.1956
792.19573
792.19591
792.19605
792.19659
792.19704
792.19731
792.1975
792.19763
792.19766
792.1962
792.19631
792.19646
792.19655
792.19704
792.19744
792.19766
792.19779
792.19787
792.19786
792.19665
792.19674
792.19686
792.19689
792.19731
792.19766
792.19785
792.19795
792.198
792.19797
792.19695
792.19704
792.19716
792.19715
792.1975
792.19779
792.19795
792.19803
792.19806
792.19802
792.19713
792.19717
792.19735
792.19735
792.19763
792.19787
792.198
792.19806
792.19809
792.1981
792.1973
792.1972
792.19738
792.19743
792.19766
792.19786
792.19797
792.19802
792.1981
792.1981
809.03947
809.03938
809.03961
809.03936
809.0399
809.04045
809.04083
809.04108
809.04123
809.04141
809.03938
809.03955
809.03944
809.03943
809.04002
809.04054
809.04089
809.04115
809.04123
809.04124
809.03961
809.03944
809.03952
809.03959
809.04017
809.04064
809.04094
809.04122
809.04137
809.04136
809.03936
809.03943
809.03959
809.03967
809.04021
809.04061
809.04083
809.04105
809.04123
809.04129
809.0399
809.04002
809.04017
809.04021
809.0407
809.04103
809.04116
809.04129
809.04139
809.04139
809.04045
809.04054
809.04064
809.04061
809.04103
809.0413
809.04137
809.04143
809.04147
809.04143
809.04083
809.04089
809.04094
809.04083
809.04116
809.04137
809.04139
809.04143
809.04146
809.04142
809.04108
809.04115
809.04122
809.04105
809.04129
809.04143
809.04143
809.04147
809.04151
809.04149
809.04123
809.04123
809.04137
809.04123
809.04139
809.04147
809.04146
809.04151
809.04156
809.04154
809.04141
809.04124
809.04136
809.04129
809.04139
809.04143
809.04142
809.04149
809.04154
809.04154
825.53195
825.53184
825.53206
825.53169
825.5322
825.5327
825.53301
825.5332
825.53332
825.53351
825.53184
825.53201
825.53185
825.53175
825.53231
825.53277
825.53303
825.53325
825.53328
825.53326
825.53206
825.53185
825.53188
825.53188
825.53242
825.53281
825.53301
825.53325
825.53338
825.53332
825.53169
825.53175
825.53188
825.53188
825.53238
825.53267
825.53276
825.53294
825.5331
825.53313
825.5322
825.53231
825.53242
825.53238
825.5328
825.53301
825.533
825.53306
825.53313
825.53309
825.5327
825.53277
825.53281
825.53267
825.53301
825.53315
825.53306
825.53305
825.53306
825.53298
825.53301
825.53303
825.53301
825.53276
825.533
825.53306
825.53292
825.53289
825.53289
825.53285
825.5332
825.53325
825.53325
825.53294
825.53306
825.53305
825.53289
825.53288
825.53293
825.53293
825.53332
825.53328
825.53338
825.5331
825.53313
825.53306
825.53289
825.53293
825.533
825.53295
825.53351
825.53326
825.53332
825.53313
825.53309
825.53298
825.53285
825.53293
825.53295
825.53295
841.56948
841.56934
841.56954
841.56905
841.56953
841.56998
841.5702
841.57034
841.57042
841.57063
841.56934
841.56951
841.56929
841.56911
841.56964
841.57003
841.5702
841.57037
841.57035
841.57029
841.56954
841.56929
841.56928
841.5692
841.56971
841.57001
841.57009
841.5703
841.5704
841.5703
841.56905
841.56911
841.5692
841.56912
841.56956
841.56975
841.56971
841.56984
841.56998
841.56998
841.56953
841.56964
841.56971
841.56956
841.56992
841.57001
841.56984
841.56985
841.56987
841.5698
841.56998
841.57003
841.57001
841.56975
841.57001
841.57001
841.56975
841.56968
841.56964
841.56953
841.5702
841.5702
841.57009
841.56971
841.56984
841.56975
841.56944
841.56935
841.56933
841.56927
841.57034
841.57037
841.5703
841.56984
841.56985
841.56968
841.56935
841.5693
841.56935
841.56937
841.57042
841.57035
841.5704
841.56998
841.56987
841.56964
841.56933
841.56935
841.56945
841.56936
841.57063
841.57029
841.5703
841.56998
841.5698
841.56953
841.56927
841.56937
841.56936
841.56936
857.05162
857.05145
857.05162
857.05101
857.05145
857.05184
857.05198
857.05206
857.0521
857.05232
857.05145
857.05162
857.05134
857.05106
857.05156
857.05187
857.05194
857.05206
857.05199
857.0519
857.05162
857.05134
857.05129
857.05112
857.05158
857.05179
857.05176
857.05193
857.05199
857.05184
857.05101
857.05106
857.05112
857.05095
857.05134
857.05142
857.05124
857.05132
857.05143
857.05141
857.05145
857.05156
857.05158
857.05134
857.05163
857.05158
857.05126
857.0512
857.05119
857.05109
857.05184
857.05187
857.05179
857.05142
857.05158
857.05144
857.05102
857.05087
857.05079
857.05065
857.05198
857.05194
857.05176
857.05124
857.05126
857.05102
857.05054
857.05038
857.05033
857.05026
857.05206
857.05206
857.05193
857.05132
857.0512
857.05087
857.05038
857.05028
857.05033
857.05038
857.0521
857.05199
857.05199
857.05143
857.05119
857.05079
857.05033
857.05033
857.05045
857.05033
857.05232
857.0519
857.05184
857.05141
857.05109
857.05065
857.05026
857.05038
857.05033
857.05033
871.88114
871.88093
871.88108
871.88035
871.88075
871.88106
871.88111
871.88113
871.88112
871.88135
871.88093
871.88111
871.88076
871.88039
871.88084
871.88107
871.88104
871.88111
871.88097
871.88085
871.88108
871.88076
871.88066
871.88041
871.88082
871.88092
871.88077
871.88091
871.88092
871.88073
871.88035
871.88039
871.88041
871.88015
871.88047
871.88043
871.88011
871.88015
871.88023
871.88017
871.88075
871.88084
871.88082
871.88047
871.88068
871.88051
871.88003
871.8799
871.87984
871.8797
871.88106
871.88107
871.88092
871.88043
871.88051
871.88021
871.87962
871.8794
871.87928
871.8791
871.88111
871.88104
871.88077
871.88011
871.88003
871.87962
871.87898
871.87875
871.87867
871.87858
871.88113
871.88111
871.88091
871.88015
871.8799
871.8794
871.87875
871.87859
871.87864
871.87871
871.88112
871.88097
871.88092
871.88023
871.87984
871.87928
871.87867
871.87864
871.87877
871.87862
871.88135
871.88085
871.88073
871.88017
871.8797
871.8791
871.87858
871.87871
871.87862
871.87861
885.96464
885.96441
885.96453
885.96368
885.96402
885.96426
885.9642
885.96415
885.9641
885.96433
885.96441
885.96458
885.96416
885.9637
885.9641
885.96423
885.96409
885.9641
885.96391
885.96375
885.96453
885.96416
885.96402
885.96368
885.96402
885.96402
885.96375
885.96383
885.9638
885.96357
885.96368
885.9637
885.96368
885.96332
885.96357
885.96341
885.96294
885.96292
885.96296
885.96287
885.96402
885.9641
885.96402
885.96357
885.96369
885.96338
885.96274
885.96253
885.96244
885.96226
885.96426
885.96423
885.96402
885.96341
885.96338
885.96293
885.96217
885.96187
885.9617
885.96149
885.9642
885.96409
885.96375
885.96294
885.96274
885.96217
885.96136
885.96105
885.96094
885.96084
885.96415
885.9641
885.96383
885.96292
885.96253
885.96187
885.96105
885.96084
885.96088
885.96096
885.9641
885.96391
885.9638
885.96296
885.96244
885.9617
885.96094
885.96088
885.96102
885.96083
885.96433
885.96375
885.96357
885.96287
885.96226
885.96149
885.96084
885.96096
885.96083
885.96083
899.21323
899.21297
899.21305
899.21207
899.21235
899.2125
899.21233
899.2122
899.2121
899.21233
899.21297
899.21313
899.21264
899.21208
899.21241
899.21244
899.21218
899.21212
899.21187
899.21167
899.21305
899.21264
899.21244
899.212
899.21227
899.21215
899.21175
899.21177
899.2117
899.21142
899.21207
899.21208
899.212
899.21155
899.21171
899.21142
899.2108
899.21071
899.21072
899.21059
899.21235
899.21241
899.21227
899.21171
899.21174