/*--------------------------------*- C++ -*----------------------------------*\
| =========                 |                                                 |
| \\      /  F ield         | OpenFOAM: The Open Source CFD Toolbox           |
|  \\    /   O peration     | Version:  v2106                                 |
|   \\  /    A nd           | Website:  www.openfoam.com                      |
|    \\/     M anipulation  |                                                 |
\*---------------------------------------------------------------------------*/
FoamFile
{
    version     2.0;
    format      ascii;
    arch        "LSB;label=32;scalar=64";
    class       volScalarField;
    location    "12.5";
    object      T;
}
// * * * * * * * * * * * * * * * * * * * * * * * * * * * * * * * * * * * * * //

dimensions      [0 0 0 1 0 0 0];

internalField   nonuniform List<scalar> 
4000
(
275.65346
275.65346
275.65345
275.65347
275.65346
275.65345
275.65345
275.65345
275.65345
275.65345
275.65346
275.65344
275.65345
275.65347
275.65346
275.65345
275.65345
275.65345
275.65345
275.65345
275.65345
275.65345
275.65346
275.65347
275.65346
275.65345
275.65345
275.65345
275.65345
275.65345
275.65347
275.65347
275.65347
275.65347
275.65346
275.65346
275.65346
275.65346
275.65346
275.65346
275.65346
275.65346
275.65346
275.65346
275.65346
275.65345
275.65345
275.65346
275.65346
275.65346
275.65345
275.65345
275.65345
275.65346
275.65345
275.65345
275.65345
275.65346
275.65346
275.65346
275.65345
275.65345
275.65345
275.65346
275.65345
275.65345
275.65345
275.65346
275.65346
275.65346
275.65345
275.65345
275.65345
275.65346
275.65346
275.65346
275.65346
275.65346
275.65346
275.65346
275.65345
275.65345
275.65345
275.65346
275.65346
275.65346
275.65346
275.65346
275.65346
275.65346
275.65345
275.65345
275.65345
275.65346
275.65346
275.65346
275.65346
275.65346
275.65346
275.65346
280.96706
280.96705
280.96704
280.96709
280.96707
280.96705
280.96704
280.96703
280.96703
280.96703
280.96705
280.96704
280.96706
280.96709
280.96706
280.96704
280.96704
280.96703
280.96704
280.96704
280.96704
280.96706
280.96707
280.96709
280.96706
280.96705
280.96704
280.96704
280.96703
280.96704
280.96709
280.96709
280.96709
280.9671
280.96708
280.96707
280.96706
280.96706
280.96706
280.96706
280.96707
280.96706
280.96706
280.96708
280.96706
280.96705
280.96705
280.96706
280.96706
280.96706
280.96705
280.96704
280.96705
280.96707
280.96705
280.96704
280.96705
280.96706
280.96706
280.96707
280.96704
280.96704
280.96704
280.96706
280.96705
280.96705
280.96706
280.96707
280.96707
280.96708
280.96703
280.96703
280.96704
280.96706
280.96706
280.96706
280.96707
280.96708
280.96708
280.96708
280.96703
280.96704
280.96703
280.96706
280.96706
280.96706
280.96707
280.96708
280.96708
280.96708
280.96703
280.96704
280.96704
280.96706
280.96706
280.96707
280.96708
280.96708
280.96708
280.96708
286.30067
286.30069
286.30068
286.30073
286.3007
286.30067
286.30065
286.30065
286.30065
286.30064
286.30069
286.30067
286.3007
286.30073
286.30069
286.30067
286.30065
286.30065
286.30066
286.30066
286.30068
286.3007
286.30071
286.30073
286.30069
286.30067
286.30066
286.30066
286.30066
286.30066
286.30073
286.30073
286.30073
286.30074
286.30071
286.3007
286.3007
286.3007
286.30069
286.30069
286.3007
286.30069
286.30069
286.30071
286.30069
286.30068
286.30068
286.30069
286.30069
286.3007
286.30067
286.30067
286.30067
286.3007
286.30068
286.30067
286.30068
286.3007
286.3007
286.30071
286.30065
286.30065
286.30066
286.3007
286.30068
286.30068
286.3007
286.30072
286.30072
286.30073
286.30065
286.30065
286.30066
286.3007
286.30069
286.3007
286.30072
286.30073
286.30073
286.30074
286.30065
286.30066
286.30066
286.30069
286.30069
286.3007
286.30072
286.30073
286.30073
286.30073
286.30064
286.30066
286.30066
286.30069
286.3007
286.30071
286.30073
286.30074
286.30073
286.30074
291.66755
291.66757
291.66755
291.66761
291.66758
291.66754
291.66752
291.66752
291.66752
291.6675
291.66757
291.66755
291.66759
291.66761
291.66757
291.66754
291.66753
291.66752
291.66753
291.66753
291.66755
291.66759
291.6676
291.66761
291.66757
291.66754
291.66754
291.66753
291.66753
291.66754
291.66761
291.66761
291.66761
291.66763
291.66759
291.66757
291.66758
291.66758
291.66757
291.66757
291.66758
291.66757
291.66757
291.66759
291.66756
291.66755
291.66757
291.66758
291.66758
291.66759
291.66754
291.66754
291.66754
291.66757
291.66755
291.66755
291.66757
291.66759
291.6676
291.66761
291.66752
291.66753
291.66754
291.66758
291.66757
291.66757
291.6676
291.66762
291.66763
291.66764
291.66752
291.66752
291.66753
291.66758
291.66758
291.66759
291.66762
291.66763
291.66764
291.66764
291.66752
291.66753
291.66753
291.66757
291.66758
291.6676
291.66763
291.66764
291.66764
291.66764
291.6675
291.66753
291.66754
291.66757
291.66759
291.66761
291.66764
291.66764
291.66764
291.66764
297.0807
297.08072
297.0807
297.08077
297.08073
297.08069
297.08067
297.08067
297.08066
297.08064
297.08072
297.0807
297.08074
297.08077
297.08072
297.08069
297.08068
297.08067
297.08067
297.08068
297.0807
297.08074
297.08075
297.08077
297.08072
297.08069
297.08069
297.08068
297.08068
297.08069
297.08077
297.08077
297.08077
297.08079
297.08074
297.08073
297.08074
297.08074
297.08073
297.08073
297.08073
297.08072
297.08072
297.08074
297.08071
297.08071
297.08073
297.08074
297.08075
297.08076
297.08069
297.08069
297.08069
297.08073
297.08071
297.08072
297.08075
297.08077
297.08078
297.08079
297.08067
297.08068
297.08069
297.08074
297.08073
297.08075
297.08079
297.08081
297.08082
297.08083
297.08067
297.08067
297.08068
297.08074
297.08074
297.08077
297.08081
297.08082
297.08082
297.08083
297.08066
297.08067
297.08068
297.08073
297.08075
297.08078
297.08082
297.08082
297.08082
297.08083
297.08064
297.08068
297.08069
297.08073
297.08076
297.08079
297.08083
297.08083
297.08083
297.08083
302.55287
302.55289
302.55287
302.55295
302.5529
302.55286
302.55285
302.55284
302.55284
302.55282
302.55289
302.55287
302.55291
302.55294
302.55289
302.55286
302.55285
302.55284
302.55285
302.55287
302.55287
302.55291
302.55292
302.55294
302.55289
302.55287
302.55287
302.55286
302.55286
302.55287
302.55295
302.55294
302.55294
302.55296
302.55292
302.55291
302.55294
302.55293
302.55292
302.55292
302.5529
302.55289
302.55289
302.55292
302.55289
302.5529
302.55293
302.55294
302.55295
302.55296
302.55286
302.55286
302.55287
302.55291
302.5529
302.55291
302.55296
302.55298
302.55299
302.55301
302.55285
302.55285
302.55287
302.55294
302.55293
302.55296
302.55301
302.55303
302.55304
302.55305
302.55284
302.55284
302.55286
302.55293
302.55294
302.55298
302.55303
302.55305
302.55305
302.55305
302.55284
302.55285
302.55286
302.55292
302.55295
302.55299
302.55304
302.55305
302.55304
302.55306
302.55282
302.55287
302.55287
302.55292
302.55296
302.55301
302.55305
302.55305
302.55306
302.55306
308.09646
308.09648
308.09646
308.09655
308.0965
308.09646
308.09645
308.09645
308.09645
308.09642
308.09648
308.09646
308.0965
308.09654
308.09649
308.09646
308.09646
308.09645
308.09647
308.09648
308.09646
308.0965
308.09651
308.09654
308.09649
308.09648
308.09649
308.09647
308.09647
308.09649
308.09655
308.09654
308.09654
308.09657
308.09653
308.09653
308.09656
308.09656
308.09655
308.09655
308.0965
308.09649
308.09649
308.09653
308.0965
308.09652
308.09657
308.09658
308.09659
308.0966
308.09646
308.09646
308.09648
308.09653
308.09652
308.09654
308.09661
308.09663
308.09664
308.09666
308.09645
308.09646
308.09649
308.09656
308.09657
308.09661
308.09667
308.0967
308.09671
308.09672
308.09645
308.09645
308.09647
308.09656
308.09658
308.09663
308.0967
308.09672
308.09671
308.09671
308.09645
308.09647
308.09647
308.09655
308.09659
308.09664
308.09671
308.09671
308.0967
308.09672
308.09642
308.09648
308.09649
308.09655
308.0966
308.09666
308.09672
308.09671
308.09672
308.09672
313.72345
313.72348
313.72346
313.72355
313.72351
313.72347
313.72347
313.72347
313.72347
313.72344
313.72348
313.72346
313.7235
313.72355
313.7235
313.72347
313.72348
313.72347
313.72349
313.72351
313.72346
313.7235
313.72351
313.72355
313.7235
313.72349
313.72351
313.7235
313.7235
313.72352
313.72355
313.72355
313.72355
313.72358
313.72355
313.72355
313.7236
313.7236
313.72359
313.7236
313.72351
313.7235
313.7235
313.72355
313.72352
313.72355
313.72361
313.72363
313.72364
313.72366
313.72347
313.72347
313.72349
313.72355
313.72355
313.72359
313.72367
313.7237
313.72371
313.72374
313.72347
313.72348
313.72351
313.7236
313.72361
313.72367
313.72375
313.72378
313.72379
313.7238
313.72347
313.72347
313.7235
313.7236
313.72363
313.7237
313.72378
313.7238
313.7238
313.72379
313.72347
313.72349
313.7235
313.72359
313.72364
313.72371
313.72379
313.7238
313.72378
313.7238
313.72344
313.72351
313.72352
313.7236
313.72366
313.72374
313.7238
313.72379
313.7238
313.7238
319.44533
319.44536
319.44535
319.44545
319.4454
319.44537
319.44538
319.44538
319.44539
319.44536
319.44536
319.44534
319.44539
319.44545
319.44539
319.44537
319.44539
319.44539
319.44541
319.44543
319.44535
319.44539
319.44541
319.44545
319.4454
319.4454
319.44543
319.44542
319.44542
319.44545
319.44545
319.44545
319.44545
319.44549
319.44545
319.44547
319.44553
319.44553
319.44552
319.44553
319.4454
319.44539
319.4454
319.44545
319.44544
319.44547
319.44555
319.44558
319.44559
319.44561
319.44537
319.44537
319.4454
319.44547
319.44547
319.44553
319.44562
319.44566
319.44568
319.4457
319.44538
319.44539
319.44543
319.44553
319.44555
319.44562
319.44572
319.44576
319.44577
319.44578
319.44538
319.44539
319.44542
319.44553
319.44558
319.44566
319.44576
319.44578
319.44577
319.44576
319.44539
319.44541
319.44542
319.44552
319.44559
319.44568
319.44577
319.44577
319.44575
319.44578
319.44536
319.44543
319.44545
319.44553
319.44561
319.4457
319.44578
319.44576
319.44578
319.44578
325.27303
325.27306
325.27304
325.27316
325.27311
325.27309
325.2731
325.27311
325.27312
325.27308
325.27306
325.27303
325.27309
325.27315
325.2731
325.27309
325.27311
325.27311
325.27314
325.27316
325.27304
325.27309
325.27311
325.27316
325.27311
325.27312
325.27316
325.27315
325.27316
325.27319
325.27316
325.27315
325.27316
325.27321
325.27318
325.27321
325.27328
325.27328
325.27327
325.27329
325.27311
325.2731
325.27311
325.27318
325.27317
325.27321
325.27331
325.27334
325.27335
325.27338
325.27309
325.27309
325.27312
325.27321
325.27321
325.27328
325.27339
325.27343
325.27346
325.27349
325.2731
325.27311
325.27316
325.27328
325.27331
325.27339
325.27351
325.27355
325.27357
325.27358
325.27311
325.27311
325.27315
325.27328
325.27334
325.27343
325.27355
325.27358
325.27357
325.27355
325.27312
325.27314
325.27316
325.27327
325.27335
325.27346
325.27357
325.27357
325.27355
325.27357
325.27308
325.27316
325.27319
325.27329
325.27338
325.27349
325.27358
325.27355
325.27357
325.27357
331.21682
331.21685
331.21684
331.21696
331.21692
331.2169
331.21692
331.21694
331.21695
331.21692
331.21685
331.21683
331.21689
331.21696
331.21691
331.21691
331.21694
331.21695
331.21698
331.217
331.21684
331.21689
331.21691
331.21697
331.21693
331.21694
331.217
331.21699
331.217
331.21704
331.21696
331.21696
331.21697
331.21702
331.217
331.21704
331.21712
331.21713
331.21713
331.21714
331.21692
331.21691
331.21693
331.217
331.217
331.21706
331.21717
331.2172
331.21722
331.21725
331.2169
331.21691
331.21694
331.21704
331.21706
331.21714
331.21727
331.21731
331.21734
331.21737
331.21692
331.21694
331.217
331.21712
331.21717
331.21727
331.2174
331.21745
331.21746
331.21747
331.21694
331.21695
331.21699
331.21713
331.2172
331.21731
331.21745
331.21748
331.21747
331.21745
331.21695
331.21698
331.217
331.21713
331.21722
331.21734
331.21746
331.21747
331.21744
331.21747
331.21692
331.217
331.21704
331.21714
331.21725
331.21737
331.21747
331.21745
331.21747
331.21747
337.28631
337.28634
337.28633
337.28647
337.28643
337.28641
337.28644
337.28646
337.28648
337.28644
337.28634
337.28632
337.28638
337.28646
337.28642
337.28642
337.28647
337.28647
337.28651
337.28654
337.28633
337.28638
337.28641
337.28647
337.28644
337.28646
337.28653
337.28652
337.28653
337.28658
337.28647
337.28646
337.28647
337.28654
337.28652
337.28657
337.28667
337.28668
337.28668
337.2867
337.28643
337.28642
337.28644
337.28652
337.28652
337.2866
337.28672
337.28676
337.28678
337.28681
337.28641
337.28642
337.28646
337.28657
337.2866
337.28669
337.28683
337.28689
337.28692
337.28695
337.28644
337.28647
337.28653
337.28667
337.28672
337.28683
337.28698
337.28704
337.28705
337.28707
337.28646
337.28647
337.28652
337.28668
337.28676
337.28689
337.28704
337.28707
337.28706
337.28704
337.28648
337.28651
337.28653
337.28668
337.28678
337.28692
337.28705
337.28706
337.28703
337.28706
337.28644
337.28654
337.28658
337.2867
337.28681
337.28695
337.28707
337.28704
337.28706
337.28706
343.49033
343.49037
343.49036
343.4905
343.49047
343.49046
343.4905
343.49053
343.49055
343.49051
343.49037
343.49035
343.49042
343.4905
343.49046
343.49047
343.49053
343.49054
343.49058
343.49061
343.49036
343.49042
343.49044
343.49051
343.49049
343.49052
343.4906
343.4906
343.49061
343.49066
343.4905
343.4905
343.49051
343.49059
343.49057
343.49064
343.49075
343.49076
343.49076
343.49079
343.49047
343.49046
343.49049
343.49057
343.49058
343.49067
343.49081
343.49086
343.49088
343.49091
343.49046
343.49047
343.49052
343.49064
343.49067
343.49078
343.49094
343.491
343.49103
343.49107
343.4905
343.49053
343.4906
343.49075
343.49081
343.49094
343.4911
343.49116
343.49118
343.49119
343.49053
343.49054
343.4906
343.49076
343.49086
343.491
343.49116
343.4912
343.49119
343.49116
343.49055
343.49058
343.49061
343.49076
343.49088
343.49103
343.49118
343.49119
343.49115
343.49119
343.49051
343.49061
343.49066
343.49079
343.49091
343.49107
343.49119
343.49116
343.49119
343.49119
349.83693
349.83697
349.83696
349.83711
349.83709
349.83709
349.83713
349.83716
349.83719
349.83715
349.83697
349.83694
349.83702
349.83711
349.83708
349.8371
349.83716
349.83718
349.83722
349.83726
349.83696
349.83702
349.83705
349.83713
349.8371
349.83715
349.83724
349.83724
349.83726
349.8373
349.83711
349.83711
349.83713
349.83721
349.8372
349.83728
349.8374
349.83742
349.83742
349.83745
349.83709
349.83708
349.8371
349.8372
349.83722
349.83732
349.83747
349.83752
349.83755
349.83759
349.83709
349.8371
349.83715
349.83728
349.83732
349.83744
349.83761
349.83768
349.83772
349.83776
349.83713
349.83716
349.83724
349.8374
349.83747
349.83761
349.83779
349.83786
349.83788
349.83789
349.83716
349.83718
349.83724
349.83742
349.83752
349.83768
349.83786
349.8379
349.83788
349.83786
349.83719
349.83722
349.83726
349.83742
349.83755
349.83772
349.83788
349.83788
349.83785
349.83789
349.83715
349.83726
349.8373
349.83745
349.83759
349.83776
349.83789
349.83786
349.83789
349.83788
356.33327
356.33331
356.33331
356.33347
356.33345
356.33345
356.33351
356.33354
356.33357
356.33353
356.33331
356.33329
356.33337
356.33347
356.33344
356.33347
356.33354
356.33356
356.33361
356.33365
356.33331
356.33337
356.3334
356.33349
356.33347
356.33352
356.33362
356.33363
356.33365
356.3337
356.33347
356.33347
356.33349
356.33357
356.33357
356.33366
356.33379
356.33382
356.33382
356.33385
356.33345
356.33344
356.33347
356.33357
356.3336
356.33371
356.33388
356.33393
356.33396
356.334
356.33345
356.33347
356.33352
356.33366
356.33371
356.33385
356.33403
356.3341
356.33414
356.33419
356.33351
356.33354
356.33362
356.33379
356.33388
356.33403
356.33422
356.33429
356.33432
356.33433
356.33354
356.33356
356.33363
356.33382
356.33393
356.3341
356.33429
356.33434
356.33432
356.3343
356.33357
356.33361
356.33365
356.33382
356.33396
356.33414
356.33432
356.33432
356.33429
356.33433
356.33353
356.33365
356.3337
356.33385
356.334
356.33419
356.33433
356.3343
356.33433
356.33432
362.98564
362.98568
362.98567
362.98584
362.98582
362.98584
362.9859
362.98594
362.98597
362.98594
362.98568
362.98565
362.98573
362.98584
362.98582
362.98585
362.98593
362.98596
362.98602
362.98605
362.98567
362.98573
362.98577
362.98586
362.98585
362.98592
362.98602
362.98603
362.98606
362.98611
362.98584
362.98584
362.98586
362.98595
362.98596
362.98606
362.9862
362.98623
362.98624
362.98627
362.98582
362.98582
362.98585
362.98596
362.986
362.98612
362.9863
362.98636
362.98639
362.98643
362.98584
362.98585
362.98592
362.98606
362.98612
362.98627
362.98646
362.98654
362.98658
362.98663
362.9859
362.98593
362.98602
362.9862
362.9863
362.98646
362.98667
362.98674
362.98677
362.98678
362.98594
362.98596
362.98603
362.98623
362.98636
362.98654
362.98674
362.98679
362.98678
362.98675
362.98597
362.98602
362.98606
362.98624
362.98639
362.98658
362.98677
362.98678
362.98674
362.98678
362.98594
362.98605
362.98611
362.98627
362.98643
362.98663
362.98678
362.98675
362.98678
362.98678
369.79934
369.79938
369.79938
369.79956
369.79954
369.79957
369.79964
369.79968
369.79972
369.79968
369.79938
369.79936
369.79944
369.79956
369.79954
369.79958
369.79967
369.7997
369.79976
369.7998
369.79938
369.79944
369.79949
369.79958
369.79958
369.79965
369.79977
369.79978
369.79981
369.79987
369.79956
369.79956
369.79958
369.79968
369.7997
369.7998
369.79995
369.79999
369.8
369.80003
369.79954
369.79954
369.79958
369.7997
369.79974
369.79987
369.80006
369.80012
369.80016
369.8002
369.79957
369.79958
369.79965
369.7998
369.79987
369.80003
369.80024
369.80032
369.80036
369.80041
369.79964
369.79967
369.79977
369.79995
369.80006
369.80024
369.80045
369.80053
369.80056
369.80057
369.79968
369.7997
369.79978
369.79999
369.80012
369.80032
369.80053
369.80058
369.80057
369.80054
369.79972
369.79976
369.79981
369.8
369.80016
369.80036
369.80056
369.80057
369.80053
369.80057
369.79968
369.7998
369.79987
369.80003
369.8002
369.80041
369.80057
369.80054
369.80057
369.80057
376.77874
376.77878
376.77878
376.77896
376.77895
376.77898
376.77906
376.77911
376.77915
376.77911
376.77878
376.77876
376.77884
376.77896
376.77895
376.779
376.7791
376.77914
376.7792
376.77924
376.77878
376.77884
376.77889
376.77899
376.77899
376.77907
376.7792
376.77922
376.77925
376.77931
376.77896
376.77896
376.77899
376.77909
376.77912
376.77923
376.77939
376.77943
376.77945
376.77948
376.77895
376.77895
376.77899
376.77912
376.77916
376.77931
376.7795
376.77957
376.77961
376.77966
376.77898
376.779
376.77907
376.77923
376.77931
376.77947
376.77969
376.77978
376.77983
376.77988
376.77906
376.7791
376.7792
376.77939
376.7795
376.77969
376.77992
376.78
376.78003
376.78005
376.77911
376.77914
376.77922
376.77943
376.77957
376.77978
376.78
376.78006
376.78004
376.78001
376.77915
376.7792
376.77925
376.77945
376.77961
376.77983
376.78003
376.78004
376.78
376.78005
376.77911
376.77924
376.77931
376.77948
376.77966
376.77988
376.78005
376.78001
376.78005
376.78004
383.92716
383.9272
383.9272
383.92739
383.92739
383.92742
383.92751
383.92757
383.9276
383.92757
383.9272
383.92718
383.92727
383.92739
383.92738
383.92744
383.92755
383.92759
383.92765
383.9277
383.9272
383.92727
383.92731
383.92742
383.92743
383.92752
383.92765
383.92767
383.92771
383.92777
383.92739
383.92739
383.92742
383.92753
383.92756
383.92768
383.92785
383.92789
383.92791
383.92795
383.92739
383.92738
383.92743
383.92756
383.92761
383.92777
383.92797
383.92805
383.92809
383.92814
383.92742
383.92744
383.92752
383.92768
383.92777
383.92794
383.92817
383.92826
383.92831
383.92836
383.92751
383.92755
383.92765
383.92785
383.92797
383.92817
383.9284
383.92849
383.92852
383.92854
383.92757
383.92759
383.92767
383.92789
383.92805
383.92826
383.92849
383.92855
383.92853
383.9285
383.9276
383.92765
383.92771
383.92791
383.92809
383.92831
383.92852
383.92853
383.92849
383.92854
383.92757
383.9277
383.92777
383.92795
383.92814
383.92836
383.92854
383.9285
383.92854
383.92853
391.2469
391.24695
391.24695
391.24714
391.24714
391.24719
391.24728
391.24734
391.24738
391.24735
391.24695
391.24693
391.24702
391.24714
391.24714
391.24721
391.24732
391.24737
391.24743
391.24748
391.24695
391.24702
391.24707
391.24717
391.24719
391.24729
391.24743
391.24745
391.24749
391.24755
391.24714
391.24714
391.24717
391.24729
391.24732
391.24745
391.24763
391.24768
391.2477
391.24774
391.24714
391.24714
391.24719
391.24732
391.24739
391.24755
391.24776
391.24784
391.24788
391.24793
391.24719
391.24721
391.24729
391.24745
391.24755
391.24773
391.24797
391.24806
391.24811
391.24816
391.24728
391.24732
391.24743
391.24763
391.24776
391.24797
391.24821
391.2483
391.24833
391.24834
391.24734
391.24737
391.24745
391.24768
391.24784
391.24806
391.2483
391.24836
391.24834
391.24831
391.24738
391.24743
391.24749
391.2477
391.24788
391.24811
391.24833
391.24834
391.2483
391.24835
391.24735
391.24748
391.24755
391.24774
391.24793
391.24816
391.24834
391.24831
391.24835
391.24834
398.73923
398.73927
398.73928
398.73947
398.73948
398.73953
398.73963
398.73969
398.73974
398.7397
398.73927
398.73925
398.73934
398.73947
398.73948
398.73955
398.73967
398.73972
398.73979
398.73984
398.73928
398.73934
398.73939
398.73951
398.73953
398.73963
398.73978
398.73981
398.73985
398.73991
398.73947
398.73947
398.73951
398.73962
398.73967
398.7398
398.73999
398.74004
398.74006
398.7401
398.73948
398.73948
398.73953
398.73967
398.73974
398.7399
398.74012
398.7402
398.74025
398.7403
398.73953
398.73955
398.73963
398.7398
398.7399
398.74009
398.74033
398.74043
398.74049
398.74054
398.73963
398.73967
398.73978
398.73999
398.74012
398.74033
398.74058
398.74067
398.74071
398.74072
398.73969
398.73972
398.73981
398.74004
398.7402
398.74043
398.74067
398.74074
398.74072
398.74068
398.73974
398.73979
398.73985
398.74006
398.74025
398.74049
398.74071
398.74072
398.74068
398.74073
398.7397
398.73984
398.73991
398.7401
398.7403
398.74054
398.74072
398.74068
398.74073
398.74072
406.40432
406.40436
406.40437
406.40456
406.40458
406.40463
406.40474
406.40481
406.40485
406.40482
406.40436
406.40434
406.40444
406.40456
406.40458
406.40466
406.40478
406.40483
406.40491
406.40495
406.40437
406.40444
406.40449
406.4046
406.40463
406.40474
406.40489
406.40493
406.40497
406.40503
406.40456
406.40456
406.4046
406.40472
406.40477
406.40491
406.4051
406.40516
406.40518
406.40522
406.40458
406.40458
406.40463
406.40477
406.40485
406.40502
406.40524
406.40533
406.40537
406.40543
406.40463
406.40466
406.40474
406.40491
406.40502
406.40522
406.40546
406.40556
406.40562
406.40567
406.40474
406.40478
406.40489
406.4051
406.40524
406.40546
406.40572
406.40581
406.40584
406.40586
406.40481
406.40483
406.40493
406.40516
406.40533
406.40556
406.40581
406.40587
406.40586
406.40582
406.40485
406.40491
406.40497
406.40518
406.40537
406.40562
406.40584
406.40586
406.40581
406.40586
406.40482
406.40495
406.40503
406.40522
406.40543
406.40567
406.40586
406.40582
406.40586
406.40586
414.24129
414.24134
414.24135
414.24154
414.24156
414.24162
414.24173
414.24181
414.24185
414.24182
414.24134
414.24132
414.24141
414.24154
414.24156
414.24165
414.24178
414.24183
414.24191
414.24196
414.24135
414.24141
414.24147
414.24158
414.24162
414.24173
414.24189
414.24193
414.24197
414.24204
414.24154
414.24154
414.24158
414.2417
414.24176
414.24191
414.2421
414.24216
414.24219
414.24223
414.24156
414.24156
414.24162
414.24176
414.24184
414.24202
414.24225
414.24233
414.24238
414.24244
414.24162
414.24165
414.24173
414.24191
414.24202
414.24222
414.24247
414.24257
414.24263
414.24268
414.24173
414.24178
414.24189
414.2421
414.24225
414.24247
414.24273
414.24282
414.24285
414.24287
414.24181
414.24183
414.24193
414.24216
414.24233
414.24257
414.24282
414.24288
414.24287
414.24283
414.24185
414.24191
414.24197
414.24219
414.24238
414.24263
414.24285
414.24287
414.24283
414.24288
414.24182
414.24196
414.24204
414.24223
414.24244
414.24268
414.24287
414.24283
414.24288
414.24287
422.24822
422.24826
422.24828
422.24846
422.24849
422.24856
422.24867
422.24875
422.2488
422.24877
422.24826
422.24825
422.24834
422.24846
422.24849
422.24858
422.24872
422.24877
422.24885
422.2489
422.24828
422.24834
422.24839
422.24851
422.24855
422.24867
422.24883
422.24887
422.24891
422.24898
422.24846
422.24846
422.24851
422.24863
422.24869
422.24885
422.24904
422.2491
422.24913
422.24917
422.24849
422.24849
422.24855
422.24869
422.24878
422.24896
422.24919
422.24928
422.24933
422.24938
422.24856
422.24858
422.24867
422.24885
422.24896
422.24917
422.24942
422.24952
422.24957
422.24963
422.24867
422.24872
422.24883
422.24904
422.24919
422.24942
422.24967
422.24977
422.2498
422.24982
422.24875
422.24877
422.24887
422.2491
422.24928
422.24952
422.24977
422.24983
422.24982
422.24978
422.2488
422.24885
422.24891
422.24913
422.24933
422.24957
422.2498
422.24982
422.24977
422.24982
422.24877
422.2489
422.24898
422.24917
422.24938
422.24963
422.24982
422.24978
422.24982
422.24982
430.42208
430.42213
430.42214
430.42232
430.42236
430.42243
430.42255
430.42263
430.42268
430.42265
430.42213
430.42211
430.4222
430.42233
430.42236
430.42246
430.4226
430.42266
430.42273
430.42278
430.42214
430.4222
430.42226
430.42237
430.42242
430.42255
430.42271
430.42275
430.4228
430.42286
430.42232
430.42233
430.42237
430.4225
430.42256
430.42272
430.42292
430.42298
430.42301
430.42305
430.42236
430.42236
430.42242
430.42256
430.42266
430.42284
430.42307
430.42316
430.42321
430.42326
430.42243
430.42246
430.42255
430.42272
430.42284
430.42305
430.4233
430.4234
430.42346
430.42351
430.42255
430.4226
430.42271
430.42292
430.42307
430.4233
430.42355
430.42365
430.42368
430.4237
430.42263
430.42266
430.42275
430.42298
430.42316
430.4234
430.42365
430.42371
430.4237
430.42366
430.42268
430.42273
430.4228
430.42301
430.42321
430.42346
430.42368
430.4237
430.42366
430.42371
430.42265
430.42278
430.42286
430.42305
430.42326
430.42351
430.4237
430.42366
430.42371
430.4237
438.75886
438.7589
438.75892
438.75909
438.75913
438.75921
438.75933
438.75941
438.75946
438.75944
438.7589
438.75889
438.75897
438.7591
438.75914
438.75924
438.75938
438.75944
438.75952
438.75956
438.75892
438.75897
438.75903
438.75915
438.7592
438.75933
438.75949
438.75954
438.75958
438.75965
438.75909
438.7591
438.75915
438.75927
438.75934
438.7595
438.7597
438.75976
438.75979
438.75983
438.75913
438.75914
438.7592
438.75934
438.75943
438.75962
438.75985
438.75994
438.75999
438.76004
438.75921
438.75924
438.75933
438.7595
438.75962
438.75983
438.76008
438.76018
438.76024
438.76029
438.75933
438.75938
438.75949
438.7597
438.75985
438.76008
438.76033
438.76043
438.76046
438.76047
438.75941
438.75944
438.75954
438.75976
438.75994
438.76018
438.76043
438.76049
438.76048
438.76044
438.75946
438.75952
438.75958
438.75979
438.75999
438.76024
438.76046
438.76048
438.76043
438.76048
438.75944
438.75956
438.75965
438.75983
438.76004
438.76029
438.76047
438.76044
438.76048
438.76048
447.25347
447.25351
447.25354
447.25371
447.25375
447.25383
447.25395
447.25403
447.25409
447.25407
447.25351
447.2535
447.25359
447.25371
447.25376
447.25386
447.254
447.25406
447.25414
447.25419
447.25354
447.25359
447.25364
447.25376
447.25382
447.25395
447.25411
447.25416
447.25421
447.25427
447.25371
447.25371
447.25376
447.25388
447.25396
447.25412
447.25431
447.25438
447.25441
447.25445
447.25375
447.25376
447.25382
447.25396
447.25405
447.25424
447.25447
447.25456
447.25461
447.25466
447.25383
447.25386
447.25395
447.25412
447.25424
447.25445
447.25469
447.25479
447.25485
447.2549
447.25395
447.254
447.25411
447.25431
447.25447
447.25469
447.25494
447.25504
447.25507
447.25508
447.25403
447.25406
447.25416
447.25438
447.25456
447.25479
447.25504
447.2551
447.25509
447.25505
447.25409
447.25414
447.25421
447.25441
447.25461
447.25485
447.25507
447.25509
447.25505
447.25509
447.25407
447.25419
447.25427
447.25445
447.25466
447.2549
447.25508
447.25505
447.25509
447.25509
455.89989
455.89992
455.89995
455.90011
455.90016
455.90025
455.90037
455.90045
455.9005
455.90048
455.89992
455.89992
455.9
455.90012
455.90017
455.90028
455.90042
455.90048
455.90056
455.9006
455.89995
455.9
455.90005
455.90017
455.90023
455.90036
455.90053
455.90057
455.90062
455.90068
455.90011
455.90012
455.90017
455.90029
455.90037
455.90053
455.90072
455.90079
455.90082
455.90086
455.90016
455.90017
455.90023
455.90037
455.90047
455.90065
455.90087
455.90096
455.90101
455.90106
455.90025
455.90028
455.90036
455.90053
455.90065
455.90086
455.9011
455.9012
455.90125
455.9013
455.90037
455.90042
455.90053
455.90072
455.90087
455.9011
455.90134
455.90143
455.90147
455.90148
455.90045
455.90048
455.90057
455.90079
455.90096
455.9012
455.90143
455.9015
455.90148
455.90144
455.9005
455.90056
455.90062
455.90082
455.90101
455.90125
455.90147
455.90148
455.90144
455.90149
455.90048
455.9006
455.90068
455.90086
455.90106
455.9013
455.90148
455.90144
455.90149
455.90149
464.6911
464.69113
464.69116
464.69131
464.69136
464.69145
464.69158
464.69166
464.69171
464.69169
464.69113
464.69113
464.6912
464.69132
464.69137
464.69148
464.69162
464.69169
464.69176
464.6918
464.69116
464.6912
464.69126
464.69137
464.69143
464.69157
464.69173
464.69178
464.69182
464.69188
464.69131
464.69132
464.69137
464.69148
464.69157
464.69173
464.69192
464.69198
464.69201
464.69206
464.69136
464.69137
464.69143
464.69157
464.69167
464.69185
464.69207
464.69215
464.6922
464.69225
464.69145
464.69148
464.69157
464.69173
464.69185
464.69205
464.69229
464.69238
464.69244
464.69248
464.69158
464.69162
464.69173
464.69192
464.69207
464.69229
464.69252
464.69261
464.69264
464.69265
464.69166
464.69169
464.69178
464.69198
464.69215
464.69238
464.69261
464.69267
464.69266
464.69262
464.69171
464.69176
464.69182
464.69201
464.6922
464.69244
464.69264
464.69266
464.69262
464.69267
464.69169
464.6918
464.69188
464.69206
464.69225
464.69248
464.69265
464.69262
464.69267
464.69266
473.61918
473.61921
473.61924
473.61939
473.61944
473.61953
473.61965
473.61973
473.61979
473.61977
473.61921
473.61921
473.61928
473.6194
473.61945
473.61956
473.6197
473.61976
473.61983
473.61988
473.61924
473.61928
473.61934
473.61944
473.61951
473.61964
473.6198
473.61985
473.6199
473.61996
473.61939
473.6194
473.61944
473.61955
473.61964
473.6198
473.61998
473.62004
473.62008
473.62012