/*--------------------------------*- C++ -*----------------------------------*\
| =========                 |                                                 |
| \\      /  F ield         | OpenFOAM: The Open Source CFD Toolbox           |
|  \\    /   O peration     | Version:  v2106                                 |
|   \\  /    A nd           | Website:  www.openfoam.com                      |
|    \\/     M anipulation  |                                                 |
\*---------------------------------------------------------------------------*/
FoamFile
{
    version     2.0;
    format      ascii;
    arch        "LSB;label=32;scalar=64";
    class       volVectorField;
    location    "50";
    object      flux;
}
// * * * * * * * * * * * * * * * * * * * * * * * * * * * * * * * * * * * * * //

dimensions      [0 1 -1 1 0 0 0];

internalField   nonuniform List<vector> 
4000
(
(6.2948919e-07 6.294892e-07 0.7068881)
(3.5471456e-07 1.155782e-07 0.70689226)
(-7.8915e-07 1.7364201e-07 0.70688955)
(-3.0380576e-07 1.7648355e-07 0.7068885)
(-1.3133033e-07 1.7880824e-07 0.70688796)
(6.8854366e-09 1.832138e-07 0.70688782)
(1.0340981e-07 1.9207135e-07 0.70688801)
(1.2954836e-07 2.1006355e-07 0.70688839)
(5.94126e-08 2.3881693e-07 0.7068887)
(-5.1114722e-10 2.4572803e-07 0.7068886)
(1.1557819e-07 3.5471456e-07 0.70689226)
(-3.2905622e-07 -3.2905622e-07 0.7068932)
(-6.9779197e-07 -2.3447967e-07 0.70689081)
(-2.9605641e-07 -2.2647657e-07 0.70688978)
(-1.2123495e-07 -2.1720102e-07 0.70688926)
(2.6780098e-08 -2.0180631e-07 0.70688915)
(1.4368443e-07 -1.7446002e-07 0.70688941)
(1.9966672e-07 -1.2229228e-07 0.70688993)
(1.1290932e-07 -2.8975023e-08 0.70689048)
(6.3999553e-09 6.9899652e-08 0.70689032)
(1.7364201e-07 -7.8914999e-07 0.70688955)
(-2.3447967e-07 -6.9779197e-07 0.70689081)
(-6.8657035e-07 -6.8657035e-07 0.70688845)
(-2.8652711e-07 -6.7727917e-07 0.70688745)
(-1.0666008e-07 -6.6407482e-07 0.70688695)
(4.9626437e-08 -6.4563684e-07 0.7068869)
(1.8292384e-07 -6.1896208e-07 0.70688723)
(2.7503335e-07 -5.7783912e-07 0.70688788)
(2.5160453e-07 -5.0966561e-07 0.7068887)
(6.5405303e-08 -4.0641879e-07 0.706889)
(1.7648354e-07 -3.0380576e-07 0.7068885)
(-2.2647658e-07 -2.9605641e-07 0.70688978)
(-6.7727917e-07 -2.8652711e-07 0.70688745)
(-2.7356088e-07 -2.7356088e-07 0.70688647)
(-8.9592628e-08 -2.5767533e-07 0.70688602)
(7.1892844e-08 -2.3852096e-07 0.70688601)
(2.1148215e-07 -2.1509363e-07 0.70688641)
(3.0896319e-07 -1.8707104e-07 0.70688715)
(2.8432965e-07 -1.5714217e-07 0.70688806)
(7.5231171e-08 -1.3442185e-07 0.70688844)
(1.7880824e-07 -1.3133034e-07 0.70688796)
(-2.1720103e-07 -1.2123496e-07 0.70688926)
(-6.6407481e-07 -1.0666008e-07 0.70688695)
(-2.5767533e-07 -8.9592623e-08 0.70688602)
(-7.162016e-08 -7.1620153e-08 0.70688561)
(9.2208141e-08 -5.3124176e-08 0.70688565)
(2.3437376e-07 -3.3779178e-08 0.70688611)
(3.3298481e-07 -1.3781889e-08 0.70688691)
(3.0425372e-07 4.7849955e-09 0.70688788)
(8.0552183e-08 1.674133e-08 0.70688831)
(1.832138e-07 6.8854445e-09 0.70688782)
(-2.0180632e-07 2.67801e-08 0.70688915)
(-6.4563683e-07 4.9626446e-08 0.7068869)
(-2.3852095e-07 7.1892843e-08 0.70688601)
(-5.3124181e-08 9.2208145e-08 0.70688565)
(1.0973382e-07 1.0973383e-07 0.70688574)
(2.5082444e-07 1.2479527e-07 0.70688624)
(3.4752736e-07 1.3727873e-07 0.70688709)
(3.1485287e-07 1.4646145e-07 0.7068881)
(8.320206e-08 1.5130304e-07 0.70688854)
(1.9207135e-07 1.0340981e-07 0.70688801)
(-1.7446003e-07 1.4368443e-07 0.70688941)
(-6.1896207e-07 1.8292385e-07 0.70688723)
(-2.1509363e-07 2.1148216e-07 0.70688641)
(-3.3779178e-08 2.3437376e-07 0.70688611)
(1.2479526e-07 2.5082443e-07 0.70688624)
(2.6191867e-07 2.6191867e-07 0.70688678)
(3.5465099e-07 2.6789586e-07 0.70688765)
(3.1827803e-07 2.6888602e-07 0.70688867)
(8.3779909e-08 2.6684578e-07 0.70688912)
(2.1006354e-07 1.2954835e-07 0.70688839)
(-1.2229228e-07 1.9966673e-07 0.70688993)
(-5.7783911e-07 2.7503335e-07 0.70688788)
(-1.8707104e-07 3.0896319e-07 0.70688715)
(-1.3781908e-08 3.3298481e-07 0.70688691)
(1.3727873e-07 3.4752735e-07 0.70688709)
(2.6789587e-07 3.54651e-07 0.70688765)
(3.5449471e-07 3.5449471e-07 0.70688852)
(3.1380279e-07 3.4647999e-07 0.70688953)
(8.1841899e-08 3.340428e-07 0.70688997)
(2.3881693e-07 5.9412591e-08 0.7068887)
(-2.8975022e-08 1.1290932e-07 0.70689048)
(-5.096656e-07 2.5160453e-07 0.7068887)
(-1.5714217e-07 2.8432965e-07 0.70688806)
(4.7849836e-09 3.0425372e-07 0.70688788)
(1.4646145e-07 3.1485288e-07 0.7068881)
(2.6888603e-07 3.1827804e-07 0.70688867)
(3.4647999e-07 3.138028e-07 0.70688953)
(2.9782611e-07 2.9782612e-07 0.70689051)
(7.5488445e-08 2.6971533e-07 0.70689088)
(2.4572803e-07 -5.1115036e-10 0.7068886)
(6.9899659e-08 6.3999528e-09 0.70689032)
(-4.0641879e-07 6.5405304e-08 0.706889)
(-1.3442185e-07 7.5231166e-08 0.70688844)
(1.6741325e-08 8.0552181e-08 0.70688831)
(1.5130304e-07 8.320206e-08 0.70688854)
(2.6684579e-07 8.3779911e-08 0.70688912)
(3.3404279e-07 8.1841902e-08 0.70688997)
(2.6971533e-07 7.5488447e-08 0.70689088)
(6.3101376e-08 6.3101378e-08 0.70689111)
(2.2830673e-06 2.2830673e-06 1.0516292)
(1.1227962e-06 5.9626382e-07 1.0516329)
(-3.2794803e-06 7.3612797e-07 1.0516299)
(-1.4812612e-06 7.4822812e-07 1.0516284)
(-6.2743236e-07 7.5992178e-07 1.0516277)
(5.5645376e-08 7.8156959e-07 1.0516275)
(5.3515873e-07 8.2559639e-07 1.0516279)
(6.4482971e-07 9.1743369e-07 1.0516285)
(1.4299407e-07 1.0639686e-06 1.0516291)
(-9.7445966e-08 9.8829461e-07 1.0516283)
(5.9626382e-07 1.1227962e-06 1.0516329)
(-1.1976128e-06 -1.1976128e-06 1.0516338)
(-3.0515338e-06 -9.4951641e-07 1.051631)
(-1.4455705e-06 -9.1018321e-07 1.0516295)
(-5.7742016e-07 -8.6371974e-07 1.0516288)
(1.5415729e-07 -7.8795769e-07 1.0516287)
(7.3895489e-07 -6.5254505e-07 1.0516292)
(1.002388e-06 -3.8906175e-07 1.0516301)
(2.4928546e-07 8.7329292e-08 1.051631)
(-1.7311992e-07 3.8629093e-07 1.0516302)
(7.3612797e-07 -3.2794803e-06 1.0516299)
(-9.4951641e-07 -3.0515338e-06 1.051631)
(-2.9920507e-06 -2.9920507e-06 1.0516282)
(-1.3954646e-06 -2.942755e-06 1.0516268)
(-5.0520685e-07 -2.8772479e-06 1.0516261)
(2.6682005e-07 -2.7865133e-06 1.0516261)
(9.3405467e-07 -2.6551403e-06 1.0516266)
(1.384704e-06 -2.4505557e-06 1.0516277)
(9.1834674e-07 -2.1005967e-06 1.0516291)
(1.0186179e-07 -1.6042949e-06 1.0516289)
(7.4822812e-07 -1.4812612e-06 1.0516284)
(-9.1018321e-07 -1.4455705e-06 1.0516295)
(-2.942755e-06 -1.3954646e-06 1.0516268)
(-1.3307678e-06 -1.3307678e-06 1.0516254)
(-4.211785e-07 -1.2525317e-06 1.0516248)
(3.762649e-07 -1.1583937e-06 1.0516248)
(1.0749125e-06 -1.0433602e-06 1.0516255)
(1.5569316e-06 -9.0559767e-07 1.0516267)
(1.0955463e-06 -7.5429571e-07 1.0516283)
(1.57748e-07 -6.3226273e-07 1.0516282)
(7.5992178e-07 -6.2743235e-07 1.0516277)
(-8.6371974e-07 -5.7742016e-07 1.0516288)
(-2.8772479e-06 -5.0520685e-07 1.0516261)
(-1.2525316e-06 -4.2117849e-07 1.0516248)
(-3.3283279e-07 -3.3283279e-07 1.0516242)
(4.7599152e-07 -2.4193756e-07 1.0516244)
(1.1868507e-06 -1.4698426e-07 1.0516251)
(1.6737685e-06 -4.9235073e-08 1.0516264)
(1.1916817e-06 4.1019336e-08 1.0516281)
(1.8321711e-07 9.8071172e-08 1.051628)
(7.8156958e-07 5.5645387e-08 1.0516275)
(-7.879577e-07 1.5415729e-07 1.0516287)
(-2.7865133e-06 2.6682007e-07 1.0516261)
(-1.1583937e-06 3.7626491e-07 1.0516248)
(-2.4193756e-07 4.7599151e-07 1.0516244)
(5.6211343e-07 5.6211343e-07 1.0516246)
(1.267615e-06 6.3604315e-07 1.0516254)
(1.7449352e-06 6.9714637e-07 1.0516267)
(1.2428526e-06 7.4167282e-07 1.0516284)
(1.9578256e-07 7.6416587e-07 1.0516284)
(8.2559639e-07 5.3515874e-07 1.0516279)
(-6.5254506e-07 7.389549e-07 1.0516292)
(-2.6551403e-06 9.3405467e-07 1.0516266)
(-1.0433602e-06 1.0749125e-06 1.0516255)
(-1.4698427e-07 1.1868507e-06 1.0516251)
(6.3604316e-07 1.2676149e-06 1.0516254)
(1.3218837e-06 1.3218837e-06 1.0516262)
(1.7793982e-06 1.3505295e-06 1.0516276)
(1.2587012e-06 1.353494e-06 1.0516293)
(1.9821247e-07 1.3399155e-06 1.0516294)
(9.1743369e-07 6.4482971e-07 1.0516285)
(-3.8906176e-07 1.002388e-06 1.0516301)
(-2.4505557e-06 1.384704e-06 1.0516277)
(-9.0559768e-07 1.5569316e-06 1.0516267)
(-4.9235083e-08 1.6737685e-06 1.0516264)
(6.9714638e-07 1.7449352e-06 1.0516267)
(1.3505295e-06 1.7793982e-06 1.0516276)
(1.7765455e-06 1.7765455e-06 1.051629)
(1.2322385e-06 1.7297908e-06 1.0516307)
(1.8673022e-07 1.6498945e-06 1.0516307)
(1.0639686e-06 1.4299405e-07 1.0516291)
(8.7329297e-08 2.4928545e-07 1.051631)
(-2.1005967e-06 9.1834674e-07 1.0516291)
(-7.5429573e-07 1.0955463e-06 1.0516283)
(4.1019326e-08 1.1916817e-06 1.0516281)
(7.4167283e-07 1.2428526e-06 1.0516284)
(1.353494e-06 1.2587012e-06 1.0516293)
(1.7297908e-06 1.2322385e-06 1.0516307)
(1.1320501e-06 1.1320501e-06 1.0516323)
(1.4494825e-07 9.0931403e-07 1.0516322)
(9.8829462e-07 -9.7445976e-08 1.0516283)
(3.8629095e-07 -1.7311992e-07 1.0516302)
(-1.6042949e-06 1.0186179e-07 1.0516289)
(-6.3226274e-07 1.57748e-07 1.0516282)
(9.8071167e-08 1.8321711e-07 1.051628)
(7.6416587e-07 1.9578256e-07 1.0516284)
(1.3399155e-06 1.9821247e-07 1.0516294)
(1.6498944e-06 1.8673022e-07 1.0516307)
(9.0931404e-07 1.4494825e-07 1.0516322)
(3.8239485e-08 3.8239482e-08 1.0516313)
(3.0853581e-06 3.0853581e-06 1.0519599)
(1.0411889e-06 7.1648006e-07 1.0519621)
(-5.2529572e-06 8.8743353e-07 1.0519597)
(-2.518783e-06 9.0570298e-07 1.0519584)
(-1.029078e-06 9.2620877e-07 1.0519578)
(2.053298e-07 9.6432198e-07 1.0519577)
(1.1092828e-06 1.0435095e-06 1.0519582)
(1.3114759e-06 1.2218519e-06 1.051959)
(-1.3538173e-07 1.5599049e-06 1.0519598)
(-4.7953895e-07 1.4994212e-06 1.0519588)
(7.1648006e-07 1.0411889e-06 1.0519621)
(-2.2556982e-06 -2.2556982e-06 1.0519625)
(-4.9691228e-06 -1.9422578e-06 1.0519601)
(-2.4606202e-06 -1.8774246e-06 1.0519588)
(-9.4114949e-07 -1.7947778e-06 1.0519582)
(3.8128092e-07 -1.6601142e-06 1.0519582)
(1.4955776e-06 -1.4183498e-06 1.0519588)
(2.086069e-06 -9.3103843e-07 1.0519599)
(2.8097227e-07 2.7621725e-08 1.0519613)
(-5.4002262e-07 6.2535022e-07 1.0519602)
(8.8743353e-07 -5.2529572e-06 1.0519597)
(-1.9422578e-06 -4.9691228e-06 1.0519601)
(-4.8746836e-06 -4.8746836e-06 1.0519578)
(-2.3713031e-06 -4.786792e-06 1.0519566)
(-8.1176764e-07 -4.6692908e-06 1.051956)
(5.8175787e-07 -4.5066372e-06 1.0519561)
(1.8383585e-06 -4.2720828e-06 1.0519568)
(2.7574474e-06 -3.9099226e-06 1.051958)
(1.4210069e-06 -3.2864668e-06 1.0519598)
(-8.1053299e-08 -2.4416469e-06 1.0519593)
(9.0570297e-07 -2.518783e-06 1.0519584)
(-1.8774246e-06 -2.4606202e-06 1.0519588)
(-4.786792e-06 -2.3713031e-06 1.0519566)
(-2.2552274e-06 -2.2552274e-06 1.0519554)
(-6.6099473e-07 -2.1150343e-06 1.0519549)
(7.7848897e-07 -1.9463293e-06 1.051955)
(2.0922923e-06 -1.7399781e-06 1.0519558)
(3.071685e-06 -1.4926295e-06 1.0519572)
(1.749248e-06 -1.2174263e-06 1.0519591)
(2.3190624e-08 -9.9257437e-07 1.0519587)
(9.2620878e-07 -1.029078e-06 1.0519578)
(-1.7947778e-06 -9.4114948e-07 1.0519582)
(-4.6692908e-06 -8.1176764e-07 1.051956)
(-2.1150343e-06 -6.6099472e-07 1.0519549)
(-5.0286946e-07 -5.0286945e-07 1.0519544)
(9.5681411e-07 -3.4026744e-07 1.0519546)
(2.2920583e-06 -1.70608e-07 1.0519555)
(3.2799992e-06 3.5715763e-09 1.051957)
(1.921062e-06 1.6421311e-07 1.051959)
(6.8847975e-08 2.6576151e-07 1.0519587)
(9.6432199e-07 2.0532982e-07 1.0519577)
(-1.6601142e-06 3.8128092e-07 1.0519582)
(-4.5066372e-06 5.8175787e-07 1.0519561)
(-1.9463293e-06 7.7848897e-07 1.051955)
(-3.4026745e-07 9.5681411e-07 1.0519546)
(1.1107504e-06 1.1107504e-06 1.0519549)
(2.4361313e-06 1.2426043e-06 1.0519559)
(3.4065061e-06 1.3510068e-06 1.0519574)
(2.0114379e-06 1.428991e-06 1.0519594)
(9.0889555e-08 1.467078e-06 1.0519592)
(1.0435095e-06 1.1092828e-06 1.0519582)
(-1.4183498e-06 1.4955776e-06 1.0519588)
(-4.2720828e-06 1.8383585e-06 1.0519568)
(-1.7399781e-06 2.0922923e-06 1.0519558)
(-1.70608e-07 2.2920583e-06 1.0519555)
(1.2426043e-06 2.4361313e-06 1.0519559)
(2.5323147e-06 2.5323147e-06 1.0519568)
(3.4663859e-06 2.5812699e-06 1.0519584)
(2.0371332e-06 2.5807298e-06 1.0519605)
(9.4239315e-08 2.5459223e-06 1.0519602)
(1.2218519e-06 1.3114759e-06 1.051959)
(-9.3103843e-07 2.086069e-06 1.0519599)
(-3.9099226e-06 2.7574474e-06 1.051958)
(-1.4926295e-06 3.071685e-06 1.0519572)
(3.5715741e-09 3.2799992e-06 1.051957)
(1.3510068e-06 3.4065061e-06 1.0519574)
(2.5812699e-06 3.4663859e-06 1.0519584)
(3.4549213e-06 3.4549213e-06 1.05196)
(1.9760903e-06 3.3466661e-06 1.0519621)
(6.7684511e-08 3.1323145e-06 1.0519617)
(1.5599049e-06 -1.3538174e-07 1.0519598)
(2.7621722e-08 2.8097227e-07 1.0519613)
(-3.2864668e-06 1.4210069e-06 1.0519598)
(-1.2174263e-06 1.749248e-06 1.0519591)
(1.642131e-07 1.921062e-06 1.051959)
(1.428991e-06 2.0114379e-06 1.0519594)
(2.5807299e-06 2.0371332e-06 1.0519605)
(3.3466661e-06 1.9760903e-06 1.0519621)
(1.7145264e-06 1.7145263e-06 1.051964)
(-4.8661773e-08 8.6510666e-07 1.0519634)
(1.4994212e-06 -4.7953895e-07 1.0519588)
(6.2535022e-07 -5.4002262e-07 1.0519602)
(-2.4416469e-06 -8.1053299e-08 1.0519593)
(-9.9257438e-07 2.3190623e-08 1.0519587)
(2.657615e-07 6.884798e-08 1.0519587)
(1.467078e-06 9.0889555e-08 1.0519592)
(2.5459223e-06 9.4239314e-08 1.0519602)
(3.1323145e-06 6.7684511e-08 1.0519617)
(8.6510666e-07 -4.8661777e-08 1.0519634)
(-4.9859527e-07 -4.9859528e-07 1.0519616)
(3.7624645e-06 3.7624645e-06 1.052472)
(9.023082e-07 8.2362436e-07 1.0524739)
(-7.0143978e-06 1.0272631e-06 1.0524717)
(-3.4134958e-06 1.052119e-06 1.0524706)
(-1.3123736e-06 1.0814193e-06 1.05247)
(4.8166519e-07 1.1353895e-06 1.0524701)
(1.8637692e-06 1.2472153e-06 1.0524707)
(2.2862208e-06 1.5048616e-06 1.0524717)
(-6.8610397e-08 2.0248456e-06 1.0524728)
(-7.6307611e-07 1.9355676e-06 1.0524721)
(8.2362436e-07 9.023082e-07 1.0524739)
(-3.2004942e-06 -3.2004942e-06 1.0524743)
(-6.6716558e-06 -2.8194146e-06 1.0524721)
(-3.3322615e-06 -2.7283101e-06 1.052471)
(-1.1874679e-06 -2.609534e-06 1.0524705)
(7.303592e-07 -2.4170727e-06 1.0524706)
(2.4179774e-06 -2.0731957e-06 1.0524713)
(3.4526664e-06 -1.374677e-06 1.0524726)
(5.7744872e-07 4.8554001e-08 1.0524742)
(-8.5235411e-07 8.5276509e-07 1.0524733)
(1.0272631e-06 -7.0143978e-06 1.0524717)
(-2.8194146e-06 -6.6716558e-06 1.0524721)
(-6.5422138e-06 -6.5422138e-06 1.05247)
(-3.2036152e-06 -6.4155832e-06 1.0524689)
(-1.0011362e-06 -6.2463327e-06 1.0524685)
(1.0180034e-06 -6.0123992e-06 1.0524686)
(2.9061649e-06 -5.6757947e-06 1.0524695)
(4.4079705e-06 -5.1590017e-06 1.0524709)
(2.1588317e-06 -4.2659725e-06 1.0524729)
(-2.2693541e-07 -3.1015654e-06 1.0524725)
(1.052119e-06 -3.4134958e-06 1.0524706)
(-2.7283101e-06 -3.3322615e-06 1.052471)
(-6.4155832e-06 -3.2036152e-06 1.0524689)
(-3.0363804e-06 -3.0363804e-06 1.0524679)
(-7.8428388e-07 -2.8348148e-06 1.0524675)
(1.3008972e-06 -2.5925236e-06 1.0524677)
(3.2713749e-06 -2.2962517e-06 1.0524686)
(4.8624886e-06 -1.941463e-06 1.0524702)
(2.6348852e-06 -1.5439476e-06 1.0524724)
(-7.6082651e-08 -1.21956e-06 1.0524721)
(1.0814193e-06 -1.3123736e-06 1.05247)
(-2.609534e-06 -1.1874679e-06 1.0524705)
(-6.2463327e-06 -1.0011362e-06 1.0524685)
(-2.8348148e-06 -7.8428387e-07 1.0524675)
(-5.5727945e-07 -5.5727945e-07 1.0524672)
(1.5565665e-06 -3.2411276e-07 1.0524675)
(3.5572256e-06 -8.1176625e-08 1.0524685)
(5.1602746e-06 1.6757468e-07 1.0524701)
(2.8807346e-06 3.9679058e-07 1.0524724)
(-1.0677026e-08 5.4165824e-07 1.0524722)
(1.1353895e-06 4.816652e-07 1.0524701)
(-2.4170727e-06 7.3035922e-07 1.0524706)
(-6.0123992e-06 1.0180034e-06 1.0524686)
(-2.5925236e-06 1.3008972e-06 1.0524677)
(-3.2411276e-07 1.5565665e-06 1.0524675)
(1.777e-06 1.777e-06 1.0524679)
(3.7630623e-06 1.9653094e-06 1.0524689)
(5.3404558e-06 2.1193577e-06 1.0524706)
(3.0089687e-06 2.2292641e-06 1.0524729)
(2.0495793e-08 2.2822312e-06 1.0524728)
(1.2472153e-06 1.8637692e-06 1.0524707)
(-2.0731957e-06 2.4179774e-06 1.0524713)
(-5.6757947e-06 2.9061649e-06 1.0524695)
(-2.2962517e-06 3.2713749e-06 1.0524686)
(-8.1176625e-08 3.5572256e-06 1.0524685)
(1.9653094e-06 3.7630623e-06 1.0524689)
(3.8995833e-06 3.8995833e-06 1.05247)
(5.4242293e-06 3.9672426e-06 1.0524718)
(3.0436081e-06 3.9619914e-06 1.0524741)
(2.4634413e-08 3.9061099e-06 1.0524739)
(1.5048616e-06 2.2862208e-06 1.0524717)
(-1.374677e-06 3.4526664e-06 1.0524726)
(-5.1590017e-06 4.4079705e-06 1.0524709)
(-1.941463e-06 4.8624886e-06 1.0524702)
(1.6757468e-07 5.1602746e-06 1.0524701)
(2.1193577e-06 5.3404558e-06 1.0524706)
(3.9672426e-06 5.4242293e-06 1.0524718)
(5.4028639e-06 5.4028639e-06 1.0524735)
(2.947836e-06 5.2308351e-06 1.0524758)
(-1.6758565e-08 4.8676229e-06 1.0524756)
(2.0248456e-06 -6.8610403e-08 1.0524728)
(4.8553988e-08 5.7744872e-07 1.0524742)
(-4.2659726e-06 2.1588317e-06 1.0524729)
(-1.5439476e-06 2.6348852e-06 1.0524724)
(3.9679058e-07 2.8807346e-06 1.0524724)
(2.2292641e-06 3.0089687e-06 1.0524729)
(3.9619915e-06 3.0436081e-06 1.0524741)
(5.2308351e-06 2.947836e-06 1.0524758)
(2.5083671e-06 2.5083671e-06 1.052478)
(-2.1750703e-07 7.485421e-07 1.0524775)
(1.9355676e-06 -7.6307612e-07 1.0524721)
(8.5276509e-07 -8.5235411e-07 1.0524733)
(-3.1015654e-06 -2.269354e-07 1.0524725)
(-1.21956e-06 -7.6082646e-08 1.0524721)
(5.4165825e-07 -1.0677024e-08 1.0524722)
(2.2822312e-06 2.0495795e-08 1.0524728)
(3.9061099e-06 2.4634414e-08 1.0524739)
(4.8676229e-06 -1.6758568e-08 1.0524756)
(7.485421e-07 -2.1750703e-07 1.0524775)
(-1.1899752e-06 -1.1899752e-06 1.0524755)
(4.3900664e-06 4.3900664e-06 1.0531617)
(7.5545906e-07 9.2017946e-07 1.0531635)
(-8.6474513e-06 1.1599315e-06 1.0531614)
(-4.1889224e-06 1.1924552e-06 1.0531603)
(-1.4826945e-06 1.230786e-06 1.0531599)
(8.7416804e-07 1.3005284e-06 1.0531601)
(2.7513481e-06 1.4444676e-06 1.0531608)
(3.4325595e-06 1.7792523e-06 1.053162)
(2.0111175e-07 2.4768218e-06 1.0531632)
(-9.7723348e-07 2.3443722e-06 1.0531626)
(9.2017946e-07 7.5545906e-07 1.0531635)
(-4.0897438e-06 -4.0897438e-06 1.0531637)
(-8.2390377e-06 -3.6331961e-06 1.0531617)
(-4.0826407e-06 -3.5132178e-06 1.0531607)
(-1.3205846e-06 -3.3578837e-06 1.0531603)
(1.1946904e-06 -3.1082383e-06 1.0531605)
(3.469434e-06 -2.6640735e-06 1.0531614)
(4.9810909e-06 -1.7598118e-06 1.0531628)
(1.0487916e-06 1.1759465e-07 1.0531645)
(-1.1096831e-06 1.091331e-06 1.0531638)
(1.1599315e-06 -8.6474513e-06 1.0531614)
(-3.6331962e-06 -8.2390377e-06 1.0531617)
(-8.0709253e-06 -8.0709253e-06 1.0531598)
(-3.91361e-06 -7.9042766e-06 1.0531588)
(-1.077715e-06 -7.6834177e-06 1.0531584)
(1.5679782e-06 -7.379328e-06 1.0531587)
(4.0997745e-06 -6.9427747e-06 1.0531596)
(6.2142275e-06 -6.2752283e-06 1.0531612)
(3.0522544e-06 -5.1182477e-06 1.0531634)
(-3.2807597e-07 -3.6530032e-06 1.0531631)
(1.1924552e-06 -4.1889224e-06 1.0531603)
(-3.5132178e-06 -4.0826407e-06 1.0531607)
(-7.9042766e-06 -3.91361e-06 1.0531588)
(-3.6951331e-06 -3.6951331e-06 1.0531578)
(-7.9563604e-07 -3.4328837e-06 1.0531576)
(1.9353334e-06 -3.1183594e-06 1.0531579)
(4.5735337e-06 -2.7341961e-06 1.0531589)
(6.805618e-06 -2.2749011e-06 1.0531606)
(3.6710168e-06 -1.7580982e-06 1.0531629)
(-1.328535e-07 -1.3386229e-06 1.0531628)
(1.230786e-06 -1.4826945e-06 1.0531599)
(-3.3578837e-06 -1.3205846e-06 1.0531603)
(-7.6834177e-06 -1.077715e-06 1.0531584)
(-3.4328837e-06 -7.9563604e-07 1.0531576)
(-5.0094133e-07 -5.0094133e-07 1.0531573)
(2.2666658e-06 -1.9872117e-07 1.0531578)
(4.9432328e-06 1.1563022e-07 1.0531589)
(7.1903254e-06 4.3667185e-07 1.0531606)
(3.9885327e-06 7.3219912e-07 1.053163)
(-4.8425799e-08 9.1861949e-07 1.053163)
(1.3005284e-06 8.7416805e-07 1.0531601)
(-3.1082383e-06 1.1946904e-06 1.0531605)
(-7.379328e-06 1.5679782e-06 1.0531587)
(-3.1183594e-06 1.9353334e-06 1.0531579)
(-1.9872117e-07 2.2666658e-06 1.0531578)
(2.551905e-06 2.551905e-06 1.0531583)
(5.2089267e-06 2.7948669e-06 1.0531594)
(7.4221869e-06 2.9925864e-06 1.0531612)
(4.1529644e-06 3.1325178e-06 1.0531637)
(-8.5732476e-09 3.1991259e-06 1.0531636)
(1.4444676e-06 2.7513481e-06 1.0531608)
(-2.6640735e-06 3.469434e-06 1.0531614)
(-6.9427747e-06 4.0997745e-06 1.0531596)
(-2.7341961e-06 4.5735337e-06 1.0531589)
(1.1563022e-07 4.9432328e-06 1.0531589)
(2.7948669e-06 5.2089267e-06 1.0531594)
(5.3839143e-06 5.3839143e-06 1.0531606)
(7.5279763e-06 5.4683195e-06 1.0531625)
(4.1950722e-06 5.4567991e-06 1.0531649)
(-4.020367e-09 5.3800059e-06 1.0531649)
(1.7792523e-06 3.4325595e-06 1.053162)
(-1.7598118e-06 4.9810909e-06 1.0531628)
(-6.2752283e-06 6.2142275e-06 1.0531612)
(-2.2749011e-06 6.805618e-06 1.0531606)
(4.3667185e-07 7.1903254e-06 1.0531606)
(2.9925864e-06 7.4221869e-06 1.0531612)
(5.4683195e-06 7.5279763e-06 1.0531625)
(7.4950717e-06 7.4950717e-06 1.0531643)
(4.0646508e-06 7.2600033e-06 1.0531667)
(-5.9768698e-08 6.7542842e-06 1.0531667)
(2.4768218e-06 2.0111176e-07 1.0531632)
(1.1759466e-07 1.0487916e-06 1.0531645)
(-5.1182477e-06 3.0522544e-06 1.0531634)
(-1.7580982e-06 3.6710168e-06 1.0531629)
(7.3219912e-07 3.9885327e-06 1.053163)
(3.1325178e-06 4.1529644e-06 1.0531637)
(5.4567991e-06 4.1950722e-06 1.0531649)
(7.2600033e-06 4.0646508e-06 1.0531667)
(3.4542847e-06 3.4542846e-06 1.053169)
(-3.4116643e-07 7.1490053e-07 1.0531687)
(2.3443722e-06 -9.7723347e-07 1.0531626)
(1.091331e-06 -1.1096831e-06 1.0531638)
(-3.6530032e-06 -3.2807597e-07 1.0531631)
(-1.3386229e-06 -1.328535e-07 1.0531628)
(9.1861949e-07 -4.8425804e-08 1.053163)
(3.1991259e-06 -8.5732476e-09 1.0531636)
(5.3800059e-06 -4.0203695e-09 1.0531649)
(6.7542842e-06 -5.9768696e-08 1.0531667)
(7.1490053e-07 -3.4116644e-07 1.0531687)
(-1.8860247e-06 -1.8860247e-06 1.0531667)
(4.9689306e-06 4.9689306e-06 1.0540223)
(5.872077e-07 9.9746782e-07 1.0540239)
(-1.0178974e-05 1.2745557e-06 1.0540219)
(-4.8649791e-06 1.3154481e-06 1.0540209)
(-1.554288e-06 1.3629077e-06 1.0540206)
(1.3664744e-06 1.4481269e-06 1.0540209)
(3.7434874e-06 1.6233884e-06 1.0540217)
(4.6938135e-06 2.0333382e-06 1.0540229)
(6.0616012e-07 2.9050606e-06 1.0540243)
(-1.1418235e-06 2.7307572e-06 1.0540239)
(9.9746782e-07 5.872077e-07 1.0540239)
(-4.9543552e-06 -4.9543552e-06 1.0540241)
(-9.702004e-06 -4.4186381e-06 1.0540222)
(-4.7324511e-06 -4.2679403e-06 1.0540213)
(-1.3552699e-06 -4.075939e-06 1.054021)
(1.7571955e-06 -3.7702398e-06 1.0540213)
(4.6213044e-06 -3.2284041e-06 1.0540222)
(6.6163217e-06 -2.124144e-06 1.0540237)
(1.6522887e-06 1.9713588e-07 1.0540255)
(-1.3161269e-06 1.3322626e-06 1.054025)
(1.2745557e-06 -1.0178974e-05 1.0540219)
(-4.4186381e-06 -9.702004e-06 1.0540222)
(-9.4925596e-06 -9.4925596e-06 1.0540203)
(-4.5222801e-06 -9.2848972e-06 1.0540195)
(-1.0565876e-06 -9.0128018e-06 1.0540192)
(2.2140093e-06 -8.6400547e-06 1.0540196)
(5.3895831e-06 -8.1062945e-06 1.0540206)
(8.1193532e-06 -7.2926995e-06 1.0540222)
(4.0625667e-06 -5.8791737e-06 1.0540244)
(-3.8507243e-07 -4.126023e-06 1.0540243)
(1.3154481e-06 -4.8649791e-06 1.0540209)
(-4.2679403e-06 -4.7324511e-06 1.0540213)
(-9.2848972e-06 -4.5222801e-06 1.0540195)
(-4.2526934e-06 -4.2526933e-06 1.0540186)
(-7.1042744e-07 -3.9307086e-06 1.0540184)
(2.6637028e-06 -3.5456401e-06 1.0540189)
(5.9686596e-06 -3.0760394e-06 1.0540199)
(8.8434426e-06 -2.5155713e-06 1.0540217)
(4.8189654e-06 -1.8831589e-06 1.0540241)
(-1.4735978e-07 -1.372541e-06 1.0540241)
(1.3629077e-06 -1.554288e-06 1.0540206)
(-4.075939e-06 -1.3552699e-06 1.054021)
(-9.0128018e-06 -1.0565876e-06 1.0540192)
(-3.9307086e-06 -7.1042743e-07 1.0540184)
(-3.4953429e-07 -3.4953429e-07 1.0540183)
(3.0686785e-06 1.9933364e-08 1.0540188)
(6.4196519e-06 4.0357282e-07 1.05402)
(9.3122337e-06 7.9446442e-07 1.0540218)
(5.205597e-06 1.1539403e-06 1.0540243)
(-4.4660531e-08 1.3801638e-06 1.0540243)
(1.4481269e-06 1.3664744e-06 1.0540209)
(-3.7702398e-06 1.7571955e-06 1.0540213)
(-8.6400547e-06 2.2140093e-06 1.0540196)
(-3.5456401e-06 2.6637028e-06 1.0540189)
(1.9933362e-08 3.0686785e-06 1.0540188)
(3.4168099e-06 3.4168099e-06 1.0540194)
(6.7431906e-06 3.7125605e-06 1.0540206)
(9.5938101e-06 3.9521229e-06 1.0540225)
(5.4046648e-06 4.120456e-06 1.054025)
(3.4558904e-09 4.1995925e-06 1.0540251)
(1.6233884e-06 3.7434874e-06 1.0540217)
(-3.2284041e-06 4.6213044e-06 1.0540222)
(-8.1062945e-06 5.3895831e-06 1.0540206)
(-3.0760394e-06 5.9686596e-06 1.0540199)
(4.0357282e-07 6.4196519e-06 1.05402)
(3.7125605e-06 6.7431906e-06 1.0540206)
(6.9549649e-06 6.9549649e-06 1.0540219)
(9.7201292e-06 7.0546504e-06 1.0540238)
(5.4530665e-06 7.035725e-06 1.0540263)
(8.0971594e-09 6.9375597e-06 1.0540264)
(2.0333382e-06 4.6938135e-06 1.0540229)
(-2.124144e-06 6.6163217e-06 1.0540237)
(-7.2926995e-06 8.1193532e-06 1.0540222)
(-2.5155713e-06 8.8434426e-06 1.0540217)
(7.9446442e-07 9.3122337e-06 1.0540218)
(3.9521229e-06 9.5938101e-06 1.0540225)
(7.0546504e-06 9.7201292e-06 1.0540238)
(9.6745702e-06 9.6745702e-06 1.0540257)
(5.2875741e-06 9.376923e-06 1.0540282)
(-6.198764e-08 8.7344426e-06 1.0540283)
(2.9050606e-06 6.0616012e-07 1.0540243)
(1.9713587e-07 1.6522887e-06 1.0540255)
(-5.8791737e-06 4.0625667e-06 1.0540244)
(-1.8831589e-06 4.8189654e-06 1.0540241)
(1.1539403e-06 5.2055969e-06 1.0540243)
(4.120456e-06 5.4046648e-06 1.054025)
(7.035725e-06 5.4530666e-06 1.0540263)
(9.376923e-06 5.2875741e-06 1.0540282)
(4.5129389e-06 4.5129389e-06 1.0540306)
(-4.2022312e-07 7.9381285e-07 1.0540304)
(2.7307572e-06 -1.1418235e-06 1.0540239)
(1.3322626e-06 -1.3161269e-06 1.054025)
(-4.126023e-06 -3.8507243e-07 1.0540243)
(-1.372541e-06 -1.4735977e-07 1.0540241)
(1.3801638e-06 -4.4660527e-08 1.0540243)
(4.1995925e-06 3.4558913e-09 1.0540251)
(6.9375597e-06 8.0971644e-09 1.0540264)
(8.7344426e-06 -6.1987634e-08 1.0540283)
(7.9381285e-07 -4.2022312e-07 1.0540304)
(-2.5414049e-06 -2.5414049e-06 1.0540285)
(5.4948216e-06 5.4948216e-06 1.055046)
(3.8825785e-07 1.0519443e-06 1.0550475)
(-1.1619125e-05 1.3663688e-06 1.0550456)
(-5.4565038e-06 1.4159937e-06 1.0550447)
(-1.543551e-06 1.4725524e-06 1.0550445)
(1.9381962e-06 1.5728325e-06 1.0550448)
(4.8129307e-06 1.7783936e-06 1.0550457)
(6.0344866e-06 2.2611144e-06 1.055047)
(1.1148554e-06 3.3026119e-06 1.0550484)
(-1.2647292e-06 3.0918922e-06 1.0550481)
(1.0519443e-06 3.8825784e-07 1.0550475)
(-5.804422e-06 -5.804422e-06 1.0550476)
(-1.1073051e-05 -5.1885762e-06 1.0550458)
(-5.2972285e-06 -5.0062115e-06 1.055045)
(-1.3082928e-06 -4.7778394e-06 1.0550448)
(2.3969579e-06 -4.4175871e-06 1.0550451)
(5.8453535e-06 -3.7813008e-06 1.0550461)
(8.3208141e-06 -2.4838068e-06 1.0550476)
(2.3610222e-06 2.6850833e-07 1.0550495)
(-1.4754489e-06 1.5641581e-06 1.0550491)
(1.3663688e-06 -1.1619125e-05 1.0550456)
(-5.1885762e-06 -1.1073051e-05 1.0550458)
(-1.0820914e-05 -1.0820914e-05 1.0550441)
(-5.045767e-06 -1.057189e-05 1.0550433)
(-9.5492658e-07 -1.0249338e-05 1.0550431)
(2.9347347e-06 -9.8098107e-06 1.0550435)
(6.7467109e-06 -9.1820494e-06 1.0550446)
(1.0084295e-05 -8.2276919e-06 1.0550463)
(5.1628203e-06 -6.5664834e-06 1.0550485)
(-4.0096271e-07 -4.5370012e-06 1.0550485)
(1.4159937e-06 -5.4565038e-06 1.0550447)
(-5.0062115e-06 -5.2972285e-06 1.055045)
(-1.057189e-05 -5.045767e-06 1.0550433)
(-4.7256524e-06 -4.7256524e-06 1.0550425)
(-5.4621345e-07 -4.3452487e-06 1.0550424)
(3.4642468e-06 -3.8916741e-06 1.0550429)
(7.4274723e-06 -3.3394499e-06 1.055044)
(1.093638e-05 -2.6814468e-06 1.0550458)
(6.0517132e-06 -1.9375465e-06 1.0550482)
(-1.2246077e-07 -1.3394358e-06 1.0550484)
(1.4725524e-06 -1.543551e-06 1.0550445)
(-4.7778394e-06 -1.3082928e-06 1.0550448)
(-1.0249338e-05 -9.5492657e-07 1.0550431)
(-4.3452487e-06 -5.4621346e-07 1.0550424)
(-1.2094833e-07 -1.2094834e-07 1.0550423)
(3.9405335e-06 3.1368154e-07 1.0550429)
(7.9569382e-06 7.6426593e-07 1.0550441)
(1.1486199e-05 1.2224647e-06 1.055046)
(6.5048313e-06 1.6434978e-06 1.0550485)
(-2.2223021e-09 1.9079114e-06 1.0550487)
(1.5728325e-06 1.9381962e-06 1.0550448)
(-4.4175871e-06 2.3969579e-06 1.0550451)
(-9.8098107e-06 2.9347347e-06 1.0550435)
(-3.8916741e-06 3.4642468e-06 1.0550429)
(3.1368155e-07 3.9405335e-06 1.0550429)
(4.3494611e-06 4.3494611e-06 1.0550435)
(8.3362555e-06 4.6961258e-06 1.0550448)
(1.1815612e-05 4.9759259e-06 1.0550467)
(6.7371599e-06 5.1714802e-06 1.0550493)
(5.3814972e-08 5.2625244e-06 1.0550495)
(1.7783936e-06 4.8129307e-06 1.0550457)
(-3.7813007e-06 5.8453535e-06 1.0550461)
(-9.1820494e-06 6.7467109e-06 1.0550446)
(-3.3394499e-06 7.4274723e-06 1.055044)
(7.6426594e-07 7.9569382e-06 1.0550441)
(4.6961258e-06 8.3362555e-06 1.0550448)
(8.583403e-06 8.583403e-06 1.0550461)
(1.1961553e-05 8.6976337e-06 1.0550481)
(6.7914298e-06 8.67134e-06 1.0550506)
(5.8473827e-08 8.5523441e-06 1.0550508)
(2.2611144e-06 6.0344866e-06 1.055047)
(-2.4838068e-06 8.3208141e-06 1.0550476)
(-8.2276919e-06 1.0084295e-05 1.0550463)
(-2.6814468e-06 1.093638e-05 1.0550458)
(1.2224647e-06 1.1486199e-05 1.055046)
(4.9759259e-06 1.1815612e-05 1.0550467)
(8.6976337e-06 1.1961553e-05 1.0550481)
(1.1903549e-05 1.1903549e-05 1.0550501)
(6.5918703e-06 1.154555e-05 1.0550526)
(-2.5515635e-08 1.0772516e-05 1.0550527)
(3.3026119e-06 1.1148554e-06 1.0550484)
(2.6850833e-07 2.3610222e-06 1.0550495)
(-6.5664834e-06 5.1628203e-06 1.0550485)
(-1.9375465e-06 6.0517132e-06 1.0550482)
(1.6434978e-06 6.5048313e-06 1.0550485)
(5.1714802e-06 6.7371599e-06 1.0550493)
(8.67134e-06 6.7914298e-06 1.0550506)
(1.154555e-05 6.5918703e-06 1.0550526)
(5.660397e-06 5.660397e-06 1.055055)
(-4.5688204e-07 9.8435105e-07 1.0550549)
(3.0918922e-06 -1.2647292e-06 1.0550481)
(1.5641581e-06 -1.4754489e-06 1.0550491)
(-4.5370012e-06 -4.0096271e-07 1.0550485)
(-1.3394358e-06 -1.2246077e-07 1.0550484)
(1.9079114e-06 -2.222298e-09 1.0550487)
(5.2625244e-06 5.3814973e-08 1.0550495)
(8.5523441e-06 5.8473825e-08 1.0550508)
(1.0772516e-05 -2.5515635e-08 1.0550527)
(9.8435105e-07 -4.5688204e-07 1.0550549)
(-3.1428794e-06 -3.1428794e-06 1.0550532)
(5.963956e-06 5.963956e-06 1.0562243)
(1.5405402e-07 1.0822104e-06 1.0562256)
(-1.2970912e-05 1.4333271e-06 1.0562238)
(-5.9740187e-06 1.4918369e-06 1.056223)
(-1.4653421e-06 1.5573563e-06 1.0562228)
(2.5698872e-06 1.6721804e-06 1.0562232)
(5.9352816e-06 1.9068363e-06 1.0562241)
(7.4270193e-06 2.459503e-06 1.0562255)
(1.7067721e-06 3.6652765e-06 1.056227)
(-1.3501388e-06 3.4244658e-06 1.0562267)
(1.0822104e-06 1.5405402e-07 1.0562256)
(-6.6418901e-06 -6.6418901e-06 1.0562257)
(-1.2356472e-05 -5.9465045e-06 1.056224)
(-5.7879749e-06 -5.7321691e-06 1.0562232)
(-1.1948269e-06 -5.4681039e-06 1.056223)
(3.0941073e-06 -5.0551511e-06 1.0562235)