/*--------------------------------*- C++ -*----------------------------------*\
| =========                 |                                                 |
| \\      /  F ield         | OpenFOAM: The Open Source CFD Toolbox           |
|  \\    /   O peration     | Version:  v2106                                 |
|   \\  /    A nd           | Website:  www.openfoam.com                      |
|    \\/     M anipulation  |                                                 |
\*---------------------------------------------------------------------------*/
FoamFile
{
    version     2.0;
    format      ascii;
    arch        "LSB;label=32;scalar=64";
    class       volScalarField;
    location    "50";
    object      gradTx;
}
// * * * * * * * * * * * * * * * * * * * * * * * * * * * * * * * * * * * * * //

dimensions      [0 -1 0 1 0 0 0];

internalField   nonuniform List<scalar> 
4000
(
0.00049367718
0.00027818505
-0.00061889123
-0.0002382598
-0.00010299587
5.3999067e-06
8.1099189e-05
0.00010159835
4.6594358e-05
-4.0086743e-07
9.0642249e-05
-0.00025806249
-0.00054724366
-0.00023218237
-9.5078566e-05
2.1002304e-05
0.00011268458
0.00015658871
8.8549185e-05
5.0191678e-06
0.00013617882
-0.00018389079
-0.0005384431
-0.00022470901
-8.3648213e-05
3.8919555e-05
0.00014345811
0.00021569503
0.00019732096
5.1294138e-05
0.0001384073
-0.00017761436
-0.00053115649
-0.00021454024
-7.0263059e-05
5.6381995e-05
0.00016585497
0.00024230452
0.00022298566
5.9000079e-05
0.00014023044
-0.00017034
-0.00052080097
-0.00020208199
-5.6168143e-05
7.2314276e-05
0.00018380773
0.00026114349
0.00023861112
6.3173085e-05
0.0001436855
-0.0001582667
-0.00050634097
-0.00018706017
-4.1662663e-05
8.6058797e-05
0.00019670918
0.00027254849
0.00024692351
6.5251253e-05
0.00015063204
-0.00013682035
-0.00048542128
-0.00016868727
-2.6491335e-05
9.7870742e-05
0.00020540983
0.0002781352
0.00024960969
6.5704431e-05
0.00016474243
-9.5907777e-05
-0.00045317058
-0.00014671055
-1.0808468e-05
0.0001076609
0.00021009746
0.00027801264
0.00024609998
6.4184545e-05
0.00018729228
-2.2723674e-05
-0.00039970548
-0.00012323882
3.7526255e-06
0.00011486246
0.00021087399
0.00027172709
0.00023357026
5.9201846e-05
0.00019271232
5.4818838e-05
-0.00031873411
-0.0001054204
1.3129392e-05
0.00011865948
0.00020927393
0.00026197321
0.00021152437
4.9487282e-05
0.0017790282
0.00087491338
-0.0025554603
-0.0011542391
-0.00048891239
4.3360393e-05
0.00041701027
0.00050246888
0.00011142488
-7.5932551e-05
0.00046462499
-0.00093321249
-0.0023778382
-0.0011264279
-0.00044994151
0.00012012356
0.00057581377
0.00078108801
0.00019425002
-0.00013489975
0.00057361096
-0.00073988903
-0.0023314874
-0.001087384
-0.00039367095
0.00020791346
0.00072784085
0.0010789991
0.0007156008
7.9373482e-05
0.00058303973
-0.00070923954
-0.0022930749
-0.0010369705
-0.00032819377
0.00029319587
0.00083760109
0.0012132035
0.00085367956
0.00012292154
0.00059215176
-0.00067303395
-0.00224203
-0.00097600681
-0.00025935238
0.00037090557
0.00092482644
0.0013042461
0.00092859084
0.00014276776
0.00060902032
-0.0006139981
-0.0021713271
-0.00090265197
-0.00018852435
0.00043801411
0.00098776013
0.001359701
0.0009684646
0.0001525591
0.0006433272
-0.00050848088
-0.0020689577
-0.00081301471
-0.00011453415
0.00049562217
0.0010300478
0.0013865556
0.00098081425
0.00015445256
0.00071488933
-0.00030316752
-0.0019095398
-0.0007056664
-3.8365318e-05
0.00054323546
0.0010523694
0.0013843326
0.00096019382
0.00014550528
0.00082907329
6.8049366e-05
-0.0016368422
-0.00058776778
3.1963377e-05
0.00057793167
0.0010546794
0.0013479001
0.00088212429
0.00011294762
0.0007701061
0.00030100842
-0.0012501103
-0.00049267635
7.6419725e-05
0.00059545886
0.0010440986
0.0012856427
0.00070856225
2.9797248e-05
0.0023889873
0.00080619064
-0.0040673554
-0.0019502893
-0.00079681329
0.0001589865
0.00085891572
0.0010154735
-0.00010482583
-0.00037130616
0.00055476921
-0.001746583
-0.0038475829
-0.0019052538
-0.00072873039
0.00029522514
0.0011580231
0.0016152395
0.00021755632
-0.00041813855
0.0006871382
-0.0015038867
-0.0037744589
-0.0018360958
-0.00062855027
0.0004504541
0.0014234378
0.0021350867
0.0011002831
-6.2759426e-05
0.00070128421
-0.0014536865
-0.0037064047
-0.0017462187
-0.00051180708
0.00060278266
0.0016200583
0.0023784003
0.0013544396
1.7956459e-05
0.00071716183
-0.0013896933
-0.0036154238
-0.0016376674
-0.00038937096
0.00074085952
0.0017747368
0.0025396977
0.0014874749
5.3308866e-05
0.00074667282
-0.0012854235
-0.0034894814
-0.0015070394
-0.0002634685
0.00086005213
0.0018862923
0.0026376517
0.0015574528
7.0375622e-05
0.00080798758
-0.0010982257
-0.0033078662
-0.001347262
-0.00013210148
0.00096214636
0.0019607669
0.0026840165
0.0015773486
7.2969334e-05
0.00094607774
-0.0007209014
-0.0030274462
-0.0011557404
2.7654636e-06
0.0010460822
0.0019986727
0.0026751394
0.0015300832
5.2407996e-05
0.0012078316
2.1387449e-05
-0.0025447054
-0.00094265103
0.00012714992
0.0011064652
0.0019982545
0.0025913176
0.0013275547
-3.7678723e-05
0.0011609992
0.00048420756
-0.0018905629
-0.00076854859
0.00020577866
0.0011359559
0.0019713031
0.0024253455
0.00066985053
-0.00038606142
0.0028950646
0.00069428971
-0.0053972961
-0.0026265473
-0.0010098186
0.00037062194
0.0014340953
0.0017591547
-5.2792932e-05
-0.00058715629
0.00063374567
-0.002462651
-0.0051335699
-0.0025640408
-0.00091370868
0.00056198195
0.0018605361
0.0026566874
0.00044432348
-0.00065585209
0.00079043751
-0.0021694257
-0.0050339697
-0.0024650527
-0.00077033396
0.00078331261
0.0022361768
0.0033917555
0.0016611339
-0.00017461764
0.00080956316
-0.0020993246
-0.0049365327
-0.0023363724
-0.00060347485
0.001000988
0.0025171911
0.003741489
0.0020274379
-5.8542531e-05
0.00083210854
-0.0020079311
-0.0048063013
-0.0021812758
-0.00042880409
0.0011977153
0.0027371418
0.0039706233
0.0022166091
-8.2155407e-06
0.00087363642
-0.00185984
-0.0046262989
-0.0019948425
-0.00024939172
0.0013673299
0.0028955248
0.0041092654
0.0023152801
1.5770686e-05
0.00095968188
-0.0015952405
-0.0043672953
-0.0017668732
-6.2462142e-05
0.0015122264
0.0030005722
0.0041737257
0.0023419336
1.8955186e-05
0.0011579303
-0.0010577585
-0.0039696438
-0.0014938775
0.00012894196
0.0016307603
0.0030526332
0.0041572858
0.0022682408
-1.2895039e-05
0.001558037
3.7360334e-05
-0.0032824938
-0.0011880054
0.00030531435
0.0017153288
0.0030485925
0.0040249164
0.0019300871
-0.00016736287
0.0014893412
0.00065616832
-0.0023865294
-0.00093840224
0.00041678417
0.0017560849
0.0030055939
0.0037454393
0.0005759729
-0.00091563786
0.0033571188
0.00057770552
-0.0066127749
-0.0032033025
-0.0011338283
0.00066848329
0.0021039779
0.0026249056
0.00015379176
-0.00074729824
0.00070366851
-0.0031274594
-0.0063004577
-0.0031220279
-0.0010098616
0.0009135893
0.0026531038
0.0038090798
0.00080201923
-0.00084858351
0.00088700886
-0.002778334
-0.0061719011
-0.0029927689
-0.00082413731
0.0011990455
0.0031351305
0.0047520694
0.0023340833
-0.00025088231
0.00091187999
-0.0026865857
-0.0060444637
-0.002825698
-0.00060842929
0.001479965
0.003497418
0.0052043106
0.0028072558
-0.00010159413
0.0009411919
-0.0025678005
-0.0058755712
-0.0026251538
-0.00038307388
0.0017333376
0.0037801299
0.0054984995
0.0030500628
-3.7031595e-05
0.00099452446
-0.0023768947
-0.0056430314
-0.0023846346
-0.00015196368
0.0019514623
0.0039833081
0.0056758057
0.003175805
-6.5560308e-06
0.0011045959
-0.0020372382
-0.0053091955
-0.0020908617
8.8423357e-05
0.0021372572
0.0041171224
0.0057567036
0.0032080051
-3.0744066e-06
0.0013606085
-0.0013457421
-0.0047987173
-0.0017396351
0.00033392646
0.0022884548
0.0041816676
0.005731541
0.0031082707
-4.5705597e-05
0.0018940454
8.9925566e-05
-0.0039139648
-0.0013444317
0.00055991851
0.0023954613
0.0041728576
0.005551782
0.0026415187
-0.00026089266
0.0017927601
0.00083454945
-0.0027934807
-0.0010236556
0.00070247565
0.0024463971
0.0041141333
0.0051650546
0.00054669008
-0.001442258
0.0037765852
0.0004463012
-0.007736426
-0.003697578
-0.0011813208
0.001038575
0.0028451996
0.0035674852
0.00046070582
-0.00086783136
0.00075811521
-0.0037655069
-0.0073739093
-0.0035968514
-0.0010300591
0.0013355386
0.0035123754
0.0050286679
0.0012558051
-0.0010003088
0.00096871313
-0.0033583408
-0.0072147237
-0.0034371132
-0.00080304872
0.0016827354
0.0040962981
0.006171032
0.0030877124
-0.00029267038
0.00099979301
-0.0032438046
-0.0070568922
-0.0032322167
-0.00053995322
0.0020245205
0.0045364195
0.0067213689
0.0036626056
-0.0001119993
0.0010358642
-0.003097876
-0.006850089
-0.0029874955
-0.00026566002
0.0023323182
0.0048791916
0.0070776689
0.003956461
-3.3943782e-05
0.0011006341
-0.0028655325
-0.0065667863
-0.002694828
1.5150151e-05
0.002596912
0.0051250939
0.0072916781
0.0041077605
2.6266143e-06
0.0012338399
-0.0024537157
-0.0061611071
-0.0023379127
0.00030673145
0.0028216941
0.0052860506
0.0073876855
0.0041445476
6.1541634e-06
0.001545418
-0.001614434
-0.0055427422
-0.0019119345
0.00060382464
0.003003771
0.0053618154
0.0073530584
0.0040187665
-4.711307e-05
0.0022079617
0.00014983111
-0.0044684061
-0.0014312758
0.0008770406
0.0031317106
0.005347431
0.0071268342
0.0034300127
-0.00031938626
0.0020754842
0.0010125726
-0.0031359417
-0.0010431859
0.0010489795
0.0031918575
0.0052728215
0.0066385236
0.00060332929
-0.0019315687
0.0041510744
0.00029331017
-0.0087776919
-0.0041221273
-0.0011660788
0.0014642144
0.0036359386
0.0045587654
0.0008422198
-0.00095544226
0.00079469343
-0.0043849621
-0.0083651589
-0.0040018023
-0.00098835252
0.0018107869
0.0044158845
0.006285976
0.001783639
-0.0011146309
0.0010322262
-0.0039197206
-0.0081746827
-0.0038118355
-0.00072140135
0.0022170517
0.0050968171
0.007618202
0.0039002631
-0.0003029081
0.0010697154
-0.0037819529
-0.007986557
-0.0035700043
-0.00041263814
0.0026170728
0.0056111
0.0082619115
0.0045717792
-9.2513241e-05
0.0011124428
-0.0036094288
-0.0077428847
-0.0032826276
-9.1370682e-05
0.0029768847
0.0060110861
0.0086772732
0.0049140882
-1.6788427e-06
0.0011881996
-0.0033372754
-0.0074108426
-0.0029399737
0.00023697141
0.0032858098
0.0062976421
0.008926129
0.0050896012
4.065463e-05
0.0013434911
-0.0028565915
-0.0069365988
-0.0025227946
0.00057736635
0.0035476984
0.00648435
0.0090363801
0.0051305994
4.417417e-05
0.0017081635
-0.0018763969
-0.0062156271
-0.0020257047
0.00092351355
0.0037590737
0.0065706454
0.0089925603
0.0049798414
-1.9275837e-05
0.0024949649
0.00020284516
-0.0049606633
-0.0014637235
0.0012415838
0.0039068053
0.0065507813
0.0087221086
0.0042761578
-0.00034515242
0.0023357763
0.0011816464
-0.0034274869
-0.0010118796
0.0014413356
0.0039755848
0.0064608856
0.0081381187
0.00074362989
-0.0023742944
0.0044785834
0.00011568558
-0.009740399
-0.0044861401
-0.0011003866
0.0019298356
0.0044570507
0.0055772586
0.0012816863
-0.0010138755
0.00081267685
-0.0049876718
-0.0092789904
-0.004346432
-0.00089724541
0.0023234943
0.0053439007
0.0075579875
0.0023686325
-0.0011947103
0.0010763451
-0.0044654783
-0.0090572523
-0.0041268894
-0.0005919856
0.0027858688
0.0061165659
0.0090696599
0.0047538727
-0.00028496177
0.0011202826
-0.004304525
-0.008839367
-0.0038493474
-0.0002395476
0.0032412371
0.0067010817
0.0098016971
0.0055167048
-4.6510608e-05
0.0011694839
-0.0041062275
-0.0085601678
-0.0035211041
0.00012650428
0.0036504573
0.0071552743
0.010272935
0.005904803
5.638618e-05
0.0012557101
-0.003796124
-0.0081816692
-0.0031308576
0.00050003513
0.004001469
0.0074803815
0.010554817
0.0061032616
0.00010418012
0.001431923
-0.0032501944
-0.007642425
-0.0026565156
0.00088673618
0.0042985766
0.0076915829
0.01067872
0.0061484407
0.00010775539
0.0018469434
-0.0021366089
-0.0068244882
-0.0020921491
0.001279335
0.0045377776
0.007788069
0.010626623
0.005974605
3.4862002e-05
0.0027524089
0.0002422069
-0.0053987154
-0.0014532407
0.0016398557
0.0047043614
0.0077633896
0.010315206
0.0051639632
-0.00034095119
0.0025715742
0.0013355775
-0.0036764159
-0.00094121882
0.0018658918
0.0047814152
0.0076594124
0.0096421459
0.00095907185
-0.0027683989
0.0047579868
-8.6827763e-05
-0.010625337
-0.0047961047
-0.00099446641
0.0024219342
0.0052921873
0.0066053445
0.0017662604
-0.0010458147
0.00081228836
-0.0055723358
-0.010116819
-0.0046374819
-0.00076715207
0.0028598921
0.0062794911
0.0088255615
0.0029967819
-0.0012432674
0.0011009814
-0.0049950696
-0.0098643191
-0.0043893362
-0.00042548217
0.0033751244
0.0071381822
0.010505351
0.0056331915
-0.00024201644
0.0011513009
-0.0048113176
-0.0096175516
-0.0040776034
-3.162811e-05
0.003882681
0.0077887067
0.011320301
0.0064816735
2.2727296e-05
0.0012067299
-0.0045883011
-0.0093044406
-0.0037105402
0.0003767889
0.0043384949
0.0082939044
0.011844045
0.0069127615
0.00013694033
0.0013028438
-0.0042423333
-0.0088820277
-0.0032753323
0.00079297743
0.0047292157
0.0086553823
0.0121571
0.0071328969
0.00018989623
0.0014987019
-0.0036351109
-0.0082816517
-0.0027471697
0.0012233236
0.0050596001
0.0088898631
0.012294189
0.0071823851
0.00019364277
0.0019610463
-0.0023963385
-0.0073728121
-0.00211961
0.0016596531
0.0053251744
0.0089963722
0.012235064
0.0069878091
0.0001122011
0.0029788466
0.00026489521
-0.0057869125
-0.0014084752
0.0020601231
0.0055097444
0.0089678271
0.011886513
0.0060789163
-0.00030963595
0.0027813939
0.0014705927
-0.0038879205
-0.00084004007
0.0023108765
0.0055947981
0.0088512844
0.011131595
0.00123982
-0.0031138631
0.0049889394
-0.00031256072
-0.011431525
-0.0050565211
-0.00085662617
0.0029290152
0.0061273155
0.0076279149
0.0022849611
-0.0010535423
0.00079436382
-0.0061358909
-0.010878158
-0.0048796522
-0.00060655226
0.00340823
0.0072080511
0.010072125
0.0036557337
-0.0012627948
0.0011067192
-0.0055060282
-0.010595763
-0.0046041413
-0.000230616
0.0039727765
0.0081466192
0.011907801
0.0065244818
-0.00017707144
0.0011632747
-0.0053001289
-0.010321273
-0.0042600004
0.00020214141
0.0045290887
0.0088586097
0.01279985
0.007452532
0.00011207522
0.0012246318
-0.0050536484
-0.0099761108
-0.003856409
0.00065027466
0.0050284598
0.0094113897
0.013372512
0.0079236333
0.00023681346
0.0013299907
-0.0046741187
-0.0095125789
-0.0033791097
0.0011063891
0.005456353
0.0098069357
0.013714798
0.008164123
0.0002946213
0.0015441084
-0.0040098871
-0.0088552521
-0.0028007256
0.0015775389
0.0058179697
0.010063451
0.013864635
0.0082181003
0.00029867255
0.0020504811
-0.0026548149
-0.0078620202
-0.0021143392
0.002054715
0.0061084147
0.010179869
0.013799876
0.0080053293
0.00020965254
0.003173582
0.00026999943
-0.0061275269
-0.001336015
0.0024924869
0.006310093
0.010148529
0.013418322
0.007007417
-0.00025408014
0.0029643295
0.0015847057
-0.0040652219
-0.00071518768
0.002766306
0.0064028816
0.010021076
0.012589193
0.0015759575
-0.0034113204
0.0051717318
-0.00055853961
-0.012156966
-0.0052704702
-0.00069360277
0.0034412896
0.0069502384
0.0086316357
0.0028278534
-0.0010391963
0.00076015655
-0.0066742559
-0.011561453
-0.0050761979
-0.00042233986
0.0039584784
0.0081168456
0.011282973
0.0043341449
-0.0012557105
0.0010945876
-0.0059947982
-0.011250341
-0.0047747939
-1.4508353e-05
0.0045685148
0.0091287128
0.013261458
0.0074150983
-9.3025019e-05
0.0011571649
-0.0057676314
-0.010949535
-0.0044002668
0.00045439809
0.0051698801
0.0098973054
0.014224392
0.0084162161
0.00021850556
0.0012241025
-0.0054991219
-0.01057441
-0.0039626705
0.00093937235
0.0057095444
0.010494008
0.014842141
0.0089241591
0.0003529269
0.0013380068
-0.0050885369
-0.010072797
-0.0034463862
0.0014324729
0.0061718945
0.010921167
0.015211591
0.0091835932
0.00041525597
0.001568895
-0.0043718967
-0.0093630085
-0.002821641
0.0019413868
0.006562563
0.011198391
0.015373698
0.0092422298
0.00041974549
0.002115745
-0.0029100625
-0.0082923375
-0.0020810904
0.0024563347
0.0068762766
0.01132458
0.015304741
0.0090138946
0.00032415041
0.0033364535
0.00025792539
-0.0064215903
-0.0012409575
0.0029285862
0.0070941194
0.01129154
0.014894458
0.0079365593
-0.00017717983
0.0031199393
0.0016771824
-0.0042102662
-0.0005720296
0.0032237118
0.0071943472
0.011154882
0.01399907
0.0019577249
-0.0036617392
0.005307179
-0.00082090586
-0.01279915
-0.0054400542
-0.00051091516
0.0039503483
0.0077502224
0.0096045264
0.0033856749
-0.0010048758
0.00071121413
-0.0071827823
-0.012164596
-0.0052293812
-0.00022017828
0.0045020065
0.0089946496
0.012444872
0.0050213659
-0.0012244351
0.001065928
-0.0064572139
-0.011826235
-0.0049037707
0.00021696603
0.0051534459
0.010072839
0.014552312
0.0082932172
7.2698716e-06
0.0011342499
-0.006209868
-0.011500747
-0.0045011009
0.00071903905
0.005795903
0.01089286
0.015579536
0.009360507
0.00033904349
0.0012063767
-0.0059209303
-0.011097955
-0.0040322424
0.00123776
0.0063723715
0.011529591
0.016238304
0.0099019236
0.00048225433
0.0013280745
-0.0054819868
-0.010561529
-0.003480307
0.0017646993
0.0068662763
0.011985738
0.016632703
0.010178788
0.00054874844
0.0015741488
-0.0047178327
-0.0098040587
-0.0028133168
0.0023081333
0.0072836604
0.012282227
0.016806522
0.010242208
0.00055379988
0.0021576926
-0.0031593704
-0.0086633184
-0.0020235552
0.0028575769
0.0076189125
0.012417981
0.016734782
0.010000956
0.00045264363
0.0034677125
0.00022995331
-0.0066693951
-0.0011273255
0.0033613003
0.0078518789
0.012384306
0.0163001
0.0088540377
-8.1859429e-05
0.0032481532
0.0017481718
-0.0043241773
-0.00041484877
0.0036758577
0.0079591973
0.012240149
0.015346611
0.0023755405
-0.0038663545
0.0053965364
-0.0010952086
-0.013355393
-0.0055667303
-0.00031316454
0.0044488839
0.0085177264
0.010535712
0.0039496577
-0.00095268372
0.00064929415
-0.0076565518
-0.012685277
-0.0053408082
-4.8010747e-06
0.0050313079
0.0098314848
0.013545823
0.0057072872
-0.0011714242
0.0010223077
-0.0068888051
-0.012321405
-0.0049928773
0.00045887874
0.0057198233
0.010968661
0.015767686
0.0091477019
0.00012098048
0.0010960381
-0.006622564
-0.011973077
-0.0045645146
0.00099092337
0.0063991705
0.011834652
0.016852254
0.010273911
0.00047074665
0.0011729224
-0.0063149522
-0.011545112
-0.0040673418
0.0015400893
0.0070087389
0.012507286
0.017547742
0.010845247
0.0006218046
0.0013016137
-0.0058505208
-0.010977353
-0.003483304
0.0020975192
0.0075311105
0.012989626
0.017964723
0.011137917
0.00069208045
0.001561205
-0.0050440128
-0.010177249
-0.0027784262
0.0026720293
0.0079727118
0.013303807
0.018149598
0.011206179
0.00069780163
0.0021774527
-0.0033995865
-0.0089741856
-0.0019446789
0.0032524931
0.0083276315
0.013448819
0.018076426
0.010954627
0.00059209427
0.0035679462
0.00018796141
-0.006870818
-0.00099837
0.0037844982
0.0085745681
0.013415509
0.017621667
0.0097481136
2.8930576e-05
0.0033492057
0.0017984577
-0.0044075618
-0.00024713382
0.0041164989
0.0086885636
0.01326553
0.01661836
0.0028199931
-0.0040266527
0.0054414356
-0.0013766192
-0.013823082
-0.005651559
-0.00010426936
0.0049304765
0.0092442112
0.011415272
0.0045114426
-0.00088474327
0.00057630186
-0.0080905859
-0.013121228
-0.0054116795
0.00021975356
0.0055397881
0.010618434
0.014574928
0.0063822699
-0.0010991786
0.00096545778
-0.007285008
-0.012733836
-0.0050434994
0.0007070145
0.006260839
0.01180695
0.016896095
0.0099680439
0.00024528825
0.0010442048
-0.0070013395
-0.012364708
-0.0045920832
0.0012656414
0.0069726566
0.012713195
0.018030758
0.011145608
0.00061070145
0.0011253775
-0.0066769484
-0.011914239
-0.0040697329
0.0018417591
0.0076114216
0.0134174
0.018758455
0.01174314
0.00076862007
0.0012602201
-0.0061900556
-0.01131882
-0.0034573386
0.0024261445
0.0081589955
0.01392297
0.019195504
0.012049882
0.00084226755
0.0015315853
-0.0053465858
-0.010481371
-0.0027191503
0.003028098
0.0086221558
0.014253133
0.019390663
0.012122965
0.00084874682
0.0021763688
-0.0036273172
-0.0092240594
-0.0018468884
0.0036359189
0.0089947287
0.014406985
0.019317322
0.011863673
0.0007394839
0.0036380223
0.00013423676
-0.007025541
-0.00085679009
0.0041928438
0.0092543641
0.014374951
0.018846754
0.010607612
0.00015222296
0.003423587
0.001829284
-0.0044607209
-7.1792366e-05
0.0045401929
0.0093745542
0.014220775
0.017801968
0.0032818448
-0.0041443607
0.0054438295
-0.001660096
-0.014199849
-0.0056953882
0.00011235797
0.0053894342
0.0099220086
0.012234157
0.005063045
-0.00080319971
0.00049424067
-0.0084800033
-0.013470394
-0.0054429718
0.00044996708
0.0060216074
0.011347514
0.015522299
0.0070371227
-0.0010102401
0.00089722459
-0.0076413203
-0.013061709
-0.0050567839
0.000957697
0.0067704688
0.01257946
0.017927175
0.010744345
0.00037739403
0.00098054399
-0.0073418635
-0.012674003
-0.0045851266
0.001539343
0.0075101454
0.013520023
0.01910442
0.011965439
0.0007560295
0.0010655022
-0.007002716
-0.012203864
-0.0040409053
0.0021387474
0.0081740256
0.01425128
0.019859632
0.012585295
0.00091978402
0.0012056167
-0.0064965245
-0.011584627
-0.0034040762
0.0027463839
0.0087433751
0.014776961
0.020314093
0.012904275
0.00099636768
0.0014869509
-0.0056216814
-0.010715326
-0.0026373486
0.0033719771
0.009225286
0.015121264
0.020518651
0.012982073
0.0010036718
0.0021559537
-0.0038390727
-0.0094121175
-0.0017322571
0.0040033218
0.0096133593
0.015283415
0.020446296
0.012717514
0.00089182575
0.0036790459
7.133674e-05
-0.0071332051
-0.00070489168
0.0045816502
0.0098843055
0.015253467
0.019964096
0.011421937
0.00028504811
0.0034720055
0.0018422274
-0.0044838007
0.00010869329
0.0049421575
0.010010137
0.015096654
0.01888616
0.0037520502
-0.0042214322
0.0054059453
-0.0019405157
-0.014483697
-0.0056989865
0.00033368177
0.0058206798
0.010544234
0.012984129
0.005596848
-0.00071021485
0.00040517121
-0.0088201394
-0.013731061
-0.0054355723
0.00068271191
0.0064715675
0.012011588
0.016379017
0.0076631062
-0.00090718122
0.00081952941
-0.0079534193
-0.013303529
-0.0050337713
0.0012076619
0.0072433613
0.013278848
0.018851634
0.011467325
0.00051452965
0.00090692847
-0.0076399716
-0.012899631
-0.0045448392
0.0018086132
0.0080061233
0.014247609
0.020063736
0.012723915
0.00090389974
0.00099513888
-0.0072882041
-0.012412796
-0.0039822024
0.0024274893
0.0086908832
0.015001237
0.020841612
0.0133621
0.0010724336
0.0011396152
-0.0067659915
-0.01177373
-0.0033250118
0.0030545246
0.0092784386
0.015543776
0.021310705
0.013691389
0.0011514949
0.001429064
-0.0058655226
-0.01087824
-0.0025346805
0.0036998046
0.009776155
0.015900246
0.021523662
0.01377371
0.0011596679
0.002117851
-0.0040313774
-0.0095377085
-0.0016026225
0.0043506915
0.010177447
0.016070036
0.021453331
0.013506253
0.0010461807
0.0036923228
1.9824796e-06
-0.0071935215
-0.00054470285
0.0049467731
0.010458205
0.016042872
0.02096355
0.012181104
0.00042445168
0.0034953564
0.0018390992
-0.0044769
0.00029215309
0.0053181659
0.010589056
0.0158849
0.019860726
0.0042217881
-0.0042600302
0.0053302416
-0.0022127817
-0.014673097
-0.0056631414
0.00055694944
0.0062196697
0.011104727
0.013657743
0.0061056132
-0.00060795681
0.00031117601
-0.0091066425
-0.013901947
-0.0053903745
0.00091515875
0.0068850325
0.012604307
0.017137105
0.0082519528
-0.00079258994
0.00073433436
-0.0082172547
-0.013458212
-0.0049754915
0.0014539652
0.0076747599
0.013898611
0.019661232
0.01212834
0.00065397324
0.00082527597
-0.0078917575
-0.013040654
-0.0044723837
0.0020703817
0.0084557023
0.014889306
0.020900306
0.013412236
0.0010515443
0.00091617893
-0.0075296048
-0.012540221
-0.0038949131
0.0027047891
0.0091569794
0.015660499
0.021695868
0.014064659
0.001223776
0.0010640822
-0.0069947418
-0.011885431
-0.0032215597
0.0033472471
0.009759049
0.016216519
0.022176704
0.014402248
0.0013048362
0.0013597541
-0.0060745146
-0.010969552
-0.0024126936
0.0040081359
0.010269507
0.01658307
0.022396949
0.01448881
0.0013138986
0.0020638023
-0.0042008575
-0.0096004327
-0.0014596723
0.0046744598
0.01068162
0.016759719
0.022329551
0.014220704
0.0011996753
0.0036793285
-7.1026212e-05
-0.0072063507
-0.00037805732
0.0052845335
0.010970587
0.016735917
0.021836091
0.012875774
0.00056751453
0.0034946954
0.0018218689
-0.0044401494
0.00047664681
0.0056644714
0.011105771
0.016578176
0.020716515
0.0046825021
-0.0042625059
0.0052193687
-0.0024719146
-0.01476705
-0.0055887293
0.00077962437
0.0065823382
0.011598015
0.01424833
0.0065825015
-0.00049858722
0.00021432864
-0.0093355494
-0.013982264
-0.0053083483
0.0011447099
0.0072578724
0.013120078
0.017789515
0.0087958949
-0.00066905211
0.00064361218
-0.0084291231
-0.013525147
-0.0048830315
0.0016939176
0.0080604474
0.014433056
0.020348765
0.012719413
0.00079306656
0.00073751937
-0.0080936458
-0.01309659
-0.0043689587
0.0023218588
0.0088545663
0.015439319
0.021606818
0.014022326
0.0011962756
0.00083053285
-0.0077234252
-0.012585757
-0.0037803381
0.0029677579
0.0095678993
0.016223169
0.022414996
0.014684822
0.0013711059
0.00098090971
-0.0071793525
-0.011919441
-0.0030951185
0.0036215644
0.010180693
0.016789198
0.022904595
0.015028634
0.001453669
0.001280889
-0.006245316
-0.010989063
-0.0022728862
0.0042938849
0.010700728
0.01716364
0.023130914
0.015119073
0.001463618
0.0019956185
-0.0043443117
-0.0096002002
-0.0013050055
0.0049714434
0.011121164
0.017346253
0.023067226
0.014852431
0.0013495215
0.003641679
-0.00014488101
-0.0071717606
-0.0002066551
0.0055916615
0.011416646
0.01732627
0.022573811
0.013497292
0.0007113736
0.0034712141
0.0017925997
-0.0043737689
0.00066040396
0.0059777516
0.011555414
0.017170049
0.021445445
0.0051259465
-0.0042313753
0.0050761315
-0.0027131299
-0.014765136
-0.0054767672
0.00099933743
0.0069050568
0.012019286
0.014749994
0.0070210985
-0.00038424687
0.00011666612
-0.0095033481
-0.013971765
-0.0051905903
0.001368951
0.0075864235
0.013554031
0.018330128
0.0092876977
-0.00053913264
0.00054931931
-0.0085857282
-0.01350424
-0.0047575854
0.0019250372
0.0083967066
0.014877269
0.020908066
0.013233264
0.00092923322
0.00064558008
-0.0082424515
-0.013067453
-0.0042358472
0.0025604887
0.0091989327
0.015892675
0.022177047
0.014546858
0.0013355051
0.00074010394
-0.0078665463
-0.012549497
-0.003639837
0.0032137673
0.0099197905
0.016684208
0.022992712
0.015215221
0.0015118241
0.00089198915
-0.0073167518
-0.011875916
-0.0029471171
0.003874777
0.010539446
0.0172567
0.023488022
0.015563125
0.0015953802
0.0011943484
-0.0063748965
-0.010936988
-0.0021167531
0.0045542807
0.011065815
0.017636752
0.023719109
0.015656991
0.0016061899
0.0019151525
-0.0044587693
-0.0095372719
-0.0011401779
0.0052388019
0.01149199
0.017824326
0.023659768
0.01539378
0.0014930355
0.0035811045
-0.00021682414
-0.0070900679
-3.2107115e-05
0.0058652557
0.011792212
0.017808498
0.023169927
0.01403773
0.00085324325
0.0034262187
0.001753396
-0.0042781113
0.00084177919
0.0062550684
0.011933761
0.017654981
0.022040507
0.0055442354
-0.0041692941
0.0049034537
-0.002931905
-0.014667546
-0.0053284494
0.0012138511
0.0071846054
0.012364372
0.01515761
0.0074154422
-0.0002670408
2.0164079e-05
-0.0096070281
-0.013870776
-0.0050383603
0.0015856158
0.0078674589
0.013902005
0.018753747
0.0097206926
-0.00040535616
0.00045337156
-0.0086842297
-0.013395946
-0.0046004903
0.0021450139
0.0086802909
0.015227098
0.021333996
0.013663339
0.0010599968
0.00055134395
-0.0083354284
-0.012953786
-0.0040744514
0.0027839151
0.0094855224
0.016245203
0.022605852
0.014979287
0.0014667606
0.0006467643
-0.0079562706
-0.012432038
-0.0034748636
0.0034404159
0.010209335
0.017039412
0.023423847
0.015649293
0.001643455
0.00079918712
-0.0074042656
-0.011755487
-0.0027790494
0.0041044397
0.010831941
0.017614769
0.023921768
0.015999118
0.001727484
0.001102
-0.0064605851
-0.010813974
-0.0019458196
0.004786835
0.011361344
0.01799808
0.024156229
0.016095886
0.0017391059
0.0018242754
-0.0045415398
-0.0094122881
-0.00096673544
0.0054740055
0.01179061
0.018189513
0.024101738
0.015837916
0.0016276578
0.0034994244
-0.00028419934
-0.0069618688
0.00014403114
0.0061027509
0.012093727
0.018178051
0.023618782
0.014489925
0.00099043627
0.003361109
0.001706357
-0.0041536937
0.0010192184
0.0064938361
0.012237203
0.018028311
0.022495777
0.0059298912
-0.0040790315
0.0047043438
-0.0031240387
-0.014475103
-0.0051451755
0.0014210314
0.0074181479
0.012629734
0.015466829
0.0077600494
-0.00014902351
-7.3285762e-05
-0.0096441217
-0.013680216
-0.0048531089
0.0017925578
0.0080981638
0.014160529
0.019056099
0.010088808
-0.00027018807
0.00035762184
-0.0087222842
-0.01320129
-0.0044132529
0.002351682
0.0089083995
0.015479138
0.021622442
0.01400384
0.0011829984
0.00045663923
-0.0083703087
-0.012756677
-0.0038863197
0.002989953
0.0097115361
0.016493521
0.022889167
0.015313874
0.0015877038
0.00055233291
-0.0079903617
-0.012234501
-0.0032869912
0.003645502
0.010433723
0.017285397
0.023704342
0.015981311
0.0017636641
0.00070432348
-0.0074396582
-0.011559282
-0.0025924997
0.0043083349
0.011055349
0.017859995
0.024201744
0.016330861
0.0018476392
0.0010056769
-0.0065001101
-0.010621129
-0.0017616672
0.0049893149
0.01158445
0.018244157
0.024438115
0.016429933
0.0018600031
0.0017248535
-0.0045902542
-0.0092262892
-0.00078624028
0.0056748085
0.012014109
0.018438255
0.024388836
0.016178852
0.0017509704
0.0033985238
-0.00034449681
-0.0067880611
0.00032023279
0.0063018923
0.012318222
0.018431249
0.023915846
0.014847513
0.0011203838
0.0032773592
0.001653536
-0.0040012233
0.0011912314
0.0066917954
0.012462731
0.018286246
0.022806417
0.0062758911
-0.0039634445
0.0044818629
-0.0032857039
-0.014189277
-0.0049285726
0.0016188238
0.0076032099
0.012812443
0.015674068
0.0080499397
-3.218471e-05
-0.00016189621
-0.0096127387
-0.013401608
-0.0046364992
0.0019877259
0.0082761128
0.014326806
0.019233827
0.010386598
-0.00013601652
0.00026383974
-0.0086980786
-0.012921874
-0.0041975714
0.0025429953
0.0090786539
0.015630706
0.021770307
0.014249744
0.0012960128
0.00036321631
-0.0083453362
-0.012477774
-0.0036731676
0.0031765646
0.0098746297
0.016635012
0.023023992
0.015545709
0.0016961459
0.00045855532
-0.0079670774
-0.011958543
-0.0030779348
0.0038269983
0.010590633
0.017419578
0.023831239
0.016206405
0.0018702737
0.00060915106
-0.0074211646
-0.011288935
-0.0023891647
0.0044844474
0.01120735
0.017989789
0.024324984
0.016553473
0.0019536647
0.00090715727
-0.0064916334
-0.010360026
-0.0015659556
0.0051597189
0.011732802
0.018372356
0.024561736
0.016654184
0.0019666803
0.0016187266
-0.0046029013
-0.0089807294
-0.00060029344
0.0058392251
0.012160129
0.018567848
0.024517898
0.016411471
0.0018607144
0.0032803303
-0.00039539359
-0.0065698612
0.00049497634
0.0064607106
0.012463298
0.01856527
0.024057711
0.015104958
0.0012406541
0.0031764984