/*--------------------------------*- C++ -*----------------------------------*\
| =========                 |                                                 |
| \\      /  F ield         | OpenFOAM: The Open Source CFD Toolbox           |
|  \\    /   O peration     | Version:  v2106                                 |
|   \\  /    A nd           | Website:  www.openfoam.com                      |
|    \\/     M anipulation  |                                                 |
\*---------------------------------------------------------------------------*/
FoamFile
{
    version     2.0;
    format      ascii;
    arch        "LSB;label=32;scalar=64";
    class       volScalarField;
    location    "50";
    object      gradTz;
}
// * * * * * * * * * * * * * * * * * * * * * * * * * * * * * * * * * * * * * //

dimensions      [0 -1 0 1 0 0 0];

internalField   nonuniform List<scalar> 
4000
(
554.3773
554.38056
554.37844
554.37762
554.3772
554.37709
554.37724
554.37753
554.37778
554.3777
554.38056
554.3813
554.37943
554.37862
554.37821
554.37813
554.37833
554.37874
554.37917
554.37905
554.37844
554.37943
554.37758
554.37679
554.37641
554.37637
554.37663
554.37714
554.37778
554.37801
554.37762
554.37862
554.37679
554.37603
554.37567
554.37567
554.37598
554.37656
554.37728
554.37758
554.3772
554.37821
554.37641
554.37567
554.37535
554.37539
554.37575
554.37637
554.37714
554.37747
554.37709
554.37813
554.37637
554.37567
554.37539
554.37546
554.37585
554.37651
554.37731
554.37765
554.37724
554.37833
554.37663
554.37598
554.37575
554.37585
554.37627
554.37695
554.37775
554.3781
554.37753
554.37874
554.37714
554.37656
554.37637
554.37651
554.37695
554.37764
554.37843
554.37877
554.37778
554.37917
554.37778
554.37728
554.37714
554.37731
554.37775
554.37843
554.37919
554.37949
554.3777
554.37905
554.37801
554.37758
554.37747
554.37765
554.3781
554.37877
554.37949
554.37966
819.45813
819.46097
819.45865
819.45752
819.45694
819.45683
819.4571
819.4576
819.45801
819.45745
819.46097
819.46166
819.45948
819.45836
819.45781
819.45773
819.45808
819.45878
819.45954
819.45891
819.45865
819.45948
819.45733
819.45624
819.45572
819.4557
819.45613
819.45698
819.45805
819.45788
819.45752
819.45836
819.45624
819.45519
819.45471
819.45475
819.45526
819.4562
819.45739
819.45733
819.45694
819.45781
819.45572
819.45471
819.45429
819.45438
819.45496
819.45597
819.45723
819.45722
819.45683
819.45773
819.4557
819.45475
819.45438
819.45453
819.45515
819.45622
819.45752
819.45753
819.4571
819.45808
819.45613
819.45526
819.45496
819.45515
819.45582
819.45691
819.45823
819.45824
819.4576
819.45878
819.45698
819.4562
819.45597
819.45622
819.45691
819.458
819.45931
819.45929
819.45801
819.45954
819.45805
819.45739
819.45723
819.45752
819.45823
819.45931
819.46055
819.4604
819.45745
819.45891
819.45788
819.45733
819.45722
819.45753
819.45824
819.45929
819.4604
819.45975
814.53069
814.53237
814.53051
814.52952
814.52904
814.529
814.52937
814.53002
814.53062
814.52986
814.53237
814.53262
814.53084
814.52986
814.5294
814.5294
814.52984
814.53068
814.53172
814.53093
814.53051
814.53084
814.52908
814.52813
814.5277
814.52776
814.52828
814.52927
814.53059
814.53021
814.52952
814.52986
814.52813
814.52722
814.52683
814.52694
814.52754
814.52862
814.53007
814.5298
814.52904
814.5294
814.5277
814.52683
814.5265
814.52666
814.52733
814.52848
814.52999
814.52976
814.529
814.5294
814.52776
814.52694
814.52666
814.52688
814.52759
814.52879
814.53034
814.53014
814.52937
814.52984
814.52828
814.52754
814.52733
814.52759
814.52834
814.52956
814.53113
814.53093
814.53002
814.53068
814.52927
814.52862
814.52848
814.52879
814.52956
814.53079
814.53234
814.5321
814.53062
814.53172
814.53059
814.53007
814.52999
814.53034
814.53113
814.53234
814.53381
814.53339
814.52986
814.53093
814.53021
814.5298
814.52976
814.53014
814.53093
814.5321
814.53339
814.53197
809.83473
809.83619
809.83451
809.83364
809.83325
809.8333
809.83376
809.83455
809.83537
809.83481
809.83619
809.83641
809.83481
809.83396
809.83359
809.83368
809.83421
809.83517
809.8364
809.83575
809.83451
809.83481
809.83323
809.83241
809.83207
809.83221
809.83282
809.83392
809.83544
809.83516
809.83364
809.83396
809.83241
809.83162
809.83133
809.83152
809.83221
809.8334
809.83503
809.83485
809.83325
809.83359
809.83207
809.83133
809.83109
809.83133
809.83208
809.83334
809.83504
809.8349
809.8333
809.83368
809.83221
809.83152
809.83133
809.83163
809.83243
809.83373
809.83546
809.83535
809.83376
809.83421
809.83282
809.83221
809.83208
809.83243
809.83325
809.83458
809.83633
809.83621
809.83455
809.83517
809.83392
809.8334
809.83334
809.83373
809.83458
809.83591
809.83764
809.83749
809.83537
809.8364
809.83544
809.83503
809.83504
809.83546
809.83633
809.83764
809.83929
809.83895
809.83481
809.83575
809.83516
809.83485
809.8349
809.83535
809.83621
809.83749
809.83895
809.83737
805.36113
805.36245
805.36088
805.36011
805.35981
805.35994
805.36048
805.36135
805.36229
805.36187
805.36245
805.36264
805.36115
805.3604
805.36012
805.36028
805.36089
805.36193
805.36326
805.36275
805.36088
805.36115
805.35969
805.35897
805.35872
805.35894
805.35962
805.3608
805.3624
805.36222
805.36011
805.3604
805.35897
805.35828
805.35807
805.35834
805.3591
805.36036
805.36208
805.362
805.35981
805.36012
805.35872
805.35807
805.35792
805.35824
805.35905
805.36038
805.36216
805.36212
805.35994
805.36028
805.35894
805.35834
805.35824
805.35861
805.35947
805.36084
805.36265
805.36263
805.36048
805.36089
805.35962
805.3591
805.35905
805.35947
805.36036
805.36175
805.36357
805.36355
805.36135
805.36193
805.3608
805.36036
805.36038
805.36084
805.36175
805.36315
805.36495
805.3649
805.36229
805.36326
805.3624
805.36208
805.36216
805.36265
805.36357
805.36495
805.36668
805.36645
805.36187
805.36275
805.36222
805.362
805.36212
805.36263
805.36355
805.3649
805.36645
805.36492
801.0989
801.10009
801.09861
801.09792
801.0977
801.09789
801.09849
801.09942
801.10042
801.10011
801.10009
801.10023
801.09883
801.09816
801.09795
801.09818
801.09885
801.09995
801.10133
801.10093
801.09861
801.09883
801.09747
801.09683
801.09665
801.09693
801.09767
801.09889
801.10054
801.10046
801.09792
801.09816
801.09683
801.09622
801.09608
801.09641
801.09722
801.09853
801.10028
801.10029
801.0977
801.09795
801.09665
801.09608
801.096
801.09638
801.09724
801.09861
801.10042
801.10047
801.09789
801.09818
801.09693
801.09641
801.09638
801.0968
801.09771
801.09912
801.10096
801.10103
801.09849
801.09885
801.09767
801.09722
801.09724
801.09771
801.09865
801.10008
801.10193
801.102
801.09942
801.09995
801.09889
801.09853
801.09861
801.09912
801.10008
801.10151
801.10334
801.10338
801.10042
801.10133
801.10054
801.10028
801.10042
801.10096
801.10193
801.10334
801.1051
801.10497
801.10011
801.10093
801.10046
801.10029
801.10047
801.10103
801.102
801.10338
801.10497
801.10358
797.0367
797.03775
797.03637
797.03575
797.03558
797.03583
797.03647
797.03744
797.03848
797.03826
797.03775
797.03783
797.03653
797.03593
797.03578
797.03606
797.03677
797.03789
797.0393
797.039
797.03637
797.03653
797.03526
797.03469
797.03457
797.0349
797.03567
797.03692
797.03857
797.03858
797.03575
797.03593
797.03469
797.03414
797.03407
797.03444
797.03529
797.03661
797.03837
797.03846
797.03558
797.03578
797.03457
797.03407
797.03404
797.03446
797.03535
797.03674
797.03855
797.03868
797.03583
797.03606
797.0349
797.03444
797.03446
797.03493
797.03587
797.03729
797.03913
797.03928
797.03647
797.03677
797.03567
797.03529
797.03535
797.03587
797.03683
797.03827
797.04012
797.04027
797.03744
797.03789
797.03692
797.03661
797.03674
797.03729
797.03827
797.03971
797.04154
797.04167
797.03848
797.0393
797.03857
797.03837
797.03855
797.03913
797.04012
797.04154
797.04331
797.04328
797.03826
797.039
797.03858
797.03846
797.03868
797.03928
797.04027
797.04167
797.04328
797.04202
793.1629
793.16381
793.16252
793.16196
793.16185
793.16214
793.16281
793.16379
793.16485
793.16472
793.16381
793.16384
793.16262
793.16209
793.16199
793.16231
793.16304
793.16417
793.16558
793.16538
793.16252
793.16262
793.16145
793.16093
793.16087
793.16123
793.16203
793.16327
793.16491
793.16501
793.16196
793.16209
793.16093
793.16046
793.16043
793.16084
793.16169
793.16301
793.16475
793.16492
793.16185
793.16199
793.16087
793.16043
793.16044
793.1609
793.1618
793.16318
793.16497
793.16518
793.16214
793.16231
793.16123
793.16084
793.1609
793.16139
793.16234
793.16375
793.16557
793.16579
793.16281
793.16304
793.16203
793.16169
793.1618
793.16234
793.16331
793.16474
793.16657
793.1668
793.16379
793.16417
793.16327
793.16301
793.16318
793.16375
793.16474
793.16618
793.16799
793.16818
793.16485
793.16558
793.16491
793.16475
793.16497
793.16557
793.16657
793.16799
793.16974
793.16979
793.16472
793.16538
793.16501
793.16492
793.16518
793.16579
793.1668
793.16818
793.16979
793.16868
789.46564
789.46641
789.46522
789.46472
789.46465
789.46496
789.46564
789.46663
789.4677
789.46764
789.46641
789.46638
789.46526
789.46478
789.46473
789.46507
789.46581
789.46694
789.46833
789.46823
789.46522
789.46526
789.46418
789.46372
789.4637
789.46408
789.46489
789.46611
789.46772
789.46789
789.46472
789.46478
789.46372
789.4633
789.46331
789.46374
789.4646
789.4659
789.4676
789.46784
789.46465
789.46473
789.4637
789.46331
789.46336
789.46384
789.46474
789.46609
789.46784
789.46811
789.46496
789.46507
789.46408
789.46374
789.46384
789.46435
789.46529
789.46668
789.46845
789.46874
789.46564
789.46581
789.46489
789.4646
789.46474
789.46529
789.46626
789.46766
789.46945
789.46973
789.46663
789.46694
789.46611
789.4659
789.46609
789.46668
789.46766
789.46907
789.47084
789.4711
789.4677
789.46833
789.46772
789.4676
789.46784
789.46845
789.46945
789.47084
789.47255
789.47268
789.46764
789.46823
789.46789
789.46784
789.46811
789.46874
789.46973
789.4711
789.47268
789.47172
785.93287
785.93349
785.9324
785.93196
785.93192
785.93226
785.93294
785.93392
785.93497
785.93498
785.93349
785.93341
785.93239
785.93197
785.93195
785.93231
785.93305
785.93415
785.93551
785.93549
785.9324
785.93239
785.9314
785.931
785.93101
785.93141
785.93221
785.93341
785.93496
785.93519
785.93196
785.93197
785.931
785.93064
785.93068
785.93112
785.93197
785.93323
785.93487
785.93517
785.93192
785.93195
785.93101
785.93068
785.93076
785.93124
785.93213
785.93344
785.93513
785.93546
785.93226
785.93231
785.93141
785.93112
785.93124
785.93176
785.93269
785.93403
785.93574
785.93608
785.93294
785.93305
785.93221
785.93197
785.93213
785.93269
785.93364
785.93499
785.93672
785.93705
785.93392
785.93415
785.93341
785.93323
785.93344
785.93403
785.93499
785.93636
785.93806
785.93838
785.93497
785.93551
785.93496
785.93487
785.93513
785.93574
785.93672
785.93806
785.93972
785.93992
785.93498
785.93549
785.93519
785.93517
785.93546
785.93608
785.93705
785.93838
785.93992
785.9391
782.5524
782.55288
782.55189
782.55151
782.55151
782.55185
782.55253
782.55348
782.5545
782.55458
782.55288
782.55275
782.55183
782.55146
782.55148
782.55185
782.55257
782.55364
782.55495
782.555
782.55189
782.55183
782.55094
782.5506
782.55064
782.55105
782.55182
782.55297
782.55446
782.55474
782.55151
782.55146
782.5506
782.55029
782.55036
782.5508
782.55162
782.55284
782.5544
782.55474
782.55151
782.55148
782.55064
782.55036
782.55046
782.55094
782.55181
782.55306
782.55467
782.55504
782.55185
782.55185
782.55105
782.5508
782.55094
782.55146
782.55235
782.55364
782.55527
782.55565
782.55253
782.55257
782.55182
782.55162
782.55181
782.55235
782.55327
782.55457
782.55622
782.5566
782.55348
782.55364
782.55297
782.55284
782.55306
782.55364
782.55457
782.55588
782.55751
782.55787
782.5545
782.55495
782.55446
782.5544
782.55467
782.55527
782.55622
782.55751
782.5591
782.55936
782.55458
782.555
782.55474
782.55474
782.55504
782.55565
782.5566
782.55787
782.55936
782.55867
779.31197
779.31231
779.31144
779.31111
779.31114
779.31149
779.31215
779.31306
779.31405
779.31418
779.31231
779.31214
779.31133
779.31102
779.31106
779.31144
779.31214
779.31315
779.3144
779.31453
779.31144
779.31133
779.31054
779.31026
779.31032
779.31073
779.31148
779.31257
779.31398
779.3143
779.31111
779.31102
779.31026
779.31
779.31009
779.31053
779.31132
779.31247
779.31395
779.31433
779.31114
779.31106
779.31032
779.31009
779.31022
779.31069
779.31152
779.31271
779.31423
779.31463
779.31149
779.31144
779.31073
779.31053
779.31069
779.3112
779.31205
779.31327
779.31481
779.31522
779.31215
779.31214
779.31148
779.31132
779.31152
779.31205
779.31293
779.31416
779.31571
779.31612
779.31306
779.31315
779.31257
779.31247
779.31271
779.31327
779.31416
779.31539
779.31693
779.31733
779.31405
779.3144
779.31398
779.31395
779.31423
779.31481
779.31571
779.31693
779.31843
779.31874
779.31418
779.31453
779.3143
779.31433
779.31463
779.31522
779.31612
779.31733
779.31874
779.31819
776.19933
776.19953
776.19878
776.19851
776.19856
776.19891
776.19954
776.20041
776.20135
776.20153
776.19953
776.19933
776.19862
776.19837
776.19844
776.19881
776.19948
776.20044
776.20161
776.2018
776.19878
776.19862
776.19795
776.19772
776.19781
776.19821
776.19891
776.19994
776.20126
776.20162
776.19851
776.19837
776.19772
776.19751
776.19763
776.19806
776.1988
776.19988
776.20125
776.20166
776.19856
776.19844
776.19781
776.19763
776.19777
776.19823
776.19901
776.20012
776.20153
776.20196
776.19891
776.19881
776.19821
776.19806
776.19823
776.19872
776.19952
776.20065
776.20209
776.20253
776.19954
776.19948
776.19891
776.1988
776.19901
776.19952
776.20035
776.20149
776.20293
776.20337
776.20041
776.20044
776.19994
776.19988
776.20012
776.20065
776.20149
776.20264
776.20408
776.20451
776.20135
776.20161
776.20126
776.20125
776.20153
776.20209
776.20293
776.20408
776.20548
776.20583
776.20153
776.2018
776.20162
776.20166
776.20196
776.20253
776.20337
776.20451
776.20583
776.20541
773.20225
773.20232
773.20168
773.20148
773.20156
773.2019
773.2025
773.20331
773.2042
773.20442
773.20232
773.20209
773.2015
773.2013
773.2014
773.20176
773.20239
773.20327
773.20436
773.2046
773.20168
773.2015
773.20093
773.20076
773.20087
773.20126
773.20192
773.20287
773.20408
773.20446
773.20148
773.2013
773.20076
773.2006
773.20074
773.20115
773.20185
773.20284
773.2041
773.20453
773.20156
773.2014
773.20087
773.20074
773.20089
773.20133
773.20206
773.20308
773.20437
773.20482
773.2019
773.20176
773.20126
773.20115
773.20133
773.2018
773.20255
773.20359
773.2049
773.20535
773.2025
773.20239
773.20192
773.20185
773.20206
773.20255
773.20331
773.20436
773.20568
773.20614
773.20331
773.20327
773.20287
773.20284
773.20308
773.20359
773.20436
773.20542
773.20673
773.20718
773.2042
773.20436
773.20408
773.2041
773.20437
773.2049
773.20568
773.20673
773.20802
773.20841
773.20442
773.2046
773.20446
773.20453
773.20482
773.20535
773.20614
773.20718
773.20841
773.20812
770.30861
770.30856
770.30805
770.3079
770.308
770.30834
770.30889
770.30964
770.31046
770.31072
770.30856
770.3083
770.30783
770.30769
770.30781
770.30816
770.30874
770.30955
770.31054
770.31083
770.30805
770.30783
770.30738
770.30726
770.30739
770.30776
770.30837
770.30923
770.31033
770.31073
770.3079
770.30769
770.30726
770.30716
770.30731
770.3077
770.30834
770.30924
770.31037
770.31081
770.308
770.30781
770.30739
770.30731
770.30748
770.30789
770.30856
770.30948
770.31064
770.3111
770.30834
770.30816
770.30776
770.3077
770.30789
770.30833
770.30901
770.30995
770.31113
770.31159
770.30889
770.30874
770.30837
770.30834
770.30856
770.30901
770.30971
770.31066
770.31184
770.31231
770.30964
770.30955
770.30923
770.30924
770.30948
770.30995
770.31066
770.31161
770.3128
770.31326
770.31046
770.31054
770.31033
770.31037
770.31064
770.31113
770.31184
770.3128
770.31396
770.31437
770.31072
770.31083
770.31073
770.31081
770.3111
770.31159
770.31231
770.31326
770.31437
770.3142
767.50646
767.50629
767.50591
767.50581
767.50594
767.50626
767.50677
767.50744
767.50819
767.50848
767.50629
767.50601
767.50566
767.50558
767.50571
767.50605
767.50658
767.5073
767.50819
767.50852
767.50591
767.50566
767.50533
767.50526
767.50541
767.50576
767.50632
767.50708
767.50805
767.50846
767.50581
767.50558
767.50526
767.50522
767.50538
767.50575
767.50632
767.50712
767.50812
767.50856
767.50594
767.50571
767.50541
767.50538
767.50556
767.50594
767.50654
767.50735
767.50838
767.50883
767.50626
767.50605
767.50576
767.50575
767.50594
767.50635
767.50696
767.50779
767.50882
767.50928
767.50677
767.50658
767.50632
767.50632
767.50654
767.50696
767.50758
767.50842
767.50946
767.50993
767.50744
767.5073
767.50708
767.50712
767.50735
767.50779
767.50842
767.50926
767.5103
767.51077
767.50819
767.50819
767.50805
767.50812
767.50838
767.50882
767.50946
767.5103
767.51133
767.51176
767.50848
767.50852
767.50846
767.50856
767.50883
767.50928
767.50993
767.51077
767.51176
767.5117
764.78404
764.78376
764.7835
764.78347
764.78362
764.78392
764.78438
764.78497
764.78564
764.78596
764.78376
764.78347
764.78324
764.78322
764.78337
764.78368
764.78415
764.78479
764.78557
764.78592
764.7835
764.78324
764.78303
764.78302
764.78318
764.78351
764.784
764.78466
764.78549
764.78591
764.78347
764.78322
764.78302
764.78302
764.7832
764.78354
764.78404
764.78473
764.78559
764.78603
764.78362
764.78337
764.78318
764.7832
764.78338
764.78374
764.78426
764.78496
764.78583
764.78628
764.78392
764.78368
764.78351
764.78354
764.78374
764.7841
764.78464
764.78535
764.78623
764.78668
764.78438
764.78415
764.784
764.78404
764.78426
764.78464
764.78518
764.7859
764.78679
764.78725
764.78497
764.78479
764.78466
764.78473
764.78496
764.78535
764.7859
764.78662
764.78752
764.78797
764.78564
764.78557
764.78549
764.78559
764.78583
764.78623
764.78679
764.78752
764.7884
764.78883
764.78596
764.78592
764.78591
764.78603
764.78628
764.78668
764.78725
764.78797
764.78883
764.78887
762.12986
762.12948
762.12936
762.12938
762.12954
762.12983
762.13023
762.13074
762.13132
762.13166
762.12948
762.12918
762.12908
762.12911
762.12928
762.12957
762.12998
762.13052
762.13117
762.13155
762.12936
762.12908
762.12899
762.12903
762.12921
762.1295
762.12993
762.13048
762.13117
762.13159
762.12938
762.12911
762.12903
762.12909
762.12927
762.12958
762.13001
762.13058
762.13129
762.13172
762.12954
762.12928
762.12921
762.12927
762.12946
762.12978
762.13022
762.1308
762.13152
762.13195
762.12983
762.12957
762.1295
762.12958
762.12978
762.13011
762.13056
762.13115
762.13187
762.13231
762.13023
762.12998
762.12993
762.13001
762.13022
762.13056
762.13102
762.13161
762.13234
762.13278
762.13074
762.13052
762.13048
762.13058
762.1308
762.13115
762.13161
762.13221
762.13294
762.13338
762.13132
762.13117
762.13117
762.13129
762.13152
762.13187
762.13234
762.13294
762.13368
762.1341
762.13166
762.13155
762.13159
762.13172
762.13195
762.13231
762.13278
762.13338
762.1341
762.13424
759.53274
759.53227
759.53228
759.53237
759.53254
759.5328
759.53314
759.53357
759.53405
759.5344
759.53227
759.53198
759.53199
759.53209
759.53226
759.53253
759.53287
759.53331
759.53384
759.53423
759.53228
759.53199
759.53203
759.53212
759.53231
759.53258
759.53293
759.53337
759.53391
759.53431
759.53237
759.53209
759.53212
759.53223
759.53242
759.53269
759.53305
759.5335
759.53405
759.53445
759.53254
759.53226
759.53231
759.53242
759.53261
759.53289
759.53325
759.53371
759.53426
759.53467
759.5328
759.53253
759.53258
759.53269
759.53289
759.53317
759.53354
759.534
759.53456
759.53497
759.53314
759.53287
759.53293
759.53305
759.53325
759.53354
759.53392
759.53438
759.53494
759.53535
759.53357
759.53331
759.53337
759.5335
759.53371
759.534
759.53438
759.53484
759.53541
759.53583
759.53405
759.53384
759.53391
759.53405
759.53426
759.53456
759.53494
759.53541
759.53599
759.5364
759.5344
759.53423
759.53431
759.53445
759.53467
759.53497
759.53535
759.53583
759.5364
759.53663
756.98186
756.9813
756.98145
756.98159
756.98178
756.98201
756.98229
756.98263
756.98301
756.98336
756.9813
756.98102
756.98116
756.98131
756.9815
756.98173
756.98201
756.98234
756.98274
756.98314
756.98145
756.98116
756.98131
756.98147
756.98166
756.98189
756.98217
756.98249
756.98288
756.98326
756.98159
756.98131
756.98147
756.98162
756.98181
756.98205
756.98233
756.98265
756.98304
756.98342
756.98178
756.9815
756.98166
756.98181
756.98201
756.98225
756.98252
756.98285
756.98324
756.98361
756.98201
756.98173
756.98189
756.98205
756.98225
756.98248
756.98276
756.98309
756.98348
756.98385
756.98229
756.98201
756.98217
756.98233
756.98252
756.98276
756.98304
756.98337
756.98376
756.98414
756.98263
756.98234
756.98249
756.98265
756.98285
756.98309
756.98337
756.9837
756.9841
756.98449
756.98301
756.98274
756.98288
756.98304
756.98324
756.98348
756.98376
756.9841
756.98451
756.98491
756.98336
756.98314
756.98326
756.98342
756.98361
756.98385
756.98414
756.98449
756.98491
756.98522
754.46679
754.46616
754.46644
754.46664
754.46684
754.46704
754.46726
754.46749
754.46777
754.46813
754.46616
754.46589
754.46615
754.46636
754.46656
754.46676
754.46696
754.46718
754.46744
754.46785
754.46644
754.46615
754.46642
754.46663
754.46683
754.46703
754.46723
754.46743
754.46766
754.46802
754.46664
754.46636
754.46663
754.46683
754.46703
754.46722
754.46742
754.46761
754.46784
754.46818
754.46684
754.46656
754.46683
754.46703
754.46722
754.46742
754.46761
754.4678
754.46801
754.46835
754.46704
754.46676
754.46703
754.46722
754.46742
754.4676
754.46779
754.46798
754.46819
754.46853
754.46726
754.46696
754.46723
754.46742
754.46761
754.46779
754.46798
754.46817
754.46838
754.46872
754.46749
754.46718
754.46743
754.46761
754.4678
754.46798
754.46817
754.46836
754.46858
754.46893
754.46777
754.46744
754.46766
754.46784
754.46801
754.46819
754.46838
754.46858
754.46882
754.4692
754.46813
754.46785
754.46802
754.46818
754.46835
754.46853
754.46872
754.46893
754.4692
754.46958
751.97754
751.97684
751.97725
751.97751
751.97772
751.97789
751.97804
751.97817
751.97835
751.97869
751.97684
751.97659
751.97698
751.97723
751.97744
751.97761
751.97774
751.97785
751.97797
751.97837
751.97725
751.97698
751.97736
751.97762
751.97782
751.97798
751.9781
751.97818
751.97826
751.97858
751.97751
751.97723
751.97762
751.97787
751.97807
751.97822
751.97833
751.97839
751.97845
751.97875
751.97772
751.97744
751.97782
751.97807
751.97826
751.97841
751.9785
751.97856
751.9786
751.9789
751.97789
751.97761
751.97798
751.97822
751.97841
751.97854
751.97864
751.97869
751.97872
751.97902
751.97804
751.97774
751.9781
751.97833
751.9785
751.97864
751.97872
751.97877
751.97881
751.97911
751.97817
751.97785
751.97818
751.97839
751.97856
751.97869
751.97877
751.97882
751.97887
751.97918
751.97835
751.97797
751.97826
751.97845
751.9786
751.97872
751.97881
751.97887
751.97894
751.97928
751.97869
751.97837
751.97858
751.97875
751.9789
751.97902
751.97911
751.97918
751.97928
751.97972
749.50459
749.50384
749.50438
749.50468
749.5049
749.50504
749.50512
749.50515
749.50522
749.50555
749.50384
749.50361
749.50411
749.50442
749.50463
749.50477
749.50482
749.50481
749.5048
749.50518
749.50438
749.50411
749.50462
749.50492
749.50512
749.50525
749.50528
749.50524
749.50515
749.50543
749.50468
749.50442
749.50492
749.50521
749.50541
749.50552
749.50554
749.50548
749.50536
749.50562
749.5049
749.50463
749.50512
749.50541
749.5056
749.5057
749.5057
749.50562
749.50549
749.50574
749.50504
749.50477
749.50525
749.50552
749.5057
749.50578
749.50578
749.50569
749.50555
749.50579
749.50512
749.50482
749.50528
749.50554
749.5057
749.50578
749.50577
749.50567
749.50553
749.50578
749.50515
749.50481
749.50524
749.50548
749.50562
749.50569
749.50567
749.50558
749.50545
749.50571
749.50522
749.5048
749.50515
749.50536
749.50549
749.50555
749.50553
749.50545
749.50534
749.50565
749.50555
749.50518
749.50543
749.50562
749.50574
749.50579
749.50578
749.50571
749.50565
749.50615
747.03894
747.03814
747.0388
747.03915
747.03938
747.03948
747.03949
747.03942
747.03937
747.03969
747.03814
747.03793
747.03855
747.0389
747.03912
747.03922
747.0392
747.03907
747.03891
747.03928
747.0388
747.03855
747.03916
747.03951
747.03972
747.0398
747.03975
747.03959
747.03933
747.03957
747.03915
747.0389
747.03951
747.03985
747.04004
747.04011
747.04004
747.03984
747.03955
747.03976
747.03938
747.03912
747.03972
747.04004
747.04022
747.04027
747.04019
747.03997
747.03966
747.03985
747.03948
747.03922
747.0398
747.04011
747.04027
747.0403
747.0402
747.03997
747.03966
747.03984
747.03949
747.0392
747.03975
747.04004
747.04019
747.0402
747.0401
747.03986
747.03954
747.03973
747.03942
747.03907
747.03959
747.03984
747.03997
747.03997
747.03986
747.03963
747.03931
747.03952
747.03937
747.03891
747.03933
747.03955
747.03966
747.03966
747.03954
747.03931
747.03903
747.03929
747.03969
747.03928
747.03957
747.03976
747.03985
747.03984
747.03973
747.03952
747.03929
747.03983
744.57209
744.57125
744.57203
744.57244
744.57266
744.57274
744.57267
744.57249
744.57233
744.57263
744.57125
744.57108
744.57181
744.57221
744.57243
744.57248
744.57239
744.57214
744.57184
744.57218
744.57203
744.57181
744.57253
744.57292
744.57312
744.57316
744.57303
744.57274
744.57232
744.57251
744.57244
744.57221
744.57292
744.57329
744.57349
744.5735
744.57335
744.57302
744.57256
744.57271
744.57266
744.57243
744.57312
744.57349
744.57366
744.57365
744.57348
744.57312
744.57264
744.57277
744.57274
744.57248
744.57316
744.5735
744.57365
744.57363
744.57344
744.57307
744.57257
744.5727
744.57267
744.57239
744.57303
744.57335
744.57348
744.57344
744.57323
744.57285
744.57235
744.57248
744.57249
744.57214
744.57274
744.57302
744.57312
744.57307
744.57285
744.57247
744.57198
744.57212
744.57233
744.57184
744.57232
744.57256
744.57264
744.57257
744.57235
744.57198
744.57153
744.57173
744.57263
744.57218
744.57251
744.57271
744.57277
744.5727
744.57248
744.57212
744.57173
744.57231
742.09615
742.09528
742.09617
742.09662
742.09684
742.09688
742.09673
742.09646
742.09618
742.09645
742.09528
742.09513
742.09597
742.09641
742.09663
742.09664
742.09647
742.09611
742.09567
742.09597
742.09617
742.09597
742.09679
742.09722
742.09742
742.09741
742.0972
742.09678
742.09621
742.09634
742.09662
742.09641
742.09722
742.09763
742.09781
742.09778
742.09754
742.09708
742.09645
742.09654
742.09684
742.09663
742.09742
742.09781
742.09798
742.09792
742.09765
742.09716
742.0965
742.09657
742.09688
742.09664
742.09741
742.09778
742.09792
742.09784
742.09755
742.09704
742.09637
742.09643
742.09673
742.09647
742.0972
742.09754
742.09765
742.09755
742.09724
742.09672
742.09605
742.09611
742.09646
742.09611
742.09678
742.09708
742.09716
742.09704
742.09672
742.0962
742.09554
742.09562
742.09618
742.09567
742.09621
742.09645
742.0965
742.09637
742.09605
742.09554
742.09491
742.09506
742.09645
742.09597
742.09634
742.09654
742.09657
742.09643
742.09611
742.09562
742.09506
742.09567
739.60376
739.60287
739.60386
739.60435
739.60458
739.60457
739.60435
739.60397
739.60358
739.60382
739.60287
739.60276
739.60369
739.60417
739.60439
739.60436
739.60411
739.60363
739.60305
739.60332
739.60386
739.60369
739.60461
739.60507
739.60527
739.60522
739.60492
739.60438
739.60365
739.60372
739.60435
739.60417
739.60507
739.60552
739.60569
739.60561
739.60528
739.60469
739.6039
739.60392
739.60458
739.60439
739.60527
739.60569
739.60584
739.60573
739.60537
739.60474
739.60392
739.60392
739.60457
739.60436
739.60522
739.60561
739.60573
739.6056
739.60521
739.60456
739.60372
739.60371
739.60435
739.60411
739.60492
739.60528
739.60537
739.60521
739.6048
739.60414
739.60329
739.60329
739.60397
739.60363
739.60438
739.60469
739.60474
739.60456
739.60414
739.60348
739.60265
739.60266
739.60358
739.60305
739.60365
739.6039
739.60392
739.60372
739.60329
739.60265
739.60185
739.60194
739.60382
739.60332
739.60372
739.60392
739.60392
739.60371
739.60329
739.60266
739.60194
739.60256
737.08819
737.08729
737.08838
737.08891
737.08913
737.08908
737.08879
737.0883
737.0878
737.088
737.08729
737.08722
737.08824
737.08875
737.08896
737.08889
737.08856
737.08797
737.08725
737.08748
737.08838
737.08824
737.08925
737.08974
737.08993
737.08983
737.08945
737.08879
737.0879
737.08791
737.08891
737.08875
737.08974
737.09021
737.09038
737.09024
737.08982
737.08911
737.08815
737.08811
737.08913
737.08896
737.08993
737.09038
737.09051
737.09035
737.08989
737.08913
737.08814
737.08808
737.08908
737.08889
737.08983
737.09024
737.09035
737.09015
737.08967
737.08889
737.08788
737.0878
737.08879
737.08856
737.08945
737.08982
737.08989
737.08967
737.08916
737.08837
737.08735
737.08727
737.0883
737.08797
737.08879
737.08911
737.08913
737.08889
737.08837
737.08757
737.08657
737.0865
737.0878
737.08725
737.0879
737.08815
737.08814
737.08788
737.08735
737.08657
737.0856
737.08563
737.088
737.08748
737.08791
737.08811
737.08808
737.0878
737.08727
737.0865
737.08563
737.08626
734.54332
734.54241
734.5436
734.54415
734.54437
734.54428
734.54391
734.54332
734.54271
734.54287
734.54241
734.54238
734.54349
734.54403
734.54423
734.54412
734.5437
734.543
734.54214
734.54233
734.5436
734.54349
734.54458
734.5451
734.54527
734.54512
734.54466
734.54388
734.54284
734.54279
734.54415
734.54403
734.5451
734.54559
734.54574
734.54556
734.54504
734.5442
734.54309
734.54298
734.54437
734.54423
734.54527
734.54574
734.54585
734.54564
734.54509
734.5442
734.54305
734.54291
734.54428
734.54412
734.54512
734.54556
734.54564
734.54538
734.5448
734.54389
734.54272
734.54257
734.54391
734.5437
734.54466
734.54504
734.54509
734.5448
734.5442
734.54327
734.54209
734.54194
734.54332
734.543
734.54388
734.5442
734.5442
734.54389
734.54327
734.54234
734.54117
734.54104
734.54271
734.54214
734.54284
734.54309
734.54305
734.54272
734.54209
734.54117
734.54004
734.54
734.54287
734.54233
734.54279
734.54298
734.54291
734.54257
734.54194
734.54104
734.54
734.54064
731.96365
731.96275
731.96401
731.96459
731.96479
731.96466
731.96421
731.96352
731.9628
731.96292
731.96275
731.96275
731.96394
731.9645
731.96469
731.96452
731.96403
731.96322
731.96223
731.96236
731.96401
731.96394
731.96509
731.96563
731.96579
731.96559
731.96504
731.96415
731.96296
731.96284
731.96459
731.9645
731.96563
731.96615
731.96628
731.96604
731.96544
731.96448
731.96321