/*--------------------------------*- C++ -*----------------------------------*\
| =========                 |                                                 |
| \\      /  F ield         | OpenFOAM: The Open Source CFD Toolbox           |
|  \\    /   O peration     | Version:  v2106                                 |
|   \\  /    A nd           | Website:  www.openfoam.com                      |
|    \\/     M anipulation  |                                                 |
\*---------------------------------------------------------------------------*/
FoamFile
{
    version     2.0;
    format      ascii;
    arch        "LSB;label=32;scalar=64";
    class       volScalarField;
    location    "50";
    object      laplacianT;
}
// * * * * * * * * * * * * * * * * * * * * * * * * * * * * * * * * * * * * * //

dimensions      [0 -2 0 1 0 0 0];

internalField   nonuniform List<scalar> 
4000
(
40140.797
40140.377
40140.611
40140.507
40140.476
40140.468
40140.478
40140.498
40140.513
40140.502
40140.377
40140.436
40140.489
40140.398
40140.367
40140.361
40140.374
40140.399
40140.415
40140.395
40140.611
40140.489
40140.567
40140.479
40140.45
40140.447
40140.465
40140.498
40140.526
40140.486
40140.507
40140.398
40140.479
40140.392
40140.366
40140.365
40140.387
40140.426
40140.464
40140.438
40140.476
40140.367
40140.45
40140.366
40140.342
40140.344
40140.369
40140.411
40140.452
40140.428
40140.468
40140.361
40140.447
40140.365
40140.344
40140.349
40140.377
40140.421
40140.464
40140.441
40140.478
40140.374
40140.465
40140.387
40140.369
40140.377
40140.406
40140.452
40140.495
40140.472
40140.498
40140.399
40140.498
40140.426
40140.411
40140.421
40140.452
40140.498
40140.54
40140.517
40140.513
40140.415
40140.526
40140.464
40140.452
40140.464
40140.495
40140.54
40140.581
40140.553
40140.502
40140.395
40140.486
40140.438
40140.428
40140.441
40140.472
40140.517
40140.553
40140.519
-503.43666
-505.45974
-504.25872
-504.37296
-504.37635
-504.37617
-504.37719
-504.38085
-504.39434
-504.38736
-505.45974
-505.72268
-505.04999
-505.13755
-505.13964
-505.14016
-505.14511
-505.16779
-505.25775
-505.05851
-504.25872
-505.04999
-504.33111
-504.41442
-504.41612
-504.41597
-504.41825
-504.43594
-504.55534
-504.58594
-504.37296
-505.13755
-504.41442
-504.49732
-504.49914
-504.49926
-504.5015
-504.51539
-504.61829
-504.61596
-504.37635
-505.13964
-504.41612
-504.49914
-504.50107
-504.50139
-504.50418
-504.51937
-504.62385
-504.62035
-504.37617
-505.14016
-504.41597
-504.49926
-504.50139
-504.50176
-504.50463
-504.51996
-504.62483
-504.62165
-504.37719
-505.14511
-504.41825
-504.5015
-504.50418
-504.50463
-504.50757
-504.52299
-504.62803
-504.6252
-504.38085
-505.16779
-504.43594
-504.51539
-504.51937
-504.51996
-504.52299
-504.53859
-504.64415
-504.64248
-504.39434
-505.25775
-504.55534
-504.61829
-504.62385
-504.62483
-504.62803
-504.64415
-504.75155
-504.75326
-504.38736
-505.05851
-504.58594
-504.61596
-504.62035
-504.62165
-504.6252
-504.64248
-504.75326
-504.73227
-479.54942
-482.1197
-480.48786
-480.64123
-480.64761
-480.64817
-480.65234
-480.67037
-480.74162
-480.4186
-482.1197
-482.38168
-481.4456
-481.56559
-481.56993
-481.57093
-481.58003
-481.63472
-481.92553
-481.37138
-480.48786
-481.4456
-480.45386
-480.56813
-480.57193
-480.57191
-480.57565
-480.61451
-480.94013
-480.73691
-480.64123
-481.56559
-480.56813
-480.68179
-480.68573
-480.68622
-480.69032
-480.72346
-481.02361
-480.77395
-480.64761
-481.56993
-480.57193
-480.68573
-480.6898
-480.69054
-480.69547
-480.73044
-481.03248
-480.78006
-480.64817
-481.57093
-480.57191
-480.68622
-480.69054
-480.69134
-480.69636
-480.73159
-481.03426
-480.78218
-480.65234
-481.58003
-480.57565
-480.69032
-480.69547
-480.69636
-480.70151
-480.73693
-481.04009
-480.789
-480.67037
-481.63472
-480.61451
-480.72346
-480.73044
-480.73159
-480.73693
-480.77295
-481.07796
-480.83163
-480.74162
-481.92553
-480.94013
-481.02361
-481.03248
-481.03426
-481.04009
-481.07796
-481.38985
-481.16164
-480.4186
-481.37138
-480.73691
-480.77395
-480.78006
-480.78218
-480.789
-480.83163
-481.16164
-480.60981
-456.47163
-459.62993
-457.59261
-457.78183
-457.79101
-457.79206
-457.79889
-457.83552
-458.02237
-457.50838
-459.62993
-459.97015
-458.78118
-458.93106
-458.93756
-458.93877
-458.95002
-459.0314
-459.56203
-458.70442
-457.59261
-458.78118
-457.5278
-457.6706
-457.67645
-457.67652
-457.68077
-457.73766
-458.31434
-457.92383
-457.78183
-458.93106
-457.6706
-457.81259
-457.8186
-457.81937
-457.82429
-457.87335
-458.41614
-457.96765
-457.79101
-458.93756
-457.67645
-457.8186
-457.82475
-457.82581
-457.83184
-457.8832
-458.42805
-457.97542
-457.79206
-458.93877
-457.67652
-457.81937
-457.82581
-457.82694
-457.83309
-457.88479
-458.43049
-457.97818
-457.79889
-458.95002
-457.68077
-457.82429
-457.83184
-457.83309
-457.83939
-457.89138
-458.4379
-457.98749
-457.83552
-459.0314
-457.73766
-457.87335
-457.8832
-457.88479
-457.89138
-457.94444
-458.49488
-458.05667
-458.02237
-459.56203
-458.31434
-458.41614
-458.42805
-458.43049
-458.4379
-458.49488
-459.0629
-458.69356
-457.50838
-458.70442
-457.92383
-457.96765
-457.97542
-457.97818
-457.98749
-458.05667
-458.69356
-457.52892
-434.49773
-438.21241
-435.78823
-436.01159
-436.02348
-436.02492
-436.03337
-436.08374
-436.37958
-435.69476
-438.21241
-438.6248
-437.1942
-437.37258
-437.38123
-437.38278
-437.39587
-437.49957
-438.26328
-437.11715
-435.78823
-437.1942
-435.69087
-435.86086
-435.86873
-435.86898
-435.87346
-435.94431
-436.76687
-436.19844
-436.01159
-437.37258
-435.86086
-436.02986
-436.03791
-436.03902
-436.04449
-436.1053
-436.88604
-436.24878
-436.02348
-437.38123
-435.86873
-436.03791
-436.04609
-436.04755
-436.0544
-436.11793
-436.90088
-436.25819
-436.02492
-437.38278
-435.86898
-436.03902
-436.04755
-436.04908
-436.05607
-436.12002
-436.90399
-436.26157
-436.03337
-437.39587
-435.87346
-436.04449
-436.0544
-436.05607
-436.06323
-436.12751
-436.9125
-436.27258
-436.08374
-437.49957
-435.94431
-436.1053
-436.11793
-436.12002
-436.12751
-436.19314
-436.9836
-436.36316
-436.37958
-438.26328
-436.76687
-436.88604
-436.90088
-436.90399
-436.9125
-436.9836
-437.80209
-437.31832
-435.69476
-437.11715
-436.19844
-436.24878
-436.25819
-436.26157
-436.27258
-436.36316
-437.31832
-435.54535
-413.66847
-417.89717
-415.10798
-415.36387
-415.3784
-415.38034
-415.39056
-415.45387
-415.85439
-415.01107
-417.89717
-418.36921
-416.7108
-416.91635
-416.92707
-416.92905
-416.94412
-417.06897
-418.05817
-416.64348
-415.10798
-416.7108
-414.97177
-415.1677
-415.17752
-415.17803
-415.18293
-415.26668
-416.3273
-415.59498
-415.36387
-416.91635
-415.1677
-415.36245
-415.37247
-415.374
-415.38018
-415.45172
-416.46304
-415.65153
-415.3784
-416.92707
-415.17752
-415.37247
-415.38264
-415.38456
-415.39239
-415.46705
-416.4807
-415.66255
-415.38034
-416.92905
-415.17803
-415.374
-415.38456
-415.38654
-415.39455
-415.4697
-416.48454
-415.66661
-415.39056
-416.94412
-415.18293
-415.38018
-415.39239
-415.39455
-415.40274
-415.47826
-416.49428
-415.67931
-415.45387
-417.06897
-415.26668
-415.45172
-415.46705
-415.4697
-415.47826
-415.55535
-416.57809
-415.78886
-415.85439
-418.05817
-416.3273
-416.46304
-416.4807
-416.48454
-416.49428
-416.57809
-417.63789
-417.0566
-415.01107
-416.64348
-415.59498
-415.65153
-415.66255
-415.66661
-415.67931
-415.78886
-417.0566
-414.69989
-394.01521
-398.71352
-395.58333
-395.86999
-395.88706
-395.8895
-395.90146
-395.97722
-396.47845
-395.48911
-398.71352
-399.23314
-397.36211
-397.59336
-397.6061
-397.60849
-397.62547
-397.7704
-398.97602
-397.31457
-395.58333
-397.36211
-395.40308
-395.62354
-395.63525
-395.63602
-395.64134
-395.73718
-397.02605
-396.14532
-395.86999
-397.59336
-395.62354
-395.84265
-395.85458
-395.85652
-395.86343
-395.94496
-397.17744
-396.20774
-395.88706
-397.6061
-395.63525
-395.85458
-395.86667
-395.86904
-395.87786
-395.96288
-397.19782
-396.2203
-395.8895
-397.60849
-395.63602
-395.85652
-395.86904
-395.87148
-395.8805
-395.96608
-397.20238
-396.22504
-395.90146
-397.62547
-395.64134
-395.86343
-395.87786
-395.8805
-395.88972
-395.97572
-397.21337
-396.23943
-395.97722
-397.7704
-395.73718
-395.94496
-395.96288
-395.96608
-395.97572
-396.06353
-397.30906
-396.36658
-396.47845
-398.97602
-397.02605
-397.17744
-397.19782
-397.20238
-397.21337
-397.30906
-398.59997
-397.93609
-395.48911
-397.31457
-396.14532
-396.20774
-396.2203
-396.22504
-396.23943
-396.36658
-397.93609
-395.02717
-375.56611
-380.68791
-377.24254
-377.558
-377.57749
-377.58043
-377.59407
-377.68166
-378.27916
-377.15664
-380.68791
-381.24349
-379.17611
-379.43145
-379.4461
-379.44892
-379.46769
-379.6315
-381.04308
-379.15748
-377.24254
-379.17611
-377.01391
-377.25736
-377.27088
-377.27191
-377.27763
-377.38469
-378.89049
-377.87714
-377.558
-379.43145
-377.25736
-377.49929
-377.51304
-377.5154
-377.523
-377.61378
-379.05652
-377.94502
-377.57749
-379.4461
-377.27088
-377.51304
-377.52697
-377.5298
-377.53954
-377.63416
-379.07948
-377.95905
-377.58043
-379.44892
-377.27191
-377.5154
-377.5298
-377.53268
-377.54266
-377.63791
-379.08474
-377.96446
-377.59407
-379.46769
-377.27763
-377.523
-377.53954
-377.54266
-377.55286
-377.64857
-379.09692
-377.98046
-377.68166
-379.6315
-377.38469
-377.61378
-377.63416
-377.63791
-377.64857
-377.74631
-379.20367
-378.12404
-378.27916
-381.04308
-378.89049
-379.05652
-379.07948
-379.08474
-379.09692
-379.20367
-380.71422
-379.98192
-377.15664
-379.15748
-377.87714
-377.94502
-377.95905
-377.96446
-377.98046
-378.12404
-379.98192
-376.55572
-358.34341
-363.84121
-360.1081
-360.45021
-360.47198
-360.47541
-360.49062
-360.58937
-361.27813
-360.03562
-363.84121
-364.42168
-362.17517
-362.45282
-362.4693
-362.4725
-362.49294
-362.67434
-364.2802
-362.19358
-360.1081
-362.17517
-359.82761
-360.09235
-360.10759
-360.10889
-360.11496
-360.23234
-361.94244
-360.81234
-360.45021
-362.45282
-360.09235
-360.35542
-360.37091
-360.37367
-360.38192
-360.48117
-362.12201
-360.88526
-360.47198
-362.4693
-360.10759
-360.37091
-360.38657
-360.38984
-360.40046
-360.50386
-362.14741
-360.90068
-360.47541
-362.4725
-360.10889
-360.37367
-360.38984
-360.39316
-360.40404
-360.50814
-362.15333
-360.90672
-360.49062
-362.49294
-360.11496
-360.38192
-360.40046
-360.40404
-360.41515
-360.51976
-362.16663
-360.92424
-360.58937
-362.67434
-360.23234
-360.48117
-360.50386
-360.50814
-360.51976
-360.62661
-362.28356
-361.08306
-361.27813
-364.2802
-361.94244
-362.12201
-362.14741
-362.15333
-362.16663
-362.28356
-364.00106
-363.21405
-360.03562
-362.19358
-360.81234
-360.88526
-360.90068
-360.90672
-360.92424
-361.08306
-363.21405
-359.30794
-342.3631
-348.18847
-344.19641
-344.56286
-344.58676
-344.59066
-344.60735
-344.71649
-345.49099
-344.14196
-348.18847
-348.78339
-346.37576
-346.67382
-346.69199
-346.69558
-346.71754
-346.91512
-348.70248
-346.43834
-344.19641
-346.37576
-343.86149
-344.1457
-344.16255
-344.16412
-344.17049
-344.29723
-346.19788
-344.96686
-344.56286
-346.67382
-344.1457
-344.42811
-344.44521
-344.44837
-344.45721
-344.56411
-346.3898
-345.04436
-344.58676
-346.69199
-344.16255
-344.44521
-344.46249
-344.46619
-344.47762
-344.58897
-346.41746
-345.06107
-344.59066
-346.69558
-344.16412
-344.44837
-344.46619
-344.46994
-344.48164
-344.59375
-346.42402
-345.06771
-344.60735
-346.71754
-344.17049
-344.45721
-344.47762
-344.48164
-344.4936
-344.60625
-346.43834
-345.08663
-344.71649
-346.91512
-344.29723
-344.56411
-344.58897
-344.59375
-344.60625
-344.72135
-346.56451
-345.25943
-345.49099
-348.70248
-346.19788
-346.3898
-346.41746
-346.42402
-346.43834
-346.56451
-348.47512
-347.64662
-344.14196
-346.43834
-344.96686
-345.04436
-345.06107
-345.06771
-345.08663
-345.25943
-347.64662
-343.29995
-327.63497
-333.73891
-329.51785
-329.90617
-329.93204
-329.93638
-329.95444
-330.07316
-330.92737
-329.48549
-333.73891
-334.33852
-331.78845
-332.10488
-332.12463
-332.12858
-332.15189
-332.36418
-334.31925
-331.90126
-329.51785
-331.78845
-329.12681
-329.42856
-329.4469
-329.44872
-329.45536
-329.59046
-331.66685
-330.35058
-329.90617
-332.10488
-329.42856
-329.72837
-329.74698
-329.75052
-329.75988
-329.87359
-331.86985
-330.43216
-329.93204
-332.12463
-329.4469
-329.74698
-329.76576
-329.76987
-329.78202
-329.90045
-331.89959
-330.45006
-329.93638
-332.12858
-329.44872
-329.75052
-329.76987
-329.77401
-329.78646
-329.9057
-331.90675
-330.45726
-329.95444
-332.15189
-329.45536
-329.75988
-329.78202
-329.78646
-329.79918
-329.919
-331.92199
-330.47745
-330.07316
-332.36418
-329.59046
-329.87359
-329.90045
-329.9057
-329.919
-330.04144
-332.05643
-330.66291
-330.92737
-334.31925
-331.66685
-331.86985
-331.89959
-331.90675
-331.92199
-332.05643
-334.14528
-333.28795
-329.48549
-331.90126
-330.35058
-330.43216
-330.45006
-330.45726
-330.47745
-330.66291
-333.28795
-328.54173
-314.16265
-320.49591
-316.07673
-316.48434
-316.512
-316.51676
-316.53605
-316.66348
-317.59096
-316.06994
-320.49591
-321.09125
-318.41791
-318.75059
-318.77178
-318.77607
-318.80057
-319.02599
-321.13409
-318.58592
-316.07673
-318.41791
-315.62879
-315.94604
-315.96575
-315.96782
-315.97468
-316.1171
-318.35353
-316.96738
-316.48434
-318.75059
-315.94604
-316.26125
-316.28122
-316.28513
-316.29495
-316.41459
-318.56627
-317.05253
-316.512
-318.77178
-315.96575
-316.28122
-316.30138
-316.30587
-316.31867
-316.44327
-318.5979
-317.0715
-316.51676
-318.77607
-315.96782
-316.28513
-316.30587
-316.31039
-316.32351
-316.44896
-318.60562
-317.07921
-316.53605
-318.80057
-315.97468
-316.29495
-316.31867
-316.32351
-316.33689
-316.46296
-318.62168
-317.10053
-316.66348
-319.02599
-316.1171
-316.41459
-316.44327
-316.44896
-316.46296
-316.59181
-318.76335
-317.29726
-317.59096
-321.13409
-318.35353
-318.56627
-318.5979
-318.60562
-318.62168
-318.76335
-321.01463
-320.1405
-316.06994
-318.58592
-316.96738
-317.05253
-317.0715
-317.07921
-317.10053
-317.29726
-320.1405
-315.03703
-301.9437
-308.45714
-303.87143
-304.29563
-304.32489
-304.33004
-304.35044
-304.48566
-305.47955
-303.8931
-308.45714
-309.04006
-306.26302
-306.60972
-306.6322
-306.6368
-306.66233
-306.89926
-309.14493
-306.49007
-303.87143
-306.26302
-303.36672
-303.69735
-303.71829
-303.7206
-303.72762
-303.87631
-306.25627
-304.81522
-304.29563
-306.60972
-303.69735
-304.02584
-304.04705
-304.05129
-304.06151
-304.18618
-306.47736
-304.90339
-304.32489
-306.6322
-303.71829
-304.04705
-304.06844
-304.07328
-304.08664
-304.21648
-306.51068
-304.92331
-304.33004
-306.6368
-303.7206
-304.05129
-304.07328
-304.07816
-304.09184
-304.22258
-306.51889
-304.93149
-304.35044
-306.66233
-303.72762
-304.06151
-304.08664
-304.09184
-304.10581
-304.23719
-306.53567
-304.9538
-304.48566
-306.89926
-303.87631
-304.18618
-304.21648
-304.22258
-304.23719
-304.3715
-306.68354
-305.16035
-305.47955
-309.14493
-306.25627
-306.47736
-306.51068
-306.51889
-306.53567
-306.68354
-309.08062
-308.20101
-303.8931
-306.49007
-304.81522
-304.90339
-304.92331
-304.93149
-304.9538
-305.16035
-308.20101
-302.78357
-290.96973
-297.61464
-292.89447
-293.33248
-293.36314
-293.36864
-293.39001
-293.53207
-294.58519
-292.94689
-297.61464
-298.17786
-295.31692
-295.67536
-295.69897
-295.70386
-295.73023
-295.977
-298.34411
-295.60572
-292.89447
-295.31692
-292.334
-292.67583
-292.69785
-292.70039
-292.70752
-292.86139
-295.36773
-293.88625
-293.33248
-295.67536
-292.67583
-293.01542
-293.03772
-293.04227
-293.05283
-293.18162
-295.59573
-293.97688
-293.36314
-295.69897
-292.69785
-293.03772
-293.0602
-293.06537
-293.07919
-293.21333
-295.63051
-293.99761
-293.36864
-295.70386
-292.70039
-293.04227
-293.06537
-293.07056
-293.08473
-293.2198
-295.63918
-294.00622
-293.39001
-295.73023
-292.70752
-293.05283
-293.07919
-293.08473
-293.09919
-293.23492
-295.65655
-294.02936
-293.53207
-295.977
-292.86139
-293.18162
-293.21333
-293.2198
-293.23492
-293.37371
-295.80955
-294.24426
-294.58519
-298.34411
-295.36773
-295.59573
-295.63051
-295.63918
-295.65655
-295.80955
-298.33513
-297.46055
-292.94689
-295.60572
-293.88625
-293.97688
-293.99761
-294.00622
-294.02936
-294.24426
-297.46055
-291.77309
-281.22656
-287.95498
-283.13271
-283.58166
-283.61352
-283.61934
-283.64153
-283.78944
-284.89434
-283.21753
-287.95498
-288.49213
-285.56721
-285.93502
-285.95962
-285.96475
-285.9918
-286.24669
-288.71857
-285.91929
-283.13271
-285.56721
-282.51836
-282.86914
-282.89209
-282.89484
-282.90203
-283.05999
-285.67499
-284.16697
-283.58166
-285.93502
-282.86914
-283.2176
-283.24084
-283.24567
-283.25648
-283.38847
-285.90843
-284.25947
-283.61352
-285.95962
-282.89209
-283.24084
-283.26426
-283.26972
-283.28392
-283.42139
-285.94444
-284.2809
-283.61934
-285.96475
-282.89484
-283.24567
-283.26972
-283.27519
-283.28975
-283.42819
-285.95351
-284.28986
-283.64153
-285.9918
-282.90203
-283.25648
-283.28392
-283.28975
-283.3046
-283.44373
-285.97137
-284.31369
-283.78944
-286.24669
-283.05999
-283.38847
-283.42139
-283.42819
-283.44373
-283.58601
-286.12842
-284.53543
-284.89434
-288.71857
-285.67499
-285.90843
-285.94444
-285.95351
-285.97137
-286.12842
-288.76466
-287.90475
-283.21753
-285.91929
-284.16697
-284.25947
-284.2809
-284.28986
-284.31369
-284.53543
-287.90475
-281.99156
-272.69443
-279.45946
-274.56748
-275.02447
-275.05731
-275.06341
-275.08627
-275.23902
-276.388
-274.68575
-279.45946
-279.96508
-276.99607
-277.37087
-277.39628
-277.40163
-277.42916
-277.69043
-280.25001
-277.41186
-274.56748
-276.99607
-273.90196
-274.2594
-274.28314
-274.28608
-274.29329
-274.45424
-277.15978
-275.63841
-275.02447
-277.37087
-274.2594
-274.61447
-274.63849
-274.64357
-274.65458
-274.78885
-277.39716
-275.73221
-275.05731
-277.39628
-274.28314
-274.63849
-274.66269
-274.66841
-274.6829
-274.82276
-277.43417
-275.75418
-275.06341
-277.40163
-274.28608
-274.64357
-274.66841
-274.67413
-274.68898
-274.82984
-277.44358
-275.76345
-275.08627
-277.42916
-274.29329
-274.65458
-274.6829
-274.68898
-274.70414
-274.84568
-277.46181
-275.7878
-275.23902
-277.69043
-274.45424
-274.78885
-274.82276
-274.82984
-274.84568
-274.99048
-277.62181
-276.01485
-276.388
-280.25001
-277.15978
-277.39716
-277.43417
-277.44358
-277.46181
-277.62181
-280.35043
-279.51394
-274.68575
-277.41186
-275.63841
-275.73221
-275.75418
-275.76345
-275.7878
-276.01485
-279.51394
-273.41938
-265.34826
-272.1043
-267.17484
-267.63693
-267.67054
-267.67688
-267.70027
-267.85681
-269.04203
-267.327
-272.1043
-272.57388
-269.58051
-269.95987
-269.98593
-269.99146
-270.0193
-270.2852
-272.91507
-270.05931
-267.17484
-269.58051
-266.46166
-266.82346
-266.84783
-266.85094
-266.85812
-267.02097
-269.79865
-268.27636
-267.63693
-269.95987
-266.82346
-267.18284
-267.2075
-267.21279
-267.22391
-267.35955
-270.03844
-268.37086
-267.67054
-269.98593
-266.84783
-267.2075
-267.23232
-267.23825
-267.25293
-267.39424
-270.07622
-268.39324
-267.67688
-269.99146
-266.85094
-267.21279
-267.23825
-267.24419
-267.25924
-267.40155
-270.0859
-268.40276
-267.70027
-270.0193
-266.85812
-267.22391
-267.25293
-267.25924
-267.27459
-267.4176
-270.10438
-268.42747
-267.85681
-270.2852
-267.02097
-267.35955
-267.39424
-267.40155
-267.4176
-267.56392
-270.26626
-268.6583
-269.04203
-272.91507
-269.79865
-270.03844
-270.07622
-270.0859
-270.10438
-270.26626
-273.06867
-272.2634
-267.327
-270.05931
-268.27636
-268.37086
-268.39324
-268.40276
-268.42747
-268.6583
-272.2634
-266.03155
-259.15784
-265.86088
-260.92582
-261.39006
-261.42423
-261.43076
-261.45452
-261.61382
-262.82729
-261.11171
-265.86088
-266.29083
-263.29258
-263.67408
-263.70062
-263.70629
-263.73426
-264.00303
-266.68562
-263.8326
-260.92582
-263.29258
-260.16925
-260.5331
-260.55794
-260.5612
-260.5683
-260.73197
-263.5632
-262.05163
-261.39006
-263.67408
-260.5331
-260.89449
-260.91961
-260.92509
-260.93626
-261.07236
-263.80389
-262.14624
-261.42423
-263.70062
-260.55794
-260.91961
-260.9449
-260.95101
-260.96579
-261.10759
-263.84218
-262.16888
-261.43076
-263.70629
-260.5612
-260.92509
-260.95101
-260.95712
-260.97227
-261.11509
-263.85209
-262.17858
-261.45452
-263.73426
-260.5683
-260.93626
-260.96579
-260.97227
-260.98772
-261.13125
-263.8707
-262.2035
-261.61382
-264.00303
-260.73197
-261.07236
-261.10759
-261.11509
-261.13125
-261.27813
-264.03338
-262.43657
-262.82729
-266.68562
-263.5632
-263.80389
-263.84218
-263.85209
-263.8707
-264.03338
-266.89082
-266.12358
-261.11171
-263.8326
-262.05163
-262.14624
-262.16888
-262.17858
-262.2035
-262.43657
-266.12358
-259.79804
-254.08821
-260.69603
-255.7867
-256.25014
-256.28465
-256.29134
-256.31531
-256.47633
-257.71001
-256.00557
-260.69603
-261.08371
-258.09965
-258.48086
-258.50772
-258.5135
-258.54141
-258.8113
-261.52895
-258.69806
-255.7867
-258.09965
-254.99171
-255.35529
-255.38044
-255.38383
-255.39081
-255.55423
-258.42039
-256.9303
-256.25014
-258.48086
-255.35529
-255.7164
-255.74183
-255.74746
-255.7586
-255.89427
-258.66046
-257.02442
-256.28465
-258.50772
-255.38044
-255.74183
-255.76741
-255.77367
-255.78845
-255.92983
-258.69903
-257.04718
-256.29134
-258.5135
-255.38383
-255.74746
-255.77367
-255.77991
-255.79506
-255.93747
-258.70909
-257.05701
-256.31531
-258.54141
-255.39081
-255.7586
-255.78845
-255.79506
-255.81052
-255.95363
-258.72771
-257.08197
-256.47633
-258.8113
-255.55423
-255.89427
-255.92983
-255.93747
-255.95363
-256.10011
-258.89013
-257.31577
-257.71001
-261.52895
-258.42039
-258.66046
-258.69903
-258.70909
-258.72771
-258.89013
-261.7838
-261.0604
-256.00557
-258.69806
-256.9303
-257.02442
-257.04718
-257.05701
-257.08197
-257.31577
-261.0604
-254.68398
-250.09989
-256.5723
-251.7193
-252.17903
-252.21365
-252.22045
-252.24448
-252.40617
-253.65201
-251.96984
-256.5723
-256.91599
-253.96469
-254.34323
-254.37022
-254.37607
-254.40375
-254.67303
-257.40814
-254.61766
-251.7193
-253.96469
-250.89149
-251.25252
-251.27782
-251.28132
-251.28813
-251.45026
-254.33282
-252.87405
-252.17903
-254.34323
-251.25252
-251.61108
-251.63665
-251.64239
-251.65344
-251.78782
-254.57075
-252.96709
-252.21365
-254.37022
-251.27782
-251.63665
-251.66238
-251.66873
-251.68342
-251.82348
-254.60936
-252.98983
-252.22045
-254.37607
-251.28132
-251.64239
-251.66873
-251.67507
-251.69013
-251.83121
-254.6195
-252.99972
-252.24448
-254.40375
-251.28813
-251.65344
-251.68342
-251.69013
-251.70548
-251.84727
-254.63802
-253.02456
-252.40617
-254.67303
-251.45026
-251.78782
-251.82348
-251.83121
-251.84727
-251.99242
-254.79915
-253.25758
-253.65201
-257.40814
-254.33282
-254.57075
-254.60936
-254.6195
-254.63802
-254.79915
-257.71031
-257.03556
-251.96984
-254.61766
-252.87405
-252.96709
-252.98983
-252.99972
-253.02456
-253.25758
-257.03556
-250.65002
-247.14927
-253.44828
-248.68129
-249.13443
-249.16896
-249.17582
-249.19976
-249.36109
-250.61107
-248.96164
-253.44828
-253.74714
-250.84659
-251.22008
-251.24704
-251.25293
-251.2802
-251.54717
-254.28228
-251.54934
-248.68129
-250.84659
-247.82687
-248.18309
-248.20839
-248.21197
-248.21857
-248.3784
-251.25899
-249.84047
-249.13443
-251.22008
-248.18309
-248.53687
-248.56242
-248.56823
-248.57911
-248.71137
-251.49331
-249.93184
-249.16896
-251.24704
-248.20839
-248.56242
-248.58812
-248.59454
-248.60904
-248.7469
-251.53171
-249.95442
-249.17582
-251.25293
-248.21197
-248.56823
-248.59454
-248.60092
-248.6158
-248.75468
-251.54188
-249.9643
-249.19976
-251.2802
-248.21857
-248.57911
-248.60904
-248.6158
-248.63096
-248.77053
-251.56017
-249.98887
-249.36109
-251.54717
-248.3784
-248.71137
-248.7469
-248.75468
-248.77053
-248.91344
-251.719
-250.21964
-250.61107
-254.28228
-251.25899
-251.49331
-251.53171
-251.54188
-251.56017
-251.719
-254.62909
-254.0068
-248.96164
-251.54934
-249.84047
-249.93184
-249.95442
-249.9643
-249.98887
-250.21964
-254.0068
-247.65266
-245.18891
-251.27895
-246.62656
-247.0703
-247.10452
-247.1114
-247.13509
-247.29505
-248.54125
-246.93437
-251.27895
-251.53299
-248.70045
-249.0666
-249.09336
-249.09924
-249.12594
-249.38895
-252.10686
-249.44735
-246.62656
-248.70045
-245.75223
-246.10144
-246.12658
-246.13023
-246.13658
-246.29312
-249.15371
-247.78336
-247.0703
-249.0666
-246.10144
-246.44825
-246.47363
-246.47948
-246.49013
-246.61944
-249.38295
-247.8725
-247.10452
-249.09336
-246.12658
-246.47363
-246.49914
-246.50558
-246.51981
-246.65463
-249.4209
-247.89477
-247.1114
-249.09924
-246.13023
-246.47948
-246.50558
-246.51198
-246.52657
-246.6624
-249.43103
-247.90459
-247.13509
-249.12594
-246.13658
-246.49013
-246.51981
-246.52657
-246.54145
-246.67796
-249.44899
-247.92874
-247.29505
-249.38895
-246.29312
-246.61944
-246.65463
-246.6624
-246.67796
-246.81775
-249.60454
-248.15581
-248.54125
-252.10686
-249.15371
-249.38295
-249.4209
-249.43103
-249.44899
-249.60454
-252.4953
-251.9283
-246.93437
-249.44735
-247.78336
-247.8725
-247.89477
-247.90459
-247.92874
-248.15581
-251.9283
-245.64458
-244.16796
-250.01594
-245.50553
-245.93715
-245.97084
-245.97771
-246.001
-246.15859
-247.39322
-245.83798
-250.01594
-250.22601
-247.47797
-247.83453
-247.86093
-247.86677
-247.89273
-248.15016
-250.83405
-248.26258
-245.50553
-247.47797
-244.61846
-244.95852
-244.98334
-244.98702
-244.9931
-245.14542
-247.96835
-246.65315
-245.93715
-247.83453
-244.95852
-245.29623
-245.32128
-245.32712
-245.33748
-245.46309
-248.19112
-246.73951
-245.97084
-247.86093
-244.98334
-245.32128
-245.34645
-245.35287
-245.36674
-245.49771
-248.22838
-246.76133
-245.97771
-247.86677
-244.98702
-245.32712
-245.35287
-245.35923
-245.37346
-245.50542
-248.23841
-246.77102
-246.001
-247.89273
-244.9931
-245.33748
-245.36674
-245.37346
-245.38797
-245.52059
-248.25592
-246.79459
-246.15859
-248.15016
-245.14542
-245.46309
-245.49771
-245.50542
-245.52059
-245.65644
-248.40726
-247.0166
-247.39322
-250.83405
-247.96835
-248.19112
-248.22838
-248.23841
-248.25592
-248.40726
-251.26084
-250.75096
-245.83798
-248.26258
-246.65315
-246.73951
-246.76133
-246.77102
-246.79459
-247.0166
-250.75096
-244.57505
-244.03249
-249.60799
-245.26556
-245.68241
-245.71538
-245.72217
-245.74492
-245.89917
-247.11463
-245.61937
-249.60799
-249.7757
-247.12777
-247.47257
-247.49846
-247.50421
-247.52927
-247.77959
-250.41307
-247.94291
-245.26556
-247.12777
-244.37327
-244.70212
-244.72647
-244.73016
-244.73592
-244.88314
-247.65128
-246.39721
-245.68241
-247.47257
-244.70212
-245.02868
-245.05324
-245.05905
-245.06905
-245.19022
-247.8662
-246.48024
-245.71538
-247.49846
-244.72647
-245.05324
-245.07793
-245.08427
-245.0977
-245.22407
-247.90255
-246.50148
-245.72217
-247.50421
-244.73016
-245.05905
-245.08427
-245.09057
-245.10435
-245.23167
-247.91241
-246.51098
-245.74492
-247.52927
-244.73592
-245.06905
-245.0977
-245.10435
-245.11839
-245.24636
-247.92938
-246.53384
-245.89917
-247.77959
-244.88314
-245.19022
-245.22407
-245.23167
-245.24636
-245.37746
-248.07561
-246.74944
-247.11463
-250.41307
-247.65128
-247.8662
-247.90255
-247.91241
-247.92938
-248.07561
-250.87467
-250.42281
-245.61937
-247.94291
-246.39721
-246.48024
-246.50148
-246.51098
-246.53384
-246.74944
-250.42281
-244.39022
-244.72586
-250.00121
-245.85126
-246.25083
-246.28286
-246.28955
-246.31161
-246.4616
-247.65051
-246.22278
-250.00121
-250.1289
-247.59575
-247.92672
-247.95193
-247.95756
-247.98158
-248.22329
-250.79056
-248.43361
-245.85126
-247.59575
-244.96158
-245.27724
-245.30098
-245.30466
-245.31007
-245.45134
-248.14816
-246.96023
-246.25083
-247.92672
-245.27724
-245.59069
-245.61463
-245.62035
-245.62993
-245.74598
-248.35394
-247.03943
-246.28286
-247.95193
-245.30098
-245.61463
-245.63867
-245.6449
-245.65781
-245.77885
-248.38915
-247.05996
-246.28955
-247.95756
-245.30466
-245.62035
-245.6449
-245.65109
-245.66433
-245.7863
-248.39878
-247.0692
-246.31161
-247.98158
-245.31007
-245.62993
-245.65781
-245.66433
-245.67783
-245.80041
-248.4151
-247.09121
-246.4616
-248.22329
-245.45134
-245.74598
-245.77885
-245.7863
-245.80041
-245.92601
-248.55538
-247.29914
-247.65051
-250.79056
-248.14816
-248.35394
-248.38915
-248.39878
-248.4151
-248.55538
-251.28318
-250.88935
-246.22278
-248.43361
-246.96023
-247.03943
-247.05996
-247.0692
-247.09121
-247.29914
-250.88935
-245.03358
-246.18916
-251.13952
-247.20492
-247.5848
-247.61572
-247.62225
-247.6435
-247.78832
-248.94357
-247.59016
-251.13952
-251.23018
-248.82546
-249.14063
-249.16501
-249.17049
-249.19332
-249.42502
-251.91089
-249.67768
-247.20492
-248.82546
-246.3259
-246.6265
-246.64947
-246.65312
-246.65815
-246.79269
-249.40237
-248.28462
-247.5848
-249.14063
-246.6265
-246.92496
-246.94813
-246.95373
-246.96284
-247.07312
-249.59775
-248.3595
-247.61572
-249.16501
-246.64947
-246.94813
-246.97138
-246.97747
-246.98978
-247.10481
-249.63161
-248.37918
-247.62225
-249.17049
-246.65312
-246.95373
-246.97747
-246.98351
-246.99614
-247.11206
-249.64095
-248.38812
-247.6435
-249.19332
-246.65815
-246.96284
-246.98978
-246.99614
-247.00901
-247.12552
-249.65651
-248.40914
-247.78832
-249.42502
-246.79269
-247.07312
-247.10481
-247.11206
-247.12552
-247.24493
-249.79006
-248.6082
-248.94357
-251.91089
-249.40237
-249.59775
-249.63161
-249.64095
-249.65651
-249.79006
-252.43057
-252.09388
-247.59016
-249.67768
-248.28462
-248.3595
-248.37918
-248.38812
-248.40914
-248.6082
-252.09388
-246.44632
-248.36153
-252.96495
-249.26686
-249.62479
-249.65441
-249.66074
-249.68104
-249.81985
-250.93465
-249.66151
-252.96495
-253.02219
-250.75848
-251.05598
-251.07939
-251.08467
-251.10619
-251.32656
-253.71658
-251.61624
-249.26686
-250.75848
-248.4067
-248.69045
-248.71253
-248.71612
-248.72075
-248.84782
-251.35529
-250.31084
-249.62479
-251.05598
-248.69045
-248.97218
-248.99443
-248.99988
-249.00846
-249.11238
-251.53912
-250.38093
-249.65441
-251.07939
-248.71253
-248.99443
-249.01676
-249.02267
-249.0343
-249.14271
-251.57142
-250.39965
-249.66074
-251.08467
-248.71612
-248.99988
-249.02267
-249.02851
-249.04045
-249.1497
-251.5804
-250.40822
-249.68104
-251.10619
-248.72075
-249.00846
-249.0343
-249.04045
-249.05262
-249.16243
-251.59513
-250.42813
-249.81985
-251.32656
-248.84782
-249.11238
-249.14271
-249.1497
-249.16243
-249.27499
-251.72121