/*--------------------------------*- C++ -*----------------------------------*\
| =========                 |                                                 |
| \\      /  F ield         | OpenFOAM: The Open Source CFD Toolbox           |
|  \\    /   O peration     | Version:  v2106                                 |
|   \\  /    A nd           | Website:  www.openfoam.com                      |
|    \\/     M anipulation  |                                                 |
\*---------------------------------------------------------------------------*/
FoamFile
{
    version     2.0;
    format      ascii;
    arch        "LSB;label=32;scalar=64";
    class       volScalarField;
    location    "50";
    object      T;
}
// * * * * * * * * * * * * * * * * * * * * * * * * * * * * * * * * * * * * * //

dimensions      [0 0 0 1 0 0 0];

internalField   nonuniform List<scalar> 
4000
(
275.10288
275.10289
275.10288
275.10288
275.10288
275.10288
275.10288
275.10288
275.10288
275.10288
275.10289
275.1029
275.10289
275.10288
275.10288
275.10288
275.10288
275.10289
275.10289
275.10289
275.10288
275.10289
275.10288
275.10288
275.10288
275.10288
275.10288
275.10288
275.10288
275.10288
275.10288
275.10288
275.10288
275.10287
275.10287
275.10287
275.10287
275.10288
275.10288
275.10288
275.10288
275.10288
275.10288
275.10287
275.10287
275.10287
275.10287
275.10288
275.10288
275.10288
275.10288
275.10288
275.10288
275.10287
275.10287
275.10287
275.10287
275.10288
275.10288
275.10288
275.10288
275.10288
275.10288
275.10287
275.10287
275.10287
275.10287
275.10288
275.10288
275.10288
275.10288
275.10289
275.10288
275.10288
275.10288
275.10288
275.10288
275.10288
275.10288
275.10288
275.10288
275.10289
275.10288
275.10288
275.10288
275.10288
275.10288
275.10288
275.10289
275.10289
275.10288
275.10289
275.10288
275.10288
275.10288
275.10288
275.10288
275.10288
275.10289
275.10289
283.32268
283.32274
283.3227
283.32269
283.32268
283.32268
283.32268
283.32269
283.32269
283.32269
283.32274
283.32275
283.32272
283.3227
283.3227
283.3227
283.3227
283.32271
283.32271
283.32271
283.3227
283.32272
283.32269
283.32267
283.32267
283.32266
283.32267
283.32268
283.32269
283.32269
283.32269
283.3227
283.32267
283.32266
283.32265
283.32265
283.32266
283.32267
283.32268
283.32269
283.32268
283.3227
283.32267
283.32265
283.32265
283.32265
283.32265
283.32267
283.32268
283.32268
283.32268
283.3227
283.32266
283.32265
283.32265
283.32265
283.32266
283.32267
283.32268
283.32269
283.32268
283.3227
283.32267
283.32266
283.32265
283.32266
283.32266
283.32268
283.32269
283.3227
283.32269
283.32271
283.32268
283.32267
283.32267
283.32267
283.32268
283.32269
283.3227
283.32271
283.32269
283.32271
283.32269
283.32268
283.32268
283.32268
283.32269
283.3227
283.32272
283.32272
283.32269
283.32271
283.32269
283.32269
283.32268
283.32269
283.3227
283.32271
283.32272
283.32272
291.49204
291.49211
291.49206
291.49203
291.49202
291.49202
291.49202
291.49203
291.49204
291.49203
291.49211
291.49213
291.49208
291.49205
291.49204
291.49204
291.49205
291.49206
291.49208
291.49206
291.49206
291.49208
291.49203
291.492
291.49199
291.49199
291.492
291.49202
291.49204
291.49204
291.49203
291.49205
291.492
291.49198
291.49197
291.49197
291.49198
291.492
291.49203
291.49203
291.49202
291.49204
291.49199
291.49197
291.49196
291.49196
291.49197
291.49199
291.49202
291.49202
291.49202
291.49204
291.49199
291.49197
291.49196
291.49196
291.49198
291.492
291.49203
291.49203
291.49202
291.49205
291.492
291.49198
291.49197
291.49198
291.49199
291.49202
291.49204
291.49205
291.49203
291.49206
291.49202
291.492
291.49199
291.492
291.49202
291.49204
291.49207
291.49207
291.49204
291.49208
291.49204
291.49203
291.49202
291.49203
291.49204
291.49207
291.4921
291.4921
291.49203
291.49206
291.49204
291.49203
291.49202
291.49203
291.49205
291.49207
291.4921
291.49208
299.6133
299.61339
299.61331
299.61328
299.61326
299.61326
299.61327
299.61329
299.6133
299.61328
299.61339
299.6134
299.61334
299.6133
299.61328
299.61328
299.6133
299.61332
299.61335
299.61333
299.61331
299.61334
299.61327
299.61324
299.61322
299.61322
299.61324
299.61326
299.6133
299.6133
299.61328
299.6133
299.61324
299.6132
299.61319
299.61319
299.61321
299.61324
299.61328
299.61328
299.61326
299.61328
299.61322
299.61319
299.61318
299.61318
299.6132
299.61323
299.61328
299.61328
299.61326
299.61328
299.61322
299.61319
299.61318
299.61319
299.61321
299.61324
299.61329
299.61329
299.61327
299.6133
299.61324
299.61321
299.6132
299.61321
299.61323
299.61327
299.61331
299.61331
299.61329
299.61332
299.61326
299.61324
299.61323
299.61324
299.61327
299.6133
299.61335
299.61335
299.6133
299.61335
299.6133
299.61328
299.61328
299.61329
299.61331
299.61335
299.61339
299.61339
299.61328
299.61333
299.6133
299.61328
299.61328
299.61329
299.61331
299.61335
299.61339
299.61336
307.68874
307.68884
307.68875
307.6887
307.68868
307.68868
307.6887
307.68872
307.68875
307.68873
307.68884
307.68886
307.68877
307.68873
307.68871
307.68871
307.68873
307.68876
307.68881
307.68878
307.68875
307.68877
307.68869
307.68865
307.68863
307.68863
307.68866
307.6887
307.68875
307.68874
307.6887
307.68873
307.68865
307.68861
307.68859
307.6886
307.68862
307.68867
307.68873
307.68872
307.68868
307.68871
307.68863
307.68859
307.68858
307.68859
307.68861
307.68866
307.68872
307.68872
307.68868
307.68871
307.68863
307.6886
307.68859
307.6886
307.68862
307.68867
307.68874
307.68874
307.6887
307.68873
307.68866
307.68862
307.68861
307.68862
307.68866
307.68871
307.68877
307.68877
307.68872
307.68876
307.6887
307.68867
307.68866
307.68867
307.68871
307.68876
307.68882
307.68882
307.68875
307.68881
307.68875
307.68873
307.68872
307.68874
307.68877
307.68882
307.68888
307.68887
307.68873
307.68878
307.68874
307.68872
307.68872
307.68874
307.68877
307.68882
307.68887
307.68883
315.72052
315.72063
315.72053
315.72048
315.72046
315.72046
315.72048
315.72051
315.72055
315.72052
315.72063
315.72066
315.72056
315.72051
315.72049
315.72049
315.72051
315.72056
315.72061
315.72058
315.72053
315.72056
315.72046
315.72041
315.72039
315.7204
315.72043
315.72048
315.72055
315.72054
315.72048
315.72051
315.72041
315.72037
315.72035
315.72036
315.72039
315.72045
315.72053
315.72052
315.72046
315.72049
315.72039
315.72035
315.72033
315.72034
315.72038
315.72044
315.72052
315.72052
315.72046
315.72049
315.7204
315.72036
315.72034
315.72036
315.7204
315.72046
315.72054
315.72054
315.72048
315.72051
315.72043
315.72039
315.72038
315.7204
315.72044
315.7205
315.72059
315.72059
315.72051
315.72056
315.72048
315.72045
315.72044
315.72046
315.7205
315.72057
315.72065
315.72065
315.72055
315.72061
315.72055
315.72053
315.72052
315.72054
315.72059
315.72065
315.72073
315.72072
315.72052
315.72058
315.72054
315.72052
315.72052
315.72054
315.72059
315.72065
315.72072
315.72066
323.71071
323.71084
323.71072
323.71066
323.71064
323.71064
323.71067
323.71071
323.71076
323.71073
323.71084
323.71086
323.71075
323.71069
323.71067
323.71067
323.71071
323.71076
323.71083
323.7108
323.71072
323.71075
323.71064
323.71059
323.71056
323.71057
323.71061
323.71067
323.71076
323.71075
323.71066
323.71069
323.71059
323.71053
323.71052
323.71053
323.71057
323.71064
323.71073
323.71073
323.71064
323.71067
323.71056
323.71052
323.7105
323.71051
323.71056
323.71063
323.71073
323.71073
323.71064
323.71067
323.71057
323.71053
323.71051
323.71053
323.71058
323.71066
323.71076
323.71076
323.71067
323.71071
323.71061
323.71057
323.71056
323.71058
323.71063
323.71071
323.71081
323.71081
323.71071
323.71076
323.71067
323.71064
323.71063
323.71066
323.71071
323.71079
323.71089
323.71089
323.71076
323.71083
323.71076
323.71073
323.71073
323.71076
323.71081
323.71089
323.71098
323.71097
323.71073
323.7108
323.71075
323.71073
323.71073
323.71076
323.71081
323.71089
323.71097
323.7109
331.66126
331.66139
331.66126
331.66119
331.66117
331.66117
331.66121
331.66126
331.66132
331.66129
331.66139
331.66141
331.66129
331.66123
331.6612
331.66121
331.66125
331.66132
331.6614
331.66136
331.66126
331.66129
331.66117
331.66111
331.66109
331.6611
331.66114
331.66122
331.66132
331.66131
331.66119
331.66123
331.66111
331.66105
331.66103
331.66105
331.6611
331.66118
331.66129
331.66129
331.66117
331.6612
331.66109
331.66103
331.66102
331.66103
331.66109
331.66118
331.66129
331.6613
331.66117
331.66121
331.6611
331.66105
331.66103
331.66106
331.66111
331.66121
331.66133
331.66133
331.66121
331.66125
331.66114
331.6611
331.66109
331.66111
331.66117
331.66127
331.66139
331.66139
331.66126
331.66132
331.66122
331.66118
331.66118
331.66121
331.66127
331.66136
331.66148
331.66148
331.66132
331.6614
331.66132
331.66129
331.66129
331.66133
331.66139
331.66148
331.66159
331.66158
331.66129
331.66136
331.66131
331.66129
331.6613
331.66133
331.66139
331.66148
331.66158
331.6615
339.57397
339.57411
339.57397
339.5739
339.57387
339.57388
339.57392
339.57399
339.57405
339.57402
339.57411
339.57414
339.574
339.57394
339.57391
339.57392
339.57397
339.57405
339.57414
339.57411
339.57397
339.574
339.57387
339.57381
339.57378
339.5738
339.57385
339.57394
339.57406
339.57405
339.5739
339.57394
339.57381
339.57374
339.57372
339.57374
339.5738
339.5739
339.57403
339.57403
339.57387
339.57391
339.57378
339.57372
339.57371
339.57373
339.57379
339.5739
339.57403
339.57404
339.57388
339.57392
339.5738
339.57374
339.57373
339.57376
339.57383
339.57393
339.57407
339.57407
339.57392
339.57397
339.57385
339.5738
339.57379
339.57383
339.5739
339.574
339.57414
339.57415
339.57399
339.57405
339.57394
339.5739
339.5739
339.57393
339.574
339.57411
339.57425
339.57425
339.57405
339.57414
339.57406
339.57403
339.57403
339.57407
339.57414
339.57425
339.57438
339.57437
339.57402
339.57411
339.57405
339.57403
339.57404
339.57407
339.57415
339.57425
339.57437
339.57428
347.45057
347.45072
347.45056
347.45049
347.45046
347.45047
347.45052
347.45059
347.45067
347.45064
347.45072
347.45074
347.45059
347.45052
347.4505
347.45051
347.45057
347.45066
347.45077
347.45073
347.45056
347.45059
347.45045
347.45038
347.45036
347.45038
347.45044
347.45054
347.45068
347.45067
347.45049
347.45052
347.45038
347.45032
347.4503
347.45032
347.45039
347.4505
347.45064
347.45065
347.45046
347.4505
347.45036
347.4503
347.45028
347.45031
347.45038
347.4505
347.45065
347.45066
347.45047
347.45051
347.45038
347.45032
347.45031
347.45034
347.45042
347.45054
347.45069
347.4507
347.45052
347.45057
347.45044
347.45039
347.45038
347.45042
347.4505
347.45062
347.45078
347.45079
347.45059
347.45066
347.45054
347.4505
347.4505
347.45054
347.45062
347.45074
347.4509
347.4509
347.45067
347.45077
347.45068
347.45064
347.45065
347.45069
347.45078
347.4509
347.45104
347.45104
347.45064
347.45073
347.45067
347.45065
347.45066
347.4507
347.45079
347.4509
347.45104
347.45093
355.29263
355.29278
355.29262
355.29254
355.29251
355.29253
355.29258
355.29267
355.29275
355.29272
355.29278
355.29281
355.29265
355.29258
355.29255
355.29257
355.29263
355.29273
355.29285
355.29282
355.29262
355.29265
355.2925
355.29243
355.2924
355.29243
355.29249
355.29261
355.29276
355.29276
355.29254
355.29258
355.29243
355.29236
355.29234
355.29237
355.29244
355.29256
355.29273
355.29273
355.29251
355.29255
355.2924
355.29234
355.29232
355.29236
355.29244
355.29257
355.29273
355.29274
355.29253
355.29257
355.29243
355.29237
355.29236
355.29239
355.29248
355.29261
355.29278
355.2928
355.29258
355.29263
355.29249
355.29244
355.29244
355.29248
355.29257
355.2927
355.29288
355.29289
355.29267
355.29273
355.29261
355.29256
355.29257
355.29261
355.2927
355.29284
355.29301
355.29302
355.29275
355.29285
355.29276
355.29273
355.29273
355.29278
355.29288
355.29301
355.29317
355.29317
355.29272
355.29282
355.29276
355.29273
355.29274
355.2928
355.29289
355.29302
355.29317
355.29306
363.10162
363.10178
363.1016
363.10152
363.10149
363.10151
363.10157
363.10166
363.10176
363.10173
363.10178
363.1018
363.10163
363.10155
363.10153
363.10155
363.10162
363.10173
363.10187
363.10183
363.1016
363.10163
363.10147
363.10139
363.10137
363.1014
363.10148
363.1016
363.10177
363.10177
363.10152
363.10155
363.10139
363.10132
363.1013
363.10134
363.10142
363.10156
363.10173
363.10174
363.10149
363.10153
363.10137
363.1013
363.10129
363.10133
363.10142
363.10156
363.10174
363.10176
363.10151
363.10155
363.1014
363.10134
363.10133
363.10137
363.10147
363.10161
363.1018
363.10182
363.10157
363.10162
363.10148
363.10142
363.10142
363.10147
363.10156
363.10171
363.1019
363.10192
363.10166
363.10173
363.1016
363.10156
363.10156
363.10161
363.10171
363.10186
363.10205
363.10206
363.10176
363.10187
363.10177
363.10173
363.10174
363.1018
363.1019
363.10205
363.10223
363.10222
363.10173
363.10183
363.10177
363.10174
363.10176
363.10182
363.10192
363.10206
363.10222
363.10211
370.87887
370.87903
370.87885
370.87876
370.87874
370.87876
370.87882
370.87893
370.87903
370.87901
370.87903
370.87905
370.87888
370.8788
370.87877
370.8788
370.87887
370.87899
370.87914
370.87911
370.87885
370.87888
370.87871
370.87863
370.87861
370.87864
370.87872
370.87886
370.87904
370.87904
370.87876
370.8788
370.87863
370.87856
370.87854
370.87858
370.87867
370.87881
370.879
370.87902
370.87874
370.87877
370.87861
370.87854
370.87853
370.87857
370.87867
370.87882
370.87902
370.87904
370.87876
370.8788
370.87864
370.87858
370.87857
370.87862
370.87872
370.87888
370.87908
370.8791
370.87882
370.87887
370.87872
370.87867
370.87867
370.87872
370.87883
370.87899
370.87919
370.87921
370.87893
370.87899
370.87886
370.87881
370.87882
370.87888
370.87899
370.87915
370.87935
370.87937
370.87903
370.87914
370.87904
370.879
370.87902
370.87908
370.87919
370.87935
370.87954
370.87954
370.87901
370.87911
370.87904
370.87902
370.87904
370.8791
370.87921
370.87937
370.87954
370.87942
378.6256
378.62577
378.62557
378.62549
378.62546
378.62549
378.62556
378.62567
378.62579
378.62576
378.62577
378.62578
378.6256
378.62552
378.6255
378.62552
378.62561
378.62574
378.6259
378.62586
378.62557
378.6256
378.62543
378.62535
378.62533
378.62536
378.62545
378.6256
378.62579
378.6258
378.62549
378.62552
378.62535
378.62527
378.62526
378.6253
378.6254
378.62555
378.62576
378.62578
378.62546
378.6255
378.62533
378.62526
378.62525
378.62529
378.6254
378.62556
378.62577
378.6258
378.62549
378.62552
378.62536
378.6253
378.62529
378.62535
378.62546
378.62563
378.62584
378.62587
378.62556
378.62561
378.62545
378.6254
378.6254
378.62546
378.62557
378.62574
378.62596
378.62598
378.62567
378.62574
378.6256
378.62555
378.62556
378.62563
378.62574
378.62591
378.62613
378.62615
378.62579
378.6259
378.62579
378.62576
378.62577
378.62584
378.62596
378.62613
378.62634
378.62634
378.62576
378.62586
378.6258
378.62578
378.6258
378.62587
378.62598
378.62615
378.62634
378.62622
386.34291
386.34308
386.34288
386.34279
386.34277
386.34279
386.34287
386.34299
386.34312
386.34309
386.34308
386.34309
386.34291
386.34282
386.3428
386.34283
386.34292
386.34306
386.34323
386.3432
386.34288
386.34291
386.34273
386.34265
386.34263
386.34266
386.34276
386.34292
386.34312
386.34313
386.34279
386.34282
386.34265
386.34257
386.34255
386.3426
386.3427
386.34287
386.34309
386.34311
386.34277
386.3428
386.34263
386.34255
386.34255
386.3426
386.34271
386.34288
386.34311
386.34313
386.34279
386.34283
386.34266
386.3426
386.3426
386.34265
386.34277
386.34295
386.34318
386.34321
386.34287
386.34292
386.34276
386.3427
386.34271
386.34277
386.34289
386.34307
386.3433
386.34333
386.34299
386.34306
386.34292
386.34287
386.34288
386.34295
386.34307
386.34326
386.34348
386.34351
386.34312
386.34323
386.34312
386.34309
386.34311
386.34318
386.3433
386.34348
386.3437
386.34371
386.34309
386.3432
386.34313
386.34311
386.34313
386.34321
386.34333
386.34351
386.34371
386.34358
394.03177
394.03194
394.03174
394.03165
394.03162
394.03165
394.03174
394.03186
394.032
394.03198
394.03194
394.03195
394.03176
394.03167
394.03165
394.03169
394.03178
394.03193
394.03211
394.03208
394.03174
394.03176
394.03158
394.03149
394.03148
394.03152
394.03162
394.03178
394.032
394.03201
394.03165
394.03167
394.03149
394.03142
394.0314
394.03145
394.03156
394.03174
394.03196
394.03199
394.03162
394.03165
394.03148
394.0314
394.0314
394.03145
394.03157
394.03175
394.03199
394.03202
394.03165
394.03169
394.03152
394.03145
394.03145
394.03151
394.03164
394.03182
394.03206
394.0321
394.03174
394.03178
394.03162
394.03156
394.03157
394.03164
394.03177
394.03196
394.0322
394.03223
394.03186
394.03193
394.03178
394.03174
394.03175
394.03182
394.03196
394.03215
394.03238
394.03242
394.032
394.03211
394.032
394.03196
394.03199
394.03206
394.0322
394.03238
394.03262
394.03263
394.03198
394.03208
394.03201
394.03199
394.03202
394.0321
394.03223
394.03242
394.03263
394.0325
401.69304
401.6932
401.693
401.69291
401.69288
401.69292
401.69301
401.69314
401.69328
401.69326
401.6932
401.69321
401.69302
401.69293
401.69291
401.69295
401.69305
401.6932
401.69339
401.69337
401.693
401.69302
401.69283
401.69275
401.69273
401.69278
401.69289
401.69306
401.69328
401.6933
401.69291
401.69293
401.69275
401.69267
401.69266
401.69271
401.69283
401.69301
401.69325
401.69328
401.69288
401.69291
401.69273
401.69266
401.69266
401.69272
401.69284
401.69303
401.69327
401.69331
401.69292
401.69295
401.69278
401.69271
401.69272
401.69278
401.69291
401.69311
401.69335
401.69339
401.69301
401.69305
401.69289
401.69283
401.69284
401.69291
401.69304
401.69324
401.69349
401.69353
401.69314
401.6932
401.69306
401.69301
401.69303
401.69311
401.69324
401.69344
401.69369
401.69373
401.69328
401.69339
401.69328
401.69325
401.69327
401.69335
401.69349
401.69369
401.69393
401.69395
401.69326
401.69337
401.6933
401.69328
401.69331
401.69339
401.69353
401.69373
401.69395
401.69382
409.32746
409.32761
409.32741
409.32732
409.32729
409.32733
409.32743
409.32756
409.32771
409.3277
409.32761
409.32762
409.32743
409.32734
409.32732
409.32736
409.32746
409.32762
409.32782
409.3278
409.32741
409.32743
409.32724
409.32715
409.32714
409.32719
409.3273
409.32748
409.32771
409.32773
409.32732
409.32734
409.32715
409.32708
409.32707
409.32712
409.32724
409.32743
409.32768
409.32771
409.32729
409.32732
409.32714
409.32707
409.32706
409.32713
409.32726
409.32745
409.3277
409.32774
409.32733
409.32736
409.32719
409.32712
409.32713
409.3272
409.32733
409.32753
409.32779
409.32783
409.32743
409.32746
409.3273
409.32724
409.32726
409.32733
409.32747
409.32767
409.32793
409.32798
409.32756
409.32762
409.32748
409.32743
409.32745
409.32753
409.32767
409.32788
409.32814
409.32818
409.32771
409.32782
409.32771
409.32768
409.3277
409.32779
409.32793
409.32814
409.32838
409.3284
409.3277
409.3278
409.32773
409.32771
409.32774
409.32783
409.32798
409.32818
409.3284
409.32828
416.93564
416.93579
416.93559
416.9355
416.93548
416.93552
416.93561
416.93576
416.93591
416.9359
416.93579
416.9358
416.9356
416.93552
416.9355
416.93554
416.93565
416.93581
416.93602
416.936
416.93559
416.9356
416.93541
416.93533
416.93532
416.93537
416.93549
416.93567
416.9359
416.93593
416.9355
416.93552
416.93533
416.93525
416.93525
416.93531
416.93543
416.93562
416.93587
416.93591
416.93548
416.9355
416.93532
416.93525
416.93525
416.93531
416.93544
416.93564
416.9359
416.93595
416.93552
416.93554
416.93537
416.93531
416.93531
416.93538
416.93552
416.93573
416.93599
416.93604
416.93561
416.93565
416.93549
416.93543
416.93544
416.93552
416.93567
416.93587
416.93614
416.93619
416.93576
416.93581
416.93567
416.93562
416.93564
416.93573
416.93587
416.93608
416.93635
416.93639
416.93591
416.93602
416.9359
416.93587
416.9359
416.93599
416.93614
416.93635
416.9366
416.93663
416.9359
416.936
416.93593
416.93591
416.93595
416.93604
416.93619
416.93639
416.93663
416.9365
424.51811
424.51826
424.51805
424.51796
424.51795
424.51799
424.51809
424.51824
424.51839
424.51838
424.51826
424.51826
424.51807
424.51798
424.51796
424.51801
424.51812
424.51829
424.5185
424.51848
424.51805
424.51807
424.51788
424.5178
424.51779
424.51784
424.51796
424.51814
424.51839
424.51842
424.51796
424.51798
424.5178
424.51772
424.51772
424.51778
424.51791
424.5181
424.51836
424.5184
424.51795
424.51796
424.51779
424.51772
424.51772
424.51778
424.51792
424.51813
424.51839
424.51844
424.51799
424.51801
424.51784
424.51778
424.51778
424.51786
424.518
424.51821
424.51848
424.51853
424.51809
424.51812
424.51796
424.51791
424.51792
424.518
424.51815
424.51836
424.51863
424.51868
424.51824
424.51829
424.51814
424.5181
424.51813
424.51821
424.51836
424.51858
424.51884
424.51889
424.51839
424.5185
424.51839
424.51836
424.51839
424.51848
424.51863
424.51884
424.5191
424.51913
424.51838
424.51848
424.51842
424.5184
424.51844
424.51853
424.51868
424.51889
424.51913
424.51901
432.07528
432.07542
432.07521
432.07513
432.07511
432.07516
432.07526
432.07541
432.07557
432.07556
432.07542
432.07542
432.07523
432.07514
432.07513
432.07518
432.07529
432.07546
432.07567
432.07566
432.07521
432.07523
432.07504
432.07496
432.07495
432.07501
432.07513
432.07532
432.07556
432.0756
432.07513
432.07514
432.07496
432.07489
432.07488
432.07495
432.07508
432.07528
432.07554
432.07558
432.07511
432.07513
432.07495
432.07488
432.07489
432.07496
432.07509
432.0753
432.07557
432.07562
432.07516
432.07518
432.07501
432.07495
432.07496
432.07503
432.07518
432.07539
432.07566
432.07572
432.07526
432.07529
432.07513
432.07508
432.07509
432.07518
432.07533
432.07554
432.07581
432.07587
432.07541
432.07546
432.07532
432.07528
432.0753
432.07539
432.07554
432.07576
432.07603
432.07608
432.07557
432.07567
432.07556
432.07554
432.07557
432.07566
432.07581
432.07603
432.07629
432.07633
432.07556
432.07566
432.0756
432.07558
432.07562
432.07572
432.07587
432.07608
432.07633
432.07621
439.60745
439.60758
439.60738
439.6073
439.60728
439.60733
439.60743
439.60759
439.60775
439.60775
439.60758
439.60758
439.60739
439.60731
439.6073
439.60735
439.60746
439.60763
439.60785
439.60784
439.60738
439.60739
439.60721
439.60713
439.60712
439.60718
439.6073
439.60749
439.60774
439.60778
439.6073
439.60731
439.60713
439.60706
439.60706
439.60712
439.60725
439.60745
439.60771
439.60777
439.60728
439.6073
439.60712
439.60706
439.60706
439.60713
439.60727
439.60748
439.60775
439.60781
439.60733
439.60735
439.60718
439.60712
439.60713
439.60721
439.60736
439.60757
439.60784
439.6079
439.60743
439.60746
439.6073
439.60725
439.60727
439.60736
439.60751
439.60772
439.608
439.60806
439.60759
439.60763
439.60749
439.60745
439.60748
439.60757
439.60772
439.60794
439.60821
439.60827
439.60775
439.60785
439.60774
439.60771
439.60775
439.60784
439.608
439.60821
439.60848
439.60852
439.60775
439.60784
439.60778
439.60777
439.60781
439.6079
439.60806
439.60827
439.60852
439.6084
447.11483
447.11495
447.11476
447.11468
447.11467
447.11471
447.11482
447.11497
447.11514
447.11514
447.11495
447.11495
447.11476
447.11469
447.11468
447.11473
447.11484
447.11502
447.11523
447.11523
447.11476
447.11476
447.11459
447.11451
447.11451
447.11457
447.11469
447.11488
447.11513
447.11517
447.11468
447.11469
447.11451
447.11444
447.11444
447.11451
447.11464
447.11484
447.1151
447.11516
447.11467
447.11468
447.11451
447.11444
447.11445
447.11452
447.11466
447.11487
447.11514
447.1152
447.11471
447.11473
447.11457
447.11451
447.11452
447.1146
447.11475
447.11496
447.11524
447.1153
447.11482
447.11484
447.11469
447.11464
447.11466
447.11475
447.1149
447.11512
447.11539
447.11545
447.11497
447.11502
447.11488
447.11484
447.11487
447.11496
447.11512
447.11534
447.11561
447.11567
447.11514
447.11523
447.11513
447.1151
447.11514
447.11524
447.11539
447.11561
447.11587
447.11591
447.11514
447.11523
447.11517
447.11516
447.1152
447.1153
447.11545
447.11567
447.11591
447.1158
454.59754
454.59766
454.59747
454.59739
454.59738
454.59743
454.59754
454.59769
454.59785
454.59786
454.59766
454.59765
454.59747
454.5974
454.59739
454.59744
454.59756
454.59773
454.59794
454.59795
454.59747
454.59747
454.5973
454.59723
454.59722
454.59729
454.59741
454.5976
454.59784
454.59789
454.59739
454.5974
454.59723
454.59716
454.59716
454.59723
454.59736
454.59756
454.59782
454.59788
454.59738
454.59739
454.59722
454.59716
454.59717
454.59725
454.59739
454.59759
454.59786
454.59792
454.59743
454.59744
454.59729
454.59723
454.59725
454.59733
454.59747
454.59768
454.59795
454.59802
454.59754
454.59756
454.59741
454.59736
454.59739
454.59747
454.59762
454.59784
454.59811
454.59817
454.59769
454.59773
454.5976
454.59756
454.59759
454.59768
454.59784
454.59805
454.59832
454.59838
454.59785
454.59794
454.59784
454.59782
454.59786
454.59795
454.59811
454.59832
454.59859
454.59863
454.59786
454.59795
454.59789
454.59788
454.59792
454.59802
454.59817
454.59838
454.59863
454.59853
462.05561
462.05572
462.05554
462.05546
462.05545
462.0555
462.05561
462.05576
462.05592
462.05593
462.05572
462.05571
462.05554
462.05546
462.05546
462.05551
462.05563
462.0558
462.05601
462.05602
462.05554
462.05554
462.05537
462.0553
462.0553
462.05536
462.05549
462.05567
462.05591
462.05596
462.05546
462.05546
462.0553
462.05524
462.05525
462.05531
462.05544
462.05564
462.0559
462.05595
462.05545
462.05546
462.0553
462.05525
462.05526
462.05533
462.05547
462.05567
462.05593
462.056
462.0555
462.05551
462.05536
462.05531
462.05533
462.05541
462.05555
462.05576
462.05603
462.05609
462.05561
462.05563
462.05549
462.05544
462.05547
462.05555
462.0557
462.05591
462.05618
462.05625
462.05576
462.0558
462.05567
462.05564
462.05567
462.05576
462.05591
462.05613
462.05639
462.05646
462.05592
462.05601
462.05591
462.0559
462.05593
462.05603
462.05618
462.05639
462.05665
462.0567
462.05593
462.05602
462.05596
462.05595
462.056
462.05609
462.05625
462.05646
462.0567
462.0566
469.48898
469.48908
469.48891
469.48884
469.48883
469.48888
469.48899
469.48914
469.4893
469.48931
469.48908
469.48907
469.48891
469.48884
469.48884
469.48889
469.48901
469.48917
469.48938
469.48939
469.48891
469.48891
469.48875
469.48869
469.48869
469.48875
469.48887
469.48905
469.48929
469.48934
469.48884
469.48884
469.48869
469.48863
469.48863
469.4887
469.48883
469.48902
469.48927
469.48933
469.48883
469.48884
469.48869
469.48863
469.48865
469.48872
469.48886
469.48906
469.48931
469.48938
469.48888
469.48889
469.48875
469.4887
469.48872
469.4888
469.48894
469.48915
469.48941
469.48947
469.48899
469.48901
469.48887
469.48883
469.48886
469.48894
469.48909
469.48929
469.48956
469.48962
469.48914
469.48917
469.48905
469.48902
469.48906
469.48915
469.48929
469.4895
469.48976
469.48983
469.4893
469.48938
469.48929
469.48927
469.48931
469.48941
469.48956
469.48976
469.49002
469.49006
469.48931
469.48939
469.48934
469.48933
469.48938
469.48947
469.48962
469.48983
469.49006
469.48997
476.89753
476.89762
476.89746
476.89739
476.89739
476.89744
476.89754
476.89769
476.89785
476.89786
476.89762
476.89761
476.89745
476.89739
476.89739
476.89745
476.89756
476.89772
476.89792
476.89794
476.89746
476.89745
476.89731
476.89725
476.89725
476.89731
476.89743
476.89761
476.89784
476.89789
476.89739
476.89739
476.89725
476.89719
476.8972
476.89727
476.8974
476.89758
476.89782
476.89788
476.89739
476.89739
476.89725
476.8972
476.89722
476.89729
476.89742
476.89762
476.89786
476.89793
476.89744
476.89745
476.89731
476.89727
476.89729
476.89737
476.89751
476.8977
476.89796
476.89802
476.89754
476.89756
476.89743
476.8974
476.89742
476.89751
476.89765
476.89785
476.8981
476.89817
476.89769
476.89772
476.89761
476.89758
476.89762
476.8977
476.89785
476.89805
476.8983
476.89837
476.89785
476.89792
476.89784
476.89782
476.89786
476.89796
476.8981
476.8983
476.89855
476.8986
476.89786
476.89794
476.89789
476.89788
476.89793
476.89802
476.89817
476.89837
476.8986
476.89851
484.28106
484.28114
484.28099
484.28093
484.28092
484.28098
484.28108
484.28122
484.28137
484.28139
484.28114
484.28112
484.28098
484.28092
484.28092
484.28098
484.28109
484.28125
484.28144
484.28146
484.28099
484.28098
484.28084
484.28079
484.28079
484.28085
484.28097
484.28114
484.28136
484.28141
484.28093
484.28092
484.28079
484.28074
484.28075
484.28081
484.28094
484.28112
484.28135
484.28141
484.28092
484.28092
484.28079
484.28075
484.28076
484.28083
484.28096
484.28115
484.28139
484.28145
484.28098
484.28098
484.28085
484.28081
484.28083
484.28091
484.28105
484.28124
484.28148
484.28155
484.28108
484.28109
484.28097
484.28094
484.28096
484.28105
484.28118
484.28138
484.28162
484.28169
484.28122
484.28125
484.28114
484.28112
484.28115
484.28124
484.28138
484.28157
484.28182
484.28188
484.28137
484.28144
484.28136
484.28135
484.28139
484.28148
484.28162
484.28182
484.28205
484.2821
484.28139
484.28146
484.28141
484.28141
484.28145
484.28155
484.28169
484.28188
484.2821
484.28202
491.63929
491.63937
491.63923
491.63917
491.63917
491.63922
491.63932
491.63946
491.6396
491.63962
491.63937
491.63935
491.63922
491.63917
491.63917
491.63923
491.63933
491.63948
491.63967
491.63968
491.63923
491.63922
491.63909
491.63904
491.63905
491.63911
491.63922
491.63938
491.6396
491.63965
491.63917
491.63917
491.63904
491.639
491.63901
491.63907
491.63919
491.63937
491.63959
491.63965
491.63917
491.63917
491.63905
491.63901
491.63903
491.6391
491.63922
491.6394
491.63963
491.63969
491.63922
491.63923
491.63911
491.63907
491.6391
491.63917
491.6393
491.63948
491.63971
491.63978
491.63932
491.63933
491.63922
491.63919
491.63922
491.6393
491.63943
491.63962
491.63985
491.63992
491.63946
491.63948
491.63938
491.63937
491.6394
491.63948
491.63962
491.6398
491.64004
491.6401
491.6396
491.63967
491.6396
491.63959
491.63963
491.63971
491.63985
491.64004
491.64026
491.64031
491.63962
491.63968
491.63965
491.63965
491.63969
491.63978
491.63992
491.6401
491.64031
491.64024
498.97192
498.97199
498.97186
498.97181
498.97181
498.97186
498.97195
498.97208
498.97222
498.97224
498.97199
498.97197
498.97185
498.9718
498.97181
498.97186
498.97196
498.97211
498.97228
498.9723
498.97186
498.97185
498.97173
498.97169
498.9717
498.97176
498.97186
498.97202
498.97222
498.97227
498.97181
498.9718
498.97169
498.97165
498.97166
498.97173
498.97184
498.972
498.97221
498.97227
498.97181
498.97181
498.9717
498.97166