/*--------------------------------*- C++ -*----------------------------------*\
| =========                 |                                                 |
| \\      /  F ield         | OpenFOAM: The Open Source CFD Toolbox           |
|  \\    /   O peration     | Version:  v2106                                 |
|   \\  /    A nd           | Website:  www.openfoam.com                      |
|    \\/     M anipulation  |                                                 |
\*---------------------------------------------------------------------------*/
FoamFile
{
    version     2.0;
    format      ascii;
    arch        "LSB;label=32;scalar=64";
    class       volScalarField;
    location    "50";
    object      Tmode1;
}
// * * * * * * * * * * * * * * * * * * * * * * * * * * * * * * * * * * * * * //

dimensions      [0 0 0 0 0 0 0];

internalField   nonuniform List<scalar> 
4000
(
-0.020915534
-0.020915533
-0.020915532
-0.020915536
-0.020915537
-0.020915536
-0.020915535
-0.020915533
-0.020915532
-0.020915532
-0.020915533
-0.020915532
-0.020915533
-0.020915537
-0.020915537
-0.020915536
-0.020915534
-0.020915533
-0.020915532
-0.020915532
-0.020915532
-0.020915533
-0.020915535
-0.020915538
-0.020915538
-0.020915537
-0.020915535
-0.020915534
-0.020915533
-0.020915532
-0.020915536
-0.020915537
-0.020915538
-0.02091554
-0.020915541
-0.020915539
-0.020915538
-0.020915536
-0.020915535
-0.020915534
-0.020915537
-0.020915537
-0.020915538
-0.020915541
-0.020915541
-0.02091554
-0.020915539
-0.020915537
-0.020915536
-0.020915535
-0.020915536
-0.020915536
-0.020915537
-0.020915539
-0.02091554
-0.020915539
-0.020915538
-0.020915537
-0.020915536
-0.020915535
-0.020915535
-0.020915534
-0.020915535
-0.020915538
-0.020915539
-0.020915538
-0.020915537
-0.020915536
-0.020915535
-0.020915535
-0.020915533
-0.020915533
-0.020915534
-0.020915536
-0.020915537
-0.020915537
-0.020915536
-0.020915535
-0.020915534
-0.020915534
-0.020915532
-0.020915532
-0.020915533
-0.020915535
-0.020915536
-0.020915536
-0.020915535
-0.020915534
-0.020915533
-0.020915532
-0.020915532
-0.020915532
-0.020915532
-0.020915534
-0.020915535
-0.020915535
-0.020915535
-0.020915534
-0.020915532
-0.020915532
-0.018489305
-0.018489305
-0.018489305
-0.018489313
-0.018489316
-0.018489314
-0.018489309
-0.018489305
-0.018489303
-0.018489301
-0.018489305
-0.018489303
-0.018489308
-0.018489316
-0.018489318
-0.018489314
-0.01848931
-0.018489306
-0.018489303
-0.018489302
-0.018489305
-0.018489308
-0.018489313
-0.01848932
-0.018489321
-0.018489317
-0.018489313
-0.018489309
-0.018489305
-0.018489305
-0.018489313
-0.018489316
-0.01848932
-0.018489326
-0.018489327
-0.018489324
-0.01848932
-0.018489315
-0.018489311
-0.018489309
-0.018489316
-0.018489318
-0.018489321
-0.018489327
-0.018489328
-0.018489326
-0.018489322
-0.018489318
-0.018489314
-0.018489312
-0.018489314
-0.018489314
-0.018489317
-0.018489324
-0.018489326
-0.018489324
-0.018489321
-0.018489317
-0.018489314
-0.018489312
-0.018489309
-0.01848931
-0.018489313
-0.01848932
-0.018489322
-0.018489321
-0.018489319
-0.018489315
-0.018489312
-0.01848931
-0.018489305
-0.018489306
-0.018489309
-0.018489315
-0.018489318
-0.018489317
-0.018489315
-0.018489312
-0.018489308
-0.018489307
-0.018489303
-0.018489303
-0.018489305
-0.018489311
-0.018489314
-0.018489314
-0.018489312
-0.018489308
-0.018489305
-0.018489303
-0.018489301
-0.018489302
-0.018489305
-0.018489309
-0.018489312
-0.018489312
-0.01848931
-0.018489307
-0.018489303
-0.018489302
-0.016072182
-0.016072184
-0.016072187
-0.016072198
-0.016072202
-0.016072197
-0.01607219
-0.016072184
-0.016072179
-0.016072176
-0.016072184
-0.016072183
-0.016072191
-0.016072203
-0.016072204
-0.016072199
-0.016072192
-0.016072185
-0.01607218
-0.016072179
-0.016072187
-0.016072191
-0.0160722
-0.016072209
-0.01607221
-0.016072205
-0.016072198
-0.01607219
-0.016072185
-0.016072183
-0.016072198
-0.016072203
-0.016072209
-0.016072218
-0.016072219
-0.016072214
-0.016072208
-0.0160722
-0.016072193
-0.01607219
-0.016072202
-0.016072204
-0.01607221
-0.016072219
-0.01607222
-0.016072217
-0.016072211
-0.016072204
-0.016072197
-0.016072194
-0.016072197
-0.016072199
-0.016072205
-0.016072214
-0.016072217
-0.016072214
-0.01607221
-0.016072203
-0.016072197
-0.016072194
-0.01607219
-0.016072192
-0.016072198
-0.016072208
-0.016072211
-0.01607221
-0.016072206
-0.0160722
-0.016072194
-0.016072191
-0.016072184
-0.016072185
-0.01607219
-0.0160722
-0.016072204
-0.016072203
-0.0160722
-0.016072194
-0.016072188
-0.016072185
-0.016072179
-0.01607218
-0.016072185
-0.016072193
-0.016072197
-0.016072197
-0.016072194
-0.016072188
-0.016072182
-0.016072179
-0.016072176
-0.016072179
-0.016072183
-0.01607219
-0.016072194
-0.016072194
-0.016072191
-0.016072185
-0.016072179
-0.016072177
-0.013670341
-0.013670344
-0.013670349
-0.013670363
-0.013670368
-0.013670361
-0.013670352
-0.013670343
-0.013670336
-0.013670332
-0.013670344
-0.013670345
-0.013670356
-0.01367037
-0.013670371
-0.013670364
-0.013670355
-0.013670345
-0.013670338
-0.013670336
-0.013670349
-0.013670356
-0.013670366
-0.013670378
-0.013670379
-0.013670372
-0.013670363
-0.013670352
-0.013670344
-0.013670342
-0.013670363
-0.01367037
-0.013670378
-0.013670389
-0.01367039
-0.013670384
-0.013670375
-0.013670364
-0.013670355
-0.013670351
-0.013670368
-0.013670371
-0.013670379
-0.01367039
-0.013670392
-0.013670388
-0.01367038
-0.01367037
-0.013670361
-0.013670356
-0.013670361
-0.013670364
-0.013670372
-0.013670384
-0.013670388
-0.013670385
-0.013670379
-0.013670369
-0.013670361
-0.013670357
-0.013670352
-0.013670355
-0.013670363
-0.013670375
-0.01367038
-0.013670379
-0.013670374
-0.013670365
-0.013670356
-0.013670352
-0.013670343
-0.013670345
-0.013670352
-0.013670364
-0.01367037
-0.013670369
-0.013670365
-0.013670356
-0.013670347
-0.013670343
-0.013670336
-0.013670338
-0.013670344
-0.013670355
-0.013670361
-0.013670361
-0.013670356
-0.013670347
-0.013670339
-0.013670336
-0.013670332
-0.013670336
-0.013670342
-0.013670351
-0.013670356
-0.013670357
-0.013670352
-0.013670343
-0.013670336
-0.013670333
-0.011290112
-0.011290116
-0.011290122
-0.011290139
-0.011290144
-0.011290136
-0.011290125
-0.011290113
-0.011290104
-0.011290099
-0.011290116
-0.011290117
-0.01129013
-0.011290146
-0.011290149
-0.01129014
-0.011290128
-0.011290115
-0.011290106
-0.011290103
-0.011290122
-0.01129013
-0.011290142
-0.011290157
-0.011290158
-0.01129015
-0.011290138
-0.011290124
-0.011290114
-0.011290111
-0.011290139
-0.011290146
-0.011290157
-0.01129017
-0.011290172
-0.011290165
-0.011290154
-0.011290139
-0.011290127
-0.011290122
-0.011290144
-0.011290149
-0.011290158
-0.011290172
-0.011290175
-0.01129017
-0.01129016
-0.011290146
-0.011290135
-0.011290129
-0.011290136
-0.01129014
-0.01129015
-0.011290165
-0.01129017
-0.011290167
-0.011290159
-0.011290146
-0.011290135
-0.01129013
-0.011290125
-0.011290128
-0.011290138
-0.011290154
-0.01129016
-0.011290159
-0.011290153
-0.01129014
-0.011290129
-0.011290124
-0.011290113
-0.011290115
-0.011290124
-0.011290139
-0.011290146
-0.011290146
-0.01129014
-0.011290128
-0.011290117
-0.011290111
-0.011290104
-0.011290106
-0.011290114
-0.011290127
-0.011290135
-0.011290135
-0.011290129
-0.011290117
-0.011290106
-0.011290103
-0.011290099
-0.011290103
-0.011290111
-0.011290122
-0.011290129
-0.01129013
-0.011290124
-0.011290111
-0.011290103
-0.0112901
-0.0089380436
-0.0089380478
-0.0089380552
-0.0089380741
-0.0089380802
-0.0089380716
-0.0089380579
-0.0089380433
-0.008938032
-0.008938026
-0.0089380478
-0.0089380493
-0.0089380638
-0.0089380827
-0.0089380859
-0.0089380764
-0.0089380622
-0.0089380461
-0.0089380351
-0.0089380313
-0.0089380552
-0.0089380638
-0.0089380782
-0.0089380946
-0.0089380969
-0.008938088
-0.0089380737
-0.0089380561
-0.0089380439
-0.0089380404
-0.0089380741
-0.0089380827
-0.0089380946
-0.0089381099
-0.0089381129
-0.0089381055
-0.0089380922
-0.0089380739
-0.0089380596
-0.008938054
-0.0089380802
-0.0089380859
-0.0089380969
-0.0089381129
-0.0089381175
-0.0089381124
-0.0089381012
-0.0089380839
-0.0089380695
-0.008938063
-0.0089380716
-0.0089380764
-0.008938088
-0.0089381055
-0.0089381124
-0.0089381097
-0.0089381006
-0.0089380847
-0.0089380709
-0.0089380645
-0.0089380579
-0.0089380622
-0.0089380737
-0.0089380922
-0.0089381012
-0.0089381006
-0.0089380928
-0.0089380774
-0.0089380635
-0.0089380565
-0.0089380433
-0.0089380461
-0.0089380561
-0.0089380739
-0.0089380839
-0.0089380847
-0.0089380774
-0.0089380617
-0.0089380472
-0.0089380404
-0.008938032
-0.0089380351
-0.0089380439
-0.0089380596
-0.0089380695
-0.0089380709
-0.0089380635
-0.0089380472
-0.0089380334
-0.0089380302
-0.008938026
-0.0089380313
-0.0089380404
-0.008938054
-0.008938063
-0.0089380645
-0.0089380565
-0.0089380404
-0.0089380302
-0.0089380268
-0.0066209679
-0.0066209725
-0.0066209811
-0.0066210022
-0.0066210097
-0.0066210004
-0.0066209848
-0.0066209676
-0.0066209543
-0.0066209474
-0.0066209725
-0.0066209743
-0.0066209906
-0.006621012
-0.0066210163
-0.0066210061
-0.0066209898
-0.0066209709
-0.0066209579
-0.0066209534
-0.0066209811
-0.0066209906
-0.0066210068
-0.0066210256
-0.0066210291
-0.0066210196
-0.0066210034
-0.0066209827
-0.0066209683
-0.0066209643
-0.0066210022
-0.006621012
-0.0066210256
-0.0066210433
-0.0066210476
-0.00662104
-0.0066210249
-0.0066210034
-0.0066209867
-0.0066209802
-0.0066210097
-0.0066210163
-0.0066210291
-0.0066210476
-0.006621054
-0.0066210491
-0.0066210364
-0.0066210159
-0.0066209989
-0.0066209914
-0.0066210004
-0.0066210061
-0.0066210196
-0.00662104
-0.0066210491
-0.0066210469
-0.0066210366
-0.0066210177
-0.0066210014
-0.0066209937
-0.0066209848
-0.0066209898
-0.0066210034
-0.0066210249
-0.0066210364
-0.0066210366
-0.0066210278
-0.0066210093
-0.0066209926
-0.006620984
-0.0066209676
-0.0066209709
-0.0066209827
-0.0066210034
-0.0066210159
-0.0066210177
-0.0066210093
-0.0066209902
-0.0066209727
-0.0066209646
-0.0066209543
-0.0066209579
-0.0066209683
-0.0066209867
-0.0066209989
-0.0066210014
-0.0066209926
-0.0066209727
-0.0066209563
-0.0066209528
-0.0066209474
-0.0066209534
-0.0066209643
-0.0066209802
-0.0066209914
-0.0066209937
-0.006620984
-0.0066209646
-0.0066209528
-0.0066209489
-0.0043460696
-0.0043460746
-0.0043460845
-0.0043461078
-0.0043461169
-0.0043461071
-0.0043460898
-0.0043460703
-0.0043460551
-0.0043460475
-0.0043460746
-0.0043460768
-0.0043460947
-0.0043461187
-0.0043461244
-0.0043461138
-0.0043460958
-0.0043460742
-0.0043460593
-0.0043460542
-0.0043460845
-0.0043460947
-0.004346113
-0.0043461342
-0.0043461391
-0.0043461293
-0.0043461113
-0.0043460878
-0.0043460715
-0.004346067
-0.0043461078
-0.0043461187
-0.0043461342
-0.0043461543
-0.0043461603
-0.0043461527
-0.004346136
-0.0043461114
-0.0043460926
-0.0043460854
-0.0043461169
-0.0043461244
-0.0043461391
-0.0043461603
-0.0043461687
-0.0043461642
-0.0043461502
-0.0043461267
-0.0043461074
-0.0043460989
-0.0043461071
-0.0043461138
-0.0043461293
-0.0043461527
-0.0043461642
-0.0043461629
-0.0043461516
-0.0043461298
-0.004346111
-0.0043461021
-0.0043460898
-0.0043460958
-0.0043461113
-0.004346136
-0.0043461502
-0.0043461516
-0.0043461419
-0.0043461205
-0.004346101
-0.0043460908
-0.0043460703
-0.0043460742
-0.0043460878
-0.0043461114
-0.0043461267
-0.0043461298
-0.0043461205
-0.0043460981
-0.0043460776
-0.0043460681
-0.0043460551
-0.0043460593
-0.0043460715
-0.0043460926
-0.0043461074
-0.004346111
-0.004346101
-0.0043460776
-0.0043460586
-0.0043460549
-0.0043460475
-0.0043460542
-0.004346067
-0.0043460854
-0.0043460989
-0.0043461021
-0.0043460908
-0.0043460681
-0.0043460549
-0.0043460505
-0.0021209519
-0.0021209573
-0.0021209685
-0.0021209939
-0.0021210049
-0.0021209949
-0.0021209761
-0.0021209545
-0.0021209374
-0.0021209292
-0.0021209573
-0.0021209599
-0.0021209795
-0.0021210061
-0.0021210135
-0.0021210025
-0.0021209829
-0.0021209589
-0.0021209423
-0.0021209366
-0.0021209685
-0.0021209795
-0.0021209998
-0.0021210235
-0.00212103
-0.0021210201
-0.0021210006
-0.0021209744
-0.0021209563
-0.0021209513
-0.0021209939
-0.0021210061
-0.0021210235
-0.0021210461
-0.0021210539
-0.0021210465
-0.0021210284
-0.002121001
-0.0021209802
-0.0021209723
-0.0021210049
-0.0021210135
-0.00212103
-0.0021210539
-0.0021210646
-0.0021210607
-0.0021210455
-0.0021210193
-0.0021209978
-0.0021209884
-0.0021209949
-0.0021210025
-0.0021210201
-0.0021210465
-0.0021210607
-0.0021210605
-0.0021210483
-0.0021210239
-0.0021210028
-0.0021209926
-0.0021209761
-0.0021209829
-0.0021210006
-0.0021210284
-0.0021210455
-0.0021210483
-0.0021210379
-0.0021210137
-0.0021209917
-0.0021209799
-0.0021209545
-0.0021209589
-0.0021209744
-0.002121001
-0.0021210193
-0.0021210239
-0.0021210137
-0.0021209883
-0.002120965
-0.0021209542
-0.0021209374
-0.0021209423
-0.0021209563
-0.0021209802
-0.0021209978
-0.0021210028
-0.0021209917
-0.002120965
-0.0021209435
-0.0021209395
-0.0021209292
-0.0021209366
-0.0021209513
-0.0021209723
-0.0021209884
-0.0021209926
-0.0021209799
-0.0021209542
-0.0021209395
-0.0021209346
4.6293061e-05
4.6287283e-05
4.6274591e-05
4.624718e-05
4.6234198e-05
4.6244171e-05
4.6264278e-05
4.6287977e-05
4.6306699e-05
4.6315433e-05
4.6287283e-05
4.6284118e-05
4.6262902e-05
4.6233764e-05
4.622455e-05
4.6235538e-05
4.6256572e-05
4.6282807e-05
4.6301154e-05
4.6307412e-05
4.6274591e-05
4.6262902e-05
4.6240693e-05
4.6214421e-05
4.6206031e-05
4.6215848e-05
4.6236888e-05
4.6265459e-05
4.6285099e-05
4.6290559e-05
4.624718e-05
4.6233764e-05
4.6214421e-05
4.6189304e-05
4.6179391e-05
4.6186427e-05
4.6205914e-05
4.6235858e-05
4.6258482e-05
4.6266933e-05
4.6234198e-05
4.622455e-05
4.6206031e-05
4.6179391e-05
4.6166253e-05
4.6169311e-05
4.6185555e-05
4.6214354e-05
4.6237898e-05
4.6248228e-05
4.6244171e-05
4.6235538e-05
4.6215848e-05
4.6186427e-05
4.6169311e-05
4.6168273e-05
4.6181209e-05
4.6208129e-05
4.6231399e-05
4.624279e-05
4.6264278e-05
4.6256572e-05
4.6236888e-05
4.6205914e-05
4.6185555e-05
4.6181209e-05
4.6192269e-05
4.6219028e-05
4.6243527e-05
4.625685e-05
4.6287977e-05
4.6282807e-05
4.6265459e-05
4.6235858e-05
4.6214354e-05
4.6208129e-05
4.6219028e-05
4.624736e-05
4.6273327e-05
4.6285389e-05
4.6306699e-05
4.6301154e-05
4.6285099e-05
4.6258482e-05
4.6237898e-05
4.6231399e-05
4.6243527e-05
4.6273327e-05
4.6297127e-05
4.6301344e-05
4.6315433e-05
4.6307412e-05
4.6290559e-05
4.6266933e-05
4.6248228e-05
4.624279e-05
4.625685e-05
4.6285389e-05
4.6301344e-05
4.6306802e-05
0.0021470109
0.0021470047
0.0021469906
0.0021469613
0.0021469461
0.0021469558
0.0021469771
0.0021470027
0.002147023
0.002147032
0.0021470047
0.002147001
0.0021469782
0.0021469466
0.0021469353
0.0021469462
0.0021469685
0.0021469968
0.0021470167
0.0021470235
0.0021469906
0.0021469782
0.0021469541
0.0021469253
0.0021469148
0.0021469244
0.0021469468
0.0021469775
0.0021469986
0.0021470044
0.0021469613
0.0021469466
0.0021469253
0.0021468976
0.0021468854
0.0021468919
0.0021469127
0.002146945
0.0021469692
0.0021469781
0.0021469461
0.0021469353
0.0021469148
0.0021468854
0.0021468696
0.0021468717
0.0021468889
0.0021469201
0.0021469455
0.0021469566
0.0021469558
0.0021469462
0.0021469244
0.0021468919
0.0021468717
0.0021468692
0.0021468828
0.0021469121
0.0021469373
0.0021469499
0.0021469771
0.0021469685
0.0021469468
0.0021469127
0.0021468889
0.0021468828
0.0021468944
0.0021469236
0.0021469504
0.0021469652
0.0021470027
0.0021469968
0.0021469775
0.002146945
0.0021469201
0.0021469121
0.0021469236
0.0021469546
0.0021469831
0.0021469963
0.002147023
0.0021470167
0.0021469986
0.0021469692
0.0021469455
0.0021469373
0.0021469504
0.0021469831
0.002147009
0.0021470134
0.002147032
0.0021470235
0.0021470044
0.0021469781
0.0021469566
0.0021469499
0.0021469652
0.0021469963
0.0021470134
0.0021470194
0.0041719088
0.0041719023
0.0041718867
0.0041718557
0.004171838
0.0041718474
0.0041718698
0.0041718971
0.0041719187
0.004171928
0.0041719023
0.004171898
0.0041718738
0.0041718397
0.0041718261
0.0041718367
0.0041718602
0.0041718904
0.0041719117
0.004171919
0.0041718867
0.0041718738
0.0041718477
0.0041718164
0.0041718036
0.0041718128
0.0041718364
0.0041718691
0.0041718914
0.0041718977
0.0041718557
0.0041718397
0.0041718164
0.0041717863
0.0041717715
0.0041717773
0.0041717992
0.0041718337
0.0041718593
0.0041718687
0.004171838
0.0041718261
0.0041718036
0.0041717715
0.0041717527
0.0041717537
0.0041717718
0.0041718052
0.0041718323
0.0041718442
0.0041718474
0.0041718367
0.0041718128
0.0041717773
0.0041717537
0.0041717497
0.0041717639
0.0041717953
0.0041718224
0.0041718361
0.0041718698
0.0041718602
0.0041718364
0.0041717992
0.0041717718
0.0041717639
0.004171776
0.0041718074
0.0041718363
0.0041718525
0.0041718971
0.0041718904
0.0041718691
0.0041718337
0.0041718052
0.0041717953
0.0041718074
0.0041718409
0.0041718716
0.0041718859
0.0041719187
0.0041719117
0.0041718914
0.0041718593
0.0041718323
0.0041718224
0.0041718363
0.0041718716
0.0041718994
0.0041719042
0.004171928
0.004171919
0.0041718977
0.0041718687
0.0041718442
0.0041718361
0.0041718525
0.0041718859
0.0041719042
0.0041719106
0.0061109762
0.0061109693
0.0061109521
0.0061109196
0.0061108994
0.0061109082
0.0061109315
0.0061109603
0.0061109832
0.0061109926
0.0061109693
0.0061109643
0.0061109388
0.0061109023
0.0061108863
0.0061108964
0.006110921
0.0061109528
0.0061109755
0.0061109831
0.0061109521
0.0061109388
0.0061109108
0.0061108771
0.0061108618
0.0061108704
0.0061108952
0.0061109295
0.0061109529
0.0061109595
0.0061109196
0.0061109023
0.0061108771
0.0061108444
0.0061108269
0.0061108319
0.0061108549
0.0061108913
0.006110918
0.0061109277
0.0061108994
0.0061108863
0.0061108618
0.0061108269
0.006110805
0.0061108047
0.0061108237
0.0061108591
0.0061108876
0.0061109003
0.0061109082
0.0061108964
0.0061108704
0.0061108319
0.0061108047
0.006110799
0.0061108138
0.0061108471
0.0061108758
0.0061108906
0.0061109315
0.006110921
0.0061108952
0.0061108549
0.0061108237
0.0061108138
0.0061108262
0.0061108597
0.0061108905
0.0061109082
0.0061109603
0.0061109528
0.0061109295
0.0061108913
0.0061108591
0.0061108471
0.0061108597
0.0061108955
0.0061109283
0.0061109435
0.0061109832
0.0061109755
0.0061109529
0.006110918
0.0061108876
0.0061108758
0.0061108905
0.0061109283
0.0061109577
0.0061109627
0.0061109926
0.0061109831
0.0061109595
0.0061109277
0.0061109003
0.0061108906
0.0061109082
0.0061109435
0.0061109627
0.0061109696
0.0079534004
0.0079533933
0.0079533745
0.0079533406
0.0079533177
0.0079533257
0.0079533497
0.0079533799
0.007953404
0.0079534132
0.0079533933
0.0079533875
0.0079533608
0.007953322
0.0079533033
0.0079533127
0.0079533382
0.0079533715
0.0079533954
0.0079534035
0.0079533745
0.0079533608
0.0079533309
0.0079532948
0.0079532768
0.0079532847
0.0079533104
0.0079533463
0.0079533705
0.0079533775
0.0079533406
0.007953322
0.0079532948
0.0079532596
0.0079532392
0.0079532432
0.0079532672
0.0079533052
0.0079533329
0.0079533429
0.0079533177
0.0079533033
0.0079532768
0.0079532392
0.007953214
0.0079532122
0.007953232
0.0079532692
0.0079532989
0.0079533124
0.0079533257
0.0079533127
0.0079532847
0.0079532432
0.0079532122
0.0079532046
0.0079532199
0.0079532549
0.0079532852
0.0079533011
0.0079533497
0.0079533382
0.0079533104
0.0079532672
0.007953232
0.0079532199
0.0079532327
0.007953268
0.0079533006
0.0079533196
0.0079533799
0.0079533715
0.0079533463
0.0079533052
0.0079532692
0.0079532549
0.007953268
0.007953306
0.0079533406
0.0079533567
0.007953404
0.0079533954
0.0079533705
0.0079533329
0.0079532989
0.0079532852
0.0079533006
0.0079533406
0.0079533714
0.0079533767
0.0079534132
0.0079534035
0.0079533775
0.0079533429
0.0079533124
0.0079533011
0.0079533196
0.0079533567
0.0079533767
0.0079533839
0.0096874792
0.0096874719
0.0096874515
0.0096874165
0.0096873906
0.0096873976
0.0096874222
0.0096874537
0.0096874787
0.0096874877
0.0096874719
0.0096874654
0.0096874375
0.0096873965
0.0096873749
0.0096873835
0.0096874098
0.0096874443
0.0096874693
0.0096874777
0.0096874515
0.0096874375
0.0096874058
0.0096873674
0.0096873464
0.0096873533
0.00968738
0.009687417
0.0096874419
0.0096874493
0.0096874165
0.0096873965
0.0096873674
0.0096873297
0.0096873061
0.0096873089
0.0096873338
0.0096873733
0.0096874016
0.0096874119
0.0096873906
0.0096873749
0.0096873464
0.0096873061
0.0096872773
0.009687274
0.0096872945
0.0096873332
0.0096873641
0.0096873782
0.0096873976
0.0096873835
0.0096873533
0.0096873089
0.009687274
0.0096872644
0.0096872801
0.0096873167
0.0096873483
0.0096873652
0.0096874222
0.0096874098
0.00968738
0.0096873338
0.0096872945
0.0096872801
0.0096872932
0.0096873302
0.0096873644
0.0096873847
0.0096874537
0.0096874443
0.009687417
0.0096873733
0.0096873332
0.0096873167
0.0096873302
0.00968737
0.0096874063
0.0096874231
0.0096874787
0.0096874693
0.0096874419
0.0096874016
0.0096873641
0.0096873483
0.0096873644
0.0096874063
0.0096874382
0.0096874439
0.0096874877
0.0096874777
0.0096874493
0.0096874119
0.0096873782
0.0096873652
0.0096873847
0.0096874231
0.0096874439
0.0096874515
0.011300528
0.01130052
0.011300498
0.011300462
0.011300433
0.011300439
0.011300464
0.011300497
0.011300523
0.011300531
0.01130052
0.011300513
0.011300484
0.011300441
0.011300416
0.011300424
0.011300451
0.011300486
0.011300512
0.011300521
0.011300498
0.011300484
0.011300451
0.01130041
0.011300386
0.011300392
0.011300419
0.011300457
0.011300482
0.01130049
0.011300462
0.011300441
0.01130041
0.01130037
0.011300343
0.011300344
0.01130037
0.011300411
0.011300439
0.01130045
0.011300433
0.011300416
0.011300386
0.011300343
0.01130031
0.011300305
0.011300326
0.011300366
0.011300398
0.011300413
0.011300439
0.011300424
0.011300392
0.011300344
0.011300305
0.011300293
0.011300309
0.011300347
0.01130038
0.011300398
0.011300464
0.011300451
0.011300419
0.01130037
0.011300326
0.011300309
0.011300323
0.011300361
0.011300397
0.011300419
0.011300497
0.011300486
0.011300457
0.011300411
0.011300366
0.011300347
0.011300361
0.011300403
0.011300441
0.011300458
0.011300523
0.011300512
0.011300482
0.011300439
0.011300398
0.01130038
0.011300397
0.011300441
0.011300473
0.011300479
0.011300531
0.011300521
0.01130049
0.01130045
0.011300413
0.011300398
0.011300419
0.011300458
0.011300479
0.011300487
0.012778781
0.012778773
0.012778749
0.012778712
0.01277868
0.012778685
0.01277871
0.012778743
0.01277877
0.012778778
0.012778773
0.012778765
0.012778735
0.01277869
0.012778662
0.012778668
0.012778695
0.012778732
0.012778759
0.012778768
0.012778749
0.012778735
0.0127787
0.012778657
0.012778629
0.012778634
0.012778662
0.0127787
0.012778726
0.012778734
0.012778712
0.01277869
0.012778657
0.012778614
0.012778584
0.012778584
0.01277861
0.012778651
0.012778681
0.012778691
0.01277868
0.012778662
0.012778629
0.012778584
0.012778547
0.01277854
0.012778562
0.012778603
0.012778636
0.012778651
0.012778685
0.012778668
0.012778634
0.012778584
0.01277854
0.012778526
0.012778542
0.012778582
0.012778615
0.012778634
0.01277871
0.012778695
0.012778662
0.01277861
0.012778562
0.012778542
0.012778556
0.012778596
0.012778633
0.012778656
0.012778743
0.012778732
0.0127787
0.012778651
0.012778603
0.012778582
0.012778596
0.012778639
0.012778678
0.012778696
0.01277877
0.012778759
0.012778726
0.012778681
0.012778636
0.012778615
0.012778633
0.012778678
0.012778711
0.012778717
0.012778778
0.012778768
0.012778734
0.012778691
0.012778651
0.012778634
0.012778656
0.012778696
0.012778717
0.012778726
0.014107287
0.014107279
0.014107254
0.014107216
0.014107181
0.014107184
0.014107209
0.014107243
0.01410727
0.014107277
0.014107279
0.01410727
0.01410724
0.014107193
0.014107161
0.014107166
0.014107193
0.01410723
0.014107258
0.014107267
0.014107254
0.01410724
0.014107203
0.014107158
0.014107127
0.014107129
0.014107158
0.014107197
0.014107223
0.014107231
0.014107216
0.014107193
0.014107158
0.014107113
0.014107078
0.014107076
0.014107103
0.014107146
0.014107175
0.014107185
0.014107181
0.014107161
0.014107127
0.014107078
0.014107038
0.014107029
0.014107051
0.014107093
0.014107126
0.014107142
0.014107184
0.014107166
0.014107129
0.014107076
0.014107029
0.014107012
0.014107029
0.014107069
0.014107104
0.014107124
0.014107209
0.014107193
0.014107158
0.014107103
0.014107051
0.014107029
0.014107043
0.014107084
0.014107121
0.014107145
0.014107243
0.01410723
0.014107197
0.014107146
0.014107093
0.014107069
0.014107084
0.014107128
0.014107168
0.014107186
0.01410727
0.014107258
0.014107223
0.014107175
0.014107126
0.014107104
0.014107121
0.014107168
0.014107201
0.014107208
0.014107277
0.014107267
0.014107231
0.014107185
0.014107142
0.014107124
0.014107145
0.014107186
0.014107208
0.014107217
0.015269803
0.015269795
0.015269768
0.01526973
0.015269691
0.015269692
0.015269716
0.015269751
0.015269778
0.015269785
0.015269795
0.015269785
0.015269753
0.015269705
0.01526967
0.015269672
0.0152697
0.015269737
0.015269765
0.015269775
0.015269768
0.015269753
0.015269715
0.015269668
0.015269633
0.015269634
0.015269663
0.015269702
0.015269728
0.015269736
0.01526973
0.015269705
0.015269668
0.01526962
0.015269582
0.015269578
0.015269606
0.015269648
0.015269677
0.015269688
0.015269691
0.01526967
0.015269633
0.015269582
0.015269538
0.015269526
0.015269549
0.015269591
0.015269625
0.015269641
0.015269692
0.015269672
0.015269634
0.015269578
0.015269526
0.015269507
0.015269524
0.015269565
0.0152696
0.015269621
0.015269716
0.0152697
0.015269663
0.015269606
0.015269549
0.015269524
0.015269538
0.01526958
0.015269618
0.015269644
0.015269751
0.015269737
0.015269702
0.015269648
0.015269591
0.015269565
0.01526958
0.015269625
0.015269665
0.015269684
0.015269778
0.015269765
0.015269728
0.015269677
0.015269625
0.0152696
0.015269618
0.015269665
0.015269699
0.015269706
0.015269785
0.015269775
0.015269736
0.015269688
0.015269641
0.015269621
0.015269644
0.015269684
0.015269706
0.015269715
0.016248673
0.016248664
0.016248636
0.016248597
0.016248556
0.016248553
0.016248578
0.016248612
0.01624864
0.016248646
0.016248664
0.016248653
0.016248621
0.016248571
0.016248533
0.016248533
0.01624856
0.016248597
0.016248626
0.016248635
0.016248636
0.016248621
0.016248582
0.016248532
0.016248494
0.016248492
0.016248521
0.01624856
0.016248586
0.016248594
0.016248597
0.016248571
0.016248532
0.016248482
0.01624844
0.016248434
0.016248461
0.016248504
0.016248532
0.016248543
0.016248556
0.016248533
0.016248494
0.01624844
0.016248391
0.016248377
0.0162484
0.016248443
0.016248476
0.016248493
0.016248553
0.016248533
0.016248492
0.016248434
0.016248377
0.016248355
0.016248372
0.016248414
0.01624845
0.016248472
0.016248578
0.01624856
0.016248521
0.016248461
0.0162484
0.016248372
0.016248387
0.016248429
0.016248469
0.016248495
0.016248612
0.016248597
0.01624856
0.016248504
0.016248443
0.016248414
0.016248429
0.016248475
0.016248516
0.016248535
0.01624864
0.016248626
0.016248586
0.016248532
0.016248476
0.01624845
0.016248469
0.016248516
0.01624855
0.016248557
0.016248646
0.016248635
0.016248594
0.016248543
0.016248493
0.016248472
0.016248495
0.016248535
0.016248557
0.016248567
0.017024709
0.017024701
0.017024671
0.017024632
0.017024587
0.017024582
0.017024606
0.01702464
0.017024668
0.017024673
0.017024701
0.017024689
0.017024656
0.017024605
0.017024563
0.01702456
0.017024587
0.017024624
0.017024653
0.017024662
0.017024671
0.017024656
0.017024616
0.017024564
0.017024522
0.017024518
0.017024546
0.017024585
0.01702461
0.017024619
0.017024632
0.017024605
0.017024564
0.017024512
0.017024465
0.017024457
0.017024484
0.017024526
0.017024554
0.017024565
0.017024587
0.017024563
0.017024522
0.017024465
0.017024412
0.017024396
0.017024419
0.017024462
0.017024495
0.017024512
0.017024582
0.01702456
0.017024518
0.017024457
0.017024396
0.017024371
0.017024388
0.01702443
0.017024466
0.017024489
0.017024606
0.017024587
0.017024546
0.017024484
0.017024419
0.017024388
0.017024402
0.017024445
0.017024486
0.017024513
0.01702464
0.017024624
0.017024585
0.017024526
0.017024462
0.01702443
0.017024445
0.017024492
0.017024533
0.017024552
0.017024668
0.017024653
0.01702461
0.017024554
0.017024495
0.017024466
0.017024486
0.017024533
0.017024567
0.017024575
0.017024673
0.017024662
0.017024619
0.017024565
0.017024512
0.017024489
0.017024513
0.017024552
0.017024575
0.017024584
0.017577069
0.017577061
0.01757703
0.01757699
0.017576942
0.017576934
0.017576956
0.017576991
0.017577018
0.017577022
0.017577061
0.017577048
0.017577015
0.017576962
0.017576916
0.017576911
0.017576937
0.017576973
0.017577002
0.017577011
0.01757703
0.017577015
0.017576973
0.017576919
0.017576873
0.017576866
0.017576894
0.017576932
0.017576957
0.017576966
0.01757699
0.017576962
0.017576919
0.017576864
0.017576814
0.017576803
0.01757683
0.017576872
0.017576899
0.01757691
0.017576942
0.017576916
0.017576873
0.017576814
0.017576757
0.017576737
0.01757676
0.017576803
0.017576836
0.017576854
0.017576934
0.017576911
0.017576866
0.017576803
0.017576737
0.01757671
0.017576727
0.017576769
0.017576805
0.01757683
0.017576956
0.017576937
0.017576894
0.01757683
0.01757676
0.017576727
0.017576741
0.017576785
0.017576825
0.017576854
0.017576991
0.017576973
0.017576932
0.017576872
0.017576803
0.017576769
0.017576785
0.017576832
0.017576873
0.017576892
0.017577018
0.017577002
0.017576957
0.017576899
0.017576836
0.017576805
0.017576825
0.017576873
0.017576906
0.017576914
0.017577022
0.017577011
0.017576966
0.01757691
0.017576854
0.01757683
0.017576854
0.017576892
0.017576914
0.017576924
0.017883124
0.017883115
0.017883082
0.017883042
0.017882992
0.01788298
0.017883001
0.017883035
0.017883062
0.017883065
0.017883115
0.017883101
0.017883067
0.017883014
0.017882964
0.017882955
0.01788298
0.017883016
0.017883044
0.017883054
0.017883082
0.017883067
0.017883024
0.017882969
0.017882919
0.017882909
0.017882936
0.017882973
0.017882997
0.017883006
0.017883042
0.017883014
0.017882969
0.017882912
0.017882857
0.017882843
0.01788287
0.017882911
0.017882937
0.017882948
0.017882992
0.017882964
0.017882919
0.017882857
0.017882796
0.017882774
0.017882796
0.017882839
0.017882871
0.01788289
0.01788298
0.017882955
0.017882909
0.017882843
0.017882774
0.017882743
0.01788276
0.017882802
0.017882839
0.017882864
0.017883001
0.01788298
0.017882936
0.01788287
0.017882796
0.01788276
0.017882775
0.017882818
0.017882859
0.017882888
0.017883035
0.017883016
0.017882973
0.017882911
0.017882839
0.017882802
0.017882818
0.017882865