/*--------------------------------*- C++ -*----------------------------------*\
| =========                 |                                                 |
| \\      /  F ield         | OpenFOAM: The Open Source CFD Toolbox           |
|  \\    /   O peration     | Version:  v2106                                 |
|   \\  /    A nd           | Website:  www.openfoam.com                      |
|    \\/     M anipulation  |                                                 |
\*---------------------------------------------------------------------------*/
FoamFile
{
    version     2.0;
    format      ascii;
    arch        "LSB;label=32;scalar=64";
    class       volVectorField;
    location    "50";
    object      Tmode_grad1;
}
// * * * * * * * * * * * * * * * * * * * * * * * * * * * * * * * * * * * * * //

dimensions      [0 -1 0 0 0 0 0];

internalField   nonuniform List<vector> 
4000
(
(7.798528e-09 7.7985609e-09 0.080874289)
(5.7214002e-08 6.0824322e-08 0.080874283)
(-1.15411e-07 -2.3729332e-08 0.08087424)
(-2.3187471e-07 -3.0411659e-08 0.080874077)
(-2.1058769e-08 -6.0414753e-09 0.080874022)
(1.2509481e-07 3.539098e-09 0.080874084)
(1.4005393e-07 4.6436344e-09 0.080874176)
(1.1356416e-07 5.9671695e-09 0.080874261)
(7.4609964e-08 6.4712571e-09 0.080874327)
(1.7262432e-08 3.0449532e-10 0.080874364)
(6.0824289e-08 5.7213977e-08 0.080874283)
(9.9221624e-09 9.9222119e-09 0.080874277)
(-2.5226497e-07 -1.2515349e-07 0.080874163)
(-2.0534292e-07 -1.0509076e-07 0.080874007)
(2.9867366e-08 -5.2520995e-08 0.080873981)
(1.4112247e-07 -3.7440573e-08 0.080874053)
(1.4369603e-07 -3.6669614e-08 0.080874147)
(1.163056e-07 -2.9808323e-08 0.080874236)
(6.6115953e-08 -2.1519843e-08 0.080874301)
(1.109567e-08 -3.4749077e-08 0.080874325)
(-2.3729316e-08 -1.1541105e-07 0.08087424)
(-1.2515346e-07 -2.5226497e-07 0.080874163)
(-2.3042397e-07 -2.3042397e-07 0.080874054)
(-1.5924222e-07 -1.8192938e-07 0.080873921)
(4.6591412e-08 -1.642184e-07 0.080873907)
(1.4094619e-07 -1.6885551e-07 0.080873979)
(1.4768618e-07 -1.7463146e-07 0.080874072)
(1.2871394e-07 -1.6665805e-07 0.08087417)
(6.9669211e-08 -1.4531429e-07 0.080874244)
(8.4429426e-09 -1.2973044e-07 0.080874266)
(-3.0411659e-08 -2.3187468e-07 0.080874077)
(-1.0509075e-07 -2.0534292e-07 0.080874007)
(-1.8192938e-07 -1.5924222e-07 0.080873921)
(-1.3913736e-07 -1.3913736e-07 0.080873802)
(4.2941242e-08 -1.4357018e-07 0.080873788)
(1.3070942e-07 -1.5924549e-07 0.080873852)
(1.4589349e-07 -1.7421393e-07 0.08087394)
(1.4562278e-07 -1.7727716e-07 0.080874042)
(1.0304356e-07 -1.6313593e-07 0.080874132)
(2.1484898e-08 -1.3894546e-07 0.080874173)
(-6.0414752e-09 -2.1058768e-08 0.080874022)
(-5.2520995e-08 2.9867367e-08 0.080873981)
(-1.642184e-07 4.6591412e-08 0.080873907)
(-1.4357018e-07 4.2941242e-08 0.080873788)
(2.648328e-08 2.648328e-08 0.080873765)
(1.1030244e-07 4.4398055e-09 0.080873816)
(1.2965451e-07 -1.7056163e-08 0.080873891)
(1.3979193e-07 -3.333714e-08 0.080873986)
(1.0800091e-07 -4.0956407e-08 0.080874076)
(2.4569922e-08 -4.1814729e-08 0.080874122)
(3.5390973e-09 1.2509481e-07 0.080874084)
(-3.7440574e-08 1.4112247e-07 0.080874053)
(-1.6885551e-07 1.4094619e-07 0.080873979)
(-1.5924549e-07 1.3070941e-07 0.080873852)
(4.4398047e-09 1.1030244e-07 0.080873816)
(8.7169972e-08 8.7169974e-08 0.080873852)
(1.0811655e-07 6.7027544e-08 0.080873913)
(1.2172253e-07 5.0726853e-08 0.080873996)
(9.4565971e-08 3.8558789e-08 0.080874078)
(2.0912684e-08 3.0584088e-08 0.080874119)
(4.6436344e-09 1.4005393e-07 0.080874176)
(-3.6669614e-08 1.4369604e-07 0.080874147)
(-1.7463146e-07 1.4768618e-07 0.080874072)
(-1.7421393e-07 1.4589349e-07 0.08087394)
(-1.7056161e-08 1.2965451e-07 0.080873891)
(6.7027544e-08 1.0811655e-07 0.080873913)
(9.3211386e-08 9.3211388e-08 0.080873964)
(1.1132318e-07 8.5352744e-08 0.08087404)
(8.7858147e-08 8.1895677e-08 0.080874117)
(1.9253454e-08 8.0902523e-08 0.080874157)
(5.9671702e-09 1.1356416e-07 0.080874261)
(-2.9808323e-08 1.163056e-07 0.080874236)
(-1.6665805e-07 1.2871393e-07 0.08087417)
(-1.7727716e-07 1.4562277e-07 0.080874042)
(-3.3337139e-08 1.3979193e-07 0.080873986)
(5.0726852e-08 1.2172253e-07 0.080873996)
(8.5352743e-08 1.1132318e-07 0.08087404)
(1.1040682e-07 1.1040682e-07 0.080874114)
(9.011575e-08 1.1352451e-07 0.080874194)
(2.0250581e-08 1.1575944e-07 0.080874235)
(6.4712574e-09 7.4609965e-08 0.080874327)
(-2.1519842e-08 6.6115952e-08 0.080874301)
(-1.4531429e-07 6.9669211e-08 0.080874244)
(-1.6313593e-07 1.0304356e-07 0.080874132)
(-4.0956406e-08 1.0800091e-07 0.080874076)
(3.8558788e-08 9.456597e-08 0.080874078)
(8.1895676e-08 8.7858146e-08 0.080874117)
(1.1352451e-07 9.0115751e-08 0.080874194)
(9.321077e-08 9.321077e-08 0.080874275)
(2.0743408e-08 8.9806022e-08 0.080874312)
(3.0449524e-10 1.7262432e-08 0.080874364)
(-3.4749077e-08 1.109567e-08 0.080874325)
(-1.2973044e-07 8.4429424e-09 0.080874266)
(-1.3894546e-07 2.1484899e-08 0.080874173)
(-4.1814729e-08 2.4569921e-08 0.080874122)
(3.0584088e-08 2.0912684e-08 0.080874119)
(8.0902523e-08 1.9253454e-08 0.080874157)
(1.1575944e-07 2.0250582e-08 0.080874235)
(8.9806021e-08 2.0743408e-08 0.080874312)
(1.7980749e-08 1.7980749e-08 0.080874337)
(1.5902994e-09 1.5902988e-09 0.24216757)
(-1.7200794e-08 5.419608e-08 0.24216749)
(-4.2467683e-07 -1.0012981e-07 0.2421673)
(-5.5850145e-07 -1.0019766e-07 0.24216688)
(-1.0810617e-08 -4.6942601e-08 0.24216676)
(3.5518073e-07 -2.7283885e-08 0.24216694)
(4.0511048e-07 -2.4015076e-08 0.24216721)
(3.4069601e-07 -1.8252762e-08 0.24216746)
(2.2900176e-07 -1.9605211e-08 0.24216766)
(5.3890497e-08 -3.8426806e-08 0.24216778)
(5.419608e-08 -1.7200794e-08 0.24216749)
(-1.6978095e-07 -1.6978096e-07 0.24216742)
(-6.5626744e-07 -4.0343608e-07 0.24216709)
(-4.7872064e-07 -3.3868667e-07 0.24216669)
(9.8560047e-08 -2.2504858e-07 0.24216664)
(3.8957202e-07 -1.9518179e-07 0.24216684)
(4.1865716e-07 -1.9122125e-07 0.24216712)
(3.473108e-07 -1.6548104e-07 0.24216739)
(1.987407e-07 -1.4609598e-07 0.24216758)
(3.5068901e-08 -1.8139232e-07 0.24216765)
(-1.0012981e-07 -4.2467683e-07 0.2421673)
(-4.0343608e-07 -6.5626744e-07 0.24216709)
(-5.9358254e-07 -5.9358254e-07 0.24216677)
(-3.8011395e-07 -4.8983281e-07 0.24216643)
(1.3269426e-07 -4.5443905e-07 0.2421664)
(3.8900807e-07 -4.7036482e-07 0.2421666)
(4.3481123e-07 -4.8474756e-07 0.24216688)
(3.8582128e-07 -4.5775074e-07 0.24216718)
(2.1309049e-07 -3.9896641e-07 0.2421674)
(3.0359605e-08 -3.5718105e-07 0.24216747)
(-1.0019766e-07 -5.5850145e-07 0.24216688)
(-3.3868667e-07 -4.7872064e-07 0.24216669)
(-4.8983281e-07 -3.8011395e-07 0.24216643)
(-3.3957715e-07 -3.3957715e-07 0.24216612)
(1.1802804e-07 -3.5695253e-07 0.24216609)
(3.5926351e-07 -4.0330063e-07 0.24216626)
(4.3127123e-07 -4.4591247e-07 0.24216652)
(4.3309195e-07 -4.5308352e-07 0.24216684)
(2.9931039e-07 -4.1506671e-07 0.2421671)
(6.292581e-08 -3.5506587e-07 0.24216722)
(-4.6942601e-08 -1.0810618e-08 0.24216676)
(-2.2504858e-07 9.8560046e-08 0.24216664)
(-4.5443905e-07 1.3269426e-07 0.2421664)
(-3.5695253e-07 1.1802804e-07 0.24216609)
(6.8970778e-08 6.8970778e-08 0.24216603)
(3.0004813e-07 4.6524572e-09 0.24216617)
(3.8502833e-07 -5.7286736e-08 0.24216638)
(4.1666704e-07 -1.0213622e-07 0.24216668)
(3.1110814e-07 -1.2175874e-07 0.24216694)
(7.036016e-08 -1.2340493e-07 0.24216707)
(-2.7283885e-08 3.5518073e-07 0.24216694)
(-1.9518179e-07 3.8957202e-07 0.24216684)
(-4.7036481e-07 3.8900807e-07 0.2421666)
(-4.0330063e-07 3.5926351e-07 0.24216626)
(4.6524574e-09 3.0004813e-07 0.24216617)
(2.33006e-07 2.33006e-07 0.24216626)
(3.2448255e-07 1.752703e-07 0.24216643)
(3.6861994e-07 1.3076116e-07 0.2421667)
(2.7804168e-07 1.005093e-07 0.24216694)
(6.1828352e-08 8.3551002e-08 0.24216706)
(-2.4015075e-08 4.0511048e-07 0.24216721)
(-1.9122125e-07 4.1865716e-07 0.24216712)
(-4.8474756e-07 4.3481123e-07 0.24216688)
(-4.4591247e-07 4.3127124e-07 0.24216652)
(-5.7286737e-08 3.8502833e-07 0.24216638)
(1.752703e-07 3.2448255e-07 0.24216643)
(2.827835e-07 2.8278349e-07 0.24216658)
(3.4190604e-07 2.62249e-07 0.24216683)
(2.6389798e-07 2.554261e-07 0.24216706)
(5.9054626e-08 2.5564724e-07 0.24216718)
(-1.8252762e-08 3.4069601e-07 0.24216746)
(-1.6548104e-07 3.473108e-07 0.24216739)
(-4.5775074e-07 3.8582128e-07 0.24216718)
(-4.5308352e-07 4.3309195e-07 0.24216684)
(-1.0213622e-07 4.1666704e-07 0.24216668)
(1.3076116e-07 3.6861994e-07 0.2421667)
(2.62249e-07 3.4190604e-07 0.24216683)
(3.4126255e-07 3.4126255e-07 0.24216707)
(2.7143992e-07 3.4944645e-07 0.24216731)
(6.1975778e-08 3.487573e-07 0.24216744)
(-1.9605211e-08 2.2900176e-07 0.24216766)
(-1.4609598e-07 1.9874069e-07 0.24216758)
(-3.9896641e-07 2.1309049e-07 0.2421674)
(-4.1506671e-07 2.9931039e-07 0.2421671)
(-1.2175874e-07 3.1110814e-07 0.24216694)
(1.005093e-07 2.7804168e-07 0.24216694)
(2.554261e-07 2.6389798e-07 0.24216706)
(3.4944644e-07 2.7143992e-07 0.24216731)
(2.7139273e-07 2.7139273e-07 0.24216755)
(5.8595196e-08 2.423261e-07 0.24216765)
(-3.8426807e-08 5.3890498e-08 0.24216778)
(-1.8139232e-07 3.5068902e-08 0.24216765)
(-3.5718105e-07 3.0359605e-08 0.24216747)
(-3.5506587e-07 6.292581e-08 0.24216722)
(-1.2340493e-07 7.036016e-08 0.24216707)
(8.3551002e-08 6.1828351e-08 0.24216706)
(2.5564724e-07 5.9054626e-08 0.24216718)
(3.487573e-07 6.1975778e-08 0.24216744)
(2.423261e-07 5.8595196e-08 0.24216765)
(4.259802e-08 4.259802e-08 0.24216772)
(-4.5467943e-08 -4.5467943e-08 0.24094818)
(-2.1924614e-07 1.4071148e-08 0.24094803)
(-7.3183015e-07 -1.626302e-07 0.24094781)
(-7.6925904e-07 -1.5468899e-07 0.2409475)
(4.4454417e-08 -8.5611831e-08 0.24094744)
(5.7415716e-07 -6.1501651e-08 0.24094761)
(6.6292102e-07 -5.4957435e-08 0.24094786)
(5.6881347e-07 -4.0639766e-08 0.24094812)
(3.8984185e-07 -4.6567518e-08 0.24094832)
(9.5146514e-08 -8.4177896e-08 0.24094844)
(1.4071148e-08 -2.1924614e-07 0.24094803)
(-3.9498953e-07 -3.9498953e-07 0.24094792)
(-9.8497036e-07 -6.5018524e-07 0.24094764)
(-6.5373148e-07 -5.5189908e-07 0.24094734)
(1.8423543e-07 -4.0692963e-07 0.24094732)
(6.2013875e-07 -3.7449967e-07 0.2409475)
(6.9421385e-07 -3.6482332e-07 0.24094776)
(5.8139835e-07 -3.0979866e-07 0.24094806)
(3.2453465e-07 -2.7987071e-07 0.24094825)
(5.7536136e-08 -3.410604e-07 0.24094831)
(-1.6263021e-07 -7.3183015e-07 0.24094781)
(-6.5018523e-07 -9.8497036e-07 0.24094764)
(-8.8873969e-07 -8.887397e-07 0.24094737)
(-5.2600343e-07 -7.5347513e-07 0.24094711)
(2.2185382e-07 -7.1576416e-07 0.24094709)
(6.1626346e-07 -7.4924141e-07 0.24094726)
(7.2762203e-07 -7.7225094e-07 0.24094753)
(6.5376608e-07 -7.2270439e-07 0.24094786)
(3.585801e-07 -6.2735008e-07 0.24094808)
(5.4353386e-08 -5.6189772e-07 0.24094814)
(-1.5468899e-07 -7.6925904e-07 0.2409475)
(-5.5189908e-07 -6.5373148e-07 0.24094734)
(-7.5347513e-07 -5.2600344e-07 0.24094711)
(-4.8075594e-07 -4.8075594e-07 0.24094686)
(1.8846915e-07 -5.1846385e-07 0.24094684)
(5.6365197e-07 -5.9868645e-07 0.24094698)
(7.2075086e-07 -6.7003189e-07 0.24094722)
(7.2629921e-07 -6.8209251e-07 0.24094756)
(4.8534133e-07 -6.2608054e-07 0.24094782)
(1.0117104e-07 -5.4081896e-07 0.24094792)
(-8.5611831e-08 4.4454417e-08 0.24094744)
(-4.0692963e-07 1.8423543e-07 0.24094732)
(-7.1576416e-07 2.2185382e-07 0.24094709)
(-5.1846385e-07 1.8846915e-07 0.24094684)
(1.0392332e-07 1.0392332e-07 0.24094678)
(4.6469542e-07 -2.74556e-09 0.24094688)
(6.4421597e-07 -1.0380909e-07 0.24094709)
(6.9771743e-07 -1.7470706e-07 0.24094741)
(4.9985365e-07 -2.044318e-07 0.24094766)
(1.1119444e-07 -2.0544474e-07 0.24094777)
(-6.1501651e-08 5.7415716e-07 0.24094761)
(-3.7449967e-07 6.2013875e-07 0.2409475)
(-7.4924141e-07 6.1626346e-07 0.24094726)
(-5.9868645e-07 5.6365197e-07 0.24094698)
(-2.7455606e-09 4.6469542e-07 0.24094688)
(3.5591956e-07 3.5591956e-07 0.24094694)
(5.4878936e-07 2.6449326e-07 0.24094711)
(6.256765e-07 1.977604e-07 0.2409474)
(4.5460364e-07 1.5714815e-07 0.24094764)
(1.0049575e-07 1.4028752e-07 0.24094775)
(-5.4957435e-08 6.6292102e-07 0.24094786)
(-3.6482332e-07 6.9421385e-07 0.24094776)
(-7.7225094e-07 7.2762203e-07 0.24094753)
(-6.7003189e-07 7.2075086e-07 0.24094722)
(-1.0380909e-07 6.4421597e-07 0.24094709)
(2.6449326e-07 5.4878937e-07 0.24094711)
(4.8605682e-07 4.8605681e-07 0.24094725)
(5.9037232e-07 4.5962132e-07 0.24094753)
(4.4238077e-07 4.5581481e-07 0.24094777)
(9.9954024e-08 4.6036427e-07 0.24094789)
(-4.0639766e-08 5.6881347e-07 0.24094812)
(-3.0979866e-07 5.8139835e-07 0.24094806)
(-7.2270439e-07 6.5376608e-07 0.24094786)
(-6.8209251e-07 7.2629921e-07 0.24094756)
(-1.7470706e-07 6.9771743e-07 0.24094741)
(1.977604e-07 6.256765e-07 0.2409474)
(4.5962132e-07 5.9037233e-07 0.24094753)
(5.9543449e-07 5.9543449e-07 0.24094782)
(4.5534659e-07 6.0606908e-07 0.24094807)
(1.0352872e-07 5.8497109e-07 0.24094819)
(-4.6567517e-08 3.8984185e-07 0.24094832)
(-2.7987071e-07 3.2453465e-07 0.24094825)
(-6.2735008e-07 3.585801e-07 0.24094808)
(-6.2608054e-07 4.8534133e-07 0.24094782)
(-2.044318e-07 4.9985365e-07 0.24094766)
(1.5714815e-07 4.5460364e-07 0.24094764)
(4.5581481e-07 4.4238077e-07 0.24094777)
(6.0606908e-07 4.5534659e-07 0.24094807)
(4.3191737e-07 4.3191737e-07 0.24094831)
(8.5888697e-08 3.7079785e-07 0.24094836)
(-8.4177896e-08 9.5146515e-08 0.24094844)
(-3.410604e-07 5.7536136e-08 0.24094831)
(-5.6189772e-07 5.4353386e-08 0.24094814)
(-5.4081896e-07 1.0117104e-07 0.24094792)
(-2.0544474e-07 1.1119444e-07 0.24094777)
(1.4028752e-07 1.0049575e-07 0.24094775)
(4.6036427e-07 9.9954023e-08 0.24094789)
(5.8497109e-07 1.0352872e-07 0.24094819)
(3.7079785e-07 8.5888698e-08 0.24094836)
(6.2782378e-08 6.2782379e-08 0.24094842)
(-9.3564849e-08 -9.3564848e-08 0.23910348)
(-3.8342578e-07 -1.9438957e-08 0.23910337)
(-9.5769273e-07 -2.164085e-07 0.23910321)
(-9.3220977e-07 -2.065112e-07 0.23910296)
(9.5276305e-08 -1.2609264e-07 0.23910289)
(7.7734229e-07 -9.947911e-08 0.23910304)
(9.2070094e-07 -8.8793479e-08 0.23910328)
(8.0287938e-07 -6.2609913e-08 0.23910355)
(5.4142404e-07 -6.9238258e-08 0.23910376)
(1.2985011e-07 -1.1912417e-07 0.23910386)
(-1.9438957e-08 -3.8342578e-07 0.23910337)
(-5.6769126e-07 -5.6769126e-07 0.23910329)
(-1.2383011e-06 -8.4839085e-07 0.23910307)
(-7.9673597e-07 -7.3216816e-07 0.23910282)
(2.5582445e-07 -5.673116e-07 0.23910278)
(8.3329102e-07 -5.3772454e-07 0.23910293)
(9.7600474e-07 -5.2151436e-07 0.23910318)
(8.3221221e-07 -4.3294854e-07 0.23910349)
(4.5665265e-07 -3.9198074e-07 0.2391037)
(7.9964198e-08 -4.749206e-07 0.23910377)
(-2.164085e-07 -9.5769273e-07 0.23910321)
(-8.4839085e-07 -1.2383011e-06 0.23910307)
(-1.1221696e-06 -1.1221696e-06 0.23910285)
(-6.5113052e-07 -9.6680957e-07 0.23910263)
(2.8971992e-07 -9.3443417e-07 0.23910259)
(8.2313953e-07 -9.8956781e-07 0.23910273)
(1.0254769e-06 -1.0220266e-06 0.23910298)
(9.3241299e-07 -9.5114485e-07 0.23910332)
(4.9945198e-07 -8.2820339e-07 0.23910355)
(7.4556874e-08 -7.5048726e-07 0.23910361)
(-2.065112e-07 -9.3220977e-07 0.23910296)
(-7.3216816e-07 -7.9673597e-07 0.23910282)
(-9.6680957e-07 -6.5113052e-07 0.23910263)
(-6.0900051e-07 -6.0900051e-07 0.23910241)
(2.3306621e-07 -6.7143763e-07 0.23910236)
(7.4569859e-07 -7.8752507e-07 0.23910246)
(1.0144277e-06 -8.8715182e-07 0.2391027)
(1.0260354e-06 -9.0286023e-07 0.23910305)
(6.5731025e-07 -8.3094297e-07 0.2391033)
(1.3177495e-07 -7.2470394e-07 0.23910339)
(-1.2609264e-07 9.5276305e-08 0.23910289)
(-5.673116e-07 2.5582445e-07 0.23910278)
(-9.3443417e-07 2.8971992e-07 0.23910259)
(-6.7143763e-07 2.3306621e-07 0.23910236)
(1.1119537e-07 1.1119537e-07 0.23910227)
(6.0742533e-07 -3.770773e-08 0.23910234)
(9.1014178e-07 -1.7555355e-07 0.23910253)
(9.8862185e-07 -2.6789592e-07 0.23910287)
(6.7760827e-07 -3.0223077e-07 0.23910313)
(1.4538289e-07 -2.963368e-07 0.23910323)
(-9.947911e-08 7.7734229e-07 0.23910304)
(-5.3772454e-07 8.3329102e-07 0.23910293)
(-9.8956781e-07 8.2313953e-07 0.23910273)
(-7.8752507e-07 7.456986e-07 0.23910246)
(-3.7707729e-08 6.0742533e-07 0.23910234)
(4.5894968e-07 4.5894968e-07 0.23910236)
(7.8423951e-07 3.3771817e-07 0.23910252)
(8.993582e-07 2.5504651e-07 0.23910283)
(6.2886937e-07 2.1215212e-07 0.23910308)
(1.3570427e-07 2.040599e-07 0.23910319)
(-8.879348e-08 9.2070094e-07 0.23910328)
(-5.2151436e-07 9.7600474e-07 0.23910318)
(-1.0220266e-06 1.0254769e-06 0.23910298)
(-8.8715182e-07 1.0144277e-06 0.2391027)
(-1.7555355e-07 9.1014178e-07 0.23910253)
(3.3771817e-07 7.8423951e-07 0.23910252)
(7.0623862e-07 7.0623861e-07 0.23910266)
(8.630558e-07 6.8070861e-07 0.23910297)
(6.2662166e-07 6.8520918e-07 0.23910323)
(1.3998808e-07 6.929898e-07 0.23910336)
(-6.2609913e-08 8.0287938e-07 0.23910355)
(-4.3294854e-07 8.3221221e-07 0.23910349)
(-9.5114485e-07 9.3241299e-07 0.23910332)
(-9.0286023e-07 1.0260354e-06 0.23910305)
(-2.6789592e-07 9.8862185e-07 0.23910287)
(2.5504651e-07 8.993582e-07 0.23910283)
(6.8070861e-07 8.630558e-07 0.23910297)
(8.7832876e-07 8.7832876e-07 0.23910329)
(6.4115056e-07 8.850442e-07 0.23910356)
(1.4089135e-07 8.196023e-07 0.23910368)
(-6.9238258e-08 5.4142404e-07 0.23910376)
(-3.9198074e-07 4.5665265e-07 0.2391037)
(-8.2820339e-07 4.9945198e-07 0.23910355)
(-8.3094297e-07 6.5731025e-07 0.2391033)
(-3.0223077e-07 6.7760827e-07 0.23910313)
(2.1215212e-07 6.2886937e-07 0.23910308)
(6.8520918e-07 6.2662166e-07 0.23910323)
(8.850442e-07 6.4115056e-07 0.23910356)
(5.678952e-07 5.678952e-07 0.23910381)
(9.6360151e-08 4.7835886e-07 0.23910384)
(-1.1912417e-07 1.2985011e-07 0.23910386)
(-4.749206e-07 7.9964198e-08 0.23910377)
(-7.5048726e-07 7.4556875e-08 0.23910361)
(-7.2470395e-07 1.3177495e-07 0.23910339)
(-2.963368e-07 1.4538289e-07 0.23910323)
(2.040599e-07 1.3570427e-07 0.23910319)
(6.929898e-07 1.3998808e-07 0.23910336)
(8.196023e-07 1.4089135e-07 0.23910368)
(4.7835886e-07 9.6360151e-08 0.23910384)
(8.1200458e-08 8.1200458e-08 0.23910389)
(-1.230252e-07 -1.230252e-07 0.23661489)
(-4.9367702e-07 -3.8139292e-08 0.23661482)
(-1.1405906e-06 -2.5603799e-07 0.23661469)
(-1.0868236e-06 -2.4912857e-07 0.23661446)
(1.2389078e-07 -1.5955377e-07 0.23661437)
(9.6047077e-07 -1.3163726e-07 0.23661449)
(1.1765102e-06 -1.1711635e-07 0.23661471)
(1.0501753e-06 -7.9095082e-08 0.23661499)
(7.0209665e-07 -8.7180552e-08 0.23661521)
(1.6481593e-07 -1.47963e-07 0.23661531)
(-3.8139292e-08 -4.9367702e-07 0.23661482)
(-6.9319622e-07 -6.9319622e-07 0.23661477)
(-1.4570745e-06 -1.0067024e-06 0.23661459)
(-9.4209731e-07 -8.8374727e-07 0.23661434)
(3.0012775e-07 -7.0462754e-07 0.23661428)
(1.0241269e-06 -6.8121132e-07 0.2366144)
(1.2553235e-06 -6.5968155e-07 0.23661463)
(1.0950789e-06 -5.391194e-07 0.23661494)
(5.9879478e-07 -4.9228547e-07 0.23661515)
(1.0403348e-07 -5.9718413e-07 0.23661522)
(-2.5603799e-07 -1.1405906e-06 0.23661469)
(-1.0067024e-06 -1.4570745e-06 0.23661459)
(-1.3311417e-06 -1.3311417e-06 0.23661439)
(-7.8474877e-07 -1.1619577e-06 0.23661417)
(3.2642674e-07 -1.1388146e-06 0.23661411)
(1.0054168e-06 -1.2179192e-06 0.23661421)
(1.3186021e-06 -1.2603098e-06 0.23661444)
(1.2175713e-06 -1.1691618e-06 0.23661478)
(6.4403193e-07 -1.0238543e-06 0.236615)
(9.4883493e-08 -9.3816292e-07 0.23661506)
(-2.4912857e-07 -1.0868236e-06 0.23661446)
(-8.8374727e-07 -9.4209731e-07 0.23661434)
(-1.1619577e-06 -7.8474877e-07 0.23661417)
(-7.4977023e-07 -7.4977023e-07 0.23661395)
(2.441663e-07 -8.393832e-07 0.23661387)
(9.0263174e-07 -9.9229347e-07 0.23661394)
(1.3040809e-06 -1.1189591e-06 0.23661415)
(1.3315344e-06 -1.1358095e-06 0.2366145)
(8.2979365e-07 -1.0467097e-06 0.23661475)
(1.6116104e-07 -9.1910915e-07 0.23661484)
(-1.5955377e-07 1.2389078e-07 0.23661437)
(-7.0462754e-07 3.0012775e-07 0.23661428)
(-1.1388146e-06 3.2642674e-07 0.23661411)
(-8.393832e-07 2.441663e-07 0.23661387)
(8.3903502e-08 8.3903502e-08 0.23661375)
(7.2584084e-07 -1.0707395e-07 0.23661378)
(1.1750861e-06 -2.7943368e-07 0.23661396)
(1.2898208e-06 -3.8862693e-07 0.23661429)
(8.6073227e-07 -4.2154679e-07 0.23661455)
(1.7995051e-07 -4.0222315e-07 0.23661466)
(-1.3163726e-07 9.6047077e-07 0.23661449)
(-6.8121132e-07 1.0241269e-06 0.2366144)
(-1.2179192e-06 1.0054168e-06 0.23661421)
(-9.9229347e-07 9.0263174e-07 0.23661394)
(-1.0707395e-07 7.2584084e-07 0.23661378)
(5.3929455e-07 5.3929455e-07 0.23661376)
(1.0225279e-06 3.9167137e-07 0.23661391)
(1.1894213e-06 2.9877502e-07 0.23661423)
(8.1619744e-07 2.610451e-07 0.23661449)
(1.7404347e-07 2.6922562e-07 0.23661461)
(-1.1711635e-07 1.1765102e-06 0.23661471)
(-6.5968155e-07 1.2553235e-06 0.23661463)
(-1.2603098e-06 1.3186021e-06 0.23661444)
(-1.1189591e-06 1.3040809e-06 0.23661415)
(-2.7943368e-07 1.1750861e-06 0.23661396)
(3.9167137e-07 1.0225279e-06 0.23661391)
(9.3456658e-07 9.3456658e-07 0.23661404)
(1.1591945e-06 9.165589e-07 0.23661436)
(8.3118287e-07 9.347321e-07 0.23661464)
(1.8540419e-07 9.452959e-07 0.23661478)
(-7.9095082e-08 1.0501752e-06 0.23661499)
(-5.391194e-07 1.0950789e-06 0.23661494)
(-1.1691618e-06 1.2175713e-06 0.23661478)
(-1.1358095e-06 1.3315344e-06 0.2366145)
(-3.8862693e-07 1.2898208e-06 0.23661429)
(2.9877502e-07 1.1894213e-06 0.23661423)
(9.165589e-07 1.1591945e-06 0.23661436)
(1.1895869e-06 1.1895869e-06 0.2366147)
(8.4493445e-07 1.1886404e-06 0.23661499)
(1.81086e-07 1.0626895e-06 0.23661512)
(-8.7180551e-08 7.0209665e-07 0.23661521)
(-4.9228547e-07 5.9879478e-07 0.23661515)
(-1.0238543e-06 6.4403193e-07 0.236615)
(-1.0467097e-06 8.2979366e-07 0.23661475)
(-4.2154679e-07 8.6073227e-07 0.23661455)
(2.6104511e-07 8.1619744e-07 0.23661449)
(9.347321e-07 8.3118287e-07 0.23661464)
(1.1886404e-06 8.4493445e-07 0.23661499)
(7.0428554e-07 7.0428554e-07 0.23661526)
(1.0143692e-07 5.7852165e-07 0.23661527)
(-1.47963e-07 1.6481593e-07 0.23661531)
(-5.9718412e-07 1.0403348e-07 0.23661522)
(-9.3816292e-07 9.4883492e-08 0.23661506)
(-9.1910915e-07 1.6116104e-07 0.23661484)
(-4.0222314e-07 1.7995051e-07 0.23661466)
(2.6922562e-07 1.7404347e-07 0.23661461)
(9.452959e-07 1.8540419e-07 0.23661478)
(1.0626895e-06 1.81086e-07 0.23661512)
(5.7852165e-07 1.0143692e-07 0.23661527)
(9.7243412e-08 9.7243412e-08 0.23661532)
(-1.4004806e-07 -1.4004806e-07 0.23345723)
(-5.7812844e-07 -4.9390661e-08 0.23345718)
(-1.311926e-06 -2.8703522e-07 0.23345706)
(-1.2511783e-06 -2.8683298e-07 0.23345684)
(1.2272328e-07 -1.8921211e-07 0.23345672)
(1.1176053e-06 -1.6067037e-07 0.23345681)
(1.4186364e-06 -1.4299437e-07 0.23345701)
(1.2947662e-06 -9.4062682e-08 0.23345727)
(8.6102784e-07 -1.0401786e-07 0.23345748)
(1.982165e-07 -1.7439476e-07 0.23345758)
(-4.9390661e-08 -5.7812844e-07 0.23345718)
(-7.9860919e-07 -7.9860919e-07 0.23345715)
(-1.6680895e-06 -1.1476452e-06 0.23345697)
(-1.1044437e-06 -1.025751e-06 0.23345672)
(3.1196719e-07 -8.3500329e-07 0.23345663)
(1.1869319e-06 -8.1929119e-07 0.23345672)
(1.5185479e-06 -7.9367096e-07 0.23345693)
(1.3532309e-06 -6.4364056e-07 0.23345722)
(7.4052972e-07 -5.9388776e-07 0.23345743)
(1.278396e-07 -7.1912466e-07 0.2334575)
(-2.8703522e-07 -1.311926e-06 0.23345706)
(-1.1476452e-06 -1.6680895e-06 0.23345697)
(-1.5390679e-06 -1.5390679e-06 0.23345678)
(-9.3853642e-07 -1.3595273e-06 0.23345655)
(3.2918312e-07 -1.347312e-06 0.23345645)
(1.1589376e-06 -1.451072e-06 0.23345653)
(1.594287e-06 -1.5028988e-06 0.23345673)
(1.4945494e-06 -1.3917691e-06 0.23345705)
(7.8554374e-07 -1.2266866e-06 0.23345727)
(1.1472524e-07 -1.1342166e-06 0.23345733)
(-2.8683298e-07 -1.2511783e-06 0.23345684)
(-1.025751e-06 -1.1044437e-06 0.23345672)
(-1.3595273e-06 -9.3853642e-07 0.23345655)
(-9.1268779e-07 -9.1268779e-07 0.23345632)
(2.2042249e-07 -1.030779e-06 0.2334562)
(1.0313451e-06 -1.2207809e-06 0.23345624)
(1.5778509e-06 -1.3729385e-06 0.23345643)
(1.6294432e-06 -1.3882064e-06 0.23345677)
(9.980822e-07 -1.2798053e-06 0.23345701)
(1.8948625e-07 -1.1293967e-06 0.23345709)
(-1.8921211e-07 1.2272328e-07 0.23345672)
(-8.3500329e-07 3.119672e-07 0.23345663)
(-1.347312e-06 3.2918312e-07 0.23345645)
(-1.030779e-06 2.2042249e-07 0.2334562)
(2.1089996e-08 2.1089996e-08 0.23345605)
(8.1677816e-07 -2.118819e-07 0.23345605)
(1.4268615e-06 -4.1698778e-07 0.2334562)
(1.5876825e-06 -5.392093e-07 0.23345653)
(1.0443535e-06 -5.6548579e-07 0.23345679)
(2.1499766e-07 -5.2714117e-07 0.23345689)
(-1.6067037e-07 1.1176053e-06 0.23345681)
(-8.1929119e-07 1.1869319e-06 0.23345672)
(-1.451072e-06 1.1589376e-06 0.23345653)
(-1.2207809e-06 1.0313451e-06 0.23345624)
(-2.118819e-07 8.1677816e-07 0.23345605)
(5.932673e-07 5.932673e-07 0.233456)
(1.2505235e-06 4.2177183e-07 0.23345613)
(1.4809452e-06 3.231682e-07 0.23345644)
(1.0101503e-06 2.9672516e-07 0.2334567)
(2.1504933e-07 3.2738031e-07 0.23345682)
(-1.4299437e-07 1.4186364e-06 0.23345701)
(-7.9367096e-07 1.5185479e-06 0.23345693)
(-1.5028988e-06 1.594287e-06 0.23345673)
(-1.3729385e-06 1.5778509e-06 0.23345643)
(-4.1698778e-07 1.4268615e-06 0.2334562)
(4.2177183e-07 1.2505235e-06 0.23345613)
(1.1567624e-06 1.1567624e-06 0.23345624)
(1.4626358e-06 1.1519271e-06 0.23345656)
(1.0485656e-06 1.1888849e-06 0.23345684)
(2.3543443e-07 1.2032624e-06 0.23345699)
(-9.4062682e-08 1.2947662e-06 0.23345727)
(-6.4364056e-07 1.3532309e-06 0.23345722)
(-1.3917691e-06 1.4945494e-06 0.23345705)
(-1.3882064e-06 1.6294432e-06 0.23345677)
(-5.392093e-07 1.5876825e-06 0.23345653)
(3.2316819e-07 1.4809452e-06 0.23345644)
(1.1519271e-06 1.4626358e-06 0.23345656)
(1.5130677e-06 1.5130677e-06 0.2334569)
(1.0614857e-06 1.5038372e-06 0.2334572)
(2.2463435e-07 1.310794e-06 0.23345734)
(-1.0401786e-07 8.6102784e-07 0.23345748)
(-5.9388776e-07 7.4052972e-07 0.23345743)
(-1.2266866e-06 7.8554374e-07 0.23345727)
(-1.2798053e-06 9.980822e-07 0.23345701)
(-5.6548579e-07 1.0443535e-06 0.23345679)
(2.9672516e-07 1.0101503e-06 0.2334567)
(1.1888849e-06 1.0485656e-06 0.23345684)
(1.5038372e-06 1.0614857e-06 0.2334572)
(8.46292e-07 8.46292e-07 0.23345747)
(1.0673897e-07 6.789408e-07 0.23345749)
(-1.7439476e-07 1.982165e-07 0.23345758)
(-7.1912466e-07 1.278396e-07 0.2334575)
(-1.1342166e-06 1.1472524e-07 0.23345733)
(-1.1293967e-06 1.8948625e-07 0.23345709)
(-5.2714117e-07 2.1499767e-07 0.23345689)
(3.2738031e-07 2.1504934e-07 0.23345682)
(1.2032624e-06 2.3543443e-07 0.23345699)
(1.310794e-06 2.2463434e-07 0.23345734)
(6.789408e-07 1.0673897e-07 0.23345749)
(1.1306688e-07 1.1306688e-07 0.23345754)
(-1.5341028e-07 -1.5341028e-07 0.2295987)
(-6.590831e-07 -6.0195157e-08 0.22959866)
(-1.4842335e-06 -3.149388e-07 0.22959853)
(-1.4294501e-06 -3.2457089e-07 0.22959831)
(9.126986e-08 -2.1940278e-07 0.22959817)
(1.2471664e-06 -1.9020845e-07 0.22959822)
(1.63981e-06 -1.6955409e-07 0.2295984)
(1.525231e-06 -1.1049002e-07 0.22959865)
(1.0091312e-06 -1.2198286e-07 0.22959885)
(2.2799869e-07 -1.9974619e-07 0.22959893)
(-6.0195157e-08 -6.590831e-07 0.22959866)
(-9.0137587e-07 -9.0137587e-07 0.22959863)
(-1.8807971e-06 -1.2854982e-06 0.22959845)
(-1.2861461e-06 -1.1708578e-06 0.2295982)
(2.9281351e-07 -9.6952266e-07 0.22959807)
(1.3219394e-06 -9.6135777e-07 0.22959813)
(1.7593876e-06 -9.3165087e-07 0.22959832)
(1.5965878e-06 -7.5431639e-07 0.22959859)
(8.7524697e-07 -7.0309629e-07 0.22959879)
(1.5023535e-07 -8.4503371e-07 0.22959885)
(-3.149388e-07 -1.4842335e-06 0.22959853)
(-1.2854982e-06 -1.8807971e-06 0.22959845)
(-1.7537154e-06 -1.7537154e-06 0.22959826)
(-1.1134746e-06 -1.5660131e-06 0.22959802)
(3.007699e-07 -1.56535e-06 0.22959789)
(1.2850381e-06 -1.6935799e-06 0.22959793)
(1.8468513e-06 -1.753763e-06 0.22959812)
(1.7537856e-06 -1.6228311e-06 0.22959842)
(9.184139e-07 -1.4402739e-06 0.22959862)
(1.3337374e-07 -1.3416561e-06 0.22959867)
(-3.2457089e-07 -1.4294501e-06 0.22959831)
(-1.1708578e-06 -1.2861461e-06 0.2295982)
(-1.5660131e-06 -1.1134746e-06 0.22959802)
(-1.0977807e-06 -1.0977807e-06 0.22959778)
(1.652467e-07 -1.2450559e-06 0.22959763)
(1.1335264e-06 -1.4721831e-06 0.22959764)
(1.8301364e-06 -1.648346e-06 0.22959781)
(1.9100769e-06 -1.6596692e-06 0.22959812)
(1.156422e-06 -1.5303362e-06 0.22959835)
(2.1598057e-07 -1.3562152e-06 0.22959843)
(-2.1940278e-07 9.1269862e-08 0.22959817)
(-9.6952266e-07 2.9281351e-07 0.22959807)
(-1.56535e-06 3.007699e-07 0.22959789)
(-1.2450559e-06 1.652467e-07 0.22959763)
(-7.363255e-08 -7.363255e-08 0.22959744)
(8.8174797e-07 -3.487304e-07 0.22959741)
(1.6593652e-06 -5.8540436e-07 0.22959755)
(1.8717953e-06 -7.1780047e-07 0.22959786)
(1.221868e-06 -7.3344624e-07 0.2295981)
(2.4945447e-07 -6.7189105e-07 0.2295982)
(-1.9020845e-07 1.2471664e-06 0.22959822)
(-9.6135777e-07 1.3219394e-06 0.22959813)
(-1.6935799e-06 1.2850381e-06 0.22959793)
(-1.4721831e-06 1.1335264e-06 0.22959764)
(-3.487304e-07 8.8174797e-07 0.22959741)
(6.2175459e-07 6.2175459e-07 0.22959734)
(1.4610663e-06 4.2783573e-07 0.22959745)
(1.762035e-06 3.2648923e-07 0.22959774)
(1.2023314e-06 3.1562295e-07 0.229598)
(2.5701736e-07 3.7319651e-07 0.22959812)
(-1.6955409e-07 1.63981e-06 0.2295984)
(-9.3165087e-07 1.7593876e-06 0.22959832)
(-1.753763e-06 1.8468513e-06 0.22959812)
(-1.648346e-06 1.8301364e-06 0.22959781)
(-5.8540436e-07 1.6593652e-06 0.22959755)
(4.2783573e-07 1.4610663e-06 0.22959745)
(1.3640999e-06 1.3640999e-06 0.22959754)
(1.7595826e-06 1.3763137e-06 0.22959785)
(1.2685752e-06 1.4360384e-06 0.22959812)
(2.8783684e-07 1.4557595e-06 0.22959828)
(-1.1049002e-07 1.525231e-06 0.22959865)
(-7.5431639e-07 1.5965878e-06 0.22959859)
(-1.6228311e-06 1.7537856e-06 0.22959842)
(-1.6596692e-06 1.9100769e-06 0.22959812)
(-7.1780047e-07 1.8717953e-06 0.22959786)
(3.2648923e-07 1.762035e-06 0.22959774)
(1.3763137e-06 1.7595826e-06 0.22959785)
(1.8339736e-06 1.8339736e-06 0.22959818)
(1.2817772e-06 1.8177826e-06 0.22959848)
(2.7016472e-07 1.5567248e-06 0.22959861)
(-1.2198286e-07 1.0091312e-06 0.22959885)
(-7.0309629e-07 8.7524697e-07 0.22959879)
(-1.4402739e-06 9.184139e-07 0.22959862)
(-1.5303362e-06 1.156422e-06 0.22959835)
(-7.3344624e-07 1.221868e-06 0.2295981)
(3.1562295e-07 1.2023314e-06 0.229598)
(1.4360384e-06 1.2685752e-06 0.22959812)
(1.8177826e-06 1.2817772e-06 0.22959848)
(9.9132644e-07 9.9132644e-07 0.22959874)
(1.1379828e-07 7.8077952e-07 0.22959877)
(-1.9974619e-07 2.2799869e-07 0.22959893)
(-8.4503371e-07 1.5023535e-07 0.22959885)
(-1.3416561e-06 1.3337374e-07 0.22959867)
(-1.3562152e-06 2.1598057e-07 0.22959843)
(-6.7189105e-07 2.4945446e-07 0.2295982)
(3.7319651e-07 2.5701736e-07 0.22959812)
(1.4557595e-06 2.8783684e-07 0.22959828)
(1.5567248e-06 2.7016472e-07 0.22959861)