/*--------------------------------*- C++ -*----------------------------------*\
| =========                 |                                                 |
| \\      /  F ield         | OpenFOAM: The Open Source CFD Toolbox           |
|  \\    /   O peration     | Version:  v2106                                 |
|   \\  /    A nd           | Website:  www.openfoam.com                      |
|    \\/     M anipulation  |                                                 |
\*---------------------------------------------------------------------------*/
FoamFile
{
    version     2.0;
    format      ascii;
    arch        "LSB;label=32;scalar=64";
    class       volVectorField;
    location    "50";
    object      Tmode_grad0;
}
// * * * * * * * * * * * * * * * * * * * * * * * * * * * * * * * * * * * * * //

dimensions      [0 -1 0 0 0 0 0];

internalField   nonuniform List<vector> 
4000
(
(1.7425939e-09 1.7425948e-09 -0.0076301545)
(6.3471547e-09 2.5401741e-09 -0.0076301545)
(1.0390472e-09 -9.3480137e-10 -0.0076301509)
(4.0379883e-09 1.9064394e-09 -0.0076301497)
(1.168543e-08 2.6656299e-09 -0.0076301416)
(5.9501431e-09 2.4591892e-09 -0.0076301362)
(-6.824927e-10 1.9534785e-09 -0.0076301356)
(-4.0426768e-09 1.4507722e-09 -0.0076301382)
(-3.8555635e-09 1.0039134e-09 -0.0076301413)
(-9.9486478e-10 4.2594407e-10 -0.0076301429)
(2.5401732e-09 6.3471549e-09 -0.0076301545)
(2.3310604e-09 2.3310617e-09 -0.0076301536)
(8.8444968e-11 8.0379071e-10 -0.0076301514)
(9.4386352e-09 6.5831642e-09 -0.0076301471)
(1.2514555e-08 7.6132782e-09 -0.0076301383)
(4.881916e-09 6.583935e-09 -0.0076301334)
(-2.1951182e-09 4.9258522e-09 -0.0076301338)
(-5.4670244e-09 3.5712042e-09 -0.0076301372)
(-5.3928057e-09 2.8457238e-09 -0.0076301413)
(-1.5728341e-09 1.8776049e-09 -0.0076301441)
(-9.3480153e-10 1.0390456e-09 -0.0076301509)
(8.0379054e-10 8.8444879e-11 -0.0076301514)
(5.2911496e-09 5.2911496e-09 -0.007630147)
(1.0847476e-08 6.8911421e-09 -0.0076301415)
(1.1686201e-08 6.2335259e-09 -0.0076301329)
(3.2627171e-09 4.5453631e-09 -0.0076301291)
(-3.6952236e-09 2.4749269e-09 -0.0076301306)
(-6.1228052e-09 8.0436213e-10 -0.0076301347)
(-5.5491628e-09 3.5401647e-10 -0.0076301388)
(-1.6402774e-09 6.9717582e-10 -0.0076301419)
(1.9064394e-09 4.0379881e-09 -0.0076301497)
(6.5831644e-09 9.4386351e-09 -0.0076301471)
(6.8911422e-09 1.0847476e-08 -0.0076301415)
(1.0381012e-08 1.0381012e-08 -0.007630136)
(1.0168776e-08 9.0006005e-09 -0.0076301282)
(1.1233171e-09 7.0607203e-09 -0.0076301256)
(-5.9361192e-09 4.7367197e-09 -0.0076301286)
(-7.5879349e-09 2.3682023e-09 -0.0076301341)
(-5.499992e-09 6.9578683e-10 -0.0076301388)
(-1.3440612e-09 1.6232994e-10 -0.0076301417)
(2.6656298e-09 1.1685431e-08 -0.0076301416)
(7.6132782e-09 1.2514555e-08 -0.0076301383)
(6.233526e-09 1.1686201e-08 -0.0076301329)
(9.0006006e-09 1.0168776e-08 -0.0076301282)
(8.3659101e-09 8.3659103e-09 -0.0076301214)
(-1.0011637e-09 6.4703558e-09 -0.0076301201)
(-8.3877416e-09 4.4377451e-09 -0.0076301246)
(-1.0163738e-08 2.2790658e-09 -0.0076301317)
(-7.7550352e-09 1.9979617e-10 -0.0076301379)
(-1.9959154e-09 -1.4068627e-09 -0.007630142)
(2.4591893e-09 5.9501432e-09 -0.0076301362)
(6.5839351e-09 4.8819161e-09 -0.0076301334)
(4.545363e-09 3.2627173e-09 -0.0076301291)
(7.0607205e-09 1.123317e-09 -0.0076301256)
(6.4703558e-09 -1.0011637e-09 -0.0076301201)
(-2.8048482e-09 -2.8048478e-09 -0.00763012)
(-1.0127409e-08 -4.3300985e-09 -0.0076301257)
(-1.1825884e-08 -5.6274764e-09 -0.0076301339)
(-9.1859206e-09 -6.6812056e-09 -0.007630141)
(-2.4151672e-09 -7.400175e-09 -0.0076301458)
(1.9534785e-09 -6.8249279e-10 -0.0076301356)
(4.9258523e-09 -2.1951184e-09 -0.0076301338)
(2.4749269e-09 -3.6952236e-09 -0.0076301306)
(4.7367196e-09 -5.9361192e-09 -0.0076301286)
(4.4377452e-09 -8.3877419e-09 -0.0076301246)
(-4.3300985e-09 -1.0127409e-08 -0.0076301257)
(-1.121037e-08 -1.121037e-08 -0.0076301322)
(-1.2514845e-08 -1.1742024e-08 -0.0076301409)
(-9.5277339e-09 -1.1817491e-08 -0.0076301484)
(-2.4752283e-09 -1.158882e-08 -0.0076301531)
(1.4507723e-09 -4.0426767e-09 -0.0076301382)
(3.5712044e-09 -5.4670244e-09 -0.0076301372)
(8.0436212e-10 -6.1228052e-09 -0.0076301347)
(2.3682022e-09 -7.5879348e-09 -0.0076301341)
(2.2790659e-09 -1.0163738e-08 -0.0076301317)
(-5.6274763e-09 -1.1825884e-08 -0.0076301339)
(-1.1742024e-08 -1.2514845e-08 -0.0076301409)
(-1.2433005e-08 -1.2433005e-08 -0.0076301497)
(-9.0327168e-09 -1.1795391e-08 -0.0076301568)
(-2.2627199e-09 -1.0949504e-08 -0.007630161)
(1.0039133e-09 -3.8555634e-09 -0.0076301413)
(2.8457238e-09 -5.3928057e-09 -0.0076301413)
(3.5401647e-10 -5.5491627e-09 -0.0076301388)
(6.9578685e-10 -5.499992e-09 -0.0076301388)
(1.9979635e-10 -7.755035e-09 -0.0076301379)
(-6.6812057e-09 -9.1859205e-09 -0.007630141)
(-1.1817491e-08 -9.5277337e-09 -0.0076301484)
(-1.1795391e-08 -9.0327168e-09 -0.0076301568)
(-8.0442333e-09 -8.0442335e-09 -0.0076301632)
(-1.9113034e-09 -7.0895629e-09 -0.0076301666)
(4.2594411e-10 -9.9486482e-10 -0.0076301429)
(1.8776051e-09 -1.572834e-09 -0.0076301441)
(6.9717574e-10 -1.6402773e-09 -0.0076301419)
(1.6232987e-10 -1.3440612e-09 -0.0076301417)
(-1.4068626e-09 -1.9959153e-09 -0.007630142)
(-7.400175e-09 -2.4151671e-09 -0.0076301458)
(-1.158882e-08 -2.4752282e-09 -0.0076301531)
(-1.0949504e-08 -2.2627199e-09 -0.007630161)
(-7.0895629e-09 -1.9113035e-09 -0.0076301666)
(-1.6262728e-09 -1.6262729e-09 -0.0076301696)
(1.7516495e-09 1.7516494e-09 -0.022906865)
(1.177123e-08 3.4482757e-09 -0.022906867)
(8.2693692e-09 -1.4833547e-09 -0.022906856)
(1.794591e-08 4.525919e-09 -0.022906848)
(3.1868035e-08 6.0055553e-09 -0.022906825)
(1.494984e-08 5.2389222e-09 -0.022906812)
(-3.603384e-09 3.7786862e-09 -0.022906812)
(-1.256134e-08 2.4218101e-09 -0.022906821)
(-1.0966287e-08 1.0267333e-09 -0.022906831)
(-2.6069548e-09 -7.1721022e-10 -0.022906834)
(3.4482758e-09 1.177123e-08 -0.022906867)
(6.9187239e-09 6.9187238e-09 -0.022906863)
(9.8858342e-09 6.6688047e-09 -0.022906855)
(2.9179275e-08 1.8895878e-08 -0.022906839)
(3.293754e-08 2.0628005e-08 -0.022906815)
(1.1609536e-08 1.730776e-08 -0.022906803)
(-7.829052e-09 1.24784e-08 -0.022906806)
(-1.6689269e-08 8.8154306e-09 -0.022906817)
(-1.5674818e-08 6.592935e-09 -0.02290683)
(-4.3508983e-09 3.4105385e-09 -0.022906838)
(-1.4833547e-09 8.2693692e-09 -0.022906856)
(6.6688047e-09 9.8858338e-09 -0.022906855)
(2.0246524e-08 2.0246524e-08 -0.022906841)
(3.190511e-08 2.3534354e-08 -0.022906823)
(3.0279917e-08 2.1392357e-08 -0.0229068)
(6.8002349e-09 1.6377948e-08 -0.022906791)
(-1.2095714e-08 1.0261332e-08 -0.022906797)
(-1.8446805e-08 5.5141977e-09 -0.02290681)
(-1.6371179e-08 4.1314501e-09 -0.022906823)
(-4.7285525e-09 4.2511615e-09 -0.022906833)
(4.5259189e-09 1.794591e-08 -0.022906848)
(1.8895878e-08 2.9179275e-08 -0.022906839)
(2.3534354e-08 3.190511e-08 -0.022906823)
(3.0325108e-08 3.0325108e-08 -0.022906805)
(2.5781135e-08 2.6254342e-08 -0.022906784)
(4.7851193e-10 2.0523761e-08 -0.022906779)
(-1.8692803e-08 1.3645976e-08 -0.022906791)
(-2.2819152e-08 6.7810804e-09 -0.022906808)
(-1.6937854e-08 1.9962628e-09 -0.022906823)
(-4.2710907e-09 4.7908726e-11 -0.022906832)
(6.0055553e-09 3.1868036e-08 -0.022906825)
(2.0628005e-08 3.2937541e-08 -0.022906815)
(2.1392357e-08 3.0279917e-08 -0.0229068)
(2.6254343e-08 2.5781135e-08 -0.022906784)
(2.047857e-08 2.047857e-08 -0.022906767)
(-5.8081316e-09 1.4850173e-08 -0.022906766)
(-2.5838394e-08 8.8368121e-09 -0.022906781)
(-3.0096518e-08 2.5785314e-09 -0.022906803)
(-2.3104351e-08 -3.2256681e-09 -0.022906822)
(-6.0274552e-09 -7.5711865e-09 -0.022906835)
(5.2389221e-09 1.494984e-08 -0.022906812)
(1.730776e-08 1.1609537e-08 -0.022906803)
(1.6377949e-08 6.8002352e-09 -0.022906791)
(2.0523761e-08 4.7851185e-10 -0.022906779)
(1.4850173e-08 -5.8081315e-09 -0.022906766)
(-1.1163246e-08 -1.1163246e-08 -0.022906768)
(-3.0964444e-08 -1.5673176e-08 -0.022906787)
(-3.4881632e-08 -1.9432072e-08 -0.022906812)
(-2.7087572e-08 -2.2346575e-08 -0.022906834)
(-7.168103e-09 -2.4135016e-08 -0.022906848)
(3.7786862e-09 -3.603384e-09 -0.022906812)
(1.24784e-08 -7.829052e-09 -0.022906806)
(1.0261332e-08 -1.2095714e-08 -0.022906797)
(1.3645976e-08 -1.8692803e-08 -0.022906791)
(8.8368123e-09 -2.5838394e-08 -0.022906781)
(-1.5673176e-08 -3.0964444e-08 -0.022906787)
(-3.410722e-08 -3.410722e-08 -0.022906809)
(-3.6769918e-08 -3.5525308e-08 -0.022906835)
(-2.7807295e-08 -3.5475671e-08 -0.022906857)
(-7.219749e-09 -3.4328014e-08 -0.022906871)
(2.4218101e-09 -1.256134e-08 -0.022906821)
(8.8154305e-09 -1.6689269e-08 -0.022906817)
(5.5141979e-09 -1.8446805e-08 -0.02290681)
(6.7810806e-09 -2.2819152e-08 -0.022906808)
(2.5785313e-09 -3.0096518e-08 -0.022906803)
(-1.9432072e-08 -3.4881632e-08 -0.022906812)
(-3.5525308e-08 -3.6769918e-08 -0.022906835)
(-3.6250082e-08 -3.6250082e-08 -0.022906861)
(-2.5890278e-08 -3.4006036e-08 -0.022906882)
(-6.4029986e-09 -3.1097853e-08 -0.022906894)
(1.0267333e-09 -1.0966287e-08 -0.022906831)
(6.5929351e-09 -1.5674818e-08 -0.02290683)
(4.1314503e-09 -1.6371179e-08 -0.022906823)
(1.9962629e-09 -1.6937854e-08 -0.022906823)
(-3.2256679e-09 -2.3104351e-08 -0.022906822)
(-2.2346575e-08 -2.7087572e-08 -0.022906834)
(-3.5475671e-08 -2.7807295e-08 -0.022906857)
(-3.4006036e-08 -2.5890278e-08 -0.022906882)
(-2.2655066e-08 -2.2655066e-08 -0.022906901)
(-5.2809604e-09 -2.0115602e-08 -0.022906911)
(-7.172102e-10 -2.6069547e-09 -0.022906834)
(3.4105387e-09 -4.3508982e-09 -0.022906838)
(4.2511617e-09 -4.7285523e-09 -0.022906833)
(4.790852e-11 -4.2710907e-09 -0.022906832)
(-7.5711867e-09 -6.0274552e-09 -0.022906835)
(-2.4135016e-08 -7.1681031e-09 -0.022906848)
(-3.4328014e-08 -7.219749e-09 -0.022906871)
(-3.1097853e-08 -6.4029986e-09 -0.022906894)
(-2.0115602e-08 -5.2809603e-09 -0.022906911)
(-4.7100225e-09 -4.7100225e-09 -0.022906919)
(1.4384456e-10 1.4384448e-10 -0.022950594)
(1.4785528e-08 4.9517201e-09 -0.022950596)
(1.9942241e-08 2.1537536e-12 -0.022950584)
(3.4935393e-08 7.7704554e-09 -0.022950572)
(4.825548e-08 9.434636e-09 -0.022950553)
(1.9486954e-08 7.9513619e-09 -0.022950544)
(-9.7371511e-09 5.580746e-09 -0.022950548)
(-2.2916279e-08 3.6629793e-09 -0.022950559)
(-1.7549417e-08 1.2178543e-09 -0.022950571)
(-3.443118e-09 -2.2630336e-09 -0.022950574)
(4.9517202e-09 1.4785528e-08 -0.022950596)
(1.4572992e-08 1.4572992e-08 -0.02295059)
(2.4170344e-08 1.6326754e-08 -0.022950579)
(4.9084116e-08 3.1983816e-08 -0.022950562)
(4.8526839e-08 3.3302137e-08 -0.022950542)
(1.3706119e-08 2.7300618e-08 -0.022950536)
(-1.6169725e-08 1.9249636e-08 -0.022950543)
(-2.9460617e-08 1.3846236e-08 -0.022950555)
(-2.6438437e-08 1.0157469e-08 -0.02295057)
(-6.9240059e-09 3.6760695e-09 -0.022950578)
(2.1538327e-12 1.9942241e-08 -0.022950584)
(1.6326754e-08 2.4170343e-08 -0.022950579)
(3.7353065e-08 3.7353065e-08 -0.022950564)
(5.1910776e-08 4.1081522e-08 -0.022950545)
(4.3572282e-08 3.7044005e-08 -0.022950527)
(5.4344538e-09 2.8512354e-08 -0.022950524)
(-2.3191533e-08 1.8162487e-08 -0.022950535)
(-3.2008447e-08 1.0380049e-08 -0.02295055)
(-2.7719584e-08 7.9970457e-09 -0.022950564)
(-7.7640511e-09 7.0071392e-09 -0.022950574)
(7.7704553e-09 3.4935393e-08 -0.022950572)
(3.1983816e-08 4.9084116e-08 -0.022950562)
(4.1081522e-08 5.1910776e-08 -0.022950545)
(4.8775057e-08 4.8775056e-08 -0.022950528)
(3.5957671e-08 4.1917767e-08 -0.022950513)
(-5.1753998e-09 3.2392103e-08 -0.022950513)
(-3.4302029e-08 2.0950896e-08 -0.022950529)
(-3.9626058e-08 9.6358363e-09 -0.022950548)
(-2.9811347e-08 1.6896632e-09 -0.022950564)
(-7.5839435e-09 -2.1831888e-09 -0.022950575)
(9.4346358e-09 4.825548e-08 -0.022950553)
(3.3302137e-08 4.852684e-08 -0.022950542)
(3.7044006e-08 4.3572282e-08 -0.022950527)
(4.1917767e-08 3.5957671e-08 -0.022950513)
(2.7189329e-08 2.7189328e-08 -0.0229505)
(-1.5532417e-08 1.790631e-08 -0.022950505)
(-4.5947801e-08 8.0472837e-09 -0.022950525)
(-5.126968e-08 -2.0445538e-09 -0.022950548)
(-3.9538609e-08 -1.1157583e-08 -0.022950568)
(-1.0345952e-08 -1.7823887e-08 -0.022950581)
(7.9513618e-09 1.9486954e-08 -0.022950544)
(2.7300618e-08 1.3706119e-08 -0.022950536)
(2.8512354e-08 5.434454e-09 -0.022950524)
(3.2392103e-08 -5.1753997e-09 -0.022950513)
(1.790631e-08 -1.5532417e-08 -0.022950505)
(-2.4317444e-08 -2.4317445e-08 -0.022950513)
(-5.4252893e-08 -3.1627497e-08 -0.022950536)
(-5.8830925e-08 -3.7538365e-08 -0.022950562)
(-4.559068e-08 -4.1827419e-08 -0.022950584)
(-1.2028146e-08 -4.4018105e-08 -0.022950599)
(5.5807461e-09 -9.7371511e-09 -0.022950548)
(1.9249636e-08 -1.6169725e-08 -0.022950543)
(1.8162486e-08 -2.3191533e-08 -0.022950535)
(2.0950896e-08 -3.4302029e-08 -0.022950529)
(8.0472837e-09 -4.59478e-08 -0.022950525)
(-3.1627497e-08 -5.4252893e-08 -0.022950536)
(-5.9168721e-08 -5.9168721e-08 -0.022950561)
(-6.1469602e-08 -6.1027598e-08 -0.022950588)
(-4.6018349e-08 -6.0213363e-08 -0.022950611)
(-1.1806409e-08 -5.7280158e-08 -0.022950624)
(3.6629793e-09 -2.2916279e-08 -0.022950559)
(1.3846236e-08 -2.9460617e-08 -0.022950555)
(1.0380049e-08 -3.2008446e-08 -0.02295055)
(9.6358363e-09 -3.9626058e-08 -0.022950548)
(-2.044554e-09 -5.1269679e-08 -0.022950548)
(-3.7538365e-08 -5.8830925e-08 -0.022950562)
(-6.1027598e-08 -6.1469602e-08 -0.022950588)
(-5.9875567e-08 -5.9875567e-08 -0.022950614)
(-4.1843241e-08 -5.5373005e-08 -0.022950635)
(-1.0072676e-08 -5.0033426e-08 -0.022950645)
(1.2178543e-09 -1.7549417e-08 -0.022950571)
(1.0157469e-08 -2.6438437e-08 -0.02295057)
(7.9970459e-09 -2.7719584e-08 -0.022950564)
(1.6896633e-09 -2.9811347e-08 -0.022950564)
(-1.1157583e-08 -3.9538609e-08 -0.022950568)
(-4.1827419e-08 -4.559068e-08 -0.022950584)
(-6.0213363e-08 -4.6018348e-08 -0.022950611)
(-5.5373005e-08 -4.1843241e-08 -0.022950635)
(-3.6176208e-08 -3.6176207e-08 -0.022950652)
(-8.2466901e-09 -3.2032657e-08 -0.022950662)
(-2.2630336e-09 -3.443118e-09 -0.022950574)
(3.6760695e-09 -6.9240059e-09 -0.022950578)
(7.0071391e-09 -7.7640511e-09 -0.022950574)
(-2.1831888e-09 -7.5839438e-09 -0.022950575)
(-1.7823887e-08 -1.0345953e-08 -0.022950581)
(-4.4018105e-08 -1.2028146e-08 -0.022950599)
(-5.7280158e-08 -1.1806409e-08 -0.022950624)
(-5.0033425e-08 -1.0072676e-08 -0.022950645)
(-3.2032657e-08 -8.24669e-09 -0.022950662)
(-7.3103095e-09 -7.3103093e-09 -0.022950669)
(5.6199476e-10 5.619947e-10 -0.02301616)
(2.2071317e-08 7.2880802e-09 -0.023016157)
(3.2593062e-08 2.1010585e-09 -0.023016144)
(4.9439963e-08 1.1194207e-08 -0.023016134)
(5.989471e-08 1.2846586e-08 -0.023016119)
(1.9507211e-08 1.0538673e-08 -0.023016115)
(-1.8971134e-08 7.2193058e-09 -0.023016123)
(-3.5333384e-08 4.9842433e-09 -0.023016137)
(-2.5516095e-08 1.8116858e-09 -0.02301615)
(-4.5610483e-09 -3.2992123e-09 -0.023016153)
(7.2880803e-09 2.2071317e-08 -0.023016157)
(2.4379913e-08 2.4379913e-08 -0.023016149)
(3.8452253e-08 2.7282293e-08 -0.023016137)
(6.5558255e-08 4.5343274e-08 -0.023016123)
(5.8911409e-08 4.5793655e-08 -0.023016109)
(1.106629e-08 3.6852167e-08 -0.023016107)
(-2.7302779e-08 2.5413634e-08 -0.023016118)
(-4.3444814e-08 1.8561427e-08 -0.023016133)
(-3.7941279e-08 1.3666299e-08 -0.023016148)
(-9.6719465e-09 3.6748047e-09 -0.023016157)
(2.1010586e-09 3.2593062e-08 -0.023016144)
(2.7282293e-08 3.8452252e-08 -0.023016137)
(5.3556424e-08 5.3556423e-08 -0.023016123)
(6.7951325e-08 5.7162347e-08 -0.023016108)
(5.1403602e-08 5.0999068e-08 -0.023016095)
(-8.728099e-10 3.8849872e-08 -0.023016097)
(-3.7261874e-08 2.4190165e-08 -0.023016112)
(-4.7080719e-08 1.3403374e-08 -0.023016128)
(-4.0402718e-08 9.8707261e-09 -0.023016144)
(-1.1222045e-08 7.3531599e-09 -0.023016155)
(1.1194207e-08 4.9439963e-08 -0.023016134)
(4.5343274e-08 6.5558255e-08 -0.023016123)
(5.7162347e-08 6.7951325e-08 -0.023016108)
(6.30009e-08 6.3000899e-08 -0.023016094)
(4.0598934e-08 5.3279165e-08 -0.023016084)
(-1.5742613e-08 3.9986375e-08 -0.02301609)
(-5.2749277e-08 2.4090338e-08 -0.023016109)
(-5.7764253e-08 8.5891985e-09 -0.02301613)
(-4.3991493e-08 -2.211715e-09 -0.023016147)
(-1.1350324e-08 -7.8125938e-09 -0.023016158)
(1.2846586e-08 5.989471e-08 -0.023016119)
(4.5793655e-08 5.8911409e-08 -0.023016109)
(5.0999068e-08 5.1403602e-08 -0.023016095)
(5.3279165e-08 4.0598934e-08 -0.023016084)
(2.8389078e-08 2.8389078e-08 -0.023016077)
(-3.0061637e-08 1.5539809e-08 -0.023016086)
(-6.865905e-08 2.0029559e-09 -0.02301611)
(-7.3382772e-08 -1.1609874e-08 -0.023016135)
(-5.680451e-08 -2.357134e-08 -0.023016155)
(-1.4955964e-08 -3.2038159e-08 -0.023016169)
(1.0538673e-08 1.9507211e-08 -0.023016115)
(3.6852167e-08 1.106629e-08 -0.023016107)
(3.8849872e-08 -8.7281004e-10 -0.023016097)
(3.9986375e-08 -1.5742613e-08 -0.02301609)
(1.553981e-08 -3.0061637e-08 -0.023016086)
(-4.2128735e-08 -4.2128735e-08 -0.023016099)
(-7.989896e-08 -5.2014691e-08 -0.023016126)
(-8.333855e-08 -5.9719121e-08 -0.023016153)
(-6.4419778e-08 -6.4861761e-08 -0.023016176)
(-1.699487e-08 -6.6817271e-08 -0.023016191)
(7.2193056e-09 -1.8971134e-08 -0.023016123)
(2.5413634e-08 -2.7302779e-08 -0.023016118)
(2.4190165e-08 -3.7261874e-08 -0.023016112)
(2.4090338e-08 -5.2749277e-08 -0.023016109)
(2.0029562e-09 -6.865905e-08 -0.02301611)
(-5.2014691e-08 -7.989896e-08 -0.023016126)
(-8.6249437e-08 -8.6249437e-08 -0.023016155)
(-8.6229842e-08 -8.8043823e-08 -0.023016183)
(-6.390266e-08 -8.5816996e-08 -0.023016205)
(-1.6259637e-08 -8.0453801e-08 -0.023016218)
(4.9842433e-09 -3.5333384e-08 -0.023016137)
(1.8561427e-08 -4.3444814e-08 -0.023016133)
(1.3403374e-08 -4.7080719e-08 -0.023016128)
(8.5891987e-09 -5.7764253e-08 -0.02301613)
(-1.1609874e-08 -7.3382772e-08 -0.023016135)
(-5.9719122e-08 -8.333855e-08 -0.023016153)
(-8.8043823e-08 -8.6229842e-08 -0.023016183)
(-8.2906109e-08 -8.2906109e-08 -0.023016209)
(-5.6829756e-08 -7.5737938e-08 -0.023016228)
(-1.3419407e-08 -6.8547081e-08 -0.023016237)
(1.8116858e-09 -2.5516095e-08 -0.02301615)
(1.3666299e-08 -3.7941279e-08 -0.023016148)
(9.8707263e-09 -4.0402718e-08 -0.023016144)
(-2.2117152e-09 -4.3991493e-08 -0.023016147)
(-2.357134e-08 -5.680451e-08 -0.023016155)
(-6.486176e-08 -6.4419778e-08 -0.023016176)
(-8.5816996e-08 -6.390266e-08 -0.023016205)
(-7.5737938e-08 -5.6829756e-08 -0.023016228)
(-4.9543633e-08 -4.9543633e-08 -0.023016245)
(-1.1465733e-08 -4.3777308e-08 -0.023016254)
(-3.2992125e-09 -4.5610483e-09 -0.023016153)
(3.6748047e-09 -9.6719466e-09 -0.023016157)
(7.3531602e-09 -1.1222045e-08 -0.023016155)
(-7.8125939e-09 -1.1350324e-08 -0.023016158)
(-3.2038159e-08 -1.4955964e-08 -0.023016169)
(-6.6817271e-08 -1.699487e-08 -0.023016191)
(-8.0453801e-08 -1.6259637e-08 -0.023016218)
(-6.8547081e-08 -1.3419406e-08 -0.023016237)
(-4.3777308e-08 -1.1465733e-08 -0.023016254)
(-9.5751899e-09 -9.5751899e-09 -0.023016261)
(2.2533089e-09 2.2533089e-09 -0.023103521)
(3.0990592e-08 1.0157392e-08 -0.023103516)
(4.3564797e-08 4.5461012e-09 -0.023103504)
(6.0197465e-08 1.4760127e-08 -0.023103497)
(6.677879e-08 1.6319839e-08 -0.023103486)
(1.5123256e-08 1.312019e-08 -0.023103487)
(-3.128619e-08 8.7470282e-09 -0.023103499)
(-4.9228459e-08 6.1203401e-09 -0.023103515)
(-3.4384072e-08 2.199617e-09 -0.023103529)
(-6.0197098e-09 -4.3632512e-09 -0.023103534)
(1.0157392e-08 3.0990592e-08 -0.023103516)
(3.442978e-08 3.442978e-08 -0.023103508)
(5.0468899e-08 3.7904043e-08 -0.023103497)
(7.7858071e-08 5.7891364e-08 -0.023103486)
(6.4318885e-08 5.7291171e-08 -0.023103477)
(3.7640398e-09 4.529528e-08 -0.02310348)
(-4.1785965e-08 3.0313389e-08 -0.023103495)
(-5.9049576e-08 2.19234e-08 -0.023103512)
(-5.0109459e-08 1.5724123e-08 -0.023103528)
(-1.2582578e-08 2.5218096e-09 -0.023103538)
(4.5461013e-09 4.3564797e-08 -0.023103504)
(3.7904043e-08 5.0468899e-08 -0.023103497)
(6.7026381e-08 6.7026381e-08 -0.023103485)
(7.9584593e-08 7.024873e-08 -0.023103473)
(5.4182706e-08 6.1872532e-08 -0.023103465)
(-1.1854526e-08 4.6118461e-08 -0.023103472)
(-5.465807e-08 2.7226645e-08 -0.023103491)
(-6.3817725e-08 1.3599866e-08 -0.02310351)
(-5.3785662e-08 8.9749749e-09 -0.023103527)
(-1.4821252e-08 5.0474816e-09 -0.023103538)
(1.4760127e-08 6.0197465e-08 -0.023103497)
(5.7891364e-08 7.7858071e-08 -0.023103486)
(7.024873e-08 7.9584592e-08 -0.023103473)
(7.2704222e-08 7.2704222e-08 -0.023103463)
(4.0188616e-08 6.0101198e-08 -0.023103458)
(-3.0881847e-08 4.3109847e-08 -0.023103469)
(-7.4304559e-08 2.2920043e-08 -0.023103492)
(-7.7301247e-08 3.5277866e-09 -0.023103515)
(-5.8661844e-08 -9.8028294e-09 -0.023103533)
(-1.5200907e-08 -1.6851257e-08 -0.023103545)
(1.6319839e-08 6.677879e-08 -0.023103486)
(5.7291171e-08 6.4318885e-08 -0.023103477)
(6.1872532e-08 5.4182705e-08 -0.023103465)
(6.0101198e-08 4.0188616e-08 -0.023103458)
(2.458833e-08 2.458833e-08 -0.023103456)
(-4.9035681e-08 8.2786312e-09 -0.02310347)
(-9.424013e-08 -8.7566421e-09 -0.023103497)
(-9.6540597e-08 -2.5591485e-08 -0.023103524)
(-7.4164706e-08 -4.0000895e-08 -0.023103545)
(-1.9520204e-08 -4.9856126e-08 -0.023103559)
(1.312019e-08 1.5123256e-08 -0.023103487)
(4.5295279e-08 3.7640399e-09 -0.02310348)
(4.6118461e-08 -1.1854526e-08 -0.023103472)
(4.3109847e-08 -3.0881847e-08 -0.023103469)
(8.2786314e-09 -4.9035681e-08 -0.02310347)
(-6.4226819e-08 -6.4226819e-08 -0.023103487)
(-1.0817468e-07 -7.6466808e-08 -0.023103517)
(-1.085455e-07 -8.5626681e-08 -0.023103546)
(-8.2926485e-08 -9.1154756e-08 -0.023103569)
(-2.1771061e-08 -9.2340529e-08 -0.023103583)
(8.7470283e-09 -3.128619e-08 -0.023103499)
(3.0313388e-08 -4.1785965e-08 -0.023103495)
(2.7226645e-08 -5.465807e-08 -0.023103491)
(2.2920043e-08 -7.4304559e-08 -0.023103492)
(-8.7566419e-09 -9.424013e-08 -0.023103497)
(-7.6466808e-08 -1.0817468e-07 -0.023103517)
(-1.1563999e-07 -1.1563999e-07 -0.023103549)
(-1.1122854e-07 -1.1688407e-07 -0.023103578)
(-8.0878553e-08 -1.1259394e-07 -0.0231036)
(-2.0310719e-08 -1.0415507e-07 -0.023103612)
(6.12034e-09 -4.9228459e-08 -0.023103515)
(2.19234e-08 -5.9049576e-08 -0.023103512)
(1.3599866e-08 -6.3817724e-08 -0.02310351)
(3.5277869e-09 -7.7301247e-08 -0.023103515)
(-2.5591485e-08 -9.6540597e-08 -0.023103524)
(-8.5626681e-08 -1.085455e-07 -0.023103546)
(-1.1688407e-07 -1.1122854e-07 -0.023103578)
(-1.0549945e-07 -1.0549945e-07 -0.023103606)
(-7.0197477e-08 -9.5107232e-08 -0.023103624)
(-1.6145146e-08 -8.6530336e-08 -0.023103632)
(2.1996169e-09 -3.4384072e-08 -0.023103529)
(1.5724123e-08 -5.0109459e-08 -0.023103528)
(8.9749749e-09 -5.3785662e-08 -0.023103527)
(-9.8028296e-09 -5.8661843e-08 -0.023103533)
(-4.0000895e-08 -7.4164706e-08 -0.023103545)
(-9.1154756e-08 -8.2926485e-08 -0.023103569)
(-1.1259394e-07 -8.0878553e-08 -0.0231036)
(-9.5107232e-08 -7.0197476e-08 -0.023103624)
(-6.1909444e-08 -6.1909444e-08 -0.023103639)
(-1.4592788e-08 -5.5155799e-08 -0.023103648)
(-4.3632512e-09 -6.0197098e-09 -0.023103534)
(2.5218096e-09 -1.2582578e-08 -0.023103538)
(5.0474816e-09 -1.4821252e-08 -0.023103538)
(-1.6851257e-08 -1.5200907e-08 -0.023103545)
(-4.9856126e-08 -1.9520204e-08 -0.023103559)
(-9.2340528e-08 -2.1771061e-08 -0.023103583)
(-1.0415507e-07 -2.0310719e-08 -0.023103612)
(-8.6530336e-08 -1.6145146e-08 -0.023103632)
(-5.5155799e-08 -1.4592788e-08 -0.023103648)
(-1.1642716e-08 -1.1642716e-08 -0.023103654)
(3.9963682e-09 3.9963684e-09 -0.02321263)
(3.8953632e-08 1.2823821e-08 -0.023212625)
(5.1958667e-08 6.7494657e-09 -0.023212616)
(6.7266252e-08 1.7958208e-08 -0.023212611)
(6.9403574e-08 1.9398623e-08 -0.023212605)
(6.7606386e-09 1.5307802e-08 -0.023212609)
(-4.6829958e-08 9.8717268e-09 -0.023212625)
(-6.5237453e-08 6.8411004e-09 -0.023212643)
(-4.4596998e-08 2.1832598e-09 -0.023212658)
(-7.8754882e-09 -5.6929473e-09 -0.023212664)
(1.2823821e-08 3.8953632e-08 -0.023212625)
(4.3083278e-08 4.3083278e-08 -0.023212618)
(5.9660247e-08 4.6892906e-08 -0.02321261)
(8.6239988e-08 6.8532758e-08 -0.023212602)
(6.5427965e-08 6.683203e-08 -0.023212596)
(-7.5297063e-09 5.18144e-08 -0.023212604)
(-5.953001e-08 3.3336474e-08 -0.023212622)
(-7.6770153e-08 2.3460292e-08 -0.023212641)
(-6.339807e-08 1.5986817e-08 -0.023212659)
(-1.5751695e-08 -1.1128555e-10 -0.023212669)
(6.7494657e-09 5.1958667e-08 -0.023212616)
(4.6892906e-08 5.9660246e-08 -0.02321261)
(7.7408147e-08 7.7408147e-08 -0.0232126)
(8.7205375e-08 8.0130661e-08 -0.023212592)
(5.2685216e-08 6.9539163e-08 -0.023212588)
(-2.6734917e-08 5.0257098e-08 -0.023212598)
(-7.5184066e-08 2.7283938e-08 -0.02321262)
(-8.258711e-08 1.1020309e-08 -0.023212642)
(-6.8168576e-08 5.4254538e-09 -0.02321266)
(-1.8607556e-08 2.8266278e-10 -0.023212671)
(1.7958208e-08 6.7266251e-08 -0.023212611)
(6.8532758e-08 8.6239988e-08 -0.023212602)
(8.0130661e-08 8.7205375e-08 -0.023212592)
(7.8371004e-08 7.8371004e-08 -0.023212585)
(3.5554402e-08 6.292488e-08 -0.023212584)
(-4.9784931e-08 4.2333974e-08 -0.023212598)
(-9.8766799e-08 1.8029664e-08 -0.023212624)
(-9.8628638e-08 -4.9839008e-09 -0.023212649)
(-7.4135716e-08 -2.0574735e-08 -0.023212668)
(-1.9180223e-08 -2.8837e-08 -0.02321268)
(1.9398623e-08 6.9403574e-08 -0.023212605)
(6.683203e-08 6.5427965e-08 -0.023212596)
(6.9539164e-08 5.2685216e-08 -0.023212588)
(6.292488e-08 3.5554402e-08 -0.023212584)
(1.6648186e-08 1.6648186e-08 -0.023212585)
(-7.1630133e-08 -3.0032455e-09 -0.023212603)
(-1.2250194e-07 -2.3361182e-08 -0.023212633)
(-1.2119151e-07 -4.3162683e-08 -0.023212661)
(-9.2021674e-08 -5.9712024e-08 -0.023212684)
(-2.4115733e-08 -7.0664959e-08 -0.023212697)
(1.5307801e-08 6.7606386e-09 -0.023212609)
(5.18144e-08 -7.529706e-09 -0.023212604)
(5.0257098e-08 -2.6734917e-08 -0.023212598)
(4.2333974e-08 -4.9784932e-08 -0.023212598)
(-3.0032454e-09 -7.1630133e-08 -0.023212603)
(-8.9794299e-08 -8.9794299e-08 -0.023212624)
(-1.3892624e-07 -1.0420013e-07 -0.023212656)
(-1.3497948e-07 -1.1455933e-07 -0.023212687)
(-1.0163799e-07 -1.2014618e-07 -0.02321271)
(-2.6482179e-08 -1.2021191e-07 -0.023212724)
(9.8717268e-09 -4.6829958e-08 -0.023212625)
(3.3336474e-08 -5.953001e-08 -0.023212622)
(2.7283938e-08 -7.5184066e-08 -0.02321262)
(1.8029664e-08 -9.8766799e-08 -0.023212624)
(-2.3361182e-08 -1.2250194e-07 -0.023212633)
(-1.0420013e-07 -1.3892624e-07 -0.023212656)
(-1.4726698e-07 -1.4726698e-07 -0.023212691)
(-1.3713756e-07 -1.4762663e-07 -0.023212721)
(-9.7674255e-08 -1.4081532e-07 -0.023212743)
(-2.4159553e-08 -1.2880258e-07 -0.023212755)
(6.8411003e-09 -6.5237452e-08 -0.023212643)
(2.3460291e-08 -7.6770153e-08 -0.023212641)
(1.1020309e-08 -8.258711e-08 -0.023212642)
(-4.9839008e-09 -9.8628638e-08 -0.023212649)
(-4.3162683e-08 -1.2119151e-07 -0.023212661)
(-1.1455933e-07 -1.3497948e-07 -0.023212687)
(-1.4762663e-07 -1.3713757e-07 -0.023212721)
(-1.2852782e-07 -1.2852782e-07 -0.023212749)
(-8.2813948e-08 -1.1437743e-07 -0.023212768)
(-1.8473689e-08 -1.0435979e-07 -0.023212774)
(2.1832598e-09 -4.4596998e-08 -0.023212658)
(1.5986816e-08 -6.339807e-08 -0.023212659)
(5.4254535e-09 -6.8168575e-08 -0.02321266)
(-2.0574735e-08 -7.4135716e-08 -0.023212668)
(-5.9712024e-08 -9.2021674e-08 -0.023212684)
(-1.2014618e-07 -1.0163799e-07 -0.02321271)
(-1.4081532e-07 -9.7674255e-08 -0.023212743)
(-1.1437743e-07 -8.2813947e-08 -0.023212768)
(-7.3506219e-08 -7.3506218e-08 -0.023212782)
(-1.7481123e-08 -6.6062269e-08 -0.023212791)
(-5.6929473e-09 -7.8754882e-09 -0.023212664)
(-1.1128567e-10 -1.5751695e-08 -0.023212669)
(2.8266275e-10 -1.8607556e-08 -0.023212671)
(-2.8837e-08 -1.9180222e-08 -0.02321268)
(-7.0664959e-08 -2.4115733e-08 -0.023212697)
(-1.2021191e-07 -2.6482179e-08 -0.023212724)
(-1.2880258e-07 -2.4159553e-08 -0.023212755)
(-1.0435979e-07 -1.8473689e-08 -0.023212774)
(-6.6062269e-08 -1.7481123e-08 -0.023212791)
(-1.3511056e-08 -1.3511056e-08 -0.023212796)
(5.4487932e-09 5.4487933e-09 -0.023343428)
(4.5374016e-08 1.5095019e-08 -0.023343424)
(5.7897004e-08 8.5835269e-09 -0.023343417)
(7.1178178e-08 2.0682152e-08 -0.023343414)
(6.8539126e-08 2.1995314e-08 -0.023343411)
(-4.6982118e-09 1.7038955e-08 -0.023343419)
(-6.4872685e-08 1.0570282e-08 -0.023343437)
(-8.2988264e-08 7.1555983e-09 -0.023343457)
(-5.5904358e-08 1.8011334e-09 -0.023343473)
(-1.0022294e-08 -7.2819286e-09 -0.02334348)
(1.5095019e-08 4.5374015e-08 -0.023343424)
(5.0076116e-08 5.0076116e-08 -0.023343418)
(6.6277703e-08 5.4129056e-08 -0.023343412)
(9.1295859e-08 7.7215956e-08 -0.023343407)
(6.3074331e-08 7.441863e-08 -0.023343404)
(-2.1835761e-08 5.6470257e-08 -0.023343414)
(-7.9697721e-08 3.4618744e-08 -0.023343435)
(-9.6141986e-08 2.3351478e-08 -0.023343456)
(-7.7560648e-08 1.4686326e-08 -0.023343475)
(-1.9105356e-08 -4.0644191e-09 -0.023343485)
(8.583527e-09 5.7897004e-08 -0.023343417)
(5.4129056e-08 6.6277702e-08 -0.023343412)
(8.5036844e-08 8.5036844e-08 -0.023343404)
(9.1467752e-08 8.7210654e-08 -0.023343399)
(4.7793426e-08 7.444976e-08 -0.023343398)
(-4.4498098e-08 5.1754204e-08 -0.023343411)
(-9.7991464e-08 2.487428e-08 -0.023343435)
(-1.0292068e-07 6.1572599e-09 -0.023343458)
(-8.3320255e-08 -3.0223922e-10 -0.023343477)
(-2.2522791e-08 -6.5211738e-09 -0.023343489)
(2.0682152e-08 7.1178178e-08 -0.023343414)
(7.7215956e-08 9.1295859e-08 -0.023343407)
(8.7210655e-08 9.1467752e-08 -0.023343399)
(8.0708776e-08 8.0708775e-08 -0.023343395)
(2.7617881e-08 6.2493379e-08 -0.023343397)
(-7.1411241e-08 3.8427449e-08 -0.023343413)
(-1.2529466e-07 1.0197161e-08 -0.023343442)
(-1.2131851e-07 -1.6196421e-08 -0.023343468)
(-9.0239082e-08 -3.3832678e-08 -0.023343488)
(-2.3251313e-08 -4.3142405e-08 -0.0233435)
(2.1995314e-08 6.8539126e-08 -0.023343411)
(7.441863e-08 6.3074331e-08 -0.023343404)
(7.4449761e-08 4.7793426e-08 -0.023343398)
(6.2493379e-08 2.7617881e-08 -0.023343397)
(5.5120996e-09 5.5120995e-09 -0.023343401)
(-9.6794317e-08 -1.7351554e-08 -0.023343421)
(-1.5261533e-07 -4.0861907e-08 -0.023343453)
(-1.4695052e-07 -6.3410437e-08 -0.023343483)
(-1.1026624e-07 -8.1861449e-08 -0.023343505)
(-2.8729276e-08 -9.3709317e-08 -0.023343519)
(1.7038955e-08 -4.6982115e-09 -0.023343419)
(5.6470257e-08 -2.1835761e-08 -0.023343414)
(5.1754204e-08 -4.4498098e-08 -0.023343411)
(3.8427449e-08 -7.1411241e-08 -0.023343413)
(-1.7351554e-08 -9.6794317e-08 -0.023343421)
(-1.1778525e-07 -1.1778525e-07 -0.023343444)
(-1.7135355e-07 -1.3419705e-07 -0.023343479)
(-1.6231805e-07 -1.4556729e-07 -0.02334351)
(-1.2053796e-07 -1.5100715e-07 -0.023343534)
(-3.1149891e-08 -1.497665e-07 -0.023343548)
(1.0570282e-08 -6.4872685e-08 -0.023343437)
(3.4618744e-08 -7.9697721e-08 -0.023343435)
(2.487428e-08 -9.7991464e-08 -0.023343435)