/*--------------------------------*- C++ -*----------------------------------*\
| =========                 |                                                 |
| \\      /  F ield         | OpenFOAM: The Open Source CFD Toolbox           |
|  \\    /   O peration     | Version:  v2106                                 |
|   \\  /    A nd           | Website:  www.openfoam.com                      |
|    \\/     M anipulation  |                                                 |
\*---------------------------------------------------------------------------*/
FoamFile
{
    version     2.0;
    format      ascii;
    arch        "LSB;label=32;scalar=64";
    class       volVectorField;
    location    "85";
    object      flux;
}
// * * * * * * * * * * * * * * * * * * * * * * * * * * * * * * * * * * * * * //

dimensions      [0 1 -1 1 0 0 0];

internalField   nonuniform List<vector> 
4000
(
(7.6529723e-08 7.6529723e-08 0.72595343)
(1.6815171e-07 6.7852423e-08 0.725954)
(8.4675564e-08 6.5840798e-08 0.72595427)
(4.5881012e-08 6.5059554e-08 0.72595443)
(1.4666236e-08 6.4601289e-08 0.72595451)
(-1.2486509e-08 6.4181853e-08 0.72595451)
(-3.5656478e-08 6.3610689e-08 0.72595444)
(-5.2575864e-08 6.2560716e-08 0.72595432)
(-5.6158418e-08 6.019605e-08 0.72595416)
(-1.7765906e-08 5.4443719e-08 0.72595401)
(6.7852423e-08 1.6815171e-07 0.725954)
(1.5211832e-07 1.5211832e-07 0.72595449)
(8.0486261e-08 1.4708333e-07 0.72595475)
(4.4021748e-08 1.445982e-07 0.72595491)
(1.3349686e-08 1.4290521e-07 0.72595498)
(-1.3972409e-08 1.4130478e-07 0.72595498)
(-3.8088185e-08 1.3927103e-07 0.7259549)
(-5.7697823e-08 1.3601635e-07 0.72595477)
(-6.8333913e-08 1.2994758e-07 0.72595459)
(-2.3518237e-08 1.1818691e-07 0.72595439)
(6.5840797e-08 8.4675565e-08 0.72595427)
(1.4708333e-07 8.0486269e-08 0.72595475)
(7.7155447e-08 7.7155445e-08 0.725955)
(4.1702893e-08 7.4656657e-08 0.72595515)
(1.137281e-08 7.2567351e-08 0.72595521)
(-1.6120691e-08 7.0514195e-08 0.7259552)
(-4.0944909e-08 6.8141825e-08 0.72595513)
(-6.1899309e-08 6.5055159e-08 0.72595499)
(-7.398785e-08 6.0935216e-08 0.72595479)
(-2.5606351e-08 5.6431377e-08 0.72595457)
(6.5059559e-08 4.5881014e-08 0.72595443)
(1.445982e-07 4.4021754e-08 0.72595491)
(7.4656649e-08 4.1702894e-08 0.72595515)
(3.9433654e-08 3.9433645e-08 0.72595529)
(9.2072232e-09 3.7268823e-08 0.72595535)
(-1.8397934e-08 3.5104234e-08 0.72595534)
(-4.3547221e-08 3.279526e-08 0.72595525)
(-6.4904432e-08 3.0242775e-08 0.7259551)
(-7.6957695e-08 2.7564193e-08 0.7259549)
(-2.6520797e-08 2.5451085e-08 0.72595468)
(6.4601291e-08 1.4666241e-08 0.72595451)
(1.4290521e-07 1.3349676e-08 0.72595498)
(7.2567338e-08 1.1372806e-08 0.72595521)
(3.7268822e-08 9.207217e-09 0.72595535)
(7.0433987e-09 7.0433914e-09 0.72595541)
(-2.0594253e-08 4.9046812e-09 0.72595539)
(-4.5806368e-08 2.7629509e-09 0.7259553)
(-6.7130376e-08 6.419393e-10 0.72595514)
(-7.877954e-08 -1.2693765e-09 0.72595494)
(-2.7015089e-08 -2.520754e-09 0.7259547)
(6.4181849e-08 -1.2486508e-08 0.72595451)
(1.4130477e-07 -1.3972411e-08 0.72595498)
(7.051419e-08 -1.6120689e-08 0.7259552)
(3.510424e-08 -1.8397932e-08 0.72595534)
(4.9046874e-09 -2.059426e-08 0.72595539)
(-2.2678375e-08 -2.267838e-08 0.72595536)
(-4.7809962e-08 -2.4667063e-08 0.72595526)
(-6.8936759e-08 -2.6528394e-08 0.72595511)
(-8.0120388e-08 -2.8102648e-08 0.7259549)
(-2.7355048e-08 -2.9067507e-08 0.72595466)
(6.361069e-08 -3.5656485e-08 0.72595444)
(1.3927103e-07 -3.8088188e-08 0.7259549)
(6.8141817e-08 -4.0944907e-08 0.72595513)
(3.2795251e-08 -4.3547214e-08 0.72595525)
(2.7629509e-09 -4.5806363e-08 0.7259553)
(-2.4667055e-08 -4.780996e-08 0.72595526)
(-4.9656383e-08 -4.9656385e-08 0.72595516)
(-7.0565962e-08 -5.138021e-08 0.725955)
(-8.1318652e-08 -5.2884804e-08 0.72595479)
(-2.7658329e-08 -5.3866067e-08 0.72595455)
(6.2560714e-08 -5.2575866e-08 0.72595432)
(1.3601635e-07 -5.7697829e-08 0.72595477)
(6.5055163e-08 -6.1899296e-08 0.72595499)
(3.0242784e-08 -6.4904426e-08 0.7259551)
(6.419419e-10 -6.713037e-08 0.72595514)
(-2.6528397e-08 -6.8936758e-08 0.72595511)
(-5.1380213e-08 -7.056596e-08 0.725955)
(-7.2165179e-08 -7.2165179e-08 0.72595483)
(-8.2606245e-08 -7.3750393e-08 0.72595461)
(-2.8009223e-08 -7.5012236e-08 0.72595438)
(6.0196048e-08 -5.615842e-08 0.72595416)
(1.299476e-07 -6.8333908e-08 0.72595459)
(6.093522e-08 -7.3987837e-08 0.72595479)
(2.7564177e-08 -7.6957687e-08 0.7259549)
(-1.2693811e-09 -7.8779548e-08 0.72595494)
(-2.8102645e-08 -8.0120394e-08 0.7259549)
(-5.2884803e-08 -8.1318654e-08 0.72595479)
(-7.3750395e-08 -8.2606248e-08 0.72595461)
(-8.4165709e-08 -8.4165709e-08 0.72595439)
(-2.8499557e-08 -8.5873106e-08 0.72595415)
(5.4443722e-08 -1.776591e-08 0.72595401)
(1.1818693e-07 -2.3518235e-08 0.72595439)
(5.6431384e-08 -2.5606355e-08 0.72595457)
(2.5451072e-08 -2.6520792e-08 0.72595468)
(-2.5207659e-09 -2.7015091e-08 0.7259547)
(-2.9067502e-08 -2.7355048e-08 0.72595466)
(-5.3866066e-08 -2.7658329e-08 0.72595455)
(-7.5012234e-08 -2.8009223e-08 0.72595438)
(-8.5873103e-08 -2.8499555e-08 0.72595415)
(-2.9147488e-08 -2.9147486e-08 0.7259539)
(3.3617625e-07 3.3617624e-07 1.0798623)
(7.5349435e-07 2.9388994e-07 1.079863)
(3.9927088e-07 2.8451623e-07 1.0798634)
(2.1997591e-07 2.8082168e-07 1.0798636)
(6.9283111e-08 2.7859601e-07 1.0798637)
(-6.3911969e-08 2.7653807e-07 1.0798637)
(-1.7909978e-07 2.7371779e-07 1.0798636)
(-2.66637e-07 2.6844071e-07 1.0798634)
(-2.9691938e-07 2.5587522e-07 1.0798631)
(-9.7414717e-08 2.1968542e-07 1.0798628)
(2.9388994e-07 7.5349434e-07 1.079863)
(6.7600433e-07 6.7600432e-07 1.0798636)
(3.796685e-07 6.524869e-07 1.079864)
(2.1109558e-07 6.4062227e-07 1.0798642)
(6.2857695e-08 6.3237815e-07 1.0798643)
(-7.1229297e-08 6.245269e-07 1.0798643)
(-1.9124581e-07 6.1450575e-07 1.0798641)
(-2.9340085e-07 5.9829481e-07 1.0798639)
(-3.7005232e-07 5.6692406e-07 1.0798636)
(-1.3360452e-07 4.9758669e-07 1.0798633)
(2.8451623e-07 3.9927089e-07 1.0798634)
(6.524869e-07 3.7966849e-07 1.079864)
(3.6388883e-07 3.6388882e-07 1.0798643)
(1.9986716e-07 3.5179333e-07 1.0798645)
(5.3187741e-08 3.4158245e-07 1.0798646)
(-8.1784368e-08 3.3150809e-07 1.0798646)
(-2.0533187e-07 3.1984223e-07 1.0798644)
(-3.1421869e-07 3.0462568e-07 1.0798642)
(-3.976275e-07 2.8424021e-07 1.0798639)
(-1.4363963e-07 2.6248757e-07 1.0798635)
(2.8082167e-07 2.1997591e-07 1.0798636)
(6.4062226e-07 2.1109557e-07 1.0798642)
(3.5179334e-07 1.9986717e-07 1.0798645)
(1.8878921e-07 1.8878921e-07 1.0798647)
(4.2572452e-08 1.781807e-07 1.0798648)
(-9.2969517e-08 1.6755288e-07 1.0798648)
(-2.1812821e-07 1.5620371e-07 1.0798646)
(-3.2900287e-07 1.4364895e-07 1.0798644)
(-4.1219043e-07 1.3047314e-07 1.0798641)
(-1.4810628e-07 1.2013132e-07 1.0798636)
(2.7859601e-07 6.9283111e-08 1.0798637)
(6.3237816e-07 6.28577e-08 1.0798643)
(3.4158246e-07 5.3187744e-08 1.0798646)
(1.7818069e-07 4.2572454e-08 1.0798648)
(3.1951414e-08 3.1951422e-08 1.0798649)
(-1.0376136e-07 2.1443054e-08 1.0798648)
(-2.292358e-07 1.091107e-08 1.0798647)
(-3.3994927e-07 4.7371738e-10 1.0798644)
(-4.2114512e-07 -8.9355044e-09 1.0798641)
(-1.5053417e-07 -1.5093754e-08 1.0798637)
(2.7653807e-07 -6.3911968e-08 1.0798637)
(6.2452689e-07 -7.1229303e-08 1.0798643)
(3.3150809e-07 -8.1784378e-08 1.0798646)
(1.6755288e-07 -9.2969528e-08 1.0798648)
(2.1443052e-08 -1.0376136e-07 1.0798648)
(-1.1400987e-07 -1.1400986e-07 1.0798648)
(-2.3909755e-07 -1.2380127e-07 1.0798646)
(-3.4884945e-07 -1.3298345e-07 1.0798644)
(-4.277579e-07 -1.4077215e-07 1.079864)
(-1.5221178e-07 -1.4556432e-07 1.0798636)
(2.7371778e-07 -1.7909978e-07 1.0798636)
(6.1450575e-07 -1.9124581e-07 1.0798641)
(3.1984224e-07 -2.0533185e-07 1.0798644)
(1.5620372e-07 -2.1812821e-07 1.0798646)
(1.091108e-08 -2.292358e-07 1.0798647)
(-1.2380127e-07 -2.3909755e-07 1.0798646)
(-2.4820939e-07 -2.4820938e-07 1.0798645)
(-3.5692014e-07 -2.5676226e-07 1.0798642)
(-4.3372599e-07 -2.6430812e-07 1.0798639)
(-1.5372895e-07 -2.6932612e-07 1.0798634)
(2.6844071e-07 -2.66637e-07 1.0798634)
(5.9829482e-07 -2.9340085e-07 1.0798639)
(3.0462569e-07 -3.1421868e-07 1.0798642)
(1.4364894e-07 -3.2900286e-07 1.0798644)
(4.7371138e-10 -3.3994927e-07 1.0798644)
(-1.3298345e-07 -3.4884946e-07 1.0798644)
(-2.5676226e-07 -3.5692014e-07 1.0798642)
(-3.6494819e-07 -3.6494818e-07 1.079864)
(-4.4032176e-07 -3.7315269e-07 1.0798636)
(-1.5555711e-07 -3.8013276e-07 1.0798632)
(2.5587522e-07 -2.9691938e-07 1.0798631)
(5.6692407e-07 -3.7005231e-07 1.0798636)
(2.8424022e-07 -3.976275e-07 1.0798639)
(1.3047312e-07 -4.1219042e-07 1.0798641)
(-8.9355175e-09 -4.2114511e-07 1.0798641)
(-1.4077214e-07 -4.277579e-07 1.079864)
(-2.6430811e-07 -4.3372601e-07 1.0798639)
(-3.7315269e-07 -4.4032176e-07 1.0798636)
(-4.4891057e-07 -4.4891057e-07 1.0798632)
(-1.5838233e-07 -4.6035146e-07 1.0798628)
(2.1968543e-07 -9.7414718e-08 1.0798628)
(4.975867e-07 -1.3360451e-07 1.0798633)
(2.6248757e-07 -1.4363963e-07 1.0798635)
(1.2013132e-07 -1.4810628e-07 1.0798636)
(-1.5093763e-08 -1.5053416e-07 1.0798637)
(-1.4556434e-07 -1.5221177e-07 1.0798636)
(-2.6932612e-07 -1.5372896e-07 1.0798634)
(-3.8013275e-07 -1.5555712e-07 1.0798632)
(-4.6035146e-07 -1.5838233e-07 1.0798628)
(-1.6318438e-07 -1.6318438e-07 1.0798623)
(5.4590674e-07 5.4590673e-07 1.0798507)
(1.2397633e-06 4.773059e-07 1.0798513)
(6.7817613e-07 4.6185174e-07 1.0798516)
(3.7597291e-07 4.5555273e-07 1.0798518)
(1.1232495e-07 4.5165e-07 1.0798519)
(-1.2580165e-07 4.4798367e-07 1.0798519)
(-3.371208e-07 4.4291545e-07 1.0798518)
(-5.0970815e-07 4.3335198e-07 1.0798515)
(-6.1006106e-07 4.1032378e-07 1.0798512)
(-2.1203141e-07 3.4312432e-07 1.0798509)
(4.7730591e-07 1.2397633e-06 1.0798513)
(1.1136808e-06 1.1136808e-06 1.0798518)
(6.4554637e-07 1.0744839e-06 1.0798521)
(3.606703e-07 1.0540606e-06 1.0798523)
(1.0097136e-07 1.0395462e-06 1.0798524)
(-1.3890347e-07 1.0255531e-06 1.0798524)
(-3.5906834e-07 1.0075742e-06 1.0798522)
(-5.5859564e-07 9.783246e-07 1.079852)
(-7.4540256e-07 9.2130577e-07 1.0798517)
(-2.7923088e-07 7.9416458e-07 1.0798512)
(4.6185175e-07 6.7817612e-07 1.0798516)
(1.0744839e-06 6.4554635e-07 1.0798521)
(6.185559e-07 6.1855589e-07 1.0798524)
(3.4103522e-07 5.9742276e-07 1.0798526)
(8.3817459e-08 5.793423e-07 1.0798527)
(-1.5777365e-07 5.6136908e-07 1.0798526)
(-3.8434931e-07 5.4047357e-07 1.0798525)
(-5.9597659e-07 5.1316462e-07 1.0798523)
(-7.9422108e-07 4.76623e-07 1.0798519)
(-2.9679221e-07 4.3844589e-07 1.0798514)
(4.5555272e-07 3.7597292e-07 1.0798518)
(1.0540606e-06 3.6067029e-07 1.0798523)
(5.9742277e-07 3.4103521e-07 1.0798526)
(3.214567e-07 3.2145669e-07 1.0798528)
(6.4917684e-08 3.0258065e-07 1.0798528)
(-1.7777219e-07 2.835916e-07 1.0798528)
(-4.072728e-07 2.6326464e-07 1.0798527)
(-6.2244622e-07 2.4075641e-07 1.0798524)
(-8.2012129e-07 2.1716795e-07 1.079852)
(-3.0468228e-07 1.9883056e-07 1.0798516)
(4.5165e-07 1.1232495e-07 1.0798519)
(1.0395462e-06 1.0097136e-07 1.0798524)
(5.793423e-07 8.3817463e-08 1.0798527)
(3.0258065e-07 6.4917679e-08 1.0798528)
(4.5952368e-08 4.5952368e-08 1.0798529)
(-1.9708966e-07 2.7142945e-08 1.0798528)
(-4.271845e-07 8.2526184e-09 1.0798527)
(-6.4207328e-07 -1.0498339e-08 1.0798524)
(-8.3614693e-07 -2.7414211e-08 1.0798521)
(-3.0901714e-07 -3.8465727e-08 1.0798516)
(4.4798367e-07 -1.2580163e-07 1.0798519)
(1.0255531e-06 -1.3890347e-07 1.0798524)
(5.6136909e-07 -1.5777365e-07 1.0798526)
(2.8359161e-07 -1.777722e-07 1.0798528)
(2.714295e-08 -1.9708966e-07 1.0798528)
(-2.1547194e-07 -2.1547193e-07 1.0798528)
(-4.4491408e-07 -2.3308882e-07 1.0798526)
(-6.5811305e-07 -2.4968579e-07 1.0798524)
(-8.4808867e-07 -2.6385907e-07 1.079852)
(-3.1204996e-07 -2.7265649e-07 1.0798515)
(4.4291544e-07 -3.371208e-07 1.0798518)
(1.0075742e-06 -3.5906833e-07 1.0798522)
(5.4047357e-07 -3.843493e-07 1.0798525)
(2.6326464e-07 -4.0727279e-07 1.0798527)
(8.2526375e-09 -4.2718451e-07 1.0798527)
(-2.3308882e-07 -4.4491409e-07 1.0798526)
(-4.6139836e-07 -4.6139837e-07 1.0798525)
(-6.7284353e-07 -4.7706487e-07 1.0798522)
(-8.5911763e-07 -4.9121942e-07 1.0798518)
(-3.1488208e-07 -5.0104553e-07 1.0798513)
(4.3335198e-07 -5.0970815e-07 1.0798515)
(9.7832461e-07 -5.5859565e-07 1.079852)
(5.1316463e-07 -5.9597659e-07 1.0798523)
(2.4075639e-07 -6.2244621e-07 1.0798524)
(-1.0498352e-08 -6.4207328e-07 1.0798524)
(-2.496858e-07 -6.5811306e-07 1.0798524)
(-4.7706487e-07 -6.7284353e-07 1.0798522)
(-6.879341e-07 -6.8793411e-07 1.0798519)
(-8.7206933e-07 -7.0437883e-07 1.0798515)
(-3.186007e-07 -7.2038099e-07 1.079851)
(4.1032378e-07 -6.1006106e-07 1.0798512)
(9.2130577e-07 -7.4540255e-07 1.0798517)
(4.76623e-07 -7.9422108e-07 1.0798519)
(2.1716795e-07 -8.2012129e-07 1.079852)
(-2.7414209e-08 -8.3614692e-07 1.0798521)
(-2.6385907e-07 -8.4808867e-07 1.079852)
(-4.9121941e-07 -8.5911761e-07 1.0798518)
(-7.0437883e-07 -8.7206933e-07 1.0798515)
(-8.915645e-07 -8.915645e-07 1.0798511)
(-3.2555018e-07 -9.2824298e-07 1.0798506)
(3.4312433e-07 -2.1203141e-07 1.0798509)
(7.9416459e-07 -2.7923087e-07 1.0798512)
(4.3844589e-07 -2.967922e-07 1.0798514)
(1.9883055e-07 -3.0468227e-07 1.0798516)
(-3.8465731e-08 -3.0901713e-07 1.0798516)
(-2.7265649e-07 -3.1204995e-07 1.0798515)
(-5.0104553e-07 -3.1488208e-07 1.0798513)
(-7.2038098e-07 -3.186007e-07 1.079851)
(-9.2824299e-07 -3.2555018e-07 1.0798506)
(-3.4305302e-07 -3.4305302e-07 1.0798501)
(7.3581556e-07 7.3581557e-07 1.0798326)
(1.6778135e-06 6.4347833e-07 1.0798331)
(9.2647444e-07 6.2260131e-07 1.0798334)
(5.1150296e-07 6.1392349e-07 1.0798336)
(1.4043375e-07 6.0843284e-07 1.0798337)
(-2.0082609e-07 6.0319876e-07 1.0798336)
(-5.1004814e-07 5.9590338e-07 1.0798335)
(-7.7316938e-07 5.8205755e-07 1.0798333)
(-9.4914244e-07 5.485342e-07 1.079833)
(-3.3592e-07 4.501872e-07 1.0798326)
(6.4347833e-07 1.6778135e-06 1.0798331)
(1.5079921e-06 1.5079921e-06 1.0798336)
(8.8214218e-07 1.4547177e-06 1.0798339)
(4.9025026e-07 1.4263965e-06 1.0798341)
(1.2434665e-07 1.4059096e-06 1.0798341)
(-2.1962028e-07 1.3859266e-06 1.0798341)
(-5.4175995e-07 1.3600822e-06 1.0798339)
(-8.4422315e-07 1.3178562e-06 1.0798337)
(-1.146948e-06 1.2352285e-06 1.0798334)
(-4.3426701e-07 1.050298e-06 1.0798329)
(6.2260132e-07 9.2647443e-07 1.0798334)
(1.4547177e-06 8.8214217e-07 1.0798339)
(8.4487882e-07 8.4487882e-07 1.0798341)
(4.6269486e-07 8.1525008e-07 1.0798343)
(9.9963832e-08 7.8960151e-07 1.0798344)
(-2.4665343e-07 7.6390955e-07 1.0798343)
(-5.7811848e-07 7.3391131e-07 1.0798342)
(-8.9802313e-07 6.946283e-07 1.0798339)
(-1.2167007e-06 6.4209921e-07 1.0798336)
(-4.5920699e-07 5.8783951e-07 1.0798331)
(6.139235e-07 5.1150295e-07 1.0798336)
(1.4263965e-06 4.9025024e-07 1.0798341)
(8.1525009e-07 4.6269486e-07 1.0798343)
(4.3497295e-07 4.3497294e-07 1.0798345)
(7.3006112e-08 4.0806797e-07 1.0798345)
(-2.7531048e-07 3.8087823e-07 1.0798345)
(-6.110412e-07 3.5169033e-07 1.0798343)
(-9.3603525e-07 3.1933055e-07 1.079834)
(-1.2537368e-06 2.854486e-07 1.0798337)
(-4.7044014e-07 2.5927641e-07 1.0798332)
(6.0843285e-07 1.4043375e-07 1.0798337)
(1.4059096e-06 1.2434665e-07 1.0798341)
(7.8960152e-07 9.9963842e-08 1.0798344)
(4.0806798e-07 7.3006114e-08 1.0798345)
(4.5869127e-08 4.5869122e-08 1.0798346)
(-3.0303107e-07 1.8878533e-08 1.0798345)
(-6.3966616e-07 -8.2952625e-09 1.0798343)
(-9.6426486e-07 -3.5320138e-08 1.0798341)
(-1.2767548e-06 -5.9721775e-08 1.0798337)
(-4.7665512e-07 -7.5643094e-08 1.0798332)
(6.0319877e-07 -2.0082608e-07 1.0798336)
(1.3859266e-06 -2.1962027e-07 1.0798341)
(7.6390955e-07 -2.4665343e-07 1.0798343)
(3.8087823e-07 -2.7531048e-07 1.0798345)
(1.887853e-08 -3.0303107e-07 1.0798345)
(-3.2947487e-07 -3.2947486e-07 1.0798344)
(-6.6523987e-07 -3.5490818e-07 1.0798343)
(-9.8746176e-07 -3.7898464e-07 1.079834)
(-1.2940597e-06 -3.9967188e-07 1.0798336)
(-4.8105436e-07 -4.1260071e-07 1.0798331)
(5.9590338e-07 -5.1004814e-07 1.0798335)
(1.3600822e-06 -5.4175996e-07 1.0798339)
(7.3391131e-07 -5.7811849e-07 1.0798342)
(3.5169034e-07 -6.1104121e-07 1.0798343)
(-8.2952551e-09 -6.3966618e-07 1.0798343)
(-3.5490818e-07 -6.6523987e-07 1.0798343)
(-6.8917594e-07 -6.8917594e-07 1.0798341)
(-1.0090286e-06 -7.1218812e-07 1.0798338)
(-1.3103709e-06 -7.3336293e-07 1.0798334)
(-4.8527433e-07 -7.4844478e-07 1.0798329)
(5.8205755e-07 -7.7316937e-07 1.0798333)
(1.3178562e-06 -8.4422315e-07 1.0798337)
(6.946283e-07 -8.9802313e-07 1.0798339)
(3.1933054e-07 -9.3603524e-07 1.079834)
(-3.5320131e-08 -9.6426487e-07 1.0798341)
(-3.7898463e-07 -9.8746177e-07 1.079834)
(-7.1218811e-07 -1.0090286e-06 1.0798338)
(-1.0316488e-06 -1.0316487e-06 1.0798335)
(-1.3303164e-06 -1.0572634e-06 1.0798331)
(-4.9110892e-07 -1.0835192e-06 1.0798326)
(5.485342e-07 -9.4914244e-07 1.079833)
(1.2352285e-06 -1.146948e-06 1.0798334)
(6.4209921e-07 -1.2167006e-06 1.0798336)
(2.854486e-07 -1.2537368e-06 1.0798337)
(-5.9721776e-08 -1.2767548e-06 1.0798337)
(-3.9967189e-07 -1.2940597e-06 1.0798336)
(-7.3336292e-07 -1.3103709e-06 1.0798334)
(-1.0572634e-06 -1.3303164e-06 1.0798331)
(-1.3622413e-06 -1.3622413e-06 1.0798327)
(-5.0277823e-07 -1.4265993e-06 1.0798322)
(4.501872e-07 -3.3592e-07 1.0798326)
(1.050298e-06 -4.3426701e-07 1.0798329)
(5.8783951e-07 -4.5920699e-07 1.0798331)
(2.592764e-07 -4.7044014e-07 1.0798332)
(-7.5643104e-08 -4.7665512e-07 1.0798332)
(-4.1260071e-07 -4.8105436e-07 1.0798331)
(-7.4844476e-07 -4.8527433e-07 1.0798329)
(-1.0835192e-06 -4.9110892e-07 1.0798326)
(-1.4265993e-06 -5.0277822e-07 1.0798322)
(-5.3401423e-07 -5.3401422e-07 1.0798316)
(9.152456e-07 9.1524559e-07 1.0798082)
(2.0868197e-06 8.0005964e-07 1.0798088)
(1.1508359e-06 7.7407501e-07 1.079809)
(6.2826844e-07 7.6316349e-07 1.0798092)
(1.538837e-07 7.5615875e-07 1.0798092)
(-2.8810318e-07 7.4940252e-07 1.0798092)
(-6.9445645e-07 7.3992089e-07 1.0798091)
(-1.0481698e-06 7.2185363e-07 1.0798088)
(-1.2979702e-06 6.7797962e-07 1.0798085)
(-4.6243588e-07 5.4895742e-07 1.0798081)
(8.0005964e-07 2.0868197e-06 1.0798088)
(1.8750639e-06 1.8750639e-06 1.0798092)
(1.0954917e-06 1.808567e-06 1.0798095)
(6.0139404e-07 1.7728103e-06 1.0798096)
(1.3324224e-07 1.7466137e-06 1.0798097)
(-3.1245996e-07 1.7208145e-06 1.0798096)
(-7.3577979e-07 1.6872592e-06 1.0798095)
(-1.1410817e-06 1.6322602e-06 1.0798092)
(-1.5573145e-06 1.5244081e-06 1.0798089)
(-5.9145809e-07 1.2826247e-06 1.0798084)
(7.7407502e-07 1.1508359e-06 1.079809)
(1.808567e-06 1.0954917e-06 1.0798095)
(1.0485824e-06 1.0485824e-06 1.0798097)
(5.6631505e-07 1.0108981e-06 1.0798099)
(1.0188792e-07 9.779765e-07 1.0798099)
(-3.4745759e-07 9.447801e-07 1.0798098)
(-7.8301077e-07 9.0586679e-07 1.0798097)
(-1.2110209e-06 8.5481949e-07 1.0798094)
(-1.6476056e-06 7.8658316e-07 1.0798091)
(-6.2362478e-07 7.1657911e-07 1.0798086)
(7.6316349e-07 6.2826843e-07 1.0798092)
(1.7728103e-06 6.0139403e-07 1.0798096)
(1.0108981e-06 5.6631506e-07 1.0798099)
(5.3078817e-07 5.3078816e-07 1.07981)
(6.7124278e-08 4.9611553e-07 1.07981)
(-3.8456966e-07 4.6092867e-07 1.07981)
(-8.2574041e-07 4.2305254e-07 1.0798098)
(-1.2603653e-06 3.8100792e-07 1.0798095)
(-1.6955549e-06 3.3700839e-07 1.0798091)
(-6.3812745e-07 3.0316115e-07 1.0798086)
(7.5615875e-07 1.5388369e-07 1.0798092)
(1.7466137e-06 1.3324225e-07 1.0798097)
(9.779765e-07 1.0188793e-07 1.0798099)
(4.9611552e-07 6.7124272e-08 1.07981)
(3.2028436e-08 3.2028437e-08 1.0798101)
(-4.2052058e-07 -2.9747237e-09 1.07981)
(-8.6293152e-07 -3.8301526e-08 1.0798098)
(-1.2970651e-06 -7.3499064e-08 1.0798095)
(-1.7254524e-06 -1.0530649e-07 1.0798091)
(-6.4618961e-07 -1.260402e-07 1.0798086)
(7.4940254e-07 -2.8810317e-07 1.0798092)
(1.7208146e-06 -3.1245996e-07 1.0798096)
(9.4478009e-07 -3.474576e-07 1.0798098)
(4.6092867e-07 -3.8456967e-07 1.07981)
(-2.9747178e-09 -4.2052058e-07 1.07981)
(-4.5489963e-07 -4.5489962e-07 1.0798099)
(-8.9626475e-07 -4.8807648e-07 1.0798097)
(-1.3273703e-06 -5.1961408e-07 1.0798094)
(-1.748096e-06 -5.4683991e-07 1.079809)
(-6.5194992e-07 -5.6393125e-07 1.0798085)
(7.3992089e-07 -6.9445644e-07 1.0798091)
(1.6872592e-06 -7.3577981e-07 1.0798095)
(9.0586679e-07 -7.8301078e-07 1.0798097)
(4.2305254e-07 -8.257404e-07 1.0798098)
(-3.830152e-08 -8.6293152e-07 1.0798098)
(-4.8807649e-07 -8.9626476e-07 1.0798097)
(-9.2764598e-07 -9.2764599e-07 1.0798095)
(-1.3558285e-06 -9.580882e-07 1.0798092)
(-1.7697696e-06 -9.8644408e-07 1.0798088)
(-6.5758384e-07 -1.0069283e-06 1.0798083)
(7.2185363e-07 -1.0481698e-06 1.0798088)
(1.6322602e-06 -1.1410817e-06 1.0798092)
(8.548195e-07 -1.2110209e-06 1.0798094)
(3.8100793e-07 -1.2603653e-06 1.0798095)
(-7.3499075e-08 -1.2970651e-06 1.0798095)
(-5.196141e-07 -1.3273703e-06 1.0798094)
(-9.580882e-07 -1.3558285e-06 1.0798092)
(-1.3861684e-06 -1.3861684e-06 1.0798089)
(-1.7969361e-06 -1.4212693e-06 1.0798085)
(-6.6560606e-07 -1.4580417e-06 1.079808)
(6.7797962e-07 -1.2979702e-06 1.0798085)
(1.5244081e-06 -1.5573145e-06 1.0798089)
(7.8658315e-07 -1.6476057e-06 1.0798091)
(3.3700839e-07 -1.6955549e-06 1.0798091)
(-1.0530649e-07 -1.7254524e-06 1.0798091)
(-5.4683992e-07 -1.748096e-06 1.079809)
(-9.8644408e-07 -1.7697696e-06 1.0798088)
(-1.4212693e-06 -1.7969361e-06 1.0798085)
(-1.8416429e-06 -1.8416429e-06 1.0798081)
(-6.8209877e-07 -1.9336305e-06 1.0798076)
(5.4895741e-07 -4.6243589e-07 1.0798081)
(1.2826247e-06 -5.914581e-07 1.0798084)
(7.1657912e-07 -6.2362479e-07 1.0798086)
(3.0316115e-07 -6.3812745e-07 1.0798086)
(-1.2604021e-07 -6.4618961e-07 1.0798086)
(-5.6393126e-07 -6.5194993e-07 1.0798085)
(-1.0069283e-06 -6.5758384e-07 1.0798083)
(-1.4580417e-06 -6.6560606e-07 1.079808)
(-1.9336305e-06 -6.8209876e-07 1.0798076)
(-7.2693117e-07 -7.2693116e-07 1.079807)
(1.086192e-06 1.086192e-06 1.0797779)
(2.4725096e-06 9.4887375e-07 1.0797784)
(1.3555715e-06 9.1800094e-07 1.0797786)
(7.2879011e-07 9.0496373e-07 1.0797788)
(1.5456307e-07 8.9650951e-07 1.0797788)
(-3.8517108e-07 8.8828129e-07 1.0797788)
(-8.8617652e-07 8.7667137e-07 1.0797786)
(-1.3279518e-06 8.5448569e-07 1.0797784)
(-1.6479263e-06 8.0051474e-07 1.0797781)
(-5.8857142e-07 6.4159216e-07 1.0797777)
(9.4887375e-07 2.4725096e-06 1.0797784)
(2.220223e-06 2.220223e-06 1.0797788)
(1.2897065e-06 2.1411098e-06 1.0797791)
(6.9655296e-07 2.0982771e-06 1.0797792)
(1.2953941e-07 2.0666098e-06 1.0797792)
(-4.1492828e-07 2.0351871e-06 1.0797792)
(-9.3686993e-07 1.9941304e-06 1.079779)
(-1.4421867e-06 1.9266769e-06 1.0797788)
(-1.9672666e-06 1.7942283e-06 1.0797784)
(-7.47494e-07 1.4970528e-06 1.079778)
(9.1800094e-07 1.3555715e-06 1.0797786)
(2.1411098e-06 1.2897065e-06 1.0797791)
(1.2336255e-06 1.2336255e-06 1.0797793)
(6.542901e-07 1.1882587e-06 1.0797794)
(9.1473099e-08 1.1483516e-06 1.0797795)
(-4.576505e-07 1.1078939e-06 1.0797794)
(-9.9468676e-07 1.0603109e-06 1.0797792)
(-1.5278539e-06 9.9779875e-07 1.079779)
(-2.0775504e-06 9.1425584e-07 1.0797786)
(-7.8668841e-07 8.2893973e-07 1.0797781)
(9.0496373e-07 7.287901e-07 1.0797788)
(2.0982771e-06 6.9655295e-07 1.0797792)
(1.1882587e-06 6.5429009e-07 1.0797794)
(6.1127897e-07 6.1127897e-07 1.0797795)
(4.9174653e-08 5.6911538e-07 1.0797796)
(-5.0296897e-07 5.2617371e-07 1.0797795)
(-1.0469651e-06 4.798386e-07 1.0797793)
(-1.5882418e-06 4.2834631e-07 1.0797791)
(-2.1361256e-06 3.7447684e-07 1.0797787)
(-8.0437141e-07 3.3315567e-07 1.0797782)
(8.965095e-07 1.5456307e-07 1.0797788)
(2.0666098e-06 1.2953941e-07 1.0797792)
(1.1483516e-06 9.1473093e-08 1.0797795)
(5.6911539e-07 4.9174651e-08 1.0797796)
(6.3678342e-09 6.3678379e-09 1.0797796)
(-5.4692728e-07 -3.6430827e-08 1.0797795)
(-1.0925142e-06 -7.9719611e-08 1.0797793)
(-1.6332157e-06 -1.2291873e-07 1.079779)
(-2.172741e-06 -1.619837e-07 1.0797787)
(-8.1423585e-07 -1.8742918e-07 1.0797782)
(8.8828129e-07 -3.8517108e-07 1.0797788)
(2.0351871e-06 -4.1492829e-07 1.0797792)
(1.1078939e-06 -4.576505e-07 1.0797794)
(5.2617372e-07 -5.0296897e-07 1.0797795)
(-3.6430825e-08 -5.4692726e-07 1.0797795)
(-5.8905642e-07 -5.8905641e-07 1.0797794)
(-1.133453e-06 -6.2983098e-07 1.0797792)
(-1.6705059e-06 -6.68721e-07 1.0797789)
(-2.2006361e-06 -7.0240992e-07 1.0797785)
(-8.2133506e-07 -7.2361938e-07 1.079778)
(8.7667136e-07 -8.8617652e-07 1.0797786)
(1.9941304e-06 -9.3686993e-07 1.079779)
(1.0603109e-06 -9.9468677e-07 1.0797792)
(4.7983864e-07 -1.0469651e-06 1.0797793)
(-7.9719603e-08 -1.0925142e-06 1.0797793)
(-6.2983099e-07 -1.133453e-06 1.0797792)
(-1.1721788e-06 -1.1721788e-06 1.079779)
(-1.7057946e-06 -1.2099989e-06 1.0797787)
(-2.2276394e-06 -1.2455162e-06 1.0797783)
(-8.2837549e-07 -1.2713883e-06 1.0797778)
(8.5448568e-07 -1.3279518e-06 1.0797784)
(1.9266769e-06 -1.4421867e-06 1.0797788)
(9.9779876e-07 -1.5278539e-06 1.079779)
(4.2834632e-07 -1.5882418e-06 1.0797791)
(-1.2291872e-07 -1.6332157e-06 1.079779)
(-6.6872101e-07 -1.6705059e-06 1.0797789)
(-1.2099989e-06 -1.7057946e-06 1.0797787)
(-1.7438433e-06 -1.7438433e-06 1.0797784)
(-2.2620255e-06 -1.7884313e-06 1.079778)
(-8.3858315e-07 -1.8356623e-06 1.0797775)
(8.0051472e-07 -1.6479263e-06 1.0797781)
(1.7942283e-06 -1.9672666e-06 1.0797784)
(9.1425586e-07 -2.0775504e-06 1.0797786)
(3.7447684e-07 -2.1361256e-06 1.0797787)
(-1.619837e-07 -2.172741e-06 1.0797787)
(-7.0240993e-07 -2.2006361e-06 1.0797785)
(-1.2455162e-06 -2.2276394e-06 1.0797783)
(-1.7884313e-06 -2.2620255e-06 1.079778)
(-2.3194584e-06 -2.3194584e-06 1.0797776)
(-8.5986282e-07 -2.4386924e-06 1.0797771)
(6.4159215e-07 -5.8857143e-07 1.0797777)
(1.4970528e-06 -7.47494e-07 1.079778)
(8.2893973e-07 -7.8668841e-07 1.0797781)
(3.3315567e-07 -8.0437141e-07 1.0797782)
(-1.8742917e-07 -8.1423585e-07 1.0797782)
(-7.2361938e-07 -8.2133506e-07 1.079778)
(-1.2713883e-06 -8.2837549e-07 1.0797778)
(-1.8356623e-06 -8.3858315e-07 1.0797775)
(-2.4386924e-06 -8.5986282e-07 1.0797771)
(-9.180725e-07 -9.180725e-07 1.0797765)
(1.2487699e-06 1.2487699e-06 1.0797418)
(2.8362973e-06 1.0901238e-06 1.0797423)
(1.54309e-06 1.054571e-06 1.0797425)
(8.1530927e-07 1.0395062e-06 1.0797427)
(1.4476365e-07 1.0296655e-06 1.0797427)
(-4.8916918e-07 1.0200212e-06 1.0797426)
(-1.0812904e-06 1.0063557e-06 1.0797425)
(-1.607394e-06 9.8018716e-07 1.0797422)
(-1.9934407e-06 9.1645149e-07 1.0797419)
(-7.1251064e-07 7.2861697e-07 1.0797416)
(1.0901238e-06 2.8362973e-06 1.0797423)
(2.5449988e-06 2.5449988e-06 1.0797427)
(1.4671637e-06 2.4538298e-06 1.0797429)
(7.7795114e-07 2.4042504e-06 1.0797431)
(1.1553614e-07 2.3673495e-06 1.0797431)
(-5.24134e-07 2.3305179e-06 1.079743)
(-1.1410415e-06 2.2822189e-06 1.0797429)
(-1.7422502e-06 2.2027245e-06 1.0797426)
(-2.370796e-06 2.0464955e-06 1.0797423)
(-9.0034516e-07 1.6957816e-06 1.0797418)
(1.054571e-06 1.54309e-06 1.0797425)
(2.4538297e-06 1.4671637e-06 1.0797429)
(1.4023416e-06 1.4023416e-06 1.0797431)
(7.2882903e-07 1.3496449e-06 1.0797433)
(7.103116e-08 1.303047e-06 1.0797433)
(-5.7429978e-07 1.2556026e-06 1.0797432)
(-1.2090839e-06 1.1996503e-06 1.079743)
(-1.8431174e-06 1.1260559e-06 1.0797428)
(-2.5003836e-06 1.027719e-06 1.0797424)
(-9.4631985e-07 9.2762688e-07 1.0797419)
(1.0395062e-06 8.1530925e-07 1.0797427)
(2.4042504e-06 7.7795112e-07 1.0797431)
(1.3496449e-06 7.2882901e-07 1.0797433)
(6.7865656e-07 6.7865656e-07 1.0797434)
(2.149391e-08 6.2930063e-07 1.0797434)
(-6.2753072e-07 5.7888606e-07 1.0797433)
(-1.2705883e-06 5.2437698e-07 1.0797431)
(-1.9141815e-06 4.6374336e-07 1.0797429)
(-2.569225e-06 4.0032472e-07 1.0797425)
(-9.6707324e-07 3.51782e-07 1.079742)
(1.0296655e-06 1.4476364e-07 1.0797427)
(2.3673495e-06 1.1553613e-07 1.0797431)
(1.3030471e-06 7.1031163e-08 1.0797433)
(6.2930064e-07 2.1493913e-08 1.0797434)
(-2.873934e-08 -2.8739331e-08 1.0797434)
(-6.7922342e-07 -7.9068003e-08 1.0797433)
(-1.3242266e-06 -1.30068e-07 1.0797431)
(-1.9671697e-06 -1.8102993e-07 1.0797428)
(-2.6123449e-06 -2.2713944e-07 1.0797425)
(-9.7868166e-07 -2.5715447e-07 1.079742)
(1.0200212e-06 -4.8916918e-07 1.0797426)
(2.3305179e-06 -5.2413401e-07 1.079743)
(1.2556026e-06 -5.7429977e-07 1.0797432)
(5.7888607e-07 -6.2753073e-07 1.0797433)
(-7.9068007e-08 -6.7922341e-07 1.0797433)
(-7.2885939e-07 -7.288594e-07 1.0797432)
(-1.3725502e-06 -7.7701654e-07 1.079743)
(-2.011253e-06 -8.2307023e-07 1.0797427)
(-2.6453495e-06 -8.6306674e-07 1.0797423)
(-9.8708326e-07 -8.8829556e-07 1.0797419)
(1.0063557e-06 -1.0812904e-06 1.0797425)
(2.2822189e-06 -1.1410415e-06 1.0797429)
(1.1996503e-06 -1.2090839e-06 1.079743)
(5.24377e-07 -1.2705883e-06 1.0797431)
(-1.3006801e-07 -1.3242265e-06 1.0797431)
(-7.7701656e-07 -1.3725502e-06 1.079743)
(-1.4184374e-06 -1.4184374e-06 1.0797428)
(-2.0532199e-06 -1.4634789e-06 1.0797425)
(-2.6775703e-06 -1.5060206e-06 1.0797421)
(-9.9550088e-07 -1.5371767e-06 1.0797416)
(9.8018715e-07 -1.607394e-06 1.0797422)
(2.2027245e-06 -1.7422502e-06 1.0797426)
(1.1260559e-06 -1.8431174e-06 1.0797428)
(4.6374338e-07 -1.9141815e-06 1.0797429)
(-1.8102993e-07 -1.9671697e-06 1.0797428)
(-8.2307024e-07 -2.0112529e-06 1.0797427)
(-1.4634789e-06 -2.0532199e-06 1.0797425)
(-2.0988361e-06 -2.0988361e-06 1.0797422)
(-2.7190473e-06 -2.1527441e-06 1.0797418)
(-1.007854e-06 -2.210228e-06 1.0797413)
(9.1645149e-07 -1.9934407e-06 1.0797419)
(2.0464955e-06 -2.370796e-06 1.0797423)
(1.027719e-06 -2.5003836e-06 1.0797424)
(4.0032474e-07 -2.569225e-06 1.0797425)
(-2.2713943e-07 -2.612345e-06 1.0797425)
(-8.6306675e-07 -2.6453495e-06 1.0797423)
(-1.5060206e-06 -2.6775703e-06 1.0797421)
(-2.1527441e-06 -2.7190473e-06 1.0797418)
(-2.7889621e-06 -2.7889621e-06 1.0797414)
(-1.0338235e-06 -2.9348446e-06 1.0797409)
(7.2861696e-07 -7.1251064e-07 1.0797416)
(1.6957816e-06 -9.0034516e-07 1.0797418)
(9.2762691e-07 -9.4631985e-07 1.0797419)
(3.5178201e-07 -9.6707324e-07 1.079742)
(-2.5715448e-07 -9.7868167e-07 1.079742)
(-8.8829556e-07 -9.8708327e-07 1.0797419)
(-1.5371766e-06 -9.9550087e-07 1.0797416)
(-2.210228e-06 -1.007854e-06 1.0797413)
(-2.9348446e-06 -1.0338234e-06 1.0797409)
(-1.1051089e-06 -1.1051089e-06 1.0797403)
(1.4025034e-06 1.4025034e-06 1.0797003)
(3.1779295e-06 1.2234631e-06 1.0797007)
(1.7146266e-06 1.1834544e-06 1.079701)
(8.8956015e-07 1.1664631e-06 1.0797011)
(1.2664089e-07 1.1553024e-06 1.0797011)
(-5.9737547e-07 1.1443046e-06 1.079701)
(-1.2763735e-06 1.1286696e-06 1.0797009)
(-1.8824555e-06 1.0986818e-06 1.0797006)
(-2.3303914e-06 1.0255812e-06 1.0797003)
(-8.3293397e-07 8.1001607e-07 1.0797)
(1.2234631e-06 3.1779295e-06 1.0797007)
(2.8493559e-06 2.8493559e-06 1.0797011)