/*--------------------------------*- C++ -*----------------------------------*\
| =========                 |                                                 |
| \\      /  F ield         | OpenFOAM: The Open Source CFD Toolbox           |
|  \\    /   O peration     | Version:  v2106                                 |
|   \\  /    A nd           | Website:  www.openfoam.com                      |
|    \\/     M anipulation  |                                                 |
\*---------------------------------------------------------------------------*/
FoamFile
{
    version     2.0;
    format      ascii;
    arch        "LSB;label=32;scalar=64";
    class       volVectorField;
    location    "85";
    object      flux;
}
// * * * * * * * * * * * * * * * * * * * * * * * * * * * * * * * * * * * * * //

dimensions      [0 1 -1 1 0 0 0];

internalField   nonuniform List<vector> 
4000
(
(1.929376e-07 1.929376e-07 0.30941876)
(4.3448969e-07 1.7641507e-07 0.30942101)
(2.3438109e-07 1.7224438e-07 0.30942222)
(1.3377012e-07 1.7049757e-07 0.30942297)
(4.9259261e-08 1.6938912e-07 0.30942335)
(-2.5691204e-08 1.6830674e-07 0.30942339)
(-9.0322085e-08 1.6676956e-07 0.30942313)
(-1.3819057e-07 1.6385806e-07 0.30942261)
(-1.5000403e-07 1.5709545e-07 0.30942194)
(-4.7771601e-08 1.4047885e-07 0.3094213)
(1.7641507e-07 4.3448969e-07 0.30942101)
(4.0344987e-07 4.0344987e-07 0.30942305)
(2.2550484e-07 3.9274797e-07 0.30942421)
(1.2948723e-07 3.8705753e-07 0.30942494)
(4.5973017e-08 3.8290497e-07 0.3094253)
(-2.9620549e-08 3.7876054e-07 0.30942533)
(-9.6995109e-08 3.7329942e-07 0.30942505)
(-1.5270174e-07 3.6433496e-07 0.3094245)
(-1.8507285e-07 3.4719214e-07 0.30942373)
(-6.4388196e-08 3.1358567e-07 0.30942285)
(1.7224438e-07 2.3438109e-07 0.30942222)
(3.9274797e-07 2.2550484e-07 0.30942421)
(2.1798875e-07 2.1798875e-07 0.30942533)
(1.2392712e-07 2.1202822e-07 0.30942604)
(4.0962278e-08 2.0679795e-07 0.30942638)
(-3.529675e-08 2.0145997e-07 0.30942638)
(-1.0474767e-07 1.9512336e-07 0.30942607)
(-1.6429785e-07 1.8672383e-07 0.30942548)
(-2.0075333e-07 1.7536476e-07 0.30942466)
(-7.0175916e-08 1.629555e-07 0.3094237)
(1.7049757e-07 1.3377012e-07 0.30942297)
(3.8705753e-07 1.2948723e-07 0.30942494)
(2.1202821e-07 1.2392712e-07 0.30942604)
(1.1829643e-07 1.1829643e-07 0.30942672)
(3.5404769e-08 1.1277435e-07 0.30942703)
(-4.1295132e-08 1.0713282e-07 0.30942701)
(-1.1173125e-07 1.0101514e-07 0.30942668)
(-1.7246035e-07 9.4166227e-08 0.30942606)
(-2.0884117e-07 8.6914435e-08 0.3094252)
(-7.2661035e-08 8.1200302e-08 0.30942421)
(1.6938912e-07 4.925926e-08 0.30942335)
(3.8290497e-07 4.5973015e-08 0.3094253)
(2.0679794e-07 4.0962278e-08 0.30942638)
(1.1277435e-07 3.5404768e-08 0.30942703)
(2.9798669e-08 2.9798669e-08 0.30942733)
(-4.7055958e-08 2.4219421e-08 0.30942728)
(-1.1771426e-07 1.8604858e-08 0.30942692)
(-1.7839856e-07 1.3023052e-08 0.30942628)
(-2.1371925e-07 7.9770819e-09 0.30942539)
(-7.3985337e-08 4.6717952e-09 0.30942439)
(1.6830674e-07 -2.5691207e-08 0.30942339)
(3.7876054e-07 -2.9620551e-08 0.30942533)
(2.0145997e-07 -3.5296751e-08 0.30942638)
(1.0713282e-07 -4.1295131e-08 0.30942701)
(2.4219422e-08 -4.7055957e-08 0.30942728)
(-5.2488942e-08 -5.2488941e-08 0.30942722)
(-1.2292762e-07 -5.7630596e-08 0.30942683)
(-1.8308813e-07 -6.2396497e-08 0.30942616)
(-2.1719243e-07 -6.6386598e-08 0.30942526)
(-7.4864559e-08 -6.8809802e-08 0.30942425)
(1.6676956e-07 -9.0322087e-08 0.30942313)
(3.7329942e-07 -9.6995112e-08 0.30942505)
(1.9512336e-07 -1.0474767e-07 0.30942607)
(1.0101514e-07 -1.1173125e-07 0.30942668)
(1.8604858e-08 -1.1771426e-07 0.30942692)
(-5.7630598e-08 -1.2292762e-07 0.30942683)
(-1.2762182e-07 -1.2762181e-07 0.30942643)
(-1.8715456e-07 -1.3188184e-07 0.30942574)
(-2.2013256e-07 -1.3548638e-07 0.30942482)
(-7.5600807e-08 -1.377711e-07 0.3094238)
(1.6385806e-07 -1.3819057e-07 0.30942261)
(3.6433496e-07 -1.5270174e-07 0.3094245)
(1.8672383e-07 -1.6429785e-07 0.30942548)
(9.4166223e-08 -1.7246035e-07 0.30942606)
(1.3023049e-08 -1.7839856e-07 0.30942628)
(-6.2396493e-08 -1.8308813e-07 0.30942616)
(-1.3188184e-07 -1.8715456e-07 0.30942574)
(-1.909527e-07 -1.9095269e-07 0.30942504)
(-2.2308168e-07 -1.9452658e-07 0.3094241)
(-7.6387703e-08 -1.9725145e-07 0.30942307)
(1.5709545e-07 -1.5000403e-07 0.30942194)
(3.4719214e-07 -1.8507284e-07 0.30942373)
(1.7536475e-07 -2.0075333e-07 0.30942466)
(8.6914432e-08 -2.0884118e-07 0.3094252)
(7.9770861e-09 -2.1371925e-07 0.30942539)
(-6.6386597e-08 -2.1719243e-07 0.30942526)
(-1.3548639e-07 -2.2013256e-07 0.30942482)
(-1.9452658e-07 -2.2308168e-07 0.3094241)
(-2.2643131e-07 -2.2643131e-07 0.30942315)
(-7.7417385e-08 -2.2993098e-07 0.3094221)
(1.4047885e-07 -4.7771599e-08 0.3094213)
(3.1358567e-07 -6.4388197e-08 0.30942285)
(1.629555e-07 -7.0175914e-08 0.3094237)
(8.1200299e-08 -7.2661035e-08 0.30942421)
(4.6717916e-09 -7.3985336e-08 0.30942439)
(-6.8809801e-08 -7.4864564e-08 0.30942425)
(-1.3777109e-07 -7.5600806e-08 0.3094238)
(-1.9725145e-07 -7.6387703e-08 0.30942307)
(-2.2993098e-07 -7.7417383e-08 0.3094221)
(-7.8720818e-08 -7.8720816e-08 0.30942103)
(1.7326888e-06 1.7326888e-06 0.65508195)
(4.0263204e-06 1.5660447e-06 0.6550862)
(2.3212231e-06 1.525548e-06 0.65508864)
(1.3397036e-06 1.5081434e-06 0.6550902)
(4.9126712e-07 1.4969636e-06 0.65509097)
(-2.660835e-07 1.486025e-06 0.65509102)
(-9.2275051e-07 1.4704757e-06 0.65509043)
(-1.4178047e-06 1.4408369e-06 0.65508927)
(-1.5706441e-06 1.369726e-06 0.65508769)
(-5.0933749e-07 1.164758e-06 0.65508597)
(1.5660447e-06 4.0263204e-06 0.6550862)
(3.715609e-06 3.715609e-06 0.65509003)
(2.2343711e-06 3.6107867e-06 0.65509237)
(1.2968271e-06 3.5538373e-06 0.65509388)
(4.5808951e-07 3.5119523e-06 0.65509462)
(-3.058154e-07 3.4700803e-06 0.65509465)
(-9.9053271e-07 3.4148604e-06 0.65509401)
(-1.5689293e-06 3.3238899e-06 0.65509277)
(-1.9847625e-06 3.1463055e-06 0.655091)
(-7.1430557e-07 2.7529041e-06 0.65508871)
(1.525548e-06 2.3212231e-06 0.65508864)
(3.6107867e-06 2.2343711e-06 0.65509237)
(2.1594514e-06 2.1594514e-06 0.65509464)
(1.2408692e-06 2.0994713e-06 0.65509609)
(4.0751015e-07 2.0466901e-06 0.65509679)
(-3.6317541e-07 1.9927654e-06 0.65509677)
(-1.0689409e-06 1.9287185e-06 0.65509608)
(-1.6863596e-06 1.8437718e-06 0.65509475)
(-2.1416298e-06 1.7287905e-06 0.65509285)
(-7.7160502e-07 1.6053328e-06 0.65509041)
(1.5081434e-06 1.3397036e-06 0.6550902)
(3.5538373e-06 1.2968271e-06 0.65509388)
(2.0994713e-06 1.2408692e-06 0.65509609)
(1.1840658e-06 1.1840658e-06 0.6550975)
(3.5138364e-07 1.1283019e-06 0.65509814)
(-4.2378701e-07 1.0713019e-06 0.65509807)
(-1.1395264e-06 1.0094722e-06 0.65509732)
(-1.7688573e-06 9.4024156e-07 0.65509593)
(-2.2232015e-06 8.6695069e-07 0.65509395)
(-7.9661069e-07 8.0937409e-07 0.65509144)
(1.4969636e-06 4.9126712e-07 0.65509097)
(3.5119523e-06 4.5808951e-07 0.65509462)
(2.0466901e-06 4.0751015e-07 0.65509679)
(1.1283019e-06 3.5138364e-07 0.65509814)
(2.9474621e-07 2.9474621e-07 0.65509874)
(-4.8200512e-07 2.3836336e-07 0.65509862)
(-1.2000012e-06 1.8160828e-07 0.65509781)
(-1.8288811e-06 1.2517121e-07 0.65509636)
(-2.2724973e-06 7.4145974e-08 0.65509433)
(-8.0998942e-07 4.0727993e-08 0.65509178)
(1.486025e-06 -2.660835e-07 0.65509102)
(3.4700803e-06 -3.058154e-07 0.65509465)
(1.9927654e-06 -3.6317541e-07 0.65509677)
(1.0713019e-06 -4.2378701e-07 0.65509807)
(2.3836336e-07 -4.8200512e-07 0.65509862)
(-5.3692494e-07 -5.3692494e-07 0.65509844)
(-1.2527185e-06 -5.8892351e-07 0.65509759)
(-1.8763196e-06 -6.3715667e-07 0.6550961)
(-2.3076447e-06 -6.7758286e-07 0.65509402)
(-8.1888934e-07 -7.0217106e-07 0.65509145)
(1.4704757e-06 -9.2275051e-07 0.65509043)
(3.4148604e-06 -9.9053271e-07 0.65509401)
(1.9287185e-06 -1.0689409e-06 0.65509608)
(1.0094722e-06 -1.1395264e-06 0.65509732)
(1.8160828e-07 -1.2000012e-06 0.65509781)
(-5.8892351e-07 -1.2527185e-06 0.65509759)
(-1.300233e-06 -1.300233e-06 0.65509669)
(-1.9175405e-06 -1.3434436e-06 0.65509516)
(-2.3375117e-06 -1.3801646e-06 0.65509305)
(-8.2638155e-07 -1.4036325e-06 0.65509045)
(1.4408369e-06 -1.4178047e-06 0.65508927)
(3.3238899e-06 -1.5689293e-06 0.65509277)
(1.8437718e-06 -1.6863596e-06 0.65509475)
(9.4024156e-07 -1.7688573e-06 0.65509593)
(1.2517121e-07 -1.8288811e-06 0.65509636)
(-6.3715668e-07 -1.8763196e-06 0.6550961)
(-1.3434436e-06 -1.9175405e-06 0.65509516)
(-1.9562512e-06 -1.9562512e-06 0.65509358)
(-2.3678335e-06 -1.9931725e-06 0.65509144)
(-8.3453459e-07 -2.0222469e-06 0.65508882)
(1.369726e-06 -1.5706441e-06 0.65508769)
(3.1463055e-06 -1.9847625e-06 0.655091)
(1.7287905e-06 -2.1416298e-06 0.65509285)
(8.6695069e-07 -2.2232015e-06 0.65509395)
(7.4145975e-08 -2.2724973e-06 0.65509433)
(-6.7758286e-07 -2.3076447e-06 0.65509402)
(-1.3801646e-06 -2.3375117e-06 0.65509305)
(-1.9931725e-06 -2.3678335e-06 0.65509144)
(-2.4035073e-06 -2.4035073e-06 0.65508926)
(-8.4576447e-07 -2.4448471e-06 0.6550866)
(1.164758e-06 -5.0933748e-07 0.65508597)
(2.7529041e-06 -7.1430557e-07 0.65508871)
(1.6053328e-06 -7.7160502e-07 0.65509041)
(8.0937408e-07 -7.9661069e-07 0.65509144)
(4.0727992e-08 -8.0998942e-07 0.65509178)
(-7.0217106e-07 -8.1888934e-07 0.65509145)
(-1.4036325e-06 -8.2638155e-07 0.65509045)
(-2.0222469e-06 -8.3453459e-07 0.65508882)
(-2.4448471e-06 -8.4576447e-07 0.6550866)
(-8.620944e-07 -8.620944e-07 0.65508384)
(3.0056136e-06 3.0056136e-06 0.65487655)
(7.0880982e-06 2.7171426e-06 0.65488023)
(4.2174084e-06 2.6451295e-06 0.65488243)
(2.4493536e-06 2.6132287e-06 0.65488386)
(8.7028314e-07 2.5923083e-06 0.65488454)
(-5.6573018e-07 2.5716279e-06 0.65488453)
(-1.8413043e-06 2.5420735e-06 0.65488386)
(-2.876172e-06 2.4854284e-06 0.6548826)
(-3.4576027e-06 2.3484278e-06 0.65488081)
(-1.1988951e-06 1.9491128e-06 0.65487863)
(2.7171426e-06 7.0880982e-06 0.65488023)
(6.5473717e-06 6.5473717e-06 0.65488355)
(4.0615374e-06 6.3589942e-06 0.65488567)
(2.3701217e-06 6.2538467e-06 0.65488705)
(8.0788183e-07 6.1752671e-06 0.6548877)
(-6.4108244e-07 6.0960979e-06 0.65488766)
(-1.9706036e-06 5.9912677e-06 0.65488695)
(-3.1666407e-06 5.8179298e-06 0.65488561)
(-4.2620764e-06 5.4777873e-06 0.65488362)
(-1.5982102e-06 4.7184889e-06 0.65488085)
(2.6451295e-06 4.2174084e-06 0.65488243)
(6.3589942e-06 4.0615374e-06 0.65488567)
(3.9238834e-06 3.9238834e-06 0.65488771)
(2.2656265e-06 3.8119473e-06 0.65488904)
(7.1253433e-07 3.71257e-06 0.65488965)
(-7.497296e-07 3.6105686e-06 0.65488957)
(-2.1194724e-06 3.4891256e-06 0.6548888)
(-3.3896524e-06 3.3278508e-06 0.65488737)
(-4.5570434e-06 3.1097209e-06 0.65488525)
(-1.7050938e-06 2.8788662e-06 0.65488234)
(2.6132287e-06 2.4493536e-06 0.65488386)
(6.2538467e-06 2.3701217e-06 0.65488705)
(3.8119473e-06 2.2656265e-06 0.65488904)
(2.1588083e-06 2.1588083e-06 0.65489032)
(6.0650313e-07 2.0535047e-06 0.65489088)
(-8.645268e-07 1.9455963e-06 0.65489074)
(-2.2533214e-06 1.828368e-06 0.65488992)
(-3.5460454e-06 1.6970177e-06 0.65488842)
(-4.711061e-06 1.5580708e-06 0.65488623)
(-1.7521133e-06 1.4495448e-06 0.65488325)
(2.5923083e-06 8.7028314e-07 0.65488454)
(6.1752671e-06 8.0788183e-07 0.6548877)
(3.71257e-06 7.1253433e-07 0.65488965)
(2.0535047e-06 6.0650313e-07 0.65489088)
(4.9932235e-07 4.9932236e-07 0.6548914)
(-9.7486627e-07 3.9246292e-07 0.65489121)
(-2.368051e-06 2.8474795e-07 0.65489033)
(-3.6599497e-06 1.7750575e-07 0.65488878)
(-4.8045163e-06 8.0479274e-08 0.65488653)
(-1.7774444e-06 1.6981937e-08 0.65488352)
(2.5716279e-06 -5.6573018e-07 0.65488453)
(6.0960979e-06 -6.4108244e-07 0.65488766)
(3.6105686e-06 -7.497296e-07 0.65488957)
(1.9455963e-06 -8.645268e-07 0.65489074)
(3.9246292e-07 -9.7486627e-07 0.65489121)
(-1.0791012e-06 -1.0791012e-06 0.65489097)
(-2.4682785e-06 -1.1780214e-06 0.65489005)
(-3.7503141e-06 -1.2701098e-06 0.65488844)
(-4.8715848e-06 -1.3477108e-06 0.65488616)
(-1.7944448e-06 -1.3952533e-06 0.65488312)
(2.5420735e-06 -1.8413043e-06 0.65488386)
(5.9912677e-06 -1.9706036e-06 0.65488695)
(3.4891256e-06 -2.1194724e-06 0.6548888)
(1.828368e-06 -2.2533214e-06 0.65488992)
(2.8474795e-07 -2.368051e-06 0.65489033)
(-1.1780214e-06 -2.4682785e-06 0.65489005)
(-2.5590597e-06 -2.5590597e-06 0.65488908)
(-3.8296391e-06 -2.6424633e-06 0.65488743)
(-4.9296598e-06 -2.7148006e-06 0.65488511)
(-1.8091393e-06 -2.7628555e-06 0.65488205)
(2.4854284e-06 -2.876172e-06 0.6548826)
(5.8179298e-06 -3.1666407e-06 0.65488561)
(3.3278508e-06 -3.3896524e-06 0.65488737)
(1.6970177e-06 -3.5460454e-06 0.65488842)
(1.7750575e-07 -3.6599497e-06 0.65488878)
(-1.2701098e-06 -3.7503141e-06 0.65488844)
(-2.6424633e-06 -3.8296391e-06 0.65488743)
(-3.9060551e-06 -3.9060551e-06 0.65488575)
(-4.9919771e-06 -3.983475e-06 0.65488339)
(-1.8264814e-06 -4.0534788e-06 0.6548803)
(2.3484278e-06 -3.4576027e-06 0.65488081)
(5.4777873e-06 -4.2620764e-06 0.65488362)
(3.1097209e-06 -4.5570434e-06 0.65488525)
(1.5580708e-06 -4.711061e-06 0.65488623)
(8.0479274e-08 -4.8045163e-06 0.65488653)
(-1.3477108e-06 -4.8715848e-06 0.65488616)
(-2.7148006e-06 -4.9296598e-06 0.65488511)
(-3.983475e-06 -4.9919771e-06 0.65488339)
(-5.0770835e-06 -5.0770835e-06 0.65488098)
(-1.8558086e-06 -5.2247331e-06 0.65487783)
(1.9491128e-06 -1.1988951e-06 0.65487863)
(4.7184889e-06 -1.5982102e-06 0.65488085)
(2.8788662e-06 -1.7050938e-06 0.65488234)
(1.4495448e-06 -1.7521133e-06 0.65488325)
(1.6981935e-08 -1.7774444e-06 0.65488352)
(-1.3952533e-06 -1.7944448e-06 0.65488312)
(-2.7628555e-06 -1.8091393e-06 0.65488205)
(-4.0534788e-06 -1.8264814e-06 0.6548803)
(-5.2247331e-06 -1.8558086e-06 0.65487783)
(-1.9249144e-06 -1.9249144e-06 0.65487451)
(4.1778897e-06 4.1778897e-06 0.65460977)
(9.8914283e-06 3.7740561e-06 0.65461321)
(5.9354023e-06 3.6729086e-06 0.65461523)
(3.4390124e-06 3.6274019e-06 0.65461651)
(1.160105e-06 3.5970996e-06 0.6546171)
(-9.4647789e-07 3.5668514e-06 0.654617)
(-2.855939e-06 3.5233857e-06 0.65461626)
(-4.4729056e-06 3.439718e-06 0.65461489)
(-5.5370222e-06 3.2364549e-06 0.65461298)
(-1.9611153e-06 2.6413046e-06 0.65461065)
(3.7740561e-06 9.8914283e-06 0.65461321)
(9.1339557e-06 9.1339557e-06 0.65461631)
(5.7154207e-06 8.8680375e-06 0.65461824)
(3.3252989e-06 8.7173099e-06 0.65461949)
(1.0692792e-06 8.6032482e-06 0.65462004)
(-1.0570488e-06 8.4874501e-06 0.65461992)
(-3.0466393e-06 8.3334514e-06 0.65461913)
(-4.903302e-06 8.0779961e-06 0.65461769)
(-6.734643e-06 7.5750991e-06 0.65461557)
(-2.5562657e-06 6.4486416e-06 0.65461266)
(3.6729086e-06 5.9354023e-06 0.65461523)
(8.8680375e-06 5.7154207e-06 0.65461824)
(5.5187565e-06 5.5187565e-06 0.6546201)
(3.1742231e-06 5.3570383e-06 0.6546213)
(9.3024516e-07 5.212329e-06 0.65462181)
(-1.2162747e-06 5.0630745e-06 0.65462165)
(-3.265393e-06 4.8848728e-06 0.6546208)
(-5.2312578e-06 4.6478666e-06 0.65461928)
(-7.1663765e-06 4.3273343e-06 0.65461703)
(-2.7120865e-06 3.9905585e-06 0.65461397)
(3.6274019e-06 3.4390124e-06 0.65461651)
(8.7173099e-06 3.3252988e-06 0.65461949)
(5.3570383e-06 3.1742231e-06 0.6546213)
(3.0188714e-06 3.0188714e-06 0.65462244)
(7.7531537e-07 2.8650787e-06 0.65462291)
(-1.384505e-06 2.7070301e-06 0.6546227)
(-3.4618472e-06 2.5350088e-06 0.6546218)
(-5.4608404e-06 2.3420772e-06 0.6546202)
(-7.3919511e-06 2.13805e-06 0.65461788)
(-2.7807828e-06 1.9792551e-06 0.65461476)
(3.5970996e-06 1.160105e-06 0.6546171)
(8.6032482e-06 1.0692792e-06 0.65462004)
(5.212329e-06 9.3024517e-07 0.65462181)
(2.8650787e-06 7.7531537e-07 0.65462291)
(6.1840389e-07 6.184039e-07 0.65462333)
(-1.5463447e-06 4.616714e-07 0.65462307)
(-3.6303459e-06 3.0340113e-07 0.65462211)
(-5.6282166e-06 1.4558035e-07 0.65462046)
(-7.5291986e-06 2.6565637e-09 0.65461809)
(-2.8179497e-06 -9.0842415e-08 0.65461493)
(3.5668514e-06 -9.464779e-07 0.654617)
(8.4874501e-06 -1.0570488e-06 0.65461992)
(5.0630745e-06 -1.2162747e-06 0.65462165)
(2.7070301e-06 -1.384505e-06 0.6546227)
(4.616714e-07 -1.5463447e-06 0.65462307)
(-1.6995078e-06 -1.6995078e-06 0.65462275)
(-3.7779382e-06 -1.8452799e-06 0.65462175)
(-5.761585e-06 -1.9815424e-06 0.65462006)
(-7.6283738e-06 -2.0969949e-06 0.65461764)
(-2.8431154e-06 -2.168176e-06 0.65461446)
(3.5233857e-06 -2.855939e-06 0.65461626)
(8.3334514e-06 -3.0466393e-06 0.65461913)
(4.8848728e-06 -3.265393e-06 0.6546208)
(2.5350088e-06 -3.4618472e-06 0.6546218)
(3.0340114e-07 -3.6303459e-06 0.65462211)
(-1.8452799e-06 -3.7779382e-06 0.65462175)
(-3.9123806e-06 -3.9123806e-06 0.6546207)
(-5.8799317e-06 -4.0371868e-06 0.65461897)
(-7.7158322e-06 -4.1473353e-06 0.65461652)
(-2.8654038e-06 -4.222438e-06 0.65461331)
(3.439718e-06 -4.4729055e-06 0.65461489)
(8.0779961e-06 -4.903302e-06 0.65461769)
(4.6478666e-06 -5.2312578e-06 0.65461928)
(2.3420772e-06 -5.4608404e-06 0.6546202)
(1.4558034e-07 -5.6282166e-06 0.65462046)
(-1.9815424e-06 -5.761585e-06 0.65462006)
(-4.0371868e-06 -5.8799317e-06 0.65461897)
(-5.9965397e-06 -5.9965397e-06 0.65461719)
(-7.813625e-06 -6.1195646e-06 0.6546147)
(-2.8931838e-06 -6.2377636e-06 0.65461146)
(3.2364549e-06 -5.5370222e-06 0.65461298)
(7.5750991e-06 -6.734643e-06 0.65461557)
(4.3273343e-06 -7.1663765e-06 0.65461703)
(2.13805e-06 -7.3919511e-06 0.65461788)
(2.6565593e-09 -7.5291986e-06 0.65461809)
(-2.0969949e-06 -7.6283738e-06 0.65461764)
(-4.1473353e-06 -7.7158322e-06 0.65461652)
(-6.1195646e-06 -7.813625e-06 0.6546147)
(-7.9570561e-06 -7.9570561e-06 0.65461216)
(-2.9442031e-06 -8.2294048e-06 0.65460885)
(2.6413046e-06 -1.9611153e-06 0.65461065)
(6.4486416e-06 -2.5562657e-06 0.65461266)
(3.9905585e-06 -2.7120865e-06 0.65461397)
(1.9792551e-06 -2.7807828e-06 0.65461476)
(-9.0842419e-08 -2.8179497e-06 0.65461493)
(-2.168176e-06 -2.8431154e-06 0.65461446)
(-4.222438e-06 -2.8654038e-06 0.65461331)
(-6.2377636e-06 -2.8931838e-06 0.65461146)
(-8.2294048e-06 -2.9442031e-06 0.65460885)
(-3.0747495e-06 -3.0747495e-06 0.65460536)
(5.2976079e-06 5.2976079e-06 0.65428408)
(1.2534773e-05 4.7788247e-06 0.65428738)
(7.5067954e-06 4.6495325e-06 0.65428924)
(4.3122929e-06 4.5909821e-06 0.6542904)
(1.3574298e-06 4.5516096e-06 0.65429089)
(-1.4069476e-06 4.5120076e-06 0.65429071)
(-3.9490611e-06 4.4548362e-06 0.6542899)
(-6.1547301e-06 4.3444312e-06 0.65428847)
(-7.6997054e-06 4.0754653e-06 0.65428649)
(-2.7490082e-06 3.2860038e-06 0.65428412)
(4.7788247e-06 1.2534773e-05 0.65428738)
(1.1562659e-05 1.1562659e-05 0.65429033)
(7.2250313e-06 1.1222153e-05 0.65429211)
(4.1654086e-06 1.1027686e-05 0.65429323)
(1.238968e-06 1.0879278e-05 0.65429369)
(-1.5521078e-06 1.0727683e-05 0.65429349)
(-4.2004259e-06 1.0525315e-05 0.65429264)
(-6.723787e-06 1.0188768e-05 0.65429113)
(-9.2873477e-06 9.524826e-06 0.65428895)
(-3.5384697e-06 8.0348032e-06 0.654286)
(4.6495325e-06 7.5067954e-06 0.65428924)
(1.1222153e-05 7.2250313e-06 0.65429211)
(6.9718226e-06 6.9718226e-06 0.65429383)
(3.9694185e-06 6.7621608e-06 0.6542949)
(1.0574267e-06 6.5734485e-06 0.65429532)
(-1.7609107e-06 6.3779998e-06 0.65429508)
(-4.4879763e-06 6.1440398e-06 0.65429417)
(-7.1552191e-06 5.8324412e-06 0.65429258)
(-9.8536699e-06 5.4109909e-06 0.65429028)
(-3.7423559e-06 4.9702011e-06 0.65428719)
(4.5909821e-06 4.3122929e-06 0.6542904)
(1.1027686e-05 4.1654086e-06 0.65429323)
(6.7621608e-06 3.9694185e-06 0.6542949)
(3.7670344e-06 3.7670344e-06 0.65429593)
(8.5480696e-07 3.565993e-06 0.6542963)
(-1.9815165e-06 3.3588445e-06 0.65429601)
(-4.7459845e-06 3.1329671e-06 0.65429504)
(-7.4568359e-06 2.8793794e-06 0.65429339)
(-1.0149588e-05 2.6112341e-06 0.65429101)
(-3.8323294e-06 2.4030311e-06 0.65428786)
(4.5516096e-06 1.3574298e-06 0.65429089)
(1.0879278e-05 1.238968e-06 0.65429369)
(6.5734485e-06 1.0574267e-06 0.65429532)
(3.565993e-06 8.5480696e-07 0.6542963)
(6.4923681e-07 6.4923682e-07 0.65429663)
(-2.1939365e-06 4.4352066e-07 0.65429629)
(-4.9674414e-06 2.3540563e-07 0.65429527)
(-7.6769522e-06 2.7557898e-08 0.65429356)
(-1.0330018e-05 -1.608466e-07 0.65429113)
(-3.8811578e-06 -2.840684e-07 0.65428794)
(4.5120076e-06 -1.4069476e-06 0.65429071)
(1.0727683e-05 -1.5521078e-06 0.65429349)
(6.3779998e-06 -1.7609107e-06 0.65429508)
(3.3588445e-06 -1.9815165e-06 0.65429601)
(4.4352066e-07 -2.1939365e-06 0.65429629)
(-2.3953477e-06 -2.3953477e-06 0.6542959)
(-5.1619473e-06 -2.5875926e-06 0.65429483)
(-7.8530881e-06 -2.767985e-06 0.65429308)
(-1.0461214e-05 -2.9215305e-06 0.65429061)
(-3.9144772e-06 -3.0166419e-06 0.6542874)
(4.4548362e-06 -3.9490611e-06 0.6542899)
(1.0525315e-05 -4.2004259e-06 0.65429264)
(6.1440398e-06 -4.4879763e-06 0.65429417)
(3.1329671e-06 -4.7459845e-06 0.65429504)
(2.3540563e-07 -4.9674414e-06 0.65429527)
(-2.5875926e-06 -5.1619473e-06 0.65429483)
(-5.3400787e-06 -5.3400787e-06 0.65429372)
(-8.0108901e-06 -5.5069193e-06 0.65429193)
(-1.0578675e-05 -5.6560925e-06 0.65428943)
(-3.9445654e-06 -5.7594812e-06 0.65428619)
(4.3444312e-06 -6.1547301e-06 0.65428847)
(1.0188768e-05 -6.723787e-06 0.65429113)
(5.8324412e-06 -7.1552191e-06 0.65429258)
(2.8793794e-06 -7.4568359e-06 0.65429339)
(2.7557898e-08 -7.6769522e-06 0.65429356)
(-2.767985e-06 -7.8530881e-06 0.65429308)
(-5.5069193e-06 -8.0108901e-06 0.65429193)
(-8.1691019e-06 -8.1691019e-06 0.65429009)
(-1.0713776e-05 -8.3403527e-06 0.65428755)
(-3.9834029e-06 -8.5098073e-06 0.65428427)
(4.0754653e-06 -7.6997054e-06 0.65428649)
(9.524826e-06 -9.2873477e-06 0.65428895)
(5.4109909e-06 -9.8536699e-06 0.65429028)
(2.6112341e-06 -1.0149588e-05 0.65429101)
(-1.608466e-07 -1.0330018e-05 0.65429113)
(-2.9215305e-06 -1.0461214e-05 0.65429061)
(-5.6560925e-06 -1.0578675e-05 0.65428943)
(-8.3403527e-06 -1.0713776e-05 0.65428755)
(-1.091938e-05 -1.091938e-05 0.65428495)
(-4.0575351e-06 -1.1322421e-05 0.6542816)
(3.2860038e-06 -2.7490082e-06 0.65428412)
(8.0348032e-06 -3.5384697e-06 0.654286)
(4.9702011e-06 -3.7423559e-06 0.65428719)
(2.4030311e-06 -3.8323294e-06 0.65428786)
(-2.840684e-07 -3.8811578e-06 0.65428794)
(-3.0166419e-06 -3.9144772e-06 0.6542874)
(-5.7594812e-06 -3.9445654e-06 0.65428619)
(-8.5098073e-06 -3.9834029e-06 0.65428427)
(-1.1322421e-05 -4.0575351e-06 0.6542816)
(-4.2520964e-06 -4.2520964e-06 0.65427807)
(6.3726331e-06 6.3726331e-06 0.6539026)
(1.5043242e-05 5.7394151e-06 0.65390576)
(8.9517051e-06 5.5826451e-06 0.65390749)
(5.0796458e-06 5.5114841e-06 0.65390854)
(1.4702108e-06 5.4633357e-06 0.65390894)
(-1.9343303e-06 5.4146375e-06 0.6539087)
(-5.0957486e-06 5.3440806e-06 0.65390783)
(-7.8780428e-06 5.207502e-06 0.65390637)
(-9.8860177e-06 4.8741524e-06 0.65390438)
(-3.5409385e-06 3.8942013e-06 0.65390201)
(5.7394151e-06 1.5043242e-05 0.65390576)
(1.3858259e-05 1.3858259e-05 0.65390858)
(8.6098082e-06 1.3445252e-05 0.65391023)
(4.9006814e-06 1.320855e-05 0.65391124)
(1.3249408e-06 1.3026913e-05 0.65391161)
(-2.1132131e-06 1.2840524e-05 0.65391134)
(-5.406452e-06 1.2590961e-05 0.65391044)
(-8.5829357e-06 1.2175122e-05 0.6539089)
(-1.1855971e-05 1.1353571e-05 0.65390671)
(-4.5208896e-06 9.5076784e-06 0.65390379)
(5.5826451e-06 8.9517051e-06 0.65390749)
(1.3445252e-05 8.6098082e-06 0.65391023)
(8.301996e-06 8.301996e-06 0.65391182)
(4.6613067e-06 8.0460561e-06 0.65391278)
(1.1021856e-06 7.8147427e-06 0.65391312)
(-2.3702822e-06 7.5743944e-06 0.65391281)
(-5.7611513e-06 7.2860706e-06 0.65391185)
(-9.1154327e-06 6.901632e-06 0.65391023)
(-1.2553461e-05 6.3816419e-06 0.65390792)
(-4.7715323e-06 5.8396399e-06 0.65390486)
(5.5114841e-06 5.0796458e-06 0.65390854)
(1.320855e-05 4.9006814e-06 0.65391124)
(8.0460561e-06 4.6613067e-06 0.65391278)
(4.4134281e-06 4.4134281e-06 0.6539137)
(8.5327901e-07 4.1665534e-06 0.65391399)
(-2.6418852e-06 3.9116225e-06 0.65391363)
(-6.0792144e-06 3.6331952e-06 0.65391262)
(-9.4873644e-06 3.3203386e-06 0.65391094)
(-1.2917963e-05 2.9895467e-06 0.65390856)
(-4.882224e-06 2.733171e-06 0.65390543)
(5.4633357e-06 1.4702108e-06 0.65390894)
(1.3026913e-05 1.3249408e-06 0.65391161)
(7.8147427e-06 1.1021856e-06 0.65391312)
(4.1665534e-06 8.5327901e-07 0.65391399)
(6.0038001e-07 6.0038001e-07 0.65391423)
(-2.9036404e-06 3.4687956e-07 0.65391383)
(-6.3524352e-06 8.9992259e-08 0.65391277)
(-9.7590812e-06 -1.6692333e-07 0.65391103)
(-1.3140628e-05 -3.999886e-07 0.6539086)
(-4.9424492e-06 -5.5238163e-07 0.65390544)
(5.4146375e-06 -1.9343303e-06 0.6539087)
(1.2840524e-05 -2.1132131e-06 0.65391134)
(7.5743944e-06 -2.3702822e-06 0.65391281)
(3.9116225e-06 -2.6418852e-06 0.65391363)
(3.4687956e-07 -2.9036404e-06 0.65391383)
(-3.152273e-06 -3.152273e-06 0.65391338)
(-6.5930173e-06 -3.3902177e-06 0.65391227)
(-9.9773452e-06 -3.6142334e-06 0.65391049)
(-1.3303421e-05 -3.8056142e-06 0.65390802)
(-4.9838193e-06 -3.9245689e-06 0.65390484)
(5.3440806e-06 -5.0957486e-06 0.65390783)
(1.2590961e-05 -5.406452e-06 0.65391044)
(7.2860706e-06 -5.7611513e-06 0.65391185)
(3.6331952e-06 -6.0792144e-06 0.65391262)
(8.9992257e-08 -6.3524352e-06 0.65391277)
(-3.3902177e-06 -6.5930173e-06 0.65391227)
(-6.8143956e-06 -6.8143956e-06 0.65391112)
(-1.0174478e-05 -7.0232551e-06 0.6539093)
(-1.3450964e-05 -7.2118139e-06 0.65390679)
(-5.0217523e-06 -7.3439365e-06 0.65390358)
(5.207502e-06 -7.8780428e-06 0.65390637)
(1.2175122e-05 -8.5829357e-06 0.6539089)
(6.901632e-06 -9.1154327e-06 0.65391023)
(3.3203386e-06 -9.4873644e-06 0.65391094)
(-1.6692334e-07 -9.7590812e-06 0.65391103)
(-3.6142334e-06 -9.9773452e-06 0.65391049)
(-7.0232551e-06 -1.0174478e-05 0.6539093)
(-1.0374764e-05 -1.0374764e-05 0.65390744)
(-1.3624102e-05 -1.0595322e-05 0.65390489)
(-5.0719009e-06 -1.0817332e-05 0.65390165)
(4.8741524e-06 -9.8860177e-06 0.65390438)
(1.1353571e-05 -1.1855971e-05 0.65390671)
(6.3816419e-06 -1.2553461e-05 0.65390792)
(2.9895467e-06 -1.2917963e-05 0.65390856)
(-3.999886e-07 -1.3140628e-05 0.6539086)
(-3.8056142e-06 -1.3303421e-05 0.65390802)
(-7.2118139e-06 -1.3450964e-05 0.65390679)
(-1.0595322e-05 -1.3624102e-05 0.65390489)
(-1.3893532e-05 -1.3893532e-05 0.65390228)
(-5.1697592e-06 -1.4430238e-05 0.65389897)
(3.8942013e-06 -3.5409385e-06 0.65390201)
(9.5076784e-06 -4.5208896e-06 0.65390379)
(5.8396399e-06 -4.7715323e-06 0.65390486)
(2.733171e-06 -4.882224e-06 0.65390543)
(-5.5238163e-07 -4.9424492e-06 0.65390544)
(-3.9245689e-06 -4.9838193e-06 0.65390484)
(-7.3439364e-06 -5.0217523e-06 0.65390358)
(-1.0817332e-05 -5.0719009e-06 0.65390165)
(-1.4430238e-05 -5.1697592e-06 0.65389897)
(-5.4297042e-06 -5.4297042e-06 0.65389546)
(7.4002189e-06 7.4002189e-06 0.653469)
(1.7417518e-05 6.6541717e-06 0.65347201)
(1.0279933e-05 6.4706689e-06 0.65347362)
(5.7511309e-06 6.3873339e-06 0.65347456)
(1.5101253e-06 6.3307249e-06 0.65347487)
(-2.512014e-06 6.2732416e-06 0.65347458)
(-6.271111e-06 6.1897305e-06 0.65347369)
(-9.6081587e-06 6.0277923e-06 0.65347222)
(-1.2055648e-05 5.6320221e-06 0.65347024)
(-4.3232247e-06 4.4673055e-06 0.65346792)
(6.6541717e-06 1.7417518e-05 0.65347201)
(1.6023191e-05 1.6023191e-05 0.65347468)
(9.8796764e-06 1.5539884e-05 0.65347621)
(5.5412147e-06 1.5262465e-05 0.65347712)
(1.3389867e-06 1.5048811e-05 0.65347741)
(-2.7235059e-06 1.4828834e-05 0.65347709)
(-6.6392853e-06 1.4533624e-05 0.65347615)
(-1.0444722e-05 1.4041016e-05 0.65347461)
(-1.439638e-05 1.3066819e-05 0.65347245)
(-5.4879413e-06 1.0876231e-05 0.65346959)
(6.4706689e-06 1.0279933e-05 0.65347362)
(1.5539884e-05 9.8796764e-06 0.65347621)
(9.5192082e-06 9.5192082e-06 0.65347768)
(5.2600571e-06 9.2187142e-06 0.65347854)
(1.0764942e-06 8.9463567e-06 0.65347879)
(-3.0272011e-06 8.662668e-06 0.65347843)
(-7.0589291e-06 8.3217821e-06 0.65347745)
(-1.1074963e-05 7.8668725e-06 0.65347583)
(-1.5220432e-05 7.251601e-06 0.65347356)
(-5.7836148e-06 6.6120751e-06 0.65347056)
(6.3873339e-06 5.7511309e-06 0.65347456)
(1.5262465e-05 5.5412147e-06 0.65347712)
(9.2187142e-06 5.2600571e-06 0.65347854)
(4.9683632e-06 4.9683632e-06 0.65347936)
(7.829405e-07 4.6772905e-06 0.65347957)
(-3.3480806e-06 4.3761945e-06 0.65347916)
(-7.4350808e-06 4.0469134e-06 0.65347813)
(-1.1514903e-05 3.6766599e-06 0.65347645)
(-1.5651178e-05 3.2852298e-06 0.6534741)
(-5.9142914e-06 2.9823262e-06 0.65347105)
(6.3307249e-06 1.5101253e-06 0.65347487)
(1.5048811e-05 1.3389867e-06 0.65347741)
(8.9463567e-06 1.0764942e-06 0.65347879)
(4.6772905e-06 7.829405e-07 0.65347957)
(4.8432544e-07 4.8432544e-07 0.65347974)
(-3.6575782e-06 1.8457151e-07 0.65347929)
(-7.7584637e-06 -1.196305e-07 0.6534782)
(-1.1836647e-05 -4.2422569e-07 0.65347647)
(-1.5914766e-05 -7.0071397e-07 0.65347408)
(-5.9855504e-06 -8.8144728e-07 0.65347099)
(6.2732416e-06 -2.512014e-06 0.65347458)
(1.4828834e-05 -2.7235059e-06 0.65347709)
(8.662668e-06 -3.0272011e-06 0.65347843)
(4.3761945e-06 -3.3480806e-06 0.65347916)
(1.845715e-07 -3.6575782e-06 0.65347929)
(-3.9520365e-06 -3.9520365e-06 0.65347879)
(-8.043878e-06 -4.2344948e-06 0.65347766)
(-1.2095987e-05 -4.5011661e-06 0.65347589)
(-1.6108399e-05 -4.7296651e-06 0.65347346)
(-6.0347802e-06 -4.8720581e-06 0.65347035)
(6.1897305e-06 -6.271111e-06 0.65347369)
(1.4533624e-05 -6.6392853e-06 0.65347615)
(8.3217821e-06 -7.0589291e-06 0.65347745)
(4.0469134e-06 -7.4350808e-06 0.65347813)
(-1.1963049e-07 -7.7584637e-06 0.6534782)
(-4.2344948e-06 -8.043878e-06 0.65347766)
(-8.3075932e-06 -8.3075932e-06 0.65347649)
(-1.2331817e-05 -8.5578825e-06 0.65347468)
(-1.6285658e-05 -8.7855341e-06 0.65347221)
(-6.080479e-06 -8.9463117e-06 0.65346908)
(6.0277923e-06 -9.6081587e-06 0.65347222)
(1.4041016e-05 -1.0444722e-05 0.65347461)
(7.8668725e-06 -1.1074963e-05 0.65347583)
(3.6766599e-06 -1.1514903e-05 0.65347645)
(-4.2422569e-07 -1.1836647e-05 0.65347647)
(-4.5011661e-06 -1.2095987e-05 0.65347589)
(-8.5578825e-06 -1.2331817e-05 0.65347468)
(-1.2573928e-05 -1.2573928e-05 0.65347282)
(-1.6496828e-05 -1.2843889e-05 0.65347031)
(-6.1419652e-06 -1.3118745e-05 0.65346715)
(5.6320221e-06 -1.2055648e-05 0.65347024)
(1.3066819e-05 -1.439638e-05 0.65347245)
(7.251601e-06 -1.5220432e-05 0.65347356)
(3.2852298e-06 -1.5651178e-05 0.6534741)
(-7.0071398e-07 -1.5914766e-05 0.65347408)
(-4.7296651e-06 -1.6108399e-05 0.65347346)
(-8.7855341e-06 -1.6285658e-05 0.65347221)
(-1.2843889e-05 -1.6496828e-05 0.65347031)
(-1.6830475e-05 -1.6830475e-05 0.65346775)
(-6.2637162e-06 -1.7501767e-05 0.65346451)
(4.4673055e-06 -4.3232247e-06 0.65346792)
(1.0876231e-05 -5.4879413e-06 0.65346959)
(6.6120751e-06 -5.7836148e-06 0.65347056)
(2.9823262e-06 -5.9142914e-06 0.65347105)
(-8.8144728e-07 -5.9855504e-06 0.65347099)
(-4.8720581e-06 -6.0347802e-06 0.65347035)
(-8.9463117e-06 -6.080479e-06 0.65346908)