/*--------------------------------*- C++ -*----------------------------------*\
| =========                 |                                                 |
| \\      /  F ield         | OpenFOAM: The Open Source CFD Toolbox           |
|  \\    /   O peration     | Version:  v2106                                 |
|   \\  /    A nd           | Website:  www.openfoam.com                      |
|    \\/     M anipulation  |                                                 |
\*---------------------------------------------------------------------------*/
FoamFile
{
    version     2.0;
    format      ascii;
    arch        "LSB;label=32;scalar=64";
    class       volVectorField;
    location    "85";
    object      gradT;
}
// * * * * * * * * * * * * * * * * * * * * * * * * * * * * * * * * * * * * * //

dimensions      [0 -1 0 1 0 0 0];

internalField   nonuniform List<vector> 
4000
(
(6.0015796e-05 6.0015795e-05 569.30394)
(0.00013186718 5.3210922e-05 569.30438)
(6.640389e-05 5.1633375e-05 569.30459)
(3.5980601e-05 5.1020711e-05 569.30472)
(1.150149e-05 5.0661332e-05 569.30478)
(-9.7921137e-06 5.0332404e-05 569.30478)
(-2.7962363e-05 4.9884488e-05 569.30473)
(-4.1230808e-05 4.9061083e-05 569.30463)
(-4.4040302e-05 4.7206675e-05 569.30451)
(-1.3932299e-05 4.2695608e-05 569.30439)
(5.3210922e-05 0.00013186718 569.30438)
(0.00011929355 0.00011929355 569.30477)
(6.3118573e-05 0.00011534503 569.30497)
(3.4522537e-05 0.00011339615 569.30509)
(1.0469031e-05 0.00011206848 569.30515)
(-1.095738e-05 0.0001108134 569.30515)
(-2.9869345e-05 0.0001092185 569.30509)
(-4.5247527e-05 0.00010666613 569.30499)
(-5.3588514e-05 0.00010190691 569.30485)
(-1.8443366e-05 9.2684011e-05 569.30469)
(5.1633374e-05 6.6403891e-05 569.30459)
(0.00011534503 6.311858e-05 569.30497)
(6.0506498e-05 6.0506496e-05 569.30516)
(3.2704055e-05 5.8546908e-05 569.30528)
(8.9187337e-06 5.6908441e-05 569.30533)
(-1.2642095e-05 5.5298325e-05 569.30533)
(-3.2109632e-05 5.3437876e-05 569.30526)
(-4.8542398e-05 5.1017264e-05 569.30515)
(-5.8022419e-05 4.7786341e-05 569.305)
(-2.0080898e-05 4.4254361e-05 569.30483)
(5.1020715e-05 3.5980602e-05 569.30472)
(0.00011339615 3.4522542e-05 569.30509)
(5.8546902e-05 3.2704056e-05 569.30528)
(3.0924482e-05 3.0924476e-05 569.30539)
(7.2204472e-06 2.9226789e-05 569.30544)
(-1.4427945e-05 2.7529285e-05 569.30543)
(-3.4150406e-05 2.5718552e-05 569.30536)
(-5.0899062e-05 2.3716853e-05 569.30525)
(-6.0351417e-05 2.1616268e-05 569.30509)
(-2.079802e-05 1.9959136e-05 569.30491)
(5.0661334e-05 1.1501494e-05 569.30478)
(0.00011206848 1.0469023e-05 569.30515)
(5.6908432e-05 8.9187304e-06 569.30533)
(2.9226788e-05 7.2204423e-06 569.30544)
(5.5235424e-06 5.5235367e-06 569.30548)
(-1.6150332e-05 3.846327e-06 569.30547)
(-3.5922064e-05 2.1667489e-06 569.3054)
(-5.2644682e-05 5.0341875e-07 569.30528)
(-6.1780136e-05 -9.954647e-07 569.30511)
(-2.1185652e-05 -1.9768144e-06 569.30493)
(5.0332401e-05 -9.7921132e-06 569.30478)
(0.00011081339 -1.0957381e-05 569.30515)
(5.5298321e-05 -1.2642094e-05 569.30533)
(2.7529289e-05 -1.4427943e-05 569.30543)
(3.8463319e-06 -1.6150338e-05 569.30547)
(-1.7784733e-05 -1.7784737e-05 569.30545)
(-3.7493314e-05 -1.9344293e-05 569.30537)
(-5.4061275e-05 -2.0803978e-05 569.30525)
(-6.283165e-05 -2.2038533e-05 569.30508)
(-2.1452253e-05 -2.2795189e-05 569.3049)
(4.9884489e-05 -2.7962368e-05 569.30473)
(0.0001092185 -2.9869347e-05 569.30509)
(5.3437869e-05 -3.2109631e-05 569.30526)
(2.5718544e-05 -3.4150401e-05 569.30536)
(2.1667489e-06 -3.592206e-05 569.3054)
(-1.9344287e-05 -3.7493312e-05 569.30537)
(-3.8941305e-05 -3.8941307e-05 569.30529)
(-5.5338921e-05 -4.0293157e-05 569.30517)
(-6.3771348e-05 -4.1473083e-05 569.305)
(-2.169009e-05 -4.2242605e-05 569.30481)
(4.9061082e-05 -4.123081e-05 569.30463)
(0.00010666613 -4.5247532e-05 569.30499)
(5.1017268e-05 -4.8542388e-05 569.30515)
(2.371686e-05 -5.0899057e-05 569.30525)
(5.0342079e-07 -5.2644677e-05 569.30528)
(-2.080398e-05 -5.4061275e-05 569.30525)
(-4.0293159e-05 -5.533892e-05 569.30517)
(-5.6593052e-05 -5.6593052e-05 569.30503)
(-6.4781098e-05 -5.7836202e-05 569.30486)
(-2.1965267e-05 -5.8825759e-05 569.30468)
(4.7206674e-05 -4.4040304e-05 569.30451)
(0.00010190692 -5.358851e-05 569.30485)
(4.7786344e-05 -5.8022409e-05 569.305)
(2.1616255e-05 -6.0351411e-05 569.30509)
(-9.9546832e-07 -6.1780143e-05 569.30511)
(-2.203853e-05 -6.2831655e-05 569.30508)
(-4.1473083e-05 -6.3771349e-05 569.305)
(-5.7836203e-05 -6.47811e-05 569.30486)
(-6.6004054e-05 -6.6004054e-05 569.30469)
(-2.2349795e-05 -6.7343021e-05 569.3045)
(4.2695611e-05 -1.3932302e-05 569.30439)
(9.2684022e-05 -1.8443365e-05 569.30469)
(4.4254367e-05 -2.0080901e-05 569.30483)
(1.9959126e-05 -2.0798016e-05 569.30491)
(-1.9768237e-06 -2.1185653e-05 569.30493)
(-2.2795186e-05 -2.1452253e-05 569.3049)
(-4.2242604e-05 -2.1690091e-05 569.30481)
(-5.8825757e-05 -2.1965267e-05 569.30468)
(-6.7343019e-05 -2.2349793e-05 569.3045)
(-2.2857912e-05 -2.285791e-05 569.3043)
(0.00026190109 0.00026190108 841.27629)
(0.00058701645 0.00022895756 841.27683)
(0.00031105552 0.00022165489 841.27712)
(0.00017137418 0.00021877662 841.27729)
(5.3975621e-05 0.00021704269 841.27737)
(-4.9791186e-05 0.00021543943 841.27737)
(-0.00013952927 0.00021324227 841.27728)
(-0.00020772591 0.00020913112 841.27713)
(-0.00023131767 0.00019934186 841.27693)
(-7.5891798e-05 0.00017114787 841.27671)
(0.00022895756 0.00058701645 841.27683)
(0.00052664716 0.00052664715 841.27731)
(0.0002957841 0.00050832569 841.27758)
(0.00016445588 0.00049908245 841.27774)
(4.8969844e-05 0.0004926598 841.27782)
(-5.5491814e-05 0.00048654321 841.27781)
(-0.00014899174 0.00047873615 841.27772)
(-0.00022857653 0.00046610687 841.27756)
(-0.00028829253 0.00044166721 841.27734)
(-0.00010408578 0.00038764932 841.27704)
(0.00022165489 0.00031105552 841.27712)
(0.0005083257 0.0002957841 841.27758)
(0.00028349082 0.00028349081 841.27783)
(0.00015570828 0.00027406771 841.27799)
(4.143638e-05 0.00026611283 841.27806)
(-6.3714836e-05 0.00025826431 841.27805)
(-0.00015996561 0.00024917592 841.27796)
(-0.00024479485 0.00023732134 841.27778)
(-0.00030977522 0.00022143985 841.27754)
(-0.00011190372 0.00020449327 841.27723)
(0.00021877661 0.00017137418 841.27729)
(0.00049908244 0.00016445588 841.27774)
(0.00027406771 0.00015570829 841.27799)
(0.0001470779 0.0001470779 841.27815)
(3.3166445e-05 0.00013881325 841.27821)
(-7.2428725e-05 0.00013053355 841.27819)
(-0.00016993471 0.00012169188 841.27809)
(-0.0002563126 0.00011191098 841.27791)
(-0.0003211206 0.00010164625 841.27766)
(-0.00011538351 9.3589372e-05 841.27734)
(0.00021704269 5.3975621e-05 841.27737)
(0.0004926598 4.8969848e-05 841.27782)
(0.00026611284 4.1436383e-05 841.27806)
(0.00013881325 3.3166447e-05 841.27821)
(2.4892032e-05 2.4892038e-05 841.27827)
(-8.0836205e-05 1.6705401e-05 841.27824)
(-0.00017858818 8.5003655e-06 841.27813)
(-0.00026484048 3.6905372e-07 841.27795)
(-0.00032809683 -6.9612838e-06 841.27769)
(-0.00011727498 -1.1758923e-05 841.27736)
(0.00021543943 -4.9791185e-05 841.27737)
(0.0004865432 -5.5491819e-05 841.27781)
(0.00025826431 -6.3714843e-05 841.27805)
(0.00013053356 -7.2428733e-05 841.27819)
(1.67054e-05 -8.0836203e-05 841.27824)
(-8.8820398e-05 -8.8820391e-05 841.27821)
(-0.00018627106 -9.6448475e-05 841.27809)
(-0.00027177425 -0.00010360193 841.2779)
(-0.00033324858 -0.00010966979 841.27764)
(-0.00011858193 -0.00011340317 841.27731)
(0.00021324226 -0.00013952927 841.27728)
(0.00047873614 -0.00014899174 841.27772)
(0.00024917593 -0.0001599656 841.27796)
(0.00012169189 -0.00016993471 841.27809)
(8.5003734e-06 -0.00017858818 841.27813)
(-9.6448477e-05 -0.00018627106 841.27809)
(-0.00019336972 -0.00019336971 841.27797)
(-0.0002780618 -0.00020003292 841.27777)
(-0.00033789807 -0.00020591158 841.27751)
(-0.0001197639 -0.0002098209 841.27717)
(0.00020913112 -0.00020772592 841.27713)
(0.00046610688 -0.00022857653 841.27756)
(0.00023732134 -0.00024479484 841.27778)
(0.00011191098 -0.00025631259 841.27791)
(3.6904905e-07 -0.00026484049 841.27795)
(-0.00010360193 -0.00027177426 841.2779)
(-0.00020003291 -0.00027806179 841.27777)
(-0.00028431612 -0.00028431611 841.27757)
(-0.00034303657 -0.00029070791 841.2773)
(-0.00012118815 -0.0002961458 841.27696)
(0.00019934186 -0.00023131767 841.27693)
(0.00044166722 -0.00028829253 841.27734)
(0.00022143986 -0.00030977522 841.27754)
(0.00010164624 -0.0003211206 841.27766)
(-6.961294e-06 -0.00032809683 841.27769)
(-0.00010966978 -0.00033324858 841.27764)
(-0.00020591157 -0.00033789809 841.27751)
(-0.00029070791 -0.00034303657 841.2773)
(-0.00034972776 -0.00034972775 841.27702)
(-0.00012338916 -0.00035864089 841.27667)
(0.00017114788 -7.5891799e-05 841.27671)
(0.00038764933 -0.00010408578 841.27704)
(0.00020449327 -0.00011190372 841.27723)
(9.3589371e-05 -0.00011538351 841.27734)
(-1.175893e-05 -0.00011727497 841.27736)
(-0.00011340319 -0.00011858193 841.27731)
(-0.0002098209 -0.00011976391 841.27717)
(-0.00029614579 -0.00012118815 841.27696)
(-0.00035864089 -0.00012338916 841.27667)
(-0.00012713024 -0.00012713024 841.27631)
(0.00042253327 0.00042253327 835.8073)
(0.0009595801 0.00036943604 835.80776)
(0.00052491012 0.00035747447 835.808)
(0.00029100403 0.00035259902 835.80816)
(8.6939808e-05 0.00034957829 835.80822)
(-9.737081e-05 0.00034674055 835.80821)
(-0.0002609324 0.00034281773 835.80812)
(-0.00039451546 0.00033541558 835.80796)
(-0.00047218888 0.0003175917 835.80773)
(-0.00016411288 0.00026557914 835.80746)
(0.00036943604 0.00095958009 835.80776)
(0.00086199191 0.00086199191 835.80815)
(0.0004996546 0.0008316534 835.80839)
(0.00027915977 0.00081584569 835.80854)
(7.8152097e-05 0.00080461153 835.8086)
(-0.00010751165 0.00079378082 835.80858)
(-0.00027791984 0.00077986511 835.80849)
(-0.00043235451 0.00075722583 835.80832)
(-0.00057694356 0.00071309311 835.80807)
(-0.00021612544 0.00061468549 835.80772)
(0.00035747448 0.00052491012 835.808)
(0.00083165341 0.00049965459 835.80839)
(0.0004787639 0.0004787639 835.80861)
(0.00026396216 0.00046240679 835.80875)
(6.4874935e-05 0.00044841247 835.80881)
(-0.00012211722 0.00043450115 835.80879)
(-0.00029748738 0.00041832797 835.80869)
(-0.00046128746 0.00039719078 835.80851)
(-0.00061472922 0.00036890746 835.80824)
(-0.00022971795 0.00033935829 835.80788)
(0.00035259902 0.00029100403 835.80816)
(0.00081584569 0.00027915976 835.80854)
(0.0004624068 0.00026396216 835.80875)
(0.00024880834 0.00024880833 835.80889)
(5.0246459e-05 0.00023419822 835.80894)
(-0.00013759615 0.00021950064 835.80891)
(-0.00031523022 0.00020376753 835.8088)
(-0.00048177502 0.00018634609 835.80861)
(-0.00063477605 0.00016808857 835.80834)
(-0.00023582489 0.00015389538 835.80797)
(0.0003495783 8.6939807e-05 835.80822)
(0.00080461153 7.8152103e-05 835.8086)
(0.00044841247 6.4874938e-05 835.80881)
(0.00023419822 5.0246455e-05 835.80894)
(3.5567254e-05 3.5567254e-05 835.80899)
(-0.00015254791 2.1008711e-05 835.80895)
(-0.00033064193 6.3875485e-06 835.80884)
(-0.00049696642 -8.1257423e-06 835.80864)
(-0.00064717994 -2.1218672e-05 835.80836)
(-0.00023918008 -2.9772575e-05 835.80799)
(0.00034674055 -9.7370798e-05 835.80821)
(0.00079378082 -0.00010751165 835.80858)
(0.00043450116 -0.00012211722 835.80879)
(0.00021950065 -0.00013759615 835.80891)
(2.1008715e-05 -0.00015254792 835.80895)
(-0.00016677585 -0.00016677584 835.80891)
(-0.00034436467 -0.00018041136 835.80879)
(-0.00050938124 -0.00019325746 835.80859)
(-0.00065642288 -0.00020422762 835.8083)
(-0.00024152749 -0.00021103684 835.80792)
(0.00034281773 -0.00026093239 835.80812)
(0.00077986511 -0.00027791983 835.80849)
(0.00041832797 -0.00029748737 835.80869)
(0.00020376753 -0.00031523021 835.8088)
(6.3875632e-06 -0.00033064194 835.80884)
(-0.00018041136 -0.00034436468 835.80879)
(-0.00035712355 -0.00035712356 835.80866)
(-0.00052078267 -0.00036924947 835.80845)
(-0.00066495932 -0.00038020513 835.80816)
(-0.00024371957 -0.00038781057 835.80778)
(0.00033541559 -0.00039451546 835.80796)
(0.00075722584 -0.00043235451 835.80832)
(0.00039719078 -0.00046128745 835.80851)
(0.00018634609 -0.00048177501 835.80861)
(-8.1257525e-06 -0.00049696642 835.80864)
(-0.00019325747 -0.00050938125 835.80859)
(-0.00036924947 -0.00052078267 835.80845)
(-0.00053246281 -0.00053246282 835.80824)
(-0.00067498398 -0.00054519108 835.80794)
(-0.00024659779 -0.0005575768 835.80756)
(0.00031759169 -0.00047218888 835.80773)
(0.00071309311 -0.00057694355 835.80807)
(0.00036890746 -0.00061472922 835.80824)
(0.00016808857 -0.00063477605 835.80834)
(-2.1218671e-05 -0.00064717993 835.80836)
(-0.00020422762 -0.00065642287 835.8083)
(-0.00038020513 -0.00066495931 835.80816)
(-0.00054519108 -0.00067498397 835.80794)
(-0.00069007329 -0.00069007329 835.80764)
(-0.00025197671 -0.00071846254 835.80724)
(0.00026557914 -0.00016411288 835.80746)
(0.0006146855 -0.00021612543 835.80772)
(0.00033935828 -0.00022971795 835.80788)
(0.00015389537 -0.00023582489 835.80797)
(-2.9772577e-05 -0.00023918008 835.80799)
(-0.00021103685 -0.00024152749 835.80792)
(-0.00038781057 -0.00024371957 835.80778)
(-0.00055757679 -0.00024659779 835.80756)
(-0.00071846254 -0.00025197671 835.80724)
(-0.00026552395 -0.00026552395 835.80682)
(0.00056587434 0.00056587434 830.43845)
(0.0012903119 0.00049486296 830.43886)
(0.00071249933 0.00047880761 830.43908)
(0.00039336813 0.00047213399 830.43922)
(0.00010799969 0.00046791144 830.43927)
(-0.00015444404 0.0004638862 830.43925)
(-0.0003922493 0.00045827574 830.43915)
(-0.00059460104 0.00044762769 830.43898)
(-0.00072993202 0.00042184678 830.43874)
(-0.00025833717 0.00034621364 830.43846)
(0.00049486296 0.0012903119 830.43886)
(0.0011597118 0.0011597118 830.43922)
(0.00067840588 0.0011187415 830.43943)
(0.00037702387 0.0010969612 830.43956)
(9.5628005e-05 0.0010812059 830.43961)
(-0.00016889759 0.0010658381 830.43959)
(-0.00041663707 0.0010459627 830.43948)
(-0.00064924449 0.001013489 830.4393)
(-0.00088205311 0.00094994469 830.43904)
(-0.00033397031 0.00080772507 830.43869)
(0.00047880762 0.00071249932 830.43908)
(0.0011187415 0.00067840588 830.43943)
(0.00064974872 0.00064974872 830.43963)
(0.00035583256 0.00062696293 830.43976)
(7.6876553e-05 0.00060723806 830.4398)
(-0.00018968726 0.00058747981 830.43977)
(-0.00044459836 0.00056440986 830.43966)
(-0.00069061902 0.00053419951 830.43947)
(-0.00093569597 0.00049380235 830.43919)
(-0.00035315024 0.00045207427 830.43882)
(0.000472134 0.00039336812 830.43922)
(0.0010969612 0.00037702385 830.43956)
(0.00062696293 0.00035583256 830.43976)
(0.0003345132 0.00033451319 830.43987)
(5.6144889e-05 0.0003138221 830.43991)
(-0.00021172579 0.000292912 830.43987)
(-0.00046991737 0.00027046523 830.43976)
(-0.000719852 0.00024557914 830.43956)
(-0.00096417835 0.00021952244 830.43927)
(-0.00036178903 0.00019939489 830.4389)
(0.00046791145 0.00010799969 830.43927)
(0.0010812059 9.5628006e-05 830.43961)
(0.00060723806 7.6876561e-05 830.4398)
(0.0003138221 5.6144891e-05 830.43991)
(3.5275362e-05 3.5275359e-05 830.43995)
(-0.00023304413 1.4518416e-05 830.4399)
(-0.00049193122 -6.3794192e-06 830.43978)
(-0.0007415618 -2.7162729e-05 830.43957)
(-0.00098188022 -4.5928654e-05 830.43928)
(-0.00036656861 -5.8172845e-05 830.4389)
(0.00046388621 -0.00015444403 830.43925)
(0.0010658381 -0.00016889758 830.43959)
(0.00058747981 -0.00018968726 830.43977)
(0.000292912 -0.00021172578 830.43987)
(1.4518415e-05 -0.00023304413 830.4399)
(-0.00025338056 -0.00025338056 830.43985)
(-0.00051159852 -0.00027293989 830.43972)
(-0.00075940123 -0.00029145574 830.43951)
(-0.00099518847 -0.00030736514 830.43922)
(-0.00036995182 -0.00031730797 830.43883)
(0.00045827574 -0.00039224931 830.43915)
(0.0010459627 -0.00041663708 830.43948)
(0.00056440986 -0.00044459837 830.43966)
(0.00027046523 -0.00046991738 830.43976)
(-6.3794135e-06 -0.00049193123 830.43978)
(-0.0002729399 -0.00051159852 830.43972)
(-0.00053000641 -0.0005300064 830.43958)
(-0.00077598705 -0.00054770378 830.43937)
(-0.0010077324 -0.00056398814 830.43907)
(-0.00037319717 -0.00057558674 830.43868)
(0.00044762769 -0.00059460104 830.43898)
(0.001013489 -0.00064924449 830.4393)
(0.00053419951 -0.00069061902 830.43947)
(0.00024557914 -0.000719852 830.43956)
(-2.7162724e-05 -0.00074156181 830.43957)
(-0.00029145573 -0.00075940124 830.43951)
(-0.00054770378 -0.00077598706 830.43937)
(-0.00079338297 -0.00079338296 830.43915)
(-0.0010230714 -0.00081308173 830.43884)
(-0.00037768422 -0.00083327363 830.43845)
(0.00042184677 -0.00072993202 830.43874)
(0.00094994469 -0.00088205311 830.43904)
(0.00049380235 -0.00093569595 830.43919)
(0.00021952244 -0.00096417835 830.43927)
(-4.5928655e-05 -0.00098188021 830.43928)
(-0.00030736514 -0.00099518847 830.43922)
(-0.00056398813 -0.0010077325 830.43907)
(-0.00081308173 -0.0010230714 830.43884)
(-0.0010476231 -0.0010476231 830.43853)
(-0.00038665844 -0.0010971172 830.43812)
(0.00034621363 -0.00025833717 830.43846)
(0.00080772508 -0.00033397031 830.43869)
(0.00045207427 -0.00035315024 830.43882)
(0.00019939488 -0.00036178903 830.4389)
(-5.8172852e-05 -0.00036656861 830.4389)
(-0.00031730798 -0.00036995182 830.43883)
(-0.00057558673 -0.00037319717 830.43868)
(-0.00083327362 -0.00037768422 830.43845)
(-0.0010971172 -0.00038665843 830.43812)
(-0.00041068029 -0.00041068028 830.43769)
(0.00069941144 0.00069941143 825.16674)
(0.0015947037 0.00061138874 825.16712)
(0.00087944458 0.00059153183 825.16732)
(0.00048010951 0.00058319347 825.16744)
(0.00011759468 0.00057784059 825.16748)
(-0.00022016238 0.00057267763 825.16745)
(-0.000530689 0.00056543197 825.16734)
(-0.00080098928 0.00055162535 825.16717)
(-0.00099188149 0.00051809776 825.16693)
(-0.00035338377 0.00041950171 825.16665)
(0.00061138874 0.0015947037 825.16712)
(0.0014328843 0.0014328843 825.16746)
(0.00083715169 0.0013820688 825.16765)
(0.00045957266 0.0013547443 825.16776)
(0.00010182092 0.0013347254 825.1678)
(-0.00023877532 0.0013150102 825.16777)
(-0.00056226742 0.001289368 825.16766)
(-0.00087199059 0.0012473389 825.16747)
(-0.001190067 0.0011649206 825.16721)
(-0.00045197982 0.00098015484 825.16686)
(0.00059153184 0.00087944458 825.16732)
(0.0013820688 0.00083715169 825.16765)
(0.00080130456 0.00080130456 825.16783)
(0.00043276603 0.000772507 825.16794)
(7.7860604e-05 0.00074734903 825.16797)
(-0.00026551977 0.00072198105 825.16793)
(-0.00059836034 0.00069224432 825.16781)
(-0.00092543667 0.00065323505 825.16762)
(-0.0012590655 0.00060109029 825.16734)
(-0.00047656093 0.00054759467 825.16698)
(0.00058319347 0.00048010951 825.16744)
(0.0013547443 0.00045957265 825.16776)
(0.00077250701 0.00043276603 825.16794)
(0.00040561713 0.00040561713 825.16804)
(5.1294958e-05 0.00037912103 825.16807)
(-0.00029388003 0.00035223198 825.16802)
(-0.00063101342 0.00032328784 825.1679)
(-0.00096314462 0.00029115823 825.16769)
(-0.0012957073 0.00025753471 825.16741)
(-0.00048764357 0.00023166937 825.16704)
(0.0005778406 0.00011759467 825.16748)
(0.0013347254 0.00010182092 825.1678)
(0.00074734903 7.7860612e-05 825.16797)
(0.00037912103 5.1294954e-05 825.16807)
(2.4475456e-05 2.4475457e-05 825.16809)
(-0.00032135297 -2.2732212e-06 825.16804)
(-0.00065943408 -2.9269219e-05 825.16791)
(-0.00099118979 -5.6166436e-05 825.1677)
(-0.0013185544 -8.0473001e-05 825.16741)
(-0.0004938045 -9.6317264e-05 825.16703)
(0.00057267764 -0.00022016238 825.16745)
(0.0013150102 -0.00023877532 825.16777)
(0.00072198104 -0.00026551977 825.16793)
(0.00035223198 -0.00029388004 825.16802)
(-2.2732166e-06 -0.00032135296 825.16804)
(-0.00034762471 -0.00034762471 825.16798)
(-0.00068490664 -0.00037297776 825.16784)
(-0.0010143484 -0.00039707814 825.16763)
(-0.0013358582 -0.00041788354 825.16733)
(-0.00049820641 -0.00043094439 825.16695)
(0.00056543197 -0.00053068899 825.16734)
(0.001289368 -0.00056226743 825.16766)
(0.00069224432 -0.00059836034 825.16781)
(0.00032328784 -0.00063101341 825.1679)
(-2.9269214e-05 -0.00065943408 825.16791)
(-0.00037297777 -0.00068490664 825.16784)
(-0.00070888751 -0.00070888752 825.1677)
(-0.0010360956 -0.00073215083 825.16748)
(-0.0013524207 -0.0007538198 825.16718)
(-0.00050251173 -0.0007694734 825.1668)
(0.00055162535 -0.00080098926 825.16717)
(0.0012473389 -0.00087199058 825.16747)
(0.00065323506 -0.00092543667 825.16762)
(0.00029115823 -0.00096314462 825.16769)
(-5.6166444e-05 -0.0009911898 825.1677)
(-0.00039707815 -0.0010143484 825.16763)
(-0.00073215082 -0.0010360956 825.16748)
(-0.0010592807 -0.0010592807 825.16726)
(-0.0013731807 -0.0010861041 825.16695)
(-0.00050864214 -0.0011142048 825.16656)
(0.00051809776 -0.00099188149 825.16693)
(0.0011649206 -0.001190067 825.16721)
(0.00060109028 -0.0012590655 825.16734)
(0.00025753471 -0.0012957073 825.16741)
(-8.0473005e-05 -0.0013185544 825.16741)
(-0.00041788355 -0.0013358582 825.16733)
(-0.00075381979 -0.0013524207 825.16718)
(-0.0010861041 -0.0013731807 825.16695)
(-0.0014073447 -0.0014073447 825.16664)
(-0.00052124553 -0.0014776398 825.16624)
(0.0004195017 -0.00035338378 825.16665)
(0.00098015483 -0.00045197983 825.16686)
(0.00054759468 -0.00047656094 825.16698)
(0.00023166937 -0.00048764357 825.16704)
(-9.6317274e-05 -0.0004938045 825.16703)
(-0.0004309444 -0.00049820641 825.16695)
(-0.0007694734 -0.00050251173 825.1668)
(-0.0011142048 -0.00050864215 825.16656)
(-0.0014776398 -0.00052124553 825.16624)
(-0.00055550551 -0.00055550551 825.16581)
(0.00082486015 0.00082486015 819.98928)
(0.0018776374 0.00072057993 819.98964)
(0.0010294284 0.00069713495 819.98982)
(0.0005534472 0.00068723441 819.98993)
(0.00011737604 0.00068081423 819.98996)
(-0.00029250103 0.00067456568 819.98992)
(-0.00067296731 0.00066574904 819.98981)
(-0.0010084539 0.00064890112 819.98963)
(-0.0012514443 0.00060791529 819.9894)
(-0.00044696437 0.00048722861 819.98912)
(0.00072057993 0.0018776374 819.98964)
(0.0016860495 0.0016860495 819.98996)
(0.00097941014 0.0016259705 819.99013)
(0.00052896613 0.0015934431 819.99023)
(9.8372939e-05 0.0015693948 819.99026)
(-0.0003150988 0.0015455322 819.99021)
(-0.00071146415 0.0015143535 819.9901)
(-0.0010952045 0.001463129 819.98992)
(-0.001493953 0.0013625468 819.98966)
(-0.00056765105 0.0011368701 819.98932)
(0.00069713494 0.0010294284 819.98982)
(0.0016259705 0.00097941014 819.99013)
(0.00093682198 0.00093682198 819.99029)
(0.00049687147 0.00090237011 819.99039)
(6.946517e-05 0.00087206444 819.99041)
(-0.00034754229 0.00084134067 819.99036)
(-0.00075537056 0.00080520587 819.99024)
(-0.0011602606 0.00075773383 819.99005)
(-0.0015777031 0.00069429089 819.98978)
(-0.00059741549 0.00062950138 819.98942)
(0.00068723441 0.00055344719 819.98993)
(0.0015934431 0.00052896612 819.99023)
(0.00090237012 0.00049687146 819.99039)
(0.00046420859 0.00046420859 819.99047)
(3.73435e-05 0.00043218933 819.99049)
(-0.00038195738 0.00039957919 819.99044)
(-0.00079507099 0.00036439206 819.99031)
(-0.0012061195 0.00032528853 819.99011)
(-0.0016221855 0.00028437976 819.98983)
(-0.00061084406 0.00025300024 819.98947)
(0.00068081423 0.00011737604 819.98996)
(0.0015693948 9.8372939e-05 819.99026)
(0.00087206445 6.9465166e-05 819.99041)
(0.00043218933 3.7343498e-05 819.99049)
(4.835768e-06 4.8357708e-06 819.99051)
(-0.00041533956 -2.7665769e-05 819.99045)
(-0.00082966122 -6.0539508e-05 819.99031)
(-0.0012402729 -9.3345151e-05 819.99011)
(-0.0016499914 -0.00012301131 819.98982)
(-0.00061833517 -0.00014233475 819.98945)
(0.00067456568 -0.00029250103 819.98992)
(0.0015455322 -0.00031509881 819.99021)
(0.00084134068 -0.00034754229 819.99036)
(0.00039957919 -0.00038195738 819.99044)
(-2.7665767e-05 -0.00041533955 819.99045)
(-0.00044733266 -0.00044733265 819.99038)
(-0.00086075037 -0.00047829708 819.99024)
(-0.0012685913 -0.00050783038 819.99003)
(-0.0016711751 -0.00053341394 819.98974)
(-0.00062372635 -0.00054952052 819.98937)
(0.00066574904 -0.00067296731 819.98981)
(0.0015143535 -0.00071146415 819.9901)
(0.00080520588 -0.00075537057 819.99024)
(0.00036439208 -0.00079507099 819.99031)
(-6.0539501e-05 -0.00082966122 819.99031)
(-0.0004782971 -0.00086075037 819.99024)
(-0.00089015895 -0.00089015896 819.9901)
(-0.0012953897 -0.00091887978 819.98988)
(-0.0016916815 -0.00094585182 819.98959)
(-0.00062907289 -0.00096549928 819.98921)
(0.00064890111 -0.0010084539 819.98963)
(0.001463129 -0.0010952045 819.98992)
(0.00075773384 -0.0011602606 819.99005)
(0.00032528854 -0.0012061195 819.99011)
(-9.3345148e-05 -0.0012402729 819.99011)
(-0.00050783039 -0.0012685913 819.99003)
(-0.00091887977 -0.0012953897 819.98988)
(-0.0013242841 -0.0013242842 819.98966)
(-0.0017177946 -0.0013581445 819.98936)
(-0.00063682466 -0.001394012 819.98898)
(0.00060791528 -0.0012514443 819.9894)
(0.0013625468 -0.001493953 819.98966)
(0.0006942909 -0.0015777031 819.98978)
(0.00028437976 -0.0016221855 819.98983)
(-0.00012301131 -0.0016499914 819.98982)
(-0.00053341394 -0.0016711751 819.98974)
(-0.00094585183 -0.0016916816 819.98959)
(-0.0013581445 -0.0017177946 819.98936)
(-0.0017614094 -0.0017614094 819.98905)
(-0.00065298456 -0.0018519564 819.98866)
(0.00048722861 -0.00044696438 819.98912)
(0.0011368701 -0.00056765104 819.98932)
(0.00062950138 -0.00059741549 819.98942)
(0.00025300025 -0.00061084406 819.98947)
(-0.00014233474 -0.00061833517 819.98945)
(-0.00054952053 -0.00062372635 819.98937)
(-0.00096549929 -0.00062907289 819.98921)
(-0.001394012 -0.00063682465 819.98898)
(-0.0018519564 -0.00065298456 819.98866)
(-0.00069718932 -0.00069718932 819.98824)
(0.00094247231 0.00094247231 814.90332)
(0.0021406117 0.00082273877 814.90366)
(0.0011646017 0.00079590633 814.90383)
(0.00061533062 0.00078453664 814.90392)
(0.0001092561 0.00077710969 814.90394)
(-0.00036918601 0.00076983091 814.9039)
(-0.00081607206 0.00075951725 814.90379)
(-0.0012131332 0.00073976735 814.90361)
(-0.0015044906 0.00069166474 814.90338)
(-0.00053774641 0.00054990219 814.90312)
(0.00082273877 0.0021406118 814.90366)
(0.0019207628 0.0019207628 814.90396)
(0.0011072985 0.0018519556 814.90411)
(0.00058713566 0.0018145371 814.9042)
(8.7197489e-05 0.0017866872 814.90422)
(-0.00039557466 0.0017588896 814.90417)
(-0.0008611674 0.0017224374 814.90406)
(-0.0013149119 0.0016624413 814.90388)
(-0.0017892884 0.0015445321 814.90363)
(-0.00067950896 0.0012798412 814.9033)
(0.00079590633 0.0011646017 814.90383)
(0.0018519556 0.0011072985 814.90411)
(0.0010583759 0.0010583759 814.90426)
(0.00055006219 0.0010186046 814.90434)
(5.3608671e-05 0.00098343629 814.90436)
(-0.0004334358 0.00094762902 814.90431)
(-0.00091252036 0.00090540067 814.90419)
(-0.0013910385 0.00084985742 814.904)
(-0.0018870907 0.00077564061 814.90373)
(-0.000714207 0.00070009904 814.90339)
(0.00078453664 0.00061533061 814.90392)
(0.001814537 0.00058713565 814.9042)
(0.0010186046 0.00055006218 814.90434)
(0.000512196 0.000512196 814.90442)
(1.6221894e-05 0.00047494607 814.90443)
(-0.00047361028 0.00043689716 814.90437)
(-0.000958939 0.00039575805 814.90425)
(-0.001444672 0.00034999662 814.90405)
(-0.0019390467 0.00030213327 814.90378)
(-0.00072987001 0.00026549709 814.90343)
(0.00077710969 0.00010925609 814.90394)
(0.0017866872 8.7197481e-05 814.90422)
(0.0009834363 5.3608673e-05 814.90436)
(0.00047494608 1.6221896e-05 814.90443)
(-2.1690169e-05 -2.1690161e-05 814.90444)
(-0.00051262382 -5.9674241e-05 814.90437)
(-0.0009994209 -9.8164983e-05 814.90424)
(-0.0014846632 -0.000136627 814.90404)
(-0.0019715903 -0.00017142679 814.90376)
(-0.00073863112 -0.00019407975 814.90341)
(0.00076983091 -0.00036918601 814.9039)
(0.0017588896 -0.00039557467 814.90417)
(0.00094762903 -0.0004334358 814.90431)
(0.00043689717 -0.00047361029 814.90437)
(-5.9674244e-05 -0.00051262381 814.90437)
(-0.0005500851 -0.00055008511 814.90431)
(-0.0010358918 -0.0005864303 814.90417)
(-0.0015179338 -0.00062118796 814.90396)
(-0.0019964995 -0.00065137416 814.90368)
(-0.00074497198 -0.00067041488 814.90332)
(0.00075951724 -0.00081607206 814.90379)
(0.0017224374 -0.0008611674 814.90406)
(0.00090540068 -0.00091252036 814.90419)
(0.00039575806 -0.000958939 814.90425)
(-9.8164989e-05 -0.00099942089 814.90424)
(-0.00058643031 -0.0010358918 814.90417)
(-0.0010705238 -0.0010705238 814.90402)
(-0.0015496071 -0.0011045175 814.90381)
(-0.0020208172 -0.0011366246 814.90352)
(-0.00075132494 -0.0011601388 814.90317)
(0.00073976734 -0.0012131332 814.90361)
(0.0016624413 -0.0013149119 814.90388)
(0.00084985743 -0.0013910385 814.904)
(0.00034999663 -0.001444672 814.90405)
(-0.000136627 -0.0014846633 814.90404)
(-0.00062118798 -0.0015179338 814.90396)
(-0.0011045175 -0.0015496071 814.90381)
(-0.0015840346 -0.0015840346 814.90359)
(-0.0020521208 -0.0016247201 814.9033)
(-0.0007606481 -0.0016681044 814.90294)
(0.00069166474 -0.0015044906 814.90338)
(0.0015445321 -0.0017892884 814.90363)
(0.00077564062 -0.0018870907 814.90373)
(0.00030213329 -0.0019390467 814.90378)
(-0.00017142678 -0.0019715903 814.90376)
(-0.00065137417 -0.0019964995 814.90368)
(-0.0011366246 -0.0020208172 814.90352)
(-0.0016247201 -0.0020521208 814.9033)
(-0.002104887 -0.002104887 814.903)
(-0.00078024779 -0.0022149875 814.90263)
(0.00054990218 -0.0005377464 814.90312)
(0.0012798412 -0.00067950897 814.9033)
(0.00070009906 -0.000714207 814.90339)
(0.0002654971 -0.00072987001 814.90343)
(-0.00019407976 -0.00073863113 814.90341)
(-0.00067041488 -0.00074497199 814.90332)
(-0.0011601388 -0.00075132493 814.90317)
(-0.0016681044 -0.00076064809 814.90294)
(-0.0022149875 -0.00078024778 814.90263)
(-0.00083404843 -0.00083404843 814.90223)
(0.0010520478 0.0010520478 809.90626)
(0.0023838328 0.00091774579 809.90658)
(0.001286178 0.00088773438 809.90673)
(0.00066727805 0.00087498886 809.90681)
(9.4996036e-05 0.00086661695 809.90682)
(-0.00044810409 0.00085836731 809.90678)
(-0.000957435 0.00084663913 809.90667)
(-0.00141207 0.00082414468 809.9065)
(-0.0017480764 0.00076931035 809.90628)
(-0.00062480157 0.00060761036 809.90602)
(0.00091774579 0.0023838328 809.90658)
(0.0021373627 0.0021373627 809.90685)
(0.0012220426 0.0020603744 809.90699)
(0.00063560191 0.0020183763 809.90707)
(7.0063714e-05 0.0019869582 809.90708)
(-0.00047807082 0.0019554533 809.90703)
(-0.001008769 0.0019140198 809.90692)
(-0.0015280632 0.0018457303 809.90674)
(-0.0020728778 0.001711437 809.9065)