/*--------------------------------*- C++ -*----------------------------------*\
| =========                 |                                                 |
| \\      /  F ield         | OpenFOAM: The Open Source CFD Toolbox           |
|  \\    /   O peration     | Version:  v2106                                 |
|   \\  /    A nd           | Website:  www.openfoam.com                      |
|    \\/     M anipulation  |                                                 |
\*---------------------------------------------------------------------------*/
FoamFile
{
    version     2.0;
    format      ascii;
    arch        "LSB;label=32;scalar=64";
    class       volScalarField;
    location    "85";
    object      gradTx;
}
// * * * * * * * * * * * * * * * * * * * * * * * * * * * * * * * * * * * * * //

dimensions      [0 -1 0 1 0 0 0];

internalField   nonuniform List<scalar> 
4000
(
6.0015796e-05
0.00013186718
6.640389e-05
3.5980601e-05
1.150149e-05
-9.7921137e-06
-2.7962363e-05
-4.1230808e-05
-4.4040302e-05
-1.3932299e-05
5.3210922e-05
0.00011929355
6.3118573e-05
3.4522537e-05
1.0469031e-05
-1.095738e-05
-2.9869345e-05
-4.5247527e-05
-5.3588514e-05
-1.8443366e-05
5.1633374e-05
0.00011534503
6.0506498e-05
3.2704055e-05
8.9187337e-06
-1.2642095e-05
-3.2109632e-05
-4.8542398e-05
-5.8022419e-05
-2.0080898e-05
5.1020715e-05
0.00011339615
5.8546902e-05
3.0924482e-05
7.2204472e-06
-1.4427945e-05
-3.4150406e-05
-5.0899062e-05
-6.0351417e-05
-2.079802e-05
5.0661334e-05
0.00011206848
5.6908432e-05
2.9226788e-05
5.5235424e-06
-1.6150332e-05
-3.5922064e-05
-5.2644682e-05
-6.1780136e-05
-2.1185652e-05
5.0332401e-05
0.00011081339
5.5298321e-05
2.7529289e-05
3.8463319e-06
-1.7784733e-05
-3.7493314e-05
-5.4061275e-05
-6.283165e-05
-2.1452253e-05
4.9884489e-05
0.0001092185
5.3437869e-05
2.5718544e-05
2.1667489e-06
-1.9344287e-05
-3.8941305e-05
-5.5338921e-05
-6.3771348e-05
-2.169009e-05
4.9061082e-05
0.00010666613
5.1017268e-05
2.371686e-05
5.0342079e-07
-2.080398e-05
-4.0293159e-05
-5.6593052e-05
-6.4781098e-05
-2.1965267e-05
4.7206674e-05
0.00010190692
4.7786344e-05
2.1616255e-05
-9.9546832e-07
-2.203853e-05
-4.1473083e-05
-5.7836203e-05
-6.6004054e-05
-2.2349795e-05
4.2695611e-05
9.2684022e-05
4.4254367e-05
1.9959126e-05
-1.9768237e-06
-2.2795186e-05
-4.2242604e-05
-5.8825757e-05
-6.7343019e-05
-2.2857912e-05
0.00026190109
0.00058701645
0.00031105552
0.00017137418
5.3975621e-05
-4.9791186e-05
-0.00013952927
-0.00020772591
-0.00023131767
-7.5891798e-05
0.00022895756
0.00052664716
0.0002957841
0.00016445588
4.8969844e-05
-5.5491814e-05
-0.00014899174
-0.00022857653
-0.00028829253
-0.00010408578
0.00022165489
0.0005083257
0.00028349082
0.00015570828
4.143638e-05
-6.3714836e-05
-0.00015996561
-0.00024479485
-0.00030977522
-0.00011190372
0.00021877661
0.00049908244
0.00027406771
0.0001470779
3.3166445e-05
-7.2428725e-05
-0.00016993471
-0.0002563126
-0.0003211206
-0.00011538351
0.00021704269
0.0004926598
0.00026611284
0.00013881325
2.4892032e-05
-8.0836205e-05
-0.00017858818
-0.00026484048
-0.00032809683
-0.00011727498
0.00021543943
0.0004865432
0.00025826431
0.00013053356
1.67054e-05
-8.8820398e-05
-0.00018627106
-0.00027177425
-0.00033324858
-0.00011858193
0.00021324226
0.00047873614
0.00024917593
0.00012169189
8.5003734e-06
-9.6448477e-05
-0.00019336972
-0.0002780618
-0.00033789807
-0.0001197639
0.00020913112
0.00046610688
0.00023732134
0.00011191098
3.6904905e-07
-0.00010360193
-0.00020003291
-0.00028431612
-0.00034303657
-0.00012118815
0.00019934186
0.00044166722
0.00022143986
0.00010164624
-6.961294e-06
-0.00010966978
-0.00020591157
-0.00029070791
-0.00034972776
-0.00012338916
0.00017114788
0.00038764933
0.00020449327
9.3589371e-05
-1.175893e-05
-0.00011340319
-0.0002098209
-0.00029614579
-0.00035864089
-0.00012713024
0.00042253327
0.0009595801
0.00052491012
0.00029100403
8.6939808e-05
-9.737081e-05
-0.0002609324
-0.00039451546
-0.00047218888
-0.00016411288
0.00036943604
0.00086199191
0.0004996546
0.00027915977
7.8152097e-05
-0.00010751165
-0.00027791984
-0.00043235451
-0.00057694356
-0.00021612544
0.00035747448
0.00083165341
0.0004787639
0.00026396216
6.4874935e-05
-0.00012211722
-0.00029748738
-0.00046128746
-0.00061472922
-0.00022971795
0.00035259902
0.00081584569
0.0004624068
0.00024880834
5.0246459e-05
-0.00013759615
-0.00031523022
-0.00048177502
-0.00063477605
-0.00023582489
0.0003495783
0.00080461153
0.00044841247
0.00023419822
3.5567254e-05
-0.00015254791
-0.00033064193
-0.00049696642
-0.00064717994
-0.00023918008
0.00034674055
0.00079378082
0.00043450116
0.00021950065
2.1008715e-05
-0.00016677585
-0.00034436467
-0.00050938124
-0.00065642288
-0.00024152749
0.00034281773
0.00077986511
0.00041832797
0.00020376753
6.3875632e-06
-0.00018041136
-0.00035712355
-0.00052078267
-0.00066495932
-0.00024371957
0.00033541559
0.00075722584
0.00039719078
0.00018634609
-8.1257525e-06
-0.00019325747
-0.00036924947
-0.00053246281
-0.00067498398
-0.00024659779
0.00031759169
0.00071309311
0.00036890746
0.00016808857
-2.1218671e-05
-0.00020422762
-0.00038020513
-0.00054519108
-0.00069007329
-0.00025197671
0.00026557914
0.0006146855
0.00033935828
0.00015389537
-2.9772577e-05
-0.00021103685
-0.00038781057
-0.00055757679
-0.00071846254
-0.00026552395
0.00056587434
0.0012903119
0.00071249933
0.00039336813
0.00010799969
-0.00015444404
-0.0003922493
-0.00059460104
-0.00072993202
-0.00025833717
0.00049486296
0.0011597118
0.00067840588
0.00037702387
9.5628005e-05
-0.00016889759
-0.00041663707
-0.00064924449
-0.00088205311
-0.00033397031
0.00047880762
0.0011187415
0.00064974872
0.00035583256
7.6876553e-05
-0.00018968726
-0.00044459836
-0.00069061902
-0.00093569597
-0.00035315024
0.000472134
0.0010969612
0.00062696293
0.0003345132
5.6144889e-05
-0.00021172579
-0.00046991737
-0.000719852
-0.00096417835
-0.00036178903
0.00046791145
0.0010812059
0.00060723806
0.0003138221
3.5275362e-05
-0.00023304413
-0.00049193122
-0.0007415618
-0.00098188022
-0.00036656861
0.00046388621
0.0010658381
0.00058747981
0.000292912
1.4518415e-05
-0.00025338056
-0.00051159852
-0.00075940123
-0.00099518847
-0.00036995182
0.00045827574
0.0010459627
0.00056440986
0.00027046523
-6.3794135e-06
-0.0002729399
-0.00053000641
-0.00077598705
-0.0010077324
-0.00037319717
0.00044762769
0.001013489
0.00053419951
0.00024557914
-2.7162724e-05
-0.00029145573
-0.00054770378
-0.00079338297
-0.0010230714
-0.00037768422
0.00042184677
0.00094994469
0.00049380235
0.00021952244
-4.5928655e-05
-0.00030736514
-0.00056398813
-0.00081308173
-0.0010476231
-0.00038665844
0.00034621363
0.00080772508
0.00045207427
0.00019939488
-5.8172852e-05
-0.00031730798
-0.00057558673
-0.00083327362
-0.0010971172
-0.00041068029
0.00069941144
0.0015947037
0.00087944458
0.00048010951
0.00011759468
-0.00022016238
-0.000530689
-0.00080098928
-0.00099188149
-0.00035338377
0.00061138874
0.0014328843
0.00083715169
0.00045957266
0.00010182092
-0.00023877532
-0.00056226742
-0.00087199059
-0.001190067
-0.00045197982
0.00059153184
0.0013820688
0.00080130456
0.00043276603
7.7860604e-05
-0.00026551977
-0.00059836034
-0.00092543667
-0.0012590655
-0.00047656093
0.00058319347
0.0013547443
0.00077250701
0.00040561713
5.1294958e-05
-0.00029388003
-0.00063101342
-0.00096314462
-0.0012957073
-0.00048764357
0.0005778406
0.0013347254
0.00074734903
0.00037912103
2.4475456e-05
-0.00032135297
-0.00065943408
-0.00099118979
-0.0013185544
-0.0004938045
0.00057267764
0.0013150102
0.00072198104
0.00035223198
-2.2732166e-06
-0.00034762471
-0.00068490664
-0.0010143484
-0.0013358582
-0.00049820641
0.00056543197
0.001289368
0.00069224432
0.00032328784
-2.9269214e-05
-0.00037297777
-0.00070888751
-0.0010360956
-0.0013524207
-0.00050251173
0.00055162535
0.0012473389
0.00065323506
0.00029115823
-5.6166444e-05
-0.00039707815
-0.00073215082
-0.0010592807
-0.0013731807
-0.00050864214
0.00051809776
0.0011649206
0.00060109028
0.00025753471
-8.0473005e-05
-0.00041788355
-0.00075381979
-0.0010861041
-0.0014073447
-0.00052124553
0.0004195017
0.00098015483
0.00054759468
0.00023166937
-9.6317274e-05
-0.0004309444
-0.0007694734
-0.0011142048
-0.0014776398
-0.00055550551
0.00082486015
0.0018776374
0.0010294284
0.0005534472
0.00011737604
-0.00029250103
-0.00067296731
-0.0010084539
-0.0012514443
-0.00044696437
0.00072057993
0.0016860495
0.00097941014
0.00052896613
9.8372939e-05
-0.0003150988
-0.00071146415
-0.0010952045
-0.001493953
-0.00056765105
0.00069713494
0.0016259705
0.00093682198
0.00049687147
6.946517e-05
-0.00034754229
-0.00075537056
-0.0011602606
-0.0015777031
-0.00059741549
0.00068723441
0.0015934431
0.00090237012
0.00046420859
3.73435e-05
-0.00038195738
-0.00079507099
-0.0012061195
-0.0016221855
-0.00061084406
0.00068081423
0.0015693948
0.00087206445
0.00043218933
4.835768e-06
-0.00041533956
-0.00082966122
-0.0012402729
-0.0016499914
-0.00061833517
0.00067456568
0.0015455322
0.00084134068
0.00039957919
-2.7665767e-05
-0.00044733266
-0.00086075037
-0.0012685913
-0.0016711751
-0.00062372635
0.00066574904
0.0015143535
0.00080520588
0.00036439208
-6.0539501e-05
-0.0004782971
-0.00089015895
-0.0012953897
-0.0016916815
-0.00062907289
0.00064890111
0.001463129
0.00075773384
0.00032528854
-9.3345148e-05
-0.00050783039
-0.00091887977
-0.0013242841
-0.0017177946
-0.00063682466
0.00060791528
0.0013625468
0.0006942909
0.00028437976
-0.00012301131
-0.00053341394
-0.00094585183
-0.0013581445
-0.0017614094
-0.00065298456
0.00048722861
0.0011368701
0.00062950138
0.00025300025
-0.00014233474
-0.00054952053
-0.00096549929
-0.001394012
-0.0018519564
-0.00069718932
0.00094247231
0.0021406117
0.0011646017
0.00061533062
0.0001092561
-0.00036918601
-0.00081607206
-0.0012131332
-0.0015044906
-0.00053774641
0.00082273877
0.0019207628
0.0011072985
0.00058713566
8.7197489e-05
-0.00039557466
-0.0008611674
-0.0013149119
-0.0017892884
-0.00067950896
0.00079590633
0.0018519556
0.0010583759
0.00055006219
5.3608671e-05
-0.0004334358
-0.00091252036
-0.0013910385
-0.0018870907
-0.000714207
0.00078453664
0.001814537
0.0010186046
0.000512196
1.6221894e-05
-0.00047361028
-0.000958939
-0.001444672
-0.0019390467
-0.00072987001
0.00077710969
0.0017866872
0.0009834363
0.00047494608
-2.1690169e-05
-0.00051262382
-0.0009994209
-0.0014846632
-0.0019715903
-0.00073863112
0.00076983091
0.0017588896
0.00094762903
0.00043689717
-5.9674244e-05
-0.0005500851
-0.0010358918
-0.0015179338
-0.0019964995
-0.00074497198
0.00075951724
0.0017224374
0.00090540068
0.00039575806
-9.8164989e-05
-0.00058643031
-0.0010705238
-0.0015496071
-0.0020208172
-0.00075132494
0.00073976734
0.0016624413
0.00084985743
0.00034999663
-0.000136627
-0.00062118798
-0.0011045175
-0.0015840346
-0.0020521208
-0.0007606481
0.00069166474
0.0015445321
0.00077564062
0.00030213329
-0.00017142678
-0.00065137417
-0.0011366246
-0.0016247201
-0.002104887
-0.00078024779
0.00054990218
0.0012798412
0.00070009906
0.0002654971
-0.00019407976
-0.00067041488
-0.0011601388
-0.0016681044
-0.0022149875
-0.00083404843
0.0010520478
0.0023838328
0.001286178
0.00066727805
9.4996036e-05
-0.00044810409
-0.000957435
-0.00141207
-0.0017480764
-0.00062480157
0.00091774579
0.0021373627
0.0012220426
0.00063560191
7.0063714e-05
-0.00047807082
-0.001008769
-0.0015280632
-0.0020728778
-0.00078650156
0.00088773439
0.0020603744
0.0011671917
0.00059386179
3.2073025e-05
-0.00052104246
-0.001067158
-0.0016146528
-0.002183949
-0.00082585443
0.00087498887
0.0020183763
0.0011224371
0.00055111127
-1.0270098e-05
-0.00056665244
-0.0011199264
-0.0016756368
-0.0022429662
-0.00084362711
0.00086661695
0.0019869582
0.001082701
0.00050893942
-5.3278877e-05
-0.00061098814
-0.0011659845
-0.0017211561
-0.0022799943
-0.00085358967
0.00085836732
0.0019554533
0.0010421033
0.00046575937
-9.6444803e-05
-0.00065362855
-0.0012075618
-0.0017591308
-0.0023084432
-0.0008608326
0.00084663913
0.0019140198
0.00099411941
0.00041899376
-0.00014025498
-0.00069508225
-0.0012471656
-0.0017954531
-0.0023363989
-0.00086814639
0.00082414467
0.0018457303
0.00093094587
0.00036693289
-0.00018408022
-0.00073480968
-0.0012861922
-0.0018351742
-0.0023726725
-0.00087897429
0.00076931035
0.001711437
0.00084654584
0.00031249053
-0.00022374894
-0.00076937926
-0.001323209
-0.0018823977
-0.0024342057
-0.00090186856
0.00060761036
0.0014098577
0.00076085752
0.00027088766
-0.00024955718
-0.00079121434
-0.0013504216
-0.001932981
-0.0025630288
-0.00096485633
0.001153238
0.0026069749
0.001394829
0.00071042305
7.6081016e-05
-0.00052743392
-0.0010949153
-0.0016029098
-0.0019798995
-0.00070740139
0.0010053346
0.0023356678
0.0013243413
0.00067550943
4.8468011e-05
-0.00056074763
-0.0011520924
-0.0017322219
-0.0023421925
-0.00088778767
0.00097236652
0.0022510766
0.0012639847
0.00062942838
6.371647e-06
-0.00060849723
-0.0012170676
-0.001828607
-0.0024656734
-0.00093149039
0.00095834273
0.0022048235
0.0012145966
0.00058212828
-4.0598308e-05
-0.00065919102
-0.0012757812
-0.0018964738
-0.0025312981
-0.00095123584
0.00094909077
0.0021700819
0.0011706036
0.00053536309
-8.8371727e-05
-0.00070851017
-0.0013270662
-0.0019471766
-0.0025725294
-0.00096232385
0.00093993407
0.0021351141
0.0011255303
0.00048738489
-0.00013639017
-0.00075600849
-0.00137344
-0.0019895736
-0.0026043064
-0.00097041471
0.00092688163
0.0020890186
0.0010721602
0.00043535015
-0.00018518921
-0.00080226287
-0.0014177257
-0.0020302812
-0.002635697
-0.00097863594
0.00090181596
0.0020129618
0.0010018416
0.00037738636
-0.00023404898
-0.000846668
-0.0014615031
-0.0020750105
-0.0026766787
-0.0009908899
0.0008406736
0.0018633214
0.00090790822
0.00031678056
-0.00027828894
-0.00088536747
-0.0015031626
-0.0021284312
-0.00274653
-0.0010169108
0.00066028732
0.0015271879
0.00081273596
0.00027053037
-0.00030705724
-0.00090983558
-0.0015338754
-0.0021858435
-0.0028931253
-0.0010886201
0.0012456569
0.0028095032
0.0014909159
0.00074560261
5.3718538e-05
-0.00060565459
-0.0012267364
-0.0017837226
-0.0021980611
-0.00078493748
0.0010851965
0.0025152813
0.0014145861
0.00070770917
2.363027e-05
-0.0006420668
-0.0012893293
-0.0019253845
-0.0025951272
-0.00098265635
0.001049509
0.0024237011
0.0013491696
0.00065763051
-2.2257069e-05
-0.00069423748
-0.0013604049
-0.0020308433
-0.0027300908
-0.0010303804
0.00103431
0.002373535
0.001295516
0.0006061346
-7.3502774e-05
-0.00074963703
-0.0014246262
-0.0021050869
-0.0028018326
-0.0010519508
0.0010242467
0.002335729
0.001247595
0.00055512564
-0.00012568492
-0.00080357374
-0.0014807586
-0.0021605977
-0.002846961
-0.0010640817
0.0010142512
0.0022975594
0.001198383
0.00050270672
-0.0001782
-0.00085558009
-0.0015315889
-0.0022071068
-0.002881833
-0.0010729609
0.0009999719
0.0022471461
0.0011400248
0.00044578937
-0.00023162798
-0.00090629688
-0.0015802349
-0.0022519052
-0.0029164313
-0.0010820299
0.00097252258
0.0021638909
0.0010630861
0.0003823531
-0.00028516269
-0.00095505648
-0.0016284474
-0.0023013215
-0.0029618263
-0.0010956216
0.00090553066
0.0020000254
0.00096032239
0.00031603493
-0.00033364789
-0.00099760438
-0.0016744497
-0.0023605557
-0.0030394926
-0.0011245814
0.0007078118
0.0016318611
0.00085638074
0.00026548295
-0.00036516314
-0.0010245267
-0.0017084407
-0.0024243829
-0.0032028012
-0.001204494
0.0013289288
0.0029908237
0.0015746239
0.00077343859
2.8879136e-05
-0.00068151036
-0.0013514219
-0.0019528985
-0.0024009528
-0.00085688795
0.001157026
0.002675736
0.0014929921
0.00073283721
-3.4668778e-06
-0.00072075655
-0.0014189742
-0.0021058752
-0.0028298887
-0.0010704934
0.0011188703
0.002577816
0.001422985
0.00067912262
-5.2812297e-05
-0.00077696885
-0.0014956323
-0.0022196377
-0.0029753474
-0.0011218891
0.0011026048
0.0025240971
0.0013654533
0.00062380405
-0.00010796179
-0.00083667183
-0.0015648944
-0.0022997174
-0.0030526829
-0.001145127
0.0010918028
0.0024835
0.0013139518
0.00056892139
-0.00016417436
-0.00089483547
-0.0016254678
-0.0023596341
-0.0031013807
-0.0011582126
0.0010810408
0.0024424057
0.0012609584
0.00051244198
-0.00022080615
-0.00095097469
-0.0016803887
-0.0024099206
-0.0031390965
-0.0011678161
0.0010656386
0.0023880416
0.0011980365
0.00045105476
-0.00027847723
-0.0010057894
-0.0017330469
-0.0024584899
-0.0031766551
-0.0011776679
0.001036006
0.0022981953
0.0011150382
0.00038260644
-0.00033630041
-0.0010585538
-0.0017853508
-0.0025122419
-0.003226141
-0.0011925007
0.00096365417
0.0021213024
0.0010041943
0.00031105829
-0.00038868041
-0.0011046451
-0.0018353683
-0.0025768693
-0.0033110716
-0.001224194
0.00075004871
0.0017238007
0.00089224395
0.00025657314
-0.000422714
-0.0011338282
-0.0018723953
-0.0026466584
-0.0034899354
-0.0013117433
0.0014027101
0.0031503618
0.0016460442
0.00079440238
2.3444017e-06
-0.00075396622
-0.0014677416
-0.0021090834
-0.0025872004
-0.00092280187
0.0012205422
0.0028165705
0.0015596776
0.0007513782
-3.2030716e-05
-0.00079576748
-0.0015397715
-0.0022722817
-0.0030449385
-0.0011507662
0.0011801825
0.0027129917
0.0014855711
0.00069440667
-8.448447e-05
-0.00085562163
-0.0016214655
-0.0023935351
-0.0031998516
-0.0012054655
0.0011629645
0.0026560973
0.0014245671
0.00063565683
-0.00014314664
-0.00091920388
-0.0016952756
-0.0024788801
-0.0032822287
-0.0012302049
0.0011514997
0.002612996
0.0013698497
0.00057728948
-0.000202991
-0.00098118196
-0.0017598602
-0.0025427771
-0.0033341494
-0.0012441518
0.0011400477
0.0025692684
0.0013134511
0.00051715028
-0.00026333817
-0.0010410567
-0.0018184832
-0.0025964853
-0.0033744418
-0.0012544115
0.0011236322
0.0025113406
0.0012464133
0.00045172914
-0.00032484384
-0.0010995821
-0.0018747826
-0.0026484837
-0.0034146966
-0.0012649768
0.0010920278
0.0024155446
0.001157947
0.00037875558
-0.00038654577
-0.0011559791
-0.0019308102
-0.0027061948
-0.0034679268
-0.0012809469
0.0010148334
0.0022268888
0.0010398148
0.00030248719
-0.000442449
-0.0012052887
-0.001984492
-0.0027757635
-0.0035595287
-0.0013151524
0.00078686905
0.0018028934
0.00092065682
0.00024445775
-0.00047875888
-0.0012365262
-0.0020242952
-0.0028510269
-0.0037526997
-0.0014097276
0.0014667025
0.0032876062
0.0017052256
0.00080886354
-2.5250165e-05
-0.00082216742
-0.0015746699
-0.0022511374
-0.0027556315
-0.0009822914
0.0012755012
0.0029373715
0.0016147146
0.00076371332
-6.1415855e-05
-0.00086623224
-0.0016506734
-0.0024234135
-0.0032389622
-0.001223016
0.0012332127
0.0028288429
0.0015370197
0.0007038793
-0.00011661329
-0.00092931075
-0.001736832
-0.0025513086
-0.003402243
-0.001280635
0.0012151605
0.0027691655
0.0014729655
0.00064210585
-0.00017838008
-0.00099632905
-0.0018146747
-0.002641322
-0.003489085
-0.0013067025
0.0012031125
0.0027238587
0.0014154122
0.00058065956
-0.00024143988
-0.00106169
-0.0018828203
-0.0027087533
-0.0035438659
-0.0013214133
0.0011910501
0.0026778024
0.0013560013
0.00051727928
-0.00030508251
-0.0011248839
-0.0019447379
-0.0027655098
-0.0035864544
-0.0013322576
0.001173736
0.0026167154
0.0012853154
0.00044828032
-0.00036999468
-0.0011867133
-0.0020042877
-0.0028205769
-0.0036291264
-0.0013434632
0.0011403811
0.0025156403
0.001192
0.00037129096
-0.00043514571
-0.0012463513
-0.0020636512
-0.0028818484
-0.0036857337
-0.0013604604
0.0010588852
0.0023165442
0.0010674069
0.00029083555
-0.00049418249
-0.001298537
-0.0021206263
-0.0029558788
-0.0037833761
-0.0013969427
0.00081816065
0.0018690289
0.00094187714
0.00022966802
-0.00053251513
-0.0013316118
-0.0021629305
-0.0030360981
-0.0039895259
-0.0014978936
0.0015206597
0.0034021359
0.0017522086
0.00081712552
-5.3380594e-05
-0.00088540633
-0.0016713538
-0.0023781071
-0.0029052568
-0.0010350274
0.0013217027
0.0030378011
0.0016581634
0.00077015587
-9.1089996e-05
-0.0009314326
-0.0017508083
-0.0025582748
-0.0034108502
-0.0012868537
0.0012777698
0.002925055
0.0015774072
0.00070786683
-0.00014865385
-0.00099730292
-0.0018408394
-0.0026919312
-0.0035813737
-0.0013469952
0.0012590059
0.0028629998
0.001510739
0.00064349132
-0.00021310282
-0.001067298
-0.0019221803
-0.0027859943
-0.0036720832
-0.0013742115
0.0012464567
0.0028157964
0.0014507427
0.00057938612
-0.00027894654
-0.0011355942
-0.0019934198
-0.0028564973
-0.003729348
-0.0013895851
0.0012338663
0.0027677265
0.0013887262
0.00051319863
-0.00034544901
-0.0012016746
-0.0020582081
-0.0029159134
-0.0037739409
-0.0014009397
0.0012157725
0.0027038998
0.0013148773
0.00044109487
-0.00041332318
-0.0012663852
-0.0021206015
-0.0029736732
-0.0038187387
-0.001412709
0.0011808967
0.002598241
0.0012173542
0.00036061823
-0.00048147686
-0.0013288564
-0.0021828957
-0.0030380874
-0.0038783377
-0.0014306176
0.0010956607
0.0023900757
0.0010871579
0.00027652876
-0.00054324234
-0.0013835612
-0.0022427755
-0.003116076
-0.0039813573
-0.001469129
0.00084383438
0.0019221241
0.0009561212
0.00021264389
-0.00058333458
-0.0014182471
-0.0022872925
-0.0032007061
-0.0041990862
-0.0015757702
0.001564392
0.0034936375
0.0017870483
0.0008194517
-8.1607979e-05
-0.00094309683
-0.0017570899
-0.002489206
-0.0030352571
-0.0010807367
0.0013589945
0.0031176131
0.0016900949
0.00077097712
-0.00012060747
-0.0009907738
-0.0018394577
-0.0026760446
-0.003559686
-0.0013419575
0.0013137091
0.0030014003
0.0016068177
0.00070665103
-0.00018015023
-0.0010589912
-0.0019327521
-0.0028145569
-0.0037362964
-0.0014042137
0.0012943589
0.0029373826
0.0015379825
0.00064010617
-0.00024684725
-0.0011314908
-0.0020170414
-0.0029120333
-0.0038302593
-0.0014323945
0.0012813927
0.0028885996
0.0014759468
0.00057377363
-0.0003150312
-0.0012022615
-0.0020908939
-0.0029851316
-0.0038896208
-0.0014483268
0.0012683593
0.0028388403
0.0014117428
0.0005052252
-0.0003839451
-0.0012707829
-0.002158116
-0.0030468065
-0.0039359171
-0.0014601151
0.001249608
0.0027727052
0.0013352298
0.00043050341
-0.00045432335
-0.0013379384
-0.0022229325
-0.0031068699
-0.0039825389
-0.0014723688
0.0012134474
0.0026631781
0.001234159
0.00034708345
-0.00052501963
-0.0014028216
-0.002287738
-0.0031739937
-0.0040447291
-0.0014910686
0.001125049
0.0024473543
0.0010992411
0.00025992879
-0.00058909659
-0.0014596767
-0.0023501197
-0.0032554165
-0.0041524343
-0.0015313506
0.00086382816
0.0019621388
0.00096358564
0.00019375903
-0.00063067738
-0.0014957397
-0.00239655
-0.0033438891
-0.0043802813
-0.0016429666
0.0015977695
0.0035619161
0.0018098305
0.00081608422
-0.00010955849
-0.00099475481
-0.0018313062
-0.0025838005
-0.0031449752
-0.0011192002
0.0013872752
0.0031766638
0.0017106065
0.000766425
-0.00014958941
-0.0010437652
-0.0019160379
-0.0027760626
-0.0036847373
-0.0013880709
0.0013409346
0.0030577487
0.0016253581
0.00070048766
-0.00021071581
-0.0011138758
-0.0020119739
-0.0029185067
-0.0038662557
-0.0014520261
0.0013211258
0.0029921914
0.0015548115
0.00063221458
-0.00027921794
-0.0011883975
-0.0020986502
-0.0030187465
-0.0039628453
-0.0014809835
0.0013078284
0.0029421522
0.0014911477
0.00056409505
-0.00034928902
-0.001261172
-0.0021746239
-0.0030939531
-0.0040239078
-0.0014973684
0.0012944386
0.0028910341
0.001425183
0.00049364137
-0.00042015614
-0.0013316787
-0.0022438326
-0.0031574764
-0.0040715993
-0.0015095117
0.0012751548
0.0028230312
0.0013465155
0.00041679889
-0.00049257027
-0.0014008324
-0.0023106413
-0.003219444
-0.0041197352
-0.0015221684
0.0012379507
0.0027103664
0.0012425707
0.00033099133
-0.00056533855
-0.001467696
-0.0023775273
-0.0032888314
-0.0041841033
-0.0015415351
0.0011469801
0.0024883249
0.0011038316
0.00024135254
-0.00063130025
-0.0015263234
-0.0024419963
-0.0033731476
-0.0042957791
-0.0015833202
0.00087810934
0.001989086
0.00096446275
0.00017333915
-0.00067409251
-0.0015635234
-0.0024900313
-0.0034648754
-0.0045322319
-0.0016991702
0.0016207228
0.0036069023
0.0018206827
0.00080725736
-0.00013690885
-0.0010399836
-0.0018935494
-0.0026613992
-0.0032339088
-0.0011502513
0.0014064956
0.0032149191
0.001719833
0.00075673753
-0.00017770906
-0.0010900056
-0.0019800877
-0.0028578191
-0.0037854497
-0.0014250013
0.0013594007
0.0030940751
0.0016331693
0.00068961985
-0.00024001868
-0.001161549
-0.0020780344
-0.0030032579
-0.0039706813
-0.0014902347
0.0013392625
0.0030274057
0.0015613721
0.0006200653
-0.0003098769
-0.0012376037
-0.0021665281
-0.0031056018
-0.0040692624
-0.0015197781
0.0013257208
0.0029764376
0.0014964971
0.00055060513
-0.00038137559
-0.0013119044
-0.0022441241
-0.0031824225
-0.0041316246
-0.0015365078
0.0013120623
0.0029242959
0.0014292043
0.00047870836
-0.00045373091
-0.0013839335
-0.0023148649
-0.0032473769
-0.0041803978
-0.0015489264
0.0012923729
0.0028548721
0.001348899
0.00040024983
-0.00052770544
-0.0014546314
-0.0023832269
-0.0033108418
-0.0042297315
-0.0015619029
0.0012543701
0.0027398109
0.0012427638
0.00031261864
-0.00060206767
-0.0015230363
-0.0024517541
-0.003382037
-0.0042958548
-0.0015818092
0.0011614263
0.0025130135
0.0011011163
0.00022108514
-0.00066948058
-0.0015830506
-0.002517887
-0.0034686928
-0.0044107675
-0.0016248231
0.00088667621
0.0020030384
0.00095895108
0.00015167541
-0.00071320299
-0.0016211432
-0.0025672112
-0.003563073
-0.0046542725
-0.0017441459
0.0016332447
0.0036286563
0.0018197808
0.00079320721
-0.00016337529
-0.0010784629
-0.0019434741
-0.0027216448
-0.0033017054
-0.0011737751
0.0014166595
0.0032324586
0.0017179539
0.00074215257
-0.00020468093
-0.0011291722
-0.0020312572
-0.0029209465
-0.0038614409
-0.0014526189
0.001369113
0.0031104625
0.0016304332
0.00067428782
-0.00026777063
-0.0012016848
-0.0021305791
-0.0030684356
-0.0040491832
-0.0015187069
0.0013487749
0.003043111
0.0015578487
0.0006039013
-0.00033853282
-0.0012787795
-0.0022203162
-0.0031722195
-0.0041491159
-0.0015486447
0.0013350765
0.0029915431
0.0014921819
0.00053354996
-0.00041099605
-0.0013541248
-0.0022990312
-0.0032501559
-0.004212373
-0.0015656106
0.0013212378
0.0029387156
0.0014239969
0.00046067589
-0.00048437065
-0.0014272094
-0.0023708452
-0.0033161198
-0.0042619113
-0.0015782239
0.0013012703
0.0028683212
0.0013425746
0.00038111003
-0.00055942591
-0.0014989928
-0.002440317
-0.0033806698
-0.0043121224
-0.0015914359
0.0012627157
0.0027516106
0.0012349379
0.00029222379
-0.00063489961
-0.0015684952
-0.0025100405
-0.0034532104
-0.0043795711
-0.0016117524
0.0011684025
0.0025215305
0.0010913016
0.00019938967
-0.00070332624
-0.0016295068
-0.0025774075
-0.0035416424
-0.0044969732
-0.0016557151
0.00088955873
0.0020041328
0.00094726283
0.00012903404
-0.000747695
-0.0016682447
-0.0026277004
-0.0036380611
-0.0047459456
-0.0017777341
0.0016353895
0.0036273692
0.0018073541
0.00077417845
-0.00018870554
-0.0011099404
-0.0019808356
-0.0027643073
-0.0033481571
-0.0011897067
0.0014178238
0.0032294768
0.0017051977
0.00072291442
-0.00023025266
-0.0011610122
-0.0020693007
-0.0029652124
-0.0039124959
-0.001470855
0.0013701279
0.0031071048
0.0016173774
0.00065473559
-0.00029371915
-0.0012340298
-0.0021693612
-0.0031138062
-0.0041015458
-0.0015373743
0.0013497195
0.0030395002
0.0015444688
0.00058396667
-0.00036493275
-0.0013116709
-0.0022597668
-0.003218365
-0.0042021897
-0.0015675147
0.0013359518
0.002987662
0.0014784297
0.00051317394
-0.00043789684
-0.0013875783
-0.0023390964
-0.0032969175
-0.0042659362
-0.0015846081
0.0013220215
0.0029344866
0.0014097887
0.00043978899
-0.00051182092
-0.0014612501
-0.0024115232
-0.003363468
-0.0043159219
-0.0015973351
0.0013019039
0.0028635726
0.0013277709
0.00035962546
-0.00058747596
-0.0015336589
-0.0024816591
-0.0034286887
-0.0043666878
-0.0016106976
0.0012630447
0.0027459609
0.0012193225
0.0002700538
-0.00066357733
-0.0016038127
-0.0025521312
-0.0035021082
-0.0044350278
-0.0016312936
0.0011679672
0.0025140736
0.0010746183
0.00017651413
-0.00073257889
-0.0016654301
-0.0026202994
-0.003591747
-0.0045541627
-0.0016759217
0.00088681886
0.0019925723
0.0009296288
0.00010566339
-0.00077730949
-0.0017045644
-0.0026712371
-0.0036895831
-0.0048069971
-0.0017998499
0.0016272723
0.0036033632
0.001783688
0.00075042915
-0.00021267271
-0.0011342245
-0.0020054822
-0.0027892778
-0.0033731969
-0.0011980302
0.0014100978
0.0032062838
0.0016818453
0.00069927887
-0.00025419882
-0.0011853358
-0.002094069
-0.0029905134
-0.0039385623
-0.0014797012
0.0013625527
0.0030843061
0.0015942786
0.00063121599
-0.00031764114
-0.0012583963
-0.0021942348
-0.0031392711
-0.0041277232
-0.0015462309
0.0013422026
0.0030168743
0.0015215055
0.00056051144
-0.00038885599
-0.0013360927
-0.0022847365
-0.0032439428
-0.0042284413
-0.0015763831
0.0013284525
0.002965093
0.0014555112
0.00048972475
-0.00046185945
-0.0014120817
-0.0023641785
-0.0033226138
-0.0042922734
-0.0015934958
0.0013145185
0.0029119059
0.0013868483
0.00041629313
-0.00053586509
-0.0014858741
-0.0024367591
-0.0033893288
-0.0043423894
-0.0016062558
0.0012943783
0.0028409212
0.0013047542
0.00033603938
-0.00061164079
-0.0015584493
-0.002507114
-0.0034548061
-0.0043933875
-0.0016196839
0.0012554607
0.0027231533
0.0011961808
0.00024634953
-0.00068788761
-0.0016288096
-0.0025778868
-0.0035286371
-0.0044621831
-0.0016404279
0.0011602213
0.0024909279
0.0010513248
0.00015269663
-0.0007570268
-0.0016906415
-0.0026464223
-0.0036189112
-0.0045822901
-0.0016854362
0.00087855034
0.001968627
0.00090630186
8.1799286e-05
-0.00080183576
-0.0017299237
-0.0026976805
-0.0037175398
-0.0048373703
-0.0018104814
0.0016090686
0.0035570901
0.0017491258
0.00072223427
-0.00023507025
-0.0011511793
-0.0020173501
-0.0027965634
-0.0033768928
-0.0011987773
0.0013936423
0.0031633037
0.0016482314
0.00067151661
-0.000276316
-0.0012020103
-0.0021055042
-0.0029968695
-0.0039397447
-0.001479207
0.0013465444
0.0030424803
0.0015614636
0.00060399416
-0.00033933784
-0.0012746569
-0.0022051486
-0.0031448605
-0.004127834
-0.0015453315
0.0013263793
0.0029756415
0.0014892798
0.00053379537
-0.00041010894
-0.0013519227
-0.0022951802
-0.0032489902
-0.0042279964
-0.0015753071
0.0013127326
0.0029242402
0.0014237424
0.00046345699
-0.00048269529
-0.0014275178
-0.0023742371
-0.0033272872
-0.0042915146
-0.0015923319
0.0012988822
0.0028713739
0.0013554869
0.00039043793
-0.00055631939
-0.0015009687
-0.0024465166
-0.0033937483
-0.0043414466
-0.0016050449
0.0012788453
0.0028007626
0.0012738299
0.00031059615
-0.00063174119
-0.0015732552
-0.002516649
-0.0034590705
-0.0043923558
-0.001618454
0.0012401128
0.0026835754
0.0011658108
0.00022134944
-0.00070765579
-0.0016433806
-0.0025872775
-0.0035328478
-0.0044611727
-0.001639215
0.0011453079
0.0024524655
0.0010217093
0.00012816942
-0.00077649936
-0.0017050385
-0.0026557485