/*--------------------------------*- C++ -*----------------------------------*\
| =========                 |                                                 |
| \\      /  F ield         | OpenFOAM: The Open Source CFD Toolbox           |
|  \\    /   O peration     | Version:  v2106                                 |
|   \\  /    A nd           | Website:  www.openfoam.com                      |
|    \\/     M anipulation  |                                                 |
\*---------------------------------------------------------------------------*/
FoamFile
{
    version     2.0;
    format      ascii;
    arch        "LSB;label=32;scalar=64";
    class       volScalarField;
    location    "85";
    object      laplacianT;
}
// * * * * * * * * * * * * * * * * * * * * * * * * * * * * * * * * * * * * * //

dimensions      [0 -2 0 1 0 0 0];

internalField   nonuniform List<scalar> 
4000
(
41209.875
41209.87
41209.889
41209.899
41209.903
41209.903
41209.899
41209.892
41209.884
41209.876
41209.87
41209.868
41209.886
41209.895
41209.899
41209.899
41209.895
41209.888
41209.878
41209.87
41209.889
41209.886
41209.904
41209.912
41209.916
41209.915
41209.911
41209.903
41209.893
41209.884
41209.899
41209.895
41209.912
41209.92
41209.924
41209.923
41209.918
41209.91
41209.899
41209.89
41209.903
41209.899
41209.916
41209.924
41209.927
41209.926
41209.921
41209.912
41209.901
41209.892
41209.903
41209.899
41209.915
41209.923
41209.926
41209.924
41209.919
41209.91
41209.899
41209.889
41209.899
41209.895
41209.911
41209.918
41209.921
41209.919
41209.914
41209.905
41209.893
41209.883
41209.892
41209.888
41209.903
41209.91
41209.912
41209.91
41209.905
41209.895
41209.883
41209.873
41209.884
41209.878
41209.893
41209.899
41209.901
41209.899
41209.893
41209.883
41209.871
41209.861
41209.876
41209.87
41209.884
41209.89
41209.892
41209.889
41209.883
41209.873
41209.861
41209.851
-551.82454
-551.9651
-551.94715
-551.94706
-551.94723
-551.94724
-551.94708
-551.94679
-551.94639
-551.94069
-551.9651
-552.06873
-552.05391
-552.05398
-552.05415
-552.05415
-552.05396
-552.05363
-552.05315
-552.01894
-551.94715
-552.05391
-552.0394
-552.03947
-552.03963
-552.03961
-552.03941
-552.03906
-552.03855
-552.00629
-551.94706
-552.05398
-552.03947
-552.03952
-552.03967
-552.03963
-552.03942
-552.03904
-552.03852
-552.00618
-551.94723
-552.05415
-552.03963
-552.03967
-552.0398
-552.03975
-552.03952
-552.03913
-552.03859
-552.00623
-551.94724
-552.05415
-552.03961
-552.03963
-552.03975
-552.03968
-552.03945
-552.03904
-552.03849
-552.00612
-551.94708
-552.05396
-552.03941
-552.03942
-552.03952
-552.03945
-552.03919
-552.03878
-552.03822
-552.00584
-551.94679
-552.05363
-552.03906
-552.03904
-552.03913
-552.03904
-552.03878
-552.03835
-552.03778
-552.0054
-551.94639
-552.05315
-552.03855
-552.03852
-552.03859
-552.03849
-552.03822
-552.03778
-552.03719
-552.00481
-551.94069
-552.01894
-552.00629
-552.00618
-552.00623
-552.00612
-552.00584
-552.0054
-552.00481
-551.97124
-541.56275
-541.77223
-541.74272
-541.74238
-541.74258
-541.74257
-541.74235
-541.74195
-541.7414
-541.70554
-541.77223
-541.9245
-541.90034
-541.90028
-541.90048
-541.90045
-541.9002
-541.89973
-541.89907
-541.81016
-541.74272
-541.90034
-541.87673
-541.87667
-541.87686
-541.87681
-541.87654
-541.87605
-541.87535
-541.79099
-541.74238
-541.90028
-541.87667
-541.8766
-541.87676
-541.8767
-541.87641
-541.87589
-541.87516
-541.79071
-541.74258
-541.90048
-541.87686
-541.87676
-541.87691
-541.87683
-541.87652
-541.87598
-541.87523
-541.79075
-541.74257
-541.90045
-541.87681
-541.8767
-541.87683
-541.87673
-541.8764
-541.87585
-541.87508
-541.79059
-541.74235
-541.9002
-541.87654
-541.87641
-541.87652
-541.8764
-541.87605
-541.87549
-541.87471
-541.79022
-541.74195
-541.89973
-541.87605
-541.87589
-541.87598
-541.87585
-541.87549
-541.87491
-541.87411
-541.78963
-541.7414
-541.89907
-541.87535
-541.87516
-541.87523
-541.87508
-541.87471
-541.87411
-541.8733
-541.78882
-541.70554
-541.81016
-541.79099
-541.79071
-541.79075
-541.79059
-541.79022
-541.78963
-541.78882
-541.6915
-531.61481
-531.89028
-531.85006
-531.84949
-531.8497
-531.84967
-531.84939
-531.84888
-531.84818
-531.7846
-531.89028
-532.08989
-532.057
-532.05682
-532.05704
-532.05698
-532.05665
-532.05605
-532.05521
-531.91416
-531.85006
-532.057
-532.02488
-532.0247
-532.0249
-532.02482
-532.02447
-532.02385
-532.02295
-531.88908
-531.84949
-532.05682
-532.0247
-532.0245
-532.02468
-532.02458
-532.0242
-532.02355
-532.02262
-531.88866
-531.8497
-532.05704
-532.0249
-532.02468
-532.02483
-532.02471
-532.02431
-532.02363
-532.02268
-531.88868
-531.84967
-532.05698
-532.02482
-532.02458
-532.02471
-532.02457
-532.02415
-532.02345
-532.02248
-531.88847
-531.84939
-532.05665
-532.02447
-532.0242
-532.02431
-532.02415
-532.02371
-532.02299
-532.022
-531.88799
-531.84888
-532.05605
-532.02385
-532.02355
-532.02363
-532.02345
-532.02299
-532.02225
-532.02125
-531.88725
-531.84818
-532.05521
-532.02295
-532.02262
-532.02268
-532.02248
-532.022
-532.02125
-532.02022
-531.88623
-531.7846
-531.91416
-531.88908
-531.88866
-531.88868
-531.88847
-531.88799
-531.88725
-531.88623
-531.72874
-521.96831
-522.30767
-522.25713
-522.25633
-522.25655
-522.2565
-522.25615
-522.25554
-522.25469
-522.16416
-522.30767
-522.55309
-522.51178
-522.51147
-522.51169
-522.5116
-522.51119
-522.51047
-522.50944
-522.31777
-522.25713
-522.51178
-522.47142
-522.47113
-522.47133
-522.47122
-522.47078
-522.47003
-522.46895
-522.28704
-522.25633
-522.51147
-522.47113
-522.47081
-522.47099
-522.47085
-522.47039
-522.4696
-522.46848
-522.28646
-522.25655
-522.51169
-522.47133
-522.47099
-522.47114
-522.47098
-522.47049
-522.46967
-522.46852
-522.28647
-522.2565
-522.5116
-522.47122
-522.47085
-522.47098
-522.47079
-522.47027
-522.46943
-522.46826
-522.2862
-522.25615
-522.51119
-522.47078
-522.47039
-522.47049
-522.47027
-522.46973
-522.46887
-522.46768
-522.28562
-522.25554
-522.51047
-522.47003
-522.4696
-522.46967
-522.46943
-522.46887
-522.46798
-522.46677
-522.28474
-522.25469
-522.50944
-522.46895
-522.46848
-522.46852
-522.46826
-522.46768
-522.46677
-522.46553
-522.28352
-522.16416
-522.31777
-522.28704
-522.28646
-522.28647
-522.2862
-522.28562
-522.28474
-522.28352
-522.06787
-512.60878
-513.00926
-512.9488
-512.94778
-512.94801
-512.94793
-512.94751
-512.94679
-512.94581
-512.82919
-513.00926
-513.29843
-513.24902
-513.24858
-513.24881
-513.24869
-513.24819
-513.24734
-513.24615
-513.00564
-512.9488
-513.24902
-513.20076
-513.20034
-513.20055
-513.2004
-513.19988
-513.199
-513.19774
-512.96949
-512.94778
-513.24858
-513.20034
-513.1999
-513.20007
-513.1999
-513.19935
-513.19842
-513.19712
-512.96877
-512.94801
-513.24881
-513.20055
-513.20007
-513.20022
-513.20001
-513.19943
-513.19848
-513.19715
-512.96875
-512.94793
-513.24869
-513.2004
-513.1999
-513.20001
-513.19978
-513.19917
-513.19819
-513.19683
-512.96842
-512.94751
-513.24819
-513.19988
-513.19935
-513.19943
-513.19917
-513.19853
-513.19752
-513.19615
-512.96775
-512.94679
-513.24734
-513.199
-513.19842
-513.19848
-513.19819
-513.19752
-513.19649
-513.19509
-512.96672
-512.94581
-513.24615
-513.19774
-513.19712
-513.19715
-513.19683
-513.19615
-513.19509
-513.19365
-512.96532
-512.82919
-513.00564
-512.96949
-512.96877
-512.96875
-512.96842
-512.96775
-512.96672
-512.96532
-512.69353
-503.52172
-503.98015
-503.91022
-503.90898
-503.90921
-503.9091
-503.90862
-503.9078
-503.90669
-503.76502
-503.98015
-504.31074
-504.25359
-504.25303
-504.25326
-504.2531
-504.25252
-504.25156
-504.25021
-503.96293
-503.91022
-504.25359
-504.19779
-504.19725
-504.19746
-504.19727
-504.19667
-504.19567
-504.19425
-503.92162
-503.90898
-504.25303
-504.19725
-504.19669
-504.19686
-504.19664
-504.196
-504.19496
-504.19349
-503.92076
-503.90921
-504.25326
-504.19746
-504.19686
-504.197
-504.19674
-504.19608
-504.19499
-504.19349
-503.92071
-503.9091
-504.2531
-504.19727
-504.19664
-504.19674
-504.19646
-504.19576
-504.19464
-504.19312
-503.92033
-503.90862
-504.25252
-504.19667
-504.196
-504.19608
-504.19576
-504.19503
-504.19388
-504.19233
-503.91956
-503.9078
-504.25156
-504.19567
-504.19496
-504.19499
-504.19464
-504.19388
-504.19271
-504.19113
-503.9184
-503.90669
-504.25021
-504.19425
-504.19349
-504.19349
-504.19312
-504.19233
-504.19113
-504.1895
-503.91683
-503.76502
-503.96293
-503.92162
-503.92076
-503.92071
-503.92033
-503.91956
-503.9184
-503.91683
-503.59123
-494.69342
-495.20631
-495.12742
-495.12597
-495.12619
-495.12605
-495.12551
-495.1246
-495.12336
-494.95783
-495.20631
-495.57574
-495.51128
-495.5106
-495.51083
-495.51062
-495.50998
-495.5089
-495.5074
-495.17571
-495.12742
-495.51128
-495.44835
-495.4477
-495.44789
-495.44767
-495.44699
-495.44587
-495.4443
-495.12954
-495.12597
-495.5106
-495.4477
-495.44701
-495.44717
-495.44691
-495.4462
-495.44503
-495.4434
-495.12854
-495.12619
-495.51083
-495.44789
-495.44717
-495.4473
-495.447
-495.44625
-495.44505
-495.44338
-495.12847
-495.12605
-495.51062
-495.44767
-495.44691
-495.447
-495.44667
-495.44588
-495.44464
-495.44295
-495.12803
-495.12551
-495.50998
-495.44699
-495.4462
-495.44625
-495.44588
-495.44506
-495.44379
-495.44207
-495.12717
-495.1246
-495.5089
-495.44587
-495.44503
-495.44505
-495.44464
-495.44379
-495.44249
-495.44073
-495.12589
-495.12336
-495.5074
-495.4443
-495.4434
-495.44338
-495.44295
-495.44207
-495.44073
-495.43894
-495.12415
-494.95783
-495.17571
-495.12954
-495.12854
-495.12847
-495.12803
-495.12717
-495.12589
-495.12415
-494.74738
-486.11105
-486.67457
-486.58729
-486.58564
-486.58585
-486.58568
-486.58509
-486.58409
-486.58274
-486.39466
-486.67457
-487.08008
-487.00877
-487.00796
-487.00818
-487.00794
-487.00723
-487.00604
-487.00441
-486.63091
-486.58729
-487.00877
-486.93916
-486.93839
-486.93858
-486.93831
-486.93756
-486.93634
-486.93462
-486.5802
-486.58564
-487.00796
-486.93839
-486.93758
-486.93773
-486.93743
-486.93664
-486.93536
-486.93359
-486.57907
-486.58585
-487.00818
-486.93858
-486.93773
-486.93785
-486.93751
-486.93668
-486.93536
-486.93355
-486.57897
-486.58568
-487.00794
-486.93831
-486.93743
-486.93751
-486.93713
-486.93626
-486.93491
-486.93306
-486.57848
-486.58509
-487.00723
-486.93756
-486.93664
-486.93668
-486.93626
-486.93536
-486.93397
-486.93209
-486.57754
-486.58409
-487.00604
-486.93634
-486.93536
-486.93536
-486.93491
-486.93397
-486.93254
-486.93063
-486.57614
-486.58274
-487.00441
-486.93462
-486.93359
-486.93355
-486.93306
-486.93209
-486.93063
-486.92868
-486.57426
-486.39466
-486.63091
-486.5802
-486.57907
-486.57897
-486.57848
-486.57754
-486.57614
-486.57426
-486.14924
-477.76255
-478.37263
-478.27756
-478.27571
-478.27592
-478.27573
-478.27507
-478.274
-478.27255
-478.06336
-478.37263
-478.81123
-478.73357
-478.73265
-478.73286
-478.73258
-478.7318
-478.73052
-478.72876
-478.31629
-478.27756
-478.73357
-478.65777
-478.65689
-478.65707
-478.65677
-478.65595
-478.65463
-478.65278
-478.2614
-478.27571
-478.73265
-478.65689
-478.65597
-478.65611
-478.65577
-478.65491
-478.65353
-478.65162
-478.26014
-478.27592
-478.73286
-478.65707
-478.65611
-478.65621
-478.65583
-478.65493
-478.6535
-478.65155
-478.26001
-478.27573
-478.73258
-478.65677
-478.65577
-478.65583
-478.6554
-478.65446
-478.653
-478.65102
-478.25947
-478.27507
-478.7318
-478.65595
-478.65491
-478.65493
-478.65446
-478.65348
-478.65198
-478.64997
-478.25846
-478.274
-478.73052
-478.65463
-478.65353
-478.6535
-478.653
-478.65198
-478.65045
-478.64839
-478.25695
-478.27255
-478.72876
-478.65278
-478.65162
-478.65155
-478.65102
-478.64997
-478.64839
-478.64629
-478.25493
-478.06336
-478.31629
-478.2614
-478.26014
-478.26001
-478.25947
-478.25846
-478.25695
-478.25493
-477.78489
-469.63665
-470.28894
-470.18675
-470.18472
-470.18492
-470.1847
-470.18399
-470.18285
-470.18131
-469.95257
-470.28894
-470.75749
-470.67402
-470.67299
-470.67319
-470.67288
-470.67203
-470.67067
-470.66879
-470.2204
-470.18675
-470.67402
-470.59257
-470.59158
-470.59174
-470.5914
-470.59053
-470.58911
-470.58715
-470.1617
-470.18472
-470.67299
-470.59158
-470.59055
-470.59068
-470.59029
-470.58937
-470.5879
-470.58587
-470.16032
-470.18492
-470.67319
-470.59174
-470.59068
-470.59076
-470.59034
-470.58937
-470.58785
-470.58578
-470.16016
-470.1847
-470.67288
-470.5914
-470.59029
-470.59034
-470.58987
-470.58886
-470.5873
-470.5852
-470.15958
-470.18399
-470.67203
-470.59053
-470.58937
-470.58937
-470.58886
-470.58781
-470.58621
-470.58407
-470.1585
-470.18285
-470.67067
-470.58911
-470.5879
-470.58785
-470.5873
-470.58621
-470.58457
-470.58239
-470.1569
-470.18131
-470.66879
-470.58715
-470.58587
-470.58578
-470.5852
-470.58407
-470.58239
-470.58016
-470.15476
-469.95257
-470.2204
-470.1617
-470.16032
-470.16016
-470.15958
-470.1585
-470.1569
-470.15476
-469.64313
-461.72278
-462.41274
-462.30412
-462.30192
-462.30211
-462.30186
-462.30111
-462.2999
-462.29828
-462.05166
-462.41274
-462.90794
-462.81923
-462.81809
-462.81828
-462.81794
-462.81704
-462.81559
-462.81362
-462.33254
-462.30412
-462.81923
-462.73268
-462.73159
-462.73174
-462.73137
-462.73044
-462.72894
-462.72688
-462.27042
-462.30192
-462.81809
-462.73159
-462.73046
-462.73057
-462.73015
-462.72917
-462.72762
-462.72548
-462.26893
-462.30211
-462.81828
-462.73174
-462.73057
-462.73064
-462.73018
-462.72915
-462.72755
-462.72537
-462.26875
-462.30186
-462.81794
-462.73137
-462.73015
-462.73018
-462.72967
-462.7286
-462.72696
-462.72474
-462.26812
-462.30111
-462.81704
-462.73044
-462.72917
-462.72915
-462.7286
-462.72748
-462.7258
-462.72355
-462.26698
-462.2999
-462.81559
-462.72894
-462.72762
-462.72755
-462.72696
-462.7258
-462.72407
-462.72178
-462.2653
-462.29828
-462.81362
-462.72688
-462.72548
-462.72537
-462.72474
-462.72355
-462.72178
-462.71943
-462.26306
-462.05166
-462.33254
-462.27042
-462.26893
-462.26875
-462.26812
-462.26698
-462.2653
-462.26306
-461.71353
-454.01108
-454.73396
-454.61966
-454.6173
-454.61748
-454.6172
-454.61641
-454.61515
-454.61346
-454.35071
-454.73396
-455.25239
-455.15905
-455.15782
-455.15799
-455.15762
-455.15667
-455.15515
-455.1531
-454.64272
-454.61966
-455.15905
-455.06798
-455.0668
-455.06694
-455.06653
-455.06555
-455.06399
-455.06184
-454.57761
-454.6173
-455.15782
-455.0668
-455.06557
-455.06567
-455.06522
-455.06419
-455.06256
-455.06034
-454.57602
-454.61748
-455.15799
-455.06694
-455.06567
-455.06572
-455.06523
-455.06415
-455.06247
-455.0602
-454.57581
-454.6172
-455.15762
-455.06653
-455.06522
-455.06523
-455.06469
-455.06356
-455.06184
-455.05953
-454.57515
-454.61641
-455.15667
-455.06555
-455.06419
-455.06415
-455.06356
-455.06239
-455.06063
-455.05828
-454.57395
-454.61515
-455.15515
-455.06399
-455.06256
-455.06247
-455.06184
-455.06063
-455.05882
-455.05643
-454.5722
-454.61346
-455.1531
-455.06184
-455.06034
-455.0602
-455.05953
-455.05828
-455.05643
-455.05398
-454.56987
-454.35071
-454.64272
-454.57761
-454.57602
-454.57581
-454.57515
-454.57395
-454.5722
-454.56987
-453.9863
-446.49233
-447.24325
-447.12401
-447.12152
-447.12168
-447.12138
-447.12056
-447.11924
-447.1175
-446.84046
-447.24325
-447.78138
-447.68403
-447.6827
-447.68286
-447.68246
-447.68147
-447.6799
-447.67777
-447.14165
-447.12401
-447.68403
-447.58906
-447.58779
-447.58791
-447.58748
-447.58645
-447.58483
-447.58261
-447.07396
-447.12152
-447.6827
-447.58779
-447.58647
-447.58655
-447.58608
-447.585
-447.58331
-447.58101
-447.07229
-447.12168
-447.68286
-447.58791
-447.58655
-447.58659
-447.58607
-447.58494
-447.5832
-447.58085
-447.07206
-447.12138
-447.68246
-447.58748
-447.58608
-447.58607
-447.58549
-447.58432
-447.58254
-447.58015
-447.07136
-447.12056
-447.68147
-447.58645
-447.585
-447.58494
-447.58432
-447.5831
-447.58127
-447.57884
-447.07012
-447.11924
-447.6799
-447.58483
-447.58331
-447.5832
-447.58254
-447.58127
-447.5794
-447.57693
-447.06831
-447.1175
-447.67777
-447.58261
-447.58101
-447.58085
-447.58015
-447.57884
-447.57693
-447.5744
-447.0659
-446.84046
-447.14165
-447.07396
-447.07229
-447.07206
-447.07136
-447.07012
-447.06831
-447.0659
-446.45233
-439.15792
-439.93187
-439.8085
-439.80588
-439.80603
-439.80571
-439.80486
-439.8035
-439.80171
-439.51229
-439.93187
-440.48612
-440.38539
-440.38398
-440.38413
-440.3837
-440.38267
-440.38105
-440.37887
-439.82066
-439.8085
-440.38539
-440.28714
-440.28579
-440.2859
-440.28545
-440.28438
-440.28272
-440.28043
-439.75085
-439.80588
-440.38398
-440.28579
-440.2844
-440.28447
-440.28396
-440.28285
-440.28111
-440.27875
-439.7491
-439.80603
-440.38413
-440.2859
-440.28447
-440.28449
-440.28393
-440.28277
-440.28098
-440.27857
-439.74885
-439.80571
-440.3837
-440.28545
-440.28396
-440.28393
-440.28333
-440.28212
-440.28028
-440.27783
-439.74812
-439.80486
-440.38267
-440.28438
-440.28285
-440.28277
-440.28212
-440.28086
-440.27898
-440.27649
-439.74684
-439.8035
-440.38105
-440.28272
-440.28111
-440.28098
-440.28028
-440.27898
-440.27706
-440.27452
-439.74498
-439.80171
-440.37887
-440.28043
-440.27875
-440.27857
-440.27783
-440.27649
-440.27452
-440.27192
-439.74252
-439.51229
-439.82066
-439.75085
-439.7491
-439.74885
-439.74812
-439.74684
-439.74498
-439.74252
-439.10312
-431.99986
-432.79175
-432.66504
-432.66231
-432.66244
-432.66211
-432.66123
-432.65985
-432.65802
-432.35817
-432.79175
-433.35843
-433.255
-433.25352
-433.25365
-433.2532
-433.25214
-433.25048
-433.24825
-432.67171
-432.66504
-433.255
-433.15412
-433.1527
-433.1528
-433.15232
-433.15122
-433.14952
-433.14719
-432.60023
-432.66231
-433.25352
-433.1527
-433.15124
-433.15129
-433.15076
-433.14961
-433.14784
-433.14544
-432.59841
-432.66244
-433.25365
-433.1528
-433.15129
-433.15129
-433.15071
-433.14952
-433.14769
-433.14523
-432.59814
-432.66211
-433.2532
-433.15232
-433.15076
-433.15071
-433.15009
-433.14884
-433.14697
-433.14447
-432.59739
-432.66123
-433.25214
-433.15122
-433.14961
-433.14952
-433.14884
-433.14755
-433.14563
-433.14309
-432.59608
-432.65985
-433.25048
-433.14952
-433.14784
-433.14769
-433.14697
-433.14563
-433.14367
-433.14108
-432.59419
-432.65802
-433.24825
-433.14719
-433.14544
-433.14523
-433.14447
-433.14309
-433.14108
-433.13844
-432.59168
-432.35817
-432.67171
-432.60023
-432.59841
-432.59814
-432.59739
-432.59608
-432.59419
-432.59168
-431.93075
-425.01069
-425.81536
-425.68614
-425.68332
-425.68344
-425.68309
-425.68219
-425.68079
-425.67894
-425.37066
-425.81536
-426.3908
-426.28533
-426.28378
-426.2839
-426.28343
-426.28234
-426.28066
-426.2784
-425.68734
-425.68614
-426.28533
-426.18247
-426.18099
-426.18107
-426.18057
-426.17945
-426.17772
-426.17536
-425.61466
-425.68332
-426.28378
-426.18099
-426.17947
-426.1795
-426.17896
-426.17779
-426.17599
-426.17355
-425.61278
-425.68344
-426.2839
-426.18107
-426.1795
-426.17949
-426.17889
-426.17767
-426.17582
-426.17333
-425.61249
-425.68309
-426.28343
-426.18057
-426.17896
-426.17889
-426.17825
-426.17697
-426.17508
-426.17255
-425.61172
-425.68219
-426.28234
-426.17945
-426.17779
-426.17767
-426.17697
-426.17566
-426.17371
-426.17114
-425.6104
-425.68079
-426.28066
-426.17772
-426.17599
-426.17582
-426.17508
-426.17371
-426.17172
-426.1691
-425.60848
-425.67894
-426.2784
-426.17536
-426.17355
-426.17333
-426.17255
-426.17114
-426.1691
-426.16642
-425.60595
-425.37066
-425.68734
-425.61466
-425.61278
-425.61249
-425.61172
-425.6104
-425.60848
-425.60595
-424.92786
-418.18349
-418.99576
-418.86487
-418.86197
-418.86208
-418.86171
-418.8608
-418.85939
-418.85752
-418.54284
-418.99576
-419.57625
-419.46942
-419.46783
-419.46792
-419.46744
-419.46634
-419.46464
-419.46236
-418.86065
-418.86487
-419.46942
-419.36525
-419.36372
-419.36378
-419.36327
-419.36214
-419.36039
-419.35801
-418.78723
-418.86197
-419.46783
-419.36372
-419.36215
-419.36217
-419.3616
-419.36042
-419.35861
-419.35615
-418.78531
-418.86208
-419.46792
-419.36378
-419.36217
-419.36213
-419.36152
-419.36028
-419.35842
-419.35591
-418.785
-418.86171
-419.46744
-419.36327
-419.3616
-419.36152
-419.36086
-419.35957
-419.35766
-419.35512
-418.78422
-418.8608
-419.46634
-419.36214
-419.36042
-419.36028
-419.35957
-419.35824
-419.35628
-419.3537
-418.78288
-418.85939
-419.46464
-419.36039
-419.35861
-419.35842
-419.35766
-419.35628
-419.35427
-419.35164
-418.78095
-418.85752
-419.46236
-419.35801
-419.35615
-419.35591
-419.35512
-419.3537
-419.35164
-419.34894
-418.77841
-418.54284
-418.86065
-418.78723
-418.78531
-418.785
-418.78422
-418.78288
-418.78095
-418.77841
-418.08759
-411.51182
-412.32655
-412.1948
-412.19186
-412.19194
-412.19157
-412.19065
-412.18923
-412.18737
-411.86833
-412.32655
-412.9084
-412.80089
-412.79925
-412.79933
-412.79883
-412.79772
-412.79602
-412.79374
-412.18526
-412.1948
-412.80089
-412.69607
-412.6945
-412.69454
-412.69401
-412.69287
-412.69112
-412.68875
-412.11156
-412.19186
-412.79925
-412.6945
-412.69289
-412.69289
-412.69231
-412.69112
-412.6893
-412.68685
-412.10961
-412.19194
-412.79933
-412.69454
-412.69289
-412.69284
-412.69221
-412.69097
-412.6891
-412.68659
-412.10929
-412.19157
-412.79883
-412.69401
-412.69231
-412.69221
-412.69154
-412.69025
-412.68833
-412.68578
-412.1085
-412.19065
-412.79772
-412.69287
-412.69112
-412.69097
-412.69025
-412.68891
-412.68694
-412.68436
-412.10716
-412.18923
-412.79602
-412.69112
-412.6893
-412.6891
-412.68833
-412.68694
-412.68493
-412.6823
-412.10523
-412.18737
-412.79374
-412.68875
-412.68685
-412.68659
-412.68578
-412.68436
-412.6823
-412.6796
-412.10269
-411.86833
-412.18526
-412.11156
-412.10961
-412.10929
-412.1085
-412.10716
-412.10523
-412.10269
-411.4036
-404.98974
-405.8018
-405.67004
-405.66706
-405.66713
-405.66674
-405.66583
-405.66441
-405.66256
-405.3412
-405.8018
-406.38136
-406.27385
-406.27218
-406.27224
-406.27173
-406.27062
-406.26892
-406.26665
-405.65529
-405.67004
-406.27385
-406.16904
-406.16744
-406.16746
-406.16693
-406.16579
-406.16404
-406.16168
-405.58178
-405.66706
-406.27218
-406.16744
-406.1658
-406.16578
-406.1652
-406.164
-406.16219
-406.15976
-405.5798
-405.66713
-406.27224
-406.16746
-406.16578
-406.16572
-406.16509
-406.16384
-406.16198
-406.15949
-405.57948
-405.66674
-406.27173
-406.16693
-406.1652
-406.16509
-406.1644
-406.16311
-406.1612
-406.15867
-405.57868
-405.66583
-406.27062
-406.16579
-406.164
-406.16384
-406.16311
-406.16177
-406.15982
-406.15725
-405.57734
-405.66441
-406.26892
-406.16404
-406.16219
-406.16198
-406.1612
-406.15982
-406.15782
-406.1552
-405.57543
-405.66256
-406.26665
-406.16168
-406.15976
-406.15949
-406.15867
-406.15725
-406.1552
-406.15252
-405.57291
-405.3412
-405.65529
-405.58178
-405.5798
-405.57948
-405.57868
-405.57734
-405.57543
-405.57291
-404.87001
-398.61174
-399.41607
-399.28513
-399.28213
-399.28219
-399.28179
-399.28088
-399.27948
-399.27765
-398.95601
-399.41607
-399.98975
-399.88291
-399.88122
-399.88126
-399.88075
-399.87964
-399.87796
-399.87572
-399.26532
-399.28513
-399.88291
-399.77877
-399.77715
-399.77716
-399.77662
-399.77548
-399.77376
-399.77142
-399.19245
-399.28213
-399.88122
-399.77715
-399.7755
-399.77546
-399.77487
-399.77369
-399.77189
-399.76949
-399.19047
-399.28219
-399.88126
-399.77716
-399.77546
-399.77538
-399.77475
-399.77351
-399.77166
-399.76921
-399.19014
-399.28179
-399.88075
-399.77662
-399.77487
-399.77475
-399.77406
-399.77278
-399.77089
-399.76839
-399.18934
-399.28088
-399.87964
-399.77548
-399.77369
-399.77351
-399.77278
-399.77145
-399.76951
-399.76698
-399.18802
-399.27948
-399.87796
-399.77376
-399.77189
-399.77166
-399.77089
-399.76951
-399.76753
-399.76495
-399.18613
-399.27765
-399.87572
-399.77142
-399.76949
-399.76921
-399.76839
-399.76698
-399.76495
-399.7623
-399.18364
-398.95601
-399.26532
-399.19245
-399.19047
-399.19014
-399.18934
-399.18802
-399.18613
-399.18364
-398.48136
-392.37273
-393.16439
-393.03507
-393.03208
-393.03212
-393.03172
-393.03082
-393.02944
-393.02764
-392.70773
-393.16439
-393.72866
-393.62316
-393.62146
-393.62149
-393.62097
-393.61987
-393.61822
-393.61601
-393.01038
-393.03507
-393.62316
-393.52034
-393.51871
-393.5187
-393.51816
-393.51704
-393.51534
-393.51304
-392.93861
-393.03208
-393.62146
-393.51871
-393.51705
-393.517
-393.51641
-393.51523
-393.51347
-393.51111
-392.93664
-393.03212
-393.62149
-393.5187
-393.517
-393.5169
-393.51627
-393.51504
-393.51323
-393.51082
-392.9363
-393.03172
-393.62097
-393.51816
-393.51641
-393.51627
-393.51559
-393.51432
-393.51246
-393.51001
-392.93551
-393.03082
-393.61987
-393.51704
-393.51523
-393.51504
-393.51432
-393.513
-393.5111
-393.50861
-392.9342
-393.02944
-393.61822
-393.51534
-393.51347
-393.51323
-393.51246
-393.5111
-393.50915
-393.50662
-392.93235
-393.02764
-393.61601
-393.51304
-393.51111
-393.51082
-393.51001
-393.50861
-393.50662
-393.50402
-392.92991
-392.70773
-393.01038
-392.93861
-392.93664
-392.9363
-392.93551
-392.9342
-392.93235
-392.92991
-392.23263
-386.26801
-387.04218
-386.91529
-386.91232
-386.91234
-386.91194
-386.91106
-386.90971
-386.90795
-386.59175
-387.04218
-387.59362
-387.49012
-387.48842
-387.48843
-387.48791
-387.48683
-387.48521
-387.48306
-386.88591
-386.91529
-387.49012
-387.38924
-387.38762
-387.38759
-387.38705
-387.38595
-387.38428
-387.38204
-386.81568
-386.91232
-387.48842
-387.38762
-387.38596
-387.3859
-387.38531
-387.38415
-387.38243
-387.38012
-386.81374
-386.91234
-387.48843
-387.38759
-387.3859
-387.38579
-387.38516
-387.38395
-387.38218
-387.37983
-386.81339
-386.91194
-387.48791
-387.38705
-387.38531
-387.38516
-387.38448
-387.38323
-387.38141
-387.37902
-386.81261
-386.91106
-387.48683
-387.38595
-387.38415
-387.38395
-387.38323
-387.38194
-387.38008
-387.37766
-386.81133
-386.90971
-387.48521
-387.38428
-387.38243
-387.38218
-387.38141
-387.38008
-387.37818
-387.37571
-386.80952
-386.90795
-387.48306
-387.38204
-387.38012
-387.37983
-387.37902
-387.37766
-387.37571
-387.37317
-386.80715
-386.59175
-386.88591
-386.81568
-386.81374
-386.81339
-386.81261
-386.81133
-386.80952
-386.80715
-386.11917
-380.29324
-381.04527
-380.92158
-380.91866
-380.91866
-380.91827
-380.9174
-380.91609
-380.91439
-380.60383
-381.04527
-381.58059
-381.47971
-381.47803
-381.47801
-381.4775
-381.47645
-381.47487
-381.47278
-380.88776
-380.92158
-381.47971
-381.38139
-381.37979
-381.37975
-381.37921
-381.37813
-381.37651
-381.37434
-380.8195
-380.91866
-381.47803
-381.37979
-381.37814
-381.37807
-381.37749
-381.37636
-381.37468
-381.37245
-380.81758
-380.91866
-381.47801
-381.37975
-381.37807
-381.37795
-381.37732
-381.37615
-381.37443
-381.37214
-380.81723
-380.91827
-381.4775
-381.37921
-381.37749
-381.37732
-381.37666
-381.37544
-381.37367
-381.37136
-380.81647
-380.9174
-381.47645
-381.37813
-381.37636
-381.37615
-381.37544
-381.37418
-381.37238
-381.37002
-380.81523
-380.91609
-381.47487
-381.37651
-381.37468
-381.37443
-381.37367
-381.37238
-381.37053
-381.36813
-380.81347
-380.91439
-381.47278
-381.37434
-381.37245
-381.37214
-381.37136
-381.37002
-381.36813
-381.36567
-380.81118
-380.60383
-380.88776
-380.8195
-380.81758
-380.81723
-380.81647
-380.81523
-380.81347
-380.81118
-380.1367
-374.44446
-375.16987
-375.05013
-375.04728
-375.04726
-375.04687
-375.04603
-375.04476
-375.04313
-374.74008
-375.16987
-375.6859
-375.58825
-375.58659
-375.58657
-375.58606
-375.58503
-375.58351
-375.5815
-375.01211
-375.05013
-375.58825
-375.4931
-375.49151
-375.49146
-375.49093
-375.48988
-375.48832
-375.48623
-374.94624
-375.04728
-375.58659
-375.49151
-375.4899
-375.48981
-375.48924
-375.48815
-375.48653
-375.48437
-374.94437
-375.04726
-375.58657
-375.49146
-375.48981
-375.48968
-375.48906
-375.48793
-375.48627
-375.48407
-374.94402
-375.04687
-375.58606
-375.49093
-375.48924
-375.48906
-375.48841
-375.48723
-375.48553
-375.4833
-374.94328
-375.04603
-375.58503
-375.48988
-375.48815
-375.48793
-375.48723
-375.48602
-375.48428
-375.48201
-374.94207
-375.04476
-375.58351
-375.48832
-375.48653
-375.48627
-375.48553
-375.48428
-375.48249
-375.48019
-374.94039
-375.04313
-375.5815
-375.48623
-375.48437
-375.48407
-375.4833
-375.48201
-375.48019
-375.47782
-374.93818
-374.74008
-375.01211
-374.94624
-374.94437
-374.94402
-374.94328
-374.94207
-374.94039
-374.93818
-374.28126
-368.718
-369.41252
-369.29746
-369.29468
-369.29466
-369.29427
-369.29346
-369.29225
-369.29068
-368.99696
-369.41252
-369.90625
-369.81242
-369.8108
-369.81076
-369.81026
-369.80927
-369.80781
-369.80589
-369.25551
-369.29746
-369.81242
-369.721
-369.71945
-369.71938
-369.71887
-369.71786
-369.71636
-369.71436
-369.19242
-369.29468
-369.8108
-369.71945
-369.71788
-369.71777
-369.71722
-369.71616
-369.71461
-369.71256
-369.19061
-369.29466
-369.81076
-369.71938
-369.71777
-369.71763
-369.71703
-369.71594
-369.71435
-369.71225
-369.19026
-369.29427
-369.81026
-369.71887
-369.71722
-369.71703
-369.7164
-369.71527
-369.71364
-369.7115
-369.18955
-369.29346
-369.80927
-369.71786
-369.71616
-369.71594
-369.71527
-369.7141
-369.71243
-369.71026
-369.18839
-369.29225
-369.80781
-369.71636
-369.71461
-369.71435
-369.71364
-369.71243
-369.71072
-369.70852
-369.18678
-369.29068
-369.80589
-369.71436
-369.71256
-369.71225
-369.7115
-369.71026
-369.70852
-369.70626
-369.18468
-368.99696
-369.25551
-369.19242
-369.19061
-369.19026
-369.18955
-369.18839
-369.18678
-369.18468
-368.54924
-363.1105
-363.77011
-363.6604
-363.65772
-363.65768
-363.65731
-363.65653
-363.65538
-363.65389
-363.37123
-363.77011
-364.23868
-364.14923
-364.14766
-364.1476
-364.14712
-364.14617
-364.14478
-364.14296
-363.61483
-363.6604
-364.14923
-364.06209
-364.06059
-364.06051
-364.06
-364.05904
-364.05762
-364.05572
-363.55489
-363.65772
-364.14766
-364.06059
-364.05906
-364.05894
-364.0584
-364.0574
-364.05593
-364.05397
-363.55315
-363.65768
-364.1476
-364.06051
-364.05894
-364.05879
-364.05822
-364.05718
-364.05566
-364.05367
-363.55281
-363.65731
-364.14712
-364.06
-364.0584
-364.05822
-364.05761
-364.05653
-364.05498
-364.05295
-363.55212
-363.65653
-364.14617
-364.05904
-364.0574
-364.05718
-364.05653
-364.05541
-364.05382
-364.05177
-363.55102
-363.65538
-364.14478
-364.05762
-364.05593
-364.05566
-364.05498
-364.05382
-364.0522
-364.05011
-363.5495
-363.65389
-364.14296