/*--------------------------------*- C++ -*----------------------------------*\
| =========                 |                                                 |
| \\      /  F ield         | OpenFOAM: The Open Source CFD Toolbox           |
|  \\    /   O peration     | Version:  v2106                                 |
|   \\  /    A nd           | Website:  www.openfoam.com                      |
|    \\/     M anipulation  |                                                 |
\*---------------------------------------------------------------------------*/
FoamFile
{
    version     2.0;
    format      ascii;
    arch        "LSB;label=32;scalar=64";
    class       volScalarField;
    location    "5";
    object      DT;
}
// * * * * * * * * * * * * * * * * * * * * * * * * * * * * * * * * * * * * * //

dimensions      [0 2 -1 0 0 0 0];

internalField   nonuniform List<scalar> 
4000
(
0.00055432911
0.00055432911
0.00055432915
0.00055432913
0.00055432913
0.00055432913
0.00055432913
0.00055432913
0.00055432912
0.00055432912
0.00055432911
0.00055432914
0.00055432916
0.00055432915
0.00055432914
0.00055432914
0.00055432914
0.00055432914
0.00055432914
0.00055432913
0.00055432915
0.00055432916
0.00055432917
0.00055432916
0.00055432916
0.00055432916
0.00055432916
0.00055432916
0.00055432915
0.00055432914
0.00055432913
0.00055432915
0.00055432916
0.00055432915
0.00055432915
0.00055432915
0.00055432915
0.00055432915
0.00055432915
0.00055432914
0.00055432913
0.00055432914
0.00055432916
0.00055432915
0.00055432915
0.00055432915
0.00055432915
0.00055432915
0.00055432915
0.00055432914
0.00055432913
0.00055432914
0.00055432916
0.00055432915
0.00055432915
0.00055432915
0.00055432915
0.00055432915
0.00055432915
0.00055432914
0.00055432913
0.00055432914
0.00055432916
0.00055432915
0.00055432915
0.00055432915
0.00055432915
0.00055432915
0.00055432915
0.00055432914
0.00055432913
0.00055432914
0.00055432916
0.00055432915
0.00055432915
0.00055432915
0.00055432915
0.00055432915
0.00055432915
0.00055432914
0.00055432912
0.00055432914
0.00055432915
0.00055432915
0.00055432915
0.00055432915
0.00055432915
0.00055432915
0.00055432914
0.00055432914
0.00055432912
0.00055432913
0.00055432914
0.00055432914
0.00055432914
0.00055432914
0.00055432914
0.00055432914
0.00055432914
0.00055432913
0.00062480064
0.00062480067
0.0006248009
0.00062480083
0.0006248008
0.00062480079
0.00062480078
0.00062480077
0.00062480074
0.00062480073
0.00062480067
0.00062480084
0.00062480097
0.0006248009
0.00062480087
0.00062480087
0.00062480086
0.00062480084
0.0006248008
0.00062480076
0.0006248009
0.00062480097
0.00062480108
0.00062480101
0.00062480099
0.00062480098
0.00062480098
0.00062480097
0.00062480092
0.00062480084
0.00062480083
0.0006248009
0.00062480101
0.00062480095
0.00062480093
0.00062480092
0.00062480093
0.00062480093
0.00062480089
0.00062480083
0.0006248008
0.00062480087
0.00062480099
0.00062480093
0.0006248009
0.0006248009
0.00062480091
0.00062480091
0.00062480088
0.00062480082
0.00062480079
0.00062480087
0.00062480098
0.00062480092
0.0006248009
0.0006248009
0.00062480091
0.00062480091
0.00062480088
0.00062480083
0.00062480078
0.00062480086
0.00062480098
0.00062480093
0.00062480091
0.00062480091
0.00062480092
0.00062480092
0.00062480089
0.00062480083
0.00062480077
0.00062480084
0.00062480097
0.00062480093
0.00062480091
0.00062480091
0.00062480092
0.00062480092
0.00062480089
0.00062480083
0.00062480074
0.0006248008
0.00062480092
0.00062480089
0.00062480088
0.00062480088
0.00062480089
0.00062480089
0.00062480085
0.00062480079
0.00062480073
0.00062480076
0.00062480084
0.00062480083
0.00062480082
0.00062480083
0.00062480083
0.00062480083
0.00062480079
0.00062480073
0.00068699543
0.00068699552
0.00068699578
0.00068699567
0.00068699562
0.0006869956
0.0006869956
0.00068699558
0.00068699553
0.00068699551
0.00068699552
0.00068699576
0.00068699589
0.00068699578
0.00068699574
0.00068699573
0.00068699573
0.0006869957
0.00068699561
0.00068699554
0.00068699578
0.00068699589
0.00068699601
0.0006869959
0.00068699586
0.00068699585
0.00068699586
0.00068699586
0.00068699576
0.00068699563
0.00068699567
0.00068699578
0.0006869959
0.00068699579
0.00068699575
0.00068699575
0.00068699577
0.00068699578
0.00068699571
0.00068699561
0.00068699562
0.00068699574
0.00068699586
0.00068699575
0.00068699572
0.00068699572
0.00068699574
0.00068699576
0.00068699569
0.0006869956
0.0006869956
0.00068699573
0.00068699585
0.00068699575
0.00068699572
0.00068699573
0.00068699575
0.00068699577
0.0006869957
0.00068699561
0.0006869956
0.00068699573
0.00068699586
0.00068699577
0.00068699574
0.00068699575
0.00068699577
0.00068699579
0.00068699572
0.00068699563
0.00068699558
0.0006869957
0.00068699586
0.00068699578
0.00068699576
0.00068699577
0.00068699579
0.0006869958
0.00068699573
0.00068699563
0.00068699553
0.00068699561
0.00068699576
0.00068699571
0.00068699569
0.0006869957
0.00068699572
0.00068699573
0.00068699565
0.00068699555
0.00068699551
0.00068699554
0.00068699563
0.00068699561
0.0006869956
0.00068699561
0.00068699563
0.00068699563
0.00068699555
0.00068699546
0.00074232531
0.0007423254
0.00074232565
0.00074232549
0.00074232542
0.00074232541
0.00074232542
0.0007423254
0.00074232533
0.0007423253
0.0007423254
0.00074232564
0.00074232574
0.00074232559
0.00074232553
0.00074232553
0.00074232554
0.00074232554
0.0007423254
0.0007423253
0.00074232565
0.00074232574
0.00074232583
0.00074232568
0.00074232563
0.00074232564
0.00074232567
0.00074232569
0.00074232555
0.00074232539
0.00074232549
0.00074232559
0.00074232568
0.00074232554
0.00074232549
0.0007423255
0.00074232554
0.00074232558
0.00074232549
0.00074232536
0.00074232542
0.00074232553
0.00074232563
0.00074232549
0.00074232545
0.00074232546
0.0007423255
0.00074232555
0.00074232547
0.00074232535
0.00074232541
0.00074232553
0.00074232564
0.0007423255
0.00074232546
0.00074232547
0.00074232551
0.00074232557
0.00074232548
0.00074232537
0.00074232542
0.00074232554
0.00074232567
0.00074232554
0.0007423255
0.00074232551
0.00074232556
0.00074232561
0.00074232552
0.0007423254
0.0007423254
0.00074232554
0.00074232569
0.00074232558
0.00074232555
0.00074232557
0.00074232561
0.00074232565
0.00074232556
0.00074232543
0.00074232533
0.0007423254
0.00074232555
0.00074232549
0.00074232547
0.00074232548
0.00074232552
0.00074232556
0.00074232545
0.0007423253
0.0007423253
0.0007423253
0.00074232539
0.00074232536
0.00074232535
0.00074232537
0.0007423254
0.00074232543
0.0007423253
0.0007423252
0.00079174455
0.0007917446
0.00079174482
0.00079174461
0.00079174455
0.00079174454
0.00079174457
0.00079174458
0.0007917445
0.00079174447
0.0007917446
0.00079174481
0.00079174487
0.00079174468
0.00079174462
0.00079174463
0.00079174467
0.0007917447
0.00079174456
0.00079174445
0.00079174482
0.00079174487
0.00079174492
0.00079174474
0.00079174469
0.0007917447
0.00079174476
0.00079174483
0.0007917447
0.00079174453
0.00079174461
0.00079174468
0.00079174474
0.00079174456
0.00079174451
0.00079174453
0.0007917446
0.0007917447
0.00079174461
0.00079174449
0.00079174455
0.00079174462
0.00079174469
0.00079174451
0.00079174447
0.00079174449
0.00079174456
0.00079174466
0.00079174459
0.00079174447
0.00079174454
0.00079174463
0.0007917447
0.00079174453
0.00079174449
0.00079174451
0.00079174458
0.00079174468
0.00079174461
0.0007917445
0.00079174457
0.00079174467
0.00079174476
0.0007917446
0.00079174456
0.00079174458
0.00079174465
0.00079174475
0.00079174468
0.00079174456
0.00079174458
0.0007917447
0.00079174483
0.0007917447
0.00079174466
0.00079174468
0.00079174475
0.00079174485
0.00079174476
0.00079174463
0.0007917445
0.00079174456
0.0007917447
0.00079174461
0.00079174459
0.00079174461
0.00079174468
0.00079174476
0.00079174464
0.00079174447
0.00079174447
0.00079174445
0.00079174453
0.00079174449
0.00079174447
0.0007917445
0.00079174456
0.00079174463
0.00079174447
0.00079174438
0.00083595329
0.0008359533
0.00083595348
0.00083595324
0.00083595317
0.00083595318
0.00083595323
0.00083595327
0.00083595322
0.00083595321
0.0008359533
0.00083595346
0.00083595348
0.00083595327
0.00083595321
0.00083595323
0.0008359533
0.00083595337
0.00083595325
0.00083595316
0.00083595348
0.00083595348
0.0008359535
0.00083595329
0.00083595324
0.00083595327
0.00083595336
0.00083595348
0.00083595337
0.00083595323
0.00083595324
0.00083595327
0.00083595329
0.00083595309
0.00083595304
0.00083595308
0.00083595317
0.00083595333
0.00083595327
0.00083595317
0.00083595317
0.00083595321
0.00083595324
0.00083595304
0.000835953
0.00083595303
0.00083595313
0.00083595329
0.00083595325
0.00083595315
0.00083595318
0.00083595323
0.00083595327
0.00083595308
0.00083595303
0.00083595306
0.00083595316
0.00083595332
0.00083595328
0.00083595319
0.00083595323
0.0008359533
0.00083595336
0.00083595317
0.00083595313
0.00083595316
0.00083595326
0.00083595341
0.00083595337
0.00083595327
0.00083595327
0.00083595337
0.00083595348
0.00083595333
0.00083595329
0.00083595332
0.00083595341
0.00083595356
0.0008359535
0.00083595339
0.00083595322
0.00083595325
0.00083595337
0.00083595327
0.00083595325
0.00083595328
0.00083595337
0.0008359535
0.00083595341
0.00083595322
0.00083595321
0.00083595316
0.00083595323
0.00083595317
0.00083595315
0.00083595319
0.00083595327
0.00083595339
0.00083595322
0.00083595316
0.00087549869
0.00087549866
0.0008754988
0.00087549854
0.00087549848
0.0008754985
0.00087549858
0.00087549865
0.00087549863
0.00087549865
0.00087549866
0.00087549878
0.00087549876
0.00087549853
0.00087549848
0.00087549852
0.00087549861
0.00087549872
0.00087549864
0.00087549857
0.0008754988
0.00087549876
0.00087549875
0.00087549853
0.00087549849
0.00087549853
0.00087549864
0.00087549881
0.00087549875
0.00087549862
0.00087549854
0.00087549853
0.00087549853
0.00087549832
0.00087549828
0.00087549832
0.00087549844
0.00087549864
0.00087549863
0.00087549856
0.00087549848
0.00087549848
0.00087549849
0.00087549828
0.00087549824
0.00087549828
0.0008754984
0.0008754986
0.0008754986
0.00087549854
0.0008754985
0.00087549852
0.00087549853
0.00087549832
0.00087549828
0.00087549832
0.00087549844
0.00087549864
0.00087549864
0.00087549858
0.00087549858
0.00087549861
0.00087549864
0.00087549844
0.0008754984
0.00087549844
0.00087549855
0.00087549875
0.00087549875
0.00087549869
0.00087549865
0.00087549872
0.00087549881
0.00087549864
0.0008754986
0.00087549864
0.00087549875
0.00087549895
0.00087549893
0.00087549885
0.00087549863
0.00087549864
0.00087549875
0.00087549863
0.0008754986
0.00087549864
0.00087549875
0.00087549893
0.00087549887
0.0008754987
0.00087549865
0.00087549857
0.00087549862
0.00087549856
0.00087549854
0.00087549858
0.00087549869
0.00087549885
0.0008754987
0.00087549866
0.00091083013
0.00091083006
0.00091083018
0.00091082992
0.00091082986
0.0009108299
0.00091082999
0.0009108301
0.00091083011
0.00091083015
0.00091083006
0.00091083015
0.00091083011
0.00091082988
0.00091082984
0.00091082989
0.00091082999
0.00091083014
0.00091083009
0.00091083005
0.00091083018
0.00091083011
0.00091083009
0.00091082987
0.00091082983
0.00091082988
0.00091083001
0.00091083021
0.00091083019
0.0009108301
0.00091082992
0.00091082988
0.00091082987
0.00091082965
0.00091082962
0.00091082967
0.0009108298
0.00091083004
0.00091083007
0.00091083002
0.00091082986
0.00091082984
0.00091082983
0.00091082962
0.00091082958
0.00091082963
0.00091082976
0.00091083
0.00091083004
0.00091083
0.0009108299
0.00091082989
0.00091082988
0.00091082967
0.00091082963
0.00091082967
0.0009108298
0.00091083004
0.00091083007
0.00091083004
0.00091082999
0.00091082999
0.00091083001
0.0009108298
0.00091082976
0.0009108298
0.00091082993
0.00091083016
0.0009108302
0.00091083017
0.0009108301
0.00091083014
0.00091083021
0.00091083004
0.00091083
0.00091083004
0.00091083016
0.00091083039
0.00091083042
0.00091083037
0.00091083011
0.00091083009
0.00091083019
0.00091083007
0.00091083004
0.00091083007
0.0009108302
0.00091083042
0.00091083039
0.00091083023
0.00091083015
0.00091083005
0.0009108301
0.00091083002
0.00091083
0.00091083004
0.00091083017
0.00091083037
0.00091083023
0.00091083022
0.00094233145
0.00094233136
0.00094233146
0.0009423312
0.00094233116
0.00094233121
0.00094233131
0.00094233143
0.00094233147
0.00094233153
0.00094233136
0.00094233142
0.00094233138
0.00094233115
0.00094233112
0.00094233117
0.00094233129
0.00094233146
0.00094233144
0.00094233142
0.00094233146
0.00094233138
0.00094233134
0.00094233113
0.0009423311
0.00094233116
0.00094233129
0.00094233152
0.00094233152
0.00094233146
0.0009423312
0.00094233115
0.00094233113
0.00094233093
0.0009423309
0.00094233095
0.00094233109
0.00094233135
0.0009423314
0.00094233138
0.00094233116
0.00094233112
0.0009423311
0.0009423309
0.00094233087
0.00094233092
0.00094233105
0.00094233131
0.00094233137
0.00094233136
0.00094233121
0.00094233117
0.00094233116
0.00094233095
0.00094233092
0.00094233096
0.00094233109
0.00094233134
0.0009423314
0.00094233139
0.00094233131
0.00094233129
0.00094233129
0.00094233109
0.00094233105
0.00094233109
0.00094233121
0.00094233146
0.00094233152
0.00094233152
0.00094233143
0.00094233146
0.00094233152
0.00094233135
0.00094233131
0.00094233134
0.00094233146
0.00094233172
0.00094233177
0.00094233175
0.00094233147
0.00094233144
0.00094233152
0.0009423314
0.00094233137
0.0009423314
0.00094233152
0.00094233177
0.00094233177
0.00094233163
0.00094233153
0.00094233142
0.00094233146
0.00094233138
0.00094233136
0.00094233139
0.00094233152
0.00094233175
0.00094233163
0.00094233165
0.00097034065
0.00097034055
0.00097034064
0.0009703404
0.00097034036
0.00097034042
0.00097034052
0.00097034066
0.00097034071
0.00097034079
0.00097034055
0.0009703406
0.00097034055
0.00097034034
0.00097034032
0.00097034038
0.0009703405
0.00097034068
0.00097034067
0.00097034067
0.00097034064
0.00097034055
0.00097034052
0.00097034032
0.00097034031
0.00097034036
0.00097034049
0.00097034073
0.00097034075
0.0009703407
0.0009703404
0.00097034034
0.00097034032
0.00097034013
0.00097034012
0.00097034017
0.0009703403
0.00097034056
0.00097034062
0.00097034062
0.00097034036
0.00097034032
0.00097034031
0.00097034012
0.00097034009
0.00097034013
0.00097034026
0.00097034052
0.00097034059
0.00097034059
0.00097034042
0.00097034038
0.00097034036
0.00097034017
0.00097034013
0.00097034017
0.00097034029
0.00097034054
0.00097034061
0.00097034062
0.00097034052
0.0009703405
0.00097034049
0.0009703403
0.00097034026
0.00097034029
0.0009703404
0.00097034065
0.00097034073
0.00097034075
0.00097034066
0.00097034068
0.00097034073
0.00097034056
0.00097034052
0.00097034054
0.00097034065
0.00097034091
0.00097034098
0.00097034099
0.00097034071
0.00097034067
0.00097034075
0.00097034062
0.00097034059
0.00097034061
0.00097034073
0.00097034098
0.00097034101
0.00097034088
0.00097034079
0.00097034067
0.0009703407
0.00097034062
0.00097034059
0.00097034062
0.00097034075
0.00097034099
0.00097034088
0.00097034091
0.00099516238
0.00099516228
0.00099516237
0.00099516214
0.00099516212
0.00099516218
0.00099516228
0.00099516241
0.00099516246
0.00099516255
0.00099516228
0.00099516232
0.00099516228
0.00099516209
0.00099516208
0.00099516214
0.00099516225
0.00099516243
0.00099516242
0.00099516243
0.00099516237
0.00099516228
0.00099516226
0.00099516208
0.00099516207
0.00099516212
0.00099516224
0.00099516247
0.00099516249
0.00099516246
0.00099516214
0.00099516209
0.00099516208
0.00099516191
0.0009951619
0.00099516194
0.00099516205
0.00099516231
0.00099516237
0.00099516238
0.00099516212
0.00099516208
0.00099516207
0.0009951619
0.00099516188
0.00099516191
0.00099516201
0.00099516226
0.00099516233
0.00099516235
0.00099516218
0.00099516214
0.00099516212
0.00099516194
0.00099516191
0.00099516193
0.00099516203
0.00099516227
0.00099516234
0.00099516236
0.00099516228
0.00099516225
0.00099516224
0.00099516205
0.00099516201
0.00099516203
0.00099516213
0.00099516237
0.00099516244
0.00099516247
0.00099516241
0.00099516243
0.00099516247
0.00099516231
0.00099516226
0.00099516227
0.00099516237
0.00099516262
0.00099516269
0.00099516271
0.00099516246
0.00099516242
0.00099516249
0.00099516237
0.00099516233
0.00099516234
0.00099516244
0.00099516269
0.00099516273
0.00099516261
0.00099516255
0.00099516243
0.00099516246
0.00099516238
0.00099516235
0.00099516236
0.00099516247
0.00099516271
0.00099516261
0.00099516266
0.001017076
0.0010170759
0.001017076
0.0010170758
0.0010170757
0.0010170758
0.0010170759
0.001017076
0.0010170761
0.0010170761
0.0010170759
0.0010170759
0.0010170759
0.0010170757
0.0010170757
0.0010170758
0.0010170759
0.001017076
0.001017076
0.001017076
0.001017076
0.0010170759
0.0010170759
0.0010170757
0.0010170757
0.0010170758
0.0010170759
0.0010170761
0.0010170761
0.001017076
0.0010170758
0.0010170757
0.0010170757
0.0010170756
0.0010170756
0.0010170756
0.0010170757
0.0010170759
0.001017076
0.001017076
0.0010170757
0.0010170757
0.0010170757
0.0010170756
0.0010170755
0.0010170756
0.0010170756
0.0010170759
0.0010170759
0.0010170759
0.0010170758
0.0010170758
0.0010170758
0.0010170756
0.0010170756
0.0010170756
0.0010170756
0.0010170759
0.0010170759
0.0010170759
0.0010170759
0.0010170759
0.0010170759
0.0010170757
0.0010170756
0.0010170756
0.0010170757
0.0010170759
0.001017076
0.001017076
0.001017076
0.001017076
0.0010170761
0.0010170759
0.0010170759
0.0010170759
0.0010170759
0.0010170762
0.0010170762
0.0010170763
0.0010170761
0.001017076
0.0010170761
0.001017076
0.0010170759
0.0010170759
0.001017076
0.0010170762
0.0010170763
0.0010170762
0.0010170761
0.001017076
0.001017076
0.001017076
0.0010170759
0.0010170759
0.001017076
0.0010170763
0.0010170762
0.0010170762
0.0010363406
0.0010363406
0.0010363406
0.0010363405
0.0010363405
0.0010363405
0.0010363406
0.0010363407
0.0010363407
0.0010363408
0.0010363406
0.0010363406
0.0010363406
0.0010363404
0.0010363404
0.0010363405
0.0010363406
0.0010363407
0.0010363407
0.0010363407
0.0010363406
0.0010363406
0.0010363406
0.0010363404
0.0010363404
0.0010363405
0.0010363406
0.0010363407
0.0010363407
0.0010363407
0.0010363405
0.0010363404
0.0010363404
0.0010363403
0.0010363403
0.0010363403
0.0010363404
0.0010363406
0.0010363406
0.0010363406
0.0010363405
0.0010363404
0.0010363404
0.0010363403
0.0010363403
0.0010363403
0.0010363403
0.0010363405
0.0010363406
0.0010363406
0.0010363405
0.0010363405
0.0010363405
0.0010363403
0.0010363403
0.0010363403
0.0010363403
0.0010363405
0.0010363406
0.0010363406
0.0010363406
0.0010363406
0.0010363406
0.0010363404
0.0010363403
0.0010363403
0.0010363404
0.0010363406
0.0010363406
0.0010363406
0.0010363407
0.0010363407
0.0010363407
0.0010363406
0.0010363405
0.0010363405
0.0010363406
0.0010363408
0.0010363408
0.0010363409
0.0010363407
0.0010363407
0.0010363407
0.0010363406
0.0010363406
0.0010363406
0.0010363406
0.0010363408
0.0010363409
0.0010363407
0.0010363408
0.0010363407
0.0010363407
0.0010363406
0.0010363406
0.0010363406
0.0010363406
0.0010363409
0.0010363407
0.0010363408
0.0010531989
0.0010531988
0.0010531989
0.0010531988
0.0010531988
0.0010531988
0.0010531989
0.0010531989
0.001053199
0.001053199
0.0010531988
0.0010531989
0.0010531989
0.0010531988
0.0010531988
0.0010531988
0.0010531988
0.001053199
0.0010531989
0.0010531989
0.0010531989
0.0010531989
0.0010531989
0.0010531988
0.0010531988
0.0010531988
0.0010531989
0.001053199
0.001053199
0.001053199
0.0010531988
0.0010531988
0.0010531988
0.0010531987
0.0010531987
0.0010531987
0.0010531987
0.0010531989
0.0010531989
0.0010531989
0.0010531988
0.0010531988
0.0010531988
0.0010531987
0.0010531986
0.0010531986
0.0010531987
0.0010531988
0.0010531988
0.0010531988
0.0010531988
0.0010531988
0.0010531988
0.0010531987
0.0010531986
0.0010531986
0.0010531986
0.0010531988
0.0010531988
0.0010531988
0.0010531989
0.0010531988
0.0010531989
0.0010531987
0.0010531987
0.0010531986
0.0010531986
0.0010531988
0.0010531988
0.0010531988
0.0010531989
0.001053199
0.001053199
0.0010531989
0.0010531988
0.0010531988
0.0010531988
0.001053199
0.001053199
0.001053199
0.001053199
0.0010531989
0.001053199
0.0010531989
0.0010531988
0.0010531988
0.0010531988
0.001053199
0.001053199
0.0010531989
0.001053199
0.0010531989
0.001053199
0.0010531989
0.0010531988
0.0010531988
0.0010531988
0.001053199
0.0010531989
0.001053199
0.0010678787
0.0010678786
0.0010678787
0.0010678786
0.0010678786
0.0010678786
0.0010678786
0.0010678787
0.0010678787
0.0010678788
0.0010678786
0.0010678787
0.0010678787
0.0010678786
0.0010678786
0.0010678786
0.0010678786
0.0010678787
0.0010678787
0.0010678787
0.0010678787
0.0010678787
0.0010678787
0.0010678786
0.0010678786
0.0010678786
0.0010678786
0.0010678788
0.0010678787
0.0010678787
0.0010678786
0.0010678786
0.0010678786
0.0010678785
0.0010678785
0.0010678785
0.0010678785
0.0010678786
0.0010678786
0.0010678786
0.0010678786
0.0010678786
0.0010678786
0.0010678785
0.0010678785
0.0010678785
0.0010678785
0.0010678786
0.0010678786
0.0010678786
0.0010678786
0.0010678786
0.0010678786
0.0010678785
0.0010678785
0.0010678784
0.0010678784
0.0010678785
0.0010678785
0.0010678785
0.0010678786
0.0010678786
0.0010678786
0.0010678785
0.0010678785
0.0010678784
0.0010678784
0.0010678785
0.0010678785
0.0010678785
0.0010678787
0.0010678787
0.0010678788
0.0010678786
0.0010678786
0.0010678785
0.0010678785
0.0010678786
0.0010678787
0.0010678787
0.0010678787
0.0010678787
0.0010678787
0.0010678786
0.0010678786
0.0010678785
0.0010678785
0.0010678787
0.0010678787
0.0010678786
0.0010678788
0.0010678787
0.0010678787
0.0010678786
0.0010678786
0.0010678785
0.0010678785
0.0010678787
0.0010678786
0.0010678786
0.0010805945
0.0010805945
0.0010805946
0.0010805945
0.0010805945
0.0010805945
0.0010805945
0.0010805945
0.0010805945
0.0010805946
0.0010805945
0.0010805945
0.0010805946
0.0010805945
0.0010805945
0.0010805945
0.0010805945
0.0010805946
0.0010805945
0.0010805945
0.0010805946
0.0010805946
0.0010805946
0.0010805945
0.0010805945
0.0010805945
0.0010805945
0.0010805946
0.0010805946
0.0010805945
0.0010805945
0.0010805945
0.0010805945
0.0010805944
0.0010805944
0.0010805944
0.0010805944
0.0010805945
0.0010805945
0.0010805944
0.0010805945
0.0010805945
0.0010805945
0.0010805944
0.0010805944
0.0010805944
0.0010805943
0.0010805944
0.0010805944
0.0010805944
0.0010805945
0.0010805945
0.0010805945
0.0010805944
0.0010805944
0.0010805943
0.0010805943
0.0010805943
0.0010805943
0.0010805943
0.0010805945
0.0010805945
0.0010805945
0.0010805944
0.0010805943
0.0010805943
0.0010805942
0.0010805943
0.0010805943
0.0010805943
0.0010805945
0.0010805946
0.0010805946
0.0010805945
0.0010805944
0.0010805943
0.0010805943
0.0010805944
0.0010805944
0.0010805944
0.0010805945
0.0010805945
0.0010805946
0.0010805945
0.0010805944
0.0010805943
0.0010805943
0.0010805944
0.0010805944
0.0010805943
0.0010805946
0.0010805945
0.0010805945
0.0010805944
0.0010805944
0.0010805943
0.0010805943
0.0010805944
0.0010805943
0.0010805943
0.0010915484
0.0010915484
0.0010915484
0.0010915483
0.0010915483
0.0010915483
0.0010915483
0.0010915484
0.0010915483
0.0010915484
0.0010915484
0.0010915484
0.0010915484
0.0010915484
0.0010915484
0.0010915484
0.0010915483
0.0010915484
0.0010915483
0.0010915483
0.0010915484
0.0010915484
0.0010915485
0.0010915484
0.0010915484
0.0010915484
0.0010915484
0.0010915484
0.0010915484
0.0010915483
0.0010915483
0.0010915484
0.0010915484
0.0010915483
0.0010915483
0.0010915483
0.0010915482
0.0010915483
0.0010915483
0.0010915482
0.0010915483
0.0010915484
0.0010915484
0.0010915483
0.0010915483
0.0010915482
0.0010915482
0.0010915482
0.0010915482
0.0010915481
0.0010915483
0.0010915484
0.0010915484
0.0010915483
0.0010915482
0.0010915482
0.0010915481
0.0010915482
0.0010915481
0.0010915481
0.0010915483
0.0010915483
0.0010915484
0.0010915482
0.0010915482
0.0010915481
0.001091548
0.0010915481
0.0010915481
0.001091548
0.0010915484
0.0010915484
0.0010915484
0.0010915483
0.0010915482
0.0010915482
0.0010915481
0.0010915482
0.0010915482
0.0010915481
0.0010915483
0.0010915483
0.0010915484
0.0010915483
0.0010915482
0.0010915481
0.0010915481
0.0010915482
0.0010915481
0.001091548
0.0010915484
0.0010915483
0.0010915483
0.0010915482
0.0010915481
0.0010915481
0.001091548
0.0010915481
0.001091548
0.001091548
0.0011009298
0.0011009298
0.0011009299
0.0011009298
0.0011009298
0.0011009298
0.0011009298
0.0011009298
0.0011009297
0.0011009297
0.0011009298
0.0011009298
0.0011009299
0.0011009298
0.0011009298
0.0011009298
0.0011009298
0.0011009298
0.0011009297
0.0011009297
0.0011009299
0.0011009299
0.0011009299
0.0011009299
0.0011009298
0.0011009298
0.0011009298
0.0011009298
0.0011009297
0.0011009297
0.0011009298
0.0011009298
0.0011009299
0.0011009298
0.0011009298
0.0011009297
0.0011009297
0.0011009297
0.0011009297
0.0011009296
0.0011009298
0.0011009298
0.0011009298
0.0011009298
0.0011009297
0.0011009297
0.0011009296
0.0011009296
0.0011009296
0.0011009295
0.0011009298
0.0011009298
0.0011009298
0.0011009297
0.0011009297
0.0011009296
0.0011009295
0.0011009295
0.0011009295
0.0011009294
0.0011009298
0.0011009298
0.0011009298
0.0011009297
0.0011009296
0.0011009295
0.0011009294
0.0011009295
0.0011009294
0.0011009294
0.0011009298
0.0011009298
0.0011009298
0.0011009297
0.0011009296
0.0011009295
0.0011009295
0.0011009295
0.0011009295
0.0011009295
0.0011009297
0.0011009297
0.0011009297
0.0011009297
0.0011009296
0.0011009295
0.0011009294
0.0011009295
0.0011009294
0.0011009293
0.0011009297
0.0011009297
0.0011009297
0.0011009296
0.0011009295
0.0011009294
0.0011009294
0.0011009295
0.0011009293
0.0011009294
0.0011089161
0.0011089161
0.0011089162
0.0011089161
0.0011089161
0.0011089161
0.0011089161
0.0011089161
0.001108916
0.001108916
0.0011089161
0.0011089162
0.0011089162
0.0011089162
0.0011089162
0.0011089161
0.0011089161
0.0011089161
0.001108916
0.001108916
0.0011089162
0.0011089162
0.0011089163
0.0011089162
0.0011089162
0.0011089161
0.0011089161
0.0011089161
0.001108916
0.001108916
0.0011089161
0.0011089162
0.0011089162
0.0011089162
0.0011089161
0.0011089161
0.001108916
0.001108916
0.001108916
0.0011089159
0.0011089161
0.0011089162
0.0011089162
0.0011089161
0.0011089161
0.001108916
0.0011089159
0.0011089159
0.0011089159
0.0011089158
0.0011089161
0.0011089161
0.0011089161
0.0011089161
0.001108916
0.0011089159
0.0011089159
0.0011089158
0.0011089158
0.0011089157
0.0011089161
0.0011089161
0.0011089161
0.001108916
0.0011089159
0.0011089159
0.0011089158
0.0011089158
0.0011089157
0.0011089157
0.0011089161
0.0011089161
0.0011089161
0.001108916
0.0011089159
0.0011089158
0.0011089158
0.0011089158
0.0011089157
0.0011089157
0.001108916
0.001108916
0.001108916
0.001108916
0.0011089159
0.0011089158
0.0011089157
0.0011089157
0.0011089157
0.0011089156
0.001108916
0.001108916
0.001108916
0.0011089159
0.0011089158
0.0011089157
0.0011089157
0.0011089157
0.0011089156
0.0011089156
0.0011156724
0.0011156724
0.0011156725
0.0011156724
0.0011156724
0.0011156724
0.0011156723
0.0011156723
0.0011156722
0.0011156722
0.0011156724
0.0011156725
0.0011156725
0.0011156724
0.0011156724
0.0011156724
0.0011156723
0.0011156723
0.0011156722
0.0011156722
0.0011156725
0.0011156725
0.0011156725
0.0011156725
0.0011156725
0.0011156724
0.0011156724
0.0011156724
0.0011156723
0.0011156722
0.0011156724
0.0011156724
0.0011156725
0.0011156724
0.0011156724
0.0011156723
0.0011156723
0.0011156723
0.0011156722
0.0011156721
0.0011156724
0.0011156724
0.0011156725
0.0011156724
0.0011156724
0.0011156723
0.0011156722
0.0011156722
0.0011156721
0.001115672
0.0011156724
0.0011156724
0.0011156724
0.0011156723
0.0011156723
0.0011156722
0.0011156721
0.0011156721
0.001115672
0.0011156719
0.0011156723
0.0011156723
0.0011156724
0.0011156723
0.0011156722
0.0011156721
0.001115672
0.001115672
0.0011156719
0.0011156719
0.0011156723
0.0011156723
0.0011156724
0.0011156723
0.0011156722
0.0011156721
0.001115672
0.001115672
0.0011156719
0.0011156719
0.0011156722
0.0011156722
0.0011156723
0.0011156722
0.0011156721
0.001115672
0.0011156719
0.0011156719
0.0011156719
0.0011156718
0.0011156722
0.0011156722
0.0011156722
0.0011156721
0.001115672
0.0011156719
0.0011156719
0.0011156719
0.0011156718
0.0011156718
0.0011213513
0.0011213513
0.0011213513
0.0011213513
0.0011213513
0.0011213512
0.0011213512
0.0011213511
0.0011213511
0.0011213511
0.0011213513
0.0011213513
0.0011213513
0.0011213513
0.0011213513
0.0011213512
0.0011213512
0.0011213512
0.0011213511
0.001121351
0.0011213513
0.0011213513
0.0011213514
0.0011213513
0.0011213513
0.0011213513
0.0011213512
0.0011213512
0.0011213511
0.001121351
0.0011213513
0.0011213513
0.0011213513
0.0011213513
0.0011213513
0.0011213512
0.0011213511
0.0011213511
0.001121351
0.001121351
0.0011213513
0.0011213513
0.0011213513
0.0011213513
0.0011213512
0.0011213512
0.0011213511
0.001121351
0.0011213509
0.0011213509
0.0011213512
0.0011213512
0.0011213513
0.0011213512
0.0011213512
0.0011213511
0.001121351
0.0011213509
0.0011213508
0.0011213508
0.0011213512
0.0011213512
0.0011213512
0.0011213511
0.0011213511
0.001121351
0.0011213509
0.0011213508
0.0011213508
0.0011213507
0.0011213511
0.0011213512
0.0011213512
0.0011213511
0.001121351
0.0011213509
0.0011213508
0.0011213508
0.0011213508
0.0011213507
0.0011213511
0.0011213511
0.0011213511
0.001121351
0.0011213509
0.0011213508
0.0011213508
0.0011213508
0.0011213507
0.0011213506
0.0011213511
0.001121351
0.001121351
0.001121351
0.0011213509
0.0011213508
0.0011213507
0.0011213507
0.0011213506
0.0011213506
0.0011260929
0.001126093
0.001126093
0.001126093
0.0011260929
0.0011260929
0.0011260929
0.0011260928
0.0011260927
0.0011260927
0.001126093
0.001126093
0.001126093
0.001126093
0.001126093
0.0011260929
0.0011260929
0.0011260928
0.0011260927
0.0011260927
0.001126093
0.001126093
0.0011260931
0.001126093
0.001126093
0.0011260929
0.0011260929
0.0011260928
0.0011260928
0.0011260927
0.001126093
0.001126093
0.001126093
0.001126093
0.001126093
0.0011260929
0.0011260928
0.0011260928
0.0011260927
0.0011260926
0.0011260929
0.001126093
0.001126093
0.001126093
0.0011260929
0.0011260928
0.0011260927
0.0011260927
0.0011260926
0.0011260925
0.0011260929
0.0011260929
0.0011260929
0.0011260929
0.0011260928
0.0011260928
0.0011260926
0.0011260926
0.0011260925
0.0011260925
0.0011260929
0.0011260929
0.0011260929
0.0011260928
0.0011260927
0.0011260926
0.0011260925
0.0011260925
0.0011260924
0.0011260924
0.0011260928
0.0011260928