/*--------------------------------*- C++ -*----------------------------------*\
| =========                 |                                                 |
| \\      /  F ield         | OpenFOAM: The Open Source CFD Toolbox           |
|  \\    /   O peration     | Version:  v2106                                 |
|   \\  /    A nd           | Website:  www.openfoam.com                      |
|    \\/     M anipulation  |                                                 |
\*---------------------------------------------------------------------------*/
FoamFile
{
    version     2.0;
    format      ascii;
    arch        "LSB;label=32;scalar=64";
    class       volScalarField;
    location    "5";
    object      gradTy;
}
// * * * * * * * * * * * * * * * * * * * * * * * * * * * * * * * * * * * * * //

dimensions      [0 -1 0 1 0 0 0];

internalField   nonuniform List<scalar> 
4000
(
0.0001686043
0.0014361251
-0.0001186731
0.00018313994
0.00029656981
0.00032488383
0.00034581493
0.00037456032
0.00035702342
0.00021381726
0.0017947343
0.0013638182
-0.00059473721
5.8059434e-05
0.00028438154
0.00034736686
0.00042733901
0.00059711533
0.00072290411
0.00041942983
-0.00079556925
-0.002675047
-0.002101328
-0.0018326078
-0.0017630998
-0.0017472554
-0.0016901824
-0.0014802014
-0.0010855201
-0.00082134873
-0.0026587534
-0.002035889
-0.0017796346
-0.0016976608
-0.0016916393
-0.001715091
-0.0017346449
-0.0016825304
-0.0014584389
-0.001108116
-9.9182723e-05
0.00011343311
0.00019012471
0.0001987856
0.00017269456
0.0001332117
8.2002114e-05
2.4012014e-05
-2.3809767e-05
-5.5221265e-05
0.00056932922
0.00064319688
0.00071228669
0.00071611429
0.00066928102
0.00062542184
0.00058515159
0.00054486195
0.0005043423
0.00046748662
0.00072173607
0.00079625081
0.00097148454
0.0010633048
0.0010040451
0.00095410508
0.0009234852
0.00090424162
0.00088999727
0.00088112382
0.00069010068
0.00070691343
0.00098566578
0.0013115757
0.0012618719
0.0012057638
0.0011810626
0.0011722759
0.0011606491
0.0011407914
0.00048821664
0.00024710205
0.00031053114
0.00090595472
0.00088494556
0.00082672144
0.00080757022
0.00080360366
0.0007760857
0.00070415184
0.00011513094
-2.8075221e-05
-8.7185251e-05
0.00014803905
0.00014636331
0.00012709805
0.00012179285
0.00012118242
0.00010855436
7.3226513e-05
0.00073108916
0.0027143684
-0.0013056555
-0.00039522781
-1.4246638e-05
9.6952717e-05
0.00020564926
0.0003489018
0.00017131928
-0.00045289221
0.0045457734
0.0014906565
-0.0038272834
-0.0018099421
-0.0010066239
-0.00074027369
-0.00033140537
0.00051622049
0.00087109101
-0.00053589617
-0.0050342222
-0.0096986166
-0.0083348208
-0.0074026837
-0.0071042231
-0.0070239906
-0.006731286
-0.0056833897
-0.0039883712
-0.0030906535
-0.0099701674
-0.0080330541
-0.0071495079
-0.0068024565
-0.0067665157
-0.0068747308
-0.0069559137
-0.0066558478
-0.0055956715
-0.0041485602
-0.00055268192
0.00018558887
0.00051698645
0.00056428197
0.00044471213
0.00025532287
1.61283e-05
-0.00021995415
-0.00035150946
-0.00037332766
0.0025761969
0.0029060408
0.0032514154
0.003278978
0.0030620174
0.0028503941
0.0026576294
0.0024745643
0.0023091337
0.002182463
0.0034730271
0.0038509507
0.0047295213
0.0051915517
0.0049484043
0.0047162747
0.0045725745
0.0044852182
0.0044220355
0.0043870019
0.0033857948
0.0033342998
0.0045882911
0.0060772145
0.0059485333
0.0057095767
0.0056000377
0.0055590378
0.0054794227
0.0053143545
0.0025343528
0.0013316618
0.0014822361
0.0039243979
0.0039895238
0.0037710244
0.0036974225
0.0036728081
0.0034527392
0.0028933319
0.00065300783
2.8796345e-05
-0.00028498362
0.00062727482
0.00067975726
0.00061272935
0.00059531013
0.00058937361
0.00048526468
0.00021643541
-0.00051090334
0.0024553359
-0.0023162309
-0.0010698963
-0.00055145021
-0.00039009054
-0.00016063473
0.00018979702
-0.00038791708
-0.0018117541
0.0012846436
-0.0014233477
-0.0076501098
-0.0048810035
-0.0037844645
-0.0034169668
-0.0026491668
-0.00084717368
-0.00039512936
-0.0030778455
-0.010092083
-0.015379932
-0.013549739
-0.01224984
-0.011850756
-0.011795797
-0.011350158
-0.0094301393
-0.0064502114
-0.005026524
-0.014241218
-0.011594047
-0.010375573
-0.009895064
-0.0098839589
-0.010121896
-0.010333021
-0.0098807472
-0.0082219085
-0.0061128938
-0.00044100434
0.00057870435
0.0010230323
0.0010327466
0.00079620014
0.00044733175
1.9961053e-05
-0.00037004823
-0.00054813112
-0.00054017706
0.0046057762
0.0051919994
0.005741074
0.0056925977
0.0052920119
0.0049163586
0.004586943
0.0042965307
0.0040652642
0.0039345506
0.0063136628
0.0071834941
0.0088834559
0.0095491522
0.0091246049
0.0087317722
0.0085047769
0.0083866973
0.0083074173
0.0082767167
0.006095073
0.0057541495
0.0083491104
0.010654096
0.010460223
0.010086004
0.0099385439
0.0098886439
0.0096578477
0.0090866162
0.0050840502
0.0020817235
0.0028533783
0.0064853388
0.0066212317
0.00631521
0.0062592516
0.0062052293
0.0054572239
0.0043657063
0.0015693305
0.00014549342
-0.00021914701
0.0010946184
0.0011868628
0.0010999211
0.0010997204
0.001079454
0.00071889944
0.0003517756
-0.0017903457
0.0018042378
-0.0034378945
-0.0019232664
-0.0013201697
-0.0011410543
-0.00077819586
-5.1333058e-05
-0.00080339523
-0.0028221108
-0.0017524562
-0.0042237793
-0.010924252
-0.0075745423
-0.0063211067
-0.005960163
-0.0048988216
-0.0019814795
-0.0012699854
-0.005059764
-0.01379798
-0.019389236
-0.017148743
-0.01560333
-0.015195868
-0.015255596
-0.014779741
-0.012131091
-0.0081669363
-0.0065373405
-0.01708153
-0.013904943
-0.012478386
-0.011952068
-0.012021924
-0.012433325
-0.012821192
-0.012265889
-0.010134228
-0.007555832
8.1147752e-05
0.001254466
0.0016955271
0.0016022005
0.00121427
0.0006881958
6.7789384e-05
-0.00045983129
-0.00065973825
-0.0005978472
0.0067387052
0.0075516659
0.0081609902
0.0079677929
0.0073617218
0.0068213122
0.0063721513
0.0060134499
0.00577639
0.0057211156
0.0093408269
0.010975409
0.01331951
0.014099914
0.013486947
0.012951887
0.012679084
0.012581278
0.012521484
0.012493282
0.0086410498
0.0086032507
0.012269886
0.015216056
0.014956851
0.014488528
0.014361089
0.014330928
0.013779665
0.012277192
0.0070946007
0.0029384342
0.0040163162
0.0085321845
0.0087263734
0.0083941686
0.0084340391
0.0083061729
0.0063803028
0.0052682609
0.0023248722
0.0003061567
-0.00020164684
0.0013925539
0.0015172837
0.0014338146
0.0014804342
0.0014150132
0.00047878514
0.00067365196
-0.0026115695
0.0013776549
-0.0042322087
-0.0024946606
-0.0018419848
-0.001685569
-0.0012518108
-0.00020032203
-0.0011197951
-0.0035952841
-0.0036453101
-0.0060762689
-0.013125129
-0.0093090778
-0.0079886429
-0.0077349082
-0.0065371252
-0.002677648
-0.0018316984
-0.0065393555
-0.016323551
-0.022132024
-0.01955636
-0.017847904
-0.017496403
-0.017734506
-0.017321355
-0.014085541
-0.0093679335
-0.0076521982
-0.018957896
-0.01537256
-0.01382141
-0.013312603
-0.013508798
-0.014129517
-0.014731293
-0.014121411
-0.01161956
-0.0086845284
0.00083524298
0.0020488804
0.0024094126
0.0021622778
0.0015924984
0.00087287679
5.5341962e-05
-0.00059891672
-0.00080536066
-0.00067298442
0.0088387182
0.0097239793
0.010290236
0.0098990273
0.0090677408
0.0083618709
0.0078111297
0.0074270117
0.0072518786
0.0073558322
0.012544758
0.014772628
0.017602018
0.018421594
0.017610124
0.0169498
0.016675265
0.016676539
0.01673637
0.016791278
0.01170254
0.011900563
0.016407967
0.019853985
0.0195197
0.018993283
0.018960449
0.019054387
0.018179545
0.015339662
0.0094239949
0.0043315517
0.0055622873
0.010764894
0.01099917
0.010690826
0.010927991
0.010805566
0.0072132654
0.0058974972
0.0030833584
0.00060786942
-5.5079672e-05
0.001751693
0.0019016084
0.0018399438
0.0019709107
0.0018765497
7.7655282e-05
0.0009993709
-0.0031794302
0.0010938483
-0.0047790156
-0.0028576818
-0.0021795873
-0.0020691981
-0.0016070043
-0.00028879836
-0.0013735693
-0.0042223875
-0.0048714704
-0.0072708484
-0.014545189
-0.010360446
-0.0090362059
-0.0089517574
-0.0077288555
-0.0031019262
-0.0022100035
-0.0076913421
-0.017987108
-0.023914403
-0.021076706
-0.019272385
-0.019023778
-0.019484224
-0.019204584
-0.015515877
-0.010220877
-0.0084766976
-0.02010956
-0.016210418
-0.014600578
-0.01415749
-0.014513575
-0.015369109
-0.016213248
-0.015599927
-0.01282297
-0.0096193594
0.0016333862
0.0028161118
0.0030420749
0.0026042728
0.0018304563
0.00090585573
-0.00011118809
-0.00088742422
-0.0010964077
-0.00088783837
0.010605163
0.011464037
0.011912513
0.011283231
0.010212839
0.009341587
0.0087032643
0.008325662
0.0082637932
0.0085912267
0.015333866
0.018004466
0.021183698
0.021972813
0.02095288
0.020179533
0.019936955
0.020104443
0.020392428
0.020663643
0.014571425
0.014921577
0.020090277
0.023905284
0.023480555
0.022920064
0.023041084
0.023375538
0.022326809
0.018160685
0.011664008
0.0057636247
0.0070745925
0.012802804
0.01305516
0.01280239
0.013320725
0.01336159
0.0081058722
0.0064603324
0.003786301
0.00093748273
0.00013207529
0.002100269
0.0022678154
0.0022393153
0.0024861044
0.002420125
-0.00029131164
0.0013230985
-0.0035835539
0.00090023008
-0.0051298314
-0.0030624335
-0.0023783616
-0.0023286773
-0.0018686012
-0.00033639294
-0.0015721557
-0.0047286482
-0.0056546908
-0.0079741069
-0.015348365
-0.010886021
-0.0096071872
-0.0097322521
-0.0085686589
-0.0033401801
-0.0024563986
-0.0085903013
-0.018963111
-0.024907106
-0.021875024
-0.020031936
-0.019920087
-0.020631279
-0.020540591
-0.016531294
-0.010813767
-0.0090890735
-0.020684177
-0.016556973
-0.014942999
-0.014602035
-0.015140247
-0.016244998
-0.017350133
-0.016783256
-0.013822049
-0.010432597
0.0023633445
0.0034639788
0.0035171131
0.0028646361
0.0018741498
0.00073991511
-0.00047525427
-0.0013715813
-0.0015867357
-0.0013066438
0.01190808
0.01267272
0.012946608
0.012052216
0.010736722
0.0097028123
0.0089876974
0.0086366886
0.0087171198
0.0093000892
0.017454921
0.020443348
0.023846993
0.024543332
0.023308736
0.022431836
0.022242612
0.022618029
0.023206546
0.023791737
0.01686996
0.017314628
0.02298222
0.027041452
0.026510304
0.02592997
0.026239726
0.026893904
0.025822662
0.020506568
0.013531613
0.0069432301
0.0082814919
0.014385451
0.014632151
0.014450388
0.015295552
0.015624097
0.0089082158
0.0069332273
0.0043815105
0.001225018
0.00029224213
0.0023748139
0.0025518771
0.0025615418
0.0029405233
0.0029516692
-0.00060353922
0.0016350102
-0.0038421466
0.00078619467
-0.0053024591
-0.0031267359
-0.0024531862
-0.0024736642
-0.0020399616
-0.00034478962
-0.0017139932
-0.0051193972
-0.006064994
-0.0082554628
-0.015615029
-0.010962878
-0.0097686792
-0.010128118
-0.0090908083
-0.0034218834
-0.0025902397
-0.0092668263
-0.019360798
-0.025230194
-0.022068213
-0.020235488
-0.020283186
-0.021259553
-0.021398376
-0.017194537
-0.011199441
-0.0095396015
-0.020796766
-0.016522857
-0.014950416
-0.01473783
-0.015469897
-0.016827213
-0.018200921
-0.017724092
-0.014663615
-0.011167291
0.0029497436
0.0039293512
0.003784503
0.0029052857
0.0016951199
0.00035404702
-0.0010526123
-0.0020661773
-0.00229378
-0.0019522278
0.012695985
0.013315822
0.013373856
0.012200633
0.010642832
0.0094529003
0.0086706039
0.0083584614
0.0085947512
0.009442785
0.018825179
0.022018491
0.025531414
0.026083508
0.024634535
0.023663283
0.023540096
0.024145306
0.025074809
0.026031115
0.018453542
0.018942494
0.02495411
0.029141429
0.028491416
0.027900261
0.028415564
0.029434975
0.028462521
0.022211692
0.014890453
0.0077285421
0.0090455106
0.015383478
0.015602312
0.015497427
0.016686635
0.017383236
0.0094633527
0.0072195611
0.0048357276
0.0014303237
0.00038466991
0.0025368833
0.0027155523
0.0027645847
0.0032809081
0.0034021218
-0.00088631106
0.0019062608
-0.0039623438
0.0007466286
-0.0053125848
-0.0030659826
-0.0024168643
-0.0025126848
-0.0021243682
-0.00031492032
-0.0017993325
-0.0053984656
-0.0061451962
-0.0081705578
-0.015417011
-0.010659309
-0.0095801604
-0.010185562
-0.0093253851
-0.0033680142
-0.0026272288
-0.0097419476
-0.019275222
-0.024994139
-0.021763974
-0.019983469
-0.020203609
-0.021446718
-0.021840268
-0.017556105
-0.011417929
-0.0098633528
-0.020548841
-0.01620526
-0.01471199
-0.014644896
-0.01557293
-0.017175708
-0.018814157
-0.018461319
-0.015377801
-0.011847196
0.0033427221
0.0041726689
0.0038164694
0.0027094206
0.0012856566
-0.00025211048
-0.0018378453
-0.0029627238
-0.003208637
-0.0028175175
0.012960682
0.013399426
0.013215457
0.011762767
0.0099742302
0.0086392653
0.0077993493
0.0075331648
0.0079283331
0.0090363704
0.019440531
0.022737178
0.026258079
0.02662779
0.024972469
0.023917177
0.023866368
0.024708027
0.025994718
0.02734881
0.019287817
0.019775371
0.025985973
0.03019771
0.02942233
0.028826918
0.029551314
0.030955267
0.03017256
0.023201357
0.015686473
0.0080611548
0.0093125393
0.015753907
0.015926662
0.015899113
0.017429868
0.018539896
0.0096759574
0.0072419623
0.0051310173
0.0015318843
0.00038787147
0.0025682687
0.0027416082
0.0028290151
0.0034802996
0.0037317433
-0.0011671687
0.0021090798
-0.0039558683
0.00077205602
-0.0051812675
-0.0029000239
-0.002286658
-0.0024591556
-0.002130124
-0.00025131356
-0.0018320828
-0.0055722582
-0.0059450023
-0.0077831011
-0.014834886
-0.01005075
-0.0091086845
-0.009959676
-0.009311565
-0.0032040359
-0.0025860776
-0.010037099
-0.018800502
-0.024308622
-0.02106815
-0.019374475
-0.019771008
-0.021270846
-0.021929343
-0.017663637
-0.011503256
-0.010086776
-0.020031599
-0.015689685
-0.014305398
-0.014392542
-0.015510052
-0.017341786
-0.019230314
-0.019024291
-0.015983008
-0.012482002
0.0035154355
0.0041767379
0.0036065093
0.0022803667
0.00065726567
-0.0010602964
-0.0028070704
-0.004033402
-0.0043014562
-0.0038725273
0.012727188
0.012961989
0.012524307
0.010803653
0.0088040457
0.007339317
0.0064519365
0.0062353227
0.0067848631
0.0081376732
0.019346462
0.022658225
0.026102102
0.026265434
0.024419597
0.023292329
0.023315603
0.024388397
0.026029355
0.027784652
0.019403047
0.019850109
0.026128535
0.030276196
0.029375841
0.02878181
0.029708767
0.031495563
0.030966352
0.023475888
0.015922037
0.00794062
0.0090889739
0.015517481
0.015631263
0.015678355
0.017533613
0.01907461
0.009513939
0.0069677173
0.0052639982
0.0015238228
0.00029665068
0.0024681425
0.0026306546
0.0027540951
0.003532528
0.0039242929
-0.0014611143
0.0022268118
-0.0038400532
0.0008486736
-0.0049339893
-0.0026521638
-0.0020832729
-0.0023303633
-0.002069594
-0.00016152238
-0.0018190023
-0.0056497779
-0.0055228584
-0.0071637626
-0.013955222
-0.0092168681
-0.0084259535
-0.009511643
-0.0090953846
-0.0029593563
-0.002487698
-0.010175194
-0.018028668
-0.023279924
-0.020081773
-0.018502204
-0.019071134
-0.020807718
-0.021727611
-0.017562142
-0.011484387
-0.010229924
-0.019324461
-0.015048387
-0.013795192
-0.014037748
-0.015330806
-0.017366986
-0.01948142
-0.01943395
-0.016488192
-0.013070729
0.0034621677
0.0039448685
0.0031673929
0.0016393545
-0.00016184549
-0.0020365125
-0.0039213512
-0.0052353614
-0.0055267392
-0.0050706812
0.012047081
0.012067599
0.01137765
0.0094111226
0.0072270358
0.0056516169
0.0047277645
0.0045619694
0.0052558519
0.0068307294
0.018623698
0.021876959
0.025175985
0.025122535
0.023109021
0.021923686
0.022019373
0.023308595
0.025285521
0.027426803
0.0188725
0.019248387
0.025480186
0.029491611
0.028473414
0.027886223
0.029001502
0.031152371
0.03091618
0.023089631
0.015640054
0.0074076703
0.0084242154
0.014739889
0.014787437
0.014904569
0.017056197
0.019022777
0.0089934568
0.0064051548
0.0052432739
0.0014124983
0.00011827624
0.0022488071
0.0023965849
0.0025528457
0.0034465032
0.0039803673
-0.0017711961
0.0022548326
-0.0036358022
0.00096040294
-0.0045981862
-0.0023468389
-0.0018286175
-0.0021453091
-0.0019572585
-5.4655309e-05
-0.0017684603
-0.0056417861
-0.0049407815
-0.0063843575
-0.01286425
-0.0082355537
-0.0076024971
-0.0089031822
-0.0087248751
-0.0026640392
-0.0023528996
-0.010179425
-0.017045501
-0.022006363
-0.018896697
-0.01745126
-0.018181791
-0.020127029
-0.021292894
-0.017292346
-0.011384873
-0.0103072
-0.018493497
-0.014339144
-0.013231744
-0.013624238
-0.01507281
-0.017282588
-0.019591043
-0.019703757
-0.016894826
-0.013604615
0.0031953176
0.0034976123
0.0025276891
0.00082184315
-0.0011306608
-0.003135178
-0.0051312131
-0.0065158007
-0.0068290618
-0.0063551223
0.010991293
0.010798332
0.0098689149
0.0076872282
0.005350682
0.0036866759
0.0027381177
0.0026227406
0.0034468872
0.0052156475
0.017376419
0.020512399
0.023615562
0.023347082
0.021194392
0.01996646
0.020130457
0.021614215
0.023896624
0.026393648
0.017797185
0.018080383
0.024169161
0.027988403
0.026865377
0.026290554
0.027574147
0.030056721
0.030131805
0.022132238
0.01491078
0.0065300842
0.0073953942
0.013515231
0.013494536
0.013675909
0.016087443
0.018455342
0.0081629592
0.0055922794
0.0050860752
0.0012127494
-0.00013160859
0.0019311986
0.002061866
0.0022471582
0.0032410395
0.0039118406
-0.0020920054
0.002198054
-0.0033653446
0.0010909111
-0.0042009903
-0.0020075684
-0.0015438434
-0.0019228176
-0.0018079934
5.995441e-05
-0.0016893361
-0.005559917
-0.0042589568
-0.0055124254
-0.011642319
-0.0071778496
-0.0067028199
-0.0081918895
-0.0082459063
-0.002345837
-0.0022003686
-0.010071877
-0.01592697
-0.020574689
-0.017592394
-0.016294193
-0.017170007
-0.019289737
-0.02067657
-0.016889424
-0.011222684
-0.010327963
-0.01759095
-0.013605229
-0.01265145
-0.013182842
-0.014762237
-0.017110226
-0.019575169
-0.019841133
-0.017199065
-0.014069915
0.0027414457
0.0028685719
0.0017274058
-0.00012697234
-0.0021999784
-0.0043039073
-0.0063816263
-0.0078172649
-0.0081487397
-0.0076646966
0.009642592
0.009246367
0.0080995056
0.0057398033
0.0032865736
0.0015581554
0.00059715915
0.00053061036
0.0014680773
0.0033987533
0.015721472
0.01869563
0.021567524
0.021095944
0.018836617
0.017582586
0.017809072
0.019460266
0.022008459
0.024819278
0.01629319
0.016471176
0.022338728
0.025925062
0.024714831
0.024157949
0.025585749
0.028357336
0.028743812
0.02071329
0.013820532
0.0053907244
0.0060944912
0.011952185
0.011865709
0.012104753
0.014733852
0.017463765
0.0070898064
0.004585293
0.0048150578
0.00094447701
-0.00043261468
0.0015409573
0.0016534854
0.0018636527
0.0029406028
0.0037375319
-0.0024130783
0.0020678563
-0.003050385
0.0012251699
-0.0037675212
-0.0016554611
-0.0012479246
-0.0016801469
-0.0016357871
0.00017374318
-0.0015901774
-0.005415948
-0.003531614
-0.0046073183
-0.01036003
-0.006104567
-0.005782179
-0.007428089
-0.0076993218
-0.0020281784
-0.0020453431
-0.0098725489
-0.014737082
-0.019058028
-0.01623433
-0.015090117
-0.01609074
-0.018346803
-0.01992249
-0.016382537
-0.011010551
-0.010297362
-0.016655876
-0.012876481
-0.012078026
-0.012732891
-0.014415256
-0.016863369
-0.019443756
-0.019849289
-0.017394016
-0.014450582
0.0021369343
0.0020999055
0.00081341232
-0.0011567799
-0.0033170654
-0.0054882139
-0.007616784
-0.0090825592
-0.009426924
-0.0089392084
0.0080885241
0.0075067303
0.0061713813
0.0036749802
0.0011428818
-0.00062473834
-0.0015857942
-0.0016059934
-0.00057401722
0.0014843477
0.01377893
0.016559765
0.01917884
0.01852403
0.016192921
0.014929685
0.015211666
0.016999769
0.019767636
0.022841819
0.014481101
0.014549516
0.02013508
0.023461455
0.02218482
0.021651315
0.023196597
0.026207286
0.026890437
0.018950036
0.012462263
0.0040777262
0.0046178925
0.010162901
0.010016599
0.010306252
0.013106941
0.016148303
0.0058496913
0.0034489556
0.0044555552
0.00062978461
-0.000762582
0.001105244
0.0011997076
0.0014303877
0.0025719509
0.003479843
-0.0027216496
0.0018793525
-0.0027107558
0.0013504968
-0.0033197473
-0.0013082786
-0.00095677175
-0.0014320956
-0.0014528894
0.0002795642
-0.0014786307
-0.0052212657
-0.0028043952
-0.0037178823
-0.0090760234
-0.0050645149
-0.0048849058
-0.0066531121
-0.0071193079
-0.0017291116
-0.0018989962
-0.0095988541
-0.013527106
-0.017515269
-0.014873738
-0.013884669
-0.014986846
-0.017339079
-0.019066858
-0.015795074
-0.010756748
-0.010217381
-0.015715619
-0.012171156
-0.011524501
-0.012284264
-0.01404005
-0.016549254
-0.019202597
-0.019729155
-0.017471912
-0.014730667
0.0014237338
0.0012380083
-0.00016486338
-0.0022164015
-0.0044298541
-0.0066356614
-0.0087842186
-0.010258872
-0.010609783
-0.010123674
0.0064153298
0.0056711534
0.0041809277
0.0015911415
-0.00098161921
-0.002763223
-0.003712285
-0.0036893006
-0.0025826316
-0.00043169156
0.011664381
0.014231871
0.016588382
0.015775876
0.013408481
0.012152665
0.012482404
0.014375054
0.017312687
0.020594395
0.012477591
0.012438979
0.017697903
0.02074909
0.019428588
0.018923525
0.020558242
0.023753808
0.024707425
0.016957942
0.010928055
0.0026768101
0.0030583125
0.0082545027
0.0080568002
0.0083897009
0.011314409
0.014609041
0.0045185434
0.0022490497
0.0040333488
0.00029071375
-0.0010998898
0.00065029169
0.00072760663
0.00097436467
0.0021615667
0.0031621702
-0.0030047553
0.0016491744
-0.0023635543
0.0014571192
-0.0028758591
-0.00097998814
-0.00068281233
-0.0011905438
-0.0012693441
0.00037202494
-0.0013611181
-0.0049865146
-0.0021130786
-0.0028815357
-0.0078361912
-0.0040940775
-0.0040440077
-0.0058987588
-0.006532787
-0.001461048
-0.0017684065
-0.0092655401
-0.012335912
-0.015991573
-0.013548454
-0.012710962
-0.013889967
-0.016298034
-0.018138794
-0.015145357
-0.010466124
-0.010087994
-0.014787767
-0.011498197
-0.010995584
-0.01183971
-0.013639033
-0.01617095
-0.018855192
-0.019481181
-0.017425991
-0.014896319
0.00064552677
0.00032969325
-0.0011591545
-0.0032573789
-0.0054903951
-0.0076991926
-0.0098380127
-0.011300904
-0.011651609
-0.011171443
0.0047031119
0.0038233143
0.0022143327
-0.00042551314
-0.003001826
-0.0047731308
-0.0056988944
-0.0056364344
-0.0044751505
-0.0022664233
0.009483127
0.01182698
0.013920838
0.012979657
0.010610607
0.0093779455
0.0097473033
0.011711702
0.014767746
0.018198581
0.010389175
0.010251513
0.015153555
0.017924183
0.016582756
0.016110587
0.0178065
0.02113103
0.022320651
0.014843817
0.0093034705
0.0012656612
0.0014989784
0.0063230238
0.0060838401
0.0064524848
0.0094538511
0.012939363
0.0031666378
0.0010468383
0.0035729599
-5.2436553e-05
-0.0014251292
0.00019964998
0.00026131831
0.00051976053
0.0017338031
0.0028069836
-0.0032507531
0.0013937839
-0.0020227054
0.0015383403
-0.0024500674
-0.00068071057
-0.00043494692
-0.00096434768
-0.0010928346
0.00044757108
-0.0012427161
-0.0047213973
-0.0014834135
-0.0021244565
-0.0066739853
-0.00321782
-0.0032817374
-0.0051876548
-0.0059595887
-0.0012311043
-0.0016569586
-0.0088848983
-0.011191097
-0.014519674
-0.012284461
-0.011591185
-0.012822008
-0.015246985
-0.017161307
-0.014447611
-0.010141225
-0.0099082756
-0.013882317
-0.010859636
-0.010490069
-0.011397184
-0.013211026
-0.015729296
-0.018404421
-0.019106824
-0.017251955
-0.014937265
-0.00015548597
-0.00058094163
-0.0021253208
-0.004236741
-0.0064574332
-0.0086395252
-0.010741018
-0.012172947
-0.012516818
-0.012046189
0.003022332
0.0020355005
0.0003444807
-0.0023037988
-0.0048489145
-0.0065873835
-0.0074796642
-0.0073818618
-0.0061856681
-0.0039525764
0.0073262512
0.0094441293
0.011282802
0.010243503
0.0079052733
0.0067100812
0.007110795
0.0091148866
0.012238604
0.015760138
0.0083080392
0.0080832169
0.012610669
0.015103299
0.013763135
0.013327499
0.015057131
0.018455308
0.019841221
0.012701236
0.0076636924
-8.9760135e-05
9.8984174e-06
0.0044495755
0.0041794574
0.0045763329
0.0076087428
0.011221585
0.0018546706
-0.00010467392
0.0030964411
-0.00038224004
-0.0017221853
-0.0002269403
-0.00017905917
8.6811989e-05
0.0013096686
0.0024345016
-0.0034503216
0.0011282719
-0.0016988672
0.0015903994
-0.0020527255
-0.00041696367
-0.0002187836
-0.00075949617
-0.00092876473
0.00050438066
-0.001127186
-0.0044345891
-0.00093178015
-0.0014625677
-0.0056115181
-0.0024498017
-0.002610822
-0.0045342225
-0.0054131564
-0.0010418448
-0.0015650133
-0.0084671482
-0.010110592
-0.013121637
-0.011097826
-0.010538537
-0.01179691
-0.014202577
-0.016152451
-0.013713003
-0.0097833631
-0.0096773731
-0.013003792
-0.010252879
-0.010003096
-0.010951963
-0.012753167
-0.015224556
-0.017853879
-0.018609642
-0.016948956
-0.01484776
-0.00094107417
-0.0014548729
-0.003025495
-0.0051189123
-0.0072980876
-0.0094266143
-0.011466105
-0.012849953
-0.013180918
-0.012722842
0.0014315914
0.00036661972
-0.0013707429
-0.0039889207
-0.0064714541
-0.0081569383
-0.0090069622
-0.0088782712
-0.0076659709
-0.0054397169
0.0052683989
0.0071642141
0.0087607766
0.0076537883
0.0053756902
0.0042304492
0.0046543573
0.0066678029
0.0098107853
0.013366721
0.0063097374
0.0060121055
0.01015788
0.012381193
0.011062803
0.010666381
0.012403794
0.015822809
0.017362717
0.010607959
0.0060712567
-0.001337198
-0.0013540467
0.0026984316
0.0024078355
0.0028255434
0.0058463898
0.0095244611
0.00063154066
-0.0011629038
0.0026226212
-0.00068478195
-0.001978802
-0.00061412198
-0.00057800476
-0.00030873792
0.00090616459
0.0020618856
-0.0035970072
0.00086558933
-0.001399591
0.0016121216
-0.0016906779
-0.00019210127
-3.7056285e-05
-0.00057944421
-0.00078049999
0.00054213158
-0.0010171067
-0.0041337308
-0.00046639514
-0.00090302553
-0.0046611444
-0.0017953024
-0.0020360735
-0.0039460101
-0.0049015662
-0.00089223948
-0.001490704
-0.0080208869
-0.009104491
-0.011810825
-0.0099967679
-0.0095592424
-0.010822474
-0.013176306
-0.01512648
-0.012950611
-0.0093935253
-0.0093952651
-0.012153153
-0.0096727205
-0.0095280819
-0.010498426
-0.012262478
-0.014657688
-0.017208813
-0.017995951
-0.016520102
-0.014627015
-0.0016787178
-0.0022597322
-0.0038294255
-0.0058767961
-0.0079886874
-0.010040256
-0.011996542
-0.013317729
-0.013630578
-0.013187615
-2.3435427e-05
-0.001138601
-0.0028889281
-0.0054426077
-0.0078352639
-0.0094504625
-0.010251064
-0.010096155
-0.008885222
-0.0066941189
0.0033670161
0.0050493797
0.0064207867
0.005275075
0.0030825242
0.0019976022
0.0024368319
0.0044317693
0.0075493069
0.011087213
0.0044524343
0.0040975242
0.0078632965
0.0098304793
0.0085520077
0.0081964433
0.00991785
0.013308918
0.014960203
0.0086249974
0.0045751389
-0.0024386546
-0.0025535085
0.0011166913
0.00081542752
0.0012468045
0.0042174634
0.0079022485
-0.00046645748
-0.0020965416
0.0021667392
-0.00094988482
-0.002186716
-0.00095104472
-0.00092465764
-0.00065573622
0.00053607777
0.001702868
-0.0036873926
0.00061614529
-0.0011296515
0.0016044447
-0.0013677456
-6.8618306e-06
0.00010985647
-0.00042554464
-0.00064970075
0.00056169885
-0.0009140654
-0.0038254686
-8.8813499e-05
-0.00044595467
-0.0038272759
-0.0012527146
-0.0015561456
-0.0034251642
-0.0044286749
-0.00077868931
-0.001430744
-0.0075535252
-0.0081768903
-0.01059385
-0.0089836502
-0.0086544647
-0.0099020729
-0.012175927
-0.0140949
-0.01216825
-0.008973073
-0.0090632712
-0.011329399
-0.0091129957
-0.0090582684
-0.010031418
-0.011736992
-0.014031206
-0.016476654
-0.017275069
-0.015972525
-0.014279165
-0.0023426352
-0.0029706594
-0.0045150848
-0.0064921212
-0.0085148726
-0.010469956
-0.012325638
-0.013572384
-0.013862967
-0.013437308
-0.0013100963
-0.0024494321
-0.0041826256
-0.0066422596
-0.0089222873
-0.010453025
-0.011198748
-0.0110224
-0.0098286492
-0.0076976369
0.0016627598
0.0031436251
0.0043092348
0.0031513012
0.0010653715
4.8873284e-05
0.00049599684
0.0024475974
0.005499694
0.0089723316
0.0027773905
0.0023808436
0.0057753215
0.0075026709
0.0062794496
0.0059653419
0.0076495488
0.010969039
0.012690592
0.0067969523
0.0032109139
-0.0033698373
-0.003563922
-0.00026485811
-0.00056801738
-0.00012978273
0.0027567454
0.0063949515
-0.0014153415
-0.0028853743
0.0017403927
-0.0011710105
-0.0023414614
-0.0012311426
-0.0012125543
-0.00094737006
0.00020812054
0.0013677216
-0.0037209723
0.00038769981
-0.00089147275
0.0015698952
-0.0010852749
0.00014004575
0.0002233807
-0.00029751579
-0.00053669194
0.00056482867
-0.00081886928
-0.0035155193
0.00020447765
-8.6225509e-05
-0.0031082239
-0.00081541306
-0.0011652583
-0.0029698847
-0.0039952558
-0.00069600317
-0.0013811608
-0.0070716564
-0.0073275847
-0.0094723588
-0.0080567722
-0.0078219957
-0.0090361461
-0.011206649
-0.013067317
-0.011373085
-0.0085242009
-0.0086843125
-0.010530797
-0.0085678139
-0.0085878316
-0.0095471877
-0.011176482
-0.01334963
-0.015667155
-0.016459198
-0.015317079
-0.013812855
-0.0029141792
-0.0035705215
-0.0050686509
-0.006955175
-0.0088710936
-0.010714212
-0.012455818
-0.013619237
-0.013884542
-0.013478054
-0.0024080888
-0.0035481978
-0.0052380863
-0.0075793685
-0.0097287593
-0.011164093
-0.011851199
-0.011658189
-0.010495538
-0.0084458737
0.00018078031
0.001474297
0.0024546618
0.0013078609
-0.00065490594
-0.0015971648
-0.0011490025
0.00073783442
0.0036898921
0.0070561231
0.0013103419
0.00088707589
0.0039244369
0.0054301919
0.0042745126
0.0040014674
0.0056301737
0.008840362
0.010593989
0.0051532875
0.0020017077
-0.0041188142
-0.0043739456
-0.0014300415
-0.0017276027
-0.0012888583
0.0014847127
0.0050294304
-0.0022023618
-0.0035193614
0.001351721
-0.001344929
-0.0024419428
-0.0014516701
-0.0014391269
-0.0011806781
-7.2683758e-05
0.0010634759
-0.0036998178
0.00018547616
-0.00068559068
0.0015120716
-0.00084269062
0.00025137332
0.00030621553
-0.00019389675
-0.00044082684
0.00055382397
-0.00073175296
-0.0032087425
0.00042052632
0.00018487642
-0.0024979263
-0.00047346185
-0.00085476315
-0.0025757433
-0.0036000236
-0.00063825073
-0.001337903
-0.0065813292
-0.0065535313
-0.0084445787
-0.0072118696
-0.0070576422
-0.0082233999
-0.01027209
-0.012052073
-0.010572034
-0.0080501656
-0.0082629445
-0.0097557492
-0.00803239
-0.008112586
-0.0090439202
-0.010582791
-0.012619592
-0.014792231
-0.015563005
-0.014567754
-0.013240543
-0.0033817068
-0.0040496119
-0.0054839882
-0.0072640602
-0.0090596602
-0.01077937
-0.012397295
-0.013471339
-0.013709481
-0.013323724
-0.0033082295
-0.004428793
-0.0060534899
-0.0082574658
-0.010262929
-0.011595101
-0.0122215
-0.012016491
-0.010896808
-0.0089459153
-0.0010674084
5.4172676e-05
0.00087008414
-0.00024577096
-0.0020733284
-0.0029377405
-0.0024947192
-0.00069047325
0.0021327254
0.0053580483
6.3467496e-05
-0.00037292167
0.0023255881
0.0036289853
0.0025500649
0.0023167992
0.0038747562
0.0069442438
0.0086956637
0.0037101928
0.00095967437
-0.0046841754
-0.0049834041
-0.0023750859
-0.0026609427
-0.0022274709
0.00040963335
0.0038210506
-0.0028244176
-0.0039972256
0.0010057511
-0.0014712385
-0.0024898663
-0.0016130911
-0.0016050594
-0.0013559198
-0.00030446406
0.00079429541
-0.0036281113
1.2423429e-05
-0.00051110657
0.001435174
-0.00063801434
0.00033081883
0.00036185618