/*--------------------------------*- C++ -*----------------------------------*\
| =========                 |                                                 |
| \\      /  F ield         | OpenFOAM: The Open Source CFD Toolbox           |
|  \\    /   O peration     | Version:  v2106                                 |
|   \\  /    A nd           | Website:  www.openfoam.com                      |
|    \\/     M anipulation  |                                                 |
\*---------------------------------------------------------------------------*/
FoamFile
{
    version     2.0;
    format      ascii;
    arch        "LSB;label=32;scalar=64";
    class       volScalarField;
    location    "5";
    object      laplacianT;
}
// * * * * * * * * * * * * * * * * * * * * * * * * * * * * * * * * * * * * * //

dimensions      [0 -2 0 1 0 0 0];

internalField   nonuniform List<scalar> 
4000
(
269066.44
269067.1
269067.13
269067.23
269067.11
269067.07
269067.04
269066.99
269066.91
269066.85
269067.1
269066.96
269067.38
269067.36
269067.24
269067.21
269067.19
269067.13
269067
269066.91
269067.13
269067.38
269067.54
269067.52
269067.42
269067.39
269067.38
269067.34
269067.17
269067.05
269067.23
269067.36
269067.52
269067.5
269067.41
269067.39
269067.4
269067.38
269067.24
269067.11
269067.11
269067.24
269067.42
269067.41
269067.31
269067.3
269067.32
269067.31
269067.19
269067.08
269067.07
269067.21
269067.39
269067.39
269067.3
269067.29
269067.31
269067.31
269067.19
269067.09
269067.04
269067.19
269067.38
269067.4
269067.32
269067.31
269067.33
269067.33
269067.21
269067.1
269066.99
269067.13
269067.34
269067.38
269067.31
269067.31
269067.33
269067.32
269067.2
269067.08
269066.91
269067
269067.17
269067.24
269067.19
269067.19
269067.21
269067.2
269067.06
269066.94
269066.85
269066.91
269067.05
269067.11
269067.08
269067.09
269067.1
269067.08
269066.94
269066.82
-41383.311
-41381.803
-41385.499
-41383.769
-41383.812
-41383.85
-41383.859
-41383.858
-41383.859
-41383.833
-41381.803
-41384.419
-41385.152
-41383.944
-41384.03
-41384.073
-41384.089
-41384.089
-41383.949
-41383.882
-41385.499
-41385.152
-41386.673
-41385.504
-41385.585
-41385.629
-41385.663
-41385.728
-41385.501
-41384.615
-41383.769
-41383.944
-41385.504
-41384.333
-41384.411
-41384.454
-41384.492
-41384.62
-41384.644
-41384.206
-41383.812
-41384.03
-41385.585
-41384.411
-41384.489
-41384.53
-41384.56
-41384.665
-41384.658
-41384.205
-41383.85
-41384.073
-41385.629
-41384.454
-41384.53
-41384.571
-41384.601
-41384.701
-41384.686
-41384.221
-41383.859
-41384.089
-41385.663
-41384.492
-41384.56
-41384.601
-41384.63
-41384.729
-41384.712
-41384.246
-41383.858
-41384.089
-41385.728
-41384.62
-41384.665
-41384.701
-41384.729
-41384.828
-41384.81
-41384.341
-41383.859
-41383.949
-41385.501
-41384.644
-41384.658
-41384.686
-41384.712
-41384.81
-41384.79
-41384.302
-41383.833
-41383.882
-41384.615
-41384.206
-41384.205
-41384.221
-41384.246
-41384.341
-41384.302
-41383.726
-34323.629
-34322.759
-34326.42
-34324.17
-34324.284
-34324.361
-34324.388
-34324.409
-34324.375
-34324.765
-34322.759
-34326.265
-34326.516
-34324.973
-34325.143
-34325.225
-34325.285
-34325.35
-34324.611
-34324.336
-34326.42
-34326.516
-34327.784
-34326.287
-34326.445
-34326.525
-34326.623
-34326.914
-34326.283
-34325.131
-34324.17
-34324.973
-34326.287
-34324.785
-34324.938
-34325.009
-34325.094
-34325.461
-34325.184
-34324.635
-34324.284
-34325.143
-34326.445
-34324.938
-34325.088
-34325.155
-34325.221
-34325.545
-34325.215
-34324.641
-34324.361
-34325.225
-34326.525
-34325.009
-34325.155
-34325.22
-34325.284
-34325.599
-34325.254
-34324.662
-34324.388
-34325.285
-34326.623
-34325.094
-34325.221
-34325.284
-34325.347
-34325.661
-34325.314
-34324.722
-34324.409
-34325.35
-34326.914
-34325.461
-34325.545
-34325.599
-34325.661
-34325.975
-34325.629
-34325.029
-34324.375
-34324.611
-34326.283
-34325.184
-34325.215
-34325.254
-34325.314
-34325.629
-34325.281
-34324.534
-34324.765
-34324.336
-34325.131
-34324.635
-34324.641
-34324.662
-34324.722
-34325.029
-34324.534
-34324.063
-29552.364
-29551.385
-29555.09
-29552.443
-29552.633
-29552.747
-29552.803
-29552.864
-29552.538
-29552.867
-29551.385
-29554.906
-29554.879
-29553.1
-29553.355
-29553.477
-29553.608
-29553.917
-29552.668
-29552.108
-29555.09
-29554.879
-29556.05
-29554.321
-29554.557
-29554.665
-29554.828
-29555.479
-29554.464
-29552.955
-29552.443
-29553.1
-29554.321
-29552.583
-29552.81
-29552.901
-29553.032
-29553.766
-29553.183
-29552.397
-29552.633
-29553.355
-29554.557
-29552.81
-29553.032
-29553.116
-29553.217
-29553.887
-29553.231
-29552.408
-29552.747
-29553.477
-29554.665
-29552.901
-29553.116
-29553.197
-29553.293
-29553.951
-29553.273
-29552.427
-29552.803
-29553.608
-29554.828
-29553.032
-29553.217
-29553.293
-29553.389
-29554.046
-29553.368
-29552.532
-29552.864
-29553.917
-29555.479
-29553.766
-29553.887
-29553.951
-29554.046
-29554.707
-29554.037
-29553.182
-29552.538
-29552.668
-29554.464
-29553.183
-29553.231
-29553.273
-29553.368
-29554.037
-29553.354
-29551.929
-29552.867
-29552.108
-29552.955
-29552.397
-29552.408
-29552.427
-29552.532
-29553.182
-29551.929
-29551.9
-26051.924
-26050.712
-26054.413
-26051.491
-26051.762
-26051.913
-26052.005
-26052.193
-26051.806
-26052.18
-26050.712
-26054.048
-26053.823
-26051.903
-26052.243
-26052.392
-26052.578
-26053.194
-26051.742
-26051.127
-26054.413
-26053.823
-26054.932
-26053.061
-26053.374
-26053.496
-26053.699
-26054.747
-26053.63
-26052.023
-26051.491
-26051.903
-26053.061
-26051.178
-26051.478
-26051.575
-26051.722
-26052.854
-26052.226
-26051.428
-26051.762
-26052.243
-26053.374
-26051.478
-26051.773
-26051.858
-26051.965
-26053.013
-26052.29
-26051.443
-26051.913
-26052.392
-26053.496
-26051.575
-26051.858
-26051.941
-26052.041
-26053.072
-26052.322
-26051.45
-26052.005
-26052.578
-26053.699
-26051.722
-26051.965
-26052.041
-26052.141
-26053.173
-26052.429
-26051.585
-26052.193
-26053.194
-26054.747
-26052.854
-26053.013
-26053.072
-26053.173
-26054.217
-26053.502
-26052.663
-26051.806
-26051.742
-26053.63
-26052.226
-26052.29
-26052.322
-26052.429
-26053.502
-26052.799
-26050.771
-26052.18
-26051.127
-26052.023
-26051.428
-26051.443
-26051.45
-26051.585
-26052.663
-26050.771
-26051.158
-23316.575
-23315.08
-23318.731
-23315.646
-23315.997
-23316.174
-23316.284
-23316.585
-23316.213
-23316.711
-23315.08
-23318.129
-23317.773
-23315.795
-23316.216
-23316.378
-23316.583
-23317.46
-23315.939
-23315.409
-23318.731
-23317.773
-23318.843
-23316.91
-23317.295
-23317.416
-23317.618
-23318.994
-23317.893
-23316.348
-23315.646
-23315.795
-23316.91
-23314.961
-23315.33
-23315.418
-23315.541
-23316.992
-23316.416
-23315.736
-23315.997
-23316.216
-23317.295
-23315.33
-23315.692
-23315.766
-23315.838
-23317.187
-23316.495
-23315.752
-23316.174
-23316.378
-23317.416
-23315.418
-23315.766
-23315.836
-23315.9
-23317.228
-23316.504
-23315.735
-23316.284
-23316.583
-23317.618
-23315.541
-23315.838
-23315.9
-23315.964
-23317.295
-23316.584
-23315.873
-23316.585
-23317.46
-23318.994
-23316.992
-23317.187
-23317.228
-23317.295
-23318.649
-23318.001
-23317.355
-23316.213
-23315.939
-23317.893
-23316.416
-23316.495
-23316.504
-23316.584
-23318.001
-23317.433
-23314.992
-23316.711
-23315.409
-23316.348
-23315.736
-23315.752
-23315.735
-23315.873
-23317.355
-23314.992
-23315.757
-21070.067
-21068.304
-21071.874
-21068.725
-21069.15
-21069.343
-21069.453
-21069.835
-21069.499
-21070.15
-21068.304
-21071.039
-21070.613
-21068.645
-21069.137
-21069.298
-21069.494
-21070.565
-21069.038
-21068.655
-21071.874
-21070.613
-21071.666
-21069.735
-21070.184
-21070.292
-21070.461
-21072.075
-21071.032
-21069.627
-21068.725
-21068.645
-21069.735
-21067.787
-21068.216
-21068.283
-21068.352
-21070.028
-21069.527
-21069.016
-21069.15
-21069.137
-21070.184
-21068.216
-21068.637
-21068.688
-21068.696
-21070.254
-21069.619
-21069.031
-21069.343
-21069.298
-21070.292
-21068.283
-21068.688
-21068.735
-21068.733
-21070.266
-21069.595
-21068.981
-21069.453
-21069.494
-21070.461
-21068.352
-21068.696
-21068.733
-21068.731
-21070.269
-21069.618
-21069.096
-21069.835
-21070.565
-21072.075
-21070.028
-21070.254
-21070.266
-21070.269
-21071.842
-21071.29
-21070.918
-21069.499
-21069.038
-21071.032
-21069.527
-21069.619
-21069.595
-21069.618
-21071.29
-21070.911
-21068.223
-21070.15
-21068.655
-21069.627
-21069.016
-21069.031
-21068.981
-21069.096
-21070.918
-21068.223
-21069.321
-19151.221
-19149.25
-19152.716
-19149.585
-19150.072
-19150.273
-19150.37
-19150.801
-19150.499
-19151.296
-19149.25
-19151.69
-19151.246
-19149.339
-19149.888
-19150.039
-19150.203
-19151.401
-19149.893
-19149.67
-19152.716
-19151.246
-19152.295
-19150.418
-19150.917
-19151.004
-19151.117
-19152.882
-19151.905
-19150.663
-19149.585
-19149.339
-19150.418
-19148.521
-19148.998
-19149.037
-19149.03
-19150.842
-19150.408
-19150.066
-19150.072
-19149.888
-19150.917
-19148.998
-19149.467
-19149.488
-19149.413
-19151.092
-19150.51
-19150.078
-19150.273
-19150.039
-19151.004
-19149.037
-19149.488
-19149.505
-19149.419
-19151.071
-19150.447
-19149.991
-19150.37
-19150.203
-19151.117
-19149.03
-19149.413
-19149.419
-19149.332
-19150.991
-19150.394
-19150.062
-19150.801
-19151.401
-19152.882
-19150.842
-19151.092
-19151.071
-19150.991
-19152.694
-19152.231
-19152.147
-19150.499
-19149.893
-19151.905
-19150.408
-19150.51
-19150.447
-19150.394
-19152.231
-19152.044
-19149.224
-19151.296
-19149.67
-19150.663
-19150.066
-19150.078
-19149.991
-19150.062
-19152.147
-19149.224
-19150.604
-17461.423
-17459.326
-17462.668
-17459.619
-17460.155
-17460.356
-17460.43
-17460.881
-17460.605
-17461.518
-17459.326
-17461.509
-17461.085
-17459.276
-17459.867
-17460
-17460.116
-17461.382
-17459.903
-17459.818
-17462.668
-17461.085
-17462.136
-17460.35
-17460.886
-17460.945
-17460.989
-17462.829
-17461.908
-17460.818
-17459.619
-17459.276
-17460.35
-17458.541
-17459.053
-17459.059
-17458.967
-17460.837
-17460.449
-17460.245
-17460.155
-17459.867
-17460.886
-17459.053
-17459.556
-17459.543
-17459.377
-17461.104
-17460.556
-17460.253
-17460.356
-17460
-17460.945
-17459.059
-17459.543
-17459.527
-17459.349
-17461.046
-17460.454
-17460.127
-17460.43
-17460.116
-17460.989
-17458.967
-17459.377
-17459.349
-17459.17
-17460.875
-17460.314
-17460.143
-17460.881
-17461.382
-17462.829
-17460.837
-17461.104
-17461.046
-17460.875
-17462.632
-17462.238
-17462.414
-17460.605
-17459.903
-17461.908
-17460.449
-17460.556
-17460.454
-17460.314
-17462.238
-17462.22
-17459.346
-17461.518
-17459.818
-17460.818
-17460.245
-17460.253
-17460.127
-17460.143
-17462.414
-17459.346
-17460.946
-15938.325
-15936.184
-15939.383
-15936.467
-15937.036
-15937.23
-15937.274
-15937.723
-15937.461
-15938.451
-15936.184
-15938.154
-15937.775
-15936.089
-15936.705
-15936.816
-15936.876
-15938.159
-15936.711
-15936.729
-15939.383
-15937.775
-15938.828
-15937.157
-15937.714
-15937.744
-15937.713
-15939.564
-15938.685
-15937.721
-15936.467
-15936.089
-15937.157
-15935.46
-15935.993
-15935.966
-15935.787
-15937.652
-15937.288
-15937.181
-15937.036
-15936.705
-15937.714
-15935.993
-15936.517
-15936.471
-15936.213
-15937.929
-15937.396
-15937.182
-15937.23
-15936.816
-15937.744
-15935.966
-15936.471
-15936.421
-15936.15
-15937.834
-15937.255
-15937.019
-15937.274
-15936.876
-15937.713
-15935.787
-15936.213
-15936.15
-15935.879
-15937.571
-15937.027
-15936.974
-15937.723
-15938.159
-15939.564
-15937.652
-15937.929
-15937.834
-15937.571
-15939.322
-15938.971
-15939.359
-15937.461
-15936.711
-15938.685
-15937.288
-15937.396
-15937.255
-15937.027
-15938.971
-15939.089
-15936.212
-15938.451
-15936.729
-15937.721
-15937.181
-15937.182
-15937.019
-15936.974
-15939.359
-15936.212
-15937.972
-14541.72
-14539.61
-14542.647
-14539.899
-14540.486
-14540.668
-14540.681
-14541.109
-14540.852
-14541.878
-14539.61
-14541.405
-14541.086
-14539.536
-14540.162
-14540.247
-14540.249
-14541.51
-14540.094
-14540.176
-14542.647
-14541.086
-14542.133
-14540.591
-14541.156
-14541.156
-14541.051
-14542.864
-14542.015
-14541.147
-14539.899
-14539.536
-14540.591
-14539.023
-14539.564
-14539.505
-14539.243
-14541.055
-14540.695
-14540.644
-14540.486
-14540.162
-14541.156
-14539.564
-14540.096
-14540.018
-14539.675
-14541.335
-14540.802
-14540.639
-14540.668
-14540.247
-14541.156
-14539.505
-14540.018
-14539.936
-14539.58
-14541.207
-14540.626
-14540.443
-14540.681
-14540.249
-14541.051
-14539.243
-14539.675
-14539.58
-14539.224
-14540.858
-14540.315
-14540.337
-14541.109
-14541.51
-14542.864
-14541.055
-14541.335
-14541.207
-14540.858
-14542.556
-14542.227
-14542.772
-14540.852
-14540.094
-14542.015
-14540.695
-14540.802
-14540.626
-14540.315
-14542.227
-14542.446
-14539.601
-14541.878
-14540.176
-14541.147
-14540.644
-14540.639
-14540.443
-14540.337
-14542.772
-14539.601
-14541.46
-13245.503
-13243.484
-13246.342
-13243.787
-13244.379
-13244.545
-13244.526
-13244.922
-13244.663
-13245.688
-13243.484
-13245.135
-13244.881
-13243.474
-13244.096
-13244.155
-13244.101
-13245.31
-13243.93
-13244.042
-13246.342
-13244.881
-13245.911
-13244.506
-13245.067
-13245.038
-13244.866
-13246.604
-13245.777
-13244.978
-13243.787
-13243.474
-13244.506
-13243.075
-13243.612
-13243.524
-13243.189
-13244.915
-13244.546
-13244.515
-13244.379
-13244.096
-13245.067
-13243.612
-13244.14
-13244.033
-13243.618
-13245.19
-13244.649
-13244.503
-13244.545
-13244.155
-13245.038
-13243.524
-13244.033
-13243.923
-13243.495
-13245.033
-13244.443
-13244.28
-13244.526
-13244.101
-13244.866
-13243.189
-13243.618
-13243.495
-13243.065
-13244.611
-13244.059
-13244.118
-13244.922
-13245.31
-13246.604
-13244.915
-13245.19
-13245.033
-13244.611
-13246.222
-13245.899
-13246.549
-13244.663
-13243.93
-13245.777
-13244.546
-13244.649
-13244.443
-13244.059
-13245.899
-13246.189
-13243.401
-13245.688
-13244.042
-13244.978
-13244.515
-13244.503
-13244.28
-13244.118
-13246.549
-13243.401
-13245.305
-12032.853
-12030.969
-12033.635
-12031.287
-12031.869
-12032.018
-12031.97
-12032.328
-12032.063
-12033.056
-12030.969
-12032.497
-12032.307
-12031.044
-12031.65
-12031.683
-12031.579
-12032.717
-12031.377
-12031.491
-12033.635
-12032.307
-12033.309
-12032.043
-12032.589
-12032.534
-12032.303
-12033.941
-12033.132
-12032.382
-12031.287
-12031.044
-12032.043
-12030.751
-12031.273
-12031.16
-12030.766
-12032.381
-12031.997
-12031.96
-12031.869
-12031.65
-12032.589
-12031.273
-12031.787
-12031.656
-12031.183
-12032.647
-12032.094
-12031.942
-12032.018
-12031.683
-12032.534
-12031.16
-12031.656
-12031.523
-12031.036
-12032.467
-12031.865
-12031.698
-12031.97
-12031.579
-12032.303
-12030.766
-12031.183
-12031.036
-12030.548
-12031.985
-12031.422
-12031.488
-12032.328
-12032.717
-12033.941
-12032.381
-12032.647
-12032.467
-12031.985
-12033.488
-12033.163
-12033.871
-12032.063
-12031.377
-12033.132
-12031.997
-12032.094
-12031.865
-12031.422
-12033.163
-12033.495
-12030.787
-12033.056
-12031.491
-12032.382
-12031.96
-12031.942
-12031.698
-12031.488
-12033.871
-12030.787
-12032.688
-10893.197
-10891.478
-10893.941
-10891.808
-10892.37
-10892.5
-10892.426
-10892.743
-10892.472
-10893.409
-10891.478
-10892.898
-10892.766
-10891.644
-10892.222
-10892.233
-10892.086
-10893.14
-10891.848
-10891.944
-10893.941
-10892.766
-10893.729
-10892.598
-10893.119
-10893.043
-10892.765
-10894.286
-10893.496
-10892.781
-10891.808
-10891.644
-10892.598
-10891.443
-10891.942
-10891.809
-10891.371
-10892.861
-10892.461
-10892.4
-10892.37
-10892.222
-10893.119
-10891.942
-10892.433
-10892.284
-10891.768
-10893.113
-10892.549
-10892.377
-10892.5
-10892.233
-10893.043
-10891.809
-10892.284
-10892.132
-10891.603
-10892.915
-10892.304
-10892.119
-10892.426
-10892.086
-10892.765
-10891.371
-10891.768
-10891.603
-10891.073
-10892.391
-10891.817
-10891.87
-10892.743
-10893.14
-10894.286
-10892.861
-10893.113
-10892.915
-10892.391
-10893.773
-10893.441
-10894.171
-10892.472
-10891.848
-10893.496
-10892.461
-10892.549
-10892.304
-10891.817
-10893.441
-10893.795
-10891.185
-10893.409
-10891.944
-10892.781
-10892.4
-10892.377
-10892.119
-10891.87
-10894.171
-10891.185
-10893.045
-9820.2194
-9818.6817
-9820.9352
-9819.0162
-9819.5496
-9819.6613
-9819.5663
-9819.8411
-9819.5672
-9820.432
-9818.6817
-9819.9993
-9819.9197
-9818.93
-9819.4742
-9819.4652
-9819.284
-9820.2473
-9819.0119
-9819.0788
-9820.9352
-9819.9197
-9820.8308
-9819.8309
-9820.3202
-9820.2275
-9819.9146
-9821.3097
-9820.5415
-9819.8555
-9819.0162
-9818.93
-9819.8309
-9818.807
-9819.2758
-9819.1294
-9818.6612
-9820.0202
-9819.6068
-9819.5148
-9819.5496
-9819.4742
-9820.3202
-9819.2758
-9819.7378
-9819.5755
-9819.0342
-9820.2549
-9819.6862
-9819.4872
-9819.6613
-9819.4652
-9820.2275
-9819.1294
-9819.5755
-9819.4111
-9818.8573
-9820.0465
-9819.4322
-9819.2219
-9819.5663
-9819.284
-9819.9146
-9818.6612
-9819.0342
-9818.8573
-9818.3011
-9819.495
-9818.9166
-9818.9447
-9819.8411
-9820.2473
-9821.3097
-9820.0202
-9820.2549
-9820.0465
-9819.495
-9820.7518
-9820.4122
-9821.1356
-9819.5672
-9819.0119
-9820.5415
-9819.6068
-9819.6862
-9819.4322
-9818.9166
-9820.4122
-9820.7735
-9818.2779
-9820.432
-9819.0788
-9819.8555
-9819.5148
-9819.4872
-9819.2219
-9818.9447
-9821.1356
-9818.2779
-9820.0654
-8810.4818
-8809.1301
-8811.1715
-8809.4621
-8809.9601
-8810.054
-8809.9435
-8810.1783
-8809.9043
-8810.6876
-8809.1301
-8810.3491
-8810.3124
-8809.4473
-8809.9513
-8809.9258
-8809.72
-8810.5907
-8809.4201
-8809.453
-8811.1715
-8810.3124
-8811.1636
-8810.2865
-8810.7393
-8810.6343
-8810.2989
-8811.5649
-8810.8243
-8810.1646
-8809.4621
-8809.4473
-8810.2865
-8809.387
-8809.8209
-8809.6656
-8809.1823
-8810.4092
-8809.9882
-8809.8628
-8809.9601
-8809.9513
-8810.7393
-8809.8209
-8810.2489
-8810.0791
-8809.5271
-8810.6243
-8810.0582
-8809.832
-8810.054
-8809.9258
-8810.6343
-8809.6656
-8810.0791
-8809.9075
-8809.3437
-8810.411
-8809.8015
-8809.5658
-8809.9435
-8809.72
-8810.2989
-8809.1823
-8809.5271
-8809.3437
-8808.7772
-8809.8482
-8809.2724
-8809.2709
-8810.1783
-8810.5907
-8811.5649
-8810.4092
-8810.6243
-8810.411
-8809.8482
-8810.9789
-8810.6358
-8811.3322
-8809.9043
-8809.4201
-8810.8243
-8809.9882
-8810.0582
-8809.8015
-8809.2724
-8810.6358
-8810.9921
-8808.6267
-8810.6876
-8809.453
-8810.1646
-8809.8628
-8809.832
-8809.5658
-8809.2709
-8811.3322
-8808.6267
-8810.3186
-7862.4374
-7861.2682
-7863.0991
-7861.5907
-7862.0489
-7862.1261
-7862.0052
-7862.2032
-7861.9333
-7862.6308
-7861.2682
-7862.3893
-7862.3868
-7861.6367
-7862.0969
-7862.0584
-7861.837
-7862.6163
-7861.5183
-7861.5172
-7863.0991
-7862.3868
-7863.1716
-7862.4084
-7862.8216
-7862.7088
-7862.3623
-7863.5002
-7862.7934
-7862.1616
-7861.5907
-7861.6367
-7862.4084
-7861.6247
-7862.0208
-7861.8615
-7861.3762
-7862.4738
-7862.0525
-7861.8966
-7862.0489
-7862.0969
-7862.8216
-7862.0208
-7862.4118
-7862.2394
-7861.6905
-7862.6682
-7862.1131
-7861.8637
-7862.1261
-7862.0584
-7862.7088
-7861.8615
-7862.2394
-7862.0656
-7861.5057
-7862.4553
-7861.8596
-7861.6025
-7862.0052
-7861.837
-7862.3623
-7861.3762
-7861.6905
-7861.5057
-7860.9428
-7861.8952
-7861.3305
-7861.2995
-7862.2032
-7862.6163
-7863.5002
-7862.4738
-7862.6682
-7862.4553
-7861.8952
-7862.9034
-7862.5618
-7863.2175
-7861.9333
-7861.5183
-7862.7934
-7862.0525
-7862.1131
-7861.8596
-7861.3305
-7862.5618
-7862.9052
-7860.6832
-7862.6308
-7861.5172
-7862.1616
-7861.8966
-7861.8637
-7861.6025
-7861.2995
-7863.2175
-7860.6832
-7862.2633
-6975.6962
-6974.6999
-6976.3256
-6975.0068
-6975.4227
-6975.4848
-6975.3583
-6975.5234
-6975.2619
-6975.8737
-6974.6999
-6975.7233
-6975.7466
-6975.1013
-6975.516
-6975.468
-6975.2392
-6975.9306
-6974.9116
-6974.8799
-6976.3256
-6975.7466
-6976.4609
-6975.8021
-6976.1742
-6976.0577
-6975.7103
-6976.7241
-6976.0573
-6975.4569
-6975.0068
-6975.1013
-6975.8021
-6975.1248
-6975.4817
-6975.3227
-6974.8468
-6975.8207
-6975.4067
-6975.2263
-6975.4227
-6975.516
-6976.1742
-6975.4817
-6975.8343
-6975.6637
-6975.1296
-6975.994
-6975.4583
-6975.1924
-6975.4848
-6975.468
-6976.0577
-6975.3227
-6975.6637
-6975.492
-6974.9478
-6975.7863
-6975.2129
-6974.9409
-6975.3583
-6975.2392
-6975.7103
-6974.8468
-6975.1296
-6974.9478
-6974.4005
-6975.2408
-6974.6957
-6974.6386
-6975.5234
-6975.9306
-6976.7241
-6975.8207
-6975.994
-6975.7863
-6975.2408
-6976.1325
-6975.7981
-6976.4049
-6975.2619
-6974.9116
-6976.0573
-6975.4067
-6975.4583
-6975.2129
-6974.6957
-6975.7981
-6976.1235
-6974.0555
-6975.8737
-6974.8799
-6975.4569
-6975.2263
-6975.1924
-6974.9409
-6974.6386
-6976.4049
-6974.0555
-6975.5134
-6150.4656
-6149.6284
-6151.0578
-6149.9151
-6150.2877
-6150.3366
-6150.2088
-6150.3451
-6150.0959
-6150.6252
-6149.6284
-6150.5546
-6150.5962
-6150.0453
-6150.4145
-6150.3601
-6150.1311
-6150.7397
-6149.8045
-6149.7474
-6151.0578
-6150.5962
-6151.2383
-6150.6741
-6151.005
-6150.8884
-6150.5487
-6151.4447
-6150.8231
-6150.2583
-6149.9151
-6150.0453
-6150.6741
-6150.0934
-6150.411
-6150.2562
-6149.799
-6150.6565
-6150.2569
-6150.0595
-6150.2877
-6150.4145
-6151.005
-6150.411
-6150.7251
-6150.5601
-6150.0504
-6150.8092
-6150.3001
-6150.0257
-6150.3366
-6150.3601
-6150.8884
-6150.2562
-6150.5601
-6150.3942
-6149.8753
-6150.6104
-6150.067
-6149.7878
-6150.2088
-6150.1311
-6150.5487
-6149.799
-6150.0504
-6149.8753
-6149.3532
-6150.0894
-6149.5714
-6149.4935
-6150.3451
-6150.7397
-6151.4447
-6150.6565
-6150.8092
-6150.6104
-6150.0894
-6150.8723
-6150.5506
-6151.1043
-6150.0959
-6149.8045
-6150.8231
-6150.2569
-6150.3001
-6150.067
-6149.5714
-6150.5506
-6150.8548
-6148.9484
-6150.6252
-6149.7474
-6150.2583
-6150.0595
-6150.0257
-6149.7878
-6149.4935
-6151.1043
-6148.9484
-6150.2786
-5387.1202
-5386.4263
-5387.6706
-5386.6894
-5387.0192
-5387.0568
-5386.9313
-5387.0429
-5386.8093
-5387.2615
-5386.4263
-5387.2564
-5387.3101
-5386.8435
-5387.1682
-5387.1104
-5386.8872
-5387.4188
-5386.57
-5386.4937
-5387.6706
-5387.3101
-5387.8803
-5387.4009
-5387.6919
-5387.5782
-5387.2531
-5388.0388
-5387.4664
-5386.9413
-5386.6894
-5386.8435
-5387.4009
-5386.9072
-5387.1866
-5387.0388
-5386.6077
-5387.3572
-5386.9782
-5386.7714
-5387.0192
-5387.1682
-5387.6919
-5387.1866
-5387.4632
-5387.3066
-5386.8285
-5387.4901
-5387.0139
-5386.7386
-5387.0568
-5387.1104
-5387.5782
-5387.0388
-5387.3066
-5387.1495
-5386.6631
-5387.3033
-5386.796
-5386.5173
-5386.9313
-5386.8872
-5387.2531
-5386.6077
-5386.8285
-5386.6631
-5386.1736
-5386.8143
-5386.3294
-5386.2368
-5387.0429
-5387.4188
-5388.0388
-5387.3572
-5387.4901
-5387.3033
-5386.8143
-5387.4968
-5387.1926
-5387.692
-5386.8093
-5386.57
-5387.4664
-5386.9782
-5387.0139
-5386.796
-5386.3294
-5387.1926
-5387.4739
-5385.7336
-5387.2615
-5386.4937
-5386.9413
-5386.7714
-5386.7386
-5386.5173
-5386.2368
-5387.692
-5385.7336
-5386.9347
-4685.8763
-4685.3087
-4686.3813
-4685.5463
-4685.8349
-4685.863
-4685.7428
-4685.8335
-4685.618
-4685.9998
-4685.3087
-4686.0454
-4686.1058
-4685.7137
-4685.9961
-4685.9374
-4685.7246
-4686.1858
-4685.4239
-4685.3346
-4686.3813
-4686.1058
-4686.6063
-4686.2023
-4686.4554
-4686.3469
-4686.0417
-4686.7255
-4686.2048
-4685.7227
-4685.5463
-4685.7137
-4686.2023
-4685.7858
-4686.029
-4685.8906
-4685.4908
-4686.1413
-4685.7877
-4685.579
-4685.8349
-4685.9961
-4686.4554
-4686.029
-4686.2699
-4686.124
-4685.6827
-4686.2558
-4685.8168
-4685.5479
-4685.863
-4685.9374
-4686.3469
-4685.8906
-4686.124
-4685.9778
-4685.5291
-4686.0831
-4685.6164
-4685.3451
-4685.7428
-4685.7246
-4686.0417
-4685.4908
-4685.6827
-4685.5291
-4685.0774
-4685.6313
-4685.1842
-4685.0827
-4685.8335
-4686.1858
-4686.7255
-4686.1413
-4686.2558
-4686.0831
-4685.6313
-4686.2224
-4685.9394
-4686.3853
-4685.618
-4685.4239
-4686.2048
-4685.7877
-4685.8168
-4685.6164
-4685.1842
-4685.9394
-4686.1972
-4684.624
-4685.9998
-4685.3346
-4685.7227
-4685.579
-4685.5479
-4685.3451
-4685.0827
-4686.3853
-4684.624
-4685.6978
-4046.554
-4046.0958
-4047.0115
-4046.3071
-4046.557
-4046.5773
-4046.4645
-4046.5378
-4046.3421
-4046.6608
-4046.0958
-4046.743
-4046.806
-4046.4791
-4046.7222
-4046.6645
-4046.4656
-4046.863
-4046.1867
-4046.09
-4047.0115
-4046.806
-4047.2404
-4046.9027
-4047.1205
-4047.0191
-4046.7374
-4047.3282
-4046.8602
-4046.4232
-4046.3071
-4046.4791
-4046.9027
-4046.5544
-4046.7637
-4046.6363
-4046.2712
-4046.8319
-4046.5071
-4046.3027
-4046.557
-4046.7222
-4047.1205
-4046.7637
-4046.9714
-4046.8377
-4046.4363
-4046.9295
-4046.5306
-4046.2739
-4046.5773
-4046.6645
-4047.0191
-4046.6363
-4046.8377
-4046.7038
-4046.2959
-4046.7723
-4046.3489
-4046.0907
-4046.4645
-4046.4656
-4046.7374
-4046.2712
-4046.4363
-4046.2959
-4045.8852
-4046.361
-4045.9546
-4045.8494
-4046.5378
-4046.863
-4047.3282
-4046.8319
-4046.9295
-4046.7723
-4046.361
-4046.8694
-4046.6105
-4047.005
-4046.3421
-4046.1867
-4046.8602
-4046.5071
-4046.5306
-4046.3489
-4045.9546
-4046.6105
-4046.8446
-4045.4365
-4046.6608
-4046.09
-4046.4232
-4046.3027
-4046.2739
-4046.0907
-4045.8494
-4047.005
-4045.4365
-4046.3873
-3468.4187
-3468.0536
-3468.8279
-3468.2391
-3468.4531
-3468.4673
-3468.3634
-3468.4225
-3468.2473
-3468.5104
-3468.0536
-3468.6166
-3468.6789
-3468.4087
-3468.6158
-3468.5607
-3468.3781
-3468.7181
-3468.1242
-3468.0252
-3468.8279
-3468.6789
-3469.052
-3468.7721
-3468.9575
-3468.8645
-3468.6085
-3469.1151
-3468.6997
-3468.3084
-3468.2391
-3468.4087
-3468.7721
-3468.4831
-3468.6616
-3468.5462
-3468.2174
-3468.6973
-3468.4034
-3468.2084
-3468.4531
-3468.6158
-3468.9575
-3468.6616
-3468.8389
-3468.7182
-3468.3581
-3468.7798
-3468.4222
-3468.1823
-3468.4673
-3468.5607
-3468.8645
-3468.5462
-3468.7182
-3468.5976
-3468.2318
-3468.6388
-3468.2597
-3468.019
-3468.3634
-3468.3781
-3468.6085
-3468.2174
-3468.3581
-3468.2318
-3467.8633
-3468.2694
-3467.9049
-3467.8006
-3468.4225
-3468.7181
-3469.1151
-3468.6973
-3468.7798
-3468.6388
-3468.2694
-3468.7039
-3468.4704
-3468.8166
-3468.2473
-3468.1242
-3468.6997
-3468.4034
-3468.4222
-3468.2597
-3467.9049
-3468.4704
-3468.6814
-3467.4334
-3468.5104
-3468.0252
-3468.3084
-3468.2084
-3468.1823
-3468.019
-3467.8006
-3468.8166
-3467.4334
-3468.2676
-2950.0929
-2949.806
-2950.4545
-2949.9667
-2950.1483
-2950.1577
-2950.0636
-2950.111
-2949.9564
-2950.1713
-2949.806
-2950.2907
-2950.3503
-2950.1288
-2950.3036
-2950.2522
-2950.0872
-2950.376
-2949.8602
-2949.7627
-2950.4545
-2950.3503
-2950.6673
-2950.4372
-2950.5937
-2950.5098
-2950.2805
-2950.7117
-2950.3471
-2950.0011
-2949.9667
-2950.1288
-2950.4372
-2950.1997
-2950.3504
-2950.2474
-2949.9552
-2950.3632
-2950.1009
-2949.9189
-2950.1483
-2950.3036
-2950.5937
-2950.3504
-2950.5003
-2950.3929
-2950.074
-2950.4322
-2950.1158
-2949.8957
-2950.1577
-2950.2522
-2950.5098
-2950.2474
-2950.3929
-2950.2857
-2949.9619
-2950.3074
-2949.9724
-2949.7521
-2950.0636
-2950.0872
-2950.2805
-2949.9552
-2950.074
-2949.9619
-2949.6356
-2949.98
-2949.6573
-2949.5572
-2950.111
-2950.376
-2950.7117
-2950.3632
-2950.4322
-2950.3074
-2949.98
-2950.3487
-2950.1412
-2950.4427
-2949.9564
-2949.8602
-2950.3471
-2950.1009
-2950.1158
-2949.9724
-2949.6573
-2950.1412
-2950.3299
-2949.2346
-2950.1713
-2949.7627
-2950.0011
-2949.9189
-2949.8957
-2949.7521
-2949.5572
-2950.4427
-2949.2346
-2949.9597
-2489.5311
-2489.3088
-2489.8468
-2489.4463
-2489.5989
-2489.6048
-2489.5209
-2489.5588
-2489.4242
-2489.5979
-2489.3088
-2489.722
-2489.7773
-2489.5974
-2489.7434
-2489.6965
-2489.5496
-2489.7933
-2489.35
-2489.2569
-2489.8468
-2489.7773
-2490.0439
-2489.8565
-2489.9873
-2489.9127
-2489.7101
-2490.0744
-2489.7581
-2489.4557
-2489.4463
-2489.5974
-2489.8565
-2489.6629
-2489.789
-2489.6984
-2489.4421
-2489.7863
-2489.5553
-2489.3889
-2489.5989
-2489.7434
-2489.9873
-2489.789
-2489.9147
-2489.8205
-2489.5414
-2489.8437
-2489.5672
-2489.3687
-2489.6048
-2489.6965
-2489.9127
-2489.6984
-2489.8205
-2489.7265
-2489.4433
-2489.7346
-2489.4423
-2489.2439
-2489.5209
-2489.5496
-2489.7101
-2489.4421
-2489.5414
-2489.4433
-2489.1579
-2489.448
-2489.1658
-2489.0723
-2489.5588
-2489.7933
-2490.0744
-2489.7863
-2489.8437
-2489.7346
-2489.448
-2489.7587
-2489.5768
-2489.8373
-2489.4242
-2489.35
-2489.7581
-2489.5553
-2489.5672
-2489.4423
-2489.1658
-2489.5768
-2489.7442
-2488.7922
-2489.5979
-2489.2569
-2489.4557
-2489.3889
-2489.3687
-2489.2439
-2489.0723
-2489.8373
-2488.7922
-2489.417
-2084.0473
-2083.8777
-2084.3199
-2083.9941
-2084.1211
-2084.1244
-2084.0508
-2084.081
-2083.9653
-2084.1042
-2083.8777
-2084.2266
-2084.2767
-2084.1318
-2084.2528
-2084.2107
-2084.0817
-2084.2859
-2083.9088
-2083.8223
-2084.3199
-2084.2767
-2084.4987
-2084.3474
-2084.4558
-2084.3904
-2084.2137
-2084.5191
-2084.2477
-2083.9866
-2083.9941
-2084.1318
-2084.3474
-2084.1911
-2084.2957
-2084.217
-2083.9948
-2084.2831
-2084.0824
-2083.9329
-2084.1211
-2084.2528
-2084.4558
-2084.2957
-2084.4001
-2084.3185
-2084.0773
-2084.3305
-2084.0918
-2083.9156
-2084.1244
-2084.2107
-2084.3904
-2084.217
-2084.3185
-2084.2372
-2083.9925
-2084.2364
-2083.9842
-2083.8084
-2084.0508
-2084.0817
-2084.2137
-2083.9948
-2084.0773
-2083.9925
-2083.7457
-2083.9883
-2083.7446
-2083.6593
-2084.081
-2084.2859
-2084.5191
-2084.2831
-2084.3305
-2084.2364
-2083.9883
-2084.2484
-2084.0909
-2084.3143
-2083.9653
-2083.9088
-2084.2477
-2084.0824
-2084.0918
-2083.9842
-2083.7446
-2084.0909
-2084.2383
-2083.4188
-2084.1042
-2083.8223
-2083.9866
-2083.9329
-2083.9156
-2083.8084
-2083.6593
-2084.3143
-2083.4188
-2083.9523
-1730.3865
-1730.2593
-1730.6194
-1730.3568
-1730.4616
-1730.4631
-1730.3993
-1730.4233
-1730.3251
-1730.4351
-1730.2593
-1730.551
-1730.5957
-1730.4801
-1730.5793
-1730.5423
-1730.4304
-1730.6003
-1730.2828
-1730.2041
-1730.6194
-1730.5957
-1730.7786
-1730.6577
-1730.7467
-1730.6902
-1730.5379
-1730.792
-1730.5616
-1730.3386
-1730.3568
-1730.4801
-1730.6577
-1730.5327
-1730.6187
-1730.5512
-1730.3608
-1730.6005
-1730.4281
-1730.296
-1730.4616
-1730.5793
-1730.7467
-1730.6187
-1730.7046
-1730.6349
-1730.4287
-1730.6393
-1730.4356
-1730.2814
-1730.4631
-1730.5423
-1730.6902
-1730.5512
-1730.6349
-1730.5655
-1730.3563
-1730.5592
-1730.3441
-1730.1905
-1730.3993
-1730.4304
-1730.5379
-1730.3608
-1730.4287
-1730.3563
-1730.1453
-1730.3469
-1730.1387
-1730.0624
-1730.4233
-1730.6003
-1730.792
-1730.6005
-1730.6393
-1730.5592
-1730.3469