/*--------------------------------*- C++ -*----------------------------------*\
| =========                 |                                                 |
| \\      /  F ield         | OpenFOAM: The Open Source CFD Toolbox           |
|  \\    /   O peration     | Version:  v2106                                 |
|   \\  /    A nd           | Website:  www.openfoam.com                      |
|    \\/     M anipulation  |                                                 |
\*---------------------------------------------------------------------------*/
FoamFile
{
    version     2.0;
    format      ascii;
    arch        "LSB;label=32;scalar=64";
    class       volScalarField;
    location    "100";
    object      DT;
}
// * * * * * * * * * * * * * * * * * * * * * * * * * * * * * * * * * * * * * //

dimensions      [0 2 -1 0 0 0 0];

internalField   nonuniform List<scalar> 
4000
(
0.00054859701
0.00054859702
0.00054859703
0.00054859703
0.00054859703
0.00054859703
0.00054859703
0.00054859703
0.00054859703
0.00054859702
0.00054859702
0.00054859703
0.00054859703
0.00054859704
0.00054859704
0.00054859704
0.00054859704
0.00054859704
0.00054859703
0.00054859703
0.00054859703
0.00054859703
0.00054859704
0.00054859704
0.00054859704
0.00054859704
0.00054859704
0.00054859704
0.00054859704
0.00054859703
0.00054859703
0.00054859704
0.00054859704
0.00054859704
0.00054859704
0.00054859704
0.00054859704
0.00054859704
0.00054859704
0.00054859703
0.00054859703
0.00054859704
0.00054859704
0.00054859704
0.00054859705
0.00054859705
0.00054859704
0.00054859704
0.00054859704
0.00054859704
0.00054859703
0.00054859704
0.00054859704
0.00054859704
0.00054859705
0.00054859705
0.00054859704
0.00054859704
0.00054859704
0.00054859704
0.00054859703
0.00054859704
0.00054859704
0.00054859704
0.00054859704
0.00054859704
0.00054859704
0.00054859704
0.00054859704
0.00054859703
0.00054859703
0.00054859704
0.00054859704
0.00054859704
0.00054859704
0.00054859704
0.00054859704
0.00054859704
0.00054859703
0.00054859703
0.00054859703
0.00054859703
0.00054859704
0.00054859704
0.00054859704
0.00054859704
0.00054859704
0.00054859703
0.00054859703
0.00054859703
0.00054859702
0.00054859703
0.00054859703
0.00054859703
0.00054859704
0.00054859704
0.00054859703
0.00054859703
0.00054859703
0.00054859702
0.00057177674
0.00057177682
0.00057177686
0.00057177689
0.0005717769
0.0005717769
0.00057177689
0.00057177688
0.00057177685
0.00057177683
0.00057177682
0.00057177689
0.00057177693
0.00057177696
0.00057177697
0.00057177697
0.00057177696
0.00057177694
0.00057177691
0.00057177688
0.00057177686
0.00057177693
0.00057177697
0.000571777
0.00057177701
0.00057177701
0.000571777
0.00057177698
0.00057177695
0.00057177691
0.00057177689
0.00057177696
0.000571777
0.00057177702
0.00057177703
0.00057177703
0.00057177702
0.000571777
0.00057177697
0.00057177693
0.0005717769
0.00057177697
0.00057177701
0.00057177703
0.00057177704
0.00057177704
0.00057177703
0.000571777
0.00057177697
0.00057177694
0.0005717769
0.00057177697
0.00057177701
0.00057177703
0.00057177704
0.00057177704
0.00057177702
0.000571777
0.00057177697
0.00057177693
0.00057177689
0.00057177696
0.000571777
0.00057177702
0.00057177703
0.00057177702
0.00057177701
0.00057177698
0.00057177695
0.00057177692
0.00057177688
0.00057177694
0.00057177698
0.000571777
0.000571777
0.000571777
0.00057177698
0.00057177696
0.00057177693
0.00057177689
0.00057177685
0.00057177691
0.00057177695
0.00057177697
0.00057177697
0.00057177697
0.00057177695
0.00057177693
0.00057177689
0.00057177686
0.00057177683
0.00057177688
0.00057177691
0.00057177693
0.00057177694
0.00057177693
0.00057177692
0.00057177689
0.00057177686
0.00057177682
0.00059405139
0.00059405151
0.00059405159
0.00059405163
0.00059405166
0.00059405166
0.00059405164
0.00059405161
0.00059405156
0.00059405151
0.00059405151
0.00059405163
0.0005940517
0.00059405175
0.00059405177
0.00059405177
0.00059405175
0.00059405171
0.00059405166
0.00059405159
0.00059405159
0.0005940517
0.00059405177
0.00059405181
0.00059405183
0.00059405183
0.00059405181
0.00059405177
0.00059405172
0.00059405164
0.00059405163
0.00059405175
0.00059405181
0.00059405186
0.00059405188
0.00059405187
0.00059405185
0.00059405181
0.00059405175
0.00059405167
0.00059405166
0.00059405177
0.00059405183
0.00059405188
0.00059405189
0.00059405189
0.00059405187
0.00059405182
0.00059405176
0.00059405168
0.00059405166
0.00059405177
0.00059405183
0.00059405187
0.00059405189
0.00059405188
0.00059405186
0.00059405181
0.00059405175
0.00059405168
0.00059405164
0.00059405175
0.00059405181
0.00059405185
0.00059405187
0.00059405186
0.00059405183
0.00059405179
0.00059405172
0.00059405165
0.00059405161
0.00059405171
0.00059405177
0.00059405181
0.00059405182
0.00059405181
0.00059405179
0.00059405174
0.00059405167
0.0005940516
0.00059405156
0.00059405166
0.00059405172
0.00059405175
0.00059405176
0.00059405175
0.00059405172
0.00059405167
0.00059405161
0.00059405153
0.00059405151
0.00059405159
0.00059405164
0.00059405167
0.00059405168
0.00059405168
0.00059405165
0.0005940516
0.00059405153
0.00059405145
0.00061551811
0.00061551828
0.00061551838
0.00061551845
0.00061551848
0.00061551848
0.00061551845
0.0006155184
0.00061551833
0.00061551825
0.00061551828
0.00061551844
0.00061551854
0.0006155186
0.00061551863
0.00061551863
0.0006155186
0.00061551854
0.00061551846
0.00061551836
0.00061551838
0.00061551854
0.00061551863
0.00061551869
0.00061551872
0.00061551872
0.00061551868
0.00061551863
0.00061551854
0.00061551843
0.00061551845
0.0006155186
0.00061551869
0.00061551875
0.00061551877
0.00061551877
0.00061551874
0.00061551867
0.00061551858
0.00061551847
0.00061551848
0.00061551863
0.00061551872
0.00061551877
0.0006155188
0.00061551879
0.00061551875
0.00061551869
0.0006155186
0.00061551848
0.00061551848
0.00061551863
0.00061551872
0.00061551877
0.00061551879
0.00061551878
0.00061551874
0.00061551868
0.00061551858
0.00061551847
0.00061551845
0.0006155186
0.00061551868
0.00061551874
0.00061551875
0.00061551874
0.0006155187
0.00061551864
0.00061551854
0.00061551842
0.0006155184
0.00061551854
0.00061551863
0.00061551867
0.00061551869
0.00061551868
0.00061551864
0.00061551857
0.00061551847
0.00061551835
0.00061551833
0.00061551846
0.00061551854
0.00061551858
0.0006155186
0.00061551858
0.00061551854
0.00061551847
0.00061551837
0.00061551825
0.00061551825
0.00061551836
0.00061551843
0.00061551847
0.00061551848
0.00061551847
0.00061551842
0.00061551835
0.00061551825
0.00061551812
0.00063625773
0.00063625794
0.00063625806
0.00063625814
0.00063625818
0.00063625818
0.00063625814
0.00063625807
0.00063625798
0.00063625787
0.00063625794
0.00063625813
0.00063625825
0.00063625832
0.00063625836
0.00063625836
0.00063625832
0.00063625825
0.00063625814
0.000636258
0.00063625806
0.00063625825
0.00063625836
0.00063625844
0.00063625847
0.00063625846
0.00063625842
0.00063625834
0.00063625823
0.00063625808
0.00063625814
0.00063625832
0.00063625844
0.00063625851
0.00063625854
0.00063625853
0.00063625848
0.0006362584
0.00063625828
0.00063625813
0.00063625818
0.00063625836
0.00063625847
0.00063625854
0.00063625856
0.00063625855
0.00063625851
0.00063625842
0.0006362583
0.00063625815
0.00063625818
0.00063625836
0.00063625846
0.00063625853
0.00063625855
0.00063625854
0.00063625849
0.0006362584
0.00063625828
0.00063625812
0.00063625814
0.00063625832
0.00063625842
0.00063625848
0.00063625851
0.00063625849
0.00063625844
0.00063625835
0.00063625822
0.00063625806
0.00063625807
0.00063625825
0.00063625834
0.0006362584
0.00063625842
0.0006362584
0.00063625835
0.00063625826
0.00063625813
0.00063625797
0.00063625798
0.00063625814
0.00063625823
0.00063625828
0.0006362583
0.00063625828
0.00063625822
0.00063625813
0.000636258
0.00063625784
0.00063625787
0.000636258
0.00063625808
0.00063625813
0.00063625815
0.00063625812
0.00063625806
0.00063625797
0.00063625784
0.00063625767
0.00065633829
0.00065633854
0.00065633868
0.00065633877
0.00065633881
0.00065633881
0.00065633876
0.00065633868
0.00065633856
0.00065633842
0.00065633854
0.00065633876
0.0006563389
0.00065633899
0.00065633903
0.00065633902
0.00065633897
0.00065633888
0.00065633875
0.00065633857
0.00065633868
0.0006563389
0.00065633903
0.00065633911
0.00065633915
0.00065633914
0.00065633909
0.00065633899
0.00065633885
0.00065633867
0.00065633877
0.00065633899
0.00065633911
0.00065633919
0.00065633923
0.00065633922
0.00065633916
0.00065633906
0.00065633891
0.00065633872
0.00065633881
0.00065633903
0.00065633915
0.00065633923
0.00065633926
0.00065633924
0.00065633918
0.00065633908
0.00065633893
0.00065633874
0.00065633881
0.00065633902
0.00065633914
0.00065633922
0.00065633924
0.00065633923
0.00065633916
0.00065633906
0.0006563389
0.00065633871
0.00065633876
0.00065633897
0.00065633909
0.00065633916
0.00065633918
0.00065633916
0.0006563391
0.00065633899
0.00065633883
0.00065633864
0.00065633868
0.00065633888
0.00065633899
0.00065633906
0.00065633908
0.00065633906
0.00065633899
0.00065633887
0.00065633872
0.00065633852
0.00065633856
0.00065633875
0.00065633885
0.00065633891
0.00065633893
0.0006563389
0.00065633883
0.00065633872
0.00065633856
0.00065633836
0.00065633842
0.00065633857
0.00065633867
0.00065633872
0.00065633874
0.00065633871
0.00065633864
0.00065633852
0.00065633836
0.00065633815
0.00067581777
0.00067581805
0.00067581821
0.00067581831
0.00067581836
0.00067581835
0.00067581829
0.00067581819
0.00067581805
0.00067581789
0.00067581805
0.0006758183
0.00067581846
0.00067581855
0.0006758186
0.00067581859
0.00067581853
0.00067581842
0.00067581827
0.00067581806
0.00067581821
0.00067581846
0.0006758186
0.0006758187
0.00067581874
0.00067581873
0.00067581866
0.00067581855
0.00067581838
0.00067581816
0.00067581831
0.00067581855
0.0006758187
0.00067581879
0.00067581882
0.00067581881
0.00067581874
0.00067581862
0.00067581845
0.00067581823
0.00067581836
0.0006758186
0.00067581874
0.00067581882
0.00067581886
0.00067581884
0.00067581876
0.00067581864
0.00067581847
0.00067581824
0.00067581835
0.00067581859
0.00067581873
0.00067581881
0.00067581884
0.00067581881
0.00067581874
0.00067581861
0.00067581843
0.0006758182
0.00067581829
0.00067581853
0.00067581866
0.00067581874
0.00067581876
0.00067581874
0.00067581866
0.00067581853
0.00067581835
0.00067581812
0.00067581819
0.00067581842
0.00067581855
0.00067581862
0.00067581864
0.00067581861
0.00067581853
0.00067581839
0.00067581821
0.00067581798
0.00067581805
0.00067581827
0.00067581838
0.00067581845
0.00067581847
0.00067581843
0.00067581835
0.00067581821
0.00067581802
0.00067581779
0.00067581789
0.00067581806
0.00067581816
0.00067581823
0.00067581824
0.0006758182
0.00067581812
0.00067581798
0.00067581779
0.00067581754
0.00069474604
0.00069474635
0.00069474653
0.00069474663
0.00069474668
0.00069474667
0.00069474661
0.00069474649
0.00069474633
0.00069474614
0.00069474635
0.00069474663
0.0006947468
0.0006947469
0.00069474695
0.00069474693
0.00069474686
0.00069474674
0.00069474656
0.00069474633
0.00069474653
0.0006947468
0.00069474696
0.00069474706
0.0006947471
0.00069474708
0.00069474701
0.00069474688
0.00069474669
0.00069474644
0.00069474663
0.0006947469
0.00069474706
0.00069474715
0.00069474719
0.00069474717
0.00069474709
0.00069474695
0.00069474676
0.00069474651
0.00069474668
0.00069474695
0.0006947471
0.00069474719
0.00069474722
0.0006947472
0.00069474712
0.00069474697
0.00069474678
0.00069474652
0.00069474667
0.00069474693
0.00069474708
0.00069474717
0.0006947472
0.00069474717
0.00069474708
0.00069474694
0.00069474673
0.00069474648
0.00069474661
0.00069474686
0.00069474701
0.00069474709
0.00069474712
0.00069474708
0.00069474699
0.00069474684
0.00069474664
0.00069474638
0.00069474649
0.00069474674
0.00069474688
0.00069474695
0.00069474697
0.00069474694
0.00069474684
0.00069474669
0.00069474648
0.00069474622
0.00069474633
0.00069474656
0.00069474669
0.00069474676
0.00069474678
0.00069474673
0.00069474664
0.00069474648
0.00069474627
0.000694746
0.00069474614
0.00069474633
0.00069474644
0.00069474651
0.00069474652
0.00069474648
0.00069474638
0.00069474622
0.000694746
0.00069474571
0.00071316638
0.00071316672
0.0007131669
0.00071316702
0.00071316707
0.00071316705
0.00071316698
0.00071316685
0.00071316667
0.00071316646
0.00071316672
0.00071316702
0.00071316719
0.00071316731
0.00071316735
0.00071316733
0.00071316726
0.00071316712
0.00071316692
0.00071316666
0.0007131669
0.00071316719
0.00071316737
0.00071316747
0.00071316752
0.00071316749
0.00071316741
0.00071316726
0.00071316705
0.00071316678
0.00071316702
0.00071316731
0.00071316747
0.00071316758
0.00071316761
0.00071316759
0.0007131675
0.00071316735
0.00071316713
0.00071316685
0.00071316707
0.00071316735
0.00071316752
0.00071316761
0.00071316765
0.00071316762
0.00071316752
0.00071316736
0.00071316714
0.00071316686
0.00071316705
0.00071316733
0.00071316749
0.00071316759
0.00071316762
0.00071316758
0.00071316748
0.00071316732
0.00071316709
0.00071316681
0.00071316698
0.00071316726
0.00071316741
0.0007131675
0.00071316752
0.00071316748
0.00071316738
0.00071316721
0.00071316698
0.00071316669
0.00071316685
0.00071316712
0.00071316726
0.00071316735
0.00071316736
0.00071316732
0.00071316721
0.00071316704
0.00071316681
0.00071316652
0.00071316667
0.00071316692
0.00071316705
0.00071316713
0.00071316714
0.00071316709
0.00071316698
0.00071316681
0.00071316657
0.00071316627
0.00071316646
0.00071316666
0.00071316678
0.00071316685
0.00071316686
0.00071316681
0.00071316669
0.00071316652
0.00071316627
0.00071316596
0.00073111664
0.000731117
0.0007311172
0.00073111732
0.00073111737
0.00073111735
0.00073111727
0.00073111712
0.00073111693
0.0007311167
0.000731117
0.00073111732
0.00073111751
0.00073111763
0.00073111767
0.00073111765
0.00073111756
0.00073111741
0.00073111719
0.00073111691
0.0007311172
0.00073111751
0.00073111769
0.0007311178
0.00073111784
0.00073111782
0.00073111773
0.00073111756
0.00073111734
0.00073111703
0.00073111732
0.00073111763
0.0007311178
0.00073111791
0.00073111795
0.00073111792
0.00073111782
0.00073111765
0.00073111741
0.0007311171
0.00073111737
0.00073111767
0.00073111784
0.00073111795
0.00073111798
0.00073111794
0.00073111784
0.00073111767
0.00073111742
0.00073111711
0.00073111735
0.00073111765
0.00073111782
0.00073111792
0.00073111794
0.0007311179
0.00073111779
0.00073111762
0.00073111737
0.00073111706
0.00073111727
0.00073111756
0.00073111773
0.00073111782
0.00073111784
0.00073111779
0.00073111768
0.0007311175
0.00073111725
0.00073111693
0.00073111712
0.00073111741
0.00073111756
0.00073111765
0.00073111767
0.00073111762
0.0007311175
0.00073111731
0.00073111706
0.00073111674
0.00073111693
0.00073111719
0.00073111734
0.00073111741
0.00073111742
0.00073111737
0.00073111725
0.00073111706
0.0007311168
0.00073111647
0.0007311167
0.00073111691
0.00073111703
0.0007311171
0.00073111711
0.00073111706
0.00073111693
0.00073111674
0.00073111647
0.00073111613
0.00074863018
0.00074863056
0.00074863076
0.00074863089
0.00074863094
0.00074863092
0.00074863082
0.00074863067
0.00074863046
0.00074863021
0.00074863056
0.00074863089
0.00074863109
0.00074863121
0.00074863126
0.00074863123
0.00074863114
0.00074863097
0.00074863074
0.00074863043
0.00074863076
0.00074863109
0.00074863128
0.00074863139
0.00074863144
0.00074863141
0.0007486313
0.00074863113
0.00074863088
0.00074863056
0.00074863089
0.00074863121
0.00074863139
0.0007486315
0.00074863154
0.00074863151
0.0007486314
0.00074863122
0.00074863096
0.00074863063
0.00074863094
0.00074863126
0.00074863144
0.00074863154
0.00074863157
0.00074863153
0.00074863142
0.00074863123
0.00074863097
0.00074863064
0.00074863092
0.00074863123
0.00074863141
0.00074863151
0.00074863153
0.00074863149
0.00074863137
0.00074863118
0.00074863091
0.00074863058
0.00074863082
0.00074863114
0.0007486313
0.0007486314
0.00074863142
0.00074863137
0.00074863124
0.00074863105
0.00074863078
0.00074863044
0.00074863067
0.00074863097
0.00074863113
0.00074863122
0.00074863123
0.00074863118
0.00074863105
0.00074863085
0.00074863057
0.00074863023
0.00074863046
0.00074863074
0.00074863088
0.00074863096
0.00074863097
0.00074863091
0.00074863078
0.00074863057
0.0007486303
0.00074862995
0.00074863021
0.00074863043
0.00074863056
0.00074863063
0.00074863064
0.00074863058
0.00074863044
0.00074863023
0.00074862995
0.00074862958
0.00076573656
0.00076573695
0.00076573717
0.0007657373
0.00076573734
0.00076573732
0.00076573722
0.00076573705
0.00076573683
0.00076573657
0.00076573695
0.0007657373
0.00076573751
0.00076573763
0.00076573768
0.00076573765
0.00076573754
0.00076573737
0.00076573712
0.00076573679
0.00076573717
0.00076573751
0.0007657377
0.00076573782
0.00076573786
0.00076573783
0.00076573772
0.00076573753
0.00076573727
0.00076573693
0.0007657373
0.00076573763
0.00076573782
0.00076573793
0.00076573797
0.00076573793
0.00076573781
0.00076573762
0.00076573735
0.000765737
0.00076573734
0.00076573768
0.00076573786
0.00076573797
0.000765738
0.00076573795
0.00076573783
0.00076573763
0.00076573736
0.000765737
0.00076573732
0.00076573765
0.00076573783
0.00076573793
0.00076573795
0.0007657379
0.00076573778
0.00076573757
0.00076573729
0.00076573693
0.00076573722
0.00076573754
0.00076573772
0.00076573781
0.00076573783
0.00076573778
0.00076573764
0.00076573743
0.00076573715
0.00076573679
0.00076573705
0.00076573737
0.00076573753
0.00076573762
0.00076573763
0.00076573757
0.00076573743
0.00076573722
0.00076573693
0.00076573657
0.00076573683
0.00076573712
0.00076573727
0.00076573735
0.00076573736
0.00076573729
0.00076573715
0.00076573693
0.00076573664
0.00076573626
0.00076573657
0.00076573679
0.00076573693
0.000765737
0.000765737
0.00076573693
0.00076573679
0.00076573657
0.00076573626
0.00076573587
0.00078246216
0.00078246256
0.00078246278
0.00078246291
0.00078246296
0.00078246293
0.00078246282
0.00078246265
0.00078246241
0.00078246214
0.00078246256
0.00078246292
0.00078246313
0.00078246326
0.0007824633
0.00078246327
0.00078246316
0.00078246297
0.00078246271
0.00078246237
0.00078246278
0.00078246313
0.00078246333
0.00078246345
0.00078246349
0.00078246345
0.00078246333
0.00078246314
0.00078246287
0.00078246251
0.00078246291
0.00078246326
0.00078246345
0.00078246356
0.0007824636
0.00078246355
0.00078246343
0.00078246323
0.00078246295
0.00078246258
0.00078246296
0.0007824633
0.00078246349
0.0007824636
0.00078246363
0.00078246358
0.00078246345
0.00078246324
0.00078246295
0.00078246258
0.00078246293
0.00078246327
0.00078246345
0.00078246355
0.00078246358
0.00078246352
0.00078246339
0.00078246317
0.00078246288
0.0007824625
0.00078246282
0.00078246316
0.00078246333
0.00078246343
0.00078246345
0.00078246339
0.00078246325
0.00078246303
0.00078246273
0.00078246235
0.00078246265
0.00078246297
0.00078246314
0.00078246323
0.00078246324
0.00078246317
0.00078246303
0.0007824628
0.0007824625
0.00078246212
0.00078246241
0.00078246271
0.00078246287
0.00078246295
0.00078246295
0.00078246288
0.00078246273
0.0007824625
0.00078246219
0.0007824618
0.00078246214
0.00078246237
0.00078246251
0.00078246258
0.00078246258
0.0007824625
0.00078246235
0.00078246212
0.0007824618
0.00078246139
0.00079883061
0.00079883103
0.00079883125
0.00079883138
0.00079883143
0.00079883139
0.00079883128
0.0007988311
0.00079883085
0.00079883057
0.00079883103
0.00079883139
0.00079883161
0.00079883173
0.00079883178
0.00079883174
0.00079883162
0.00079883143
0.00079883116
0.0007988308
0.00079883125
0.00079883161
0.00079883181
0.00079883193
0.00079883197
0.00079883193
0.0007988318
0.0007988316
0.00079883131
0.00079883094
0.00079883138
0.00079883173
0.00079883193
0.00079883204
0.00079883208
0.00079883203
0.0007988319
0.00079883169
0.00079883139
0.00079883101
0.00079883143
0.00079883178
0.00079883197
0.00079883208
0.00079883211
0.00079883205
0.00079883191
0.0007988317
0.0007988314
0.00079883101
0.00079883139
0.00079883174
0.00079883193
0.00079883203
0.00079883205
0.00079883199
0.00079883185
0.00079883162
0.00079883132
0.00079883093
0.00079883128
0.00079883162
0.0007988318
0.0007988319
0.00079883191
0.00079883185
0.0007988317
0.00079883147
0.00079883116
0.00079883077
0.0007988311
0.00079883143
0.0007988316
0.00079883169
0.0007988317
0.00079883162
0.00079883147
0.00079883124
0.00079883092
0.00079883053
0.00079883085
0.00079883116
0.00079883131
0.00079883139
0.0007988314
0.00079883132
0.00079883116
0.00079883092
0.0007988306
0.0007988302
0.00079883057
0.0007988308
0.00079883094
0.00079883101
0.00079883101
0.00079883093
0.00079883077
0.00079883053
0.0007988302
0.00079882977
0.00081486323
0.00081486365
0.00081486388
0.00081486401
0.00081486405
0.00081486402
0.0008148639
0.00081486371
0.00081486346
0.00081486316
0.00081486365
0.00081486403
0.00081486424
0.00081486437
0.00081486441
0.00081486437
0.00081486425
0.00081486405
0.00081486377
0.0008148634
0.00081486388
0.00081486424
0.00081486444
0.00081486457
0.0008148646
0.00081486456
0.00081486443
0.00081486422
0.00081486392
0.00081486354
0.00081486401
0.00081486437
0.00081486457
0.00081486468
0.00081486471
0.00081486466
0.00081486452
0.00081486431
0.000814864
0.00081486361
0.00081486405
0.00081486441
0.0008148646
0.00081486471
0.00081486474
0.00081486468
0.00081486454
0.00081486431
0.000814864
0.00081486361
0.00081486402
0.00081486437
0.00081486456
0.00081486466
0.00081486468
0.00081486461
0.00081486447
0.00081486424
0.00081486392
0.00081486352
0.0008148639
0.00081486425
0.00081486443
0.00081486452
0.00081486454
0.00081486447
0.00081486431
0.00081486408
0.00081486376
0.00081486336
0.00081486371
0.00081486405
0.00081486422
0.00081486431
0.00081486431
0.00081486424
0.00081486408
0.00081486384
0.00081486351
0.0008148631
0.00081486346
0.00081486377
0.00081486392
0.000814864
0.000814864
0.00081486392
0.00081486376
0.00081486351
0.00081486318
0.00081486276
0.00081486316
0.0008148634
0.00081486354
0.00081486361
0.00081486361
0.00081486352
0.00081486336
0.0008148631
0.00081486276
0.00081486232
0.0008305793
0.00083057973
0.00083057995
0.00083058008
0.00083058013
0.00083058009
0.00083057997
0.00083057977
0.00083057951
0.00083057921
0.00083057973
0.0008305801
0.00083058032
0.00083058044
0.00083058048
0.00083058044
0.00083058031
0.00083058011
0.00083057982
0.00083057945
0.00083057995
0.00083058032
0.00083058052
0.00083058064
0.00083058068
0.00083058063
0.0008305805
0.00083058028
0.00083057998
0.00083057959
0.00083058008
0.00083058044
0.00083058064
0.00083058076
0.00083058079
0.00083058073
0.00083058059
0.00083058037
0.00083058006
0.00083057966
0.00083058013
0.00083058048
0.00083058068
0.00083058079
0.00083058081
0.00083058075
0.0008305806
0.00083058037
0.00083058005
0.00083057965
0.00083058009
0.00083058044
0.00083058063
0.00083058073
0.00083058075
0.00083058068
0.00083058053
0.00083058029
0.00083057997
0.00083057956
0.00083057997
0.00083058031
0.0008305805
0.00083058059
0.0008305806
0.00083058053
0.00083058037
0.00083058013
0.0008305798
0.00083057939
0.00083057977
0.00083058011
0.00083058028
0.00083058037
0.00083058037
0.00083058029
0.00083058013
0.00083057988
0.00083057955
0.00083057913
0.00083057951
0.00083057982
0.00083057998
0.00083058006
0.00083058005
0.00083057997
0.0008305798
0.00083057955
0.00083057921
0.00083057878
0.00083057921
0.00083057945
0.00083057959
0.00083057966
0.00083057965
0.00083057956
0.00083057939
0.00083057913
0.00083057878
0.00083057833
0.00084599635
0.00084599678
0.000845997
0.00084599713
0.00084599717
0.00084599713
0.00084599701
0.00084599681
0.00084599654
0.00084599624
0.00084599678
0.00084599716
0.00084599737
0.00084599749
0.00084599753
0.00084599748
0.00084599736
0.00084599715
0.00084599686
0.00084599648
0.000845997
0.00084599737
0.00084599757
0.00084599769
0.00084599772
0.00084599767
0.00084599754
0.00084599732
0.00084599701
0.00084599661
0.00084599713
0.00084599749
0.00084599769
0.0008459978
0.00084599783
0.00084599777
0.00084599763
0.0008459974
0.00084599709
0.00084599668
0.00084599717
0.00084599753
0.00084599772
0.00084599783
0.00084599785
0.00084599779
0.00084599764
0.0008459974
0.00084599708
0.00084599667
0.00084599713
0.00084599748
0.00084599767
0.00084599777
0.00084599779
0.00084599772
0.00084599756
0.00084599732
0.00084599699
0.00084599658
0.00084599701
0.00084599736
0.00084599754
0.00084599763
0.00084599764
0.00084599756
0.0008459974
0.00084599715
0.00084599682
0.00084599641
0.00084599681
0.00084599715
0.00084599732
0.0008459974
0.0008459974
0.00084599732
0.00084599715
0.0008459969
0.00084599656
0.00084599614
0.00084599654
0.00084599686
0.00084599701
0.00084599709
0.00084599708
0.00084599699
0.00084599682
0.00084599656
0.00084599622
0.00084599579
0.00084599624
0.00084599648
0.00084599661
0.00084599668
0.00084599667
0.00084599658
0.00084599641
0.00084599614
0.00084599579
0.00084599533
0.00086113038
0.0008611308
0.00086113103
0.00086113115
0.00086113119
0.00086113115
0.00086113102
0.00086113082
0.00086113055
0.00086113024
0.0008611308
0.00086113118
0.00086113139
0.00086113151
0.00086113155
0.0008611315
0.00086113137
0.00086113116
0.00086113086
0.00086113048
0.00086113103
0.00086113139
0.00086113159
0.00086113171
0.00086113174
0.00086113168
0.00086113155
0.00086113132
0.00086113102
0.00086113062
0.00086113115
0.00086113151
0.00086113171
0.00086113182
0.00086113184
0.00086113178
0.00086113164
0.00086113141
0.00086113109
0.00086113068
0.00086113119
0.00086113155
0.00086113174
0.00086113184
0.00086113186
0.00086113179
0.00086113164
0.00086113141
0.00086113108
0.00086113067
0.00086113115
0.0008611315
0.00086113168
0.00086113178
0.00086113179
0.00086113172
0.00086113156
0.00086113132
0.00086113099
0.00086113058
0.00086113102
0.00086113137
0.00086113155
0.00086113164
0.00086113164
0.00086113156
0.0008611314
0.00086113115
0.00086113082
0.0008611304
0.00086113082
0.00086113116
0.00086113132
0.00086113141
0.00086113141
0.00086113132
0.00086113115
0.0008611309
0.00086113056
0.00086113013
0.00086113055
0.00086113086
0.00086113102
0.00086113109
0.00086113108
0.00086113099
0.00086113082
0.00086113056
0.00086113021
0.00086112977
0.00086113024
0.00086113048
0.00086113062
0.00086113068
0.00086113067
0.00086113058
0.0008611304
0.00086113013
0.00086112977
0.00086112932
0.00087599603
0.00087599645
0.00087599667
0.00087599679
0.00087599683
0.00087599678
0.00087599666
0.00087599645
0.00087599619
0.00087599588
0.00087599645
0.00087599682
0.00087599703
0.00087599715
0.00087599718
0.00087599713
0.000875997
0.00087599679
0.00087599649
0.00087599611
0.00087599667
0.00087599703
0.00087599723
0.00087599734
0.00087599737
0.00087599731
0.00087599718
0.00087599695
0.00087599664
0.00087599624
0.00087599679
0.00087599715
0.00087599734
0.00087599745
0.00087599747
0.00087599741
0.00087599726
0.00087599703
0.00087599671
0.00087599631
0.00087599683
0.00087599718
0.00087599737
0.00087599747
0.00087599749
0.00087599742
0.00087599727
0.00087599703
0.0008759967
0.00087599629
0.00087599678
0.00087599713
0.00087599731
0.00087599741
0.00087599742
0.00087599734
0.00087599719
0.00087599694
0.00087599661
0.0008759962
0.00087599666
0.000875997
0.00087599718
0.00087599726
0.00087599727
0.00087599719
0.00087599702
0.00087599677
0.00087599643
0.00087599602
0.00087599645
0.00087599679
0.00087599695
0.00087599703
0.00087599703
0.00087599694
0.00087599677
0.00087599651
0.00087599617
0.00087599575
0.00087599619
0.00087599649
0.00087599664
0.00087599671
0.0008759967
0.00087599661
0.00087599643
0.00087599617
0.00087599582
0.00087599539
0.00087599588
0.00087599611
0.00087599624
0.00087599631
0.00087599629
0.0008759962
0.00087599602
0.00087599575
0.00087599539
0.00087599493
0.00089060677
0.00089060719
0.0008906074
0.00089060752
0.00089060755
0.0008906075
0.00089060738
0.00089060717
0.00089060691
0.0008906066
0.00089060719
0.00089060755
0.00089060775
0.00089060787
0.0008906079
0.00089060785
0.00089060771
0.0008906075
0.00089060721
0.00089060683
0.0008906074
0.00089060775
0.00089060795
0.00089060806
0.00089060808
0.00089060802
0.00089060788
0.00089060766
0.00089060735
0.00089060696
0.00089060752
0.00089060787
0.00089060806
0.00089060816
0.00089060818
0.00089060812
0.00089060797
0.00089060774
0.00089060742
0.00089060702
0.00089060755
0.0008906079
0.00089060808
0.00089060818
0.00089060819
0.00089060812
0.00089060797
0.00089060773
0.00089060741
0.000890607
0.0008906075
0.00089060785
0.00089060802
0.00089060812
0.00089060812
0.00089060805
0.00089060789
0.00089060764
0.00089060731
0.0008906069
0.00089060738
0.00089060771
0.00089060788
0.00089060797
0.00089060797
0.00089060789
0.00089060772
0.00089060747
0.00089060714
0.00089060672
0.00089060717
0.0008906075
0.00089060766
0.00089060774
0.00089060773
0.00089060764
0.00089060747
0.00089060722
0.00089060688
0.00089060646
0.00089060691
0.00089060721
0.00089060735
0.00089060742
0.00089060741
0.00089060731
0.00089060714
0.00089060688
0.00089060653
0.0008906061
0.0008906066
0.00089060683
0.00089060696
0.00089060702
0.000890607
0.0008906069
0.00089060672
0.00089060646
0.0008906061
0.00089060564
0.00090497501
0.00090497541
0.00090497562
0.00090497573
0.00090497577
0.00090497572
0.00090497559
0.00090497539
0.00090497512
0.00090497482
0.00090497541
0.00090497577
0.00090497596
0.00090497608
0.0009049761
0.00090497605
0.00090497592
0.00090497571
0.00090497542
0.00090497504
0.00090497562
0.00090497596
0.00090497615
0.00090497626
0.00090497628
0.00090497622
0.00090497608
0.00090497586
0.00090497556
0.00090497516
0.00090497573
0.00090497608
0.00090497626
0.00090497636
0.00090497638
0.00090497631
0.00090497616
0.00090497593
0.00090497562
0.00090497522
0.00090497577
0.0009049761
0.00090497628
0.00090497638
0.00090497639
0.00090497632
0.00090497616
0.00090497593
0.00090497561
0.0009049752
0.00090497572
0.00090497605
0.00090497622
0.00090497631
0.00090497632
0.00090497624
0.00090497608
0.00090497584
0.00090497551
0.0009049751
0.00090497559
0.00090497592
0.00090497608
0.00090497616
0.00090497616
0.00090497608
0.00090497591
0.00090497567
0.00090497534
0.00090497493
0.00090497539
0.00090497571
0.00090497586
0.00090497593
0.00090497593
0.00090497584
0.00090497567
0.00090497541
0.00090497508
0.00090497466
0.00090497512
0.00090497542
0.00090497556
0.00090497562
0.00090497561
0.00090497551
0.00090497534
0.00090497508
0.00090497473
0.00090497431
0.00090497482
0.00090497504
0.00090497516
0.00090497522