/*--------------------------------*- C++ -*----------------------------------*\
| =========                 |                                                 |
| \\      /  F ield         | OpenFOAM: The Open Source CFD Toolbox           |
|  \\    /   O peration     | Version:  v2106                                 |
|   \\  /    A nd           | Website:  www.openfoam.com                      |
|    \\/     M anipulation  |                                                 |
\*---------------------------------------------------------------------------*/
FoamFile
{
    version     2.0;
    format      ascii;
    arch        "LSB;label=32;scalar=64";
    class       volScalarField;
    location    "100";
    object      gradTy;
}
// * * * * * * * * * * * * * * * * * * * * * * * * * * * * * * * * * * * * * //

dimensions      [0 -1 0 1 0 0 0];

internalField   nonuniform List<scalar> 
4000
(
0.00014936936
0.00013657584
0.0001333457
0.00013199245
0.00013113404
0.00013029652
0.00012910773
0.00012685601
0.00012162461
0.0001087681
0.00033639427
0.00031235879
0.00030407118
0.00029966435
0.0002964496
0.0002932429
0.00028901888
0.00028208526
0.00026882402
0.0002428229
0.00018150425
0.00017462917
0.00016880982
0.0001641957
0.00016014792
0.00015601792
0.00015111616
0.00014461895
0.00013583219
0.00012623258
0.00010363436
0.00010031685
9.601278e-05
9.1654961e-05
8.738198e-05
8.3017315e-05
7.828487e-05
7.298714e-05
6.7377951e-05
6.2958431e-05
3.8225944e-05
3.5682041e-05
3.1804482e-05
2.7504252e-05
2.3166839e-05
1.8850614e-05
1.4507412e-05
1.0189796e-05
6.2868679e-06
3.730623e-06
-1.9781759e-05
-2.2821214e-05
-2.7212481e-05
-3.1852986e-05
-3.6309589e-05
-4.0512415e-05
-4.4489758e-05
-4.8176363e-05
-5.1262828e-05
-5.3137189e-05
-6.9802658e-05
-7.4963413e-05
-8.0960285e-05
-8.6362385e-05
-9.0990469e-05
-9.5023206e-05
-9.8654417e-05
-0.0001019499
-0.00010473852
-0.00010650634
-0.00010685487
-0.00011807954
-0.00012704972
-0.00013336351
-0.00013795664
-0.00014158405
-0.0001447297
-0.00014766816
-0.00015043351
-0.00015254242
-0.00011601581
-0.00014314768
-0.00015527817
-0.00016153405
-0.00016530688
-0.00016799323
-0.0001702677
-0.00017254967
-0.00017514197
-0.00017785078
-3.6950825e-05
-4.9807341e-05
-5.4284905e-05
-5.6207084e-05
-5.7231253e-05
-5.791125e-05
-5.848083e-05
-5.9089791e-05
-5.9886767e-05
-6.0895669e-05
0.0012871701
0.0011633737
0.0011332807
0.0011203447
0.0011120382
0.0011039169
0.0010923779
0.0010703817
0.0010175952
0.00086541898
0.0029912596
0.0027604255
0.0026825377
0.0026402213
0.0026091089
0.0025780218
0.0025370376
0.0024695198
0.0023376981
0.0020456294
0.0017249035
0.0016603599
0.0016046992
0.0015601456
0.0015209493
0.0014809147
0.0014333737
0.0013703224
0.0012849755
0.0011933326
0.00099595243
0.00096408866
0.0009225236
0.00088033871
0.00083893339
0.00079661747
0.00075072185
0.0006993361
0.00064493842
0.00060220795
0.00036584473
0.00034120317
0.00030364526
0.00026197231
0.00021992401
0.00017806862
0.00013594022
9.4050229e-05
5.617911e-05
3.1379702e-05
-0.00019660226
-0.00022609272
-0.00026867357
-0.0003136683
-0.00035688511
-0.00039765211
-0.00043624949
-0.00047205126
-0.00050205792
-0.00052030826
-0.00068427518
-0.00073457808
-0.00079277718
-0.00084517034
-0.00089005854
-0.00092918873
-0.0009644577
-0.00099653334
-0.0010237936
-0.0010412186
-0.0010519676
-0.0011641416
-0.0012513071
-0.0013125398
-0.0013570905
-0.0013923009
-0.0014228989
-0.0014516369
-0.0014790503
-0.0015006431
-0.00116564
-0.0014730841
-0.0015895304
-0.0016500739
-0.0016866586
-0.0017127444
-0.0017349156
-0.0017574297
-0.0017839218
-0.0018146251
-0.00037803603
-0.00053021222
-0.00057274851
-0.00059130746
-0.0006012355
-0.0006078404
-0.00061340239
-0.00061945703
-0.0006277976
-0.00063992591
0.0021498331
0.001943524
0.0018920037
0.0018691769
0.0018542125
0.0018394303
0.0018183135
0.0017778382
0.0016799248
0.0013944952
0.0050703648
0.0046836208
0.0045488573
0.0044736359
0.0044174395
0.0043608485
0.0042859365
0.00416207
0.0039189732
0.0033762372
0.0030176695
0.0029061488
0.0028076846
0.0027276301
0.0026565753
0.0025836635
0.0024968699
0.0023816151
0.0022257248
0.0020607344
0.0017533778
0.001696691
0.00162196
0.0015455817
0.0014702997
0.0013931684
0.0013093857
0.0012155165
0.0011162219
0.0010386755
0.00062424387
0.00057962391
0.00051145648
0.00043565729
0.00035904319
0.00028266572
0.00020568268
0.00012904181
5.9705225e-05
1.4336071e-05
-0.00040255689
-0.00045640536
-0.00053405985
-0.00061611076
-0.00069497377
-0.00076947126
-0.00084016817
-0.00090598129
-0.00096144035
-0.00099541771
-0.001314616
-0.0014070041
-0.0015133945
-0.0016090524
-0.0016910463
-0.0017626763
-0.0018275564
-0.0018871659
-0.0019388699
-0.0019732256
-0.0020545995
-0.0022621826
-0.0024215628
-0.0025333277
-0.0026147266
-0.0026793052
-0.0027359988
-0.0027906186
-0.0028459617
-0.0028960133
-0.0024705074
-0.0030455219
-0.0032563402
-0.0033664027
-0.0034331812
-0.0034811084
-0.0035226176
-0.0035671681
-0.0036280123
-0.003733556
-0.00085669773
-0.0011421273
-0.0012185218
-0.001252121
-0.0012702194
-0.0012823671
-0.0012928709
-0.0013052709
-0.0013262387
-0.0013756334
0.0028857497
0.0026068825
0.0025370081
0.0025055664
0.0024846376
0.0024637605
0.002433772
0.0023760438
0.002235771
0.0018250012
0.006832919
0.0063098067
0.0061261141
0.0060219948
0.00594323
0.0058633032
0.0057570389
0.0055807681
0.0052337145
0.004456243
0.0041014009
0.0039494268
0.0038135891
0.0037019081
0.0036019981
0.0034989768
0.0033759962
0.0032124423
0.0029912431
0.0027588233
0.0023776101
0.0022990543
0.002194726
0.0020874634
0.0019812956
0.0018722076
0.00175349
0.0016203504
0.0014795588
0.0013699925
0.00080404522
0.00074133631
0.00064535356
0.00053840504
0.0004300978
0.00032192368
0.00021269655
0.00010378568
5.1600452e-06
-5.9350154e-05
-0.00065044885
-0.00072674727
-0.00083663999
-0.00095274919
-0.0010644456
-0.0011701504
-0.0012707512
-0.0013647871
-0.0014444613
-0.001493585
-0.0019687704
-0.0021003455
-0.0022513054
-0.00238688
-0.0025031627
-0.002605018
-0.0026977993
-0.0027839324
-0.0028599534
-0.0029117985
-0.003085131
-0.0033821324
-0.0036084553
-0.0037668856
-0.0038823864
-0.0039744221
-0.0040560966
-0.0041365762
-0.0042214875
-0.0043030772
-0.0038198824
-0.0046464462
-0.0049444075
-0.0051000652
-0.0051947654
-0.005263201
-0.0053235633
-0.0053910671
-0.0054900644
-0.005677995
-0.0013530209
-0.0017637907
-0.0018713353
-0.0019187372
-0.0019443795
-0.001961744
-0.0019771286
-0.0019963074
-0.0020315217
-0.0021215945
0.0035425807
0.0031957857
0.0031093206
0.0030701592
0.0030438352
0.0030173754
0.0029791906
0.0029054471
0.0027257627
0.0021982947
0.0083832117
0.0077333215
0.0075056136
0.0073755706
0.0072763617
0.0071750685
0.007039886
0.0068150746
0.0063715168
0.005375972
0.0050223381
0.0048338983
0.0046645872
0.0045244187
0.0043982875
0.0042676875
0.0041113806
0.0039032153
0.0036216563
0.0033271589
0.0028868378
0.0027886098
0.0026575859
0.0025223101
0.0023879547
0.0022495404
0.0020986299
0.0019292172
0.0017500849
0.0016110103
0.0009116346
0.00083245899
0.00071113241
0.00057572776
0.00043836271
0.00030091215
0.00016186943
2.3013058e-05
-0.000102848
-0.00018515389
-0.00093609155
-0.0010330585
-0.0011725672
-0.0013199654
-0.001461892
-0.0015964587
-0.0017248966
-0.0018454124
-0.0019479914
-0.0020115351
-0.002635115
-0.0028030074
-0.0029951088
-0.0031674796
-0.003315432
-0.0034453787
-0.0035643858
-0.0036758494
-0.0037755119
-0.0038445996
-0.0041091752
-0.0044893171
-0.0047775444
-0.0049790414
-0.0051260894
-0.0052437589
-0.0053491843
-0.0054548851
-0.0055692934
-0.0056825061
-0.0051416612
-0.0062023899
-0.0065807638
-0.0067784463
-0.0068989707
-0.0069866132
-0.0070650933
-0.0071553634
-0.0072927143
-0.0075618725
-0.0018358101
-0.0023632781
-0.0024995066
-0.0025596097
-0.002592223
-0.0026144803
-0.0026345854
-0.0026605387
-0.0027100605
-0.0028399775
0.0041349467
0.0037242608
0.0036225396
0.0035763607
0.0035451283
0.00351356
0.0034678377
0.0033793277
0.0031632632
0.0025280272
0.0097623766
0.008993766
0.0087257919
0.008572216
0.0084544092
0.0083335747
0.008171827
0.0079023166
0.0073698057
0.0061732188
0.0058117101
0.00558986
0.0053901601
0.0052241435
0.005074139
0.0049183154
0.0047314199
0.0044822352
0.0041451808
0.003793831
0.0033002237
0.0031841068
0.0030288409
0.0028680857
0.0027080087
0.0025427347
0.0023622495
0.0021594595
0.0019450502
0.0017788887
0.00095923865
0.00086503759
0.00072059734
0.00055920955
0.00039524633
0.00023090765
6.4386403e-05
-0.00010214376
-0.0002532078
-0.0003519723
-0.0012486364
-0.0013645724
-0.0015312185
-0.0017072914
-0.0018769777
-0.0020381514
-0.0021923901
-0.0023375945
-0.0024616432
-0.0025387511
-0.0032986195
-0.0034999679
-0.0037298776
-0.0039360481
-0.0041131527
-0.0042690995
-0.0044125958
-0.004547974
-0.0046701924
-0.0047558452
-0.0051025679
-0.0055594296
-0.0059045892
-0.0061456688
-0.0063217885
-0.0064632629
-0.0065910417
-0.0067208595
-0.0068638035
-0.0070076851
-0.0064043237
-0.0076812745
-0.0081334216
-0.0083696788
-0.0085139923
-0.0086195073
-0.0087151489
-0.0088273785
-0.0090019745
-0.0093496401
-0.0022939803
-0.0029292163
-0.0030917049
-0.0031634495
-0.0032024792
-0.0032292925
-0.0032538845
-0.0032863944
-0.0033498055
-0.0035181715
0.0046683879
0.0041979988
0.0040822456
0.0040296726
0.0039939753
0.0039577499
0.0039051395
0.0038031172
0.0035537393
0.00281977
0.010989586
0.010110373
0.0098055111
0.009630528
0.0094958134
0.0093571744
0.0091711677
0.0088607908
0.008246922
0.0068664441
0.0064893226
0.0062368333
0.006009478
0.0058199851
0.0056482797
0.0054694764
0.0052546592
0.0049680034
0.0045802877
0.0041772499
0.0036335683
0.0035011629
0.0033238707
0.0031399645
0.0029564814
0.0027667106
0.0025592009
0.0023258859
0.0020792322
0.0018883741
0.00095951235
0.00085162821
0.00068615882
0.00050111951
0.00031290492
0.00012398949
-6.7713776e-05
-0.00025965373
-0.00043387525
-0.00054774938
-0.0015762418
-0.0017094954
-0.0019008875
-0.0021031158
-0.002298168
-0.0024837345
-0.0026617296
-0.0028297684
-0.00297375
-0.0030634802
-0.0039458478
-0.0041777968
-0.0044422314
-0.0046792698
-0.0048830562
-0.0050629131
-0.0052290901
-0.0053867986
-0.0055302368
-0.0056315538
-0.006049115
-0.0065762153
-0.0069733607
-0.0072505869
-0.0074533293
-0.0076167483
-0.0077653498
-0.007917895
-0.0080879617
-0.0082610987
-0.0075914476
-0.0090664684
-0.0095857943
-0.0098572219
-0.010023306
-0.010145318
-0.010257018
-0.010390073
-0.010600222
-0.011022864
-0.0027224508
-0.0034564201
-0.0036427694
-0.003725112
-0.0037700082
-0.0038010281
-0.0038298283
-0.0038685727
-0.003945253
-0.0041503346
0.005145421
0.0046197731
0.0044912015
0.0044328307
0.004393092
0.0043526492
0.004293795
0.0041795163
0.0038999075
0.0030762916
0.01207514
0.011093811
0.010755359
0.01056099
0.010410982
0.010256226
0.01004824
0.0097008225
0.0090132062
0.0074660299
0.0070681203
0.0067877067
0.0065352993
0.0063245779
0.0061332497
0.005933647
0.0056935356
0.005372934
0.0049393719
0.0044897593
0.0038990319
0.0037518676
0.0035546544
0.0033498179
0.0031451581
0.0029331946
0.0027011747
0.0024401686
0.0021642918
0.0019511105
0.00092346835
0.00080319606
0.00061870456
0.00041226522
0.00020208122
-9.1405768e-06
-0.00022374431
-0.00043882268
-0.00063413754
-0.00076175978
-0.0019083749
-0.0020573205
-0.0022711163
-0.0024970345
-0.0027150997
-0.0029228601
-0.0031225482
-0.0033115143
-0.0034738197
-0.0035751749
-0.0045659925
-0.0048256918
-0.0051213963
-0.0053864048
-0.0056144223
-0.0058160869
-0.0060030765
-0.0061814162
-0.0063445845
-0.0064605353
-0.006937762
-0.0075285932
-0.0079727962
-0.0082827569
-0.0085096791
-0.0086931502
-0.0088609506
-0.0090346581
-0.0092301774
-0.0094308897
-0.0086933933
-0.01034823
-0.010928186
-0.011231405
-0.011417244
-0.011554342
-0.011680905
-0.011833461
-0.012077136
-0.012570645
-0.0031184673
-0.0039420832
-0.0041499181
-0.0042418249
-0.004292039
-0.0043269064
-0.0043596091
-0.0044042069
-0.0044934172
-0.0047332131
0.0055674579
0.0049912404
0.0048510816
0.0047875024
0.004744138
0.0046999115
0.0046354542
0.0045101748
0.0042034215
0.0032992654
0.013025462
0.011950897
0.011582164
0.011370396
0.011206674
0.011037465
0.010809763
0.010429121
0.0096753607
0.0079786685
0.007557085
0.007251478
0.0069765838
0.0067468299
0.006537911
0.0063196548
0.0060568534
0.0057058144
0.0052311994
0.0047400719
0.0041058583
0.0039454428
0.0037303683
0.00350677
0.003283118
0.0030512335
0.0027971989
0.0025113257
0.0022092381
0.0019760921
0.00086004506
0.00072865872
0.00052711385
0.00030148363
7.1577283e-05
-0.00015970107
-0.00039492787
-0.00063086388
-0.0008451934
-0.00098519411
-0.0022364214
-0.0023994471
-0.002633332
-0.0028805047
-0.0031192511
-0.0033470098
-0.003566309
-0.0037742554
-0.0039532257
-0.0040651722
-0.0051507164
-0.0054353215
-0.0057590607
-0.0060491619
-0.0062989685
-0.0065203247
-0.006726214
-0.0069234077
-0.0071047153
-0.0072341852
-0.007760777
-0.0084088261
-0.0088951795
-0.0092344801
-0.0094831404
-0.0096847456
-0.0098700572
-0.010063247
-0.01028238
-0.010508801
-0.0097040112
-0.011520375
-0.012154463
-0.012486118
-0.012689697
-0.012840448
-0.012980614
-0.013151225
-0.013426168
-0.013985972
-0.0034803548
-0.0043845109
-0.004611483
-0.0047119293
-0.0047669136
-0.0048052631
-0.0048415446
-0.0048915763
-0.004992492
-0.0052647786
0.0059355083
0.0053136192
0.0051631256
0.0050949277
0.0050483503
0.0050007706
0.004931348
0.0047963198
0.0044655025
0.0034899017
0.013845196
0.012686622
0.012290951
0.012063764
0.011887894
0.01170588
0.011460713
0.011050646
0.010238319
0.0084092319
0.0079628758
0.0076348386
0.0073400178
0.0070934076
0.0068689076
0.0066341235
0.0063512192
0.0059732327
0.0054623292
0.0049346868
0.0042611552
0.0040889922
0.0038580981
0.0036178819
0.0033773982
0.0031278457
0.0028542791
0.0025463527
0.0022210541
0.0019702837
0.0007763013
0.00063506567
0.00041841652
0.0001757815
-7.1619683e-05
-0.0003207162
-0.00057429041
-0.00082879755
-0.0010600553
-0.0012110619
-0.0025536066
-0.00272911
-0.0029807877
-0.0032467983
-0.0035039068
-0.003749469
-0.0039862829
-0.0042112349
-0.0044051776
-0.0045266573
-0.0056937255
-0.0060004017
-0.0063489594
-0.0066612925
-0.0069304524
-0.0071693738
-0.0073922183
-0.0076064343
-0.0078042201
-0.0079460334
-0.0085126933
-0.0092114616
-0.009735087
-0.010100352
-0.010368312
-0.010586117
-0.010787207
-0.010998118
-0.011238905
-0.011489026
-0.010619234
-0.012578861
-0.013260648
-0.013617407
-0.013836717
-0.013999671
-0.014152139
-0.014339271
-0.014643046
-0.015264192
-0.0038070478
-0.0047826486
-0.0050264391
-0.0051344102
-0.0051936193
-0.0052350813
-0.0052746058
-0.0053296235
-0.0054413528
-0.0057437204
0.0062504684
0.0055879731
0.0054284148
0.0053561892
0.0053068098
0.005256305
0.0051825512
0.005039019
0.0046872022
0.0036492094
0.014538179
0.013305098
0.012885862
0.012645237
0.012458775
0.012265593
0.012005196
0.011569481
0.010706114
0.008761639
0.0082907535
0.0079430777
0.0076308922
0.0073695926
0.0071315068
0.0068823053
0.0065818676
0.0061803991
0.0056379308
0.0050787049
0.0043705123
0.0041881049
0.0039434243
0.0036887196
0.003433549
0.003168567
0.0028779376
0.0025507573
0.0022052282
0.0019391504
0.00067777494
0.00052794867
0.00029813106
4.0661299e-05
-0.00022202154
-0.00048670747
-0.00075635773
-0.0010271498
-0.0012732493
-0.0014338912
-0.0028547063
-0.0030410944
-0.0033082849
-0.0035907336
-0.0038638964
-0.0041250698
-0.0043772945
-0.0046172603
-0.004824461
-0.0049543998
-0.0061903494
-0.0065162785
-0.0068864616
-0.0072181847
-0.0075042713
-0.007758627
-0.0079964617
-0.0082258305
-0.0084383828
-0.0085913187
-0.0091896827
-0.0099327062
-0.010488765
-0.010876643
-0.011161474
-0.011393535
-0.011608641
-0.011835456
-0.012095843
-0.012367539
-0.011436415
-0.013521129
-0.014244256
-0.014622823
-0.014855863
-0.015029564
-0.015193003
-0.015395053
-0.015725086
-0.016402307
-0.0040978898
-0.0051358826
-0.0053942063
-0.0055086998
-0.0055715915
-0.0056157944
-0.0056582173
-0.0057177517
-0.0058393484
-0.006169232
0.0065132516
0.005815342
0.0056480002
0.0055723382
0.0055205661
0.0054675612
0.0053901047
0.0052393025
0.0048695241
0.0037781181
0.015107909
0.013810032
0.013370624
0.013118535
0.01292303
0.012720305
0.012446894
0.011989271
0.011082317
0.0090392924
0.0085451182
0.0081806125
0.0078536214
0.0075797899
0.0073301006
0.0070685753
0.0067531515
0.0063316334
0.0057622709
0.0051763136
0.0044384496
0.0042472985
0.0039908551
0.0037237777
0.0034560497
0.0031778605
0.0028726199
0.0025289636
0.0021661566
0.0018870596
0.00056882973
0.00041166422
0.00017060018
-9.9550442e-05
-0.00037531706
-0.00065337628
-0.00093684084
-0.0012216395
-0.0014805019
-0.0016494158
-0.0031357371
-0.0033314293
-0.0036118722
-0.0039083783
-0.004195302
-0.0044699021
-0.0047354334
-0.0049884138
-0.0052071467
-0.0053444612
-0.0066371976
-0.0069795855
-0.0073682316
-0.0077165274
-0.0080171285
-0.0082847906
-0.0085356401
-0.0087782679
-0.009003839
-0.0091666428
-0.0097891639
-0.010570035
-0.011153741
-0.011560915
-0.011860204
-0.012104576
-0.012331918
-0.012572775
-0.012850638
-0.013141697
-0.012153976
-0.014345753
-0.015103955
-0.015501073
-0.015745859
-0.015928849
-0.016101906
-0.016317224
-0.016670828
-0.017398599
-0.0043525372
-0.0054439432
-0.0057145538
-0.0058345814
-0.0059006185
-0.0059471907
-0.0059921614
-0.0060557265
-0.0061862007
-0.0065409074
0.006724852
0.0059968074
0.0058229677
0.0057444581
0.0056906999
0.0056356156
0.005555078
0.005398225
0.0050134856
0.0038775389
0.015557809
0.014204982
0.013748796
0.013487209
0.013284197
0.013073539
0.012789304
0.012313467
0.011370281
0.0092453179
0.0087298358
0.0083513117
0.0080120626
0.0077278418
0.0074685138
0.0071967374
0.0068688463
0.0064306678
0.0058390144
0.0052310867
0.0044687348
0.004270333
0.0040041361
0.0037267842
0.0034486087
0.0031594137
0.0028419893
0.0024846047
0.0021074356
0.0018175722
0.00045293935
0.00028967556
3.926917e-05
-0.00024142887
-0.00052810133
-0.0008173359
-0.0011123697
-0.0014089126
-0.0016784743
-0.0018543092
-0.0033936906
-0.0035971233
-0.0038885832
-0.0041967908
-0.0044952026
-0.0047810592
-0.005057801
-0.0053217987
-0.0055503353
-0.0056939388
-0.0070318929
-0.0073879788
-0.0077919648
-0.0081540484
-0.0084667738
-0.0087456252
-0.0090075133
-0.0092614934
-0.0094983122
-0.0096697051
-0.010309542
-0.011121931
-0.011728566
-0.012151763
-0.01246312
-0.012717867
-0.012955654
-0.013208666
-0.013501828
-0.013809965
-0.012771206
-0.015052235
-0.015839355
-0.016251816
-0.016506387
-0.016697213
-0.016878527
-0.017105424
-0.017479826
-0.018252419
-0.0045709041
-0.0057068509
-0.0059875459
-0.006112136
-0.0061807881
-0.0062293593
-0.0062765238
-0.0063436212
-0.0064819482
-0.0068586834
0.0068863767
0.0061335269
0.0059544718
0.0058736986
0.0058183564
0.0057616081
0.0056786019
0.0055168977
0.0051201508
0.003948398
0.015891364
0.014493506
0.014023918
0.013754782
0.013545782
0.013328777
0.013035877
0.01254546
0.011573273
0.0093827045
0.0088484424
0.0084587001
0.008109718
0.0078172282
0.007550203
0.0072702208
0.0069323445
0.0064808407
0.0058714185
0.005246178
0.0044646036
0.0042604304
0.0039864678
0.0037009154
0.0034143769
0.0031163498
0.0027891371
0.0024207327
0.0020320709
0.0017336521
0.00033290481
0.00016476895
-9.3099607e-05
-0.0003822384
-0.00067766521
-0.00097590249
-0.0012802849
-0.0015863342
-0.0018645551
-0.002045977
-0.0036263242
-0.0038359559
-0.0041362293
-0.0044538144
-0.0047614691
-0.0050564341
-0.0053423067
-0.0056153355
-0.0058519535
-0.0060007615
-0.0073728706
-0.0077399361
-0.0081561884
-0.0085293162
-0.0088518055
-0.0091397479
-0.009410707
-0.0096741304
-0.0099204138
-0.010099102
-0.010750028
-0.011587704
-0.012212632
-0.01264863
-0.012969698
-0.013232901
-0.013479345
-0.013742607
-0.014048855
-0.014371734
-0.013288118
-0.015640867
-0.016450873
-0.01687553
-0.017137953
-0.017335173
-0.017523379
-0.017760145
-0.018152506
-0.018964036
-0.0047531275
-0.0059248803
-0.0062135066
-0.0063417073
-0.0064124525
-0.0064626552
-0.0065116578
-0.0065817806
-0.0067269101
-0.0071228009
0.006999062
0.0062267513
0.0060437537
0.0059612936
0.0059047633
0.0058467595
0.0057618857
0.0055965071
0.005190648
0.0039916558
0.016112206
0.014679244
0.014199597
0.013924833
0.013711342
0.013489551
0.013190103
0.012688668
0.011694567
0.0094543891
0.0089042775
0.008506091
0.0081498673
0.0078511979
0.0075783868
0.0072922098
0.0069467856
0.0064852265
0.0058624616
0.0052244503
0.0044289148
0.0042204293
0.0039406597
0.0036489489
0.003356099
0.0030513783
0.0027167324
0.0023399683
0.0019426275
0.0016378158
0.00021101596
3.9214868e-05
-0.00022426626
-0.00051977324
-0.00082183682
-0.0011269372
-0.0014384805
-0.0017518312
-0.0020367024
-0.0022223993
-0.0038320012
-0.0040463176
-0.0043532404
-0.0046779188
-0.0049926069
-0.0052945625
-0.0055875113
-0.005867605
-0.0061105958
-0.0062635315
-0.0076592269
-0.0080346055
-0.0084601101
-0.0088415888
-0.0091715202
-0.0094664828
-0.0097445628
-0.010015528
-0.010269491
-0.010454174
-0.011110504
-0.01196736
-0.01260604
-0.013051684
-0.013380145
-0.013649906
-0.01390323
-0.014174835
-0.014491935
-0.014827185
-0.013705357
-0.016112634
-0.016939636
-0.01737341
-0.017641788
-0.017843979
-0.018037715
-0.018282624
-0.018690065
-0.019534538
-0.0048995423
-0.0060985345
-0.0063929939
-0.0065238754
-0.0065962018
-0.0066476734
-0.0066981589
-0.0067707949
-0.0069216588
-0.0073337773
0.0070642793
0.0062778338
0.0060921501
0.0060085695
0.0059512399
0.0058923804
0.0058062267
0.0056383229
0.0052261796
0.0040083167
0.016224161
0.014765967
0.014279556
0.014001051
0.013784535
0.013559486
0.013255561
0.012746587
0.011737486
0.0094633096
0.0089005703
0.0084966738
0.008135655
0.0078328562
0.0075561328
0.0072657303
0.0069151421
0.0064467217
0.0058149307
0.0051685624
0.0043642587
0.0041528935
0.0038692379
0.0035733713
0.003276221
0.0029669025
0.0026271297
0.0022446081
0.0018413367
0.0015322395
8.9169973e-05
-8.5113595e-05
-0.00035239523
-0.00065223952
-0.000958864
-0.0012687288
-0.0015852864
-0.001903775
-0.0021933263
-0.0023820131
-0.0040095702
-0.00422709
-0.004538545
-0.0048680807
-0.0051876363
-0.0054945031
-0.0057925071
-0.0060777277
-0.006325405
-0.0064814039
-0.0078906048
-0.0082716911
-0.0087035038
-0.0090906997
-0.0094257981
-0.0097257459
-0.010009023
-0.010285647
-0.010545513
-0.010734889
-0.011391427
-0.012261498
-0.012909502
-0.013361709
-0.013695295
-0.013969749
-0.014228192
-0.014506239
-0.014831951
-0.015177184
-0.014024125
-0.016469134
-0.017307402
-0.017747293
-0.018019771
-0.018225531
-0.018423447
-0.018674774
-0.019094391
-0.019965748
-0.0050106613
-0.0062285243
-0.0065267792
-0.0066594365
-0.0067328439
-0.0067852276
-0.0068368432
-0.0069114786
-0.0070669985
-0.0074923832
0.0070835364
0.0062882325
0.0061010963
0.0060169491
0.0059591997
0.0058998745
0.005813013
0.0056437021
0.0052280255
0.0039994346
0.016231268
0.014757608
0.014267662
0.01398726
0.013769152
0.013542334
0.013235947
0.01272282
0.011705441
0.009412437
0.0088404971
0.008433572
0.0080701492
0.0077652232
0.0074864162
0.0071937088
0.0068402787
0.0063681045
0.0057314805
0.005081029
0.0042730325
0.0040601875
0.0037745222
0.0034764546
0.003176967
0.0028650956
0.0025224452
0.0021367017
0.0017301736
0.0014188371
-3.1041642e-05
-0.0002066536
-0.00047596808
-0.00077816809
-0.0010873271
-0.0013999066
-0.0017193811
-0.0020408938
-0.0023332012
-0.0025236239
-0.0041582746
-0.0043775547
-0.0046914794
-0.0050236922
-0.0053460012
-0.0056557463
-0.0059568259
-0.0062452724
-0.006495979
-0.006653994
-0.0080671067
-0.0084513652
-0.0088866212
-0.0092769695
-0.0096150151
-0.0099179567
-0.010204541
-0.010484966
-0.010748976
-0.010941755
-0.01159375
-0.012471232
-0.013124256
-0.01358003
-0.013916528
-0.01419385
-0.014455681
-0.014738285
-0.015070375
-0.0154232
-0.014246117
-0.016712518
-0.017556499
-0.017999593
-0.018274364
-0.018482323
-0.018683085
-0.018939112
-0.019368
-0.020260157
-0.0050871593
-0.0063157503
-0.0066158289
-0.0067493846
-0.0068233865
-0.006876333
-0.0069287299
-0.0070048521
-0.007163947
-0.007599623
0.007058474
0.006259509
0.0060721258
0.0059879508
0.0059301504
0.0058707379
0.0057837235
0.0056140889
0.0051975438
0.0039661148
0.016137796
0.014658274
0.01416794
0.013887435
0.013669126
0.013441985
0.013135092
0.012621088
0.011601941
0.009304795
0.0087272186
0.0083198814
0.0079563799
0.0076512732
0.0073721595
0.0070790118
0.0067249925
0.006252075
0.0056146749
0.0049642628
0.0041574945
0.0039445314
0.0036586798
0.003360311
0.0030603938
0.0027479562
0.0024046126
0.002018107
0.0016109133
0.0012993163
-0.00014826897
-0.00032408824
-0.00059371884
-0.0008963496
-0.0012060736
-0.0015193746
-0.0018397258
-0.0021622064
-0.0024553989
-0.0026463393
-0.0042776841
-0.0044973244
-0.0048117178
-0.0051444914
-0.005467499
-0.0057781436
-0.006080369
-0.0063701848
-0.0066223001
-0.0067813062
-0.0081892259
-0.0085741995
-0.009010123
-0.0094011363
-0.0097399723
-0.010043968
-0.010332013
-0.010614416
-0.010880839
-0.011075743
-0.01171886
-0.01259813
-0.013252011
-0.013708448
-0.014045711
-0.014324121
-0.014587642
-0.014872946
-0.0152092
-0.01556724
-0.014373477
-0.016845438
-0.01768977
-0.01813325
-0.018408561
-0.018617383
-0.018819682
-0.019078709
-0.019513976
-0.020420862
-0.0051298589
-0.0063612878
-0.0066612895
-0.0067948959
-0.0068690209
-0.0069221895
-0.0069750249
-0.0070521255
-0.007213718
-0.0076567164
0.0069908604
0.006193325
0.0060068664
0.0059231853
0.0058656906
0.0058065568
0.0057199249
0.0055510116
0.0051361683
0.0039095137
0.015948236
0.014472245
0.013984579
0.013705706
0.013488541
0.013262476
0.012956963
0.012445245
0.011430602
0.0091434704
0.0085639037
0.008158694
0.0077973645
0.0074939601
0.0072162582
0.0069244728
0.0065720395
0.006101283
0.0054670154
0.0048206025
0.0040198023
0.0038080386
0.0035237646
0.0032269324
0.0029284308
0.0026173487
0.0022754235
0.0018905321
0.0014851726
0.0011752203
-0.0002613555
-0.00043629821
-0.00070458538
-0.0010057855
-0.001314169
-0.0016262622
-0.0019455143
-0.0022669713
-0.0025592378
-0.0027495177
-0.0043676402
-0.0045862887
-0.0048992185
-0.0052305074
-0.0055522258
-0.0058618526
-0.006163351
-0.0064527313
-0.006704678
-0.0068636763
-0.0082577922
-0.0086411099
-0.0090750234
-0.0094642997
-0.00980184
-0.010105009
-0.010392719
-0.010675321
-0.010942457
-0.011138232
-0.011768527
-0.012644162
-0.013294888
-0.013749186
-0.014085139
-0.01436291
-0.014626466
-0.014912648
-0.015250885
-0.015611786
-0.014408752
-0.016870999
-0.017710526
-0.018151679
-0.018425838
-0.018634226
-0.018836783
-0.019097136
-0.019535921
-0.020451519
-0.0051397174
-0.0063663721
-0.006664472
-0.006797314
-0.0068711069
-0.0069241673
-0.0069771058
-0.0070546835
-0.0072177065
-0.0076650822
0.0068825846
0.0060914373
0.0059070358
0.0058243511
0.0057675056
0.0057090023
0.0056232675
0.0054560792
0.0050454059
0.0038308367
0.015667298
0.014203975
0.013721925
0.013446355
0.01323163
0.013007984
0.012705665
0.012199268
0.011195151
0.0089316168
0.0083537441
0.0079531148
0.0075961241
0.0072962346
0.0070215986
0.0067329094
0.0063841533
0.0059183466
0.0052909601
0.004652334
0.0038620399
0.0036527445
0.0033717459
0.0030782191
0.0027829093
0.0024750326
0.0021365577
0.0017555653
0.0013544409
0.0010479601
-0.00036930137
-0.00054232463
-0.00080767177
-0.0011056498
-0.0014108582
-0.0017198846
-0.0020361333
-0.0023546473
-0.0026442425
-0.0028327276
-0.0044282142
-0.0046445713
-0.0049541798
-0.0052820166
-0.0056005314
-0.0059072917
-0.0062062541
-0.0064934534
-0.0067437034
-0.0069017253
-0.0082739265
-0.0086533111
-0.0090826429
-0.0094678739
-0.0098021102
-0.010102637
-0.010388272
-0.010669345
-0.010935541
-0.011130958
-0.011744859
-0.012611651
-0.013255372
-0.013704845
-0.014037489
-0.014312954
-0.014574938
-0.014860222
-0.015198304
-0.015559753
-0.014354852
-0.016792716
-0.017622503
-0.018058728
-0.018330108
-0.018536809
-0.01873838
-0.018998422
-0.01943791
-0.020356288
-0.0051178155
-0.0063323847
-0.0066268387
-0.0067581354
-0.0068311592
-0.0068837922
-0.0069365072
-0.0070140706
-0.0071774733
-0.0076263222
0.0067356473
0.0059556907
0.0057744356
0.0056932287
0.0056373611
0.0055798251
0.0054954796
0.0053309753
0.0049268306
0.0037313353
0.015299899
0.013858081
0.013384477
0.013113811
0.012902768
0.012682827
0.012385436
0.01188726
0.010899421
0.0086724553
0.0080999632
0.0077062702
0.0073556936
0.007061055
0.0067910687
0.0065071356
0.0061640569
0.0057058654
0.0050889382
0.0044617046
0.0036862382
0.0034806265
0.003204529
0.0029160016
0.0026255851
0.0023226854
0.0019896067
0.0016146997
0.0012201052
0.0009188389
-0.00047123387
-0.00064133928
-0.00090221808
-0.0011952587
-0.0014955342
-0.0017997118
-0.0021111307
-0.0024248606
-0.002710111
-0.0028957143
-0.0044596713
-0.0046724937
-0.0049770039
-0.0052995055
-0.0056129823
-0.005915102
-0.00620979
-0.0064931282
-0.0067402088
-0.0068963199
-0.008239002
-0.0086122767
-0.0090345693
-0.0094135469
-0.009742555
-0.010038696
-0.010320581
-0.010598454
-0.010862105
-0.011055972
-0.011650264
-0.012503237
-0.013136279
-0.013578356
-0.01390578
-0.014177336
-0.014436199
-0.01471886
-0.015054701
-0.015414436
-0.014215015
-0.016614475
-0.01742982
-0.017858636
-0.01812568
-0.01832949
-0.018528872
-0.018787008
-0.019224448
-0.02013979
-0.0050653455
-0.0062608407
-0.0065499891
-0.0066789965
-0.0067508333
-0.0068027321
-0.0068549073
-0.0069319771
-0.0070947307
-0.0075422053
0.0065521525
0.0057880113
0.005610944
0.0055316736
0.0054770973
0.005420849
0.0053383608
0.0051774526
0.0047820791
0.0036123039
0.014851148
0.013439335
0.01297688
0.012712643
0.012506462
0.012291451
0.012000636
0.011513439
0.010547342
0.0083692719
0.0078058206
0.0074213141
0.0070791285
0.0067913939
0.0065275656
0.0062499692
0.0059144715
0.0054664295
0.00486336
0.0042509339
0.0034943913
0.0032936211
0.0030239729
0.0027420584
0.002458156
0.0021619216
0.0018360926
0.0014693523
0.0010834702
0.00078907314
-0.00056638276
-0.00073261964
-0.00098757496
-0.0012740443
-0.0015677117
-0.0018653409
-0.0021701876
-0.0024773765
-0.0027566856
-0.0029383711
-0.0044624394
-0.0046705441
-0.0049682652
-0.0052836383
-0.0055903286
-0.0058861142
-0.0061748657
-0.0064527342
-0.0066952334
-0.0068485368
-0.0081546093
-0.0085197039
-0.0089326204
-0.0093032436
-0.0096251897
-0.0099152791
-0.01019181
-0.010464877
-0.010724435
-0.010915598
-0.011487414
-0.012321836
-0.012940708
-0.013372948
-0.01369333