/*--------------------------------*- C++ -*----------------------------------*\
| =========                 |                                                 |
| \\      /  F ield         | OpenFOAM: The Open Source CFD Toolbox           |
|  \\    /   O peration     | Version:  v2106                                 |
|   \\  /    A nd           | Website:  www.openfoam.com                      |
|    \\/     M anipulation  |                                                 |
\*---------------------------------------------------------------------------*/
FoamFile
{
    version     2.0;
    format      ascii;
    arch        "LSB;label=32;scalar=64";
    class       volScalarField;
    location    "100";
    object      gradTz;
}
// * * * * * * * * * * * * * * * * * * * * * * * * * * * * * * * * * * * * * //

dimensions      [0 -1 0 1 0 0 0];

internalField   nonuniform List<scalar> 
4000
(
559.46304
559.46477
559.4657
559.46629
559.46658
559.46661
559.46641
559.46601
559.46549
559.465
559.46477
559.46635
559.46724
559.4678
559.46808
559.4681
559.46789
559.46746
559.46687
559.46619
559.4657
559.46724
559.4681
559.46865
559.46891
559.46891
559.46867
559.46822
559.46759
559.46685
559.46629
559.4678
559.46865
559.46917
559.46942
559.4694
559.46914
559.46866
559.468
559.46724
559.46658
559.46808
559.46891
559.46942
559.46964
559.46961
559.46933
559.46883
559.46815
559.46738
559.46661
559.4681
559.46891
559.4694
559.46961
559.46956
559.46926
559.46875
559.46805
559.46727
559.46641
559.46789
559.46867
559.46914
559.46933
559.46926
559.46895
559.46842
559.46771
559.46693
559.46601
559.46746
559.46822
559.46866
559.46883
559.46875
559.46842
559.46788
559.46716
559.46636
559.46549
559.46687
559.46759
559.468
559.46815
559.46805
559.46771
559.46716
559.46643
559.46562
559.465
559.46619
559.46685
559.46724
559.46738
559.46727
559.46693
559.46636
559.46562
559.4648
1136.3593
1136.3623
1136.364
1136.3651
1136.3657
1136.3657
1136.3653
1136.3645
1136.3634
1136.3621
1136.3623
1136.365
1136.3667
1136.3677
1136.3683
1136.3683
1136.3678
1136.367
1136.3657
1136.3641
1136.364
1136.3667
1136.3683
1136.3693
1136.3698
1136.3698
1136.3693
1136.3684
1136.367
1136.3653
1136.3651
1136.3677
1136.3693
1136.3703
1136.3708
1136.3707
1136.3702
1136.3692
1136.3678
1136.366
1136.3657
1136.3683
1136.3698
1136.3708
1136.3712
1136.3711
1136.3705
1136.3695
1136.3681
1136.3662
1136.3657
1136.3683
1136.3698
1136.3707
1136.3711
1136.371
1136.3704
1136.3693
1136.3678
1136.366
1136.3653
1136.3678
1136.3693
1136.3702
1136.3705
1136.3704
1136.3697
1136.3686
1136.3671
1136.3653
1136.3645
1136.367
1136.3684
1136.3692
1136.3695
1136.3693
1136.3686
1136.3675
1136.366
1136.3641
1136.3634
1136.3657
1136.367
1136.3678
1136.3681
1136.3678
1136.3671
1136.366
1136.3644
1136.3625
1136.3621
1136.3641
1136.3653
1136.366
1136.3662
1136.366
1136.3653
1136.3641
1136.3625
1136.3606
1093.5342
1093.5366
1093.5381
1093.539
1093.5394
1093.5394
1093.539
1093.5381
1093.5369
1093.5355
1093.5366
1093.5388
1093.5402
1093.5411
1093.5415
1093.5415
1093.541
1093.5401
1093.5388
1093.5369
1093.5381
1093.5402
1093.5415
1093.5424
1093.5428
1093.5427
1093.5422
1093.5413
1093.5398
1093.5379
1093.539
1093.5411
1093.5424
1093.5432
1093.5436
1093.5435
1093.5429
1093.5419
1093.5405
1093.5385
1093.5394
1093.5415
1093.5428
1093.5436
1093.5439
1093.5438
1093.5432
1093.5422
1093.5407
1093.5387
1093.5394
1093.5415
1093.5427
1093.5435
1093.5438
1093.5436
1093.543
1093.542
1093.5404
1093.5384
1093.539
1093.541
1093.5422
1093.5429
1093.5432
1093.543
1093.5424
1093.5413
1093.5397
1093.5377
1093.5381
1093.5401
1093.5413
1093.5419
1093.5422
1093.542
1093.5413
1093.5402
1093.5386
1093.5365
1093.5369
1093.5388
1093.5398
1093.5405
1093.5407
1093.5404
1093.5397
1093.5386
1093.537
1093.5349
1093.5355
1093.5369
1093.5379
1093.5385
1093.5387
1093.5384
1093.5377
1093.5365
1093.5349
1093.5327
1055.1585
1055.1606
1055.1619
1055.1626
1055.163
1055.1629
1055.1625
1055.1616
1055.1604
1055.1589
1055.1606
1055.1625
1055.1637
1055.1644
1055.1648
1055.1647
1055.1642
1055.1633
1055.162
1055.1601
1055.1619
1055.1637
1055.1648
1055.1655
1055.1659
1055.1657
1055.1652
1055.1643
1055.1629
1055.1609
1055.1626
1055.1644
1055.1655
1055.1662
1055.1665
1055.1664
1055.1658
1055.1648
1055.1634
1055.1614
1055.163
1055.1648
1055.1659
1055.1665
1055.1668
1055.1666
1055.166
1055.165
1055.1635
1055.1615
1055.1629
1055.1647
1055.1657
1055.1664
1055.1666
1055.1664
1055.1658
1055.1647
1055.1632
1055.1612
1055.1625
1055.1642
1055.1652
1055.1658
1055.166
1055.1658
1055.1651
1055.164
1055.1625
1055.1605
1055.1616
1055.1633
1055.1643
1055.1648
1055.165
1055.1647
1055.164
1055.1629
1055.1614
1055.1593
1055.1604
1055.162
1055.1629
1055.1634
1055.1635
1055.1632
1055.1625
1055.1614
1055.1598
1055.1577
1055.1589
1055.1601
1055.1609
1055.1614
1055.1615
1055.1612
1055.1605
1055.1593
1055.1577
1055.1555
1020.5045
1020.5063
1020.5074
1020.5081
1020.5083
1020.5082
1020.5077
1020.5069
1020.5057
1020.5043
1020.5063
1020.508
1020.509
1020.5097
1020.5099
1020.5098
1020.5093
1020.5084
1020.5071
1020.5053
1020.5074
1020.509
1020.51
1020.5106
1020.5108
1020.5107
1020.5101
1020.5092
1020.5078
1020.506
1020.5081
1020.5097
1020.5106
1020.5112
1020.5114
1020.5112
1020.5106
1020.5097
1020.5082
1020.5064
1020.5083
1020.5099
1020.5108
1020.5114
1020.5116
1020.5113
1020.5107
1020.5097
1020.5083
1020.5064
1020.5082
1020.5098
1020.5107
1020.5112
1020.5113
1020.5111
1020.5105
1020.5094
1020.508
1020.5061
1020.5077
1020.5093
1020.5101
1020.5106
1020.5107
1020.5105
1020.5098
1020.5088
1020.5073
1020.5054
1020.5069
1020.5084
1020.5092
1020.5097
1020.5097
1020.5094
1020.5088
1020.5077
1020.5062
1020.5042
1020.5057
1020.5071
1020.5078
1020.5082
1020.5083
1020.508
1020.5073
1020.5062
1020.5046
1020.5027
1020.5043
1020.5053
1020.506
1020.5064
1020.5064
1020.5061
1020.5054
1020.5042
1020.5027
1020.5006
989.00114
989.00283
989.00375
989.0043
989.0045
989.00435
989.00386
989.00304
989.00192
989.00059
989.00283
989.00433
989.00521
989.00574
989.00592
989.00576
989.00524
989.00438
989.00316
989.00152
989.00375
989.00521
989.00605
989.00655
989.00672
989.00653
989.00599
989.00508
989.00379
989.00208
989.0043
989.00574
989.00655
989.00703
989.00717
989.00696
989.00639
989.00545
989.00412
989.00237
989.0045
989.00592
989.00672
989.00717
989.00728
989.00705
989.00645
989.00548
989.00412
989.00235
989.00435
989.00576
989.00653
989.00696
989.00705
989.00678
989.00616
989.00516
989.00379
989.00201
989.00386
989.00524
989.00599
989.00639
989.00645
989.00616
989.00551
989.00449
989.00309
989.0013
989.00304
989.00438
989.00508
989.00545
989.00548
989.00516
989.00449
989.00345
989.00203
989.00022
989.00192
989.00316
989.00379
989.00412
989.00412
989.00379
989.00309
989.00203
989.00058
988.99872
989.00059
989.00152
989.00208
989.00237
989.00235
989.00201
989.0013
989.00022
988.99872
988.99676
960.19383
960.19534
960.19614
960.1966
960.19674
960.19656
960.19608
960.1953
960.19425
960.19301
960.19534
960.19669
960.19744
960.19789
960.19801
960.19782
960.19732
960.1965
960.19535
960.19383
960.19614
960.19744
960.19817
960.19859
960.1987
960.19849
960.19796
960.1971
960.19589
960.1943
960.1966
960.19789
960.19859
960.19899
960.19907
960.19884
960.19828
960.19739
960.19614
960.19453
960.19674
960.19801
960.1987
960.19907
960.19913
960.19888
960.1983
960.19738
960.19611
960.19447
960.19656
960.19782
960.19849
960.19884
960.19888
960.1986
960.19799
960.19705
960.19576
960.19412
960.19608
960.19732
960.19796
960.19828
960.1983
960.19799
960.19737
960.1964
960.1951
960.19344
960.1953
960.1965
960.1971
960.19739
960.19738
960.19705
960.1964
960.19542
960.19409
960.19241
960.19425
960.19535
960.19589
960.19614
960.19611
960.19576
960.1951
960.19409
960.19273
960.19101
960.19301
960.19383
960.1943
960.19453
960.19447
960.19412
960.19344
960.19241
960.19101
960.18919
933.71523
933.71658
933.71726
933.71764
933.71774
933.71755
933.71708
933.71634
933.71536
933.71423
933.71658
933.71777
933.71842
933.71878
933.71886
933.71866
933.71817
933.7174
933.71634
933.71495
933.71726
933.71842
933.71904
933.71938
933.71945
933.71923
933.71871
933.71791
933.71679
933.71534
933.71764
933.71878
933.71938
933.71971
933.71975
933.71951
933.71897
933.71814
933.71699
933.71551
933.71774
933.71886
933.71945
933.71975
933.71977
933.71951
933.71895
933.71809
933.71692
933.71543
933.71755
933.71866
933.71923
933.71951
933.71951
933.71922
933.71865
933.71777
933.71658
933.71507
933.71708
933.71817
933.71871
933.71897
933.71895
933.71865
933.71805
933.71715
933.71594
933.71443
933.71634
933.7174
933.71791
933.71814
933.71809
933.71777
933.71715
933.71623
933.715
933.71347
933.71536
933.71634
933.71679
933.71699
933.71692
933.71658
933.71594
933.715
933.71375
933.71218
933.71423
933.71495
933.71534
933.71551
933.71543
933.71507
933.71443
933.71347
933.71218
933.71051
909.26503
909.26622
909.2668
909.26711
909.26716
909.26696
909.26652
909.26584
909.26494
909.26391
909.26622
909.26726
909.26781
909.2681
909.26815
909.26794
909.26747
909.26676
909.26579
909.26453
909.2668
909.26781
909.26834
909.26861
909.26864
909.26841
909.26793
909.26719
909.26617
909.26485
909.26711
909.2681
909.26861
909.26887
909.26888
909.26864
909.26813
909.26736
909.26631
909.26497
909.26716
909.26815
909.26864
909.26888
909.26887
909.26861
909.26808
909.26729
909.26622
909.26487
909.26696
909.26794
909.26841
909.26864
909.26861
909.26832
909.26778
909.26697
909.26589
909.26453
909.26652
909.26747
909.26793
909.26813
909.26808
909.26778
909.26722
909.26639
909.26529
909.26392
909.26584
909.26676
909.26719
909.26736
909.26729
909.26697
909.26639
909.26555
909.26443
909.26304
909.26494
909.26579
909.26617
909.26631
909.26622
909.26589
909.26529
909.26443
909.26328
909.26186
909.26391
909.26453
909.26485
909.26497
909.26487
909.26453
909.26392
909.26304
909.26186
909.26035
886.595
886.59603
886.59652
886.59676
886.59678
886.59658
886.59616
886.59554
886.59473
886.59381
886.59603
886.59692
886.59738
886.59761
886.59762
886.59741
886.59698
886.59633
886.59546
886.59433
886.59652
886.59738
886.59782
886.59804
886.59803
886.59781
886.59736
886.59668
886.59576
886.59459
886.59676
886.59761
886.59804
886.59824
886.59822
886.59798
886.59751
886.59681
886.59587
886.59467
886.59678
886.59762
886.59803
886.59822
886.59818
886.59792
886.59744
886.59672
886.59576
886.59455
886.59658
886.59741
886.59781
886.59798
886.59792
886.59765
886.59715
886.59641
886.59544
886.59422
886.59616
886.59698
886.59736
886.59751
886.59744
886.59715
886.59663
886.59588
886.59489
886.59366
886.59554
886.59633
886.59668
886.59681
886.59672
886.59641
886.59588
886.59511
886.5941
886.59286
886.59473
886.59546
886.59576
886.59587
886.59576
886.59544
886.59489
886.5941
886.59307
886.5918
886.59381
886.59433
886.59459
886.59467
886.59455
886.59422
886.59366
886.59286
886.5918
886.59045
865.49795
865.49882
865.49921
865.4994
865.49939
865.49919
865.49881
865.49825
865.49753
865.49671
865.49882
865.49957
865.49994
865.50011
865.5001
865.49989
865.49949
865.49891
865.49814
865.49714
865.49921
865.49994
865.50029
865.50045
865.50042
865.5002
865.49979
865.49919
865.49837
865.49734
865.4994
865.50011
865.50045
865.5006
865.50056
865.50032
865.4999
865.49927
865.49844
865.49739
865.49939
865.5001
865.50042
865.50056
865.5005
865.50025
865.49981
865.49917
865.49832
865.49726
865.49919
865.49989
865.5002
865.50032
865.50025
865.49999
865.49953
865.49888
865.49802
865.49695
865.49881
865.49949
865.49979
865.4999
865.49981
865.49953
865.49906
865.49839
865.49752
865.49644
865.49825
865.49891
865.49919
865.49927
865.49917
865.49888
865.49839
865.49771
865.49682
865.49573
865.49753
865.49814
865.49837
865.49844
865.49832
865.49802
865.49752
865.49682
865.49591
865.49479
865.49671
865.49714
865.49734
865.49739
865.49726
865.49695
865.49644
865.49573
865.49479
865.49359
845.7994
845.80011
845.80042
845.80055
845.80051
845.80032
845.79997
845.79948
845.79885
845.79814
845.80011
845.80072
845.80101
845.80113
845.80109
845.80089
845.80053
845.80002
845.79934
845.79849
845.80042
845.80101
845.80128
845.80139
845.80134
845.80113
845.80076
845.80022
845.79952
845.79863
845.80055
845.80113
845.80139
845.80149
845.80143
845.8012
845.80082
845.80027
845.79954
845.79864
845.80051
845.80109
845.80134
845.80143
845.80135
845.80112
845.80072
845.80016
845.79942
845.79851
845.80032
845.80089
845.80113
845.8012
845.80112
845.80087
845.80046
845.79989
845.79914
845.79822
845.79997
845.80053
845.80076
845.80082
845.80072
845.80046
845.80004
845.79945
845.79869
845.79777
845.79948
845.80002
845.80022
845.80027
845.80016
845.79989
845.79945
845.79885
845.79808
845.79714
845.79885
845.79934
845.79952
845.79954
845.79942
845.79914
845.79869
845.79808
845.79729
845.79633
845.79814
845.79849
845.79863
845.79864
845.79851
845.79822
845.79777
845.79714
845.79633
845.79529
827.35124
827.3518
827.35203
827.35211
827.35205
827.35187
827.35156
827.35114
827.3506
827.35
827.3518
827.35228
827.35249
827.35256
827.3525
827.35231
827.352
827.35155
827.35098
827.35026
827.35203
827.35249
827.35268
827.35274
827.35268
827.35248
827.35215
827.35169
827.35109
827.35034
827.35211
827.35256
827.35274
827.3528
827.35272
827.35251
827.35218
827.3517
827.35109
827.35033
827.35205
827.3525
827.35268
827.35272
827.35263
827.35242
827.35207
827.35158
827.35096
827.35019
827.35187
827.35231
827.35248
827.35251
827.35242
827.35219
827.35183
827.35134
827.3507
827.34993
827.35156
827.352
827.35215
827.35218
827.35207
827.35183
827.35146
827.35096
827.35031
827.34954
827.35114
827.35155
827.35169
827.3517
827.35158
827.35134
827.35096
827.35044
827.34979
827.349
827.3506
827.35098
827.35109
827.35109
827.35096
827.3507
827.35031
827.34979
827.34912
827.34831
827.35
827.35026
827.35034
827.35033
827.35019
827.34993
827.34954
827.349
827.34831
827.34743
810.02687
810.02728
810.02742
810.02745
810.02738
810.02721
810.02694
810.02658
810.02614
810.02565
810.02728
810.02762
810.02775
810.02778
810.0277
810.02753
810.02725
810.02688
810.02641
810.02582
810.02742
810.02775
810.02787
810.02789
810.02781
810.02763
810.02734
810.02696
810.02647
810.02586
810.02745
810.02778
810.02789
810.0279
810.02781
810.02762
810.02733
810.02693
810.02643
810.02581
810.02738
810.0277
810.02781
810.02781
810.02772
810.02752
810.02722
810.02681
810.0263
810.02568
810.02721
810.02753
810.02763
810.02762
810.02752
810.02731
810.027
810.02659
810.02607
810.02544
810.02694
810.02725
810.02734
810.02733
810.02722
810.027
810.02669
810.02627
810.02574
810.02511
810.02658
810.02688
810.02696
810.02693
810.02681
810.02659
810.02627
810.02584
810.0253
810.02466
810.02614
810.02641
810.02647
810.02643
810.0263
810.02607
810.02574
810.0253
810.02475
810.02409
810.02565
810.02582
810.02586
810.02581
810.02568
810.02544
810.02511
810.02466
810.02409
810.02338
793.71726
793.71753
793.71759
793.71758
793.71749
793.71734
793.71711
793.71682
793.71647
793.71608
793.71753
793.71775
793.7178
793.71778
793.71769
793.71753
793.7173
793.717
793.71663
793.71617
793.71759
793.7178
793.71785
793.71783
793.71773
793.71757
793.71733
793.71702
793.71663
793.71616
793.71758
793.71778
793.71783
793.7178
793.7177
793.71753
793.71729
793.71697
793.71657
793.7161
793.71749
793.71769
793.71773
793.7177
793.7176
793.71742
793.71717
793.71684
793.71644
793.71596
793.71734
793.71753
793.71757
793.71753
793.71742
793.71724
793.71698
793.71665
793.71624
793.71576
793.71711
793.7173
793.71733
793.71729
793.71717
793.71698
793.71672
793.71638
793.71597
793.71548
793.71682
793.717
793.71702
793.71697
793.71684
793.71665
793.71638
793.71604
793.71562
793.71512
793.71647
793.71663
793.71663
793.71657
793.71644
793.71624
793.71597
793.71562
793.71519
793.71468
793.71608
793.71617
793.71616
793.7161
793.71596
793.71576
793.71548
793.71512
793.71468
793.71412
778.32803
778.32816
778.32815
778.32809
778.32799
778.32785
778.32767
778.32744
778.32718
778.3269
778.32816
778.32825
778.32823
778.32818
778.32807
778.32793
778.32774
778.32751
778.32724
778.32691
778.32815
778.32823
778.32822
778.32816
778.32805
778.3279
778.32771
778.32748
778.32719
778.32686
778.32809
778.32818
778.32816
778.32809
778.32798
778.32783
778.32764
778.3274
778.32711
778.32677
778.32799
778.32807
778.32805
778.32798
778.32787
778.32772
778.32752
778.32727
778.32698
778.32664
778.32785
778.32793
778.3279
778.32783
778.32772
778.32756
778.32736
778.32711
778.32681
778.32647
778.32767
778.32774
778.32771
778.32764
778.32752
778.32736
778.32715
778.3269
778.3266
778.32625
778.32744
778.32751
778.32748
778.3274
778.32727
778.32711
778.3269
778.32664
778.32633
778.32598
778.32718
778.32724
778.32719
778.32711
778.32698
778.32681
778.3266
778.32633
778.32602
778.32565
778.3269
778.32691
778.32686
778.32677
778.32664
778.32647
778.32625
778.32598
778.32565
778.32526
763.77694
763.77693
763.77685
763.77676
763.77665
763.77652
763.77638
763.77622
763.77605
763.77587
763.77693
763.7769
763.77682
763.77673
763.77661
763.77649
763.77634
763.77618
763.77601
763.77581
763.77685
763.77682
763.77674
763.77664
763.77653
763.7764
763.77626
763.7761
763.77591
763.77571
763.77676
763.77673
763.77664
763.77654
763.77643
763.7763
763.77615
763.77599
763.77581
763.7756
763.77665
763.77661
763.77653
763.77643
763.77631
763.77618
763.77603
763.77587
763.77568
763.77548
763.77652
763.77649
763.7764
763.7763
763.77618
763.77605
763.7759
763.77573
763.77554
763.77534
763.77638
763.77634
763.77626
763.77615
763.77603
763.7759
763.77575
763.77558
763.77539
763.77518
763.77622
763.77618
763.7761
763.77599
763.77587
763.77573
763.77558
763.7754
763.77521
763.775
763.77605
763.77601
763.77591
763.77581
763.77568
763.77554
763.77539
763.77521
763.77501
763.77479
763.77587
763.77581
763.77571
763.7756
763.77548
763.77534
763.77518
763.775
763.77479
763.77454
749.99198
749.99184
749.9917
749.99157
749.99145
749.99134
749.99124
749.99115
749.99106
749.99098
749.99184
749.9917
749.99156
749.99143
749.99131
749.9912
749.9911
749.99101
749.99092
749.99085
749.9917
749.99156
749.99142
749.99129
749.99117
749.99106
749.99096
749.99087
749.99079
749.99071
749.99157
749.99143
749.99129
749.99116
749.99104
749.99093
749.99083
749.99074
749.99066
749.99059
749.99145
749.99131
749.99117
749.99104
749.99092
749.99081
749.99071
749.99062
749.99054
749.99047
749.99134
749.9912
749.99106
749.99093
749.99081
749.9907
749.9906
749.99051
749.99043
749.99036
749.99124
749.9911
749.99096
749.99083
749.99071
749.9906
749.9905
749.99042
749.99033
749.99026
749.99115
749.99101
749.99087
749.99074
749.99062
749.99051
749.99042
749.99032
749.99024
749.99017
749.99106
749.99092
749.99079
749.99066
749.99054
749.99043
749.99033
749.99024
749.99015
749.99007
749.99098
749.99085
749.99071
749.99059
749.99047
749.99036
749.99026
749.99017
749.99007
749.98997
736.90979
736.90953
736.90932
736.90916
736.90903
736.90893
736.90888
736.90885
736.90885
736.90887
736.90953
736.90928
736.90907
736.90891
736.90878
736.90869
736.90864
736.90861
736.90862
736.90867
736.90932
736.90907
736.90888
736.90871
736.90859
736.9085
736.90845
736.90843
736.90844
736.90849
736.90916
736.90891
736.90871
736.90855
736.90843
736.90835
736.90829
736.90828
736.9083
736.90835
736.90903
736.90878
736.90859
736.90843
736.90831
736.90823
736.90818
736.90816
736.90819
736.90824
736.90893
736.90869
736.9085
736.90835
736.90823
736.90814
736.9081
736.90809
736.90811
736.90817
736.90888
736.90864
736.90845
736.90829
736.90818
736.9081
736.90805
736.90804
736.90807
736.90812
736.90885
736.90861
736.90843
736.90828
736.90816
736.90809
736.90804
736.90803
736.90805
736.90811
736.90885
736.90862
736.90844
736.9083
736.90819
736.90811
736.90807
736.90805
736.90808
736.90813
736.90887
736.90867
736.90849
736.90835
736.90824
736.90817
736.90812
736.90811
736.90813
736.90818
724.47434
724.47396
724.47369
724.47349
724.47336
724.47328
724.47327
724.4733
724.47338
724.4735
724.47396
724.4736
724.47334
724.47315
724.47302
724.47294
724.47293
724.47297
724.47307
724.47323
724.47369
724.47334
724.47309
724.4729
724.47277
724.4727
724.4727
724.47274
724.47285
724.47303
724.47349
724.47315
724.4729
724.47272
724.47259
724.47253
724.47252
724.47258
724.47269
724.47287
724.47336
724.47302
724.47277
724.47259
724.47247
724.47241
724.47241
724.47247
724.47259
724.47277
724.47328
724.47294
724.4727
724.47253
724.47241
724.47235
724.47236
724.47242
724.47254
724.47272
724.47327
724.47293
724.4727
724.47252
724.47241
724.47236
724.47236
724.47243
724.47255
724.47274
724.4733
724.47297
724.47274
724.47258
724.47247
724.47242
724.47243
724.4725
724.47262
724.47281
724.47338
724.47307
724.47285
724.47269
724.47259
724.47254
724.47255
724.47262
724.47275
724.47293
724.4735
724.47323
724.47303
724.47287
724.47277
724.47272
724.47274
724.47281
724.47293
724.47312
712.63587
712.63538
712.63506
712.63483
712.63469
712.63463
712.63466
712.63475
712.63491
712.63511
712.63538
712.63492
712.63461
712.63439
712.63425
712.6342
712.63423
712.63433
712.63452
712.63479
712.63506
712.63461
712.63431
712.6341
712.63396
712.63392
712.63395
712.63407
712.63427
712.63455
712.63483
712.63439
712.6341
712.63389
712.63376
712.63372
712.63376
712.63388
712.63409
712.63439
712.63469
712.63425
712.63396
712.63376
712.63364
712.6336
712.63365
712.63378
712.63399
712.63429
712.63463
712.6342
712.63392
712.63372
712.6336
712.63357
712.63362
712.63376
712.63398
712.63428
712.63466
712.63423
712.63395
712.63376
712.63365
712.63362
712.63368
712.63382
712.63404
712.63435
712.63475
712.63433
712.63407
712.63388
712.63378
712.63376
712.63382
712.63396
712.63419
712.63449
712.63491
712.63452
712.63427
712.63409
712.63399
712.63398
712.63404
712.63419
712.63442
712.63473
712.63511
712.63479
712.63455
712.63439
712.63429
712.63428
712.63435
712.63449
712.63473
712.63504
701.35003
701.34942
701.34905
701.3488
701.34865
701.34862
701.34868
701.34883
701.34907
701.34936
701.34942
701.34888
701.34852
701.34827
701.34813
701.3481
701.34816
701.34833
701.3486
701.34897
701.34905
701.34852
701.34817
701.34793
701.3478
701.34777
701.34785
701.34803
701.34831
701.34871
701.3488
701.34827
701.34793
701.3477
701.34757
701.34755
701.34764
701.34783
701.34812
701.34853
701.34865
701.34813
701.3478
701.34757
701.34746
701.34744
701.34754
701.34773
701.34804
701.34845
701.34862
701.3481
701.34777
701.34755
701.34744
701.34744
701.34754
701.34774
701.34805
701.34847
701.34868
701.34816
701.34785
701.34764
701.34754
701.34754
701.34764
701.34785
701.34817
701.34859
701.34883
701.34833
701.34803
701.34783
701.34773
701.34774
701.34785
701.34807
701.34839
701.34881
701.34907
701.3486
701.34831
701.34812
701.34804
701.34805
701.34817
701.34839
701.34871
701.34914
701.34936
701.34897
701.34871
701.34853
701.34845
701.34847
701.34859
701.34881
701.34914
701.34959
690.57708
690.57638
690.57596
690.57568
690.57554
690.57552
690.57561
690.57583
690.57613
690.5765
690.57638
690.57574
690.57534
690.57507
690.57493
690.57492
690.57502
690.57525
690.57559
690.57606
690.57596
690.57534
690.57495
690.57469
690.57456
690.57455
690.57467
690.57491
690.57528
690.57578
690.57568
690.57507
690.57469
690.57444
690.57432
690.57432
690.57445
690.5747
690.57508
690.57559
690.57554
690.57493
690.57456
690.57432
690.5742
690.57421
690.57435
690.57461
690.575
690.57552
690.57552
690.57492
690.57455
690.57432
690.57421
690.57423
690.57438
690.57465
690.57504
690.57557
690.57561
690.57502
690.57467
690.57445
690.57435
690.57438
690.57453
690.57481
690.57521
690.57574
690.57583
690.57525
690.57491
690.5747
690.57461
690.57465
690.57481
690.57509
690.5755
690.57603
690.57613
690.57559
690.57528
690.57508
690.575
690.57504
690.57521
690.5755
690.57592
690.57646
690.5765
690.57606
690.57578
690.57559
690.57552
690.57557
690.57574
690.57603
690.57646
690.57703
680.28135
680.28055
680.28009
680.27979
680.27964
680.27964
680.27978
680.28004
680.28042
680.28086
680.28055
680.27984
680.2794
680.27911
680.27896
680.27897
680.27911
680.27939
680.27981
680.28038
680.28009
680.2794
680.27897
680.27869
680.27856
680.27857
680.27873
680.27902
680.27947
680.28007
680.27979
680.27911
680.27869
680.27842
680.2783
680.27832
680.27849
680.2788
680.27926
680.27987
680.27964
680.27896
680.27856
680.2783
680.27819
680.27822
680.2784
680.27872
680.27919
680.27981
680.27964
680.27897
680.27857
680.27832
680.27822
680.27826
680.27845
680.27879
680.27927
680.27989
680.27978
680.27911
680.27873
680.27849
680.2784
680.27845
680.27865
680.27899
680.27948
680.28011
680.28004
680.27939
680.27902
680.2788
680.27872
680.27879
680.27899
680.27934
680.27984
680.28047
680.28042
680.27981
680.27947
680.27926
680.27919
680.27927
680.27948
680.27984
680.28034
680.28099
680.28086
680.28038
680.28007
680.27987
680.27981
680.27989
680.28011
680.28047
680.28099
680.28167
670.43064
670.42976
670.42926
670.42894
670.4288
670.42881
670.42898
670.4293
670.42974
670.43025
670.42976
670.42897
670.42849
670.42819
670.42805
670.42807
670.42825
670.42858
670.42907
670.42972
670.42926
670.42849
670.42803
670.42774
670.42761
670.42764
670.42783
670.42819
670.4287
670.42939
670.42894
670.42819
670.42774
670.42745
670.42733
670.42738
670.42759
670.42796
670.42849
670.4292
670.4288
670.42805
670.42761
670.42733
670.42723
670.42728
670.4275
670.42788
670.42843
670.42915
670.42881
670.42807
670.42764
670.42738
670.42728
670.42735
670.42758
670.42797
670.42853
670.42925
670.42898
670.42825
670.42783
670.42759
670.4275
670.42758
670.42782
670.42823
670.42879
670.42952
670.4293
670.42858
670.42819
670.42796
670.42788
670.42797
670.42823
670.42864
670.42921
670.42995
670.42974
670.42907
670.4287
670.42849
670.42843
670.42853
670.42879
670.42921
670.4298
670.43055
670.43025
670.42972
670.42939
670.4292
670.42915
670.42925
670.42952
670.42995
670.43055
670.43134
660.99584
660.99488
660.99434
660.99401
660.99387
660.9939
660.9941
660.99446
660.99496
660.99555
660.99488
660.99402
660.99351
660.99319
660.99305
660.99309
660.99331
660.99369
660.99424
660.99498
660.99434
660.99351
660.99302
660.99271
660.99259
660.99264
660.99287
660.99327
660.99386
660.99463
660.99401
660.99319
660.99271
660.99242
660.9923
660.99237
660.99261
660.99303
660.99364
660.99443
660.99387
660.99305
660.99259
660.9923
660.9922
660.99228
660.99254
660.99297
660.99359
660.99439
660.9939
660.99309
660.99264
660.99237
660.99228
660.99237
660.99264
660.99309
660.99372
660.99453
660.9941
660.99331
660.99287
660.99261
660.99254
660.99264
660.99292
660.99338
660.99402
660.99484
660.99446
660.99369
660.99327
660.99303
660.99297
660.99309
660.99338
660.99385
660.9945
660.99533
660.99496
660.99424
660.99386
660.99364
660.99359
660.99372
660.99402
660.9945
660.99517
660.99601
660.99555
660.99498
660.99463
660.99443
660.99439
660.99453
660.99484
660.99533
660.99601
660.9969
651.9505
651.94947
651.9489
651.94856
651.94841
651.94847
651.9487
651.94911
651.94966
651.95031
651.94947
651.94855
651.94801
651.94768
651.94754
651.9476
651.94785
651.94828
651.94889
651.94971
651.9489
651.94801
651.94749
651.94718
651.94705
651.94712
651.94739
651.94784
651.94849
651.94934
651.94856
651.94768
651.94718
651.94687
651.94676
651.94685
651.94713
651.9476
651.94827
651.94914
651.94841
651.94754
651.94705
651.94676
651.94667
651.94677
651.94706
651.94755
651.94823
651.94912
651.94847
651.9476
651.94712
651.94685
651.94677
651.94688
651.94719
651.94769
651.94839
651.94928
651.9487
651.94785
651.94739
651.94713
651.94706
651.94719
651.94751
651.94802
651.94873
651.94963
651.94911
651.94828
651.94784
651.9476
651.94755
651.94769
651.94802
651.94855
651.94927
651.95018
651.94966
651.94889
651.94849
651.94827
651.94823
651.94839
651.94873
651.94927
651.95
651.95093
651.95031
651.94971
651.94934
651.94914
651.94912
651.94928
651.94963
651.95018
651.95093
651.95191
643.27054
643.26945
643.26886
643.2685
643.26836
643.26843
643.26869
643.26914
643.26975
643.27046
643.26945
643.26848
643.26791
643.26757
643.26744
643.26752
643.26779
643.26827
643.26894
643.26982
643.26886
643.26791
643.26737
643.26704
643.26693
643.26702
643.26731
643.26781
643.26852
643.26945
643.2685
643.26757
643.26704
643.26673
643.26663
643.26673
643.26705
643.26757
643.2683
643.26925
643.26836
643.26744
643.26693
643.26663
643.26654
643.26666
643.26699
643.26753
643.26827
643.26923
643.26843
643.26752
643.26702
643.26673
643.26666
643.2668
643.26714
643.26769
643.26845
643.26942
643.26869
643.26779
643.26731
643.26705
643.26699
643.26714
643.2675
643.26807
643.26884
643.26981
643.26914
643.26827
643.26781
643.26757
643.26753
643.26769
643.26807
643.26864
643.26943
643.27041
643.26975
643.26894
643.26852
643.2683
643.26827
643.26845
643.26884
643.26943
643.27023
643.27123
643.27046
643.26982
643.26945
643.26925
643.26923
643.26942
643.26981
643.27041
643.27123
643.2723
634.93396
634.93281
634.9322
634.93184
634.9317
634.93179
634.93209
634.93257
634.93323
634.93399
634.93281
634.9318
634.93121
634.93086
634.93074
634.93083
634.93114
634.93166
634.93238
634.93332
634.9322
634.93121
634.93065
634.93032
634.93021
634.93032
634.93065
634.93119
634.93195
634.93294
634.93184
634.93086
634.93032
634.93
634.92991
634.93003
634.93038
634.93094
634.93173
634.93274
634.9317
634.93074
634.93021
634.92991
634.92983
634.92997
634.93033
634.93092
634.93172
634.93274
634.93179
634.93083
634.93032
634.93003
634.92997
634.93013
634.93051
634.9311
634.93192
634.93295
634.93209
634.93114
634.93065
634.93038
634.93033
634.93051
634.9309
634.93151
634.93234
634.93338
634.93257
634.93166
634.93119
634.93094
634.93092
634.9311
634.93151
634.93214
634.93298
634.93403
634.93323
634.93238
634.93195
634.93173
634.93172
634.93192
634.93234
634.93298
634.93384
634.93492
634.93399
634.93332
634.93294
634.93274
634.93274
634.93295
634.93338
634.93403
634.93492
634.93606
626.92061
626.91941
626.91878
626.91842
626.91829
626.91839
626.91872
626.91924
626.91994
626.92075
626.91941
626.91835
626.91776
626.9174
626.91729
626.9174
626.91774
626.91829
626.91906
626.92006
626.91878
626.91776
626.91718
626.91685
626.91675
626.91688
626.91723
626.91781
626.91862
626.91968
626.91842
626.9174
626.91685
626.91653
626.91644
626.91659
626.91697
626.91757
626.91841
626.91948