/*--------------------------------*- C++ -*----------------------------------*\
| =========                 |                                                 |
| \\      /  F ield         | OpenFOAM: The Open Source CFD Toolbox           |
|  \\    /   O peration     | Version:  v2106                                 |
|   \\  /    A nd           | Website:  www.openfoam.com                      |
|    \\/     M anipulation  |                                                 |
\*---------------------------------------------------------------------------*/
FoamFile
{
    version     2.0;
    format      ascii;
    arch        "LSB;label=32;scalar=64";
    class       volScalarField;
    location    "100";
    object      laplacianT;
}
// * * * * * * * * * * * * * * * * * * * * * * * * * * * * * * * * * * * * * //

dimensions      [0 -2 0 1 0 0 0];

internalField   nonuniform List<scalar> 
4000
(
89928.61
89928.791
89928.948
89929.041
89929.087
89929.092
89929.061
89928.999
89928.918
89928.844
89928.791
89928.959
89929.11
89929.2
89929.244
89929.247
89929.213
89929.147
89929.056
89928.96
89928.948
89929.11
89929.255
89929.342
89929.384
89929.385
89929.347
89929.276
89929.178
89929.073
89929.041
89929.2
89929.342
89929.426
89929.465
89929.463
89929.422
89929.347
89929.244
89929.136
89929.087
89929.244
89929.384
89929.465
89929.501
89929.496
89929.452
89929.374
89929.268
89929.157
89929.092
89929.247
89929.385
89929.463
89929.496
89929.488
89929.442
89929.361
89929.252
89929.141
89929.061
89929.213
89929.347
89929.422
89929.452
89929.442
89929.393
89929.31
89929.199
89929.086
89928.999
89929.147
89929.276
89929.347
89929.374
89929.361
89929.31
89929.224
89929.112
89928.998
89928.918
89929.056
89929.178
89929.244
89929.268
89929.252
89929.199
89929.112
89928.998
89928.882
89928.844
89928.96
89929.073
89929.136
89929.157
89929.141
89929.086
89928.998
89928.882
89928.765
-4524.6687
-4525.3486
-4525.2954
-4525.3042
-4525.309
-4525.3094
-4525.3058
-4525.2986
-4525.2889
-4525.2687
-4525.3486
-4525.8894
-4525.8461
-4525.8549
-4525.8596
-4525.8598
-4525.8558
-4525.8481
-4525.8371
-4525.6611
-4525.2954
-4525.8461
-4525.8028
-4525.8113
-4525.8157
-4525.8156
-4525.8113
-4525.8031
-4525.7913
-4525.6247
-4525.3042
-4525.8549
-4525.8113
-4525.8195
-4525.8236
-4525.8232
-4525.8185
-4525.8098
-4525.7975
-4525.6305
-4525.309
-4525.8596
-4525.8157
-4525.8236
-4525.8273
-4525.8266
-4525.8216
-4525.8126
-4525.8
-4525.6327
-4525.3094
-4525.8598
-4525.8156
-4525.8232
-4525.8266
-4525.8256
-4525.8203
-4525.811
-4525.7981
-4525.6306
-4525.3058
-4525.8558
-4525.8113
-4525.8185
-4525.8216
-4525.8203
-4525.8147
-4525.8051
-4525.792
-4525.6245
-4525.2986
-4525.8481
-4525.8031
-4525.8098
-4525.8126
-4525.811
-4525.8051
-4525.7953
-4525.782
-4525.6143
-4525.2889
-4525.8371
-4525.7913
-4525.7975
-4525.8
-4525.7981
-4525.792
-4525.782
-4525.7684
-4525.6005
-4525.2687
-4525.6611
-4525.6247
-4525.6305
-4525.6327
-4525.6306
-4525.6245
-4525.6143
-4525.6005
-4525.4309
-4038.2873
-4039.308
-4039.2076
-4039.2144
-4039.2186
-4039.2186
-4039.2148
-4039.2074
-4039.197
-4039.011
-4039.308
-4040.109
-4040.0261
-4040.0333
-4040.0373
-4040.0372
-4040.033
-4040.0251
-4040.0134
-4039.5348
-4039.2076
-4040.0261
-4039.9439
-4039.9508
-4039.9545
-4039.9541
-4039.9496
-4039.9412
-4039.9287
-4039.4726
-4039.2144
-4040.0333
-4039.9508
-4039.9574
-4039.9608
-4039.9601
-4039.9553
-4039.9464
-4039.9335
-4039.477
-4039.2186
-4040.0373
-4039.9545
-4039.9608
-4039.964
-4039.9629
-4039.9578
-4039.9486
-4039.9354
-4039.4786
-4039.2186
-4040.0372
-4039.9541
-4039.9601
-4039.9629
-4039.9616
-4039.9562
-4039.9467
-4039.9332
-4039.4763
-4039.2148
-4040.033
-4039.9496
-4039.9553
-4039.9578
-4039.9562
-4039.9505
-4039.9408
-4039.9271
-4039.47
-4039.2074
-4040.0251
-4039.9412
-4039.9464
-4039.9486
-4039.9467
-4039.9408
-4039.9308
-4039.9169
-4039.4597
-4039.197
-4040.0134
-4039.9287
-4039.9335
-4039.9354
-4039.9332
-4039.9271
-4039.9169
-4039.9027
-4039.4453
-4039.011
-4039.5348
-4039.4726
-4039.477
-4039.4786
-4039.4763
-4039.47
-4039.4597
-4039.4453
-4038.9422
-3633.8245
-3635.1625
-3635.0187
-3635.0239
-3635.0274
-3635.0271
-3635.023
-3635.0154
-3635.0048
-3634.6702
-3635.1625
-3636.2064
-3636.0871
-3636.0929
-3636.0963
-3636.0957
-3636.0913
-3636.0831
-3636.0711
-3635.3154
-3635.0187
-3636.0871
-3635.969
-3635.9745
-3635.9777
-3635.9769
-3635.9721
-3635.9635
-3635.9507
-3635.23
-3635.0239
-3636.0929
-3635.9745
-3635.9798
-3635.9826
-3635.9815
-3635.9765
-3635.9674
-3635.9542
-3635.2331
-3635.0274
-3636.0963
-3635.9777
-3635.9826
-3635.9852
-3635.9838
-3635.9785
-3635.9691
-3635.9556
-3635.2342
-3635.0271
-3636.0957
-3635.9769
-3635.9815
-3635.9838
-3635.9822
-3635.9765
-3635.9669
-3635.9531
-3635.2316
-3635.023
-3636.0913
-3635.9721
-3635.9765
-3635.9785
-3635.9765
-3635.9706
-3635.9607
-3635.9468
-3635.2252
-3635.0154
-3636.0831
-3635.9635
-3635.9674
-3635.9691
-3635.9669
-3635.9607
-3635.9506
-3635.9364
-3635.2147
-3635.0048
-3636.0711
-3635.9507
-3635.9542
-3635.9556
-3635.9531
-3635.9468
-3635.9364
-3635.922
-3635.2001
-3634.6702
-3635.3154
-3635.23
-3635.2331
-3635.2342
-3635.2316
-3635.2252
-3635.2147
-3635.2001
-3634.3909
-3293.1344
-3294.7694
-3294.5846
-3294.5883
-3294.5914
-3294.5907
-3294.5864
-3294.5787
-3294.568
-3294.0949
-3294.7694
-3296.039
-3295.8854
-3295.89
-3295.893
-3295.8921
-3295.8874
-3295.879
-3295.8669
-3294.853
-3294.5846
-3295.8854
-3295.7335
-3295.7379
-3295.7405
-3295.7394
-3295.7344
-3295.7256
-3295.7128
-3294.7458
-3294.5883
-3295.89
-3295.7379
-3295.742
-3295.7444
-3295.743
-3295.7377
-3295.7285
-3295.7152
-3294.7479
-3294.5914
-3295.893
-3295.7405
-3295.7444
-3295.7465
-3295.7448
-3295.7392
-3295.7297
-3295.7162
-3294.7486
-3294.5907
-3295.8921
-3295.7394
-3295.743
-3295.7448
-3295.7428
-3295.737
-3295.7272
-3295.7135
-3294.7457
-3294.5864
-3295.8874
-3295.7344
-3295.7377
-3295.7392
-3295.737
-3295.7309
-3295.7208
-3295.7069
-3294.7391
-3294.5787
-3295.879
-3295.7256
-3295.7285
-3295.7297
-3295.7272
-3295.7208
-3295.7106
-3295.6964
-3294.7286
-3294.568
-3295.8669
-3295.7128
-3295.7152
-3295.7162
-3295.7135
-3295.7069
-3295.6964
-3295.6819
-3294.7139
-3294.0949
-3294.853
-3294.7458
-3294.7479
-3294.7486
-3294.7457
-3294.7391
-3294.7286
-3294.7139
-3293.6192
-3002.9239
-3004.8338
-3004.6102
-3004.6127
-3004.6153
-3004.6143
-3004.6099
-3004.6022
-3004.5915
-3003.9894
-3004.8338
-3006.3106
-3006.1247
-3006.1283
-3006.1309
-3006.1297
-3006.1248
-3006.1164
-3006.1043
-3004.8508
-3004.6102
-3006.1247
-3005.9409
-3005.9443
-3005.9466
-3005.9452
-3005.9401
-3005.9312
-3005.9184
-3004.723
-3004.6127
-3006.1283
-3005.9443
-3005.9475
-3005.9495
-3005.9479
-3005.9424
-3005.9331
-3005.92
-3004.7243
-3004.6153
-3006.1309
-3005.9466
-3005.9495
-3005.9513
-3005.9493
-3005.9436
-3005.934
-3005.9206
-3004.7246
-3004.6143
-3006.1297
-3005.9452
-3005.9479
-3005.9493
-3005.9471
-3005.9411
-3005.9313
-3005.9176
-3004.7215
-3004.6099
-3006.1248
-3005.9401
-3005.9424
-3005.9436
-3005.9411
-3005.9349
-3005.9248
-3005.9109
-3004.7148
-3004.6022
-3006.1164
-3005.9312
-3005.9331
-3005.934
-3005.9313
-3005.9248
-3005.9145
-3005.9004
-3004.7042
-3004.5915
-3006.1043
-3005.9184
-3005.92
-3005.9206
-3005.9176
-3005.9109
-3005.9004
-3005.8859
-3004.6897
-3003.9894
-3004.8508
-3004.723
-3004.7243
-3004.7246
-3004.7215
-3004.7148
-3004.7042
-3004.6897
-3003.3289
-2753.2569
-2755.4186
-2755.1585
-2755.1599
-2755.1623
-2755.1611
-2755.1566
-2755.1488
-2755.1382
-2754.4168
-2755.4186
-2757.0839
-2756.8677
-2756.8705
-2756.8727
-2756.8714
-2756.8664
-2756.8579
-2756.8459
-2755.3717
-2755.1585
-2756.8677
-2756.6542
-2756.6568
-2756.6588
-2756.6572
-2756.6519
-2756.643
-2756.6303
-2755.2246
-2755.1599
-2756.8705
-2756.6568
-2756.6591
-2756.6609
-2756.659
-2756.6534
-2756.6441
-2756.631
-2755.2252
-2755.1623
-2756.8727
-2756.6588
-2756.6609
-2756.6623
-2756.6602
-2756.6543
-2756.6448
-2756.6314
-2755.2252
-2755.1611
-2756.8714
-2756.6572
-2756.659
-2756.6602
-2756.6578
-2756.6517
-2756.6418
-2756.6282
-2755.222
-2755.1566
-2756.8664
-2756.6519
-2756.6534
-2756.6543
-2756.6517
-2756.6453
-2756.6353
-2756.6215
-2755.2151
-2755.1488
-2756.8579
-2756.643
-2756.6441
-2756.6448
-2756.6418
-2756.6353
-2756.625
-2756.6109
-2755.2046
-2755.1382
-2756.8459
-2756.6303
-2756.631
-2756.6314
-2756.6282
-2756.6215
-2756.6109
-2756.5966
-2755.1902
-2754.4168
-2755.3717
-2755.2246
-2755.2252
-2755.2252
-2755.222
-2755.2151
-2755.2046
-2755.1902
-2753.5832
-2536.5748
-2538.9649
-2538.671
-2538.6713
-2538.6734
-2538.6721
-2538.6675
-2538.6598
-2538.6494
-2537.8183
-2538.9649
-2540.7999
-2540.5556
-2540.5577
-2540.5596
-2540.5581
-2540.553
-2540.5445
-2540.5326
-2538.8567
-2538.671
-2540.5556
-2540.3145
-2540.3163
-2540.3181
-2540.3163
-2540.311
-2540.3021
-2540.2895
-2538.6918
-2538.6713
-2540.5577
-2540.3163
-2540.3179
-2540.3194
-2540.3174
-2540.3118
-2540.3025
-2540.2895
-2538.6917
-2538.6734
-2540.5596
-2540.3181
-2540.3194
-2540.3207
-2540.3184
-2540.3125
-2540.3029
-2540.2897
-2538.6915
-2538.6721
-2540.5581
-2540.3163
-2540.3174
-2540.3184
-2540.3158
-2540.3097
-2540.2999
-2540.2864
-2538.6882
-2538.6675
-2540.553
-2540.311
-2540.3118
-2540.3125
-2540.3097
-2540.3033
-2540.2932
-2540.2796
-2538.6813
-2538.6598
-2540.5445
-2540.3021
-2540.3025
-2540.3029
-2540.2999
-2540.2932
-2540.283
-2540.2691
-2538.6709
-2538.6494
-2540.5326
-2540.2895
-2540.2895
-2540.2897
-2540.2864
-2540.2796
-2540.2691
-2540.2549
-2538.6567
-2537.8183
-2538.8567
-2538.6918
-2538.6917
-2538.6915
-2538.6882
-2538.6813
-2538.6709
-2538.6567
-2536.8236
-2347.037
-2349.6317
-2349.3066
-2349.306
-2349.3079
-2349.3065
-2349.3019
-2349.2942
-2349.2839
-2348.3531
-2349.6317
-2351.6176
-2351.3475
-2351.3488
-2351.3506
-2351.3489
-2351.3438
-2351.3354
-2351.3236
-2349.4652
-2349.3066
-2351.3475
-2351.081
-2351.0822
-2351.0837
-2351.0819
-2351.0765
-2351.0677
-2351.0552
-2349.2838
-2349.306
-2351.3488
-2351.0822
-2351.0831
-2351.0844
-2351.0823
-2351.0766
-2351.0674
-2351.0546
-2349.2831
-2349.3079
-2351.3506
-2351.0837
-2351.0844
-2351.0855
-2351.0831
-2351.0772
-2351.0677
-2351.0546
-2349.2828
-2349.3065
-2351.3489
-2351.0819
-2351.0823
-2351.0831
-2351.0804
-2351.0742
-2351.0645
-2351.0512
-2349.2794
-2349.3019
-2351.3438
-2351.0765
-2351.0766
-2351.0772
-2351.0742
-2351.0678
-2351.0579
-2351.0444
-2349.2726
-2349.2942
-2351.3354
-2351.0677
-2351.0674
-2351.0677
-2351.0645
-2351.0579
-2351.0477
-2351.0339
-2349.2622
-2349.2839
-2351.3236
-2351.0552
-2351.0546
-2351.0546
-2351.0512
-2351.0444
-2351.0339
-2351.0199
-2349.2482
-2348.3531
-2349.4652
-2349.2838
-2349.2831
-2349.2828
-2349.2794
-2349.2726
-2349.2622
-2349.2482
-2347.2097
-2180.0667
-2182.8421
-2182.4886
-2182.4872
-2182.4889
-2182.4874
-2182.4828
-2182.4753
-2182.4651
-2181.4445
-2182.8421
-2184.9601
-2184.6666
-2184.6673
-2184.6689
-2184.6671
-2184.662
-2184.6536
-2184.6419
-2182.6203
-2182.4886
-2184.6666
-2184.3772
-2184.3777
-2184.3791
-2184.3771
-2184.3717
-2184.363
-2184.3507
-2182.4241
-2182.4872
-2184.6673
-2184.3777
-2184.3779
-2184.3791
-2184.3769
-2184.3712
-2184.3621
-2184.3494
-2182.4229
-2182.4889
-2184.6689
-2184.3791
-2184.3791
-2184.38
-2184.3775
-2184.3716
-2184.3622
-2184.3493
-2182.4224
-2182.4874
-2184.6671
-2184.3771
-2184.3769
-2184.3775
-2184.3748
-2184.3686
-2184.359
-2184.3459
-2182.4189
-2182.4828
-2184.662
-2184.3717
-2184.3712
-2184.3716
-2184.3686
-2184.3622
-2184.3524
-2184.339
-2182.4121
-2182.4753
-2184.6536
-2184.363
-2184.3621
-2184.3622
-2184.359
-2184.3524
-2184.3423
-2184.3287
-2182.402
-2182.4651
-2184.6419
-2184.3507
-2184.3494
-2184.3493
-2184.3459
-2184.339
-2184.3287
-2184.3149
-2182.3882
-2181.4445
-2182.6203
-2182.4241
-2182.4229
-2182.4224
-2182.4189
-2182.4121
-2182.402
-2182.3882
-2180.165
-2032.0324
-2034.9646
-2034.5857
-2034.5834
-2034.5849
-2034.5834
-2034.5788
-2034.5714
-2034.5614
-2033.4611
-2034.9646
-2037.196
-2036.8816
-2036.8816
-2036.8831
-2036.8812
-2036.8761
-2036.8678
-2036.8563
-2034.6908
-2034.5857
-2036.8816
-2036.5716
-2036.5715
-2036.5728
-2036.5707
-2036.5654
-2036.5567
-2036.5446
-2034.4813
-2034.5834
-2036.8816
-2036.5715
-2036.5712
-2036.5722
-2036.5699
-2036.5643
-2036.5553
-2036.5428
-2034.4796
-2034.5849
-2036.8831
-2036.5728
-2036.5722
-2036.573
-2036.5705
-2036.5646
-2036.5553
-2036.5426
-2034.479
-2034.5834
-2036.8812
-2036.5707
-2036.5699
-2036.5705
-2036.5677
-2036.5615
-2036.552
-2036.5391
-2034.4755
-2034.5788
-2036.8761
-2036.5654
-2036.5643
-2036.5646
-2036.5615
-2036.5552
-2036.5454
-2036.5323
-2034.4688
-2034.5714
-2036.8678
-2036.5567
-2036.5553
-2036.5553
-2036.552
-2036.5454
-2036.5355
-2036.5221
-2034.4588
-2034.5614
-2036.8563
-2036.5446
-2036.5428
-2036.5426
-2036.5391
-2036.5323
-2036.5221
-2036.5085
-2034.4453
-2033.4611
-2034.6908
-2034.4813
-2034.4796
-2034.479
-2034.4755
-2034.4688
-2034.4588
-2034.4453
-2032.0583
-1900.02
-1903.0851
-1902.6838
-1902.6807
-1902.6821
-1902.6805
-1902.676
-1902.6687
-1902.6589
-1901.489
-1903.0851
-1905.4115
-1905.0787
-1905.0782
-1905.0795
-1905.0776
-1905.0725
-1905.0643
-1905.053
-1902.7628
-1902.6838
-1905.0787
-1904.7507
-1904.7501
-1904.7512
-1904.7491
-1904.7438
-1904.7353
-1904.7234
-1902.5417
-1902.6807
-1905.0782
-1904.7501
-1904.7492
-1904.7501
-1904.7478
-1904.7422
-1904.7333
-1904.7211
-1902.5395
-1902.6821
-1905.0795
-1904.7512
-1904.7501
-1904.7507
-1904.7482
-1904.7423
-1904.7332
-1904.7207
-1902.5388
-1902.6805
-1905.0776
-1904.7491
-1904.7478
-1904.7482
-1904.7454
-1904.7393
-1904.7299
-1904.7172
-1902.5353
-1902.676
-1905.0725
-1904.7438
-1904.7422
-1904.7423
-1904.7393
-1904.733
-1904.7234
-1904.7105
-1902.5287
-1902.6687
-1905.0643
-1904.7353
-1904.7333
-1904.7332
-1904.7299
-1904.7234
-1904.7136
-1904.7005
-1902.5188
-1902.6589
-1905.053
-1904.7234
-1904.7211
-1904.7207
-1904.7172
-1904.7105
-1904.7005
-1904.6871
-1902.5056
-1901.489
-1902.7628
-1902.5417
-1902.5395
-1902.5388
-1902.5353
-1902.5287
-1902.5188
-1902.5056
-1899.976
-1781.6673
-1784.8416
-1784.4209
-1784.4171
-1784.4184
-1784.4168
-1784.4123
-1784.4051
-1784.3956
-1783.166
-1784.8416
-1787.2449
-1786.8962
-1786.8951
-1786.8963
-1786.8944
-1786.8894
-1786.8813
-1786.8703
-1784.4745
-1784.4209
-1786.8962
-1786.5528
-1786.5516
-1786.5526
-1786.5505
-1786.5452
-1786.5368
-1786.5252
-1784.2434
-1784.4171
-1786.8951
-1786.5516
-1786.5502
-1786.551
-1786.5486
-1786.5431
-1786.5344
-1786.5224
-1784.2407
-1784.4184
-1786.8963
-1786.5526
-1786.551
-1786.5515
-1786.5489
-1786.5432
-1786.5342
-1786.522
-1784.24
-1784.4168
-1786.8944
-1786.5505
-1786.5486
-1786.5489
-1786.5461
-1786.5401
-1786.5309
-1786.5185
-1784.2364
-1784.4123
-1786.8894
-1786.5452
-1786.5431
-1786.5432
-1786.5401
-1786.5339
-1786.5245
-1786.5119
-1784.2299
-1784.4051
-1786.8813
-1786.5368
-1786.5344
-1786.5342
-1786.5309
-1786.5245
-1786.5149
-1786.5021
-1784.2203
-1784.3956
-1786.8703
-1786.5252
-1786.5224
-1786.522
-1786.5185
-1786.5119
-1786.5021
-1786.4889
-1784.2074
-1783.166
-1784.4745
-1784.2434
-1784.2407
-1784.24
-1784.2364
-1784.2299
-1784.2203
-1784.2074
-1781.556
-1675.0416
-1678.3015
-1677.8646
-1677.8602
-1677.8613
-1677.8597
-1677.8553
-1677.8483
-1677.839
-1676.5596
-1678.3015
-1680.7639
-1680.402
-1680.4004
-1680.4015
-1680.3995
-1680.3946
-1680.3867
-1680.3759
-1677.8934
-1677.8646
-1680.402
-1680.0457
-1680.044
-1680.0449
-1680.0428
-1680.0376
-1680.0294
-1680.018
-1677.654
-1677.8602
-1680.4004
-1680.044
-1680.0422
-1680.0428
-1680.0405
-1680.035
-1680.0265
-1680.0148
-1677.6509
-1677.8613
-1680.4015
-1680.0449
-1680.0428
-1680.0432
-1680.0407
-1680.035
-1680.0262
-1680.0143
-1677.6501
-1677.8597
-1680.3995
-1680.0428
-1680.0405
-1680.0407
-1680.0379
-1680.032
-1680.0229
-1680.0108
-1677.6466
-1677.8553
-1680.3946
-1680.0376
-1680.035
-1680.035
-1680.032
-1680.0258
-1680.0166
-1680.0043
-1677.6403
-1677.8483
-1680.3867
-1680.0294
-1680.0265
-1680.0262
-1680.0229
-1680.0166
-1680.0072
-1679.9947
-1677.6309
-1677.839
-1680.3759
-1680.018
-1680.0148
-1680.0143
-1680.0108
-1680.0043
-1679.9947
-1679.9819
-1677.6183
-1676.5596
-1677.8934
-1677.654
-1677.6509
-1677.6501
-1677.6466
-1677.6403
-1677.6309
-1677.6183
-1674.8659
-1578.548
-1581.8706
-1581.4206
-1581.4156
-1581.4166
-1581.415
-1581.4107
-1581.4039
-1581.3949
-1580.0755
-1581.8706
-1584.3747
-1584.0022
-1584.0001
-1584.0011
-1583.9991
-1583.9942
-1583.9865
-1583.976
-1581.4254
-1581.4206
-1584.0022
-1583.6355
-1583.6335
-1583.6342
-1583.6321
-1583.627
-1583.619
-1583.6079
-1581.1794
-1581.4156
-1584.0001
-1583.6335
-1583.6312
-1583.6317
-1583.6293
-1583.624
-1583.6157
-1583.6043
-1581.1759
-1581.4166
-1584.0011
-1583.6342
-1583.6317
-1583.632
-1583.6294
-1583.6239
-1583.6153
-1583.6037
-1581.1751
-1581.415
-1583.9991
-1583.6321
-1583.6293
-1583.6294
-1583.6266
-1583.6209
-1583.6121
-1583.6003
-1581.1716
-1581.4107
-1583.9942
-1583.627
-1583.624
-1583.6239
-1583.6209
-1583.6149
-1583.6059
-1583.5939
-1581.1654
-1581.4039
-1583.9865
-1583.619
-1583.6157
-1583.6153
-1583.6121
-1583.6059
-1583.5967
-1583.5845
-1581.1563
-1581.3949
-1583.976
-1583.6079
-1583.6043
-1583.6037
-1583.6003
-1583.5939
-1583.5845
-1583.5721
-1581.1441
-1580.0755
-1581.4254
-1581.1794
-1581.1759
-1581.1751
-1581.1716
-1581.1654
-1581.1563
-1581.1441
-1578.3113
-1490.8605
-1494.2233
-1493.7634
-1493.7579
-1493.7588
-1493.7571
-1493.753
-1493.7463
-1493.7376
-1492.3878
-1494.2233
-1496.7521
-1496.3716
-1496.3692
-1496.37
-1496.368
-1496.3632
-1496.3557
-1496.3455
-1493.745
-1493.7634
-1496.3716
-1495.9973
-1495.9948
-1495.9954
-1495.9933
-1495.9883
-1495.9805
-1495.9698
-1493.4941
-1493.7579
-1496.3692
-1495.9948
-1495.9921
-1495.9925
-1495.9902
-1495.985
-1495.9769
-1495.9658
-1493.4903
-1493.7588
-1496.37
-1495.9954
-1495.9925
-1495.9927
-1495.9902
-1495.9848
-1495.9764
-1495.9651
-1493.4894
-1493.7571
-1496.368
-1495.9933
-1495.9902
-1495.9902
-1495.9874
-1495.9818
-1495.9732
-1495.9618
-1493.486
-1493.753
-1496.3632
-1495.9883
-1495.985
-1495.9848
-1495.9818
-1495.9759
-1495.9672
-1495.9556
-1493.48
-1493.7463
-1496.3557
-1495.9805
-1495.9769
-1495.9764
-1495.9732
-1495.9672
-1495.9582
-1495.9464
-1493.4711
-1493.7376
-1496.3455
-1495.9698
-1495.9658
-1495.9651
-1495.9618
-1495.9556
-1495.9464
-1495.9343
-1493.4594
-1492.3878
-1493.745
-1493.4941
-1493.4903
-1493.4894
-1493.486
-1493.48
-1493.4711
-1493.4594
-1490.5663
-1410.8689
-1414.2497
-1413.7831
-1413.7771
-1413.7779
-1413.7763
-1413.7722
-1413.7658
-1413.7574
-1412.3866
-1414.2497
-1416.7869
-1416.401
-1416.3982
-1416.3989
-1416.3969
-1416.3923
-1416.385
-1416.3751
-1413.7424
-1413.7831
-1416.401
-1416.0215
-1416.0186
-1416.0192
-1416.017
-1416.0122
-1416.0046
-1415.9943
-1413.4883
-1413.7771
-1416.3982
-1416.0186
-1416.0156
-1416.0159
-1416.0136
-1416.0085
-1416.0007
-1415.99
-1413.4843
-1413.7779
-1416.3989
-1416.0192
-1416.0159
-1416.0161
-1416.0135
-1416.0082
-1416.0002
-1415.9893
-1413.4833
-1413.7763
-1416.3969
-1416.017
-1416.0136
-1416.0135
-1416.0108
-1416.0053
-1415.997
-1415.986
-1413.48
-1413.7722
-1416.3923
-1416.0122
-1416.0085
-1416.0082
-1416.0053
-1415.9996
-1415.9912
-1415.9799
-1413.4741
-1413.7658
-1416.385
-1416.0046
-1416.0007
-1416.0002
-1415.997
-1415.9912
-1415.9825
-1415.9711
-1413.4656
-1413.7574
-1416.3751
-1415.9943
-1415.99
-1415.9893
-1415.986
-1415.9799
-1415.9711
-1415.9594
-1413.4543
-1412.3866
-1413.7424
-1413.4883
-1413.4843
-1413.4833
-1413.48
-1413.4741
-1413.4656
-1413.4543
-1410.5209
-1337.6371
-1341.0146
-1340.5444
-1340.5379
-1340.5386
-1340.537
-1340.533
-1340.5269
-1340.5188
-1339.1362
-1341.0146
-1343.5443
-1343.1556
-1343.1524
-1343.153
-1343.1511
-1343.1465
-1343.1395
-1343.1299
-1340.4823
-1340.5444
-1343.1556
-1342.7734
-1342.7702
-1342.7706
-1342.7685
-1342.7638
-1342.7565
-1342.7466
-1340.2267
-1340.5379
-1343.1524
-1342.7702
-1342.7668
-1342.7671
-1342.7648
-1342.7599
-1342.7523
-1342.742
-1340.2225
-1340.5386
-1343.153
-1342.7706
-1342.7671
-1342.7672
-1342.7647
-1342.7595
-1342.7517
-1342.7412
-1340.2215
-1340.537
-1343.1511
-1342.7685
-1342.7648
-1342.7647
-1342.762
-1342.7567
-1342.7487
-1342.738
-1340.2183
-1340.533
-1343.1465
-1342.7638
-1342.7599
-1342.7595
-1342.7567
-1342.7511
-1342.743
-1342.7322
-1340.2126
-1340.5269
-1343.1395
-1342.7565
-1342.7523
-1342.7517
-1342.7487
-1342.743
-1342.7346
-1342.7236
-1340.2044
-1340.5188
-1343.1299
-1342.7466
-1342.742
-1342.7412
-1342.738
-1342.7322
-1342.7236
-1342.7124
-1340.1935
-1339.1362
-1340.4823
-1340.2267
-1340.2225
-1340.2215
-1340.2183
-1340.2126
-1340.2044
-1340.1935
-1337.2391
-1270.3714
-1273.725
-1273.2541
-1273.2473
-1273.2479
-1273.2463
-1273.2425
-1273.2366
-1273.2289
-1271.8434
-1273.725
-1276.2319
-1275.8429
-1275.8394
-1275.8399
-1275.838
-1275.8336
-1275.8268
-1275.8177
-1273.1718
-1273.2541
-1275.8429
-1275.4605
-1275.4571
-1275.4574
-1275.4553
-1275.4508
-1275.4438
-1275.4342
-1272.9164
-1273.2473
-1275.8394
-1275.4571
-1275.4534
-1275.4536
-1275.4514
-1275.4466
-1275.4393
-1275.4294
-1272.912
-1273.2479
-1275.8399
-1275.4574
-1275.4536
-1275.4536
-1275.4511
-1275.4462
-1275.4387
-1275.4286
-1272.911
-1273.2463
-1275.838
-1275.4553
-1275.4514
-1275.4511
-1275.4485
-1275.4434
-1275.4357
-1275.4255
-1272.9078
-1273.2425
-1275.8336
-1275.4508
-1275.4466
-1275.4462
-1275.4434
-1275.4381
-1275.4302
-1275.4198
-1272.9024
-1273.2366
-1275.8268
-1275.4438
-1275.4393
-1275.4387
-1275.4357
-1275.4302
-1275.4222
-1275.4116
-1272.8945
-1273.2289
-1275.8177
-1275.4342
-1275.4294
-1275.4286
-1275.4255
-1275.4198
-1275.4116
-1275.4008
-1272.8841
-1271.8434
-1273.1718
-1272.9164
-1272.912
-1272.911
-1272.9078
-1272.9024
-1272.8945
-1272.8841
-1269.9275
-1208.3949
-1211.7047
-1211.2363
-1211.2292
-1211.2297
-1211.2281
-1211.2245
-1211.2188
-1211.2115
-1209.8316
-1211.7047
-1214.1744
-1213.7875
-1213.7838
-1213.7842
-1213.7823
-1213.7781
-1213.7716
-1213.7628
-1211.1349
-1211.2363
-1213.7875
-1213.4074
-1213.4037
-1213.4039
-1213.4019
-1213.3975
-1213.3908
-1213.3817
-1210.8813
-1211.2292
-1213.7838
-1213.4037
-1213.3998
-1213.3999
-1213.3977
-1213.3931
-1213.3862
-1213.3767
-1210.8767
-1211.2297
-1213.7842
-1213.4039
-1213.3999
-1213.3998
-1213.3974
-1213.3927
-1213.3855
-1213.3759
-1210.8756
-1211.2281
-1213.7823
-1213.4019
-1213.3977
-1213.3974
-1213.3949
-1213.3899
-1213.3826
-1213.3728
-1210.8726
-1211.2245
-1213.7781
-1213.3975
-1213.3931
-1213.3927
-1213.3899
-1213.3848
-1213.3773
-1213.3674
-1210.8674
-1211.2188
-1213.7716
-1213.3908
-1213.3862
-1213.3855
-1213.3826
-1213.3773
-1213.3696
-1213.3596
-1210.8599
-1211.2115
-1213.7628
-1213.3817
-1213.3767
-1213.3759
-1213.3728
-1213.3674
-1213.3596
-1213.3492
-1210.85
-1209.8316
-1211.1349
-1210.8813
-1210.8767
-1210.8756
-1210.8726
-1210.8674
-1210.8599
-1210.85
-1207.9093
-1151.1275
-1154.3746
-1153.9114
-1153.9041
-1153.9045
-1153.903
-1153.8995
-1153.8941
-1153.8871
-1152.5212
-1154.3746
-1156.793
-1156.4108
-1156.4068
-1156.4071
-1156.4052
-1156.4012
-1156.395
-1156.3867
-1153.7921
-1153.9114
-1156.4108
-1156.0352
-1156.0313
-1156.0314
-1156.0295
-1156.0253
-1156.0189
-1156.0102
-1153.5419
-1153.9041
-1156.4068
-1156.0313
-1156.0272
-1156.0272
-1156.0251
-1156.0207
-1156.0141
-1156.0051
-1153.5371
-1153.9045
-1156.4071
-1156.0314
-1156.0272
-1156.0271
-1156.0248
-1156.0202
-1156.0134
-1156.0042
-1153.5361
-1153.903
-1156.4052
-1156.0295
-1156.0251
-1156.0248
-1156.0223
-1156.0176
-1156.0106
-1156.0013
-1153.5331
-1153.8995
-1156.4012
-1156.0253
-1156.0207
-1156.0202
-1156.0176
-1156.0127
-1156.0055
-1155.9961
-1153.5282
-1153.8941
-1156.395
-1156.0189
-1156.0141
-1156.0134
-1156.0106
-1156.0055
-1155.9982
-1155.9886
-1153.5211
-1153.8871
-1156.3867
-1156.0102
-1156.0051
-1156.0042
-1156.0013
-1155.9961
-1155.9886
-1155.9788
-1153.5117
-1152.5212
-1153.7921
-1153.5419
-1153.5371
-1153.5361
-1153.5331
-1153.5282
-1153.5211
-1153.5117
-1150.6044
-1098.0693
-1101.2356
-1100.7806
-1100.7731
-1100.7734
-1100.7719
-1100.7686
-1100.7635
-1100.7569
-1099.4128
-1101.2356
-1103.5898
-1103.2144
-1103.2103
-1103.2105
-1103.2087
-1103.2048
-1103.1989
-1103.191
-1100.6446
-1100.7806
-1103.2144
-1102.8456
-1102.8416
-1102.8417
-1102.8398
-1102.8358
-1102.8297
-1102.8214
-1100.3992
-1100.7731
-1103.2103
-1102.8416
-1102.8374
-1102.8373
-1102.8353
-1102.8311
-1102.8248
-1102.8163
-1100.3944
-1100.7734
-1103.2105
-1102.8417
-1102.8373
-1102.8371
-1102.8349
-1102.8305
-1102.8241
-1102.8154
-1100.3933
-1100.7719
-1103.2087
-1102.8398
-1102.8353
-1102.8349
-1102.8325
-1102.828
-1102.8214
-1102.8126
-1100.3905
-1100.7686
-1103.2048
-1102.8358
-1102.8311
-1102.8305
-1102.828
-1102.8233
-1102.8166
-1102.8077
-1100.3858
-1100.7635
-1103.1989
-1102.8297
-1102.8248
-1102.8241
-1102.8214
-1102.8166
-1102.8096
-1102.8006
-1100.3791
-1100.7569
-1103.191
-1102.8214
-1102.8163
-1102.8154
-1102.8126
-1102.8077
-1102.8006
-1102.7913
-1100.3702
-1099.4128
-1100.6446
-1100.3992
-1100.3944
-1100.3933
-1100.3905
-1100.3858
-1100.3791
-1100.3702
-1097.5131
-1048.788
-1051.8564
-1051.4121
-1051.4046
-1051.4048
-1051.4034
-1051.4002
-1051.3955
-1051.3893
-1050.0745
-1051.8564
-1054.1339
-1053.7676
-1053.7633
-1053.7635
-1053.7617
-1053.758
-1053.7525
-1053.7451
-1051.2607
-1051.4121
-1053.7676
-1053.4079
-1053.4037
-1053.4037
-1053.4019
-1053.3981
-1053.3923
-1053.3846
-1051.0216
-1051.4046
-1053.7633
-1053.4037
-1053.3994
-1053.3993
-1053.3973
-1053.3933
-1053.3874
-1053.3794
-1051.0168
-1051.4048
-1053.7635
-1053.4037
-1053.3993
-1053.399
-1053.3969
-1053.3928
-1053.3866
-1053.3785
-1051.0158
-1051.4034
-1053.7617
-1053.4019
-1053.3973
-1053.3969
-1053.3946
-1053.3903
-1053.3841
-1053.3758
-1051.0131
-1051.4002
-1053.758
-1053.3981
-1053.3933
-1053.3928
-1053.3903
-1053.3859
-1053.3795
-1053.3711
-1051.0086
-1051.3955
-1053.7525
-1053.3923
-1053.3874
-1053.3866
-1053.3841
-1053.3795
-1053.373
-1053.3645
-1051.0023
-1051.3893
-1053.7451
-1053.3846
-1053.3794
-1053.3785
-1053.3758
-1053.3711
-1053.3645
-1053.3557
-1050.9941
-1050.0745
-1051.2607
-1051.0216
-1051.0168
-1051.0158
-1051.0131
-1051.0086
-1051.0023
-1050.9941
-1048.2029
-1002.9075
-1005.862
-1005.4312
-1005.4237
-1005.4238
-1005.4224
-1005.4195
-1005.415
-1005.4092
-1004.1309
-1005.862
-1008.0515
-1007.6963
-1007.692
-1007.692
-1007.6904
-1007.6869
-1007.6817
-1007.6747
-1005.2656
-1005.4312
-1007.6963
-1007.3477
-1007.3434
-1007.3434
-1007.3416
-1007.338
-1007.3327
-1007.3254
-1005.0343
-1005.4237
-1007.692
-1007.3434
-1007.3391
-1007.3389
-1007.337
-1007.3333
-1007.3277
-1007.3202
-1005.0295
-1005.4238
-1007.692
-1007.3434
-1007.3389
-1007.3386
-1007.3365
-1007.3327
-1007.3269
-1007.3193
-1005.0284
-1005.4224
-1007.6904
-1007.3416
-1007.337
-1007.3365
-1007.3344
-1007.3303
-1007.3245
-1007.3168
-1005.0259
-1005.4195
-1007.6869
-1007.338
-1007.3333
-1007.3327
-1007.3303
-1007.3262
-1007.3202
-1007.3124
-1005.0218
-1005.415
-1007.6817
-1007.3327
-1007.3277
-1007.3269
-1007.3245
-1007.3202
-1007.3141
-1007.3061
-1005.0159
-1005.4092
-1007.6747
-1007.3254
-1007.3202
-1007.3193
-1007.3168
-1007.3124
-1007.3061
-1007.298
-1005.0082
-1004.1309
-1005.2656
-1005.0343
-1005.0295
-1005.0284
-1005.0259
-1005.0218
-1005.0159
-1005.0082
-1002.2981
-960.10022
-962.92587
-962.5109
-962.5034
-962.50343
-962.50213
-962.49937
-962.49523
-962.48988
-961.2547
-962.92587
-965.01645
-964.67449
-964.67011
-964.67008
-964.66847
-964.66521
-964.66034
-964.6539
-962.33248
-962.5109
-964.67449
-964.33888
-964.3346
-964.33448
-964.3328
-964.32945
-964.32443
-964.31771
-962.11021
-962.5034
-964.67011
-964.3346
-964.33022
-964.32998
-964.32817
-964.32468
-964.31949
-964.31257
-962.10545
-962.50343
-964.67008
-964.33448
-964.32998
-964.32963
-964.32769
-964.32406
-964.31873
-964.31167
-962.10441
-962.50213
-964.66847
-964.3328
-964.32817
-964.32769
-964.32562
-964.32186
-964.31641
-964.30925
-962.10205
-962.49937
-964.66521
-964.32945
-964.32468
-964.32406
-964.32186
-964.31799
-964.31241
-964.30515
-962.09817
-962.49523
-964.66034
-964.32443
-964.31949
-964.31873
-964.31641
-964.31241
-964.30672
-964.29933
-962.09272
-962.48988
-964.6539
-964.31771
-964.31257
-964.31167
-964.30925
-964.30515
-964.29933
-964.29177
-962.08559
-961.2547
-962.33248
-962.11021
-962.10545
-962.10441
-962.10205
-962.09817
-962.09272
-962.08559
-959.47082
-920.07883
-922.76178
-922.36496
-922.35758
-922.35753
-922.3563
-922.35374
-922.34993
-922.34501
-921.15923
-922.76178
-924.74364
-924.41677
-924.41239
-924.4123
-924.41076
-924.40773
-924.40323
-924.39729
-922.17505
-922.36496
-924.41677
-924.09603
-924.09177
-924.09159
-924.08999
-924.08688
-924.08225
-924.07606
-921.96309
-922.35758
-924.41239
-924.09177
-924.0874
-924.08712
-924.08541
-924.08216
-924.07737
-924.071
-921.95841
-922.35753
-924.4123
-924.09159
-924.08712
-924.08673
-924.0849
-924.08153
-924.07661
-924.07012
-921.9574
-922.3563
-924.41076
-924.08999
-924.08541
-924.0849
-924.08295
-924.07947
-924.07444
-924.06785
-921.95519
-922.35374
-924.40773
-924.08688
-924.08216
-924.08153
-924.07947
-924.07587
-924.07073
-924.06405
-921.95162
-922.34993
-924.40323
-924.08225
-924.07737
-924.07661
-924.07444
-924.07073
-924.06548
-924.05868
-921.94661
-922.34501
-924.39729
-924.07606
-924.071
-924.07012
-924.06785
-924.06405
-924.05868
-924.05172
-921.94008
-921.15923
-922.17505
-921.96309
-921.95841
-921.9574
-921.95519
-921.95162
-921.94661
-921.94008
-919.43384
-882.591
-885.11854
-884.74204
-884.73482
-884.73472
-884.73356
-884.73121
-884.72773
-884.72326
-883.59267
-885.11854
-886.98271
-886.67267
-886.66834
-886.66818
-886.66674
-886.66394
-886.65981
-886.65439
-884.54198
-884.74204
-886.67267
-886.36854
-886.36432
-886.3641
-886.36259
-886.35972
-886.35549
-886.34984
-884.34149
-884.73482
-886.66834
-886.36432
-886.36002
-886.3597
-886.35809
-886.3551
-886.35072
-886.34491
-884.33694
-884.73472
-886.66818
-886.3641
-886.3597
-886.35927
-886.35756
-886.35446
-886.34996
-886.34404
-884.33597
-884.73356
-886.66674
-886.36259
-886.35809
-886.35756
-886.35575
-886.35254
-886.34794
-886.34193
-884.33392
-884.73121
-886.66394
-886.35972
-886.3551
-886.35446
-886.35254
-886.34924
-886.34454
-886.33844
-884.33065
-884.72773
-886.65981
-886.35549
-886.35072
-886.34996
-886.34794
-886.34454
-886.33973
-886.33353