/*--------------------------------*- C++ -*----------------------------------*\
| =========                 |                                                 |
| \\      /  F ield         | OpenFOAM: The Open Source CFD Toolbox           |
|  \\    /   O peration     | Version:  v2106                                 |
|   \\  /    A nd           | Website:  www.openfoam.com                      |
|    \\/     M anipulation  |                                                 |
\*---------------------------------------------------------------------------*/
FoamFile
{
    version     2.0;
    format      ascii;
    arch        "LSB;label=32;scalar=64";
    class       volScalarField;
    location    "100";
    object      Tmode5;
}
// * * * * * * * * * * * * * * * * * * * * * * * * * * * * * * * * * * * * * //

dimensions      [0 0 0 0 0 0 0];

internalField   nonuniform List<scalar> 
4000
(
0.039579919
0.039579608
0.039579027
0.039579859
0.03957975
0.039579663
0.039579632
0.03957961
0.039579588
0.03957957
0.039579608
0.039578802
0.039579043
0.039579566
0.039579427
0.039579352
0.039579325
0.0395793
0.039579308
0.039579402
0.039579027
0.039579043
0.039579032
0.0395795
0.039579366
0.039579299
0.039579265
0.039579198
0.039579144
0.03957928
0.039579859
0.039579566
0.0395795
0.039579966
0.039579839
0.039579781
0.03957976
0.03957968
0.039579532
0.039579517
0.03957975
0.039579427
0.039579366
0.039579839
0.039579715
0.039579663
0.039579658
0.039579611
0.039579504
0.039579518
0.039579663
0.039579352
0.039579299
0.039579781
0.039579663
0.03957961
0.039579606
0.039579567
0.039579473
0.039579502
0.039579632
0.039579325
0.039579265
0.03957976
0.039579658
0.039579606
0.0395796
0.039579558
0.039579464
0.039579492
0.03957961
0.0395793
0.039579198
0.03957968
0.039579611
0.039579567
0.039579558
0.039579513
0.039579413
0.039579435
0.039579588
0.039579308
0.039579144
0.039579532
0.039579504
0.039579473
0.039579464
0.039579413
0.039579307
0.039579325
0.03957957
0.039579402
0.03957928
0.039579517
0.039579518
0.039579502
0.039579492
0.039579435
0.039579325
0.039579349
-0.026664851
-0.026665726
-0.026667102
-0.026664694
-0.026664953
-0.026665254
-0.026665395
-0.026665511
-0.026665631
-0.026665808
-0.026665726
-0.026667001
-0.02666669
-0.026665026
-0.026665364
-0.026665628
-0.026665767
-0.026665907
-0.026665829
-0.026665541
-0.026667102
-0.02666669
-0.026666791
-0.026665286
-0.026665622
-0.026665861
-0.026666032
-0.026666384
-0.026666555
-0.026666052
-0.026664694
-0.026665026
-0.026665286
-0.026663809
-0.026664129
-0.026664324
-0.026664442
-0.026664857
-0.026665397
-0.026665397
-0.026664953
-0.026665364
-0.026665622
-0.026664129
-0.026664437
-0.026664609
-0.026664655
-0.026664944
-0.026665369
-0.026665312
-0.026665254
-0.026665628
-0.026665861
-0.026664324
-0.026664609
-0.026664781
-0.026664817
-0.026665069
-0.026665437
-0.026665327
-0.026665395
-0.026665767
-0.026666032
-0.026664442
-0.026664655
-0.026664817
-0.026664861
-0.026665119
-0.02666549
-0.026665386
-0.026665511
-0.026665907
-0.026666384
-0.026664857
-0.026664944
-0.026665069
-0.026665119
-0.026665396
-0.026665793
-0.026665721
-0.026665631
-0.026665829
-0.026666555
-0.026665397
-0.026665369
-0.026665437
-0.02666549
-0.026665793
-0.026666213
-0.026666143
-0.026665808
-0.026665541
-0.026666052
-0.026665397
-0.026665312
-0.026665327
-0.026665386
-0.026665721
-0.026666143
-0.026665979
-0.035146267
-0.035146034
-0.035147227
-0.035144566
-0.035144857
-0.035145232
-0.035145452
-0.035145673
-0.03514583
-0.035146434
-0.035146034
-0.035147182
-0.035146667
-0.03514478
-0.035145154
-0.035145479
-0.035145729
-0.035146081
-0.035145755
-0.035145442
-0.035147227
-0.035146667
-0.035146535
-0.035144829
-0.035145198
-0.035145469
-0.035145752
-0.035146519
-0.035146683
-0.035146072
-0.035144566
-0.03514478
-0.035144829
-0.035143165
-0.035143517
-0.035143715
-0.03514388
-0.035144699
-0.035145336
-0.035145315
-0.035144857
-0.035145154
-0.035145198
-0.035143517
-0.035143861
-0.035144028
-0.035144088
-0.035144731
-0.035145229
-0.035145148
-0.035145232
-0.035145479
-0.035145469
-0.035143715
-0.035144028
-0.035144195
-0.035144238
-0.035144827
-0.035145248
-0.035145101
-0.035145452
-0.035145729
-0.035145752
-0.03514388
-0.035144088
-0.035144238
-0.035144291
-0.03514489
-0.035145324
-0.035145208
-0.035145673
-0.035146081
-0.035146519
-0.035144699
-0.035144731
-0.035144827
-0.03514489
-0.035145525
-0.035146009
-0.035145975
-0.03514583
-0.035145755
-0.035146683
-0.035145336
-0.035145229
-0.035145248
-0.035145324
-0.035146009
-0.035146516
-0.035146399
-0.035146434
-0.035145442
-0.035146072
-0.035145315
-0.035145148
-0.035145101
-0.035145208
-0.035145975
-0.035146399
-0.035146202
-0.020229702
-0.020228889
-0.020230185
-0.020227529
-0.020227769
-0.020228141
-0.020228428
-0.020228802
-0.020228844
-0.020229678
-0.020228889
-0.020229796
-0.020229419
-0.020227494
-0.020227811
-0.020228113
-0.020228452
-0.020229185
-0.020228716
-0.020228385
-0.020230185
-0.020229419
-0.020229385
-0.020227644
-0.020227953
-0.020228164
-0.020228481
-0.020229711
-0.020229811
-0.02022906
-0.020227529
-0.020227494
-0.020227644
-0.020225957
-0.020226256
-0.02022638
-0.020226534
-0.020227814
-0.020228436
-0.020228283
-0.020227769
-0.020227811
-0.020227953
-0.020226256
-0.020226552
-0.020226643
-0.020226673
-0.020227761
-0.020228248
-0.02022804
-0.020228141
-0.020228113
-0.020228164
-0.02022638
-0.020226643
-0.020226734
-0.020226741
-0.020227765
-0.02022817
-0.020227899
-0.020228428
-0.020228452
-0.020228481
-0.020226534
-0.020226673
-0.020226741
-0.020226758
-0.020227798
-0.020228232
-0.02022804
-0.020228802
-0.020229185
-0.020229711
-0.020227814
-0.020227761
-0.020227765
-0.020227798
-0.020228894
-0.020229409
-0.020229354
-0.020228844
-0.020228716
-0.020229811
-0.020228436
-0.020228248
-0.02022817
-0.020228232
-0.020229409
-0.020229871
-0.020229403
-0.020229678
-0.020228385
-0.02022906
-0.020228283
-0.02022804
-0.020227899
-0.02022804
-0.020229354
-0.020229403
-0.020229319
-0.00078389225
-0.00078320582
-0.00078465928
-0.00078207166
-0.00078220943
-0.00078252303
-0.00078283197
-0.00078342115
-0.00078355377
-0.00078455803
-0.00078320582
-0.00078430214
-0.00078411005
-0.00078218948
-0.00078240375
-0.00078261975
-0.00078292684
-0.00078393481
-0.00078346973
-0.00078317962
-0.00078465928
-0.00078411005
-0.0007842102
-0.00078247079
-0.00078268619
-0.00078280475
-0.0007830589
-0.00078460356
-0.0007847039
-0.00078389837
-0.00078207166
-0.00078218948
-0.00078247079
-0.00078079203
-0.00078100354
-0.00078103408
-0.00078110939
-0.00078271748
-0.00078335868
-0.00078313259
-0.00078220943
-0.00078240375
-0.00078268619
-0.00078100354
-0.00078121565
-0.00078121255
-0.00078115528
-0.00078257402
-0.00078309533
-0.0007828254
-0.00078252303
-0.00078261975
-0.00078280475
-0.00078103408
-0.00078121255
-0.00078120572
-0.00078111954
-0.00078246962
-0.00078291194
-0.00078258374
-0.00078283197
-0.00078292684
-0.0007830589
-0.00078110939
-0.00078115528
-0.00078111954
-0.00078104089
-0.00078241417
-0.00078291231
-0.00078272472
-0.00078342115
-0.00078393481
-0.00078460356
-0.00078271748
-0.00078257402
-0.00078246962
-0.00078241417
-0.00078388048
-0.00078452669
-0.00078457968
-0.00078355377
-0.00078346973
-0.0007847039
-0.00078335868
-0.00078309533
-0.00078291194
-0.00078291231
-0.00078452669
-0.00078507554
-0.00078421017
-0.00078455803
-0.00078317962
-0.00078389837
-0.00078313259
-0.0007828254
-0.00078258374
-0.00078272472
-0.00078457968
-0.00078421017
-0.00078420345
0.014506842
0.01450752
0.014505934
0.014508434
0.014508411
0.014508175
0.014507918
0.014507285
0.014507171
0.014506164
0.01450752
0.01450636
0.014506389
0.01450829
0.014508179
0.01450803
0.014507784
0.014506691
0.014507231
0.014507551
0.014505934
0.014506389
0.014506176
0.014507902
0.014507782
0.014507727
0.014507539
0.014505888
0.014505901
0.014506797
0.014508434
0.01450829
0.014507902
0.014509563
0.014509443
0.014509473
0.014509463
0.014507727
0.014507197
0.01450754
0.014508411
0.014508179
0.014507782
0.014509443
0.014509323
0.014509388
0.014509512
0.014507952
0.014507521
0.014507896
0.014508175
0.01450803
0.014507727
0.014509473
0.014509388
0.014509463
0.014509624
0.014508137
0.014507783
0.014508214
0.014507918
0.014507784
0.014507539
0.014509463
0.014509512
0.014509624
0.014509786
0.014508278
0.014507854
0.0145081
0.014507285
0.014506691
0.014505888
0.014507727
0.014507952
0.014508137
0.014508278
0.014506652
0.014506009
0.014505885
0.014507171
0.014507231
0.014505901
0.014507197
0.014507521
0.014507783
0.014507854
0.014506009
0.014505427
0.01450662
0.014506164
0.014507551
0.014506797
0.01450754
0.014507896
0.014508214
0.0145081
0.014505885
0.01450662
0.014506585
0.022900235
0.022900893
0.022899208
0.022901615
0.022901692
0.022901499
0.022901259
0.02290061
0.022900539
0.022899589
0.022900893
0.022899694
0.022899586
0.022901458
0.02290144
0.022901324
0.022901091
0.022899967
0.022900587
0.022900949
0.022899208
0.022899586
0.022899278
0.022900982
0.022900949
0.022900919
0.022900739
0.022899052
0.022899198
0.022900173
0.022901615
0.022901458
0.022900982
0.02290262
0.022902585
0.022902636
0.02290262
0.022900825
0.022900437
0.022900887
0.022901692
0.02290144
0.022900949
0.022902585
0.022902552
0.022902642
0.022902758
0.022901119
0.022900808
0.022901276
0.022901499
0.022901324
0.022900919
0.022902636
0.022902642
0.022902751
0.022902911
0.022901347
0.02290111
0.022901632
0.022901259
0.022901091
0.022900739
0.02290262
0.022902758
0.022902911
0.022903083
0.022901506
0.0229012
0.022901523
0.02290061
0.022899967
0.022899052
0.022900825
0.022901119
0.022901347
0.022901506
0.022899812
0.022899257
0.022899132
0.022900539
0.022900587
0.022899198
0.022900437
0.022900808
0.02290111
0.0229012
0.022899257
0.022898733
0.022900176
0.022899589
0.022900949
0.022900173
0.022900887
0.022901276
0.022901632
0.022901523
0.022899132
0.022900176
0.022900125
0.024701882
0.024702524
0.02470078
0.024703081
0.024703234
0.024703067
0.024702825
0.024702176
0.024702158
0.024701289
0.024702524
0.024701311
0.024701091
0.024702916
0.024702969
0.024702867
0.024702622
0.024701501
0.024702202
0.024702606
0.02470078
0.024701091
0.024700706
0.024702371
0.024702406
0.02470238
0.024702173
0.024700497
0.02470078
0.024701818
0.024703081
0.024702916
0.024702371
0.024703969
0.024704004
0.024704055
0.024703996
0.024702191
0.024701955
0.024702498
0.024703234
0.024702969
0.024702406
0.024704004
0.024704046
0.024704143
0.02470421
0.024702541
0.024702361
0.024702907
0.024703067
0.024702867
0.02470238
0.024704055
0.024704143
0.024704267
0.024704386
0.024702791
0.02470268
0.024703272
0.024702825
0.024702622
0.024702173
0.024703996
0.02470421
0.024704386
0.024704525
0.024702923
0.024702745
0.024703139
0.024702176
0.024701501
0.024700497
0.024702191
0.024702541
0.024702791
0.024702923
0.024701209
0.024700783
0.024700712
0.024702158
0.024702202
0.02470078
0.024701955
0.024702361
0.02470268
0.024702745
0.024700783
0.024700385
0.024702017
0.024701289
0.024702606
0.024701818
0.024702498
0.024702907
0.024703272
0.024703139
0.024700712
0.024702017
0.024701964
0.021502138
0.021502772
0.021500987
0.021503153
0.021503351
0.021503193
0.021502939
0.021502302
0.021502346
0.021501567
0.021502772
0.021501566
0.021501237
0.021502982
0.02150308
0.021502975
0.021502704
0.021501609
0.021502388
0.02150283
0.021500987
0.021501237
0.021500776
0.021502372
0.021502452
0.021502416
0.021502166
0.021500531
0.021500948
0.021502034
0.021503153
0.021502982
0.021502372
0.021503908
0.021503993
0.021504033
0.021503913
0.021502133
0.021502054
0.021502676
0.021503351
0.02150308
0.021502452
0.021503993
0.021504094
0.021504186
0.021504189
0.021502527
0.021502485
0.021503098
0.021503193
0.021502975
0.021502416
0.021504033
0.021504186
0.021504317
0.021504377
0.021502788
0.021502807
0.021503455
0.021502939
0.021502704
0.021502166
0.021503913
0.021504189
0.021504377
0.021504464
0.021502871
0.021502826
0.021503282
0.021502302
0.021501609
0.021500531
0.021502133
0.021502527
0.021502788
0.021502871
0.021501173
0.021500896
0.021500915
0.021502346
0.021502388
0.021500948
0.021502054
0.021502485
0.021502807
0.021502826
0.021500896
0.021500669
0.021502441
0.021501567
0.02150283
0.021502034
0.021502676
0.021503098
0.021503455
0.021503282
0.021500915
0.021502441
0.021502396
0.015197151
0.015197764
0.015195934
0.015197937
0.01519816
0.01519801
0.015197747
0.015197136
0.015197249
0.015196564
0.015197764
0.015196561
0.015196112
0.015197747
0.015197874
0.015197769
0.015197476
0.01519643
0.015197286
0.015197763
0.015195934
0.015196112
0.015195561
0.015197064
0.015197178
0.015197137
0.015196851
0.015195287
0.015195837
0.015196962
0.015197937
0.015197747
0.015197064
0.015198517
0.015198644
0.01519868
0.015198508
0.015196789
0.01519687
0.015197564
0.01519816
0.015197874
0.015197178
0.015198644
0.015198798
0.015198893
0.015198838
0.015197221
0.015197323
0.015197996
0.01519801
0.015197769
0.015197137
0.01519868
0.015198893
0.015199035
0.015199042
0.015197493
0.015197647
0.015198343
0.015197747
0.015197476
0.015196851
0.015198508
0.015198838
0.015199042
0.015199079
0.015197528
0.01519762
0.015198133
0.015197136
0.01519643
0.015195287
0.015196789
0.015197221
0.015197493
0.015197528
0.015195881
0.015195763
0.015195891
0.015197249
0.015197286
0.015195837
0.01519687
0.015197323
0.015197647
0.01519762
0.015195763
0.015195732
0.015197609
0.015196564
0.015197763
0.015196962
0.015197564
0.015197996
0.015198343
0.015198133
0.015195891
0.015197609
0.015197582
0.0075048623
0.0075054283
0.0075035475
0.0075053712
0.0075056124
0.0075054863
0.0075052386
0.0075046806
0.0075048782
0.0075042944
0.0075054283
0.0075042145
0.0075036334
0.0075051399
0.0075052956
0.0075052098
0.007504923
0.0075039574
0.0075049015
0.0075054204
0.0075035475
0.0075036334
0.0075029812
0.0075043747
0.0075045252
0.0075045022
0.0075042115
0.0075027575
0.0075034509
0.0075046164
0.0075053712
0.0075051399
0.0075043747
0.0075057316
0.0075059034
0.0075059588
0.0075057683
0.0075041562
0.0075044093
0.0075051791
0.0075056124
0.0075052956
0.0075045252
0.0075059034
0.0075061121
0.0075062323
0.0075061525
0.0075046259
0.0075048868
0.0075056242
0.0075054863
0.0075052098
0.0075045022
0.0075059588
0.0075062323
0.0075064056
0.0075063883
0.0075049233
0.0075052246
0.0075059715
0.0075052386
0.007504923
0.0075042115
0.0075057683
0.0075061525
0.0075063883
0.0075064013
0.0075049319
0.0075051698
0.0075057413
0.0075046806
0.0075039574
0.0075027575
0.0075041562
0.0075046259
0.0075049233
0.0075049319
0.0075033716
0.0075034249
0.0075036755
0.0075048782
0.0075049015
0.0075034509
0.0075044093
0.0075048868
0.0075052246
0.0075051698
0.0075034249
0.0075036058
0.0075055653
0.0075042944
0.0075054204
0.0075046164
0.0075051791
0.0075056242
0.0075059715
0.0075057413
0.0075036755
0.0075055653
0.0075055644
-0.00022914112
-0.0002286443
-0.00023057625
-0.00022893899
-0.00022867542
-0.00022875355
-0.00022895338
-0.00022942378
-0.00022912024
-0.00022959142
-0.0002286443
-0.00022988262
-0.00023059844
-0.00022922828
-0.00022903761
-0.0002290772
-0.0002293214
-0.00023016696
-0.00022911729
-0.00022854505
-0.00023057625
-0.00023059844
-0.00023135535
-0.00023007742
-0.00022988313
-0.00022986048
-0.00023011562
-0.00023141582
-0.00023056391
-0.00022934914
-0.00022893899
-0.00022922828
-0.00023007742
-0.00022882318
-0.00022859921
-0.00022849733
-0.00022866425
-0.00023012224
-0.00022967841
-0.00022882413
-0.00022867542
-0.00022903761
-0.00022988313
-0.00022859921
-0.00022833064
-0.00022816063
-0.0002282245
-0.00022961214
-0.00022917319
-0.00022836097
-0.00022875355
-0.0002290772
-0.00022986048
-0.00022849733
-0.00022816063
-0.00022793464
-0.00022793875
-0.00022927411
-0.00022880785
-0.00022800071
-0.00022895338
-0.0002293214
-0.00023011562
-0.00022866425
-0.0002282245
-0.00022793875
-0.00022791631
-0.00022926159
-0.00022886207
-0.00022822356
-0.00022942378
-0.00023016696
-0.00023141582
-0.00023012224
-0.00022961214
-0.00022927411
-0.00022926159
-0.00023069516
-0.00023045752
-0.00023007685
-0.00022912024
-0.00022911729
-0.00023056391
-0.00022967841
-0.00022917319
-0.00022880785
-0.00022886207
-0.00023045752
-0.00023005522
-0.00022802886
-0.00022959142
-0.00022854505
-0.00022934914
-0.00022882413
-0.00022836097
-0.00022800071
-0.00022822356
-0.00023007685
-0.00022802886
-0.00022799367
-0.0070688037
-0.0070683903
-0.0070703659
-0.0070689121
-0.0070686192
-0.0070686281
-0.0070687507
-0.0070691029
-0.0070686749
-0.0070690228
-0.0070683903
-0.0070696583
-0.0070705016
-0.0070692667
-0.0070690331
-0.0070690043
-0.0070691736
-0.0070698662
-0.0070686963
-0.0070680595
-0.0070703659
-0.0070705016
-0.007071357
-0.0070701935
-0.0070699482
-0.0070698582
-0.0070700432
-0.0070711543
-0.0070701321
-0.0070688602
-0.0070689121
-0.0070692667
-0.0070701935
-0.0070690416
-0.0070687602
-0.007068592
-0.0070687002
-0.007069966
-0.0070693186
-0.007068372
-0.0070686192
-0.0070690331
-0.0070699482
-0.0070687602
-0.0070684293
-0.0070681925
-0.0070682068
-0.0070694169
-0.0070687858
-0.0070678896
-0.0070686281
-0.0070690043
-0.0070698582
-0.007068592
-0.0070681925
-0.0070678999
-0.0070678597
-0.0070690282
-0.0070683833
-0.0070675062
-0.0070687507
-0.0070691736
-0.0070700432
-0.0070687002
-0.0070682068
-0.0070678597
-0.0070677989
-0.0070689846
-0.0070684108
-0.0070676961
-0.0070691029
-0.0070698662
-0.0070711543
-0.007069966
-0.0070694169
-0.0070690282
-0.0070689846
-0.0070702577
-0.0070698261
-0.0070693119
-0.0070686749
-0.0070686963
-0.0070701321
-0.0070693186
-0.0070687858
-0.0070683833
-0.0070684108
-0.0070698261
-0.0070692
-0.0070671188
-0.0070690228
-0.0070680595
-0.0070688602
-0.007068372
-0.0070678896
-0.0070675062
-0.0070676961
-0.0070693119
-0.0070671188
-0.0070670391
-0.012448443
-0.012448117
-0.012450122
-0.012448841
-0.012448513
-0.012448439
-0.012448466
-0.012448682
-0.01244812
-0.012448339
-0.012448117
-0.012449411
-0.012450366
-0.012449258
-0.012448976
-0.012448866
-0.012448941
-0.012449461
-0.012448166
-0.01244746
-0.012450122
-0.012450366
-0.012451305
-0.01245025
-0.012449949
-0.012449781
-0.012449875
-0.012450777
-0.012449584
-0.012448253
-0.012448841
-0.012449258
-0.01245025
-0.012449195
-0.012448855
-0.012448612
-0.012448641
-0.012449693
-0.012448842
-0.012447802
-0.012448513
-0.012448976
-0.012449949
-0.012448855
-0.012448464
-0.012448155
-0.0124481
-0.012449112
-0.012448287
-0.012447304
-0.012448439
-0.012448866
-0.012449781
-0.012448612
-0.012448155
-0.012447793
-0.012447691
-0.012448672
-0.012447846
-0.012446895
-0.012448466
-0.012448941
-0.012449875
-0.012448641
-0.0124481
-0.012447691
-0.012447576
-0.012448581
-0.01244783
-0.012447034
-0.012448682
-0.012449461
-0.012450777
-0.012449693
-0.012449112
-0.012448672
-0.012448581
-0.012449673
-0.012449046
-0.012448401
-0.01244812
-0.012448166
-0.012449584
-0.012448842
-0.012448287
-0.012447846
-0.01244783
-0.012449046
-0.012448203
-0.012446079
-0.012448339
-0.01244746
-0.012448253
-0.012447802
-0.012447304
-0.012446895
-0.012447034
-0.012448401
-0.012446079
-0.01244595
-0.016103442
-0.016103199
-0.016105214
-0.016104092
-0.016103724
-0.016103565
-0.016103491
-0.016103565
-0.016102872
-0.016102966
-0.016103199
-0.016104509
-0.016105553
-0.016104561
-0.016104228
-0.016104035
-0.016104009
-0.016104353
-0.016102941
-0.016102167
-0.016105214
-0.016105553
-0.016106557
-0.016105599
-0.016105243
-0.016104997
-0.016104995
-0.016105686
-0.016104333
-0.01610295
-0.016104092
-0.016104561
-0.016105599
-0.016104634
-0.016104238
-0.016103923
-0.016103869
-0.016104705
-0.016103663
-0.016102538
-0.016103724
-0.016104228
-0.016105243
-0.016104238
-0.016103792
-0.016103417
-0.016103292
-0.016104101
-0.016103095
-0.016102033
-0.016103565
-0.016104035
-0.016104997
-0.016103923
-0.016103417
-0.016102995
-0.016102831
-0.01610362
-0.016102623
-0.016101602
-0.016103491
-0.016104009
-0.016104995
-0.016103869
-0.016103292
-0.016102831
-0.01610266
-0.016103479
-0.016102559
-0.016101685
-0.016103565
-0.016104353
-0.016105686
-0.016104705
-0.016104101
-0.01610362
-0.016103479
-0.016104383
-0.01610357
-0.016102803
-0.016102872
-0.016102941
-0.016104333
-0.016103663
-0.016103095
-0.016102623
-0.016102559
-0.01610357
-0.016102526
-0.016100376
-0.016102966
-0.016102167
-0.01610295
-0.016102538
-0.016102033
-0.016101602
-0.016101685
-0.016102803
-0.016100376
-0.016100198
-0.017995535
-0.017995364
-0.017997369
-0.017996388
-0.017995981
-0.017995742
-0.017995573
-0.017995514
-0.017994704
-0.017994681
-0.017995364
-0.017996674
-0.017997785
-0.017996893
-0.017996511
-0.017996242
-0.017996123
-0.017996302
-0.01799479
-0.01799396
-0.017997369
-0.017997785
-0.017998831
-0.017997958
-0.017997552
-0.017997237
-0.017997147
-0.017997639
-0.017996151
-0.017994729
-0.017996388
-0.017996893
-0.017997958
-0.017997074
-0.017996629
-0.017996254
-0.017996126
-0.01799676
-0.017995552
-0.017994359
-0.017995981
-0.017996511
-0.017997552
-0.017996629
-0.01799614
-0.017995713
-0.017995527
-0.017996148
-0.017994984
-0.017993858
-0.017995742
-0.017996242
-0.017997237
-0.017996254
-0.017995713
-0.017995246
-0.017995031
-0.017995642
-0.017994497
-0.017993418
-0.017995573
-0.017996123
-0.017997147
-0.017996126
-0.017995527
-0.017995031
-0.017994815
-0.01799546
-0.01799439
-0.017993448
-0.017995514
-0.017996302
-0.017997639
-0.01799676
-0.017996148
-0.017995642
-0.01799546
-0.017996184
-0.017995204
-0.017994331
-0.017994704
-0.01799479
-0.017996151
-0.017995552
-0.017994984
-0.017994497
-0.01799439
-0.017995204
-0.017993983
-0.017991825
-0.017994681
-0.01799396
-0.017994729
-0.017994359
-0.017993858
-0.017993418
-0.017993448
-0.017994331
-0.017991825
-0.017991602
-0.018244638
-0.018244524
-0.018246499
-0.01824564
-0.018245198
-0.01824489
-0.018244644
-0.018244469
-0.018243564
-0.01824344
-0.018244524
-0.018245818
-0.018246969
-0.018246165
-0.01824574
-0.018245409
-0.018245213
-0.018245247
-0.018243662
-0.018242791
-0.018246499
-0.018246969
-0.018248036
-0.018247238
-0.018246789
-0.018246421
-0.018246262
-0.018246578
-0.018244985
-0.018243545
-0.01824564
-0.018246165
-0.018247238
-0.018246426
-0.018245943
-0.018245526
-0.018245343
-0.018245799
-0.018244459
-0.018243219
-0.018245198
-0.01824574
-0.018246789
-0.018245943
-0.018245422
-0.018244963
-0.018244738
-0.018245194
-0.018243906
-0.018242736
-0.01824489
-0.018245409
-0.018246421
-0.018245526
-0.018244963
-0.018244474
-0.018244228
-0.018244684
-0.018243422
-0.018242303
-0.018244644
-0.018245213
-0.018246262
-0.018245343
-0.018244738
-0.018244228
-0.018243987
-0.018244478
-0.018243287
-0.018242291
-0.018244469
-0.018245247
-0.018246578
-0.018245799
-0.018245194
-0.018244684
-0.018244478
-0.018245041
-0.018243921
-0.018242961
-0.018243564
-0.018243662
-0.018244985
-0.018244459
-0.018243906
-0.018243422
-0.018243287
-0.018243921
-0.018242553
-0.018240407
-0.01824344
-0.018242791
-0.018243545
-0.018243219
-0.018242736
-0.018242303
-0.018242291
-0.018242961
-0.018240407
-0.018240149
-0.017071939
-0.017071866
-0.017073792
-0.01707304
-0.017072569
-0.01707221
-0.017071906
-0.017071642
-0.017070667
-0.017070462
-0.017071866
-0.017073127
-0.017074296
-0.017073568
-0.017073108
-0.017072733
-0.017072484
-0.017072401
-0.017070772
-0.017069879
-0.017073792
-0.017074296
-0.017075364
-0.017074632
-0.017074151
-0.017073749
-0.017073544
-0.017073717
-0.017072054
-0.017070616
-0.01707304
-0.017073568
-0.017074632
-0.017073884
-0.017073376
-0.017072938
-0.017072724
-0.017073034
-0.017071601
-0.017070338
-0.017072569
-0.017073108
-0.017074151
-0.017073376
-0.017072838
-0.01707237
-0.017072128
-0.017072452
-0.017071077
-0.017069887
-0.01707221
-0.017072733
-0.017073749
-0.017072938
-0.01707237
-0.017071881
-0.017071629
-0.01707196
-0.017070616
-0.017069479
-0.017071906
-0.017072484
-0.017073544
-0.017072724
-0.017072128
-0.017071629
-0.017071386
-0.017071752
-0.017070472
-0.017069442
-0.017071642
-0.017072401
-0.017073717
-0.017073034
-0.017072452
-0.01707196
-0.017071752
-0.01707218
-0.017070951
-0.017069926
-0.017070667
-0.017070772
-0.017072054
-0.017071601
-0.017071077
-0.017070616
-0.017070472
-0.017070951
-0.01706947
-0.017067357
-0.017070462
-0.017069879
-0.017070616
-0.017070338
-0.017069887
-0.017069479
-0.017069442
-0.017069926
-0.017067357
-0.017067074
-0.014755139
-0.014755092
-0.014756955
-0.014756295
-0.014755804
-0.014755412
-0.014755075
-0.014754748
-0.014753733
-0.014753466
-0.014755092
-0.014756307
-0.014757473
-0.014756811
-0.014756326
-0.014755927
-0.01475565
-0.014755481
-0.01475384
-0.014752944
-0.014756955
-0.014757473
-0.014758526
-0.014757851
-0.014757351
-0.014756937
-0.014756711
-0.014756773
-0.014755078
-0.014753663
-0.014756295
-0.014756811
-0.014757851
-0.014757162
-0.014756641
-0.014756205
-0.014755986
-0.014756184
-0.014754696
-0.014753436
-0.014755804
-0.014756326
-0.014757351
-0.014756641
-0.014756101
-0.014755646
-0.014755414
-0.014755639
-0.014754215
-0.014753029
-0.014755412
-0.014755927
-0.014756937
-0.014756205
-0.014755646
-0.01475518
-0.014754947
-0.014755186
-0.014753796
-0.014752662
-0.014755075
-0.01475565
-0.014756711
-0.014755986
-0.014755414
-0.014754947
-0.014754726
-0.014754999
-0.014753664
-0.01475262
-0.014754748
-0.014755481
-0.014756773
-0.014756184
-0.014755639
-0.014755186
-0.014754999
-0.01475532
-0.014754016
-0.014752949
-0.014753733
-0.01475384
-0.014755078
-0.014754696
-0.014754215
-0.014753796
-0.014753664
-0.014754016
-0.014752456
-0.014750397
-0.014753466
-0.014752944
-0.014753663
-0.014753436
-0.014753029
-0.014752662
-0.01475262
-0.014752949
-0.014750397
-0.014750101
-0.011594875
-0.011594843
-0.01159663
-0.011596049
-0.011595547
-0.011595142
-0.011594795
-0.011594434
-0.011593405
-0.011593098
-0.011594843
-0.011595999
-0.011597146
-0.011596541
-0.011596044
-0.01159564
-0.011595358
-0.011595134
-0.01159351
-0.011592631
-0.01159663
-0.011597146
-0.011598169
-0.011597546
-0.011597038
-0.011596632
-0.01159641
-0.011596396
-0.011594702
-0.011593331
-0.011596049
-0.011596541
-0.011597546
-0.011596911
-0.011596391
-0.011595976
-0.011595776
-0.011595898
-0.011594391
-0.011593156
-0.011595547
-0.011596044
-0.011597038
-0.011596391
-0.011595862
-0.01159544
-0.011595242
-0.011595401
-0.011593964
-0.011592803
-0.011595142
-0.01159564
-0.011596632
-0.011595976
-0.01159544
-0.011595018
-0.011594826
-0.011595005
-0.011593605
-0.011592494
-0.011594795
-0.011595358
-0.01159641
-0.011595776
-0.011595242
-0.011594826
-0.01159465
-0.011594859
-0.011593504
-0.011592465
-0.011594434
-0.011595134
-0.011596396
-0.011595898
-0.011595401
-0.011595005
-0.011594859
-0.011595104
-0.011593758
-0.01159267
-0.011593405
-0.01159351
-0.011594702
-0.011594391
-0.011593964
-0.011593605
-0.011593504
-0.011593758
-0.011592152
-0.011590163
-0.011593098
-0.011592631
-0.011593331
-0.011593156
-0.011592803
-0.011592494
-0.011592465
-0.01159267
-0.011590163
-0.011589866
-0.0078906397
-0.0078906112
-0.0078923129
-0.0078918013
-0.0078912993
-0.0078908978
-0.0078905627
-0.0078901919
-0.0078891747
-0.0078888453
-0.0078906112
-0.0078917
-0.0078928136
-0.0078922592
-0.0078917616
-0.0078913712
-0.0078911059
-0.0078908548
-0.0078892748
-0.0078884279
-0.0078923129
-0.0078928136
-0.007893797
-0.007893221
-0.0078927186
-0.0078923373
-0.0078921411
-0.0078920814
-0.0078904186
-0.0078891088
-0.0078918013
-0.0078922592
-0.007893221
-0.0078926359
-0.0078921299
-0.0078917528
-0.0078915931
-0.0078916689
-0.0078901773
-0.0078889863
-0.0078912993
-0.0078917616
-0.0078927186
-0.0078921299
-0.0078916244
-0.0078912522
-0.0078911072
-0.0078912308
-0.0078898126
-0.0078886968
-0.0078908978
-0.0078913712
-0.0078923373
-0.0078917528
-0.0078912522
-0.0078908889
-0.0078907578
-0.0078909066
-0.0078895256
-0.0078884569
-0.0078905627
-0.0078911059
-0.0078921411
-0.0078915931
-0.0078911072
-0.0078907578
-0.0078906449
-0.0078908188
-0.0078894719
-0.0078884567
-0.0078901919
-0.0078908548
-0.0078920814
-0.0078916689
-0.0078912308
-0.0078909066
-0.0078908188
-0.0078910145
-0.0078896555
-0.0078885666
-0.0078891747
-0.0078892748
-0.0078904186
-0.0078901773
-0.0078898126
-0.0078895256
-0.0078894719
-0.0078896555
-0.0078880356
-0.0078861315
-0.0078888453
-0.0078884279
-0.0078891088
-0.0078889863
-0.0078886968
-0.0078884569
-0.0078884567
-0.0078885666
-0.0078861315
-0.0078858447
-0.0039243497
-0.0039243175
-0.0039259274
-0.0039254759
-0.0039249836
-0.0039246013
-0.0039242959
-0.0039239376
-0.0039229534
-0.003922618
-0.0039243175
-0.0039253329
-0.0039264027
-0.0039258941
-0.0039254065
-0.0039250444
-0.0039248142
-0.0039245605
-0.0039230463
-0.0039222452
-0.0039259274
-0.0039264027
-0.0039273385
-0.0039268064
-0.0039263199
-0.0039259783
-0.0039258254
-0.003925747
-0.0039241415
-0.0039229064
-0.0039254759
-0.0039258941
-0.0039268064
-0.0039262687
-0.003925787
-0.0039254618
-0.0039253584
-0.0039254153
-0.0039239664
-0.0039228359
-0.0039249836
-0.0039254065
-0.0039263199
-0.003925787
-0.0039253151
-0.0039250055
-0.0039249287
-0.0039250422
-0.0039236699
-0.0039226141
-0.0039246013
-0.0039250444
-0.0039259783
-0.0039254618
-0.0039250055
-0.0039247133
-0.003924657
-0.0039247993
-0.0039234641
-0.0039224517
-0.0039242959
-0.0039248142
-0.0039258254
-0.0039253584
-0.0039249287
-0.003924657
-0.0039246199
-0.0039247826
-0.0039234703
-0.0039224935
-0.0039239376
-0.0039245605
-0.003925747
-0.0039254153
-0.0039250422
-0.0039247993
-0.0039247826
-0.0039249531
-0.0039236083
-0.0039225359
-0.0039229534
-0.0039230463
-0.0039241415
-0.0039239664
-0.0039236699
-0.0039234641
-0.0039234703
-0.0039236083
-0.0039220009
-0.0039201938
-0.003922618
-0.0039222452
-0.0039229064
-0.0039228359
-0.0039226141
-0.0039224517
-0.0039224935
-0.0039225359
-0.0039201938
-0.0039199257
5.012888e-05
5.0169747e-05
4.8656233e-05
4.9055101e-05
4.9528735e-05
4.9879293e-05
5.0140724e-05
5.0468993e-05
5.1402799e-05
5.1730891e-05
5.0169747e-05
4.9231665e-05
4.8213784e-05
4.8680126e-05
4.9148168e-05
4.9470148e-05
4.9651496e-05
4.9887676e-05
5.1318485e-05
5.2063683e-05
4.8656233e-05
4.8213784e-05
4.7330997e-05
4.7821577e-05
4.8282658e-05
4.8573723e-05
4.8670453e-05
4.8745404e-05
5.0272714e-05
5.1423068e-05
4.9055101e-05
4.8680126e-05
4.7821577e-05
4.8313757e-05
4.8762387e-05
4.9025965e-05
4.9061786e-05
4.9002046e-05
5.0385677e-05
5.1443399e-05
4.9528735e-05
4.9148168e-05
4.8282658e-05