/*--------------------------------*- C++ -*----------------------------------*\
| =========                 |                                                 |
| \\      /  F ield         | OpenFOAM: The Open Source CFD Toolbox           |
|  \\    /   O peration     | Version:  v2106                                 |
|   \\  /    A nd           | Website:  www.openfoam.com                      |
|    \\/     M anipulation  |                                                 |
\*---------------------------------------------------------------------------*/
FoamFile
{
    version     2.0;
    format      ascii;
    arch        "LSB;label=32;scalar=64";
    class       volScalarField;
    location    "100";
    object      Tmode_lapla3;
}
// * * * * * * * * * * * * * * * * * * * * * * * * * * * * * * * * * * * * * //

dimensions      [0 -2 0 0 0 0 0];

internalField   nonuniform List<scalar> 
4000
(
-1779.7715
-1779.7749
-1779.7743
-1779.7756
-1779.7754
-1779.7754
-1779.7752
-1779.7749
-1779.7746
-1779.7746
-1779.7749
-1779.773
-1779.7752
-1779.7759
-1779.7757
-1779.7757
-1779.7755
-1779.7751
-1779.7745
-1779.7745
-1779.7743
-1779.7752
-1779.7761
-1779.7768
-1779.7766
-1779.7766
-1779.7764
-1779.776
-1779.775
-1779.775
-1779.7756
-1779.7759
-1779.7768
-1779.7775
-1779.7773
-1779.7773
-1779.7772
-1779.7768
-1779.7758
-1779.7756
-1779.7754
-1779.7757
-1779.7766
-1779.7773
-1779.7772
-1779.7771
-1779.777
-1779.7766
-1779.7757
-1779.7755
-1779.7754
-1779.7757
-1779.7766
-1779.7773
-1779.7771
-1779.777
-1779.7769
-1779.7765
-1779.7756
-1779.7754
-1779.7752
-1779.7755
-1779.7764
-1779.7772
-1779.777
-1779.7769
-1779.7767
-1779.7763
-1779.7754
-1779.7752
-1779.7749
-1779.7751
-1779.776
-1779.7768
-1779.7766
-1779.7765
-1779.7763
-1779.7759
-1779.7749
-1779.7748
-1779.7746
-1779.7745
-1779.775
-1779.7758
-1779.7757
-1779.7756
-1779.7754
-1779.7749
-1779.774
-1779.7738
-1779.7746
-1779.7745
-1779.775
-1779.7756
-1779.7755
-1779.7754
-1779.7752
-1779.7748
-1779.7738
-1779.7737
61.99959
61.980186
62.003456
61.994883
61.995114
61.995377
61.995438
61.995448
61.995494
61.995504
61.980186
61.98688
61.994867
61.988777
61.989258
61.989537
61.98962
61.989568
61.988478
61.990966
62.003456
61.994867
62.006605
62.000733
62.00118
62.001451
62.001624
62.001904
61.999932
61.99659
61.994883
61.988777
62.000733
61.994849
61.995273
61.995519
61.995693
61.996316
61.995722
61.994696
61.995114
61.989258
62.00118
61.995273
61.995677
61.995898
61.996006
61.996491
61.995741
61.994668
61.995377
61.989537
62.001451
61.995519
61.995898
61.996106
61.996196
61.996645
61.995837
61.994699
61.995438
61.98962
62.001624
61.995693
61.996006
61.996196
61.996279
61.99672
61.995903
61.994758
61.995448
61.989568
62.001904
61.996316
61.996491
61.996645
61.99672
61.997159
61.996346
61.995199
61.995494
61.988478
61.999932
61.995722
61.995741
61.995837
61.995903
61.996346
61.995536
61.994281
61.995504
61.990966
61.99659
61.994696
61.994668
61.994699
61.994758
61.995199
61.994281
61.992632
53.540003
53.524683
53.546201
53.536441
53.537
53.537394
53.537494
53.537525
53.537121
53.542198
53.524683
53.534963
53.541112
53.534293
53.535117
53.53553
53.535778
53.535894
53.530217
53.534497
53.546201
53.541112
53.551382
53.544773
53.545527
53.545905
53.546347
53.547741
53.542328
53.540593
53.536441
53.534293
53.544773
53.538137
53.538849
53.539154
53.539492
53.54125
53.537574
53.538618
53.537
53.535117
53.545527
53.538849
53.539536
53.539802
53.540022
53.541547
53.537627
53.538598
53.537394
53.53553
53.545905
53.539154
53.539802
53.540056
53.540251
53.541721
53.537716
53.538606
53.537494
53.535778
53.546347
53.539492
53.540022
53.540251
53.540442
53.541908
53.537901
53.538808
53.537525
53.535894
53.547741
53.54125
53.541547
53.541721
53.541908
53.543387
53.539409
53.540269
53.537121
53.530217
53.542328
53.537574
53.537627
53.537716
53.537901
53.539409
53.53544
53.535359
53.542198
53.534497
53.540593
53.538618
53.538598
53.538606
53.538808
53.540269
53.535359
53.539282
44.582345
44.563537
44.585058
44.575141
44.5759
44.576372
44.576537
44.576624
44.573812
44.57869
44.563537
44.571368
44.577778
44.570911
44.571918
44.572402
44.572965
44.57438
44.565298
44.56934
44.585058
44.577778
44.58825
44.581571
44.582475
44.58285
44.58351
44.586623
44.57822
44.575874
44.575141
44.570911
44.581571
44.574859
44.575709
44.575972
44.576421
44.579874
44.573351
44.573926
44.5759
44.571918
44.582475
44.575709
44.576533
44.576748
44.577038
44.580195
44.573379
44.573873
44.576372
44.572402
44.58285
44.575972
44.576748
44.57695
44.577212
44.580299
44.573383
44.573809
44.576537
44.572965
44.58351
44.576421
44.577038
44.577212
44.577471
44.580562
44.573664
44.574181
44.576624
44.57438
44.586623
44.579874
44.580195
44.580299
44.580562
44.583697
44.576883
44.577279
44.573812
44.565298
44.57822
44.573351
44.573379
44.573383
44.573664
44.576883
44.570002
44.56671
44.57869
44.56934
44.575874
44.573926
44.573873
44.573809
44.574181
44.577279
44.56671
44.576315
36.17819
36.15748
36.179327
36.169785
36.17062
36.171109
36.171394
36.172129
36.168862
36.174314
36.15748
36.164093
36.171285
36.164687
36.165719
36.166131
36.166784
36.169539
36.159405
36.164309
36.179327
36.171285
36.182285
36.175856
36.176768
36.177013
36.17764
36.182259
36.172896
36.171125
36.169785
36.164687
36.175856
36.169392
36.170248
36.17036
36.170696
36.175621
36.168145
36.169255
36.17062
36.165719
36.176768
36.170248
36.171079
36.17114
36.171295
36.175892
36.168105
36.16914
36.171109
36.166131
36.177013
36.17036
36.17114
36.171189
36.171312
36.175834
36.167945
36.168946
36.171394
36.166784
36.17764
36.170696
36.171295
36.171312
36.171436
36.175975
36.168144
36.169385
36.172129
36.169539
36.182259
36.175621
36.175892
36.175834
36.175975
36.18061
36.173005
36.174285
36.168862
36.159405
36.172896
36.168145
36.168105
36.167945
36.168144
36.173005
36.165507
36.159563
36.174314
36.164309
36.171125
36.169255
36.16914
36.168946
36.169385
36.174285
36.159563
36.173231
28.526616
28.505579
28.527652
28.518687
28.519469
28.519878
28.520113
28.521198
28.517817
28.523766
28.505579
28.512163
28.520077
28.513827
28.51476
28.515008
28.515485
28.518849
28.508188
28.513727
28.527652
28.520077
28.531472
28.525381
28.526197
28.526257
28.526625
28.531889
28.521947
28.520654
28.518687
28.513827
28.525381
28.519259
28.520022
28.51994
28.519978
28.525521
28.517404
28.518866
28.519469
28.51476
28.526197
28.520022
28.520762
28.520632
28.52048
28.525694
28.517276
28.518681
28.519878
28.515008
28.526257
28.51994
28.520632
28.520492
28.520307
28.525447
28.516929
28.518338
28.520113
28.515485
28.526625
28.519978
28.52048
28.520307
28.520126
28.525293
28.516874
28.518691
28.521198
28.518849
28.531889
28.525521
28.525694
28.525447
28.525293
28.530612
28.522596
28.524838
28.517817
28.508188
28.521947
28.517404
28.517276
28.516929
28.516874
28.522596
28.515112
28.50744
28.523766
28.513727
28.520654
28.518866
28.518681
28.518338
28.518691
28.524838
28.50744
28.523696
21.802046
21.781556
21.803682
21.795294
21.795934
21.796229
21.796334
21.797472
21.793922
21.799946
21.781556
21.788614
21.797042
21.791091
21.791855
21.791947
21.792193
21.795639
21.784567
21.790184
21.803682
21.797042
21.808626
21.802835
21.803492
21.803395
21.803491
21.808799
21.798332
21.797084
21.795294
21.791091
21.802835
21.797019
21.797629
21.797396
21.797156
21.802734
21.794006
21.795365
21.795934
21.791855
21.803492
21.797629
21.798221
21.797943
21.79752
21.802789
21.793788
21.795118
21.796229
21.791947
21.803395
21.797396
21.797943
21.797658
21.797203
21.802398
21.793304
21.794662
21.796334
21.792193
21.803491
21.797156
21.79752
21.797203
21.796749
21.801974
21.792995
21.794881
21.797472
21.795639
21.808799
21.802734
21.802789
21.802398
21.801974
21.80738
21.798934
21.801632
21.793922
21.784567
21.798332
21.794006
21.793788
21.793304
21.792995
21.798934
21.791439
21.782642
21.799946
21.790184
21.797084
21.795365
21.795118
21.794662
21.794881
21.801632
21.782642
21.800322
16.086549
16.067091
16.089058
16.081151
16.081601
16.081795
16.081795
16.082863
16.07912
16.084884
16.067091
16.074782
16.083461
16.077712
16.078268
16.078247
16.078323
16.081597
16.070221
16.07551
16.089058
16.083461
16.095015
16.089438
16.089904
16.089707
16.089631
16.094698
16.083798
16.082291
16.081151
16.077712
16.089438
16.083846
16.084274
16.083953
16.083562
16.088909
16.079664
16.080623
16.081601
16.078268
16.089904
16.084274
16.084689
16.084331
16.083771
16.088843
16.079367
16.080334
16.081795
16.078247
16.089707
16.083953
16.084331
16.083969
16.083379
16.088381
16.078818
16.079826
16.081795
16.078323
16.089631
16.083562
16.083771
16.083379
16.082787
16.087814
16.078365
16.079952
16.082863
16.081597
16.094698
16.088909
16.088843
16.088381
16.087814
16.093024
16.084164
16.086818
16.07912
16.070221
16.083798
16.079664
16.079367
16.078818
16.078365
16.084164
16.076527
16.067006
16.084884
16.07551
16.082291
16.080623
16.080334
16.079826
16.079952
16.086818
16.067006
16.085275
11.363467
11.345097
11.366722
11.359185
11.359429
11.359542
11.359481
11.360444
11.356529
11.361864
11.345097
11.353297
11.362003
11.356372
11.356718
11.356632
11.356627
11.35965
11.348099
11.352883
11.366722
11.362003
11.373353
11.367911
11.368189
11.36795
11.367821
11.37256
11.36137
11.359492
11.359185
11.356372
11.367911
11.362466
11.362714
11.362369
11.361961
11.367002
11.357393
11.357862
11.359429
11.356718
11.368189
11.362714
11.362955
11.362578
11.36202
11.366826
11.357033
11.357551
11.359542
11.356632
11.36795
11.362369
11.362578
11.362199
11.361614
11.366358
11.356486
11.357052
11.359481
11.356627
11.367821
11.361961
11.36202
11.361614
11.361027
11.36579
11.356023
11.357163
11.360444
11.35965
11.37256
11.367002
11.366826
11.366358
11.36579
11.370724
11.361544
11.36384
11.356529
11.348099
11.36137
11.357393
11.357033
11.356486
11.356023
11.361544
11.353689
11.343741
11.361864
11.352883
11.359492
11.357862
11.357551
11.357052
11.357163
11.36384
11.343741
11.362063
7.5489968
7.5315809
7.5527438
7.5454883
7.54554
7.5456027
7.5455317
7.5464116
7.5423871
7.5472678
7.5315809
7.5400728
7.5486503
7.5430842
7.5432453
7.5431437
7.5431533
7.5459486
7.5343686
7.538645
7.5527438
7.5486503
7.5596835
7.5543258
7.5544382
7.5542116
7.5541399
7.5585801
7.5472683
7.545058
7.5454883
7.5430842
7.5543258
7.5489762
7.5490668
7.5487498
7.5484439
7.5532132
7.5434207
7.5434581
7.54554
7.5432453
7.5544382
7.5490668
7.5491523
7.5488094
7.5483725
7.5529466
7.5430149
7.5431403
7.5456027
7.5431437
7.5542116
7.5487498
7.5488094
7.5484647
7.5480036
7.5525223
7.5425208
7.5426973
7.5455317
7.5431533
7.5541399
7.5484439
7.5483725
7.5480036
7.5475384
7.5520713
7.5421622
7.5428689
7.5464116
7.5459486
7.5585801
7.5532132
7.5529466
7.5525223
7.5520713
7.5567575
7.5473965
7.5492065
7.5423871
7.5343686
7.5472683
7.5434207
7.5430149
7.5425208
7.5421622
7.5473965
7.5393199
7.5291783
7.5472678
7.538645
7.545058
7.5434581
7.5431403
7.5426973
7.5428689
7.5492065
7.5291783
7.5472471
4.5267993
4.5101855
4.5308089
4.5237727
4.5236581
4.5236988
4.5236645
4.5245057
4.5204477
4.5249282
4.5101855
4.5187678
4.5271164
4.5215872
4.5215934
4.5215143
4.5216105
4.5242436
4.5127701
4.5166229
4.5308089
4.5271164
4.5377692
4.5324658
4.5324403
4.5322621
4.5323258
4.5365403
4.525266
4.5228279
4.5237727
4.5215872
4.5324658
4.5271793
4.527138
4.5268844
4.5267584
4.5313304
4.521524
4.5212531
4.5236581
4.5215934
4.5324403
4.527138
4.5270936
4.5268179
4.5265792
4.5309925
4.5210876
4.52094
4.5236988
4.5215143
4.5322621
4.5268844
4.5268179
4.5265402
4.5262793
4.5306435
4.5206777
4.5205803
4.5236645
4.5216105
4.5323258
4.5267584
4.5265792
4.5262793
4.5260128
4.5303872
4.5205006
4.52087
4.5245057
4.5242436
4.5365403
4.5313304
4.5309925
4.5306435
4.5303872
4.5348951
4.5254979
4.5268203
4.5204477
4.5127701
4.525266
4.521524
4.5210876
4.5206777
4.5205006
4.5254979
4.5172486
4.5070869
4.5249282
4.5166229
4.5228279
4.5212531
4.52094
4.5205803
4.52087
4.5268203
4.5070869
4.5247489
2.1729038
2.1569717
2.1770024
2.1701427
2.1698887
2.1699252
2.1699557
2.1707982
2.166773
2.1709325
2.1569717
2.165488
2.1735435
2.1680391
2.167918
2.16788
2.1681027
2.1706389
2.1593768
2.1629094
2.1770024
2.1735435
2.18378
2.1785164
2.1783772
2.1782628
2.1785007
2.1825629
2.1714525
2.168901
2.1701427
2.1680391
2.1785164
2.1732766
2.1731261
2.1729491
2.1730385
2.1774846
2.1677992
2.1673484
2.1698887
2.167918
2.1783772
2.1731261
2.1729736
2.1727776
2.1727708
2.1770906
2.1673425
2.1670457
2.1699252
2.16788
2.1782628
2.1729491
2.1727776
2.1725794
2.1725523
2.1768292
2.1670287
2.1667804
2.1699557
2.1681027
2.1785007
2.1730385
2.1727708
2.1725523
2.1725191
2.1768037
2.1670711
2.1672193
2.1707982
2.1706389
2.1825629
2.1774846
2.1770906
2.1768292
2.1768037
2.1812036
2.171896
2.1727934
2.166773
2.1593768
2.1714525
2.1677992
2.1673425
2.1670287
2.1670711
2.171896
2.1635485
2.1534866
2.1709325
2.1629094
2.168901
2.1673484
2.1670457
2.1667804
2.1672193
2.1727934
2.1534866
2.170677
0.37016236
0.35482744
0.3742244
0.36751521
0.36714696
0.36718818
0.36729422
0.36816463
0.36422184
0.36813393
0.35482744
0.36316252
0.37088393
0.36540539
0.36518071
0.3651894
0.36555133
0.36804055
0.3570639
0.36036704
0.3742244
0.37088393
0.38068479
0.37545885
0.37522704
0.37517817
0.375598
0.37956511
0.3687108
0.36614214
0.36751521
0.36540539
0.37545885
0.37026219
0.37002244
0.36992143
0.37022894
0.37460244
0.36513584
0.36461097
0.36714696
0.36518071
0.37522704
0.37002244
0.36978124
0.36966348
0.36988921
0.37416414
0.3646653
0.36432074
0.36718818
0.3651894
0.37517817
0.36992143
0.36966348
0.36954339
0.36975087
0.37398907
0.36444629
0.36414877
0.36729422
0.36555133
0.375598
0.37022894
0.36988921
0.36975087
0.36995284
0.37419787
0.36471464
0.36474554
0.36816463
0.36804055
0.37956511
0.37460244
0.37416414
0.37398907
0.37419787
0.37854379
0.36942419
0.36998307
0.36422184
0.3570639
0.3687108
0.36513584
0.3646653
0.36444629
0.36471464
0.36942419
0.36106082
0.35117506
0.36813393
0.36036704
0.36614214
0.36461097
0.36432074
0.36414877
0.36474554
0.36998307
0.35117506
0.36787431
-0.98498695
-0.99977766
-0.98104872
-0.98761877
-0.98807791
-0.98802845
-0.98784721
-0.98693462
-0.99076072
-0.98703772
-0.99977766
-0.99170676
-0.9843442
-0.98978597
-0.99009259
-0.99003891
-0.9895422
-0.98706644
-0.99770709
-0.99456472
-0.98104872
-0.9843442
-0.97498839
-0.98016885
-0.98047415
-0.98046276
-0.97987193
-0.97596102
-0.98649478
-0.98900841
-0.98761877
-0.98978597
-0.98016885
-0.98531591
-0.98562673
-0.9856591
-0.98515015
-0.98081529
-0.98999546
-0.9905169
-0.98807791
-0.99009259
-0.98047415
-0.98562673
-0.98593887
-0.98598635
-0.98554714
-0.98128769
-0.99047493
-0.9907945
-0.98802845
-0.99003891
-0.98046276
-0.9856591
-0.98598635
-0.98603641
-0.9856134
-0.98138499
-0.99060817
-0.99088149
-0.98784721
-0.9895422
-0.97987193
-0.98515015
-0.98554714
-0.9856134
-0.98519475
-0.98095884
-0.99012793
-0.99013371
-0.98693462
-0.98706644
-0.97596102
-0.98081529
-0.98128769
-0.98138499
-0.98095884
-0.97663279
-0.9854922
-0.9851842
-0.99076072
-0.99770709
-0.98649478
-0.98999546
-0.99047493
-0.99060817
-0.99012793
-0.9854922
-0.99379203
-1.0034553
-0.98703772
-0.99456472
-0.98900841
-0.9905169
-0.9907945
-0.99088149
-0.99013371
-0.9851842
-1.0034553
-0.98724845
-1.9805264
-1.9948008
-1.9767693
-1.9832005
-1.9837291
-1.9836703
-1.9834203
-1.9824603
-1.9861468
-1.9825711
-1.9948008
-1.9870515
-1.9800612
-1.9854487
-1.9858178
-1.9857239
-1.9851062
-1.9826245
-1.9928949
-1.989866
-1.9767693
-1.9800612
-1.9711538
-1.9762743
-1.9766358
-1.9765722
-1.9758311
-1.9719534
-1.9821221
-1.9845308
-1.9832005
-1.9854487
-1.9762743
-1.9813584
-1.9817237
-1.9816973
-1.9810133
-1.9766993
-1.9855475
-1.9860136
-1.9837291
-1.9858178
-1.9766358
-1.9817237
-1.9820904
-1.982078
-1.9814539
-1.9771966
-1.9860316
-1.9862791
-1.9836703
-1.9857239
-1.9765722
-1.9816973
-1.982078
-1.9820685
-1.9814588
-1.9772275
-1.9860913
-1.9862927
-1.9834203
-1.9851062
-1.9758311
-1.9810133
-1.9814539
-1.9814588
-1.980852
-1.9766117
-1.9854247
-1.9854105
-1.9824603
-1.9826245
-1.9719534
-1.9766993
-1.9771966
-1.9772275
-1.9766117
-1.9722888
-1.9808372
-1.9807023
-1.9861468
-1.9928949
-1.9821221
-1.9855475
-1.9860316
-1.9860913
-1.9854247
-1.9808372
-1.9890024
-1.9984156
-1.9825711
-1.989866
-1.9845308
-1.9860136
-1.9862791
-1.9862927
-1.9854105
-1.9807023
-1.9984156
-1.9826983
-2.6894209
-2.7031877
-2.6858797
-2.6921643
-2.6927432
-2.6926755
-2.692366
-2.6913596
-2.6948917
-2.691436
-2.7031877
-2.695798
-2.6891858
-2.6944975
-2.6949122
-2.6947841
-2.6940637
-2.6915676
-2.7014446
-2.6984998
-2.6858797
-2.6891858
-2.6807266
-2.6857686
-2.6861709
-2.686064
-2.6851976
-2.6813431
-2.6911163
-2.6933881
-2.6921643
-2.6944975
-2.6857686
-2.6907723
-2.6911773
-2.6911025
-2.6902734
-2.6859753
-2.6944617
-2.6948411
-2.6927432
-2.6949122
-2.6861709
-2.6911773
-2.6915841
-2.6915225
-2.6907454
-2.686489
-2.6949466
-2.6950952
-2.6926755
-2.6947841
-2.686064
-2.6911025
-2.6915225
-2.6914641
-2.6907
-2.6864653
-2.6949455
-2.695048
-2.692366
-2.6940637
-2.6851976
-2.6902734
-2.6907454
-2.6907
-2.6899375
-2.685692
-2.6941229
-2.6940526
-2.6913596
-2.6915676
-2.6813431
-2.6859753
-2.686489
-2.6864653
-2.685692
-2.6813691
-2.689572
-2.6895464
-2.6948917
-2.7014446
-2.6911163
-2.6944617
-2.6949466
-2.6949455
-2.6941229
-2.689572
-2.6975423
-2.7066885
-2.691436
-2.6984998
-2.6933881
-2.6948411
-2.6950952
-2.695048
-2.6940526
-2.6895464
-2.7066885
-2.6914602
-3.1713045
-3.184559
-3.1679971
-3.1741224
-3.174735
-3.1746594
-3.1743011
-3.1732535
-3.1766222
-3.1732708
-3.184559
-3.1775525
-3.1713188
-3.1765315
-3.1769773
-3.1768216
-3.1760183
-3.1735077
-3.1829756
-3.1800991
-3.1679971
-3.1713188
-3.1633052
-3.1682484
-3.1686785
-3.168537
-3.1675713
-3.1637396
-3.173097
-3.1752137
-3.1741224
-3.1765315
-3.1682484
-3.1731522
-3.1735842
-3.1734709
-3.1725272
-3.1682494
-3.1763553
-3.1766321
-3.174735
-3.1769773
-3.1686785
-3.1735842
-3.1740184
-3.1739178
-3.1730198
-3.1687719
-3.1768374
-3.1768754
-3.1746594
-3.1768216
-3.168537
-3.1734709
-3.1739178
-3.1738209
-3.1729345
-3.1687049
-3.1767876
-3.1767794
-3.1743011
-3.1760183
-3.1675713
-3.1725272
-3.1730198
-3.1729345
-3.1720485
-3.1678063
-3.1758405
-3.175694
-3.1732535
-3.1735077
-3.1637396
-3.1682494
-3.1687719
-3.1687049
-3.1678063
-3.1634901
-3.1713253
-3.1713596
-3.1766222
-3.1829756
-3.173097
-3.1763553
-3.1768374
-3.1767876
-3.1758405
-3.1713253
-3.1790514
-3.1879191
-3.1732708
-3.1800991
-3.1752137
-3.1766321
-3.1768754
-3.1767794
-3.175694
-3.1713596
-3.1879191
-3.1731839
-3.4744855
-3.4872143
-3.4714185
-3.4773687
-3.4780009
-3.4779188
-3.4775223
-3.4764413
-3.4796418
-3.4763877
-3.4872143
-3.4806042
-3.4747459
-3.4798363
-3.480301
-3.4801239
-3.4792574
-3.4767382
-3.4857866
-3.4829727
-3.4714185
-3.4747459
-3.467174
-3.4719977
-3.4724446
-3.4722766
-3.4712366
-3.4674344
-3.4763632
-3.4783166
-3.4773687
-3.4798363
-3.4719977
-3.4767814
-3.4772298
-3.4770871
-3.4760573
-3.4718109
-3.4795258
-3.4796951
-3.4780009
-3.480301
-3.4724446
-3.4772298
-3.4776806
-3.4775503
-3.4765612
-3.4723357
-3.4800016
-3.4799281
-3.4779188
-3.4801239
-3.4722766
-3.4770871
-3.4775503
-3.477424
-3.4764455
-3.4722353
-3.4799142
-3.4797944
-3.4775223
-3.4792574
-3.4712366
-3.4760573
-3.4765612
-3.4764455
-3.4754664
-3.4712419
-3.4788725
-3.4786416
-3.4764413
-3.4767382
-3.4674344
-3.4718109
-3.4723357
-3.4722353
-3.4712419
-3.4669458
-3.4744001
-3.474458
-3.4796418
-3.4857866
-3.4763632
-3.4795258
-3.4800016
-3.4799142
-3.4788725
-3.4744001
-3.4818431
-3.4904234
-3.4763877
-3.4829727
-3.4783166
-3.4796951
-3.4799281
-3.4797944
-3.4786416
-3.474458
-3.4904234
-3.4761903
-3.6378795
-3.6500643
-3.6350516
-3.6408093
-3.6414493
-3.6413624
-3.6409377
-3.6398326
-3.6428629
-3.6397054
-3.6500643
-3.6438564
-3.6383677
-3.6433133
-3.6437867
-3.6435942
-3.6426829
-3.6401649
-3.648787
-3.646037
-3.6350516
-3.6383677
-3.631233
-3.6359166
-3.6363711
-3.636184
-3.6350928
-3.6313315
-3.6398241
-3.641613
-3.6408093
-3.6433133
-3.6359166
-3.6405606
-3.6410163
-3.6408522
-3.6397625
-3.6355628
-3.6428817
-3.6429466
-3.6414493
-3.6437867
-3.6363711
-3.6410163
-3.6414748
-3.6413228
-3.6402697
-3.636084
-3.6433482
-3.6431695
-3.6413624
-3.6435942
-3.636184
-3.6408522
-3.6413228
-3.6411751
-3.6401319
-3.635959
-3.6432327
-3.6430077
-3.6409377
-3.6426829
-3.6350928
-3.6397625
-3.6402697
-3.6401319
-3.639087
-3.6348984
-3.6421238
-3.6418091
-3.6398326
-3.6401649
-3.6313315
-3.6355628
-3.636084
-3.635959
-3.6348984
-3.63064
-3.6377066
-3.637763
-3.6428629
-3.648787
-3.6398241
-3.6428817
-3.6433482
-3.6432327
-3.6421238
-3.6377066
-3.6448372
-3.6531219
-3.6397054
-3.646037
-3.641613
-3.6429466
-3.6431695
-3.6430077
-3.6418091
-3.637763
-3.6531219
-3.6394036
-3.6927146
-3.704335
-3.6901194
-3.6956669
-3.6963047
-3.6962146
-3.6957709
-3.6946515
-3.6975118
-3.6944545
-3.704335
-3.6985298
-3.6934032
-3.6981828
-3.6986568
-3.6984539
-3.6975146
-3.6950099
-3.7032018
-3.7005215
-3.6901194
-3.6934032
-3.6867003
-3.6912247
-3.6916792
-3.6914794
-3.6903575
-3.6866516
-3.6947042
-3.6963322
-3.6956669
-3.6981828
-3.6912247
-3.6957101
-3.6961657
-3.6959871
-3.6948605
-3.6907252
-3.6976473
-3.6976158
-3.6963047
-3.6986568
-3.6916792
-3.6961657
-3.6966244
-3.6964576
-3.6953644
-3.6912379
-3.6981017
-3.6978287
-3.6962146
-3.6984539
-3.6914794
-3.6959871
-3.6964576
-3.6962954
-3.6952113
-3.6910957
-3.6979661
-3.6976472
-3.6957709
-3.6975146
-3.6903575
-3.6948605
-3.6953644
-3.6952113
-3.6941248
-3.6899923
-3.6968144
-3.6964221
-3.6946515
-3.6950099
-3.6866516
-3.6907252
-3.6912379
-3.6910957
-3.6899923
-3.6857913
-3.6924683
-3.692507
-3.6975118
-3.7032018
-3.6947042
-3.6976473
-3.6981017
-3.6979661
-3.6968144
-3.6924683
-3.699265
-3.7072463
-3.6944545
-3.7005215
-3.6963322
-3.6976158
-3.6978287
-3.6976472
-3.6964221
-3.692507
-3.7072463
-3.6940582
-3.6639726
-3.6750079
-3.6616002
-3.6669204
-3.6675478
-3.667456
-3.6670015
-3.6658776
-3.6685693
-3.6656185
-3.6750079
-3.6696023
-3.6648293
-3.6694234
-3.6698911
-3.6696824
-3.66873
-3.666252
-3.6740117
-3.6714096
-3.6616002
-3.6648293
-3.6585522
-3.6628997
-3.663348
-3.6631408
-3.6620063
-3.6583715
-3.6659833
-3.6674571
-3.6669204
-3.6694234
-3.6628997
-3.6672092
-3.6676586
-3.6674712
-3.6663277
-3.6622756
-3.6688028
-3.6686862
-3.6675478
-3.6698911
-3.663348
-3.6676586
-3.6681112
-3.6679354
-3.6668226
-3.6627754
-3.6692426
-3.6688889
-3.667456
-3.6696824
-3.6631408
-3.6674712
-3.6679354
-3.6677643
-3.66666
-3.6626221
-3.6690937
-3.6686946
-3.6670015
-3.66873
-3.6620063
-3.6663277
-3.6668226
-3.66666
-3.6655528
-3.6614971
-3.6679203
-3.6674603
-3.6658776
-3.666252
-3.6583715
-3.6622756
-3.6627754
-3.6626221
-3.6614971
-3.6573741
-3.6636628
-3.6636747
-3.6685693
-3.6740117
-3.6659833
-3.6688028
-3.6692426
-3.6690937
-3.6679203
-3.6636628
-3.6701108
-3.677781
-3.6656185
-3.6714096
-3.6674571
-3.6686862
-3.6688889
-3.6686946
-3.6674603
-3.6636747
-3.677781
-3.6651396
-3.5715797
-3.5820106
-3.5694189
-3.5744955
-3.5751057
-3.5750135
-3.5745552
-3.5734365
-3.5759618
-3.5731254
-3.5820106
-3.576999
-3.5725704
-3.5769614
-3.5774174
-3.5772068
-3.5762542
-3.5738166
-3.5811438
-3.5786297
-3.5694189
-3.5725704
-3.5667127
-3.5708673
-3.5713043
-3.5710943
-3.5699627
-3.5664154
-3.5735876
-3.5749157
-3.5744955
-3.5769614
-3.5708673
-3.5749853
-3.5754234
-3.575232
-3.5740887
-3.5701385
-3.5762749
-3.5760859
-3.5751057
-3.5774174
-3.5713043
-3.5754234
-3.5758649
-3.5756848
-3.5745699
-3.5706218
-3.5766978
-3.5762783
-3.5750135
-3.5772068
-3.5710943
-3.575232
-3.5756848
-3.5755094
-3.5744025
-3.5704625
-3.5765411
-3.5760769
-3.5745552
-3.5762542
-3.5699627
-3.5740887
-3.5745699
-3.5744025
-3.5732922
-3.5693339
-3.5753643
-3.5748486
-3.5734365
-3.5738166
-3.5664154
-3.5701385
-3.5706218
-3.5704625
-3.5693339
-3.5653092
-3.5712136
-3.5711946
-3.5759618
-3.5811438
-3.5735876
-3.5762749
-3.5766978
-3.5765411
-3.5753643
-3.5712136
-3.5773035
-3.5846548
-3.5731254
-3.5786297
-3.5749157
-3.5760859
-3.5762783
-3.5760769
-3.5748486
-3.5711946
-3.5846548
-3.5725768
-3.4313799
-3.4411892
-3.4294184
-3.4342366
-3.4348243
-3.4347329
-3.4342769
-3.4331721
-3.4355341
-3.4328205
-3.4411892
-3.4365645
-3.4324704
-3.4366432
-3.4370829
-3.4368736
-3.4359321
-3.4335484
-3.440444
-3.438028
-3.4294184
-3.4324704
-3.4270254
-3.4309731
-3.4313946
-3.4311855
-3.4300701
-3.4266263
-3.4333619
-3.4345536
-3.4342366
-3.4366432
-3.4309731
-3.4348857
-3.4353084
-3.4351169
-3.4339883
-3.4301581
-3.4359092
-3.4356611
-3.4348243
-3.4370829
-3.4313946
-3.4353084
-3.4357347
-3.4355542
-3.4344519
-3.4306219
-3.4363133
-3.435843
-3.4347329
-3.4368736
-3.4311855
-3.4351169
-3.4355542
-3.4353784
-3.4342836
-3.4304606
-3.4361531
-3.4356392
-3.4342769
-3.4359321
-3.4300701
-3.4339883
-3.4344519
-3.4342836
-3.4331852
-3.4293434
-3.4349884
-3.4344298
-3.4331721
-3.4335484
-3.4266263
-3.4301581
-3.4306219
-3.4304606
-3.4293434
-3.4254367
-3.4309624
-3.4309123
-3.4355341
-3.440444
-3.4333619
-3.4359092
-3.4363133
-3.4361531
-3.4349884
-3.4309624
-3.4366892
-3.4437141
-3.4328205
-3.438028
-3.4345536
-3.4356611
-3.435843
-3.4356392
-3.4344298
-3.4309123
-3.4437141
-3.4322151
-3.2559241
-3.2650975
-3.2541497
-3.2586964
-3.2592572
-3.2591675
-3.258719
-3.2576363
-3.2598383
-3.2572559
-3.2650975
-3.2608517
-3.257082
-3.2610233
-3.2614433
-3.2612381
-3.2603171
-3.258
-3.2644662
-3.2621579
-3.2541497
-3.257082
-3.2520425
-3.255771
-3.2561739
-3.2559687
-3.2548806
-3.2515555
-3.2578589
-3.2589237
-3.2586964
-3.2610233
-3.255771
-3.2594664
-3.2598705
-3.2596821
-3.25858
-3.2548868
-3.2602592
-3.2599651
-3.2592572
-3.2614433
-3.2561739
-3.2598705
-3.2602781
-3.2601003
-3.2590229
-3.2553285
-3.2606427
-3.2601362
-3.2591675
-3.2612381
-3.2559687
-3.2596821
-3.2601003
-3.2599272
-3.2588568
-3.2551685
-3.2604828
-3.2599339
-3.258719
-3.2603171
-3.2548806
-3.25858
-3.2590229
-3.2588568
-3.2577826
-3.2540755
-3.2593429
-3.2587544
-3.2576363
-3.258
-3.2515555
-3.2548868
-3.2553285
-3.2551685
-3.2540755
-3.2503049
-3.2554588
-3.2553797
-3.2598383
-3.2644662
-3.2578589
-3.2602592
-3.2606427
-3.2604828
-3.2593429
-3.2554588
-3.2608209
-3.2675123
-3.2572559
-3.2621579
-3.2589237
-3.2599651
-3.2601362
-3.2599339
-3.2587544
-3.2553797
-3.2675123
-3.2566065
-3.0551084
-3.0636345
-3.0535095
-3.0577733
-3.0583037
-3.0582165
-3.0577798
-3.0567266
-3.0587724
-3.056329
-3.0636345
-3.0597594
-3.0563038
-3.0600025
-3.0604001
-3.0602011
-3.0593086
-3.05707
-3.0631099
-3.0609184
-3.0535095
-3.0563038
-3.0516624
-3.0551615
-3.0555431
-3.0553443
-3.0542929
-3.0511005
-3.0569771
-3.0579241
-3.0577733
-3.0600025
-3.0551615
-3.0586295
-3.0590124
-3.0588295
-3.0577641
-3.0542233
-3.0592243
-3.0588966
-3.0583037
-3.0604001
-3.0555431
-3.0590124
-3.0593988
-3.0592261
-3.0581837
-3.0546408
-3.0595859
-3.0590566
-3.0582165
-3.0602011
-3.0553443
-3.0588295
-3.0592261
-3.059058
-3.0580222
-3.0544846
-3.0594289
-3.0588587
-3.0577798
-3.0593086
-3.0542929
-3.0577641
-3.0581837
-3.0580222
-3.0569824
-3.0534262
-3.0583246
-3.0577185
-3.0567266
-3.05707
-3.0511005
-3.0542233
-3.0546408
-3.0544846
-3.0534262
-3.0498082
-3.0545981
-3.0544937
-3.0587724
-3.0631099
-3.0569771
-3.0592243
-3.0595859
-3.0594289
-3.0583246
-3.0545981
-3.0595969
-3.065948
-3.056329
-3.0609184
-3.0579241
-3.0588966
-3.0590566
-3.0588587
-3.0577185
-3.0544937
-3.065948
-3.0556473
-2.8366893
-2.8445601
-2.8352551
-2.8392264
-2.8397235
-2.8396397
-2.8392185
-2.8382012
-2.8400945
-2.8377973
-2.8445601
-2.8410472
-2.8378956
-2.8413425
-2.8417155
-2.8415245
-2.8406673
-2.838518
-2.8441356
-2.8420684
-2.8352551
-2.8378956
-2.8336444
-2.8369056
-2.8372639
-2.8370735
-2.8360664
-2.8330194
-2.8384755
-2.8393133
-2.8392264
-2.8413425
-2.8369056
-2.8401379
-2.8404975
-2.8403222
-2.8393016
-2.835927
-2.8405645
-2.8402145
-2.8397235
-2.8417155
-2.8372639
-2.8404975
-2.8408607
-2.8406951
-2.8396959
-2.8363186
-2.8409029
-2.8403631
-2.8396397
-2.8415245
-2.8370735
-2.8403222
-2.8406951
-2.8405339
-2.8395409
-2.8361683
-2.8407511
-2.840172
-2.8392185
-2.8406673
-2.8360664
-2.8393016
-2.8396959
-2.8395409
-2.8385439
-2.8351529
-2.8396911
-2.8390789
-2.8382012
-2.838518
-2.8330194
-2.835927
-2.8363186
-2.8361683
-2.8351529
-2.8317022
-2.8361367
-2.8360114
-2.8400945
-2.8441356
-2.8384755
-2.8405645
-2.8409029
-2.8407511
-2.8396911
-2.8361367
-2.8407754
-2.8467801
-2.8377973
-2.8420684
-2.8393133
-2.8402145
-2.8403631
-2.840172
-2.8390789
-2.8360114
-2.8467801
-2.8370939
-2.6066993
-2.6139096
-2.6054198
-2.6090906
-2.6095526
-2.6094726
-2.6090698
-2.6080943
-2.6098391
-2.6076941
-2.6139096
-2.6107508
-2.607893
-2.6110806
-2.6114275
-2.6112461
-2.6104295
-2.6083791
-2.6135792
-2.6116426
-2.6054198
-2.607893
-2.604024
-2.6070405
-2.607374
-2.6071936
-2.6062369
-2.6033467
-2.6083891
-2.6091255
-2.6090906
-2.6110806
-2.6070405
-2.6100303
-2.6103652
-2.610199
-2.6092296
-2.6060335
-2.6103158
-2.6099533
-2.6095526
-2.6114275
-2.607374
-2.6103652
-2.6107034
-2.6105465
-2.6095971
-2.6063979
-2.61063
-2.6100903
-2.6094726
-2.6112461
-2.6071936
-2.610199
-2.6105465
-2.6103937
-2.6094501
-2.6062549
-2.6104851
-2.6099079
-2.6090698
-2.6104295
-2.6062369
-2.6092296
-2.6095971
-2.6094501
-2.6085025
-2.6052895
-2.6094765
-2.6088683
-2.6080943
-2.6083791
-2.6033467
-2.6060335
-2.6063979
-2.6062549
-2.6052895
-2.602019
-2.6061067
-2.6059654
-2.6098391
-2.6135792
-2.6083891
-2.6103158
-2.61063
-2.6104851
-2.6094765
-2.6061067
-2.6103905
-2.6160434
-2.6076941
-2.6116426
-2.6091255
-2.6099533
-2.6100903
-2.6099079
-2.6088683
-2.6059654
-2.6160434
-2.6069785
-2.3697818
-2.3763295
-2.3686485
-2.3720124
-2.3724375
-2.3723619
-2.37198
-2.3710512
-2.3726514
-2.3706637
-2.3763295
-2.3735171
-2.370943
-2.3738656
-2.3741852
-2.3740145
-2.373243
-2.3712999
-2.3760879
-2.3742869
-2.3686485
-2.370943
-2.3674481
-2.3702145
-2.370522
-2.3703527
-2.3694516
-2.3667279
-2.3713641
-2.372006
-2.3720124
-2.3738656
-2.3702145
-2.3729564
-2.3732654
-2.3731095
-2.3721967
-2.3691894
-2.3731251
-2.3727589
-2.3724375
-2.3741852
-2.370522
-2.3732654
-2.3735776
-2.3734304
-2.3725361
-2.3695255
-2.3734142
-2.372884
-2.3723619
-2.3740145
-2.3703527
-2.3731095
-2.3734304
-2.3732872
-2.3723983
-2.3693911
-2.3732775
-2.3727116
-2.37198
-2.373243
-2.3694516
-2.3721967