/*--------------------------------*- C++ -*----------------------------------*\
| =========                 |                                                 |
| \\      /  F ield         | OpenFOAM: The Open Source CFD Toolbox           |
|  \\    /   O peration     | Version:  v2106                                 |
|   \\  /    A nd           | Website:  www.openfoam.com                      |
|    \\/     M anipulation  |                                                 |
\*---------------------------------------------------------------------------*/
FoamFile
{
    version     2.0;
    format      ascii;
    arch        "LSB;label=32;scalar=64";
    class       volScalarField;
    location    "100";
    object      Tmode_lapla2;
}
// * * * * * * * * * * * * * * * * * * * * * * * * * * * * * * * * * * * * * //

dimensions      [0 -2 0 0 0 0 0];

internalField   nonuniform List<scalar> 
4000
(
258.57694
258.57688
258.5756
258.57676
258.57629
258.5763
258.57638
258.57647
258.57654
258.57656
258.57688
258.57479
258.57594
258.57607
258.57566
258.57571
258.5758
258.5759
258.57595
258.57609
258.5756
258.57594
258.57568
258.57598
258.57563
258.57568
258.57578
258.57589
258.57588
258.57607
258.57676
258.57607
258.57598
258.57635
258.576
258.57605
258.57616
258.5763
258.57628
258.57623
258.57629
258.57566
258.57563
258.576
258.57566
258.57569
258.5758
258.57596
258.57601
258.57608
258.5763
258.57571
258.57568
258.57605
258.57569
258.57572
258.57581
258.57596
258.57601
258.57608
258.57638
258.5758
258.57578
258.57616
258.5758
258.57581
258.5759
258.57605
258.57609
258.57616
258.57647
258.5759
258.57589
258.5763
258.57596
258.57596
258.57605
258.5762
258.57624
258.57631
258.57654
258.57595
258.57588
258.57628
258.57601
258.57601
258.57609
258.57624
258.57628
258.57635
258.57656
258.57609
258.57607
258.57623
258.57608
258.57608
258.57616
258.57631
258.57635
258.57638
38.207112
38.205252
38.203158
38.207112
38.20577
38.205536
38.205576
38.205612
38.205527
38.205368
38.205252
38.203158
38.204904
38.206429
38.205224
38.205105
38.205186
38.205217
38.205197
38.205655
38.203158
38.204904
38.20419
38.205964
38.204877
38.204783
38.204863
38.20473
38.204369
38.205185
38.207112
38.206429
38.205964
38.207837
38.206776
38.206706
38.206862
38.206768
38.205992
38.205822
38.20577
38.205224
38.204877
38.206776
38.205711
38.205635
38.205834
38.205918
38.205449
38.205582
38.205536
38.205105
38.204783
38.206706
38.205635
38.205535
38.205712
38.205787
38.205347
38.205549
38.205576
38.205186
38.204863
38.206862
38.205834
38.205712
38.20587
38.205932
38.20548
38.205671
38.205612
38.205217
38.20473
38.206768
38.205918
38.205787
38.205932
38.205986
38.205523
38.205666
38.205527
38.205197
38.204369
38.205992
38.205449
38.205347
38.20548
38.205523
38.205029
38.205083
38.205368
38.205655
38.205185
38.205822
38.205582
38.205549
38.205671
38.205666
38.205083
38.205415
27.923853
27.923634
27.922436
27.925949
27.924383
27.924154
27.924236
27.924286
27.924134
27.923324
27.923634
27.92192
27.924128
27.925288
27.923916
27.923831
27.923943
27.923803
27.924238
27.924784
27.922436
27.924128
27.924104
27.925545
27.9243
27.924271
27.924432
27.923862
27.923338
27.924064
27.925949
27.925288
27.925545
27.927083
27.925859
27.92587
27.92621
27.925826
27.924904
27.924628
27.924383
27.923916
27.9243
27.925859
27.924615
27.924606
27.925001
27.924855
27.924311
27.924389
27.924154
27.923831
27.924271
27.92587
27.924606
27.924554
27.924915
27.92476
27.924256
27.924421
27.924236
27.923943
27.924432
27.92621
27.925001
27.924915
27.925249
27.925076
27.924558
27.924682
27.924286
27.923803
27.923862
27.925826
27.924855
27.92476
27.925076
27.924891
27.924344
27.924287
27.924134
27.924238
27.923338
27.924904
27.924311
27.924256
27.924558
27.924344
27.923689
27.923585
27.923324
27.924784
27.924064
27.924628
27.924389
27.924421
27.924682
27.924287
27.923585
27.924201
19.571224
19.572077
19.570747
19.57397
19.572412
19.572208
19.572317
19.572336
19.572494
19.571344
19.572077
19.570723
19.572729
19.573743
19.572388
19.572359
19.572502
19.571871
19.572516
19.57303
19.570747
19.572729
19.572673
19.573943
19.572706
19.572767
19.573076
19.571965
19.571473
19.572267
19.57397
19.573743
19.573943
19.575295
19.574069
19.574172
19.574727
19.573878
19.572985
19.572796
19.572412
19.572388
19.572706
19.574069
19.57281
19.57288
19.573494
19.572907
19.572407
19.572576
19.572208
19.572359
19.572767
19.574172
19.57288
19.572897
19.57347
19.572878
19.572427
19.572691
19.572317
19.572502
19.573076
19.574727
19.573494
19.57347
19.574016
19.573407
19.572943
19.573112
19.572336
19.571871
19.571965
19.573878
19.572907
19.572878
19.573407
19.572781
19.572248
19.572014
19.572494
19.572516
19.571473
19.572985
19.572407
19.572427
19.572943
19.572248
19.571465
19.571896
19.571344
19.57303
19.572267
19.572796
19.572576
19.572691
19.573112
19.572014
19.571896
19.57214
13.173312
13.174055
13.172616
13.175717
13.17426
13.174079
13.174202
13.174035
13.174108
13.172764
13.174055
13.172649
13.174522
13.175539
13.174261
13.174297
13.174552
13.173503
13.173994
13.174401
13.172616
13.174522
13.174419
13.175645
13.174472
13.174618
13.175138
13.173616
13.172955
13.173693
13.175717
13.175539
13.175645
13.176934
13.175759
13.17594
13.176733
13.175491
13.174421
13.174204
13.17426
13.174261
13.174472
13.175759
13.174543
13.174681
13.175534
13.174557
13.17387
13.174003
13.174079
13.174297
13.174618
13.17594
13.174681
13.174762
13.175576
13.174602
13.173974
13.174208
13.174202
13.174552
13.175138
13.176733
13.175534
13.175576
13.176367
13.175384
13.174745
13.174813
13.174035
13.173503
13.173616
13.175491
13.174557
13.174602
13.175384
13.174376
13.173598
13.172902
13.174108
13.173994
13.172955
13.174421
13.17387
13.173974
13.174745
13.173598
13.172264
13.173424
13.172764
13.174401
13.173693
13.174204
13.174003
13.174208
13.174813
13.172902
13.173424
13.173396
8.3666062
8.3667591
8.3655115
8.3685719
8.3672201
8.367058
8.3672376
8.3669895
8.3669229
8.365543
8.3667591
8.3651625
8.3671376
8.3681985
8.3669822
8.3670609
8.3674904
8.3663255
8.3666867
8.367098
8.3655115
8.3671376
8.3671805
8.3684059
8.3672747
8.3674522
8.3681793
8.3665307
8.3657581
8.3664789
8.3685719
8.3681985
8.3684059
8.3696829
8.3685445
8.3687478
8.3697508
8.3683666
8.3671797
8.3669714
8.3672201
8.3669822
8.3672747
8.3685445
8.3673638
8.3675239
8.3685887
8.3674632
8.3666417
8.3667765
8.367058
8.3670609
8.3674522
8.3687478
8.3675239
8.3676296
8.3686617
8.3675504
8.3668036
8.367057
8.3672376
8.3674904
8.3681793
8.3697508
8.3685887
8.3686617
8.3696801
8.3685726
8.3678254
8.3678519
8.3669895
8.3663255
8.3665307
8.3683666
8.3674632
8.3675504
8.3685726
8.3674418
8.3664847
8.3653262
8.3669229
8.3666867
8.3657581
8.3671797
8.3666417
8.3668036
8.3678254
8.3664847
8.3645748
8.3662506
8.365543
8.367098
8.3664789
8.3669714
8.3667765
8.367057
8.3678519
8.3653262
8.3662506
8.3661247
4.7738248
4.7738035
4.7728139
4.7758306
4.7745484
4.7743805
4.7746227
4.7744109
4.7742988
4.7730144
4.7738035
4.7723414
4.774452
4.7755267
4.7743227
4.7743709
4.7748934
4.7737478
4.7740318
4.7745042
4.7728139
4.774452
4.7746649
4.7758748
4.774748
4.7748853
4.7757038
4.7740622
4.7732415
4.77397
4.7758306
4.7755267
4.7758748
4.7771342
4.7760029
4.7761643
4.7772533
4.7758512
4.7746164
4.7744424
4.7745484
4.7743227
4.774748
4.7760029
4.7748354
4.7749589
4.7761146
4.7749635
4.7740785
4.774243
4.7743805
4.7743709
4.7748853
4.7761643
4.7749589
4.7750348
4.7761672
4.775043
4.7742493
4.7745599
4.7746227
4.7748934
4.7757038
4.7772533
4.7761146
4.7761672
4.7772971
4.7761946
4.7754229
4.7754875
4.7744109
4.7737478
4.7740622
4.7758512
4.7749635
4.775043
4.7761946
4.7750836
4.7740643
4.7726121
4.7742988
4.7740318
4.7732415
4.7746164
4.7740785
4.7742493
4.7754229
4.7740643
4.7717551
4.7737036
4.7730144
4.7745042
4.77397
4.7744424
4.774243
4.7745599
4.7754875
4.7726121
4.7737036
4.77359
2.0991684
2.0991745
2.0983992
2.1013478
2.1000992
2.09989
2.1001289
2.0999251
2.0997598
2.098561
2.0991745
2.0979605
2.1001522
2.1012087
2.0999984
2.0999801
2.1004879
2.0993391
2.0995079
2.0999868
2.0983992
2.1001522
2.1004818
2.1016557
2.1005251
2.1005963
2.1013911
2.0997454
2.0988459
2.0995259
2.1013478
2.1012087
2.1016557
2.1028804
2.101752
2.1018522
2.1029112
2.1014825
2.100175
2.0999795
2.1000992
2.0999984
2.1005251
2.101752
2.1005956
2.100666
2.1017976
2.1006124
2.0996403
2.0997767
2.09989
2.0999801
2.1005963
2.1018522
2.100666
2.1006962
2.1018125
2.1006634
2.0997943
2.1000995
2.1001289
2.1004879
2.1013911
2.1029112
2.1017976
2.1018125
2.1029344
2.1018219
2.1009992
2.1010737
2.0999251
2.0993391
2.0997454
2.1014825
2.1006124
2.1006634
2.1018219
2.1007237
2.0996561
2.098047
2.0997598
2.0995079
2.0988459
2.100175
2.0996403
2.0997943
2.1009992
2.0996561
2.097109
2.0991438
2.098561
2.0999868
2.0995259
2.0999795
2.0997767
2.1000995
2.1010737
2.098047
2.0991438
2.099092
0.12423628
0.12428372
0.12368705
0.12654751
0.12532141
0.12507542
0.12528656
0.12506297
0.12482789
0.12367451
0.12428372
0.12329684
0.12552102
0.12653607
0.1253267
0.12526115
0.12572361
0.12455746
0.12459055
0.12502781
0.12368705
0.12552102
0.12592355
0.12704503
0.12592148
0.12595147
0.12669119
0.12503718
0.12404089
0.12463096
0.12654751
0.12653607
0.12704503
0.12821935
0.12710549
0.1271725
0.12817126
0.12671767
0.12532437
0.12506804
0.12532141
0.1253267
0.12592148
0.12710549
0.12597167
0.12601796
0.127095
0.1258785
0.12480756
0.1248726
0.12507542
0.12526115
0.12595147
0.1271725
0.12601796
0.12603068
0.12709782
0.12592099
0.12495521
0.12519438
0.12528656
0.12572361
0.12669119
0.12817126
0.127095
0.12709782
0.12817224
0.1270353
0.12612576
0.12615186
0.12506297
0.12455746
0.12503718
0.12671767
0.1258785
0.12592099
0.1270353
0.12592326
0.12478192
0.12309466
0.12482789
0.12459055
0.12404089
0.12532437
0.12480756
0.12495521
0.12612576
0.12478192
0.12210247
0.12410816
0.12367451
0.12502781
0.12463096
0.12506804
0.1248726
0.12519438
0.12615186
0.12309466
0.12410816
0.12413486
-1.3127928
-1.3127469
-1.3131822
-1.3104305
-1.3116374
-1.3119016
-1.3117103
-1.3119527
-1.3122516
-1.3133776
-1.3127469
-1.3135553
-1.3113313
-1.3103782
-1.3115777
-1.3116605
-1.311231
-1.3124015
-1.3124924
-1.3121053
-1.3131822
-1.3113313
-1.3108809
-1.3098276
-1.3109349
-1.3109144
-1.3102165
-1.31186
-1.3129424
-1.3124448
-1.3104305
-1.3103782
-1.3098276
-1.3087195
-1.3098104
-1.3097441
-1.3087908
-1.3102444
-1.3117084
-1.3120244
-1.3116374
-1.3115777
-1.3109349
-1.3098104
-1.3109142
-1.31086
-1.3098228
-1.3110439
-1.3121959
-1.3122022
-1.3119016
-1.3116605
-1.3109144
-1.3097441
-1.31086
-1.310833
-1.3098012
-1.3109815
-1.3120319
-1.3118743
-1.3117103
-1.311231
-1.3102165
-1.3087908
-1.3098228
-1.3098012
-1.3087633
-1.3099088
-1.3109087
-1.3109624
-1.3119527
-1.3124015
-1.31186
-1.3102444
-1.3110439
-1.3109815
-1.3099088
-1.3110348
-1.3122634
-1.3139838
-1.3122516
-1.3124924
-1.3129424
-1.3117084
-1.3121959
-1.3120319
-1.3109087
-1.3122634
-1.3150109
-1.3130914
-1.3133776
-1.3121053
-1.3124448
-1.3120244
-1.3122022
-1.3118743
-1.3109624
-1.3139838
-1.3130914
-1.3129823
-2.334879
-2.3348848
-2.3351663
-2.332543
-2.333732
-2.3339989
-2.3338134
-2.3340627
-2.3344095
-2.3355066
-2.3348848
-2.3355583
-2.3333569
-2.3324818
-2.3336652
-2.3337432
-2.3333257
-2.3344802
-2.3346724
-2.3343211
-2.3351663
-2.3333569
-2.3328716
-2.3318993
-2.3329853
-2.3329527
-2.332274
-2.3338833
-2.335031
-2.3346076
-2.332543
-2.3324818
-2.3318993
-2.3308707
-2.3319348
-2.3318484
-2.3309172
-2.3323424
-2.333853
-2.3342066
-2.333732
-2.3336652
-2.3329853
-2.3319348
-2.3330062
-2.3329245
-2.3319045
-2.3331003
-2.3343068
-2.3343613
-2.3339989
-2.3337432
-2.3329527
-2.3318484
-2.3329245
-2.3328642
-2.3318454
-2.3329997
-2.3341096
-2.3340184
-2.3338134
-2.3333257
-2.332274
-2.3309172
-2.3319045
-2.3318454
-2.3308218
-2.3319487
-2.333022
-2.3331563
-2.3340627
-2.3344802
-2.3338833
-2.3323424
-2.3331003
-2.3329997
-2.3319487
-2.333071
-2.3343821
-2.3361082
-2.3344095
-2.3346724
-2.335031
-2.333853
-2.3343068
-2.3341096
-2.333022
-2.3343821
-2.3371596
-2.3353467
-2.3355066
-2.3343211
-2.3346076
-2.3342066
-2.3343613
-2.3340184
-2.3331563
-2.3361082
-2.3353467
-2.3351553
-3.0375591
-3.0376553
-3.0377861
-3.035307
-3.036477
-3.036736
-3.0365445
-3.0367878
-3.0371666
-3.0382246
-3.0376553
-3.0382239
-3.0360607
-3.0352743
-3.0364359
-3.0364958
-3.0360727
-3.0371924
-3.0374647
-3.0371294
-3.0377861
-3.0360607
-3.0355469
-3.0346643
-3.0357248
-3.0356681
-3.0349894
-3.0365435
-3.0377365
-3.0373657
-3.035307
-3.0352743
-3.0346643
-3.0337243
-3.0347591
-3.0346423
-3.0337138
-3.0350866
-3.0366216
-3.0369874
-3.036477
-3.0364359
-3.0357248
-3.0347591
-3.0357969
-3.0356792
-3.0346584
-3.0358046
-3.037042
-3.037118
-3.036736
-3.0364958
-3.0356681
-3.0346423
-3.0356792
-3.0355781
-3.0345548
-3.0356587
-3.0368041
-3.0367546
-3.0365445
-3.0360727
-3.0349894
-3.0337138
-3.0346584
-3.0345548
-3.0335272
-3.0346107
-3.0357354
-3.0359346
-3.0367878
-3.0371924
-3.0365435
-3.0350866
-3.0358046
-3.0356587
-3.0346107
-3.0357068
-3.0370857
-3.0388003
-3.0371666
-3.0374647
-3.0377365
-3.0366216
-3.037042
-3.0368041
-3.0357354
-3.0370857
-3.0398709
-3.0381676
-3.0382246
-3.0371294
-3.0373657
-3.0369874
-3.037118
-3.0367546
-3.0359346
-3.0388003
-3.0381676
-3.0378948
-3.4957996
-3.4960082
-3.49599
-3.4936672
-3.494815
-3.4950591
-3.494854
-3.4950807
-3.4954788
-3.4964863
-3.4960082
-3.4964888
-3.4943749
-3.4936833
-3.4948179
-3.4948528
-3.4944125
-3.4954825
-3.495819
-3.4954836
-3.49599
-3.4943749
-3.4938356
-3.4930476
-3.4940791
-3.4939936
-3.4933021
-3.4947841
-3.4960067
-3.4956713
-3.4936672
-3.4936833
-3.4930476
-3.4922021
-3.4932053
-3.4930553
-3.4921171
-3.4934192
-3.4949612
-3.495319
-3.494815
-3.4948179
-3.4940791
-3.4932053
-3.4942087
-3.4940537
-3.4930212
-3.4941001
-3.495351
-3.4954271
-3.4950591
-3.4948528
-3.4939936
-3.4930553
-3.4940537
-3.4939116
-3.4928737
-3.4939096
-3.4950724
-3.4950421
-3.494854
-3.4944125
-3.4933021
-3.4921171
-3.4930212
-3.4928737
-3.4918317
-3.4928526
-3.4940089
-3.4942526
-3.4950807
-3.4954825
-3.4947841
-3.4934192
-3.4941001
-3.4939096
-3.4928526
-3.4939019
-3.4953306
-3.4970234
-3.4954788
-3.495819
-3.4960067
-3.4949612
-3.495351
-3.4950724
-3.4940089
-3.4953306
-3.4981099
-3.4965144
-3.4964863
-3.4954836
-3.4956713
-3.495319
-3.4954271
-3.4950421
-3.4942526
-3.4970234
-3.4965144
-3.496161
-3.7684007
-3.7687296
-3.7685652
-3.7664072
-3.7675289
-3.7677545
-3.7675323
-3.7677352
-3.7681434
-3.7690914
-3.7687296
-3.76913
-3.767074
-3.76648
-3.7675828
-3.7675911
-3.7671278
-3.7681374
-3.7685275
-3.7681824
-3.7685652
-3.767074
-3.766511
-3.76582
-3.7668195
-3.7667051
-3.7659947
-3.7673927
-3.7686334
-3.7683229
-3.7664072
-3.76648
-3.76582
-3.7650719
-3.7660417
-3.7658605
-3.7649073
-3.7661259
-3.7676624
-3.7679993
-3.7675289
-3.7675828
-3.7668195
-3.7660417
-3.76701
-3.7668209
-3.7657729
-3.7667725
-3.768025
-3.7680879
-3.7677545
-3.7675911
-3.7667051
-3.7658605
-3.7668209
-3.766642
-3.7655865
-3.7665427
-3.7677104
-3.7676833
-3.7675323
-3.7671278
-3.7659947
-3.7649073
-3.7657729
-3.7655865
-3.7645265
-3.7654718
-3.7666444
-3.7669139
-3.7677352
-3.7681374
-3.7673927
-3.7661259
-3.7667725
-3.7665427
-3.7654718
-3.7664579
-3.7679188
-3.7695834
-3.7681434
-3.7685275
-3.7686334
-3.7676624
-3.768025
-3.7677104
-3.7666444
-3.7679188
-3.7706825
-3.7691938
-3.7690914
-3.7681824
-3.7683229
-3.7679993
-3.7680879
-3.7676833
-3.7669139
-3.7695834
-3.7691938
-3.768761
-3.9012273
-3.9016748
-3.9013688
-3.8993813
-3.9004729
-3.9006787
-3.900439
-3.900614
-3.9010269
-3.9019094
-3.9016748
-3.901998
-3.9000069
-3.8995108
-3.9005781
-3.9005608
-3.9000738
-3.9010161
-3.9014533
-3.9010945
-3.9013688
-3.9000069
-3.8994218
-3.8988282
-3.8997931
-3.8996531
-3.898923
-3.9002286
-3.9014796
-3.9011893
-3.8993813
-3.8995108
-3.8988282
-3.8981785
-3.8991134
-3.8989054
-3.8979376
-3.8990644
-3.9005869
-3.9008964
-3.9004729
-3.9005781
-3.8997931
-3.8991134
-3.9000457
-3.8998281
-3.8987662
-3.8996794
-3.9009257
-3.9009689
-3.9006787
-3.9005608
-3.8996531
-3.8989054
-3.8998281
-3.8996189
-3.8985479
-3.8994176
-3.9005822
-3.9005488
-3.900439
-3.9000738
-3.898923
-3.8979376
-3.8987662
-3.8985479
-3.897472
-3.8983333
-3.8995112
-3.8997919
-3.900614
-3.9010161
-3.9002286
-3.8990644
-3.8996794
-3.8994176
-3.8983333
-3.8992446
-3.9007223
-3.9023541
-3.9010269
-3.9014533
-3.9014796
-3.9005869
-3.9009257
-3.9005822
-3.8995112
-3.9007223
-3.9034618
-3.9020812
-3.9019094
-3.9010945
-3.9011893
-3.9008964
-3.9009689
-3.9005488
-3.8997919
-3.9023541
-3.9020812
-3.9015709
-3.9298127
-3.9303715
-3.9299311
-3.9281169
-3.9291746
-3.9293607
-3.9291053
-3.9292507
-3.9296648
-3.9304787
-3.9303715
-3.9306191
-3.9286988
-3.9282988
-3.9293271
-3.9292871
-3.9287788
-3.9296495
-3.9301297
-3.9297577
-3.9299311
-3.9286988
-3.9280935
-3.9275958
-3.928524
-3.9283628
-3.9276158
-3.9288239
-3.9300794
-3.9298084
-3.9281169
-3.9282988
-3.9275958
-3.9270434
-3.9279419
-3.9277131
-3.9267345
-3.9277647
-3.9292672
-3.9295473
-3.9291746
-3.9293271
-3.928524
-3.9279419
-3.9288372
-3.9285979
-3.927527
-3.92835
-3.9295852
-3.9296071
-3.9293607
-3.9292871
-3.9283628
-3.9277131
-3.9285979
-3.9283654
-3.9272844
-3.9280643
-3.9292207
-3.9291766
-3.9291053
-3.9287788
-3.9276158
-3.9267345
-3.927527
-3.9272844
-3.926198
-3.926971
-3.9281462
-3.9284278
-3.9292507
-3.9296495
-3.9288239
-3.9277647
-3.92835
-3.9280643
-3.926971
-3.9277998
-3.9292813
-3.9308764
-3.9296648
-3.9301297
-3.9300794
-3.9292672
-3.9295852
-3.9292207
-3.9281462
-3.9292813
-3.931988
-3.9307189
-3.9304787
-3.9297577
-3.9298084
-3.9295473
-3.9296071
-3.9291766
-3.9284278
-3.9308764
-3.9307189
-3.9301336
-3.8815232
-3.8821828
-3.8816175
-3.8799764
-3.8809965
-3.8811637
-3.8808955
-3.8810112
-3.8814246
-3.8821688
-3.8821828
-3.8823566
-3.8805118
-3.8802044
-3.8811906
-3.8811315
-3.8806059
-3.8814029
-3.881923
-3.8815405
-3.8816175
-3.8805118
-3.879889
-3.8794841
-3.8803734
-3.8801957
-3.8794368
-3.8805445
-3.8818
-3.8815494
-3.8799764
-3.8802044
-3.8794841
-3.8790261
-3.8798866
-3.8796427
-3.8786595
-3.879591
-3.8810687
-3.8813204
-3.8809965
-3.8811906
-3.8803734
-3.8798866
-3.8807438
-3.880489
-3.8794161
-3.8801479
-3.8813683
-3.8813701
-3.8811637
-3.8811315
-3.8801957
-3.8796427
-3.880489
-3.8802402
-3.8791565
-3.8798458
-3.8809903
-3.8809346
-3.8808955
-3.8806059
-3.8794368
-3.8786595
-3.8794161
-3.8791565
-3.8780669
-3.87875
-3.8799165
-3.8801922
-3.8810112
-3.8814029
-3.8805445
-3.879591
-3.8801479
-3.8798458
-3.87875
-3.8794918
-3.8809664
-3.8825209
-3.8814246
-3.881923
-3.8818
-3.8810687
-3.8813683
-3.8809903
-3.8799165
-3.8809664
-3.8836313
-3.8824778
-3.8821688
-3.8815405
-3.8815494
-3.8813204
-3.8813701
-3.8809346
-3.8801922
-3.8825209
-3.8824778
-3.8818209
-3.7773414
-3.7780891
-3.7774104
-3.7759398
-3.7769189
-3.7770684
-3.7767907
-3.7768775
-3.7772887
-3.7779639
-3.7780891
-3.778192
-3.7764265
-3.7762065
-3.7771482
-3.7770733
-3.7765355
-3.7772581
-3.777815
-3.7774259
-3.7774104
-3.7764265
-3.7757895
-3.7754726
-3.7763213
-3.7761317
-3.7753666
-3.7763729
-3.7776241
-3.7773957
-3.7759398
-3.7762065
-3.7754726
-3.7751049
-3.7759258
-3.7756722
-3.7746912
-3.7755237
-3.7769728
-3.7771982
-3.7769189
-3.7771482
-3.7763213
-3.7759258
-3.7767436
-3.7764792
-3.7754118
-3.776053
-3.7772557
-3.7772402
-3.7770684
-3.7770733
-3.7761317
-3.7756722
-3.7764792
-3.77622
-3.7751415
-3.7757413
-3.776871
-3.7768047
-3.7767907
-3.7765355
-3.7753666
-3.7746912
-3.7754118
-3.7751415
-3.7740567
-3.7746504
-3.7758036
-3.7760691
-3.7768775
-3.7772581
-3.7763729
-3.7755237
-3.776053
-3.7757413
-3.7746504
-3.7753036
-3.7767619
-3.778272
-3.7772887
-3.777815
-3.7776241
-3.7769728
-3.7772557
-3.776871
-3.7758036
-3.7767619
-3.7793757
-3.7783415
-3.7779639
-3.7774259
-3.7773957
-3.7771982
-3.7772402
-3.7768047
-3.7760691
-3.778272
-3.7783415
-3.7776174
-3.6333038
-3.634126
-3.6333473
-3.6320419
-3.6329772
-3.6331101
-3.6328263
-3.6328856
-3.6332934
-3.6339011
-3.634126
-3.6341621
-3.632479
-3.63234
-3.633235
-3.6331475
-3.6326027
-3.6332514
-3.6338418
-3.6334502
-3.6333473
-3.632479
-3.6318314
-3.6315968
-3.6324032
-3.6322057
-3.6314406
-3.6323461
-3.6335887
-3.633384
-3.6320419
-3.63234
-3.6315968
-3.6313137
-3.6320938
-3.6318351
-3.6308632
-3.6315982
-3.633015
-3.6332169
-3.6329772
-3.633235
-3.6324032
-3.6320938
-3.6328709
-3.6326018
-3.6315474
-3.6321002
-3.6332823
-3.6332529
-3.6331101
-3.6331475
-3.6322057
-3.6318351
-3.6326018
-3.6323374
-3.631272
-3.6317846
-3.6328968
-3.632822
-3.6328263
-3.6326027
-3.6314406
-3.6308632
-3.6315474
-3.631272
-3.6301998
-3.6307062
-3.6318422
-3.6320948
-3.6328856
-3.6332514
-3.6323461
-3.6315982
-3.6321002
-3.6317846
-3.6307062
-3.6312711
-3.6327056
-3.6341669
-3.6332934
-3.6338418
-3.6335887
-3.633015
-3.6332823
-3.6328968
-3.6318422
-3.6327056
-3.6352586
-3.6343463
-3.6339011
-3.6334502
-3.633384
-3.6332169
-3.6332529
-3.632822
-3.6320948
-3.6341669
-3.6343463
-3.6335602
-3.4616359
-3.4625181
-3.4616541
-3.4605068
-3.4613959
-3.4615133
-3.4612266
-3.4612603
-3.4616636
-3.4622061
-3.4625181
-3.4624926
-3.4608943
-3.4608292
-3.4616757
-3.4615785
-3.4610318
-3.461608
-3.462228
-3.4618378
-3.4616541
-3.4608943
-3.4602404
-3.4600814
-3.4608442
-3.4606424
-3.4598832
-3.4606897
-3.4619192
-3.4617393
-3.4605068
-3.4608292
-3.4600814
-3.4598763
-3.4606144
-3.4603546
-3.4593986
-3.4600388
-3.4614198
-3.4616009
-3.4613959
-3.4616757
-3.4608442
-3.4606144
-3.4613499
-3.4610803
-3.460046
-3.4605135
-3.4616722
-3.4616322
-3.4615133
-3.4615785
-3.4606424
-3.4603546
-3.4610803
-3.4608149
-3.4597698
-3.4601988
-3.4612909
-3.4612098
-3.4612266
-3.4610318
-3.4598832
-3.4593986
-3.460046
-3.4597698
-3.4587177
-3.4591402
-3.4602552
-3.4604936
-3.4612603
-3.461608
-3.4606897
-3.4600388
-3.4605135
-3.4601988
-3.4591402
-3.459619
-3.4610228
-3.4624313
-3.4616636
-3.462228
-3.4619192
-3.4614198
-3.4616722
-3.4612909
-3.4602552
-3.4610228
-3.4635058
-3.4627162
-3.4622061
-3.4618378
-3.4617393
-3.4616009
-3.4616322
-3.4612098
-3.4604936
-3.4624313
-3.4627162
-3.4618743
-3.2716312
-3.272559
-3.2716252
-3.2706275
-3.2714684
-3.2715714
-3.2712848
-3.2712949
-3.2716924
-3.2721729
-3.272559
-3.2724782
-3.2709665
-3.2709672
-3.2717641
-3.2716598
-3.2711159
-3.271622
-3.2722668
-3.271882
-3.2716252
-3.2709665
-3.2703107
-3.27022
-3.2709382
-3.2707351
-3.2699874
-3.2706981
-3.2719098
-3.2717551
-3.2706275
-3.2709672
-3.27022
-3.2700858
-3.270781
-3.2705234
-3.2695893
-3.2701386
-3.2714804
-3.2716432
-3.2714684
-3.2717641
-3.2709382
-3.270781
-3.2714739
-3.2712072
-3.2701995
-3.2705861
-3.2717184
-3.2716708
-3.2715714
-3.2716598
-3.2707351
-3.2705234
-3.2712072
-3.2709444
-3.2699263
-3.2702761
-3.2713452
-3.2712601
-3.2712848
-3.2711159
-3.2699874
-3.2695893
-3.2701995
-3.2699263
-3.2689009
-3.2692438
-3.2703344
-3.270558
-3.2712949
-3.271622
-3.2706981
-3.2701386
-3.2705861
-3.2702761
-3.2692438
-3.2696401
-3.2710075
-3.2723592
-3.2716924
-3.2722668
-3.2719098
-3.2714804
-3.2717184
-3.2713452
-3.2703344
-3.2710075
-3.2734115
-3.2727435
-3.2721729
-3.271882
-3.2717551
-3.2716432
-3.2716708
-3.2712601
-3.270558
-3.2723592
-3.2727435
-3.2718528
-3.0703271
-3.0712858
-3.0702984
-3.0694404
-3.0702317
-3.0703215
-3.0700375
-3.0700264
-3.0704168
-3.0708387
-3.0712858
-3.0711567
-3.069733
-3.0697913
-3.0705377
-3.0704286
-3.0698919
-3.070331
-3.0709954
-3.0706191
-3.0702984
-3.069733
-3.0690803
-3.06905
-3.0697229
-3.0695211
-3.06879
-3.069409
-3.0705981
-3.0704682
-3.0694404
-3.0697913
-3.06905
-3.068979
-3.0696306
-3.0693779
-3.0684713
-3.0689346
-3.0702338
-3.0703805
-3.0702317
-3.0705377
-3.0697229
-3.0696306
-3.0702805
-3.0700194
-3.0690439
-3.0693548
-3.0704574
-3.070405
-3.0703215
-3.0704286
-3.0695211
-3.0693779
-3.0700194
-3.0697621
-3.0687766
-3.0690526
-3.0700956
-3.0700088
-3.0700375
-3.0698919
-3.06879
-3.0684713
-3.0690439
-3.0687766
-3.0677838
-3.0680525
-3.0691152
-3.0693239
-3.0700264
-3.070331
-3.069409
-3.0689346
-3.0693548
-3.0690526
-3.0680525
-3.0683709
-3.0696966
-3.0709882
-3.0704168
-3.0709954
-3.0705981
-3.0702338
-3.0704574
-3.0700956
-3.0691152
-3.0696966
-3.0720138
-3.0714641
-3.0708387
-3.0706191
-3.0704682
-3.0703805
-3.070405
-3.0700088
-3.0693239
-3.0709882
-3.0714641
-3.0705323
-2.8630192
-2.8639947
-2.8629701
-2.8622412
-2.8629819
-2.8630595
-2.8627805
-2.8627505
-2.8631324
-2.8634998
-2.8639947
-2.8638248
-2.8624901
-2.8625974
-2.863293
-2.863181
-2.8626555
-2.8630312
-2.8637096
-2.8633446
-2.8629701
-2.8624901
-2.8618454
-2.8618676
-2.862495
-2.8622966
-2.8615865
-2.8621189
-2.8632804
-2.8631743
-2.8622412
-2.8625974
-2.8618676
-2.8618518
-2.8624597
-2.8622141
-2.8613397
-2.8617227
-2.8629758
-2.8631083
-2.8629819
-2.863293
-2.862495
-2.8624597
-2.8630661
-2.862813
-2.8618745
-2.8621154
-2.8631852
-2.8631301
-2.8630595
-2.863181
-2.8622966
-2.8622141
-2.862813
-2.8625634
-2.8616154
-2.8618234
-2.8628372
-2.8627504
-2.8627805
-2.8626555
-2.8615865
-2.8613397
-2.8618745
-2.8616154
-2.8606601
-2.8608605
-2.8618919
-2.8620859
-2.8627505
-2.8630312
-2.8621189
-2.8617227
-2.8621154
-2.8618234
-2.8608605
-2.8611067
-2.8623862
-2.8636146
-2.8631324
-2.8637096
-2.8632804
-2.8629758
-2.8631852
-2.8628372
-2.8618919
-2.8623862
-2.8646092
-2.8641727
-2.8634998
-2.8633446
-2.8631743
-2.8631083
-2.8631301
-2.8627504
-2.8620859
-2.8636146
-2.8641727
-2.8632083
-2.6536552
-2.6546335
-2.6535884
-2.6529774
-2.6536669
-2.6537333
-2.6534613
-2.653415
-2.6537869
-2.654104
-2.6546335
-2.654431
-2.653186
-2.6533337
-2.6539785
-2.6538653
-2.6533545
-2.6536711
-2.6543573
-2.6540061
-2.6535884
-2.653186
-2.6525545
-2.6526211
-2.653203
-2.6530096
-2.6523244
-2.652776
-2.653905
-2.653821
-2.6529774
-2.6533337
-2.6526211
-2.6526523
-2.6532165
-2.6529797
-2.6521415
-2.6524505
-2.6536543
-2.653774
-2.6536669
-2.6539785
-2.653203
-2.6532165
-2.6537795
-2.653536
-2.6526385
-2.6528158
-2.6538495
-2.6537934
-2.6537333
-2.6538653
-2.6530096
-2.6529797
-2.653536
-2.6532958
-2.6523894
-2.6525359
-2.6535171
-2.6534319
-2.6534613
-2.6533545
-2.6523244
-2.6521415
-2.6526385
-2.6523894
-2.6514758
-2.6516144
-2.6526111
-2.6527906
-2.653415
-2.6536711
-2.652776
-2.6524505
-2.6528158
-2.6525359
-2.6516144
-2.6517946
-2.6530236
-2.6541866
-2.6537869
-2.6543573
-2.653905
-2.6536543
-2.6538495
-2.6535171
-2.6526111
-2.6530236
-2.6551464
-2.654816
-2.654104
-2.6540061
-2.653821
-2.653774
-2.6537934
-2.6534319
-2.6527906
-2.6541866
-2.654816
-2.653828
-2.4451356
-2.4461035
-2.445054
-2.4445494
-2.4451876
-2.4452437
-2.4449805
-2.4449202
-2.4452807
-2.4455519
-2.4461035
-2.4458763
-2.4447215
-2.4449012
-2.4454955
-2.4453825
-2.4448893
-2.4451515
-2.4458392
-2.4455038
-2.445054
-2.4447215
-2.4441082
-2.4442112
-2.4447478
-2.4445609
-2.4439041
-2.4442811
-2.4453725
-2.4453087
-2.4445494
-2.4449012
-2.4442112
-2.4442816
-2.4448022
-2.4445756
-2.4437768
-2.4440187
-2.4451699
-2.445278
-2.4451876
-2.4454955
-2.4447478
-2.4448022
-2.445322
-2.4450894
-2.4442361
-2.4443565
-2.4453507
-2.4452951
-2.4452437
-2.4453825
-2.4445609
-2.4445756
-2.4450894
-2.44486
-2.4439985
-2.4440901
-2.4450355
-2.4449529
-2.4449805
-2.4448893
-2.4439041
-2.4437768
-2.4442361
-2.4439985
-2.4431298
-2.4432133
-2.4441721
-2.4443376
-2.4449202
-2.4451515
-2.4442811
-2.4440187
-2.4443565
-2.4440901
-2.4432133
-2.4433344
-2.4445092
-2.4456051
-2.4452807
-2.4458392
-2.4453725
-2.4451699
-2.4453507
-2.4450355
-2.4441721
-2.4445092
-2.4465264
-2.4462938
-2.4455519
-2.4455038
-2.4453087
-2.445278
-2.4452951
-2.4449529
-2.4443376
-2.4456051
-2.4462938
-2.4452917
-2.2395445
-2.2404895
-2.2394513
-2.2390418
-2.2396287
-2.2396754
-2.2394224
-2.2393507
-2.2396982
-2.239928
-2.2404895
-2.2402459
-2.2391814
-2.239385
-2.2399293
-2.2398177
-2.2393448
-2.2395574
-2.2402401
-2.2399221
-2.2394513
-2.2391814
-2.2385914
-2.2387229
-2.2392148
-2.2390355
-2.2384097
-2.2387188
-2.2397678
-2.2397216
-2.2390418
-2.239385
-2.2387229
-2.2388247
-2.2393021
-2.2390867
-2.2383301
-2.2385119
-2.2396075
-2.2397047
-2.2396287
-2.2399293
-2.2392148
-2.2393021
-2.239779
-2.2395583
-2.2387519
-2.2388222
-2.2397737
-2.2397194
-2.2396754
-2.2398177
-2.2390355
-2.2390867
-2.2395583
-2.2393407
-2.2385266
-2.2385702
-2.2394765
-2.2393975
-2.2394224
-2.2393448
-2.2384097
-2.2383301
-2.2387519
-2.2385266
-2.2377055
-2.2377409
-2.2386586
-2.2388104
-2.2393507
-2.2395574
-2.2387188
-2.2385119
-2.2388222
-2.2385702
-2.2377409
-2.23781
-2.2389272
-2.2399548
-2.2396982
-2.2402401
-2.2397678
-2.2396075
-2.2397737
-2.2394765
-2.2386586
-2.2389272
-2.2408343
-2.2406901
-2.239928
-2.2399221
-2.2397216
-2.2397047
-2.2397194
-2.2393975
-2.2388104
-2.2399548
-2.2406901
-2.2396834
-2.0383293
-2.0392397
-2.0382278
-2.0379023
-2.0384382
-2.0384761
-2.0382346
-2.0381539
-2.038487
-2.0386799
-2.0392397
-2.0389876
-2.0380136
-2.0382332
-2.0387282
-2.0386189
-2.0381685
-2.0383365
-2.0390078
-2.0387085
-2.0382278
-2.0380136
-2.0374516
-2.0376042
-2.0380518
-2.037881
-2.0372886
-2.0375366
-2.0385384
-2.0385073
-2.0379023
-2.0382332
-2.0376042
-2.0377298
-2.0381645
-2.037961
-2.0372488
-2.0373776
-2.0384146
-2.0385016
-2.0384382
-2.0387282
-2.0380518
-2.0381645
-2.038599
-2.038391
-2.0376333
-2.0376606
-2.0385661
-2.0385137
-2.0384761
-2.0386189
-2.037881
-2.037961
-2.038391
-2.0381857
-2.037421
-2.0374236
-2.0382876
-2.0382126
-2.0382346
-2.0381685
-2.0372886
-2.0372488
-2.0376333
-2.037421
-2.0366496
-2.0366439
-2.0375173
-2.0376559
-2.0381539
-2.0383365
-2.0375366
-2.0373776
-2.0376606
-2.0374236
-2.0366439
-2.0366681
-2.0377248
-2.0386833
-2.038487
-2.0390078
-2.0385384
-2.0384146
-2.0385661
-2.0382876
-2.0375173
-2.0377248
-2.0395182
-2.0394519
-2.0386799
-2.0387085
-2.0385073
-2.0385016
-2.0385137
-2.0382126
-2.0376559
-2.0386833
-2.0394519
-2.0384503
-1.8424394
-1.8433045
-1.8423327
-1.8420805
-1.8425659
-1.8425958
-1.8423668
-1.8422793
-1.8425966
-1.8427569
-1.8433045
-1.8430514
-1.8421679
-1.842396
-1.8428425
-1.8427364
-1.8423102
-1.8424387
-1.8430923
-1.8428127
-1.8423327
-1.8421679
-1.8416384
-1.8418049
-1.8422089
-1.8420472
-1.84149
-1.8416839
-1.842634
-1.842615
-1.8420805
-1.842396
-1.8418049
-1.8419472
-1.8423399
-1.8421488
-1.8414824
-1.8415656
-1.8425411
-1.8426181
-1.8425659
-1.8428425
-1.8422089
-1.8423399
-1.8427326
-1.8425375
-1.8418301
-1.8418212