/*--------------------------------*- C++ -*----------------------------------*\
| =========                 |                                                 |
| \\      /  F ield         | OpenFOAM: The Open Source CFD Toolbox           |
|  \\    /   O peration     | Version:  v2106                                 |
|   \\  /    A nd           | Website:  www.openfoam.com                      |
|    \\/     M anipulation  |                                                 |
\*---------------------------------------------------------------------------*/
FoamFile
{
    version     2.0;
    format      ascii;
    arch        "LSB;label=32;scalar=64";
    class       volScalarField;
    location    "100";
    object      Tmode1;
}
// * * * * * * * * * * * * * * * * * * * * * * * * * * * * * * * * * * * * * //

dimensions      [0 0 0 0 0 0 0];

internalField   nonuniform List<scalar> 
4000
(
-0.011204032
-0.011204028
-0.011204022
-0.011204027
-0.011204029
-0.011204029
-0.011204028
-0.011204028
-0.011204028
-0.011204028
-0.011204028
-0.011204018
-0.011204018
-0.011204023
-0.011204024
-0.011204024
-0.011204023
-0.011204023
-0.011204023
-0.011204024
-0.011204022
-0.011204018
-0.011204018
-0.011204022
-0.011204024
-0.011204023
-0.011204022
-0.011204021
-0.011204021
-0.011204024
-0.011204027
-0.011204023
-0.011204022
-0.011204027
-0.011204028
-0.011204027
-0.011204026
-0.011204025
-0.011204024
-0.011204025
-0.011204029
-0.011204024
-0.011204024
-0.011204028
-0.011204029
-0.011204028
-0.011204027
-0.011204026
-0.011204025
-0.011204026
-0.011204029
-0.011204024
-0.011204023
-0.011204027
-0.011204028
-0.011204028
-0.011204027
-0.011204025
-0.011204024
-0.011204026
-0.011204028
-0.011204023
-0.011204022
-0.011204026
-0.011204027
-0.011204027
-0.011204026
-0.011204024
-0.011204023
-0.011204025
-0.011204028
-0.011204023
-0.011204021
-0.011204025
-0.011204026
-0.011204025
-0.011204024
-0.011204023
-0.011204022
-0.011204023
-0.011204028
-0.011204023
-0.011204021
-0.011204024
-0.011204025
-0.011204024
-0.011204023
-0.011204022
-0.011204021
-0.011204023
-0.011204028
-0.011204024
-0.011204024
-0.011204025
-0.011204026
-0.011204026
-0.011204025
-0.011204023
-0.011204023
-0.011204025
-0.001522326
-0.0015222747
-0.0015222556
-0.0015222913
-0.0015223031
-0.0015223034
-0.001522299
-0.0015222945
-0.001522294
-0.0015222982
-0.0015222747
-0.0015222272
-0.0015222335
-0.0015222667
-0.0015222767
-0.0015222759
-0.0015222702
-0.0015222644
-0.0015222661
-0.0015222775
-0.0015222556
-0.0015222335
-0.0015222399
-0.0015222717
-0.0015222807
-0.0015222788
-0.001522271
-0.0015222616
-0.0015222616
-0.0015222768
-0.0015222913
-0.0015222667
-0.0015222717
-0.0015223025
-0.0015223111
-0.0015223085
-0.0015222992
-0.0015222863
-0.00152228
-0.0015222891
-0.0015223031
-0.0015222767
-0.0015222807
-0.0015223111
-0.0015223193
-0.0015223165
-0.0015223068
-0.0015222931
-0.0015222854
-0.001522293
-0.0015223034
-0.0015222759
-0.0015222788
-0.0015223085
-0.0015223165
-0.0015223137
-0.001522304
-0.0015222902
-0.0015222824
-0.0015222899
-0.001522299
-0.0015222702
-0.001522271
-0.0015222992
-0.0015223068
-0.001522304
-0.0015222945
-0.0015222808
-0.0015222733
-0.0015222811
-0.0015222945
-0.0015222644
-0.0015222616
-0.0015222863
-0.0015222931
-0.0015222902
-0.0015222808
-0.0015222676
-0.0015222608
-0.0015222694
-0.001522294
-0.0015222661
-0.0015222616
-0.00152228
-0.0015222854
-0.0015222824
-0.0015222733
-0.0015222608
-0.0015222553
-0.0015222656
-0.0015222982
-0.0015222775
-0.0015222768
-0.0015222891
-0.001522293
-0.0015222899
-0.0015222811
-0.0015222694
-0.0015222656
-0.0015222781
0.0054450802
0.0054451556
0.0054451488
0.005445094
0.0054450771
0.0054450785
0.005445088
0.0054450982
0.0054450994
0.0054450906
0.0054451556
0.0054452074
0.0054451751
0.0054451248
0.0054451106
0.0054451137
0.005445126
0.0054451397
0.0054451354
0.005445111
0.0054451488
0.0054451751
0.0054451437
0.0054450957
0.0054450829
0.0054450877
0.0054451039
0.0054451256
0.0054451284
0.0054451034
0.005445094
0.0054451248
0.0054450957
0.005445049
0.005445037
0.0054450426
0.0054450609
0.0054450884
0.0054451008
0.0054450849
0.0054450771
0.0054451106
0.0054450829
0.005445037
0.0054450253
0.0054450311
0.0054450498
0.0054450785
0.005445093
0.0054450791
0.0054450785
0.0054451137
0.0054450877
0.0054450426
0.0054450311
0.0054450369
0.0054450556
0.0054450843
0.0054450989
0.0054450852
0.005445088
0.005445126
0.0054451039
0.0054450609
0.0054450498
0.0054450556
0.0054450741
0.0054451024
0.0054451166
0.0054451025
0.0054450982
0.0054451397
0.0054451256
0.0054450884
0.0054450785
0.0054450843
0.0054451024
0.0054451299
0.0054451427
0.005445127
0.0054450994
0.0054451354
0.0054451284
0.0054451008
0.005445093
0.0054450989
0.0054451166
0.0054451427
0.0054451525
0.005445132
0.0054450906
0.005445111
0.0054451034
0.0054450849
0.0054450791
0.0054450852
0.0054451025
0.005445127
0.005445132
0.0054451086
0.010598793
0.010598859
0.01059882
0.010598754
0.010598736
0.010598741
0.010598758
0.010598777
0.010598781
0.010598766
0.010598859
0.01059889
0.01059883
0.010598771
0.010598756
0.010598763
0.010598784
0.010598812
0.010598814
0.010598782
0.01059882
0.01059883
0.010598774
0.010598717
0.010598704
0.010598713
0.010598739
0.010598778
0.010598793
0.010598764
0.010598754
0.010598771
0.010598717
0.010598662
0.01059865
0.010598659
0.010598687
0.010598734
0.010598759
0.010598741
0.010598736
0.010598756
0.010598704
0.01059865
0.010598637
0.010598647
0.010598675
0.010598723
0.010598751
0.010598735
0.010598741
0.010598763
0.010598713
0.010598659
0.010598647
0.010598656
0.010598684
0.010598731
0.01059876
0.010598744
0.010598758
0.010598784
0.010598739
0.010598687
0.010598675
0.010598684
0.010598712
0.010598759
0.010598787
0.010598771
0.010598777
0.010598812
0.010598778
0.010598734
0.010598723
0.010598731
0.010598759
0.010598805
0.010598831
0.010598812
0.010598781
0.010598814
0.010598793
0.010598759
0.010598751
0.01059876
0.010598787
0.010598831
0.01059885
0.010598821
0.010598766
0.010598782
0.010598764
0.010598741
0.010598735
0.010598744
0.010598771
0.010598812
0.010598821
0.010598791
0.014403648
0.014403698
0.014403633
0.014403564
0.014403548
0.014403557
0.014403582
0.014403615
0.014403632
0.014403619
0.014403698
0.014403706
0.014403627
0.014403565
0.014403552
0.014403563
0.014403593
0.014403639
0.014403659
0.014403631
0.014403633
0.014403627
0.014403552
0.014403494
0.014403482
0.014403494
0.014403529
0.014403589
0.014403625
0.014403606
0.014403564
0.014403565
0.014403494
0.014403437
0.014403426
0.014403438
0.014403474
0.014403541
0.014403589
0.01440358
0.014403548
0.014403552
0.014403482
0.014403426
0.014403414
0.014403426
0.014403462
0.014403529
0.01440358
0.014403573
0.014403557
0.014403563
0.014403494
0.014403438
0.014403426
0.014403438
0.014403474
0.01440354
0.014403591
0.014403585
0.014403582
0.014403593
0.014403529
0.014403474
0.014403462
0.014403474
0.014403509
0.014403576
0.014403626
0.01440362
0.014403615
0.014403639
0.014403589
0.014403541
0.014403529
0.01440354
0.014403576
0.014403642
0.01440369
0.01440368
0.014403632
0.014403659
0.014403625
0.014403589
0.01440358
0.014403591
0.014403626
0.01440369
0.014403729
0.014403701
0.014403619
0.014403631
0.014403606
0.01440358
0.014403573
0.014403585
0.01440362
0.01440368
0.014403701
0.014403669
0.017159325
0.017159366
0.017159284
0.017159217
0.017159204
0.017159217
0.017159248
0.017159294
0.017159327
0.017159321
0.017159366
0.01715936
0.017159269
0.01715921
0.017159199
0.017159213
0.017159249
0.017159309
0.017159351
0.017159333
0.017159284
0.017159269
0.017159185
0.017159129
0.017159119
0.017159133
0.017159173
0.017159247
0.017159307
0.017159301
0.017159217
0.01715921
0.017159129
0.017159074
0.017159065
0.017159078
0.017159119
0.017159199
0.01715927
0.017159274
0.017159204
0.017159199
0.017159119
0.017159065
0.017159055
0.017159068
0.017159107
0.017159188
0.017159261
0.017159267
0.017159217
0.017159213
0.017159133
0.017159078
0.017159068
0.01715908
0.017159119
0.017159199
0.017159273
0.01715928
0.017159248
0.017159249
0.017159173
0.017159119
0.017159107
0.017159119
0.017159158
0.017159239
0.017159313
0.017159321
0.017159294
0.017159309
0.017159247
0.017159199
0.017159188
0.017159199
0.017159239
0.01715932
0.017159392
0.017159397
0.017159327
0.017159351
0.017159307
0.01715927
0.017159261
0.017159273
0.017159313
0.017159392
0.017159455
0.017159434
0.017159321
0.017159333
0.017159301
0.017159274
0.017159267
0.01715928
0.017159321
0.017159397
0.017159434
0.017159405
0.019078352
0.019078391
0.019078299
0.019078236
0.019078226
0.01907824
0.019078274
0.019078328
0.019078374
0.019078375
0.019078391
0.019078377
0.019078281
0.019078227
0.019078219
0.019078233
0.019078271
0.019078339
0.019078398
0.019078389
0.019078299
0.019078281
0.019078192
0.019078141
0.019078133
0.019078147
0.019078187
0.019078269
0.019078347
0.019078352
0.019078236
0.019078227
0.019078141
0.019078091
0.019078083
0.019078096
0.019078136
0.019078222
0.01907831
0.019078325
0.019078226
0.019078219
0.019078133
0.019078083
0.019078075
0.019078087
0.019078125
0.019078212
0.019078301
0.019078317
0.01907824
0.019078233
0.019078147
0.019078096
0.019078087
0.019078098
0.019078136
0.019078222
0.019078312
0.01907833
0.019078274
0.019078271
0.019078187
0.019078136
0.019078125
0.019078136
0.019078174
0.019078261
0.019078353
0.019078372
0.019078328
0.019078339
0.019078269
0.019078222
0.019078212
0.019078222
0.019078261
0.019078349
0.019078441
0.019078459
0.019078374
0.019078398
0.019078347
0.01907831
0.019078301
0.019078312
0.019078353
0.019078441
0.019078524
0.019078514
0.019078375
0.019078389
0.019078352
0.019078325
0.019078317
0.01907833
0.019078372
0.019078459
0.019078514
0.019078486
0.020319556
0.020319596
0.020319497
0.020319441
0.020319434
0.020319448
0.020319482
0.020319539
0.020319593
0.020319597
0.020319596
0.020319578
0.02031948
0.020319432
0.020319426
0.02031944
0.020319476
0.020319547
0.020319617
0.020319614
0.020319497
0.02031948
0.020319389
0.020319344
0.020319338
0.020319351
0.020319389
0.020319471
0.02031956
0.020319574
0.020319441
0.020319432
0.020319344
0.0203193
0.020319294
0.020319305
0.020319342
0.020319427
0.020319525
0.020319547
0.020319434
0.020319426
0.020319338
0.020319294
0.020319287
0.020319297
0.020319332
0.020319417
0.020319516
0.020319539
0.020319448
0.02031944
0.020319351
0.020319305
0.020319297
0.020319306
0.02031934
0.020319425
0.020319525
0.020319549
0.020319482
0.020319476
0.020319389
0.020319342
0.020319332
0.02031934
0.020319375
0.020319461
0.020319563
0.020319591
0.020319539
0.020319547
0.020319471
0.020319427
0.020319417
0.020319425
0.020319461
0.020319549
0.020319654
0.020319682
0.020319593
0.020319617
0.02031956
0.020319525
0.020319516
0.020319525
0.020319563
0.020319654
0.020319752
0.020319752
0.020319597
0.020319614
0.020319574
0.020319547
0.020319539
0.020319549
0.020319591
0.020319682
0.020319752
0.020319725
0.021005567
0.021005608
0.021005506
0.021005456
0.021005451
0.021005465
0.021005497
0.021005553
0.021005611
0.021005617
0.021005608
0.021005589
0.021005491
0.021005448
0.021005444
0.021005457
0.02100549
0.021005559
0.021005636
0.021005636
0.021005506
0.021005491
0.021005399
0.02100536
0.021005356
0.021005367
0.021005401
0.021005479
0.021005575
0.021005594
0.021005456
0.021005448
0.02100536
0.021005322
0.021005317
0.021005326
0.021005358
0.021005439
0.021005542
0.021005567
0.021005451
0.021005444
0.021005356
0.021005317
0.021005311
0.021005319
0.021005349
0.021005429
0.021005533
0.021005558
0.021005465
0.021005457
0.021005367
0.021005326
0.021005319
0.021005326
0.021005355
0.021005435
0.02100554
0.021005567
0.021005497
0.02100549
0.021005401
0.021005358
0.021005349
0.021005355
0.021005385
0.021005466
0.021005574
0.021005606
0.021005553
0.021005559
0.021005479
0.021005439
0.021005429
0.021005435
0.021005466
0.021005551
0.021005662
0.021005697
0.021005611
0.021005636
0.021005575
0.021005542
0.021005533
0.02100554
0.021005574
0.021005662
0.02100577
0.021005778
0.021005617
0.021005636
0.021005594
0.021005567
0.021005558
0.021005567
0.021005606
0.021005697
0.021005778
0.021005752
0.021233139
0.021233182
0.021233077
0.021233034
0.02123303
0.021233043
0.021233072
0.021233126
0.021233186
0.021233191
0.021233182
0.021233161
0.021233064
0.021233027
0.021233025
0.021233036
0.021233065
0.02123313
0.021233211
0.021233212
0.021233077
0.021233064
0.021232974
0.02123294
0.021232937
0.021232946
0.021232975
0.021233048
0.021233148
0.021233169
0.021233034
0.021233027
0.02123294
0.021232906
0.021232903
0.02123291
0.021232937
0.021233011
0.021233116
0.021233143
0.02123303
0.021233025
0.021232937
0.021232903
0.021232898
0.021232903
0.021232928
0.021233001
0.021233107
0.021233134
0.021233043
0.021233036
0.021232946
0.02123291
0.021232903
0.021232908
0.021232932
0.021233005
0.021233112
0.02123314
0.021233072
0.021233065
0.021232975
0.021232937
0.021232928
0.021232932
0.021232957
0.021233032
0.021233142
0.021233175
0.021233126
0.02123313
0.021233048
0.021233011
0.021233001
0.021233005
0.021233032
0.021233111
0.021233225
0.021233264
0.021233186
0.021233211
0.021233148
0.021233116
0.021233107
0.021233112
0.021233142
0.021233225
0.021233339
0.021233354
0.021233191
0.021233212
0.021233169
0.021233143
0.021233134
0.02123314
0.021233175
0.021233264
0.021233354
0.021233327
0.021079799
0.021079843
0.021079737
0.021079699
0.021079697
0.021079709
0.021079735
0.021079785
0.021079846
0.021079849
0.021079843
0.021079821
0.021079725
0.021079694
0.021079692
0.021079702
0.021079728
0.021079788
0.021079871
0.021079873
0.021079737
0.021079725
0.021079637
0.021079607
0.021079605
0.021079613
0.021079638
0.021079705
0.021079806
0.021079828
0.021079699
0.021079694
0.021079607
0.021079579
0.021079576
0.021079582
0.021079604
0.021079671
0.021079776
0.021079804
0.021079697
0.021079692
0.021079605
0.021079576
0.021079572
0.021079576
0.021079596
0.021079661
0.021079767
0.021079794
0.021079709
0.021079702
0.021079613
0.021079582
0.021079576
0.021079578
0.021079598
0.021079664
0.02107977
0.021079799
0.021079735
0.021079728
0.021079638
0.021079604
0.021079596
0.021079598
0.021079618
0.021079686
0.021079796
0.02107983
0.021079785
0.021079788
0.021079705
0.021079671
0.021079661
0.021079664
0.021079686
0.021079758
0.021079873
0.021079913
0.021079846
0.021079871
0.021079806
0.021079776
0.021079767
0.02107977
0.021079796
0.021079873
0.02107999
0.021080011
0.021079849
0.021079873
0.021079828
0.021079804
0.021079794
0.021079799
0.02107983
0.021079913
0.021080011
0.021079983
0.020608422
0.020608466
0.020608361
0.020608327
0.020608326
0.020608337
0.02060836
0.020608406
0.020608466
0.020608469
0.020608466
0.020608444
0.02060835
0.020608322
0.020608322
0.02060833
0.020608353
0.020608408
0.020608491
0.020608494
0.020608361
0.02060835
0.020608263
0.020608238
0.020608236
0.020608243
0.020608264
0.020608324
0.020608425
0.020608449
0.020608327
0.020608322
0.020608238
0.020608213
0.02060821
0.020608215
0.020608233
0.020608293
0.020608397
0.020608426
0.020608326
0.020608322
0.020608236
0.02060821
0.020608207
0.020608209
0.020608226
0.020608284
0.020608388
0.020608416
0.020608337
0.02060833
0.020608243
0.020608215
0.020608209
0.020608211
0.020608226
0.020608285
0.02060839
0.020608419
0.02060836
0.020608353
0.020608264
0.020608233
0.020608226
0.020608226
0.020608243
0.020608303
0.020608412
0.020608446
0.020608406
0.020608408
0.020608324
0.020608293
0.020608284
0.020608285
0.020608303
0.020608369
0.020608484
0.020608525
0.020608466
0.020608491
0.020608425
0.020608397
0.020608388
0.02060839
0.020608412
0.020608484
0.020608601
0.020608627
0.020608469
0.020608494
0.020608449
0.020608426
0.020608416
0.020608419
0.020608446
0.020608525
0.020608627
0.020608598
0.019870525
0.019870569
0.019870464
0.019870434
0.019870434
0.019870443
0.019870465
0.019870507
0.019870566
0.019870568
0.019870569
0.019870546
0.019870454
0.01987043
0.01987043
0.019870437
0.019870457
0.019870508
0.019870591
0.019870594
0.019870464
0.019870454
0.019870369
0.019870347
0.019870346
0.019870351
0.019870369
0.019870424
0.019870524
0.019870549
0.019870434
0.01987043
0.019870347
0.019870325
0.019870324
0.019870327
0.019870342
0.019870396
0.019870498
0.019870527
0.019870434
0.01987043
0.019870346
0.019870324
0.01987032
0.019870322
0.019870335
0.019870387
0.019870489
0.019870517
0.019870443
0.019870437
0.019870351
0.019870327
0.019870322
0.019870322
0.019870335
0.019870387
0.01987049
0.019870519
0.019870465
0.019870457
0.019870369
0.019870342
0.019870335
0.019870335
0.019870348
0.019870402
0.019870509
0.019870543
0.019870507
0.019870508
0.019870424
0.019870396
0.019870387
0.019870387
0.019870402
0.019870461
0.019870574
0.019870616
0.019870566
0.019870591
0.019870524
0.019870498
0.019870489
0.01987049
0.019870509
0.019870574
0.019870692
0.019870721
0.019870568
0.019870594
0.019870549
0.019870527
0.019870517
0.019870519
0.019870543
0.019870616
0.019870721
0.019870692
0.018908705
0.018908748
0.018908644
0.018908618
0.018908618
0.018908627
0.018908646
0.018908686
0.018908744
0.018908745
0.018908748
0.018908724
0.018908635
0.018908614
0.018908614
0.018908621
0.018908638
0.018908685
0.018908768
0.018908771
0.018908644
0.018908635
0.018908552
0.018908533
0.018908533
0.018908537
0.018908552
0.018908602
0.018908701
0.018908727
0.018908618
0.018908614
0.018908533
0.018908514
0.018908513
0.018908515
0.018908527
0.018908576
0.018908677
0.018908705
0.018908618
0.018908614
0.018908533
0.018908513
0.01890851
0.01890851
0.018908521
0.018908568
0.018908668
0.018908696
0.018908627
0.018908621
0.018908537
0.018908515
0.01890851
0.01890851
0.01890852
0.018908567
0.018908668
0.018908697
0.018908646
0.018908638
0.018908552
0.018908527
0.018908521
0.01890852
0.01890853
0.01890858
0.018908684
0.018908718
0.018908686
0.018908685
0.018908602
0.018908576
0.018908568
0.018908567
0.01890858
0.018908633
0.018908744
0.018908786
0.018908744
0.018908768
0.018908701
0.018908677
0.018908668
0.018908668
0.018908684
0.018908744
0.018908861
0.018908893
0.018908745
0.018908771
0.018908727
0.018908705
0.018908696
0.018908697
0.018908718
0.018908786
0.018908893
0.018908863
0.017758472
0.017758514
0.017758412
0.017758388
0.017758389
0.017758397
0.017758414
0.017758451
0.017758508
0.017758509
0.017758514
0.01775849
0.017758403
0.017758384
0.017758384
0.01775839
0.017758406
0.017758449
0.017758531
0.017758535
0.017758412
0.017758403
0.017758322
0.017758305
0.017758305
0.017758308
0.017758322
0.017758367
0.017758465
0.017758491
0.017758388
0.017758384
0.017758305
0.017758288
0.017758287
0.017758289
0.017758299
0.017758343
0.017758442
0.01775847
0.017758389
0.017758384
0.017758305
0.017758287
0.017758285
0.017758285
0.017758293
0.017758336
0.017758434
0.017758462
0.017758397
0.01775839
0.017758308
0.017758289
0.017758285
0.017758284
0.017758292
0.017758334
0.017758433
0.017758462
0.017758414
0.017758406
0.017758322
0.017758299
0.017758293
0.017758292
0.017758301
0.017758345
0.017758447
0.017758481
0.017758451
0.017758449
0.017758367
0.017758343
0.017758336
0.017758334
0.017758345
0.017758394
0.017758503
0.017758544
0.017758508
0.017758531
0.017758465
0.017758442
0.017758434
0.017758433
0.017758447
0.017758503
0.017758617
0.017758653
0.017758509
0.017758535
0.017758491
0.01775847
0.017758462
0.017758462
0.017758481
0.017758544
0.017758653
0.017758623
0.01644964
0.01644968
0.01644958
0.016449559
0.01644956
0.016449567
0.016449583
0.016449618
0.016449673
0.016449674
0.01644968
0.016449656
0.016449571
0.016449555
0.016449555
0.01644956
0.016449574
0.016449615
0.016449696
0.0164497
0.01644958
0.016449571
0.016449493
0.016449478
0.016449478
0.016449481
0.016449492
0.016449535
0.01644963
0.016449657
0.016449559
0.016449555
0.016449478
0.016449463
0.016449462
0.016449463
0.016449472
0.016449512
0.016449609
0.016449638
0.01644956
0.016449555
0.016449478
0.016449462
0.01644946
0.01644946
0.016449467
0.016449505
0.016449601
0.016449629
0.016449567
0.01644956
0.016449481
0.016449463
0.01644946
0.016449458
0.016449465
0.016449504
0.0164496
0.016449629
0.016449583
0.016449574
0.016449492
0.016449472
0.016449467
0.016449465
0.016449472
0.016449513
0.016449613
0.016449646
0.016449618
0.016449615
0.016449535
0.016449512
0.016449505
0.016449504
0.016449513
0.016449558
0.016449664
0.016449705
0.016449673
0.016449696
0.01644963
0.016449609
0.016449601
0.0164496
0.016449613
0.016449664
0.016449777
0.016449814
0.016449674
0.0164497
0.016449657
0.016449638
0.016449629
0.016449629
0.016449646
0.016449705
0.016449814
0.016449785
0.015007399
0.015007437
0.015007339
0.01500732
0.015007321
0.015007327
0.015007342
0.015007375
0.015007429
0.01500743
0.015007437
0.015007412
0.01500733
0.015007315
0.015007315
0.01500732
0.015007333
0.015007371
0.01500745
0.015007456
0.015007339
0.01500733
0.015007254
0.01500724
0.01500724
0.015007243
0.015007253
0.015007292
0.015007386
0.015007414
0.01500732
0.015007315
0.01500724
0.015007227
0.015007226
0.015007227
0.015007235
0.015007272
0.015007366
0.015007395
0.015007321
0.015007315
0.01500724
0.015007226
0.015007224
0.015007224
0.01500723
0.015007265
0.015007359
0.015007387
0.015007327
0.01500732
0.015007243
0.015007227
0.015007224
0.015007222
0.015007228
0.015007264
0.015007358
0.015007387
0.015007342
0.015007333
0.015007253
0.015007235
0.01500723
0.015007228
0.015007235
0.015007272
0.015007369
0.015007402
0.015007375
0.015007371
0.015007292
0.015007272
0.015007265
0.015007264
0.015007272
0.015007314
0.015007417
0.015007458
0.015007429
0.01500745
0.015007386
0.015007366
0.015007359
0.015007358
0.015007369
0.015007417
0.015007527
0.015007567
0.01500743
0.015007456
0.015007414
0.015007395
0.015007387
0.015007387
0.015007402
0.015007458
0.015007567
0.015007539
0.01345314
0.013453175
0.013453081
0.013453063
0.013453064
0.01345307
0.013453084
0.013453115
0.013453169
0.01345317
0.013453175
0.01345315
0.013453071
0.013453057
0.013453058
0.013453062
0.013453074
0.01345311
0.013453188
0.013453195
0.013453081
0.013453071
0.013452997
0.013452985
0.013452985
0.013452988
0.013452997
0.013453034
0.013453125
0.013453154
0.013453063
0.013453057
0.013452985
0.013452973
0.013452972
0.013452973
0.01345298
0.013453014
0.013453106
0.013453136
0.013453064
0.013453058
0.013452985
0.013452972
0.01345297
0.01345297
0.013452976
0.013453008
0.013453099
0.013453128
0.01345307
0.013453062
0.013452988
0.013452973
0.01345297
0.013452969
0.013452974
0.013453007
0.013453099
0.013453128
0.013453084
0.013453074
0.013452997
0.01345298
0.013452976
0.013452974
0.01345298
0.013453015
0.013453109
0.013453142
0.013453115
0.01345311
0.013453034
0.013453014
0.013453008
0.013453007
0.013453015
0.013453054
0.013453154
0.013453195
0.013453169
0.013453188
0.013453125
0.013453106
0.013453099
0.013453099
0.013453109
0.013453154
0.013453262
0.013453303
0.01345317
0.013453195
0.013453154
0.013453136
0.013453128
0.013453128
0.013453142
0.013453195
0.013453303
0.013453277
0.011805113
0.011805146
0.011805054
0.011805038
0.011805039
0.011805044
0.011805058
0.011805088
0.01180514
0.011805142
0.011805146
0.01180512
0.011805044
0.011805031
0.011805032
0.011805036
0.011805047
0.011805081
0.011805158
0.011805166
0.011805054
0.011805044
0.011804973
0.011804961
0.011804961
0.011804964
0.011804973
0.011805007
0.011805097
0.011805126
0.011805038
0.011805031
0.011804961
0.01180495
0.011804949
0.01180495
0.011804957
0.011804989
0.011805079
0.011805108
0.011805039
0.011805032
0.011804961
0.011804949
0.011804948
0.011804947
0.011804953
0.011804984
0.011805072
0.011805101
0.011805044
0.011805036
0.011804964
0.01180495
0.011804947
0.011804947
0.011804952
0.011804983
0.011805072
0.011805102
0.011805058
0.011805047
0.011804973
0.011804957
0.011804953
0.011804952
0.011804957
0.01180499
0.011805082
0.011805115
0.011805088
0.011805081
0.011805007
0.011804989
0.011804984
0.011804983
0.01180499
0.011805027
0.011805125
0.011805165
0.01180514
0.011805158
0.011805097
0.011805079
0.011805072
0.011805072
0.011805082
0.011805125
0.01180523
0.011805273
0.011805142
0.011805166
0.011805126
0.011805108
0.011805101
0.011805102
0.011805115
0.011805165
0.011805273
0.011805247
0.010078941
0.010078971
0.010078882
0.010078867
0.010078867
0.010078873
0.010078886
0.010078915
0.010078966
0.010078969
0.010078971
0.010078945
0.010078871
0.010078859
0.01007886
0.010078864
0.010078875
0.010078907
0.010078982
0.010078991
0.010078882
0.010078871
0.010078803
0.010078792
0.010078792
0.010078794
0.010078803
0.010078836
0.010078923
0.010078953
0.010078867
0.010078859
0.010078792
0.010078781
0.01007878
0.010078781
0.010078788
0.010078819
0.010078906
0.010078936
0.010078867
0.01007886
0.010078792
0.01007878
0.010078779
0.010078779
0.010078784
0.010078814
0.0100789
0.01007893
0.010078873
0.010078864
0.010078794
0.010078781
0.010078779
0.010078779
0.010078784
0.010078813
0.0100789
0.01007893
0.010078886
0.010078875
0.010078803
0.010078788
0.010078784
0.010078784
0.01007879
0.010078821
0.010078911
0.010078944
0.010078915
0.010078907
0.010078836
0.010078819
0.010078814
0.010078813
0.010078821
0.010078856
0.010078951
0.010078991
0.010078966
0.010078982
0.010078923
0.010078906
0.0100789
0.0100789
0.010078911
0.010078951
0.010079054
0.010079097
0.010078969
0.010078991
0.010078953
0.010078936
0.01007893
0.01007893
0.010078944
0.010078991
0.010079097
0.010079074
0.0082880357
0.0082880629
0.0082879776
0.0082879631
0.0082879636
0.008287969
0.0082879816
0.0082880098
0.0082880599
0.0082880633
0.0082880629
0.0082880368
0.0082879662
0.0082879547
0.0082879549
0.0082879588
0.0082879695
0.0082880011
0.0082880743
0.0082880844
0.0082879776
0.0082879662
0.0082879003
0.0082878899
0.0082878898
0.0082878922
0.0082879007
0.0082879323
0.0082880175
0.0082880472
0.0082879631
0.0082879547
0.0082878899
0.0082878796
0.008287879
0.0082878802
0.0082878868
0.0082879162
0.0082880012
0.0082880317
0.0082879636
0.0082879549
0.0082878898
0.008287879
0.0082878776
0.008287878
0.0082878836
0.0082879119
0.0082879961
0.0082880259
0.008287969
0.0082879588
0.0082878922
0.0082878802
0.008287878
0.008287878
0.0082878834
0.0082879119
0.0082879966
0.008288027
0.0082879816
0.0082879695
0.0082879007
0.0082878868
0.0082878836
0.0082878834
0.0082878896
0.0082879197
0.008288007
0.0082880403
0.0082880098
0.0082880011
0.0082879323
0.0082879162
0.0082879119
0.0082879119
0.0082879197
0.0082879532
0.0082880458
0.0082880859
0.0082880599
0.0082880743
0.0082880175
0.0082880012
0.0082879961
0.0082879966
0.008288007
0.0082880458
0.0082881458
0.0082881897
0.0082880633
0.0082880844
0.0082880472
0.0082880317
0.0082880259
0.008288027
0.0082880403
0.0082880859
0.0082881897
0.0082881686
0.0064439405
0.0064439646
0.0064438828
0.006443869
0.0064438694
0.0064438747
0.0064438871
0.0064439146
0.0064439636
0.0064439681
0.0064439646
0.0064439384
0.0064438707
0.0064438596
0.0064438598
0.0064438636
0.0064438743
0.0064439048
0.0064439763
0.0064439875
0.0064438828
0.0064438707
0.0064438075
0.0064437975
0.0064437972
0.0064437998
0.0064438085
0.0064438389
0.0064439218
0.0064439519
0.006443869
0.0064438596
0.0064437975
0.0064437876
0.0064437869
0.0064437884
0.0064437953
0.0064438238
0.0064439063
0.0064439372
0.0064438694
0.0064438598
0.0064437972
0.0064437869
0.0064437857
0.0064437865
0.0064437925
0.00644382
0.0064439018
0.006443932
0.0064438747
0.0064438636
0.0064437998
0.0064437884
0.0064437865
0.006443787
0.0064437929
0.0064438206
0.006443903
0.0064439338
0.0064438871
0.0064438743
0.0064438085
0.0064437953
0.0064437925
0.0064437929
0.0064437996
0.0064438289
0.0064439136
0.0064439471
0.0064439146
0.0064439048
0.0064438389
0.0064438238
0.00644382
0.0064438206
0.0064438289
0.0064438613
0.0064439511
0.006443991
0.0064439636
0.0064439763
0.0064439218
0.0064439063
0.0064439018
0.006443903
0.0064439136
0.0064439511
0.0064440482
0.0064440926
0.0064439681
0.0064439875
0.0064439519
0.0064439372
0.006443932
0.0064439338
0.0064439471
0.006443991
0.0064440926
0.0064440737
0.0045566043
0.0045566253
0.0045565473
0.0045565341
0.0045565343
0.0045565395
0.0045565519
0.0045565788
0.0045566267
0.0045566322
0.0045566253
0.0045565991
0.0045565345
0.0045565237
0.0045565238
0.0045565277
0.0045565384
0.0045565681
0.0045566377
0.00455665
0.0045565473
0.0045565345
0.0045564741
0.0045564643
0.004556464
0.0045564668
0.0045564757
0.0045565053
0.0045565856
0.004556616
0.0045565341
0.0045565237
0.0045564643
0.0045564547
0.0045564541
0.004556456
0.0045564633
0.004556491
0.004556571
0.0045566022
0.0045565343
0.0045565238
0.004556464
0.0045564541
0.004556453
0.0045564543
0.0045564608
0.0045564877
0.0045565671
0.0045565977
0.0045565395
0.0045565277
0.0045564668
0.004556456
0.0045564543
0.0045564553
0.0045564619
0.004556489
0.004556569
0.0045566
0.0045565519
0.0045565384
0.0045564757
0.0045564633
0.0045564608
0.0045564619
0.0045564692
0.0045564978
0.00455658
0.0045566135
0.0045565788
0.0045565681
0.0045565053
0.004556491
0.0045564877
0.004556489
0.0045564978
0.0045565294
0.0045566163
0.004556656
0.0045566267
0.0045566377
0.0045565856
0.004556571
0.0045565671
0.004556569
0.00455658
0.0045566163
0.0045567104
0.004556755
0.0045566322
0.00455665
0.004556616
0.0045566022
0.0045565977
0.0045566
0.0045566135
0.004556656
0.004556755
0.0045567385
0.0026346154
0.0026346335
0.0026345594
0.0026345466
0.0026345467
0.002634552
0.0026345643
0.0026345907
0.0026346374
0.002634644
0.0026346335
0.0026346074
0.0026345459
0.0026345354
0.0026345354
0.0026345395
0.0026345503
0.0026345792
0.0026346467
0.0026346602
0.0026345594
0.0026345459
0.0026344884
0.0026344788
0.0026344785
0.0026344816
0.0026344907
0.0026345196
0.0026345973
0.0026346279
0.0026345466
0.0026345354
0.0026344788
0.0026344695
0.0026344689
0.0026344712
0.002634479
0.0026345061
0.0026345835
0.0026346149
0.0026345467
0.0026345354
0.0026344785
0.0026344689
0.002634468
0.0026344698
0.0026344769
0.0026345033
0.0026345802
0.002634611
0.002634552
0.0026345395
0.0026344816
0.0026344712
0.0026344698
0.0026344714
0.0026344786
0.0026345053
0.0026345828
0.0026346141
0.0026345643
0.0026345503
0.0026344907
0.002634479
0.0026344769
0.0026344786
0.0026344866
0.0026345147
0.0026345942
0.0026346278
0.0026345907
0.0026345792
0.0026345196
0.0026345061
0.0026345033
0.0026345053
0.0026345147
0.0026345456
0.0026346296
0.002634669
0.0026346374
0.0026346467