/*--------------------------------*- C++ -*----------------------------------*\
| =========                 |                                                 |
| \\      /  F ield         | OpenFOAM: The Open Source CFD Toolbox           |
|  \\    /   O peration     | Version:  v2106                                 |
|   \\  /    A nd           | Website:  www.openfoam.com                      |
|    \\/     M anipulation  |                                                 |
\*---------------------------------------------------------------------------*/
FoamFile
{
    version     2.0;
    format      ascii;
    arch        "LSB;label=32;scalar=64";
    class       volScalarField;
    location    "100";
    object      Tmode11;
}
// * * * * * * * * * * * * * * * * * * * * * * * * * * * * * * * * * * * * * //

dimensions      [0 0 0 0 0 0 0];

internalField   nonuniform List<scalar> 
4000
(
0.0031553697
0.0031753265
0.0031935295
0.003116261
0.0031144386
0.0031211056
0.0031295075
0.0031420902
0.0031558712
0.0031604108
0.0031753265
0.0032445703
0.0031907032
0.0031316427
0.003133804
0.0031408064
0.0031501352
0.0031656631
0.0031825594
0.003177811
0.0031935295
0.0031907032
0.0031580051
0.0031049238
0.003107625
0.0031144187
0.0031246828
0.0031445275
0.0031680072
0.0031561942
0.003116261
0.0031316427
0.0031049238
0.0030530152
0.0030555871
0.0030618084
0.0030716881
0.00309384
0.0031267648
0.0031288216
0.0031144386
0.003133804
0.003107625
0.0030555871
0.0030579171
0.0030636576
0.003072399
0.0030927462
0.0031240541
0.0031254144
0.0031211056
0.0031408064
0.0031144187
0.0030618084
0.0030636576
0.0030691932
0.0030775791
0.0030971685
0.0031274627
0.0031279242
0.0031295075
0.0031501352
0.0031246828
0.0030716881
0.003072399
0.0030775791
0.0030859703
0.0031055935
0.0031358934
0.0031363712
0.0031420902
0.0031656631
0.0031445275
0.00309384
0.0030927462
0.0030971685
0.0031055935
0.0031255461
0.0031561846
0.0031568369
0.0031558712
0.0031825594
0.0031680072
0.0031267648
0.0031240541
0.0031274627
0.0031358934
0.0031561846
0.0031867503
0.0031864395
0.0031604108
0.003177811
0.0031561942
0.0031288216
0.0031254144
0.0031279242
0.0031363712
0.0031568369
0.0031864395
0.0031826389
-0.018010574
-0.017587661
-0.017904752
-0.018370665
-0.01839254
-0.01834243
-0.018265966
-0.018149276
-0.018021924
-0.017975911
-0.017587661
-0.017589816
-0.018066644
-0.018436746
-0.018437845
-0.01838544
-0.018300175
-0.018157841
-0.018007389
-0.017985758
-0.017904752
-0.018066644
-0.018452007
-0.018787035
-0.018783278
-0.018731744
-0.018637302
-0.018455584
-0.018253828
-0.018230711
-0.018370665
-0.018436746
-0.018787035
-0.019112199
-0.019108626
-0.01906173
-0.018970605
-0.018770185
-0.018502017
-0.018401267
-0.01839254
-0.018437845
-0.018783278
-0.019108626
-0.019106824
-0.019064045
-0.018982209
-0.018795046
-0.018535187
-0.018435211
-0.01834243
-0.01838544
-0.018731744
-0.01906173
-0.019064045
-0.019023324
-0.018944707
-0.018763544
-0.018510743
-0.018415975
-0.018265966
-0.018300175
-0.018637302
-0.018970605
-0.018982209
-0.018944707
-0.018866431
-0.018685128
-0.018432175
-0.018336887
-0.018149276
-0.018157841
-0.018455584
-0.018770185
-0.018795046
-0.018763544
-0.018685128
-0.018501202
-0.018245699
-0.01814968
-0.018021924
-0.018007389
-0.018253828
-0.018502017
-0.018535187
-0.018510743
-0.018432175
-0.018245699
-0.017992047
-0.017907922
-0.017975911
-0.017985758
-0.018230711
-0.018401267
-0.018435211
-0.018415975
-0.018336887
-0.01814968
-0.017907922
-0.017862831
0.030346259
0.030818186
0.029845232
0.029300528
0.029296937
0.029382863
0.029522538
0.029745695
0.029995058
0.03014764
0.030818186
0.030530591
0.029571374
0.029145781
0.029163655
0.029251296
0.029410213
0.029685196
0.029919819
0.029994696
0.029845232
0.029571374
0.028728436
0.028344399
0.028366251
0.028449583
0.028625672
0.028994925
0.029373417
0.029550251
0.029300528
0.029145781
0.028344399
0.027972486
0.027992575
0.028064629
0.028226833
0.028613493
0.029069421
0.029327621
0.029296937
0.029163655
0.028366251
0.027992575
0.028009248
0.02807344
0.028218353
0.02858203
0.029023412
0.029276649
0.029382863
0.029251296
0.028449583
0.028064629
0.02807344
0.028133541
0.028272513
0.028626472
0.029057901
0.029305092
0.029522538
0.029410213
0.028625672
0.028226833
0.028218353
0.028272513
0.028410912
0.028766096
0.029200004
0.029451414
0.029745695
0.029685196
0.028994925
0.028613493
0.02858203
0.028626472
0.028766096
0.029127691
0.029567647
0.029819169
0.029995058
0.029919819
0.029373417
0.029069421
0.029023412
0.029057901
0.029200004
0.029567647
0.029999768
0.030211625
0.03014764
0.029994696
0.029550251
0.029327621
0.029276649
0.029305092
0.029451414
0.029819169
0.030211625
0.030367137
0.0057747875
0.0057563957
0.0043382034
0.0038865966
0.0039244244
0.0040388582
0.0042358467
0.0045665403
0.0048845944
0.0050276048
0.0057563957
0.0049355792
0.0037075889
0.0033708123
0.0034223415
0.003533937
0.0037670514
0.0042372927
0.0046563868
0.0048070274
0.0043382034
0.0037075889
0.0026040044
0.0023057109
0.002356204
0.0024519833
0.0026884442
0.0032715262
0.0038926316
0.0042312537
0.0038865966
0.0033708123
0.0023057109
0.0020187148
0.0020653601
0.0021420409
0.0023476232
0.0029298945
0.0036073247
0.00400258
0.0039244244
0.0034223415
0.002356204
0.0020653601
0.0021075167
0.0021734374
0.0023548602
0.0029057948
0.0035611373
0.0039443649
0.0040388582
0.003533937
0.0024519833
0.0021420409
0.0021734374
0.0022336846
0.0024071512
0.0029464803
0.0035916807
0.0039711384
0.0042358467
0.0037670514
0.0026884442
0.0023476232
0.0023548602
0.0024071512
0.0025805174
0.0031240324
0.0037775521
0.0041701454
0.0045665403
0.0042372927
0.0032715262
0.0029298945
0.0029057948
0.0029464803
0.0031240324
0.0036808835
0.0043466398
0.0047377514
0.0048845944
0.0046563868
0.0038926316
0.0036073247
0.0035611373
0.0035916807
0.0037775521
0.0043466398
0.0049861353
0.0052630096
0.0050276048
0.0048070274
0.0042312537
0.00400258
0.0039443649
0.0039711384
0.0041701454
0.0047377514
0.0052630096
0.0055513297
-0.024742023
-0.025029641
-0.026625884
-0.026916219
-0.026836127
-0.026706994
-0.026463884
-0.025983555
-0.025436848
-0.025183482
-0.025029641
-0.026125519
-0.027408909
-0.027602174
-0.027520682
-0.027411243
-0.027151625
-0.026501654
-0.025733589
-0.025366962
-0.026625884
-0.027408909
-0.02856947
-0.028729783
-0.028653924
-0.02857327
-0.028339602
-0.027605003
-0.026627335
-0.026014062
-0.026916219
-0.027602174
-0.028729783
-0.028879894
-0.028808748
-0.02875221
-0.028564689
-0.027857104
-0.026861233
-0.026226518
-0.026836127
-0.027520682
-0.028653924
-0.028808748
-0.028742364
-0.028698053
-0.028538796
-0.027868362
-0.026902251
-0.026287451
-0.026706994
-0.027411243
-0.02857327
-0.02875221
-0.028698053
-0.028660569
-0.028510508
-0.027851893
-0.026893973
-0.026278322
-0.026463884
-0.027151625
-0.028339602
-0.028564689
-0.028538796
-0.028510508
-0.028359529
-0.027691633
-0.026714471
-0.026068358
-0.025983555
-0.026501654
-0.027605003
-0.027857104
-0.027868362
-0.027851893
-0.027691633
-0.02699724
-0.025989165
-0.025329268
-0.025436848
-0.025733589
-0.026627335
-0.026861233
-0.026902251
-0.026893973
-0.026714471
-0.025989165
-0.025016157
-0.024582879
-0.025183482
-0.025366962
-0.026014062
-0.026226518
-0.026287451
-0.026278322
-0.026068358
-0.025329268
-0.024582879
-0.024191814
-0.014069686
-0.014350883
-0.015976544
-0.016108606
-0.015995057
-0.015872069
-0.015638426
-0.015098374
-0.014353919
-0.01399301
-0.014350883
-0.015463223
-0.016702256
-0.016755992
-0.016650047
-0.016562365
-0.016348768
-0.01567077
-0.014634542
-0.014090671
-0.015976544
-0.016702256
-0.01782304
-0.017848389
-0.017749651
-0.01769748
-0.017534999
-0.016819679
-0.015593507
-0.014765278
-0.016108606
-0.016755992
-0.017848389
-0.017864452
-0.017770473
-0.017743958
-0.017636455
-0.016972741
-0.015768107
-0.014951568
-0.015995057
-0.016650047
-0.017749651
-0.017770473
-0.017681607
-0.017668135
-0.017590566
-0.016967557
-0.015799733
-0.015010795
-0.015872069
-0.016562365
-0.01769748
-0.017743958
-0.017668135
-0.01766292
-0.017595838
-0.016984764
-0.015823517
-0.015030211
-0.015638426
-0.016348768
-0.017534999
-0.017636455
-0.017590566
-0.017595838
-0.017527678
-0.01690267
-0.015709823
-0.014865209
-0.015098374
-0.01567077
-0.016819679
-0.016972741
-0.016967557
-0.016984764
-0.01690267
-0.016234455
-0.014976237
-0.014070553
-0.014353919
-0.014634542
-0.015593507
-0.015768107
-0.015799733
-0.015823517
-0.015709823
-0.014976237
-0.013710458
-0.01307026
-0.01399301
-0.014090671
-0.014765278
-0.014951568
-0.015010795
-0.015030211
-0.014865209
-0.014070553
-0.01307026
-0.012632845
0.015093237
0.01487822
0.01329129
0.013293229
0.01343878
0.013552616
0.013743473
0.01424497
0.015068264
0.015454739
0.01487822
0.013823032
0.012663803
0.012729617
0.01286382
0.012936052
0.013079578
0.013670108
0.014826119
0.015439759
0.01329129
0.012663803
0.011618512
0.011709335
0.011836153
0.011871188
0.011948126
0.012529276
0.01384817
0.014768729
0.013293229
0.012729617
0.011709335
0.011808216
0.011929812
0.011939045
0.011957269
0.012467081
0.013730833
0.014613645
0.01343878
0.01286382
0.011836153
0.011929812
0.012045001
0.012039933
0.012027434
0.012493829
0.013714209
0.014562216
0.013552616
0.012936052
0.011871188
0.011939045
0.012039933
0.012024354
0.011999276
0.012452176
0.013664813
0.014516438
0.013743473
0.013079578
0.011948126
0.011957269
0.012027434
0.011999276
0.011973263
0.012440473
0.013690356
0.014605186
0.01424497
0.013670108
0.012529276
0.012467081
0.012493829
0.012452176
0.012440473
0.012960473
0.014305392
0.015334293
0.015068264
0.014826119
0.01384817
0.013730833
0.013714209
0.013664813
0.013690356
0.014305392
0.01572779
0.016549049
0.015454739
0.015439759
0.014768729
0.014613645
0.014562216
0.014516438
0.014605186
0.015334293
0.016549049
0.016976155
0.027931478
0.027767362
0.026261495
0.026376491
0.026557914
0.026671233
0.026819364
0.027243234
0.028066416
0.028428655
0.027767362
0.026779144
0.025720697
0.025889387
0.026058054
0.026128825
0.02621359
0.026679948
0.027858632
0.028476274
0.026261495
0.025720697
0.024772559
0.024963452
0.025124262
0.025157728
0.025167192
0.025584615
0.026899146
0.027832689
0.026376491
0.025889387
0.024963452
0.025160492
0.025314517
0.025321577
0.025270645
0.025601321
0.026834767
0.027711542
0.026557914
0.026058054
0.025124262
0.025314517
0.025459641
0.025450189
0.025367458
0.025651927
0.026836003
0.02767172
0.026671233
0.026128825
0.025157728
0.025321577
0.025450189
0.025427262
0.025329344
0.025597784
0.02677094
0.027606224
0.026819364
0.02621359
0.025167192
0.025270645
0.025367458
0.025329344
0.02522736
0.025507148
0.026715828
0.027614062
0.027243234
0.026679948
0.025584615
0.025601321
0.025651927
0.025597784
0.025507148
0.025840178
0.0271575
0.028204652
0.028066416
0.027858632
0.026899146
0.026834767
0.026836003
0.02677094
0.026715828
0.0271575
0.02861419
0.029565942
0.028428655
0.028476274
0.027832689
0.027711542
0.02767172
0.027606224
0.027614062
0.028204652
0.029565942
0.029947869
0.01564154
0.015509096
0.014118573
0.014332947
0.014552047
0.014668702
0.014778593
0.015115533
0.015896884
0.016220014
0.015509096
0.014591517
0.013654065
0.013915026
0.014120528
0.014195298
0.014232796
0.014573163
0.015717727
0.016311891
0.014118573
0.013654065
0.012823193
0.013103466
0.013299664
0.013336537
0.01329313
0.013552888
0.014807606
0.015714128
0.014332947
0.013915026
0.013103466
0.013387129
0.0135738
0.013582429
0.013476866
0.013637519
0.0147917
0.015627595
0.014552047
0.014120528
0.013299664
0.0135738
0.013748038
0.013736989
0.013597733
0.01370896
0.014808421
0.015598195
0.014668702
0.014195298
0.013336537
0.013582429
0.013736989
0.013709055
0.013551903
0.013644505
0.014729628
0.015514189
0.014778593
0.014232796
0.01329313
0.013476866
0.013597733
0.013551903
0.013387824
0.013488306
0.014604161
0.015444375
0.015115533
0.014573163
0.013552888
0.013637519
0.01370896
0.013644505
0.013488306
0.013638124
0.014863794
0.015866905
0.015896884
0.015717727
0.014807606
0.0147917
0.014808421
0.014729628
0.014604161
0.014863794
0.016270353
0.017301457
0.016220014
0.016311891
0.015714128
0.015627595
0.015598195
0.015514189
0.015444375
0.015866905
0.017301457
0.017624967
-0.0072971742
-0.0074041784
-0.0086519014
-0.0083475179
-0.0080930757
-0.0079769426
-0.0079079152
-0.0076623547
-0.0069504264
-0.0066697847
-0.0074041784
-0.008241466
-0.009040258
-0.0086947384
-0.0084549621
-0.0083802912
-0.0083892955
-0.0081716539
-0.0071021261
-0.0065457904
-0.0086519014
-0.009040258
-0.0097370961
-0.0093756295
-0.0091476068
-0.0091125479
-0.0092071048
-0.0090948135
-0.0079397401
-0.0070849394
-0.0083475179
-0.0086947384
-0.0093756295
-0.0090142764
-0.0087993912
-0.0087955647
-0.0089548846
-0.0089518372
-0.0079118853
-0.0071382117
-0.0080930757
-0.0084549621
-0.0091476068
-0.0087993912
-0.0086010907
-0.0086207374
-0.0088164432
-0.0088664259
-0.0078859253
-0.0071623709
-0.0079769426
-0.0083802912
-0.0091125479
-0.0087955647
-0.0086207374
-0.0086608608
-0.0088771254
-0.0089480465
-0.0079847002
-0.0072703684
-0.0079079152
-0.0083892954
-0.0092071048
-0.0089548846
-0.0088164432
-0.0088771254
-0.0091024811
-0.00916807
-0.0081785625
-0.0074174222
-0.0076623547
-0.0081716539
-0.0090948135
-0.0089518372
-0.0088664259
-0.0089480465
-0.00916807
-0.0091885154
-0.0080933919
-0.0071687076
-0.0069504264
-0.0071021261
-0.0079397401
-0.0079118853
-0.0078859253
-0.0079847002
-0.0081785625
-0.0080933919
-0.0067934632
-0.0057312697
-0.0066697847
-0.0065457904
-0.0070849394
-0.0071382117
-0.0071623709
-0.0072703684
-0.0074174222
-0.0071687076
-0.0057312697
-0.0054679436
-0.022530293
-0.022608116
-0.023694485
-0.023309113
-0.023025587
-0.022918611
-0.022898662
-0.022750474
-0.022130723
-0.021896719
-0.022608116
-0.023352323
-0.024001223
-0.023579563
-0.023312228
-0.023247118
-0.023309481
-0.023213986
-0.022253097
-0.021747846
-0.023694485
-0.024001223
-0.024554028
-0.024120279
-0.023867813
-0.023844946
-0.023997295
-0.024026136
-0.023003431
-0.022221045
-0.023309113
-0.023579563
-0.024120279
-0.023690574
-0.023455237
-0.023467224
-0.023687608
-0.023833891
-0.02293724
-0.022244189
-0.023025587
-0.023312228
-0.023867813
-0.023455237
-0.023240753
-0.023280154
-0.023540018
-0.02374295
-0.022909783
-0.022269932
-0.022918611
-0.023247118
-0.023844946
-0.023467224
-0.023280154
-0.023343483
-0.023626373
-0.023852182
-0.023038223
-0.022410431
-0.022898662
-0.023309481
-0.023997295
-0.023687608
-0.023540018
-0.023626373
-0.023919868
-0.024141779
-0.023304806
-0.022637655
-0.022750474
-0.023213986
-0.024026136
-0.023833891
-0.02374295
-0.023852182
-0.024141779
-0.024321403
-0.023383739
-0.022558048
-0.022130723
-0.022253097
-0.023003431
-0.02293724
-0.022909783
-0.023038223
-0.023304806
-0.023383739
-0.022228711
-0.021179689
-0.021896719
-0.021747846
-0.022221045
-0.022244189
-0.022269932
-0.022410431
-0.022637655
-0.022558048
-0.021179689
-0.020974999
-0.021611608
-0.021653648
-0.022569612
-0.022114148
-0.021810439
-0.021722448
-0.021760749
-0.02171576
-0.02120625
-0.02102526
-0.021653648
-0.022293891
-0.022789682
-0.022302689
-0.022017015
-0.021971973
-0.022096271
-0.022123463
-0.021297137
-0.02085627
-0.022569612
-0.022789682
-0.0231964
-0.022701457
-0.02243397
-0.022434164
-0.022652578
-0.022818337
-0.021952914
-0.021260836
-0.022114148
-0.022302689
-0.022701457
-0.022214536
-0.021968074
-0.022006772
-0.022296581
-0.02258602
-0.021854633
-0.021258238
-0.021810439
-0.022017015
-0.02243397
-0.021968074
-0.021746417
-0.021816164
-0.022148453
-0.022497728
-0.021832998
-0.021292008
-0.021722448
-0.021971973
-0.022434164
-0.022006772
-0.021816164
-0.021912866
-0.022270284
-0.022643941
-0.021999771
-0.021472602
-0.021760749
-0.022096271
-0.022652578
-0.022296581
-0.022148453
-0.022270284
-0.022639303
-0.023009647
-0.022344191
-0.021782889
-0.02171576
-0.022123463
-0.022818337
-0.02258602
-0.022497728
-0.022643941
-0.023009647
-0.023339127
-0.022576791
-0.021863022
-0.02120625
-0.021297137
-0.021952914
-0.021854633
-0.021832998
-0.021999771
-0.022344191
-0.022576791
-0.021591025
-0.020592683
-0.02102526
-0.02085627
-0.021260836
-0.021258238
-0.021292008
-0.021472602
-0.021782889
-0.021863022
-0.020592683
-0.020445101
-0.0078911452
-0.0078928841
-0.0086378076
-0.0081254452
-0.0078114861
-0.0077508021
-0.0078537875
-0.007914754
-0.007527004
-0.0074050949
-0.0078928841
-0.0084232052
-0.008770092
-0.0082309961
-0.0079369356
-0.0079205189
-0.0081126172
-0.0082610253
-0.0075857621
-0.0072201682
-0.0086378076
-0.008770092
-0.0090358243
-0.0084929111
-0.0082201418
-0.0082517336
-0.008541352
-0.0088385265
-0.0081455048
-0.0075569259
-0.0081254452
-0.0082309961
-0.0084929111
-0.007961723
-0.0077134035
-0.0077866704
-0.0081505269
-0.0085755569
-0.0080219286
-0.0075335905
-0.0078114861
-0.0079369356
-0.0082201418
-0.0077134035
-0.0074932127
-0.0076005302
-0.0080093588
-0.0084966249
-0.0080118223
-0.0075802103
-0.0077508021
-0.0079205189
-0.0082517336
-0.0077866704
-0.0076005302
-0.007737207
-0.0081727869
-0.0086854761
-0.0082220061
-0.0078051513
-0.0078537875
-0.0081126172
-0.008541352
-0.0081505269
-0.0080093588
-0.0081727869
-0.0086205705
-0.0091300381
-0.0086460416
-0.0081983348
-0.007914754
-0.0082610253
-0.0088385265
-0.0085755569
-0.0084966249
-0.0086854761
-0.0091300381
-0.0095991346
-0.0090208103
-0.0084259784
-0.007527004
-0.0075857621
-0.0081455048
-0.0080219286
-0.0080118223
-0.0082220061
-0.0086460416
-0.0090208103
-0.0082167118
-0.0072973084
-0.0074050949
-0.0072201682
-0.0075569259
-0.0075335905
-0.0075802103
-0.0078051513
-0.0081983348
-0.0084259784
-0.0072973084
-0.0072054777
0.0091110391
0.0091500508
0.0085701707
0.0091245109
0.0094391025
0.0094671008
0.0092975676
0.0091326577
0.0093945559
0.009454089
0.0091500508
0.0087298924
0.0085218793
0.0090982077
0.009391301
0.0093739384
0.0091130153
0.0088488957
0.0093663791
0.0096503304
0.0085701707
0.0085218793
0.0083865403
0.0089628167
0.0092320387
0.0091645661
0.0088038901
0.0083843605
0.0089001064
0.0093781419
0.0091245109
0.0090982077
0.0089628167
0.0095241848
0.009766244
0.0096547482
0.0092179748
0.0086685661
0.0090420652
0.0094171608
0.0094391025
0.009391301
0.0092320387
0.009766244
0.0099776686
0.0098299518
0.0093464909
0.0087334428
0.0090370386
0.0093549791
0.0094671008
0.0093739384
0.0091645661
0.0096547482
0.0098299518
0.0096511941
0.0091399044
0.0085008456
0.0087827903
0.0090856087
0.0092975676
0.0091130153
0.0088038901
0.0092179748
0.0093464909
0.0091399044
0.0086160911
0.0079803512
0.0082825118
0.0086141826
0.0091326577
0.0088488957
0.0083843605
0.0086685661
0.0087334428
0.0085008456
0.0079803512
0.0073848103
0.0077794402
0.0082537685
0.0093945559
0.0093663791
0.0089001064
0.0090420652
0.0090370386
0.0087827903
0.0082825118
0.0077794402
0.008399684
0.0092219705
0.009454089
0.0096503304
0.0093781419
0.0094171608
0.0093549791
0.0090856087
0.0086141826
0.0082537685
0.0092219705
0.009260205
0.020442924
0.020519032
0.020093384
0.020674046
0.020980837
0.02097408
0.02074096
0.020479167
0.020618092
0.020615875
0.020519032
0.020204128
0.02012095
0.020719063
0.021003222
0.02095057
0.020624925
0.020255193
0.020616888
0.020818081
0.020093384
0.02012095
0.020101738
0.020696388
0.020954798
0.020850876
0.020424735
0.019896204
0.020238922
0.020605691
0.020674046
0.020719063
0.020696388
0.021273612
0.02150298
0.021353684
0.020850838
0.020192569
0.020392644
0.020655688
0.020980837
0.021003222
0.020954798
0.02150298
0.021700101
0.021513321
0.020962977
0.020240745
0.02037095
0.020577286
0.02097408
0.02095057
0.020850876
0.021353684
0.021513321
0.021294568
0.020715872
0.019967463
0.020076043
0.02026726
0.02074096
0.020624925
0.020424735
0.020850838
0.020962977
0.020715872
0.020124533
0.019379512
0.019508033
0.019726725
0.020479167
0.020255193
0.019896204
0.020192569
0.020240745
0.019967463
0.019379512
0.018674345
0.018893469
0.019250675
0.020618092
0.020616888
0.020238922
0.020392644
0.02037095
0.020076043
0.019508033
0.018893469
0.019335893
0.020052123
0.020615875
0.020818081
0.020605691
0.020655688
0.020577286
0.02026726
0.019726725
0.019250675
0.020052123
0.020040597
0.021745535
0.021851908
0.021566497
0.022158143
0.02245032
0.022409699
0.022120029
0.02177274
0.021797236
0.02173775
0.021851908
0.021633392
0.021658695
0.022263612
0.02253259
0.022446279
0.022064292
0.021603116
0.021817875
0.021940032
0.021566497
0.021658695
0.021739317
0.022337937
0.022580052
0.022442348
0.021960752
0.02134041
0.021521501
0.021781782
0.022158143
0.022263612
0.022337937
0.022917333
0.023129378
0.022945973
0.022388394
0.021640537
0.021680963
0.021838616
0.02245032
0.02253259
0.022580052
0.023129378
0.023308439
0.023087177
0.022482202
0.021671114
0.021642773
0.021744997
0.022409699
0.022446279
0.022442348
0.022945973
0.023087177
0.022833719
0.022200392
0.021363342
0.021313668
0.021401007
0.022120029
0.022064292
0.021960752
0.022388394
0.022482202
0.022200392
0.021554451
0.020720713
0.020690479
0.020804054
0.02177274
0.021603116
0.02134041
0.021640537
0.021671114
0.021363342
0.020720713
0.019925998
0.019983941
0.020231548
0.021797236
0.021817875
0.021521501
0.021680963
0.021642773
0.021313668
0.020690479
0.019983941
0.0202607
0.020869366
0.02173775
0.021940032
0.021781782
0.021838616
0.021744997
0.021401007
0.020804054
0.020231548
0.020869366
0.020813931
0.013852367
0.013980258
0.013819259
0.014407754
0.014680217
0.014608857
0.014272508
0.013854177
0.013776818
0.013667585
0.013980258
0.013846658
0.013963174
0.01456122
0.014810491
0.014694423
0.014267378
0.013731823
0.013813318
0.013863931
0.013819259
0.013963174
0.014126654
0.014716183
0.014938218
0.014771635
0.014247462
0.013555155
0.013590968
0.013753718
0.014407754
0.01456122
0.014716183
0.015285395
0.015477121
0.015265457
0.014667282
0.013851587
0.013750917
0.013813887
0.014680217
0.014810491
0.014938218
0.015477121
0.015635916
0.015386818
0.014742188
0.013864961
0.013697609
0.013707185
0.014608857
0.014694423
0.014771635
0.015265457
0.015386818
0.015105938
0.014433423
0.01353078
0.013342606
0.013337687
0.014272508
0.014267378
0.014247462
0.014667282
0.014742188
0.014433423
0.013748438
0.01284885
0.01267928
0.012699216
0.013854177
0.013731823
0.013555155
0.013851587
0.013864961
0.01353078
0.01284885
0.01198685
0.011902159
0.012050815
0.013776818
0.013813318
0.013590968
0.013750917
0.013697609
0.013342606
0.01267928
0.011902159
0.012029543
0.012534501
0.013667585
0.013863931
0.013753718
0.013813887
0.013707185
0.013337687
0.012699216
0.012050815
0.012534501
0.01244282
0.0010744403
0.0012144086
0.0011612304
0.0017342437
0.001983464
0.0018858797
0.0015142111
0.0010409336
0.00087669265
0.00072716904
0.0012144086
0.0011529056
0.0013435081
0.0019228549
0.0021494089
0.0020088157
0.0015494222
0.00095803075
0.00092285577
0.00091190139
0.0011612304
0.0013435081
0.0015731688
0.002142376
0.002341974
0.0021526203
0.0016000145
0.00085677445
0.00076655263
0.00084347574
0.0017342437
0.0019228549
0.002142376
0.0026908084
0.0028605416
0.002627537
0.0020040046
0.0011431574
0.00092257591
0.00090409391
0.001983464
0.0021494089
0.002341974
0.0028605416
0.0029980683
0.0027287274
0.0020603992
0.0011405511
0.00085623504
0.00078704863
0.0018858797
0.0020088157
0.0021526203
0.002627537
0.0027287274
0.0024285478
0.0017332038
0.00078878237
0.0004843486
0.00040118482
0.0015142111
0.0015494222
0.0016000145
0.0020040046
0.0020603992
0.0017332038
0.001025642
8.3858241e-05
-0.00020313866
-0.00026307226
0.0010409336
0.00095803075
0.00085677446
0.0011431574
0.0011405511
0.00078878237
8.3858241e-05
-0.00082235923
-0.0010287299
-0.00096632368
0.00087669265
0.00092285577
0.00076655263
0.00092257591
0.00085623504
0.0004843486
-0.00020313866
-0.0010287299
-0.0010320013
-0.00062341368
0.00072716904
0.00091190139
0.00084347574
0.00090409391
0.00078704863
0.00040118482
-0.00026307226
-0.00096632368
-0.00062341368
-0.00074243422
-0.011281784
-0.011138879
-0.011100825
-0.010553505
-0.010329742
-0.010448413
-0.010843734
-0.011355539
-0.011590699
-0.011770224
-0.011138879
-0.011141424
-0.010893013
-0.010342085
-0.010140031
-0.010299412
-0.010778298
-0.011406863
-0.011540778
-0.011602061
-0.011100825
-0.010893013
-0.010612896
-0.010073191
-0.0098972721
-0.010102947
-0.01066993
-0.011443301
-0.011639124
-0.011634886
-0.010553505
-0.010342085
-0.010073191
-0.0095541759
-0.0094071191
-0.0096543639
-0.010288307
-0.011172149
-0.011490597
-0.011576143
-0.010329742
-0.010140031
-0.0098972721
-0.0094071191
-0.0092910013
-0.0095729433
-0.010249439
-0.011189062
-0.011567576
-0.011700595
-0.010448413
-0.010299412
-0.010102947
-0.0096543639
-0.0095729433
-0.0098843461
-0.010586653
-0.011549748
-0.011947492
-0.01209385
-0.010843734
-0.010778298
-0.01066993
-0.010288307
-0.010249439
-0.010586653
-0.011300816
-0.012261793
-0.012643526
-0.012768506
-0.011355539
-0.011406863
-0.011443301
-0.011172149
-0.011189062
-0.011549748
-0.012261793
-0.013189701
-0.013495923
-0.013506022
-0.011590699
-0.011540778
-0.011639124
-0.011490597
-0.011567576
-0.011947492
-0.012643526
-0.013495923
-0.013610092
-0.013288548
-0.011770224
-0.011602061
-0.011634886
-0.011576143
-0.011700595
-0.01209385
-0.012768506
-0.013506022
-0.013288548
-0.013425467
-0.018994902
-0.018857198
-0.018743962
-0.01823035
-0.018033205
-0.018167777
-0.018575655
-0.019110285
-0.019400502
-0.019599817
-0.018857198
-0.018813486
-0.018522266
-0.018007315
-0.017830593
-0.018003118
-0.018489427
-0.019137477
-0.019352065
-0.019452185
-0.018743962
-0.018522266
-0.01820608
-0.017702972
-0.017551138
-0.017766948
-0.018335306
-0.019119376
-0.019400456
-0.019455381
-0.01823035
-0.018007315
-0.017702972
-0.017220026
-0.017095614
-0.017350416
-0.017981088
-0.018867452
-0.019262178
-0.019400324
-0.018033205
-0.017830593
-0.017551138
-0.017095614
-0.017000453
-0.017287893
-0.017958421
-0.018896799
-0.019347354
-0.019529318
-0.018167777
-0.018003118
-0.017766948
-0.017350416
-0.017287893
-0.017603075
-0.01829793
-0.019258451
-0.01972717
-0.019921715
-0.018575655
-0.018489427
-0.018335306
-0.017981088
-0.017958421
-0.01829793
-0.019004165
-0.019963121
-0.020417413
-0.020592585
-0.019110285
-0.019137477
-0.019119376
-0.018867452
-0.018896799
-0.019258451
-0.019963121
-0.020891834
-0.021276404
-0.021345081
-0.019400502
-0.019352065
-0.019400456
-0.019262178
-0.019347354
-0.01972717
-0.020417413
-0.021276404
-0.021481735
-0.021236994
-0.019599817
-0.019452185
-0.019455381
-0.019400324
-0.019529318
-0.019921715
-0.020592585
-0.021345081
-0.021236994
-0.021382523
-0.020057746
-0.019931957
-0.019758703
-0.019284681
-0.019114469
-0.019260065
-0.019670521
-0.020213688
-0.020543955
-0.020753582
-0.019931957
-0.019853751
-0.019533215
-0.01905972
-0.018908414
-0.019088883
-0.019571896
-0.020223461
-0.020501347
-0.020629301
-0.019758703
-0.019533215
-0.019193807
-0.018732388
-0.018604406
-0.018824766
-0.019383112
-0.020160583
-0.02050754
-0.020608499
-0.019284681
-0.01905972
-0.018732388
-0.018290254
-0.018187924
-0.018444338
-0.019059871
-0.019930726
-0.020381482
-0.020558461
-0.019114469
-0.018908414
-0.018604406
-0.018187924
-0.01811284
-0.018399522
-0.019051874
-0.019970571
-0.020472494
-0.020689341
-0.019260065
-0.019088883
-0.018824766
-0.018444338
-0.018399522
-0.018711962
-0.019386935
-0.020326248
-0.020845104
-0.021073654
-0.019670521
-0.019571896
-0.019383112
-0.019059871
-0.019051874
-0.019386935
-0.020072688
-0.021010965
-0.021517035
-0.021728279
-0.020213688
-0.020223461
-0.020160583
-0.019930726
-0.019970571
-0.020326248
-0.021010965
-0.021921998
-0.022364585
-0.022478412
-0.020543955
-0.020501347
-0.02050754
-0.020381482
-0.020472494
-0.020845104
-0.021517035
-0.022364585
-0.022642122
-0.022463764
-0.020753582
-0.020629301
-0.020608499
-0.020558461
-0.020689341
-0.021073654
-0.021728279
-0.022478412
-0.022463764
-0.022609334
-0.014824225
-0.014715445
-0.014496225
-0.014065694
-0.013922031
-0.014074243
-0.01447867
-0.015017888
-0.015374517
-0.015586118
-0.014715445
-0.014613265
-0.014275305
-0.013846814
-0.013720395
-0.013904199
-0.0143748
-0.015016044
-0.015341064
-0.015486821
-0.014496225
-0.014275305
-0.013923905
-0.01350741
-0.013402521
-0.013622576
-0.014161372
-0.014917491
-0.015312437
-0.015447218
-0.014065694
-0.013846814
-0.01350741
-0.013109052
-0.01302781
-0.013280738
-0.013871288
-0.01471144
-0.015199829
-0.015403069
-0.013922031
-0.013720395
-0.013402521
-0.01302781
-0.01297158
-0.013252186
-0.013876282
-0.014759826
-0.015294442
-0.015533422
-0.014074243
-0.013904199
-0.013622576
-0.013280738
-0.013252186
-0.01355637
-0.014201208
-0.015103677
-0.015653852
-0.015903551
-0.01447867
-0.0143748
-0.014161372
-0.013871288
-0.013876282
-0.014201208
-0.014856106
-0.015758
-0.016297008
-0.016531455
-0.015017888
-0.015016044
-0.014917491
-0.01471144
-0.014759826
-0.015103677
-0.015758
-0.0166357
-0.017117694
-0.017264227
-0.015374517
-0.015341064
-0.015312437
-0.015199829
-0.015294442
-0.015653852
-0.016297008
-0.017117694
-0.017449769
-0.017327661
-0.015586118
-0.015486821
-0.015447218
-0.015403069
-0.015533422
-0.015903551
-0.016531455
-0.017264227
-0.017327661
-0.01746582
-0.0054425438
-0.0053542153
-0.005101831
-0.0047169012
-0.0045987976
-0.0047537268
-0.0051449406
-0.0056696753
-0.0060405288
-0.0062471128
-0.0053542153
-0.0052371869
-0.0048920835
-0.0045103996
-0.0044078
-0.0045909433
-0.0050416559
-0.0056610289
-0.0060185077
-0.0061732883
-0.005101831
-0.0048920835
-0.0045383037
-0.0041682822
-0.0040852694
-0.0043008897
-0.0048124544
-0.00553514
-0.0059619573
-0.0061195709
-0.0047169012
-0.0045103996
-0.0041682822
-0.0038150537
-0.0037535199
-0.003998688
-0.0045564239
-0.005353618
-0.0058633361
-0.0060817412
-0.0045987976
-0.0044078
-0.0040852694
-0.0037535199
-0.0037146154
-0.0039847263
-0.0045725896
-0.0054085697
-0.005959437
-0.006209392
-0.0047537268
-0.0045909433
-0.0043008897
-0.003998688
-0.0039847263
-0.0042761077
-0.0048827085
-0.005735802
-0.0063007431
-0.0065603505
-0.0051449406
-0.0050416559
-0.0048124544
-0.0045564239
-0.0045725896
-0.0048827085
-0.005498547
-0.0063514352
-0.0069067541
-0.0071530901
-0.0056696753
-0.0056610289
-0.00553514
-0.005353618
-0.0054085697
-0.005735802
-0.0063514352
-0.0071831277
-0.0076879454
-0.0078560454
-0.0060405288
-0.0060185077
-0.0059619573
-0.0058633361