/*--------------------------------*- C++ -*----------------------------------*\
| =========                 |                                                 |
| \\      /  F ield         | OpenFOAM: The Open Source CFD Toolbox           |
|  \\    /   O peration     | Version:  v2106                                 |
|   \\  /    A nd           | Website:  www.openfoam.com                      |
|    \\/     M anipulation  |                                                 |
\*---------------------------------------------------------------------------*/
FoamFile
{
    version     2.0;
    format      ascii;
    arch        "LSB;label=32;scalar=64";
    class       volScalarField;
    location    "100";
    object      Tmode_lapla10;
}
// * * * * * * * * * * * * * * * * * * * * * * * * * * * * * * * * * * * * * //

dimensions      [0 -2 0 0 0 0 0];

internalField   nonuniform List<scalar> 
4000
(
-56.804713
-58.489711
-57.572633
-58.387334
-58.188215
-58.129618
-58.079075
-57.998998
-57.962117
-58.140691
-58.489711
-56.333864
-57.553134
-57.945731
-57.747581
-57.698885
-57.638979
-57.489922
-57.274964
-57.680608
-57.572633
-57.553134
-57.880317
-58.269109
-58.092572
-58.053877
-58.002391
-57.817568
-57.369558
-57.704709
-58.387334
-57.945731
-58.269109
-58.675579
-58.502976
-58.467973
-58.436013
-58.293846
-57.864192
-58.032499
-58.188215
-57.747581
-58.092572
-58.502976
-58.327208
-58.288705
-58.259259
-58.134571
-57.749788
-57.973117
-58.129618
-57.698885
-58.053877
-58.467973
-58.288705
-58.246155
-58.214492
-58.09073
-57.711186
-57.944649
-58.079075
-57.638979
-58.002391
-58.436013
-58.259259
-58.214492
-58.182857
-58.061558
-57.685233
-57.921231
-57.998998
-57.489922
-57.817568
-58.293846
-58.134571
-58.09073
-58.061558
-57.945709
-57.575585
-57.815355
-57.962117
-57.274964
-57.369558
-57.864192
-57.749788
-57.711186
-57.685233
-57.575585
-57.216529
-57.472813
-58.140691
-57.680608
-57.704709
-58.032499
-57.973117
-57.944649
-57.921231
-57.815355
-57.472813
-57.785833
-735.41612
-753.7659
-735.92811
-742.18922
-741.90316
-741.69333
-741.68515
-741.6961
-741.67403
-741.95609
-753.7659
-751.72945
-745.01388
-749.41301
-748.96508
-748.76523
-748.74944
-748.81193
-749.29618
-747.41065
-735.92811
-745.01388
-735.63091
-739.87235
-739.46373
-739.28019
-739.20219
-739.09727
-740.21901
-742.7718
-742.18922
-749.41301
-739.87235
-744.12917
-743.74441
-743.58779
-743.50597
-743.15813
-743.26267
-744.08604
-741.90316
-748.96508
-739.46373
-743.74441
-743.3721
-743.23462
-743.20896
-742.97799
-743.2245
-744.09268
-741.69333
-748.76523
-739.28019
-743.58779
-743.23462
-743.09829
-743.08054
-742.87682
-743.17168
-744.08958
-741.68515
-748.74944
-739.20219
-743.50597
-743.20896
-743.08054
-743.05827
-742.85076
-743.14298
-744.05644
-741.6961
-748.81193
-739.09727
-743.15813
-742.97799
-742.87682
-742.85076
-742.63085
-742.90595
-743.80976
-741.67403
-749.29618
-740.21901
-743.26267
-743.2245
-743.17168
-743.14298
-742.90595
-743.17399
-744.12899
-741.95609
-747.41065
-742.7718
-744.08604
-744.09268
-744.08958
-744.05644
-743.80976
-744.12899
-745.33385
611.52711
596.12535
612.33924
605.57957
606.08415
606.33617
606.36153
606.40235
606.47147
611.23732
596.12535
599.63469
605.47613
600.73137
601.36734
601.60806
601.6951
601.47519
597.75399
603.10266
612.33924
605.47613
613.9538
609.32869
609.90385
610.12411
610.41353
611.04753
607.42221
608.10436
605.57957
600.73137
609.32869
604.6779
605.21901
605.37703
605.60639
606.51831
604.17224
606.81161
606.08415
601.36734
609.90385
605.21901
605.74918
605.88188
606.01787
606.7393
604.19591
606.78477
606.33617
601.60806
610.12411
605.37703
605.88188
606.02002
606.14961
606.83432
604.2282
606.76759
606.36153
601.6951
610.41353
605.60639
606.01787
606.14961
606.28927
606.98413
604.39043
606.94996
606.40235
601.47519
611.04753
606.51831
606.7393
606.83432
606.98413
607.70518
605.1451
607.63841
606.47147
597.75399
607.42221
604.17224
604.19591
604.2282
604.39043
605.1451
602.56003
604.74585
611.23732
603.10266
608.10436
606.81161
606.78477
606.76759
606.94996
607.63841
604.74585
608.89746
202.64029
183.60338
199.70524
193.36523
193.88628
194.11719
194.14534
194.01191
191.75589
197.04461
183.60338
185.14334
191.2688
186.7646
187.38358
187.62777
188.02164
188.6384
181.49949
187.70252
199.70524
191.2688
199.72635
195.32161
195.86035
196.01613
196.54789
198.45637
191.81039
193.05126
193.36523
186.7646
195.32161
190.89732
191.40376
191.46404
191.8264
193.95833
188.63129
191.81309
193.88628
187.38358
195.86035
191.40376
191.91106
191.95142
192.20024
194.10746
188.5752
191.72907
194.11719
187.62777
196.01613
191.46404
191.95142
192.00566
192.25084
194.11801
188.52316
191.65483
194.14534
188.02164
196.54789
191.8264
192.20024
192.25084
192.51065
194.39687
188.83454
192.03039
194.01191
188.6384
198.45637
193.95833
194.10746
194.11801
194.39687
196.33183
190.82175
193.75577
191.75589
181.49949
191.81039
188.63129
188.5752
188.52316
188.83454
190.82175
185.09291
186.33632
197.04461
187.70252
193.05126
191.81309
191.72907
191.65483
192.03039
193.75577
186.33632
196.53508
-238.87297
-260.00801
-243.20901
-249.05734
-248.68466
-248.49916
-248.32389
-247.83902
-250.61359
-244.85975
-260.00801
-259.52706
-252.56245
-256.84433
-256.42042
-256.309
-255.7919
-253.83093
-261.74162
-254.4136
-243.20901
-252.56245
-243.5464
-247.71672
-247.36588
-247.39772
-246.92198
-243.64061
-251.10106
-248.96268
-249.05734
-256.84433
-247.71672
-251.88717
-251.5507
-251.672
-251.41909
-247.94955
-254.14382
-250.16554
-248.68466
-256.42042
-247.36588
-251.5507
-251.199
-251.32719
-251.18544
-247.93167
-254.30451
-250.31667
-248.49916
-256.309
-247.39772
-251.672
-251.32719
-251.43477
-251.29444
-248.07852
-254.50338
-250.4918
-248.32389
-255.7919
-246.92198
-251.41909
-251.18544
-251.29444
-251.13767
-247.89113
-254.24426
-250.04579
-247.83902
-253.83093
-243.64061
-247.94955
-247.93167
-248.07852
-247.89113
-244.54952
-250.76137
-246.85907
-250.61359
-261.74162
-251.10106
-254.14382
-254.30451
-254.50338
-254.24426
-250.76137
-257.34245
-257.92184
-244.85975
-254.4136
-248.96268
-250.16554
-250.31667
-250.4918
-250.04579
-246.85907
-257.92184
-243.48939
-239.3743
-259.73676
-242.81819
-248.37781
-248.23495
-248.15919
-248.03249
-247.18455
-249.8423
-243.57933
-259.73676
-258.63514
-251.44379
-255.66808
-255.48324
-255.55544
-255.29505
-252.90761
-261.01407
-252.93943
-242.81819
-251.44379
-242.38409
-246.46563
-246.31881
-246.51148
-246.35171
-242.67583
-250.44631
-247.58056
-248.37781
-255.66808
-246.46563
-250.5311
-250.38239
-250.63949
-250.69329
-246.81525
-253.38112
-248.77466
-248.23495
-255.48324
-246.31881
-250.38239
-250.21079
-250.46439
-250.61512
-246.91895
-253.62189
-248.96922
-248.15919
-255.55544
-246.51148
-250.63949
-250.46439
-250.6959
-250.84928
-247.18975
-253.93805
-249.23236
-248.03249
-255.29505
-246.35171
-250.69329
-250.61512
-250.84928
-250.99117
-247.29717
-253.93742
-248.8941
-247.18455
-252.90761
-242.67583
-246.81525
-246.91895
-247.18975
-247.29717
-243.45173
-249.76246
-244.64621
-249.8423
-261.01407
-250.44631
-253.38112
-253.62189
-253.93805
-253.93742
-249.76246
-256.09337
-257.87187
-243.57933
-252.93943
-247.58056
-248.77466
-248.96922
-249.23236
-248.8941
-244.64621
-257.87187
-240.94536
-22.351188
-41.854351
-25.257298
-30.690696
-30.750612
-30.745401
-30.732807
-29.932459
-32.704016
-26.490353
-41.854351
-40.422404
-33.448456
-37.708633
-37.695999
-37.81374
-37.736034
-35.465762
-43.803245
-35.654534
-25.257298
-33.448456
-24.705143
-28.792939
-28.791379
-28.990523
-28.992523
-25.466868
-33.552229
-30.474886
-30.690696
-37.708633
-28.792939
-32.854426
-32.842899
-33.084298
-33.261283
-29.494795
-36.424273
-31.675577
-30.750612
-37.695999
-28.791379
-32.842899
-32.807752
-33.041451
-33.29923
-29.675124
-36.700455
-31.875723
-30.745401
-37.81374
-28.990523
-33.084298
-33.041451
-33.256194
-33.521343
-29.937531
-37.013963
-32.143126
-30.732807
-37.736034
-28.992523
-33.261283
-33.29923
-33.521343
-33.788934
-30.190973
-37.173876
-31.910193
-29.932459
-35.465762
-25.466868
-29.494795
-29.675124
-29.937531
-30.190973
-26.447395
-33.002019
-27.243018
-32.704016
-43.803245
-33.552229
-36.424273
-36.700455
-37.013963
-37.173876
-33.002019
-39.092001
-41.481399
-26.490353
-35.654534
-30.474886
-31.675577
-31.875723
-32.143126
-31.910193
-27.243018
-41.481399
-23.294224
146.94376
127.99241
144.06981
138.67028
138.47157
138.49132
138.51774
139.27126
136.42117
142.41657
127.99241
129.3169
135.88173
131.55066
131.45301
131.39947
131.51576
133.65735
125.30185
133.36173
144.06981
135.88173
144.17655
140.04282
139.94957
139.84563
139.93203
143.29486
135.14711
138.34479
138.67028
131.55066
140.04282
135.94187
135.86074
135.72849
135.68418
139.3286
132.30169
137.13138
138.47157
131.45301
139.94957
135.86074
135.80001
135.67505
135.56432
139.10226
132.01555
136.94777
138.49132
131.39947
139.84563
135.72849
135.67505
135.56477
135.44388
138.94104
131.79865
136.75569
138.51774
131.51576
139.93203
135.68418
135.56432
135.44388
135.31042
138.79871
131.70909
137.01398
139.27126
133.65735
143.29486
139.3286
139.10226
138.94104
138.79871
142.38593
135.69591
141.68008
136.42117
125.30185
135.14711
132.30169
132.01555
131.79865
131.70909
135.69591
129.73271
127.21581
142.41657
133.36173
138.34479
137.13138
136.94777
136.75569
137.01398
141.68008
127.21581
145.93506
172.97517
154.28128
169.7556
164.3551
164.06604
164.12766
164.24045
165.01667
162.20299
168.05562
154.28128
155.16394
161.26888
156.8781
156.71295
156.75021
157.01854
159.11858
150.96731
159.03635
169.7556
161.26888
169.0933
164.91769
164.76438
164.77146
165.06246
168.35051
160.39661
163.83098
164.3551
156.8781
164.91769
160.77779
160.63498
160.62023
160.81855
164.41969
157.56088
162.60672
164.06604
156.71295
164.76438
160.63498
160.50733
160.49647
160.63884
164.16087
157.26989
162.44163
164.12766
156.75021
164.77146
160.62023
160.49647
160.49574
160.62748
164.11336
157.17057
162.35332
164.24045
157.01854
165.06246
160.81855
160.63884
160.62748
160.74514
164.21346
157.29422
162.74478
165.01667
159.11858
168.35051
164.41969
164.16087
164.11336
164.21346
167.7415
161.14328
167.22024
162.20299
150.96731
160.39661
157.56088
157.26989
157.17057
157.29422
161.14328
155.28722
153.00506
168.05562
159.03635
163.83098
162.60672
162.44163
162.35332
162.74478
167.22024
153.00506
171.88292
95.430152
76.821653
91.644596
86.256884
85.917819
86.021752
86.235231
87.072116
84.375216
90.209806
76.821653
77.051082
82.707089
78.297533
78.099177
78.219554
78.663885
80.785842
72.973556
81.188616
91.644596
82.707089
90.075472
85.890678
85.705921
85.806975
86.317179
89.597015
81.997596
85.802804
86.256884
78.297533
85.890678
81.741635
81.563835
81.644344
82.089496
85.70159
79.175708
84.577455
85.917819
78.099177
85.705921
81.563835
81.395516
81.475187
81.870488
85.420845
78.880301
84.425329
86.021752
78.219554
85.806975
81.644344
81.475187
81.560258
81.944557
85.464148
78.879566
84.431624
86.235231
78.663885
86.317179
82.089496
81.870488
81.944557
82.317038
85.821094
79.249313
84.996393
87.072116
80.785842
89.597015
85.70159
85.420845
85.464148
85.821094
89.366195
83.04182
89.233837
84.375216
72.973556
81.997596
79.175708
78.880301
78.879566
79.249313
83.04182
77.331316
75.507883
90.209806
81.188616
85.802804
84.577455
84.425329
84.431624
84.996393
89.233837
75.507883
94.377307
-5.231387
-23.796188
-9.6772401
-15.007386
-15.366226
-15.228139
-14.926636
-14.019523
-16.559907
-10.650099
-23.796188
-24.329341
-19.094197
-23.468251
-23.676759
-23.492807
-22.893723
-20.717986
-28.12724
-19.672177
-9.67724
-19.094197
-12.166436
-16.313289
-16.509759
-16.341099
-15.646375
-12.340063
-19.5048
-15.239906
-15.007386
-23.468251
-16.313289
-20.425934
-20.61944
-20.472859
-19.825729
-16.179349
-22.292517
-16.451274
-15.366226
-23.676759
-16.509759
-20.61944
-20.808488
-20.667356
-20.067116
-16.472963
-22.591492
-16.596335
-15.228139
-23.492807
-16.341099
-20.472859
-20.667356
-20.524921
-19.936259
-16.3687
-22.523744
-16.519917
-14.926636
-22.893723
-15.646375
-19.825729
-20.067116
-19.936259
-19.356481
-15.798268
-21.939416
-15.793132
-14.019523
-20.717986
-12.340063
-16.179349
-16.472963
-16.3687
-15.798268
-12.202658
-18.147995
-11.770491
-16.559907
-28.12724
-19.5048
-22.292517
-22.591492
-22.523744
-21.939416
-18.147995
-23.654486
-24.915418
-10.650099
-19.672177
-15.239906
-16.451273
-16.596335
-16.519917
-15.793132
-11.770491
-24.915418
-6.1212781
-70.894862
-89.370355
-76.016889
-81.226332
-81.585297
-81.42474
-81.058523
-80.088009
-82.456485
-76.427811
-89.370355
-90.70607
-85.861819
-90.139948
-90.345708
-90.121059
-89.407261
-87.170198
-94.149421
-85.416699
-76.016889
-85.861819
-79.366175
-83.420268
-83.617006
-83.407913
-82.581962
-79.241642
-85.938734
-81.176953
-81.226332
-90.139948
-83.420268
-87.442388
-87.639838
-87.455609
-86.668064
-82.989327
-88.661717
-82.356948
-81.585297
-90.345708
-83.617006
-87.639838
-87.836896
-87.662028
-86.920333
-83.289315
-88.96301
-82.499351
-81.42474
-90.121059
-83.407913
-87.455609
-87.662028
-87.489004
-86.75936
-83.151919
-88.855986
-82.379672
-81.058523
-89.407261
-82.581962
-86.668064
-86.920333
-86.75936
-86.035778
-82.430708
-88.114361
-81.528282
-80.088009
-87.170198
-79.241642
-82.989327
-83.289315
-83.151919
-82.430708
-78.783942
-84.301862
-77.673636
-82.456485
-94.149421
-85.938734
-88.661717
-88.96301
-88.855986
-88.114361
-84.301862
-89.543712
-90.220234
-76.427811
-85.416699
-81.176953
-82.356948
-82.499351
-82.379672
-81.528282
-77.673636
-90.220234
-71.534705
-83.203858
-101.49663
-88.968964
-93.986401
-94.333799
-94.162903
-93.757404
-92.738868
-94.931241
-88.78375
-101.49663
-103.62766
-99.145161
-103.2659
-103.46266
-103.21857
-102.43403
-100.14622
-106.68257
-97.681553
-88.968964
-99.145161
-93.077456
-96.981741
-97.172851
-96.946918
-96.044844
-92.685064
-98.904657
-93.650356
-93.986401
-103.2659
-96.981741
-100.8566
-101.05151
-100.85351
-99.98652
-96.297548
-101.52776
-94.781684
-94.333799
-103.46266
-97.172851
-101.05151
-101.24922
-101.06372
-100.24256
-96.599507
-101.82982
-94.924224
-94.162903
-103.21857
-96.946918
-100.85351
-101.06372
-100.88241
-100.07365
-96.451956
-101.7078
-94.784861
-93.757404
-102.43403
-96.044844
-99.98652
-100.24256
-100.07365
-99.268495
-95.642783
-100.87008
-93.85446
-92.738868
-100.14622
-92.685064
-96.297548
-96.599507
-96.451956
-95.642783
-91.967836
-97.043238
-90.126041
-94.931241
-106.68257
-98.904657
-101.52776
-101.82982
-101.7078
-100.87008
-97.043238
-101.96665
-102.08061
-88.78375
-97.681553
-93.650356
-94.781684
-94.924224
-94.784861
-93.85446
-90.126041
-102.08061
-83.540837
-53.465938
-71.460201
-59.808264
-64.564253
-64.894016
-64.723632
-64.302155
-63.255395
-65.272039
-59.036932
-71.460201
-74.344957
-70.196957
-74.103651
-74.289436
-74.043432
-73.228639
-70.914357
-76.998936
-67.772489
-59.808264
-70.196957
-64.554183
-68.255505
-68.438769
-68.214413
-67.284954
-63.9374
-69.679877
-63.967365
-64.564253
-74.103651
-68.255505
-71.930062
-72.119545
-71.925789
-71.031522
-67.36974
-72.168452
-65.034597
-64.894016
-74.289436
-68.438769
-72.119545
-72.314227
-72.135302
-71.287084
-67.670413
-72.469244
-65.178552
-64.723632
-74.043432
-68.214413
-71.925789
-72.135302
-71.962316
-71.126732
-67.52972
-72.350215
-65.037618
-64.302155
-73.228639
-67.284954
-71.031522
-71.287084
-71.126732
-70.29282
-66.686551
-71.47075
-64.071836
-63.255395
-70.914357
-63.9374
-67.36974
-67.670413
-67.52972
-66.686551
-63.02303
-67.658614
-60.447111
-65.272039
-76.998936
-69.679877
-72.168452
-72.469244
-72.350215
-71.47075
-67.658614
-72.222099
-71.811254
-59.036932
-67.772489
-63.967365
-65.034597
-65.178552
-65.037618
-64.071836
-60.447111
-71.811254
-53.474562
-5.1221054
-22.696321
-11.954817
-16.389685
-16.699501
-16.538374
-16.120172
-15.066872
-16.910278
-10.637399
-22.696321
-26.268369
-22.430637
-26.076177
-26.251544
-26.016806
-25.205417
-22.898236
-28.523609
-19.135998
-11.954817
-22.430637
-17.209066
-20.662926
-20.838355
-20.628599
-19.710736
-16.418365
-21.688839
-15.572843
-16.389685
-26.076177
-20.662926
-24.09267
-24.27601
-24.098654
-23.217423
-19.629842
-24.012483
-16.563425
-16.699501
-26.251544
-20.838355
-24.27601
-24.466202
-24.305169
-23.46979
-19.926322
-24.309287
-16.708615
-16.538374
-26.016806
-20.628599
-24.098654
-24.305169
-24.151265
-23.3286
-19.803341
-24.204771
-16.578219
-16.120172
-25.205417
-19.710736
-23.217423
-23.46979
-23.3286
-22.506199
-18.967763
-23.326556
-15.61377
-15.066872
-22.898236
-16.418365
-19.629842
-19.926322
-19.803341
-18.967763
-15.365161
-19.572977
-12.092722
-16.910278
-28.523609
-21.688839
-24.012483
-24.309287
-24.204771
-23.326556
-19.572977
-23.750222
-22.852603
-10.637399
-19.135998
-15.572843
-16.563425
-16.708615
-16.578219
-15.61377
-12.092722
-22.852603
-4.798797
39.95139
22.913175
32.726577
28.658406
28.368915
28.514684
28.915269
29.953709
28.279704
34.53216
22.913175
18.737043
22.28538
18.936369
18.769966
18.984734
19.767193
22.029421
16.868507
26.341286
32.726577
22.28538
27.091506
23.918683
23.75033
23.93762
24.815559
28.005128
23.198692
29.650338
28.658406
18.936369
23.918683
20.767448
20.590201
20.744395
21.584405
25.047515
21.063973
28.745739
28.368915
18.769966
23.75033
20.590201
20.405138
20.54234
21.337511
24.758346
20.774615
28.60081
28.514684
18.984734
23.93762
20.744395
20.54234
20.67173
21.45434
24.858366
20.858947
28.714124
28.915269
19.767193
24.815559
21.584405
21.337511
21.45434
22.23764
25.657481
21.705185
29.649168
29.953709
22.029421
28.005128
25.047515
24.758346
24.858366
25.657481
29.146461
25.349238
33.047737
28.279704
16.868507
23.198692
21.063973
20.774615
20.858947
21.705185
25.349238
21.568916
22.920722
34.53216
26.341286
29.650338
28.745739
28.60081
28.714124
29.649168
33.047737
22.920722
40.595043
68.180557
51.781696
60.666442
56.995284
56.72606
56.853202
57.226805
58.231083
56.721511
62.894453
51.781696
47.094909
50.371934
47.342968
47.184492
47.374771
48.110847
50.290736
45.59583
55.073248
60.666442
50.371934
54.771414
51.902043
51.74043
51.9019
52.721515
55.762054
51.409118
58.120978
56.995284
47.342968
51.902043
49.051906
48.881041
49.009835
49.791183
53.081999
49.480091
57.308528
56.72606
47.184492
51.74043
48.881041
48.701969
48.813825
49.552284
52.803677
49.2022
57.166339
56.853202
47.374771
51.9019
49.009835
48.813825
48.917612
49.643915
52.879954
49.265285
57.260474
57.226805
48.110847
52.721515
49.791183
49.552284
49.643915
50.371496
53.624844
50.059812
58.146398
58.231083
50.290736
55.762054
53.081999
52.803677
52.879954
53.624844
56.95
53.543075
61.391758
56.721511
45.59583
51.409118
49.480091
49.2022
49.265285
50.059812
53.543075
50.156255
51.93446
62.894453
55.073248
58.120978
57.308528
57.166339
57.260474
58.146398
61.391758
51.93446
69.124774
75.306918
59.634703
67.606286
64.348011
64.099403
64.207154
64.548714
65.502716
64.151448
70.189598
59.634703
54.535959
57.557911
54.861659
54.711127
54.875784
55.55495
57.619097
53.386662
62.788621
67.606286
57.557911
61.563173
59.009382
58.855118
58.990837
59.741822
62.592868
58.679937
65.573021
64.348011
54.861659
59.009382
56.472637
56.309256
56.41368
57.127293
60.204502
56.966198
64.855936
64.099403
54.711127
58.855118
56.309256
56.137711
56.225811
56.89933
59.940838
56.703956
64.719441
64.207154
54.875784
58.990837
56.41368
56.225811
56.30591
56.967892
59.995573
56.747774
64.795293
64.548714
55.55495
59.741822
57.127293
56.89933
56.967892
57.631452
60.676974
57.479457
65.619354
65.502716
57.619097
62.592868
60.204502
59.940838
59.995573
60.676974
63.794652
60.755523
68.676121
64.151448
53.386662
58.679937
56.966198
56.703956
56.747774
57.479457
60.755523
57.747391
59.925495
70.189598
62.788621
65.573021
64.855936
64.719441
64.795293
65.619354
68.676121
59.925495
76.528183
64.188475
49.3132
56.401264
53.559054
53.332004
53.421395
53.729007
54.620119
53.419718
59.274099
49.3132
43.902811
46.684926
44.324621
44.183094
44.323264
44.940186
46.861151
43.081692
52.331701
56.401264
46.684926
50.312065
48.076978
47.931557
48.043696
48.721538
51.350807
47.860947
54.855642
53.559054
44.324621
48.076978
45.85688
45.702815
45.785767
46.428269
49.259269
46.365467
54.234458
53.332004
44.183094
47.931557
45.702815
45.54092
45.608551
46.214385
49.013971
46.122733
54.106547
53.421395
44.323264
48.043696
45.785767
45.608551
45.668464
46.263538
49.050863
46.150772
54.166564
53.729007
44.940186
48.721538
46.428269
46.214385
46.263538
46.860269
49.665199
46.814415
54.921213
54.620119
46.861151
51.350807
49.259269
49.013971
49.050863
49.665199
52.54055
49.844956
57.755383
53.419718
43.081692
47.860947
46.365467
46.122733
46.150772
46.814415
49.844956
47.192458
49.741395
59.274099
52.331701
54.855642
54.234458
54.106547
54.166564
54.921213
57.755383
49.741395
65.660835
41.566773
27.542241
33.788182
31.354585
31.150403
31.223443
31.497142
32.316044
31.25767
36.886558
27.542241
21.919382
24.47639
22.447274
22.316474
22.434454
22.987218
24.74424
21.402087
30.429183
33.788182
24.47639
27.744727
25.823821
25.689229
25.780863
26.384671
28.768879
25.681471
32.699723
31.354585
22.447274
25.823821
23.915937
23.773371
23.838396
24.409744
26.971333
24.401408
32.172599
31.150403
22.316474
25.689229
23.773371
23.623479
23.674419
24.21291
26.747594
24.181291
32.055662
31.223443
22.434454
25.780863
23.838396
23.674419
23.718052
24.246655
26.770636
24.197331
32.102702
31.497142
22.987218
26.384671
24.409744
24.21291
24.246655
24.776835
27.317619
24.791351
32.783929
32.316044
24.74424
28.768879
26.971333
26.747594
26.770636
27.317619
29.925375
27.547641
35.367066
31.25767
21.402087
25.681471
24.401408
24.181291
24.197331
24.791351
27.547641
25.222522
28.107877
36.886558
30.429183
32.699723
32.172599
32.055662
32.102702
32.783929
35.367066
28.107877
43.261271
15.145387
2.0100767
7.4644536
5.4234165
5.2434076
5.3024065
5.5431754
6.2834223
5.3568889
10.725897
2.0100767
-3.7293974
-1.3830973
-3.092419
-3.2105949
-3.1121942
-2.6235094
-1.0446047
-3.9708787
4.7690275
7.4644536
-1.3830973
1.5482495
-0.069351671
-0.19109664
-0.11685771
0.41399789
2.5386464
-0.17044798
6.796579
5.4234165
-3.092419
-0.069351672
-1.6758421
-1.8048045
-1.7543594
-1.2525849
1.0255054
-1.242828
6.3596329
5.2434076
-3.2105949
-0.19109665
-1.8048045
-1.940511
-1.9028063
-1.429929
0.82568615
-1.4382286
6.255299
5.3024065
-3.1121942
-0.11685771
-1.7543594
-1.9028063
-1.8719298
-1.4080222
0.83839203
-1.4308974
6.2918977
5.5431754
-2.6235094
0.41399789
-1.2525849
-1.429929
-1.4080222
-0.94271848
1.3193083
-0.90616375
6.8979748
6.2834223
-1.0446047
2.5386464
1.0255054
0.82568615
0.83839203
1.3193083
3.6435885
1.5570438
9.2095762
5.3568889
-3.9708787
-0.17044797
-1.242828
-1.4382286
-1.4308974
-0.90616375
1.5570438
-0.47156289
2.7092163
10.725897
4.7690275
6.796579
6.3596329
6.255299
6.2918977
6.8979748
9.2095762
2.7092163
17.029264
-8.4384993
-20.660074
-15.940051
-17.611321
-17.766209
-17.719083
-17.509947
-16.852347
-17.658318
-12.576577
-20.660074
-26.425394
-24.275785
-25.682123
-25.786012
-25.704784
-25.279036
-23.886351
-26.423014
-18.027176
-15.940051
-24.275785
-21.657979
-22.988324
-23.095539
-23.036035
-22.576108
-20.717495
-23.075367
-16.22967
-17.611321
-25.682123
-22.988324
-24.309422
-24.423093
-24.384516
-23.950115
-21.961288
-23.951745
-16.582003
-17.766209
-25.786012
-23.095539
-24.423093
-24.542911
-24.515709
-24.106288
-22.135814
-24.121431
-16.672936
-17.719083
-25.704784
-23.036035
-24.384516
-24.515709
-24.494829
-24.093454
-22.130771
-24.120362
-16.644903
-17.509947
-25.279036
-22.576108
-23.950115
-24.106288
-24.093454
-23.690919
-21.714049
-23.663669
-16.114226
-16.852347
-23.886351
-20.717495
-21.961288
-22.135814
-22.130771
-21.714049
-19.680492
-21.502997
-14.085847
-17.658318
-26.423014
-23.075367
-23.951745
-24.121431
-24.120362
-23.663669
-21.502997
-23.266545
-19.83772
-12.576577
-18.027176
-16.22967
-16.582003
-16.672936
-16.644903
-16.114226
-14.085847
-19.83772
-6.4018336
-24.674889
-35.970837
-31.923586
-33.252992
-33.382405
-33.345336
-33.166524
-32.593448
-33.29084
-28.517228
-35.970837
-41.677751
-39.711357
-40.835837
-40.924288
-40.858245
-40.493714
-39.289953
-41.466913
-33.464172
-31.923586
-39.711357
-37.382826
-38.446065
-38.537637
-38.490818
-38.099346
-36.506207
-38.542081
-31.881979
-33.252991
-40.835837
-38.446065
-39.501862
-39.599175
-39.570499
-39.201078
-37.499958
-39.237184
-32.156579
-33.382405
-40.924288
-38.537637
-39.599175
-39.702056
-39.68343
-39.335257
-37.64882
-39.381197
-32.234084
-33.345336
-40.858245
-38.490818
-39.570499
-39.68343
-39.670615
-39.329588
-37.64965
-39.384825
-32.213439
-33.166524
-40.493714
-38.099346
-39.201078
-39.335257
-39.329588
-38.987657
-37.295078
-38.994484
-31.75735
-32.593448
-39.289953
-36.506207
-37.499958
-37.64882
-37.64965
-37.295078
-35.55185
-37.137353
-30.015233
-33.29084
-41.466913
-38.542081
-39.237184
-39.381197
-39.384825
-38.994484
-37.137353
-38.66645
-35.042118
-28.517228
-33.464172
-31.881979
-32.156579
-32.234084
-32.213439
-31.75735
-30.015233
-35.042118
-22.524954
-31.456818
-41.826594
-38.388136
-39.40728
-39.511581
-39.483149
-39.333411
-38.844865
-39.445916
-34.995268
-41.826594
-47.398465
-45.60254
-46.469612
-46.542123
-46.489707
-46.18426
-45.167432
-47.016961
-39.448241
-38.388136
-45.60254
-43.538914
-44.358335
-44.433825
-44.398203
-44.072399
-42.738162
-44.482454
-38.065466
-39.40728
-46.469612
-44.358335
-45.172043
-45.252624
-45.232532
-44.925559
-43.504306
-45.013234
-38.270174
-39.511581
-46.542123
-44.433825
-45.252624
-45.338233
-45.32694
-45.037763
-43.62805
-45.132514
-38.334849
-39.483149
-46.489707
-44.398203
-45.232532
-45.32694
-45.320957
-45.038065
-43.633695
-45.140002
-38.320978
-39.333411
-46.18426
-44.072399
-44.925559
-45.037763
-45.038065
-44.754524
-43.339095
-44.813969
-37.937757
-38.844865
-45.167432
-42.738162
-43.504306
-43.62805
-43.633695
-43.339095
-41.879221
-43.254064
-36.477119
-39.445916
-47.016961
-44.482454
-45.013233
-45.132514
-45.140002
-44.813969
-43.254064
-44.57754
-40.813624
-34.995268
-39.448241
-38.065466
-38.270174
-38.334849
-38.320978
-37.937757
-36.477119
-40.813624
-29.234482
-28.835114
-38.288275
-35.393902
-36.136886
-36.217166
-36.196292
-36.074371
-35.668678
-36.185449
-32.067054
-38.288275
-43.656862
-42.019553
-42.656099
-42.71284
-42.672824
-42.423902
-41.588001
-43.143518
-36.041569
-35.393902
-42.019553
-40.196936
-40.798103
-40.85774
-40.832241
-40.568941
-39.482013
-40.965424
-34.841676
-36.136886
-42.656099
-40.798103
-41.395175
-41.459329
-41.446966
-41.199627
-40.045128
-41.35033
-34.984965
-36.217166
-42.71284
-40.85774
-41.459329
-41.528014
-41.523292
-41.29063
-40.145068
-41.446522
-35.037864
-36.196292
-42.672824
-40.832241
-41.446966
-41.523292
-41.523395
-41.29621
-40.154979
-41.457529
-35.03051
-36.074371
-42.423902
-40.568941
-41.199627
-41.29063
-41.29621
-41.068618
-39.917884
-41.193312
-34.717541
-35.668678
-41.588001
-39.482013
-40.045128
-40.145068
-40.154979
-39.917884
-38.72885
-39.918158
-33.526938
-36.185449
-43.143518
-40.965424
-41.35033
-41.446522
-41.457529
-41.193312
-39.918158
-41.062538
-37.216413
-32.067054
-36.041569
-34.841676
-34.984965
-35.037864
-35.03051
-34.717541
-33.526938
-37.216413
-26.58076
-18.498411
-27.053369
-24.639037
-25.141434
-25.199454
-25.185302
-25.089822
-24.763782
-25.207789
-21.425865
-27.053369
-32.159301
-30.669775
-31.104288
-31.146052
-31.117406
-30.92194
-30.257581
-31.552612
-24.942123
-24.639037
-30.669775
-29.065191
-29.475158
-29.519778
-29.503562
-29.2991
-28.443783
-29.696501
-23.908362
-25.141434
-31.104288
-29.475158
-29.88251
-29.931141
-29.925912
-29.734922
-28.829738
-29.95485
-23.999047
-25.199454
-31.146052
-29.519778
-29.931141
-29.983849
-29.985202
-29.806127
-28.907789
-30.030111
-24.041513
-25.185302
-31.117406
-29.503562
-29.925912
-29.985202
-29.99091
-29.816566
-28.92169
-30.044551
-24.04056
-25.089822
-30.92194
-29.2991
-29.734922
-29.806127
-29.816566
-29.642033
-28.739149
-29.839056
-23.794309
-24.763782
-30.257581
-28.443783
-28.829738
-28.907789
-28.92169
-28.739149
-27.803879
-28.831144
-22.856915
-25.207789
-31.552612
-29.696501
-29.95485
-30.030111
-30.044551
-29.839056
-28.831144
-29.82041
-25.949085
-21.425865
-24.942123
-23.908362
-23.999047
-24.041513
-24.04056
-23.794309
-22.856915
-25.949085
-16.250203
-3.165766
-10.848495
-8.8519898
-9.1499559
-9.1880361
-9.1799149
-9.1092772
-8.8583309
-9.2402604
-5.7944426
-10.848495
-15.64147
-14.28999
-14.551835
-14.579938
-14.561701
-14.416038
-13.911056
-14.978373
-8.8762803
-8.8519898
-14.28999
-12.881718
-13.128329
-13.159265
-13.151575
-13.001672
-12.359009
-13.410058
-7.9920436
-9.1499559
-14.551835
-13.128329
-13.373631
-13.408133
-13.409523
-13.270979
-12.594226
-13.561491
-8.0390276
-9.1880361
-14.579938
-13.159265
-13.408133
-13.446297
-13.453308
-13.324274
-12.652734
-13.618313
-8.072548
-9.1799149
-14.561701
-13.151575
-13.409523
-13.453308
-13.464226
-13.33924
-12.67043
-13.636162
-8.0778547
-9.1092772
-14.416038
-13.001672
-13.270979
-13.324274
-13.33924
-13.214257
-12.538848
-13.485565
-7.893858
-8.8583309
-13.911056
-12.359009
-12.594226
-12.652734
-12.67043
-12.538848
-11.83662
-12.723398
-7.1887206
-9.2402604
-14.978373
-13.410058
-13.561491
-13.618313
-13.636162
-13.485565
-12.723398
-13.578947
-9.7375279
-5.7944426
-8.8762803
-7.9920436
-8.0390276
-8.072548
-8.0778547
-7.893858
-7.1887206
-9.7375279
-0.95821893
13.986863
7.1441695
8.7822392
8.6527468
8.6318606
8.6345788
8.6822672
8.8638662
8.5343424
11.648495
7.1441695
2.7054169
3.9274444
3.8087198
3.7925559
3.8013748
3.9015024
4.2614932
3.3905231
8.9745714
8.7822392
3.9274444
5.1596164
5.0483815
5.0294161
5.029373
5.1296498
5.5811037
4.7043554
9.7254412
8.6527468
3.8087198
5.0483815
4.9373416
4.9152056
4.9077549
4.9984522
5.4702822
4.6403434
9.713389
8.6318606
3.7925559
5.0294161
4.9152056
4.8897943
4.8775841
4.9608365
5.4286933
4.5992871
9.6872894
8.6345788
3.8013748
5.029373
4.9077549
4.8775841
4.8618983
4.9417215
5.4074513
4.5781326
9.6760122
8.6822672
3.9015024
5.1296498
4.9984522
4.9608365
4.9417215
5.0213757
5.4924015
4.6784395