/*--------------------------------*- C++ -*----------------------------------*\
| =========                 |                                                 |
| \\      /  F ield         | OpenFOAM: The Open Source CFD Toolbox           |
|  \\    /   O peration     | Version:  v2106                                 |
|   \\  /    A nd           | Website:  www.openfoam.com                      |
|    \\/     M anipulation  |                                                 |
\*---------------------------------------------------------------------------*/
FoamFile
{
    version     2.0;
    format      ascii;
    arch        "LSB;label=32;scalar=64";
    class       volScalarField;
    location    "100";
    object      Tmode4;
}
// * * * * * * * * * * * * * * * * * * * * * * * * * * * * * * * * * * * * * //

dimensions      [0 0 0 0 0 0 0];

internalField   nonuniform List<scalar> 
4000
(
-0.055404704
-0.055404611
-0.055404768
-0.055404751
-0.055404755
-0.055404754
-0.055404746
-0.055404733
-0.055404719
-0.055404719
-0.055404611
-0.055404672
-0.055404768
-0.055404758
-0.055404763
-0.055404761
-0.055404752
-0.055404736
-0.055404711
-0.055404708
-0.055404768
-0.055404768
-0.055404866
-0.055404856
-0.05540486
-0.055404858
-0.055404849
-0.055404833
-0.055404799
-0.055404769
-0.055404751
-0.055404758
-0.055404856
-0.055404845
-0.055404848
-0.055404846
-0.055404838
-0.055404823
-0.055404795
-0.055404772
-0.055404755
-0.055404763
-0.05540486
-0.055404848
-0.055404851
-0.055404849
-0.05540484
-0.055404824
-0.055404796
-0.055404772
-0.055404754
-0.055404761
-0.055404858
-0.055404846
-0.055404849
-0.055404846
-0.055404837
-0.055404821
-0.055404792
-0.055404768
-0.055404746
-0.055404752
-0.055404849
-0.055404838
-0.05540484
-0.055404837
-0.055404827
-0.055404811
-0.055404782
-0.055404758
-0.055404733
-0.055404736
-0.055404833
-0.055404823
-0.055404824
-0.055404821
-0.055404811
-0.055404795
-0.055404765
-0.055404742
-0.055404719
-0.055404711
-0.055404799
-0.055404795
-0.055404796
-0.055404792
-0.055404782
-0.055404765
-0.055404736
-0.055404713
-0.055404719
-0.055404708
-0.055404769
-0.055404772
-0.055404772
-0.055404768
-0.055404758
-0.055404742
-0.055404713
-0.055404693
0.0064677821
0.0064681546
0.0064671465
0.0064671457
0.0064671191
0.0064671366
0.006467209
0.0064673314
0.0064674622
0.0064674495
0.0064681546
0.0064678751
0.0064671292
0.0064671175
0.0064670908
0.0064671112
0.0064671897
0.0064673425
0.0064675766
0.0064675854
0.0064671465
0.0064671292
0.0064664182
0.0064664138
0.0064663907
0.0064664125
0.0064664897
0.0064666468
0.006466966
0.0064671652
0.0064671457
0.0064671175
0.0064664138
0.0064664148
0.0064663951
0.0064664194
0.006466496
0.0064666367
0.0064669226
0.0064670938
0.0064671191
0.0064670908
0.0064663907
0.0064663951
0.0064663783
0.0064664057
0.0064664874
0.006466633
0.0064669192
0.0064670873
0.0064671366
0.0064671112
0.0064664125
0.0064664194
0.0064664057
0.0064664354
0.0064665202
0.0064666697
0.006466959
0.0064671288
0.006467209
0.0064671897
0.0064664897
0.006466496
0.0064664874
0.0064665202
0.0064666076
0.0064667599
0.0064670516
0.0064672222
0.0064673314
0.0064673425
0.0064666468
0.0064666367
0.006466633
0.0064666697
0.0064667599
0.006466915
0.0064672084
0.0064673779
0.0064674622
0.0064675766
0.006466966
0.0064669226
0.0064669192
0.006466959
0.0064670516
0.0064672084
0.0064675016
0.0064676647
0.0064674495
0.0064675854
0.0064671652
0.0064670938
0.0064670873
0.0064671288
0.0064672222
0.0064673779
0.0064676647
0.0064677925
0.026832517
0.02683297
0.026831578
0.026831517
0.026831483
0.026831521
0.026831651
0.026831881
0.026832164
0.026832073
0.02683297
0.026832433
0.026831387
0.026831327
0.026831293
0.026831333
0.026831468
0.026831743
0.02683227
0.026832301
0.026831578
0.026831387
0.026830398
0.02683035
0.026830321
0.026830364
0.026830494
0.026830756
0.026831395
0.026831707
0.026831517
0.026831327
0.02683035
0.026830309
0.026830284
0.026830332
0.026830466
0.026830707
0.026831306
0.026831586
0.026831483
0.026831293
0.026830321
0.026830284
0.026830264
0.026830317
0.026830458
0.026830706
0.026831304
0.026831578
0.026831521
0.026831333
0.026830364
0.026830332
0.026830317
0.026830374
0.026830521
0.026830775
0.026831378
0.026831655
0.026831651
0.026831468
0.026830494
0.026830466
0.026830458
0.026830521
0.026830673
0.026830933
0.02683154
0.026831819
0.026831881
0.026831743
0.026830756
0.026830707
0.026830706
0.026830775
0.026830933
0.026831199
0.026831811
0.026832088
0.026832164
0.02683227
0.026831395
0.026831306
0.026831304
0.026831378
0.02683154
0.026831811
0.026832428
0.026832697
0.026832073
0.026832301
0.026831707
0.026831586
0.026831578
0.026831655
0.026831819
0.026832088
0.026832697
0.026832764
0.02901702
0.029017512
0.029015844
0.02901578
0.029015757
0.029015815
0.029015989
0.029016309
0.029016783
0.029016719
0.029017512
0.029016862
0.029015614
0.029015554
0.029015528
0.029015587
0.029015761
0.029016113
0.029016896
0.029017002
0.029015844
0.029015614
0.029014433
0.029014382
0.029014361
0.029014424
0.029014597
0.029014932
0.02901586
0.029016315
0.02901578
0.029015554
0.029014382
0.029014337
0.029014321
0.02901439
0.029014568
0.029014876
0.029015755
0.029016174
0.029015757
0.029015528
0.029014361
0.029014321
0.029014309
0.029014385
0.029014572
0.029014886
0.029015762
0.029016173
0.029015815
0.029015587
0.029014424
0.02901439
0.029014385
0.029014467
0.029014662
0.029014985
0.029015868
0.029016282
0.029015989
0.029015761
0.029014597
0.029014568
0.029014572
0.029014662
0.029014866
0.029015198
0.029016089
0.029016504
0.029016309
0.029016113
0.029014932
0.029014876
0.029014886
0.029014985
0.029015198
0.02901554
0.029016442
0.029016862
0.029016783
0.029016896
0.02901586
0.029015755
0.029015762
0.029015868
0.029016089
0.029016442
0.02901737
0.029017823
0.029016719
0.029017002
0.029016315
0.029016174
0.029016173
0.029016282
0.029016504
0.029016862
0.029017823
0.02901783
0.022811755
0.022812146
0.02281033
0.022810301
0.022810296
0.022810369
0.022810578
0.02281096
0.022811566
0.022811519
0.022812146
0.022811367
0.022810021
0.02280999
0.022809977
0.022810051
0.022810264
0.022810688
0.022811684
0.022811858
0.02281033
0.022810021
0.022808741
0.022808716
0.022808704
0.022808781
0.02280899
0.022809389
0.022810549
0.022811118
0.022810301
0.02280999
0.022808716
0.022808695
0.022808689
0.022808772
0.022808982
0.022809345
0.022810446
0.02281097
0.022810296
0.022809977
0.022808704
0.022808689
0.022808688
0.02280878
0.022809001
0.022809369
0.022810465
0.02281098
0.022810369
0.022810051
0.022808781
0.022808772
0.02280878
0.022808881
0.022809114
0.022809494
0.022810599
0.022811117
0.022810578
0.022810264
0.02280899
0.022808982
0.022809001
0.022809114
0.022809359
0.022809752
0.022810867
0.022811387
0.02281096
0.022810688
0.022809389
0.022809345
0.022809369
0.022809494
0.022809752
0.022810157
0.022811286
0.022811813
0.022811566
0.022811684
0.022810549
0.022810446
0.022810465
0.022810599
0.022810867
0.022811286
0.022812458
0.022813076
0.022811519
0.022811858
0.022811118
0.02281097
0.02281098
0.022811117
0.022811387
0.022811813
0.022813076
0.022813043
0.013407655
0.013408065
0.013406189
0.013406191
0.013406195
0.01340628
0.01340652
0.01340697
0.013407717
0.013407717
0.013408065
0.013407268
0.013405884
0.013405879
0.013405869
0.013405948
0.013406186
0.013406673
0.013407864
0.013408115
0.013406189
0.013405884
0.013404564
0.013404562
0.013404552
0.013404631
0.013404856
0.013405303
0.013406666
0.013407341
0.013406191
0.013405879
0.013404562
0.013404564
0.013404561
0.013404647
0.013404871
0.013405274
0.013406568
0.013407193
0.013406195
0.013405869
0.013404552
0.013404561
0.013404567
0.013404666
0.013404903
0.013405311
0.0134066
0.013407214
0.01340628
0.013405948
0.013404631
0.013404647
0.013404666
0.013404778
0.01340503
0.013405454
0.013406754
0.013407375
0.01340652
0.013406186
0.013404856
0.013404871
0.013404903
0.01340503
0.0134053
0.013405739
0.013407054
0.013407679
0.01340697
0.013406673
0.013405303
0.013405274
0.013405311
0.013405454
0.013405739
0.013406197
0.01340753
0.013408165
0.013407717
0.013407864
0.013406666
0.013406568
0.0134066
0.013406754
0.013407054
0.01340753
0.013408917
0.013409684
0.013407717
0.013408115
0.013407341
0.013407193
0.013407214
0.013407375
0.013407679
0.013408165
0.013409684
0.013409622
0.0036661757
0.0036666548
0.0036647394
0.0036647512
0.003664755
0.0036648434
0.0036650999
0.0036655896
0.003666438
0.0036664684
0.0036666548
0.0036658834
0.0036644676
0.0036644674
0.0036644537
0.0036645327
0.003664774
0.0036652863
0.0036666119
0.0036669095
0.0036647394
0.0036644676
0.0036631156
0.0036631185
0.0036631069
0.0036631859
0.0036634084
0.0036638671
0.0036653697
0.0036661133
0.0036647512
0.0036644674
0.0036631185
0.0036631289
0.0036631275
0.0036632169
0.0036634393
0.0036638481
0.0036652761
0.0036659666
0.003664755
0.0036644537
0.0036631069
0.0036631275
0.0036631402
0.0036632455
0.0036634848
0.0036639004
0.0036653231
0.0036660025
0.0036648434
0.0036645327
0.0036631859
0.0036632169
0.0036632455
0.0036633682
0.0036636262
0.0036640596
0.0036654968
0.0036661849
0.0036650999
0.003664774
0.0036634084
0.0036634393
0.0036634848
0.0036636262
0.0036639036
0.003664357
0.0036658123
0.0036665089
0.0036655896
0.0036652863
0.0036638671
0.0036638481
0.0036639004
0.0036640596
0.003664357
0.0036648334
0.0036663164
0.0036670353
0.003666438
0.0036666119
0.0036653697
0.0036652761
0.0036653231
0.0036654968
0.0036658123
0.0036663164
0.0036678738
0.0036687662
0.0036664684
0.0036669095
0.0036661133
0.0036659666
0.0036660025
0.0036661849
0.0036665089
0.0036670353
0.0036687662
0.0036686784
-0.0049002183
-0.0048997191
-0.0049016747
-0.0049016723
-0.0049016669
-0.0049015688
-0.004901299
-0.0049007884
-0.0048998738
-0.0048998285
-0.0048997191
-0.0049004958
-0.0049019521
-0.0049019607
-0.0049019707
-0.0049018813
-0.0049016324
-0.0049011099
-0.0048996933
-0.0048993681
-0.0049016747
-0.0049019521
-0.0049033421
-0.0049033446
-0.0049033489
-0.0049032561
-0.0049030269
-0.0049025657
-0.0049009668
-0.004900179
-0.0049016723
-0.0049019607
-0.0049033446
-0.0049033361
-0.0049033261
-0.0049032189
-0.0049029879
-0.0049025785
-0.0049010561
-0.004900321
-0.0049016669
-0.0049019707
-0.0049033489
-0.0049033261
-0.0049032984
-0.0049031717
-0.0049029213
-0.0049025043
-0.0049009875
-0.0049002647
-0.0049015688
-0.0049018813
-0.0049032561
-0.0049032189
-0.0049031717
-0.0049030253
-0.0049027544
-0.0049023188
-0.0049007874
-0.0049000564
-0.004901299
-0.0049016324
-0.0049030269
-0.0049029879
-0.0049029213
-0.0049027544
-0.0049024633
-0.004902007
-0.0049004561
-0.0048997149
-0.0049007884
-0.0049011099
-0.0049025657
-0.0049025785
-0.0049025043
-0.0049023188
-0.004902007
-0.004901525
-0.0048999385
-0.0048991594
-0.0048998738
-0.0048996933
-0.0049009668
-0.0049010561
-0.0049009875
-0.0049007874
-0.0049004561
-0.0048999385
-0.0048982534
-0.0048972562
-0.0048998285
-0.0048993681
-0.004900179
-0.004900321
-0.0049002647
-0.0049000564
-0.0048997149
-0.0048991594
-0.0048972562
-0.0048973627
-0.011590553
-0.011590083
-0.011592072
-0.011592084
-0.011592065
-0.011591941
-0.011591643
-0.011591104
-0.011590131
-0.011590064
-0.011590083
-0.011590893
-0.011592387
-0.011592406
-0.011592399
-0.01159228
-0.011592003
-0.011591457
-0.011589962
-0.011589603
-0.011592072
-0.011592387
-0.011593811
-0.01159382
-0.011593803
-0.011593677
-0.011593418
-0.011592936
-0.011591253
-0.01159042
-0.011592084
-0.011592406
-0.01159382
-0.011593814
-0.01159378
-0.011593636
-0.011593374
-0.011592943
-0.011591336
-0.011590553
-0.011592065
-0.011592399
-0.011593803
-0.01159378
-0.011593726
-0.011593561
-0.011593278
-0.01159284
-0.01159124
-0.011590471
-0.011591941
-0.01159228
-0.011593677
-0.011593636
-0.011593561
-0.011593375
-0.011593071
-0.011592617
-0.011591004
-0.011590231
-0.011591643
-0.011592003
-0.011593418
-0.011593374
-0.011593278
-0.011593071
-0.011592749
-0.011592276
-0.011590647
-0.011589866
-0.011591104
-0.011591457
-0.011592936
-0.011592943
-0.01159284
-0.011592617
-0.011592276
-0.01159178
-0.011590112
-0.011589283
-0.011590131
-0.011589962
-0.011591253
-0.011591336
-0.01159124
-0.011591004
-0.011590647
-0.011590112
-0.011588328
-0.011587239
-0.011590064
-0.011589603
-0.01159042
-0.011590553
-0.011590471
-0.011590231
-0.011589866
-0.011589283
-0.011587239
-0.011587351
-0.016191616
-0.016191196
-0.016193201
-0.016193223
-0.016193181
-0.016193019
-0.016192679
-0.016192099
-0.016191066
-0.016190962
-0.016191196
-0.016192046
-0.016193564
-0.016193586
-0.016193552
-0.016193392
-0.016193071
-0.016192485
-0.016190917
-0.016190511
-0.016193201
-0.016193564
-0.016195005
-0.016195014
-0.016194968
-0.016194798
-0.016194494
-0.016193972
-0.01619221
-0.016191325
-0.016193223
-0.016193586
-0.016195014
-0.016195007
-0.016194941
-0.016194752
-0.016194443
-0.016193974
-0.016192285
-0.016191448
-0.016193181
-0.016193552
-0.016194968
-0.016194941
-0.016194854
-0.016194643
-0.016194314
-0.016193839
-0.01619216
-0.016191339
-0.016193019
-0.016193392
-0.016194798
-0.016194752
-0.016194643
-0.016194411
-0.016194064
-0.016193574
-0.016191886
-0.016191065
-0.016192679
-0.016193071
-0.016194494
-0.016194443
-0.016194314
-0.016194064
-0.016193701
-0.016193197
-0.016191497
-0.016190673
-0.016192099
-0.016192485
-0.016193972
-0.016193974
-0.016193839
-0.016193574
-0.016193197
-0.016192673
-0.016190937
-0.016190059
-0.016191066
-0.016190917
-0.01619221
-0.016192285
-0.01619216
-0.016191886
-0.016191497
-0.016190937
-0.016189073
-0.016187904
-0.016190962
-0.016190511
-0.016191325
-0.016191448
-0.016191339
-0.016191065
-0.016190673
-0.016190059
-0.016187904
-0.016188007
-0.018775212
-0.018774846
-0.018776846
-0.01877687
-0.018776797
-0.018776594
-0.01877621
-0.018775587
-0.018774498
-0.018774348
-0.018774846
-0.018775728
-0.018777248
-0.018777266
-0.018777198
-0.018776994
-0.018776629
-0.018776
-0.018774369
-0.018773912
-0.018776846
-0.018777248
-0.018778687
-0.018778688
-0.018778606
-0.018778392
-0.018778043
-0.018777478
-0.018775651
-0.018774715
-0.01877687
-0.018777266
-0.018778688
-0.01877867
-0.018778569
-0.018778336
-0.018777984
-0.018777472
-0.018775716
-0.018774825
-0.018776797
-0.018777198
-0.018778606
-0.018778569
-0.018778448
-0.018778194
-0.018777824
-0.018777308
-0.018775564
-0.018774692
-0.018776594
-0.018776994
-0.018778392
-0.018778336
-0.018778194
-0.018777922
-0.018777535
-0.018777008
-0.01877526
-0.018774391
-0.01877621
-0.018776629
-0.018778043
-0.018777984
-0.018777824
-0.018777535
-0.018777136
-0.018776598
-0.018774842
-0.018773975
-0.018775587
-0.018776
-0.018777478
-0.018777472
-0.018777308
-0.018777008
-0.018776598
-0.018776045
-0.018774256
-0.018773333
-0.018774498
-0.018774369
-0.018775651
-0.018775716
-0.018775564
-0.01877526
-0.018774842
-0.018774256
-0.018772332
-0.018771099
-0.018774348
-0.018773912
-0.018774715
-0.018774825
-0.018774692
-0.018774391
-0.018773975
-0.018773333
-0.018771099
-0.018771183
-0.019568983
-0.019568666
-0.019570636
-0.019570651
-0.019570545
-0.019570304
-0.019569884
-0.019569226
-0.019568096
-0.019567903
-0.019568666
-0.019569564
-0.019571063
-0.019571066
-0.019570962
-0.01957072
-0.01957032
-0.019569656
-0.019567984
-0.019567482
-0.019570636
-0.019571063
-0.019572476
-0.019572459
-0.019572342
-0.019572091
-0.019571709
-0.019571108
-0.01956924
-0.019568265
-0.019570651
-0.019571066
-0.019572459
-0.019572424
-0.019572288
-0.019572021
-0.019571638
-0.019571093
-0.019569295
-0.019568362
-0.019570545
-0.019570962
-0.019572342
-0.019572288
-0.019572133
-0.019571848
-0.019571451
-0.019570907
-0.019569124
-0.019568213
-0.019570304
-0.01957072
-0.019572091
-0.019572021
-0.019571848
-0.019571547
-0.019571137
-0.019570585
-0.0195688
-0.019567896
-0.019569884
-0.01957032
-0.019571709
-0.019571638
-0.019571451
-0.019571137
-0.019570716
-0.019570156
-0.019568367
-0.019567467
-0.019569226
-0.019569656
-0.019571108
-0.019571093
-0.019570907
-0.019570585
-0.019570156
-0.019569583
-0.019567763
-0.019566805
-0.019568096
-0.019567984
-0.01956924
-0.019569295
-0.019569124
-0.0195688
-0.019568367
-0.019567763
-0.019565804
-0.019564524
-0.019567903
-0.019567482
-0.019568265
-0.019568362
-0.019568213
-0.019567896
-0.019567467
-0.019566805
-0.019564524
-0.019564587
-0.018874097
-0.018873816
-0.018875735
-0.018875733
-0.018875592
-0.01887532
-0.018874879
-0.018874202
-0.018873051
-0.018872823
-0.018873816
-0.018874712
-0.01887617
-0.018876149
-0.018876009
-0.018875739
-0.018875318
-0.018874637
-0.01887295
-0.018872415
-0.018875735
-0.01887617
-0.018877537
-0.018877494
-0.018877342
-0.018877065
-0.018876667
-0.01887605
-0.01887417
-0.018873173
-0.018875733
-0.018876149
-0.018877494
-0.018877433
-0.018877265
-0.018876976
-0.018876582
-0.018876023
-0.018874213
-0.018873258
-0.018875592
-0.018876009
-0.018877342
-0.018877265
-0.018877081
-0.018876779
-0.018876374
-0.018875822
-0.01887403
-0.018873099
-0.01887532
-0.018875739
-0.018877065
-0.018876976
-0.018876779
-0.018876464
-0.01887605
-0.018875493
-0.018873703
-0.018872781
-0.018874879
-0.018875318
-0.018876667
-0.018876582
-0.018876374
-0.01887605
-0.018875628
-0.018875065
-0.018873272
-0.018872355
-0.018874202
-0.018874637
-0.01887605
-0.018876023
-0.018875822
-0.018875493
-0.018875065
-0.01887449
-0.018872664
-0.018871687
-0.018873051
-0.01887295
-0.01887417
-0.018874213
-0.01887403
-0.018873703
-0.018873272
-0.018872664
-0.018870699
-0.018869393
-0.018872823
-0.018872415
-0.018873173
-0.018873258
-0.018873099
-0.018872781
-0.018872355
-0.018871687
-0.018869393
-0.018869437
-0.017013772
-0.017013515
-0.017015364
-0.017015337
-0.017015163
-0.017014871
-0.017014424
-0.017013747
-0.017012597
-0.017012347
-0.017013515
-0.017014392
-0.017015791
-0.017015738
-0.017015565
-0.017015277
-0.017014854
-0.017014175
-0.017012502
-0.017011951
-0.017015364
-0.017015791
-0.017017095
-0.01701702
-0.017016837
-0.017016547
-0.01701615
-0.017015538
-0.017013676
-0.017012678
-0.017015337
-0.017015738
-0.01701702
-0.017016929
-0.017016733
-0.017016436
-0.01701605
-0.0170155
-0.017013709
-0.017012752
-0.017015163
-0.017015565
-0.017016837
-0.017016733
-0.017016526
-0.01701622
-0.01701583
-0.017015291
-0.017013523
-0.017012593
-0.017014871
-0.017015277
-0.017016547
-0.017016436
-0.01701622
-0.017015906
-0.01701551
-0.01701497
-0.017013207
-0.017012287
-0.017014424
-0.017014854
-0.01701615
-0.01701605
-0.01701583
-0.01701551
-0.017015109
-0.017014564
-0.017012797
-0.017011882
-0.017013747
-0.017014175
-0.017015538
-0.0170155
-0.017015291
-0.01701497
-0.017014564
-0.017014007
-0.017012205
-0.017011224
-0.017012597
-0.017012502
-0.017013676
-0.017013709
-0.017013523
-0.017013207
-0.017012797
-0.017012205
-0.017010259
-0.01700895
-0.017012347
-0.017011951
-0.017012678
-0.017012752
-0.017012593
-0.017012287
-0.017011882
-0.017011224
-0.01700895
-0.017008981
-0.014302322
-0.014302076
-0.014303841
-0.014303783
-0.014303581
-0.01430328
-0.014302843
-0.014302186
-0.014301059
-0.0143008
-0.014302076
-0.014302919
-0.014304245
-0.014304158
-0.014303957
-0.014303663
-0.014303254
-0.014302598
-0.014300963
-0.014300414
-0.014303841
-0.014304245
-0.014305475
-0.014305365
-0.014305156
-0.014304866
-0.01430449
-0.014303903
-0.014302088
-0.014301107
-0.014303783
-0.014304158
-0.014305365
-0.014305242
-0.014305024
-0.014304732
-0.014304373
-0.014303853
-0.014302111
-0.014301173
-0.014303581
-0.014303957
-0.014305156
-0.014305024
-0.0143048
-0.014304505
-0.014304148
-0.014303645
-0.01430193
-0.014301021
-0.01430328
-0.014303663
-0.014304866
-0.014304732
-0.014304505
-0.014304206
-0.014303848
-0.014303347
-0.014301639
-0.014300741
-0.014302843
-0.014303254
-0.01430449
-0.014304373
-0.014304148
-0.014303848
-0.014303486
-0.014302981
-0.014301268
-0.014300371
-0.014302186
-0.014302598
-0.014303903
-0.014303853
-0.014303645
-0.014303347
-0.014302981
-0.014302461
-0.014300708
-0.014299742
-0.014301059
-0.014300963
-0.014302088
-0.014302111
-0.01430193
-0.014301639
-0.014301268
-0.014300708
-0.014298808
-0.014297516
-0.0143008
-0.014300414
-0.014301107
-0.014301173
-0.014301021
-0.014300741
-0.014300371
-0.014299742
-0.014297516
-0.014297543
-0.01102777
-0.011027526
-0.011029197
-0.011029108
-0.011028883
-0.011028583
-0.01102817
-0.01102755
-0.011026465
-0.011026211
-0.011027526
-0.011028324
-0.011029568
-0.011029447
-0.011029223
-0.011028935
-0.011028555
-0.01102794
-0.011026366
-0.011025833
-0.011029197
-0.011029568
-0.011030716
-0.011030572
-0.011030344
-0.011030065
-0.011029724
-0.011029181
-0.011027437
-0.011026491
-0.011029108
-0.011029447
-0.011030572
-0.011030417
-0.011030185
-0.011029909
-0.011029593
-0.011029122
-0.011027453
-0.011026551
-0.011028883
-0.011029223
-0.011030344
-0.011030185
-0.011029951
-0.011029678
-0.011029369
-0.011028921
-0.011027284
-0.011026414
-0.011028583
-0.011028935
-0.011030065
-0.011029909
-0.011029678
-0.011029406
-0.0110291
-0.011028657
-0.011027028
-0.01102617
-0.01102817
-0.011028555
-0.011029724
-0.011029593
-0.011029369
-0.0110291
-0.011028793
-0.011028346
-0.01102671
-0.011025849
-0.01102755
-0.01102794
-0.011029181
-0.011029122
-0.011028921
-0.011028657
-0.011028346
-0.01102788
-0.0110262
-0.011025263
-0.011026465
-0.011026366
-0.011027437
-0.011027453
-0.011027284
-0.011027028
-0.01102671
-0.0110262
-0.011024367
-0.011023109
-0.011026211
-0.011025833
-0.011026491
-0.011026551
-0.011026414
-0.01102617
-0.011025849
-0.011025263
-0.011023109
-0.01102314
-0.007443289
-0.0074430404
-0.0074446113
-0.0074444916
-0.0074442492
-0.0074439606
-0.0074435838
-0.0074430139
-0.0074419872
-0.0074417488
-0.0074430404
-0.0074437855
-0.007444943
-0.007444788
-0.0074445493
-0.0074442757
-0.0074439374
-0.0074433767
-0.0074418824
-0.0074413777
-0.0074446113
-0.007444943
-0.0074460046
-0.0074458287
-0.0074455889
-0.0074453294
-0.0074450363
-0.0074445521
-0.0074428981
-0.0074420006
-0.0074444916
-0.007444788
-0.0074458287
-0.0074456442
-0.0074454046
-0.0074451552
-0.0074448931
-0.0074444857
-0.0074429092
-0.0074420575
-0.0074442492
-0.0074445493
-0.0074455889
-0.0074454046
-0.0074451684
-0.0074449263
-0.0074446778
-0.0074442986
-0.0074427577
-0.0074419397
-0.0074439606
-0.0074442757
-0.0074453294
-0.0074451552
-0.0074449263
-0.0074446906
-0.0074444483
-0.0074440771
-0.0074425457
-0.0074417394
-0.0074435838
-0.0074439374
-0.0074450363
-0.0074448931
-0.0074446778
-0.0074444483
-0.0074442068
-0.0074438309
-0.0074422904
-0.0074414783
-0.0074430139
-0.0074433767
-0.0074445521
-0.0074444857
-0.0074442986
-0.0074440771
-0.0074438309
-0.0074434334
-0.0074418426
-0.0074409474
-0.0074419872
-0.0074418824
-0.0074428981
-0.0074429092
-0.0074427577
-0.0074425457
-0.0074422904
-0.0074418426
-0.0074400939
-0.0074388837
-0.0074417488
-0.0074413777
-0.0074420006
-0.0074420575
-0.0074419397
-0.0074417394
-0.0074414783
-0.0074409474
-0.0074388837
-0.0074389255
-0.0037641936
-0.0037639364
-0.0037654049
-0.0037652568
-0.0037650042
-0.0037647341
-0.003764402
-0.0037638925
-0.0037629355
-0.003762721
-0.0037639364
-0.0037646242
-0.0037656935
-0.0037655087
-0.0037652614
-0.00376501
-0.0037647214
-0.0037642261
-0.0037628238
-0.0037623572
-0.0037654049
-0.0037656935
-0.0037666683
-0.0037664644
-0.0037662192
-0.0037659872
-0.0037657496
-0.0037653344
-0.0037637838
-0.0037629449
-0.0037652568
-0.0037655087
-0.0037664644
-0.0037662548
-0.0037660141
-0.0037657976
-0.0037655972
-0.003765263
-0.0037637924
-0.0037630008
-0.0037650042
-0.0037652614
-0.0037662192
-0.0037660141
-0.0037657813
-0.0037655769
-0.0037653955
-0.0037650943
-0.0037636626
-0.0037629067
-0.0037647341
-0.00376501
-0.0037659872
-0.0037657976
-0.0037655769
-0.0037653831
-0.0037652112
-0.0037649205
-0.0037634994
-0.0037627551
-0.003764402
-0.0037647214
-0.0037657496
-0.0037655972
-0.0037653955
-0.0037652112
-0.0037650416
-0.0037647458
-0.0037633133
-0.0037625593
-0.0037638925
-0.0037642261
-0.0037653344
-0.003765263
-0.0037650943
-0.0037649205
-0.0037647458
-0.003764425
-0.0037629365
-0.0037620929
-0.0037629355
-0.0037628238
-0.0037637838
-0.0037637924
-0.0037636626
-0.0037634994
-0.0037633133
-0.0037629365
-0.0037612855
-0.0037601332
-0.003762721
-0.0037623572
-0.0037629449
-0.0037630008
-0.0037629067
-0.0037627551
-0.0037625593
-0.0037620929
-0.0037601332
-0.0037601914
-0.00016831356
-0.00016804646
-0.00016941225
-0.00016923953
-0.00016898284
-0.0001687368
-0.00016845491
-0.0001680121
-0.00016713231
-0.00016694743
-0.00016804646
-0.00016867503
-0.00016965675
-0.00016944688
-0.00016919695
-0.00016897327
-0.00016873941
-0.00016831563
-0.00016701368
-0.00016659128
-0.00016941225
-0.00016965675
-0.0001705464
-0.00017031927
-0.00017007476
-0.00016987502
-0.00016969739
-0.00016935709
-0.0001679185
-0.00016714465
-0.00016923953
-0.00016944688
-0.00017031927
-0.0001700894
-0.00016985318
-0.00016967383
-0.00016953887
-0.00016928326
-0.00016792657
-0.00016720165
-0.00016898284
-0.00016919695
-0.00017007476
-0.00016985318
-0.00016962904
-0.00016946621
-0.0001693548
-0.00016913621
-0.00016782141
-0.00016713356
-0.0001687368
-0.00016897327
-0.00016987502
-0.00016967383
-0.00016946621
-0.00016931758
-0.00016921873
-0.0001690126
-0.0001677093
-0.00016703277
-0.00016845491
-0.00016873941
-0.00016969739
-0.00016953887
-0.0001693548
-0.00016921873
-0.00016912338
-0.00016891173
-0.00016759474
-0.00016690484
-0.0001680121
-0.00016831563
-0.00016935709
-0.00016928326
-0.00016913621
-0.0001690126
-0.00016891173
-0.000168672
-0.00016729378
-0.00016650841
-0.00016713231
-0.00016701368
-0.0001679185
-0.00016792657
-0.00016782141
-0.0001677093
-0.00016759474
-0.00016729378
-0.00016574907
-0.00016466183
-0.00016694743
-0.00016659128
-0.00016714465
-0.00016720165
-0.00016713356
-0.00016703277
-0.00016690484
-0.00016650841
-0.00016466183
-0.00016474002
0.0032017159
0.0032019926
0.003200728
0.0032009209
0.0032011763
0.0032013943
0.0032016233
0.0032019966
0.0032027953
0.0032029474
0.0032019926
0.0032014231
0.0032005266
0.0032007564
0.0032010036
0.0032011961
0.0032013732
0.0032017228
0.0032029201
0.003203295
0.003200728
0.0032005266
0.0031997189
0.003199964
0.0032002028
0.0032003674
0.0032004839
0.0032007472
0.0032020695
0.0032027749
0.0032009209
0.0032007564
0.003199964
0.003200209
0.0032004361
0.0032005762
0.0032006454
0.0032008212
0.0032020601
0.0032027154
0.0032011763
0.0032010036
0.0032002028
0.0032004361
0.0032006476
0.0032007673
0.0032008091
0.0032009446
0.0032021393
0.0032027564
0.0032013943
0.0032011961
0.0032003674
0.0032005762
0.0032007673
0.0032008697
0.0032008964
0.0032010178
0.0032022004
0.0032028066
0.0032016233
0.0032013732
0.0032004839
0.0032006454
0.0032008091
0.0032008964
0.0032009186
0.0032010459
0.0032022442
0.003202867
0.0032019966
0.0032017228
0.0032007472
0.0032008212
0.0032009446
0.0032010178
0.0032010459
0.0032012041
0.003202468
0.0032031913
0.0032027953
0.0032029201
0.0032020695
0.0032020601
0.0032021393
0.0032022004
0.0032022442
0.003202468
0.0032039016
0.0032049196
0.0032029474
0.003203295
0.0032027749
0.0032027154
0.0032027564
0.0032028066
0.003202867
0.0032031913
0.0032049196
0.0032048196
0.0062351772
0.0062354619
0.0062342957
0.0062345041
0.0062347535
0.0062349412
0.0062351171
0.006235421
0.0062361374
0.0062362557
0.0062354619
0.00623495
0.006234135
0.0062343794
0.0062346194
0.0062347791
0.0062348999
0.0062351757
0.0062362673
0.0062365935
0.0062342957
0.006234135
0.0062334051
0.0062336628
0.0062338918
0.0062340203
0.006234077
0.0062342645
0.0062354697
0.0062361058
0.0062345041
0.0062343794
0.0062336628
0.0062339179
0.0062341323
0.0062342327
0.0062342386
0.0062343366
0.0062354576
0.0062360426
0.0062347535
0.0062346194
0.0062338918
0.0062341323
0.006234328
0.006234405
0.0062343802
0.0062344353
0.0062355105
0.0062360569
0.0062349412
0.0062347791
0.0062340203
0.0062342327
0.006234405
0.0062344621
0.0062344202
0.0062344599
0.0062355225
0.0062360583
0.0062351171
0.0062348999
0.006234077
0.0062342386
0.0062343802
0.0062344202
0.0062343729
0.006234419
0.006235499
0.0062360542
0.006235421
0.0062351757
0.0062342645
0.0062343366
0.0062344353
0.0062344599
0.006234419
0.0062344981
0.0062356473
0.0062363068
0.0062361374
0.0062362673
0.0062354697
0.0062354576
0.0062355105
0.0062355225
0.006235499
0.0062356473
0.006236968
0.0062379148
0.0062362557
0.0062365935
0.0062361058
0.0062360426
0.0062360569
0.0062360583
0.0062360542
0.0062363068
0.0062379148
0.0062377928
0.0088495976
0.0088498877
0.0088488166
0.0088490357
0.0088492754
0.0088494319
0.0088495562
0.008849793
0.0088504285
0.0088505135
0.0088498877
0.0088494309
0.0088486933
0.0088489472
0.0088491762
0.0088493028
0.0088493697
0.0088495745
0.0088505618
0.0088508403
0.0088488166
0.0088486933
0.0088480365
0.0088483016
0.0088485177
0.0088486103
0.0088486107
0.0088487258
0.0088498158
0.0088503837
0.0088490357
0.0088489472
0.0088483016
0.008848562
0.0088487609
0.0088488228
0.0088487696
0.0088487944
0.0088497999
0.0088503164
0.0088492754
0.0088491762
0.0088485177
0.0088487609
0.0088489387
0.0088489747
0.0088488884
0.0088488685
0.0088498273
0.0088503048
0.0088494319
0.0088493028
0.0088486103
0.0088488228
0.0088489747
0.0088489889
0.0088488839
0.0088488475
0.0088497935
0.008850261
0.0088495562
0.0088493697
0.0088486107
0.0088487696
0.0088488884
0.0088488839
0.0088487729
0.0088487433
0.0088497079
0.0088501971
0.008849793
0.0088495745
0.0088487258
0.0088487944
0.0088488685
0.0088488475
0.0088487433
0.0088487483
0.0088497849
0.0088503808
0.0088504285
0.0088505618
0.0088498158
0.0088497999
0.0088498273
0.0088497935
0.0088497079
0.0088497849
0.0088509935
0.008851869
0.0088505135
0.0088508403
0.0088503837
0.0088503164
0.0088503048
0.008850261
0.0088501971
0.0088503808
0.008851869
0.0088517259
0.01098704
0.010987332
0.010986352
0.010986578
0.010986805
0.01098693
0.010987006
0.010987179
0.010987737
0.01098779
0.010987332
0.010986928
0.010986263
0.010986521
0.010986736
0.010986831
0.010986847
0.010986986
0.010987872
0.010988105
0.010986352
0.010986263
0.010985674
0.010985942
0.010986142
0.010986201
0.010986149
0.010986198
0.010987176
0.010987678
0.010986578
0.010986521
0.010985942
0.010986203
0.010986384
0.01098641
0.010986303
0.010986261
0.010987156
0.010987607
0.010986805
0.010986736
0.010986142
0.010986384
0.010986543
0.010986541
0.010986399
0.010986311
0.010987159
0.010987571
0.01098693
0.010986831
0.010986201
0.01098641