/*--------------------------------*- C++ -*----------------------------------*\
| =========                 |                                                 |
| \\      /  F ield         | OpenFOAM: The Open Source CFD Toolbox           |
|  \\    /   O peration     | Version:  v2106                                 |
|   \\  /    A nd           | Website:  www.openfoam.com                      |
|    \\/     M anipulation  |                                                 |
\*---------------------------------------------------------------------------*/
FoamFile
{
    version     2.0;
    format      ascii;
    arch        "LSB;label=32;scalar=64";
    class       volScalarField;
    location    "100";
    object      Tmode_lapla2;
}
// * * * * * * * * * * * * * * * * * * * * * * * * * * * * * * * * * * * * * //

dimensions      [0 -2 0 0 0 0 0];

internalField   nonuniform List<scalar> 
4000
(
224.95414
224.95319
224.95321
224.95261
224.95255
224.95257
224.95267
224.95284
224.953
224.95299
224.95319
224.95389
224.953
224.95255
224.95251
224.95252
224.95264
224.95286
224.95314
224.95302
224.95321
224.953
224.95247
224.95204
224.952
224.95202
224.95215
224.95241
224.95286
224.95282
224.95261
224.95255
224.95204
224.95162
224.95158
224.95161
224.95174
224.952
224.95246
224.95252
224.95255
224.95251
224.952
224.95158
224.95156
224.9516
224.95173
224.952
224.95245
224.9525
224.95257
224.95252
224.95202
224.95161
224.9516
224.95165
224.95179
224.95207
224.95253
224.95257
224.95267
224.95264
224.95215
224.95174
224.95173
224.95179
224.95195
224.95223
224.95269
224.95273
224.95284
224.95286
224.95241
224.952
224.952
224.95207
224.95223
224.95251
224.95298
224.95302
224.953
224.95314
224.95286
224.95246
224.95245
224.95253
224.95269
224.95298
224.95343
224.95347
224.95299
224.95302
224.95282
224.95252
224.9525
224.95257
224.95273
224.95302
224.95347
224.95346
71.259493
71.248892
71.258363
71.255825
71.255759
71.255827
71.25584
71.255831
71.255828
71.255694
71.248892
71.250254
71.254125
71.252205
71.252246
71.252329
71.252347
71.2523
71.25191
71.253153
71.258363
71.254125
71.259128
71.257316
71.257352
71.257431
71.257473
71.257498
71.256728
71.255645
71.255825
71.252205
71.257316
71.255506
71.255534
71.255606
71.255653
71.255777
71.255401
71.255036
71.255759
71.252246
71.257352
71.255534
71.255554
71.255616
71.255651
71.255755
71.255359
71.255009
71.255827
71.252329
71.257431
71.255606
71.255616
71.255671
71.255696
71.255789
71.255377
71.255011
71.25584
71.252347
71.257473
71.255653
71.255651
71.255696
71.255717
71.255806
71.255391
71.255022
71.255831
71.2523
71.257498
71.255777
71.255755
71.255789
71.255806
71.255895
71.255482
71.255106
71.255828
71.25191
71.256728
71.255401
71.255359
71.255377
71.255391
71.255482
71.255073
71.254656
71.255694
71.253153
71.255645
71.255036
71.255009
71.255011
71.255022
71.255106
71.254656
71.254127
36.187457
36.178535
36.188038
36.184899
36.184926
36.185038
36.185062
36.185049
36.184872
36.187058
36.178535
36.181092
36.184908
36.182576
36.182716
36.182843
36.182905
36.182843
36.18077
36.183371
36.188038
36.184908
36.189994
36.187761
36.187883
36.188003
36.188129
36.188383
36.186151
36.186151
36.184899
36.182576
36.187761
36.185522
36.185629
36.185731
36.185857
36.186263
36.184594
36.185499
36.184926
36.182716
36.187883
36.185629
36.185723
36.185809
36.185905
36.186263
36.18455
36.185469
36.185038
36.182843
36.188003
36.185731
36.185809
36.185884
36.185968
36.186307
36.18457
36.185469
36.185062
36.182905
36.188129
36.185857
36.185905
36.185968
36.186049
36.186386
36.184649
36.185549
36.185049
36.182843
36.188383
36.186263
36.186263
36.186307
36.186386
36.186729
36.185
36.18586
36.184872
36.18077
36.186151
36.184594
36.18455
36.18457
36.184649
36.185
36.183271
36.18383
36.187058
36.183371
36.186151
36.185499
36.185469
36.185469
36.185549
36.18586
36.18383
36.186009
20.437107
20.427131
20.436867
20.433639
20.433728
20.433856
20.433893
20.433858
20.432742
20.435173
20.427131
20.429324
20.433399
20.431002
20.43119
20.431335
20.431491
20.431679
20.427922
20.430791
20.436867
20.433399
20.438683
20.43637
20.436529
20.436656
20.436896
20.437618
20.433855
20.433872
20.433639
20.431002
20.43637
20.434047
20.434186
20.434279
20.434488
20.435366
20.432233
20.433213
20.433728
20.43119
20.436529
20.434186
20.43431
20.434382
20.434547
20.435355
20.432164
20.433162
20.433856
20.431335
20.436656
20.434279
20.434382
20.434443
20.434595
20.435381
20.432164
20.433148
20.433893
20.431491
20.436896
20.434488
20.434547
20.434595
20.434744
20.435533
20.432323
20.433325
20.433858
20.431679
20.437618
20.435366
20.435355
20.435381
20.435533
20.436335
20.433142
20.434034
20.432742
20.427922
20.433855
20.432233
20.432164
20.432164
20.432323
20.433142
20.429906
20.429693
20.435173
20.430791
20.433872
20.433213
20.433162
20.433148
20.433325
20.434034
20.429693
20.434623
11.350095
11.338723
11.349115
11.346002
11.346084
11.346202
11.346271
11.346382
11.344799
11.347417
11.338723
11.340592
11.345258
11.342904
11.343063
11.343185
11.343428
11.344071
11.339511
11.342766
11.349115
11.345258
11.351014
11.348735
11.348861
11.348941
11.349232
11.350482
11.345912
11.346063
11.346002
11.342904
11.348735
11.346448
11.346552
11.346589
11.346819
11.348216
11.344289
11.345402
11.346084
11.343063
11.348861
11.346552
11.346644
11.34666
11.346839
11.348158
11.344173
11.345318
11.346202
11.343185
11.348941
11.346589
11.34666
11.346668
11.346835
11.348134
11.344125
11.345273
11.346271
11.343428
11.349232
11.346819
11.346839
11.346835
11.347004
11.348312
11.344323
11.345527
11.346382
11.344071
11.350482
11.348216
11.348158
11.348134
11.348312
11.34965
11.345708
11.346761
11.344799
11.339511
11.345912
11.344289
11.344173
11.344125
11.344323
11.345708
11.341694
11.340513
11.347417
11.342766
11.346063
11.345402
11.345318
11.345273
11.345527
11.346761
11.340513
11.347476
5.6149481
5.6034717
5.6144238
5.6114125
5.6114259
5.6115074
5.6115925
5.6118718
5.6101558
5.6130216
5.6034717
5.6057998
5.610936
5.6085841
5.6086491
5.6087017
5.6089252
5.6098411
5.6048485
5.6083718
5.6144238
5.610936
5.6170584
5.6147873
5.6148224
5.6148221
5.615059
5.6165973
5.6115388
5.6117796
5.6114125
5.6085841
5.6147873
5.6125138
5.6125327
5.6124895
5.6126542
5.6143397
5.6099208
5.6111072
5.6114259
5.6086491
5.6148224
5.6125327
5.6125437
5.6124835
5.6125982
5.6142111
5.609747
5.6109859
5.6115074
5.6087017
5.6148221
5.6124895
5.6124835
5.6124183
5.6125236
5.6141191
5.6096371
5.6109004
5.6115925
5.6089252
5.615059
5.6126542
5.6125982
5.6125236
5.6126325
5.6142427
5.6097981
5.6111728
5.6118718
5.6098411
5.6165973
5.6143397
5.6142111
5.6141191
5.6142427
5.615905
5.6115605
5.6128328
5.6101558
5.6048485
5.6115388
5.6099208
5.609747
5.6096371
5.6097981
5.6115605
5.6071957
5.6052232
5.6130216
5.6083718
5.6117796
5.6111072
5.6109859
5.6109004
5.6111728
5.6128328
5.6052232
5.6135086
1.859065
1.848078
1.8593385
1.856363
1.8562726
1.8563021
1.8563544
1.8566725
1.8548046
1.8576882
1.848078
1.8511014
1.8564604
1.854051
1.8540008
1.8539788
1.8541198
1.8550634
1.8496708
1.8531226
1.8593385
1.8564604
1.8627345
1.8604206
1.8603523
1.8602839
1.8604326
1.8620049
1.8564935
1.8565685
1.856363
1.854051
1.8604206
1.8581133
1.8580356
1.8579316
1.8580139
1.8597464
1.854872
1.8558786
1.8562726
1.8540008
1.8603523
1.8580356
1.8579545
1.8578382
1.8578764
1.8595492
1.8546478
1.8557292
1.8563021
1.8539788
1.8602839
1.8579316
1.8578382
1.8577194
1.8577498
1.8594081
1.8544943
1.8556165
1.8563544
1.8541198
1.8604326
1.8580139
1.8578764
1.8577498
1.8577843
1.8594594
1.8545927
1.8558717
1.8566725
1.8550634
1.8620049
1.8597464
1.8595492
1.8594081
1.8594594
1.8611998
1.8564823
1.8577618
1.8548046
1.8496708
1.8564935
1.854872
1.8546478
1.8544943
1.8545927
1.8564823
1.85185
1.8492306
1.8576882
1.8531226
1.8565685
1.8558786
1.8557292
1.8556165
1.8558717
1.8577618
1.8492306
1.858273
-0.62975774
-0.64026316
-0.62886932
-0.63185951
-0.63205351
-0.63206585
-0.63204963
-0.63176234
-0.63380525
-0.63107675
-0.64026316
-0.6366951
-0.63128638
-0.63378362
-0.63393146
-0.63398784
-0.63389415
-0.63301087
-0.63874193
-0.6355546
-0.62886932
-0.63128638
-0.62500631
-0.62739212
-0.62754549
-0.62763439
-0.62751874
-0.62600048
-0.63188833
-0.63211145
-0.63185951
-0.63378362
-0.62739212
-0.62976434
-0.6299218
-0.63003757
-0.6299735
-0.62827477
-0.63352427
-0.63282096
-0.63205351
-0.63393146
-0.62754549
-0.6299218
-0.63007993
-0.6302045
-0.63017753
-0.62852333
-0.63378116
-0.63298386
-0.63206585
-0.63398784
-0.62763439
-0.63003757
-0.6302045
-0.63033079
-0.63031122
-0.62867015
-0.63393821
-0.63309462
-0.63204963
-0.63389415
-0.62751874
-0.6299735
-0.63017753
-0.63031122
-0.63028948
-0.62863395
-0.63385562
-0.63284121
-0.63176234
-0.63301087
-0.62600048
-0.62827477
-0.62852333
-0.62867015
-0.62863395
-0.62691298
-0.63196663
-0.63087589
-0.63380525
-0.63874193
-0.63188833
-0.63352427
-0.63378116
-0.63393821
-0.63385562
-0.63196663
-0.63685585
-0.63999468
-0.63107675
-0.6355546
-0.63211145
-0.63282096
-0.63298386
-0.63309462
-0.63284121
-0.63087589
-0.63999468
-0.63058045
-2.2676192
-2.2777297
-2.2663067
-2.2693431
-2.2696221
-2.2696477
-2.2696291
-2.2693578
-2.2715303
-2.2689958
-2.2777297
-2.2737933
-2.2684371
-2.2710362
-2.271258
-2.2713057
-2.2711906
-2.2703453
-2.2762977
-2.2734013
-2.2663067
-2.2684371
-2.2622316
-2.264705
-2.2649226
-2.2649893
-2.2648298
-2.2633429
-2.2694744
-2.2699847
-2.2693431
-2.2710362
-2.264705
-2.26716
-2.2673782
-2.2674642
-2.2673383
-2.2656481
-2.2711356
-2.2707149
-2.2696221
-2.271258
-2.2649226
-2.2673782
-2.2675958
-2.2676882
-2.2675924
-2.2659319
-2.2714105
-2.2708792
-2.2696477
-2.2713057
-2.2649893
-2.2674642
-2.2676882
-2.2677821
-2.2676939
-2.2660463
-2.2715352
-2.270961
-2.2696291
-2.2711906
-2.2648298
-2.2673383
-2.2675924
-2.2676939
-2.2676066
-2.2659503
-2.2714016
-2.2706721
-2.2693578
-2.2703453
-2.2633429
-2.2656481
-2.2659319
-2.2660463
-2.2659503
-2.2642388
-2.2695329
-2.2687164
-2.2715303
-2.2762977
-2.2694744
-2.2711356
-2.2714105
-2.2715352
-2.2714016
-2.2695329
-2.2746465
-2.2781802
-2.2689958
-2.2734013
-2.2699847
-2.2707149
-2.2708792
-2.270961
-2.2706721
-2.2687164
-2.2781802
-2.2686282
-3.3172368
-3.3270188
-3.3156449
-3.3187492
-3.3190978
-3.3191197
-3.3190689
-3.3187829
-3.3210257
-3.3186583
-3.3270188
-3.3228557
-3.317619
-3.3203252
-3.3206056
-3.3206253
-3.3204444
-3.3195945
-3.3256581
-3.3230079
-3.3156449
-3.317619
-3.311538
-3.314106
-3.3143753
-3.3144027
-3.3141534
-3.3126543
-3.3189048
-3.3196335
-3.3187492
-3.3203252
-3.314106
-3.3166517
-3.3169196
-3.3169602
-3.3167268
-3.3150021
-3.3205995
-3.320385
-3.3190978
-3.3206056
-3.3143753
-3.3169196
-3.3171861
-3.3172314
-3.3170214
-3.3153128
-3.3208855
-3.3205451
-3.3191197
-3.3206253
-3.3144027
-3.3169602
-3.3172314
-3.317278
-3.317075
-3.315378
-3.3209605
-3.320583
-3.3190689
-3.3204444
-3.3141534
-3.3167268
-3.3170214
-3.317075
-3.3168747
-3.3151736
-3.3207285
-3.3202268
-3.3187829
-3.3195945
-3.3126543
-3.3150021
-3.3153128
-3.315378
-3.3151736
-3.31343
-3.3188539
-3.3183126
-3.3210257
-3.3256581
-3.3189048
-3.3205995
-3.3208855
-3.3209605
-3.3207285
-3.3188539
-3.3241365
-3.3279559
-3.3186583
-3.3230079
-3.3196335
-3.320385
-3.3205451
-3.320583
-3.3202268
-3.3183126
-3.3279559
-3.3183958
-3.9544058
-3.9639137
-3.9526562
-3.9558374
-3.9562423
-3.9562553
-3.9561607
-3.9558393
-3.9581059
-3.9558634
-3.9639137
-3.9596414
-3.9545692
-3.9573764
-3.9577032
-3.957691
-3.9574272
-3.9565397
-3.9626316
-3.9601684
-3.9526562
-3.9545692
-3.9486469
-3.9513051
-3.9516158
-3.9516026
-3.9512481
-3.9497022
-3.9559763
-3.9568481
-3.9558374
-3.9573764
-3.9513051
-3.9539383
-3.9542462
-3.9542418
-3.9538878
-3.9520969
-3.9577072
-3.9576199
-3.9562423
-3.9577032
-3.9516158
-3.9542462
-3.9545527
-3.954552
-3.9542158
-3.9524295
-3.9580018
-3.9577746
-3.9562553
-3.957691
-3.9516026
-3.9542418
-3.954552
-3.9545521
-3.9542218
-3.9524449
-3.9580249
-3.9577653
-3.9561607
-3.9574272
-3.9512481
-3.9538878
-3.9542158
-3.9542218
-3.9538941
-3.9521149
-3.9576742
-3.9573249
-3.9558393
-3.9565397
-3.9497022
-3.9520969
-3.9524295
-3.9524449
-3.9521149
-3.950303
-3.9557603
-3.9554525
-3.9581059
-3.9626316
-3.9559763
-3.9577072
-3.9580018
-3.9580249
-3.9576742
-3.9557603
-3.961147
-3.965167
-3.9558634
-3.9601684
-3.9568481
-3.9576199
-3.9577746
-3.9577653
-3.9573249
-3.9554525
-3.965167
-3.9556664
-4.3013723
-4.3106445
-4.2995611
-4.3028145
-4.3032619
-4.3032643
-4.3031243
-4.3027564
-4.3050124
-4.3028562
-4.3106445
-4.3063563
-4.3014772
-4.3043694
-4.3047299
-4.3046867
-4.3043384
-4.303391
-4.3094495
-4.3071211
-4.2995611
-4.3014772
-4.2957367
-4.2984713
-4.2988123
-4.2987618
-4.2983038
-4.2966884
-4.3029149
-4.3038648
-4.3028145
-4.3043694
-4.2984713
-4.3011788
-4.3015163
-4.3014717
-4.301002
-4.299126
-4.3046787
-4.3046536
-4.3032619
-4.3047299
-4.2988123
-4.3015163
-4.3018526
-4.3018114
-4.3013555
-4.2994753
-4.3049798
-4.3048031
-4.3032643
-4.3046867
-4.2987618
-4.3014717
-4.3018114
-4.3017713
-4.3013202
-4.2994469
-4.3049564
-4.3047501
-4.3031243
-4.3043384
-4.2983038
-4.301002
-4.3013555
-4.3013202
-4.3008708
-4.2989951
-4.3044874
-4.3042222
-4.3027564
-4.303391
-4.2966884
-4.299126
-4.2994753
-4.2994469
-4.2989951
-4.2970924
-4.3025078
-4.3023772
-4.3050124
-4.3094495
-4.3029149
-4.3046787
-4.3049798
-4.3049564
-4.3044874
-4.3025078
-4.3079335
-4.3120918
-4.3028562
-4.3071211
-4.3038648
-4.3046536
-4.3048031
-4.3047501
-4.3042222
-4.3023772
-4.3120918
-4.3026862
-4.444868
-4.4539223
-4.4430628
-4.4463742
-4.4468505
-4.4468417
-4.4466588
-4.4462393
-4.4484593
-4.4463599
-4.4539223
-4.4496874
-4.4450183
-4.4479734
-4.4483555
-4.4482843
-4.4478577
-4.4468376
-4.4528157
-4.4505821
-4.4430628
-4.4450183
-4.4394754
-4.4422667
-4.4426271
-4.4425444
-4.4419933
-4.4402963
-4.4464216
-4.4473988
-4.4463742
-4.4479734
-4.4422667
-4.4450295
-4.4453863
-4.4453079
-4.4447361
-4.4427669
-4.4482108
-4.4481999
-4.4468505
-4.4483555
-4.4426271
-4.4453863
-4.4457424
-4.4456676
-4.445107
-4.4431275
-4.4485161
-4.4483448
-4.4468417
-4.4482843
-4.4425444
-4.4453079
-4.4456676
-4.445594
-4.4450377
-4.4430633
-4.4484542
-4.4482548
-4.4466588
-4.4478577
-4.4419933
-4.4447361
-4.445107
-4.4450377
-4.4444821
-4.442504
-4.4478789
-4.4476453
-4.4462393
-4.4468376
-4.4402963
-4.4427669
-4.4431275
-4.4430633
-4.442504
-4.4405017
-4.4458188
-4.4458091
-4.4484593
-4.4528157
-4.4464216
-4.4482108
-4.4485161
-4.4484542
-4.4478789
-4.4458188
-4.4512229
-4.455474
-4.4463599
-4.4505821
-4.4473988
-4.4481999
-4.4483448
-4.4482548
-4.4476453
-4.4458091
-4.455474
-4.4461851
-4.4469116
-4.4557476
-4.4451558
-4.4485053
-4.4489987
-4.4489789
-4.4487584
-4.4482873
-4.4504526
-4.4483907
-4.4557476
-4.4516146
-4.4471649
-4.4501586
-4.4505522
-4.450457
-4.449963
-4.4488663
-4.4547276
-4.452562
-4.4451558
-4.4471649
-4.4418311
-4.4446571
-4.445028
-4.4449189
-4.4442898
-4.4425089
-4.4484929
-4.4494607
-4.4485053
-4.4501586
-4.4446571
-4.4474538
-4.4478212
-4.4477157
-4.4470599
-4.4449991
-4.4502972
-4.4502684
-4.4489987
-4.4505522
-4.445028
-4.4478212
-4.4481886
-4.448087
-4.4474408
-4.445366
-4.4506044
-4.4504093
-4.4489789
-4.450457
-4.4449189
-4.4477157
-4.448087
-4.4479872
-4.447345
-4.4452739
-4.4505125
-4.4502899
-4.4487584
-4.449963
-4.4442898
-4.4470599
-4.4474408
-4.447345
-4.4467027
-4.4446264
-4.4498485
-4.4496104
-4.4482873
-4.4488663
-4.4425089
-4.4449991
-4.445366
-4.4452739
-4.4446264
-4.4425265
-4.4477042
-4.4477667
-4.4504526
-4.4547276
-4.4484929
-4.4502972
-4.4506044
-4.4505125
-4.4498485
-4.4477042
-4.4530336
-4.4573425
-4.4483907
-4.452562
-4.4494607
-4.4502684
-4.4504093
-4.4502899
-4.4496104
-4.4477667
-4.4573425
-4.4481888
-4.3519351
-4.3605397
-4.3502549
-4.3536201
-4.3541208
-4.3540914
-4.3538399
-4.3533209
-4.3554185
-4.3533843
-4.3605397
-4.3565422
-4.3523168
-4.3553244
-4.3557217
-4.3556075
-4.3550591
-4.353889
-4.3596053
-4.3574925
-4.3502549
-4.3523168
-4.3472009
-4.350039
-4.3504133
-4.3502842
-4.3495939
-4.3477351
-4.353548
-4.3544819
-4.3536201
-4.3553244
-4.350039
-4.3528476
-4.3532189
-4.3530931
-4.3523726
-4.3502297
-4.355356
-4.3552905
-4.3541208
-4.3557217
-4.3504133
-4.3532189
-4.3535906
-4.3534693
-4.3527575
-4.3505986
-4.3556629
-4.3554277
-4.3540914
-4.3556075
-4.3502842
-4.3530931
-4.3534693
-4.3533501
-4.3526422
-4.350486
-4.355549
-4.3552865
-4.3538399
-4.3550591
-4.3495939
-4.3523726
-4.3527575
-4.3526422
-4.3519335
-4.3497707
-4.3548159
-4.3545508
-4.3533209
-4.353889
-4.3477351
-4.3502297
-4.3505986
-4.350486
-4.3497707
-4.3475835
-4.3525925
-4.3526891
-4.3554185
-4.3596053
-4.353548
-4.355356
-4.3556629
-4.355549
-4.3548159
-4.3525925
-4.3578032
-4.362141
-4.3533843
-4.3574925
-4.3544819
-4.3552905
-4.3554277
-4.3552865
-4.3545508
-4.3526891
-4.362141
-4.353142
-4.1917684
-4.2001216
-4.1901786
-4.1935361
-4.1940365
-4.1939992
-4.1937239
-4.1931633
-4.1951842
-4.1931753
-4.2001216
-4.1962827
-4.1922832
-4.195281
-4.1956759
-4.1955476
-4.1949583
-4.1937231
-4.1992724
-4.1972059
-4.1901786
-4.1922832
-4.1873921
-4.1902203
-4.1905928
-4.1904494
-4.1897149
-4.1877898
-4.1934095
-4.1942945
-4.1935361
-4.195281
-4.1902203
-4.1930194
-4.1933891
-4.1932494
-4.1924828
-4.1902728
-4.1952091
-4.195098
-4.1940365
-4.1956759
-4.1905928
-4.1933891
-4.1937599
-4.193625
-4.192867
-4.1906401
-4.1955137
-4.1952318
-4.1939992
-4.1955476
-4.1904494
-4.1932494
-4.193625
-4.1934927
-4.1927384
-4.1905136
-4.1953848
-4.1950756
-4.1937239
-4.1949583
-4.1897149
-4.1924828
-4.192867
-4.1927384
-4.1919827
-4.1897498
-4.1946017
-4.1942981
-4.1931633
-4.1937231
-4.1877898
-4.1902728
-4.1906401
-4.1905136
-4.1897498
-4.1874912
-4.1923112
-4.1924139
-4.1951842
-4.1992724
-4.1934095
-4.1952091
-4.1955137
-4.1953848
-4.1946017
-4.1923112
-4.197368
-4.2017091
-4.1931753
-4.1972059
-4.1942945
-4.195098
-4.1952318
-4.1950756
-4.1942981
-4.1924139
-4.2017091
-4.1928868
-3.9892035
-3.997282
-3.9877116
-3.9910381
-3.9915321
-3.9914887
-3.9911965
-3.990602
-3.9925402
-3.9905593
-3.997282
-3.9936175
-3.9898435
-3.9928088
-3.9931968
-3.9930588
-3.9924413
-3.9911526
-3.996517
-3.9944966
-3.9877116
-3.9898435
-3.9851825
-3.98798
-3.9883463
-3.9881938
-3.9874304
-3.9854544
-3.9908644
-3.9916922
-3.9910381
-3.9928088
-3.98798
-3.9907489
-3.991113
-3.9909645
-3.9901687
-3.9879098
-3.9926437
-3.9924851
-3.9915321
-3.9931968
-3.9883463
-3.991113
-3.9914785
-3.9913354
-3.9905481
-3.9882722
-3.9929441
-3.9926155
-3.9914887
-3.9930588
-3.9881938
-3.9909645
-3.9913354
-3.9911951
-3.9904116
-3.9881373
-3.9928059
-3.99245
-3.9911965
-3.9924413
-3.9874304
-3.9901687
-3.9905481
-3.9904116
-3.9896262
-3.9873426
-3.9919902
-3.9916446
-3.990602
-3.9911526
-3.9854544
-3.9879098
-3.9882722
-3.9881373
-3.9873426
-3.9850316
-3.9896487
-3.9897389
-3.9925402
-3.996517
-3.9908644
-3.9926437
-3.9929441
-3.9928059
-3.9919902
-3.9896487
-3.9945246
-3.9988455
-3.9905593
-3.9944966
-3.9916922
-3.9924851
-3.9926155
-3.99245
-3.9916446
-3.9897389
-3.9988455
-3.9902239
-3.7605487
-3.7683286
-3.7591572
-3.7624302
-3.7629131
-3.7628652
-3.7625622
-3.7619418
-3.7637934
-3.7618464
-3.7683286
-3.7648488
-3.7612981
-3.7642102
-3.7645877
-3.7644438
-3.7638093
-3.7624802
-3.7676455
-3.7656745
-3.7591572
-3.7612981
-3.7568713
-3.7596187
-3.7599755
-3.7598181
-3.7590392
-3.7570294
-3.7622173
-3.7629844
-3.7624302
-3.7642102
-3.7596187
-3.7623383
-3.7626933
-3.7625405
-3.76173
-3.7594416
-3.7639647
-3.7637614
-3.7629131
-3.7645877
-3.7599755
-3.7626933
-3.7630502
-3.762903
-3.7621014
-3.7597965
-3.7642591
-3.7638882
-3.7628652
-3.7644438
-3.7598181
-3.7625405
-3.762903
-3.762759
-3.761961
-3.7596575
-3.7641164
-3.7637181
-3.7625622
-3.7638093
-3.7590392
-3.76173
-3.7621014
-3.761961
-3.7611607
-3.7588469
-3.7632832
-3.7628972
-3.7619418
-3.7624802
-3.7570294
-3.7594416
-3.7597965
-3.7596575
-3.7588469
-3.756504
-3.7609092
-3.7609756
-3.7637934
-3.7676455
-3.7622173
-3.7639647
-3.7642591
-3.7641164
-3.7632832
-3.7609092
-3.7655843
-3.7698628
-3.7618464
-3.7656745
-3.7629844
-3.7637614
-3.7638882
-3.7637181
-3.7628972
-3.7609756
-3.7698628
-3.7614671
-3.5174515
-3.5249096
-3.5161596
-3.5193582
-3.5198259
-3.5197751
-3.5194665
-3.5188282
-3.5205907
-3.5186854
-3.5249096
-3.521621
-3.5182904
-3.5211304
-3.5214945
-3.5213478
-3.5207062
-3.5193503
-3.5243048
-3.522389
-3.5161596
-3.5182904
-3.5141004
-3.5167801
-3.5171247
-3.5169658
-3.516183
-3.514157
-3.5191134
-3.5198195
-3.5193582
-3.5211304
-3.5167801
-3.5194329
-3.5197763
-3.5196225
-3.5188096
-3.5165113
-3.5208182
-3.5205756
-3.5198259
-3.5214945
-3.5171247
-3.5197763
-3.5201217
-3.5199739
-3.5191701
-3.5168563
-3.521105
-3.5206987
-3.5197751
-3.5213478
-3.5169658
-3.5196225
-3.5199739
-3.5198293
-3.5190292
-3.5167167
-3.5209613
-3.5205277
-3.5194665
-3.5207062
-3.516183
-3.5188096
-3.5191701
-3.5190292
-3.5182264
-3.5159028
-3.5201235
-3.5197022
-3.5188282
-3.5193503
-3.514157
-3.5165113
-3.5168563
-3.5167167
-3.5159028
-3.5135485
-3.5177364
-3.5177735
-3.5205907
-3.5243048
-3.5191134
-3.5208182
-3.521105
-3.5209613
-3.5201235
-3.5177364
-3.5221964
-3.5264119
-3.5186854
-3.522389
-3.5198195
-3.5205756
-3.5206987
-3.5205277
-3.5197022
-3.5177735
-3.5264119
-3.5182673
-3.2681958
-3.2753108
-3.2670005
-3.2701056
-3.2705552
-3.2705025
-3.2701927
-3.2695442
-3.2712161
-3.2693612
-3.2753108
-3.2722168
-3.2691022
-3.2718534
-3.272202
-3.272055
-3.2714145
-3.2700454
-3.2747796
-3.2729261
-3.2670005
-3.2691022
-3.2651506
-3.2677468
-3.2680773
-3.2679194
-3.2671425
-3.2651176
-3.2698359
-3.2704824
-3.2701056
-3.2718534
-3.2677468
-3.2703173
-3.2706469
-3.2704948
-3.2696895
-3.2674005
-3.2714881
-3.2712133
-3.2705552
-3.272202
-3.2680773
-3.2706469
-3.2709788
-3.2708329
-3.270037
-3.2677338
-3.2717657
-3.2713322
-3.2705025
-3.272055
-3.2679194
-3.2704948
-3.2708329
-3.2706902
-3.2698981
-3.267596
-3.2716238
-3.2711632
-3.2701927
-3.2714145
-3.2671425
-3.2696895
-3.270037
-3.2698981
-3.2691031
-3.2667893
-3.2707922
-3.2703426
-3.2695442
-3.2700454
-3.2651176
-3.2674005
-3.2677338
-3.267596
-3.2667893
-3.2644435
-3.2684112
-3.2684176
-3.2712161
-3.2747796
-3.2698359
-3.2714881
-3.2717657
-3.2716238
-3.2707922
-3.2684112
-3.2726468
-3.2767798
-3.2693612
-3.2729261
-3.2704824
-3.2712133
-3.2713322
-3.2711632
-3.2703426
-3.2684176
-3.2767798
-3.2689106
-3.018625
-3.0253779
-3.017522
-3.0205163
-3.0209455
-3.0208919
-3.0205848
-3.019933
-3.0215138
-3.0197181
-3.0253779
-3.0224799
-3.0195766
-3.0222242
-3.0225557
-3.0224104
-3.0217781
-3.0204088
-3.0249153
-3.0231313
-3.017522
-3.0195766
-3.0158638
-3.0183628
-3.0186776
-3.018523
-3.0177597
-3.0157525
-3.0202282
-3.020818
-3.0205163
-3.0222242
-3.0183628
-3.0208374
-3.0211516
-3.0210032
-3.0202139
-3.0179521
-3.0218189
-3.0215197
-3.0209455
-3.0225557
-3.0186776
-3.0211516
-3.0214683
-3.0213261
-3.0205465
-3.0182719
-3.022086
-3.0216341
-3.0208919
-3.0224104
-3.018523
-3.0210032
-3.0213261
-3.0211873
-3.0204114
-3.0181378
-3.0219479
-3.0214692
-3.0205848
-3.0217781
-3.0177597
-3.0202139
-3.0205465
-3.0204114
-3.0196325
-3.017347
-3.0211312
-3.0206616
-3.019933
-3.0204088
-3.0157525
-3.0179521
-3.0182719
-3.0181378
-3.017347
-3.0150284
-3.0187749
-3.0187522
-3.0215138
-3.0249153
-3.0202282
-3.0218189
-3.022086
-3.0219479
-3.0211312
-3.0187749
-3.0227804
-3.026813
-3.0197181
-3.0231313
-3.020818
-3.0215197
-3.0216341
-3.0214692
-3.0206616
-3.0187522
-3.026813
-3.019242
-2.7728013
-2.7791761
-2.7717857
-2.7746543
-2.7750611
-2.7750076
-2.7747061
-2.7740577
-2.7755472
-2.7738193
-2.7791761
-2.7764737
-2.7737766
-2.7763082
-2.7766214
-2.7764795
-2.7758611
-2.7745037
-2.778777
-2.7770694
-2.7717857
-2.7737766
-2.7703024
-2.7726923
-2.7729902
-2.7728404
-2.7720975
-2.7701234
-2.7743535
-2.7748901
-2.7746543
-2.7763082
-2.7726923
-2.7750591
-2.7753568
-2.7752136
-2.7744469
-2.772229
-2.7758749
-2.7755593
-2.7750611
-2.7766214
-2.7729902
-2.7753568
-2.7756571
-2.7755201
-2.7747634
-2.7725339
-2.7761303
-2.7756687
-2.7750076
-2.7764795
-2.7728404
-2.7752136
-2.7755201
-2.7753865
-2.7746334
-2.7724051
-2.7759975
-2.7755096
-2.7747061
-2.7758611
-2.7720975
-2.7744469
-2.7747634
-2.7746334
-2.7738773
-2.7716368
-2.775203
-2.7747218
-2.7740577
-2.7745037
-2.7701234
-2.772229
-2.7725339
-2.7724051
-2.7716368
-2.7693626
-2.7728887
-2.7728402
-2.7755472
-2.778777
-2.7743535
-2.7758749
-2.7761303
-2.7759975
-2.775203
-2.7728887
-2.7766613
-2.7805773
-2.7738193
-2.7770694
-2.7748901
-2.7755593
-2.7756687
-2.7755096
-2.7747218
-2.7728402
-2.7805773
-2.7733247
-2.5334801
-2.5394636
-2.5325467
-2.5352766
-2.53566
-2.5356071
-2.5353139
-2.5346745
-2.5360733
-2.5344211
-2.5394636
-2.5369556
-2.5344592
-2.5368642
-2.5371585
-2.5370212
-2.5364216
-2.5350872
-2.5391232
-2.5374986
-2.5325467
-2.5344592
-2.5312223
-2.5334932
-2.5337735
-2.5336297
-2.5329125
-2.5309855
-2.5349687
-2.5354559
-2.5352766
-2.5368642
-2.5334932
-2.5357424
-2.5360228
-2.5358859
-2.5351472
-2.532988
-2.5364142
-2.5360898
-2.53566
-2.5371585
-2.5337735
-2.5360228
-2.5363057
-2.536175
-2.5354465
-2.5332771
-2.5366569
-2.5361937
-2.5356071
-2.5370212
-2.5336297
-2.5358859
-2.536175
-2.5360476
-2.5353226
-2.5331544
-2.5365305
-2.5360416
-2.5353139
-2.5364216
-2.5329125
-2.5351472
-2.5354465
-2.5353226
-2.5345946
-2.5324142
-2.5357638
-2.5352792
-2.5346745
-2.5350872
-2.5309855
-2.532988
-2.5332771
-2.5331544
-2.5324142
-2.5301998
-2.5335073
-2.5334374
-2.5360733
-2.5391232
-2.5349687
-2.5364142
-2.5366569
-2.5365305
-2.5357638
-2.5335073
-2.5370466
-2.5408312
-2.5344211
-2.5374986
-2.5354559
-2.5360898
-2.5361937
-2.5360416
-2.5352792
-2.5334374
-2.5408312
-2.533915
-2.3024536
-2.3080358
-2.3015974
-2.3041778
-2.3045368
-2.3044851
-2.3042023
-2.3035772
-2.3048861
-2.3033165
-2.3080358
-2.3057202
-2.303419
-2.3056886
-2.3059634
-2.3058318
-2.305255
-2.3039536
-2.3077496
-2.3062136
-2.3015974
-2.303419
-2.3004174
-2.302561
-2.3028232
-2.3026864
-2.3019992
-2.3001317
-2.3038679
-2.3043095
-2.3041778
-2.3056886
-2.302561
-2.3046844
-2.3049469
-2.3048171
-2.3041108
-2.3020236
-2.3052319
-2.3049055
-2.3045368
-2.3059634
-2.3028232
-2.3049469
-2.3052119
-2.3050883
-2.304392
-2.3022959
-2.3054611
-2.3050037
-2.3044851
-2.3058318
-2.3026864
-2.3048171
-2.3050883
-2.3049678
-2.304275
-2.3021801
-2.3053417
-2.3048595
-2.3042023
-2.305255
-2.3019992
-2.3041108
-2.304392
-2.304275
-2.3035793
-2.3014723
-2.3046076
-2.304127
-2.3035772
-2.3039536
-2.3001317
-2.3020236
-2.3022959
-2.3021801
-2.3014723
-2.2993314
-2.3024228
-2.3023365
-2.3048861
-2.3077496
-2.3038679
-2.3052319
-2.3054611
-2.3053417
-2.3046076
-2.3024228
-2.3057302
-2.3093703
-2.3033165
-2.3062136
-2.3043095
-2.3049055
-2.3050037
-2.3048595
-2.304127
-2.3023365
-2.3093703
-2.3028055
-2.0808021
-2.0859761
-2.0800187
-2.0824407
-2.0827747
-2.0827248
-2.0824539
-2.0818476
-2.0830677
-2.0815868
-2.0859761
-2.0838506
-2.0817388
-2.083866
-2.0841212
-2.083996
-2.0834452
-2.0821855
-2.0857403
-2.0842974
-2.0800187
-2.0817388
-2.0789699
-2.0809797
-2.0812234
-2.0810943
-2.0804404
-2.0786435
-2.0821337
-2.0825329
-2.0824407
-2.083866
-2.0809797
-2.0829706
-2.0832148
-2.0830928
-2.0824221
-2.0804184
-2.0834115
-2.0830893
-2.0827747
-2.0841212
-2.0812234
-2.0832148
-2.0834616
-2.0833455
-2.0826848
-2.0806733
-2.0836265
-2.0831814
-2.0827248
-2.083996
-2.0810943
-2.0830928
-2.0833455
-2.0832325
-2.0825751
-2.0805649
-2.0835147
-2.0830456
-2.0824539
-2.0834452
-2.0804404
-2.0824221
-2.0826848
-2.0825751
-2.0819148
-2.0798928
-2.0828166
-2.0823468
-2.0818476
-2.0821855
-2.0786435
-2.0804184
-2.0806733
-2.0805649
-2.0798928
-2.0778372
-2.080716
-2.080618
-2.0830677
-2.0857403
-2.0821337
-2.0834115
-2.0836265
-2.0835147
-2.0828166
-2.080716
-2.0837941
-2.087278
-2.0815868
-2.0842974
-2.0825329
-2.0830893
-2.0831814
-2.0830456
-2.0823468
-2.080618
-2.087278
-2.0810767
-1.8690798
-1.8738414
-1.8683652
-1.8706215
-1.8709302
-1.8708825
-1.870625
-1.8700413
-1.8711741
-1.8697867
-1.8738414
-1.8719033
-1.8699753
-1.8719546
-1.8721901
-1.872072
-1.8715496
-1.8703393
-1.8736526
-1.8723062
-1.8683652
-1.8699753
-1.8674359
-1.8693066
-1.8695318
-1.8694108
-1.868793
-1.867076
-1.8703219
-1.8706819
-1.8706215
-1.8719546
-1.8693066
-1.8711598
-1.8713857
-1.8712719
-1.8706392
-1.868729
-1.8715099
-1.871197
-1.8709302
-1.8721901
-1.8695318
-1.8713857
-1.8716141
-1.8715059
-1.8708831
-1.868966
-1.8717103
-1.8712828
-1.8708825
-1.872072
-1.8694108
-1.8712719
-1.8715059
-1.8714006
-1.870781
-1.8688652
-1.8716062
-1.8711558
-1.870625
-1.8715496
-1.868793
-1.8706392
-1.8708831
-1.870781
-1.8701586
-1.8682313
-1.870947
-1.8704936
-1.8700413
-1.8703393
-1.867076
-1.868729
-1.868966
-1.8688652
-1.8682313
-1.8662712
-1.8689412
-1.868836
-1.8711741
-1.8736526
-1.8703219
-1.8715099
-1.8717103
-1.8716062
-1.870947
-1.8689412
-1.8717937
-1.8751112
-1.8697867
-1.8723062
-1.8706819
-1.871197
-1.8712828
-1.8711558
-1.8704936
-1.868836
-1.8751112
-1.8692826
-1.6674517
-1.6717991
-1.6668025
-1.6688877
-1.669171
-1.6691257
-1.6688826
-1.6683249
-1.6693718
-1.6680818
-1.6717991
-1.6700461
-1.6682961
-1.6701235
-1.6703393
-1.6702288
-1.6697367
-1.6685824
-1.6716549
-1.6704073
-1.6668025
-1.6682961
-1.6659827
-1.6677102
-1.6679171
-1.6678045
-1.6672248
-1.6655956
-1.6685999
-1.668923
-1.6688877
-1.6701235
-1.6677102
-1.669422
-1.6696295
-1.669524
-1.6689313
-1.6671227
-1.6696952
-1.6693957
-1.669171
-1.6703393
-1.6679171
-1.6696295
-1.6698394
-1.6697393
-1.6691561
-1.6673416
-1.6698804
-1.6694749
-1.6691257
-1.6702288
-1.6678045
-1.669524
-1.6697393
-1.669642
-1.6690618
-1.6672484
-1.6697842
-1.6693569
-1.6688826
-1.6697367
-1.6672248
-1.6689313
-1.6691561
-1.6690618
-1.668479
-1.6666546
-1.6691658
-1.6687336
-1.6683249
-1.6685824
-1.6655956
-1.6671227
-1.6673416
-1.6672484
-1.6666546
-1.6647983
-1.6672638
-1.6671554
-1.6693718
-1.6716549
-1.6685999
-1.6696952
-1.6698804
-1.6697842
-1.6691658
-1.6672638
-1.6698951
-1.6730376
-1.6680818
-1.6704073
-1.668923
-1.6693957
-1.6694749
-1.6693569
-1.6687336
-1.6671554
-1.6730376
-1.667588
-1.4757969
-1.4797309
-1.4752106
-1.4771204
-1.4773784
-1.4773358
-1.4771078
-1.4765787
-1.4775416
-1.4763518
-1.4797309
-1.4781605
-1.4765829
-1.4782553
-1.4784517
-1.478349
-1.4778889
-1.4767958
-1.479629
-1.4784816
-1.4752106
-1.4765829
-1.4744913
-1.476073
-1.4762615
-1.4761576