/*--------------------------------*- C++ -*----------------------------------*\
| =========                 |                                                 |
| \\      /  F ield         | OpenFOAM: The Open Source CFD Toolbox           |
|  \\    /   O peration     | Version:  v2106                                 |
|   \\  /    A nd           | Website:  www.openfoam.com                      |
|    \\/     M anipulation  |                                                 |
\*---------------------------------------------------------------------------*/
FoamFile
{
    version     2.0;
    format      ascii;
    arch        "LSB;label=32;scalar=64";
    class       volScalarField;
    location    "100";
    object      Tmode_lapla5;
}
// * * * * * * * * * * * * * * * * * * * * * * * * * * * * * * * * * * * * * //

dimensions      [0 -2 0 0 0 0 0];

internalField   nonuniform List<scalar> 
4000
(
-1571.6517
-1571.6315
-1571.6458
-1571.645
-1571.6481
-1571.6478
-1571.6462
-1571.6443
-1571.6428
-1571.6413
-1571.6315
-1571.6427
-1571.6431
-1571.6455
-1571.6483
-1571.6478
-1571.6459
-1571.6439
-1571.6428
-1571.6426
-1571.6458
-1571.6431
-1571.6498
-1571.6517
-1571.6542
-1571.6535
-1571.6513
-1571.6487
-1571.6478
-1571.6452
-1571.645
-1571.6455
-1571.6517
-1571.6532
-1571.6556
-1571.6548
-1571.6524
-1571.6491
-1571.6479
-1571.6461
-1571.6481
-1571.6483
-1571.6542
-1571.6556
-1571.658
-1571.6572
-1571.6548
-1571.6513
-1571.6495
-1571.6473
-1571.6478
-1571.6478
-1571.6535
-1571.6548
-1571.6572
-1571.6565
-1571.6541
-1571.6507
-1571.6489
-1571.6466
-1571.6462
-1571.6459
-1571.6513
-1571.6524
-1571.6548
-1571.6541
-1571.6518
-1571.6484
-1571.6467
-1571.6443
-1571.6443
-1571.6439
-1571.6487
-1571.6491
-1571.6513
-1571.6507
-1571.6484
-1571.6451
-1571.6434
-1571.6412
-1571.6428
-1571.6428
-1571.6478
-1571.6479
-1571.6495
-1571.6489
-1571.6467
-1571.6434
-1571.6419
-1571.6398
-1571.6413
-1571.6426
-1571.6452
-1571.6461
-1571.6473
-1571.6466
-1571.6443
-1571.6412
-1571.6398
-1571.6378
706.56764
706.55084
706.50636
706.54722
706.54239
706.54042
706.53979
706.53902
706.53744
706.53374
706.55084
706.52378
706.5222
706.54811
706.54248
706.54064
706.53987
706.53882
706.54189
706.53348
706.50636
706.5222
706.50216
706.5279
706.52267
706.52094
706.51978
706.51632
706.52148
706.52921
706.54722
706.54811
706.5279
706.55387
706.5488
706.54727
706.54639
706.54131
706.5391
706.53604
706.54239
706.54248
706.52267
706.5488
706.5438
706.54241
706.54208
706.53826
706.53757
706.53546
706.54042
706.54064
706.52094
706.54727
706.54241
706.54102
706.54073
706.53713
706.53682
706.53517
706.53979
706.53987
706.51978
706.54639
706.54208
706.54073
706.54042
706.53682
706.53653
706.53487
706.53902
706.53882
706.51632
706.54131
706.53826
706.53713
706.53682
706.5332
706.53283
706.53098
706.53744
706.54189
706.52148
706.5391
706.53757
706.53682
706.53653
706.53283
706.53234
706.53089
706.53374
706.53348
706.52921
706.53604
706.53546
706.53517
706.53487
706.53098
706.53089
706.5322
175.97266
175.92123
175.92496
175.95672
175.94955
175.9472
175.94664
175.94568
175.94547
175.93007
175.92123
175.88857
175.91458
175.93255
175.92487
175.92271
175.92125
175.91748
175.9382
175.93864
175.92496
175.91458
175.92556
175.94373
175.93666
175.93494
175.93292
175.92081
175.93304
175.93914
175.95672
175.93255
175.94373
175.96221
175.95536
175.95422
175.9537
175.94126
175.94693
175.9434
175.94955
175.92487
175.93666
175.95536
175.94857
175.94756
175.94784
175.93718
175.94485
175.9426
175.9472
175.92271
175.93494
175.95422
175.94756
175.94649
175.9468
175.93644
175.94461
175.94285
175.94664
175.92125
175.93292
175.9537
175.94784
175.9468
175.94707
175.93668
175.94482
175.94273
175.94568
175.91748
175.92081
175.94126
175.93718
175.93644
175.93668
175.92613
175.93389
175.93129
175.94547
175.9382
175.93304
175.94693
175.94485
175.94461
175.94482
175.93389
175.94108
175.94401
175.93007
175.93864
175.93914
175.9434
175.9426
175.94285
175.94273
175.93129
175.94401
175.93149
-3.9040323
-3.9337046
-3.9089277
-3.8894802
-3.8973538
-3.8997184
-3.9003727
-3.9023586
-3.8946799
-3.8960501
-3.9337046
-3.9275096
-3.8990733
-3.8905156
-3.898551
-3.9004323
-3.9030612
-3.9176131
-3.8998587
-3.8881901
-3.9089277
-3.8990733
-3.8805998
-3.8715201
-3.8787891
-3.8795391
-3.8807409
-3.9025886
-3.8946378
-3.8832892
-3.8894802
-3.8905156
-3.8715201
-3.8621454
-3.8691916
-3.8692566
-3.8683125
-3.8895389
-3.886418
-3.8818611
-3.8973538
-3.898551
-3.8787891
-3.8691916
-3.8762305
-3.8761972
-3.8743701
-3.8936929
-3.8885027
-3.8825602
-3.8997184
-3.9004323
-3.8795391
-3.8692566
-3.8761972
-3.8762535
-3.8743748
-3.8933637
-3.8876323
-3.8813738
-3.9003727
-3.9030612
-3.8807409
-3.8683125
-3.8743701
-3.8743748
-3.8725398
-3.89159
-3.8860376
-3.8808605
-3.9023586
-3.9176131
-3.9025886
-3.8895389
-3.8936929
-3.8933637
-3.89159
-3.9110322
-3.9065235
-3.9028465
-3.8946799
-3.8998587
-3.8946378
-3.886418
-3.8885027
-3.8876323
-3.8860376
-3.9065235
-3.9032257
-3.8769907
-3.8960501
-3.8881901
-3.8832892
-3.8818611
-3.8825602
-3.8813738
-3.8808605
-3.9028465
-3.8769907
-3.8943642
-66.473632
-66.512246
-66.468237
-66.461896
-66.469624
-66.471614
-66.472459
-66.478928
-66.479497
-66.481448
-66.512246
-66.491594
-66.462258
-66.463169
-66.470504
-66.470987
-66.471616
-66.491077
-66.488425
-66.479904
-66.468237
-66.462258
-66.43737
-66.437471
-66.444071
-66.443256
-66.441459
-66.466476
-66.473099
-66.470503
-66.461896
-66.463169
-66.437471
-66.437317
-66.443758
-66.442314
-66.438219
-66.461973
-66.471213
-66.471772
-66.469624
-66.470504
-66.444071
-66.443758
-66.450218
-66.448699
-66.44375
-66.465731
-66.473062
-66.472207
-66.471614
-66.470987
-66.443256
-66.442314
-66.448699
-66.447258
-66.442234
-66.463871
-66.4707
-66.46981
-66.472459
-66.471616
-66.441459
-66.438219
-66.44375
-66.442234
-66.437227
-66.458942
-66.466172
-66.467595
-66.478928
-66.491077
-66.466476
-66.461973
-66.465731
-66.463871
-66.458942
-66.481353
-66.490928
-66.497367
-66.479497
-66.488425
-66.473099
-66.471213
-66.473062
-66.4707
-66.466172
-66.490928
-66.505374
-66.472694
-66.481448
-66.479904
-66.470503
-66.471772
-66.472207
-66.46981
-66.467595
-66.497367
-66.472694
-66.486882
-76.363301
-76.410324
-76.350937
-76.357307
-76.364204
-76.365106
-76.364378
-76.370344
-76.375715
-76.375762
-76.410324
-76.38174
-76.352205
-76.361923
-76.36807
-76.367022
-76.364451
-76.381409
-76.390244
-76.382613
-76.350937
-76.352205
-76.321809
-76.330456
-76.336034
-76.33386
-76.328575
-76.349026
-76.365647
-76.368916
-76.357307
-76.361923
-76.330456
-76.338832
-76.34428
-76.341569
-76.334102
-76.352811
-76.369705
-76.372447
-76.364204
-76.36807
-76.336034
-76.34428
-76.349746
-76.346975
-76.338768
-76.355995
-76.371284
-76.372636
-76.365106
-76.367022
-76.33386
-76.341569
-76.346975
-76.344271
-76.335984
-76.352893
-76.367737
-76.369222
-76.364378
-76.364451
-76.328575
-76.334102
-76.338768
-76.335984
-76.327692
-76.344668
-76.36001
-76.364747
-76.370344
-76.381409
-76.349026
-76.352811
-76.355995
-76.352893
-76.344668
-76.362492
-76.381167
-76.395198
-76.375715
-76.390244
-76.365647
-76.369705
-76.371284
-76.367737
-76.36001
-76.381167
-76.409421
-76.380092
-76.375762
-76.382613
-76.368916
-76.372447
-76.372636
-76.369222
-76.364747
-76.395198
-76.380092
-76.385685
-63.259579
-63.314572
-63.244531
-63.261686
-63.267345
-63.267233
-63.265062
-63.26899
-63.27745
-63.273849
-63.314572
-63.281911
-63.252993
-63.269801
-63.274512
-63.27254
-63.267797
-63.279957
-63.298325
-63.289445
-63.244531
-63.252993
-63.218737
-63.234266
-63.238517
-63.235573
-63.228048
-63.241345
-63.265458
-63.271746
-63.261686
-63.269801
-63.234266
-63.249522
-63.253672
-63.250303
-63.240891
-63.252135
-63.274396
-63.276954
-63.267345
-63.274512
-63.238517
-63.253672
-63.257851
-63.25446
-63.244491
-63.25465
-63.275708
-63.276994
-63.267233
-63.27254
-63.235573
-63.250303
-63.25446
-63.251134
-63.241095
-63.25098
-63.271651
-63.2731
-63.265062
-63.267797
-63.228048
-63.240891
-63.244491
-63.241095
-63.231007
-63.24088
-63.261958
-63.266892
-63.26899
-63.279957
-63.241345
-63.252135
-63.25465
-63.25098
-63.24088
-63.251511
-63.276111
-63.292856
-63.27745
-63.298325
-63.265458
-63.274396
-63.275708
-63.271651
-63.261958
-63.276111
-63.312955
-63.291537
-63.273849
-63.289445
-63.271746
-63.276954
-63.276994
-63.2731
-63.266892
-63.292856
-63.291537
-63.28523
-42.671045
-42.736756
-42.658604
-42.683666
-42.68784
-42.687034
-42.684164
-42.686089
-42.696989
-42.689016
-42.736756
-42.704079
-42.675058
-42.696649
-42.699625
-42.69699
-42.690947
-42.697628
-42.723834
-42.712281
-42.658604
-42.675058
-42.637418
-42.657679
-42.660336
-42.656931
-42.648263
-42.653849
-42.683778
-42.691064
-42.683666
-42.696649
-42.657679
-42.677733
-42.680358
-42.67669
-42.666573
-42.66999
-42.696355
-42.697405
-42.68784
-42.699625
-42.660336
-42.680358
-42.683049
-42.679422
-42.668987
-42.671773
-42.697396
-42.697392
-42.687034
-42.69699
-42.656931
-42.67669
-42.679422
-42.675883
-42.665422
-42.668025
-42.693368
-42.69354
-42.684164
-42.690947
-42.648263
-42.666573
-42.668987
-42.665422
-42.654895
-42.657405
-42.682981
-42.686364
-42.686089
-42.697628
-42.653849
-42.66999
-42.671773
-42.668025
-42.657405
-42.660439
-42.68917
-42.704955
-42.696989
-42.723834
-42.683778
-42.696355
-42.697396
-42.693368
-42.682981
-42.68917
-42.730644
-42.718963
-42.689016
-42.712281
-42.691064
-42.697405
-42.697392
-42.69354
-42.686364
-42.704955
-42.718963
-42.699353
-22.3903
-22.464913
-22.380184
-22.410458
-22.413091
-22.411653
-22.408299
-22.408108
-22.420575
-22.408033
-22.464913
-22.43258
-22.402522
-22.42705
-22.42839
-22.425289
-22.418474
-22.419627
-22.451877
-22.437155
-22.380184
-22.402522
-22.361671
-22.384925
-22.386125
-22.38253
-22.373459
-22.371669
-22.405957
-22.413122
-22.410458
-22.42705
-22.384925
-22.408065
-22.409314
-22.405637
-22.395614
-22.391672
-22.42111
-22.42021
-22.413091
-22.42839
-22.386125
-22.409314
-22.410666
-22.407088
-22.396982
-22.392837
-22.421967
-22.420252
-22.411653
-22.425289
-22.38253
-22.405637
-22.407088
-22.403615
-22.39354
-22.389333
-22.418337
-22.416836
-22.408299
-22.418474
-22.373459
-22.395614
-22.396982
-22.39354
-22.383424
-22.379112
-22.40822
-22.409394
-22.408108
-22.419627
-22.371669
-22.391672
-22.392837
-22.389333
-22.379112
-22.375111
-22.406757
-22.419551
-22.420575
-22.451877
-22.405957
-22.42111
-22.421967
-22.418337
-22.40822
-22.406757
-22.450167
-22.448691
-22.408033
-22.437155
-22.413122
-22.42021
-22.420252
-22.416836
-22.409394
-22.419551
-22.448691
-22.416092
-5.7902209
-5.8698528
-5.7802444
-5.8138078
-5.8152689
-5.813499
-5.8100179
-5.8080191
-5.8215938
-5.8052065
-5.8698528
-5.8367625
-5.8054009
-5.8317209
-5.8319468
-5.8288543
-5.8220004
-5.8184966
-5.8555685
-5.8383786
-5.7802444
-5.8054009
-5.761914
-5.7870379
-5.7872826
-5.7839755
-5.7753246
-5.7674526
-5.8052764
-5.8123284
-5.8138078
-5.8317209
-5.7870379
-5.8121168
-5.8124717
-5.8092399
-5.8001028
-5.7901527
-5.8222049
-5.8199207
-5.8152689
-5.8319468
-5.7872826
-5.8124717
-5.8129455
-5.8098463
-5.800814
-5.790995
-5.8230657
-5.8201435
-5.813499
-5.8288543
-5.7839755
-5.8092399
-5.8098463
-5.8068428
-5.7978657
-5.7880711
-5.8201407
-5.8174355
-5.8100179
-5.8220004
-5.7753246
-5.8001028
-5.800814
-5.7978657
-5.7888573
-5.7789516
-5.8110124
-5.8102943
-5.8080191
-5.8184966
-5.7674526
-5.7901527
-5.790995
-5.7880711
-5.7789516
-5.769157
-5.8030156
-5.8122691
-5.8215938
-5.8555685
-5.8052764
-5.8222049
-5.8230657
-5.8201407
-5.8110124
-5.8030156
-5.8467726
-5.8552326
-5.8052065
-5.8383786
-5.8123284
-5.8199207
-5.8201435
-5.8174355
-5.8102943
-5.8122691
-5.8552326
-5.8112006
6.1694378
6.0880338
6.1806979
6.1451857
6.1444182
6.1461575
6.1493455
6.152541
6.1379519
6.1569086
6.0880338
6.1225875
6.1550057
6.1276284
6.1279864
6.1306616
6.1369135
6.143806
6.1027657
6.1211712
6.1806979
6.1550057
6.2002645
6.1740285
6.1742593
6.1769205
6.1845299
6.1968455
6.1559812
6.1484879
6.1451857
6.1276284
6.1740285
6.1478005
6.1478879
6.1503553
6.1580624
6.1723715
6.1379004
6.1405636
6.1444182
6.1279864
6.1742593
6.1478879
6.1478561
6.1501759
6.1576392
6.1715801
6.136873
6.1400787
6.1461575
6.1306616
6.1769205
6.1503553
6.1501759
6.1524212
6.1598272
6.1736991
6.1389201
6.1419598
6.1493455
6.1369135
6.1845299
6.1580624
6.1576392
6.1598272
6.1672799
6.1812886
6.146639
6.1484427
6.152541
6.143806
6.1968455
6.1723715
6.1715801
6.1736991
6.1812886
6.195389
6.1597215
6.1536343
6.1379519
6.1027657
6.1559812
6.1379004
6.136873
6.1389201
6.146639
6.1597215
6.1164348
6.0988425
6.1569086
6.1211712
6.1484879
6.1405636
6.1400787
6.1419598
6.1484427
6.1536343
6.0988425
6.1521228
13.729477
13.648411
13.742484
13.706006
13.705573
13.707085
13.709757
13.713624
13.698095
13.718376
13.648411
13.684492
13.717531
13.689625
13.690214
13.692324
13.697693
13.706865
13.662697
13.6812
13.742484
13.717531
13.763679
13.736885
13.737288
13.739221
13.745584
13.760925
13.717572
13.709156
13.706006
13.689625
13.736885
13.710086
13.710334
13.711994
13.718159
13.73542
13.69884
13.701047
13.705573
13.690214
13.737288
13.710334
13.71047
13.711977
13.717797
13.734531
13.697581
13.700292
13.707085
13.692324
13.739221
13.711994
13.711977
13.713426
13.719188
13.735825
13.698761
13.701384
13.709757
13.697693
13.745584
13.718159
13.717797
13.719188
13.725012
13.741812
13.704986
13.707085
13.713624
13.706865
13.760925
13.73542
13.734531
13.735825
13.741812
13.758883
13.721765
13.718112
13.698095
13.662697
13.717572
13.69884
13.697581
13.698761
13.704986
13.721765
13.679335
13.653824
13.718376
13.6812
13.709156
13.701047
13.700292
13.701384
13.707085
13.718112
13.653824
13.714051
17.634653
17.555195
17.64933
17.612607
17.612276
17.613524
17.615671
17.619898
17.603618
17.624296
17.555195
17.592484
17.625691
17.597637
17.598249
17.599838
17.604349
17.615009
17.568624
17.586507
17.64933
17.625691
17.671959
17.645005
17.645408
17.646717
17.651952
17.669278
17.624122
17.614609
17.612607
17.597637
17.645005
17.61805
17.618299
17.619289
17.624122
17.643315
17.605131
17.606442
17.612276
17.598249
17.645408
17.618299
17.618449
17.619285
17.623707
17.642275
17.60365
17.605462
17.613524
17.599838
17.646717
17.619289
17.619285
17.620074
17.624432
17.64288
17.604109
17.605907
17.615671
17.604349
17.651952
17.624122
17.623707
17.624432
17.628853
17.647473
17.609017
17.61089
17.619898
17.615009
17.669278
17.643315
17.642275
17.64288
17.647473
17.666499
17.62835
17.626395
17.603618
17.568624
17.624122
17.605131
17.60365
17.604109
17.609017
17.62835
17.586956
17.554984
17.624296
17.586507
17.614609
17.606442
17.605462
17.605907
17.61089
17.626395
17.554984
17.620054
18.758765
18.681643
18.774782
18.738317
18.737938
18.738956
18.740683
18.745118
18.728354
18.748837
18.681643
18.719653
18.752617
18.724675
18.725179
18.726362
18.730193
18.741811
18.694108
18.711031
18.774782
18.752617
18.798379
18.771537
18.771831
18.77268
18.777052
18.795635
18.749413
18.738897
18.738317
18.724675
18.771537
18.744707
18.744858
18.745367
18.749214
18.769634
18.73045
18.730771
18.737938
18.725179
18.771831
18.744858
18.744923
18.745283
18.748683
18.768435
18.728787
18.72963
18.738956
18.726362
18.77268
18.745367
18.745283
18.745604
18.748933
18.768544
18.728725
18.729614
18.740683
18.730193
18.777052
18.749214
18.748683
18.748933
18.752315
18.772092
18.732629
18.734045
18.745118
18.741811
18.795635
18.769634
18.768435
18.768544
18.772092
18.792355
18.753649
18.752797
18.728354
18.694108
18.749413
18.73045
18.728787
18.728725
18.732629
18.753649
18.713379
18.676469
18.748837
18.711031
18.738897
18.730771
18.72963
18.729614
18.734045
18.752797
18.676469
18.744607
17.921403
17.846993
17.938322
17.902454
17.901924
17.902759
17.904201
17.908779
17.891809
17.911762
17.846993
17.885187
17.917557
17.889902
17.890211
17.891108
17.894473
17.906695
17.85848
17.874359
17.938322
17.917557
17.962324
17.935775
17.935891
17.936432
17.94023
17.959563
17.912968
17.901706
17.902454
17.889902
17.935775
17.909257
17.909243
17.909445
17.912661
17.933821
17.894234
17.89369
17.901924
17.890211
17.935891
17.909243
17.909158
17.909221
17.911978
17.932468
17.892432
17.89245
17.902759
17.891108
17.936432
17.909445
17.909221
17.90925
17.911931
17.932268
17.892045
17.892153
17.904201
17.894473
17.94023
17.912661
17.911978
17.911931
17.914653
17.93514
17.895287
17.89623
17.908779
17.906695
17.959563
17.933821
17.932468
17.932268
17.93514
17.956153
17.917362
17.91719
17.891809
17.85848
17.912968
17.894234
17.892432
17.892045
17.895287
17.917362
17.878268
17.837857
17.911762
17.874359
17.901706
17.89369
17.89245
17.892153
17.89623
17.91719
17.837857
17.907643
15.813108
15.741565
15.830464
15.795417
15.794673
15.795372
15.796652
15.801347
15.784422
15.803683
15.741565
15.779419
15.81091
15.783667
15.78373
15.784443
15.787538
15.800126
15.752076
15.766977
15.830464
15.81091
15.854315
15.828187
15.828082
15.828443
15.83192
15.85165
15.80528
15.793594
15.795417
15.783667
15.828187
15.802109
15.801891
15.801926
15.804812
15.826372
15.786916
15.78574
15.794673
15.78373
15.828082
15.801891
15.801616
15.801522
15.803958
15.824877
15.785014
15.78445
15.795372
15.784443
15.828443
15.801926
15.801522
15.801401
15.803759
15.824519
15.784464
15.784022
15.796652
15.787538
15.83192
15.804812
15.803958
15.803759
15.806147
15.82704
15.787353
15.787931
15.801347
15.800126
15.85165
15.826372
15.824877
15.824519
15.82704
15.84847
15.810029
15.810261
15.784422
15.752076
15.80528
15.786916
15.785014
15.784464
15.787353
15.810029
15.772147
15.729505
15.803683
15.766977
15.793594
15.78574
15.78445
15.784022
15.787931
15.810261
15.729505
15.799841
12.977755
12.909106
12.995111
12.961038
12.960048
12.960651
12.961868
12.966671
12.950003
12.968516
12.909106
12.946152
12.976544
12.94981
12.949606
12.950215
12.9532
12.965991
12.918654
12.932711
12.995111
12.976544
13.018319
12.99271
12.992367
12.992644
12.996002
13.01588
12.970233
12.958447
12.961038
12.94981
12.99271
12.96717
12.966732
12.966702
12.969494
12.991213
12.952336
12.950791
12.960048
12.949606
12.992367
12.966732
12.966248
12.966103
12.968464
12.98959
12.950366
12.94949
12.960651
12.950215
12.992644
12.966702
12.966103
12.965936
12.96822
12.98919
12.949776
12.949046
12.961868
12.9532
12.996002
12.969494
12.968464
12.96822
12.970527
12.991613
12.952558
12.952936
12.966671
12.965991
13.01588
12.991213
12.98959
12.98919
12.991613
13.013231
12.975512
12.975985
12.950003
12.918654
12.970233
12.952336
12.950366
12.949776
12.952558
12.975512
12.93888
12.895068
12.968516
12.932711
12.958447
12.950791
12.94949
12.949046
12.952936
12.975985
12.895068
12.965123
9.8222239
9.7564374
9.8392057
9.8062105
9.8049737
9.8055103
9.8067387
9.8116462
9.795406
9.8131741
9.7564374
9.7922826
9.8214105
9.7952689
9.7948022
9.7953674
9.7983614
9.8112433
9.7650464
9.7784142
9.8392057
9.8214105
9.8613718
9.836363
9.8357867
9.8360498
9.8394329
9.8592832
9.814754
9.8031616
9.8062105
9.7952689
9.836363
9.8114406
9.8107853
9.8107662
9.8136288
9.8353323
9.7973954
9.7957308
9.8049737
9.7948022
9.8357867
9.8107853
9.8100944
9.8099718
9.8124315
9.8336002
9.795386
9.7944466
9.8055103
9.7953674
9.8360498
9.8107662
9.8099718
9.8098313
9.8122175
9.8332367
9.7948425
9.7940679
9.8067387
9.7983614
9.8394329
9.8136288
9.8124315
9.8122175
9.8146202
9.8357447
9.797693
9.7980441
9.8116462
9.8112433
9.8592832
9.8353323
9.8336002
9.8332367
9.8357447
9.8573837
9.820693
9.8213253
9.795406
9.7650464
9.814754
9.7973954
9.795386
9.7948425
9.797693
9.820693
9.7853523
9.7412241
9.8131741
9.7784142
9.8031616
9.7957308
9.7944466
9.7940679
9.7980441
9.8213253
9.7412241
9.8103759
6.6368967
6.5739294
6.6532058
6.6213676
6.6198997
6.6203952
6.6216846
6.6266906
6.6110089
6.6280635
6.5739294
6.6082594
6.6360066
6.6105365
6.6098263
6.6103905
6.6134708
6.6263623
6.5816294
6.5944535
6.6532058
6.6360066
6.6740317
6.6496964
6.6489057
6.6492014
6.6527029
6.6723983
6.6292931
6.6181368
6.6213676
6.6105365
6.6496964
6.6254635
6.6246081
6.6246473
6.6276858
6.6492417
6.6125259
6.6109542
6.6198997
6.6098263
6.6489057
6.6246081
6.6237253
6.6236717
6.6263389
6.6474232
6.6105006
6.6097064
6.6203952
6.6103905
6.6492014
6.6246473
6.6236717
6.6236036
6.6262016
6.6471466
6.6100583
6.6094421
6.6216846
6.6134708
6.6527029
6.6276858
6.6263389
6.6262016
6.6288125
6.6498536
6.6130918
6.6135702
6.6266906
6.6263623
6.6723983
6.6492417
6.6474232
6.6471466
6.6498536
6.671388
6.6359646
6.6367255
6.6110089
6.5816294
6.6292931
6.6125259
6.6105006
6.6100583
6.6130918
6.6359646
6.6019603
6.5581819
6.6280635
6.5944535
6.6181368
6.6109542
6.6097064
6.6094421
6.6135702
6.6367255
6.5581819
6.6259682
3.6185505
3.5583686
3.6339646
3.6033461
3.6016761
3.6021483
3.603527
3.6086205
3.5935935
3.6099731
3.5583686
3.5909461
3.6172337
3.5925112
3.5915876
3.5921777
3.5953873
3.6082241
3.5651941
3.5775929
3.6339646
3.6172337
3.6532461
3.6296541
3.6286765
3.6290326
3.6327019
3.6521442
3.6106922
3.6001595
3.6033461
3.5925112
3.6296541
3.6061775
3.6051477
3.6052726
3.6085411
3.6298435
3.5945587
3.5932441
3.6016761
3.5915876
3.6286765
3.6051477
3.6040966
3.6041382
3.6070681
3.6279622
3.5925385
3.5920461
3.6021483
3.5921777
3.6290326
3.6052726
3.6041382
3.6041675
3.607033
3.6277998
3.5922271
3.5919224
3.603527
3.5953873
3.6327019
3.6085411
3.6070681
3.607033
3.6099096
3.630766
3.5955043
3.5962317
3.6086205
3.6082241
3.6521442
3.6298435
3.6279622
3.6277998
3.630766
3.6520924
3.6181167
3.6190042
3.5935935
3.5651941
3.6106922
3.5945587
3.5925385
3.5922271
3.5955043
3.6181167
3.5854958
3.542571
3.6099731
3.5775929
3.6001595
3.5932441
3.5920461
3.5919224
3.5962317
3.6190042
3.542571
3.6086452
0.8917139
0.83430582
0.90608007
0.87673537
0.87489981
0.87536028
0.87683926
0.88200282
0.86769746
0.88343546
0.83430582
0.86496055
0.88973919
0.86583925
0.86473757
0.86536763
0.86872131
0.88144776
0.84029141
0.8523502
0.90608007
0.88973919
0.92369563
0.90091434
0.89978195
0.90021122
0.90406324
0.92317124
0.8835386
0.87376307
0.87673537
0.86583925
0.90091434
0.87825862
0.87708446
0.87730655
0.88081977
0.90177789
0.86807452
0.86713236
0.87489981
0.86473757
0.89978195
0.87708446
0.87589368
0.87604065
0.87924724
0.89985744
0.86607758
0.86599241
0.87536028
0.86536763
0.90021122
0.87730655
0.87604065
0.87617665
0.87932385
0.89981928
0.86590852
0.86601756
0.87683926
0.86872131
0.90406324
0.88081977
0.87924724
0.87932385
0.88248137
0.90306228
0.86944801
0.87050883
0.88200282
0.88144776
0.92317124
0.90177789
0.89985744
0.89981928
0.90306228
0.9240896
0.89169159
0.89271659
0.86769746
0.84029141
0.8835386
0.86807452
0.86607758
0.86590852
0.86944801
0.89169159
0.86050008
0.81880076
0.88343546
0.8523502
0.87376307
0.86713236
0.86599241
0.86601756
0.87050883
0.89271659
0.81880076
0.88289928
-1.4730309
-1.5276518
-1.459807
-1.4878277
-1.489789
-1.4893335
-1.4877566
-1.4825465
-1.4960869
-1.4809677
-1.5276518
-1.4990341
-1.4757914
-1.4987947
-1.500037
-1.4993625
-1.4958717
-1.4833075
-1.5224723
-1.5107015
-1.459807
-1.4757914
-1.443911
-1.4658153
-1.4670687
-1.4665644
-1.4625409
-1.4438385
-1.4815359
-1.4904688
-1.4878277
-1.4987947
-1.4658153
-1.4875869
-1.4888734
-1.4885543
-1.484811
-1.4642796
-1.4962985
-1.4967986
-1.489789
-1.500037
-1.4670687
-1.4888734
-1.4901732
-1.4899223
-1.4864552
-1.466216
-1.4982563
-1.4978755
-1.4893335
-1.4993625
-1.4665644
-1.4885543
-1.4899223
-1.4896816
-1.486269
-1.4661319
-1.4982851
-1.4977061
-1.4877566
-1.4958717
-1.4625409
-1.484811
-1.4864552
-1.486269
-1.482846
-1.4626261
-1.4944958
-1.4930535
-1.4825465
-1.4833075
-1.4438385
-1.4642796
-1.466216
-1.4661319
-1.4626261
-1.4419824
-1.4727142
-1.4715382
-1.4960869
-1.5224723
-1.4815359
-1.4962985
-1.4982563
-1.4982851
-1.4944958
-1.4727142
-1.5024335
-1.5426399
-1.4809677
-1.5107015
-1.4904688
-1.4967986
-1.4978755
-1.4977061
-1.4930535
-1.4715382
-1.5426399
-1.4807224
-3.4441359
-3.495933
-3.4321011
-3.4587491
-3.4607954
-3.4603422
-3.458679
-3.4534507
-3.4662011
-3.4516912
-3.495933
-3.4694214
-3.447725
-3.4697583
-3.4711039
-3.4703875
-3.4667819
-3.4544306
-3.4915263
-3.4800212
-3.4321011
-3.447725
-3.4179246
-3.4388867
-3.4402275
-3.4396541
-3.4354885
-3.4172579
-3.4529431
-3.460988
-3.4587491
-3.4697583
-3.4388867
-3.4597121
-3.461079
-3.4606709
-3.4567321
-3.4367051
-3.4669741
-3.4670014
-3.4607954
-3.4711039
-3.4402275
-3.461079
-3.4624568
-3.462111
-3.4584203
-3.4386355
-3.4688786
-3.4680126
-3.4603422
-3.4703875
-3.4396541
-3.4606709
-3.462111
-3.461775
-3.4581342
-3.4384394
-3.4687779
-3.467712
-3.458679
-3.4667819
-3.4354885
-3.4567321
-3.4584203
-3.4581342
-3.4544823
-3.4347061
-3.4647733
-3.4629334
-3.4534507
-3.4544306
-3.4172579
-3.4367051
-3.4386355
-3.4384394
-3.4347061
-3.4145277
-3.4435375
-3.4422006
-3.4662011
-3.4915263
-3.4529431
-3.4669741
-3.4688786
-3.4687779
-3.4647733
-3.4435375
-3.4717466
-3.5102728
-3.4516912
-3.4800212
-3.460988
-3.4670014
-3.4680126
-3.467712
-3.4629334
-3.4422006
-3.5102728
-3.4507016
-5.0173465
-5.0662636
-5.0065109
-5.0317374
-5.0338291
-5.0333778
-5.0316464
-5.0264316
-5.0383808
-5.024483
-5.0662636
-5.0418924
-5.0217398
-5.0427315
-5.0441445
-5.0433933
-5.0397053
-5.0276175
-5.0625958
-5.0513596
-5.0065109
-5.0217398
-4.9940128
-5.0139689
-5.0153649
-5.014733
-5.0104665
-4.9927709
-5.0263964
-5.0335405
-5.0317374
-5.0427315
-5.0139689
-5.0337868
-5.0352033
-5.0347192
-5.0306324
-5.0111849
-5.0396668
-5.0392221
-5.0338291
-5.0441445
-5.0153649
-5.0352033
-5.0366292
-5.0362023
-5.0323377
-5.0130882
-5.0415054
-5.0401663
-5.0333778
-5.0433933
-5.014733
-5.0347192
-5.0362023
-5.0357851
-5.0319661
-5.0127952
-5.0412915
-5.0397528
-5.0316464
-5.0397053
-5.0104665
-5.0306324
-5.0323377
-5.0319661
-5.0281352
-5.0088838
-5.0371196
-5.0348931
-5.0264316
-5.0276175
-4.9927709
-5.0111849
-5.0130882
-5.0127952
-5.0088838
-4.9892503
-5.016508
-5.0150073
-5.0383808
-5.0625958
-5.0263964
-5.0396668
-5.0415054
-5.0412915
-5.0371196
-5.016508
-5.0431748
-5.0798934
-5.024483
-5.0513596
-5.0335405
-5.0392221
-5.0401663
-5.0397528
-5.0348931
-5.0150073
-5.0798934
-5.0228061
-6.2067001
-6.2526662
-6.197046
-6.2208021
-6.2229014
-6.2224537
-6.2206756
-6.2155081
-6.2266547
-6.2133834
-6.2526662
-6.2304432
-6.2118227
-6.231703
-6.2331501
-6.2323741
-6.2286422
-6.2168685
-6.2497024
-6.2387579
-6.197046
-6.2118227
-6.1861555
-6.2050435
-6.2064644
-6.2057877
-6.2014681
-6.1843693
-6.2159094
-6.2221643
-6.2208021
-6.231703
-6.2050435
-6.2237942
-6.2252313
-6.2246868
-6.2205064
-6.2017115
-6.2283906
-6.2274991
-6.2229014
-6.2331501
-6.2064644
-6.2252313
-6.2266769
-6.2261851
-6.2222035
-6.2035684
-6.2301518
-6.2283758
-6.2224537
-6.2323741
-6.2057877
-6.2246868
-6.2261851
-6.2257032
-6.2217632
-6.2031962
-6.2298437
-6.2278702
-6.2206756
-6.2286422
-6.2014681
-6.2205064
-6.2222035
-6.2217632
-6.2178104
-6.1991633
-6.2255607
-6.2229794
-6.2155081
-6.2168685
-6.1843693
-6.2017115
-6.2035684
-6.2031962
-6.1991633
-6.1801534
-6.205648
-6.2039885
-6.2266547
-6.2497024
-6.2159094
-6.2283906
-6.2301518
-6.2298437
-6.2255607
-6.205648
-6.2307465
-6.2655738
-6.2133834
-6.2387579
-6.2221643
-6.2274991
-6.2283758
-6.2278702
-6.2229794
-6.2039885
-6.2655738
-6.2110891
-7.0377846
-7.0807191
-7.0292747
-7.0515111
-7.0535833
-7.0531418
-7.0513401
-7.0462547
-7.0566043
-7.0439828
-7.0807191
-7.0606326
-7.0435259
-7.0622276
-7.0636783
-7.0628888
-7.0591544
-7.0477453
-7.0784229
-7.0678076
-7.0292747
-7.0435259
-7.0199002
-7.0376601
-7.0390784
-7.0383717
-7.0340496
-7.0176082
-7.0470532
-7.0524485
-7.0515111
-7.0622276
-7.0376601
-7.0552859
-7.0567171
-7.0561288
-7.0519121
-7.0338411
-7.0587169
-7.0574218
-7.0535833
-7.0636783
-7.0390784
-7.0567171
-7.058156
-7.0576166
-7.0535776
-7.0356337
-7.0603902
-7.0582309
-7.0531418
-7.0628888
-7.0383717
-7.0561288
-7.0576166
-7.0570872
-7.053086
-7.0352006
-7.060008
-7.0576546
-7.0513401
-7.0591544
-7.0340496
-7.0519121
-7.0535776
-7.053086
-7.0490711
-7.0311064
-7.0556734
-7.0527848
-7.0462547
-7.0477453
-7.0176082
-7.0338411
-7.0356337
-7.0352006
-7.0311064
-7.0127967
-7.0365317
-7.0347264
-7.0566043
-7.0784229
-7.0470532
-7.0587169
-7.0603902
-7.060008
-7.0556734
-7.0365317
-7.0600425
-7.0929258
-7.0439828
-7.0678076
-7.0524485
-7.0574218
-7.0582309
-7.0576546
-7.0527848
-7.0347264
-7.0929258
-7.0411486
-7.5428053
-7.5826227
-7.5353888
-7.5560567
-7.55807
-7.5576381
-7.5558362
-7.5508673
-7.5604304
-7.5484888
-7.5826227
-7.5646469
-7.5490306
-7.56649
-7.5679168
-7.5671258
-7.5634305
-7.5524362
-7.5809562
-7.5707176
-7.5353888
-7.5490306
-7.5274253
-7.544
-7.5453908
-7.5446691
-7.5403955
-7.5246706
-7.5520224
-7.5566003
-7.5560567
-7.56649
-7.544
-7.5604457
-7.5618468
-7.5612315
-7.5570353
-7.5397577
-7.5628409
-7.5611978
-7.55807
-7.5679168
-7.5453908
-7.5618468
-7.5632553
-7.5626853
-7.5586478
-7.5414696
-7.5644168
-7.5619392
-7.5576381
-7.5671258
-7.5446691
-7.5612315
-7.5626853
-7.5621252
-7.5581222
-7.5409939
-7.5639801
-7.5613133
-7.5558362
-7.5634305
-7.5403955
-7.5570353
-7.5586478
-7.5581222
-7.5541047
-7.536898
-7.5596535
-7.5565161
-7.5508673
-7.5524362
-7.5246706
-7.5397577
-7.5414696
-7.5409939
-7.536898
-7.5193637
-7.5413525
-7.5394217
-7.5604304
-7.5809562
-7.5520224
-7.5628409
-7.5644168
-7.5639801
-7.5596535
-7.5413525
-7.5632624
-7.5941706
-7.5484888
-7.5707176
-7.5566003
-7.5611978
-7.5619392
-7.5613133
-7.5565161
-7.5394217
-7.5941706
-7.5451958
-7.7570665
-7.7936802
-7.7506841
-7.7697355
-7.7716616
-7.7712427
-7.7694635
-7.7646449
-7.7734349
-7.7622081
-7.7936802
-7.7777797
-7.7636268
-7.7797839
-7.7811626
-7.7803819
-7.7767665
-7.7662359
-7.7926042
-7.7827962
-7.7506841
-7.7636268
-7.7440189
-7.7593544
-7.7606957
-7.7599735
-7.7557975
-7.7408471
-7.7661154
-7.7699263
-7.7697355
-7.7797839
-7.7593544
-7.7745678
-7.7759176
-7.7752909
-7.7711702
-7.7547529
-7.776062
-7.7741343
-7.7716616
-7.7811626
-7.7606957
-7.7759176
-7.7772743
-7.7766896
-7.7727104
-7.7563693
-7.7775317
-7.7748077
-7.7712427
-7.7803819
-7.7599735
-7.7752909
-7.7766896
-7.776115
-7.772167
-7.755868
-7.7770592
-7.7741522
-7.7694635
-7.7767665
-7.7557975
-7.7711702
-7.7727104
-7.772167
-7.768204
-7.751828
-7.7727982
-7.7694771
-7.7646449
-7.7662359
-7.7408471
-7.7547529
-7.7563693
-7.755868
-7.751828
-7.7351415
-7.7554053
-7.753375