/*--------------------------------*- C++ -*----------------------------------*\
| =========                 |                                                 |
| \\      /  F ield         | OpenFOAM: The Open Source CFD Toolbox           |
|  \\    /   O peration     | Version:  v2106                                 |
|   \\  /    A nd           | Website:  www.openfoam.com                      |
|    \\/     M anipulation  |                                                 |
\*---------------------------------------------------------------------------*/
FoamFile
{
    version     2.0;
    format      ascii;
    arch        "LSB;label=32;scalar=64";
    class       volScalarField;
    location    "100";
    object      Tmode_lapla1;
}
// * * * * * * * * * * * * * * * * * * * * * * * * * * * * * * * * * * * * * //

dimensions      [0 -2 0 0 0 0 0];

internalField   nonuniform List<scalar> 
4000
(
-3.4232184
-3.4230225
-3.4232199
-3.4233001
-3.4232738
-3.4232881
-3.4232696
-3.4232351
-3.4232065
-3.4231912
-3.4230225
-3.4231866
-3.4232784
-3.4232637
-3.4232705
-3.4232908
-3.4232699
-3.4232343
-3.4232068
-3.4231978
-3.4232199
-3.4232784
-3.4233277
-3.4233623
-3.4233705
-3.4233834
-3.4233559
-3.4233156
-3.4232799
-3.4232546
-3.4233001
-3.4232637
-3.4233623
-3.4234008
-3.4234048
-3.423413
-3.4233809
-3.423338
-3.4232966
-3.4232608
-3.4232738
-3.4232705
-3.4233705
-3.4234048
-3.4234056
-3.4234116
-3.423376
-3.4233313
-3.4232952
-3.4232705
-3.4232881
-3.4232908
-3.4233834
-3.423413
-3.4234116
-3.4234169
-3.4233801
-3.4233316
-3.4232906
-3.4232623
-3.4232696
-3.4232699
-3.4233559
-3.4233809
-3.423376
-3.4233801
-3.423344
-3.4232961
-3.4232548
-3.4232259
-3.4232351
-3.4232343
-3.4233156
-3.423338
-3.4233313
-3.4233316
-3.4232961
-3.4232503
-3.4232119
-3.4231859
-3.4232065
-3.4232068
-3.4232799
-3.4232966
-3.4232952
-3.4232906
-3.4232548
-3.4232119
-3.4231785
-3.4231565
-3.4231912
-3.4231978
-3.4232546
-3.4232608
-3.4232705
-3.4232623
-3.4232259
-3.4231859
-3.4231565
-3.4231315
-10.878317
-10.877899
-10.878655
-10.87838
-10.878134
-10.878175
-10.87822
-10.878245
-10.878265
-10.878268
-10.877899
-10.878732
-10.878603
-10.878237
-10.878114
-10.87819
-10.878247
-10.878291
-10.878316
-10.878338
-10.878655
-10.878603
-10.87861
-10.878361
-10.878251
-10.878322
-10.878382
-10.878431
-10.878431
-10.878378
-10.87838
-10.878237
-10.878361
-10.878131
-10.878018
-10.878085
-10.878153
-10.878229
-10.878244
-10.878228
-10.878134
-10.878114
-10.878251
-10.878018
-10.877898
-10.877957
-10.878022
-10.878115
-10.87817
-10.878198
-10.878175
-10.87819
-10.878322
-10.878085
-10.877957
-10.878005
-10.878059
-10.87814
-10.878186
-10.878209
-10.87822
-10.878247
-10.878382
-10.878153
-10.878022
-10.878059
-10.878106
-10.878182
-10.878223
-10.878242
-10.878245
-10.878291
-10.878431
-10.878229
-10.878115
-10.87814
-10.878182
-10.878259
-10.878303
-10.878319
-10.878265
-10.878316
-10.878431
-10.878244
-10.87817
-10.878186
-10.878223
-10.878303
-10.87835
-10.878345
-10.878268
-10.878338
-10.878378
-10.878228
-10.878198
-10.878209
-10.878242
-10.878319
-10.878345
-10.878308
-9.9153422
-9.915171
-9.9160488
-9.9153354
-9.9151452
-9.9152382
-9.915308
-9.9153581
-9.9153927
-9.915394
-9.915171
-9.9161953
-9.9158327
-9.915222
-9.9151764
-9.9153062
-9.9153989
-9.9154749
-9.915509
-9.9154415
-9.9160488
-9.9158327
-9.9158494
-9.915359
-9.9153165
-9.9154378
-9.9155471
-9.915637
-9.9156321
-9.915477
-9.9153354
-9.915222
-9.915359
-9.9148811
-9.9148282
-9.9149393
-9.9150657
-9.9152152
-9.9152784
-9.915262
-9.9151452
-9.9151764
-9.9153165
-9.9148282
-9.9147601
-9.914854
-9.9149683
-9.9151297
-9.9152238
-9.9152422
-9.9152382
-9.9153062
-9.9154378
-9.9149393
-9.914854
-9.914931
-9.9150279
-9.9151714
-9.9152511
-9.9152602
-9.915308
-9.9153989
-9.9155471
-9.9150657
-9.9149683
-9.9150279
-9.9151158
-9.9152538
-9.9153307
-9.9153389
-9.9153581
-9.9154749
-9.915637
-9.9152152
-9.9151297
-9.9151714
-9.9152538
-9.9153959
-9.9154812
-9.9154664
-9.9153927
-9.915509
-9.9156321
-9.9152784
-9.9152238
-9.9152511
-9.9153307
-9.9154812
-9.9155687
-9.9154706
-9.915394
-9.9154415
-9.915477
-9.915262
-9.9152422
-9.9152602
-9.9153389
-9.9154664
-9.9154706
-9.9153844
-8.8521821
-8.8520861
-8.8529772
-8.8519383
-8.8518492
-8.8519858
-8.8520753
-8.852152
-8.8522175
-8.8522252
-8.8520861
-8.8531822
-8.8525957
-8.8518404
-8.8518988
-8.8520702
-8.8522015
-8.8523013
-8.8523004
-8.8521526
-8.8529772
-8.8525957
-8.8525744
-8.851926
-8.8519734
-8.8521314
-8.8523005
-8.8524599
-8.8524681
-8.8522271
-8.8519383
-8.8518404
-8.851926
-8.8512801
-8.8513089
-8.851447
-8.8516301
-8.8518611
-8.8519794
-8.8519638
-8.8518492
-8.8518988
-8.8519734
-8.8513089
-8.8513165
-8.8514298
-8.8515908
-8.8518201
-8.8519484
-8.8519513
-8.8519858
-8.8520702
-8.8521314
-8.851447
-8.8514298
-8.851522
-8.8516619
-8.8518699
-8.8519802
-8.8519738
-8.8520753
-8.8522015
-8.8523005
-8.8516301
-8.8515908
-8.8516619
-8.8517926
-8.8519975
-8.8521106
-8.85211
-8.852152
-8.8523013
-8.8524599
-8.8518611
-8.8518201
-8.8518699
-8.8519975
-8.8522132
-8.8523426
-8.8522759
-8.8522175
-8.8523004
-8.8524681
-8.8519794
-8.8519484
-8.8519802
-8.8521106
-8.8523426
-8.8524587
-8.8522631
-8.8522252
-8.8521526
-8.8522271
-8.8519638
-8.8519513
-8.8519738
-8.85211
-8.8522759
-8.8522631
-8.8521172
-7.8387074
-7.8384601
-7.8393768
-7.8381113
-7.838138
-7.8383069
-7.8384108
-7.8385069
-7.8385661
-7.8386227
-7.8384601
-7.8395128
-7.8387853
-7.8379563
-7.8381195
-7.8383167
-7.8384941
-7.8386652
-7.8385987
-7.8383973
-7.8393768
-7.8387853
-7.8387571
-7.8380144
-7.8381513
-7.8383247
-7.8385486
-7.838829
-7.8388435
-7.8385294
-7.8381113
-7.8379563
-7.8380144
-7.8372642
-7.8373751
-7.8375171
-7.8377415
-7.8380889
-7.8382475
-7.8382315
-7.838138
-7.8381195
-7.8381513
-7.8373751
-7.8374611
-7.8375729
-7.8377655
-7.8380931
-7.8382368
-7.8382213
-7.8383069
-7.8383167
-7.8383247
-7.8375171
-7.8375729
-7.8376619
-7.837832
-7.838137
-7.8382608
-7.8382406
-7.8384108
-7.8384941
-7.8385486
-7.8377415
-7.8377655
-7.837832
-7.8379948
-7.8383018
-7.8384379
-7.8384355
-7.8385069
-7.8386652
-7.838829
-7.8380889
-7.8380931
-7.838137
-7.8383018
-7.8386299
-7.838792
-7.8386604
-7.8385661
-7.8385987
-7.8388435
-7.8382475
-7.8382368
-7.8382608
-7.8384379
-7.838792
-7.8389026
-7.8386054
-7.8386227
-7.8383973
-7.8385294
-7.8382315
-7.8382213
-7.8382406
-7.8384355
-7.8386604
-7.8386054
-7.838445
-6.9135986
-6.9131509
-6.9141284
-6.9127144
-6.9128482
-6.9130358
-6.9131523
-6.9132907
-6.9133493
-6.9134959
-6.9131509
-6.9141292
-6.9133485
-6.9124902
-6.9127392
-6.9129378
-6.9131488
-6.9134456
-6.9133388
-6.9131316
-6.9141284
-6.9133485
-6.9133588
-6.9125654
-6.912774
-6.9129332
-6.9131807
-6.913626
-6.9136719
-6.913321
-6.9127144
-6.9124902
-6.9125654
-6.9117574
-6.9119353
-6.9120528
-6.9122816
-6.9127793
-6.9129959
-6.9129998
-6.9128482
-6.9127392
-6.912774
-6.9119353
-6.9120874
-6.9121724
-6.9123612
-6.9128204
-6.9129974
-6.9129853
-6.9130358
-6.9129378
-6.9129332
-6.9120528
-6.9121724
-6.912235
-6.912402
-6.9128386
-6.9129959
-6.9129883
-6.9131523
-6.9131488
-6.9131807
-6.9122816
-6.9123612
-6.912402
-6.9125646
-6.9130101
-6.9131929
-6.9132265
-6.9132907
-6.9134456
-6.913626
-6.9127793
-6.9128204
-6.9128386
-6.9130101
-6.9134912
-6.9137175
-6.9135655
-6.9133493
-6.9133388
-6.9136719
-6.9129959
-6.9129974
-6.9129959
-6.9131929
-6.9137175
-6.9138498
-6.9134174
-6.9134959
-6.9131316
-6.913321
-6.9129998
-6.9129853
-6.9129883
-6.9132265
-6.9135655
-6.9134174
-6.9132919
-6.0822703
-6.0817473
-6.0827698
-6.0812646
-6.0814843
-6.0816726
-6.0817876
-6.0819762
-6.0820508
-6.0823069
-6.0817473
-6.0827105
-6.0819145
-6.0810518
-6.081361
-6.0815318
-6.0817342
-6.0821561
-6.0820255
-6.0818327
-6.0827698
-6.0819145
-6.0819675
-6.0811516
-6.0814109
-6.081529
-6.0817489
-6.0823502
-6.0824363
-6.0820687
-6.0812646
-6.0810518
-6.0811516
-6.0803167
-6.0805439
-6.0806135
-6.0807947
-6.08143
-6.0817067
-6.0817345
-6.0814843
-6.081361
-6.0814109
-6.0805439
-6.0807465
-6.0807839
-6.0809189
-6.0814988
-6.0817141
-6.0817115
-6.0816726
-6.0815318
-6.081529
-6.0806135
-6.0807839
-6.0808008
-6.0809157
-6.0814737
-6.08167
-6.0816837
-6.0817876
-6.0817342
-6.0817489
-6.0807947
-6.0809189
-6.0809157
-6.0810293
-6.0816034
-6.0818406
-6.0819316
-6.0819762
-6.0821561
-6.0823502
-6.08143
-6.0814988
-6.0814737
-6.0816034
-6.0822307
-6.0825403
-6.0824331
-6.0820508
-6.0820255
-6.0824363
-6.0817067
-6.0817141
-6.08167
-6.0818406
-6.0825403
-6.0827453
-6.0821554
-6.0823069
-6.0818327
-6.0820687
-6.0817345
-6.0817115
-6.0816837
-6.0819316
-6.0824331
-6.0821554
-6.0820935
-5.3421225
-5.3416031
-5.3426336
-5.3410837
-5.3413671
-5.3415404
-5.3416301
-5.3418461
-5.3419284
-5.3422748
-5.3416031
-5.3425683
-5.3417703
-5.340922
-5.3412724
-5.3414011
-5.3415565
-5.3420672
-5.3419078
-5.3417184
-5.3426336
-5.3417703
-5.341851
-5.3410347
-5.3413303
-5.3413973
-5.3415494
-5.3422642
-5.3423756
-5.3419875
-5.3410837
-5.340922
-5.3410347
-5.3401967
-5.3404608
-5.340476
-5.3405713
-5.3413021
-5.3416175
-5.3416503
-5.3413671
-5.3412724
-5.3413303
-5.3404608
-5.3407029
-5.3406876
-5.3407325
-5.3413936
-5.3416293
-5.3416188
-5.3415404
-5.3414011
-5.3413973
-5.340476
-5.3406876
-5.3406545
-5.3406807
-5.3413202
-5.3415367
-5.3415518
-5.3416301
-5.3415565
-5.3415494
-5.3405713
-5.3407325
-5.3406807
-5.3407078
-5.3413685
-5.3416391
-5.3417735
-5.3418461
-5.3420672
-5.3422642
-5.3413021
-5.3413936
-5.3413202
-5.3413685
-5.3420989
-5.3424782
-5.3424566
-5.3419284
-5.3419078
-5.3423756
-5.3416175
-5.3416293
-5.3415367
-5.3416391
-5.3424782
-5.342789
-5.3420361
-5.3422748
-5.3417184
-5.3419875
-5.3416503
-5.3416188
-5.3415518
-5.3417735
-5.3424566
-5.3420361
-5.3420453
-4.688082
-4.6875992
-4.6886049
-4.6870501
-4.6873798
-4.6875339
-4.6875881
-4.6878112
-4.6878916
-4.6882987
-4.6875992
-4.6885544
-4.6877632
-4.6869442
-4.6873232
-4.6874113
-4.6875055
-4.6880723
-4.6878838
-4.6876851
-4.6886049
-4.6877632
-4.6878563
-4.6870572
-4.6873795
-4.6874009
-4.6874721
-4.6882615
-4.688386
-4.6879739
-4.6870501
-4.6869442
-4.6870572
-4.6862352
-4.6865277
-4.6864963
-4.6864957
-4.6872852
-4.6876212
-4.6876425
-4.6873798
-4.6873232
-4.6873795
-4.6865277
-4.6868011
-4.686742
-4.6866883
-4.6873971
-4.6876392
-4.6876055
-4.6875339
-4.6874113
-4.6874009
-4.6864963
-4.686742
-4.6866677
-4.6865968
-4.6872833
-4.687504
-4.6875
-4.6875881
-4.6875055
-4.6874721
-4.6864957
-4.6866883
-4.6865968
-4.686527
-4.687236
-4.6875181
-4.6876706
-4.6878112
-4.6880723
-4.6882615
-4.6872852
-4.6873971
-4.6872833
-4.687236
-4.688025
-4.6884498
-4.6885283
-4.6878916
-4.6878838
-4.688386
-4.6876212
-4.6876392
-4.687504
-4.6875181
-4.6884498
-4.6888771
-4.6879729
-4.6882987
-4.6876851
-4.6879739
-4.6876425
-4.6876055
-4.6875
-4.6876706
-4.6885283
-4.6879729
-4.6880471
-4.113606
-4.1131724
-4.1141283
-4.1126005
-4.1129617
-4.1130977
-4.1131169
-4.1133365
-4.1134116
-4.1138544
-4.1131724
-4.1140985
-4.1133213
-4.1125423
-4.1129391
-4.1129939
-4.1130284
-4.113628
-4.1134186
-4.1132066
-4.1141283
-4.1133213
-4.1134152
-4.1126465
-4.1129865
-4.1129722
-4.1129664
-4.1138007
-4.1139342
-4.113503
-4.1126005
-4.1125423
-4.1126465
-4.1118544
-4.1121669
-4.1121006
-4.1120117
-4.112833
-4.1131805
-4.1131841
-4.1129617
-4.1129391
-4.1129865
-4.1121669
-4.1124633
-4.1123724
-4.1122293
-4.1129624
-4.113206
-4.1131451
-4.1130977
-4.1129939
-4.1129722
-4.1121006
-4.1123724
-4.1122691
-4.1121101
-4.11282
-4.1130392
-4.1130074
-4.1131169
-4.1130284
-4.1129664
-4.1120117
-4.1122293
-4.1121101
-4.1119514
-4.1126824
-4.1129641
-4.1131158
-4.1133365
-4.113628
-4.1138007
-4.112833
-4.1129624
-4.11282
-4.1126824
-4.1134969
-4.1139467
-4.1141244
-4.1134116
-4.1134186
-4.1139342
-4.1131805
-4.113206
-4.1130392
-4.1129641
-4.1139467
-4.1144866
-4.1134564
-4.1138544
-4.1132066
-4.113503
-4.1131841
-4.1131451
-4.1130074
-4.1131158
-4.1141244
-4.1134564
-4.1135828
-3.6110489
-3.6106683
-3.6115561
-3.6100801
-3.6104597
-3.6105797
-3.6105689
-3.6107797
-3.6108506
-3.6113106
-3.6106683
-3.6115478
-3.6107905
-3.6100586
-3.6104633
-3.6104921
-3.6104747
-3.6110901
-3.6108716
-3.6106489
-3.6115561
-3.6107905
-3.6108763
-3.6101474
-3.6104967
-3.610456
-3.6103842
-3.61124
-3.6113828
-3.6109427
-3.6100801
-3.6100586
-3.6101474
-3.6093954
-3.6097194
-3.6096288
-3.609466
-3.6102987
-3.6106535
-3.6106408
-3.6104597
-3.6104633
-3.6104967
-3.6097194
-3.6100304
-3.6099182
-3.6097014
-3.6104414
-3.6106864
-3.6106024
-3.6105797
-3.6104921
-3.610456
-3.6096288
-3.6099182
-3.6097963
-3.6095648
-3.6102812
-3.610499
-3.6104404
-3.6105689
-3.6104747
-3.6103842
-3.609466
-3.6097014
-3.6095648
-3.609333
-3.6100676
-3.610345
-3.6104863
-3.6107797
-3.6110901
-3.61124
-3.6102987
-3.6104414
-3.6102812
-3.6100676
-3.6108843
-3.6113458
-3.6116133
-3.6108506
-3.6108716
-3.6113828
-3.6106535
-3.6106864
-3.610499
-3.610345
-3.6113458
-3.6119855
-3.6108626
-3.6113106
-3.6106489
-3.6109427
-3.6106408
-3.6106024
-3.6104404
-3.6104863
-3.6116133
-3.6108626
-3.6110263
-3.1722172
-3.1718898
-3.1726975
-3.1712917
-3.1716787
-3.1717848
-3.1717499
-3.1719496
-3.1720185
-3.1724821
-3.1718898
-3.1727095
-3.1719766
-3.1712966
-3.1717007
-3.1717097
-3.1716502
-3.1722677
-3.1720521
-3.171824
-3.1726975
-3.1719766
-3.1720482
-3.1713656
-3.1717164
-3.1716572
-3.1715325
-3.1723907
-3.1725445
-3.1721071
-3.1712917
-3.1712966
-3.1713656
-3.1706605
-3.1709886
-3.170882
-3.1706616
-3.1714892
-3.1718493
-3.1718251
-3.1716787
-3.1717007
-3.1717164
-3.1709886
-3.171306
-3.1711808
-3.1709074
-3.1716408
-3.1718887
-3.1717888
-3.1717848
-3.1717097
-3.1716572
-3.170882
-3.1711808
-3.1710482
-3.1707615
-3.1714711
-3.1716896
-3.1716103
-3.1717499
-3.1716502
-3.1715325
-3.1706616
-3.1709074
-3.1707615
-3.1704737
-3.1711983
-3.1714715
-3.1715997
-3.1719496
-3.1722677
-3.1723907
-3.1714892
-3.1716408
-3.1714711
-3.1711983
-3.1720007
-3.172466
-3.1728099
-3.1720185
-3.1720521
-3.1725445
-3.1718493
-3.1718887
-3.1716896
-3.1714715
-3.172466
-3.173188
-3.1720083
-3.1724821
-3.171824
-3.1721071
-3.1718251
-3.1717888
-3.1716103
-3.1715997
-3.1728099
-3.1720083
-3.1721946
-2.788999
-2.788724
-2.7894441
-2.7881216
-2.788507
-2.788601
-2.7885478
-2.7887354
-2.7888047
-2.7892618
-2.788724
-2.7894751
-2.7887699
-2.7881443
-2.7885406
-2.7885351
-2.7884431
-2.7890518
-2.7888492
-2.7886217
-2.7894441
-2.7887699
-2.7888231
-2.7881908
-2.7885366
-2.788465
-2.7883004
-2.7891455
-2.7893117
-2.7888877
-2.7881216
-2.7881443
-2.7881908
-2.787537
-2.7878624
-2.7877464
-2.787484
-2.7882934
-2.7886575
-2.788627
-2.788507
-2.7885406
-2.7885366
-2.7878624
-2.7881793
-2.7880473
-2.7877338
-2.7884495
-2.7887017
-2.7885935
-2.788601
-2.7885351
-2.788465
-2.7877464
-2.7880473
-2.7879098
-2.7875842
-2.7882764
-2.788498
-2.7884054
-2.7885478
-2.7884431
-2.7883004
-2.787484
-2.7877338
-2.7875842
-2.7872567
-2.7879608
-2.7882313
-2.7883473
-2.7887354
-2.7890518
-2.7891455
-2.7882934
-2.7884495
-2.7882764
-2.7879608
-2.7887369
-2.7892014
-2.7896068
-2.7888047
-2.7888492
-2.7893117
-2.7886575
-2.7887017
-2.788498
-2.7882313
-2.7892014
-2.7899867
-2.7887843
-2.7892618
-2.7886217
-2.7888877
-2.788627
-2.7885935
-2.7884054
-2.7883473
-2.7896068
-2.7887843
-2.7889798
-2.4538508
-2.4536265
-2.4542558
-2.4530248
-2.4534015
-2.4534848
-2.4534185
-2.4535934
-2.4536653
-2.4541082
-2.4536265
-2.4543045
-2.453629
-2.4530585
-2.4534414
-2.4534252
-2.4533095
-2.4539008
-2.453719
-2.453497
-2.4542558
-2.453629
-2.4536611
-2.453081
-2.4534166
-2.4533373
-2.4531443
-2.453964
-2.4541436
-2.4537414
-2.4530248
-2.4530585
-2.453081
-2.4524807
-2.452798
-2.4526774
-2.4523869
-2.4531677
-2.4535345
-2.4535027
-2.4534015
-2.4534414
-2.4534166
-2.452798
-2.4531085
-2.4529742
-2.4526349
-2.4533242
-2.4535818
-2.4534722
-2.4534848
-2.4534252
-2.4533373
-2.4526774
-2.4529742
-2.452836
-2.4524857
-2.4531521
-2.4533785
-2.4532801
-2.4534185
-2.4533095
-2.4531443
-2.4523869
-2.4526349
-2.4524857
-2.4521331
-2.4528086
-2.4530781
-2.4531844
-2.4535934
-2.4539008
-2.453964
-2.4531677
-2.4533242
-2.4531521
-2.4528086
-2.4535498
-2.4540106
-2.4544623
-2.4536653
-2.453719
-2.4541436
-2.4535345
-2.4535818
-2.4533785
-2.4530781
-2.4540106
-2.4548404
-2.4536457
-2.4541082
-2.453497
-2.4537414
-2.4535027
-2.4534722
-2.4532801
-2.4531844
-2.4544623
-2.4536457
-2.4538389
-2.1600654
-2.1598891
-2.1604276
-2.1592921
-2.1596547
-2.1597285
-2.1596533
-2.1598155
-2.1598912
-2.1603143
-2.1598891
-2.1604922
-2.1598475
-2.1593312
-2.1596965
-2.1596727
-2.1595406
-2.1601078
-2.1599524
-2.1597398
-2.1604276
-2.1598475
-2.1598573
-2.1593296
-2.1596508
-2.1595673
-2.1593559
-2.1601406
-2.1603338
-2.1599598
-2.1592921
-2.1593312
-2.1593296
-2.1587829
-2.1590878
-2.1589662
-2.1586594
-2.1594035
-2.159772
-2.1597428
-2.1596547
-2.1596965
-2.1596508
-2.1590878
-2.1593874
-2.1592541
-2.1589011
-2.1595573
-2.1598207
-2.1597153
-2.1597285
-2.1596727
-2.1595673
-2.1589662
-2.1592541
-2.159118
-2.1587551
-2.1593893
-2.1596217
-2.1595236
-2.1596533
-2.1595406
-2.1593559
-2.1586594
-2.1589011
-2.1587551
-2.1583895
-2.1590303
-2.1593004
-2.1594
-2.1598155
-2.1601078
-2.1601406
-2.1594035
-2.1595573
-2.1593893
-2.1590303
-2.1597307
-2.160186
-2.1606701
-2.1598912
-2.1599524
-2.1603338
-2.159772
-2.1598207
-2.1596217
-2.1593004
-2.160186
-2.1610432
-2.1598812
-2.1603143
-2.1597398
-2.1599598
-2.1597428
-2.1597153
-2.1595236
-2.1594
-2.1606701
-2.1598812
-2.1600629
-1.9018501
-1.9017182
-1.9021684
-1.9011292
-1.9014736
-1.9015389
-1.9014583
-1.9016079
-1.9016882
-1.9020877
-1.9017182
-1.9022468
-1.9016332
-1.9011692
-1.9015139
-1.9014847
-1.9013427
-1.9018807
-1.9017552
-1.901555
-1.9021684
-1.9016332
-1.9016204
-1.9011439
-1.9014478
-1.9013628
-1.9011413
-1.9018841
-1.9020906
-1.901749
-1.9011292
-1.9011692
-1.9011439
-1.9006497
-1.9009391
-1.9008192
-1.9005057
-1.9012074
-1.9015764
-1.9015531
-1.9014736
-1.9015139
-1.9014478
-1.9009391
-1.9012243
-1.9010944
-1.9007376
-1.9013559
-1.9016252
-1.9015283
-1.9015389
-1.9014847
-1.9013628
-1.9008192
-1.9010944
-1.9009626
-1.9005968
-1.9011942
-1.9014332
-1.9013405
-1.9014583
-1.9013427
-1.9011413
-1.9005057
-1.9007376
-1.9005968
-1.9002281
-1.9008302
-1.9011019
-1.9011977
-1.9016079
-1.9018807
-1.9018841
-1.9012074
-1.9013559
-1.9011942
-1.9008302
-1.9014858
-1.9019346
-1.9024385
-1.9016882
-1.9017552
-1.9020906
-1.9015764
-1.9016252
-1.9014332
-1.9011019
-1.9019346
-1.9028039
-1.9016944
-1.9020877
-1.901555
-1.901749
-1.9015531
-1.9015283
-1.9013405
-1.9011977
-1.9024385
-1.9016944
-1.9018575
-1.6742853
-1.6741931
-1.6745594
-1.6736149
-1.6739387
-1.6739961
-1.673913
-1.6740503
-1.6741355
-1.6745091
-1.6741931
-1.6746494
-1.6740667
-1.6736522
-1.6739743
-1.6739417
-1.6737947
-1.6743003
-1.6742064
-1.6740208
-1.6745594
-1.6740667
-1.674032
-1.6736045
-1.6738891
-1.6738047
-1.6735797
-1.674276
-1.6744951
-1.6741885
-1.6736149
-1.6736522
-1.6736045
-1.6731606
-1.6734324
-1.673316
-1.6730036
-1.6736594
-1.6740278
-1.6740126
-1.6739387
-1.6739743
-1.6738891
-1.6734324
-1.673701
-1.673576
-1.6732233
-1.6738008
-1.6740755
-1.6739903
-1.6739961
-1.6739417
-1.6738047
-1.673316
-1.673576
-1.6734499
-1.6730891
-1.6736469
-1.6738923
-1.673809
-1.673913
-1.6737947
-1.6735797
-1.6730036
-1.6732233
-1.6730891
-1.6727252
-1.673286
-1.6735598
-1.6736544
-1.6740503
-1.6743003
-1.674276
-1.6736594
-1.6738008
-1.6736469
-1.673286
-1.6738947
-1.6743361
-1.6748493
-1.6741355
-1.6742064
-1.6744951
-1.6740278
-1.6740755
-1.6738923
-1.6735598
-1.6743361
-1.6752048
-1.6741627
-1.6745091
-1.6740208
-1.6741885
-1.6740126
-1.6739903
-1.673809
-1.6736544
-1.6748493
-1.6741627
-1.6743023
-1.4732233
-1.4731659
-1.473454
-1.4726007
-1.4729023
-1.4729528
-1.4728694
-1.4729948
-1.4730849
-1.4734315
-1.4731659
-1.4735528
-1.4730006
-1.4726324
-1.4729309
-1.4728965
-1.4727487
-1.4732199
-1.473158
-1.4729886
-1.473454
-1.4730006
-1.4729455
-1.4725641
-1.4728285
-1.472746
-1.472523
-1.4731703
-1.4734007
-1.4731305
-1.4726007
-1.4726324
-1.4725641
-1.4721678
-1.4724207
-1.4723093
-1.4720039
-1.472612
-1.4729785
-1.4729733
-1.4729023
-1.4729309
-1.4728285
-1.4724207
-1.4726712
-1.4725524
-1.4722098
-1.472745
-1.4730245
-1.4729532
-1.4729528
-1.4728965
-1.472746
-1.4723093
-1.4725524
-1.472433
-1.4720831
-1.4725998
-1.4728515
-1.4727804
-1.4728694
-1.4727487
-1.472523
-1.4720039
-1.4722098
-1.4720831
-1.47173
-1.4722485
-1.4725247
-1.4726201
-1.4729948
-1.4732199
-1.4731703
-1.472612
-1.472745
-1.4725998
-1.4722485
-1.4728098
-1.4732431
-1.4737569
-1.4730849
-1.473158
-1.4734007
-1.4729785
-1.4730245
-1.4728515
-1.4725247
-1.4732431
-1.4741006
-1.4731363
-1.4734315
-1.4729886
-1.4731305
-1.4729733
-1.4729532
-1.4727804
-1.4726201
-1.4737569
-1.4731363
-1.4732492
-1.2951707
-1.2951427
-1.2953595
-1.2945926
-1.2948714
-1.2949156
-1.2948337
-1.2949479
-1.2950427
-1.2953623
-1.2951427
-1.2954643
-1.294942
-1.2946165
-1.2948913
-1.2948561
-1.2947107
-1.2951469
-1.2951162
-1.294964
-1.2953595
-1.294942
-1.2948682
-1.2945298
-1.2947736
-1.2946944
-1.2944773
-1.2950746
-1.2953151
-1.2950814
-1.2945926
-1.2946165
-1.2945298
-1.2941778
-1.2944114
-1.2943059
-1.2940121
-1.294572
-1.2949357
-1.2949415
-1.2948714
-1.2948913
-1.2947736
-1.2944114
-1.2946431
-1.2945312
-1.2942032
-1.2946959
-1.2949792
-1.2949235
-1.2949156
-1.2948561
-1.2946944
-1.2943059
-1.2945312
-1.2944192
-1.2940846
-1.2945601
-1.2948173
-1.2947604
-1.2948337
-1.2947107
-1.2944773
-1.2940121
-1.2942032
-1.2940846
-1.2937468
-1.2942232
-1.2945015
-1.2945993
-1.2949479
-1.2951469
-1.2950746
-1.294572
-1.2946959
-1.2945601
-1.2942232
-1.2947376
-1.2951621
-1.2956697
-1.2950427
-1.2951162
-1.2953151
-1.2949357
-1.2949792
-1.2948173
-1.2945015
-1.2951621
-1.2960001
-1.2951198
-1.2953623
-1.294964
-1.2950814
-1.2949415
-1.2949235
-1.2947604
-1.2945993
-1.2956697
-1.2951198
-1.2952048
-1.1371753
-1.1371713
-1.1373241
-1.1366382
-1.1368941
-1.1369328
-1.1368537
-1.1369575
-1.1370565
-1.1373499
-1.1371713
-1.1374322
-1.1369391
-1.1366527
-1.1369041
-1.1368691
-1.1367285
-1.1371299
-1.1371289
-1.1369944
-1.1373241
-1.1369391
-1.1368491
-1.1365502
-1.1367735
-1.1366983
-1.1364902
-1.1370382
-1.1372869
-1.1370891
-1.1366382
-1.1366527
-1.1365502
-1.1362389
-1.1364533
-1.1363543
-1.1360753
-1.1365878
-1.1369475
-1.1369651
-1.1368941
-1.1369041
-1.1367735
-1.1364533
-1.1366661
-1.1365617
-1.1362515
-1.1367024
-1.1369884
-1.1369489
-1.1369328
-1.1368691
-1.1366983
-1.1363543
-1.1365617
-1.1364574
-1.1361412
-1.1365762
-1.1368379
-1.1367964
-1.1368537
-1.1367285
-1.1364902
-1.1360753
-1.1362515
-1.1361412
-1.1358218
-1.136257
-1.1365369
-1.1366383
-1.1369575
-1.1371299
-1.1370382
-1.1365878
-1.1367024
-1.1365762
-1.136257
-1.1367261
-1.1371411
-1.1376373
-1.1370565
-1.1371289
-1.1372869
-1.1369475
-1.1369884
-1.1368379
-1.1365369
-1.1371411
-1.1379532
-1.1371598
-1.1373499
-1.1369944
-1.1370891
-1.1369651
-1.1369489
-1.1367964
-1.1366383
-1.1376373
-1.1371598
-1.1372168
-0.9967283
-0.9967431
-0.99683954
-0.99622869
-0.99646223
-0.99649609
-0.9964207
-0.99651485
-0.99661746
-0.99688594
-0.9967431
-0.99694825
-0.99648382
-0.99623283
-0.99646166
-0.99642757
-0.99629354
-0.9966611
-0.99668736
-0.99657076
-0.99683954
-0.99648382
-0.99638011
-0.99611722
-0.99632072
-0.99625005
-0.99605305
-0.99655301
-0.99680818
-0.9966449
-0.99622869
-0.99623283
-0.99611722
-0.99584323
-0.99603877
-0.99594671
-0.99568458
-0.99615142
-0.99650597
-0.99653534
-0.99646223
-0.99646166
-0.99632072
-0.99603877
-0.99623316
-0.99613638
-0.99584586
-0.99625651
-0.99654388
-0.99652086
-0.99649609
-0.99642757
-0.99625005
-0.99594671
-0.99613638
-0.99603984
-0.99574395
-0.99614004
-0.9964049
-0.99637935
-0.9964207
-0.99629354
-0.99605305
-0.99568458
-0.99584586
-0.99574395
-0.99544506
-0.99584076
-0.99612141
-0.99622692
-0.99651485
-0.9966611
-0.99655301
-0.99615142
-0.99625651
-0.99614004
-0.99584076
-0.99626658
-0.99667137
-0.99715238
-0.99661746
-0.99668736
-0.99680818
-0.99650597
-0.99654388
-0.9964049
-0.99612141
-0.99667137
-0.99745288
-0.99674629
-0.99688594
-0.99657076
-0.9966449
-0.99653534
-0.99652086
-0.99637935
-0.99622692
-0.99715238
-0.99674629
-0.99677649
-0.87168327
-0.87171206
-0.87175982
-0.87121798
-0.87143004
-0.87145959
-0.87138862
-0.8714739
-0.87157937
-0.87182457
-0.87171206
-0.87186681
-0.87143053
-0.87121146
-0.87141872
-0.871386
-0.87125975
-0.87159488
-0.8716457
-0.8715468
-0.87175982
-0.87143053
-0.87131581
-0.87108556
-0.87127005
-0.87120421
-0.87101965
-0.87147376
-0.87173337
-0.8716026
-0.87121798
-0.87121146
-0.87108556
-0.87084533
-0.87102278
-0.87093773
-0.87069373
-0.87111708
-0.87146528
-0.87150618
-0.87143004
-0.87141872
-0.87127005
-0.87102278
-0.87119935
-0.87111021
-0.87084051
-0.8712129
-0.87150018
-0.87149318
-0.87145959
-0.871386
-0.87120421
-0.87093773
-0.87111021
-0.87102142
-0.87074689
-0.87110598
-0.87137259
-0.87136278
-0.87138862
-0.87125975
-0.87101965
-0.87069373
-0.87084051
-0.87074689
-0.8704695
-0.87082783
-0.87110811
-0.87121803
-0.8714739
-0.87159488
-0.87147376
-0.87111708
-0.8712129
-0.87110598
-0.87082783
-0.8712129
-0.8716067
-0.87206972
-0.87157937
-0.8716457
-0.87173337
-0.87146528
-0.87150018
-0.87137259
-0.87110811
-0.8716067
-0.87235414
-0.87173227
-0.87182457
-0.8715468
-0.8716026
-0.87150618
-0.87149318
-0.87136278
-0.87121803
-0.87206972
-0.87173227
-0.87173761
-0.76019117
-0.76022957
-0.76023614
-0.75975738
-0.75994902
-0.75997476
-0.7599086
-0.7599858
-0.76009329
-0.76031699
-0.76022957
-0.76033934
-0.7599308
-0.75974034
-0.75992722
-0.75989619
-0.75977844
-0.76008288
-0.76015517
-0.76007344
-0.76023614
-0.7599308
-0.75980783
-0.75960696
-0.75977343
-0.75971253
-0.75954115
-0.75995197
-0.76021392
-0.76011326
-0.75975738
-0.75974034
-0.75960696
-0.75939714
-0.7595574
-0.7594793
-0.75925395
-0.75963642
-0.75997699
-0.76002868
-0.75994902
-0.75992722
-0.75977343
-0.7595574
-0.75971699
-0.75963533
-0.75938681
-0.75972327
-0.76000885
-0.76001702
-0.75997476
-0.75989619
-0.75971253
-0.7594793
-0.75963533
-0.75955409
-0.75930122
-0.75962558
-0.7598923
-0.75989755
-0.7599086
-0.75977844
-0.75954115
-0.75925395
-0.75938681
-0.75930122
-0.75904566
-0.75936902
-0.7596476
-0.75976177
-0.7599858
-0.76008288
-0.75995197
-0.75963642
-0.75972327
-0.75962558
-0.75936902
-0.75971611
-0.76009802
-0.76054115
-0.76009329
-0.76015517
-0.76021392
-0.75997699
-0.76000885
-0.7598923
-0.7596476
-0.76009802
-0.76080903
-0.76026802
-0.76031699
-0.76007344
-0.76011326
-0.76002868
-0.76001702
-0.75989755
-0.75976177
-0.76054115
-0.76026802
-0.76025102
-0.66064786
-0.66069203
-0.66066459
-0.6602432
-0.66041561
-0.66043797
-0.66037681
-0.66044664
-0.66055525
-0.66075926
-0.66069203
-0.66076225
-0.66038114
-0.6602162
-0.66038395
-0.66035481
-0.6602459
-0.66052157
-0.66061207
-0.66054668
-0.66066459
-0.66038114
-0.66025263
-0.66007808
-0.66022762
-0.66017161
-0.66001368
-0.66038402
-0.66064612
-0.66057288
-0.6602432
-0.6602162
-0.66007808
-0.65989553
-0.6600396
-0.65996824
-0.65976154
-0.6601059
-0.6604375
-0.66049895
-0.66041561
-0.66038395
-0.66022762
-0.6600396
-0.66018316
-0.6601087
-0.65988118
-0.66018418
-0.66046637
-0.66048846
-0.66043797
-0.66035481
-0.66017161
-0.65996824
-0.6601087
-0.66003468
-0.65980326
-0.66009531
-0.66036036
-0.66037958
-0.66037681
-0.6602459
-0.66001368
-0.65976154
-0.65988118
-0.65980326
-0.65956931
-0.65986021
-0.66013558
-0.66025349
-0.66044664
-0.66052157
-0.66038402
-0.6601059
-0.66018418
-0.66009531
-0.65986021
-0.66017215
-0.66054122
-0.66096318
-0.66055525
-0.66061207
-0.66064612
-0.6604375
-0.66046637
-0.66036036
-0.66013558
-0.66054122
-0.66121427
-0.660749
-0.66075926
-0.66054668
-0.66057288
-0.66049895
-0.66048846
-0.66037958
-0.66025349
-0.66096318
-0.660749
-0.66071254
-0.57165239
-0.57169901
-0.57164435
-0.57127497
-0.57142936
-0.57144871
-0.57139258
-0.57145571
-0.57156451
-0.57175053
-0.57169901
-0.57173505
-0.57138115
-0.57123888
-0.5713888
-0.57136162
-0.57126161
-0.57151049
-0.57161583
-0.57156575
-0.57164435
-0.57138115
-0.57124973
-0.57109866
-0.57123237
-0.57118112
-0.57103652
-0.5713693
-0.57162935
-0.57158059
-0.57127497
-0.57123888
-0.57109866
-0.57094048
-0.57106939
-0.57100446
-0.57081599
-0.5711251
-0.57144634
-0.57151622
-0.57142936
-0.5713888
-0.57123237
-0.57106939
-0.57119791
-0.57113029
-0.57092318
-0.57119524
-0.57147228
-0.57150676
-0.57144871
-0.57136162
-0.57118112
-0.57100446
-0.57113029
-0.57106311
-0.57085249
-0.57111469
-0.57137625
-0.57140799
-0.57139258
-0.57126161
-0.57103652
-0.57081599
-0.57092318
-0.57085249
-0.57063953
-0.5709005
-0.57117104
-0.5712919
-0.57145571
-0.57151049
-0.5713693
-0.5711251
-0.57119524
-0.57111469
-0.5709005
-0.57118012
-0.57153531
-0.57193531
-0.57156451
-0.57161583
-0.57162935
-0.57144634
-0.57147228
-0.57137625
-0.57117104
-0.57153531
-0.5721695
-0.57177402
-0.57175053
-0.57156575
-0.57158059
-0.57151622
-0.57150676
-0.57140799
-0.5712919
-0.57193531
-0.57177402
-0.57172118
-0.4919734
-0.49201969
-0.49194409
-0.49162175
-0.49175935
-0.49177601
-0.4917248
-0.49178183
-0.49188986
-0.4920595
-0.49201969
-0.49202675
-0.49169992
-0.49157775
-0.49171108
-0.49168587
-0.49159458
-0.49181864
-0.49193548
-0.49189947
-0.49194409
-0.49169992
-0.49156809
-0.4914379
-0.49155689
-0.49151017
-0.49137853
-0.49167664
-0.49193244
-0.49190514
-0.49162175
-0.49157775
-0.4914379
-0.49130144
-0.49141621
-0.49135735
-0.49118641
-0.49146306
-0.49177254
-0.49184932
-0.49175935
-0.49171108
-0.49155689
-0.49141621
-0.4915307
-0.49146949
-0.49128192
-0.49152553
-0.49179564
-0.49184074
-0.49177601
-0.49168587
-0.49151017
-0.49135735
-0.49146949
-0.49140871
-0.491218
-0.49145275
-0.49170894
-0.49175151
-0.4917248
-0.49159458
-0.49137853
-0.49118641
-0.49128192
-0.491218
-0.49102513
-0.49125862
-0.49152264
-0.49164542
-0.49178183
-0.49181864
-0.49167664
-0.49146306
-0.49152553
-0.49145275
-0.49125862
-0.49150863
-0.49184889
-0.49222642
-0.49188986
-0.49193548
-0.49193244
-0.49177254
-0.49179564
-0.49170894
-0.49152264
-0.49184889
-0.49244375
-0.49211161
-0.4920595
-0.49189947
-0.49190514
-0.49184932
-0.49184074
-0.49175151
-0.49164542
-0.49222642
-0.49211161
-0.4920455
-0.42052194
-0.42056561
-0.42047488
-0.42019504
-0.42031703
-0.42033124
-0.42028477
-0.42033623
-0.42044255
-0.42059723
-0.42056561
-0.42054869
-0.42024888
-0.42014447
-0.42026241
-0.4202391