/*--------------------------------*- C++ -*----------------------------------*\
| =========                 |                                                 |
| \\      /  F ield         | OpenFOAM: The Open Source CFD Toolbox           |
|  \\    /   O peration     | Version:  v2106                                 |
|   \\  /    A nd           | Website:  www.openfoam.com                      |
|    \\/     M anipulation  |                                                 |
\*---------------------------------------------------------------------------*/
FoamFile
{
    version     2.0;
    format      ascii;
    arch        "LSB;label=32;scalar=64";
    class       volScalarField;
    location    "100";
    object      Tmode_lapla4;
}
// * * * * * * * * * * * * * * * * * * * * * * * * * * * * * * * * * * * * * //

dimensions      [0 -2 0 0 0 0 0];

internalField   nonuniform List<scalar> 
4000
(
1506.1499
1506.1451
1506.1534
1506.1481
1506.1494
1506.1497
1506.1496
1506.1495
1506.1495
1506.1496
1506.1451
1506.1561
1506.1521
1506.1502
1506.1516
1506.1517
1506.1516
1506.1515
1506.1516
1506.1511
1506.1534
1506.1521
1506.1536
1506.1514
1506.1527
1506.1528
1506.1526
1506.1524
1506.153
1506.1519
1506.1481
1506.1502
1506.1514
1506.1492
1506.1503
1506.1504
1506.1502
1506.1499
1506.1505
1506.1506
1506.1494
1506.1516
1506.1527
1506.1503
1506.1515
1506.1516
1506.1514
1506.151
1506.1514
1506.151
1506.1497
1506.1517
1506.1528
1506.1504
1506.1516
1506.1518
1506.1515
1506.1512
1506.1515
1506.1511
1506.1496
1506.1516
1506.1526
1506.1502
1506.1514
1506.1515
1506.1513
1506.151
1506.1514
1506.151
1506.1495
1506.1515
1506.1524
1506.1499
1506.151
1506.1512
1506.151
1506.1507
1506.151
1506.1507
1506.1495
1506.1516
1506.153
1506.1505
1506.1514
1506.1515
1506.1514
1506.151
1506.1514
1506.1511
1506.1496
1506.1511
1506.1519
1506.1506
1506.151
1506.1511
1506.151
1506.1507
1506.1511
1506.1509
-263.37202
-263.37544
-263.35424
-263.37162
-263.36885
-263.36783
-263.36776
-263.36778
-263.36737
-263.36705
-263.37544
-263.36066
-263.36189
-263.37147
-263.36836
-263.36755
-263.36757
-263.36753
-263.36769
-263.36949
-263.35424
-263.36189
-263.35369
-263.36339
-263.36061
-263.3599
-263.35986
-263.35912
-263.35848
-263.36445
-263.37162
-263.37147
-263.36339
-263.37331
-263.37063
-263.37001
-263.37014
-263.36923
-263.3665
-263.3679
-263.36885
-263.36836
-263.36061
-263.37063
-263.36798
-263.36739
-263.36769
-263.36731
-263.36543
-263.3675
-263.36783
-263.36755
-263.3599
-263.37001
-263.36739
-263.36677
-263.36706
-263.36674
-263.36504
-263.36739
-263.36776
-263.36757
-263.35986
-263.37014
-263.36769
-263.36706
-263.36732
-263.36698
-263.36526
-263.36761
-263.36778
-263.36753
-263.35912
-263.36923
-263.36731
-263.36674
-263.36698
-263.36661
-263.36485
-263.36704
-263.36737
-263.36769
-263.35848
-263.3665
-263.36543
-263.36504
-263.36526
-263.36485
-263.36296
-263.36499
-263.36705
-263.36949
-263.36445
-263.3679
-263.3675
-263.36739
-263.36761
-263.36704
-263.36499
-263.36873
-171.12031
-171.12708
-171.10959
-171.12623
-171.12284
-171.12175
-171.12173
-171.12169
-171.12116
-171.11689
-171.12708
-171.1123
-171.11533
-171.12454
-171.12096
-171.12014
-171.12005
-171.11928
-171.12297
-171.12519
-171.10959
-171.11533
-171.10992
-171.11929
-171.11606
-171.11542
-171.11531
-171.11253
-171.11292
-171.1189
-171.12623
-171.12454
-171.11929
-171.12885
-171.12572
-171.12526
-171.12563
-171.123
-171.12108
-171.12219
-171.12284
-171.12096
-171.11606
-171.12572
-171.1226
-171.12216
-171.12279
-171.12092
-171.12005
-171.1219
-171.12175
-171.12014
-171.11542
-171.12526
-171.12216
-171.12165
-171.12226
-171.12046
-171.11984
-171.12199
-171.12173
-171.12005
-171.11531
-171.12563
-171.12279
-171.12226
-171.12282
-171.12099
-171.12035
-171.12236
-171.12169
-171.11928
-171.11253
-171.123
-171.12092
-171.12046
-171.12099
-171.11911
-171.11833
-171.11987
-171.12116
-171.12297
-171.11292
-171.12108
-171.12005
-171.11984
-171.12035
-171.11833
-171.11716
-171.11939
-171.11689
-171.12519
-171.1189
-171.12219
-171.1219
-171.12199
-171.12236
-171.11987
-171.11939
-171.12324
-100.99111
-101.00508
-100.98546
-101.00113
-100.99805
-100.99702
-100.99701
-100.99682
-100.9985
-100.9931
-101.00508
-100.99098
-100.99256
-101.00159
-100.99831
-100.9976
-100.99726
-100.99438
-101.00093
-101.00298
-100.98546
-100.99256
-100.98645
-100.99546
-100.9925
-100.99209
-100.99198
-100.98655
-100.98918
-100.99598
-101.00113
-101.00159
-100.99546
-101.00459
-101.00172
-101.00156
-101.00218
-100.99709
-100.99733
-100.99927
-100.99805
-100.99831
-100.9925
-101.00172
-100.99881
-100.99865
-100.99958
-100.99531
-100.99659
-100.99916
-100.99702
-100.9976
-100.99209
-101.00156
-100.99865
-100.9984
-100.9993
-100.99514
-100.99668
-100.99951
-100.99701
-100.99726
-100.99198
-101.00218
-100.99958
-100.9993
-101.00016
-100.99596
-100.99747
-100.99994
-100.99682
-100.99438
-100.98655
-100.99709
-100.99531
-100.99514
-100.99596
-100.99165
-100.99284
-100.99441
-100.9985
-101.00093
-100.98918
-100.99733
-100.99659
-100.99668
-100.99747
-100.99284
-100.9932
-100.99947
-100.9931
-101.00298
-100.99598
-100.99927
-100.99916
-100.99951
-100.99994
-100.99441
-100.99947
-100.99904
-52.256977
-52.27283
-52.250572
-52.266072
-52.26363
-52.262664
-52.262485
-52.261337
-52.263392
-52.257372
-52.27283
-52.25839
-52.25822
-52.267675
-52.264951
-52.264422
-52.264001
-52.258775
-52.266017
-52.267423
-52.250572
-52.25822
-52.250611
-52.259809
-52.257374
-52.257312
-52.257508
-52.24975
-52.253299
-52.260241
-52.266072
-52.267675
-52.259809
-52.269032
-52.266635
-52.26681
-52.267833
-52.260369
-52.261443
-52.263578
-52.26363
-52.264951
-52.257374
-52.266635
-52.264177
-52.264334
-52.265667
-52.258995
-52.261004
-52.263643
-52.262664
-52.264422
-52.257312
-52.26681
-52.264334
-52.264406
-52.265731
-52.259198
-52.261489
-52.264309
-52.262485
-52.264001
-52.257508
-52.267833
-52.265667
-52.265731
-52.267034
-52.260487
-52.262697
-52.264818
-52.261337
-52.258775
-52.24975
-52.260369
-52.258995
-52.259198
-52.260487
-52.25377
-52.255392
-52.255811
-52.263392
-52.266017
-52.253299
-52.261443
-52.261004
-52.261489
-52.262697
-52.255392
-52.255343
-52.266518
-52.257372
-52.267423
-52.260241
-52.263578
-52.263643
-52.264309
-52.264818
-52.255811
-52.266518
-52.262379
-20.3423
-20.355462
-20.332773
-20.348454
-20.346575
-20.345696
-20.345538
-20.343627
-20.345307
-20.33901
-20.355462
-20.33906
-20.338617
-20.348586
-20.346294
-20.346022
-20.346123
-20.340092
-20.347836
-20.34911
-20.332773
-20.338617
-20.330814
-20.340333
-20.338239
-20.338381
-20.339146
-20.330478
-20.3348
-20.341925
-20.348454
-20.348586
-20.340333
-20.349838
-20.347764
-20.348109
-20.34966
-20.341125
-20.342894
-20.345262
-20.346575
-20.346294
-20.338239
-20.347764
-20.345638
-20.345977
-20.347844
-20.340044
-20.342642
-20.345432
-20.345696
-20.346022
-20.338381
-20.348109
-20.345977
-20.34626
-20.348154
-20.340532
-20.343441
-20.346382
-20.345538
-20.346123
-20.339146
-20.34966
-20.347844
-20.348154
-20.350059
-20.34244
-20.345229
-20.347096
-20.343627
-20.340092
-20.330478
-20.341125
-20.340044
-20.340532
-20.34244
-20.33457
-20.336418
-20.335501
-20.345307
-20.347836
-20.3348
-20.342894
-20.342642
-20.343441
-20.345229
-20.336418
-20.335466
-20.35034
-20.33901
-20.34911
-20.341925
-20.345262
-20.345432
-20.346382
-20.347096
-20.335501
-20.35034
-20.343731
-0.56982858
-0.58289526
-0.56043402
-0.57605694
-0.57449126
-0.57367096
-0.57378923
-0.57199259
-0.57397338
-0.56816018
-0.58289526
-0.56677792
-0.56622601
-0.57635174
-0.57417399
-0.57382062
-0.57420645
-0.56826058
-0.57685297
-0.57843295
-0.56043402
-0.56622601
-0.55848196
-0.56808658
-0.56607957
-0.56607944
-0.56702383
-0.55831245
-0.563704
-0.57124016
-0.57605694
-0.57635174
-0.56808658
-0.57769041
-0.57572804
-0.57593
-0.57760059
-0.56885714
-0.57166284
-0.5745186
-0.57449126
-0.57417399
-0.56607957
-0.57572804
-0.57375254
-0.57398311
-0.57598751
-0.56792976
-0.57148745
-0.57471823
-0.57367096
-0.57382062
-0.56607944
-0.57593
-0.57398311
-0.57419776
-0.57627379
-0.56844037
-0.57235933
-0.57579223
-0.57378923
-0.57420645
-0.56702383
-0.57760059
-0.57598751
-0.57627379
-0.57840815
-0.57062935
-0.57445415
-0.57663025
-0.57199259
-0.56826058
-0.55831245
-0.56885714
-0.56792976
-0.56844037
-0.57062935
-0.56258159
-0.56520598
-0.56370844
-0.57397338
-0.57685297
-0.563704
-0.57166284
-0.57148745
-0.57235933
-0.57445415
-0.56520598
-0.56400943
-0.58120735
-0.56816018
-0.57843295
-0.57124016
-0.5745186
-0.57471823
-0.57579223
-0.57663025
-0.56370844
-0.58120735
-0.57295289
10.789705
10.775677
10.798028
10.782808
10.784258
10.785196
10.785135
10.786949
10.784731
10.790151
10.775677
10.790767
10.791813
10.781825
10.783962
10.784566
10.784422
10.790444
10.781345
10.779769
10.798028
10.791813
10.79975
10.790283
10.792225
10.792477
10.79187
10.800705
10.79458
10.786981
10.782808
10.781825
10.790283
10.780793
10.782653
10.782678
10.781392
10.790378
10.786823
10.78379
10.784258
10.783962
10.792225
10.782653
10.784488
10.784448
10.782813
10.791158
10.786919
10.783565
10.785196
10.784566
10.792477
10.782678
10.784448
10.784394
10.78266
10.790757
10.786128
10.782515
10.785135
10.784422
10.79187
10.781392
10.782813
10.78266
10.780839
10.788829
10.784219
10.781817
10.786949
10.790444
10.800705
10.790378
10.791158
10.790757
10.788829
10.797018
10.793625
10.79515
10.784731
10.781345
10.79458
10.786823
10.786919
10.786128
10.784219
10.793625
10.794474
10.776027
10.790151
10.779769
10.786981
10.78379
10.783565
10.782515
10.781817
10.79515
10.776027
10.785489
16.48147
16.466758
16.48901
16.474439
16.475765
16.476748
16.476834
16.478799
16.476488
16.481746
16.466758
16.481006
16.482787
16.473109
16.475089
16.475776
16.475938
16.482094
16.472732
16.471417
16.48901
16.482787
16.49104
16.481859
16.483615
16.48393
16.483696
16.492637
16.486015
16.478615
16.474439
16.473109
16.481859
16.472638
16.474285
16.474344
16.473467
16.482628
16.478519
16.475524
16.475765
16.475089
16.483615
16.474285
16.475881
16.475846
16.474614
16.48318
16.478458
16.475222
16.476748
16.475776
16.48393
16.474344
16.475846
16.475781
16.474446
16.482779
16.477693
16.474222
16.476834
16.475938
16.483696
16.473467
16.474614
16.474446
16.473035
16.48127
16.476189
16.473838
16.478799
16.482094
16.492637
16.482628
16.48318
16.482779
16.48127
16.489679
16.485748
16.487056
16.476488
16.472732
16.486015
16.478519
16.478458
16.477693
16.476189
16.485748
16.48594
16.466931
16.481746
16.471417
16.478615
16.475524
16.475222
16.474222
16.473838
16.487056
16.466931
16.477343
18.460577
18.445728
18.46775
18.454019
18.455167
18.456063
18.45621
18.458273
18.455867
18.461008
18.445728
18.45942
18.462001
18.452751
18.454471
18.455055
18.45537
18.461526
18.451946
18.450887
18.46775
18.462001
18.470535
18.461751
18.463234
18.463433
18.463403
18.472267
18.465194
18.458017
18.454019
18.452751
18.461751
18.452922
18.454284
18.454207
18.453565
18.462687
18.458031
18.455047
18.455167
18.454471
18.463234
18.454284
18.455578
18.455389
18.454394
18.462963
18.457761
18.454629
18.456063
18.455055
18.463433
18.454207
18.455389
18.455158
18.454063
18.462427
18.456916
18.453641
18.45621
18.45537
18.463403
18.453565
18.454394
18.454063
18.452918
18.461231
18.455781
18.453597
18.458273
18.461526
18.472267
18.462687
18.462963
18.462427
18.461231
18.469765
18.465436
18.466421
18.455867
18.451946
18.465194
18.458031
18.457761
18.456916
18.455781
18.465436
18.464852
18.445653
18.461008
18.450887
18.458017
18.455047
18.454629
18.453641
18.453597
18.466421
18.445653
18.456819
18.099519
18.084998
18.106614
18.093864
18.094787
18.095521
18.095646
18.097714
18.095171
18.100113
18.084998
18.098309
18.101656
18.092906
18.094307
18.0947
18.095036
18.101034
18.091243
18.090322
18.106614
18.101656
18.110362
18.10205
18.103221
18.103229
18.103263
18.111865
18.104344
18.097319
18.093864
18.092906
18.10205
18.093699
18.094746
18.094475
18.093933
18.10281
18.097585
18.094499
18.094787
18.094307
18.103221
18.094746
18.095723
18.095332
18.094446
18.102815
18.097107
18.09396
18.095521
18.0947
18.103229
18.094475
18.095332
18.094892
18.093909
18.102096
18.096135
18.092958
18.095646
18.095036
18.103263
18.093933
18.094446
18.093909
18.092894
18.101081
18.095257
18.093198
18.097714
18.101034
18.111865
18.10281
18.102815
18.102096
18.101081
18.109559
18.104873
18.105482
18.095171
18.091243
18.104344
18.097585
18.097107
18.096135
18.095257
18.104873
18.103495
18.08431
18.100113
18.090322
18.097319
18.094499
18.09396
18.092958
18.093198
18.105482
18.08431
18.096052
16.351815
16.337915
16.358957
16.347266
16.347925
16.348471
16.348537
16.350541
16.347837
16.352473
16.337915
16.350898
16.354927
16.346706
16.347753
16.347941
16.348231
16.353957
16.343993
16.343101
16.358957
16.354927
16.363679
16.355873
16.356713
16.356533
16.356563
16.364765
16.356829
16.349902
16.347266
16.346706
16.355873
16.348039
16.348765
16.348316
16.347815
16.356307
16.35053
16.347256
16.347925
16.347753
16.356713
16.348765
16.349425
16.348859
16.348035
16.356066
16.349872
16.34662
16.348471
16.347941
16.356533
16.348316
16.348859
16.348241
16.347324
16.355194
16.348792
16.345609
16.348537
16.348231
16.356563
16.347815
16.348035
16.347324
16.346385
16.354287
16.348085
16.346058
16.350541
16.353957
16.364765
16.356307
16.356066
16.355194
16.354287
16.362541
16.357503
16.357719
16.347837
16.343993
16.356829
16.35053
16.349872
16.348792
16.348085
16.357503
16.355372
16.336346
16.352473
16.343101
16.349902
16.347256
16.34662
16.345609
16.346058
16.357719
16.336346
16.348491
13.870206
13.857056
13.87739
13.866779
13.867144
13.867506
13.867512
13.869411
13.866555
13.8708
13.857056
13.869676
13.874281
13.866584
13.867262
13.86727
13.867507
13.872888
13.862825
13.861907
13.87739
13.874281
13.882961
13.875665
13.876169
13.875842
13.875861
13.883576
13.87529
13.868459
13.866779
13.866584
13.875665
13.868358
13.868764
13.86819
13.867734
13.875754
13.869483
13.866003
13.867144
13.867262
13.876169
13.868764
13.869113
13.868431
13.867683
13.8753
13.868684
13.865301
13.867506
13.86727
13.875842
13.86819
13.868431
13.867701
13.866865
13.874339
13.867551
13.864311
13.867512
13.867507
13.875861
13.867734
13.867683
13.866865
13.866012
13.873534
13.866984
13.864912
13.869411
13.872888
13.883576
13.875754
13.8753
13.874339
13.873534
13.881442
13.876058
13.875885
13.866555
13.862825
13.87529
13.869483
13.868684
13.867551
13.866984
13.876058
13.873235
13.854511
13.8708
13.861907
13.868459
13.866003
13.865301
13.864311
13.864912
13.875885
13.854511
13.866902
11.091429
11.07904
11.098571
11.089024
11.089076
11.089275
11.089243
11.091024
11.088046
11.091855
11.07904
11.091219
11.096289
11.089094
11.089406
11.08928
11.08949
11.094492
11.084426
11.083479
11.098571
11.096289
11.104801
11.098001
11.098177
11.09776
11.097801
11.10498
11.096435
11.089742
11.089024
11.089094
11.098001
11.091208
11.091306
11.090671
11.090302
11.097809
11.091129
11.087481
11.089076
11.089406
11.098177
11.091306
11.091358
11.09063
11.090004
11.097173
11.090227
11.086747
11.089275
11.08928
11.09776
11.090671
11.09063
11.089858
11.089153
11.096195
11.089108
11.085818
11.089243
11.08949
11.097801
11.090302
11.090004
11.089153
11.088431
11.095528
11.088691
11.086538
11.091024
11.094492
11.10498
11.097809
11.097173
11.096195
11.095528
11.103015
11.097311
11.096766
11.088046
11.084426
11.096435
11.091129
11.090227
11.089108
11.088691
11.097311
11.093862
11.075591
11.091855
11.083479
11.089742
11.087481
11.086747
11.085818
11.086538
11.096766
11.075591
11.088088
8.2979755
8.2862979
8.3049711
8.2964381
8.2961759
8.2962425
8.2962061
8.2978738
8.2948147
8.2981811
8.2862979
8.2979528
8.3033808
8.2966562
8.2966162
8.2964092
8.296638
8.3012516
8.2912823
8.290339
8.3049711
8.3033808
8.311653
8.3053222
8.305189
8.3047393
8.3048526
8.3114823
8.3027751
8.2962876
8.2964381
8.2966562
8.3053222
8.2990184
8.2988271
8.2981946
8.2979693
8.3049524
8.297963
8.2942184
8.2961759
8.2966162
8.305189
8.2988271
8.2986011
8.2978903
8.297448
8.3041622
8.2969892
8.2934802
8.2962425
8.2964092
8.3047393
8.2981946
8.2978903
8.2971418
8.2966289
8.3032341
8.2959468
8.2926528
8.2962061
8.296638
8.3048526
8.2979693
8.297448
8.2966289
8.2960997
8.3027577
8.2957125
8.2934836
8.2978738
8.3012516
8.3114823
8.3049524
8.3041622
8.3032341
8.3027577
8.3097872
8.3038073
8.3029164
8.2948147
8.2912823
8.3027751
8.297963
8.2969892
8.2959468
8.2957125
8.3038073
8.2997914
8.2821261
8.2981811
8.290339
8.2962876
8.2942184
8.2934802
8.2926528
8.2934836
8.3029164
8.2821261
8.2946111
5.6635794
5.6525372
5.6703298
5.6627405
5.6621758
5.6621417
5.6621346
5.6637028
5.6606088
5.6635512
5.6525372
5.6635989
5.6692852
5.6629931
5.6626282
5.6623874
5.6626824
5.666917
5.6571361
5.6562442
5.6703298
5.6692852
5.6772668
5.6713718
5.6709555
5.6705236
5.6707613
5.6768478
5.668075
5.6618651
5.6627405
5.6629931
5.6713718
5.6655228
5.6650674
5.6644884
5.6644629
5.6709325
5.6637336
5.6599786
5.6621758
5.6626282
5.6709555
5.6650674
5.6645875
5.663945
5.6637429
5.6700143
5.6627145
5.659258
5.6621417
5.6623874
5.6705236
5.6644884
5.663945
5.6632704
5.6630069
5.6691871
5.661798
5.6585656
5.6621346
5.6626824
5.6707613
5.6644629
5.6637429
5.6630069
5.6627271
5.6689542
5.6617878
5.6595116
5.6637028
5.666917
5.6768478
5.6709325
5.6700143
5.6691871
5.6689542
5.6755198
5.6693194
5.6681105
5.6606088
5.6571361
5.668075
5.6637336
5.6627145
5.661798
5.6617878
5.6693194
5.6647923
5.6478704
5.6635512
5.6562442
5.6618651
5.6599786
5.659258
5.6585656
5.6595116
5.6681105
5.6478704
5.6602453
3.2866791
3.2761933
3.2931058
3.286375
3.2855299
3.2854244
3.2854758
3.2869614
3.2838742
3.2864286
3.2761933
3.2866152
3.2924677
3.2865686
3.2859122
3.2856762
3.2860781
3.2899533
3.2804363
3.279644
3.2931058
3.2924677
3.3001254
3.2946289
3.29396
3.2935841
3.2939897
3.2995547
3.2908028
3.2849338
3.286375
3.2865686
3.2946289
3.2891954
3.2885046
3.2880162
3.2882344
3.2942139
3.2868989
3.2832163
3.2855299
3.2859122
3.29396
3.2885046
3.2877978
3.2872592
3.2873403
3.293191
3.285855
3.2825284
3.2854244
3.2856762
3.2935841
3.2880162
3.2872592
3.2866936
3.2867224
3.2924993
3.2850977
3.281994
3.2854758
3.2860781
3.2939897
3.2882344
3.2873403
3.2867224
3.2867354
3.2925522
3.2853473
3.2830662
3.2869614
3.2899533
3.2995547
3.2942139
3.293191
3.2924993
3.2925522
3.2986662
3.2923073
3.2908091
3.2838742
3.2804363
3.2908028
3.2868989
3.285855
3.2850977
3.2853473
3.2923073
3.287321
3.2712544
3.2864286
3.279644
3.2849338
3.2832163
3.2825284
3.281994
3.2830662
3.2908091
3.2712544
3.283441
1.2148114
1.2048108
1.2208588
1.2148936
1.2137978
1.2136456
1.2137763
1.2151957
1.2121504
1.214361
1.2048108
1.2145684
1.2205034
1.2149584
1.2140479
1.213845
1.214383
1.2179244
1.2087281
1.2080752
1.2208588
1.2205034
1.227817
1.2226805
1.2217923
1.2214977
1.2221009
1.2271761
1.2185188
1.2130384
1.2148936
1.2149584
1.2226805
1.2176216
1.2167263
1.2163512
1.2168406
1.2223612
1.2150129
1.2114737
1.2137978
1.2140479
1.2217923
1.2167263
1.2158216
1.2154082
1.2157974
1.2212547
1.2139602
1.210828
1.2136456
1.213845
1.2214977
1.2163512
1.2154082
1.2149717
1.2153174
1.2207179
1.2133802
1.2104634
1.2137763
1.214383
1.2221009
1.2168406
1.2157974
1.2153174
1.2156484
1.2210822
1.2139132
1.2116724
1.2151957
1.2179244
1.2271761
1.2223612
1.2212547
1.2207179
1.2210822
1.2267694
1.2203151
1.2185572
1.2121504
1.2087281
1.2185188
1.2150129
1.2139602
1.2133802
1.2139132
1.2203151
1.2149215
1.1997892
1.214361
1.2080752
1.2130384
1.2114737
1.210828
1.2104634
1.2116724
1.2185572
1.1997892
1.2117269
-0.5378731
-0.54744656
-0.53223953
-0.53753376
-0.5388453
-0.53902455
-0.53880204
-0.53743503
-0.54041108
-0.5384973
-0.54744656
-0.5383597
-0.53241762
-0.53764452
-0.53876916
-0.5389205
-0.53822973
-0.53499299
-0.54382927
-0.54431496
-0.53223953
-0.53241762
-0.52545868
-0.53027224
-0.53134467
-0.53154383
-0.53072827
-0.52610513
-0.5346066
-0.53966886
-0.53753376
-0.53764452
-0.53027224
-0.53499624
-0.5360637
-0.53631476
-0.53554407
-0.53044678
-0.537757
-0.54109761
-0.5388453
-0.53876916
-0.53134467
-0.5360637
-0.53713557
-0.53741518
-0.53671085
-0.53161698
-0.53880625
-0.5416962
-0.53902455
-0.5389205
-0.53154383
-0.53631476
-0.53741518
-0.53771456
-0.53704575
-0.53199258
-0.53920371
-0.54188885
-0.53880204
-0.53822973
-0.53072827
-0.53554407
-0.53671085
-0.53704575
-0.53638974
-0.53130847
-0.53837796
-0.54053711
-0.53743503
-0.53499299
-0.52610513
-0.53044678
-0.53161698
-0.53199258
-0.53130847
-0.5260167
-0.53250522
-0.53449177
-0.54041108
-0.54382927
-0.5346066
-0.537757
-0.53880625
-0.53920371
-0.53837796
-0.53250522
-0.53825155
-0.55240476
-0.5384973
-0.54431496
-0.53966886
-0.54109761
-0.5416962
-0.54188885
-0.54053711
-0.53449177
-0.55240476
-0.54076159
-1.9782518
-1.9874416
-1.9730492
-1.9777638
-1.9792531
-1.9794442
-1.9791252
-1.9777995
-1.9806857
-1.9790225
-1.9874416
-1.9790182
-1.9731359
-1.9780762
-1.9793742
-1.9794636
-1.978615
-1.9756523
-1.9841039
-1.984407
-1.9730492
-1.9731359
-1.966536
-1.9710601
-1.9722813
-1.9723799
-1.9713509
-1.9671383
-1.9754344
-1.9800653
-1.9777638
-1.9780762
-1.9710601
-1.9754855
-1.9766921
-1.976818
-1.9757713
-1.9710598
-1.9782714
-1.9813744
-1.9792531
-1.9793742
-1.9722813
-1.9766921
-1.9778998
-1.9780462
-1.977036
-1.9722749
-1.9793073
-1.981924
-1.9794442
-1.9794636
-1.9723799
-1.976818
-1.9780462
-1.97821
-1.9772279
-1.9724926
-1.9795272
-1.9819509
-1.9791252
-1.978615
-1.9713509
-1.9757713
-1.977036
-1.9772279
-1.9762563
-1.9714964
-1.9784137
-1.9804568
-1.9777995
-1.9756523
-1.9671383
-1.9710598
-1.9722749
-1.9724926
-1.9714964
-1.9665655
-1.9730314
-1.9752132
-1.9806857
-1.9841039
-1.9754344
-1.9782714
-1.9793073
-1.9795272
-1.9784137
-1.9730314
-1.9790718
-1.9922326
-1.9790225
-1.984407
-1.9800653
-1.9813744
-1.981924
-1.9819509
-1.9804568
-1.9752132
-1.9922326
-1.9809174
-3.125679
-3.1345139
-3.1209109
-3.1251304
-3.1267581
-3.1269494
-3.1265355
-3.1252428
-3.1280242
-3.1265687
-3.1345139
-3.1267376
-3.1209736
-3.1256533
-3.1270843
-3.1271076
-3.1261058
-3.1233865
-3.1314398
-3.1315559
-3.1209109
-3.1209736
-3.114733
-3.1189964
-3.1203312
-3.120331
-3.1190989
-3.115254
-3.1233047
-3.1275046
-3.1251304
-3.1256533
-3.1189964
-3.1231545
-3.1244676
-3.1244739
-3.1231693
-3.1188057
-3.1258679
-3.1287088
-3.1267581
-3.1270843
-3.1203312
-3.1244676
-3.1257794
-3.1258
-3.1245061
-3.1200479
-3.1268821
-3.1292096
-3.1269494
-3.1271076
-3.120331
-3.1244739
-3.1258
-3.1258362
-3.124564
-3.120118
-3.1269368
-3.1290832
-3.1265355
-3.1261058
-3.1190989
-3.1231693
-3.1245061
-3.124564
-3.1232992
-3.1188307
-3.125553
-3.1274539
-3.1252428
-3.1233865
-3.115254
-3.1188057
-3.1200479
-3.120118
-3.1188307
-3.1142257
-3.1206172
-3.1229585
-3.1280242
-3.1314398
-3.1233047
-3.1258679
-3.1268821
-3.1269368
-3.125553
-3.1206172
-3.1268889
-3.1390703
-3.1265687
-3.1315559
-3.1275046
-3.1287088
-3.1292096
-3.1290832
-3.1274539
-3.1229585
-3.1390703
-3.1281071
-4.0061929
-4.0146878
-4.0018527
-4.0056521
-4.0073789
-4.007562
-4.0070597
-4.0057943
-4.0084604
-4.0071741
-4.0146878
-4.0075365
-4.0019417
-4.0063806
-4.0079056
-4.0078636
-4.0067208
-4.0042154
-4.0118647
-4.0117986
-4.0018527
-4.0019417
-3.9960586
-4.0000843
-4.0014987
-4.0014061
-3.9999904
-3.9964712
-4.0042441
-4.0080237
-4.0056521
-4.0063806
-4.0000843
-4.0040008
-4.0053884
-4.0052855
-4.0037506
-3.9996989
-4.0065691
-4.0091356
-4.0073789
-4.0079056
-4.0014987
-4.0053884
-4.0067735
-4.0066802
-4.0051344
-4.0009508
-4.0075544
-4.009589
-4.007562
-4.0078636
-4.0014061
-4.0052855
-4.0066802
-4.0066011
-4.0050714
-4.0008882
-4.0074606
-4.0093258
-4.0070597
-4.0067208
-3.9999904
-4.0037506
-4.0051344
-4.0050714
-4.0035461
-3.9993409
-4.005834
-4.0075749
-4.0057943
-4.0042154
-3.9964712
-3.9996989
-4.0009508
-4.0008882
-3.9993409
-3.9950286
-4.0012994
-4.0037628
-4.0084604
-4.0118647
-4.0042441
-4.0065691
-4.0075544
-4.0074606
-4.005834
-4.0012994
-4.007736
-4.0189713
-4.0071741
-4.0117986
-4.0080237
-4.0091356
-4.009589
-4.0093258
-4.0075749
-4.0037628
-4.0189713
-4.0083775
-4.6486862
-4.6568438
-4.6447602
-4.6482039
-4.6499918
-4.6501608
-4.6495799
-4.6483386
-4.650882
-4.6497316
-4.6568438
-4.6502929
-4.6449108
-4.6491227
-4.650705
-4.6506014
-4.6493357
-4.6470167
-4.6542616
-4.654025
-4.6447602
-4.6449108
-4.6393824
-4.6431877
-4.6446496
-4.6444742
-4.6429005
-4.6396676
-4.6471362
-4.6505136
-4.6482039
-4.6491227
-4.6431877
-4.6468822
-4.648314
-4.6481151
-4.6463844
-4.6426112
-4.6492536
-4.6515435
-4.6499918
-4.650705
-4.6446496
-4.648314
-4.6497428
-4.64955
-4.6477908
-4.6438565
-4.6502034
-4.6519515
-4.6501608
-4.6506014
-4.6444742
-4.6481151
-4.64955
-4.6493704
-4.6476225
-4.6436784
-4.649981
-4.6515705
-4.6495799
-4.6493357
-4.6429005
-4.6463844
-4.6477908
-4.6476225
-4.6458758
-4.6419094
-4.6481463
-4.6497167
-4.6483386
-4.6470167
-4.6396676
-4.6426112
-4.6438565
-4.6436784
-4.6419094
-4.63786
-4.643969
-4.646516
-4.650882
-4.6542616
-4.6471362
-4.6492536
-4.6502034
-4.649981
-4.6481463
-4.643969
-4.6505022
-4.6608384
-4.6497316
-4.654025
-4.6505136
-4.6515435
-4.6519515
-4.6515705
-4.6497167
-4.646516
-4.6608384
-4.6506271
-5.0824512
-5.0902638
-5.0789213
-5.0820623
-5.0838757
-5.0840265
-5.0833791
-5.0821606
-5.0845763
-5.0835345
-5.0902638
-5.0842879
-5.0791555
-5.0831484
-5.084754
-5.084595
-5.0832281
-5.0810713
-5.0879139
-5.0875239
-5.0789213
-5.0791555
-5.0739791
-5.0775755
-5.0790553
-5.0788084
-5.0771067
-5.0741244
-5.0812668
-5.0842646
-5.0820623
-5.0831484
-5.0775755
-5.0810619
-5.0825096
-5.0822294
-5.0803412
-5.0768172
-5.0832019
-5.0852203
-5.0838757
-5.084754
-5.0790553
-5.0825096
-5.0839544
-5.0836778
-5.0817475
-5.0780407
-5.0841103
-5.0855853
-5.0840265
-5.084595
-5.0788084
-5.0822294
-5.0836778
-5.0834138
-5.0814907
-5.0777656
-5.0837802
-5.0851069
-5.0833791
-5.0832281
-5.0771067
-5.0803412
-5.0817475
-5.0814907
-5.0795658
-5.0758173
-5.0817765
-5.0831726
-5.0821606
-5.0810713
-5.0741244
-5.0768172
-5.0780407
-5.0777656
-5.0758173
-5.0720052
-5.0779164
-5.0805087
-5.0845763
-5.0879139
-5.0812668
-5.0832019
-5.0841103
-5.0837802
-5.0817765
-5.0779164
-5.0844775
-5.0939698
-5.0835345
-5.0875239
-5.0842646
-5.0852203
-5.0855853
-5.0851069
-5.0831726
-5.0805087
-5.0939698
-5.0841515
-5.3356712
-5.3431226
-5.3325165
-5.3353971
-5.3372031
-5.3373331
-5.3366328
-5.3354377
-5.3377222
-5.3367671
-5.3431226
-5.3376974
-5.3328453
-5.3366223
-5.3382205
-5.3380135
-5.3365694
-5.334554
-5.3409978
-5.3404748
-5.3325165
-5.3328453
-5.3280187
-5.3314129
-5.3328834
-5.3325774
-5.3307798
-5.3280171
-5.3348149
-5.3374584
-5.3353971
-5.3366223
-5.3314129
-5.3346993
-5.3361372
-5.335791
-5.3337855
-5.330486
-5.3365877
-5.3383455
-5.3372031
-5.3382205
-5.3328834
-5.3361372
-5.3375726
-5.3372282
-5.3351705
-5.3316735
-5.3374492
-5.3386696
-5.3373331
-5.3380135
-5.3325774
-5.335791
-5.3372282
-5.336896
-5.334842
-5.3313201
-5.3370323
-5.3381142
-5.3366328
-5.3365694
-5.3307798
-5.3337855
-5.3351705
-5.334842
-5.3327835
-5.3292367
-5.3349014
-5.3361244
-5.3354377
-5.334554
-5.3280171
-5.330486
-5.3316735
-5.3313201
-5.3292367
-5.3256412
-5.3313234
-5.3339238
-5.3377222
-5.3409978
-5.3348149
-5.3365877
-5.3374492
-5.3370323
-5.3349014
-5.3313234
-5.3378449
-5.3465515
-5.3367671
-5.3404748
-5.3374584
-5.3383455
-5.3386696
-5.3381142
-5.3361244
-5.3339238
-5.3465515
-5.3371365
-5.4345535
-5.4416209
-5.4317518
-5.4344043
-5.436173
-5.4362808
-5.4355418
-5.4343721
-5.436523
-5.4356384
-5.4416209
-5.4367236
-5.4321775
-5.435737
-5.4373005
-5.4370537
-5.4355573
-5.4336664
-5.4397149
-5.4390813
-5.4317518
-5.4321775
-5.4276993
-5.4308931
-5.4323301
-5.4319775
-5.4301168
-5.427548
-5.4339855
-5.4363006
-5.4344043
-5.435737
-5.4308931
-5.4339831
-5.435388
-5.4349907
-5.4329083
-5.4298135
-5.4356111
-5.4371227
-5.436173
-5.4373005
-5.4323301
-5.435388
-5.436791
-5.4363945
-5.4342527
-5.4309522
-5.4364206
-5.4374081
-5.4362808
-5.4370537
-5.4319775
-5.4349907
-5.4363945
-5.4360096
-5.4338689
-5.4305382
-5.4359372
-5.4367956
-5.4355418
-5.4355573
-5.4301168
-5.4329083
-5.4342527
-5.4338689
-5.4317213
-5.4283641
-5.433721
-5.4347764
-5.4343721
-5.4336664
-5.427548
-5.4298135
-5.4309522
-5.4305382
-5.4283641
-5.4249696
-5.4303958
-5.4329695
-5.436523
-5.4397149
-5.4339855
-5.4356111
-5.4364206
-5.4359372
-5.433721
-5.4303958
-5.4368132
-5.4447916
-5.4356384
-5.4390813
-5.4363006
-5.4371227
-5.4374081
-5.4367956
-5.4347764
-5.4329695
-5.4447916
-5.4357904
-5.4028894
-5.4095454
-5.4004183
-5.4028659
-5.4045708
-5.4046559
-5.4038921
-5.4027514
-5.4047671
-5.4039415
-5.4095454
-5.4051552
-5.400936
-5.4042728
-5.4057776
-5.4054993
-5.4039755
-5.4021962
-5.4078523
-5.4071316
-5.4004183
-5.400936
-5.3968057
-5.3997971
-5.4011793
-5.4007922
-5.3989007
-5.3965056
-5.4025689
-5.4045815
-5.4028659
-5.4042728
-5.3997971
-5.4026903
-5.4040416
-5.4036075
-5.4014871
-5.3985824
-5.404058
-5.4053403
-5.4045708
-5.4057776
-5.4011793
-5.4040416
-5.4053917
-5.4049578
-5.4027739
-5.3996607
-5.4048108
-5.4055889
-5.4046559
-5.4054993
-5.4007922
-5.4036075
-5.4049578
-5.404535
-5.40235
-5.3992029
-5.4042797
-5.4049378
-5.4038921
-5.4039755
-5.3989007
-5.4014871
-5.4027739
-5.40235
-5.4001558
-5.3969808
-5.4020193
-5.4029158
-5.4027514
-5.4021962
-5.3965056
-5.3985824
-5.3996607
-5.3992029
-5.3969808
-5.3937766
-5.3989238
-5.4014388
-5.4047671
-5.4078523
-5.4025689
-5.404058
-5.4048108
-5.4042797
-5.4020193
-5.3989238
-5.4051764
-5.4124806
-5.4039415
-5.4071316
-5.4045815
-5.4053403
-5.4055889
-5.4049378
-5.4029158
-5.4014388
-5.4124806
-5.4039052
-5.2618928
-5.2681071
-5.2597306
-5.2619885
-5.2636066
-5.2636691
-5.2628941
-5.2617867
-5.2636661
-5.2628924
-5.2681071
-5.2642054
-5.2603299
-5.2634362
-5.2648614
-5.2645598
-5.2630326
-5.2613557
-5.2666213
-5.2658372
-5.2597306
-5.2603299
-5.2565476
-5.2593318
-5.2606406
-5.2602303
-5.258339
-5.2561025
-5.2617795
-5.2635144
-5.2619885
-5.2634362
-5.2593318
-5.2620243
-5.2633042
-5.2628464
-5.260725
-5.2580004
-5.263139
-5.2642104
-5.2636066
-5.2648614
-5.2606406
-5.2633042
-5.2645837
-5.2641257
-5.2619388
-5.2590079
-5.2638307
-5.2644236
-5.2636691
-5.2645598
-5.2602303
-5.2628464
-5.2641257
-5.2636784
-5.2614888
-5.2585216
-5.2632691
-5.2637511
-5.2628941
-5.2630326
-5.258339
-5.260725