/*--------------------------------*- C++ -*----------------------------------*\
| =========                 |                                                 |
| \\      /  F ield         | OpenFOAM: The Open Source CFD Toolbox           |
|  \\    /   O peration     | Version:  v2106                                 |
|   \\  /    A nd           | Website:  www.openfoam.com                      |
|    \\/     M anipulation  |                                                 |
\*---------------------------------------------------------------------------*/
FoamFile
{
    version     2.0;
    format      ascii;
    arch        "LSB;label=32;scalar=64";
    class       volScalarField;
    location    "100";
    object      Tmode_lapla6;
}
// * * * * * * * * * * * * * * * * * * * * * * * * * * * * * * * * * * * * * //

dimensions      [0 -2 0 0 0 0 0];

internalField   nonuniform List<scalar> 
4000
(
801.47821
801.47648
801.477
801.47337
801.46862
801.46904
801.47138
801.47395
801.47512
801.47439
801.47648
801.47673
801.47849
801.47174
801.4676
801.46829
801.471
801.47398
801.47493
801.47432
801.477
801.47849
801.47572
801.4696
801.46576
801.46678
801.47009
801.4739
801.47556
801.47484
801.47337
801.47174
801.4696
801.46377
801.46012
801.4614
801.46523
801.47001
801.47247
801.47202
801.46862
801.4676
801.46576
801.46012
801.45659
801.45795
801.46194
801.46716
801.47036
801.47053
801.46904
801.46829
801.46678
801.4614
801.45795
801.45935
801.46333
801.46854
801.47178
801.47199
801.47138
801.471
801.47009
801.46523
801.46194
801.46333
801.46731
801.47246
801.47563
801.4758
801.47395
801.47398
801.4739
801.47001
801.46716
801.46854
801.47246
801.47748
801.48049
801.48057
801.47512
801.47493
801.47556
801.47247
801.47036
801.47178
801.47563
801.48049
801.48321
801.48309
801.47439
801.47432
801.47484
801.47202
801.47053
801.47199
801.4758
801.48057
801.48309
801.48261
-863.19896
-863.28521
-863.29556
-863.25635
-863.26173
-863.26375
-863.2654
-863.26655
-863.26765
-863.27658
-863.28521
-863.34823
-863.32839
-863.30406
-863.309
-863.31081
-863.31287
-863.31404
-863.30829
-863.295
-863.29556
-863.32839
-863.31966
-863.29521
-863.30007
-863.30195
-863.30494
-863.31053
-863.30769
-863.29418
-863.25635
-863.30406
-863.29521
-863.27076
-863.27558
-863.27718
-863.27961
-863.28678
-863.2907
-863.28558
-863.26173
-863.309
-863.30007
-863.27558
-863.28046
-863.282
-863.28379
-863.28933
-863.29157
-863.28523
-863.26375
-863.31081
-863.30195
-863.27718
-863.282
-863.28364
-863.28548
-863.29089
-863.29284
-863.2861
-863.2654
-863.31287
-863.30494
-863.27961
-863.28379
-863.28548
-863.28732
-863.29273
-863.29464
-863.28786
-863.26655
-863.31404
-863.31053
-863.28678
-863.28933
-863.29089
-863.29273
-863.29806
-863.29981
-863.29298
-863.26765
-863.30829
-863.30769
-863.2907
-863.29157
-863.29284
-863.29464
-863.29981
-863.30136
-863.29476
-863.27658
-863.295
-863.29418
-863.28558
-863.28523
-863.2861
-863.28786
-863.29298
-863.29476
-863.28976
-32.32373
-32.38251
-32.382566
-32.342484
-32.34884
-32.351739
-32.354172
-32.355503
-32.352612
-32.347236
-32.38251
-32.434803
-32.402578
-32.378266
-32.384356
-32.386985
-32.390675
-32.397802
-32.391513
-32.359344
-32.382566
-32.402578
-32.384556
-32.360398
-32.366292
-32.368488
-32.371918
-32.385764
-32.386568
-32.355357
-32.342484
-32.378266
-32.360398
-32.336278
-32.342181
-32.343992
-32.345879
-32.360367
-32.368069
-32.346244
-32.34884
-32.384356
-32.366292
-32.342181
-32.348201
-32.35001
-32.351147
-32.363707
-32.369454
-32.346213
-32.351739
-32.386985
-32.368488
-32.343992
-32.35001
-32.351917
-32.353091
-32.365459
-32.370829
-32.346919
-32.354172
-32.390675
-32.371918
-32.345879
-32.351147
-32.353091
-32.354307
-32.366676
-32.371998
-32.348167
-32.355503
-32.397802
-32.385764
-32.360367
-32.363707
-32.365459
-32.366676
-32.378897
-32.383824
-32.361289
-32.352612
-32.391513
-32.386568
-32.368069
-32.369454
-32.370829
-32.371998
-32.383824
-32.388289
-32.363872
-32.347236
-32.359344
-32.355357
-32.346244
-32.346213
-32.346919
-32.348167
-32.361289
-32.363872
-32.3383
160.63263
160.55567
160.57275
160.61412
160.60645
160.60259
160.5986
160.59234
160.58967
160.59687
160.55567
160.50662
160.5526
160.577
160.56935
160.56645
160.56305
160.54938
160.54701
160.58708
160.57275
160.5526
160.5818
160.6058
160.5983
160.59589
160.59369
160.5725
160.55971
160.59565
160.61412
160.577
160.6058
160.62981
160.62231
160.62023
160.62007
160.59871
160.57887
160.60453
160.60645
160.56935
160.5983
160.62231
160.61475
160.61272
160.61351
160.59436
160.57675
160.60407
160.60259
160.56645
160.59589
160.62023
160.61272
160.61061
160.6114
160.59254
160.57544
160.60389
160.5986
160.56305
160.59369
160.62007
160.61351
160.6114
160.61211
160.59323
160.57622
160.60434
160.59234
160.54938
160.5725
160.59871
160.59436
160.59254
160.59323
160.57456
160.55813
160.58166
160.58967
160.54701
160.55971
160.57887
160.57675
160.57544
160.57622
160.55813
160.54215
160.57592
160.59687
160.58708
160.59565
160.60453
160.60407
160.60389
160.60434
160.58166
160.57592
160.61779
157.16013
157.07365
157.10948
157.14756
157.13859
157.13462
157.13139
157.12357
157.11613
157.12327
157.07365
157.03436
157.09084
157.11182
157.10227
157.09884
157.09655
157.08047
157.07169
157.11516
157.10948
157.09084
157.13026
157.1509
157.14157
157.13855
157.13767
157.11348
157.09183
157.12748
157.14756
157.11182
157.1509
157.17176
157.1626
157.16011
157.16174
157.13786
157.10945
157.13485
157.13859
157.10227
157.14157
157.1626
157.15351
157.15116
157.15395
157.13251
157.10661
157.1339
157.13462
157.09884
157.13855
157.16011
157.15116
157.14874
157.1516
157.13052
157.10528
157.13428
157.13139
157.09655
157.13767
157.16174
157.15395
157.1516
157.15434
157.13316
157.10796
157.13671
157.12357
157.08047
157.11348
157.13786
157.13251
157.13052
157.13316
157.11185
157.08647
157.10617
157.11613
157.07169
157.09183
157.10945
157.10661
157.10528
157.10796
157.08647
157.05828
157.09517
157.12327
157.11516
157.12748
157.13485
157.1339
157.13428
157.13671
157.10617
157.09517
157.14595
93.149492
93.06123
93.116309
93.146678
93.136359
93.13199
93.129307
93.121297
93.111484
93.119906
93.06123
93.044495
93.105819
93.120292
93.109252
93.104999
93.102232
93.083061
93.067801
93.111538
93.116309
93.105819
93.152118
93.166551
93.156157
93.152928
93.152362
93.125425
93.09585
93.127595
93.146678
93.120292
93.166551
93.18125
93.171146
93.168685
93.171048
93.145
93.10962
93.132492
93.136359
93.109252
93.156157
93.171146
93.161169
93.158934
93.162646
93.139203
93.106501
93.131389
93.13199
93.104999
93.152928
93.168685
93.158934
93.156699
93.160559
93.137578
93.105655
93.132528
93.129307
93.102232
93.152362
93.171048
93.162646
93.160559
93.164364
93.141375
93.109658
93.136643
93.121297
93.083061
93.125425
93.145
93.139203
93.137578
93.141375
93.118323
93.086034
93.101349
93.111484
93.067801
93.09585
93.10962
93.106501
93.105655
93.109658
93.086034
93.047974
93.085931
93.119906
93.111538
93.127595
93.132492
93.131389
93.132528
93.136643
93.101349
93.085931
93.140335
25.998516
25.903026
25.979034
25.997742
25.986588
25.982201
25.979629
25.970464
25.9571
25.965797
25.903026
25.905124
25.968823
25.974281
25.962944
25.959523
25.957532
25.936067
25.912812
25.953724
25.979034
25.968823
26.021593
26.027339
26.016817
26.014804
26.015679
25.987406
25.949408
25.973865
25.997742
25.974281
26.027339
26.033366
26.023182
26.022098
26.026184
25.999486
25.95738
25.975708
25.986588
25.962944
26.016817
26.023182
26.013175
26.012404
26.017946
25.993897
25.9545
25.974885
25.982201
25.959523
26.014804
26.022098
26.012404
26.011692
26.017421
25.993823
25.955115
25.977183
25.979629
25.957532
26.015679
26.026184
26.017946
26.017421
26.023043
25.999329
25.960687
25.982609
25.970464
25.936067
25.987406
25.999486
25.993897
25.993823
25.999329
25.975411
25.935718
25.94488
25.9571
25.912812
25.949408
25.95738
25.9545
25.955115
25.960687
25.935718
25.888212
25.925319
25.965797
25.953724
25.973865
25.975708
25.974885
25.977183
25.982609
25.94488
25.925319
25.981252
-22.180521
-22.281784
-22.186404
-22.182242
-22.193405
-22.196578
-22.197427
-22.205863
-22.221938
-22.211936
-22.281784
-22.262906
-22.199335
-22.204693
-22.215688
-22.21741
-22.216996
-22.237955
-22.269275
-22.231182
-22.186404
-22.199335
-22.141043
-22.14562
-22.155726
-22.155835
-22.152014
-22.17812
-22.22343
-22.206417
-22.182242
-22.204693
-22.14562
-22.149816
-22.159523
-22.158598
-22.151425
-22.175219
-22.222346
-22.207744
-22.193405
-22.215688
-22.155726
-22.159523
-22.168989
-22.167674
-22.159018
-22.180241
-22.224744
-22.208044
-22.196578
-22.21741
-22.155835
-22.158598
-22.167674
-22.166225
-22.157324
-22.178111
-22.222067
-22.204244
-22.197427
-22.216996
-22.152014
-22.151425
-22.159018
-22.157324
-22.148569
-22.169684
-22.214022
-22.197359
-22.205863
-22.237955
-22.17812
-22.175219
-22.180241
-22.178111
-22.169684
-22.191532
-22.237967
-22.235048
-22.221938
-22.269275
-22.22343
-22.222346
-22.224744
-22.222067
-22.214022
-22.237967
-22.294328
-22.259902
-22.211936
-22.231182
-22.206417
-22.207744
-22.208044
-22.204244
-22.197359
-22.235048
-22.259902
-22.201644
-47.229797
-47.341041
-47.228809
-47.239875
-47.250436
-47.2523
-47.251328
-47.25822
-47.276797
-47.263901
-47.341041
-47.311123
-47.2488
-47.264814
-47.274725
-47.274739
-47.271655
-47.289965
-47.329554
-47.292641
-47.228809
-47.2488
-47.185614
-47.200334
-47.209324
-47.207624
-47.200699
-47.221891
-47.27375
-47.262737
-47.239875
-47.264814
-47.200334
-47.214585
-47.223154
-47.220417
-47.210221
-47.228478
-47.279625
-47.266964
-47.250436
-47.274725
-47.209324
-47.223154
-47.231468
-47.228338
-47.216767
-47.232717
-47.281493
-47.266743
-47.2523
-47.274739
-47.207624
-47.220417
-47.228338
-47.225037
-47.213174
-47.228667
-47.276953
-47.261557
-47.251328
-47.271655
-47.200699
-47.210221
-47.216767
-47.213174
-47.201383
-47.217224
-47.266184
-47.253049
-47.25822
-47.289965
-47.221891
-47.228478
-47.232717
-47.228667
-47.217224
-47.234174
-47.28626
-47.287906
-47.276797
-47.329554
-47.27375
-47.279625
-47.281493
-47.276953
-47.266184
-47.28626
-47.350341
-47.320369
-47.263901
-47.292641
-47.262737
-47.266964
-47.266743
-47.261557
-47.253049
-47.287906
-47.320369
-47.257124
-53.146641
-53.271906
-53.144478
-53.16923
-53.178314
-53.178725
-53.176017
-53.180706
-53.201453
-53.183836
-53.271906
-53.235937
-53.17419
-53.199176
-53.207061
-53.205248
-53.199422
-53.213102
-53.260681
-53.222725
-53.144478
-53.17419
-53.105882
-53.129218
-53.136262
-53.132802
-53.12295
-53.136972
-53.194592
-53.18748
-53.16923
-53.199176
-53.129218
-53.152089
-53.158767
-53.154401
-53.141614
-53.152304
-53.206766
-53.194129
-53.178314
-53.207061
-53.136262
-53.158767
-53.165243
-53.160567
-53.14667
-53.155529
-53.208081
-53.193515
-53.178725
-53.205248
-53.132802
-53.154401
-53.160567
-53.155763
-53.141617
-53.15008
-53.202235
-53.187401
-53.176017
-53.199422
-53.12295
-53.141614
-53.14667
-53.141617
-53.127496
-53.136252
-53.189174
-53.177389
-53.180706
-53.213102
-53.136972
-53.152304
-53.155529
-53.15008
-53.136252
-53.14624
-53.202932
-53.206704
-53.201453
-53.260681
-53.194592
-53.206766
-53.208081
-53.202235
-53.189174
-53.202932
-53.273215
-53.249618
-53.183836
-53.222725
-53.18748
-53.194129
-53.193515
-53.187401
-53.177389
-53.206704
-53.249618
-53.178257
-46.433206
-46.572438
-46.431245
-46.467258
-46.474327
-46.473276
-46.469017
-46.471032
-46.493559
-46.470033
-46.572438
-46.532438
-46.470079
-46.502081
-46.507543
-46.504109
-46.495901
-46.503701
-46.558841
-46.518389
-46.431245
-46.470079
-46.396372
-46.426545
-46.431354
-46.426517
-46.4144
-46.420022
-46.48286
-46.478081
-46.467258
-46.502081
-46.426545
-46.456327
-46.460883
-46.455363
-46.440836
-46.442937
-46.500418
-46.486687
-46.474327
-46.507543
-46.431354
-46.460883
-46.465314
-46.4596
-46.444304
-46.445157
-46.5013
-46.485906
-46.473276
-46.504109
-46.426517
-46.455363
-46.4596
-46.453826
-46.438373
-46.438964
-46.494863
-46.479498
-46.469017
-46.495901
-46.4144
-46.440836
-46.444304
-46.438373
-46.42295
-46.423781
-46.480417
-46.468433
-46.471032
-46.503701
-46.420022
-46.442937
-46.445157
-46.438964
-46.423781
-46.425789
-46.486356
-46.490082
-46.493559
-46.558841
-46.48286
-46.500418
-46.5013
-46.494863
-46.480417
-46.486356
-46.561253
-46.546095
-46.470033
-46.518389
-46.478081
-46.486687
-46.485906
-46.479498
-46.468433
-46.490082
-46.546095
-46.464179
-33.234722
-33.384986
-33.231933
-33.276799
-33.281906
-33.279765
-33.274497
-33.273923
-33.298143
-33.268705
-33.384986
-33.341155
-33.277408
-33.314775
-33.318071
-33.313664
-33.303984
-33.305769
-33.368196
-33.325129
-33.231933
-33.277408
-33.198561
-33.234031
-33.236908
-33.231447
-33.218211
-33.215498
-33.283423
-33.280436
-33.276799
-33.314775
-33.234031
-33.269211
-33.271956
-33.266069
-33.251041
-33.244755
-33.305437
-33.290628
-33.281906
-33.318071
-33.236908
-33.271956
-33.274652
-33.268678
-33.253219
-33.246258
-33.30616
-33.289956
-33.279765
-33.313664
-33.231447
-33.266069
-33.268678
-33.26269
-33.247155
-33.240067
-33.299882
-33.283895
-33.274497
-33.303984
-33.218211
-33.251041
-33.253219
-33.247155
-33.231649
-33.224738
-33.285163
-33.27242
-33.273923
-33.305769
-33.215498
-33.244755
-33.246258
-33.240067
-33.224738
-33.218809
-33.282857
-33.285151
-33.298143
-33.368196
-33.283423
-33.305437
-33.30616
-33.299882
-33.285163
-33.282857
-33.360943
-33.35609
-33.268705
-33.325129
-33.280436
-33.290628
-33.289956
-33.283895
-33.27242
-33.285151
-33.35609
-33.262418
-18.215657
-18.373203
-18.210678
-18.262259
-18.265813
-18.263123
-18.257542
-18.25488
-18.28091
-18.246514
-18.373203
-18.325348
-18.260033
-18.30145
-18.303139
-18.298497
-18.288395
-18.284809
-18.354218
-18.309367
-18.210678
-18.260033
-18.176851
-18.216352
-18.217843
-18.212519
-18.199341
-18.18923
-18.262213
-18.26119
-18.262259
-18.30145
-18.216352
-18.255652
-18.257118
-18.251614
-18.237267
-18.223606
-18.2878
-18.27266
-18.265813
-18.303139
-18.217843
-18.257118
-18.25859
-18.253086
-18.238609
-18.224773
-18.288658
-18.272333
-18.263123
-18.298497
-18.212519
-18.251614
-18.253086
-18.247589
-18.233087
-18.219227
-18.283149
-18.26711
-18.257542
-18.288395
-18.199341
-18.237267
-18.238609
-18.233087
-18.218592
-18.204824
-18.269158
-18.255841
-18.25488
-18.284809
-18.18923
-18.223606
-18.224773
-18.219227
-18.204824
-18.191741
-18.259026
-18.259278
-18.28091
-18.354218
-18.262213
-18.2878
-18.288658
-18.283149
-18.269158
-18.259026
-18.339096
-18.345794
-18.246514
-18.309367
-18.26119
-18.27266
-18.272333
-18.26711
-18.255841
-18.259278
-18.345794
-18.240412
-4.3829607
-4.5443603
-4.3749409
-4.4314021
-4.4338906
-4.4311022
-4.4257682
-4.4215987
-4.4494996
-4.4115055
-4.5443603
-4.4925557
-4.425934
-4.4703406
-4.4709941
-4.466653
-4.4569274
-4.4488955
-4.524691
-4.4791893
-4.3749409
-4.425934
-4.3395435
-4.3820274
-4.3826586
-4.3779749
-4.3656829
-4.3494237
-4.4271992
-4.4284827
-4.4314021
-4.4703406
-4.3820274
-4.4243719
-4.4250601
-4.4204067
-4.4075115
-4.3877552
-4.4555305
-4.4409514
-4.4338906
-4.4709941
-4.3826586
-4.4250601
-4.4257904
-4.4212022
-4.4084295
-4.3889035
-4.4567355
-4.4411027
-4.4311022
-4.466653
-4.3779749
-4.4204067
-4.4212022
-4.4166279
-4.4038629
-4.384389
-4.4523474
-4.4369792
-4.4257682
-4.4569274
-4.3656829
-4.4075115
-4.4084295
-4.4038629
-4.3910736
-4.3715992
-4.4397433
-4.4263414
-4.4215987
-4.4488955
-4.3494237
-4.3877552
-4.3889035
-4.384389
-4.3715992
-4.3524746
-4.4226909
-4.4208213
-4.4494996
-4.524691
-4.4271992
-4.4555305
-4.4567355
-4.4523474
-4.4397433
-4.4226909
-4.5037398
-4.5223671
-4.4115055
-4.4791893
-4.4284827
-4.4409514
-4.4411027
-4.4369792
-4.4263414
-4.4208213
-4.5223671
-4.4062662
6.6613688
6.4988516
6.6726532
6.6128536
6.6109939
6.6136075
6.6183917
6.6236095
6.5939652
6.6342221
6.4988516
6.5541394
6.6215573
6.5750209
6.5749327
6.5787027
6.5876295
6.5992125
6.5179781
6.5631425
6.6726532
6.6215573
6.7099218
6.6653212
6.6651309
6.6689657
6.6799901
6.701173
6.6192274
6.615474
6.6128536
6.5750209
6.6653212
6.620824
6.6205233
6.6241627
6.6353181
6.6599473
6.5889038
6.602268
6.6109939
6.5749327
6.6651309
6.6205233
6.6201601
6.6236889
6.6345216
6.6586136
6.5872534
6.6016097
6.6136075
6.5787027
6.6689657
6.6241627
6.6236889
6.6272028
6.6380031
6.6619845
6.590432
6.6045967
6.6183917
6.5876295
6.6799901
6.6353181
6.6345216
6.6380031
6.6488527
6.672912
6.6013864
6.6144187
6.6236095
6.5992125
6.701173
6.6599473
6.6586136
6.6619845
6.672912
6.69694
6.6242709
6.6280673
6.5939652
6.5179781
6.6192274
6.5889038
6.5872534
6.590432
6.6013864
6.6242709
6.5430767
6.5130125
6.6342221
6.5631425
6.615474
6.602268
6.6016097
6.6045967
6.6144187
6.6280673
6.5130125
6.6382649
14.336863
14.175259
14.351149
14.289269
14.287688
14.290008
14.294163
14.300132
14.269055
14.310477
14.175259
14.233257
14.300853
14.252879
14.252999
14.256134
14.264158
14.278539
14.193067
14.237229
14.351149
14.300853
14.389995
14.34398
14.343922
14.346913
14.356646
14.381688
14.29648
14.290381
14.289269
14.252879
14.34398
14.298055
14.297858
14.300536
14.310036
14.338492
14.26482
14.276675
14.287688
14.252999
14.343922
14.297858
14.297591
14.300129
14.309159
14.336866
14.262712
14.275557
14.290008
14.256134
14.346913
14.300536
14.300129
14.302655
14.311631
14.339181
14.264786
14.277531
14.294163
14.264158
14.356646
14.310036
14.309159
14.311631
14.320671
14.348352
14.274156
14.286561
14.300132
14.278539
14.381688
14.338492
14.336866
14.339181
14.348352
14.376267
14.301792
14.307224
14.269055
14.193067
14.29648
14.26482
14.262712
14.264786
14.274156
14.301792
14.221136
14.180814
14.310477
14.237229
14.290381
14.276675
14.275557
14.277531
14.286561
14.307224
14.180814
14.313392
18.718836
18.559583
18.735548
18.672595
18.671028
18.67303
18.676624
18.683175
18.651088
18.692865
18.559583
18.619342
18.686482
18.637627
18.637697
18.640253
18.647477
18.664053
18.575652
18.618471
18.735548
18.686482
18.775319
18.728456
18.728313
18.730583
18.73922
18.767238
18.679826
18.671753
18.672595
18.637627
18.728456
18.681688
18.681395
18.683277
18.691424
18.72285
18.647381
18.657757
18.671028
18.637697
18.728313
18.681395
18.681035
18.682763
18.690341
18.720889
18.644857
18.656263
18.67303
18.640253
18.730583
18.683277
18.682763
18.68448
18.691989
18.722345
18.646036
18.657436
18.676624
18.647477
18.73922
18.691424
18.690341
18.691989
18.699564
18.730081
18.6541
18.665834
18.683175
18.664053
18.767238
18.72285
18.720889
18.722345
18.730081
18.761035
18.685506
18.692281
18.651088
18.575652
18.679826
18.647381
18.644857
18.646036
18.6541
18.685506
18.605938
18.556966
18.692865
18.618471
18.671753
18.657757
18.656263
18.657436
18.665834
18.692281
18.556966
18.695012
20.248001
20.092087
20.266407
20.203174
20.201434
20.20315
20.206318
20.213366
20.18073
20.222309
20.092087
20.152597
20.218687
20.169406
20.169251
20.171341
20.177967
20.196265
20.106223
20.147606
20.266407
20.218687
20.306288
20.259037
20.258664
20.260383
20.268218
20.298494
20.209964
20.200446
20.203174
20.169406
20.259037
20.211899
20.21138
20.21267
20.219856
20.253556
20.177191
20.186336
20.201434
20.169251
20.258664
20.21138
20.210801
20.211933
20.218493
20.251256
20.174314
20.184564
20.20315
20.171341
20.260383
20.21267
20.211933
20.21306
20.219538
20.252087
20.174845
20.185173
20.206318
20.177967
20.268218
20.219856
20.218493
20.219538
20.22608
20.258801
20.181975
20.193163
20.213366
20.196265
20.298494
20.253556
20.251256
20.252087
20.258801
20.292104
20.216302
20.224171
20.18073
20.106223
20.209964
20.177191
20.174314
20.174845
20.181975
20.216302
20.138261
20.082435
20.222309
20.147606
20.200446
20.186336
20.184564
20.185173
20.193163
20.224171
20.082435
20.224193
19.525057
19.373165
19.54439
19.481507
19.479475
19.480956
19.483854
19.491358
19.458621
19.499647
19.373165
19.433442
19.497954
19.448633
19.448146
19.449899
19.456159
19.475805
19.385309
19.425322
19.54439
19.497954
19.583546
19.536294
19.535605
19.536947
19.544291
19.576243
19.487625
19.477246
19.481507
19.448633
19.536294
19.48918
19.488356
19.489255
19.49587
19.531276
19.454894
19.463171
19.479475
19.448146
19.535605
19.488356
19.487484
19.488229
19.494195
19.528661
19.451736
19.461216
19.480956
19.449899
19.536947
19.489255
19.488229
19.488972
19.494849
19.529089
19.451856
19.461485
19.483854
19.456159
19.544291
19.49587
19.494195
19.494849
19.500784
19.535198
19.458434
19.4693
19.491358
19.475805
19.576243
19.531276
19.528661
19.529089
19.535198
19.570287
19.494966
19.503731
19.458621
19.385309
19.487625
19.454894
19.451736
19.451856
19.458434
19.494966
19.418803
19.357909
19.499647
19.425322
19.477246
19.463171
19.461216
19.461485
19.4693
19.503731
19.357909
19.501795
17.178751
17.031372
17.198289
17.136263
17.133878
17.135181
17.137955
17.145891
17.113457
17.15371
17.031372
17.09052
17.153006
17.103986
17.103114
17.10465
17.110757
17.131452
17.041545
17.080328
17.198289
17.153006
17.235963
17.189044
17.188001
17.189118
17.196249
17.2294
17.141618
17.130952
17.136263
17.103986
17.189044
17.142291
17.14113
17.14181
17.148192
17.184834
17.109234
17.11704
17.133878
17.103114
17.188001
17.14113
17.139931
17.140465
17.146201
17.181941
17.105869
17.114982
17.135181
17.10465
17.189118
17.14181
17.140465
17.141001
17.146646
17.182156
17.105779
17.115102
17.137955
17.110757
17.196249
17.148192
17.146201
17.146646
17.152341
17.188023
17.112144
17.122942
17.145891
17.131452
17.2294
17.184834
17.181941
17.182156
17.188023
17.224433
17.150277
17.159788
17.113457
17.041545
17.141618
17.109234
17.105869
17.105779
17.112144
17.150277
17.076277
17.011972
17.15371
17.080328
17.130952
17.11704
17.114982
17.115102
17.122942
17.159788
17.011972
17.156592
13.789625
13.647146
13.808743
13.747993
13.745239
13.746416
13.749184
13.757529
13.725742
13.765088
13.647146
13.704389
13.764482
13.716072
13.714807
13.716226
13.722352
13.743847
13.655417
13.693125
13.808743
13.764482
13.844303
13.79802
13.796619
13.797635
13.804771
13.838726
13.752578
13.742136
13.747993
13.716072
13.79802
13.751929
13.750429
13.751025
13.757438
13.794917
13.720794
13.728493
13.745239
13.714807
13.796619
13.750429
13.748903
13.749363
13.75515
13.791792
13.717288
13.726399
13.746416
13.716226
13.797635
13.751025
13.749363
13.749829
13.755525
13.791942
13.717147
13.726515
13.749184
13.722352
13.804771
13.757438
13.75515
13.755525
13.761265
13.797849
13.723564
13.734533
13.757529
13.743847
13.838726
13.794917
13.791792
13.791942
13.797849
13.835187
13.762791
13.77293
13.725742
13.655417
13.752578
13.720794
13.717288
13.717147
13.723564
13.762791
13.69119
13.624931
13.765088
13.693125
13.742136
13.728493
13.726399
13.726515
13.734533
13.77293
13.624931
13.769073
9.8524065
9.7151767
9.8706024
9.811483
9.8083806
9.8094747
9.8123207
9.8210436
9.7901885
9.8285354
9.7151767
9.7698733
9.8272734
9.7797679
9.7781302
9.7795094
9.7857755
9.8078531
9.7216357
9.7583997
9.8706024
9.8272734
9.9035682
9.8581987
9.8564652
9.8574695
9.8647607
9.8991821
9.8153375
9.8055387
9.811483
9.7797679
9.8581987
9.8130471
9.8112319
9.8118425
9.8184653
9.8564315
9.7843691
9.7922599
9.8083806
9.7781302
9.8564652
9.8112319
9.8094
9.8098856
9.8159149
9.8531251
9.7807832
9.7901819
9.8094747
9.7795094
9.8574695
9.8118425
9.8098856
9.810378
9.8163188
9.8533149
9.7807016
9.790396
9.8123207
9.7857755
9.8647607
9.8184653
9.8159149
9.8163188
9.8222993
9.8594574
9.7873573
9.7986882
9.8210436
9.8078531
9.8991821
9.8564315
9.8531251
9.8533149
9.8594574
9.8973761
9.8272402
9.8379153
9.7901885
9.7216357
9.8153375
9.7843691
9.7807832
9.7807016
9.7873573
9.8272402
9.7582444
9.69126
9.8285354
9.7583997
9.8055387
9.7922599
9.7901819
9.790396
9.7986882
9.8379153
9.69126
9.8338755
5.7632838
5.6316493
5.78018
5.7230041
5.7195983
5.7206412
5.723618
5.7326741
5.7029752
5.7402459
5.6316493
5.6832873
5.73776
5.6914398
5.6894735
5.6908633
5.6973391
5.7198037
5.636397
5.6722999
5.78018
5.73776
5.810221
5.76603
5.7640053
5.7650574
5.7725893
5.8071788
5.7261866
5.7173523
5.7230041
5.6914398
5.76603
5.7220776
5.719988
5.720676
5.7276113
5.7657492
5.6962219
5.7045213
5.7195983
5.6894735
5.7640053
5.719988
5.717889
5.7184623
5.7248436
5.7623141
5.6926102
5.7024978
5.7206412
5.6908633
5.7650574
5.720676
5.7184623
5.7190433
5.7253398
5.762611
5.6926608
5.7028734
5.723618
5.6973391
5.7725893
5.7276113
5.7248436
5.7253398
5.7316731
5.769102
5.699661
5.7114812
5.7326741
5.7198037
5.8071788
5.7657492
5.7623141
5.762611
5.769102
5.8072856
5.7398184
5.750944
5.7029752
5.636397
5.7261866
5.6962219
5.6926102
5.6926608
5.699661
5.7398184
5.6736069
5.6069054
5.7402459
5.6722999
5.7173523
5.7045213
5.7024978
5.7028734
5.7114812
5.750944
5.6069054
5.7470792
1.8219545
1.6962787
1.8372925
1.7823438
1.7786966
1.7797099
1.7828396
1.792171
1.7638015
1.7999158
1.6962787
1.7444674
1.79583
1.7509684
1.7487303
1.7501606
1.7568689
1.7795363
1.6994208
1.7344878
1.8372925
1.79583
1.8642174
1.8214591
1.8191965
1.8203291
1.828129
1.8626161
1.7849194
1.7772713
1.7823438
1.7509684
1.8214591
1.7789549
1.7766421
1.7774414
1.7847245
1.8227409
1.7561266
1.7649646
1.7786966
1.7487303
1.8191965
1.7766421
1.7743256
1.7750196
1.7817916
1.8192305
1.7525376
1.7630242
1.7797099
1.7501606
1.8203291
1.7774414
1.7750196
1.7757212
1.7824129
1.8196696
1.7527584
1.7635917
1.7828396
1.7568689
1.828129
1.7847245
1.7817916
1.7824129
1.7891396
1.8265512
1.7601414
1.7725087
1.792171
1.7795363
1.8626161
1.8227409
1.8192305
1.8196696
1.8265512
1.8647033
1.8002302
1.8117217
1.7638015
1.6994208
1.7849194
1.7561266
1.7525376
1.7527584
1.7601414
1.8002302
1.7369645
1.6713514
1.7999158
1.7344878
1.7772713
1.7649646
1.7630242
1.7635917
1.7725087
1.8117217
1.6713514
1.8082774
-1.7584516
-1.877781
-1.7448258
-1.7972834
-1.8010995
-1.8001034
-1.7968229
-1.7872867
-1.8141975
-1.7793325
-1.877781
-1.8333266
-1.7852136
-1.8283503
-1.8307953
-1.8293128
-1.8223877
-1.7996956
-1.8761372
-1.8419387
-1.7448258
-1.7852136
-1.7210878
-1.7621674
-1.764608
-1.7633837
-1.7553358
-1.7212034
-1.7952511
-1.8015808
-1.7972834
-1.8283503
-1.7621674
-1.802983
-1.8054614
-1.80454
-1.7969281
-1.7593116
-1.8227178
-1.8132925
-1.8010995
-1.8307953
-1.764608
-1.8054614
-1.8079399
-1.8071152
-1.7999707
-1.7628447
-1.8262407
-1.8151293
-1.8001034
-1.8293128
-1.7633837
-1.80454
-1.8071152
-1.8062841
-1.7992147
-1.7622526
-1.8258378
-1.8143647
-1.7968229
-1.8223877
-1.7553358
-1.7969281
-1.7999707
-1.7992147
-1.7921114
-1.7549961
-1.8180898
-1.8051838
-1.7872867
-1.7996956
-1.7212034
-1.7593116
-1.7628447
-1.7622526
-1.7549961
-1.7171595
-1.7783849
-1.7666176
-1.8141975
-1.8761372
-1.7952511
-1.8227178
-1.8262407
-1.8258378
-1.8180898
-1.7783849
-1.8385582
-1.902451
-1.7793325
-1.8419387
-1.8015808
-1.8132925
-1.8151293
-1.8143647
-1.8051838
-1.7666176
-1.902451
-1.7694928
-4.8380519
-4.9506253
-4.8262047
-4.8759214
-4.8798293
-4.878845
-4.8754347
-4.8657743
-4.8911326
-4.8576263
-4.9506253
-4.9101007
-4.8653413
-4.9064942
-4.9090782
-4.9075454
-4.9004493
-4.8779072
-4.9503709
-4.9171256
-4.8262047
-4.8653413
-4.805625
-4.8447876
-4.847344
-4.8460326
-4.8377928
-4.8042549
-4.8743742
-4.8793306
-4.8759214
-4.9064942
-4.8447876
-4.8836821
-4.8862662
-4.8852289
-4.8773481
-4.8403992
-4.9003714
-4.8903807
-4.8798293
-4.9090782
-4.847344
-4.8862662
-4.8888481
-4.8879
-4.8804436
-4.8439039
-4.9037889
-4.8920993
-4.878845
-4.9075454
-4.8460326
-4.8852289
-4.8879
-4.886947
-4.8795605
-4.8431663
-4.9032113
-4.8911511
-4.8754347
-4.9004493
-4.8377928
-4.8773481
-4.8804436
-4.8795605
-4.8721402
-4.8355939
-4.8951589
-4.8817811
-4.8657743
-4.8779072
-4.8042549
-4.8403992
-4.8439039
-4.8431663
-4.8355939
-4.7983486
-4.8561328
-4.8441892
-4.8911326
-4.9503709
-4.8743742
-4.9003714
-4.9037889
-4.9032113
-4.8951589
-4.8561328
-4.9130804
-4.9747638
-4.8576263
-4.9171256
-4.8793306
-4.8903807
-4.8920993
-4.8911511
-4.8817811
-4.8441892
-4.9747638
-4.8464256
-7.3362071
-7.4416002
-7.3261351
-7.3728724
-7.3767937
-7.3758216
-7.3723159
-7.3626191
-7.3863593
-7.3543376
-7.4416002
-7.4051278
-7.3637966
-7.4027153
-7.4053706
-7.4037995
-7.3965999
-7.3743804
-7.4426246
-7.4104606
-7.3261351
-7.3637966
-7.3086064
-7.3456221
-7.3482323
-7.34685
-7.3385002
-7.3057876
-7.3717587
-7.3753495
-7.3728724
-7.4027153
-7.3456221
-7.3823711
-7.3850011
-7.383866
-7.3758051
-7.3397833
-7.3961512
-7.3856752
-7.3767937
-7.4053706
-7.3482323
-7.3850011
-7.3876278
-7.3865752
-7.3788974
-7.343211
-7.3994279
-7.387265
-7.3758216
-7.4037995
-7.34685
-7.383866
-7.3865752
-7.3855195
-7.3779064
-7.3423473
-7.3986962
-7.3861592
-7.3723159
-7.3965999
-7.3385002
-7.3758051
-7.3788974
-7.3779064
-7.3702594
-7.3345489
-7.3904304
-7.3766961
-7.3626191
-7.3743804
-7.3057876
-7.3397833
-7.343211
-7.3423473
-7.3345489
-7.2981641
-7.3523628
-7.3403523
-7.3863593
-7.4426246
-7.3717587
-7.3961512
-7.3994279
-7.3986962
-7.3904304
-7.3523628
-7.4059641
-7.4650623
-7.3543376
-7.4104606
-7.3753495
-7.3856752
-7.387265
-7.3861592
-7.3766961
-7.3403523
-7.4650623
-7.3419418
-9.2183623
-9.316146
-9.2100085
-9.2535382
-9.2573966
-9.2564408
-9.2528832
-9.2432425
-9.2653206
-9.2349232
-9.316146
-9.2837896
-9.2459371
-9.2823816
-9.2850428
-9.2834525
-9.2762312
-9.2545049
-9.318337
-9.2874152
-9.2100085
-9.2459371
-9.1953644
-9.230013
-9.2326174
-9.2311876
-9.2228265
-9.1911627
-9.2528136
-9.2550952
-9.2535382
-9.2823816
-9.230013
-9.2644015
-9.2670197
-9.2658123
-9.2576787
-9.2228359
-9.2754738
-9.2646374
-9.2573966
-9.2850428
-9.2326174
-9.2670197
-9.2696343
-9.2685034
-9.2607137
-9.2261406
-9.2785771
-9.2660906
-9.2564408
-9.2834525
-9.2311876
-9.2658123
-9.2685034
-9.2673714
-9.2596413
-9.2251781
-9.2777204
-9.2648611
-9.2528832
-9.2762312
-9.2228265
-9.2576787
-9.2607137
-9.2596413
-9.2518771
-9.2172636
-9.269352
-9.2554136
-9.2432425
-9.2545049
-9.1911627
-9.2228359
-9.2261406
-9.2251781
-9.2172636
-9.1820019
-9.2325104
-9.2205517
-9.2653206
-9.318337
-9.2528136
-9.2754738
-9.2785771
-9.2777204
-9.269352
-9.2325104
-9.2826573
-9.3388819
-9.2349232
-9.2874152
-9.2550952
-9.2646374
-9.2660906
-9.2648611
-9.2554136
-9.2205517
-9.3388819
-9.2215315
-10.48449
-10.574241
-10.477758
-10.517863
-10.521586
-10.520654
-10.517093
-10.507603
-10.527991
-10.499368
-10.574241
-10.546019