/*--------------------------------*- C++ -*----------------------------------*\
| =========                 |                                                 |
| \\      /  F ield         | OpenFOAM: The Open Source CFD Toolbox           |
|  \\    /   O peration     | Version:  v2106                                 |
|   \\  /    A nd           | Website:  www.openfoam.com                      |
|    \\/     M anipulation  |                                                 |
\*---------------------------------------------------------------------------*/
FoamFile
{
    version     2.0;
    format      ascii;
    arch        "LSB;label=32;scalar=64";
    class       volScalarField;
    location    "100";
    object      Tmode3;
}
// * * * * * * * * * * * * * * * * * * * * * * * * * * * * * * * * * * * * * //

dimensions      [0 0 0 0 0 0 0];

internalField   nonuniform List<scalar> 
4000
(
0.065729111
0.065729186
0.065729073
0.065729093
0.065729096
0.065729096
0.065729098
0.065729102
0.065729108
0.065729109
0.065729186
0.065729135
0.065729075
0.065729092
0.065729094
0.065729093
0.065729095
0.065729101
0.065729113
0.065729118
0.065729073
0.065729075
0.065729014
0.06572903
0.065729031
0.06572903
0.065729032
0.065729038
0.065729055
0.06572908
0.065729093
0.065729092
0.06572903
0.065729046
0.065729047
0.065729046
0.065729047
0.065729051
0.065729064
0.065729083
0.065729096
0.065729094
0.065729031
0.065729047
0.065729049
0.065729049
0.06572905
0.065729054
0.065729066
0.065729085
0.065729096
0.065729093
0.06572903
0.065729046
0.065729049
0.065729049
0.06572905
0.065729055
0.065729067
0.065729086
0.065729098
0.065729095
0.065729032
0.065729047
0.06572905
0.06572905
0.065729052
0.065729057
0.06572907
0.065729089
0.065729102
0.065729101
0.065729038
0.065729051
0.065729054
0.065729055
0.065729057
0.065729062
0.065729075
0.065729094
0.065729108
0.065729113
0.065729055
0.065729064
0.065729066
0.065729067
0.06572907
0.065729075
0.065729089
0.065729108
0.065729109
0.065729118
0.06572908
0.065729083
0.065729085
0.065729086
0.065729089
0.065729094
0.065729108
0.065729127
0.039736445
0.03973672
0.039736065
0.039736146
0.039736161
0.039736162
0.039736181
0.039736225
0.039736278
0.039736269
0.03973672
0.039736529
0.039736103
0.039736176
0.039736183
0.039736181
0.039736201
0.03973626
0.039736372
0.03973637
0.039736065
0.039736103
0.039735693
0.039735762
0.039735768
0.039735765
0.03973578
0.039735839
0.039736004
0.039736135
0.039736146
0.039736176
0.039735762
0.039735831
0.039735837
0.039735835
0.039735847
0.039735891
0.039736025
0.039736127
0.039736161
0.039736183
0.039735768
0.039735837
0.039735846
0.039735848
0.039735863
0.039735906
0.039736037
0.039736133
0.039736162
0.039736181
0.039735765
0.039735835
0.039735848
0.039735853
0.039735871
0.039735918
0.03973605
0.039736147
0.039736181
0.039736201
0.03973578
0.039735847
0.039735863
0.039735871
0.039735893
0.039735942
0.039736077
0.039736175
0.039736225
0.03973626
0.039735839
0.039735891
0.039735906
0.039735918
0.039735942
0.039735994
0.039736131
0.039736231
0.039736278
0.039736372
0.039736004
0.039736025
0.039736037
0.03973605
0.039736077
0.039736131
0.039736271
0.039736371
0.039736269
0.03973637
0.039736135
0.039736127
0.039736133
0.039736147
0.039736175
0.039736231
0.039736371
0.039736459
0.01994319
0.019943391
0.01994263
0.019942723
0.019942731
0.019942729
0.019942762
0.019942847
0.019942966
0.019942869
0.019943391
0.01994308
0.019942569
0.019942647
0.019942644
0.019942638
0.019942669
0.01994278
0.019943058
0.01994305
0.01994263
0.019942569
0.019942076
0.01994215
0.019942146
0.019942138
0.019942159
0.019942251
0.019942589
0.019942754
0.019942723
0.019942647
0.01994215
0.019942224
0.019942223
0.019942219
0.019942237
0.019942306
0.019942601
0.019942729
0.019942731
0.019942644
0.019942146
0.019942223
0.019942228
0.01994223
0.019942254
0.019942325
0.019942615
0.019942735
0.019942729
0.019942638
0.019942138
0.019942219
0.01994223
0.01994224
0.01994227
0.019942346
0.01994264
0.019942761
0.019942762
0.019942669
0.019942159
0.019942237
0.019942254
0.01994227
0.019942306
0.019942387
0.019942684
0.019942807
0.019942847
0.01994278
0.019942251
0.019942306
0.019942325
0.019942346
0.019942387
0.019942472
0.019942774
0.019942902
0.019942966
0.019943058
0.019942589
0.019942601
0.019942615
0.01994264
0.019942684
0.019942774
0.019943083
0.019943216
0.019942869
0.01994305
0.019942754
0.019942729
0.019942735
0.019942761
0.019942807
0.019942902
0.019943216
0.019943231
0.0055035331
0.0055038031
0.0055030223
0.0055031041
0.0055030976
0.0055030913
0.0055031336
0.005503256
0.0055034889
0.0055034117
0.0055038031
0.0055035289
0.0055029877
0.0055030503
0.0055030324
0.0055030214
0.005503053
0.0055031818
0.0055036116
0.0055036475
0.0055030223
0.0055029877
0.0055024628
0.005502521
0.0055025037
0.0055024937
0.0055025134
0.0055026091
0.0055030999
0.0055033277
0.0055031041
0.0055030503
0.005502521
0.0055025809
0.0055025695
0.0055025666
0.0055025865
0.0055026558
0.0055030993
0.0055032894
0.0055030976
0.0055030324
0.0055025037
0.0055025695
0.0055025666
0.0055025735
0.0055026032
0.0055026765
0.0055031158
0.0055032979
0.0055030913
0.0055030214
0.0055024937
0.0055025666
0.0055025735
0.0055025901
0.0055026287
0.0055027094
0.0055031532
0.0055033364
0.0055031336
0.005503053
0.0055025134
0.0055025865
0.0055026032
0.0055026287
0.0055026746
0.0055027611
0.0055032094
0.0055033946
0.005503256
0.0055031818
0.0055026091
0.0055026558
0.0055026765
0.0055027094
0.0055027611
0.0055028537
0.0055033114
0.0055035106
0.0055034889
0.0055036116
0.0055030999
0.0055030993
0.0055031158
0.0055031532
0.0055032094
0.0055033114
0.005503793
0.0055040258
0.0055034117
0.0055036475
0.0055033277
0.0055032894
0.0055032979
0.0055033364
0.0055033946
0.0055035106
0.0055040258
0.0055039629
-0.0044784293
-0.004478106
-0.0044789077
-0.0044788584
-0.0044788809
-0.0044788882
-0.0044788404
-0.0044787092
-0.0044784193
-0.0044784898
-0.004478106
-0.0044783514
-0.0044789293
-0.0044788996
-0.0044789312
-0.0044789403
-0.0044789049
-0.0044787807
-0.0044782765
-0.0044782293
-0.0044789077
-0.0044789293
-0.0044794913
-0.0044794644
-0.0044794925
-0.0044794964
-0.0044794702
-0.004479385
-0.0044788157
-0.0044785653
-0.0044788584
-0.0044788996
-0.0044794644
-0.0044794337
-0.0044794529
-0.0044794458
-0.004479415
-0.0044793551
-0.0044788312
-0.0044786145
-0.0044788809
-0.0044789312
-0.0044794925
-0.0044794529
-0.0044794608
-0.0044794407
-0.0044793969
-0.0044793306
-0.0044788094
-0.0044785999
-0.0044788882
-0.0044789403
-0.0044794964
-0.0044794458
-0.0044794407
-0.0044794087
-0.0044793539
-0.0044792791
-0.0044787533
-0.0044785439
-0.0044788404
-0.0044789049
-0.0044794702
-0.004479415
-0.0044793969
-0.0044793539
-0.0044792912
-0.0044792108
-0.0044786816
-0.0044784726
-0.0044787092
-0.0044787807
-0.004479385
-0.0044793551
-0.0044793306
-0.0044792791
-0.0044792108
-0.0044791249
-0.0044785839
-0.0044783533
-0.0044784193
-0.0044782765
-0.0044788157
-0.0044788312
-0.0044788094
-0.0044787533
-0.0044786816
-0.0044785839
-0.004477999
-0.004477682
-0.0044784898
-0.0044782293
-0.0044785653
-0.0044786145
-0.0044785999
-0.0044785439
-0.0044784726
-0.0044783533
-0.004477682
-0.0044777998
-0.010843219
-0.010842897
-0.010843735
-0.010843729
-0.010843762
-0.01084376
-0.010843694
-0.010843549
-0.010843224
-0.010843291
-0.010842897
-0.010843157
-0.010843785
-0.010843796
-0.010843834
-0.010843829
-0.010843772
-0.010843637
-0.010843085
-0.010843032
-0.010843735
-0.010843785
-0.010844394
-0.010844405
-0.010844437
-0.010844422
-0.010844369
-0.010844271
-0.010843647
-0.010843382
-0.010843729
-0.010843796
-0.010844405
-0.010844409
-0.010844429
-0.0108444
-0.010844339
-0.010844263
-0.010843677
-0.01084344
-0.010843762
-0.010843834
-0.010844437
-0.010844429
-0.010844436
-0.010844392
-0.010844315
-0.01084423
-0.010843647
-0.010843416
-0.01084376
-0.010843829
-0.010844422
-0.0108444
-0.010844392
-0.010844334
-0.010844245
-0.010844152
-0.010843564
-0.010843335
-0.010843694
-0.010843772
-0.010844369
-0.010844339
-0.010844315
-0.010844245
-0.010844149
-0.010844052
-0.010843464
-0.01084324
-0.010843549
-0.010843637
-0.010844271
-0.010844263
-0.01084423
-0.010844152
-0.010844052
-0.010843952
-0.010843356
-0.01084311
-0.010843224
-0.010843085
-0.010843647
-0.010843677
-0.010843647
-0.010843564
-0.010843464
-0.010843356
-0.010842704
-0.010842328
-0.010843291
-0.010843032
-0.010843382
-0.01084344
-0.010843416
-0.010843335
-0.01084324
-0.01084311
-0.010842328
-0.010842475
-0.014355992
-0.014355709
-0.014356589
-0.014356626
-0.014356661
-0.014356637
-0.014356539
-0.01435636
-0.014355993
-0.014356041
-0.014355709
-0.014356012
-0.014356692
-0.014356739
-0.014356775
-0.014356745
-0.01435665
-0.014356478
-0.014355875
-0.014355799
-0.014356589
-0.014356692
-0.014357348
-0.014357391
-0.014357418
-0.014357375
-0.01435728
-0.014357139
-0.014356454
-0.014356161
-0.014356626
-0.014356739
-0.014357391
-0.014357426
-0.014357439
-0.014357379
-0.014357272
-0.01435715
-0.014356497
-0.014356225
-0.014356661
-0.014356775
-0.014357418
-0.014357439
-0.014357438
-0.014357362
-0.014357238
-0.014357107
-0.014356454
-0.014356188
-0.014356637
-0.014356745
-0.014357375
-0.014357379
-0.014357362
-0.014357272
-0.014357136
-0.014356997
-0.014356342
-0.01435608
-0.014356539
-0.01435665
-0.01435728
-0.014357272
-0.014357238
-0.014357136
-0.014356994
-0.014356853
-0.014356202
-0.01435595
-0.01435636
-0.014356478
-0.014357139
-0.01435715
-0.014357107
-0.014356997
-0.014356853
-0.014356714
-0.014356059
-0.01435579
-0.014355993
-0.014355875
-0.014356454
-0.014356497
-0.014356454
-0.014356342
-0.014356202
-0.014356059
-0.014355349
-0.014354923
-0.014356041
-0.014355799
-0.014356161
-0.014356225
-0.014356188
-0.01435608
-0.01435595
-0.01435579
-0.014354923
-0.014355075
-0.015689128
-0.0156889
-0.015689814
-0.015689883
-0.015689909
-0.015689857
-0.015689718
-0.015689493
-0.015689076
-0.015689088
-0.0156889
-0.015689253
-0.015689973
-0.015690045
-0.01569007
-0.015690009
-0.015689869
-0.015689644
-0.015688982
-0.015688866
-0.015689814
-0.015689973
-0.015690664
-0.015690728
-0.015690742
-0.015690667
-0.015690523
-0.015690323
-0.015689571
-0.015689235
-0.015689883
-0.015690045
-0.015690728
-0.015690782
-0.015690781
-0.015690689
-0.015690532
-0.015690348
-0.015689622
-0.015689302
-0.015689909
-0.01569007
-0.015690742
-0.015690781
-0.015690765
-0.015690657
-0.015690485
-0.015690291
-0.015689567
-0.015689252
-0.015689857
-0.015690009
-0.015690667
-0.015690689
-0.015690657
-0.015690535
-0.015690352
-0.015690152
-0.015689426
-0.015689117
-0.015689718
-0.015689869
-0.015690523
-0.015690532
-0.015690485
-0.015690352
-0.015690163
-0.015689964
-0.015689244
-0.015688949
-0.015689493
-0.015689644
-0.015690323
-0.015690348
-0.015690291
-0.015690152
-0.015689964
-0.015689769
-0.015689051
-0.015688744
-0.015689076
-0.015688982
-0.015689571
-0.015689622
-0.015689567
-0.015689426
-0.015689244
-0.015689051
-0.015688281
-0.01568781
-0.015689088
-0.015688866
-0.015689235
-0.015689302
-0.015689252
-0.015689117
-0.015688949
-0.015688744
-0.01568781
-0.015687946
-0.015414063
-0.015413888
-0.01541482
-0.015414906
-0.015414916
-0.015414834
-0.015414654
-0.015414379
-0.01541391
-0.015413878
-0.015413888
-0.015414281
-0.015415023
-0.015415105
-0.015415112
-0.01541502
-0.015414838
-0.015414557
-0.01541384
-0.015413678
-0.01541482
-0.015415023
-0.01541573
-0.015415802
-0.015415797
-0.015415691
-0.015415504
-0.015415243
-0.01541443
-0.015414048
-0.015414906
-0.015415105
-0.015415802
-0.015415862
-0.015415843
-0.015415721
-0.015415522
-0.015415276
-0.015414484
-0.015414114
-0.015414916
-0.015415112
-0.015415797
-0.015415843
-0.015415809
-0.015415673
-0.01541546
-0.015415206
-0.015414416
-0.015414052
-0.015414834
-0.01541502
-0.015415691
-0.015415721
-0.015415673
-0.015415524
-0.015415302
-0.015415044
-0.015414254
-0.015413896
-0.015414654
-0.015414838
-0.015415504
-0.015415522
-0.01541546
-0.015415302
-0.015415076
-0.015414819
-0.015414037
-0.015413694
-0.015414379
-0.015414557
-0.015415243
-0.015415276
-0.015415206
-0.015415044
-0.015414819
-0.015414569
-0.01541379
-0.01541344
-0.01541391
-0.01541384
-0.01541443
-0.015414484
-0.015414416
-0.015414254
-0.015414037
-0.01541379
-0.015412966
-0.015412453
-0.015413878
-0.015413678
-0.015414048
-0.015414114
-0.015414052
-0.015413896
-0.015413694
-0.01541344
-0.015412453
-0.015412562
-0.014003001
-0.014002865
-0.014003798
-0.014003886
-0.014003876
-0.014003766
-0.014003554
-0.014003238
-0.014002726
-0.014002652
-0.014002865
-0.014003283
-0.014004027
-0.014004107
-0.014004092
-0.014003974
-0.014003759
-0.014003433
-0.014002672
-0.014002467
-0.014003798
-0.014004027
-0.014004732
-0.0140048
-0.014004773
-0.014004643
-0.014004425
-0.014004115
-0.014003255
-0.014002833
-0.014003886
-0.014004107
-0.0140048
-0.014004855
-0.014004816
-0.014004672
-0.014004444
-0.014004149
-0.014003308
-0.014002896
-0.014003876
-0.014004092
-0.014004773
-0.014004816
-0.014004764
-0.014004608
-0.014004369
-0.01400407
-0.014003232
-0.014002826
-0.014003766
-0.014003974
-0.014004643
-0.014004672
-0.014004608
-0.014004442
-0.014004195
-0.014003893
-0.014003056
-0.014002658
-0.014003554
-0.014003759
-0.014004425
-0.014004444
-0.014004369
-0.014004195
-0.014003946
-0.014003646
-0.014002817
-0.014002433
-0.014003238
-0.014003433
-0.014004115
-0.014004149
-0.01400407
-0.014003893
-0.014003646
-0.014003351
-0.014002526
-0.014002135
-0.014002726
-0.014002672
-0.014003255
-0.014003308
-0.014003232
-0.014003056
-0.014002817
-0.014002526
-0.014001657
-0.014001112
-0.014002652
-0.014002467
-0.014002833
-0.014002896
-0.014002826
-0.014002658
-0.014002433
-0.014002135
-0.014001112
-0.014001192
-0.01183731
-0.011837199
-0.011838116
-0.011838196
-0.011838164
-0.011838034
-0.011837801
-0.011837458
-0.011836917
-0.011836811
-0.011837199
-0.011837625
-0.011838355
-0.011838422
-0.011838385
-0.011838249
-0.011838015
-0.01183766
-0.011836873
-0.011836637
-0.011838116
-0.011838355
-0.011839043
-0.011839096
-0.011839049
-0.011838904
-0.011838669
-0.011838329
-0.011837442
-0.011836995
-0.011838196
-0.011838422
-0.011839096
-0.011839138
-0.01183908
-0.011838924
-0.011838684
-0.011838361
-0.011837493
-0.011837053
-0.011838164
-0.011838385
-0.011839049
-0.01183908
-0.011839012
-0.011838846
-0.011838599
-0.011838274
-0.011837411
-0.01183698
-0.011838034
-0.011838249
-0.011838904
-0.011838924
-0.011838846
-0.011838673
-0.01183842
-0.011838094
-0.011837233
-0.011836809
-0.011837801
-0.011838015
-0.011838669
-0.011838684
-0.011838599
-0.01183842
-0.011838165
-0.01183784
-0.011836986
-0.011836574
-0.011837458
-0.01183766
-0.011838329
-0.011838361
-0.011838274
-0.011838094
-0.01183784
-0.01183752
-0.011836667
-0.011836245
-0.011836917
-0.011836873
-0.011837442
-0.011837493
-0.011837411
-0.011837233
-0.011836986
-0.011836667
-0.01183577
-0.011835203
-0.011836811
-0.011836637
-0.011836995
-0.011837053
-0.01183698
-0.011836809
-0.011836574
-0.011836245
-0.011835203
-0.011835257
-0.0092191601
-0.0092190622
-0.00921995
-0.0092200143
-0.0092199618
-0.0092198189
-0.0092195787
-0.0092192249
-0.0092186713
-0.0092185447
-0.0092190622
-0.0092194828
-0.0092201857
-0.0092202335
-0.0092201772
-0.0092200305
-0.0092197919
-0.0092194253
-0.0092186318
-0.0092183783
-0.00921995
-0.0092201857
-0.0092208439
-0.0092208778
-0.0092208131
-0.0092206607
-0.0092204253
-0.0092200751
-0.0092191833
-0.0092187239
-0.0092200143
-0.0092202335
-0.0092208778
-0.0092209012
-0.0092208279
-0.0092206684
-0.0092204322
-0.009220101
-0.0092192293
-0.0092187784
-0.0092199618
-0.0092201772
-0.0092208131
-0.0092208279
-0.009220747
-0.0092205811
-0.0092203404
-0.0092200114
-0.0092191467
-0.0092187053
-0.0092198189
-0.0092200305
-0.0092206607
-0.0092206684
-0.0092205811
-0.0092204104
-0.0092201663
-0.009219837
-0.0092189753
-0.0092185404
-0.0092195787
-0.0092197919
-0.0092204253
-0.0092204322
-0.0092203404
-0.0092201663
-0.009219921
-0.0092195929
-0.0092187352
-0.0092183091
-0.0092192249
-0.0092194253
-0.0092200751
-0.009220101
-0.0092200114
-0.009219837
-0.0092195929
-0.0092192664
-0.0092184054
-0.009217965
-0.0092186713
-0.0092186318
-0.0092191833
-0.0092192293
-0.0092191467
-0.0092189753
-0.0092187352
-0.0092184054
-0.0092174981
-0.0092169213
-0.0092185447
-0.0092183783
-0.0092187239
-0.0092187784
-0.0092187053
-0.0092185404
-0.0092183091
-0.009217965
-0.0092169213
-0.0092169566
-0.0063839158
-0.0063838214
-0.0063846719
-0.0063847163
-0.006384646
-0.0063844974
-0.0063842607
-0.0063839111
-0.0063833611
-0.0063832249
-0.0063838214
-0.0063842271
-0.0063848946
-0.0063849201
-0.0063848469
-0.0063846975
-0.0063844661
-0.0063841049
-0.006383322
-0.006383063
-0.0063846719
-0.0063848946
-0.006385516
-0.0063855277
-0.0063854482
-0.0063852967
-0.006385073
-0.0063847298
-0.0063838523
-0.0063833948
-0.0063847163
-0.0063849201
-0.0063855277
-0.0063855304
-0.0063854449
-0.00638529
-0.00638507
-0.0063847491
-0.0063838932
-0.0063834453
-0.006384646
-0.0063848469
-0.0063854482
-0.0063854449
-0.0063853546
-0.0063851965
-0.0063849755
-0.0063846602
-0.0063838138
-0.0063833766
-0.0063844974
-0.0063846975
-0.0063852967
-0.00638529
-0.0063851965
-0.0063850362
-0.006384814
-0.0063844997
-0.0063836566
-0.0063832254
-0.0063842607
-0.0063844661
-0.006385073
-0.00638507
-0.0063849755
-0.006384814
-0.0063845911
-0.006384277
-0.0063834354
-0.0063830093
-0.0063839111
-0.0063841049
-0.0063847298
-0.0063847491
-0.0063846602
-0.0063844997
-0.006384277
-0.0063839612
-0.006383111
-0.0063826647
-0.0063833611
-0.006383322
-0.0063838523
-0.0063838932
-0.0063838138
-0.0063836566
-0.0063834354
-0.006383111
-0.0063822106
-0.006381635
-0.0063832249
-0.006383063
-0.0063833948
-0.0063834453
-0.0063833766
-0.0063832254
-0.0063830093
-0.0063826647
-0.006381635
-0.0063816589
-0.003511844
-0.0035117471
-0.0035125548
-0.0035125776
-0.0035124929
-0.0035123448
-0.0035121209
-0.0035117874
-0.0035112538
-0.0035111176
-0.0035117471
-0.0035121314
-0.0035127585
-0.0035127609
-0.0035126744
-0.0035125285
-0.0035123137
-0.0035119708
-0.0035112126
-0.0035109583
-0.0035125548
-0.0035127585
-0.0035133388
-0.003513328
-0.0035132374
-0.003513093
-0.0035128902
-0.0035125679
-0.0035117199
-0.003511275
-0.0035125776
-0.0035127609
-0.003513328
-0.0035133098
-0.0035132157
-0.0035130716
-0.0035128769
-0.0035125804
-0.003511756
-0.0035113223
-0.0035124929
-0.0035126744
-0.0035132374
-0.0035132157
-0.0035131197
-0.0035129754
-0.0035127832
-0.0035124953
-0.0035116827
-0.0035112612
-0.0035123448
-0.0035125285
-0.003513093
-0.0035130716
-0.0035129754
-0.0035128314
-0.0035126399
-0.0035123543
-0.0035115454
-0.0035111293
-0.0035121209
-0.0035123137
-0.0035128902
-0.0035128769
-0.0035127832
-0.0035126399
-0.0035124483
-0.0035121618
-0.0035113519
-0.0035109371
-0.0035117874
-0.0035119708
-0.0035125679
-0.0035125804
-0.0035124953
-0.0035123543
-0.0035121618
-0.0035118702
-0.0035110462
-0.0035106051
-0.0035112538
-0.0035112126
-0.0035117199
-0.003511756
-0.0035116827
-0.0035115454
-0.0035113519
-0.0035110462
-0.0035101671
-0.0035096021
-0.0035111176
-0.0035109583
-0.003511275
-0.0035113223
-0.0035112612
-0.0035111293
-0.0035109371
-0.0035106051
-0.0035096021
-0.0035096216
-0.00073846463
-0.00073836187
-0.00073912352
-0.00073912515
-0.00073902966
-0.00073888702
-0.0007386825
-0.00073837397
-0.00073786637
-0.00073773732
-0.00073836187
-0.00073872086
-0.00073930507
-0.00073928534
-0.00073918924
-0.00073905167
-0.00073885992
-0.00073854471
-0.00073782161
-0.00073757957
-0.00073912352
-0.00073930507
-0.00073984248
-0.00073981048
-0.00073971229
-0.0007395796
-0.00073940415
-0.00073911241
-0.00073830492
-0.00073788087
-0.00073912515
-0.00073928534
-0.00073981048
-0.00073977274
-0.00073967355
-0.00073954451
-0.00073938118
-0.00073911851
-0.0007383369
-0.00073792573
-0.00073902966
-0.00073918924
-0.00073971229
-0.00073967355
-0.0007395751
-0.00073944877
-0.00073929106
-0.0007390399
-0.00073827223
-0.00073787444
-0.00073888702
-0.00073905167
-0.0007395796
-0.00073954451
-0.00073944877
-0.00073932492
-0.00073916974
-0.00073892196
-0.00073815827
-0.00073776545
-0.0007386825
-0.00073885992
-0.00073940415
-0.00073938118
-0.00073929106
-0.00073916974
-0.00073901486
-0.0007387653
-0.00073799816
-0.00073760317
-0.00073837397
-0.00073854471
-0.00073911241
-0.00073911851
-0.0007390399
-0.00073892196
-0.0007387653
-0.00073850739
-0.00073772101
-0.00073729381
-0.00073786637
-0.00073782161
-0.00073830492
-0.0007383369
-0.00073827223
-0.00073815827
-0.00073799816
-0.00073772101
-0.00073687462
-0.00073632736
-0.00073773732
-0.00073757957
-0.00073788087
-0.00073792573
-0.00073787444
-0.00073776545
-0.00073760317
-0.00073729381
-0.00073632736
-0.00073634807
0.0018366565
0.0018367667
0.0018360523
0.0018360704
0.0018361731
0.0018363065
0.0018364873
0.0018367651
0.0018372402
0.0018373572
0.0018367667
0.001836435
0.0018358942
0.0018359339
0.0018360362
0.0018361619
0.0018363266
0.001836608
0.001837289
0.0018375136
0.0018360523
0.0018358942
0.0018353996
0.0018354506
0.0018355529
0.0018356708
0.0018358154
0.0018360704
0.00183683
0.0018372278
0.0018360704
0.0018359339
0.0018354506
0.0018355056
0.0018356067
0.0018357179
0.0018358468
0.0018360697
0.0018368012
0.0018371845
0.0018361731
0.0018360362
0.0018355529
0.0018356067
0.0018357046
0.0018358106
0.0018359311
0.00183614
0.0018368557
0.0018372245
0.0018363065
0.0018361619
0.0018356708
0.0018357179
0.0018358106
0.001835912
0.0018360284
0.001836233
0.0018369444
0.0018373086
0.0018364873
0.0018363266
0.0018358154
0.0018358468
0.0018359311
0.0018360284
0.0018361441
0.0018363513
0.0018370682
0.0018374376
0.0018367651
0.001836608
0.0018360704
0.0018360697
0.00183614
0.001836233
0.0018363513
0.0018365696
0.0018373104
0.0018377173
0.0018372402
0.001837289
0.00183683
0.0018368012
0.0018368557
0.0018369444
0.0018370682
0.0018373104
0.0018381159
0.0018386403
0.0018373572
0.0018375136
0.0018372278
0.0018371845
0.0018372245
0.0018373086
0.0018374376
0.0018377173
0.0018386403
0.0018386142
0.0041426152
0.004142733
0.0041420657
0.0041421012
0.004142208
0.0041423294
0.0041424842
0.0041427281
0.0041431667
0.0041432687
0.004142733
0.004142429
0.0041419309
0.0041419879
0.0041420932
0.0041422048
0.0041423404
0.0041425848
0.0041432196
0.0041434236
0.0041420657
0.0041419309
0.0041414779
0.004141545
0.0041416486
0.0041417497
0.004141862
0.0041420772
0.0041427846
0.0041431531
0.0041421012
0.0041419879
0.004141545
0.0041416146
0.0041417149
0.0041418068
0.0041419004
0.004142081
0.0041427583
0.0041431105
0.004142208
0.0041420932
0.0041416486
0.0041417149
0.00414181
0.0041418945
0.0041419773
0.0041421418
0.0041428016
0.0041431384
0.0041423294
0.0041422048
0.0041417497
0.0041418068
0.0041418945
0.0041419726
0.00414205
0.0041422092
0.0041428646
0.0041431972
0.0041424842
0.0041423404
0.004141862
0.0041419004
0.0041419773
0.00414205
0.0041421262
0.0041422888
0.0041429514
0.0041432917
0.0041427281
0.0041425848
0.0041420772
0.004142081
0.0041421418
0.0041422092
0.0041422888
0.0041424648
0.0041431552
0.0041435376
0.0041431667
0.0041432196
0.0041427846
0.0041427583
0.0041428016
0.0041428646
0.0041429514
0.0041431552
0.0041439143
0.0041444124
0.0041432687
0.0041434236
0.0041431531
0.0041431105
0.0041431384
0.0041431972
0.0041432917
0.0041435376
0.0041444124
0.0041443784
0.0061312079
0.0061313325
0.0061307115
0.0061307617
0.0061308698
0.0061309776
0.0061311055
0.0061313145
0.0061317148
0.0061318003
0.0061313325
0.0061310557
0.0061305988
0.0061306701
0.0061307757
0.0061308719
0.0061309782
0.0061311845
0.0061317711
0.0061319532
0.0061307115
0.0061305988
0.0061301855
0.0061302657
0.0061303681
0.0061304517
0.006130532
0.0061307067
0.00613136
0.0061316976
0.0061307617
0.0061306701
0.0061302657
0.006130347
0.0061304443
0.0061305166
0.0061305756
0.0061307137
0.0061313352
0.0061316551
0.0061308698
0.0061307757
0.0061303681
0.0061304443
0.0061305346
0.0061305976
0.006130644
0.0061307642
0.0061313669
0.0061316708
0.0061309776
0.0061308719
0.0061304517
0.0061305166
0.0061305976
0.0061306528
0.0061306926
0.0061308069
0.0061314049
0.0061317049
0.0061311055
0.0061309782
0.006130532
0.0061305756
0.006130644
0.0061306926
0.0061307309
0.006130849
0.0061314557
0.0061317654
0.0061313145
0.0061311845
0.0061307067
0.0061307137
0.0061307642
0.0061308069
0.006130849
0.0061309825
0.0061316201
0.0061319755
0.0061317148
0.0061317711
0.00613136
0.0061313352
0.0061313669
0.0061314049
0.0061314557
0.0061316201
0.0061323297
0.0061327994
0.0061318003
0.0061319532
0.0061316976
0.0061316551
0.0061316708
0.0061317049
0.0061317654
0.0061319755
0.0061327994
0.0061327561
0.0077721029
0.0077722329
0.0077716567
0.0077717189
0.0077718261
0.0077719195
0.0077720209
0.0077721953
0.007772557
0.0077726258
0.0077722329
0.0077719824
0.0077715645
0.0077716471
0.0077717508
0.0077718313
0.0077719091
0.007772078
0.0077726162
0.0077727759
0.0077716567
0.0077715645
0.0077711886
0.0077712789
0.0077713781
0.0077714442
0.0077714939
0.0077716292
0.0077722283
0.0077725348
0.0077717189
0.0077716471
0.0077712789
0.007771369
0.0077714617
0.0077715148
0.0077715413
0.0077716384
0.0077722043
0.0077724921
0.0077718261
0.0077717508
0.0077713781
0.0077714617
0.0077715459
0.0077715882
0.0077716006
0.0077716785
0.0077722247
0.0077724959
0.0077719195
0.0077718313
0.0077714442
0.0077715148
0.0077715882
0.0077716215
0.0077716264
0.0077716978
0.0077722392
0.0077725067
0.0077720209
0.0077719091
0.0077714939
0.0077715413
0.0077716006
0.0077716264
0.0077716295
0.0077717051
0.0077722562
0.007772535
0.0077721953
0.007772078
0.0077716292
0.0077716384
0.0077716785
0.0077716978
0.0077717051
0.0077717976
0.0077723819
0.0077727091
0.007772557
0.0077726162
0.0077722283
0.0077722043
0.0077722247
0.0077722392
0.0077722562
0.0077723819
0.0077730408
0.0077734811
0.0077726258
0.0077727759
0.0077725348
0.0077724921
0.0077724959
0.0077725067
0.007772535
0.0077727091
0.0077734811
0.0077734281
0.00904895
0.0090490838
0.0090485507
0.0090486221
0.0090487263
0.0090488053
0.0090488815
0.0090490228
0.0090493469
0.0090493994
0.0090490838
0.009048858
0.0090484769
0.0090485678
0.0090486679
0.0090487329
0.0090487839
0.0090489172
0.0090494079
0.009049546
0.0090485507
0.0090484769
0.0090481358
0.0090482334
0.0090483279
0.0090483771
0.0090483986
0.0090484967
0.0090490427
0.009049319
0.0090486221
0.0090485678
0.0090482334
0.0090483295
0.0090484164
0.0090484513
0.0090484482
0.0090485071
0.0090490191
0.0090492757
0.0090487263
0.0090486679
0.0090483279
0.0090484164
0.0090484936
0.0090485166
0.0090484982
0.009048537
0.0090490286
0.0090492684
0.0090488053
0.0090487329
0.0090483771
0.0090484513
0.0090485166
0.0090485296
0.009048503
0.0090485349
0.0090490216
0.0090492578
0.0090488815
0.0090487839
0.0090483986
0.0090484482
0.0090484982
0.009048503
0.0090484743
0.0090485107
0.0090490078
0.0090492565
0.0090490228
0.0090489172
0.0090484967
0.0090485071
0.009048537
0.0090485349
0.0090485107
0.0090485649
0.0090490969
0.0090493959
0.0090493469
0.0090494079
0.0090490427
0.0090490191
0.0090490286
0.0090490216
0.0090490078
0.0090490969
0.0090497051
0.009050116
0.0090493994
0.009049546
0.009049319
0.0090492757
0.0090492684
0.0090492578
0.0090492565
0.0090493959
0.009050116
0.0090500537
0.0099562579
0.0099563937
0.0099559019
0.00995598
0.0099560799
0.0099561446
0.0099561975
0.0099563081
0.0099565961
0.0099566334
0.0099563937
0.0099561911
0.0099558445
0.009955941
0.0099560362
0.0099560862
0.0099561129
0.0099562132
0.009956658
0.0099567757
0.0099559019
0.0099558445
0.0099555357
0.0099556379
0.0099557266
0.00995576
0.009955756
0.00995582
0.0099563151
0.0099565623
0.00995598
0.009955941
0.0099556379
0.0099557377
0.0099558178
0.0099558359
0.0099558065
0.0099558308
0.0099562913
0.0099565184
0.0099560799
0.0099560362
0.0099557266
0.0099558178
0.0099558875
0.0099558928
0.0099558473
0.0099558509
0.0099562907
0.0099565009
0.0099561446
0.0099560862
0.00995576
0.0099558359
0.0099558928
0.0099558876
0.0099558333
0.0099558297
0.0099562646
0.0099564714
0.0099561975
0.0099561129
0.009955756
0.0099558065
0.0099558473
0.0099558333
0.0099557768
0.0099557778
0.0099562236
0.0099564435
0.0099563081
0.0099562132
0.00995582
0.0099558308
0.0099558509
0.0099558297
0.0099557778
0.0099557973
0.009956279
0.0099565505
0.0099565961
0.009956658
0.0099563151
0.0099562913
0.0099562907
0.0099562646
0.0099562236
0.009956279
0.0099568377
0.0099572195
0.0099566334
0.0099567757
0.0099565623
0.0099565184
0.0099565009
0.0099564714
0.0099564435
0.0099565505
0.0099572195
0.0099571488
0.010496897
0.010497033
0.010496581
0.010496663
0.010496757
0.010496809
0.01049684
0.010496923
0.010497177
0.010497201
0.010497033
0.010496852
0.010496537
0.010496637
0.010496726
0.010496762
0.010496767
0.010496838
0.010497239
0.010497338
0.010496581
0.010496537
0.010496259
0.010496363
0.010496445
0.010496464
0.010496438
0.010496471
0.010496918
0.010497138
0.010496663
0.010496637
0.010496363
0.010496464
0.010496537
0.01049654
0.010496488
0.010496482
0.010496894
0.010497093
0.010496757
0.010496726
0.010496445
0.010496537
0.010496599
0.010496589
0.01049652
0.010496493
0.010496884
0.010497067
0.010496809
0.010496762
0.010496464
0.01049654
0.010496589
0.010496567
0.010496489
0.010496455
0.010496841
0.010497021
0.01049684
0.010496767
0.010496438
0.010496488
0.01049652
0.010496489
0.010496409
0.010496379
0.010496777
0.01049697
0.010496923
0.010496838
0.010496471
0.010496482
0.010496493
0.010496455
0.010496379
0.010496368
0.010496802
0.010497047
0.010497177
0.010497239
0.010496918
0.010496894
0.010496884
0.010496841
0.010496777
0.010496802
0.010497313
0.010497666
0.010497201
0.010497338
0.010497138
0.010497093
0.010497067
0.010497021
0.01049697
0.010497047
0.010497666
0.010497589
0.010680106
0.010680241
0.010679826
0.010679911
0.010679999
0.010680037
0.01068005
0.010680108
0.01068033
0.010680342
0.010680241
0.01068008
0.010679795
0.010679896
0.010679978
0.010680001
0.010679987
0.010680031
0.010680392
0.010680473
0.010679826
0.010679795
0.010679544
0.010679648
0.010679723
0.010679729
0.010679683
0.01067969
0.010680091
0.010680286
0.010679911
0.010679896
0.010679648
0.010679749
0.010679814
0.010679804
0.010679732
0.0106797
0.010680067
0.010680241
0.010679999
0.010679978
0.010679723
0.010679814
0.010679868
0.010679844
0.010679756
0.010679702