/*--------------------------------*- C++ -*----------------------------------*\
| =========                 |                                                 |
| \\      /  F ield         | OpenFOAM: The Open Source CFD Toolbox           |
|  \\    /   O peration     | Version:  v2106                                 |
|   \\  /    A nd           | Website:  www.openfoam.com                      |
|    \\/     M anipulation  |                                                 |
\*---------------------------------------------------------------------------*/
FoamFile
{
    version     2.0;
    format      ascii;
    arch        "LSB;label=32;scalar=64";
    class       volScalarField;
    location    "100";
    object      Tmode_lapla11;
}
// * * * * * * * * * * * * * * * * * * * * * * * * * * * * * * * * * * * * * //

dimensions      [0 -2 0 0 0 0 0];

internalField   nonuniform List<scalar> 
4000
(
-589.52647
-585.62028
-590.99516
-591.44498
-592.23879
-592.00189
-591.45558
-590.66653
-589.87968
-589.60161
-585.62028
-590.85627
-591.89696
-593.28431
-593.95838
-593.67499
-593.0634
-592.14048
-591.3383
-590.69337
-590.99516
-591.89696
-594.82666
-595.87092
-596.43798
-596.1363
-595.4519
-594.30962
-593.35711
-592.09114
-591.44498
-593.28431
-595.87092
-596.78161
-597.33248
-597.04916
-596.3557
-595.07216
-593.90525
-592.81701
-592.23879
-593.95838
-596.43798
-597.33248
-597.89632
-597.64209
-596.99209
-595.72685
-594.47056
-593.22775
-592.00189
-593.67499
-596.1363
-597.04916
-597.64209
-597.41081
-596.78907
-595.56219
-594.3382
-593.1015
-591.45558
-593.0634
-595.4519
-596.3557
-596.99209
-596.78907
-596.17756
-594.95582
-593.73695
-592.50338
-590.66653
-592.14048
-594.30962
-595.07216
-595.72685
-595.56219
-594.95582
-593.72346
-592.49842
-591.27584
-589.87968
-591.3383
-593.35711
-593.90525
-594.47056
-594.3382
-593.73695
-592.49842
-591.29929
-590.16211
-589.60161
-590.69337
-592.09114
-592.81701
-593.22775
-593.1015
-592.50338
-591.27584
-590.16211
-589.19025
703.68602
684.26674
685.37553
695.36075
692.23135
691.72171
691.89997
691.88432
691.27972
692.04014
684.26674
680.0545
687.78617
692.35711
689.26525
688.92546
689.14849
688.85482
687.27361
688.87284
685.37553
687.78617
688.91125
693.87304
691.08293
690.86717
691.1606
690.53801
688.68692
692.19147
695.36075
692.35711
693.87304
699.07372
696.35888
696.21798
696.70727
696.05188
692.4782
692.94838
692.23135
689.26525
691.08293
696.35888
693.62765
693.47283
694.09605
693.93926
691.15574
692.25687
691.72171
688.92546
690.86717
696.21798
693.47283
693.25172
693.82825
693.69279
691.02943
692.30051
691.89997
689.14849
691.1606
696.70727
694.09605
693.82825
694.35799
694.19106
691.50492
692.74389
691.88432
688.85482
690.53801
696.05188
693.93926
693.69279
694.19106
693.98796
691.2292
692.339
691.27972
687.27361
688.68692
692.4782
691.15574
691.02943
691.50492
691.2292
688.31559
689.33115
692.04014
688.87284
692.19147
692.94838
692.25687
692.30051
692.74389
692.339
689.33115
691.85257
-719.84451
-752.00112
-731.02622
-726.98757
-731.05753
-731.47114
-731.04039
-731.08419
-732.99466
-735.49111
-752.00112
-750.58665
-735.37257
-735.60666
-739.37167
-739.52963
-739.09701
-739.61071
-738.21548
-735.345
-731.02622
-735.37257
-723.87073
-723.34762
-726.74366
-726.69413
-726.21333
-728.55829
-730.67286
-730.54976
-726.98757
-735.60666
-723.34762
-722.54453
-725.86104
-725.65034
-724.61833
-726.48037
-729.73277
-731.40472
-731.05753
-739.37167
-726.74366
-725.86104
-729.22762
-729.05476
-727.82653
-728.99703
-731.28523
-732.17964
-731.47114
-739.52963
-726.69413
-725.65034
-729.05476
-728.98982
-727.83353
-728.97357
-731.11488
-731.84335
-731.04039
-739.09701
-726.21333
-724.61833
-727.82653
-727.83353
-726.74168
-727.92594
-730.11589
-730.99544
-731.08419
-739.61071
-728.55829
-726.48037
-728.99703
-728.97357
-727.92594
-729.18979
-731.58307
-732.77088
-732.99466
-738.21548
-730.67286
-729.73277
-731.28523
-731.11488
-730.11589
-731.58307
-734.45975
-735.16963
-735.49111
-735.345
-730.54976
-731.40472
-732.17964
-731.84335
-730.99544
-732.77088
-735.16963
-733.568
-59.821225
-79.44863
-51.210872
-54.15234
-58.135166
-58.242145
-57.481295
-57.128282
-56.142301
-54.546397
-79.44863
-62.804342
-48.344696
-53.590282
-57.056982
-56.833356
-56.481994
-59.787093
-59.305455
-54.921582
-51.210872
-48.344696
-34.384611
-38.699148
-41.795014
-41.149607
-40.064119
-44.909728
-48.432158
-49.17841
-54.15234
-53.590282
-38.699148
-42.775545
-45.838572
-45.01422
-43.083557
-46.907095
-50.495165
-51.288542
-58.135166
-57.056982
-41.795014
-45.838572
-49.006219
-48.271349
-46.155977
-49.287283
-51.964975
-51.977708
-58.242145
-56.833356
-41.149607
-45.01422
-48.271349
-47.679584
-45.653594
-48.756429
-51.298482
-51.22731
-57.481295
-56.481994
-40.064119
-43.083557
-46.155977
-45.653594
-43.693542
-46.842977
-49.472815
-49.812295
-57.128282
-59.787093
-44.909728
-46.907095
-49.287283
-48.756429
-46.842977
-50.135053
-53.19035
-54.190618
-56.142301
-59.305455
-48.432158
-50.495165
-51.964975
-51.298482
-49.472815
-53.19035
-57.139024
-54.110856
-54.546397
-54.921582
-49.17841
-51.288542
-51.977708
-51.22731
-49.812295
-54.190618
-54.110856
-55.039771
406.13912
390.60291
421.36309
412.94899
409.66109
409.90507
410.74665
409.83557
408.1429
409.64712
390.60291
413.48371
425.35743
416.52269
413.92917
414.8646
416.11649
411.02671
404.90583
406.20033
421.36309
425.35743
439.204
431.30561
428.97611
430.37146
432.96472
427.56171
418.49246
413.15471
412.94899
416.52269
431.30561
423.5656
421.18986
422.66582
426.11592
422.00489
413.9341
410.20858
409.66109
413.92917
428.97611
421.18986
418.66492
419.9968
423.5546
419.98366
412.63891
409.63733
409.90507
414.8646
430.37146
422.66582
419.9968
421.17058
424.63573
421.08597
413.85065
410.82757
410.74665
416.11649
432.96472
426.11592
423.5546
424.63573
428.05732
424.48027
417.11428
413.24664
409.83557
411.02671
427.56171
422.00489
419.98366
421.08597
424.48027
420.68271
412.48255
406.73138
408.1429
404.90583
418.49246
413.9341
412.63891
413.85065
417.11428
412.48255
402.28533
405.69904
409.64712
406.20033
413.15471
410.20858
409.63733
410.82757
413.24664
406.73138
405.69904
405.19985
179.28192
160.93541
193.8638
181.92448
179.47215
180.10117
181.5251
180.9017
176.75085
177.98707
160.93541
183.70572
194.49629
183.54099
181.80357
183.30637
186.13998
182.91712
171.90913
171.33322
193.8638
194.49629
208.85994
198.76749
197.13748
198.91826
203.16136
200.70331
187.9427
179.45312
181.92448
183.54099
198.76749
188.77313
187.04231
188.7804
193.69047
192.54622
181.60692
176.00787
179.47215
181.80357
197.13748
187.04231
185.15065
186.71638
191.64049
190.83007
180.40379
175.4723
180.10117
183.30637
198.91826
188.7804
186.71638
188.1336
192.97865
192.19284
181.87415
176.89649
181.5251
186.13998
203.16136
193.69047
191.64049
192.97865
197.82785
197.08141
186.67187
180.52285
180.9017
182.91712
200.70331
192.54622
190.83007
192.19284
197.08141
196.12148
184.48363
174.46084
176.75085
171.90913
187.9427
181.60692
180.40379
181.87415
186.67187
184.48363
168.81382
169.03616
177.98707
171.33322
179.45312
176.00787
175.4723
176.89649
180.52285
174.46084
169.03616
171.75199
-167.54715
-187.67062
-153.36248
-167.3857
-169.21379
-168.4561
-166.59264
-165.98145
-171.02996
-168.75289
-187.67062
-165.38223
-155.01926
-167.14122
-168.34313
-166.82651
-163.14887
-163.31524
-177.06322
-177.63603
-153.36248
-155.01926
-140.15274
-151.48451
-152.68151
-151.07504
-146.19252
-144.77238
-159.28425
-168.74662
-167.3857
-167.14122
-151.48451
-162.7496
-164.06414
-162.58448
-157.27742
-154.62696
-166.75234
-172.46474
-169.21379
-168.34313
-152.68151
-164.06414
-165.52482
-164.21708
-158.97405
-156.17705
-167.97294
-173.05862
-168.4561
-166.82651
-151.07504
-162.58448
-164.21708
-163.03367
-157.84921
-155.01644
-166.68277
-171.73962
-166.59264
-163.14887
-146.19252
-157.27742
-158.97405
-157.84921
-152.60396
-149.62093
-161.20267
-167.3599
-165.98145
-163.31524
-144.77238
-154.62696
-156.17705
-155.01644
-149.62093
-146.65388
-159.38175
-170.77742
-171.02996
-177.06322
-159.28425
-166.75234
-167.97294
-166.68277
-161.20267
-159.38175
-177.54126
-182.11323
-168.75289
-177.63603
-168.74662
-172.46474
-173.05862
-171.73962
-167.3599
-170.77742
-182.11323
-174.91497
-254.56413
-274.77376
-240.3306
-255.47484
-256.92964
-256.28746
-254.46698
-252.89941
-258.36412
-254.97175
-274.77376
-252.84196
-243.03732
-255.72986
-256.63588
-255.40995
-251.73836
-249.36343
-264.86162
-265.09743
-240.3306
-243.03732
-228.25351
-240.21211
-241.16003
-239.96789
-235.3532
-230.77919
-246.284
-255.93624
-255.47484
-255.72986
-240.21211
-252.11666
-253.17521
-252.1491
-247.32186
-241.6137
-254.38054
-259.77294
-256.92964
-256.63588
-241.16003
-253.17521
-254.35393
-253.48274
-248.77473
-243.06209
-255.64036
-260.44418
-256.28746
-255.40995
-239.96789
-252.1491
-253.48274
-252.71095
-248.05024
-242.30661
-254.75359
-259.43773
-254.46698
-251.73836
-235.3532
-247.32186
-248.77473
-248.05024
-243.30088
-237.3296
-249.50803
-254.94044
-252.89941
-249.36343
-230.77919
-241.6137
-243.06209
-242.30661
-237.3296
-231.13172
-244.00967
-254.84557
-258.36412
-264.86162
-246.284
-254.38054
-255.64036
-254.75359
-249.50803
-244.00967
-262.40111
-272.12495
-254.97175
-265.09743
-255.93624
-259.77294
-260.44418
-259.43773
-254.94044
-254.84557
-272.12495
-260.58471
-109.13665
-128.30664
-94.871634
-110.50117
-111.73221
-111.23279
-109.64487
-107.48143
-113.15158
-109.12411
-128.30664
-106.85105
-97.956416
-110.845
-111.58041
-110.64689
-107.32295
-103.11744
-119.60313
-119.77105
-94.871634
-97.956416
-83.886326
-96.07964
-96.869994
-96.0352
-91.996069
-85.161081
-101.09784
-110.75797
-110.50117
-110.845
-96.07964
-108.22023
-109.10414
-108.44371
-104.34622
-96.452156
-109.46181
-114.60622
-111.73221
-111.58041
-96.869994
-109.10414
-110.08098
-109.55228
-105.60669
-97.800806
-110.71965
-115.3142
-111.23279
-110.64689
-96.0352
-108.44371
-109.55228
-109.10144
-105.20081
-97.384958
-110.20254
-114.62889
-109.64487
-107.32295
-91.996069
-104.34622
-105.60669
-105.20081
-101.21646
-93.161413
-105.61599
-110.39982
-107.48143
-103.11744
-85.161081
-96.452156
-97.800806
-97.384958
-93.161413
-84.728854
-97.391127
-106.88952
-113.15158
-119.60313
-101.09784
-109.46181
-110.71965
-110.20254
-105.61599
-97.391127
-114.70891
-129.10389
-109.12411
-119.77105
-110.75797
-114.60622
-115.3142
-114.62889
-110.39982
-106.88952
-129.10389
-114.17027
74.915866
57.313302
88.916407
73.217079
72.124163
72.53522
73.909147
76.468365
70.840279
75.062168
57.313302
77.991173
85.691878
72.855258
72.223603
72.961792
75.921224
81.405111
64.697763
64.361475
88.916407
85.691878
98.59967
86.432464
85.749615
86.36311
89.869224
98.252973
82.488506
72.940373
73.217079
72.855258
86.432464
74.321712
73.563722
74.010323
77.476156
86.866422
74.10058
69.152685
72.124163
72.223603
85.749615
73.563722
72.735719
73.073005
76.372013
85.62313
72.888071
68.456115
72.53522
72.961792
86.36311
74.010323
73.073005
73.350107
76.604506
85.842804
73.167033
68.911059
73.909147
75.921224
89.869224
77.476156
76.372013
76.604506
79.924511
89.37341
77.071459
72.761928
76.468365
81.405111
98.252973
86.866422
85.62313
85.842804
89.37341
99.248899
87.111582
79.10311
70.840279
64.697763
82.488506
74.10058
72.888071
73.167033
77.071459
87.111582
71.530983
53.480023
75.062168
64.361475
72.940373
69.152685
68.456115
68.911059
72.761928
79.10311
53.480023
70.59203
159.96159
144.05652
173.32458
157.84266
156.84467
157.22296
158.46078
161.30886
155.96647
160.13264
144.05652
163.59904
169.97001
157.37107
156.81311
157.45176
160.14259
166.4961
150.23333
149.66307
173.32458
169.97001
181.47664
169.52612
168.92611
169.43512
172.55917
181.95062
166.90416
157.63984
157.84266
157.37107
169.52612
157.63599
156.9759
157.33063
160.35753
170.71553
158.65626
153.96279
156.84467
156.81311
168.92611
156.9759
156.26229
156.52543
159.38129
169.57672
157.51432
153.30879
157.22296
157.45176
169.43512
157.33063
156.52543
156.7412
159.55276
169.7178
157.67666
153.63375
158.46078
160.14259
172.55917
160.35753
159.38129
159.55276
162.41122
172.74696
161.04689
157.14678
161.30886
166.4961
181.95062
170.71553
169.57672
169.7178
172.74696
183.49742
172.19279
165.57426
155.96647
150.23333
166.90416
158.65626
157.51432
157.67666
161.04689
172.19279
158.60925
138.12734
160.13264
149.66307
157.63984
153.96279
153.30879
153.63375
157.14678
165.57426
138.12734
156.27573
127.17698
112.92129
139.58291
124.5344
123.61513
123.99666
125.16817
128.23109
123.35367
127.36706
112.92129
131.01156
136.04186
123.83274
123.33854
123.94303
126.46764
133.38265
118.05066
117.30102
139.58291
136.04186
146.06271
134.47954
133.95158
134.43013
137.31468
147.30381
133.37608
124.58784
124.5344
123.83274
134.47954
122.9586
122.38107
122.71755
125.47527
136.39397
125.38458
121.05934
123.61513
123.33854
133.95158
122.38107
121.7606
122.01794
124.60583
135.3538
124.32242
120.46058
123.99666
123.94303
134.43013
122.71755
122.01794
122.23608
124.77982
135.48555
124.44666
120.72761
125.16817
126.46764
137.31468
125.47527
124.60583
124.77982
127.35519
138.19503
127.45199
123.9864
128.23109
133.38265
147.30381
136.39397
135.3538
135.48555
138.19503
149.4135
139.18835
133.78718
123.35367
118.05066
133.37608
125.38458
124.32242
124.44666
127.45199
139.18835
127.61775
105.87272
127.36706
117.30102
124.58784
121.05934
120.46058
120.72761
123.9864
133.78718
105.87272
124.14559
32.782435
20.086655
44.011751
29.572993
28.729106
29.128708
30.275831
33.48851
29.177146
33.020364
20.086655
36.492805
40.249158
28.561111
28.127568
28.729904
31.157635
38.399241
24.301123
23.471188
44.011751
40.249158
48.790797
37.701412
37.239353
37.721203
40.460202
50.737441
38.170778
30.026723
29.572993
28.561111
37.701412
26.673574
26.168431
26.518045
29.11617
40.282802
30.525294
26.678103
28.729106
28.127568
37.239353
26.168431
25.626605
25.905196
28.337219
39.332503
29.54205
26.134588
29.128708
28.729904
37.721203
26.518045
25.905196
26.149362
28.537293
39.48306
29.665641
26.382119
30.275831
31.157635
40.460202
29.11617
28.337219
28.537293
30.945611
41.997095
32.43381
29.457965
33.48851
38.399241
50.737441
40.282802
39.332503
39.48306
41.997095
53.387941
44.396443
40.041854
29.177146
24.301123
38.170778
30.525294
29.54205
29.665641
32.43381
44.396443
34.726925
12.676612
33.020364
23.471188
30.026723
26.678103
26.134588
26.382119
29.457965
40.041854
12.676612
30.423983
-55.922763
-67.130045
-45.98836
-59.664726
-60.432488
-60.016177
-58.878914
-55.578561
-59.28566
-55.606896
-67.130045
-52.54571
-49.956065
-61.006712
-61.38232
-60.77596
-58.414922
-51.027936
-63.732606
-64.551291
-45.98836
-49.956065
-42.839364
-53.324515
-53.726484
-53.236388
-50.600414
-40.270277
-51.362743
-58.743465
-59.664726
-61.006712
-53.324515
-63.750981
-64.192467
-63.827393
-61.33843
-50.165414
-58.588038
-61.885208
-60.432488
-61.38232
-53.726484
-64.192467
-64.667318
-64.368178
-62.040531
-51.035956
-59.498269
-62.380118
-60.016177
-60.77596
-53.236388
-63.827393
-64.368178
-64.10091
-61.817197
-50.865984
-59.367004
-62.139833
-58.878914
-58.414922
-50.600414
-61.33843
-62.040531
-61.817197
-59.520732
-48.483738
-56.763153
-59.206335
-55.578561
-51.027936
-40.270277
-50.165414
-51.035956
-50.865984
-48.483738
-37.140692
-44.832083
-48.285529
-59.28566
-63.732606
-51.362743
-58.588038
-59.498269
-59.367004
-56.763153
-44.832083
-52.761012
-74.413801
-55.606896
-64.551291
-58.743465
-61.885208
-62.380118
-62.139833
-59.206335
-48.285529
-74.413801
-57.617596
-98.77058
-108.52763
-90.162247
-102.94294
-103.63414
-103.21232
-102.09033
-98.761934
-101.86737
-98.354885
-108.52763
-95.815208
-94.268136
-104.57953
-104.90173
-104.30104
-102.00781
-94.619645
-105.86783
-106.6159
-90.162247
-94.268136
-88.498921
-98.283651
-98.632303
-98.145534
-95.609246
-85.41033
-95.004988
-101.55842
-102.94294
-104.57953
-98.283651
-108.01419
-108.40065
-108.03365
-105.64692
-94.658792
-101.7471
-104.4704
-103.63414
-104.90173
-98.632304
-108.40065
-108.81895
-108.5147
-106.28396
-95.459525
-102.59169
-104.92556
-103.21232
-104.30104
-98.145534
-108.03365
-108.5147
-108.2411
-106.05393
-95.284181
-102.46094
-104.69629
-102.09033
-102.00781
-95.609246
-105.64692
-106.28396
-106.05393
-103.85886
-93.016379
-99.994566
-101.89422
-98.761934
-94.619645
-85.41033
-94.658792
-95.459525
-95.284181
-93.016379
-81.892983
-88.284844
-90.95741
-101.86737
-105.86783
-95.004988
-101.7471
-102.59169
-102.46094
-99.994567
-88.284844
-94.637912
-115.42114
-98.354885
-106.6159
-101.55842
-104.4704
-104.92556
-104.69629
-101.89422
-90.95741
-115.42114
-99.84005
-89.830325
-98.148265
-82.510955
-94.284844
-94.901138
-94.489287
-93.399463
-90.099744
-92.629063
-89.302711
-98.148265
-87.283622
-86.652256
-96.140271
-96.415617
-95.837493
-93.632728
-86.363655
-96.151559
-96.807402
-82.510955
-86.652256
-82.142469
-91.147343
-91.450445
-90.985225
-88.568734
-78.651927
-86.780875
-92.493504
-94.284844
-96.140271
-91.147343
-100.10358
-100.44372
-100.094
-97.827793
-87.18184
-92.987901
-95.157626
-94.901138
-96.415617
-91.450445
-100.44372
-100.81508
-100.52586
-98.409704
-87.921245
-93.773374
-95.581205
-94.489287
-95.837493
-90.985225
-100.094
-100.52586
-100.26673
-98.193465
-87.759198
-93.657573
-95.3737
-93.399463
-93.632728
-88.568734
-97.827793
-98.409704
-98.193465
-96.115239
-85.61644
-91.331843
-92.712926
-90.099744
-86.363655
-78.651927
-87.18184
-87.921245
-87.759198
-85.61644
-74.854843
-79.992959
-81.988906
-92.629063
-96.151559
-86.780875
-92.987901
-93.773374
-93.657573
-91.331843
-79.992959
-84.921459
-104.54027
-89.302711
-96.807402
-92.493504
-95.157626
-95.581205
-95.3737
-92.712926
-81.988906
-104.54027
-90.335762
-46.289754
-53.166896
-40.173836
-50.856849
-51.402012
-51.015594
-49.978867
-46.760628
-48.750809
-45.646735
-53.166896
-44.067857
-44.230496
-52.832536
-53.068681
-52.530817
-50.443398
-43.397651
-51.756398
-52.331019
-40.173836
-44.230496
-40.887241
-49.052996
-49.318513
-48.892816
-46.625567
-37.119028
-43.846445
-48.745458
-50.856849
-52.832536
-49.052996
-57.176213
-57.478218
-57.163777
-55.045966
-44.875153
-49.479102
-51.149064
-51.402012
-53.068681
-49.318513
-57.478218
-57.811091
-57.555074
-55.580453
-45.559345
-50.209772
-51.546937
-51.015594
-52.530817
-48.892816
-57.163777
-57.555074
-57.328767
-55.395954
-45.427174
-50.122624
-51.372387
-49.978867
-50.443398
-46.625567
-55.045966
-55.580453
-55.395954
-53.459895
-43.431812
-47.955104
-48.873166
-46.760628
-43.397651
-37.119028
-44.875153
-45.559345
-45.427174
-43.431812
-33.154455
-37.112539
-38.529747
-48.750809
-51.756398
-43.846445
-49.479102
-50.209771
-50.122624
-47.955104
-37.112539
-40.752386
-59.033756
-45.646735
-52.331019
-48.745458
-51.149064
-51.546937
-51.372387
-48.873166
-38.529747
-59.033756
-46.307813
7.0163805
1.5791202
12.044433
2.5057912
2.0268763
2.3753658
3.3395414
6.4290442
4.9361436
7.7727892
1.5791202
9.0363422
8.1927266
0.51543463
0.31115203
0.79447667
2.7361903
9.4676168
2.4858322
1.958637
12.044433
8.1927265
10.465131
3.1754207
2.9404898
3.313072
5.4026679
14.389617
8.982097
4.8400089
2.5057912
0.51543463
3.1754207
-4.0779582
-4.3485976
-4.0823423
-2.139447
7.4439948
3.9490359
2.7037495
2.0268763
0.31115202
2.9404898
-4.3485976
-4.6495695
-4.4393685
-2.6315926
6.8116635
3.2714634
2.3286072
2.3753658
0.79447667
3.313072
-4.0823423
-4.4393686
-4.2583287
-2.490815
6.9029989
3.3208633
2.4623854
3.3395414
2.7361903
5.4026679
-2.139447
-2.6315926
-2.490815
-0.72105935
8.7283454
5.3099109
4.7779418
6.4290442
9.4676168
14.389617
7.4439948
6.8116635
6.9029989
8.7283454
18.415615
15.547922
14.611958
4.9361435
2.4858322
8.982097
3.9490359
3.2714634
3.3208633
5.3099109
15.547922
13.071713
-3.7773708
7.7727892
1.958637
4.8400088
2.7037495
2.3286072
2.4623854
4.7779418
14.611958
-3.7773708
7.4026316
49.289167
45.275749
53.359942
44.987679
44.570223
44.872786
45.749745
48.670486
47.631443
50.154894
45.275749
51.241768
49.820888
43.083071
42.904884
43.324815
45.098447
51.438173
45.767116
45.241338
53.359942
49.820888
51.120592
44.721226
44.511805
44.823762
46.71437
55.091393
50.912785
47.451977
44.987679
43.083071
44.721226
38.352169
38.108286
38.319881
40.068731
48.973363
46.489845
45.584067
44.570223
42.904884
44.511805
38.108286
37.834984
37.993428
39.616505
48.392104
45.865955
45.231338
44.872786
43.324815
44.823762
38.319881
37.993428
38.123575
39.708404
48.438185
45.874283
45.321266
45.749745
45.098447
46.71437
40.068731
39.616505
39.708404
41.294833
50.07702
47.668907
47.434741
48.670486
51.438173
55.091393
48.973363
48.392104
48.438185
50.07702
59.085808
57.210643
56.657283
47.631443
45.767116
50.912785
46.489845
45.865955
45.874283
47.668907
57.210643
55.778774
40.407493
50.154894
45.241338
47.451977
45.584067
45.231338
45.321266
47.434741
56.657283
40.407493
49.998142
69.256812
66.628054
72.504661
65.290837
64.930924
65.184272
65.965321
68.685645
68.05687
70.227748
66.628054
71.268136
69.36525
63.559056
63.403372
63.756697
65.348133
71.233854
66.796428
66.223019
72.504661
69.36525
69.793021
64.276951
64.090237
64.339965
66.019564
73.716796
70.670739
67.805524
65.290837
63.559056
64.276951
58.785523
58.566103
58.722508
60.267531
68.423939
66.854027
66.201392
64.930924
63.403372
64.090237
58.566103
58.318595
58.425306
59.85503
67.894836
66.285869
65.872632
65.184272
63.756697
64.339965
58.722508
58.425306
58.504927
59.898818
67.896914
66.2549
65.92001
65.965321
65.348133
66.019564
60.267531
59.85503
59.898818
61.293816
69.341072
67.846355
67.819301
68.685645
71.233854
73.716796
68.423939
67.894836
67.896914
69.341072
77.602563
76.618524
76.349901
68.05687
66.796428
70.670739
66.854027
66.285869
66.2549
67.846355
76.618524
76.113989
62.233173
70.227748
66.223019
67.805524
66.201392
65.872632
65.92001
67.819301
76.349901
62.233173
70.213053
65.47942
64.169436
68.034731
61.944721
61.639496
61.844301
62.526344
65.023285
64.761409
66.551375
64.169436
67.6541
65.357368
60.454895
60.320209
60.608378
62.011695
67.397292
64.106959
63.440711
68.034731
65.357368
65.016491
60.357628
60.192824
60.383308
61.848788
68.817907
66.804358
64.445958
61.944721
60.454895
60.357628
55.718172
55.522843
55.627928
56.967978
64.329557
63.57665
63.095915
61.639496
60.320209
60.192824
55.522843
55.301112
55.360407
56.596437
63.854597
63.066709
62.793552
61.844302
60.608378
60.383308
55.627928
55.360407
55.394109
56.59702
63.817827
63.001714
62.802777
62.526344
62.011695
61.848788
56.967978
56.596437
56.59702
57.800576
65.066971
64.388555
64.482558
65.023285
67.397292
68.817907
64.329557
63.854597
63.817827
65.066971
72.533568
72.338451
72.261216
64.761409
64.106959
66.804358
63.57665
63.066709
63.001714
64.388555
72.338451
72.645286
60.243003
66.551375
63.440711
64.445958
63.095915
62.793552
62.802777
64.482558
72.261216
60.243003
66.614623
43.657193
43.573403
45.641456
40.618171
40.365545
40.525246
41.109561
43.368446
43.430315
44.824387
43.573403
46.071501
43.463232
39.41959
39.305905
39.533544
40.74963
45.60535
43.367087
42.571163
45.641456
43.463232
42.458907
38.614972
38.472617
38.609718
39.865117
46.079282
44.995248
43.0569
40.618171
39.41959
38.614972
34.785657
34.615245
34.67544
35.816019
42.358652
42.327657
41.946751
40.365545
39.305905
38.472617
34.615245
34.420356
34.438947
35.487189
41.93975
41.877899
41.673158
40.525246
39.533544
38.609718
34.67544
34.438947
34.433648
35.451665
41.871285
41.785859
41.650217
41.109561
40.74963
39.865117
35.816019
35.487189
35.451665
36.469852
42.931111
42.972608
43.111183
43.368446
45.60535
46.079282
42.358652
41.93975
41.871285
42.931111
49.576861
50.069277
50.098664
43.430315
43.367087
44.995248
42.327657
41.877899
41.785859
42.972608
50.069277
51.072934
40.116553
44.824387
42.571163
43.0569
41.946751
41.673158
41.650217
43.111183
50.098664
40.116553
44.908884
12.975173
14.000773
14.498074
10.466535
10.264672
10.384244
10.875063
12.888664
13.231316
14.228335
14.000774
15.674564
12.832101
9.5886473
9.4967127
9.6701515
10.704911
15.016615
13.728057
12.776542
14.498074
12.832101
11.270382
8.1859533
8.0671368
8.158013
9.212414
14.665045
14.40515
12.805672
10.466535
9.5886473
8.1859533
5.1118001
4.9675284
4.9902138
5.941266
11.661907
12.259153
11.917457
10.264672
9.4967127
8.0671368
4.9675284
4.8008285
4.7862004
5.6565927
11.300128
11.870327
11.674271
10.384244
9.6701515
8.158013
4.9902138
4.7862004
4.7495066
5.5926397
11.207536
11.758457
11.62547
10.875063
10.704911
9.212414
5.941266
5.6565927
5.5926397
6.4354527
12.087744
12.753857
12.873117
12.888664
15.016615
14.665045
11.661907
11.300128
11.207536
12.087744
17.907478
18.987904
19.051116
13.231315
13.728057
14.40515
12.259153
11.870327
11.758457
12.753857
18.987904
20.576493
11.014912
14.228335
12.776542
12.805672
11.917457
11.674271
11.62547
12.873117
19.051116
11.014912
14.284802
-17.166532
-15.168647
-16.008605
-19.136752
-19.28996
-19.205002
-18.801725
-17.034208
-16.453423
-15.841586
-15.168647
-14.166887
-17.170671
-19.683154
-19.752559
-19.62644
-18.763726
-14.996006
-15.442997
-16.564051
-16.008605
-17.170671
-19.184236
-21.574694
-21.66903
-21.617087
-20.75139
-16.048693
-15.591428
-16.92528
-19.136752
-19.683154
-21.574694
-23.958789
-24.075976
-24.08361
-23.309522
-18.39508
-17.261814
-17.612461
-19.28996
-19.752559
-21.66903
-24.075976
-24.213518
-24.254224
-23.549488
-18.700012
-17.590545
-17.824708
-19.205002
-19.62644
-21.617087
-24.08361
-24.254224
-24.315124
-23.634704
-18.809791
-17.715767
-17.893594
-18.801725
-18.763726
-20.75139
-23.309522
-23.549488
-23.634704
-22.955087
-18.09718
-16.900293
-16.850159
-17.034208
-14.996006
-16.048693
-18.39508
-18.700012
-18.809791
-18.09718
-13.089693
-11.518108
-11.479696
-16.453423
-15.442997
-15.591428
-17.261814
-17.590545
-17.715767
-16.900293
-11.518108
-9.4523443
-17.686664
-15.841586
-16.564051
-16.92528
-17.612461
-17.824708
-17.893594
-16.850159
-11.479696
-17.686664
-15.854825
-39.399978
-36.582578
-38.524459
-40.846738
-40.954072
-40.898339
-40.575798
-39.049761
-38.27287
-38.022849
-36.582578
-36.11278
-39.209313
-41.067617
-41.114227
-41.028738
-40.326655
-37.090546
-36.807957
-38.100553
-38.524459
-39.209313
-41.571146
-43.340419
-43.409975
-43.390234
-42.69906
-38.719091
-37.652181
-38.784291
-40.846738
-41.067617
-43.340419
-45.106806
-45.196705
-45.22829
-44.617223
-40.477047
-38.898224
-39.293421
-40.954072
-41.114227
-43.409975
-45.196705
-45.304937
-45.365521
-44.81316
-40.726943
-39.169357
-39.47539
-40.898339
-41.028738
-43.390234
-45.22829
-45.365521
-45.444438
-44.91354
-40.848124
-39.302665
-39.559523
-40.575798
-40.326655
-42.69906
-44.617223
-44.81316
-44.91354
-44.383899
-40.289897
-38.654098
-38.708531
-39.049761
-37.090546
-38.719091
-40.477047
-40.726943
-40.848124
-40.289897
-36.06442
-34.095142
-34.125066
-38.27287
-36.807957
-37.652181
-38.898224
-39.169357
-39.302665
-38.654098
-34.095142
-31.654525
-38.643112
-38.022849
-38.100553
-38.784291
-39.293421
-39.47539
-39.559523
-38.708531
-34.125066
-38.643112
-38.139444
-49.501164
-46.027832
-48.83915
-50.458495
-50.523638
-50.49223
-50.243287
-48.94965
-48.017612
-48.096447
-46.027832
-45.96348
-49.088538
-50.374278
-50.398668
-50.34768
-49.793494
-47.066283
-46.167821
-47.622759
-48.83915
-49.088538
-51.698464
-52.923947
-52.969345
-52.975927
-52.444027
-49.14675
-47.576949
-48.561141
-50.458495
-50.374278
-52.923947
-54.149578
-54.212967
-54.26318
-53.800505
-50.389394
-48.453165
-48.916445
-50.523638
-50.398668
-52.969345
-54.212967
-54.292769
-54.368156
-53.954405
-50.587564
-48.670706
-49.069879
-50.49223
-50.34768
-52.975927
-54.26318
-54.368156
-54.460061
-54.065069
-50.715631
-48.808114
-49.165423
-50.243287
-49.793494
-52.444027
-53.800505
-53.954405
-54.065069
-53.671731
-50.29799
-48.31248
-48.493109
-48.94965
-47.066283
-49.14675
-50.389394
-50.587564
-50.715631
-50.29799
-46.810585
-44.533034
-44.659958
-48.017612
-46.167821
-47.576949
-48.453165
-48.670706
-48.808114
-48.31248
-44.533034
-41.813499
-47.648984
-48.096447
-47.622759
-48.561141
-48.916445
-49.069879
-49.165423
-48.493109
-44.659958
-47.648984
-48.341493
-46.551845
-42.592191
-46.047465
-47.068946
-47.096529
-47.085165
-46.902587
-45.828621
-44.780838
-45.147993
-42.592191
-42.821004
-45.914883
-46.712028
-46.715731
-46.693784
-46.273915
-44.024545
-42.623501
-44.221605
-46.047465
-45.914883
-48.677435
-49.438764
-49.461623
-49.489519
-49.101013
-46.436315
-44.468237
-45.34815
-47.068946
-46.712028
-49.438764
-50.202813
-50.241503
-50.306008
-49.976714
-47.23906
-45.030542
-45.574305
-47.096529
-46.715731
-49.461623
-50.241503
-50.294806
-50.380963
-50.091804
-47.390103
-45.199717
-45.701797
-47.085165
-46.693784
-49.489519
-50.306008
-50.380963
-50.481896
-50.208972
-47.521666
-45.338351
-45.805769
-46.902587
-46.273915
-49.101013
-49.976714
-50.091804
-50.208972
-49.938029
-47.230473
-44.981021
-45.29682
-45.828621
-44.024545
-46.436315
-47.23906
-47.390103
-47.521666
-47.230473
-44.426327
-41.925267
-42.16409
-44.780838
-42.623501
-44.468237
-45.030542
-45.199717
-45.338351
-44.981021
-41.925267
-39.015796
-43.798791
-45.147993
-44.221605
-45.34815
-45.574305
-45.701797
-45.805769
-45.29682
-42.16409
-43.798791
-45.537615
-32.453325
-28.178435
-32.062754
-32.590782
-32.5863
-32.591301
-32.467832
-31.597887
-30.471725
-31.081089
-28.178435
-28.602532
-31.610288
-32.002962
-31.988437
-31.990685
-31.690962
-29.881935
-28.089188
-29.802844
-32.062754
-31.610287
-34.435834
-34.812788
-34.815657
-34.860596
-34.599178
-32.509472
-30.244241
-31.053649
-32.590782
-32.002962
-34.812789
-35.194555
-35.211292
-35.286554
-35.075335
-32.947826
-30.548343
-31.175082
-32.5863
-31.988437
-34.815657
-35.211292
-35.240977
-35.334694
-35.155866
-33.057337
-30.675244
-31.279799
-32.591301
-31.990685
-34.860596
-35.286554
-35.334694
-35.441528
-35.276615
-33.189867
-30.813057
-31.389819
-32.467832
-31.690962
-34.599178
-35.075335
-35.155866
-35.276615
-35.113927
-33.010679
-30.578855
-31.027685
-31.597887
-29.881935
-32.509472
-32.947826
-33.057337
-33.189867
-33.010679
-30.826831
-28.181841
-28.535398
-30.471725
-28.089188
-30.244241
-30.548343
-30.675244
-30.813057
-30.578855