/*--------------------------------*- C++ -*----------------------------------*\
| =========                 |                                                 |
| \\      /  F ield         | OpenFOAM: The Open Source CFD Toolbox           |
|  \\    /   O peration     | Version:  v2106                                 |
|   \\  /    A nd           | Website:  www.openfoam.com                      |
|    \\/     M anipulation  |                                                 |
\*---------------------------------------------------------------------------*/
FoamFile
{
    version     2.0;
    format      ascii;
    arch        "LSB;label=32;scalar=64";
    class       volScalarField;
    location    "100";
    object      Tmode7;
}
// * * * * * * * * * * * * * * * * * * * * * * * * * * * * * * * * * * * * * //

dimensions      [0 0 0 0 0 0 0];

internalField   nonuniform List<scalar> 
4000
(
0.013235472
0.013237488
0.013233543
0.013235643
0.013235668
0.013235543
0.01323547
0.013235432
0.013235369
0.013234949
0.013237488
0.013235361
0.013234118
0.013235718
0.013235649
0.013235517
0.013235434
0.013235434
0.013235715
0.013235501
0.013233543
0.013234118
0.013232485
0.013233966
0.013233887
0.013233757
0.013233629
0.013233488
0.013233877
0.013234551
0.013235643
0.013235718
0.013233966
0.013235429
0.013235359
0.013235251
0.013235131
0.013234865
0.013234858
0.013235083
0.013235668
0.013235649
0.013233887
0.013235359
0.013235302
0.013235216
0.01323514
0.013234934
0.013234958
0.013235178
0.013235543
0.013235517
0.013233757
0.013235251
0.013235216
0.013235142
0.013235084
0.013234902
0.013234954
0.013235193
0.01323547
0.013235434
0.013233629
0.013235131
0.01323514
0.013235084
0.013235033
0.013234858
0.013234914
0.013235154
0.013235432
0.013235434
0.013233488
0.013234865
0.013234934
0.013234902
0.013234858
0.013234682
0.013234734
0.013234967
0.013235369
0.013235715
0.013233877
0.013234858
0.013234958
0.013234954
0.013234914
0.013234734
0.013234783
0.013235008
0.013234949
0.013235501
0.013234551
0.013235083
0.013235178
0.013235193
0.013235154
0.013234967
0.013235008
0.013235154
-0.039018719
-0.03901529
-0.039030884
-0.039020697
-0.039020243
-0.039021037
-0.039021576
-0.039021881
-0.03902237
-0.039026422
-0.03901529
-0.039017922
-0.039024808
-0.039016625
-0.039016634
-0.039017476
-0.039018131
-0.039018222
-0.039015823
-0.039019739
-0.039030884
-0.039024808
-0.039032342
-0.039024722
-0.039024815
-0.039025645
-0.039026632
-0.039027781
-0.039024209
-0.03902349
-0.039020697
-0.039016625
-0.039024722
-0.039017247
-0.039017284
-0.039017946
-0.03901888
-0.039020981
-0.0390197
-0.039021136
-0.039020243
-0.039016634
-0.039024815
-0.039017284
-0.039017212
-0.039017691
-0.039018297
-0.039020065
-0.039018738
-0.03902032
-0.039021037
-0.039017476
-0.039025645
-0.039017946
-0.039017691
-0.039018043
-0.039018495
-0.039020066
-0.039018567
-0.039020042
-0.039021576
-0.039018131
-0.039026632
-0.03901888
-0.039018297
-0.039018495
-0.039018873
-0.039020392
-0.039018865
-0.039020353
-0.039021881
-0.039018222
-0.039027781
-0.039020981
-0.039020065
-0.039020066
-0.039020392
-0.039021917
-0.039020417
-0.039021974
-0.03902237
-0.039015823
-0.039024209
-0.0390197
-0.039018738
-0.039018567
-0.039018865
-0.039020417
-0.039018916
-0.03902048
-0.039026422
-0.039019739
-0.03902349
-0.039021136
-0.03902032
-0.039020042
-0.039020353
-0.039021974
-0.03902048
-0.039022933
0.0052345311
0.0052411792
0.0052324552
0.0052429466
0.00524303
0.0052418006
0.0052408367
0.0052403545
0.0052413203
0.0052330966
0.0052411792
0.0052408213
0.005238497
0.0052467981
0.0052464007
0.0052451243
0.0052436735
0.0052425296
0.0052498665
0.0052452383
0.0052324552
0.005238497
0.0052353623
0.0052430282
0.0052425947
0.0052414783
0.0052395771
0.0052357576
0.0052428444
0.0052426487
0.0052429466
0.0052467981
0.0052430282
0.0052505314
0.005250217
0.0052494668
0.0052479496
0.0052431014
0.0052475645
0.005245143
0.00524303
0.0052464007
0.0052425947
0.005250217
0.0052500814
0.005249634
0.0052486581
0.0052443093
0.0052488538
0.0052462853
0.0052418006
0.0052451243
0.0052414783
0.0052494668
0.005249634
0.0052494031
0.0052486818
0.0052446301
0.0052494033
0.0052469519
0.0052408367
0.0052436735
0.0052395771
0.0052479496
0.0052486581
0.0052486818
0.0052480775
0.0052440891
0.0052488644
0.0052462829
0.0052403545
0.0052425296
0.0052357576
0.0052431014
0.0052443093
0.0052446301
0.0052440891
0.0052400701
0.0052448154
0.0052420926
0.0052413203
0.0052498665
0.0052428444
0.0052475645
0.0052488538
0.0052494033
0.0052488644
0.0052448154
0.0052499117
0.0052479797
0.0052330966
0.0052452383
0.0052426487
0.005245143
0.0052462853
0.0052469519
0.0052462829
0.0052420926
0.0052479797
0.0052391033
0.029529216
0.029545778
0.02954215
0.029550388
0.029549765
0.029548277
0.02954673
0.029544872
0.029547074
0.029539596
0.029545778
0.029554748
0.029554749
0.029560966
0.029560004
0.029558667
0.029556527
0.029552144
0.029559188
0.029554321
0.02954215
0.029554749
0.029553774
0.029559396
0.029558495
0.029557587
0.029555444
0.029548162
0.029554378
0.029553271
0.029550388
0.029560966
0.029559396
0.029564891
0.029564173
0.029563789
0.029562363
0.029554329
0.029558299
0.029555445
0.029549765
0.029560004
0.029558495
0.029564173
0.029563701
0.029563711
0.029562975
0.029555556
0.029559698
0.029556786
0.029548277
0.029558667
0.029557587
0.029563789
0.029563711
0.029564007
0.029563593
0.029556513
0.029560886
0.029558056
0.02954673
0.029556527
0.029555444
0.029562363
0.029562975
0.029563593
0.029563305
0.029556243
0.029560508
0.029557303
0.029544872
0.029552144
0.029548162
0.029554329
0.029555556
0.029556513
0.029556243
0.029549042
0.029553235
0.029549855
0.029547074
0.029559188
0.029554378
0.029558299
0.029559698
0.029560886
0.029560508
0.029553235
0.029558828
0.029559757
0.029539596
0.029554321
0.029553271
0.029555445
0.029556786
0.029558056
0.029557303
0.029549855
0.029559757
0.029546921
0.023643241
0.023662524
0.023660833
0.023665703
0.0236644
0.023663142
0.023661698
0.023658207
0.023657772
0.023648102
0.023662524
0.023674419
0.023674218
0.023677442
0.023675979
0.023675148
0.023673634
0.023667605
0.02367106
0.023662774
0.023660833
0.023674218
0.023673059
0.023675817
0.023674506
0.023674279
0.023673199
0.0236648
0.023667641
0.023662548
0.023665703
0.023677442
0.023675817
0.023678531
0.023677476
0.023677878
0.023677737
0.023668985
0.023670288
0.023664134
0.0236644
0.023675979
0.023674506
0.023677476
0.023676731
0.023677592
0.023678215
0.023670138
0.023671718
0.023665631
0.023663142
0.023675148
0.023674279
0.023677878
0.023677592
0.023678785
0.023679759
0.023672009
0.023673774
0.023667705
0.023661698
0.023673634
0.023673199
0.023677737
0.023678215
0.023679759
0.02368083
0.023672977
0.023674391
0.023667559
0.023658207
0.023667605
0.0236648
0.023668985
0.023670138
0.023672009
0.023672977
0.023664662
0.023665474
0.023657828
0.023657772
0.02367106
0.023667641
0.023670288
0.023671718
0.023673774
0.023674391
0.023665474
0.023667738
0.023667781
0.023648102
0.023662774
0.023662548
0.023664134
0.023665631
0.023667705
0.023667559
0.023657828
0.023667781
0.02365212
0.0033015444
0.003321005
0.0033192191
0.0033206333
0.0033188549
0.0033182423
0.0033179154
0.00331493
0.0033133583
0.0033027544
0.003321005
0.0033333043
0.0033315384
0.0033317593
0.0033299877
0.0033299478
0.0033299351
0.0033249134
0.0033264847
0.0033161263
0.0033192191
0.0033315384
0.0033289601
0.0033288904
0.003327373
0.0033280628
0.0033288144
0.0033222263
0.0033237244
0.0033161082
0.0033206333
0.0033317593
0.0033288904
0.0033288688
0.0033276701
0.0033290455
0.0033308485
0.0033243038
0.0033250351
0.0033170366
0.0033188549
0.0033299877
0.003327373
0.0033276701
0.0033268243
0.0033286885
0.0033312611
0.0033254014
0.0033265002
0.0033186833
0.0033182423
0.0033299478
0.0033280628
0.0033290455
0.0033286885
0.0033309056
0.0033338261
0.003328258
0.0033294891
0.0033216331
0.0033179154
0.0033299351
0.0033288144
0.0033308485
0.0033312611
0.0033338261
0.0033368135
0.0033310476
0.0033317337
0.003322818
0.00331493
0.0033249134
0.0033222263
0.0033243038
0.0033254014
0.003328258
0.0033310476
0.0033245482
0.0033240458
0.0033134452
0.0033133583
0.0033264847
0.0033237244
0.0033250351
0.0033265002
0.0033294891
0.0033317337
0.0033240458
0.003324124
0.0033220728
0.0033027544
0.0033161263
0.0033161082
0.0033170366
0.0033186833
0.0033216331
0.003322818
0.0033134452
0.0033220728
0.003304841
-0.015761314
-0.015743317
-0.015746294
-0.01574777
-0.01574972
-0.015749496
-0.015748383
-0.015749771
-0.015751116
-0.015761327
-0.015743317
-0.015732322
-0.015736121
-0.015738343
-0.015740122
-0.015739204
-0.015737436
-0.015740089
-0.015738799
-0.01574964
-0.015746294
-0.015736121
-0.015740526
-0.015742869
-0.015744323
-0.015742618
-0.015739872
-0.015743249
-0.015741403
-0.015749827
-0.01574777
-0.015738343
-0.015742869
-0.015745086
-0.01574619
-0.015743801
-0.015739995
-0.015743001
-0.015741238
-0.015749485
-0.01574972
-0.015740122
-0.015744323
-0.01574619
-0.015746929
-0.015744064
-0.015739545
-0.015741904
-0.015739721
-0.01574771
-0.015749496
-0.015739204
-0.015742618
-0.015743801
-0.015744064
-0.015740862
-0.015736035
-0.015738167
-0.015735919
-0.015744004
-0.015748383
-0.015737436
-0.015739872
-0.015739995
-0.015739545
-0.015736035
-0.015731191
-0.015733599
-0.015732011
-0.015741281
-0.015749771
-0.015740089
-0.015743249
-0.015743001
-0.015741904
-0.015738167
-0.015733599
-0.015736896
-0.015736843
-0.01574833
-0.015751116
-0.015738799
-0.015741403
-0.015741238
-0.015739721
-0.015735919
-0.015732011
-0.015736843
-0.015737115
-0.015740971
-0.015761327
-0.01574964
-0.015749827
-0.015749485
-0.01574771
-0.015744004
-0.015741281
-0.01574833
-0.015740971
-0.01575851
-0.025192861
-0.025176541
-0.025181095
-0.025184598
-0.025186406
-0.025185248
-0.025182589
-0.02518185
-0.025182069
-0.02519108
-0.025176541
-0.025167313
-0.025173013
-0.025176886
-0.025178429
-0.025176548
-0.025173023
-0.025172761
-0.025170671
-0.025180924
-0.025181095
-0.025173013
-0.025179086
-0.025182938
-0.025184128
-0.025181486
-0.025176898
-0.025176632
-0.025173409
-0.02518146
-0.025184598
-0.025176886
-0.025182938
-0.025186606
-0.02518745
-0.025184181
-0.025178609
-0.025177749
-0.02517409
-0.025181567
-0.025186406
-0.025178429
-0.025184128
-0.02518745
-0.025187951
-0.025184256
-0.025178071
-0.025176636
-0.025172544
-0.025179725
-0.025185248
-0.025176548
-0.025181486
-0.025184181
-0.025184256
-0.025180269
-0.025173841
-0.025172256
-0.025168167
-0.025175492
-0.025182589
-0.025173023
-0.025176898
-0.025178609
-0.025178071
-0.025173841
-0.025167452
-0.025166211
-0.025162847
-0.025171366
-0.02518185
-0.025172761
-0.025176632
-0.025177749
-0.025176636
-0.025172256
-0.025166211
-0.025165941
-0.025164265
-0.025175182
-0.025182069
-0.025170671
-0.025173409
-0.02517409
-0.025172544
-0.025168167
-0.025162847
-0.025164265
-0.025163614
-0.025168678
-0.02519108
-0.025180924
-0.02518146
-0.025181567
-0.025179725
-0.025175492
-0.025171366
-0.025175182
-0.025168678
-0.025185637
-0.023742938
-0.023727977
-0.023734073
-0.023738691
-0.023740161
-0.023738212
-0.023734273
-0.02373148
-0.023730261
-0.023737855
-0.023727977
-0.023720386
-0.02372755
-0.023732249
-0.023733418
-0.023730798
-0.02372591
-0.023722923
-0.023719578
-0.023728806
-0.023734073
-0.02372755
-0.023734868
-0.023739441
-0.023740271
-0.023736977
-0.023731053
-0.02372752
-0.023722598
-0.02372974
-0.023738691
-0.023732249
-0.023739441
-0.023743806
-0.023744326
-0.023740506
-0.023733739
-0.023729503
-0.023723818
-0.023730161
-0.023740161
-0.023733418
-0.023740271
-0.023744326
-0.023744558
-0.023740395
-0.023733142
-0.023728427
-0.023722325
-0.023728363
-0.023738212
-0.023730798
-0.023736977
-0.023740506
-0.023740395
-0.023736007
-0.023728581
-0.023723782
-0.023717726
-0.023723925
-0.023734273
-0.02372591
-0.023731053
-0.023733739
-0.023733142
-0.023728581
-0.023721236
-0.023716803
-0.023711464
-0.023718764
-0.02373148
-0.023722923
-0.02372752
-0.023729503
-0.023728427
-0.023723782
-0.023716803
-0.023713332
-0.023709666
-0.023719289
-0.023730261
-0.023719578
-0.023722598
-0.023723818
-0.023722325
-0.023717726
-0.023711464
-0.023709666
-0.023707485
-0.023713277
-0.023737855
-0.023728806
-0.02372974
-0.023730161
-0.023728363
-0.023723925
-0.023718764
-0.023719289
-0.023713277
-0.023729261
-0.014460911
-0.014446768
-0.014454119
-0.014459039
-0.014460073
-0.014457606
-0.014452863
-0.01444849
-0.014445967
-0.014452353
-0.014446768
-0.014440407
-0.014448496
-0.014453302
-0.014454046
-0.014451006
-0.014445334
-0.014440263
-0.014435688
-0.014443926
-0.014454119
-0.014448496
-0.014456564
-0.014461193
-0.014461647
-0.014458062
-0.014451466
-0.014445511
-0.014439063
-0.014445254
-0.014459039
-0.014453302
-0.014461193
-0.014465627
-0.014465836
-0.014461853
-0.014454591
-0.01444793
-0.014440571
-0.014445884
-0.014460073
-0.014454046
-0.014461647
-0.014465836
-0.014465835
-0.014461611
-0.014454002
-0.014446969
-0.014439238
-0.014444265
-0.014457606
-0.014451006
-0.014458062
-0.014461853
-0.014461611
-0.014457241
-0.014449531
-0.014442467
-0.014434797
-0.014439969
-0.014452863
-0.014445334
-0.014451466
-0.014454591
-0.014454002
-0.014449531
-0.014441924
-0.014435201
-0.014428171
-0.014434272
-0.01444849
-0.014440263
-0.014445511
-0.01444793
-0.014446969
-0.014442467
-0.014435201
-0.014429344
-0.01442383
-0.014432009
-0.014445967
-0.014435688
-0.014439063
-0.014440571
-0.014439238
-0.014434797
-0.014428171
-0.01442383
-0.01442003
-0.01442626
-0.014452353
-0.014443926
-0.014445254
-0.014445884
-0.014444265
-0.014439969
-0.014434272
-0.014432009
-0.01442626
-0.01444128
-0.001870608
-0.0018566733
-0.0018649414
-0.001869586
-0.0018702033
-0.0018675337
-0.0018625155
-0.0018572043
-0.0018537524
-0.0018593581
-0.0018566733
-0.0018510539
-0.0018596089
-0.0018640408
-0.0018644146
-0.0018612999
-0.0018554454
-0.0018491101
-0.0018435932
-0.0018511343
-0.0018649414
-0.0018596089
-0.0018680266
-0.0018722802
-0.0018724379
-0.0018689246
-0.0018623087
-0.0018549338
-0.0018473833
-0.0018528454
-0.001869586
-0.0018640408
-0.0018722802
-0.0018763791
-0.001876373
-0.0018725958
-0.0018654986
-0.0018574875
-0.0018490161
-0.0018536294
-0.0018702033
-0.0018644146
-0.0018724379
-0.001876373
-0.0018762409
-0.0018723231
-0.0018650089
-0.0018567311
-0.0018479465
-0.0018523089
-0.0018675337
-0.0018612999
-0.0018689246
-0.0018725958
-0.0018723231
-0.0018683356
-0.0018609834
-0.0018527094
-0.0018439833
-0.0018484546
-0.0018625155
-0.0018554454
-0.0018623087
-0.0018654986
-0.0018650089
-0.0018609834
-0.0018537396
-0.0018457535
-0.0018375413
-0.0018427262
-0.0018572043
-0.0018491101
-0.0018549338
-0.0018574875
-0.0018567311
-0.0018527094
-0.0018457535
-0.0018384764
-0.0018315314
-0.00183845
-0.0018537524
-0.0018435932
-0.0018473833
-0.0018490161
-0.0018479465
-0.0018439833
-0.0018375413
-0.0018315314
-0.0018263247
-0.0018328347
-0.0018593581
-0.0018511343
-0.0018528454
-0.0018536294
-0.0018523089
-0.0018484546
-0.0018427262
-0.00183845
-0.0018328347
-0.0018471394
0.0099445818
0.0099587797
0.0099498391
0.0099457681
0.0099454541
0.0099480204
0.0099528419
0.0099584601
0.0099624042
0.0099571169
0.0099587797
0.009964042
0.009955299
0.0099514649
0.0099513239
0.0099542014
0.0099597229
0.0099665343
0.009972626
0.0099654237
0.0099498391
0.009955299
0.0099467589
0.0099430729
0.0099430675
0.0099462016
0.0099523052
0.0099601732
0.009968363
0.0099633314
0.0099457681
0.0099514649
0.0099430729
0.0099394877
0.0099395678
0.0099428469
0.0099492649
0.0099576593
0.0099666906
0.0099624168
0.0099454541
0.0099513239
0.0099430675
0.0099395678
0.0099396985
0.0099430338
0.0099495651
0.0099581391
0.0099674244
0.0099633605
0.0099480204
0.0099542014
0.0099462016
0.0099428469
0.0099430338
0.0099463794
0.0099529055
0.0099614594
0.0099707047
0.0099665773
0.0099528419
0.0099597229
0.0099523052
0.0099492649
0.0099495651
0.0099529055
0.0099593337
0.0099676713
0.0099765464
0.0099719271
0.0099584601
0.0099665343
0.0099601732
0.0099576593
0.0099581391
0.0099614594
0.0099676713
0.0099754817
0.0099833805
0.0099774075
0.0099624042
0.009972626
0.009968363
0.0099666906
0.0099674244
0.0099707047
0.0099765464
0.0099833805
0.009989667
0.0099829906
0.0099571169
0.0099654237
0.0099633314
0.0099624168
0.0099633605
0.0099665773
0.0099719271
0.0099774075
0.0099829906
0.0099690751
0.018257919
0.018272608
0.018263116
0.018259703
0.018259552
0.018261789
0.018266084
0.018271518
0.018275594
0.018270258
0.018272608
0.018277711
0.018268886
0.01826569
0.018265636
0.018268064
0.01827291
0.018279589
0.018285953
0.018278805
0.018263116
0.018268886
0.018260299
0.018257209
0.018257218
0.018259783
0.018265042
0.018272705
0.018281173
0.018276334
0.018259703
0.01826569
0.018257209
0.018254167
0.018254198
0.018256816
0.018262255
0.018270321
0.018279503
0.018275304
0.018259552
0.018265636
0.018257218
0.018254198
0.018254222
0.018256836
0.018262316
0.018270498
0.018279883
0.018275854
0.018261789
0.018268064
0.018259783
0.018256816
0.018256836
0.018259421
0.018264874
0.018273036
0.018282409
0.018278361
0.018266084
0.01827291
0.018265042
0.018262255
0.018262316
0.018264874
0.018270252
0.018278275
0.018287416
0.018283076
0.018271518
0.018279589
0.018272705
0.018270321
0.018270498
0.018273036
0.018278275
0.018285949
0.018294401
0.018289075
0.018275594
0.018285953
0.018281173
0.018279503
0.018279883
0.018282409
0.018287416
0.018294401
0.018301463
0.018294742
0.018270258
0.018278805
0.018276334
0.018275304
0.018275854
0.018278361
0.018283076
0.018289075
0.018294742
0.018280932
0.021872346
0.021887536
0.021877536
0.021874753
0.021874658
0.021876462
0.021880078
0.021885042
0.021889037
0.021883438
0.021887536
0.02189252
0.021883619
0.021881012
0.021880949
0.021882847
0.021886877
0.02189306
0.021899528
0.021892283
0.021877536
0.021883619
0.021874978
0.021872435
0.021872381
0.021874328
0.021878628
0.021885671
0.021894218
0.021889453
0.021874753
0.021881012
0.021872435
0.0218699
0.021869823
0.02187176
0.021876141
0.021883468
0.021892584
0.021888333
0.021874658
0.021880949
0.021872381
0.021869823
0.021869702
0.021871597
0.021875976
0.021883375
0.021892651
0.021888534
0.021876462
0.021882847
0.021874328
0.02187176
0.021871597
0.021873445
0.021877789
0.02188518
0.021894471
0.021890373
0.021880078
0.021886877
0.021878628
0.021876141
0.021875976
0.021877789
0.021882086
0.021889406
0.021898585
0.021894353
0.021885042
0.02189306
0.021885671
0.021883468
0.021883375
0.02188518
0.021889406
0.021896531
0.021905272
0.021900377
0.021889037
0.021899528
0.021894218
0.021892584
0.021892651
0.021894471
0.021898585
0.021905272
0.021912889
0.021906267
0.021883438
0.021892283
0.021889453
0.021888333
0.021888534
0.021890373
0.021894353
0.021900377
0.021906267
0.021892375
0.020867488
0.020883057
0.020872575
0.02087035
0.02087027
0.020871651
0.020874594
0.020878989
0.020882835
0.020876911
0.020883057
0.020887876
0.020878876
0.020876787
0.020876689
0.020878095
0.020881335
0.02088688
0.020893411
0.020886048
0.020872575
0.020878876
0.020870156
0.020868099
0.020867973
0.020869369
0.020872768
0.020879029
0.0208876
0.020882899
0.02087035
0.020876787
0.020868099
0.020866023
0.020865848
0.020867196
0.020870609
0.020877044
0.020886039
0.020881733
0.02087027
0.020876689
0.020867973
0.020865848
0.020865608
0.020866897
0.020870284
0.020876761
0.020885879
0.020881671
0.020871651
0.020878095
0.020869369
0.020867196
0.020866897
0.020868132
0.020871487
0.020877967
0.020887121
0.020882956
0.020874594
0.020881335
0.020872768
0.020870609
0.020870284
0.020871487
0.020874818
0.020881282
0.02089041
0.020886223
0.020878989
0.02088688
0.020879029
0.020877044
0.020876761
0.020877967
0.020881282
0.020887666
0.020896557
0.020891969
0.020882835
0.020893411
0.0208876
0.020886039
0.020885879
0.020887121
0.02089041
0.020896557
0.020904592
0.020898228
0.020876911
0.020886048
0.020882899
0.020881733
0.020881671
0.020882956
0.020886223
0.020891969
0.020898228
0.020884169
0.01617683
0.016192607
0.016181689
0.016179958
0.016179903
0.016180947
0.016183322
0.016187181
0.016190905
0.016184696
0.016192607
0.016197197
0.016188092
0.016186462
0.016186356
0.016187381
0.016189961
0.016194877
0.016201504
0.016194085
0.016181689
0.016188092
0.016179289
0.016177672
0.016177518
0.016178497
0.01618115
0.016186633
0.01619526
0.016190678
0.016179958
0.016186462
0.016177672
0.016176021
0.016175805
0.016176718
0.016179342
0.0161849
0.016193813
0.016189518
0.016179903
0.016186356
0.016177518
0.016175805
0.016175517
0.016176365
0.016178951
0.016184531
0.01619353
0.016189299
0.016180947
0.016187381
0.016178497
0.016176718
0.016176365
0.016177157
0.016179716
0.016185305
0.016194352
0.016190173
0.016183322
0.016189961
0.01618115
0.016179342
0.016178951
0.016179716
0.016182268
0.016187875
0.016196951
0.016192817
0.016187181
0.016194877
0.016186633
0.0161849
0.016184531
0.016185305
0.016187875
0.016193482
0.016202464
0.01619813
0.016190905
0.016201504
0.01619526
0.016193813
0.01619353
0.016194352
0.016196951
0.016202464
0.016210843
0.016204876
0.016184696
0.016194085
0.016190678
0.016189518
0.016189299
0.016190173
0.016192817
0.01619813
0.016204876
0.016190644
0.0091597773
0.009175593
0.0091643229
0.0091630364
0.0091630521
0.0091638735
0.0091658223
0.0091692379
0.0091729053
0.0091665043
0.009175593
0.0091799088
0.0091707272
0.009169521
0.0091694651
0.0091702407
0.0091723213
0.0091766912
0.0091834699
0.0091760881
0.0091643229
0.0091707272
0.0091618751
0.009160672
0.009160559
0.0091612701
0.0091633594
0.0091681519
0.0091768869
0.0091724967
0.0091630364
0.009169521
0.009160672
0.0091594285
0.0091592501
0.0091598885
0.0091619181
0.0091666983
0.0091755926
0.0091713943
0.0091630521
0.0091694651
0.009160559
0.0091592501
0.0091589996
0.0091595714
0.0091615589
0.0091663395
0.0091752847
0.0091711143
0.0091638735
0.0091702407
0.0091612701
0.0091598885
0.0091595714
0.0091600897
0.0091620512
0.0091668432
0.0091758343
0.0091717134
0.0091658223
0.0091723213
0.0091633594
0.0091619181
0.0091615589
0.0091620512
0.0091640141
0.0091688396
0.0091778879
0.0091738436
0.0091692379
0.0091766912
0.0091681519
0.0091666983
0.0091663395
0.0091668432
0.0091688396
0.00917371
0.0091827601
0.0091786608
0.0091729053
0.0091834699
0.0091768869
0.0091755926
0.0091752847
0.0091758343
0.0091778879
0.0091827601
0.0091914288
0.0091859662
0.0091665043
0.0091760881
0.0091724967
0.0091713943
0.0091711143
0.0091717134
0.0091738436
0.0091786608
0.0091859662
0.0091716026
0.0012530985
0.0012688123
0.0012573046
0.0012564335
0.0012565743
0.0012572833
0.0012589378
0.0012620084
0.0012656789
0.0012591873
0.0012688123
0.0012728389
0.0012636435
0.0012628435
0.0012629018
0.0012635494
0.0012652766
0.0012691961
0.0012761593
0.0012689028
0.0012573046
0.0012636435
0.0012548089
0.0012540097
0.0012540084
0.0012545807
0.0012562646
0.0012604711
0.0012693436
0.0012652032
0.0012564335
0.0012628435
0.0012540097
0.0012531692
0.0012531029
0.0012535996
0.0012552008
0.0012593147
0.0012682325
0.0012642
0.0012565743
0.0012629018
0.0012540084
0.0012531029
0.0012529656
0.001253396
0.0012549498
0.0012590418
0.0012679726
0.0012639316
0.0012572833
0.0012635494
0.0012545807
0.0012535996
0.001253396
0.0012537725
0.0012552982
0.0012593957
0.0012683622
0.0012643576
0.0012589378
0.0012652766
0.0012562646
0.0012552008
0.0012549498
0.0012552982
0.0012568246
0.0012609577
0.0012699885
0.0012660671
0.0012620084
0.0012691961
0.0012604711
0.0012593147
0.0012590418
0.0012593957
0.0012609577
0.001265156
0.0012742482
0.0012703758
0.0012656789
0.0012761593
0.0012693436
0.0012682325
0.0012679726
0.0012683622
0.0012699885
0.0012742482
0.001283151
0.0012782497
0.0012591873
0.0012689028
0.0012652032
0.0012642
0.0012639316
0.0012643576
0.0012660671
0.0012703758
0.0012782497
0.0012638181
-0.0062696473
-0.0062541431
-0.0062657522
-0.006266226
-0.0062659131
-0.0062652329
-0.0062637762
-0.0062609769
-0.006257274
-0.0062637703
-0.0062541431
-0.0062503907
-0.0062595132
-0.0062599151
-0.0062596896
-0.0062590816
-0.0062576028
-0.0062540593
-0.0062469194
-0.0062539882
-0.0062657522
-0.0062595132
-0.0062682424
-0.0062686411
-0.0062684756
-0.0062679512
-0.0062665611
-0.0062628565
-0.0062538597
-0.0062577247
-0.006266226
-0.0062599151
-0.0062686411
-0.0062690802
-0.0062689792
-0.0062685338
-0.0062672486
-0.0062637116
-0.0062547717
-0.0062586025
-0.0062659131
-0.0062596896
-0.0062684756
-0.0062689792
-0.0062689493
-0.0062685728
-0.0062673435
-0.0062638542
-0.0062549413
-0.0062588178
-0.0062652329
-0.0062590816
-0.0062679512
-0.0062685338
-0.0062685728
-0.0062682541
-0.0062670599
-0.0062635773
-0.0062546459
-0.0062585048
-0.0062637762
-0.0062576028
-0.0062665611
-0.0062672486
-0.0062673435
-0.0062670599
-0.0062658723
-0.0062623614
-0.0062533712
-0.0062571547
-0.0062609769
-0.0062540593
-0.0062628565
-0.0062637116
-0.0062638542
-0.0062635773
-0.0062623614
-0.0062587804
-0.0062496926
-0.0062533514
-0.006257274
-0.0062469194
-0.0062538597
-0.0062547717
-0.0062549413
-0.0062546459
-0.0062533712
-0.0062496926
-0.0062406287
-0.0062449585
-0.0062637703
-0.0062539882
-0.0062577247
-0.0062586025
-0.0062588178
-0.0062585048
-0.0062571547
-0.0062533514
-0.0062449585
-0.0062593909
-0.012434854
-0.012419639
-0.012431206
-0.012431297
-0.012430782
-0.012430082
-0.012428769
-0.012426204
-0.012422476
-0.012428916
-0.012419639
-0.012416125
-0.012425078
-0.012425089
-0.012424664
-0.012424045
-0.012422757
-0.01241955
-0.012412284
-0.012419133
-0.012431206
-0.012425078
-0.012433606
-0.01243361
-0.012433245
-0.01243272
-0.012431564
-0.012428312
-0.012419248
-0.012422845
-0.012431297
-0.012425089
-0.01243361
-0.012433653
-0.012433355
-0.012432916
-0.012431889
-0.012428876
-0.012419961
-0.012423589
-0.012430782
-0.012424664
-0.012433245
-0.012433355
-0.012433132
-0.012432769
-0.012431811
-0.012428875
-0.012420029
-0.012423739
-0.012430082
-0.012424045
-0.01243272
-0.012432916
-0.012432769
-0.012432472
-0.012431561
-0.012428649
-0.012419805
-0.012423519
-0.012428769
-0.012422757
-0.012431564
-0.012431889
-0.012431811
-0.012431561
-0.012430669
-0.01242774
-0.012418849
-0.012422502
-0.012426204
-0.01241955
-0.012428312
-0.012428876
-0.012428875
-0.012428649
-0.01242774
-0.012424744
-0.012415732
-0.012419201
-0.012422476
-0.012412284
-0.012419248
-0.012419961
-0.012420029
-0.012419805
-0.012418849
-0.012415732
-0.012406599
-0.012410386
-0.012428916
-0.012419133
-0.012422845
-0.012423589
-0.012423739
-0.012423519
-0.012422502
-0.012419201
-0.012410386
-0.012424757
-0.016621366
-0.016606502
-0.016617887
-0.016617615
-0.016616889
-0.016616153
-0.016614969
-0.016612635
-0.016608921
-0.016615269
-0.016606502
-0.016603183
-0.016611869
-0.016611504
-0.016610869
-0.016610226
-0.016609112
-0.016606235
-0.016598926
-0.01660555
-0.016617887
-0.016611869
-0.016620103
-0.016619726
-0.016619155
-0.016618619
-0.016617679
-0.016614864
-0.016605826
-0.016609188
-0.016617615
-0.016611504
-0.016619726
-0.01661939
-0.016618891
-0.016618452
-0.016617671
-0.016615161
-0.016606354
-0.016609804
-0.016616889
-0.016610869
-0.016619155
-0.016618891
-0.016618475
-0.016618124
-0.01661743
-0.016615032
-0.016606335
-0.016609903
-0.016616153
-0.016610226
-0.016618619
-0.016618452
-0.016618124
-0.016617851
-0.01661722
-0.016614865
-0.016606193
-0.016609787
-0.016614969
-0.016609112
-0.016617679
-0.016617671
-0.01661743
-0.01661722
-0.016616621
-0.016614264
-0.016605557
-0.016609103
-0.016612635
-0.016606235
-0.016614864
-0.016615161
-0.016615032
-0.016614865
-0.016614264
-0.016611843
-0.016602997
-0.016606308
-0.016608921
-0.016598926
-0.016605826
-0.016606354
-0.016606335
-0.016606193
-0.016605557
-0.016602997
-0.016593901
-0.016597201
-0.016615269
-0.01660555
-0.016609188
-0.016609804
-0.016609903
-0.016609787
-0.016609103
-0.016606308
-0.016597201
-0.016611455
-0.018552768
-0.018538306
-0.018549382
-0.018548771
-0.018547846
-0.018547085
-0.018546045
-0.018543963
-0.018540323
-0.018546561
-0.018538306
-0.018535135
-0.018543468
-0.01854275
-0.018541918
-0.018541264
-0.018540338
-0.018537809
-0.018530561
-0.018536971
-0.018549382
-0.018543468
-0.018551328
-0.018550595
-0.018549833
-0.018549302
-0.018548594
-0.018546224
-0.018537324
-0.0185405
-0.018548771
-0.01854275
-0.018550595
-0.018549907
-0.018549226
-0.018548809
-0.018548291
-0.01854629
-0.018537692
-0.018541006
-0.018547846
-0.018541918
-0.018549833
-0.018549226
-0.01854864
-0.018548326
-0.018547919
-0.018546064
-0.018537618
-0.018541083
-0.018547085
-0.018541264
-0.018549302
-0.018548809
-0.018548326
-0.018548108
-0.01854778
-0.018545989
-0.018537591
-0.018541102
-0.018546045
-0.018540338
-0.018548594
-0.018548291
-0.018547919
-0.01854778
-0.0185475
-0.01854572
-0.018537297
-0.01854077
-0.018543963
-0.018537809
-0.018546224
-0.01854629
-0.018546064
-0.018545989
-0.01854572
-0.01854388
-0.018535298
-0.018538488
-0.018540323
-0.018530561
-0.018537324
-0.018537692
-0.018537618
-0.018537591
-0.018537297
-0.018535298
-0.018526351
-0.018529234
-0.018546561
-0.018536971
-0.0185405
-0.018541006
-0.018541083
-0.018541102
-0.01854077
-0.018538488
-0.018529234
-0.01854332
-0.018251912
-0.018237901
-0.018248558
-0.018247643
-0.018246548
-0.018245791
-0.018244926
-0.018243132
-0.018239634
-0.018245754
-0.018237901
-0.01823484
-0.018242749
-0.018241713
-0.018240713
-0.018240078
-0.018239371
-0.018237221
-0.018230145
-0.01823636
-0.018248558
-0.018242749
-0.018250169
-0.018249117
-0.018248196
-0.018247704
-0.018247259
-0.018245355
-0.018236711
-0.018239753
-0.018247643
-0.018241713
-0.018249117
-0.018248117
-0.018247289
-0.018246932
-0.01824671
-0.018245233
-0.018236953
-0.018240176
-0.018246548
-0.018240713
-0.018248196
-0.018247289
-0.018246572
-0.018246336
-0.01824625
-0.018244954
-0.018236865
-0.01824027
-0.018245791
-0.018240078
-0.018247704
-0.018246932
-0.018246336
-0.018246214
-0.018246226
-0.018245016
-0.018236996
-0.018240462
-0.018244926
-0.018239371
-0.018247259
-0.01824671
-0.01824625
-0.018246226
-0.018246301
-0.018245112
-0.018237074
-0.018240508
-0.018243132
-0.018237221
-0.018245355
-0.018245233
-0.018244954
-0.018245016
-0.018245112
-0.018243861
-0.018235641
-0.018238746
-0.018239634
-0.018230145
-0.018236711
-0.018236953
-0.018236865
-0.018236996
-0.018237074
-0.018235641
-0.018226951
-0.01822949
-0.018245754
-0.01823636
-0.018239753
-0.018240176