/*--------------------------------*- C++ -*----------------------------------*\
| =========                 |                                                 |
| \\      /  F ield         | OpenFOAM: The Open Source CFD Toolbox           |
|  \\    /   O peration     | Version:  v2106                                 |
|   \\  /    A nd           | Website:  www.openfoam.com                      |
|    \\/     M anipulation  |                                                 |
\*---------------------------------------------------------------------------*/
FoamFile
{
    version     2.0;
    format      ascii;
    arch        "LSB;label=32;scalar=64";
    class       volScalarField;
    location    "100";
    object      Tmode2;
}
// * * * * * * * * * * * * * * * * * * * * * * * * * * * * * * * * * * * * * //

dimensions      [0 0 0 0 0 0 0];

internalField   nonuniform List<scalar> 
4000
(
-0.022224714
-0.022224698
-0.022224684
-0.022224727
-0.022224723
-0.022224717
-0.022224713
-0.022224709
-0.022224705
-0.022224702
-0.022224698
-0.022224666
-0.022224691
-0.022224718
-0.022224711
-0.022224706
-0.022224703
-0.022224698
-0.022224694
-0.022224696
-0.022224684
-0.022224691
-0.022224702
-0.022224726
-0.02222472
-0.022224715
-0.022224711
-0.022224704
-0.022224697
-0.022224698
-0.022224727
-0.022224718
-0.022224726
-0.02222475
-0.022224744
-0.022224739
-0.022224736
-0.022224729
-0.022224717
-0.022224712
-0.022224723
-0.022224711
-0.02222472
-0.022224744
-0.022224737
-0.022224733
-0.022224731
-0.022224726
-0.022224716
-0.022224712
-0.022224717
-0.022224706
-0.022224715
-0.022224739
-0.022224733
-0.022224729
-0.022224727
-0.022224722
-0.022224713
-0.02222471
-0.022224713
-0.022224703
-0.022224711
-0.022224736
-0.022224731
-0.022224727
-0.022224725
-0.02222472
-0.022224711
-0.022224708
-0.022224709
-0.022224698
-0.022224704
-0.022224729
-0.022224726
-0.022224722
-0.02222472
-0.022224715
-0.022224705
-0.022224702
-0.022224705
-0.022224694
-0.022224697
-0.022224717
-0.022224716
-0.022224713
-0.022224711
-0.022224705
-0.022224696
-0.022224692
-0.022224702
-0.022224696
-0.022224698
-0.022224712
-0.022224712
-0.02222471
-0.022224708
-0.022224702
-0.022224692
-0.022224688
-0.029313682
-0.029313635
-0.029313629
-0.029313763
-0.029313751
-0.029313729
-0.029313711
-0.029313692
-0.029313671
-0.029313655
-0.029313635
-0.029313605
-0.029313673
-0.029313766
-0.029313748
-0.029313728
-0.02931371
-0.029313688
-0.02931367
-0.029313672
-0.029313629
-0.029313673
-0.029313713
-0.029313796
-0.029313778
-0.029313759
-0.02931374
-0.029313707
-0.029313675
-0.029313679
-0.029313763
-0.029313766
-0.029313796
-0.029313877
-0.029313859
-0.029313843
-0.029313826
-0.029313791
-0.029313741
-0.029313721
-0.029313751
-0.029313748
-0.029313778
-0.029313859
-0.029313843
-0.029313828
-0.029313815
-0.029313786
-0.029313742
-0.029313725
-0.029313729
-0.029313728
-0.029313759
-0.029313843
-0.029313828
-0.029313813
-0.029313802
-0.029313775
-0.029313734
-0.02931372
-0.029313711
-0.02931371
-0.02931374
-0.029313826
-0.029313815
-0.029313802
-0.02931379
-0.029313763
-0.029313722
-0.029313708
-0.029313692
-0.029313688
-0.029313707
-0.029313791
-0.029313786
-0.029313775
-0.029313763
-0.029313735
-0.029313692
-0.029313675
-0.029313671
-0.02931367
-0.029313675
-0.029313741
-0.029313742
-0.029313734
-0.029313722
-0.029313692
-0.029313647
-0.02931363
-0.029313655
-0.029313672
-0.029313679
-0.029313721
-0.029313725
-0.02931372
-0.029313708
-0.029313675
-0.02931363
-0.029313621
-0.032582031
-0.032582035
-0.032582075
-0.032582232
-0.032582215
-0.032582185
-0.032582155
-0.032582118
-0.03258208
-0.03258204
-0.032582035
-0.032582035
-0.032582142
-0.032582253
-0.032582231
-0.032582203
-0.032582172
-0.032582127
-0.032582099
-0.032582094
-0.032582075
-0.032582142
-0.032582221
-0.03258232
-0.032582298
-0.032582272
-0.03258224
-0.032582174
-0.032582117
-0.032582111
-0.032582232
-0.032582253
-0.03258232
-0.032582416
-0.032582395
-0.032582373
-0.032582347
-0.032582279
-0.0325822
-0.032582165
-0.032582215
-0.032582231
-0.032582298
-0.032582395
-0.032582375
-0.032582355
-0.032582335
-0.032582277
-0.032582205
-0.032582174
-0.032582185
-0.032582203
-0.032582272
-0.032582373
-0.032582355
-0.032582337
-0.032582318
-0.032582263
-0.032582196
-0.032582169
-0.032582155
-0.032582172
-0.03258224
-0.032582347
-0.032582335
-0.032582318
-0.032582299
-0.032582243
-0.032582175
-0.032582146
-0.032582118
-0.032582127
-0.032582174
-0.032582279
-0.032582277
-0.032582263
-0.032582243
-0.032582185
-0.032582113
-0.032582079
-0.03258208
-0.032582099
-0.032582117
-0.0325822
-0.032582205
-0.032582196
-0.032582175
-0.032582113
-0.032582039
-0.032582008
-0.03258204
-0.032582094
-0.032582111
-0.032582165
-0.032582174
-0.032582169
-0.032582146
-0.032582079
-0.032582008
-0.032581992
-0.033057989
-0.033058034
-0.033058095
-0.033058256
-0.033058241
-0.033058205
-0.033058165
-0.033058108
-0.033058058
-0.033057998
-0.033058034
-0.033058059
-0.033058182
-0.033058299
-0.033058278
-0.033058247
-0.033058204
-0.033058128
-0.033058086
-0.033058068
-0.033058095
-0.033058182
-0.033058277
-0.033058382
-0.033058361
-0.033058334
-0.033058292
-0.03305819
-0.033058111
-0.033058094
-0.033058256
-0.033058299
-0.033058382
-0.033058483
-0.033058463
-0.033058441
-0.033058407
-0.033058304
-0.0330582
-0.033058155
-0.033058241
-0.033058278
-0.033058361
-0.033058463
-0.033058443
-0.033058424
-0.033058398
-0.033058306
-0.03305821
-0.033058169
-0.033058205
-0.033058247
-0.033058334
-0.033058441
-0.033058424
-0.033058406
-0.033058382
-0.033058293
-0.033058202
-0.033058165
-0.033058165
-0.033058204
-0.033058292
-0.033058407
-0.033058398
-0.033058382
-0.033058357
-0.033058268
-0.033058175
-0.033058132
-0.033058108
-0.033058128
-0.03305819
-0.033058304
-0.033058306
-0.033058293
-0.033058268
-0.033058174
-0.033058075
-0.033058024
-0.033058058
-0.033058086
-0.033058111
-0.0330582
-0.03305821
-0.033058202
-0.033058175
-0.033058075
-0.033057975
-0.033057942
-0.033057998
-0.033058068
-0.033058094
-0.033058155
-0.033058169
-0.033058165
-0.033058132
-0.033058024
-0.033057942
-0.033057912
-0.031576733
-0.031576786
-0.031576853
-0.031577017
-0.031577006
-0.03157697
-0.03157692
-0.03157684
-0.031576769
-0.031576692
-0.031576786
-0.031576817
-0.031576945
-0.031577068
-0.031577052
-0.031577021
-0.031576969
-0.031576864
-0.031576798
-0.031576766
-0.031576853
-0.031576945
-0.031577048
-0.031577158
-0.031577141
-0.031577116
-0.031577068
-0.031576934
-0.03157683
-0.0315768
-0.031577017
-0.031577068
-0.031577158
-0.031577262
-0.031577246
-0.031577226
-0.031577189
-0.031577054
-0.031576924
-0.031576865
-0.031577006
-0.031577052
-0.031577141
-0.031577246
-0.03157723
-0.031577213
-0.031577184
-0.031577061
-0.031576938
-0.031576884
-0.03157697
-0.031577021
-0.031577116
-0.031577226
-0.031577213
-0.031577198
-0.031577171
-0.031577052
-0.031576933
-0.031576882
-0.03157692
-0.031576969
-0.031577068
-0.031577189
-0.031577184
-0.031577171
-0.031577143
-0.031577023
-0.031576901
-0.031576841
-0.03157684
-0.031576864
-0.031576934
-0.031577054
-0.031577061
-0.031577052
-0.031577023
-0.031576896
-0.031576764
-0.031576691
-0.031576769
-0.031576798
-0.03157683
-0.031576924
-0.031576938
-0.031576933
-0.031576901
-0.031576764
-0.031576633
-0.0315766
-0.031576692
-0.031576766
-0.0315768
-0.031576865
-0.031576884
-0.031576882
-0.031576841
-0.031576691
-0.0315766
-0.031576559
-0.028778041
-0.028778085
-0.028778162
-0.028778331
-0.028778326
-0.028778289
-0.028778233
-0.028778137
-0.028778047
-0.028777958
-0.028778085
-0.028778115
-0.028778252
-0.028778381
-0.028778371
-0.028778341
-0.028778286
-0.028778161
-0.028778076
-0.028778034
-0.028778162
-0.028778252
-0.028778364
-0.02877848
-0.028778468
-0.028778444
-0.028778393
-0.02877824
-0.028778115
-0.028778074
-0.028778331
-0.028778381
-0.02877848
-0.028778589
-0.028778577
-0.028778558
-0.028778519
-0.028778364
-0.028778213
-0.028778144
-0.028778326
-0.028778371
-0.028778468
-0.028778577
-0.028778565
-0.02877855
-0.028778519
-0.028778375
-0.028778231
-0.028778166
-0.028778289
-0.028778341
-0.028778444
-0.028778558
-0.02877855
-0.028778536
-0.028778508
-0.028778369
-0.028778228
-0.028778166
-0.028778233
-0.028778286
-0.028778393
-0.028778519
-0.028778519
-0.028778508
-0.02877848
-0.028778339
-0.028778193
-0.028778119
-0.028778137
-0.028778161
-0.02877824
-0.028778364
-0.028778375
-0.028778369
-0.028778339
-0.028778189
-0.028778029
-0.028777934
-0.028778047
-0.028778076
-0.028778115
-0.028778213
-0.028778231
-0.028778228
-0.028778193
-0.028778029
-0.028777868
-0.028777832
-0.028777958
-0.028778034
-0.028778074
-0.028778144
-0.028778166
-0.028778166
-0.028778119
-0.028777934
-0.028777832
-0.028777784
-0.025142601
-0.025142645
-0.025142735
-0.02514291
-0.025142909
-0.025142871
-0.025142811
-0.025142704
-0.0251426
-0.025142507
-0.025142645
-0.025142683
-0.025142832
-0.025142968
-0.02514296
-0.025142927
-0.025142868
-0.025142732
-0.025142632
-0.025142583
-0.025142735
-0.025142832
-0.025142956
-0.025143077
-0.025143067
-0.02514304
-0.025142986
-0.02514282
-0.025142679
-0.025142631
-0.02514291
-0.025142968
-0.025143077
-0.025143192
-0.025143181
-0.02514316
-0.025143116
-0.025142948
-0.025142781
-0.025142704
-0.025142909
-0.02514296
-0.025143067
-0.025143181
-0.025143172
-0.025143154
-0.025143119
-0.025142961
-0.025142801
-0.025142728
-0.025142871
-0.025142927
-0.02514304
-0.02514316
-0.025143154
-0.025143138
-0.025143107
-0.025142955
-0.025142798
-0.025142728
-0.025142811
-0.025142868
-0.025142986
-0.025143116
-0.025143119
-0.025143107
-0.025143077
-0.025142922
-0.02514276
-0.025142676
-0.025142704
-0.025142732
-0.02514282
-0.025142948
-0.025142961
-0.025142955
-0.025142922
-0.025142758
-0.025142577
-0.025142466
-0.0251426
-0.025142632
-0.025142679
-0.025142781
-0.025142801
-0.025142798
-0.02514276
-0.025142577
-0.025142392
-0.025142353
-0.025142507
-0.025142583
-0.025142631
-0.025142704
-0.025142728
-0.025142728
-0.025142676
-0.025142466
-0.025142353
-0.025142298
-0.021029691
-0.021029742
-0.021029846
-0.021030025
-0.021030025
-0.021029982
-0.021029914
-0.021029797
-0.021029682
-0.021029585
-0.021029742
-0.021029792
-0.021029953
-0.021030092
-0.021030085
-0.021030046
-0.02102998
-0.021029832
-0.021029718
-0.021029662
-0.021029846
-0.021029953
-0.021030088
-0.021030213
-0.021030202
-0.021030169
-0.021030107
-0.021029929
-0.021029774
-0.021029716
-0.021030025
-0.021030092
-0.021030213
-0.021030331
-0.02103032
-0.021030293
-0.021030241
-0.021030059
-0.021029878
-0.021029792
-0.021030025
-0.021030085
-0.021030202
-0.02103032
-0.021030311
-0.021030288
-0.021030245
-0.021030074
-0.021029899
-0.021029817
-0.021029982
-0.021030046
-0.021030169
-0.021030293
-0.021030288
-0.021030268
-0.02103023
-0.021030065
-0.021029894
-0.021029815
-0.021029914
-0.02102998
-0.021030107
-0.021030241
-0.021030245
-0.02103023
-0.021030193
-0.021030027
-0.021029849
-0.021029756
-0.021029797
-0.021029832
-0.021029929
-0.021030059
-0.021030074
-0.021030065
-0.021030027
-0.02102985
-0.021029654
-0.02102953
-0.021029682
-0.021029718
-0.021029774
-0.021029878
-0.021029899
-0.021029894
-0.021029849
-0.021029654
-0.02102945
-0.021029404
-0.021029585
-0.021029662
-0.021029716
-0.021029792
-0.021029817
-0.021029815
-0.021029756
-0.02102953
-0.021029404
-0.021029345
-0.016706761
-0.016706821
-0.016706936
-0.016707115
-0.016707114
-0.016707065
-0.016706989
-0.016706861
-0.016706735
-0.016706633
-0.016706821
-0.016706881
-0.016707051
-0.016707192
-0.016707182
-0.016707137
-0.016707061
-0.016706902
-0.016706774
-0.016706711
-0.016706936
-0.016707051
-0.016707194
-0.01670732
-0.016707308
-0.016707268
-0.016707196
-0.016707007
-0.016706837
-0.01670677
-0.016707115
-0.016707192
-0.01670732
-0.016707439
-0.016707427
-0.016707394
-0.016707332
-0.016707139
-0.016706943
-0.016706849
-0.016707114
-0.016707182
-0.016707308
-0.016707427
-0.016707418
-0.01670739
-0.016707338
-0.016707156
-0.016706966
-0.016706874
-0.016707065
-0.016707137
-0.016707268
-0.016707394
-0.01670739
-0.016707367
-0.01670732
-0.016707143
-0.016706958
-0.016706869
-0.016706989
-0.016707061
-0.016707196
-0.016707332
-0.016707338
-0.01670732
-0.016707275
-0.016707098
-0.016706906
-0.016706804
-0.016706861
-0.016706902
-0.016707007
-0.016707139
-0.016707156
-0.016707143
-0.016707098
-0.01670691
-0.016706699
-0.016706566
-0.016706735
-0.016706774
-0.016706837
-0.016706943
-0.016706966
-0.016706958
-0.016706906
-0.016706699
-0.016706481
-0.016706427
-0.016706633
-0.016706711
-0.01670677
-0.016706849
-0.016706874
-0.016706869
-0.016706804
-0.016706566
-0.016706427
-0.016706364
-0.01237129
-0.012371354
-0.012371477
-0.012371654
-0.012371651
-0.012371597
-0.012371513
-0.012371377
-0.01237124
-0.012371134
-0.012371354
-0.012371422
-0.012371597
-0.012371736
-0.012371724
-0.012371674
-0.01237159
-0.012371422
-0.012371282
-0.012371212
-0.012371477
-0.012371597
-0.012371745
-0.012371868
-0.012371855
-0.012371811
-0.01237173
-0.012371533
-0.012371351
-0.012371276
-0.012371654
-0.012371736
-0.012371868
-0.012371986
-0.012371974
-0.012371937
-0.012371868
-0.012371666
-0.012371459
-0.012371356
-0.012371651
-0.012371724
-0.012371855
-0.012371974
-0.012371965
-0.012371935
-0.012371876
-0.012371685
-0.012371483
-0.012371383
-0.012371597
-0.012371674
-0.012371811
-0.012371937
-0.012371935
-0.01237191
-0.012371857
-0.012371672
-0.012371474
-0.012371377
-0.012371513
-0.01237159
-0.01237173
-0.012371868
-0.012371876
-0.012371857
-0.012371806
-0.01237162
-0.012371417
-0.012371305
-0.012371377
-0.012371422
-0.012371533
-0.012371666
-0.012371685
-0.012371672
-0.01237162
-0.012371424
-0.012371202
-0.01237106
-0.01237124
-0.012371282
-0.012371351
-0.012371459
-0.012371483
-0.012371474
-0.012371417
-0.012371202
-0.012370972
-0.012370911
-0.012371134
-0.012371212
-0.012371276
-0.012371356
-0.012371383
-0.012371377
-0.012371305
-0.01237106
-0.012370911
-0.012370844
-0.008166969
-0.0081670346
-0.0081671622
-0.0081673346
-0.008167329
-0.0081672723
-0.0081671842
-0.0081670424
-0.0081668988
-0.0081667899
-0.0081670346
-0.0081671075
-0.0081672829
-0.0081674178
-0.0081674039
-0.0081673515
-0.0081672636
-0.0081670907
-0.0081669415
-0.0081668659
-0.0081671622
-0.0081672829
-0.0081674319
-0.0081675518
-0.0081675367
-0.008167491
-0.0081674071
-0.0081672051
-0.0081670156
-0.0081669334
-0.0081673346
-0.0081674178
-0.0081675518
-0.0081676667
-0.0081676539
-0.0081676166
-0.008167544
-0.0081673387
-0.008167124
-0.0081670152
-0.008167329
-0.0081674039
-0.0081675367
-0.0081676539
-0.0081676459
-0.0081676161
-0.0081675547
-0.00816736
-0.0081671509
-0.0081670448
-0.0081672723
-0.0081673515
-0.008167491
-0.0081676166
-0.0081676161
-0.0081675928
-0.0081675379
-0.008167349
-0.0081671439
-0.0081670396
-0.0081671842
-0.0081672636
-0.0081674071
-0.008167544
-0.0081675547
-0.0081675379
-0.0081674855
-0.0081672951
-0.0081670832
-0.0081669647
-0.0081670424
-0.0081670907
-0.0081672051
-0.0081673387
-0.00816736
-0.008167349
-0.0081672951
-0.0081670945
-0.0081668634
-0.0081667167
-0.0081668988
-0.0081669415
-0.0081670156
-0.008167124
-0.0081671509
-0.0081671439
-0.0081670832
-0.0081668634
-0.0081666258
-0.0081665583
-0.0081667899
-0.0081668659
-0.0081669334
-0.0081670152
-0.0081670448
-0.0081670396
-0.0081669647
-0.0081667167
-0.0081665583
-0.0081664899
-0.0041960049
-0.004196069
-0.0041961986
-0.0041963645
-0.0041963567
-0.0041962993
-0.0041962107
-0.0041960677
-0.0041959208
-0.0041958113
-0.004196069
-0.0041961434
-0.0041963171
-0.0041964462
-0.0041964307
-0.0041963785
-0.0041962906
-0.0041961172
-0.0041959635
-0.0041958852
-0.0041961986
-0.0041963171
-0.0041964644
-0.0041965791
-0.0041965634
-0.0041965188
-0.0041964356
-0.0041962345
-0.0041960412
-0.0041959554
-0.0041963645
-0.0041964462
-0.0041965791
-0.0041966897
-0.0041966774
-0.0041966422
-0.004196571
-0.0041963673
-0.00419615
-0.0041960386
-0.0041963567
-0.0041964307
-0.0041965634
-0.0041966774
-0.0041966709
-0.0041966443
-0.0041965851
-0.0041963921
-0.0041961805
-0.0041960717
-0.0041962993
-0.0041963785
-0.0041965188
-0.0041966422
-0.0041966443
-0.0041966251
-0.0041965727
-0.0041963856
-0.0041961774
-0.0041960694
-0.0041962107
-0.0041962906
-0.0041964356
-0.004196571
-0.0041965851
-0.0041965727
-0.0041965227
-0.0041963333
-0.0041961174
-0.0041959946
-0.0041960677
-0.0041961172
-0.0041962345
-0.0041963673
-0.0041963921
-0.0041963856
-0.0041963333
-0.0041961328
-0.0041958972
-0.0041957474
-0.0041959208
-0.0041959635
-0.0041960412
-0.00419615
-0.0041961805
-0.0041961774
-0.0041961174
-0.0041958972
-0.0041956555
-0.0041955834
-0.0041958113
-0.0041958852
-0.0041959554
-0.0041960386
-0.0041960717
-0.0041960694
-0.0041959946
-0.0041957474
-0.0041955834
-0.0041955143
-0.00052866849
-0.00052872906
-0.00052885888
-0.00052901705
-0.00052900779
-0.00052895205
-0.00052886636
-0.000528726
-0.00052857955
-0.00052847171
-0.00052872906
-0.00052880294
-0.00052897299
-0.00052909533
-0.00052907912
-0.00052902941
-0.00052894522
-0.00052877568
-0.00052862132
-0.00052854302
-0.00052885888
-0.00052897299
-0.00052911699
-0.00052922565
-0.0005292101
-0.00052916905
-0.00052909036
-0.00052889462
-0.0005287019
-0.00052861533
-0.00052901705
-0.00052909533
-0.00052922565
-0.00052933108
-0.00052931991
-0.00052928929
-0.00052922344
-0.000529026
-0.00052881064
-0.00052869965
-0.00052900779
-0.00052907912
-0.0005292101
-0.00052931991
-0.00052931566
-0.00052929458
-0.00052924123
-0.0005290549
-0.00052884526
-0.00052873667
-0.00052895205
-0.00052902941
-0.00052916905
-0.00052928929
-0.00052929458
-0.0005292815
-0.00052923533
-0.00052905461
-0.00052884781
-0.0005287393
-0.00052886636
-0.00052894522
-0.00052909036
-0.00052922344
-0.00052924123
-0.00052923533
-0.00052919136
-0.00052900765
-0.00052879198
-0.0005286678
-0.000528726
-0.00052877568
-0.00052889462
-0.000529026
-0.0005290549
-0.00052905461
-0.00052900765
-0.00052881156
-0.00052857555
-0.00052842492
-0.00052857955
-0.00052862132
-0.0005287019
-0.00052881064
-0.00052884526
-0.00052884781
-0.00052879198
-0.00052857555
-0.00052833327
-0.00052825823
-0.00052847171
-0.00052854302
-0.00052861533
-0.00052869965
-0.00052873667
-0.0005287393
-0.0005286678
-0.00052842492
-0.00052825823
-0.00052818987
0.0027892091
0.0027891532
0.0027890243
0.0027888745
0.0027888845
0.0027889367
0.0027890168
0.0027891512
0.0027892942
0.0027893984
0.0027891532
0.0027890809
0.0027889158
0.0027888007
0.0027888168
0.0027888622
0.0027889398
0.0027891021
0.0027892538
0.0027893301
0.0027890243
0.0027889158
0.0027887762
0.002788674
0.0027886886
0.0027887243
0.0027887955
0.0027889822
0.002789171
0.0027892562
0.0027888745
0.0027888007
0.002788674
0.0027885741
0.0027885835
0.0027886079
0.0027886656
0.002788853
0.0027890629
0.0027891711
0.0027888845
0.0027888168
0.0027886886
0.0027885835
0.002788585
0.0027885992
0.0027886438
0.0027888198
0.0027890239
0.0027891298
0.0027889367
0.0027888622
0.0027887243
0.0027886079
0.0027885992
0.0027886048
0.002788642
0.0027888126
0.0027890144
0.002789121
0.0027890168
0.0027889398
0.0027887955
0.0027886656
0.0027886438
0.002788642
0.0027886773
0.0027888517
0.0027890634
0.0027891866
0.0027891512
0.0027891021
0.0027889822
0.002788853
0.0027888198
0.0027888126
0.0027888517
0.0027890396
0.0027892726
0.002789422
0.0027892942
0.0027892538
0.002789171
0.0027890629
0.0027890239
0.0027890144
0.0027890634
0.0027892726
0.0027895125
0.0027895889
0.0027893984
0.0027893301
0.0027892562
0.0027891711
0.0027891298
0.002789121
0.0027891866
0.002789422
0.0027895889
0.0027896552
0.0057303585
0.0057303077
0.0057301805
0.0057300393
0.0057300494
0.0057300968
0.0057301694
0.0057302955
0.0057304328
0.005730532
0.0057303077
0.0057302376
0.0057300781
0.0057299705
0.0057299858
0.0057300256
0.0057300948
0.0057302472
0.0057303941
0.005730467
0.0057301805
0.0057300781
0.0057299435
0.0057298479
0.005729861
0.0057298903
0.0057299521
0.0057301272
0.0057303096
0.0057303919
0.0057300393
0.0057299705
0.0057298479
0.0057297539
0.0057297609
0.0057297783
0.0057298259
0.0057300006
0.0057302025
0.0057303064
0.0057300494
0.0057299858
0.005729861
0.0057297609
0.0057297595
0.005729766
0.0057298002
0.0057299634
0.0057301593
0.0057302608
0.0057300968
0.0057300256
0.0057298903
0.0057297783
0.005729766
0.0057297635
0.0057297902
0.0057299482
0.0057301423
0.0057302451
0.0057301694
0.0057300948
0.0057299521
0.0057298259
0.0057298002
0.0057297902
0.0057298153
0.0057299777
0.0057301827
0.0057303029
0.0057302955
0.0057302472
0.0057301272
0.0057300006
0.0057299634
0.0057299482
0.0057299777
0.0057301546
0.0057303819
0.0057305285
0.0057304328
0.0057303941
0.0057303096
0.0057302025
0.0057301593
0.0057301423
0.0057301827
0.0057303819
0.005730617
0.0057306935
0.005730532
0.005730467
0.0057303919
0.0057303064
0.0057302608
0.0057302451
0.0057303029
0.0057305285
0.0057306935
0.0057307567
0.0082814867
0.0082814411
0.008281316
0.0082811837
0.0082811933
0.0082812351
0.008281299
0.0082814154
0.0082815455
0.0082816388
0.0082814411
0.0082813735
0.0082812201
0.0082811198
0.008281134
0.0082811674
0.0082812271
0.0082813683
0.0082815086
0.0082815772
0.008281316
0.0082812201
0.0082810908
0.0082810017
0.0082810129
0.0082810353
0.0082810868
0.0082812487
0.008281423
0.0082815015
0.0082811837
0.0082811198
0.0082810017
0.0082809135
0.0082809181
0.008280928
0.0082809648
0.0082811253
0.0082813175
0.008281416
0.0082811933
0.008281134
0.0082810129
0.0082809181
0.0082809137
0.0082809123
0.0082809355
0.0082810843
0.0082812704
0.0082813665
0.0082812351
0.0082811674
0.0082810353
0.008280928
0.0082809123
0.0082809017
0.0082809173
0.0082810611
0.0082812458
0.0082813438
0.008281299
0.0082812271
0.0082810868
0.0082809648
0.0082809355
0.0082809173
0.0082809315
0.0082810803
0.0082812766
0.0082813927
0.0082814154
0.0082813683
0.0082812487
0.0082811253
0.0082810843
0.0082810611
0.0082810803
0.0082812445
0.008281464
0.0082816065
0.0082815455
0.0082815086
0.008281423
0.0082813175
0.0082812704
0.0082812458
0.0082812766
0.008281464
0.0082816925
0.0082817682
0.0082816388
0.0082815772
0.0082815015
0.008281416
0.0082813665
0.0082813438
0.0082813927
0.0082816065
0.0082817682
0.0082818277
0.010439725
0.010439684
0.010439562
0.010439438
0.010439447
0.010439483
0.010439538
0.010439643
0.010439766
0.010439852
0.010439684
0.010439619
0.010439472
0.010439379
0.010439392
0.010439419
0.010439469
0.010439598
0.010439731
0.010439795
0.010439562
0.010439472
0.010439348
0.010439266
0.010439275
0.01043929
0.010439331
0.010439479
0.010439644
0.010439719
0.010439438
0.010439379
0.010439266
0.010439183
0.010439185
0.010439188
0.010439214
0.010439359
0.010439541
0.010439634
0.010439447
0.010439392
0.010439275
0.010439185
0.010439178
0.010439169
0.010439181
0.010439315
0.01043949
0.010439581
0.010439483
0.010439419
0.01043929
0.010439188
0.010439169
0.010439151
0.010439155
0.010439284
0.010439459
0.010439551
0.010439538
0.010439469
0.010439331
0.010439214
0.010439181
0.010439155
0.010439159
0.010439293
0.01043948
0.010439591
0.010439643
0.010439598
0.010439479
0.010439359
0.010439315
0.010439284
0.010439293
0.010439444
0.010439654
0.010439792
0.010439766
0.010439731
0.010439644
0.010439541
0.01043949
0.010439459
0.01043948
0.010439654
0.010439875
0.010439949
0.010439852
0.010439795
0.010439719
0.010439634
0.010439581
0.010439551
0.010439591
0.010439792
0.010439949
0.010440004
0.012209892
0.012209856
0.012209736
0.012209621
0.012209629
0.012209659
0.012209705
0.0122098
0.012209914
0.012209994
0.012209856
0.012209794
0.012209653
0.012209567
0.012209578
0.012209599
0.012209639
0.012209755
0.012209881
0.01220994
0.012209736
0.012209653
0.012209535
0.012209458
0.012209465
0.012209474
0.012209505
0.012209638
0.012209794
0.012209864
0.012209621
0.012209567
0.012209458
0.012209382
0.012209381
0.012209377
0.012209392
0.012209523
0.012209693
0.01220978
0.012209629
0.012209578
0.012209465
0.012209381
0.012209371
0.012209356
0.012209357
0.012209476
0.01220964
0.012209724
0.012209659
0.012209599
0.012209474
0.012209377
0.012209356
0.01220933
0.012209324
0.012209439
0.012209602
0.012209688
0.012209705
0.012209639
0.012209505
0.012209392
0.012209357
0.012209324
0.012209318
0.012209437
0.012209613
0.012209719
0.0122098
0.012209755
0.012209638
0.012209523
0.012209476
0.012209439
0.012209437
0.012209574
0.012209774
0.012209906
0.012209914
0.012209881
0.012209794
0.012209693
0.01220964
0.012209602
0.012209613
0.012209774
0.012209986
0.012210059
0.012209994
0.01220994
0.012209864
0.01220978
0.012209724
0.012209688
0.012209719
0.012209906
0.012210059
0.012210109
0.013602397
0.013602365
0.013602249
0.013602142
0.013602149
0.013602173
0.01360221
0.013602294
0.0136024
0.013602473
0.013602365
0.013602306
0.013602171
0.013602092
0.013602102
0.013602116
0.013602147
0.013602251
0.013602369
0.013602423
0.013602249
0.013602171
0.013602059
0.013601988
0.013601993
0.013601996
0.013602016
0.013602136
0.013602283
0.013602348
0.013602142
0.013602092
0.013601988
0.013601917
0.013601915
0.013601904
0.013601909
0.013602025
0.013602185
0.013602265
0.013602149
0.013602102
0.013601993
0.013601915
0.013601902
0.01360188
0.013601872
0.013601976
0.013602129
0.013602207
0.013602173
0.013602116
0.013601996
0.013601904
0.01360188
0.013601849
0.013601833
0.013601933
0.013602086
0.013602166
0.01360221
0.013602147
0.013602016
0.013601909
0.013601872
0.013601833
0.013601817
0.013601923
0.013602088
0.013602187
0.013602294
0.013602251
0.013602136
0.013602025
0.013601976
0.013601933
0.013601923
0.013602045
0.013602235
0.013602361
0.0136024
0.013602369
0.013602283
0.013602185
0.013602129
0.013602086
0.013602088
0.013602235
0.013602437
0.013602508
0.013602473
0.013602423
0.013602348
0.013602265
0.013602207
0.013602166
0.013602187
0.013602361
0.013602508
0.013602555
0.014631634
0.014631607
0.014631494
0.014631395
0.014631401
0.014631419
0.014631448
0.014631522
0.01463162
0.014631687
0.014631607
0.01463155
0.014631422
0.01463135
0.014631357
0.014631366
0.014631388
0.01463148
0.01463159
0.01463164
0.014631494
0.014631422
0.014631315
0.01463125
0.014631253
0.01463125
0.014631262
0.014631368
0.014631505
0.014631566
0.014631395
0.01463135
0.01463125
0.014631185
0.01463118
0.014631164
0.01463116
0.014631262
0.014631411
0.014631486
0.014631401
0.014631357
0.014631253
0.01463118
0.014631166
0.014631138
0.014631122
0.014631212
0.014631354
0.014631426
0.014631419
0.014631366
0.01463125
0.014631164
0.014631138
0.014631102
0.014631078
0.014631164
0.014631305
0.01463138
0.014631448
0.014631388
0.014631262
0.01463116
0.014631122
0.014631078
0.014631053
0.014631145
0.0146313
0.014631393
0.014631522
0.01463148
0.014631368
0.014631262
0.014631212
0.014631164
0.014631145
0.014631254
0.014631433
0.014631553
0.01463162
0.01463159
0.014631505
0.014631411
0.014631354
0.014631305
0.0146313
0.014631433
0.014631625
0.014631694
0.014631687
0.01463164
0.014631566
0.014631486
0.014631426
0.01463138
0.014631393
0.014631553
0.014631694
0.014631736
0.015314763
0.015314739
0.01531463
0.015314539
0.015314544
0.015314557
0.015314578
0.015314643
0.015314732
0.015314793
0.015314739
0.015314685
0.015314564
0.015314498
0.015314503
0.015314507
0.015314521
0.015314603
0.015314705
0.01531475
0.01531463
0.015314564
0.015314463
0.015314403
0.015314404
0.015314396
0.0153144
0.015314493
0.015314621
0.015314678
0.015314539
0.015314498
0.015314403
0.015314343
0.015314336
0.015314316
0.015314304
0.015314392
0.01531453
0.0153146
0.015314544
0.015314503
0.015314404
0.015314336
0.01531432
0.015314288
0.015314264
0.015314341
0.015314473
0.015314539
0.015314557
0.015314507
0.015314396
0.015314316
0.015314288
0.015314248
0.015314216
0.015314289
0.015314421
0.01531449
0.015314578
0.015314521
0.0153144
0.015314304
0.015314264
0.015314216
0.015314185
0.015314264
0.015314408
0.015314495
0.015314643
0.015314603
0.015314493
0.015314392
0.015314341
0.015314289
0.015314264
0.015314359
0.015314527
0.015314642
0.015314732
0.015314705
0.015314621
0.01531453
0.015314473
0.015314421
0.015314408
0.015314527
0.01531471
0.015314777
0.015314793
0.01531475
0.015314678
0.0153146
0.015314539
0.01531449
0.015314495
0.015314642
0.015314777
0.015314815
0.015670777
0.015670756
0.015670651
0.015670568
0.015670571
0.01567058
0.015670594
0.01567065
0.015670732
0.015670787
0.015670756
0.015670704
0.01567059
0.01567053
0.015670534
0.015670533
0.01567054
0.015670611
0.015670706
0.015670747
0.015670651
0.01567059
0.015670494
0.01567044
0.01567044
0.015670427
0.015670424
0.015670505
0.015670624
0.015670677
0.015670568
0.01567053
0.01567044
0.015670385
0.015670377
0.015670352
0.015670334
0.01567041
0.015670537
0.015670601
0.015670571
0.015670534
0.01567044
0.015670377
0.015670359
0.015670324
0.015670293
0.015670358
0.015670479
0.015670541
0.01567058
0.015670533
0.015670427
0.015670352
0.015670324
0.01567028
0.015670242
0.015670304
0.015670425
0.015670489
0.015670594
0.01567054
0.015670424
0.015670334
0.015670293
0.015670242
0.015670205
0.015670272
0.015670405
0.015670487
0.01567065
0.015670611
0.015670505
0.01567041
0.015670358
0.015670304
0.015670272
0.015670355
0.015670513
0.015670621
0.015670732
0.015670706
0.015670624
0.015670537
0.015670479
0.015670425
0.015670405
0.015670513
0.015670685
0.01567075
0.015670787
0.015670747
0.015670677
0.015670601
0.015670541
0.015670489
0.015670487
0.015670621
0.01567075
0.015670784
0.015719799
0.015719781
0.01571968
0.015719604
0.015719606
0.015719611
0.015719619
0.015719667
0.015719741
0.015719791
0.015719781
0.015719732
0.015719625
0.01571957
0.015719572
0.015719567
0.015719568
0.01571963
0.015719717
0.015719755
0.01571968
0.015719625
0.015719534
0.015719485
0.015719483
0.015719467
0.015719457
0.015719527
0.015719638
0.015719687
0.015719604
0.01571957
0.015719485
0.015719435
0.015719425
0.015719397
0.015719373
0.015719437
0.015719555
0.015719614
0.015719606
0.015719572
0.015719483
0.015719425
0.015719406
0.015719368
0.015719332
0.015719386
0.015719498
0.015719554
0.015719611
0.015719567
0.015719467
0.015719397
0.015719368
0.015719321
0.015719279
0.01571933
0.015719441
0.0157195
0.015719619
0.015719568
0.015719457
0.015719373
0.015719332
0.015719279
0.015719237
0.015719293
0.015719416
0.015719492
0.015719667
0.01571963
0.015719527
0.015719437
0.015719386
0.01571933
0.015719293
0.015719365
0.015719512
0.015719614
0.015719741