/*--------------------------------*- C++ -*----------------------------------*\
| =========                 |                                                 |
| \\      /  F ield         | OpenFOAM: The Open Source CFD Toolbox           |
|  \\    /   O peration     | Version:  v2106                                 |
|   \\  /    A nd           | Website:  www.openfoam.com                      |
|    \\/     M anipulation  |                                                 |
\*---------------------------------------------------------------------------*/
FoamFile
{
    version     2.0;
    format      ascii;
    arch        "LSB;label=32;scalar=64";
    class       volScalarField;
    location    "100";
    object      Tmode6;
}
// * * * * * * * * * * * * * * * * * * * * * * * * * * * * * * * * * * * * * //

dimensions      [0 0 0 0 0 0 0];

internalField   nonuniform List<scalar> 
4000
(
-0.020230722
-0.020230168
-0.020230114
-0.020230367
-0.020230406
-0.020230393
-0.020230351
-0.02023031
-0.020230292
-0.020230275
-0.020230168
-0.020229801
-0.020229897
-0.0202301
-0.020230134
-0.020230117
-0.02023007
-0.020230025
-0.020230039
-0.020230104
-0.020230114
-0.020229897
-0.02022998
-0.020230177
-0.020230207
-0.020230186
-0.020230124
-0.020230051
-0.020230045
-0.020230113
-0.020230367
-0.0202301
-0.020230177
-0.020230371
-0.020230399
-0.020230375
-0.020230308
-0.020230213
-0.020230164
-0.020230193
-0.020230406
-0.020230134
-0.020230207
-0.020230399
-0.020230424
-0.0202304
-0.020230333
-0.020230239
-0.020230187
-0.020230212
-0.020230393
-0.020230117
-0.020230186
-0.020230375
-0.0202304
-0.020230373
-0.020230306
-0.020230212
-0.020230161
-0.020230186
-0.020230351
-0.02023007
-0.020230124
-0.020230308
-0.020230333
-0.020230306
-0.020230239
-0.020230146
-0.020230096
-0.020230122
-0.02023031
-0.020230025
-0.020230051
-0.020230213
-0.020230239
-0.020230212
-0.020230146
-0.020230055
-0.020230008
-0.020230035
-0.020230292
-0.020230039
-0.020230045
-0.020230164
-0.020230187
-0.020230161
-0.020230096
-0.020230008
-0.020229964
-0.020229994
-0.020230275
-0.020230104
-0.020230113
-0.020230193
-0.020230212
-0.020230186
-0.020230122
-0.020230035
-0.020229994
-0.02023002
0.040213545
0.040216275
0.040216445
0.040214756
0.040214318
0.04021442
0.040214801
0.040215201
0.040215382
0.040215457
0.040216275
0.040218196
0.040217566
0.040216047
0.040215654
0.040215788
0.04021623
0.040216689
0.040216685
0.040216233
0.040216445
0.040217566
0.040216859
0.040215378
0.04021502
0.0402152
0.040215752
0.040216441
0.040216607
0.040216144
0.040214756
0.040216047
0.040215378
0.040213929
0.040213597
0.040213803
0.040214408
0.040215268
0.040215733
0.040215533
0.040214318
0.040215654
0.04021502
0.040213597
0.040213285
0.040213503
0.040214114
0.040214989
0.0402155
0.040215344
0.04021442
0.040215788
0.0402152
0.040213803
0.040213503
0.040213731
0.040214346
0.040215221
0.040215733
0.040215577
0.040214801
0.04021623
0.040215752
0.040214408
0.040214114
0.040214346
0.040214958
0.040215825
0.040216326
0.040216164
0.040215201
0.040216689
0.040216441
0.040215268
0.040214989
0.040215221
0.040215825
0.040216671
0.040217145
0.040216967
0.040215382
0.040216685
0.040216607
0.040215733
0.0402155
0.040215733
0.040216326
0.040217145
0.040217573
0.040217363
0.040215457
0.040216233
0.040216144
0.040215533
0.040215344
0.040215577
0.040216164
0.040216967
0.040217363
0.040217146
0.014332456
0.014334835
0.014334189
0.014331701
0.014330991
0.014331214
0.014331962
0.014332789
0.014333092
0.014332832
0.014334835
0.014336472
0.014334904
0.01433262
0.014331982
0.014332259
0.014333134
0.0143342
0.014334411
0.014333484
0.014334189
0.014334904
0.014333281
0.014331071
0.014330491
0.014330831
0.014331859
0.014333329
0.014333913
0.014333042
0.014331701
0.01433262
0.014331071
0.01432892
0.014328387
0.014328765
0.014329861
0.014331573
0.014332585
0.01433208
0.014330991
0.014331982
0.014330491
0.014328387
0.014327886
0.014328285
0.014329393
0.014331137
0.01433223
0.014331798
0.014331214
0.014332259
0.014330831
0.014328765
0.014328285
0.014328698
0.014329809
0.014331554
0.014332652
0.01433222
0.014331962
0.014333134
0.014331859
0.014329861
0.014329393
0.014329809
0.014330915
0.014332645
0.014333724
0.014333287
0.014332789
0.0143342
0.014333329
0.014331573
0.014331137
0.014331554
0.014332645
0.014334336
0.014335356
0.014334902
0.014333092
0.014334411
0.014333913
0.014332585
0.01433223
0.014332652
0.014333724
0.014335356
0.014336251
0.014335645
0.014332832
0.014333484
0.014333042
0.01433208
0.014331798
0.01433222
0.014333287
0.014334902
0.014335645
0.014334902
-0.014785766
-0.014783466
-0.014785197
-0.014788298
-0.014789143
-0.014788735
-0.014787546
-0.014786059
-0.014785216
-0.014785431
-0.014783466
-0.014782322
-0.014784963
-0.014787811
-0.014788558
-0.014788095
-0.014786772
-0.014784935
-0.014784061
-0.01478503
-0.014785197
-0.014784963
-0.014787577
-0.014790306
-0.014790972
-0.014790436
-0.014788944
-0.014786586
-0.014785151
-0.014785948
-0.014788298
-0.014787811
-0.014790306
-0.01479295
-0.014793558
-0.014792979
-0.014791418
-0.014788777
-0.014786829
-0.014787183
-0.014789143
-0.014788558
-0.014790972
-0.014793558
-0.014794131
-0.014793533
-0.014791966
-0.014789288
-0.014787239
-0.014787503
-0.014788735
-0.014788095
-0.014790436
-0.014792979
-0.014793533
-0.014792926
-0.014791361
-0.014788686
-0.014786634
-0.014786905
-0.014787546
-0.014786772
-0.014788944
-0.014791418
-0.014791966
-0.014791361
-0.014789805
-0.01478715
-0.014785123
-0.014785394
-0.014786059
-0.014784935
-0.014786586
-0.014788777
-0.014789288
-0.014788686
-0.01478715
-0.014784546
-0.014782602
-0.014782874
-0.014785216
-0.014784061
-0.014785151
-0.014786829
-0.014787239
-0.014786634
-0.014785123
-0.014782602
-0.014780897
-0.014781578
-0.014785431
-0.01478503
-0.014785948
-0.014787183
-0.014787503
-0.014786905
-0.014785394
-0.014782874
-0.014781578
-0.01478266
-0.027845323
-0.027843314
-0.027846174
-0.027849628
-0.027850467
-0.027849849
-0.027848265
-0.027846152
-0.027844652
-0.027844623
-0.027843314
-0.027842881
-0.027846513
-0.027849663
-0.027850375
-0.027849682
-0.027847943
-0.027845391
-0.027843746
-0.027844483
-0.027846174
-0.027846513
-0.027850026
-0.027853018
-0.027853636
-0.027852865
-0.027850945
-0.02784779
-0.027845426
-0.027845855
-0.027849628
-0.027849663
-0.027853018
-0.027855911
-0.027856474
-0.027855672
-0.027853695
-0.027850243
-0.02784732
-0.027847262
-0.027850467
-0.027850375
-0.027853636
-0.027856474
-0.027857013
-0.027856206
-0.027854241
-0.027850759
-0.027847732
-0.027847581
-0.027849849
-0.027849682
-0.027852865
-0.027855672
-0.027856206
-0.027855405
-0.027853452
-0.027849981
-0.027846958
-0.027846825
-0.027848265
-0.027847943
-0.027850945
-0.027853695
-0.027854241
-0.027853452
-0.027851514
-0.027848062
-0.027845061
-0.02784492
-0.027846152
-0.027845391
-0.02784779
-0.027850243
-0.027850759
-0.027849981
-0.027848062
-0.027844651
-0.027841717
-0.02784153
-0.027844652
-0.027843746
-0.027845426
-0.02784732
-0.027847732
-0.027846958
-0.027845061
-0.027841717
-0.02783906
-0.027839511
-0.027844623
-0.027844483
-0.027845855
-0.027847262
-0.027847581
-0.027846825
-0.02784492
-0.02784153
-0.027839511
-0.027840609
-0.025192885
-0.025191361
-0.02519527
-0.025198779
-0.025199484
-0.025198632
-0.025196694
-0.025194034
-0.025191912
-0.025191598
-0.025191361
-0.025191875
-0.025196289
-0.025199452
-0.025200017
-0.025199081
-0.025196951
-0.025193733
-0.02519129
-0.025191647
-0.02519527
-0.025196289
-0.025200492
-0.025203474
-0.025203955
-0.025202963
-0.025200664
-0.025196802
-0.025193514
-0.025193405
-0.025198779
-0.025199452
-0.025203474
-0.025206354
-0.025206797
-0.025205801
-0.025203475
-0.025199331
-0.025195484
-0.025194887
-0.025199484
-0.025200017
-0.025203955
-0.025206797
-0.025207235
-0.02520626
-0.025203971
-0.025199816
-0.025195876
-0.025195192
-0.025198632
-0.025199081
-0.025202963
-0.025205801
-0.02520626
-0.025205311
-0.025203052
-0.025198919
-0.025194989
-0.02519433
-0.025196694
-0.025196951
-0.025200664
-0.025203475
-0.025203971
-0.025203052
-0.025200814
-0.0251967
-0.025192789
-0.025192121
-0.025194034
-0.025193733
-0.025196802
-0.025199331
-0.025199816
-0.025198919
-0.0251967
-0.025192614
-0.025188752
-0.025188013
-0.025191912
-0.02519129
-0.025193514
-0.025195484
-0.025195876
-0.025194989
-0.025192789
-0.025188752
-0.025185179
-0.02518526
-0.025191598
-0.025191647
-0.025193405
-0.025194887
-0.025195192
-0.02519433
-0.025192121
-0.025188013
-0.02518526
-0.025186158
-0.013228548
-0.013227336
-0.013232118
-0.013235395
-0.013235889
-0.013234853
-0.01323266
-0.013229549
-0.013226838
-0.013226221
-0.013227336
-0.013228619
-0.013233548
-0.013236459
-0.013236832
-0.013235742
-0.013233365
-0.013229625
-0.013226406
-0.013226305
-0.013232118
-0.013233548
-0.013238192
-0.013240916
-0.013241226
-0.013240119
-0.013237614
-0.013233235
-0.01322909
-0.013228365
-0.013235395
-0.013236459
-0.013240916
-0.01324355
-0.013243846
-0.013242772
-0.013240282
-0.013235669
-0.013231012
-0.013229841
-0.013235889
-0.013236832
-0.013241226
-0.013243846
-0.013244165
-0.013243142
-0.013240719
-0.01323612
-0.013231392
-0.013230149
-0.013234853
-0.013235742
-0.013240119
-0.013242772
-0.013243142
-0.013242167
-0.013239789
-0.013235218
-0.013230497
-0.013229271
-0.01323266
-0.013233365
-0.013237614
-0.013240282
-0.013240719
-0.013239789
-0.013237431
-0.013232865
-0.013228142
-0.013226889
-0.013229549
-0.013229625
-0.013233235
-0.013235669
-0.01323612
-0.013235218
-0.013232865
-0.013228299
-0.013223597
-0.013222266
-0.013226838
-0.013226406
-0.01322909
-0.013231012
-0.013231392
-0.013230497
-0.013228142
-0.013223597
-0.013219193
-0.013218845
-0.013226221
-0.013226305
-0.013228365
-0.013229841
-0.013230149
-0.013229271
-0.013226889
-0.013222266
-0.013218845
-0.01321947
0.0013332159
0.0013342688
0.001328861
0.0013260472
0.0013257771
0.0013268771
0.0013291251
0.0013324605
0.0013356059
0.0013364375
0.0013342688
0.0013324432
0.0013272723
0.0013248134
0.0013246366
0.0013257529
0.0013281516
0.0013321462
0.0013359909
0.0013364878
0.001328861
0.0013272723
0.0013224281
0.0013201394
0.0013199936
0.0013210815
0.0013235522
0.0013281291
0.0013329324
0.0013342017
0.0013260472
0.0013248134
0.0013201394
0.0013179159
0.0013177531
0.0013187688
0.001321174
0.0013259151
0.0013311417
0.0013327786
0.0013257771
0.0013246366
0.0013199936
0.0013177531
0.0013175372
0.0013184729
0.0013207829
0.0013254823
0.0013307522
0.0013324397
0.0013268771
0.0013257529
0.0013210815
0.0013187688
0.0013184729
0.0013193399
0.0013215949
0.0013262672
0.0013315403
0.0013332311
0.0013291251
0.0013281516
0.0013235522
0.001321174
0.0013207829
0.0013215949
0.0013238389
0.001328535
0.0013338533
0.0013356135
0.0013324605
0.0013321462
0.0013281291
0.0013259151
0.0013254823
0.0013262672
0.001328535
0.0013332834
0.0013386414
0.0013405041
0.0013356059
0.0013359909
0.0013329324
0.0013311417
0.0013307522
0.0013315403
0.0013338533
0.0013386414
0.0013437292
0.0013444927
0.0013364375
0.0013364878
0.0013342017
0.0013327786
0.0013324397
0.0013332311
0.0013356135
0.0013405041
0.0013444927
0.0013440947
0.013674822
0.013675981
0.013670195
0.013667955
0.013667873
0.013668926
0.013671054
0.013674388
0.013677785
0.013678684
0.013675981
0.013673905
0.013668703
0.013666775
0.013666745
0.013667771
0.013669999
0.013673974
0.013678252
0.013678995
0.013670195
0.013668703
0.013663833
0.013662039
0.013662005
0.013662957
0.013665189
0.013669652
0.013674878
0.013676533
0.013667955
0.013666775
0.013662039
0.013660278
0.013660197
0.013661043
0.013663165
0.013667711
0.013673249
0.013675176
0.013667873
0.013666745
0.013662005
0.013660197
0.013660037
0.013660783
0.013662791
0.013667273
0.013672827
0.013674781
0.013668926
0.013667771
0.013662957
0.013661043
0.013660783
0.013661448
0.013663397
0.013667857
0.013673428
0.013675408
0.013671054
0.013669999
0.013665189
0.013663165
0.013662791
0.013663397
0.013665348
0.013669863
0.013675529
0.013677633
0.013674388
0.013673974
0.013669652
0.013667711
0.013667273
0.013667857
0.013669863
0.013674493
0.013680279
0.013682534
0.013677785
0.013678252
0.013674878
0.013673249
0.013672827
0.013673428
0.013675529
0.013680279
0.013685867
0.013686991
0.013678684
0.013678995
0.013676533
0.013675176
0.013674781
0.013675408
0.013677633
0.013682534
0.013686991
0.013686699
0.02129113
0.021292613
0.021286592
0.021284898
0.021284919
0.021285823
0.021287698
0.021290842
0.021294318
0.021295127
0.021292613
0.021290506
0.021285356
0.021283911
0.021283939
0.021284775
0.021286686
0.021290413
0.021294934
0.021295755
0.021286592
0.021285356
0.021280523
0.021279172
0.021279163
0.021279889
0.021281743
0.021285839
0.021291275
0.021293142
0.021284898
0.021283911
0.021279172
0.021277825
0.021277747
0.021278348
0.021280059
0.021284164
0.021289798
0.021291843
0.021284919
0.021283939
0.021279163
0.021277747
0.02127758
0.021278073
0.021279666
0.021283697
0.021289328
0.021291381
0.021285823
0.021284775
0.021279889
0.021278348
0.021278073
0.021278485
0.021280027
0.021284048
0.021289712
0.021291812
0.021287698
0.021286686
0.021281743
0.021280059
0.021279666
0.021280027
0.021281588
0.021285696
0.0212915
0.021293774
0.021290842
0.021290413
0.021285839
0.021284164
0.021283697
0.021284048
0.021285696
0.021289976
0.021295982
0.021298472
0.021294318
0.021294934
0.021291275
0.021289798
0.021289328
0.021289712
0.0212915
0.021295982
0.0213019
0.021303324
0.021295127
0.021295755
0.021293142
0.021291843
0.021291381
0.021291812
0.021293774
0.021298472
0.021303324
0.021303006
0.02358981
0.023591664
0.023585449
0.023584192
0.023584229
0.023584927
0.023586483
0.023589322
0.023592756
0.023593367
0.023591664
0.023589598
0.023584482
0.02358341
0.023583417
0.023584015
0.023585549
0.023588891
0.023593524
0.023594304
0.023585449
0.023584482
0.023579662
0.023578649
0.0235786
0.023579068
0.023580497
0.023584092
0.0235896
0.023591555
0.023584192
0.02358341
0.023578649
0.023577621
0.023577495
0.023577835
0.023579108
0.023582649
0.023588253
0.023590305
0.023584229
0.023583417
0.0235786
0.023577495
0.02357728
0.023577518
0.023578683
0.023582152
0.023587742
0.02358979
0.023584927
0.023584015
0.023579068
0.023577835
0.023577518
0.023577687
0.023578816
0.023582292
0.023587934
0.023590045
0.023586483
0.023585549
0.023580497
0.023579108
0.023578683
0.023578816
0.023579984
0.023583574
0.023589392
0.023591713
0.023589322
0.023588891
0.023584092
0.023582649
0.023582152
0.023582292
0.023583574
0.023587382
0.023593471
0.023596074
0.023592756
0.023593524
0.0235896
0.023588253
0.023587742
0.023587934
0.023589392
0.023593471
0.023599598
0.023601292
0.023593367
0.023594304
0.023591555
0.023590305
0.02358979
0.023590045
0.023591713
0.023596074
0.023601292
0.023600852
0.021241462
0.021243605
0.02123719
0.021236249
0.021236258
0.021236758
0.021238016
0.021240537
0.021243892
0.021244278
0.021243605
0.021241549
0.02123641
0.021235599
0.021235555
0.02123594
0.021237134
0.021240074
0.021244776
0.02124548
0.02123719
0.02123641
0.021231551
0.021230777
0.021230669
0.021230923
0.021231984
0.021235071
0.021240614
0.021242614
0.021236249
0.021235599
0.021230777
0.02122998
0.0212298
0.021229935
0.021230842
0.02123383
0.021239385
0.021241417
0.021236258
0.021235555
0.021230669
0.0212298
0.021229541
0.021229589
0.021230406
0.021233332
0.021238867
0.021240886
0.021236758
0.02123594
0.021230923
0.021229935
0.021229589
0.021229585
0.021230384
0.021233334
0.021238934
0.021241026
0.021238016
0.021237134
0.021231984
0.021230842
0.021230406
0.021230384
0.021231239
0.021234321
0.021240117
0.021242436
0.021240537
0.021240074
0.021235071
0.02123383
0.021233332
0.021233334
0.021234321
0.021237646
0.021243761
0.021246415
0.021243892
0.021244776
0.021240614
0.021239385
0.021238867
0.021238934
0.021240117
0.021243761
0.021250037
0.021252003
0.021244278
0.02124548
0.021242614
0.021241417
0.021240886
0.021241026
0.021242436
0.021246415
0.021252003
0.021251401
0.015565355
0.015567661
0.015561045
0.015560324
0.015560308
0.015560673
0.01556172
0.015563988
0.0155673
0.015567502
0.015567661
0.015565553
0.015560346
0.015559718
0.015559637
0.015559887
0.015560845
0.015563458
0.015568254
0.015568915
0.015561045
0.015560346
0.015555412
0.015554809
0.01555467
0.015554799
0.015555611
0.015558285
0.015563897
0.015565962
0.015560324
0.015559718
0.015554809
0.015554185
0.015553985
0.015554014
0.015554685
0.015557226
0.015562782
0.01556483
0.015560308
0.015559637
0.01555467
0.015553985
0.015553722
0.015553683
0.015554286
0.015556774
0.015562308
0.015564334
0.015560673
0.015559887
0.015554799
0.015554014
0.015553683
0.01555361
0.01555421
0.015556735
0.015562339
0.015564439
0.01556172
0.015560845
0.015555611
0.015554685
0.015554286
0.01555421
0.015554877
0.015557539
0.015563343
0.015565666
0.015563988
0.015563458
0.015558285
0.015557226
0.015556774
0.015556735
0.015557539
0.015560453
0.015566595
0.015569284
0.0155673
0.015568254
0.015563897
0.015562782
0.015562308
0.015562339
0.015563343
0.015566595
0.015573003
0.01557526
0.015567502
0.015568915
0.015565962
0.01556483
0.015564334
0.015564439
0.015565666
0.015569284
0.01557526
0.015574503
0.0080630699
0.0080654255
0.0080586342
0.0080580763
0.0080580659
0.0080583784
0.0080593221
0.0080614378
0.0080647702
0.0080648659
0.0080654255
0.008063221
0.0080579372
0.0080574472
0.0080573711
0.0080575785
0.0080584217
0.0080608182
0.0080657582
0.0080664373
0.0080586342
0.0080579372
0.008052926
0.008052459
0.008052335
0.0080524393
0.0080531359
0.0080555242
0.0080612616
0.0080634366
0.0080580763
0.0080574472
0.008052459
0.0080519777
0.0080518082
0.0080518331
0.0080524065
0.0080546383
0.0080602685
0.0080623887
0.0080580659
0.0080573711
0.008052335
0.0080518082
0.0080515928
0.0080515698
0.0080520941
0.0080542828
0.0080598856
0.0080619752
0.0080583784
0.0080575785
0.0080524393
0.0080518331
0.0080515698
0.008051527
0.0080520605
0.0080542907
0.008059962
0.0080621172
0.0080593221
0.0080584217
0.0080531359
0.0080524065
0.0080520941
0.0080520605
0.0080526626
0.0080550253
0.0080608839
0.0080632433
0.0080614378
0.0080608182
0.0080555242
0.0080546383
0.0080542828
0.0080542907
0.0080550253
0.0080576279
0.0080638221
0.008066558
0.0080647702
0.0080657582
0.0080612616
0.0080602685
0.0080598856
0.008059962
0.0080608839
0.0080638221
0.0080703637
0.0080729286
0.0080648659
0.0080664373
0.0080634366
0.0080623887
0.0080619752
0.0080621172
0.0080632433
0.008066558
0.0080729286
0.0080720504
0.00011777774
0.00012010587
0.00011319302
0.00011276956
0.00011280688
0.00011314243
0.00011407615
0.00011613054
0.0001195395
0.00011960317
0.00012010587
0.00011779149
0.00011245512
0.00011208768
0.00011206369
0.00011230786
0.00011313756
0.00011542038
0.00012053848
0.00012129245
0.00011319302
0.00011245512
0.00010739719
0.00010705567
0.00010699648
0.00010715636
0.00010784408
0.00011006355
0.00011596546
0.00011828463
0.00011276956
0.00011208768
0.00010705567
0.00010670927
0.00010661971
0.00010672017
0.00010730122
0.00010934629
0.00011510106
0.00011733822
0.00011280688
0.00011206369
0.00010699648
0.00010661971
0.00010649983
0.00010656882
0.0001071163
0.00010912324
0.00011484374
0.00011703991
0.00011314243
0.00011230786
0.00010715636
0.00010672017
0.00010656882
0.00010662901
0.000107192
0.00010923975
0.00011502036
0.00011726914
0.00011407615
0.00011313756
0.00010784408
0.00010730122
0.0001071163
0.000107192
0.00010782018
0.00010998738
0.00011593403
0.00011835765
0.00011613054
0.00011542038
0.00011006355
0.00010934629
0.00010912324
0.00010923975
0.00010998738
0.00011237213
0.00011863527
0.00012142949
0.0001195395
0.00012053848
0.00011596546
0.00011510106
0.00011484374
0.00011502036
0.00011593403
0.00011863527
0.00012530343
0.00012817389
0.00011960317
0.00012129245
0.00011828463
0.00011733822
0.00011703991
0.00011726914
0.00011835765
0.00012142949
0.00012817389
0.00012721447
-0.0071660337
-0.0071637733
-0.0071707343
-0.0071710307
-0.0071709078
-0.0071704963
-0.0071695127
-0.0071674602
-0.0071639483
-0.007163863
-0.0071637733
-0.00716618
-0.0071715202
-0.0071717631
-0.0071716946
-0.0071713611
-0.0071704819
-0.0071682448
-0.0071629473
-0.0071620871
-0.0071707343
-0.0071715202
-0.0071765723
-0.0071767835
-0.0071767385
-0.0071764731
-0.0071757311
-0.0071736018
-0.0071675338
-0.0071650621
-0.0071710307
-0.0071717631
-0.0071767835
-0.0071769905
-0.0071769634
-0.0071767419
-0.0071760943
-0.0071741549
-0.0071682654
-0.0071658964
-0.0071709078
-0.0071716946
-0.0071767385
-0.0071769634
-0.0071769548
-0.0071767534
-0.0071761294
-0.0071742281
-0.0071683825
-0.0071660658
-0.0071704963
-0.0071713611
-0.0071764731
-0.0071767419
-0.0071767534
-0.0071765543
-0.0071759134
-0.0071739767
-0.0071680833
-0.0071657298
-0.0071695127
-0.0071704819
-0.0071757311
-0.0071760943
-0.0071761294
-0.0071759134
-0.007175215
-0.0071731759
-0.0071671418
-0.0071646459
-0.0071674602
-0.0071682448
-0.0071736018
-0.0071741549
-0.0071742281
-0.0071739767
-0.0071731759
-0.0071709464
-0.0071646225
-0.0071617706
-0.0071639483
-0.0071629473
-0.0071675338
-0.0071682654
-0.0071683825
-0.0071680833
-0.0071671418
-0.0071646225
-0.0071578538
-0.0071547053
-0.007163863
-0.0071620871
-0.0071650621
-0.0071658964
-0.0071660658
-0.0071657298
-0.0071646459
-0.0071617706
-0.0071547053
-0.0071557138
-0.01302068
-0.013018498
-0.013025425
-0.013025591
-0.013025355
-0.013024842
-0.013023785
-0.013021712
-0.013018105
-0.013017972
-0.013018498
-0.013020959
-0.013026241
-0.013026349
-0.013026161
-0.013025715
-0.013024763
-0.013022544
-0.013017102
-0.013016132
-0.013025425
-0.013026241
-0.013031224
-0.013031294
-0.01303112
-0.013030731
-0.013029915
-0.013027841
-0.013021644
-0.01301904
-0.013025591
-0.013026349
-0.013031294
-0.013031353
-0.013031189
-0.013030834
-0.013030106
-0.013028237
-0.013022244
-0.013019759
-0.013025355
-0.013026161
-0.01303112
-0.013031189
-0.013031036
-0.013030696
-0.013029988
-0.013028162
-0.013022225
-0.013019804
-0.013024842
-0.013025715
-0.013030731
-0.013030834
-0.013030696
-0.013030356
-0.013029634
-0.013027781
-0.013021811
-0.01301937
-0.013023785
-0.013024763
-0.013029915
-0.013030106
-0.013029988
-0.013029634
-0.013028865
-0.013026928
-0.013020841
-0.013018289
-0.013021712
-0.013022544
-0.013027841
-0.013028237
-0.013028162
-0.013027781
-0.013026928
-0.013024827
-0.013018478
-0.013015586
-0.013018105
-0.013017102
-0.013021644
-0.013022244
-0.013022225
-0.013021811
-0.013020841
-0.013018478
-0.013011657
-0.013008281
-0.013017972
-0.013016132
-0.01301904
-0.013019759
-0.013019804
-0.01301937
-0.013018289
-0.013015586
-0.013008281
-0.01300932
-0.017007806
-0.017005695
-0.017012507
-0.017012535
-0.017012173
-0.017011554
-0.017010432
-0.01700835
-0.017004683
-0.0170045
-0.017005695
-0.017008161
-0.017013321
-0.017013283
-0.017012962
-0.017012405
-0.017011392
-0.017009197
-0.017003671
-0.017002615
-0.017012507
-0.017013321
-0.017018171
-0.017018089
-0.017017777
-0.017017272
-0.017016397
-0.017014379
-0.017008119
-0.017005427
-0.017012535
-0.017013283
-0.017018089
-0.017017992
-0.017017686
-0.017017212
-0.017016425
-0.017014629
-0.017008596
-0.017006036
-0.017012173
-0.017012962
-0.017017777
-0.017017686
-0.017017391
-0.01701693
-0.017016166
-0.017014422
-0.017008459
-0.017005976
-0.017011554
-0.017012405
-0.017017272
-0.017017212
-0.01701693
-0.017016474
-0.017015702
-0.017013943
-0.017007961
-0.017005473
-0.017010432
-0.017011392
-0.017016397
-0.017016425
-0.017016166
-0.017015702
-0.017014893
-0.017013067
-0.017006991
-0.017004417
-0.01700835
-0.017009197
-0.017014379
-0.017014629
-0.017014422
-0.017013943
-0.017013067
-0.0170111
-0.017004785
-0.017001886
-0.017004683
-0.017003671
-0.017008119
-0.017008596
-0.017008459
-0.017007961
-0.017006991
-0.017004785
-0.016997976
-0.016994438
-0.0170045
-0.017002615
-0.017005427
-0.017006036
-0.017005976
-0.017005473
-0.017004417
-0.017001886
-0.016994438
-0.016995503
-0.018974352
-0.018972296
-0.018978918
-0.018978802
-0.018978312
-0.018977606
-0.018976447
-0.018974389
-0.018970717
-0.0189705
-0.018972296
-0.018974716
-0.018979693
-0.018979502
-0.01897905
-0.018978402
-0.018977359
-0.01897522
-0.018969689
-0.018968583
-0.018978918
-0.018979693
-0.018984352
-0.018984113
-0.018983668
-0.018983073
-0.018982175
-0.018980242
-0.018974004
-0.018971278
-0.018978802
-0.018979502
-0.018984113
-0.018983857
-0.018983419
-0.018982857
-0.018982054
-0.018980361
-0.018974369
-0.018971789
-0.018978312
-0.01897905
-0.018983668
-0.018983419
-0.018982994
-0.018982451
-0.018981678
-0.018980049
-0.018974143
-0.018971653
-0.018977606
-0.018978402
-0.018983073
-0.018982857
-0.018982451
-0.018981918
-0.018981146
-0.018979515
-0.018973604
-0.018971121
-0.018976447
-0.018977359
-0.018982175
-0.018982054
-0.018981678
-0.018981146
-0.01898035
-0.018978666
-0.018972679
-0.01897013
-0.018974389
-0.01897522
-0.018980242
-0.018980361
-0.018980049
-0.018979515
-0.018978666
-0.01897686
-0.01897065
-0.018967784
-0.018970717
-0.018969689
-0.018974004
-0.018974369
-0.018974143
-0.018973604
-0.018972679
-0.01897065
-0.018963928
-0.018960301
-0.0189705
-0.018968583
-0.018971278
-0.018971789
-0.018971653
-0.018971121
-0.01897013
-0.018967784
-0.018960301
-0.018961398
-0.018992505
-0.018990484
-0.018996853
-0.018996592
-0.018995985
-0.018995217
-0.018994063
-0.018992074
-0.01898846
-0.018988236
-0.018990484
-0.018992809
-0.018997554
-0.018997209
-0.018996637
-0.01899593
-0.018994901
-0.018992862
-0.018987412
-0.0189863
-0.018996853
-0.018997554
-0.019001974
-0.019001578
-0.019001016
-0.019000367
-0.018999495
-0.018997689
-0.018991561
-0.018988865
-0.018996592
-0.018997209
-0.019001578
-0.019001168
-0.019000617
-0.019000008
-0.018999243
-0.018997695
-0.018991832
-0.018989292
-0.018995985
-0.018996637
-0.019001016
-0.019000617
-0.019000085
-0.018999504
-0.01899878
-0.018997312
-0.01899155
-0.018989112
-0.018995217
-0.01899593
-0.019000367
-0.019000008
-0.018999504
-0.018998942
-0.01899823
-0.018996772
-0.018991019
-0.0189886
-0.018994063
-0.018994901
-0.018999495
-0.018999243
-0.01899878
-0.01899823
-0.018997505
-0.018996006
-0.01899019
-0.018987716
-0.018992074
-0.018992862
-0.018997689
-0.018997695
-0.018997312
-0.018996772
-0.018996006
-0.018994397
-0.018988368
-0.018985581
-0.01898846
-0.018987412
-0.018991561
-0.018991832
-0.01899155
-0.018991019
-0.01899019
-0.018988368
-0.01898181
-0.018978167
-0.018988236
-0.0189863
-0.018988865
-0.018989292
-0.018989112
-0.0189886
-0.018987716
-0.018985581
-0.018978167
-0.018979307
-0.017296823
-0.017294822
-0.017300886
-0.017300486
-0.017299779
-0.017298983
-0.017297879
-0.017296009
-0.017292514
-0.017292313
-0.017294822
-0.017297012
-0.017301485
-0.017300992
-0.01730032
-0.01729959
-0.017298624
-0.017296733
-0.017291443
-0.01729037
-0.017300886
-0.017301485
-0.01730563
-0.017305087
-0.017304429
-0.017303766
-0.017302971
-0.017301337
-0.017295406
-0.017292796
-0.017300486
-0.017300992
-0.017305087
-0.017304533
-0.017303894
-0.017303282
-0.017302608
-0.017301251
-0.0172956
-0.017293158
-0.017299779
-0.01730032
-0.017304429
-0.017303894
-0.017303283
-0.017302709
-0.017302091
-0.01730083
-0.017295297
-0.017292968
-0.017298983
-0.01729959
-0.017303766
-0.017303282
-0.017302709
-0.017302167
-0.017301572
-0.017300333
-0.017294821
-0.017292519
-0.017297879
-0.017298624
-0.017302971
-0.017302608
-0.017302091
-0.017301572
-0.017300975
-0.017299705
-0.017294137
-0.017291788
-0.017296009
-0.017296733
-0.017301337
-0.017301251
-0.01730083
-0.017300333
-0.017299705
-0.017298332
-0.017292555
-0.017289888
-0.017292514
-0.017291443
-0.017295406
-0.0172956
-0.017295297
-0.017294821
-0.017294137
-0.017292555
-0.017286231
-0.01728264
-0.017292313
-0.01729037
-0.017292796
-0.017293158
-0.017292968
-0.017292519
-0.017291788
-0.017289888
-0.01728264
-0.017283835
-0.014226181
-0.014224188
-0.01422991
-0.014229382
-0.014228598
-0.014227809
-0.014226798
-0.014225092
-0.014221774
-0.014221623
-0.014224188
-0.014226214
-0.014230386
-0.014229758
-0.01422901
-0.014228295
-0.014227436
-0.014225737
-0.014220679
-0.014219686
-0.01422991
-0.014230386
-0.014234233
-0.014233556
-0.014232829
-0.014232191
-0.01423152
-0.0142301
-0.014224441
-0.01422197
-0.014229382
-0.014229758
-0.014233556
-0.014232875
-0.014232176
-0.014231602
-0.014231068
-0.014229943
-0.014224578
-0.014222283
-0.014228598
-0.01422901
-0.014232829
-0.014232176
-0.014231517
-0.014230994
-0.014230529
-0.014229517
-0.014224285
-0.014222114
-0.014227809
-0.014228295
-0.014232191
-0.014231602
-0.014230994
-0.014230514
-0.014230085
-0.014229106
-0.014223904
-0.014221767
-0.014226798
-0.014227436
-0.01423152
-0.014231068
-0.014230529
-0.014230085
-0.014229663
-0.014228659
-0.014223407
-0.014221224
-0.014225092
-0.014225737
-0.0142301
-0.014229943
-0.014229517
-0.014229106
-0.014228659
-0.014227557
-0.014222093
-0.014219586
-0.014221774
-0.014220679
-0.014224441
-0.014224578
-0.014224285
-0.014223904
-0.014223407
-0.014222093
-0.014216066
-0.014212585
-0.014221623
-0.014219686
-0.01422197
-0.014222283
-0.014222114
-0.014221767
-0.014221224
-0.014219586
-0.014212585
-0.014213847
-0.010174284
-0.010172295
-0.010177649
-0.010177008
-0.010176173
-0.010175423
-0.010174542
-0.010173037
-0.010169943
-0.010169866
-0.010172295
-0.010174135
-0.01017799
-0.010177245
-0.010176449
-0.01017578
-0.010175066
-0.010173595
-0.010168828
-0.010167947
-0.010177649
-0.01017799
-0.010181525
-0.010180735
-0.010179967
-0.010179389
-0.010178878
-0.010177706
-0.01017238
-0.010170089
-0.010177008
-0.010177245
-0.010180735
-0.010179947
-0.010179218
-0.010178717
-0.01017836
-0.010177498
-0.010172478
-0.010170371
-0.010176173
-0.010176449
-0.010179967
-0.010179218
-0.01017854
-0.010178102
-0.01017783
-0.010177096
-0.010172223
-0.010170248
-0.010175423
-0.01017578
-0.010179389
-0.010178717
-0.010178102
-0.01017772
-0.010177494
-0.010176805
-0.01017197
-0.010170033
-0.010174542
-0.010175066
-0.010178878
-0.01017836
-0.01017783
-0.010177494
-0.010177283
-0.010176574
-0.01017169
-0.010169706
-0.010173037
-0.010173595
-0.010177706
-0.010177498
-0.010177096
-0.010176805
-0.010176574
-0.010175765
-0.010170664
-0.010168346
-0.010169943
-0.010168828
-0.01017238
-0.010172478
-0.010172223
-0.01017197
-0.01017169
-0.010170664
-0.010164984
-0.01016166
-0.010169866
-0.010167947
-0.010170089
-0.010170371
-0.010170248
-0.010170033