/*--------------------------------*- C++ -*----------------------------------*\
| =========                 |                                                 |
| \\      /  F ield         | OpenFOAM: The Open Source CFD Toolbox           |
|  \\    /   O peration     | Version:  v2106                                 |
|   \\  /    A nd           | Website:  www.openfoam.com                      |
|    \\/     M anipulation  |                                                 |
\*---------------------------------------------------------------------------*/
FoamFile
{
    version     2.0;
    format      ascii;
    arch        "LSB;label=32;scalar=64";
    class       volScalarField;
    location    "100";
    object      Tmode8;
}
// * * * * * * * * * * * * * * * * * * * * * * * * * * * * * * * * * * * * * //

dimensions      [0 0 0 0 0 0 0];

internalField   nonuniform List<scalar> 
4000
(
-0.0084899024
-0.0084906457
-0.0084840824
-0.008486397
-0.0084857788
-0.0084856356
-0.0084858659
-0.0084862679
-0.0084867008
-0.0084864421
-0.0084906457
-0.0084854334
-0.0084828417
-0.0084843049
-0.0084836274
-0.008483516
-0.0084837538
-0.0084842059
-0.0084852245
-0.0084848982
-0.0084840824
-0.0084828417
-0.0084793662
-0.008480713
-0.0084800758
-0.0084800011
-0.0084802156
-0.008480437
-0.0084815767
-0.0084828179
-0.008486397
-0.0084843049
-0.008480713
-0.0084820796
-0.0084814643
-0.0084814267
-0.0084817083
-0.0084818336
-0.0084823809
-0.0084829167
-0.0084857788
-0.0084836274
-0.0084800758
-0.0084814643
-0.0084808379
-0.0084807924
-0.008481127
-0.0084813873
-0.0084820522
-0.0084826309
-0.0084856356
-0.008483516
-0.0084800011
-0.0084814267
-0.0084807924
-0.0084807121
-0.0084810278
-0.0084813041
-0.0084820101
-0.0084826239
-0.0084858659
-0.0084837538
-0.0084802156
-0.0084817083
-0.008481127
-0.0084810278
-0.0084813216
-0.0084815882
-0.0084822953
-0.0084829103
-0.0084862679
-0.0084842059
-0.008480437
-0.0084818336
-0.0084813873
-0.0084813041
-0.0084815882
-0.008481848
-0.0084825509
-0.0084831583
-0.0084867008
-0.0084852245
-0.0084815767
-0.0084823809
-0.0084820522
-0.0084820101
-0.0084822953
-0.0084825509
-0.0084832512
-0.0084838592
-0.0084864421
-0.0084848982
-0.0084828179
-0.0084829167
-0.0084826309
-0.0084826239
-0.0084829103
-0.0084831583
-0.0084838592
-0.0084843179
0.03278425
0.032815938
0.032841941
0.032835371
0.032839344
0.03284017
0.032838079
0.032834158
0.0328291
0.03283061
0.032815938
0.03284184
0.032857649
0.032853988
0.032858082
0.032858709
0.03285669
0.032852566
0.032842017
0.03284349
0.032841941
0.032857649
0.032875196
0.032871866
0.032875707
0.032876084
0.032874296
0.032872022
0.032859709
0.03285471
0.032835371
0.032853988
0.032871866
0.032868414
0.032872123
0.032872249
0.032870068
0.032868768
0.032859482
0.032857348
0.032839344
0.032858082
0.032875707
0.032872123
0.032875898
0.032876058
0.03287351
0.032871529
0.032861837
0.032859637
0.03284017
0.032858709
0.032876084
0.032872249
0.032876058
0.032876426
0.032873964
0.032871836
0.032861898
0.032859499
0.032838079
0.03285669
0.032874296
0.032870068
0.03287351
0.032873964
0.032871631
0.032869536
0.032859567
0.032857169
0.032834158
0.032852566
0.032872022
0.032868768
0.032871529
0.032871836
0.032869536
0.032867457
0.032857474
0.032855122
0.0328291
0.032842017
0.032859709
0.032859482
0.032861837
0.032861898
0.032859567
0.032857474
0.032847351
0.032844719
0.03283061
0.03284349
0.03285471
0.032857348
0.032859637
0.032859499
0.032857169
0.032855122
0.032844719
0.032843781
-0.019735245
-0.019680084
-0.019659771
-0.019659704
-0.019653658
-0.019653003
-0.019656892
-0.019664906
-0.019681307
-0.019686687
-0.019680084
-0.019633453
-0.019619529
-0.019617375
-0.01961146
-0.019611075
-0.019614133
-0.019619769
-0.019647692
-0.019663538
-0.019659771
-0.019619529
-0.019604734
-0.019602623
-0.019597154
-0.019597347
-0.019600268
-0.019601099
-0.019627368
-0.019647915
-0.019659704
-0.019617375
-0.019602623
-0.019600746
-0.01959542
-0.01959604
-0.019599984
-0.019600042
-0.019623277
-0.019641235
-0.019653658
-0.01961146
-0.019597154
-0.01959542
-0.019589916
-0.019590413
-0.019594835
-0.01959569
-0.019619344
-0.019637367
-0.019653003
-0.019611075
-0.019597347
-0.01959604
-0.019590413
-0.019590581
-0.019594882
-0.019595925
-0.019619868
-0.019638093
-0.019656892
-0.019614133
-0.019600268
-0.019599984
-0.019594835
-0.019594882
-0.01959903
-0.019600057
-0.019624032
-0.019642063
-0.019664906
-0.019619769
-0.019601099
-0.019600042
-0.01959569
-0.019595925
-0.019600057
-0.019601103
-0.019625193
-0.019643132
-0.019681307
-0.019647692
-0.019627368
-0.019623277
-0.019619344
-0.019619868
-0.019624032
-0.019625193
-0.019650446
-0.019671433
-0.019686687
-0.019663538
-0.019647915
-0.019641235
-0.019637367
-0.019638093
-0.019642063
-0.019643132
-0.019671433
-0.019677102
-0.028670939
-0.02860622
-0.028586419
-0.028579517
-0.028572637
-0.028572702
-0.028577771
-0.028586531
-0.02861103
-0.028634935
-0.02860622
-0.028555529
-0.028539234
-0.028531386
-0.02852495
-0.028525696
-0.028530171
-0.02853315
-0.028564247
-0.028599714
-0.028586419
-0.028539234
-0.02852301
-0.028515582
-0.028509632
-0.028511211
-0.028516555
-0.028515257
-0.028543797
-0.028581837
-0.028579517
-0.028531386
-0.028515582
-0.028508445
-0.028502536
-0.028504421
-0.028510969
-0.028509301
-0.028535628
-0.028571929
-0.028572637
-0.02852495
-0.028509632
-0.028502536
-0.028496321
-0.02849794
-0.028504864
-0.028503857
-0.028530536
-0.028566934
-0.028572702
-0.028525696
-0.028511211
-0.028504421
-0.02849794
-0.028499143
-0.028505911
-0.028505068
-0.028532012
-0.028568563
-0.028577771
-0.028530171
-0.028516555
-0.028510969
-0.028504864
-0.028505911
-0.028512548
-0.028511709
-0.028538612
-0.028574561
-0.028586531
-0.02853315
-0.028515257
-0.028509301
-0.028503857
-0.028505068
-0.028511709
-0.028510844
-0.028537848
-0.028573627
-0.02861103
-0.028564247
-0.028543797
-0.028535628
-0.028530536
-0.028532012
-0.028538612
-0.028537848
-0.02856837
-0.028616797
-0.028634935
-0.028599714
-0.028581837
-0.028571929
-0.028566934
-0.028568563
-0.028574561
-0.028573627
-0.028616797
-0.028640565
-0.0045168011
-0.0044303732
-0.0044108262
-0.0043994432
-0.0043926783
-0.0043939674
-0.0044011944
-0.0044110299
-0.0044357762
-0.0044698634
-0.0044303732
-0.0043656188
-0.004348004
-0.0043366082
-0.0043303566
-0.0043324858
-0.004340215
-0.0043454373
-0.0043747281
-0.0044220493
-0.0044108262
-0.004348004
-0.004331236
-0.004320518
-0.0043146054
-0.0043172779
-0.0043260021
-0.0043280298
-0.0043548117
-0.0044027507
-0.0043994432
-0.0043366082
-0.004320518
-0.0043101293
-0.0043041455
-0.0043068518
-0.0043164657
-0.0043182729
-0.0043436656
-0.0043906391
-0.0043926783
-0.0043303566
-0.0043146054
-0.0043041455
-0.0042977651
-0.0043000735
-0.0043098355
-0.0043120296
-0.0043376607
-0.0043847694
-0.0043939674
-0.0043324858
-0.0043172779
-0.0043068518
-0.0043000735
-0.0043019259
-0.0043115194
-0.0043138492
-0.0043397277
-0.0043869926
-0.0044011944
-0.004340215
-0.0043260021
-0.0043164657
-0.0043098355
-0.0043115194
-0.0043210658
-0.0043234526
-0.0043491569
-0.0043953382
-0.0044110299
-0.0043454373
-0.0043280298
-0.0043182729
-0.0043120296
-0.0043138492
-0.0043234526
-0.004325557
-0.0043504199
-0.004394876
-0.0044357762
-0.0043747281
-0.0043548117
-0.0043436656
-0.0043376607
-0.0043397277
-0.0043491569
-0.0043504199
-0.0043780767
-0.0044420764
-0.0044698634
-0.0044220493
-0.0044027507
-0.0043906391
-0.0043847694
-0.0043869926
-0.0043953382
-0.004394876
-0.0044420764
-0.0044861236
0.019487334
0.019588662
0.019606685
0.019620123
0.019626554
0.019624712
0.019615641
0.019602207
0.019574354
0.019528998
0.019588662
0.019662612
0.019679453
0.019692297
0.019698314
0.019696013
0.019686541
0.019676859
0.019646747
0.019587099
0.019606685
0.019679453
0.019694983
0.019707019
0.019712819
0.019710335
0.019700248
0.019692988
0.019665465
0.019607061
0.019620123
0.019692297
0.019707019
0.019718735
0.019724693
0.019722423
0.019711925
0.019704932
0.019678272
0.019620399
0.019626554
0.019698314
0.019712819
0.019724693
0.019731097
0.019729312
0.019718901
0.0197118
0.019685031
0.019627023
0.019624712
0.019696013
0.019710335
0.019722423
0.019729312
0.01972797
0.019717696
0.019710419
0.019683315
0.019625031
0.019615641
0.019686541
0.019700248
0.019711925
0.019718901
0.019717696
0.01970727
0.019699632
0.019672407
0.019615088
0.019602207
0.019676859
0.019692988
0.019704932
0.0197118
0.019710419
0.019699632
0.019691963
0.019665822
0.019611392
0.019574354
0.019646747
0.019665465
0.019678272
0.019685031
0.019683315
0.019672407
0.019665822
0.019638682
0.019564612
0.019528998
0.019587099
0.019607061
0.019620399
0.019627023
0.019625031
0.019615088
0.019611392
0.019564612
0.019501088
0.026124237
0.026236742
0.026252813
0.026266521
0.026272687
0.026271321
0.026262487
0.026247453
0.026217833
0.026163119
0.026236742
0.026317466
0.026332473
0.026345261
0.026351065
0.026349502
0.026340523
0.026328517
0.026298741
0.026228867
0.026252813
0.026332473
0.026345983
0.026357961
0.026363657
0.026362202
0.026353069
0.026342962
0.026316037
0.02624898
0.026266521
0.026345261
0.026357961
0.026369668
0.026375585
0.026374529
0.02636543
0.026355712
0.026329424
0.026262792
0.026272687
0.026351065
0.026363657
0.026375585
0.026381962
0.026381426
0.026372599
0.026363001
0.02633674
0.026270034
0.026271321
0.026349502
0.026362202
0.026374529
0.026381426
0.026381292
0.026372564
0.026362754
0.026336083
0.026269001
0.026262487
0.026340523
0.026353069
0.02636543
0.026372599
0.026372564
0.026363509
0.026353016
0.026325747
0.026259067
0.026247453
0.026328517
0.026342962
0.026355712
0.026363001
0.026362754
0.026353016
0.026341854
0.026314951
0.026250766
0.026217833
0.026298741
0.026316037
0.026329424
0.02633674
0.026336083
0.026325747
0.026314951
0.026287506
0.026206493
0.026163119
0.026228867
0.02624898
0.026262792
0.026270034
0.026269001
0.026259067
0.026250766
0.026206493
0.026125701
0.01606954
0.016189983
0.016203982
0.016216924
0.016222933
0.016222426
0.016214755
0.016199658
0.016169814
0.016108372
0.016189983
0.016275326
0.016288068
0.016300031
0.016305784
0.01630531
0.016297784
0.016285161
0.016256844
0.016179369
0.016203982
0.016288068
0.0162993
0.016310519
0.016316257
0.016316112
0.016308846
0.016297832
0.016272768
0.016199313
0.016216924
0.016300031
0.016310519
0.01632151
0.016327492
0.016327847
0.016320945
0.016310451
0.016286026
0.016213114
0.016222933
0.016305784
0.016316257
0.016327492
0.0163339
0.016334751
0.016328218
0.016317975
0.01629368
0.016220771
0.016222426
0.01630531
0.016316112
0.016327847
0.016334751
0.016335925
0.016329428
0.016318934
0.016294192
0.016220873
0.016214755
0.016297784
0.016308846
0.016320945
0.016328218
0.016329428
0.016322473
0.016311083
0.016285384
0.016211913
0.016199658
0.016285161
0.016297832
0.016310451
0.016317975
0.016318934
0.016311083
0.016298504
0.016272264
0.016200131
0.016169814
0.016256844
0.016272768
0.016286026
0.01629368
0.016294192
0.016285384
0.016272264
0.016245001
0.016159383
0.016108372
0.016179369
0.016199313
0.016213114
0.016220771
0.016220873
0.016211913
0.016200131
0.016159383
0.016064268
-0.001269281
-0.0011434332
-0.0011315249
-0.0011197144
-0.0011136109
-0.0011130453
-0.0011192123
-0.0011335852
-0.001162831
-0.0012288012
-0.0011434332
-0.0010553248
-0.0010449115
-0.0010339849
-0.0010280249
-0.0010272343
-0.0010329711
-0.0010451848
-0.0010716323
-0.0011544877
-0.0011315249
-0.0010449115
-0.0010359163
-0.0010256493
-0.0010196531
-0.0010184061
-0.0010235693
-0.0010342656
-0.0010569685
-0.0011349329
-0.0011197144
-0.0010339849
-0.0010256493
-0.0010155884
-0.0010093738
-0.0010076116
-0.0010122242
-0.0010222956
-0.0010442188
-0.0011214158
-0.0011136109
-0.0010280249
-0.0010196531
-0.0010093738
-0.0010028119
-0.0010006357
-0.001004882
-0.0010146727
-0.0010364215
-0.0011135625
-0.0011130453
-0.0010272343
-0.0010184061
-0.0010076116
-0.0010006357
-0.0009982578
-0.0010025713
-0.0010126929
-0.0010349461
-0.0011125318
-0.0011192123
-0.0010329711
-0.0010235693
-0.0010122242
-0.001004882
-0.0010025713
-0.0010074785
-0.0010186628
-0.00104213
-0.0011203093
-0.0011335852
-0.0010451848
-0.0010342656
-0.0010222956
-0.0010146727
-0.0010126929
-0.0010186628
-0.0010314137
-0.0010562013
-0.0011342675
-0.001162831
-0.0010716323
-0.0010569685
-0.0010442188
-0.0010364215
-0.0010349461
-0.00104213
-0.0010562013
-0.001082778
-0.0011713983
-0.0012288012
-0.0011544877
-0.0011349329
-0.0011214158
-0.0011135625
-0.0011125318
-0.0011203093
-0.0011342675
-0.0011713983
-0.0012777872
-0.016236135
-0.016106764
-0.016096967
-0.016086218
-0.016079815
-0.016078193
-0.016082917
-0.016096279
-0.016124634
-0.01619351
-0.016106764
-0.016017336
-0.016009108
-0.015999069
-0.015992732
-0.015990772
-0.015994833
-0.016006126
-0.016030745
-0.016117256
-0.016096967
-0.016009108
-0.016002133
-0.015992669
-0.015986296
-0.015983852
-0.015987154
-0.01599689
-0.01601725
-0.016098257
-0.016086218
-0.015999069
-0.015992669
-0.015983418
-0.015976898
-0.015974009
-0.015976714
-0.01598577
-0.016005167
-0.016085174
-0.016079815
-0.015992732
-0.015986296
-0.015976898
-0.015970154
-0.015966984
-0.015969407
-0.015978235
-0.015997463
-0.016077392
-0.016078193
-0.015990772
-0.015983852
-0.015974009
-0.015966984
-0.015963761
-0.015966381
-0.015975644
-0.015995452
-0.016075873
-0.016082917
-0.015994833
-0.015987154
-0.015976714
-0.015969407
-0.015966381
-0.015969724
-0.015980185
-0.016001395
-0.01608274
-0.016096279
-0.016006126
-0.01599689
-0.01598577
-0.015978235
-0.015975644
-0.015980185
-0.015992481
-0.016015605
-0.01609786
-0.016124634
-0.016030745
-0.01601725
-0.016005167
-0.015997463
-0.015995452
-0.016001395
-0.016015605
-0.016041283
-0.016131944
-0.01619351
-0.016117256
-0.016098257
-0.016085174
-0.016077392
-0.016075873
-0.01608274
-0.01609786
-0.016131944
-0.016246859
-0.023219826
-0.023088314
-0.023080566
-0.023070503
-0.023063694
-0.023061278
-0.023064961
-0.023077419
-0.02310493
-0.023175626
-0.023088314
-0.022998603
-0.022992233
-0.022982683
-0.022975906
-0.022973123
-0.022975991
-0.022986308
-0.02300938
-0.023098297
-0.023080566
-0.022992233
-0.022986913
-0.022977878
-0.022971115
-0.022967915
-0.022969972
-0.022978648
-0.022997002
-0.023079984
-0.023070503
-0.022982683
-0.022977878
-0.022969095
-0.022962305
-0.022958804
-0.022960346
-0.022968365
-0.022985614
-0.023067432
-0.023063694
-0.022975906
-0.022971115
-0.022962305
-0.022955453
-0.022951851
-0.022953264
-0.02296117
-0.0229783
-0.023060049
-0.023061278
-0.022973123
-0.022967915
-0.022958804
-0.022951851
-0.022948371
-0.022950124
-0.022958574
-0.022976353
-0.023058636
-0.023064961
-0.022975991
-0.022969972
-0.022960346
-0.022953264
-0.022950124
-0.022952709
-0.022962444
-0.022981736
-0.023065152
-0.023077419
-0.022986308
-0.022978648
-0.022968365
-0.02296117
-0.022958574
-0.022962444
-0.022974167
-0.022995768
-0.023080834
-0.02310493
-0.02300938
-0.022997002
-0.022985614
-0.0229783
-0.022976353
-0.022981736
-0.022995768
-0.023020573
-0.023112752
-0.023175626
-0.023098297
-0.023079984
-0.023067432
-0.023060049
-0.023058636
-0.023065152
-0.023080834
-0.023112752
-0.023233946
-0.02126228
-0.021129529
-0.021123636
-0.021113755
-0.021106541
-0.021103764
-0.021107032
-0.021118991
-0.021145917
-0.021217809
-0.021129529
-0.02104015
-0.021035193
-0.021025656
-0.021018488
-0.02101539
-0.021017786
-0.021027455
-0.021049398
-0.0211399
-0.021123636
-0.021035193
-0.021031093
-0.02102205
-0.021014995
-0.021011624
-0.021013284
-0.02102126
-0.021038133
-0.021122384
-0.021113755
-0.021025656
-0.02102205
-0.021013339
-0.021006413
-0.021002945
-0.021004271
-0.021011695
-0.021027422
-0.021110451
-0.021106541
-0.021018488
-0.021014995
-0.021006413
-0.02099962
-0.020996262
-0.020997657
-0.021005129
-0.021020823
-0.021103822
-0.021103764
-0.02101539
-0.021011624
-0.021002945
-0.020996262
-0.020993213
-0.020995098
-0.021003216
-0.021019613
-0.021103167
-0.021107032
-0.021017786
-0.021013284
-0.021004271
-0.020997657
-0.020995098
-0.020997898
-0.021007335
-0.021025268
-0.021110039
-0.021118991
-0.021027455
-0.02102126
-0.021011695
-0.021005129
-0.021003216
-0.021007335
-0.021018796
-0.021039229
-0.021126097
-0.021145917
-0.021049398
-0.021038133
-0.021027422
-0.021020823
-0.021019613
-0.021025268
-0.021039229
-0.021063342
-0.021156752
-0.021217809
-0.0211399
-0.021122384
-0.021110451
-0.021103822
-0.021103167
-0.021110039
-0.021126097
-0.021156752
-0.021282522
-0.012683082
-0.012549628
-0.012545342
-0.01253521
-0.012527721
-0.012525108
-0.012528688
-0.01254073
-0.012567455
-0.012640257
-0.012549628
-0.012460885
-0.012456918
-0.012447019
-0.012439636
-0.01243681
-0.012439556
-0.012449167
-0.012470463
-0.012562061
-0.012545342
-0.012456918
-0.012453651
-0.01244427
-0.012437133
-0.012434231
-0.012436413
-0.012444356
-0.012460361
-0.012545454
-0.01253521
-0.012447019
-0.01244427
-0.012435332
-0.012428503
-0.012425732
-0.012427821
-0.01243539
-0.012450314
-0.012534236
-0.012527721
-0.012439636
-0.012437133
-0.012428503
-0.012422011
-0.012419569
-0.012421941
-0.012429735
-0.012444738
-0.012528693
-0.012525108
-0.01243681
-0.012434231
-0.012425732
-0.012419569
-0.012417619
-0.01242062
-0.012429149
-0.012444886
-0.012529393
-0.012528688
-0.012439556
-0.012436413
-0.012427821
-0.012421941
-0.01242062
-0.012424594
-0.012434424
-0.012451644
-0.01253734
-0.01254073
-0.012449167
-0.012444356
-0.01243539
-0.012429735
-0.012429149
-0.012434424
-0.012446211
-0.012465936
-0.01255391
-0.012567455
-0.012470463
-0.012460361
-0.012450314
-0.012444738
-0.012444886
-0.012451644
-0.012465936
-0.01248961
-0.012584031
-0.012640257
-0.012562061
-0.012545454
-0.012534236
-0.012528693
-0.012529393
-0.01253734
-0.01255391
-0.012584031
-0.01271314
-0.0012013534
-0.0010675806
-0.0010646986
-0.001054069
-0.0010465418
-0.0010446151
-0.0010491944
-0.0010619418
-0.0010888656
-0.0011624794
-0.0010675806
-0.00097965478
-0.00097638268
-0.00096593844
-0.00095861069
-0.00095661818
-0.00096048035
-0.00097071293
-0.00099181863
-0.001084218
-0.0010646986
-0.00097638268
-0.0009736972
-0.00096383091
-0.00095689763
-0.00095504361
-0.00095857374
-0.00096725106
-0.00098296509
-0.0010686342
-0.001054069
-0.00096593844
-0.00096383091
-0.00095453174
-0.00094808396
-0.00094658792
-0.00095027983
-0.00095880617
-0.00097359633
-0.0010582261
-0.0010465418
-0.00095861069
-0.00095689763
-0.00094808396
-0.00094216451
-0.00094119616
-0.00094537064
-0.00095429358
-0.00096928119
-0.0010540203
-0.0010446151
-0.00095661818
-0.00095504361
-0.00094658792
-0.00094119616
-0.00094088199
-0.00094580194
-0.00095552158
-0.00097125276
-0.0010565206
-0.0010491944
-0.00096048035
-0.00095857374
-0.00095027983
-0.00094537064
-0.00094580194
-0.0009517217
-0.00096268757
-0.00097978953
-0.0010661353
-0.0010619418
-0.00097071293
-0.00096725106
-0.00095880617
-0.00095429358
-0.00095552158
-0.00096268757
-0.00097546495
-0.00099493032
-0.0010835212
-0.0010888656
-0.00099181863
-0.00098296509
-0.00097359633
-0.00096928119
-0.00097125276
-0.00097978953
-0.00099493032
-0.0010184064
-0.0011135688
-0.0011624794
-0.001084218
-0.0010686342
-0.0010582261
-0.0010540203
-0.0010565206
-0.0010661353
-0.0010835212
-0.0011135688
-0.0012451007
0.0095979449
0.0097316245
0.0097332166
0.0097443965
0.0097516909
0.0097525117
0.009746414
0.0097324523
0.0097050243
0.0096306632
0.0097316245
0.0098185366
0.0098212471
0.0098322376
0.0098392247
0.0098399528
0.0098344048
0.0098229637
0.009801715
0.0097087573
0.0097332166
0.0098212471
0.0098234486
0.0098337847
0.009840235
0.0098406196
0.0098351526
0.0098250798
0.0098092278
0.0097232202
0.0097443965
0.0098322376
0.0098337847
0.0098434329
0.0098492406
0.0098490691
0.0098432024
0.0098330417
0.0098178962
0.0097327446
0.0097516909
0.0098392247
0.009840235
0.0098492406
0.0098543586
0.009853495
0.0098469807
0.0098362771
0.0098208217
0.0097354817
0.0097525117
0.0098399528
0.0098406196
0.0098490691
0.009853495
0.0098518514
0.0098445073
0.0098329704
0.0098167818
0.0097309484
0.009746414
0.0098344048
0.0098351526
0.0098432024
0.0098469807
0.0098445073
0.0098361624
0.0098234606
0.0098060452
0.0097192893
0.0097324523
0.0098229637
0.0098250798
0.0098330417
0.0098362771
0.0098329704
0.0098234606
0.0098091362
0.0097895912
0.0097007725
0.0097050243
0.009801715
0.0098092278
0.0098178962
0.0098208217
0.0098167818
0.0098060452
0.0097895912
0.0097661563
0.0096706306
0.0096306632
0.0097087573
0.0097232202
0.0097327446
0.0097354817
0.0097309484
0.0097192893
0.0097007725
0.0096706306
0.0095374207
0.017160393
0.01729346
0.017293801
0.017305443
0.017312273
0.017311741
0.01730385
0.017288381
0.017260313
0.017185346
0.01729346
0.017379083
0.017381239
0.017392657
0.017399075
0.017398302
0.017390773
0.017377758
0.017356217
0.017263
0.017293801
0.017381239
0.017382942
0.01739363
0.01739939
0.0173981
0.017390413
0.017378528
0.017362324
0.017276275
0.017305443
0.017392657
0.01739363
0.017403526
0.017408519
0.017406517
0.017398231
0.017386026
0.017370281
0.017284883
0.017312273
0.017399075
0.01739939
0.017408519
0.0174127
0.017409883
0.017400827
0.017387964
0.017371811
0.017286149
0.017311741
0.017398302
0.0173981
0.017406517
0.017409883
0.017406199
0.017396261
0.017382551
0.017365687
0.017279569
0.01730385
0.017390773
0.017390413
0.017398231
0.017400827
0.017396261
0.01738534
0.017370557
0.017352616
0.017265741
0.017288381
0.017377758
0.017378528
0.017386026
0.017387964
0.017382551
0.017370557
0.017354351
0.017334555
0.017245883
0.017260313
0.017356217
0.017362324
0.017370281
0.017371811
0.017365687
0.017352616
0.017334555
0.017311126
0.017215731
0.017185346
0.017263
0.017276275
0.017284883
0.017286149
0.017279569
0.017265741
0.017245883
0.017215731
0.017081529
0.020262374
0.020394201
0.020393296
0.02040524
0.020411454
0.020409509
0.020399801
0.020382774
0.02035412
0.020278812
0.020394201
0.020478187
0.02047973
0.020491401
0.020497114
0.020494805
0.020485276
0.02047058
0.020448789
0.02035571
0.020393296
0.02047973
0.020480865
0.020491743
0.020496708
0.020493748
0.020483852
0.020470027
0.020453471
0.020367768
0.02040524
0.020491401
0.020491743
0.020501754
0.020505864
0.020502081
0.020491432
0.020477074
0.020460728
0.020375472
0.020411454
0.020497114
0.020496708
0.020505864
0.020509079
0.020504402
0.020492902
0.020477803
0.020460965
0.020375374
0.020409509
0.020494805
0.020493748
0.020502081
0.020504402
0.020498806
0.020486398
0.020470454
0.020452931
0.020366919
0.020399801
0.020485276
0.020483852
0.020491432
0.020492902
0.020486398
0.020473038
0.020456108
0.020437647
0.020351025
0.020382774
0.02047058
0.020470027
0.020477074
0.020477803
0.020470454
0.020456108
0.020437942
0.020417897
0.020329773
0.02035412
0.020448789
0.020453471
0.020460728
0.020460965
0.020452931
0.020437647
0.020417897
0.02039456
0.020299876
0.020278812
0.02035571
0.020367768
0.020375472
0.020375374
0.020366919
0.020351025
0.020329773
0.020299876
0.020165371
0.01889583
0.019025723
0.019023579
0.019035641
0.019041178
0.019037914
0.019026566
0.01900814
0.018979108
0.018903841
0.019025723
0.019107685
0.019108537
0.019120281
0.019125249
0.019121528
0.019110196
0.01909394
0.019072088
0.018979635
0.019023579
0.019108537
0.019109027
0.019119934
0.019124095
0.019119631
0.019107762
0.019092115
0.019075376
0.018990486
0.019035641
0.019120281
0.019119934
0.019129927
0.01913318
0.019127825
0.019115096
0.019098732
0.019081966
0.018997333
0.019041178
0.019125249
0.019124095
0.01913318
0.019135491
0.019129199
0.019115572
0.01909841
0.019081084
0.018996055
0.019037914
0.019121528
0.019119631
0.019127825
0.019129199
0.019121964
0.019107424
0.019089429
0.019071442
0.018986014
0.019026566
0.019110196
0.019107762
0.019115096
0.019115572
0.019107424
0.019091966
0.019073061
0.019054248
0.018968329
0.01900814
0.01909394
0.019092115
0.019098732
0.01909841
0.019089429
0.019073061
0.019053076
0.019032924
0.01894579
0.018979108
0.019072088
0.019075376
0.019081966
0.019081084
0.019071442
0.019054248
0.019032924
0.01900986
0.018916506
0.018903841
0.018979635
0.018990486
0.018997333
0.018996055
0.018986014
0.018968329
0.01894579
0.018916506
0.018782417
0.013934856
0.014062099
0.014058753
0.014070756
0.014075622
0.014071235
0.014058552
0.014039024
0.014009922
0.013935159
0.014062099
0.014141648
0.014141749
0.014153402
0.014157655
0.014152748
0.014139943
0.014122407
0.014100769
0.014009484
0.014058753
0.014141749
0.014141539
0.014152334
0.014155749
0.014150044
0.014136572
0.014119396
0.014102738
0.014019167
0.014070756
0.014153402
0.014152334
0.014162191
0.014164676
0.014158047
0.014143645
0.014125599
0.014108703
0.014025225
0.014075622
0.014157655
0.014155749
0.014164676
0.014166202
0.014158621
0.014143303
0.014124421
0.01410691
0.014022982
0.014071235
0.014152748
0.014150044
0.014158047
0.014158621
0.014150094
0.014133872
0.014114174
0.014096021
0.014011706
0.014058552
0.014139943
0.014136572
0.014143645
0.014143303
0.014133872
0.014116765
0.014096218
0.014077325
0.013992602
0.014039024
0.014122407
0.014119396
0.014125599
0.014124421
0.014114174
0.014096218
0.014074715
0.014054685
0.013969005
0.014009922
0.014100769
0.014102738
0.014108703
0.01410691
0.014096021
0.014077325
0.014054685
0.014032132
0.01394072
0.013935159
0.014009484
0.014019167
0.014025225
0.014022982
0.014011706
0.013992602
0.013969005
0.01394072
0.013807784
0.0067404106
0.0068643088
0.0068598278
0.006871617
0.0068758635
0.0068705956
0.0068569374
0.0068366744
0.0068078469
0.0067340875
0.0068643088
0.0069410768
0.0069403997
0.0069518207
0.0069554313
0.0069496053
0.0069357134
0.0069172584
0.0068961348
0.0068065769
0.0068598278
0.0069403997
0.0069394669
0.0069500287
0.0069527948
0.0069461445
0.0069314915
0.0069131702
0.0068968883
0.006815149
0.006871617
0.0069518207
0.0069500287
0.0069596532
0.0069614888
0.0069539083
0.0069382869
0.0069189725
0.0069022739
0.0068204888
0.0068758635
0.0069554313
0.0069527948
0.0069614888
0.0069623706
0.006953844
0.0069373065
0.0069171354
0.0068997766
0.006817495
0.0068705956
0.0069496053
0.0069461445
0.0069539083
0.006953844
0.0069443846
0.0069269601
0.0069059902
0.0068880033
0.0068053389
0.0068569374
0.0069357134
0.0069314915
0.0069382869
0.0069373065
0.0069269601
0.0069086821
0.0068869108
0.0068682446
0.0067852257
0.0068366744
0.0069172584
0.0069131702
0.0069189725
0.0069171354
0.0069059902
0.0068869108
0.0068642754
0.0068446362
0.0067608791
0.0068078469
0.0068961348
0.0068968883
0.0069022739
0.0068997766
0.0068880033
0.0068682446
0.0068446362
0.0068228456
0.0067339461
0.0067340875
0.0068065769
0.006815149
0.0068204888
0.006817495
0.0068053389
0.0067852257
0.0067608791
0.0067339461
0.006602904
-0.0011971372
-0.0010772387
-0.0010827529
-0.0010713113
-0.0010676159
-0.0010735195
-0.0010877928
-0.0011084136
-0.0011366274
-0.0012088847
-0.0010772387
-0.0010035809
-0.001005031
-0.00099395899
-0.00099090496
-0.000997385
-0.0010119796
-0.0010309723
-0.0010512996
-0.0011385928
-0.0010827529
-0.001005031
-0.0010066763
-0.00099644741
-0.0009942273
-0.0010015362
-0.0010169573
-0.0010360131
-0.0010516404
-0.0011310671
-0.0010713113
-0.00099395899
-0.00099644741
-0.00098713874
-0.00098583201
-0.00099405946
-0.0010104652
-0.0010306091
-0.0010467989
-0.0011263816
-0.0010676159
-0.00099090496
-0.0009942273
-0.00098583201
-0.00098545904
-0.00099461272
-0.0010119215
-0.0010329326
-0.0010498169
-0.001129934
-0.0010735195
-0.000997385
-0.0010015362
-0.00099405946
-0.00099461272
-0.0010046768
-0.0010228497
-0.0010446416
-0.0010621444
-0.0011426468
-0.0010877928
-0.0010119796
-0.0010169573
-0.0010104652
-0.0010119215
-0.0010228497
-0.001041847
-0.0010644039
-0.0010825435
-0.0011633695
-0.0011084136
-0.0010309723
-0.0010360131
-0.0010306091
-0.0010329326
-0.0010446416
-0.0010644039
-0.0010877555
-0.0011067393
-0.0011881198
-0.0011366274
-0.0010512996
-0.0010516404
-0.0010467989
-0.0010498169
-0.0010621444
-0.0010825435
-0.0011067393
-0.0011275276
-0.0012134072
-0.0012088847
-0.0011385928
-0.0011310671
-0.0011263816
-0.001129934
-0.0011426468
-0.0011633695
-0.0011881198
-0.0012134072
-0.0013418312
-0.0085282506
-0.0084129503
-0.0084193733
-0.0084083933
-0.0084051818
-0.0084114998
-0.0084260628
-0.0084466905
-0.008473988
-0.0085442726
-0.0084129503
-0.0083426908
-0.00834488
-0.0083342568
-0.0083316785
-0.0083385773
-0.0083535289
-0.0083726985
-0.0083919921
-0.008476524
-0.0084193733
-0.00834488
-0.0083472017
-0.0083373919
-0.0083356245
-0.0083433421
-0.0083591626
-0.0083785613
-0.0083933005
-0.0084699798
-0.0084083933
-0.0083342568
-0.0083373919
-0.0083284729
-0.0083275905
-0.0083362034
-0.0083530092
-0.0083735653
-0.0083889798
-0.0084658987
-0.0084051818
-0.0083316785
-0.0083356245
-0.0083275905
-0.008327612
-0.0083371228
-0.0083548106
-0.0083762362
-0.0083923699
-0.0084698523
-0.0084114998
-0.0083385773
-0.0083433421
-0.0083362034
-0.0083371228
-0.0083475153
-0.0083660411
-0.0083882289
-0.0084049731
-0.008482846
-0.0084260628
-0.0083535289
-0.0083591626
-0.0083530092
-0.0083548106
-0.0083660411
-0.0083853631
-0.0084082858
-0.0084256359
-0.0085038156
-0.0084466905
-0.0083726985
-0.0083785613
-0.0083735653
-0.0083762362
-0.0083882289
-0.0084082858
-0.0084319495
-0.00845004
-0.0085286204
-0.008473988
-0.0083919921
-0.0083933005
-0.0083889798
-0.0083923699
-0.0084049731
-0.0084256359
-0.00845004
-0.0084696178
-0.0085520416
-0.0085442726
-0.008476524
-0.0084699798
-0.0084658987
-0.0084698523
-0.008482846
-0.0085038156
-0.0085286204
-0.0085520416
-0.0086771562
-0.014214133
-0.01410397
-0.014111162
-0.014100742
-0.014097959
-0.014104508
-0.014119085
-0.014139415
-0.014165543
-0.014233427
-0.01410397
-0.014037355
-0.014040229
-0.014030141
-0.014027973
-0.014035098
-0.014050115
-0.014069143
-0.014087219
-0.014168546
-0.014111162
-0.014040229
-0.014043172
-0.014033858
-0.01403247
-0.014040394
-0.014056305
-0.014075697
-0.01408937
-0.014162922
-0.014100742
-0.014030141
-0.014033858
-0.014025397
-0.014024859
-0.014033648
-0.014050534
-0.01407113
-0.01408556
-0.01415941
-0.014097959
-0.014027973
-0.01403247
-0.014024859
-0.014025189
-0.014034842
-0.014052584
-0.014074046
-0.01408921
-0.014163644
-0.014104508
-0.014035098
-0.014040394
-0.014033648
-0.014034842
-0.014045345
-0.014063896
-0.014086099
-0.014101866
-0.014176694
-0.014119085
-0.014050115
-0.014056305
-0.014050534
-0.014052584
-0.014063896