/*--------------------------------*- C++ -*----------------------------------*\
| =========                 |                                                 |
| \\      /  F ield         | OpenFOAM: The Open Source CFD Toolbox           |
|  \\    /   O peration     | Version:  v2106                                 |
|   \\  /    A nd           | Website:  www.openfoam.com                      |
|    \\/     M anipulation  |                                                 |
\*---------------------------------------------------------------------------*/
FoamFile
{
    version     2.0;
    format      ascii;
    arch        "LSB;label=32;scalar=64";
    class       volScalarField;
    location    "100";
    object      Tmode_lapla9;
}
// * * * * * * * * * * * * * * * * * * * * * * * * * * * * * * * * * * * * * //

dimensions      [0 -2 0 0 0 0 0];

internalField   nonuniform List<scalar> 
4000
(
-851.27154
-850.8078
-850.44523
-850.5378
-850.51029
-850.47983
-850.47447
-850.52808
-850.68867
-851.00459
-850.8078
-850.12191
-849.99367
-850.07193
-850.0428
-850.00803
-849.99382
-850.02874
-850.18503
-850.59629
-850.44523
-849.99367
-849.84049
-849.91693
-849.88481
-849.84685
-849.82329
-849.82943
-849.91188
-850.33734
-850.5378
-850.07193
-849.91693
-849.99178
-849.96093
-849.92422
-849.89869
-849.89886
-849.95037
-850.33272
-850.51029
-850.0428
-849.88481
-849.96093
-849.93441
-849.90255
-849.8797
-849.88133
-849.93227
-850.31106
-850.47983
-850.00803
-849.84685
-849.92422
-849.90255
-849.87715
-849.86008
-849.86575
-849.91956
-850.29962
-850.47447
-849.99382
-849.82329
-849.89869
-849.8797
-849.86008
-849.84971
-849.86176
-849.92167
-850.30627
-850.52808
-850.02874
-849.82943
-849.89886
-849.88133
-849.86575
-849.86176
-849.88208
-849.95268
-850.34766
-850.68867
-850.18503
-849.91188
-849.95037
-849.93227
-849.91956
-849.92167
-849.95268
-850.04117
-850.45977
-851.00459
-850.59629
-850.33734
-850.33272
-850.31106
-850.29962
-850.30627
-850.34766
-850.45977
-850.92942
626.12518
617.43636
621.0638
621.02901
620.98886
620.9326
620.89759
620.87195
620.87243
621.06758
617.43636
614.11955
616.6135
616.50298
616.43926
616.38139
616.33706
616.26958
615.93866
617.91635
621.0638
616.6135
619.1131
618.99185
618.93044
618.87521
618.82567
618.77916
618.23867
619.27965
621.02901
616.50298
618.99185
618.86998
618.8132
618.76303
618.70676
618.66034
618.15193
619.24114
620.98886
616.43926
618.93044
618.8132
618.76238
618.7201
618.67133
618.62682
618.12418
619.22702
620.9326
616.38139
618.87521
618.76303
618.7201
618.68365
618.64136
618.60382
618.10819
619.21708
620.89759
616.33706
618.82567
618.70676
618.67133
618.64136
618.60135
618.5649
618.06927
619.17614
620.87195
616.26958
618.77916
618.66034
618.62682
618.60382
618.5649
618.5267
618.02898
619.13339
620.87243
615.93866
618.23867
618.15193
618.12418
618.10819
618.06927
618.02898
617.53693
618.636
621.06758
617.91635
619.27965
619.24114
619.22702
619.21708
619.17614
619.13339
618.636
619.77801
-405.69249
-416.34049
-411.14732
-411.37453
-411.53071
-411.60125
-411.64071
-411.71325
-412.03909
-410.25181
-416.34049
-419.32263
-416.10967
-416.43492
-416.59572
-416.66052
-416.69203
-416.71487
-417.89644
-414.04354
-411.14732
-416.10967
-412.84179
-413.15098
-413.3015
-413.36455
-413.42144
-413.37783
-414.76559
-412.24365
-411.37453
-416.43492
-413.15098
-413.4535
-413.59435
-413.64484
-413.70925
-413.66323
-415.00159
-412.36813
-411.53071
-416.59572
-413.3015
-413.59435
-413.72682
-413.76515
-413.81403
-413.75039
-415.0645
-412.39646
-411.60125
-416.66052
-413.36455
-413.64484
-413.76515
-413.79737
-413.83943
-413.76745
-415.07279
-412.39878
-411.64071
-416.69203
-413.42144
-413.70925
-413.81403
-413.83943
-413.88035
-413.80961
-415.11883
-412.44896
-411.71325
-416.71487
-413.37783
-413.66323
-413.75039
-413.76745
-413.80961
-413.74498
-415.06035
-412.38135
-412.03909
-417.89644
-414.76559
-415.00159
-415.0645
-415.07279
-415.11883
-415.06035
-416.36344
-413.8979
-410.25181
-414.04354
-412.24365
-412.36813
-412.39646
-412.39878
-412.44896
-412.38135
-413.8979
-409.66518
-185.33725
-197.13969
-190.6017
-191.24437
-191.48356
-191.54973
-191.57278
-191.59415
-192.12775
-189.64871
-197.13969
-200.17789
-196.33292
-197.01861
-197.2411
-197.30599
-197.3693
-197.37801
-199.00315
-193.9565
-190.6017
-196.33292
-192.31503
-192.95793
-193.15928
-193.20626
-193.29316
-193.28335
-195.23872
-191.86369
-191.24437
-197.01861
-192.95793
-193.58984
-193.77889
-193.80081
-193.86583
-193.8108
-195.65856
-192.08025
-191.48356
-197.2411
-193.15928
-193.77889
-193.96144
-193.97132
-194.01561
-193.93016
-195.7407
-192.11271
-191.54973
-197.30599
-193.20626
-193.80081
-193.97132
-193.97683
-194.01553
-193.92213
-195.72545
-192.09729
-191.57278
-197.3693
-193.29316
-193.86583
-194.01561
-194.01553
-194.05503
-193.96657
-195.78009
-192.15906
-191.59415
-197.37801
-193.28335
-193.8108
-193.93016
-193.92213
-193.96657
-193.88984
-195.70943
-192.03258
-192.12775
-199.00315
-195.23872
-195.65856
-195.7407
-195.72545
-195.78009
-195.70943
-197.48293
-194.5301
-189.64871
-193.9565
-191.86369
-192.08025
-192.11271
-192.09729
-192.15906
-192.03258
-194.5301
-188.13498
118.60472
106.1938
113.47709
112.39682
112.12139
112.06883
112.02989
111.93719
111.17814
114.31397
106.1938
103.32613
107.35844
106.32314
106.09228
106.06862
105.99692
105.78495
103.49251
109.43503
113.47709
107.35844
111.69316
110.71961
110.51515
110.53312
110.50447
110.37628
107.74359
111.77406
112.39682
106.32314
110.71961
109.7566
109.56073
109.60431
109.62006
109.58333
107.13423
111.47256
112.12139
106.09228
110.51515
109.56073
109.36715
109.41871
109.45444
109.45199
107.04508
111.44276
112.06883
106.06862
110.53312
109.60431
109.41871
109.47202
109.51127
109.51468
107.11061
111.497
112.02989
105.99692
110.50447
109.62006
109.45444
109.51127
109.54761
109.54104
107.11562
111.4731
111.93719
105.78495
110.37628
109.58333
109.45199
109.51468
109.54104
109.51289
107.07922
111.54124
111.17814
103.49251
107.74359
107.13423
107.04508
107.11061
107.11562
107.07922
104.79962
108.35308
114.31397
109.43503
111.77406
111.47256
111.44276
111.497
111.4731
111.54124
108.35308
116.43687
190.14996
176.56732
184.44277
182.99005
182.71687
182.70598
182.70666
182.56127
181.45399
184.98776
176.56732
173.31747
177.48714
176.16857
175.95847
176.01182
176.0712
175.85469
172.93145
179.52032
184.44277
177.48714
182.07685
180.83187
180.64212
180.73576
180.87887
180.82523
177.59399
182.07467
182.99005
176.16857
180.83187
179.59726
179.41157
179.52374
179.71737
179.78661
176.81151
181.70077
182.71687
175.95847
180.64212
179.41157
179.22498
179.34054
179.54945
179.64921
176.71527
181.67154
182.70598
176.01182
180.73576
179.52374
179.34054
179.45583
179.66669
179.77022
176.83539
181.77268
182.70666
176.0712
180.87887
179.71737
179.54945
179.66669
179.87382
179.96265
176.99155
181.85865
182.56127
175.85469
180.82523
179.78661
179.64921
179.77022
179.96265
180.00958
176.98318
181.87002
181.45399
172.93145
177.59399
176.81151
176.71527
176.83539
176.99155
176.98318
174.06831
178.04927
184.98776
179.52032
182.07467
181.70077
181.67154
181.77268
181.85865
181.87002
178.04927
187.5821
100.09529
85.501863
93.846541
92.095078
91.835643
91.86604
91.949384
91.891871
90.608933
94.587142
85.501863
81.86364
86.149145
84.60929
84.416692
84.515852
84.715468
84.667227
81.34592
88.593918
93.846541
86.149145
90.952769
89.495947
89.318224
89.449162
89.749848
89.936721
86.352456
91.32779
92.095078
84.60929
89.495947
88.049861
87.873159
88.01474
88.361957
88.690473
85.424629
90.896132
91.835643
84.416692
89.318224
87.873159
87.693827
87.835264
88.191738
88.543321
85.314504
90.859908
91.86604
84.515852
89.449162
88.01474
87.835264
87.975534
88.333684
88.689141
85.46061
90.991053
91.949384
84.715468
89.749848
88.361957
88.191738
88.333684
88.691215
89.036563
85.773351
91.212166
91.891871
84.667226
89.936721
88.690473
88.543321
88.689141
89.036563
89.337936
85.984136
91.285516
90.608933
81.34592
86.352456
85.424629
85.314504
85.46061
85.773351
85.984136
82.591878
86.876645
94.587142
88.593918
91.32779
90.896132
90.859908
90.991053
91.212166
91.285516
86.876645
97.700202
-15.534104
-30.937333
-22.264154
-24.239671
-24.487096
-24.440203
-24.308254
-24.26766
-25.649982
-21.230425
-30.937333
-34.948703
-30.581786
-32.282771
-32.460557
-32.347818
-32.066454
-31.930783
-35.532544
-27.666115
-22.264154
-30.581786
-25.624266
-27.235847
-27.402718
-27.266827
-26.879874
-26.445
-30.260265
-24.794765
-24.239671
-32.282771
-27.235847
-28.836642
-29.004504
-28.864706
-28.44
-27.852743
-31.299455
-25.268008
-24.487096
-32.460557
-27.402718
-29.004504
-29.175853
-29.038714
-28.61113
-28.009851
-31.42571
-25.315875
-24.440203
-32.347818
-27.266827
-28.864706
-29.038714
-28.903366
-28.474801
-27.870106
-31.283882
-25.179418
-24.308254
-32.066454
-26.879874
-28.44
-28.61113
-28.474801
-28.043839
-27.441052
-30.875359
-24.854005
-24.26766
-31.930783
-26.445
-27.852743
-28.009851
-27.870106
-27.441052
-26.866858
-30.388683
-24.625866
-25.649982
-35.532544
-30.260265
-31.299455
-31.42571
-31.283882
-30.875359
-30.388683
-34.076642
-29.570956
-21.230425
-27.666115
-24.794765
-25.268008
-25.315875
-25.179418
-24.854005
-24.625866
-29.570956
-17.601613
-77.953801
-93.971863
-85.111435
-87.237809
-87.47289
-87.419274
-87.263782
-87.143597
-88.594709
-83.785594
-93.971863
-98.347477
-93.938145
-95.745911
-95.909983
-95.795373
-95.471891
-95.173312
-98.982356
-90.575618
-85.111435
-93.938145
-88.891307
-90.605749
-90.761944
-90.631904
-90.205469
-89.553545
-93.527721
-87.610629
-87.237809
-95.745911
-90.605749
-92.3093
-92.467667
-92.33893
-91.884921
-91.074736
-94.642829
-88.109358
-87.47289
-95.909983
-90.761944
-92.467667
-92.629704
-92.505167
-92.05406
-91.23848
-94.782249
-88.168302
-87.419274
-95.795373
-90.631904
-92.33893
-92.505167
-92.382766
-91.931931
-91.114945
-94.657238
-88.04106
-87.263782
-95.471891
-90.205469
-91.884921
-92.05406
-91.931931
-91.477918
-90.657747
-94.206949
-87.652287
-87.143597
-95.173312
-89.553545
-91.074736
-91.23848
-91.114945
-90.657747
-89.849274
-93.463071
-87.225899
-88.594709
-98.982356
-93.527721
-94.642829
-94.782249
-94.657238
-94.206949
-93.463071
-97.31031
-92.642165
-83.785594
-90.575618
-87.610629
-88.109358
-88.168302
-88.04106
-87.652287
-87.225899
-92.642165
-79.675413
-75.599328
-92.059301
-83.141368
-85.352457
-85.577331
-85.521558
-85.355458
-85.172103
-86.668936
-81.535993
-92.059301
-96.791254
-92.376725
-94.243431
-94.397636
-94.28657
-93.943314
-93.506489
-97.455687
-88.59137
-83.141368
-92.376725
-87.300718
-89.071782
-89.220182
-89.100094
-88.660106
-87.827616
-91.899088
-85.574213
-85.352457
-94.243431
-89.071782
-90.831604
-90.982715
-90.867742
-90.409849
-89.416456
-93.056924
-86.084303
-85.577331
-94.397636
-89.220182
-90.982715
-91.137305
-91.027347
-90.576949
-89.584937
-93.20625
-86.152011
-85.521558
-94.28657
-89.100094
-90.867742
-91.027347
-90.919473
-90.470312
-89.478948
-93.100408
-86.039226
-85.355458
-93.943314
-88.660106
-90.409849
-90.576949
-90.470312
-90.017995
-89.021007
-92.639878
-85.617588
-85.172103
-93.506489
-87.827616
-89.416456
-89.584937
-89.478948
-89.021007
-88.022932
-91.679831
-84.986519
-86.668936
-97.455687
-91.899088
-93.056924
-93.20625
-93.100408
-92.639878
-91.679831
-95.587654
-90.792887
-81.535993
-88.59137
-85.574213
-86.084303
-86.152011
-86.039226
-85.617588
-84.986519
-90.792887
-76.98199
-33.462352
-50.217712
-41.350557
-43.588319
-43.805895
-43.751312
-43.582078
-43.349022
-44.868996
-39.477783
-50.217712
-55.293906
-50.904763
-52.787944
-52.936135
-52.831625
-52.481775
-51.932303
-55.95585
-46.712224
-41.350557
-50.904763
-45.84982
-47.636474
-47.780135
-47.671623
-47.232652
-46.258066
-50.369311
-43.679513
-43.588319
-52.787944
-47.636474
-49.411489
-49.558054
-49.457367
-49.008747
-47.873141
-51.540587
-44.189324
-43.805895
-52.936135
-47.780135
-49.558054
-49.70783
-49.612627
-49.174945
-48.045453
-51.6972
-44.263475
-43.751312
-52.831625
-47.671623
-49.457367
-49.612627
-49.51936
-49.083563
-47.956197
-51.60946
-44.165684
-43.582078
-52.481775
-47.232652
-49.008747
-49.174945
-49.083563
-48.644672
-47.510339
-51.154634
-43.730108
-43.349022
-51.932303
-46.258066
-47.873141
-48.045453
-47.956197
-47.510339
-46.365813
-50.024079
-42.912661
-44.868996
-55.95585
-50.369311
-51.540587
-51.6972
-51.60946
-51.154634
-50.024079
-53.920024
-49.014808
-39.477783
-46.712224
-43.679513
-44.189324
-44.263475
-44.165684
-43.730108
-42.912661
-49.014808
-34.516709
17.065998
0.1442584
8.8751488
6.6586873
6.4461686
6.497509
6.6656025
6.9365163
5.4147409
11.002914
0.1442584
-5.2538203
-0.91439973
-2.7785117
-2.923486
-2.8266946
-2.4780317
-1.8424368
-5.8793187
3.6695868
8.8751488
-0.91439973
4.0793457
2.3112554
2.170075
2.2671418
2.6972623
3.7747634
-0.32431156
6.686878
6.6586873
-2.7785117
2.3112554
0.55509207
0.411013
0.49847984
0.93187927
2.1685525
-1.4846646
6.186552
6.4461686
-2.923486
2.170075
0.411013
0.26399995
0.34574348
0.76584911
1.9935099
-1.6460337
6.1081354
6.497509
-2.8266946
2.2671418
0.49847983
0.34574348
0.42564839
0.84338092
2.067948
-1.5739638
6.1925764
6.6656025
-2.4780317
2.6972623
0.93187927
0.76584911
0.84338092
1.2641106
2.4964744
-1.1320786
6.6311334
6.9365163
-1.8424368
3.7747634
2.1685525
1.9935098
2.067948
2.4964744
3.7455449
0.12304894
7.6012135
5.4147409
-5.8793187
-0.32431156
-1.4846646
-1.6460337
-1.5739638
-1.1320786
0.12304893
-3.7086603
1.3045774
11.002914
3.6695868
6.686878
6.186552
6.1081354
6.1925764
6.6311334
7.6012135
1.3045774
16.332016
54.29289
37.322292
45.850503
43.692129
43.483217
43.530329
43.695037
43.992918
42.487796
48.216758
37.322292
31.635657
35.905057
34.087642
33.943994
34.033043
34.375991
35.07116
31.073619
40.85644
45.850503
35.905057
40.80559
39.082489
38.942288
39.02908
39.446571
40.589087
36.546521
43.832872
43.692129
34.087642
39.082489
37.371486
37.228563
37.304822
37.721255
39.019646
35.416251
43.349101
43.483217
33.943994
38.942288
37.228563
37.083034
37.153578
37.555429
38.843494
35.252843
43.268612
43.530329
34.033043
39.02908
37.304822
37.153578
37.222393
37.621545
38.90596
35.312536
43.342468
43.695037
34.375991
39.446571
37.721255
37.555429
37.621545
38.023541
39.316219
35.739129
43.777938
43.992918
35.07116
40.589087
39.019646
38.843494
38.90596
39.316219
40.630147
37.074845
44.859214
42.487796
31.073619
36.546521
35.416251
35.252843
35.312536
35.739129
37.074845
33.34339
38.468982
48.216758
40.85644
43.832872
43.349101
43.268612
43.342468
43.777938
44.859214
38.468982
53.871164
69.785359
52.873687
61.147981
59.074462
58.868714
58.911509
59.07198
59.387033
57.913407
63.732172
52.873687
46.940225
51.122275
49.372225
49.229124
49.311223
49.646101
50.37605
46.46064
56.407908
61.147981
51.122275
55.9042
54.245789
54.106081
54.184448
54.588052
55.761318
51.811201
59.323114
59.074462
49.372225
54.245789
52.599558
52.457448
52.525053
52.925115
54.249843
50.725511
58.861283
58.868714
49.229124
54.106081
52.457448
52.31312
52.375249
52.760374
54.074708
50.562947
58.780961
58.911509
49.311223
54.184448
52.525053
52.375249
52.435813
52.818106
54.128587
50.613989
58.847473
59.07198
49.646101
54.588052
52.925115
52.760374
52.818106
53.203073
54.522002
51.025597
59.27662
59.387033
50.37605
55.761318
54.249843
54.074708
54.128587
54.522002
55.865103
52.401977
60.426292
57.913407
46.46064
51.811201
50.725511
50.562947
50.613989
51.025597
52.401977
48.793755
54.036214
63.732172
56.407908
59.323114
58.861283
58.780961
58.847473
59.27662
60.426292
54.036214
69.666171
65.246196
48.49234
56.473852
54.504254
54.302424
54.341589
54.497935
54.821816
53.390988
59.253399
48.49234
42.359593
46.439888
44.772673
44.630631
44.707192
45.033092
45.776304
41.97601
52.019994
56.473852
46.439888
51.083571
49.504528
49.366007
49.438196
49.828077
51.003089
47.173166
54.857997
54.504254
44.772673
49.504528
47.937648
47.797129
47.858838
48.244138
49.565231
46.142778
54.42221
54.302424
44.630631
49.366007
47.797129
47.654799
47.711417
48.082118
49.393579
45.983931
54.3442
54.341589
44.707192
49.438196
47.858838
47.711417
47.766673
48.134566
49.442239
46.02992
54.406485
54.497935
45.033092
49.828077
48.244138
48.082118
48.134566
48.504972
49.82106
46.427889
54.827447
54.821816
45.776304
51.003089
49.565231
49.393579
49.442239
49.82106
51.1629
47.810552
56.00584
53.390988
41.97601
47.173166
46.142778
45.983931
46.02992
46.427889
47.810552
44.33868
49.697543
59.253399
52.019994
54.857997
54.42221
54.3442
54.406485
54.827447
56.00584
49.697543
65.419196
47.583035
31.078226
38.73826
36.886097
36.689941
36.726595
36.879337
37.205164
35.825196
41.689205
31.078226
24.797809
28.764903
27.192251
27.05282
27.125454
27.442086
28.180846
24.51969
34.594343
38.73826
28.764903
33.255677
31.767036
31.631316
31.699512
32.076188
33.229549
29.540011
37.34273
36.886097
27.192251
31.767036
30.29041
30.153108
30.211415
30.583434
31.876585
28.57268
36.93607
36.689941
27.05282
31.631316
30.153108
30.01437
30.068026
30.42622
31.710931
28.420161
36.862195
36.726595
27.125454
31.699512
30.211415
30.068026
30.120511
30.476017
31.757168
28.464023
36.92272
36.879337
27.442086
32.076188
30.583434
30.42622
30.476017
30.833873
32.123248
28.849498
37.333949
37.205164
28.180846
33.229549
31.876585
31.710931
31.757168
32.123248
33.438884
30.210081
38.507038
35.825196
24.51969
29.540011
28.57268
28.420161
28.464023
28.849498
30.210081
26.880691
32.347382
41.689205
34.594343
37.34273
36.93607
36.862195
36.92272
37.333949
38.507038
32.347382
48.037163
24.7897
8.6187619
15.936825
14.211557
14.023343
14.058584
14.208069
14.530074
13.20613
19.032911
8.6187619
2.2450938
6.0901827
4.6209381
4.4861809
4.5562055
4.8631028
5.5831622
2.0773622
12.118272
15.936825
6.0901827
10.417382
9.0273715
8.8964724
8.9623134
9.3257846
10.439092
6.9034148
14.767377
14.211557
4.6209381
9.0273715
7.64907
7.5169585
7.5736452
7.9329137
9.178851
6.0045399
14.392027
14.023343
4.4861809
8.8964724
7.5169585
7.3837189
7.4361851
7.7826225
9.0214416
5.8604689
14.32362
14.058584
4.5562055
8.9623134
7.5736452
7.4361851
7.4876323
7.8315426
9.0671087
5.9041111
14.383886
14.208069
4.8631028
9.3257846
7.9329137
7.7826225
7.8315426
8.1776402
9.4211286
6.2772539
14.783483
14.530074
5.5831622
10.439092
9.178851
9.0214416
9.0671087
9.4211286
10.690592
7.593063
15.923793
13.20613
2.0773622
6.9034148
6.0045399
5.8604689
5.9041111
6.2772539
7.593063
4.4076698
9.964447
19.032911
12.118272
14.767377
14.392027
14.32362
14.383886
14.783483
15.923793
9.964447
25.511502
3.4637863
-12.29409
-5.3320485
-6.9241062
-7.1020983
-7.0675317
-6.9215157
-6.6083746
-7.8736319
-2.1204122
-12.29409
-18.705012
-14.988693
-16.348128
-16.476154
-16.408034
-16.111993
-15.422075
-18.762775
-8.8182798
-5.3320485
-14.988693
-10.832754
-12.118266
-12.242395
-12.178073
-11.828773
-10.769879
-14.14389
-6.276073
-6.9241062
-16.348128
-12.118266
-13.392546
-13.517595
-13.461663
-13.115907
-11.932335
-14.97084
-6.6187443
-7.1020983
-16.476154
-12.242395
-13.517595
-13.643542
-13.591442
-13.257447
-12.079739
-15.104951
-6.6809103
-7.0675317
-16.408034
-12.178073
-13.461663
-13.591442
-13.540255
-13.208616
-12.033826
-15.060705
-6.62041
-6.9215157
-16.111993
-11.828773
-13.115907
-13.257447
-13.208616
-12.874951
-11.692604
-14.700984
-6.2349449
-6.6083746
-15.422075
-10.769879
-11.932335
-12.079739
-12.033826
-11.692604
-10.485112
-13.447736
-5.1485284
-7.8736319
-18.762775
-14.14389
-14.97084
-15.104951
-15.060705
-14.700984
-13.447736
-16.490443
-10.869844
-2.1204122
-8.8182798
-6.276073
-6.6187444
-6.6809103
-6.62041
-6.2349449
-5.1485284
-10.869844
4.4356541
-12.188768
-27.459873
-20.862915
-22.318072
-22.483898
-22.449743
-22.30805
-22.008328
-23.214236
-17.568815
-27.459873
-33.851778
-30.269621
-31.515077
-31.634651
-31.568393
-31.285059
-30.63451
-33.80544
-24.017922
-20.862915
-30.269621
-26.290564
-27.467836
-27.583605
-27.520751
-27.187538
-26.194222
-29.403247
-21.588692
-22.318072
-31.515077
-27.467836
-28.634511
-28.750993
-28.6958
-28.36548
-27.256107
-30.156424
-21.898059
-22.483898
-31.634651
-27.583605
-28.750993
-28.868217
-28.816518
-28.496898
-27.392304
-30.27966
-21.953708
-22.449743
-31.568393
-27.520751
-28.6958
-28.816518
-28.765664
-28.44823
-27.34622
-30.234906
-21.893319
-22.30805
-31.285059
-27.187538
-28.36548
-28.496898
-28.44823
-28.128924
-27.019754
-29.890784
-21.525005
-22.008328
-30.63451
-26.194222
-27.256107
-27.392304
-27.34622
-27.019754
-25.886613
-28.713803
-20.507982
-23.214236
-33.80544
-29.403247
-30.156424
-30.27966
-30.234906
-29.890784
-28.713803
-31.616682
-25.965324
-17.568815
-24.017922
-21.588692
-21.898059
-21.953708
-21.893319
-21.525005
-20.507982
-25.965324
-10.989246
-20.354261
-35.070691
-28.844008
-30.160892
-30.313118
-30.27953
-30.143507
-29.861323
-31.008653
-25.503226
-35.070691
-41.388358
-37.944969
-39.074375
-39.18426
-39.120341
-38.852076
-38.248296
-41.248502
-31.675813
-28.844008
-37.944969
-34.147058
-35.214323
-35.320617
-35.259763
-34.945171
-34.025995
-37.069987
-29.36444
-30.160892
-39.074375
-35.214323
-36.271758
-36.378634
-36.324772
-36.012545
-34.98644
-37.748933
-29.640536
-30.313118
-39.18426
-35.320617
-36.378634
-36.486157
-36.435494
-36.132963
-35.110752
-37.860889
-29.68977
-30.27953
-39.120341
-35.259763
-36.324772
-36.435494
-36.385636
-36.085126
-35.065182
-37.816343
-29.63039
-30.143507
-38.852076
-34.945171
-36.012545
-36.132963
-36.085126
-35.782887
-34.756193
-37.490675
-29.282485
-29.861323
-38.248296
-34.025995
-34.98644
-35.110752
-35.065182
-34.756193
-33.706907
-36.400266
-28.34567
-31.008653
-41.248502
-37.069987
-37.748933
-37.860889
-37.816343
-37.490675
-36.400266
-39.166872
-33.522424
-25.503226
-31.675813
-29.36444
-29.640536
-29.68977
-29.63039
-29.282485
-28.34567
-33.522424
-18.953716
-21.106327
-35.206539
-29.352264
-30.531629
-30.669368
-30.636776
-30.508013
-30.246972
-31.337394
-26.001916
-35.206539
-41.397033
-38.096659
-39.109933
-39.209384
-39.148581
-38.897906
-38.346664
-41.177731
-31.874275
-29.352264
-38.096659
-34.483288
-35.44063
-35.536804
-35.478796
-35.185547
-34.346809
-37.227897
-29.684653
-30.531629
-39.109933
-35.44063
-36.389003
-36.485689
-36.434067
-36.142817
-35.206605
-37.833368
-29.928086
-30.669368
-39.209384
-35.536804
-36.485689
-36.582967
-36.534285
-36.251795
-35.318789
-37.934028
-29.971252
-30.636776
-39.148581
-35.478796
-36.434067
-36.534285
-36.486383
-36.205755
-35.274722
-37.890719
-29.914033
-30.508013
-38.897906
-35.185547
-36.142817
-36.251795
-36.205755
-35.923534
-34.98617
-37.586546
-29.589688
-30.246972
-38.346664
-34.346809
-35.206605
-35.318789
-35.274722
-34.98617
-34.027713
-36.590116
-28.740098
-31.337394
-41.177731
-37.227897
-37.833368
-37.934028
-37.890719
-37.586546
-36.590116
-39.224152
-33.626693
-26.001916
-31.874275
-29.684653
-29.928086
-29.971252
-29.914033
-29.589688
-28.740098
-33.626693
-19.534271
-15.749479
-29.17888
-23.696672
-24.741233
-24.864117
-24.833069
-24.713145
-24.476226
-25.511841
-20.373712
-29.17888
-35.192603
-32.039405
-32.938324
-33.027042
-32.970214
-32.739469
-32.244984
-34.910083
-25.92609
-23.696672
-32.039405
-28.613403
-29.462626
-29.548446
-29.494207
-29.224798
-28.47073
-31.192314
-23.861249
-24.741233
-32.938324
-29.462626
-30.303798
-30.390101
-30.341694
-30.074078
-29.232124
-31.726138
-24.073121
-24.864117
-33.027042
-29.548446
-30.390101
-30.476968
-30.431266
-30.171543
-29.332274
-31.815761
-24.110695
-24.833069
-32.970214
-29.494207
-30.341694
-30.431266
-30.386324
-30.128309
-29.290749
-31.774771
-24.056801
-24.713145
-32.739469
-29.224798
-30.074078
-30.171543
-30.128309
-29.868832
-29.025373
-31.49489
-23.758754
-24.476226
-32.244984
-28.47073
-29.232124
-29.332274
-29.290749
-29.025373
-28.162391
-30.597279
-23.000342
-25.511841
-34.910083
-31.192314
-31.726138
-31.815761
-31.774771
-31.49489
-30.597279
-33.102267
-27.592368
-20.373712
-25.92609
-23.861249
-24.073121
-24.110695
-24.056801
-23.758754
-23.000342
-27.592368
-14.036761
-6.2151692
-18.926574
-13.814046
-14.72833
-14.836437
-14.807481
-14.697764
-14.487215
-15.470209
-10.55394
-18.926574
-24.718104
-21.716302
-22.504343
-22.582398
-22.530327
-22.321409
-21.886377
-24.389566
-15.770459
-13.814046
-21.716302
-18.480097
-19.224579
-19.300144
-19.250498
-19.006909
-18.339784
-20.905854
-13.832639
-14.72833
-22.504343
-19.224579
-19.961949
-20.037992
-19.993667
-19.751787
-19.006315
-21.370807
-14.014476
-14.836437
-22.582398
-19.300144
-20.037992
-20.114585
-20.072743
-19.837952
-19.094777
-21.449843
-14.046985
-14.807481
-22.530327
-19.250498
-19.993667
-20.072743
-20.031641
-19.798409
-19.056706
-21.412129
-13.997425
-14.697764
-22.321409
-19.006909
-19.751787
-19.837952
-19.798409
-19.563846
-18.816692
-21.158772
-13.727772
-14.487215
-21.886377
-18.339784
-19.006315
-19.094777
-19.056706
-18.816692
-18.051636
-20.362489
-13.062001
-15.470209
-24.389566
-20.905854
-21.370807
-21.449843
-21.412129
-21.158772
-20.362489
-22.74157
-17.358776
-10.55394
-15.770459
-13.832639
-14.014476
-14.046985
-13.997425
-13.727772
-13.062001
-17.358776
-4.3925888
5.4015712
-6.5523278
-1.8053966
-2.5955553
-2.6893361
-2.662937
-2.5644599
-2.3817375
-3.314138
1.3589189
-6.5523278
-12.081023
-9.234944
-9.9171055
-9.9848523
-9.9381456
-9.7523443
-9.3779733
-11.723707
-3.5096261
-1.8053966
-9.234944
-6.1906532
-6.8351702
-6.9008409
-6.856415
-6.6399256
-6.060153
-8.4748144
-1.7003412
-2.5955553
-9.9171055
-6.8351702
-7.4735072
-7.5396617
-7.5000721
-7.2852927
-6.6364908
-8.8745006
-1.8540259
-2.6893361
-9.9848523
-6.9008409
-7.5396617
-7.6063545
-7.5690341
-7.3605934
-6.7137972
-8.943528
-1.8819936
-2.662937
-9.9381456
-6.856415
-7.5000721
-7.5690341
-7.5324284
-7.3254044
-6.6798701
-8.9098219
-1.8375299
-2.5644599
-9.7523443
-6.6399256
-7.2852927
-7.3605934
-7.3254044
-7.1171805
-6.4666627
-8.6844704
-1.5975983
-2.3817375
-9.3779733
-6.060153
-6.6364908
-6.7137972
-6.6798701
-6.4666627
-5.7998988
-7.9898654
-1.023863
-3.314138
-11.723707
-8.4748144
-8.8745006
-8.943528
-8.9098219
-8.6844704
-7.9898654
-10.245691
-5.0274126
1.3589189
-3.5096261
-1.7003412
-1.8540259
-1.8819936
-1.8375299
-1.5975983
-1.023863
-5.0274126
7.304349
17.149542
5.9849361
10.371749
9.6981451
9.6179472
9.6414486
9.7280437
9.8822963
8.9987646
13.410592
5.9849361
0.75453881
3.4404717
2.8578874
2.7998743
2.8408338
3.0029026
3.3168417
1.1240367
8.8985277
10.371749
3.4404717
6.2910102
5.7404735
5.6841431
5.7229637
5.9118403
6.4056119
4.1384441
10.578437
9.6981451
2.8578874
5.7404735
5.1952205
5.1383993
5.1728487
5.3599701
5.9138257
3.7997135
10.450731
9.6179472
2.7998743
5.6841431
5.1383993
5.0810521
5.113443
5.2949297
5.8470045
3.7400285
10.426802
9.6414486
2.8408338
5.7229637
5.1728487
5.113443
5.1451509
5.3253594
5.8763555
3.7692555
10.46569
9.7280437
3.0029026
5.9118403
5.3599701
5.2949297
5.3253594
5.5066329
6.0621281
3.9659467
10.675381
9.8822962
3.3168417
6.4056119
5.9138257
5.8470045
5.8763555
6.0621281
6.6321932
4.5605221
11.159447
8.9987646
1.1240367
4.1384441
3.7997135
3.7400285
3.7692555
3.9659467
4.5605221
2.4258566
7.4450895
13.410592
8.8985277
10.578437
10.450731
10.426802
10.46569
10.675381
11.159447
7.4450895
19.104746
27.394492
17.04341
21.076682
20.510888
20.443306
20.463706
20.538179
20.664104
19.828101
23.964085
17.04341
12.141376
14.662687
14.172309
14.123299
14.158358
14.296751
14.551842
12.507568
19.813609
21.076682
14.662687
17.317895
16.854367
16.80668
16.839753
17.001257
17.41201
15.288795
21.363908
20.510888
14.172309
16.854367
16.395279
16.3471
16.376253
16.535947
16.998337
15.006137
21.259784
20.443306
14.123299
16.80668
16.3471
16.298412
16.325715
16.480437
16.941229
14.955065
21.239423
20.463706
14.158358
16.839753
16.376253
16.325715
16.352374
16.505951
16.965824
14.9796
21.272531
20.538179
14.296751
17.001257
16.535947
16.480437
16.505951
16.660457
17.124333
15.147788
21.452249
20.664104
14.551842
17.41201
16.998337
16.941229
16.965824
17.124333
17.601098
15.645814
21.850532
19.828101
12.507568
15.288795
15.006136
14.955065
14.9796
15.147788
15.645814
13.630798
18.4198
23.964085
19.813609
21.363908
21.259784
21.239423
21.272531
21.452249
21.850532
18.4198
29.376736
34.892701
25.372159
29.059265
28.591631
28.535538
28.552767
28.615252
28.713725
27.924322
31.773223
25.372159
20.82308
23.175303
22.768946
22.7281
22.757317
22.872713
23.07178
21.171898
27.9863
29.059265
23.175303
25.633845
25.249599
25.209764
25.237167
25.372226
25.704411
23.722082
29.407288
28.591631
22.768946
25.249599
24.869019
24.828698
24.85262
24.985828
25.361804
23.490182
29.324193
28.535538
22.7281
25.209764
24.828698
24.787891
24.810169
24.939029
25.313565
23.446953
29.306964
28.552767
22.757317
25.237167
24.85262
24.810169
24.831846
24.959691
25.333448
23.466811
29.334331
28.615252
22.872713
25.372226
24.985828
24.939029
24.959691
25.088328
25.465587
23.607396
29.485061
28.713725
23.07178
25.704411
25.361804
25.313565
25.333448
25.465587
25.854073
24.013995
29.802768
27.924322
21.171898
23.722082
23.490182
23.446953
23.466811
23.607396
24.013995
22.117717
26.648897
31.773223
27.9863
29.407288
29.324193
29.306964
29.334331
29.485061
29.802768
26.648897
36.87927
38.799397
30.119686
33.468495
33.088753
33.042921
33.057025
33.107987
33.180538
32.437223
35.991053
30.119686
25.942721
28.121462
27.790387
27.756807
27.780424
27.874042
28.021007
26.261715
32.566811
33.468495
28.121462
30.382231
30.069028
30.036193
30.058188
30.168318
30.427667
28.583678
33.859235
33.088753
27.790387
30.069028
29.758795
29.725489
29.744429
29.8527
30.148668
28.396942
33.794531
33.042921
27.756807
30.036193
29.725489
29.691728
29.709224
29.813734
30.108408
28.36076
33.78003
33.057025
27.780424
30.058188
29.744429
29.709224
29.726171
29.829788
30.123803
28.376145
33.801899
33.107987
27.874042
30.168318
29.8527
29.813734
29.829788
29.934065
30.231088
28.490664
33.925245
33.180538
28.021007
30.427667
30.148668
30.108408
30.123803
30.231088
30.537716
28.812389
34.168717
32.437223
26.261715
28.583678
28.396942
28.36076
28.376145
28.490664
28.812389
27.034536
31.284003
35.991053
32.566811
33.859235
33.794531
33.78003
33.801899
33.925245
34.168717