/*--------------------------------*- C++ -*----------------------------------*\
| =========                 |                                                 |
| \\      /  F ield         | OpenFOAM: The Open Source CFD Toolbox           |
|  \\    /   O peration     | Version:  v2106                                 |
|   \\  /    A nd           | Website:  www.openfoam.com                      |
|    \\/     M anipulation  |                                                 |
\*---------------------------------------------------------------------------*/
FoamFile
{
    version     2.0;
    format      ascii;
    arch        "LSB;label=32;scalar=64";
    class       volScalarField;
    location    "100";
    object      Tmode_lapla0;
}
// * * * * * * * * * * * * * * * * * * * * * * * * * * * * * * * * * * * * * //

dimensions      [0 -2 0 0 0 0 0];

internalField   nonuniform List<scalar> 
4000
(
-1.6563786
-1.6563798
-1.6563777
-1.6563784
-1.6563786
-1.6563789
-1.6563792
-1.6563796
-1.6563799
-1.65638
-1.6563798
-1.6563773
-1.6563781
-1.6563785
-1.6563784
-1.6563786
-1.656379
-1.6563794
-1.6563796
-1.6563798
-1.6563777
-1.6563781
-1.6563778
-1.656378
-1.656378
-1.6563783
-1.6563786
-1.656379
-1.6563793
-1.6563795
-1.6563784
-1.6563785
-1.656378
-1.6563783
-1.6563783
-1.6563785
-1.6563789
-1.6563792
-1.6563795
-1.6563796
-1.6563786
-1.6563784
-1.656378
-1.6563783
-1.6563783
-1.6563785
-1.6563788
-1.6563791
-1.6563793
-1.6563794
-1.6563789
-1.6563786
-1.6563783
-1.6563785
-1.6563785
-1.6563786
-1.6563788
-1.656379
-1.6563792
-1.6563793
-1.6563792
-1.656379
-1.6563786
-1.6563789
-1.6563788
-1.6563788
-1.656379
-1.6563792
-1.6563793
-1.6563794
-1.6563796
-1.6563794
-1.656379
-1.6563792
-1.6563791
-1.656379
-1.6563792
-1.6563793
-1.6563794
-1.6563795
-1.6563799
-1.6563796
-1.6563793
-1.6563795
-1.6563793
-1.6563792
-1.6563793
-1.6563794
-1.6563795
-1.6563796
-1.65638
-1.6563798
-1.6563795
-1.6563796
-1.6563794
-1.6563793
-1.6563794
-1.6563795
-1.6563796
-1.6563797
0.11997609
0.1199737
0.1199801
0.1199744
0.11997453
0.11997545
0.11997586
0.11997598
0.11997609
0.1199762
0.1199737
0.11998011
0.11997627
0.11997322
0.11997437
0.11997545
0.11997583
0.11997596
0.11997599
0.11997603
0.1199801
0.11997627
0.11997678
0.11997435
0.11997542
0.11997638
0.11997671
0.11997694
0.11997707
0.11997657
0.1199744
0.11997322
0.11997435
0.11997194
0.11997293
0.11997379
0.11997406
0.11997435
0.11997478
0.11997522
0.11997453
0.11997437
0.11997542
0.11997293
0.11997383
0.1199746
0.11997477
0.11997498
0.11997533
0.1199756
0.11997545
0.11997545
0.11997638
0.11997379
0.1199746
0.11997529
0.11997536
0.11997545
0.11997566
0.11997575
0.11997586
0.11997583
0.11997671
0.11997406
0.11997477
0.11997536
0.11997539
0.11997544
0.11997561
0.11997569
0.11997598
0.11997596
0.11997694
0.11997435
0.11997498
0.11997545
0.11997544
0.11997549
0.11997571
0.11997588
0.11997609
0.11997599
0.11997707
0.11997478
0.11997533
0.11997566
0.11997561
0.11997571
0.11997603
0.11997623
0.1199762
0.11997603
0.11997657
0.11997522
0.1199756
0.11997575
0.11997569
0.11997588
0.11997623
0.11997626
0.11648888
0.11648583
0.1164928
0.11648397
0.1164855
0.11648704
0.11648758
0.11648774
0.11648791
0.11648856
0.11648583
0.11649267
0.11648678
0.11648279
0.11648544
0.11648704
0.11648752
0.11648778
0.11648758
0.1164872
0.1164928
0.11648678
0.11648752
0.11648404
0.11648646
0.11648784
0.11648827
0.11648882
0.11648908
0.11648819
0.11648397
0.11648279
0.11648404
0.11648047
0.11648271
0.1164839
0.11648419
0.11648484
0.11648573
0.11648655
0.1164855
0.11648544
0.11648646
0.11648271
0.1164848
0.11648582
0.11648589
0.11648628
0.11648683
0.11648715
0.11648704
0.11648704
0.11648784
0.1164839
0.11648582
0.11648671
0.11648663
0.11648684
0.11648716
0.11648721
0.11648758
0.11648752
0.11648827
0.11648419
0.11648589
0.11648663
0.11648649
0.11648665
0.11648697
0.1164871
0.11648774
0.11648778
0.11648882
0.11648484
0.11648628
0.11648684
0.11648665
0.11648687
0.11648733
0.11648764
0.11648791
0.11648758
0.11648908
0.11648573
0.11648683
0.11648716
0.11648697
0.11648733
0.11648801
0.11648811
0.11648856
0.1164872
0.11648819
0.11648655
0.11648715
0.11648721
0.1164871
0.11648764
0.11648811
0.11648802
0.11145619
0.11145265
0.11145971
0.11144858
0.1114517
0.11145372
0.1114543
0.11145451
0.11145466
0.11145594
0.11145265
0.11145912
0.11145173
0.11144743
0.11145162
0.11145355
0.11145406
0.11145456
0.1114539
0.1114532
0.11145971
0.11145173
0.11145273
0.1114487
0.11145248
0.11145406
0.11145453
0.11145566
0.11145609
0.11145478
0.11144858
0.11144743
0.1114487
0.11144446
0.11144798
0.11144925
0.11144942
0.11145057
0.11145191
0.11145295
0.1114517
0.11145162
0.11145248
0.11144798
0.11145129
0.11145233
0.11145215
0.11145281
0.11145348
0.11145369
0.11145372
0.11145355
0.11145406
0.11144925
0.11145233
0.11145321
0.11145285
0.11145328
0.11145366
0.11145357
0.1114543
0.11145406
0.11145453
0.11144942
0.11145215
0.11145285
0.11145242
0.11145283
0.11145326
0.11145344
0.11145451
0.11145456
0.11145566
0.11145057
0.11145281
0.11145328
0.11145283
0.11145339
0.1114541
0.1114545
0.11145466
0.1114539
0.11145609
0.11145191
0.11145348
0.11145366
0.11145326
0.1114541
0.11145516
0.11145483
0.11145594
0.1114532
0.11145478
0.11145295
0.11145369
0.11145357
0.11145344
0.1114545
0.11145483
0.11145475
0.10609899
0.1060939
0.10610102
0.10608847
0.10609321
0.10609556
0.10609607
0.10609632
0.10609635
0.10609849
0.1060939
0.1060994
0.10609123
0.1060872
0.10609283
0.10609488
0.10609532
0.10609633
0.10609509
0.10609428
0.10610102
0.10609123
0.10609269
0.10608865
0.10609369
0.10609523
0.10609553
0.10609756
0.10609815
0.10609653
0.10608847
0.1060872
0.10608865
0.10608427
0.10608898
0.10609009
0.10608985
0.10609169
0.10609339
0.10609463
0.10609321
0.10609283
0.10609369
0.10608898
0.10609346
0.10609428
0.10609358
0.10609467
0.10609535
0.10609545
0.10609556
0.10609488
0.10609523
0.10609009
0.10609428
0.10609494
0.10609404
0.10609487
0.10609523
0.10609503
0.10609607
0.10609532
0.10609553
0.10608985
0.10609358
0.10609404
0.10609308
0.10609394
0.10609444
0.10609479
0.10609632
0.10609633
0.10609756
0.10609169
0.10609467
0.10609487
0.10609394
0.10609506
0.10609606
0.10609668
0.10609635
0.10609509
0.10609815
0.10609339
0.10609535
0.10609523
0.10609444
0.10609606
0.1060975
0.10609655
0.10609849
0.10609428
0.10609653
0.10609463
0.10609545
0.10609503
0.10609479
0.10609668
0.10609655
0.10609684
0.10079954
0.10079277
0.10080012
0.10078694
0.10079315
0.10079568
0.10079602
0.10079636
0.10079626
0.10079941
0.10079277
0.10079715
0.10078899
0.10078564
0.10079251
0.10079442
0.10079457
0.10079633
0.10079462
0.10079399
0.10080012
0.10078899
0.10079125
0.10078761
0.1007937
0.10079493
0.10079471
0.10079775
0.10079858
0.10079687
0.10078694
0.10078564
0.10078761
0.10078354
0.10078926
0.10078993
0.10078891
0.10079147
0.10079353
0.10079501
0.10079315
0.10079251
0.1007937
0.10078926
0.10079473
0.10079511
0.1007935
0.10079508
0.1007958
0.10079584
0.10079568
0.10079442
0.10079493
0.10078993
0.10079511
0.10079531
0.10079352
0.10079482
0.10079518
0.10079498
0.10079602
0.10079457
0.10079471
0.10078891
0.1007935
0.10079352
0.10079169
0.10079307
0.1007937
0.10079443
0.10079636
0.10079633
0.10079775
0.10079147
0.10079508
0.10079482
0.10079307
0.10079485
0.10079627
0.10079751
0.10079626
0.10079462
0.10079858
0.10079353
0.1007958
0.10079518
0.1007937
0.10079627
0.10079834
0.10079655
0.10079941
0.10079399
0.10079687
0.10079501
0.10079584
0.10079498
0.10079443
0.10079751
0.10079655
0.10079756
0.095683178
0.095675919
0.095683312
0.095670128
0.095677588
0.095680111
0.095680134
0.095680536
0.095680367
0.095684557
0.095675919
0.095679774
0.095672034
0.095669645
0.095677458
0.095678975
0.095678469
0.095680799
0.095678706
0.09567828
0.095683312
0.095672034
0.095675127
0.095672181
0.095679112
0.095679789
0.095678604
0.0956824
0.095683426
0.095681683
0.095670128
0.095669645
0.095672181
0.095668744
0.095675273
0.095675321
0.095673061
0.095676078
0.095678382
0.095679976
0.095677588
0.095677458
0.095679112
0.095675273
0.095681573
0.095681317
0.095678396
0.095680208
0.095680878
0.095680771
0.095680111
0.095678975
0.095679789
0.095675321
0.095681317
0.095680914
0.095677812
0.095679335
0.095679623
0.095679355
0.095680134
0.095678469
0.095678604
0.095673061
0.095678396
0.095677812
0.095674696
0.095676349
0.095677032
0.095678166
0.095680536
0.095680799
0.0956824
0.095676078
0.095680208
0.095679335
0.095676349
0.095678565
0.095680411
0.095682681
0.095680367
0.095678706
0.095683426
0.095678382
0.095680878
0.095679623
0.095677032
0.095680411
0.095683403
0.09568065
0.095684557
0.09567828
0.095681683
0.095679976
0.095680771
0.095679355
0.095678166
0.095682681
0.09568065
0.095682526
0.090806855
0.090799961
0.090807085
0.090794421
0.09080288
0.090805251
0.09080475
0.090804976
0.090804622
0.090809549
0.090799961
0.090803587
0.090796482
0.090795248
0.090803791
0.090804787
0.090803294
0.090805794
0.090803227
0.090802791
0.090807085
0.090796482
0.090800294
0.090798275
0.090805863
0.090805903
0.090803426
0.090807495
0.090808503
0.09080657
0.090794421
0.090795248
0.090798275
0.090795719
0.0908029
0.090802265
0.090798471
0.090801467
0.090803721
0.090805115
0.09080288
0.090803791
0.090805863
0.0908029
0.090809876
0.09080895
0.090804434
0.090806037
0.090806411
0.090805866
0.090805251
0.090804787
0.090805903
0.090802265
0.09080895
0.090807902
0.090803214
0.090804516
0.09080448
0.090803833
0.09080475
0.090803294
0.090803426
0.090798471
0.090804434
0.090803214
0.090798523
0.090799988
0.090800452
0.09080171
0.090804976
0.090805794
0.090807495
0.090801467
0.090806037
0.090804516
0.090799988
0.090802157
0.090804196
0.090807645
0.090804622
0.090803227
0.090808503
0.090803721
0.090806411
0.09080448
0.090800452
0.090804196
0.09080823
0.090804477
0.090809549
0.090802791
0.09080657
0.090805115
0.090805866
0.090803833
0.09080171
0.090807645
0.090804477
0.090807179
0.086199512
0.08619348
0.086200058
0.086188351
0.086197598
0.086199761
0.086198651
0.086198499
0.086197839
0.086203126
0.08619348
0.086196955
0.086190633
0.086190697
0.086199798
0.086200276
0.086197684
0.086199995
0.086196911
0.086196223
0.086200058
0.086190633
0.086195037
0.086194117
0.08620222
0.086201666
0.086197804
0.086201714
0.086202516
0.086200236
0.086188351
0.086190697
0.086194117
0.086192628
0.086200333
0.086199082
0.0861937
0.086196267
0.086198221
0.086199116
0.086197598
0.086199798
0.08620222
0.086200333
0.086207859
0.086206341
0.086200195
0.08620122
0.086201098
0.086199842
0.086199761
0.086200276
0.086201666
0.086199082
0.086206341
0.086204727
0.086198418
0.086199124
0.086198551
0.086197212
0.086198651
0.086197684
0.086197804
0.0861937
0.086200195
0.086198418
0.086192102
0.086192971
0.086192952
0.086193962
0.086198499
0.086199995
0.086201714
0.086196267
0.08620122
0.086199124
0.086192971
0.086194632
0.086196557
0.086201097
0.086197839
0.086196911
0.086202516
0.086198221
0.086201098
0.086198551
0.086192952
0.086196557
0.086201568
0.086196899
0.086203126
0.086196223
0.086200236
0.086199116
0.086199842
0.086197212
0.086193962
0.086201097
0.086196899
0.08620025
0.081869546
0.081864692
0.081870516
0.081860106
0.081869948
0.081871897
0.081870186
0.081869542
0.081868513
0.081873821
0.081864692
0.081868035
0.081862606
0.081864051
0.081873553
0.081873567
0.0818699
0.081871758
0.081868192
0.08186708
0.081870516
0.081862606
0.081867487
0.081867779
0.081876262
0.0818752
0.081870012
0.081873425
0.081873915
0.081871196
0.081860106
0.081864051
0.081867779
0.081867479
0.081875581
0.08187382
0.081866953
0.081868787
0.08187028
0.081870471
0.081869948
0.081873553
0.081876262
0.081875581
0.081883532
0.081881532
0.081873877
0.081874062
0.081873333
0.081871193
0.081871897
0.081873567
0.0818752
0.08187382
0.081881532
0.081879461
0.081871653
0.081871503
0.08187028
0.081868038
0.081870186
0.0818699
0.081870012
0.081866953
0.081873877
0.081871653
0.081863827
0.081863815
0.081863146
0.081863595
0.081869542
0.081871758
0.081873425
0.081868787
0.081874062
0.081871503
0.081863815
0.08186462
0.081866175
0.081871586
0.081868513
0.081868192
0.081873915
0.08187028
0.081873333
0.08187028
0.081863146
0.081866175
0.081871986
0.081866579
0.081873821
0.08186708
0.081871196
0.081870471
0.081871193
0.081868038
0.081863595
0.081871586
0.081866579
0.081870339
0.077808346
0.077804886
0.077809811
0.077800948
0.077811206
0.077812945
0.077810683
0.077809488
0.077808072
0.077813125
0.077804886
0.077808115
0.077803652
0.07780651
0.077816265
0.077815879
0.077811226
0.077812435
0.077808459
0.077806814
0.077809811
0.077803652
0.07780891
0.077810473
0.077819208
0.077817725
0.077811342
0.077813996
0.077814115
0.077810919
0.077800948
0.07780651
0.077810473
0.077811434
0.077819807
0.077817636
0.077809459
0.077810335
0.077811265
0.077810622
0.077811206
0.077816265
0.077819208
0.077819807
0.077828055
0.077825676
0.077816703
0.077815862
0.077814473
0.077811358
0.077812945
0.077815879
0.077817725
0.077817636
0.077825676
0.077823252
0.077814135
0.077812947
0.077811026
0.077807768
0.077810683
0.077811226
0.077811342
0.077809459
0.077816703
0.077814135
0.077804987
0.077803902
0.077802498
0.077802163
0.077809488
0.077812435
0.077813996
0.077810335
0.077815862
0.077812947
0.077803902
0.077803611
0.077804614
0.077810614
0.077808072
0.077808459
0.077814115
0.077811265
0.077814473
0.077811026
0.077802498
0.077804614
0.077810988
0.07780508
0.077813125
0.077806814
0.077810919
0.077810622
0.077811358
0.077807768
0.077802163
0.077810614
0.07780508
0.077808992
0.073995617
0.073993705
0.07399764
0.073990492
0.074001007
0.074002545
0.073999797
0.073998027
0.073996226
0.074000804
0.073993705
0.073996856
0.073993398
0.073997662
0.074007537
0.074006809
0.074001287
0.074001701
0.073997399
0.07399515
0.07399764
0.073993398
0.073998946
0.074001798
0.074010665
0.074008841
0.074001422
0.074003117
0.074002833
0.073999146
0.073990492
0.073997662
0.074001798
0.074004043
0.07401257
0.07401008
0.074000791
0.074000545
0.074000848
0.073999292
0.074001007
0.074007537
0.074010665
0.07401257
0.074020997
0.074018328
0.074008248
0.07400625
0.074004183
0.074000049
0.074002545
0.074006809
0.074008841
0.07401008
0.074018328
0.074015636
0.074005423
0.074003072
0.074000443
0.073996118
0.073999797
0.074001287
0.074001422
0.074000791
0.074008248
0.074005423
0.073995167
0.073992879
0.073990709
0.073989444
0.073998027
0.074001701
0.074003117
0.074000545
0.07400625
0.074003072
0.073992879
0.073991334
0.073991667
0.073997957
0.073996226
0.073997399
0.074002833
0.074000848
0.074004183
0.074000443
0.073990709
0.073991667
0.073998347
0.073992191
0.074000804
0.07399515
0.073999146
0.073999292
0.074000049
0.073996118
0.073989444
0.073997957
0.073992191
0.073996003
0.070405319
0.070405064
0.070407965
0.070402626
0.070413258
0.070414604
0.070411441
0.070409093
0.07040692
0.07041085
0.070405064
0.070408193
0.070405749
0.070411373
0.070421253
0.070420237
0.070413969
0.070413485
0.070408935
0.07040603
0.070407965
0.070405749
0.070411508
0.070415629
0.070424522
0.070422427
0.070414139
0.070414728
0.070414025
0.070409841
0.070402626
0.070411373
0.070415629
0.070419143
0.07042772
0.070424987
0.070414789
0.070413307
0.070412946
0.070410427
0.070413258
0.070421253
0.070424522
0.07042772
0.070436218
0.070433333
0.070422359
0.070419122
0.070416375
0.070411209
0.070414604
0.070420237
0.070422427
0.070424987
0.070433333
0.070430444
0.070419349
0.070415756
0.070412429
0.070407021
0.070411441
0.070413969
0.070414139
0.070414789
0.070422359
0.070419349
0.070408198
0.070404629
0.070401694
0.070399408
0.070409093
0.070413485
0.070414728
0.070413307
0.070419122
0.070415756
0.070404629
0.070401736
0.070401328
0.070407614
0.07040692
0.070408935
0.070414025
0.070412946
0.070416375
0.070412429
0.070401694
0.070401328
0.070408061
0.070401893
0.07041085
0.07040603
0.070409841
0.070410427
0.070411209
0.070407021
0.070399408
0.070407614
0.070401893
0.070405378
0.06701041
0.06701188
0.067013743
0.067010242
0.067020871
0.067022035
0.067018524
0.06701561
0.067013085
0.067016231
0.06701188
0.067015057
0.067013609
0.067020518
0.067030303
0.067029046
0.067022154
0.067020707
0.067015977
0.067012378
0.067013743
0.067013609
0.067019512
0.067024847
0.067033675
0.067031368
0.067022373
0.067021759
0.06702063
0.067015945
0.067010242
0.067020518
0.067024847
0.067029584
0.067038118
0.067035207
0.067024292
0.067021509
0.067020465
0.067016955
0.067020871
0.067030303
0.067033675
0.067038118
0.067046592
0.067043554
0.067031887
0.067027367
0.067023954
0.067017761
0.067022035
0.067029046
0.067031368
0.067035207
0.067043554
0.067040527
0.06702875
0.067023878
0.067019875
0.067013394
0.067018524
0.067022154
0.067022373
0.067024292
0.067031887
0.06702875
0.067016908
0.067012023
0.067008342
0.067004982
0.06701561
0.067020707
0.067021759
0.067021509
0.067027367
0.067023878
0.067012023
0.067007737
0.067006552
0.067012564
0.067013085
0.067015977
0.06702063
0.067020465
0.067023954
0.067019875
0.067008342
0.067006552
0.067013107
0.067007133
0.067016231
0.067012378
0.067015945
0.067016955
0.067017761
0.067013394
0.067004982
0.067012564
0.067007133
0.067010092
0.063785764
0.063788985
0.06378984
0.06378815
0.063798674
0.063799666
0.063795871
0.063792414
0.063789556
0.063791824
0.063788985
0.063792285
0.063791794
0.06379989
0.063809494
0.063808038
0.063800639
0.063798195
0.063793341
0.063789022
0.06378984
0.063791794
0.06379778
0.063804251
0.063812936
0.063810469
0.063800917
0.063799047
0.063797494
0.063792302
0.06378815
0.06379989
0.063804251
0.063810134
0.063818547
0.063815512
0.063804059
0.063799949
0.063798221
0.063793712
0.063798674
0.063809494
0.063812936
0.063818547
0.063826917
0.063823777
0.063811603
0.063805796
0.063801741
0.063794537
0.063799666
0.063808038
0.063810469
0.063815512
0.063823777
0.063820662
0.063808387
0.063802234
0.063797589
0.063790059
0.063795871
0.063800639
0.063800917
0.063804059
0.063811603
0.063808387
0.063796039
0.06378984
0.063785449
0.063780993
0.063792414
0.063798195
0.063799047
0.063799949
0.063805796
0.063802234
0.06378984
0.063784161
0.063782191
0.063787691
0.063789556
0.063793341
0.063797494
0.063798221
0.063801741
0.063797589
0.063785449
0.063782191
0.06378837
0.06378275
0.063791824
0.063789022
0.063792302
0.063793712
0.063794537
0.063790059
0.063780993
0.063787691
0.06378275
0.063785021
0.060709494
0.060714453
0.060714354
0.060714403
0.060724737
0.060725566
0.060721547
0.060717579
0.060714411
0.060715737
0.060714453
0.06071795
0.060718358
0.060727521
0.060736878
0.060735259
0.060727462
0.060724018
0.060719084
0.060714032
0.060714354
0.060718358
0.060724375
0.060731879
0.060740357
0.060737775
0.060727807
0.060724669
0.060722699
0.060716999
0.060714403
0.060727521
0.060731879
0.060738811
0.060747039
0.060743926
0.060732096
0.060726674
0.060724276
0.060718774
0.060724737
0.060736878
0.060740357
0.060747039
0.060755238
0.06075204
0.060739524
0.060732458
0.060727796
0.060719613
0.060725566
0.060735259
0.060737775
0.060743926
0.06075204
0.060748877
0.06073627
0.060728869
0.060723623
0.060715083
0.060721547
0.060727462
0.060727807
0.060732096
0.060739524
0.06073627
0.060723584
0.060716108
0.06071105
0.0607055
0.060717579
0.060724018
0.060724669
0.060726674
0.060732458
0.060728869
0.060716108
0.060709072
0.060706329
0.060711122
0.060714411
0.060719084
0.060722699
0.060724276
0.060727796
0.060723623
0.06071105
0.060706329
0.060711969
0.060706823
0.060715737
0.060714032
0.060716999
0.060718774
0.060719613
0.060715083
0.0607055
0.060711122
0.060706823
0.060708279
0.057763222
0.057769868
0.057768892
0.057770571
0.057780644
0.057781322
0.057777132
0.057772692
0.05776924
0.057769593
0.057769868
0.057773631
0.057774867
0.057784965
0.057794019
0.057792271
0.057784176
0.057779757
0.057774779
0.057768993
0.057768892
0.057774867
0.057780868
0.05778929
0.05779751
0.05779485
0.057784592
0.057780211
0.057777841
0.057771632
0.057770571
0.057784965
0.05778929
0.057797157
0.057805147
0.057801996
0.057789932
0.057783245
0.057780204
0.057773732
0.057780644
0.057794019
0.05779751
0.057805147
0.05781312
0.057809901
0.057797192
0.057788926
0.057783698
0.05777458
0.057781322
0.057792271
0.05779485
0.057801996
0.057809901
0.057806725
0.057793934
0.057785346
0.057779547
0.057770048
0.057777132
0.057784176
0.057784592
0.057789932
0.057797192
0.057793934
0.057781058
0.057772371
0.0577667
0.057760079
0.057772692
0.057779757
0.057780211
0.057783245
0.057788926
0.057785346
0.057772371
0.057764045
0.057760559
0.05776449
0.05776924
0.057774779
0.057777841
0.057780204
0.057783698
0.057779547
0.0577667
0.057760559
0.057765537
0.057760943
0.057769593
0.057768993
0.057771632
0.057773732
0.05777458
0.057770048
0.057760079
0.05776449
0.057760943
0.057761492
0.054931794
0.054940046
0.054938284
0.054941454
0.054951211
0.054951749
0.054947438
0.054942572
0.054938864
0.054938242
0.054940046
0.054944135
0.054946117
0.054957007
0.054965716
0.05496387
0.054955569
0.054950223
0.05494523
0.05493872
0.054938284
0.054946117
0.054952061
0.054961274
0.054969194
0.054966491
0.054956059
0.05495049
0.05494774
0.054941031
0.054941454
0.054957007
0.054961274
0.054969949
0.054977661
0.054974505
0.054962336
0.054954459
0.054950815
0.054943412
0.054951211
0.054965716
0.054969194
0.054977661
0.054985364
0.054982157
0.054969383
0.054960002
0.05495426
0.054944262
0.054951749
0.05496387
0.054966491
0.054974505
0.054982157
0.054978998
0.054966151
0.054956462
0.054950167
0.054939771
0.054947438
0.054955569
0.054956059
0.054962336
0.054969383
0.054966151
0.054953217
0.054943407
0.054937184
0.054929536
0.054942572
0.054950223
0.05495049
0.054954459
0.054960002
0.054956462
0.054943407
0.054933886
0.054929701
0.05493266
0.054938864
0.05494523
0.05494774
0.054950815
0.05495426
0.054950167
0.054937184
0.054929701
0.054933931
0.054929931
0.054938242
0.05493872
0.054941031
0.054943412
0.054944262
0.054939771
0.054929536
0.05493266
0.054929931
0.054929518
0.052202781
0.052212529
0.052210082
0.052214585
0.052223982
0.052224392
0.052220005
0.052214765
0.05221083
0.052209255
0.052212529
0.052216992
0.052219634
0.052231167
0.052239499
0.052237582
0.05222916
0.052222954
0.052217969
0.052210761
0.052210082
0.052219634
0.052225486
0.052235352
0.052242944
0.052240227
0.052229722
0.052223048
0.052219946
0.052212748
0.052214585
0.052231167
0.052235352
0.052244704
0.052252104
0.052248974
0.05223681
0.052227844
0.052223645
0.052215365
0.052223982
0.052239499
0.052242944
0.052252104
0.052259504
0.052256336
0.052243611
0.05223322
0.052227021
0.052216212
0.052224392
0.052237582
0.052240227
0.052248974
0.052256336
0.05225322
0.05224043
0.052229747
0.052223015
0.052211798
0.052220005
0.05222916
0.052229722
0.05223681
0.052243611
0.05224043
0.05222755
0.052216729
0.052210021
0.052201403
0.052214765
0.052222954
0.052223048
0.052227844
0.05223322
0.052229747
0.052216729
0.052206127
0.0522013
0.052203216
0.05221083
0.052217969
0.052219946
0.052223645
0.052227021
0.052223015
0.052210021
0.0522013
0.05220473
0.052201336
0.052209255
0.052210761
0.052212748
0.052215365
0.052216212
0.052211798
0.052201403
0.052203216
0.052201336
0.052199936
0.049565946
0.04957706
0.049574035
0.049579701
0.049588703
0.049588996
0.049584574
0.049579014
0.049574885
0.049572399
0.04957706
0.049581934
0.049585144
0.049597167
0.049605099
0.049603136
0.04959467
0.049587687
0.049582729
0.049574861
0.049574035
0.049585144
0.049590871
0.049601252
0.049608491
0.049605786
0.049595299
0.049587624
0.049584202
0.049576538
0.049579701
0.049597167
0.049601252
0.049611141
0.049618207
0.049615126
0.049603067
0.049593129
0.049588433
0.049579342
0.049588703
0.049605099
0.049608491
0.049618207
0.049625279
0.049622172
0.049609594
0.049598314
0.049591722
0.04958018
0.049588996
0.049603136
0.049605786
0.049615126
0.049622172
0.049619119
0.049606484
0.049594929
0.049587828
0.049575871
0.049584574
0.04959467
0.049595299
0.049603067
0.049609594
0.049606484
0.049593757
0.049582051
0.049574928
0.049565416
0.049579014
0.049587687
0.049587624
0.049593129
0.049598314
0.049594929
0.049582051
0.049570501
0.049565095
0.049565937
0.049574885
0.049582729
0.049584202
0.049588433
0.049591722
0.049587828
0.049574928
0.049565095
0.049567706
0.049564904
0.049572399
0.049574861
0.049576538
0.049579342
0.04958018
0.049575871
0.049565416
0.049565937
0.049564904
0.049562523
0.047012783
0.047025113
0.04702162
0.047028268
0.047036848
0.047037037
0.047032617
0.047026795
0.047022504
0.047019169
0.047025113
0.047030421
0.047034105
0.047046467
0.047053982
0.047051996
0.047043553
0.04703589
0.047030975
0.047022496
0.04702162
0.047034105
0.047039679
0.047050435
0.047057304
0.047054633
0.047044245
0.047035687
0.047031982
0.047023881
0.047028268
0.047046467
0.047050435
0.047060721
0.047067434
0.047064423
0.047052552
0.047041777
0.047036647
0.047026824
0.047036848
0.047053982
0.047057304
0.047067434
0.047074158
0.047071132
0.047058785
0.047046753
0.047039832
0.047027648
0.047037037
0.047051996
0.047054633
0.047064423
0.047071132
0.047068161
0.047055763
0.047043473
0.047036069
0.047023469
0.047032617
0.047043553
0.047044245
0.047052552
0.047058785
0.047055763
0.047043274
0.047030822
0.047023358
0.04701304
0.047026795
0.04703589
0.047035687
0.047041777
0.047046753
0.047043473
0.047030822
0.047018467
0.047012556
0.047012326
0.047022504
0.047030975
0.047031982
0.047036647
0.047039832
0.047036069
0.047023358
0.047012556
0.047014353
0.047012111
0.047019169
0.047022496
0.047023881
0.047026824
0.047027648
0.047023469
0.04701304
0.047012326
0.047012111
0.047008781
0.044536129
0.044549509
0.044545658
0.044553105
0.044561242
0.044561338
0.044556953
0.044550928
0.044546511
0.044542401
0.044549509
0.044555261
0.044559326
0.044571876
0.044578963
0.044576972
0.044568616
0.044560377
0.04455552
0.044546491
0.044545658
0.044559326
0.044564721
0.044575711
0.044582199
0.044579581
0.044569362
0.044560053
0.044556104
0.044547606
0.044553105
0.044571876
0.044575711
0.044586257
0.044592604
0.044589679
0.044578071
0.044566602
0.044561106
0.044550641
0.044561242
0.044578963
0.044582199
0.044592604
0.044598966
0.044596035
0.044583992
0.04457135
0.044564173
0.044551443
0.044561338
0.044576972
0.044579581
0.044589679
0.044596035
0.044593161
0.044581073
0.044568191
0.044560556
0.044547414
0.044556953
0.044568616
0.044569362
0.044578071
0.044583992
0.044581073
0.044568894
0.044555842
0.044548113
0.044537089
0.044550928
0.044560377
0.044560053
0.044566602
0.04457135
0.044568191
0.044555842
0.044542834
0.044536496
0.044535227
0.044546511
0.04455552
0.044556104
0.044561106
0.044564173
0.044560556
0.044548113
0.044536496
0.04453751
0.044535781
0.044542401
0.044546491
0.044547606
0.044550641
0.044551443
0.044547414
0.044537089
0.044535227
0.044535781
0.044531557
0.042129866
0.04214412
0.042140019
0.042148082
0.042155759
0.042155774
0.042151455
0.042145286
0.042140778
0.042135978
0.04214412
0.042150311
0.042154664
0.042167257
0.042173907
0.042171931
0.042163716
0.042155012
0.042150227
0.042140719
0.042140019
0.042154664
0.042159857
0.042170944
0.042177042
0.042174493
0.042164507
0.042154586
0.042150437
0.042141588
0.042148082
0.042167257
0.042170944
0.042181613
0.042187585
0.042184762
0.042173479
0.042161466
0.042155677
0.04214467
0.042155759
0.042173907
0.042177042
0.042187585
0.042193576
0.042190754
0.042179075
0.042165973
0.042158611
0.042145444
0.042155774
0.042171931
0.042174493
0.042184762
0.042190754
0.042187988
0.042176271
0.042162945
0.042155153
0.042141579
0.042151455
0.042163716
0.042164507
0.042173479
0.042179075
0.042176271
0.042164464
0.042150963
0.042143047
0.042131429
0.042145286
0.042155012
0.042154586
0.042161466
0.042165973
0.042162945
0.042150963
0.04213746
0.042130778
0.042128528
0.042140778
0.042150227
0.042150437
0.042155677
0.042158611
0.042155153
0.042143047
0.042130778
0.042131057
0.042129788
0.042135978
0.042140719
0.042141588
0.04214467
0.042145444
0.042141579
0.042131429
0.042128528
0.042129788
0.042124742
0.039788696
0.039803636
0.03979939
0.039807889
0.039815094
0.039815038
0.039810811
0.039804557
0.039799996
0.039794602
0.039803636
0.039810249
0.0398148
0.039827293
0.039833503
0.039831556
0.039823534
0.039814479
0.03980978
0.039799874
0.03979939
0.0398148
0.039819769
0.039830821
0.039836524
0.039834058
0.039824359
0.03981397
0.039809664
0.039800524
0.039807889
0.039827293
0.039830821
0.039841481
0.039847072
0.039844362
0.039833459
0.039821055
0.039815046
0.039803606
0.039815094
0.039833503
0.039836524
0.039847072
0.039852683
0.039849981
0.03983872
0.039825309
0.039817836
0.039804347
0.039815038
0.039831556
0.039834058
0.039844362
0.039849981
0.039847334
0.03983604
0.039822422
0.039814545
0.039800658
0.039810811
0.039823534
0.039824359
0.039833459
0.03983872
0.03983604
0.039824657
0.039810862
0.039802837
0.039790745
0.039804557
0.039814479
0.03981397
0.039821055
0.039825309
0.039822422
0.039810862
0.039797021
0.039790081
0.039786931
0.039799996
0.03980978
0.039809664
0.039815046
0.039817836
0.039814545
0.039802837
0.039790081
0.039789689
0.039788821
0.039794602
0.039799874
0.039800524
0.039803606
0.039804347
0.039800658
0.039790745
0.039786931
0.039788821
0.039783044
0.037507962
0.037523397
0.037519102
0.037527864
0.037534588
0.03753447
0.03753036
0.037524081
0.037519502
0.037513614
0.037523397
0.037530399
0.037535062
0.03754732
0.037553087
0.037551184
0.037543399
0.037534108
0.03752951
0.037519295
0.037519102
0.037535062
0.037539786
0.037550676
0.03755598
0.037553608
0.037544245
0.037533533
0.037529119
0.037519751
0.037527864
0.03754732
0.037550676
0.037561201
0.037566406
0.037563819
0.037553344
0.037540703
0.03753455
0.037522792
0.037534588
0.037553087
0.03755598
0.037566406
0.037571633
0.037569058
0.037558261
0.037544694
0.037537183
0.037523493
0.03753447
0.037551184
0.037553608
0.037563819
0.037569058
0.037566538
0.037555712
0.037541953
0.037534066
0.03751999
0.03753036
0.037543399
0.037544245
0.037553344
0.037558261
0.037555712
0.0375448
0.037530862
0.037522808
0.037510371
0.037524081
0.037534108
0.037533533
0.037540703
0.037544694
0.037541953
0.037530862
0.037516844
0.037509732
0.037505783
0.037519502
0.03752951
0.037529119
0.03753455
0.037537183
0.037534066
0.037522808
0.037509732
0.037508745
0.037508221
0.037513614
0.037519295
0.037519751
0.037522792
0.037523493
0.03751999
0.037510371