/*--------------------------------*- C++ -*----------------------------------*\
| =========                 |                                                 |
| \\      /  F ield         | OpenFOAM: The Open Source CFD Toolbox           |
|  \\    /   O peration     | Version:  v2106                                 |
|   \\  /    A nd           | Website:  www.openfoam.com                      |
|    \\/     M anipulation  |                                                 |
\*---------------------------------------------------------------------------*/
FoamFile
{
    version     2.0;
    format      ascii;
    arch        "LSB;label=32;scalar=64";
    class       volScalarField;
    location    "100";
    object      Tmode14;
}
// * * * * * * * * * * * * * * * * * * * * * * * * * * * * * * * * * * * * * //

dimensions      [0 0 0 0 0 0 0];

internalField   nonuniform List<scalar> 
4000
(
-0.0034033695
-0.0017320557
-0.0022358304
-0.0021754052
-0.0021927359
-0.0022090862
-0.002235394
-0.0022931715
-0.0024051157
-0.0025575321
-0.0017320557
-0.0011952177
-0.0014694083
-0.0014307317
-0.0014510165
-0.0014642843
-0.001483612
-0.0015293413
-0.0016323507
-0.0018319937
-0.0022358304
-0.0014694083
-0.0017856098
-0.0017550178
-0.0017739053
-0.0017833981
-0.0017941626
-0.0018219722
-0.001882256
-0.0019578865
-0.0021754052
-0.0014307317
-0.0017550178
-0.0017247557
-0.0017428602
-0.0017503617
-0.0017558299
-0.0017756199
-0.0018350927
-0.0019226233
-0.0021927359
-0.0014510165
-0.0017739053
-0.0017428602
-0.0017610123
-0.0017683011
-0.0017716035
-0.001785695
-0.001837273
-0.0019198404
-0.0022090862
-0.0014642843
-0.0017833981
-0.0017503617
-0.0017683011
-0.0017761934
-0.0017798692
-0.0017934039
-0.0018434722
-0.0019245731
-0.002235394
-0.001483612
-0.0017941626
-0.0017558299
-0.0017716035
-0.0017798692
-0.0017848744
-0.0018003025
-0.0018526844
-0.0019356597
-0.0022931715
-0.0015293413
-0.0018219722
-0.0017756198
-0.001785695
-0.0017934039
-0.0018003025
-0.0018197167
-0.001878251
-0.0019670439
-0.0024051157
-0.0016323507
-0.001882256
-0.0018350927
-0.001837273
-0.0018434722
-0.0018526844
-0.001878251
-0.001947792
-0.0020487015
-0.0025575321
-0.0018319937
-0.0019578865
-0.0019226233
-0.0019198404
-0.0019245731
-0.0019356597
-0.0019670439
-0.0020487015
-0.0021668562
0.00080577498
0.011798142
0.0093411602
0.0095566475
0.0094350887
0.0092834284
0.0090108894
0.0084414072
0.007334992
0.0056112095
0.011798142
0.017482132
0.015700736
0.015804708
0.015671332
0.015545541
0.015336198
0.014897027
0.013933824
0.011140236
0.0093411602
0.015700736
0.013757604
0.013816524
0.013690181
0.013594014
0.013454291
0.013172588
0.01267447
0.010819801
0.0095566475
0.015804708
0.013816524
0.013868237
0.013746406
0.013668317
0.01357233
0.013347631
0.012871679
0.011007895
0.0094350887
0.015671332
0.013690181
0.013746406
0.013625576
0.013552772
0.013478987
0.013301697
0.012881514
0.011047755
0.0092834284
0.015545541
0.013594014
0.013668317
0.013552772
0.013478438
0.013404865
0.013234572
0.012826505
0.011001278
0.0090108894
0.015336198
0.013454291
0.01357233
0.013478987
0.013404865
0.013321667
0.013135122
0.012705733
0.010862268
0.0084414073
0.014897027
0.013172588
0.013347631
0.013301697
0.013234572
0.013135122
0.012911299
0.012423556
0.010524986
0.007334992
0.013933824
0.01267447
0.012871679
0.012881514
0.012826505
0.012705733
0.012423556
0.011829363
0.009808048
0.0056112095
0.011140236
0.010819801
0.011007895
0.011047755
0.011001278
0.010862268
0.010524986
0.009808048
0.0075490549
-0.038165544
-0.023537855
-0.026491949
-0.02634288
-0.026503387
-0.026737262
-0.02718516
-0.028123869
-0.030151796
-0.035075071
-0.023537855
-0.015826965
-0.018176292
-0.018148118
-0.018320028
-0.018514121
-0.018852373
-0.01947172
-0.020624555
-0.026768208
-0.026491949
-0.018176292
-0.020677938
-0.020701373
-0.020865471
-0.021015245
-0.021255718
-0.021681628
-0.022122019
-0.026919458
-0.02634288
-0.018148118
-0.020701373
-0.020738196
-0.020897819
-0.021016568
-0.021180547
-0.021510402
-0.021874561
-0.026611704
-0.026503387
-0.018320028
-0.020865471
-0.020897819
-0.021056534
-0.021165056
-0.021290137
-0.02154472
-0.02182414
-0.026513785
-0.026737262
-0.018514121
-0.021015245
-0.021016568
-0.021165056
-0.021273749
-0.021395881
-0.02163787
-0.021899723
-0.026580022
-0.02718516
-0.018852373
-0.021255718
-0.021180547
-0.021290137
-0.021395881
-0.021532653
-0.021803066
-0.022105644
-0.026823599
-0.028123869
-0.01947172
-0.021681628
-0.021510402
-0.02154472
-0.02163787
-0.021803066
-0.022144063
-0.022562702
-0.027392396
-0.030151796
-0.020624555
-0.022122019
-0.021874561
-0.02182414
-0.021899723
-0.022105644
-0.022562702
-0.023211212
-0.028360675
-0.035075071
-0.026768208
-0.026919458
-0.026611704
-0.026513785
-0.026580022
-0.026823599
-0.027392396
-0.028360675
-0.034944346
-0.013634665
0.004086169
0.00048678673
0.00049092859
0.00035003075
8.9689206e-05
-0.00043677473
-0.0014754047
-0.0036095682
-0.010568523
0.004086169
0.013498796
0.010503032
0.010422043
0.010273241
0.01005616
0.0096392462
0.0089345576
0.0080799862
-0.00045803757
0.00048678673
0.010503032
0.0074132053
0.0072863373
0.0071439774
0.0069841099
0.0067000896
0.006238757
0.0063460409
-0.00052259741
0.00049092859
0.010422043
0.0072863373
0.0071400406
0.0069981615
0.0068756606
0.0066918603
0.0063581424
0.0066095639
-0.00011870215
0.00035003075
0.010273241
0.0071439774
0.0069981615
0.0068544533
0.0067439137
0.0066082883
0.0063631218
0.0067146721
4.3934008e-05
8.9689209e-05
0.01005616
0.0069841099
0.0068756606
0.0067439137
0.0066347115
0.0065049323
0.0062756335
0.006645959
-1.9339351e-05
-0.00043677472
0.0096392462
0.0067000896
0.0066918603
0.0066082883
0.0065049323
0.0063586985
0.0060923402
0.0064050648
-0.00031779482
-0.0014754047
0.0089345576
0.006238757
0.0063581424
0.0063631218
0.0062756335
0.0060923402
0.0057277563
0.005876451
-0.00099394519
-0.0036095682
0.0080799862
0.0063460409
0.0066095639
0.0067146721
0.006645959
0.0064050648
0.005876451
0.0057112349
-0.0015779552
-0.010568523
-0.00045803757
-0.00052259741
-0.00011870215
4.3934008e-05
-1.9339351e-05
-0.00031779482
-0.00099394519
-0.0015779552
-0.012331046
0.0045562946
0.024405092
0.020047546
0.019963292
0.019886061
0.019622836
0.019046357
0.01792448
0.015704013
0.0071860428
0.024405092
0.034857428
0.03119357
0.031068644
0.03098609
0.030776901
0.030342721
0.029616993
0.028996964
0.018577977
0.020047546
0.03119357
0.027498331
0.027330523
0.02724665
0.027097097
0.026824643
0.026413081
0.027006746
0.018534819
0.019963292
0.031068644
0.027330523
0.027135021
0.02704418
0.026928961
0.026762286
0.026492443
0.027287505
0.019019527
0.019886061
0.03098609
0.02724665
0.02704418
0.026948206
0.026844786
0.026728336
0.026548014
0.0274478
0.019240084
0.019622836
0.030776901
0.027097097
0.026928961
0.026844786
0.026745655
0.026639137
0.026477478
0.027396141
0.019188329
0.019046357
0.030342721
0.026824643
0.026762286
0.026728336
0.026639137
0.026519018
0.026317495
0.027166349
0.018879316
0.01792448
0.029616993
0.026413081
0.026492443
0.026548014
0.026477478
0.026317495
0.025998292
0.026643101
0.01817743
0.015704013
0.028996964
0.027006746
0.027287505
0.0274478
0.027396141
0.027166349
0.026643101
0.026926399
0.018099858
0.0071860428
0.018577977
0.018534819
0.019019527
0.019240084
0.019188329
0.018879316
0.01817743
0.018099858
0.0040218298
-0.019614796
0.001646159
-0.0033633585
-0.0034432192
-0.0034484643
-0.0037147277
-0.0043010954
-0.0053966316
-0.007598825
-0.017285025
0.001646159
0.01269627
0.0085052655
0.0084149084
0.0083974433
0.0081855387
0.0077760705
0.0071885387
0.0069007752
-0.0048915829
-0.0033633585
0.0085052655
0.0043282781
0.0041912399
0.0041595671
0.0039954804
0.0037494715
0.0035298336
0.0046688838
-0.0049441598
-0.0034432192
0.0084149084
0.0041912399
0.0040182293
0.0039731635
0.0038362269
0.0036862212
0.0036029453
0.0049765469
-0.0043943851
-0.0034484643
0.0083974433
0.0041595671
0.0039731635
0.003922943
0.0037996415
0.0036994307
0.0037008563
0.0051778172
-0.004134446
-0.0037147277
0.0081855387
0.0039954804
0.0038362269
0.0037996415
0.0036870358
0.003603771
0.003629152
0.0051283645
-0.0041852501
-0.0043010954
0.0077760705
0.0037494715
0.0036862212
0.0036994307
0.003603771
0.0035154473
0.0035065805
0.0049335788
-0.0044745334
-0.0053966316
0.0071885387
0.0035298336
0.0036029453
0.0037008563
0.003629152
0.0035065805
0.0033731349
0.0045629963
-0.0050733477
-0.0075988249
0.0069007752
0.0046688838
0.0049765469
0.0051778172
0.0051283645
0.0049335788
0.0045629963
0.0053206909
-0.0046701411
-0.017285025
-0.0048915829
-0.0049441598
-0.0043943851
-0.004134446
-0.0041852501
-0.0044745334
-0.0050733477
-0.0046701411
-0.021289978
-0.04424606
-0.021846175
-0.027368504
-0.02740686
-0.027373093
-0.027674542
-0.028281488
-0.02929337
-0.031363825
-0.041889482
-0.021846175
-0.010309959
-0.014894839
-0.014930128
-0.014922033
-0.015183706
-0.015608348
-0.016017188
-0.015900136
-0.028666216
-0.027368504
-0.014894839
-0.019438799
-0.019527337
-0.019544005
-0.019772632
-0.020050498
-0.020064452
-0.018358554
-0.02875327
-0.02740686
-0.014930128
-0.019527337
-0.019656897
-0.019688202
-0.019893273
-0.020088402
-0.019980979
-0.018027503
-0.028161698
-0.027373093
-0.014922033
-0.019544005
-0.019688202
-0.019719208
-0.019904039
-0.020047238
-0.019859049
-0.017804522
-0.027882757
-0.027674542
-0.015183706
-0.019772632
-0.019893273
-0.019904039
-0.020067804
-0.020183902
-0.01996309
-0.017878102
-0.027951832
-0.028281488
-0.015608348
-0.020050498
-0.020088402
-0.020047238
-0.020183902
-0.020292176
-0.020091345
-0.018065532
-0.02822819
-0.02929337
-0.016017188
-0.020064452
-0.019980979
-0.019859049
-0.01996309
-0.020091345
-0.020001571
-0.018214667
-0.02863418
-0.031363825
-0.015900136
-0.018358554
-0.018027503
-0.017804522
-0.017878102
-0.018065532
-0.018214667
-0.016915775
-0.027778737
-0.041889482
-0.028666216
-0.02875327
-0.028161698
-0.027882757
-0.027951832
-0.02822819
-0.02863418
-0.027778737
-0.046352669
-0.038908771
-0.015567358
-0.02152534
-0.021548101
-0.021520415
-0.021883412
-0.022538412
-0.023483536
-0.02539608
-0.036562931
-0.015567358
-0.0036219235
-0.0085451683
-0.0085609467
-0.0085702845
-0.0089095559
-0.0093942271
-0.0096711802
-0.0091674742
-0.022666515
-0.02152534
-0.0085451683
-0.013412535
-0.013486696
-0.013524788
-0.013839196
-0.014195592
-0.01406735
-0.011852942
-0.022818602
-0.021548101
-0.0085609467
-0.013486696
-0.013602217
-0.013649987
-0.013937129
-0.014218234
-0.01398251
-0.011516864
-0.022212968
-0.021520415
-0.0085702845
-0.013524788
-0.013649987
-0.01368682
-0.013942198
-0.014164559
-0.013847905
-0.011281888
-0.021924413
-0.021883412
-0.0089095559
-0.013839196
-0.013937129
-0.013942198
-0.014163408
-0.0143472
-0.013988565
-0.011383008
-0.022012506
-0.022538412
-0.0093942271
-0.014195592
-0.014218234
-0.014164559
-0.0143472
-0.014510736
-0.014156777
-0.011590322
-0.022286775
-0.023483536
-0.0096711802
-0.01406735
-0.01398251
-0.013847905
-0.013988565
-0.014156777
-0.013889615
-0.011533685
-0.022472453
-0.02539608
-0.0091674742
-0.011852942
-0.011516864
-0.011281888
-0.011383008
-0.011590322
-0.011533685
-0.0096723364
-0.021175712
-0.036562931
-0.022666515
-0.022818602
-0.022212968
-0.021924413
-0.022012506
-0.022286775
-0.022472453
-0.021175712
-0.04127955
-0.01547305
0.0085763576
0.0022104506
0.0021454331
0.0021336272
0.0017165289
0.0010273163
0.00014712925
-0.0015947888
-0.01325935
0.0085763576
0.020808904
0.015549491
0.01549163
0.01543678
0.015033437
0.014500141
0.014330912
0.015198907
0.0011427917
0.0022104506
0.015549491
0.010355456
0.010237699
0.010156784
0.0097792318
0.0093634683
0.0096041146
0.01227836
0.00089385325
0.0021454331
0.01549163
0.010237699
0.010082839
0.010002228
0.0096625697
0.0093237196
0.0096649687
0.012593808
0.0014867805
0.0021336272
0.01543678
0.010156784
0.010002228
0.0099467834
0.0096539758
0.0093851503
0.00981221
0.012843496
0.001788879
0.0017165289
0.015033437
0.0097792318
0.0096625697
0.0096539758
0.0094098054
0.0091909876
0.0096680282
0.012745306
0.0017099035
0.0010273163
0.014500141
0.0093634683
0.0093237196
0.0093851503
0.0091909876
0.009001394
0.0094834395
0.012537201
0.0014587359
0.00014712925
0.014330912
0.0096041146
0.0096649687
0.00981221
0.0096680282
0.0094834395
0.0098988033
0.012779239
0.0015018091
-0.0015947887
0.015198907
0.01227836
0.012593808
0.012843496
0.012745306
0.012537201
0.012779239
0.015198628
0.0032566419
-0.01325935
0.0011427917
0.00089385325
0.0014867805
0.001788879
0.0017099035
0.0014587359
0.0015018091
0.0032566419
-0.018045981
-0.00065954109
0.023836612
0.017073324
0.016903915
0.016833852
0.016393978
0.015723118
0.014947858
0.013416481
0.0014004113
0.023836612
0.036204313
0.0305954
0.030433239
0.030319349
0.029890616
0.029366412
0.029331697
0.030575319
0.0161361
0.017073324
0.0305954
0.025059885
0.024840305
0.024707981
0.024313421
0.023905998
0.024286816
0.027415083
0.015763356
0.016903915
0.030433239
0.024840305
0.024591405
0.024472438
0.024130991
0.023810138
0.024293088
0.027683847
0.016320601
0.016833852
0.030319349
0.024707981
0.024472438
0.024394602
0.024116883
0.023880467
0.024458166
0.027956675
0.016646731
0.016393978
0.029890616
0.024313421
0.024130991
0.024116883
0.023902678
0.023727429
0.024361854
0.027910055
0.016621975
0.015723118
0.029366412
0.023905998
0.023810138
0.023880467
0.023727429
0.023587273
0.02423004
0.027761613
0.016447087
0.014947858
0.029331697
0.024286816
0.024293088
0.024458166
0.024361854
0.02423004
0.024815797
0.02820359
0.016739378
0.013416481
0.030575319
0.027415083
0.027683847
0.027956675
0.027910055
0.027761613
0.02820359
0.031179445
0.018991037
0.0014004113
0.0161361
0.015763356
0.016320601
0.016646731
0.016621975
0.016447087
0.016739378
0.018991037
-0.0032201316
-0.0063431283
0.018339046
0.011191753
0.010866681
0.010730003
0.010304722
0.0097177295
0.0091108801
0.0078492479
-0.0043611866
0.018339046
0.030686652
0.024721345
0.024405122
0.024227827
0.023816971
0.02337451
0.023531204
0.025183485
0.01054255
0.011191753
0.024721345
0.018837584
0.018469685
0.018284462
0.017920719
0.01760263
0.018184293
0.02178695
0.010026581
0.010866681
0.024405122
0.018469685
0.018082444
0.017924896
0.017631561
0.017415024
0.018107642
0.021986522
0.010529629
0.010730003
0.024227827
0.018284462
0.017924896
0.01782468
0.017612213
0.017496056
0.018295203
0.022290157
0.010889881
0.010304722
0.023816971
0.017920719
0.017631561
0.017612213
0.017477863
0.017433806
0.018296006
0.022343081
0.010965012
0.0097177295
0.02337451
0.01760263
0.017415024
0.017496056
0.017433806
0.017429197
0.018299251
0.022329634
0.010932889
0.0091108801
0.023531204
0.018184293
0.018107642
0.018295203
0.018296006
0.018299251
0.019112954
0.023016422
0.011510806
0.0078492479
0.025183485
0.02178695
0.021986522
0.022290157
0.022343081
0.022329634
0.023016422
0.026554302
0.014301834
-0.0043611866
0.01054255
0.010026581
0.010529629
0.010889881
0.010965012
0.010932889
0.011510806
0.014301834
-0.0085458142
-0.024520384
0.00010689908
-0.0074016691
-0.0079184904
-0.0081245307
-0.0085031496
-0.0089475048
-0.009321597
-0.010253957
-0.022502892
0.00010689908
0.012292346
0.0059767879
0.0054721355
0.0052312251
0.004874074
0.0045784074
0.0049882536
0.0070832337
-0.0075821789
-0.0074016691
0.0059767879
-0.00024868408
-0.00079703737
-0.0010341413
-0.0013292333
-0.0014873706
-0.00063882395
0.0034613289
-0.0082533944
-0.0079184904
0.0054721355
-0.00079703737
-0.0013536627
-0.0015487251
-0.0017558785
-0.0017947698
-0.00082103356
0.0035741981
-0.0078188363
-0.0081245307
0.0052312251
-0.0010341413
-0.0015487251
-0.0016709074
-0.0017807324
-0.0017030225
-0.00060928769
0.003912765
-0.0074180621
-0.0085031496
0.004874074
-0.0013292333
-0.0017558785
-0.0017807324
-0.0017984819
-0.0016378888
-0.00047448504
0.0041022757
-0.0072066488
-0.0089475048
0.0045784074
-0.0014873706
-0.0017947698
-0.0017030225
-0.0016378888
-0.0014336178
-0.00026387553
0.0042927449
-0.0070335035
-0.009321597
0.0049882536
-0.00063882394
-0.00082103356
-0.00060928769
-0.00047448504
-0.00026387553
0.00084532374
0.0052813013
-0.0061259926
-0.010253957
0.0070832337
0.0034613289
0.0035741981
0.003912765
0.0041022757
0.0042927449
0.0052813013
0.009387145
-0.0027650041
-0.022502892
-0.0075821789
-0.0082533944
-0.0078188363
-0.0074180621
-0.0072066488
-0.0070335035
-0.0061259926
-0.0027650041
-0.025991412
-0.039632876
-0.015274102
-0.023112311
-0.023843154
-0.024118907
-0.024428009
-0.024685828
-0.024774501
-0.0253293
-0.037473772
-0.015274102
-0.0033735132
-0.010021209
-0.010735248
-0.011038764
-0.011317438
-0.011417929
-0.010702953
-0.0081417739
-0.022669519
-0.023112311
-0.010021208
-0.016570126
-0.017318527
-0.017606286
-0.017807633
-0.01775437
-0.016583305
-0.011972631
-0.023501683
-0.023843154
-0.010735248
-0.017318527
-0.018063729
-0.018295643
-0.018392291
-0.018201214
-0.016887085
-0.01195882
-0.023146009
-0.024118907
-0.011038764
-0.017606286
-0.018295643
-0.018440135
-0.018424069
-0.018100601
-0.016652131
-0.011584546
-0.022702074
-0.024428009
-0.011317438
-0.017807633
-0.018392291
-0.018424069
-0.018302703
-0.017885638
-0.016360197
-0.011234288
-0.022329664
-0.024685828
-0.011417929
-0.01775437
-0.018201214
-0.018100601
-0.017885638
-0.017419948
-0.015888791
-0.010786837
-0.021901387
-0.024774501
-0.010702953
-0.016583305
-0.016887085
-0.016652131
-0.016360197
-0.015888791
-0.014423442
-0.0094421594
-0.020621649
-0.0253293
-0.0081417739
-0.011972631
-0.01195882
-0.011584546
-0.011234288
-0.010786837
-0.0094421594
-0.0047676055
-0.016678309
-0.037473772
-0.022669519
-0.023501683
-0.023146009
-0.022702074
-0.022329664
-0.021901387
-0.020621649
-0.016678309
-0.040043258
-0.041624541
-0.017720234
-0.02584986
-0.026806144
-0.027150839
-0.027375971
-0.027418315
-0.027183903
-0.027327084
-0.0392423
-0.017720234
-0.0062074146
-0.013160237
-0.014094264
-0.014458995
-0.01464404
-0.014517695
-0.013460129
-0.010422273
-0.024670146
-0.02584986
-0.013160237
-0.020005747
-0.020964006
-0.021301282
-0.021394272
-0.021096637
-0.019563063
-0.014441824
-0.025663619
-0.026806144
-0.014094264
-0.020964006
-0.021907534
-0.022175912
-0.022148584
-0.021694741
-0.01999798
-0.0145345
-0.025393449
-0.027150839
-0.014458995
-0.021301282
-0.022175912
-0.022343352
-0.022189044
-0.021587747
-0.019741944
-0.014125509
-0.02490595
-0.027375971
-0.01464404
-0.021394272
-0.022148584
-0.022189044
-0.021916893
-0.021211309
-0.01928043
-0.013600708
-0.024357608
-0.027418315
-0.014517695
-0.021096637
-0.021694741
-0.021587747
-0.021211309
-0.020451099
-0.018513312
-0.012859936
-0.023638568
-0.027183903
-0.013460129
-0.019563063
-0.01999798
-0.019741944
-0.01928043
-0.018513312
-0.016645288
-0.011115097
-0.021950956
-0.027327084
-0.010422273
-0.014441824
-0.0145345
-0.014125509
-0.013600708
-0.012859936
-0.011115097
-0.0058781233
-0.017429602
-0.0392423
-0.024670146
-0.025663619
-0.025393449
-0.02490595
-0.024357608
-0.023638568
-0.021950956
-0.017429602
-0.040713954
-0.030722949
-0.0074337063
-0.01581199
-0.016996904
-0.017408602
-0.017540983
-0.017350452
-0.016768764
-0.016479
-0.028058717
-0.0074337063
0.0036064842
-0.0036182185
-0.0047749758
-0.0051987308
-0.0052813176
-0.0049093621
-0.0034855939
2.8227316e-05
-0.013817834
-0.01581199
-0.0036182185
-0.010727463
-0.011897861
-0.01228285
-0.012259489
-0.011698457
-0.0097774424
-0.0041567701
-0.014968302
-0.016996904
-0.0047749758
-0.011897861
-0.013042065
-0.013345817
-0.013187676
-0.012452694
-0.01034714
-0.0043587172
-0.014786485
-0.017408602
-0.0051987308
-0.01228285
-0.013345817
-0.013536017
-0.013237645
-0.012340958
-0.010071636
-0.0039160164
-0.014255491
-0.017540983
-0.0052813176
-0.012259489
-0.013187676
-0.013237645
-0.012809494
-0.011797881
-0.0094346817
-0.0032095606
-0.013522859
-0.017350452
-0.0049093621
-0.011698457
-0.012452694
-0.012340958
-0.011797881
-0.010724623
-0.0083513575
-0.0021528661
-0.012489747
-0.016768764
-0.0034855939
-0.0097774424
-0.01034714
-0.010071636
-0.0094346817
-0.0083513575
-0.0060494736
2.3308055e-05
-0.01036822
-0.016479
2.8227317e-05
-0.0041567701
-0.0043587172
-0.0039160164
-0.0032095606
-0.0021528661
2.3308054e-05
0.0058095338
-0.0052854088
-0.028058717
-0.013817834
-0.014968302
-0.014786485
-0.014255491
-0.013522859
-0.012489747
-0.01036822
-0.0052854088
-0.028292978
-0.014438604
0.0080977041
-0.00048332217
-0.0018935662
-0.0023685939
-0.002402366
-0.0019692329
-0.0010266186
-0.00029273025
-0.011447484
0.0080977041
0.018596368
0.011137547
0.0097615776
0.0092825782
0.0093080858
0.0099358514
0.011738143
0.015718639
0.0023776827
-0.00048332217
0.011137547
0.0038017994
0.0024230605
0.0019937651
0.0021382596
0.0029725698
0.0052935886
0.01139408
0.0010787246
-0.0018935662
0.0097615776
0.0024230605
0.0010818718
0.0007455344
0.0010382273
0.0020633856
0.0045907822
0.011084423
0.0011730452
-0.0023685939
0.0092825782
0.0019937651
0.0007455344
0.000534589
0.00097986436
0.0021801519
0.0048857945
0.011561009
0.0017482355
-0.002402366
0.0093080858
0.0021382596
0.0010382273
0.00097986435
0.0015662692
0.0028919603
0.0057007145
0.012452571
0.0026696539
-0.0019692329
0.0099358514
0.0029725698
0.0020633856
0.0021801519
0.0028919603
0.0042870618
0.0071107006
0.013837679
0.0040305559
-0.0010266186
0.011738143
0.0052935886
0.0045907822
0.0048857945
0.0057007145
0.0071107006
0.0098637496
0.01646367
0.0066017266
-0.00029273025
0.015718639
0.01139408
0.011084423
0.011561009
0.012452571
0.013837679
0.01646367
0.022779564
0.012221295
-0.011447484
0.0023776827
0.0010787246
0.0011730452
0.0017482355
0.0026696539
0.0040305559
0.0066017266
0.012221295
-0.010336462
-0.0015780195
0.020088044
0.01135255
0.009725817
0.0091933826
0.009263032
0.0099436899
0.011252918
0.012434016
0.0017789738
0.020088044
0.029990472
0.02233888
0.020752628
0.020224358
0.020362463
0.021250864
0.023435231
0.027866415
0.015117107
0.01135255
0.02233888
0.014817373
0.013239373
0.0127714
0.013040732
0.014152509
0.016876437
0.023430616
0.0136819
0.009725817
0.020752628
0.013239373
0.011710131
0.011346271
0.011776267
0.013094847
0.016046892
0.023018771
0.013693049
0.0091933826
0.020224358
0.0127714
0.011346271
0.011118929
0.011713
0.013219256
0.016363511
0.023531056
0.014314398
0.009263032
0.020362463
0.013040732
0.011776267
0.011713
0.012458913
0.014100702
0.017357401
0.024609221
0.01542681
0.0099436899
0.021250864
0.014152509
0.013094847
0.013219256
0.014100702
0.015820041
0.019097583
0.026327862
0.017121804
0.011252918
0.023435231
0.016876437
0.016046892
0.016363511
0.017357401
0.019097583
0.022307304
0.029410636
0.02014825
0.012434016
0.027866415
0.023430616
0.023018771
0.023531056
0.024609221
0.026327862
0.029410636
0.036230301
0.026274066
0.0017789738
0.015117107
0.0136819
0.013693049
0.014314398
0.01542681
0.017121804
0.02014825
0.026274066
0.0043167879
0.0024695039
0.023166999
0.014327246
0.012497944
0.011916468
0.01209413
0.013023928
0.014699102
0.016323547
0.0062298347
0.023166999
0.032431352
0.024631485
0.022848869
0.022279685
0.022534618
0.023684791
0.026247726
0.031107838
0.019021474
0.014327246
0.024631485
0.016968065
0.015204735
0.014706067
0.015103674
0.016493175
0.019615127
0.026591296
0.017465502
0.012497944
0.022848869
0.015204735
0.013501126
0.013117131
0.013686909
0.015298096
0.018669289
0.026086249
0.017400826
0.011916468
0.022279685
0.014706067
0.013117131
0.012880021
0.013624456
0.015434866
0.019011437
0.026637479
0.018071385
0.01209413
0.022534618
0.015103674
0.013686909
0.013624456
0.014530674
0.016486173
0.020184258
0.02790227
0.01937517
0.013023928
0.023684791
0.016493175
0.015298096
0.015434866
0.016486173
0.018527339
0.022252819
0.029953652
0.021404348
0.014699102
0.026247726
0.019615127
0.018669289
0.019011437
0.020184258
0.022252819
0.025914621
0.033489879
0.02488211
0.016323547
0.031107838
0.026591296
0.026086249
0.026637479
0.02790227
0.029953652
0.033489879
0.040780885
0.031478577
0.0062298347
0.019021474
0.017465502
0.017400826
0.018071385
0.01937517
0.021404348
0.02488211
0.031478577
0.010251241
-0.0026204006
0.017028059
0.0081359498
0.0061227896
0.0055028951
0.0057928983
0.0069704921
0.0090052447
0.011062632
0.0015797156
0.017028059
0.025624428
0.017723709
0.015763332
0.015163747
0.015539395
0.016949206
0.019880933
0.025142655
0.013776296
0.0081359498
0.017723709
0.0099650939
0.0080348783
0.007515547
0.0080444367
0.0097083848
0.013216575
0.020577663
0.012117748
0.0061227896
0.015763332
0.0080348783
0.0061749514
0.0057801365
0.0064916421
0.0083908838
0.012168322
0.019991271
0.01198702
0.0055028951
0.015163747
0.007515547
0.0057801365
0.005541691
0.0064373836
0.0085462184
0.012541101
0.02058551
0.012710345
0.0057928983
0.015539395
0.0080444367
0.0064916421
0.0064373836
0.0075038464
0.0097665042
0.013891379
0.022035133
0.014203751
0.0069704921
0.016949206
0.0097083848
0.0083908838
0.0085462184
0.0097665042
0.012122568
0.016281512
0.024412964
0.016561366
0.0090052447
0.019880933
0.013216575
0.012168322
0.012541101
0.013891379
0.016281512
0.02038172
0.028389883
0.020477346
0.011062632
0.025142655
0.020577663
0.019991271
0.02058551
0.022035133
0.024412964
0.028389883
0.036112943
0.027503581
0.0015797156
0.013776296
0.012117748
0.01198702
0.012710345
0.014203751
0.016561366
0.020477346
0.027503581
0.0071156262
-0.013165404
0.0053705101
-0.0035205564
-0.0056944103
-0.0063403262
-0.0059344632
-0.0045137257
-0.0021314476
0.00034191933
-0.0084923456
0.0053705101
0.013280201
0.0053287509
0.0032135404
0.0025956959
0.0030949953
0.0047586989
0.0080432866
0.013673614
0.0030707418
-0.0035205564
0.0053287509
-0.0024757117
-0.0045502545
-0.0050787555
-0.0044166911
-0.0024854996
0.0013903995
0.0090937839
0.001329954
-0.0056944103
0.0032135404
-0.0045502545
-0.0065445407
-0.0069395771
-0.006085692
-0.0039071376
0.00025639646
0.0084401366
0.0011447294
-0.0063403262
0.0025956959
-0.0050787555
-0.0069395771
-0.0071698268
-0.0061234625
-0.0037263409
0.00066530111
0.0090815045
0.0019241407
-0.0059344632
0.0030949953
-0.0044166911
-0.006085692
-0.0061234625
-0.0048985002
-0.0023398799
0.0021893578
0.010711662
0.0036026674
-0.0045137257
0.0047586989
-0.0024854996
-0.0039071376
-0.0037263409
-0.0023398799
0.00031921818
0.0048889546
0.013403965
0.0062770114
-0.0021314476
0.0080432866
0.0013903995
0.00025639646
0.00066530111
0.0021893578
0.0048889546
0.0094052648
0.017799868
0.010609298
0.00034191934
0.013673614
0.0090937839
0.0084401366
0.0090815045
0.010711662
0.013403965
0.017799868
0.025908637
0.018018679
-0.0084923456
0.0030707418
0.001329954
0.0011447294
0.0019241407
0.0036026674
0.0062770114
0.010609298
0.018018679
-0.0014394196
-0.023875664
-0.0064997049
-0.015335086
-0.017642502
-0.018300891
-0.017777166
-0.016121836
-0.013410029
-0.010544324
-0.018703339
-0.0064997049
0.00071517247
-0.0072345164
-0.0094778244
-0.010100813
-0.0094766175
-0.0075689881
-0.0039538225
0.0020062421
-0.0078027292
-0.015335086
-0.0072345164
-0.015033202
-0.017225933
-0.017751336
-0.01695611
-0.014769451
-0.010551291
-0.0025539942
-0.0096037966
-0.017642502
-0.0094778244
-0.017225933
-0.019329262
-0.019713351
-0.018718552
-0.016274291
-0.011752228
-0.0032592057
-0.0098308097
-0.018300891
-0.010100813
-0.017751336
-0.019713351
-0.019925505
-0.018731373
-0.016061188
-0.011302038
-0.0025672293
-0.008992891
-0.017777166
-0.0094766175
-0.01695611
-0.018718552
-0.018731373
-0.017352174
-0.014514078
-0.0096108328
-0.00076401818
-0.0071371055
-0.016121836
-0.0075689881
-0.014769451
-0.016274291
-0.016061188
-0.014514078
-0.011569325
-0.0066196462
0.0022247561
-0.0041639435
-0.013410029
-0.0039538225
-0.010551291
-0.011752228
-0.011302038
-0.0096108328
-0.0066196462
-0.0017180039
0.0070092671
0.00055417936
-0.010544324
0.0020062421
-0.0025539942
-0.0032592057
-0.0025672293
-0.00076401818
0.0022247561
0.0070092671
0.015450369
0.0082940837
-0.018703339
-0.0078027292
-0.0096037966
-0.0098308097
-0.008992891
-0.0071371055
-0.0041639435
0.00055417936
0.0082940837
-0.010161675
-0.03022682
-0.014043074
-0.022767217
-0.025177733
-0.025834528
-0.025193059
-0.023316077
-0.020298891
-0.017071171
-0.024539225
-0.014043074
-0.0075212829
-0.015414818
-0.017756327
-0.018371008
-0.017622985
-0.015486112
-0.011569176
-0.0053241247
-0.014321308
-0.022767217
-0.015414818
-0.023154306
-0.025436154
-0.025946052
-0.025020213
-0.022594935
-0.018067035
-0.009829999
-0.016159552
-0.025177733
-0.017756327
-0.025436154
-0.027620491
-0.027982528
-0.026851022
-0.024160017
-0.019314535
-0.010570053
-0.01641503
-0.025834528
-0.018371008
-0.025946052
-0.027982528
-0.028166941
-0.026830873
-0.023908403
-0.01881879
-0.0098251468
-0.015517572
-0.025193059
-0.017622985
-0.025020213
-0.026851022
-0.026830873
-0.025304801
-0.022209442
-0.016970511
-0.0078599745
-0.013496132
-0.023316077
-0.015486112
-0.022594935
-0.024160017
-0.023908403
-0.022209442
-0.0190023
-0.013711664
-0.0045989396
-0.010248372
-0.020298891
-0.011569176
-0.018067035
-0.019314535
-0.01881879
-0.016970511
-0.013711664
-0.0084637579
0.00053541852
-0.0051831174
-0.017071171
-0.0053241247
-0.009829999
-0.010570053
-0.0098251468
-0.0078599745
-0.0045989396
0.00053541852
0.0092487513
0.0028287837
-0.024539225
-0.014321308
-0.016159552
-0.01641503
-0.015517572
-0.013496132
-0.010248372
-0.0051831174
0.0028287837
-0.014569179
-0.029955992
-0.014982657
-0.023539513
-0.026020083
-0.026661249
-0.025904655
-0.023823552
-0.020531265
-0.016978307
-0.023750061
-0.014982657
-0.0091431591
-0.016924839
-0.019332232
-0.01992535
-0.019057247
-0.016710717
-0.012527286
-0.0060476412
-0.014227004
-0.023539513
-0.016924839
-0.024550503
-0.026890179
-0.027372544
-0.02632152
-0.023679707
-0.018881557
-0.010464484
-0.016078602
-0.026020083
-0.019332232
-0.026890179
-0.029125468
-0.029454897
-0.02819395
-0.02528065
-0.020154252
-0.01122213
-0.016349045
-0.026661249
-0.01992535
-0.027372544
-0.029454897
-0.029602632
-0.028133674
-0.024985352
-0.01960992
-0.010423438
-0.015392678
-0.025904655
-0.019057247
-0.02632152
-0.02819395
-0.028133674
-0.026471445
-0.023146818
-0.017618255
-0.0083111333
-0.013221022
-0.023823552
-0.016710717
-0.023679707
-0.02528065
-0.024985352
-0.023146818
-0.019706452
-0.014121682
-0.0048081443
-0.0097290255
-0.020531265
-0.012527286
-0.018881557
-0.020154252
-0.01960992
-0.017618255