/*--------------------------------*- C++ -*----------------------------------*\
| =========                 |                                                 |
| \\      /  F ield         | OpenFOAM: The Open Source CFD Toolbox           |
|  \\    /   O peration     | Version:  v2106                                 |
|   \\  /    A nd           | Website:  www.openfoam.com                      |
|    \\/     M anipulation  |                                                 |
\*---------------------------------------------------------------------------*/
FoamFile
{
    version     2.0;
    format      ascii;
    arch        "LSB;label=32;scalar=64";
    class       volScalarField;
    location    "100";
    object      Tmode12;
}
// * * * * * * * * * * * * * * * * * * * * * * * * * * * * * * * * * * * * * //

dimensions      [0 0 0 0 0 0 0];

internalField   nonuniform List<scalar> 
4000
(
0.002095119
0.00097471608
0.00063780681
0.00046632381
0.00038951976
0.00039912239
0.00048850028
0.00065204076
0.00087534384
0.0010984917
0.00097471608
5.8538276e-05
-0.00023358678
-0.00039643242
-0.00046945172
-0.00045775027
-0.00036637309
-0.00019732918
4.8665243e-05
0.00035461211
0.00063780681
-0.00023358678
-0.00050969683
-0.00066327761
-0.00073105348
-0.00071633059
-0.00062286026
-0.00045158687
-0.00020183529
0.00010998444
0.00046632381
-0.00039643242
-0.00066327761
-0.00080986672
-0.00087300831
-0.00085523807
-0.00075962574
-0.0005869007
-0.000336833
-2.5964627e-05
0.00038951976
-0.00046945172
-0.00073105349
-0.00087300831
-0.00093253938
-0.00091196183
-0.00081400126
-0.00063918883
-0.00038743131
-7.5654116e-05
0.00039912239
-0.00045775027
-0.00071633059
-0.00085523807
-0.00091196183
-0.00088876153
-0.00078819512
-0.00061075318
-0.00035660242
-4.3278811e-05
0.00048850028
-0.00036637309
-0.00062286026
-0.00075962574
-0.00081400126
-0.00078819512
-0.00068455643
-0.00050355079
-0.00024576349
7.0151981e-05
0.00065204076
-0.00019732918
-0.00045158687
-0.0005869007
-0.00063918883
-0.00061075318
-0.00050355079
-0.00031780057
-5.4421286e-05
0.00026616168
0.00087534384
4.8665243e-05
-0.00020183529
-0.000336833
-0.00038743131
-0.00035660242
-0.00024576349
-5.4421286e-05
0.00021688592
0.00054585319
0.0010984917
0.00035461211
0.00010998444
-2.5964627e-05
-7.5654116e-05
-4.3278811e-05
7.0151981e-05
0.00026616168
0.00054585319
0.00088723504
0.020118327
0.01073202
0.0075563593
0.0058840085
0.0051529843
0.005249331
0.0061113019
0.0076947333
0.0098881476
0.012192879
0.01073202
0.0031081609
0.00027465502
-0.0013076471
-0.0020008007
-0.0018847959
-0.001005081
0.00062904745
0.0030530446
0.0063931237
0.0075563593
0.00027465502
-0.0023906722
-0.0038817896
-0.0045250977
-0.0043808277
-0.0034825099
-0.0018301589
0.00062601576
0.0040189692
0.0058840085
-0.0013076471
-0.0038817896
-0.0053061709
-0.0059054131
-0.0057322242
-0.0048140172
-0.0031488733
-0.00068825271
0.0027028181
0.0051529843
-0.0020008007
-0.0045250977
-0.0059054131
-0.0064701119
-0.0062699597
-0.0053293558
-0.0036448619
-0.0011692642
0.002229617
0.005249331
-0.0018847959
-0.0043808277
-0.0057322242
-0.0062699597
-0.0060444156
-0.0050785359
-0.0033686315
-0.00087007851
0.0025434622
0.0061113019
-0.001005081
-0.0034825099
-0.0048140172
-0.0053293558
-0.0050785359
-0.0040826902
-0.0023379226
0.00019637503
0.0036355866
0.0076947333
0.00062904745
-0.0018301589
-0.0031488733
-0.0036448619
-0.0033686315
-0.0023379226
-0.00054637128
0.0020437676
0.0055306907
0.0098881476
0.0030530446
0.00062601576
-0.00068825271
-0.0011692642
-0.00087007851
0.00019637503
0.0020437676
0.0047151825
0.0082928719
0.012192879
0.0063931237
0.0040189692
0.0027028181
0.002229617
0.0025434622
0.0036355866
0.0055306907
0.0082928719
0.012023709
0.028481993
0.013416044
0.008132694
0.0052502526
0.0040084508
0.004225307
0.0058181706
0.0087660688
0.013056219
0.018458806
0.013416044
0.0011663499
-0.0035877006
-0.0063140445
-0.0074903696
-0.0072420613
-0.0056271113
-0.002614315
0.0020399013
0.0093210733
0.008132694
-0.0035877006
-0.0080521531
-0.010620238
-0.011710702
-0.011415337
-0.0097743907
-0.0067470514
-0.0020660266
0.0052861593
0.0052502526
-0.0063140445
-0.010620238
-0.013072588
-0.014086707
-0.013741761
-0.012068171
-0.009022732
-0.0043373399
0.0030132447
0.0040084508
-0.0074903696
-0.011710702
-0.014086707
-0.015040673
-0.01464869
-0.012936357
-0.0098583781
-0.0051485013
0.002215009
0.004225307
-0.0072420613
-0.011415337
-0.013741761
-0.01464869
-0.014211636
-0.012453817
-0.0093296863
-0.0045777498
0.0028129091
0.0058181706
-0.0056271113
-0.0097743907
-0.012068171
-0.012936357
-0.012453817
-0.01064061
-0.0074505683
-0.0026292896
0.0048128644
0.0087660688
-0.002614315
-0.0067470514
-0.009022732
-0.0098583781
-0.0093296863
-0.0074505683
-0.0041689172
0.00076717197
0.0083156505
0.013056219
0.0020399013
-0.0020660266
-0.0043373399
-0.0051485013
-0.0045777498
-0.0026292896
0.00076717197
0.0058869077
0.013679319
0.018458806
0.0093210733
0.0052861593
0.0030132447
0.002215009
0.0028129091
0.0048128644
0.0083156505
0.013679319
0.022070186
0.038320039
0.018770444
0.011983306
0.0082159375
0.0066269687
0.0070072613
0.0092817109
0.013481414
0.019746757
0.028217668
0.018770444
0.0029289796
-0.0031920659
-0.0067527674
-0.0082559584
-0.0078382475
-0.0055482694
-0.001299408
0.005397789
0.016506366
0.011983306
-0.0031920659
-0.008931856
-0.01228311
-0.013673533
-0.013196458
-0.010880016
-0.0066316786
6.6932136e-05
0.011247679
0.0082159375
-0.0067527674
-0.01228311
-0.015481115
-0.016770821
-0.016229653
-0.013873835
-0.0096089688
-0.0029127067
0.0082632034
0.0066269687
-0.0082559584
-0.013673533
-0.016770821
-0.017980857
-0.01737745
-0.014971041
-0.010665125
-0.0039390439
0.0072526195
0.0070072613
-0.0078382475
-0.013196458
-0.016229653
-0.01737745
-0.016712958
-0.014243713
-0.0098731761
-0.0030874648
0.0081431386
0.0092817109
-0.0055482694
-0.010880016
-0.013873835
-0.014971041
-0.014243713
-0.011695166
-0.007227745
-0.00033757535
0.010972466
0.013481414
-0.001299408
-0.0066316786
-0.0096089688
-0.010665125
-0.0098731761
-0.007227745
-0.0026209137
0.0044507232
0.015937123
0.019746757
0.005397789
6.6932133e-05
-0.0029127067
-0.0039390439
-0.0030874648
-0.00033757535
0.0044507232
0.011830665
0.023759949
0.028217668
0.016506366
0.011247679
0.0082632034
0.0072526195
0.0081431386
0.010972466
0.015937123
0.023759949
0.036858108
0.045422008
0.022130736
0.014312298
0.0099488737
0.0081598026
0.0087340166
0.01161873
0.016901278
0.024879953
0.036118267
0.022130736
0.003375421
-0.003668906
-0.0077875757
-0.0094767975
-0.0088631715
-0.005973769
-0.00066940038
0.0077659604
0.022304708
0.014312298
-0.003668906
-0.010262876
-0.014134331
-0.015692165
-0.015013236
-0.012103439
-0.0068231082
0.0015712844
0.016161893
0.0099488737
-0.0077875757
-0.014134331
-0.01782521
-0.01926533
-0.018513886
-0.015564207
-0.010275724
-0.0018978663
0.012678486
0.0081598026
-0.0094767975
-0.015692165
-0.01926533
-0.020612105
-0.019788053
-0.016780504
-0.011447087
-0.0030382696
0.011554019
0.0087340166
-0.0088631715
-0.015013236
-0.018513886
-0.019788053
-0.018890672
-0.015806031
-0.01039213
-0.0019081003
0.012733795
0.01161873
-0.005973769
-0.012103439
-0.015564207
-0.016780504
-0.015806031
-0.012620175
-0.0070794753
0.0015439175
0.016293246
0.016901278
-0.00066940038
-0.0068231082
-0.010275724
-0.011447087
-0.01039213
-0.0070794753
-0.0013510823
0.0075226975
0.022521725
0.024879953
0.0077659604
0.0015712844
-0.0018978663
-0.0030382696
-0.0019081003
0.0015439175
0.0075226975
0.016837765
0.032499717
0.036118267
0.022304708
0.016161893
0.012678486
0.011554019
0.012733795
0.016293246
0.022521725
0.032499717
0.04995538
0.048143798
0.021730964
0.013262105
0.0085382514
0.0066647789
0.0074441296
0.010853039
0.017034554
0.026436582
0.040081794
0.021730964
0.00062507471
-0.0069853934
-0.011436989
-0.013201956
-0.012385199
-0.0089867777
-0.0028188004
0.0070307891
0.02454093
0.013262105
-0.0069853934
-0.014094433
-0.01827187
-0.019893687
-0.019011302
-0.015604856
-0.009492403
0.00025812281
0.01777847
0.0085382514
-0.011436989
-0.01827187
-0.022249738
-0.023742999
-0.022784833
-0.019343361
-0.013237009
-0.0035242562
0.013965885
0.0066647789
-0.013201956
-0.019893687
-0.023742999
-0.025134274
-0.024097391
-0.020594817
-0.01444366
-0.004702553
0.012801185
0.0074441296
-0.012385199
-0.019011302
-0.022784833
-0.024097391
-0.02297849
-0.019387686
-0.013142972
-0.0033133503
0.014249348
0.010853039
-0.0089867777
-0.015604856
-0.019343361
-0.020594817
-0.019387686
-0.015676276
-0.0092769265
0.00072526278
0.018422148
0.017034554
-0.0028188004
-0.009492403
-0.013237009
-0.01444366
-0.013142972
-0.0092769265
-0.0026434165
0.0076758281
0.025692534
0.026436582
0.0070307891
0.00025812281
-0.0035242562
-0.004702553
-0.0033133503
0.00072526278
0.0076758281
0.018564755
0.037458833
0.040081794
0.02454093
0.01777847
0.013965885
0.012801185
0.014249348
0.018422148
0.025692534
0.037458833
0.058793869
0.049317331
0.02034944
0.011535872
0.0066339479
0.0047589307
0.0057352907
0.0095703183
0.016460433
0.026995561
0.042679595
0.02034944
-0.0026055888
-0.010498933
-0.015110014
-0.016872138
-0.015863744
-0.012058854
-0.0052258389
0.0057181241
0.025735997
0.011535872
-0.010498933
-0.017854789
-0.022173411
-0.023785865
-0.02271555
-0.018919556
-0.012179718
-0.0014054261
0.018563404
0.0066339479
-0.015110014
-0.022173411
-0.026280127
-0.027758056
-0.026612583
-0.022790238
-0.016074879
-0.0053649175
0.014552617
0.0047589307
-0.016872138
-0.023785865
-0.027758056
-0.029129479
-0.027902706
-0.024019302
-0.017262414
-0.0065296803
0.013397069
0.0057352907
-0.015863744
-0.02271555
-0.026612583
-0.027902706
-0.026588433
-0.022608683
-0.015748012
-0.0049158962
0.015077778
0.0095703183
-0.012058854
-0.018919556
-0.022790238
-0.024019302
-0.022608683
-0.018491874
-0.011451595
-0.00041627557
0.019736796
0.016460433
-0.0052258389
-0.012179718
-0.016074879
-0.017262414
-0.015748012
-0.011451595
-0.0041338153
0.0072814614
0.027820195
0.026995561
0.0057181241
-0.0014054261
-0.0053649175
-0.0065296803
-0.0049158962
-0.00041627557
0.0072814614
0.019386535
0.041000543
0.042679595
0.025735997
0.018563404
0.014552617
0.013397069
0.015077778
0.019736796
0.027820195
0.041000543
0.065701204
0.05123137
0.020219652
0.011302483
0.0063588213
0.0045377958
0.0056897545
0.0098493324
0.017261409
0.028651455
0.046016265
0.020219652
-0.0041437099
-0.012099924
-0.016741466
-0.018448233
-0.017271531
-0.013164364
-0.0058590166
0.0058774788
0.027955886
0.011302483
-0.012099924
-0.019495218
-0.023832956
-0.025387471
-0.024155094
-0.020076128
-0.012905061
-0.0014169117
0.020540487
0.0063588213
-0.016741466
-0.023832956
-0.02795177
-0.029369603
-0.028065476
-0.023971144
-0.01684517
-0.0054509779
0.016430906
0.0045377958
-0.018448233
-0.025387471
-0.029369603
-0.030679725
-0.02929455
-0.025141729
-0.017979813
-0.0065705967
0.015314648
0.0056897545
-0.017271531
-0.024155094
-0.028065476
-0.02929455
-0.027819222
-0.023564806
-0.016291755
-0.0047749117
0.017183591
0.0098493324
-0.013164364
-0.020076128
-0.023971144
-0.025141729
-0.023564806
-0.019160167
-0.011686214
6.0853146e-05
0.022201653
0.017261409
-0.0058590166
-0.012905061
-0.01684517
-0.017979813
-0.016291755
-0.011686214
-0.0038960099
0.0082885861
0.030876086
0.028651455
0.0058774788
-0.0014169117
-0.0054509779
-0.0065705967
-0.0047749117
6.0853146e-05
0.0082885861
0.021273586
0.045116026
0.046016265
0.027955886
0.020540487
0.016430906
0.015314648
0.017183591
0.022201653
0.030876086
0.045116026
0.07267258
0.053697082
0.021098076
0.012264737
0.0073788207
0.005646795
0.0069461713
0.011334065
0.019096985
0.031088278
0.049798855
0.021098076
-0.0042899908
-0.01214096
-0.016719415
-0.018337961
-0.017021946
-0.012709435
-0.0051060504
0.0071518703
0.030874558
0.012264737
-0.01214096
-0.019418199
-0.02368714
-0.025153853
-0.023789885
-0.019525526
-0.012098383
-0.00017123023
0.023350311
0.0073788207
-0.016719415
-0.02368714
-0.027734417
-0.029065272
-0.027634906
-0.023367313
-0.016006528
-0.0042039284
0.019216646
0.005646795
-0.018337961
-0.025153853
-0.029065272
-0.03028984
-0.028780909
-0.024459279
-0.017069719
-0.0052612323
0.018155951
0.0069461713
-0.017021946
-0.023789885
-0.027634906
-0.028780909
-0.027181587
-0.022755706
-0.015250402
-0.0033286823
0.020166294
0.011334065
-0.012709435
-0.019525526
-0.023367313
-0.024459279
-0.022755706
-0.01816981
-0.010446475
0.0017279957
0.025424873
0.019096985
-0.0051060504
-0.012098383
-0.016006528
-0.017069719
-0.015250402
-0.010446475
-0.0023739866
0.010288407
0.034486652
0.031088278
0.0071518703
-0.00017123023
-0.0042039284
-0.0052612323
-0.0033286823
0.0017279957
0.010288407
0.023850347
0.04946492
0.049798855
0.030874558
0.023350311
0.019216646
0.018155951
0.020166294
0.025424873
0.034486652
0.04946492
0.079390965
0.0553488
0.021569218
0.012963423
0.0082062493
0.0065832793
0.0079991743
0.012528687
0.020492476
0.032861937
0.052613145
0.021569218
-0.0045105707
-0.01212978
-0.016578931
-0.01809075
-0.016666453
-0.012234594
-0.0044836947
0.0080606064
0.033049189
0.012963423
-0.01212978
-0.019171353
-0.023309874
-0.024672584
-0.023208828
-0.018844536
-0.011310626
0.00082033157
0.025523248
0.0082062493
-0.016578931
-0.023309874
-0.027227436
-0.028457427
-0.026933949
-0.022578892
-0.01513208
-0.0031555628
0.021421204
0.0065832793
-0.01809075
-0.024672584
-0.028457427
-0.02958461
-0.027986761
-0.023583455
-0.016115998
-0.0041434333
0.020422821
0.0079991743
-0.016666453
-0.023208828
-0.026933949
-0.027986761
-0.026300257
-0.021792267
-0.014206886
-0.0021178959
0.022528966
0.012528687
-0.012234594
-0.018844536
-0.022578892
-0.023583455
-0.021792267
-0.017117635
-0.009301266
0.0030582222
0.027922726
0.020492476
-0.0044836947
-0.011310626
-0.01513208
-0.016115998
-0.014206886
-0.009301266
-0.0011092051
0.011780224
0.037192818
0.032861937
0.0080606064
0.00082033157
-0.0031555628
-0.0041434333
-0.0021178959
0.0030582222
0.011780224
0.025654917
0.052626431
0.052613145
0.033049189
0.025523248
0.021421204
0.020422821
0.022528966
0.027922726
0.037192818
0.052626431
0.084468222
0.055366664
0.02076929
0.012499289
0.0079201988
0.0064157023
0.0079169191
0.012512056
0.020548662
0.033104309
0.0536223
0.02076929
-0.0057130376
-0.013007168
-0.017281516
-0.018678316
-0.017176663
-0.012699853
-0.0049279275
0.0077033465
0.033618286
0.012499289
-0.013007168
-0.019727199
-0.023693548
-0.024945732
-0.023413412
-0.019022299
-0.011505382
0.00063260969
0.026176068
0.0079201988
-0.017281516
-0.023693548
-0.027442402
-0.028566783
-0.026982263
-0.022612633
-0.015202201
-0.0032466204
0.022146853
0.0064157023
-0.018678316
-0.024945732
-0.028566783
-0.029593388
-0.027939946
-0.023528742
-0.016106258
-0.0041646094
0.02121129
0.0079169191
-0.017176663
-0.023413412
-0.026982263
-0.027939946
-0.026201143
-0.021686647
-0.014146102
-0.0020868897
0.023370944
0.012512056
-0.012699853
-0.019022299
-0.022612633
-0.023528742
-0.021686647
-0.017001685
-0.0092210591
0.0031217999
0.028809104
0.020548662
-0.0049279275
-0.011505382
-0.015202201
-0.016106258
-0.014146102
-0.0092210591
-0.0010444516
0.011861668
0.038134982
0.033104309
0.0077033465
0.00063260969
-0.0032466204
-0.0041646094
-0.0020868897
0.0031217999
0.011861668
0.025824177
0.05377935
0.0536223
0.033618286
0.026176068
0.022146853
0.02121129
0.023370944
0.028809104
0.038134982
0.05377935
0.087119271
0.054025823
0.01893497
0.011080163
0.0067121245
0.0053281479
0.0068847379
0.011480113
0.019482061
0.032060888
0.053101636
0.01893497
-0.0076984525
-0.014600779
-0.018670428
-0.019950975
-0.018401412
-0.013942901
-0.0062542757
0.0062972792
0.03283585
0.011080163
-0.014600779
-0.020938721
-0.024706045
-0.025847802
-0.024276326
-0.019919897
-0.012520525
-0.00053747122
0.025545047
0.0067121245
-0.018670428
-0.024706045
-0.028261526
-0.029281714
-0.027666015
-0.02334271
-0.016067303
-0.0042918951
0.021618877
0.0053281479
-0.019950975
-0.025847802
-0.029281714
-0.030210277
-0.028531964
-0.024174264
-0.016895458
-0.0051436658
0.020742851
0.0068847379
-0.018401412
-0.024276326
-0.027666015
-0.028531964
-0.026772754
-0.022314596
-0.014919243
-0.003050422
0.022918146
0.011480113
-0.013942901
-0.019919897
-0.02334271
-0.024174264
-0.022314596
-0.017684549
-0.010043454
0.0021179798
0.028324209
0.019482061
-0.0062542757
-0.012520525
-0.016067303
-0.016895458
-0.014919243
-0.010043454
-0.0019918843
0.01075773
0.037578965
0.032060888
0.0062972792
-0.00053747122
-0.0042918951
-0.0051436658
-0.003050422
0.0021179798
0.01075773
0.024619981
0.053225599
0.053101636
0.03283585
0.025545047
0.021618877
0.020742851
0.022918146
0.028324209
0.037578965
0.053225599
0.0876823
0.052209951
0.016916044
0.0095322999
0.0053959451
0.0041296128
0.0057138896
0.010254197
0.018132594
0.030597686
0.051944502
0.016916044
-0.009649687
-0.016114857
-0.019961618
-0.021129361
-0.019558929
-0.015171598
-0.0076508814
0.0046834396
0.031576682
0.0095322999
-0.016114857
-0.022030432
-0.025582987
-0.026618733
-0.025034851
-0.020763967
-0.013562312
-0.0018654723
0.024490472
0.0053959451
-0.019961618
-0.025582987
-0.028931046
-0.029852379
-0.028232393
-0.024005381
-0.016942906
-0.0054757007
0.02068928
0.0041296128
-0.021129361
-0.026618733
-0.029852379
-0.030688984
-0.029013201
-0.024759156
-0.01770167
-0.0062671399
0.019867509
0.0057138896
-0.019558929
-0.025034851
-0.028232393
-0.029013201
-0.027261801
-0.022911221
-0.015739994
-0.0041902925
0.022025578
0.010254197
-0.015171598
-0.020763967
-0.024005381
-0.024759156
-0.022911221
-0.018389339
-0.01096969
0.00087789266
0.027336382
0.018132594
-0.0076508814
-0.013562312
-0.016942906
-0.01770167
-0.015739994
-0.01096969
-0.0031302946
0.0093226005
0.036416554
0.030597686
0.0046834396
-0.0018654723
-0.0054757007
-0.0062671399
-0.0041902925
0.00087789266
0.0093226005
0.022929884
0.051889935
0.051944502
0.031576682
0.024490472
0.02068928
0.019867509
0.022025578
0.027336382
0.036416554
0.051889935
0.087116784
0.050686451
0.015449824
0.0085738258
0.0046805377
0.0035258804
0.0051130629
0.0095523833
0.017234855
0.029472462
0.050933375
0.015449824
-0.01085787
-0.016857707
-0.020472114
-0.021533399
-0.019966147
-0.015693348
-0.0084078772
0.0035974151
0.030606961
0.0085738258
-0.016857707
-0.022326843
-0.025657093
-0.026593833
-0.025021106
-0.020876947
-0.01393554
-0.0026294012
0.023766626
0.0046805377
-0.020472114
-0.025657093
-0.028791467
-0.029621541
-0.028020704
-0.023930066
-0.017140583
-0.0060825347
0.020106138
0.0035258804
-0.021533399
-0.026593833
-0.029621541
-0.030374205
-0.028724603
-0.024614208
-0.01783758
-0.006820408
0.019332611
0.0051130629
-0.019966147
-0.025021106
-0.028020704
-0.028724603
-0.027005177
-0.022802948
-0.015916359
-0.0047868918
0.021445796
0.0095523833
-0.015693348
-0.020876947
-0.023930066
-0.024614208
-0.022802948
-0.018431658
-0.011296527
0.00013286508
0.026610319
0.017234855
-0.0084078772
-0.01393554
-0.017140583
-0.01783758
-0.015916359
-0.011296527
-0.0037370135
0.0083077636
0.035433248
0.029472462
0.0035974151
-0.0026294012
-0.0060825347
-0.006820408
-0.0047868918
0.00013286508
0.0083077636
0.021534971
0.05058755
0.050933375
0.030606961
0.023766626
0.020106138
0.019332611
0.021445796
0.026610319
0.035433248
0.05058755
0.08627037
0.049707412
0.014761472
0.0084142979
0.0047685902
0.003717896
0.0052864626
0.0095874979
0.017016209
0.028932991
0.050338297
0.014761472
-0.011122752
-0.016642838
-0.020021847
-0.020984604
-0.019441267
-0.015317694
-0.0083198068
0.0032671751
0.030182267
0.0084142979
-0.016642838
-0.021654374
-0.024760763
-0.025606826
-0.024065351
-0.020080371
-0.013446593
-0.00261241
0.023619324
0.0047685902
-0.020021847
-0.024760763
-0.027680813
-0.028428264
-0.026866336
-0.022943283
-0.01647161
-0.005900324
0.020110632
0.003717896
-0.020984604
-0.025606826
-0.028428264
-0.029105784
-0.027502091
-0.023566252
-0.017114591
-0.0065913647
0.019379461
0.0052864626
-0.019441267
-0.024065351
-0.026866336
-0.027502091
-0.025834623
-0.021812168
-0.015255032
-0.0046231504
0.021425248
0.0095874979
-0.015317694
-0.020080371
-0.022943283
-0.023566252
-0.021812168
-0.01762423
-0.010820615
0.00011043829
0.026403329
0.017016209
-0.0083198068
-0.013446593
-0.01647161
-0.017114591
-0.015255032
-0.010820615
-0.0035920667
0.007958121
0.034904462
0.028932991
0.0032671751
-0.00261241
-0.005900324
-0.0065913647
-0.0046231504
0.00011043829
0.007958121
0.020706077
0.04962036
0.050338297
0.030182267
0.023619324
0.020110632
0.019379461
0.021425248
0.026403329
0.034904462
0.04962036
0.085474976
0.049038946
0.014592853
0.0087829398
0.0053842991
0.0044290871
0.0059608987
0.010094149
0.017223957
0.028744449
0.04994447
0.014592853
-0.010724398
-0.015761285
-0.018906496
-0.019779293
-0.018277193
-0.014329768
-0.0076588788
0.0034400862
0.030074852
0.0087829398
-0.015761285
-0.020314277
-0.023199519
-0.023963655
-0.022470008
-0.018668883
-0.012377205
-0.0020762175
0.023812783
0.0053842991
-0.018906496
-0.023199519
-0.025908574
-0.026582238
-0.025075289
-0.021343167
-0.015221207
-0.0051942736
0.020463534
0.0044290871
-0.019779293
-0.023963655
-0.026582238
-0.02719339
-0.025651456
-0.021913047
-0.015817416
-0.0058446116
0.019769475
0.0059608987
-0.018277193
-0.022470008
-0.025075289
-0.025651456
-0.024051844
-0.020232335
-0.0140362
-0.0039589393
0.021730221
0.010094149
-0.014329768
-0.018668883
-0.021343167
-0.021913047
-0.020232335
-0.01625199
-0.0098132905
0.00055996744
0.026491265
0.017223957
-0.0076588788
-0.012377205
-0.015221207
-0.015817416
-0.0140362
-0.0098132905
-0.0029526975
0.0080378196
0.034621593
0.028744449
0.0034400862
-0.0020762175
-0.0051942736
-0.0058446116
-0.0039589393
0.00055996744
0.0080378196
0.020229833
0.048803216
0.04994447
0.030074852
0.023812783
0.020463534
0.019769475
0.021730221
0.026491265
0.034621593
0.048803216
0.084573043
0.048236021
0.014476987
0.0092025717
0.006046886
0.0051785844
0.0066588237
0.010601732
0.017398473
0.028462758
0.049325837
0.014476987
-0.010149192
-0.014708108
-0.017624396
-0.018415788
-0.016968917
-0.013217695
-0.0069021739
0.00365597
0.029846957
0.0092025717
-0.014708108
-0.018809637
-0.021479402
-0.022170182
-0.020737533
-0.017138119
-0.011212098
-0.0014884195
0.023902611
0.006046886
-0.017624396
-0.021479402
-0.023983501
-0.024591852
-0.023152434
-0.019627724
-0.01387653
-0.0044345084
0.020717879
0.0051785844
-0.018415788
-0.022170182
-0.024591852
-0.025144889
-0.023676896
-0.020151806
-0.01443234
-0.0050493585
0.02005661
0.0066588237
-0.016968917
-0.020737533
-0.023152434
-0.023676896
-0.022157211
-0.018556662
-0.012741969
-0.0032591268
0.021919121
0.010601732
-0.013217695
-0.017138119
-0.019627724
-0.020151806
-0.018556662
-0.014800769
-0.0087489926
0.0010245851
0.026440826
0.017398473
-0.0069021739
-0.011212098
-0.01387653
-0.01443234
-0.012741969
-0.0087489926
-0.0022815035
0.0081024771
0.034164546
0.028462758
0.00365597
-0.0014884195
-0.0044345084
-0.0050493585
-0.0032591268
0.0010245851
0.0081024771
0.019681184
0.047736591
0.049325837
0.029846957
0.023902611
0.020717879
0.02005661
0.021919121
0.026440826
0.034164546
0.047736591
0.083190384
0.046932265
0.014027519
0.0092786653
0.0063593271
0.0055697194
0.0069866951
0.010722778
0.017161695
0.027723301
0.048133978
0.014027519
-0.0098007269
-0.013893702
-0.016588163
-0.017306274
-0.015925507
-0.012384579
-0.0064434493
0.0035355627
0.029139514
0.0092786653
-0.013893702
-0.017557082
-0.020018997
-0.020644425
-0.019282798
-0.015897072
-0.010351134
-0.0012343375
0.023524236
0.0063593271
-0.016588163
-0.020018997
-0.022325937
-0.02287675
-0.021514189
-0.018207497
-0.01283911
-0.0040081786
0.020507164
0.0055697194
-0.017306274
-0.020644425
-0.02287675
-0.023379104
-0.021993907
-0.018692076
-0.013359856
-0.0045917189
0.019875372
0.0069866951
-0.015925507
-0.019282798
-0.021514189
-0.021993907
-0.020562772
-0.017191112
-0.011769112
-0.0029059742
0.021630392
0.010722778
-0.012384579
-0.015897072
-0.018207497
-0.018692076
-0.017191112
-0.013670254
-0.0080179681
0.0011288468
0.025897527
0.017161695
-0.0064434493
-0.010351134
-0.01283911
-0.013359856
-0.011769112
-0.0080179681
-0.0019588881
0.0077870863
0.033189945
0.027723301
0.0035355627
-0.0012343375
-0.0040081786
-0.0045917189
-0.0029059742
0.0011288468
0.0077870863
0.018711608
0.046095002
0.048133978
0.029139514
0.023524236
0.020507164
0.019875372
0.021630392
0.025897527
0.033189945
0.046095002
0.081024791
0.045002942
0.013101437
0.0088617064
0.0061704545
0.0054519468
0.006796806
0.010314801
0.016379109
0.02640312
0.046260501
0.013101437
-0.0098373986
-0.013481731
-0.015962885
-0.016615162
-0.015308565
-0.011986943
-0.0064314052
0.0029425085
0.027834368
0.0088617064
-0.013481731
-0.016725054
-0.018987948
-0.019555257
-0.018271862
-0.015106847
-0.0099478688
-0.0014552777
0.022554918
0.0061704545
-0.015962885
-0.018987948
-0.021106577
-0.021606757
-0.020327528
-0.017244541
-0.012263613
-0.0040579153
0.019707167
0.0054519468
-0.016615162
-0.019555257
-0.021606757
-0.022064909
-0.020768446
-0.017694851
-0.012753572
-0.004613295
0.019102523
0.006796806
-0.015308565
-0.018271862
-0.020327528
-0.020768446
-0.019431481
-0.01629358
-0.011268026
-0.0030377703
0.020744174
0.010314801
-0.011986943
-0.015106847
-0.017244541
-0.017694851
-0.01629358
-0.01301312
-0.0077651755
0.00074016367
0.024747428
0.016379109
-0.0064314052
-0.0099478688
-0.012263613
-0.012753572
-0.011268026
-0.0077651755
-0.0021217262
0.0069676904
0.031593113
0.02640312
0.0029425085
-0.0014552777
-0.0040579153
-0.004613295
-0.0030377703
0.00074016367
0.0069676904
0.017211114
0.04378922
0.046260501
0.027834368
0.022554918
0.019707167
0.019102523
0.020744174
0.024747428
0.031593113
0.04378922
0.078008438
0.042572547
0.011806428
0.0080542632
0.0055818137
0.0049275704
0.0061939598
0.0094870085
0.015166609
0.024627987
0.043844282
0.011806428
-0.010165312
-0.013382317
-0.015659516
-0.016252612
-0.015025799
-0.011928251
-0.0067630403
0.0019902556
0.026061391
0.0080542632
-0.013382317
-0.016227266
-0.018300625
-0.018816189
-0.017615803
-0.014674426
-0.0099031408
-0.0020418394
0.021120679
0.0055818137
-0.015659516
-0.018300625
-0.020240324
-0.020695852
-0.019503987
-0.016646367
-0.012051596
-0.0044752862
0.018442756
0.0049275704
-0.016252612
-0.018816189
-0.020695852
-0.021115307
-0.019911038
-0.017066619
-0.012514048
-0.005004715
0.017863807
0.0061939598
-0.015025799
-0.017615803
-0.019503987
-0.019911038
-0.018671332
-0.015767947
-0.011136583
-0.0035423733
0.01938903
0.0094870085
-0.011928251
-0.014674426
-0.016646367
-0.017066619
-0.015767947
-0.012729006
-0.0078840493
-2.4649784e-05
0.023123969
0.015166609
-0.0067630403
-0.0099031408
-0.012051596
-0.012514048
-0.011136583
-0.0078840493
-0.0026569102
0.005768157
0.029515129
0.024627987
0.0019902556
-0.0020418394
-0.0044752862
-0.005004715
-0.0035423733
-2.4649786e-05
0.005768157
0.015315334
0.040973586
0.043844282
0.026061391
0.021120679
0.018442756
0.017863807
0.01938903
0.023123969
0.029515129
0.040973586
0.074315381
0.039914318
0.010400183
0.0071100615
0.004846568
0.0042505536
0.005434266
0.0084991658
0.013789499
0.022671615
0.041170851
0.010400183
-0.010539188
-0.01335318
-0.015436182
-0.015975932
-0.014832427
-0.011960246
-0.0071848278
0.00094111954
0.024097744
0.0071100615
-0.01335318
-0.015824074
-0.017717645
-0.018186972
-0.017072327
-0.014354208
-0.0099664323
-0.0027350122
0.019495443
0.004846568
-0.015436182
-0.017717645
-0.019487966
-0.019903921
-0.018801418
-0.01616761
-0.011952985
-0.0050020018
0.016986918
0.0042505536
-0.015975932
-0.018186972
-0.019903921
-0.020289253
-0.019178593
-0.016561083
-0.012390326
-0.0055068809
0.016432946
0.005434266
-0.014832427
-0.017072327
-0.018801418
-0.019178593
-0.018037156
-0.015365789
-0.011121632
-0.00415843
0.017840976
0.0084991658
-0.011960246
-0.014354208
-0.01616761
-0.016561083
-0.015365789
-0.012566118
-0.0081178996
-0.00090048472
0.021307105
0.013789499
-0.0071848278
-0.0099664323
-0.011952985
-0.012390326
-0.011121632
-0.0081178996
-0.0033025425
0.0044592806
0.027242186
0.022671615
0.00094111954
-0.0027350122
-0.0050020018
-0.0055068809
-0.00415843
-0.00090048472
0.0044592806
0.013304913
0.037945629
0.041170851
0.024097744
0.019495443
0.016986918
0.016432946
0.017840976
0.021307105
0.027242186
0.037945629
0.070261358
0.037314411
0.0091544066
0.006297796
0.0042331748
0.0036901357
0.0047887676
0.0076253004
0.012526353
0.020819712
0.038536596
0.0091544066
-0.01069855
-0.013136014
-0.015034685
-0.015526133
-0.014467722
-0.011819407
-0.0074290118
7.0209523e-05
0.022231996
0.006297796
-0.013136014
-0.015259031
-0.016982555
-0.017410339
-0.016382481
-0.013884628
-0.0098723104
-0.0032623759
0.017965043
0.0042331748
-0.015034685
-0.016982555
-0.018592976
-0.018973601
-0.017960805
-0.01554674
-0.011702605
-0.0053661927
0.015624704
0.0036901357
-0.015526133
-0.017410339
-0.018973601
-0.019328542
-0.018311258
-0.015915906
-0.012116483
-0.0058472619
0.015095573
0.0047887676
-0.014467722
-0.016382481
-0.017960805
-0.018311258
-0.017267438
-0.014823071
-0.010955511
-0.0046116176
0.01638747
0.0076253004
-0.011819407
-0.013884628
-0.01554674
-0.015915906
-0.014823071
-0.012257809
-0.0081962982
-0.0016100587
0.019587419
0.012526353
-0.0074290118
-0.0098723104
-0.011702605
-0.012116483
-0.010955511
-0.0081962982
-0.0037841248
0.0033228613
0.025069904
0.020819712
7.0209523e-05
-0.0032623759
-0.0053661927
-0.0058472619
-0.0046116176
-0.0016100587
0.0033228613
0.011469862
0.035010627
0.038536596
0.022231996
0.017965043
0.015624704
0.015095573
0.01638747
0.019587419
0.025069904
0.035010627
0.066168515
0.034961873
0.0082446321
0.0057907922
0.003914942
0.0034203519
0.0044329902
0.0070433439
0.0115588
0.019259943
0.036138874
0.0082446321
-0.010478065
-0.01256698
-0.0142911
-0.014738565
-0.013765611
-0.011337449
-0.0073239517
-0.00044471328
0.020654153
0.0057907922
-0.01256698
-0.014369533
-0.015932569
-0.016322765
-0.015381382
-0.013098776
-0.009450888
-0.0034483393
0.016717166
0.003914942
-0.0142911
-0.015932569
-0.017392337
-0.017741131
-0.016817069
-0.014616766
-0.011130709
-0.0053927041
0.014543135
0.0034203519
-0.014738565
-0.016322765
-0.017741131
-0.018068671
-0.017143232
-0.01496341
-0.011522162
-0.0058501863
0.014039139
0.0044329902
-0.013765611
-0.015381382