/*--------------------------------*- C++ -*----------------------------------*\
| =========                 |                                                 |
| \\      /  F ield         | OpenFOAM: The Open Source CFD Toolbox           |
|  \\    /   O peration     | Version:  v2106                                 |
|   \\  /    A nd           | Website:  www.openfoam.com                      |
|    \\/     M anipulation  |                                                 |
\*---------------------------------------------------------------------------*/
FoamFile
{
    version     2.0;
    format      ascii;
    arch        "LSB;label=32;scalar=64";
    class       volScalarField;
    location    "100";
    object      Tmode13;
}
// * * * * * * * * * * * * * * * * * * * * * * * * * * * * * * * * * * * * * //

dimensions      [0 0 0 0 0 0 0];

internalField   nonuniform List<scalar> 
4000
(
-0.0011685998
-0.00010115811
0.000342418
0.00040175266
0.00042672037
0.00039017537
0.00029475979
0.00013964405
-7.2401665e-05
-0.00029418225
-0.00010115812
0.00094754763
0.0012276615
0.001283439
0.001306413
0.0012695214
0.0011751221
0.001018477
0.00078582453
0.00047224478
0.000342418
0.0012276615
0.0014997282
0.0015471237
0.0015658259
0.0015292037
0.0014380831
0.0012867142
0.001056171
0.00071835249
0.00040175266
0.001283439
0.0015471237
0.0015880419
0.0016047908
0.0015698075
0.0014827954
0.0013388181
0.0011232135
0.00080551294
0.00042672037
0.001306413
0.0015658259
0.0016047908
0.0016222812
0.0015899494
0.0015064813
0.0013660555
0.0011539002
0.00083942283
0.00039017537
0.0012695214
0.0015292037
0.0015698075
0.0015899494
0.0015606631
0.0014799677
0.0013415688
0.0011305156
0.0008163835
0.00029475979
0.0011751221
0.0014380831
0.0014827954
0.0015064813
0.0014799677
0.0014005207
0.0012616758
0.0010489101
0.00073299869
0.00013964405
0.001018477
0.0012867142
0.0013388181
0.0013660555
0.0013415688
0.0012616758
0.0011196532
0.00090163293
0.00058063589
-7.2401665e-05
0.00078582453
0.001056171
0.0011232135
0.0011539002
0.0011305156
0.0010489101
0.00090163293
0.00067464753
0.00034317201
-0.00029418225
0.00047224478
0.00071835249
0.00080551294
0.00083942283
0.0008163835
0.0007329987
0.00058063589
0.00034317201
-5.1048633e-06
-0.02413617
-0.014459106
-0.011081597
-0.01032682
-0.010120734
-0.010475682
-0.011370772
-0.012841237
-0.014900752
-0.017161921
-0.014459106
-0.0063672291
-0.0038293702
-0.0031596716
-0.0029820852
-0.0033375425
-0.0042171521
-0.0056988061
-0.007986077
-0.011293394
-0.011081597
-0.0038293702
-0.0014858277
-0.00091265216
-0.00077214364
-0.001120351
-0.0019598291
-0.003376653
-0.0056486504
-0.0090954106
-0.01032682
-0.0031596716
-0.00091265216
-0.0003986291
-0.00027406179
-0.00060462345
-0.0013999113
-0.0027356466
-0.0048720498
-0.0081788918
-0.010120734
-0.0029820852
-0.00077214364
-0.00027406179
-0.00014178667
-0.00044722085
-0.0012077909
-0.0025045009
-0.0045973549
-0.0078647501
-0.010475681
-0.0033375425
-0.001120351
-0.00060462345
-0.00044722085
-0.00072456871
-0.0014596054
-0.0027369813
-0.0048176418
-0.0080789052
-0.011370772
-0.0042171521
-0.0019598291
-0.0013999113
-0.0012077909
-0.0014596054
-0.0021839994
-0.0034669495
-0.0055654048
-0.0088448094
-0.012841237
-0.0056988061
-0.003376653
-0.0027356466
-0.0025045009
-0.0027369813
-0.0034669495
-0.0047825424
-0.0069353155
-0.010269061
-0.014900752
-0.007986077
-0.0056486504
-0.0048720498
-0.0045973549
-0.0048176418
-0.0055654048
-0.0069353155
-0.0091833134
-0.012634917
-0.017161921
-0.011293394
-0.0090954106
-0.0081788918
-0.0078647501
-0.0080789052
-0.0088448094
-0.010269061
-0.012634917
-0.016287395
-0.015728906
0.00019623107
0.0050100667
0.0062530347
0.0064975866
0.0058266473
0.0042406749
0.0015824704
-0.002415404
-0.0076243669
0.00019623107
0.01311052
0.016816467
0.017890698
0.018086694
0.017427554
0.015897385
0.013261693
0.0087921635
0.001512153
0.0050100667
0.016816467
0.020152316
0.021055723
0.021196337
0.020563852
0.019135886
0.016696601
0.012381212
0.0050276325
0.0062530347
0.017890698
0.021055723
0.021863622
0.021985011
0.021392342
0.020054359
0.017777805
0.013705848
0.0065746032
0.0064975866
0.018086694
0.021196337
0.021985011
0.022126963
0.021584709
0.020315487
0.018120462
0.014140349
0.0070862341
0.0058266473
0.017427554
0.020563852
0.021392342
0.021584709
0.021095715
0.019873947
0.01771534
0.013759427
0.0067183943
0.0042406749
0.015897385
0.019135886
0.020054359
0.020315487
0.019873947
0.01866972
0.016496688
0.012501675
0.0054207068
0.0015824704
0.013261693
0.016696601
0.017777805
0.018120462
0.01771534
0.016496688
0.014253668
0.010138854
0.0029262636
-0.002415404
0.0087921635
0.012381212
0.013705848
0.014140349
0.013759427
0.012501675
0.010138854
0.0057960383
-0.0017462852
-0.0076243669
0.001512153
0.0050276325
0.0065746032
0.0070862341
0.0067183943
0.0054207068
0.0029262636
-0.0017462852
-0.0098907311
-0.034684675
-0.014317266
-0.008877192
-0.0075075709
-0.0073990175
-0.0083791166
-0.010507713
-0.014126797
-0.019955222
-0.028301238
-0.014317266
0.0018586391
0.0060015148
0.0071316708
0.00718297
0.0062404185
0.0042452767
0.00080659419
-0.0054833842
-0.01670322
-0.008877192
0.0060015148
0.0096385437
0.010547702
0.010540814
0.0096540959
0.0078301134
0.0047322393
-0.0012307179
-0.012405773
-0.0075075709
0.0071316708
0.010547702
0.011344094
0.011327826
0.010513235
0.0088350541
0.0059917159
0.00038110418
-0.010493338
-0.0073990175
0.00718297
0.010540814
0.011327826
0.011353737
0.01062118
0.0090526608
0.0063429129
0.00088072978
-0.0098753385
-0.0083791166
0.0062404185
0.0096540959
0.010513235
0.01062118
0.0099699373
0.0084722944
0.0058176259
0.00039309763
-0.010341736
-0.010507713
0.0042452767
0.0078301134
0.0088350541
0.0090526608
0.0084722944
0.0069974654
0.0043156274
-0.0011751875
-0.011976774
-0.014126797
0.00080659419
0.0047322393
0.0059917159
0.0063429129
0.0058176259
0.0043156274
0.0015165954
-0.0041795982
-0.015221409
-0.019955222
-0.0054833842
-0.0012307179
0.00038110418
0.00088072978
0.00039309763
-0.0011751875
-0.0041795982
-0.010297091
-0.022013195
-0.028301238
-0.01670322
-0.012405773
-0.010493338
-0.0098753385
-0.010341736
-0.011976774
-0.015221409
-0.022013195
-0.034731371
-0.047688098
-0.023774939
-0.018359451
-0.017244366
-0.017424422
-0.018675611
-0.021137595
-0.025316219
-0.032383068
-0.043393519
-0.023774939
-0.0052147959
-0.0012581161
-0.00043270239
-0.00066774826
-0.0018525115
-0.0041093658
-0.0079464447
-0.015351332
-0.029877073
-0.018359451
-0.0012581161
0.0020991236
0.0026786807
0.0023985327
0.0013116419
-0.00069462552
-0.0040436575
-0.010923055
-0.025235333
-0.017244366
-0.00043270239
0.0026786807
0.0031462194
0.0028789366
0.0019079349
0.00011730422
-0.0028717175
-0.0092781598
-0.023199435
-0.017424422
-0.00066774826
0.0023985327
0.0028789366
0.0026834492
0.001832348
0.00019964363
-0.0025947018
-0.0087883796
-0.022545355
-0.018675611
-0.0018525115
0.0013116419
0.0019079349
0.001832348
0.0010936877
-0.00044269348
-0.0031613232
-0.0093023257
-0.023028737
-0.021137595
-0.0041093658
-0.00069462552
0.00011730422
0.00019964363
-0.00044269348
-0.0019517515
-0.0047126758
-0.01095003
-0.024770267
-0.025316219
-0.0079464447
-0.0040436575
-0.0028717175
-0.0025947018
-0.0031613232
-0.0047126758
-0.00764342
-0.014180047
-0.028358307
-0.032383068
-0.015351332
-0.010923055
-0.0092781598
-0.0087883796
-0.0093023257
-0.01095003
-0.014180047
-0.0213628
-0.036664264
-0.043393519
-0.029877073
-0.025235333
-0.023199435
-0.022545355
-0.023028737
-0.024770267
-0.028358307
-0.036664264
-0.053591899
-0.03804088
-0.011360423
-0.0065576709
-0.0060175883
-0.0065852152
-0.00804089
-0.010626749
-0.015009868
-0.022763229
-0.035879932
-0.011360423
0.0088212563
0.012040465
0.012265693
0.011657843
0.010306893
0.0080021965
0.0041143611
-0.003790735
-0.020930428
-0.0065576709
0.012040465
0.014607443
0.014583726
0.013956618
0.012758326
0.010800754
0.007562382
0.00041664809
-0.016291902
-0.0060175883
0.012265693
0.014583726
0.014462478
0.013879033
0.01284822
0.011187382
0.0084267354
0.0018898016
-0.014321384
-0.0065852152
0.011657843
0.013956618
0.013879033
0.013402179
0.01253298
0.011083037
0.0085836127
0.0023288452
-0.013668722
-0.00804089
0.010306893
0.012758326
0.01284822
0.01253298
0.011809402
0.010482793
0.0080810569
0.0018946091
-0.014063606
-0.010626749
0.0080021965
0.010800754
0.011187382
0.011083037
0.010482793
0.0091880283
0.0067277128
0.00041325913
-0.015666236
-0.015009868
0.0041143611
0.007562382
0.0084267354
0.0085836127
0.0080810569
0.0067277128
0.0040428179
-0.0026630568
-0.019205041
-0.022763229
-0.003790735
0.00041664809
0.0018898016
0.0023288452
0.0018946091
0.00041325913
-0.0026630568
-0.010222092
-0.028307873
-0.035879932
-0.020930428
-0.016291902
-0.014321384
-0.013668722
-0.014063606
-0.015666236
-0.019205041
-0.028307873
-0.048851341
-0.025993531
0.0026245712
0.0063495907
0.0061003243
0.0051070278
0.0035424443
0.0010567261
-0.0031836809
-0.011124965
-0.025796135
0.0026245712
0.023670511
0.025734989
0.025168042
0.024158404
0.022746467
0.020633174
0.01705672
0.0092120241
-0.009850284
0.0063495907
0.025734989
0.027129214
0.026326057
0.025329776
0.024130695
0.022471218
0.019718671
0.012898504
-0.0054775101
0.0061003243
0.025168042
0.026326057
0.025448991
0.024531596
0.023553995
0.02227605
0.020123713
0.014057878
-0.0037037645
0.0051070278
0.024158404
0.025329776
0.024531596
0.023758094
0.022985115
0.021972239
0.020148765
0.014435949
-0.003061683
0.0035424443
0.022746467
0.024130695
0.023553995
0.022985115
0.022392046
0.021530719
0.019827909
0.014199268
-0.0032517531
0.0010567261
0.020633174
0.022471218
0.02227605
0.021972239
0.021530719
0.020707003
0.018929568
0.013139301
-0.0044654587
-0.0031836809
0.01705672
0.019718671
0.020123713
0.020148765
0.019827909
0.018929568
0.016870421
0.010592818
-0.0075769723
-0.011124965
0.0092120241
0.012898504
0.014057878
0.014435949
0.014199268
0.013139301
0.010592818
0.0032679714
-0.016796925
-0.025796135
-0.009850284
-0.0054775101
-0.0037037645
-0.003061683
-0.0032517531
-0.0044654587
-0.0075769723
-0.016796925
-0.040263178
-0.02702214
0.0027993722
0.0051307218
0.0039807383
0.0025669762
0.00099397226
-0.0011798266
-0.0049440865
-0.012606811
-0.028287562
0.0027993722
0.024072631
0.024715901
0.023261702
0.021858807
0.020488086
0.018784846
0.015867236
0.0085971864
-0.011711391
0.0051307218
0.024715901
0.024697898
0.023030802
0.021676278
0.020577332
0.019434038
0.017517897
0.011554161
-0.0077911465
0.0039807383
0.023261702
0.023030802
0.021319086
0.020080381
0.019255522
0.018575546
0.017378736
0.012315495
-0.0062961638
0.0025669762
0.021858807
0.021676278
0.020080381
0.019023671
0.018446094
0.018084057
0.017281698
0.012640867
-0.0056572468
0.00099397226
0.020488086
0.020577332
0.019255522
0.018446094
0.018083336
0.017902433
0.017245534
0.012706529
-0.0055373377
-0.0011798266
0.018784846
0.019434038
0.018575546
0.018084057
0.017902433
0.017768423
0.017025271
0.01229398
-0.0061381334
-0.0049440865
0.015867236
0.017517897
0.017378736
0.017281698
0.017245534
0.017025271
0.015947108
0.010632164
-0.008472493
-0.012606811
0.0085971864
0.011554161
0.012315495
0.012640867
0.012706529
0.01229398
0.010632164
0.0040791901
-0.017220243
-0.028287562
-0.011711391
-0.0077911465
-0.0062961638
-0.0056572468
-0.0055373377
-0.0061381334
-0.008472493
-0.017220243
-0.042902562
-0.036617782
-0.0061892464
-0.0054395837
-0.0075233773
-0.0093279504
-0.010824479
-0.012521876
-0.015540094
-0.022533275
-0.03873233
-0.0061892464
0.014819416
0.013899412
0.011535841
0.0097695059
0.0085214292
0.0073899473
0.0054055318
-0.00086991195
-0.021819072
-0.0054395837
0.013899412
0.012347001
0.0098005694
0.0081177829
0.007195757
0.0067224228
0.0059102606
0.0012243409
-0.018476011
-0.0075233773
0.011535841
0.0098005694
0.0072420951
0.0057122492
0.0051136867
0.0051785766
0.0051957301
0.0015490237
-0.017303466
-0.0093279504
0.0097695059
0.0081177829
0.0057122492
0.0044022657
0.0040923498
0.0045252579
0.004998398
0.0018397545
-0.016652222
-0.010824479
0.0085214292
0.007195757
0.0051136866
0.0040923498
0.0040322397
0.0046769813
0.0053224747
0.0022862071
-0.016141515
-0.012521876
0.0073899473
0.0067224228
0.0051785766
0.0045252579
0.0046769813
0.0053825163
0.0059377666
0.0026872316
-0.015958267
-0.015540094
0.0054055318
0.0059102606
0.0051957301
0.004998398
0.0053224747
0.0059377666
0.0061162101
0.0021964004
-0.017226066
-0.022533275
-0.00086991195
0.0012243409
0.0015490237
0.0018397545
0.0022862071
0.0026872316
0.0021964004
-0.0031420208
-0.025025939
-0.03873233
-0.021819072
-0.018476011
-0.017303466
-0.016652222
-0.016141515
-0.015958267
-0.017226066
-0.025025939
-0.052262855
-0.042414372
-0.011850874
-0.012773616
-0.015770693
-0.017921938
-0.019274682
-0.020382647
-0.022464626
-0.028493719
-0.044803007
-0.011850874
0.0085265692
0.0059923394
0.0027468225
0.00065994137
-0.00040371328
-0.00085908335
-0.0017250242
-0.0066980572
-0.027783693
-0.012773616
0.0059923394
0.0028688383
-0.00052542955
-0.002494473
-0.0031835384
-0.0028940307
-0.0024307846
-0.0055413361
-0.025093655
-0.015770693
0.0027468225
-0.00052542955
-0.0038974837
-0.0056771441
-0.0059972596
-0.0051030524
-0.0037128581
-0.0056584722
-0.024258707
-0.017921938
0.00065994137
-0.002494473
-0.0056771441
-0.007200009
-0.0071920209
-0.0058833376
-0.0039809071
-0.0053783286
-0.023575179
-0.019274682
-0.00040371328
-0.0031835384
-0.0059972596
-0.0071920209
-0.0068998571
-0.0053483397
-0.0032453876
-0.0044975312
-0.022617553
-0.020382647
-0.00085908335
-0.0028940307
-0.0051030524
-0.0058833376
-0.0053483397
-0.0037181974
-0.0017016877
-0.0031794207
-0.021537428
-0.022464626
-0.0017250242
-0.0024307846
-0.0037128581
-0.0039809071
-0.0032453876
-0.0017016877
-8.9115377e-05
-0.0023029489
-0.021528128
-0.028493719
-0.0066980572
-0.0055413361
-0.0056584722
-0.0053783286
-0.0044975312
-0.0031794208
-0.0023029489
-0.0060934639
-0.02801981
-0.044803007
-0.027783693
-0.025093655
-0.024258707
-0.023575179
-0.022617553
-0.021537428
-0.021528128
-0.02801981
-0.056227485
-0.038289161
-0.0079633749
-0.010576917
-0.014431831
-0.016876728
-0.018031994
-0.018478746
-0.01950473
-0.024364828
-0.040461116
-0.0079633749
0.01151518
0.0073809772
0.0033129886
0.00095675192
0.00012523464
0.00040631892
0.00076653248
-0.0026976854
-0.02351753
-0.010576917
0.0073809772
0.0027107208
-0.0014696294
-0.0036751751
-0.0040893944
-0.0029893066
-0.0011611909
-0.0025082088
-0.021518291
-0.014431831
0.0033129886
-0.0014696294
-0.0055929727
-0.0075739959
-0.0075778842
-0.005815371
-0.0029764694
-0.0030489626
-0.02101545
-0.016876728
0.00095675192
-0.0036751751
-0.0075739959
-0.0092628349
-0.0089015677
-0.00668221
-0.0032808183
-0.0027517011
-0.020277109
-0.018031994
0.00012523464
-0.0040893944
-0.0075778842
-0.0089015677
-0.0082230919
-0.0057305375
-0.0021003777
-0.0014020782
-0.018836484
-0.018478746
0.00040631892
-0.0029893066
-0.005815371
-0.00668221
-0.0057305375
-0.003139004
0.00041466706
0.00088561771
-0.016797065
-0.01950473
0.00076653248
-0.0011611909
-0.0029764694
-0.0032808183
-0.0021003777
0.00041466707
0.0035510585
0.0032401417
-0.015379021
-0.024364828
-0.0026976854
-0.0025082088
-0.0030489626
-0.0027517011
-0.0014020782
0.00088561771
0.0032401417
0.0012254729
-0.02030523
-0.040461116
-0.02351753
-0.021518291
-0.02101545
-0.020277109
-0.018836484
-0.016797065
-0.015379021
-0.02030523
-0.048987595
-0.027469328
0.002323756
-0.0019443376
-0.0065792268
-0.0092596279
-0.010174139
-0.0099186576
-0.0098243965
-0.013384454
-0.029017942
0.002323756
0.020712858
0.015040547
0.010230046
0.0076605538
0.0070987036
0.0081449512
0.0097785873
0.0079467909
-0.012293668
-0.0019443376
0.015040547
0.0088923028
0.0040068025
0.0016190074
0.0015115037
0.0034382914
0.0066579598
0.0071746493
-0.010993276
-0.0065792268
0.010230046
0.0040068025
-0.00078729548
-0.0029173227
-0.002577401
6.0897592e-05
0.0043609341
0.0062441689
-0.010802585
-0.0092596279
0.0076605538
0.0016190074
-0.0029173227
-0.0047219549
-0.0039827563
-0.00084970745
0.0040566342
0.0065874874
-0.0099862728
-0.010174139
0.0070987036
0.0015115037
-0.002577401
-0.0039827563
-0.0028953734
0.00053972179
0.005702039
0.0084256305
-0.0080425522
-0.0099186576
0.0081449512
0.0034382914
6.0897592e-05
-0.00084970745
0.00053972179
0.0040952648
0.0091952067
0.011697012
-0.0050213333
-0.0098243965
0.0097785873
0.0066579598
0.0043609341
0.0040566342
0.005702039
0.0091952067
0.013875743
0.015569401
-0.0021322086
-0.013384454
0.0079467909
0.0071746493
0.0062441689
0.0065874874
0.0084256305
0.011697012
0.015569401
0.015466268
-0.0053226316
-0.029017942
-0.012293668
-0.010993276
-0.010802585
-0.0099862728
-0.0080425522
-0.0050213333
-0.0021322086
-0.0053226316
-0.034068101
-0.017282515
0.011744729
0.0059002633
0.00057747953
-0.0022781057
-0.0029176388
-0.0019426611
-0.00070701941
-0.00289541
-0.017876589
0.011744729
0.028914756
0.021801671
0.01634148
0.013616895
0.013353584
0.01517004
0.018078238
0.017935925
-0.0014853783
0.0059002633
0.021801671
0.014277122
0.0087792079
0.0062650591
0.0064876029
0.0092339766
0.013824777
0.016235542
-0.00086883353
0.00057747953
0.01634148
0.0087792079
0.0034058576
0.0011802232
0.0018827356
0.0053812239
0.011107764
0.014959167
-0.00096076677
-0.0022781057
0.013616895
0.0062650591
0.0011802232
-0.00068962859
0.00044279556
0.004469102
0.010839005
0.015376258
-4.4803377e-05
-0.0029176388
0.013353584
0.0064876029
0.0018827356
0.00044279556
0.0019516341
0.0063065556
0.012957693
0.017709828
0.0024083298
-0.0019426611
0.01517004
0.0092339766
0.0053812239
0.004469102
0.0063065556
0.01080334
0.017408659
0.021949687
0.0064024645
-0.00070701941
0.018078238
0.013824777
0.011107764
0.010839005
0.012957693
0.017408659
0.023600946
0.027323982
0.010767716
-0.00289541
0.017935925
0.016235542
0.014959167
0.015376258
0.017709828
0.021949687
0.027323982
0.029190372
0.0094104153
-0.017876589
-0.0014853783
-0.00086883353
-0.00096076677
-4.4803376e-05
0.0024083298
0.0064024645
0.010767716
0.0094104153
-0.019062038
-0.012997921
0.015080834
0.0077702107
0.0018600899
-0.0011107663
-0.0014500204
0.00024206061
0.0026059576
0.0018124722
-0.012376296
0.015080834
0.030951101
0.022520872
0.016511267
0.01368923
0.013744749
0.0163173
0.020465396
0.022015423
0.0035917696
0.0077702107
0.022520872
0.01374588
0.0077348277
0.0051492596
0.0057166137
0.0092568266
0.015162496
0.019441568
0.0035569736
0.0018600899
0.016511267
0.0077348277
0.0018795183
-0.00038986477
0.0006851358
0.0050097005
0.012092602
0.017868738
0.0032176451
-0.0011107663
0.01368923
0.0051492596
-0.00038986477
-0.0022764984
-0.00074495931
0.0041353006
0.011891649
0.018383965
0.0042515586
-0.0014500204
0.013744749
0.0057166137
0.0006851358
-0.00074495931
0.0011878799
0.006420416
0.014480628
0.021207818
0.0072076965
0.00024206061
0.0163173
0.0092568266
0.0050097005
0.0041353006
0.006420416
0.011815286
0.019847394
0.026377532
0.012140563
0.0026059576
0.020465396
0.015162496
0.012092602
0.011891649
0.014480628
0.019847394
0.027479089
0.033194673
0.017941059
0.0018124722
0.022015423
0.019441568
0.017868738
0.018383965
0.021207818
0.026377532
0.033194673
0.037024032
0.018452221
-0.012376296
0.0035917696
0.0035569736
0.0032176451
0.0042515586
0.0072076965
0.012140563
0.017941059
0.018452221
-0.0094762527
-0.015179692
0.01180973
0.0031670439
-0.0032257128
-0.0062545404
-0.0062774016
-0.0038876688
-0.00043644245
0.00014837187
-0.013148879
0.01180973
0.026339109
0.016734237
0.010278802
0.0074142
0.0077998986
0.011098008
0.016423056
0.019623757
0.002325031
0.0031670439
0.016734237
0.0068517263
0.00042934412
-0.0021758677
-0.0012579228
0.0030344765
0.010171044
0.016247133
0.0016842839
-0.0032257128
0.010278802
0.00042934412
-0.0058087386
-0.0080736668
-0.0066255513
-0.0015248255
0.0068170991
0.014429633
0.0011355055
-0.0062545404
0.0074142
-0.0021758677
-0.0080736668
-0.0099327909
-0.0080059428
-0.0023271114
0.0067112802
0.015062474
0.0023009146
-0.0062774016
0.0077998986
-0.0012579228
-0.0066255513
-0.0080059428
-0.0056567184
0.00039467728
0.0097564693
0.018359919
0.0057417084
-0.0038876688
0.011098008
0.0030344765
-0.0015248255
-0.0023271114
0.00039467728
0.0066273043
0.015978965
0.024401555
0.011558384
-0.00043644245
0.016423056
0.010171044
0.0068170991
0.0067112802
0.0097564693
0.015978965
0.024947402
0.032569461
0.018717192
0.00014837187
0.019623757
0.016247133
0.014429633
0.015062474
0.018359919
0.024401555
0.032569461
0.038302315
0.021079253
-0.013148879
0.002325031
0.0016842839
0.0011355055
0.0023009146
0.0057417084
0.011558384
0.018717192
0.021079253
-0.0060897501
-0.020698366
0.0050955926
-0.0047280082
-0.011497987
-0.014531817
-0.01423142
-0.011178406
-0.0067033792
-0.0047895385
-0.017130436
0.0050955926
0.018274853
0.0076505037
0.00085284671
-0.0020038916
-0.0012857227
0.002693149
0.0091098361
0.013883257
-0.0022061834
-0.0047280082
0.0076505037
-0.0031854527
-0.0099179774
-0.012495843
-0.01123061
-0.0062414053
0.0020206691
0.0097858803
-0.0033983938
-0.011497987
0.00085284671
-0.0099179774
-0.016440771
-0.018658198
-0.016845621
-0.011032226
-0.0015493838
0.0077754478
-0.0041181706
-0.014531817
-0.0020038916
-0.012495843
-0.018658198
-0.020451029
-0.018142247
-0.01173396
-0.0015386497
0.0085396767
-0.0028131798
-0.01423142
-0.0012857227
-0.01123061
-0.016845621
-0.018142247
-0.015394134
-0.0085966724
0.0019382066
0.012283322
0.0010830323
-0.011178406
0.002693149
-0.0062414053
-0.011032226
-0.01173396
-0.0085966724
-0.0016010793
0.0089413039
0.019123043
0.0077117031
-0.0067033792
0.0091098361
0.0020206691
-0.0015493838
-0.0015386497
0.0019382066
0.0089413039
0.019121011
0.028524693
0.016124222
-0.0047895385
0.013883257
0.0097858803
0.0077754478
0.0085396767
0.012283322
0.019123043
0.028524693
0.036059053
0.020275032
-0.017130436
-0.0022061834
-0.0033983938
-0.0041181706
-0.0028131798
0.0010830323
0.0077117031
0.016124222
0.020275032
-0.0059659732
-0.025388156
-0.0008670972
-0.011709111
-0.018752935
-0.021744291
-0.021122623
-0.017453404
-0.012036126
-0.0088687942
-0.020217048
-0.0008670972
0.01097829
-0.00050288143
-0.0075417516
-0.010345772
-0.0093015099
-0.0046987078
0.0027069675
0.0089462518
-0.0058853249
-0.011709111
-0.00050288143
-0.012131996
-0.019076567
-0.021585882
-0.019985277
-0.014366112
-0.0051000828
0.0042176671
-0.0075684391
-0.018752935
-0.0075417516
-0.019076567
-0.025789457
-0.027922351
-0.025762647
-0.019311289
-0.0088210171
0.0020643053
-0.0084217879
-0.021744291
-0.010345772
-0.021585882
-0.027922351
-0.029616315
-0.026947792
-0.019890401
-0.0086784994
0.0029678354
-0.0069746639
-0.021122623
-0.0093015099
-0.019985277
-0.025762647
-0.026947792
-0.023827266
-0.016367925
-0.0048037824
0.0071209305
-0.0026616766
-0.017453404
-0.0046987078
-0.014366112
-0.019311289
-0.019890401
-0.016367925
-0.008695814
0.0028927285
0.014672269
0.0046938759
-0.012036126
0.0027069675
-0.0051000828
-0.0088210171
-0.0086784994
-0.0048037824
0.0028927285
0.014141625
0.025172365
0.014234936
-0.0088687942
0.0089462518
0.0042176671
0.0020643053
0.0029678354
0.0071209305
0.014672269
0.025172365
0.034373058
0.020075755
-0.020217048
-0.0058853249
-0.0075684391
-0.0084217879
-0.0069746639
-0.0026616766
0.0046938759
0.014234936
0.020075755
-0.0051083373
-0.026364125
-0.0031698659
-0.014861156
-0.022079642
-0.024987156
-0.024054185
-0.019826132
-0.013561927
-0.0092370711
-0.019579862
-0.0031698659
0.0073779206
-0.0047942022
-0.011977901
-0.014690473
-0.013334254
-0.0081739485
0.00010524202
0.0076813176
-0.0058732981
-0.014861156
-0.0047942022
-0.017054009
-0.024117501
-0.026523276
-0.024606812
-0.018433477
-0.008296538
0.0024155851
-0.0079830499
-0.022079642
-0.011977901
-0.024117501
-0.030931051
-0.032948675
-0.030466706
-0.02346067
-0.012107067
0.00016646304
-0.0089345411
-0.024987156
-0.014690473
-0.026523276
-0.032948675
-0.034517542
-0.03151899
-0.023901313
-0.01182346
0.0012117036
-0.0073478469
-0.024054185
-0.013334254
-0.024606812
-0.030466706
-0.03151899
-0.028060072
-0.020031539
-0.0075922863
0.0057299067
-0.0026642934
-0.019826132
-0.0081739485
-0.018433477
-0.02346067
-0.023901313
-0.020031539
-0.011778014
0.00070151709
0.013897042
0.0053232087
-0.013561927
0.00010524202
-0.008296538
-0.012107067
-0.01182346
-0.0075922863
0.00070151709
0.012866229
0.025347655
0.015853106
-0.0092370711
0.0076813176
0.0024155851
0.00016646304
0.0012117036
0.0057299067
0.013897042
0.025347655
0.036054594
0.023256231
-0.019579862
-0.0058732981
-0.0079830499
-0.0089345411
-0.0073478469
-0.0026642934
0.0053232087
0.015853106
0.023256231
-0.00077527803
-0.023030402
-0.0011977194
-0.013566375
-0.020866124
-0.023654692
-0.022427149
-0.01770537
-0.010699387
-0.0053281489
-0.01467158
-0.0011977194
0.0081041486
-0.0045932928
-0.011831528
-0.014420125
-0.012772571
-0.0071281922
0.0019003431
0.010667903
-0.0016145585
-0.013566375
-0.0045932928
-0.017322386
-0.024417975
-0.026691396
-0.024484806
-0.017839359
-0.006971817
0.0049612558
-0.0040847928
-0.020866124
-0.011831528
-0.024417975
-0.031249126
-0.033126876
-0.030353523
-0.022881885
-0.010815339
0.0026600603
-0.0051015346
-0.023654692
-0.014420125
-0.026691396
-0.033126876
-0.034550468
-0.03125749
-0.023173909
-0.010386643
0.0038446083
-0.0033822138
-0.022427149
-0.012772571
-0.024484806
-0.030353523
-0.03125749
-0.027500004
-0.019000473
-0.0058461006
0.0086779558
0.0016201407
-0.01770537
-0.0071281922
-0.017839359
-0.022881885
-0.023173909
-0.019000473
-0.010266218
0.002943082
0.017358936
0.010138167
-0.010699387
0.0019003431
-0.006971817
-0.010815339
-0.010386643
-0.0058461006
0.002943082
0.015863608
0.029604369
0.021507811
-0.0053281489
0.010667903
0.0049612558
0.0026600603
0.0038446083
0.0086779558
0.017358936
0.029604369
0.041639728
0.030323607
-0.01467158
-0.0016145585
-0.0040847928
-0.0051015346
-0.0033822138
0.0016201407
0.010138167
0.021507811
0.030323607
0.0075126384
-0.016800565
0.0036511804
-0.0092232637
-0.016517744
-0.019158326
-0.017658311
-0.012513136
-0.0048767442
0.0014191976
-0.0069458678
0.0036511804
0.011770336
-0.0012897446
-0.0084992793
-0.010937315
-0.0090240877
-0.0029735106
0.0066752255
0.016477957
0.0054438268
-0.0092232637
-0.0012897446
-0.0143303
-0.021378302
-0.023496378
-0.02103008
-0.013998217
-0.0025438426
0.010427
0.0026797679
-0.016517744
-0.0084992793
-0.021378302
-0.028151105
-0.029870053
-0.026840592
-0.018995499
-0.0063688305
0.0081136226
0.0016278922
-0.019158326
-0.010937315
-0.023496378
-0.029870053
-0.031133693
-0.027586061
-0.019133723
-0.0057955539
0.0094311062
0.0034693841
-0.017658311
-0.0090240877
-0.02103008
-0.026840592
-0.027586061
-0.023573836
-0.014704135
-0.00099649121
0.014525971
0.0087351922
-0.012513136
-0.0029735106
-0.013998217
-0.018995499
-0.019133723
-0.014704135
-0.0055924916
0.0081833291
0.023615716
0.017678874
-0.0048767442
0.0066752255
-0.0025438426
-0.0063688305
-0.0057955539
-0.00099649121
0.0081833291
0.021697113
0.036496693
0.029734172
0.0014191976
0.016477957
0.010427
0.0081136226
0.0094311062
0.014525971
0.023615716
0.036496693
0.049670987
0.039797275
-0.0069458678
0.0054438268
0.0026797679
0.0016278922
0.0034693841
0.0087351922
0.017678874
0.029734172
0.039797275
0.018251889
-0.010080834
0.0089829822
-0.0042284789
-0.011438645
-0.01390785
-0.012161444
-0.0066661216
0.0014862505
0.0085786595
0.0011595593
0.0089829822
0.015990936
0.0027258697
-0.0043793037
-0.0066456709
-0.0044960489
0.0018807451
0.012018815
0.022693853
0.012869419
-0.0042284789
0.0027258697
-0.010473807
-0.017402112
-0.019347141
-0.016654758
-0.009323425
0.0025738429
0.016394179
0.0098776367
-0.011438645
-0.0043793037
-0.017402112
-0.024048077
-0.025594368
-0.022346922
-0.014221155
-0.001186283
0.014104627
0.0088179221
-0.01390785
-0.0066456709
-0.019347141
-0.025594368
-0.026688207
-0.022928257
-0.014204578
-0.00047262082
0.015545558
0.010768482
-0.012161444
-0.0044960489
-0.016654758
-0.022346922
-0.022928257
-0.01870746
-0.0095685107
0.0045320976
0.020846415
0.016240587
-0.0066661216
0.0018807451
-0.009323425
-0.014221155
-0.014204578
-0.0095685107
-0.0001829022
0.013997592
0.030239344
0.025504268
0.0014862505
0.012018815
0.0025738429
-0.0011862829
-0.00047262082
0.0045320976
0.013997592
0.027942986
0.043596549
0.038089789
0.0085786595
0.022693853
0.016394179
0.014104627
0.015545558
0.020846415
0.030239344
0.043596549
0.057713695
0.049224386
0.0011595593
0.012869419
0.0098776367
0.0088179221
0.010768482
0.016240587
0.025504268
0.038089789
0.049224386
0.028970829
-0.0051429573
0.012535869
-0.00084857742
-0.007903126
-0.01018269
-0.0082187136
-0.0024474473
0.0061060666
0.013863448
0.0073494295
0.012535869
0.018509816
0.0051908571
-0.0017420493
-0.0038205689
-0.0014661857
0.0051567147
0.015654235
0.027035846
0.018371195
-0.00084857742
0.0051908571
-0.0080224739
-0.014766651
-0.016525629
-0.013642698
-0.0060980971
0.0061006753
0.020580958
0.015216419
-0.007903126
-0.0017420493
-0.014766651
-0.021224802
-0.02258902
-0.019163229
-0.010848183
0.0024465886
0.018347413
0.014173398
-0.01018269
-0.0038205689
-0.016525629
-0.02258902
-0.023507364
-0.019578631
-0.010679249
0.0032935146
0.019899954
0.016218039
-0.0082187136
-0.0014661857
-0.013642698
-0.019163229
-0.019578631
-0.015196372
-0.0058871133
0.0084504592
0.025350846
0.021838948
-0.0024474473
0.0051567148
-0.0060980971
-0.010848183
-0.010679249
-0.0058871133
0.0036710628
0.018098571
0.034943034
0.031318362
0.0061060666
0.015654235
0.0061006753
0.0024465886
0.0032935146
0.0084504592
0.018098571
0.032317661
0.048619999
0.044280324
0.013863448
0.027035846
0.020580958
0.018347413
0.019899954
0.025350846
0.034943034
0.048619999
0.06348143
0.0563045
0.0073494295
0.018371195
0.015216419
0.014173398
0.016218039
0.021838948
0.031318362
0.044280324
0.0563045
0.037353705
-0.0033248014
0.01298002
-0.00041962053
-0.0072549708
-0.0093312209
-0.0071802011
-0.0012065932
0.0076349115
0.015925159
0.01026923
0.01298002
0.018000748
0.0047713251
-0.0019290868
-0.0038079606
-0.0012817738
0.0055085427
0.016238744
0.028161288
0.020598131
-0.00041962053
0.0047713251
-0.0083180468
-0.014821224
-0.016385275
-0.013348206
-0.0056742616
0.0066892876
0.02164175
0.017343076
-0.0072549708
-0.0019290868
-0.014821224
-0.021037938
-0.022214512
-0.01865049
-0.010234642
0.0031774307
0.0194927