/*--------------------------------*- C++ -*----------------------------------*\
| =========                 |                                                 |
| \\      /  F ield         | OpenFOAM: The Open Source CFD Toolbox           |
|  \\    /   O peration     | Version:  v2106                                 |
|   \\  /    A nd           | Website:  www.openfoam.com                      |
|    \\/     M anipulation  |                                                 |
\*---------------------------------------------------------------------------*/
FoamFile
{
    version     2.0;
    format      ascii;
    arch        "LSB;label=32;scalar=64";
    class       volScalarField;
    location    "40";
    object      gradTz;
}
// * * * * * * * * * * * * * * * * * * * * * * * * * * * * * * * * * * * * * //

dimensions      [0 -1 0 1 0 0 0];

internalField   nonuniform List<scalar> 
10000
(
2999.1037
2999.1043
2999.1027
2999.1005
2999.0994
2999.0994
2999.0982
2999.0962
2999.092
2999.0887
2999.1043
2999.1042
2999.1019
2999.1
2999.0994
2999.1
2999.0989
2999.0954
2999.0908
2999.0883
2999.1027
2999.1019
2999.1001
2999.0984
2999.0985
2999.0994
2999.0968
2999.0934
2999.0894
2999.086
2999.1005
2999.1
2999.0984
2999.0974
2999.098
2999.0968
2999.0942
2999.0904
2999.085
2999.0822
2999.0994
2999.0994
2999.0985
2999.098
2999.096
2999.0944
2999.0906
2999.0854
2999.0809
2999.0789
2999.0994
2999.1
2999.0994
2999.0968
2999.0944
2999.0907
2999.0847
2999.0798
2999.0759
2999.0746
2999.0982
2999.0989
2999.0968
2999.0942
2999.0906
2999.0847
2999.0783
2999.0734
2999.0706
2999.0704
2999.0962
2999.0954
2999.0934
2999.0904
2999.0854
2999.0798
2999.0734
2999.0693
2999.0676
2999.0676
2999.092
2999.0908
2999.0894
2999.085
2999.0809
2999.0759
2999.0706
2999.0676
2999.0662
2999.067
2999.0887
2999.0883
2999.086
2999.0822
2999.0789
2999.0746
2999.0704
2999.0676
2999.067
2999.0682
2999.1022
2999.1018
2999.0994
2999.0981
2999.0978
2999.0981
2999.0968
2999.0933
2999.0906
2999.0886
2999.1018
2999.1005
2999.0981
2999.0972
2999.0978
2999.0976
2999.0959
2999.0926
2999.0892
2999.0873
2999.0994
2999.0981
2999.0966
2999.0966
2999.0966
2999.0967
2999.0948
2999.0911
2999.0884
2999.0871
2999.0981
2999.0972
2999.0966
2999.096
2999.0962
2999.0957
2999.0935
2999.0901
2999.0877
2999.0866
2999.0978
2999.0978
2999.0966
2999.0962
2999.0953
2999.094
2999.0916
2999.0884
2999.0863
2999.0855
2999.0981
2999.0976
2999.0967
2999.0957
2999.094
2999.0919
2999.089
2999.0861
2999.0843
2999.0835
2999.0968
2999.0959
2999.0948
2999.0935
2999.0916
2999.089
2999.0862
2999.0835
2999.0814
2999.0807
2999.0933
2999.0926
2999.0911
2999.0901
2999.0884
2999.0861
2999.0835
2999.0805
2999.0785
2999.0783
2999.0906
2999.0892
2999.0884
2999.0877
2999.0863
2999.0843
2999.0814
2999.0785
2999.0772
2999.0771
2999.0886
2999.0873
2999.0871
2999.0866
2999.0855
2999.0835
2999.0807
2999.0783
2999.0771
2999.0767
2999.0992
2999.0981
2999.0966
2999.0965
2999.0969
2999.0965
2999.095
2999.0924
2999.0904
2999.0901
2999.0981
2999.0963
2999.0956
2999.0954
2999.0963
2999.0959
2999.0938
2999.0915
2999.0902
2999.0906
2999.0966
2999.0956
2999.0948
2999.0952
2999.0957
2999.0954
2999.0939
2999.0922
2999.0916
2999.0921
2999.0965
2999.0954
2999.0952
2999.0953
2999.0956
2999.0956
2999.0947
2999.0937
2999.0935
2999.0938
2999.0969
2999.0963
2999.0957
2999.0956
2999.0959
2999.096
2999.0959
2999.0955
2999.0951
2999.0947
2999.0965
2999.0959
2999.0954
2999.0956
2999.096
2999.0966
2999.097
2999.0964
2999.0951
2999.094
2999.095
2999.0938
2999.0939
2999.0947
2999.0959
2999.097
2999.097
2999.0954
2999.0933
2999.0921
2999.0924
2999.0915
2999.0922
2999.0937
2999.0955
2999.0964
2999.0954
2999.0929
2999.0907
2999.0898
2999.0904
2999.0902
2999.0916
2999.0935
2999.0951
2999.0951
2999.0933
2999.0907
2999.0886
2999.0877
2999.0901
2999.0906
2999.0921
2999.0938
2999.0947
2999.094
2999.0921
2999.0898
2999.0877
2999.0871
2999.0981
2999.0972
2999.0971
2999.0978
2999.0985
2999.0979
2999.0963
2999.095
2999.0951
2999.0966
2999.0972
2999.0958
2999.0967
2999.0977
2999.0979
2999.0973
2999.0958
2999.0952
2999.0964
2999.0984
2999.0971
2999.0967
2999.097
2999.0978
2999.0979
2999.0974
2999.0969
2999.0974
2999.099
2999.1005
2999.0978
2999.0977
2999.0978
2999.0982
2999.0984
2999.0987
2999.0995
2999.1005
2999.1017
2999.1024
2999.0985
2999.0979
2999.0979
2999.0984
2999.0992
2999.1008
2999.1026
2999.1036
2999.1038
2999.1034
2999.0979
2999.0973
2999.0974
2999.0987
2999.1008
2999.1035
2999.1052
2999.1051
2999.1041
2999.1031
2999.0963
2999.0958
2999.0969
2999.0995
2999.1026
2999.1052
2999.1058
2999.1043
2999.1028
2999.1018
2999.095
2999.0952
2999.0974
2999.1005
2999.1036
2999.1051
2999.1043
2999.1024
2999.1009
2999.1001
2999.0951
2999.0964
2999.099
2999.1017
2999.1038
2999.1041
2999.1028
2999.1009
2999.0992
2999.0991
2999.0966
2999.0984
2999.1005
2999.1024
2999.1034
2999.1031
2999.1018
2999.1001
2999.0991
2999.0997
2999.1019
2999.1019
2999.1033
2999.1047
2999.1051
2999.1041
2999.1027
2999.1029
2999.1049
2999.1071
2999.1019
2999.1024
2999.1042
2999.1055
2999.1051
2999.1037
2999.103
2999.1041
2999.1066
2999.1087
2999.1033
2999.1042
2999.1054
2999.1059
2999.1051
2999.1042
2999.1042
2999.1057
2999.1081
2999.1096
2999.1047
2999.1055
2999.1059
2999.1058
2999.1054
2999.1055
2999.1063
2999.1079
2999.1094
2999.1099
2999.1051
2999.1051
2999.1051
2999.1054
2999.1059
2999.1072
2999.1085
2999.1093
2999.1098
2999.1096
2999.1041
2999.1037
2999.1042
2999.1055
2999.1072
2999.109
2999.1096
2999.1093
2999.1094
2999.1091
2999.1027
2999.103
2999.1042
2999.1063
2999.1085
2999.1096
2999.1091
2999.1085
2999.1088
2999.1087
2999.1029
2999.1041
2999.1057
2999.1079
2999.1093
2999.1093
2999.1085
2999.1082
2999.1085
2999.1086
2999.1049
2999.1066
2999.1081
2999.1094
2999.1098
2999.1094
2999.1088
2999.1085
2999.1091
2999.1095
2999.1071
2999.1087
2999.1096
2999.1099
2999.1096
2999.1091
2999.1087
2999.1086
2999.1095
2999.1093
2999.1113
2999.1126
2999.1149
2999.1165
2999.1159
2999.1142
2999.1132
2999.1141
2999.1166
2999.1183
2999.1126
2999.1148
2999.1169
2999.1176
2999.1163
2999.1142
2999.1135
2999.1149
2999.1174
2999.1187
2999.1149
2999.1169
2999.1181
2999.1177
2999.1158
2999.1141
2999.1136
2999.1148
2999.1169
2999.1178
2999.1165
2999.1176
2999.1177
2999.1168
2999.1153
2999.1141
2999.1137
2999.1145
2999.1159
2999.1164
2999.1159
2999.1163
2999.1158
2999.1153
2999.1144
2999.1137
2999.1133
2999.1136
2999.1146
2999.1152
2999.1142
2999.1142
2999.1141
2999.1141
2999.1137
2999.1129
2999.1121
2999.1125
2999.1139
2999.1147
2999.1132
2999.1135
2999.1136
2999.1137
2999.1133
2999.1121
2999.1115
2999.1125
2999.1143
2999.1152
2999.1141
2999.1149
2999.1148
2999.1145
2999.1136
2999.1125
2999.1125
2999.1141
2999.1158
2999.1166
2999.1166
2999.1174
2999.1169
2999.1159
2999.1146
2999.1139
2999.1143
2999.1158
2999.1177
2999.1176
2999.1183
2999.1187
2999.1178
2999.1164
2999.1152
2999.1147
2999.1152
2999.1166
2999.1176
2999.1155
2999.1233
2999.1258
2999.1279
2999.1285
2999.1271
2999.125
2999.1241
2999.1251
2999.1272
2999.1281
2999.1258
2999.1283
2999.1299
2999.1294
2999.1273
2999.1249
2999.124
2999.125
2999.1268
2999.1275
2999.1279
2999.1299
2999.1302
2999.129
2999.1265
2999.1243
2999.1231
2999.1236
2999.1252
2999.1259
2999.1285
2999.1294
2999.129
2999.1276
2999.1255
2999.1231
2999.1217
2999.1219
2999.1234
2999.1246
2999.1271
2999.1273
2999.1265
2999.1255
2999.1234
2999.121
2999.1197
2999.1205
2999.1223
2999.1238
2999.125
2999.1249
2999.1243
2999.1231
2999.121
2999.1188
2999.1184
2999.12
2999.122
2999.1239
2999.1241
2999.124
2999.1231
2999.1217
2999.1197
2999.1184
2999.1191
2999.1213
2999.1233
2999.125
2999.1251
2999.125
2999.1236
2999.1219
2999.1205
2999.12
2999.1213
2999.1239
2999.1257
2999.1267
2999.1272
2999.1268
2999.1252
2999.1234
2999.1223
2999.122
2999.1233
2999.1257
2999.1264
2999.1267
2999.1281
2999.1275
2999.1259
2999.1246
2999.1238
2999.1239
2999.125
2999.1267
2999.1267
2999.1273
2999.1342
2999.1363
2999.1373
2999.1367
2999.135
2999.1335
2999.1332
2999.1343
2999.1362
2999.1369
2999.1363
2999.1378
2999.138
2999.1368
2999.1349
2999.1334
2999.1329
2999.134
2999.1356
2999.1363
2999.1373
2999.138
2999.1375
2999.1365
2999.1348
2999.1331
2999.1322
2999.1328
2999.1343
2999.1355
2999.1367
2999.1368
2999.1365
2999.1359
2999.1343
2999.1323
2999.1311
2999.1317
2999.1335
2999.135
2999.135
2999.1349
2999.1348
2999.1343
2999.1325
2999.1305
2999.1299
2999.1312
2999.1333
2999.1347
2999.1335
2999.1334
2999.1331
2999.1323
2999.1305
2999.1292
2999.1299
2999.1317
2999.1334
2999.1349
2999.1332
2999.1329
2999.1322
2999.1311
2999.1299
2999.1299
2999.1315
2999.1336
2999.1352
2999.1363
2999.1343
2999.134
2999.1328
2999.1317
2999.1312
2999.1317
2999.1336
2999.1358
2999.1373
2999.1376
2999.1362
2999.1356
2999.1343
2999.1335
2999.1333
2999.1334
2999.1352
2999.1373
2999.1379
2999.1386
2999.1369
2999.1363
2999.1355
2999.135
2999.1347
2999.1349
2999.1363
2999.1376
2999.1386
2999.1412
2999.1412
2999.1416
2999.1412
2999.1403
2999.1396
2999.1397
2999.1409
2999.1429
2999.1451
2999.1461
2999.1416
2999.1412
2999.1406
2999.1399
2999.1397
2999.14
2999.141
2999.143
2999.145
2999.1458
2999.1412
2999.1406
2999.1404
2999.1408
2999.1409
2999.1409
2999.1414
2999.1428
2999.1443
2999.145
2999.1403
2999.1399
2999.1408
2999.1419
2999.1419
2999.1414
2999.1416
2999.1424
2999.1439
2999.1441
2999.1396
2999.1397
2999.1409
2999.1419
2999.1415
2999.1411
2999.1414
2999.1422
2999.1433
2999.1432
2999.1397
2999.14
2999.1409
2999.1414
2999.1411
2999.141
2999.1417
2999.1425
2999.1435
2999.1433
2999.1409
2999.141
2999.1414
2999.1416
2999.1414
2999.1417
2999.1431
2999.1445
2999.1456
2999.1455
2999.1429
2999.143
2999.1428
2999.1424
2999.1422
2999.1425
2999.1445
2999.1463
2999.1474
2999.148
2999.1451
2999.145
2999.1443
2999.1439
2999.1433
2999.1435
2999.1456
2999.1474
2999.1498
2999.1511
2999.1461
2999.1458
2999.145
2999.1441
2999.1432
2999.1433
2999.1455
2999.148
2999.1511
2999.1506
2999.1451
2999.1441
2999.1432
2999.1431
2999.1442
2999.1464
2999.1494
2999.1525
2999.1551
2999.1561
2999.1441
2999.1426
2999.1423
2999.1431
2999.1449
2999.1473
2999.1501
2999.1531
2999.1552
2999.1554
2999.1432
2999.1423
2999.1432
2999.1452
2999.147
2999.1488
2999.1509
2999.1529
2999.154
2999.1533
2999.1431
2999.1431
2999.1452
2999.1475
2999.1488
2999.1498
2999.1512
2999.1519
2999.1522
2999.1511
2999.1442
2999.1449
2999.147
2999.1488
2999.1493
2999.1502
2999.1506
2999.1508
2999.1509
2999.1502
2999.1464
2999.1473
2999.1488
2999.1498
2999.1502
2999.1501
2999.1507
2999.1512
2999.1519
2999.1521
2999.1494
2999.1501
2999.1509
2999.1512
2999.1506
2999.1507
2999.1522
2999.1538
2999.1553
2999.1562
2999.1525
2999.1531
2999.1529
2999.1519
2999.1508
2999.1512
2999.1538
2999.1565
2999.1587
2999.1604
2999.1551
2999.1552
2999.154
2999.1522
2999.1509
2999.1519
2999.1553
2999.1587
2999.162
2999.1637
2999.1561
2999.1554
2999.1533
2999.1511
2999.1502
2999.1521
2999.1562
2999.1604
2999.1637
2999.1634
2999.1507
2999.1496
2999.1491
2999.1501
2999.1525
2999.1563
2999.1607
2999.1643
2999.1666
2999.1669
2999.1496
2999.1484
2999.1489
2999.1506
2999.1536
2999.1575
2999.1614
2999.1646
2999.1661
2999.1655
2999.1491
2999.1489
2999.1504
2999.1528
2999.1553
2999.1582
2999.161
2999.163
2999.1633
2999.1623
2999.1501
2999.1506
2999.1528
2999.1548
2999.1561
2999.1579
2999.1597
2999.1604
2999.1603
2999.1603
2999.1525
2999.1536
2999.1553
2999.1561
2999.1563
2999.1574
2999.1581
2999.1591
2999.1601
2999.1611
2999.1563
2999.1575
2999.1582
2999.1579
2999.1574
2999.1575
2999.159
2999.161
2999.1632
2999.1652
2999.1607
2999.1614
2999.161
2999.1597
2999.1581
2999.159
2999.1617
2999.165
2999.1683
2999.1704
2999.1643
2999.1646
2999.163
2999.1604
2999.1591
2999.161
2999.165
2999.1694
2999.1738
2999.1746
2999.1666
2999.1661
2999.1633
2999.1603
2999.1601
2999.1632
2999.1683
2999.1738
2999.1771
2999.1766
2999.1669
2999.1655
2999.1623
2999.1603
2999.1611
2999.1652
2999.1704
2999.1746
2999.1766
2999.1781
2999.1621
2999.162
2999.162
2999.1631
2999.1657
2999.1698
2999.1744
2999.1775
2999.1786
2999.1782
2999.162
2999.1618
2999.1623
2999.1636
2999.1663
2999.1706
2999.1744
2999.1767
2999.1772
2999.1765
2999.162
2999.1623
2999.163
2999.1641
2999.1662
2999.1691
2999.1718
2999.1734
2999.1738
2999.1739
2999.1631
2999.1636
2999.1641
2999.1644
2999.165
2999.1669
2999.1689
2999.1705
2999.1719
2999.1736
2999.1657
2999.1663
2999.1662
2999.165
2999.1645
2999.1659
2999.1681
2999.171
2999.174
2999.1764
2999.1698
2999.1706
2999.1691
2999.1669
2999.1659
2999.1674
2999.1708
2999.1747
2999.1786
2999.1806
2999.1744
2999.1744
2999.1718
2999.1689
2999.1681
2999.1708
2999.175
2999.18
2999.1834
2999.1842
2999.1775
2999.1767
2999.1734
2999.1705
2999.171
2999.1747
2999.18
2999.1849
2999.1876
2999.1868
2999.1786
2999.1772
2999.1738
2999.1719
2999.174
2999.1786
2999.1834
2999.1876
2999.1884
2999.1873
2999.1782
2999.1765
2999.1739
2999.1736
2999.1764
2999.1806
2999.1842
2999.1868
2999.1873
2999.1853
2999.1794
2999.1804
2999.1799
2999.18
2999.1816
2999.1848
2999.1883
2999.1903
2999.1902
2999.1897
2999.1804
2999.1805
2999.1799
2999.1797
2999.181
2999.1844
2999.1872
2999.1885
2999.1887
2999.1884
2999.1799
2999.1799
2999.1787
2999.1777
2999.1788
2999.181
2999.1836
2999.1855
2999.1866
2999.1877
2999.18
2999.1797
2999.1777
2999.1764
2999.1761
2999.1784
2999.1813
2999.1843
2999.1868
2999.1888
2999.1816
2999.181
2999.1788
2999.1761
2999.176
2999.1784
2999.1825
2999.1867
2999.1899
2999.1912
2999.1848
2999.1844
2999.181
2999.1784
2999.1784
2999.1816
2999.1863
2999.1907
2999.1931
2999.1929
2999.1883
2999.1872
2999.1836
2999.1813
2999.1825
2999.1863
2999.1908
2999.1946
2999.1952
2999.1931
2999.1903
2999.1885
2999.1855
2999.1843
2999.1867
2999.1907
2999.1946
2999.1967
2999.1947
2999.1926
2999.1902
2999.1887
2999.1866
2999.1868
2999.1899
2999.1931
2999.1952
2999.1947
2999.1921
2999.1913
2999.1897
2999.1884
2999.1877
2999.1888
2999.1912
2999.1929
2999.1931
2999.1926
2999.1913
2999.1879
2999.199
2999.2
2999.1984
2999.1973
2999.1976
2999.1989
2999.2004
2999.2015
2999.2013
2999.2013
2999.2
2999.1996
2999.1977
2999.1963
2999.1958
2999.1972
2999.1989
2999.2001
2999.2008
2999.2011
2999.1984
2999.1977
2999.1953
2999.1926
2999.1927
2999.1938
2999.1964
2999.1991
2999.2006
2999.2019
2999.1973
2999.1963
2999.1926
2999.1909
2999.1901
2999.1924
2999.1962
2999.1995
2999.2016
2999.2026
2999.1976
2999.1958
2999.1927
2999.1901
2999.1908
2999.1939
2999.1982
2999.2016
2999.2031
2999.2027
2999.1989
2999.1972
2999.1938
2999.1924
2999.1939
2999.197
2999.2007
2999.203
2999.2024
2999.2008
2999.2004
2999.1989
2999.1964
2999.1962
2999.1982
2999.2007
2999.2029
2999.2025
2999.1999
2999.1982
2999.2015
2999.2001
2999.1991
2999.1995
2999.2016
2999.203
2999.2025
2999.1995
2999.1964
2999.1952
2999.2013
2999.2008
2999.2006
2999.2016
2999.2031
2999.2024
2999.1999
2999.1964
2999.195
2999.1932
2999.2013
2999.2011
2999.2019
2999.2026
2999.2027
2999.2008
2999.1982
2999.1952
2999.1932
2999.1933
2999.2168
2999.2171
2999.2149
2999.2128
2999.2119
2999.2114
2999.2109
2999.212
2999.2124
2999.2131
2999.2171
2999.2162
2999.2135
2999.2119
2999.2102
2999.2094
2999.2104
2999.2119
2999.213
2999.2138
2999.2149
2999.2135
2999.2115
2999.2086
2999.2079
2999.2081
2999.2101
2999.2124
2999.2137
2999.2147
2999.2128
2999.2119
2999.2086
2999.2072
2999.2073
2999.2089
2999.2113
2999.2133
2999.2142
2999.2139
2999.2119
2999.2102
2999.2079
2999.2073
2999.2089
2999.2109
2999.2127
2999.214
2999.2133
2999.2122
2999.2114
2999.2094
2999.2081
2999.2089
2999.2109
2999.2121
2999.2125
2999.2118
2999.2097
2999.2089
2999.2109
2999.2104
2999.2101
2999.2113
2999.2127
2999.2125
2999.2103
2999.2071
2999.2045
2999.2052
2999.212
2999.2119
2999.2124
2999.2133
2999.214
2999.2118
2999.2071
2999.2032
2999.2025
2999.2034
2999.2124
2999.213
2999.2137
2999.2142
2999.2133
2999.2097
2999.2045
2999.2025
2999.2027
2999.2041
2999.2131
2999.2138
2999.2147
2999.2139
2999.2122
2999.2089
2999.2052
2999.2034
2999.2041
2999.207
2999.2312
2999.2307
2999.2286
2999.2262
2999.2245
2999.2231
2999.2216
2999.2223
2999.223
2999.2244
2999.2307
2999.2298
2999.227
2999.2259
2999.2243
2999.2222
2999.2218
2999.2229
2999.2239
2999.2247
2999.2286
2999.227
2999.2262
2999.2249
2999.2236
2999.2229
2999.2229
2999.2238
2999.2248
2999.2243
2999.2262
2999.2259
2999.2249
2999.2242
2999.2248
2999.2249
2999.2246
2999.2249
2999.2245
2999.2232
2999.2245
2999.2243
2999.2236
2999.2248
2999.2267
2999.2264
2999.225
2999.2243
2999.2225
2999.2218
2999.2231
2999.2222
2999.2229
2999.2249
2999.2264
2999.2252
2999.2226
2999.2203
2999.2193
2999.2194
2999.2216
2999.2218
2999.2229
2999.2246
2999.225
2999.2226
2999.2186
2999.2167
2999.2174
2999.218
2999.2223
2999.2229
2999.2238
2999.2249
2999.2243
2999.2203
2999.2167
2999.2163
2999.2177
2999.2182
2999.223
2999.2239
2999.2248
2999.2245
2999.2225
2999.2193
2999.2174
2999.2177
2999.2182
2999.221
2999.2244
2999.2247
2999.2243
2999.2232
2999.2218
2999.2194
2999.218
2999.2182
2999.221
2999.2228
2999.2439
2999.2419
2999.2402
2999.238
2999.2362
2999.2341
2999.2326
2999.2325
2999.2328
2999.2334
2999.2419
2999.2411
2999.2384
2999.2374
2999.2372
2999.2349
2999.2328
2999.2325
2999.2327
2999.2322
2999.2402
2999.2384
2999.2381
2999.2392
2999.2386
2999.2362
2999.2341
2999.2339
2999.2334
2999.2319
2999.238
2999.2374
2999.2392
2999.2403
2999.2399
2999.2377
2999.2357
2999.2345
2999.2332
2999.2328
2999.2362
2999.2372
2999.2386
2999.2399
2999.2405
2999.2379
2999.2352
2999.2331
2999.2318
2999.2321
2999.2341
2999.2349
2999.2362
2999.2377
2999.2379
2999.2355
2999.2332
2999.2318
2999.2319
2999.2313
2999.2326
2999.2328
2999.2341
2999.2357
2999.2352
2999.2332
2999.2314
2999.2319
2999.2338
2999.2339
2999.2325
2999.2325
2999.2339
2999.2345
2999.2331
2999.2318
2999.2319
2999.2329
2999.2342
2999.2355
2999.2328
2999.2327
2999.2334
2999.2332
2999.2318
2999.2319
2999.2338
2999.2342
2999.2371
2999.236
2999.2334
2999.2322
2999.2319
2999.2328
2999.2321
2999.2313
2999.2339
2999.2355
2999.236
2999.2342
2999.2586
2999.2538
2999.2513
2999.2494
2999.2482
2999.2452
2999.2438
2999.2444
2999.244
2999.2422
2999.2538
2999.2509
2999.2489
2999.2479
2999.2484
2999.247
2999.2444
2999.2428
2999.241
2999.2403
2999.2513
2999.2489
2999.2489
2999.2516
2999.2524
2999.2495
2999.2462
2999.2444
2999.2418
2999.2431
2999.2494
2999.2479
2999.2516
2999.2549
2999.2545
2999.2502
2999.2468
2999.2446
2999.2429
2999.2448
2999.2482
2999.2484
2999.2524
2999.2545
2999.2539
2999.2499
2999.2467
2999.2448
2999.2434
2999.2438
2999.2452
2999.247
2999.2495
2999.2502
2999.2499
2999.2482
2999.2471
2999.2465
2999.2446
2999.2444
2999.2438
2999.2444
2999.2462
2999.2468
2999.2467
2999.2471
2999.2474
2999.2474
2999.2456
2999.2467
2999.2444
2999.2428
2999.2444
2999.2446
2999.2448
2999.2465
2999.2474
2999.2472
2999.246
2999.2491
2999.244
2999.241
2999.2418
2999.2429
2999.2434
2999.2446
2999.2456
2999.246
2999.2464
2999.2473
2999.2422
2999.2403
2999.2431
2999.2448
2999.2438
2999.2444
2999.2467
2999.2491
2999.2473
2999.2466
2999.2809
2999.2713
2999.2691
2999.2689
2999.2678
2999.2619
2999.2576
2999.2614
2999.2646
2999.2649
2999.2713
2999.2689
2999.2684
2999.2682
2999.2672
2999.2641
2999.2596
2999.2592
2999.2604
2999.2642
2999.2691
2999.2684
2999.2682
2999.2685
2999.2676
2999.2654
2999.2613
2999.2585
2999.2572
2999.2643
2999.2689
2999.2682
2999.2685
2999.2702
2999.2694
2999.2657
2999.2612
2999.2589
2999.2581
2999.2662
2999.2678
2999.2672
2999.2676
2999.2694
2999.2692
2999.266
2999.2618
2999.2594
2999.2579
2999.263
2999.2619
2999.2641
2999.2654
2999.2657
2999.266
2999.2665
2999.2653
2999.2641
2999.2584
2999.2575
2999.2576
2999.2596
2999.2613
2999.2612
2999.2618
2999.2653
2999.2662
2999.2643
2999.2576
2999.2535
2999.2614
2999.2592
2999.2585
2999.2589
2999.2594
2999.2641
2999.2643
2999.2605
2999.255
2999.2534
2999.2646
2999.2604
2999.2572
2999.2581
2999.2579
2999.2584
2999.2576
2999.255
2999.2533
2999.2587
2999.2649
2999.2642
2999.2643
2999.2662
2999.263
2999.2575
2999.2535
2999.2534
2999.2587
2999.265
2999.2935
2999.2907
2999.2847
2999.2844
2999.2852
2999.2876
2999.2859
2999.2768
2999.2726
2999.2714
2999.2907
2999.2874
2999.2876
2999.2903
2999.2891
2999.2857
2999.2836
2999.2811
2999.2796
2999.2761
2999.2847
2999.2876
2999.2935
2999.2953
2999.2924
2999.2866
2999.2842
2999.2819
2999.2817
2999.2752
2999.2844
2999.2903
2999.2953
2999.2938
2999.2908
2999.2866
2999.2821
2999.279
2999.2796
2999.2722
2999.2852
2999.2891
2999.2924
2999.2908
2999.2875
2999.2848
2999.2812
2999.2771
2999.2796
2999.2759
2999.2876
2999.2857
2999.2866
2999.2866
2999.2848
2999.2825
2999.2781
2999.2737
2999.2785
2999.2799
2999.2859
2999.2836
2999.2842
2999.2821
2999.2812
2999.2781
2999.2751
2999.271
2999.2747
2999.2767
2999.2768
2999.2811
2999.2819
2999.279
2999.2771
2999.2737
2999.271
2999.27
2999.2733
2999.2736
2999.2726
2999.2796
2999.2817
2999.2796
2999.2796
2999.2785
2999.2747
2999.2733
2999.2756
2999.2752
2999.2714
2999.2761
2999.2752
2999.2722
2999.2759
2999.2799
2999.2767
2999.2736
2999.2752
2999.2796
2999.3058
2999.3158
2999.3172
2999.3132
2999.3091
2999.313
2999.3148
2999.3063
2999.298
2999.2934
2999.3158
2999.3173
2999.3174
2999.3145
2999.3108
2999.3124
2999.312
2999.3076
2999.3033
2999.2973
2999.3172
2999.3174
2999.3176
2999.3157
2999.3132
2999.3127
2999.3108
2999.308
2999.3061
2999.2965
2999.3132
2999.3145
2999.3157
2999.3121
2999.3101
2999.3094
2999.3074
2999.3039
2999.3013
2999.2896
2999.3091
2999.3108
2999.3132
2999.3101
2999.3053
2999.3049
2999.303
2999.2993
2999.2985
2999.2906
2999.313
2999.3124
2999.3127
2999.3094
2999.3049
2999.301
2999.2955
2999.2909
2999.294
2999.2952
2999.3148
2999.312
2999.3108
2999.3074
2999.303
2999.2955
2999.2898
2999.2856
2999.2898
2999.295
2999.3063
2999.3076
2999.308
2999.3039
2999.2993
2999.2909
2999.2856
2999.2855
2999.2906
2999.2934
2999.298
2999.3033
2999.3061
2999.3013
2999.2985
2999.294
2999.2898
2999.2906
2999.2916
2999.289
2999.2934
2999.2973
2999.2965
2999.2896
2999.2906
2999.2952
2999.295
2999.2934
2999.289
2999.2853
2999.3329
2999.3418
2999.3454
2999.3431
2999.3365
2999.333
2999.3314
2999.3326
2999.3334
2999.3319
2999.3418
2999.3489
2999.3455
2999.3392
2999.3355
2999.3356
2999.3348
2999.3315
2999.3284
2999.3281
2999.3454
2999.3455
2999.3369
2999.3297
2999.328
2999.3331
2999.3314
2999.3266
2999.3237
2999.3256
2999.3431
2999.3392
2999.3297
2999.3253
2999.3264
2999.3292
2999.3293
2999.3254
2999.3212
2999.3244
2999.3365
2999.3355
2999.328
2999.3264
2999.3244
2999.3248
2999.3238
2999.321
2999.3171
2999.3188
2999.333
2999.3356
2999.3331
2999.3292
2999.3248
2999.3216
2999.3194
2999.3191
2999.3141
2999.3113
2999.3314
2999.3348
2999.3314
2999.3293
2999.3238
2999.3194
2999.317
2999.3167
2999.3123
2999.3089
2999.3326
2999.3315
2999.3266
2999.3254
2999.321
2999.3191
2999.3167
2999.314
2999.3099
2999.3081
2999.3334
2999.3284
2999.3237
2999.3212
2999.3171
2999.3141
2999.3123
2999.3099
2999.3076
2999.3065
2999.3319
2999.3281
2999.3256
2999.3244
2999.3188
2999.3113
2999.3089
2999.3081
2999.3065
2999.3012
2999.3547
2999.3542
2999.3497
2999.3494
2999.349
2999.3479
2999.3448
2999.3414
2999.3418
2999.3414
2999.3542
2999.3539
2999.3514
2999.3482
2999.3485
2999.3475
2999.3465
2999.3433
2999.3399
2999.3383
2999.3497
2999.3514
2999.347
2999.3445
2999.3441
2999.3462
2999.3453
2999.3414
2999.3395
2999.3393
2999.3494
2999.3482
2999.3445
2999.3429
2999.344
2999.3455
2999.3452
2999.343
2999.3416
2999.3423
2999.349
2999.3485
2999.3441
2999.344
2999.3442
2999.3438
2999.3441
2999.3436
2999.3424
2999.343
2999.3479
2999.3475
2999.3462
2999.3455
2999.3438
2999.342
2999.3424
2999.3429
2999.3424
2999.3407
2999.3448
2999.3465
2999.3453
2999.3452
2999.3441
2999.3424
2999.3424
2999.3427
2999.3415
2999.3387
2999.3414
2999.3433
2999.3414
2999.343
2999.3436
2999.3429
2999.3427
2999.3419
2999.3385
2999.336
2999.3418
2999.3399
2999.3395
2999.3416
2999.3424
2999.3424
2999.3415
2999.3385
2999.3351
2999.333
2999.3414
2999.3383
2999.3393
2999.3423
2999.343
2999.3407
2999.3387
2999.336
2999.333
2999.3301
2999.3618
2999.3587
2999.3573
2999.3557
2999.3573
2999.3563
2999.3551
2999.3537
2999.3515
2999.3521
2999.3587
2999.355
2999.3553
2999.3533
2999.3553
2999.3562
2999.3542
2999.3533
2999.353
2999.3542
2999.3573
2999.3553
2999.3538
2999.3552
2999.3565
2999.3571
2999.357
2999.3573
2999.3575
2999.3578
2999.3557
2999.3533
2999.3552
2999.3569
2999.3579
2999.3597
2999.3612
2999.3628
2999.3626
2999.3618
2999.3573
2999.3553
2999.3565
2999.3579
2999.3604
2999.3626
2999.3654
2999.3668
2999.3653
2999.3641
2999.3563
2999.3562
2999.3571
2999.3597
2999.3626
2999.3655
2999.3684
2999.368
2999.3656
2999.3643
2999.3551
2999.3542
2999.357
2999.3612
2999.3654
2999.3684
2999.3687
2999.3665
2999.3649
2999.3635
2999.3537
2999.3533
2999.3573
2999.3628
2999.3668
2999.368
2999.3665
2999.365
2999.3629
2999.3613
2999.3515
2999.353
2999.3575
2999.3626
2999.3653
2999.3656
2999.3649
2999.3629
2999.36
2999.3603
2999.3521
2999.3542
2999.3578
2999.3618
2999.3641
2999.3643
2999.3635
2999.3613
2999.3603
2999.3608
2999.3633
2999.3644
2999.365
2999.3661
2999.3677
2999.3675
2999.3682
2999.3679
2999.3672
2999.3693
2999.3644
2999.3633
2999.3642
2999.3674
2999.3683
2999.3684
2999.3689
2999.3701
2999.371
2999.3733
2999.365
2999.3642
2999.3666
2999.3698
2999.3708
2999.371
2999.373
2999.3753
2999.3764
2999.3775
2999.3661
2999.3674
2999.3698
2999.3724
2999.3741
2999.3762
2999.3794
2999.3818
2999.3822
2999.3817
2999.3677
2999.3683
2999.3708
2999.3741
2999.3772
2999.381
2999.385
2999.3866
2999.3856
2999.384
2999.3675
2999.3684
2999.371
2999.3762
2999.381
2999.3855
2999.3884
2999.3881
2999.3863
2999.385
2999.3682
2999.3689
2999.373
2999.3794
2999.385
2999.3884
2999.3886
2999.3869
2999.386
2999.3856
2999.3679
2999.3701
2999.3753
2999.3818
2999.3866
2999.3881
2999.3869
2999.3859
2999.3862
2999.3852
2999.3672
2999.371
2999.3764
2999.3822
2999.3856
2999.3863
2999.386
2999.3862
2999.386
2999.3859
2999.3693
2999.3733
2999.3775
2999.3817
2999.384
2999.385
2999.3856
2999.3852
2999.3859
2999.385
2999.3766
2999.3785
2999.3814
2999.3851
2999.3871
2999.3882
2999.3882
2999.3887
2999.3901
2999.3913
2999.3785
2999.3787
2999.3842
2999.3884
2999.3887
2999.389
2999.3897
2999.3911
2999.3927
2999.3941
2999.3814
2999.3842
2999.388
2999.3899
2999.3903
2999.3915
2999.3929
2999.3945
2999.396
2999.397
2999.3851
2999.3884
2999.3899
2999.3915
2999.3934
2999.3952
2999.3971
2999.3989
2999.3998
2999.3999
2999.3871
2999.3887
2999.3903
2999.3934
2999.3959
2999.3988
2999.401
2999.4023
2999.4025
2999.4017
2999.3882
2999.389
2999.3915
2999.3952
2999.3988
2999.4015
2999.403
2999.4035
2999.4038
2999.403
2999.3882
2999.3897
2999.3929
2999.3971
2999.401
2999.403
2999.4035
2999.4045
2999.4047
2999.4045
2999.3887
2999.3911
2999.3945
2999.3989
2999.4023
2999.4035
2999.4045
2999.4054
2999.4064
2999.4056
2999.3901
2999.3927
2999.396
2999.3998
2999.4025
2999.4038
2999.4047
2999.4064
2999.4073
2999.4054
2999.3913
2999.3941
2999.397
2999.3999
2999.4017
2999.403
2999.4045
2999.4056
2999.4054
2999.4011
2999.398
2999.399
2999.4043
2999.4091
2999.4119
2999.4121
2999.4117
2999.4118
2999.4131
2999.4133
2999.399
2999.4024
2999.4078
2999.4107
2999.4127
2999.4125
2999.4122
2999.4127
2999.4138
2999.4146
2999.4043
2999.4078
2999.41
2999.4117
2999.4124
2999.4124
2999.4126
2999.4132
2999.4148
2999.4156
2999.4091
2999.4107
2999.4117
2999.4124
2999.413
2999.4128
2999.4133
2999.4145
2999.4161
2999.4175
2999.4119
2999.4127
2999.4124
2999.413
2999.4131
2999.4132
2999.4141
2999.4163
2999.4182
2999.4193
2999.4121
2999.4125
2999.4124
2999.4128
2999.4132
2999.4136
2999.4159
2999.4185
2999.4202
2999.4213
2999.4117
2999.4122
2999.4126
2999.4133
2999.4141
2999.4159
2999.4185
2999.4219
2999.4224
2999.4232
2999.4118
2999.4127
2999.4132
2999.4145
2999.4163
2999.4185
2999.4219
2999.424
2999.4248
2999.4245
2999.4131
2999.4138
2999.4148
2999.4161
2999.4182
2999.4202
2999.4224
2999.4248
2999.4239
2999.4231
2999.4133
2999.4146
2999.4156
2999.4175
2999.4193
2999.4213
2999.4232
2999.4245
2999.4231
2999.4231
2999.4192
2999.4214
2999.4274
2999.4327
2999.4346
2999.4345
2999.4341
2999.4336
2999.4341
2999.4341
2999.4214
2999.427
2999.43
2999.4331
2999.4345
2999.4342
2999.4335
2999.4331
2999.4336
2999.4344
2999.4274
2999.43
2999.431
2999.4332
2999.4332
2999.4321
2999.4315
2999.4315
2999.4331
2999.4347
2999.4327
2999.4331
2999.4332
2999.4332
2999.4316
2999.4298
2999.4295
2999.4308
2999.4336
2999.4362
2999.4346
2999.4345
2999.4332
2999.4316
2999.4291
2999.4277
2999.4288
2999.432
2999.4353
2999.4377
2999.4345
2999.4342
2999.4321
2999.4298
2999.4277
2999.4278
2999.4314
2999.4347
2999.4373
2999.4391
2999.4341
2999.4335
2999.4315
2999.4295
2999.4288
2999.4314
2999.4353
2999.4389
2999.44
2999.4411
2999.4336
2999.4331
2999.4315
2999.4308
2999.432
2999.4347
2999.4389
2999.441
2999.4422
2999.4421
2999.4341
2999.4336
2999.4331
2999.4336
2999.4353
2999.4373
2999.44
2999.4422
2999.4421
2999.4425
2999.4341
2999.4344
2999.4347
2999.4362
2999.4377
2999.4391
2999.4411
2999.4421
2999.4425
2999.4459
2999.4401
2999.4443
2999.448
2999.4518
2999.4536
2999.4545
2999.4539
2999.4533
2999.4536
2999.4542
2999.4443
2999.4456
2999.4488
2999.4523
2999.4536
2999.4535
2999.4526
2999.452
2999.453
2999.4542
2999.448
2999.4488
2999.451
2999.4523
2999.4522
2999.451
2999.4499
2999.4501
2999.4521
2999.4535
2999.4518
2999.4523
2999.4523
2999.452
2999.4501
2999.4484
2999.4482
2999.4493
2999.452
2999.4531
2999.4536
2999.4536
2999.4522
2999.4501
2999.4476
2999.4466
2999.4478
2999.4497
2999.4519
2999.4527
2999.4545
2999.4535
2999.451
2999.4484
2999.4466
2999.4472
2999.4493
2999.4507
2999.4527
2999.4528
2999.4539
2999.4526
2999.4499
2999.4482
2999.4478
2999.4493
2999.4517
2999.4537
2999.4552
2999.4553
2999.4533
2999.452
2999.4501
2999.4493
2999.4497
2999.4507
2999.4537
2999.4556
2999.4569
2999.4577
2999.4536
2999.453
2999.4521
2999.452
2999.4519
2999.4527
2999.4552
2999.4569
2999.4597
2999.4607
2999.4542
2999.4542
2999.4535
2999.4531
2999.4527
2999.4528
2999.4553
2999.4577
2999.4607
2999.4587
2999.4598
2999.4617
2999.4636
2999.4666
2999.4693
2999.4713
2999.4709
2999.4712
2999.473
2999.4743
2999.4617
2999.4609
2999.4636
2999.4669
2999.4693
2999.4697
2999.4692
2999.4703
2999.4727
2999.4736
2999.4636
2999.4636
2999.466
2999.4678
2999.4686
2999.4681
2999.468
2999.4695
2999.4713
2999.4708
2999.4666
2999.4669
2999.4678
2999.4684
2999.4677
2999.4673
2999.4677
2999.4684
2999.4692