/*--------------------------------*- C++ -*----------------------------------*\
| =========                 |                                                 |
| \\      /  F ield         | OpenFOAM: The Open Source CFD Toolbox           |
|  \\    /   O peration     | Version:  v2106                                 |
|   \\  /    A nd           | Website:  www.openfoam.com                      |
|    \\/     M anipulation  |                                                 |
\*---------------------------------------------------------------------------*/
FoamFile
{
    version     2.0;
    format      ascii;
    arch        "LSB;label=32;scalar=64";
    class       volScalarField;
    location    "40";
    object      gradTx;
}
// * * * * * * * * * * * * * * * * * * * * * * * * * * * * * * * * * * * * * //

dimensions      [0 -1 0 1 0 0 0];

internalField   nonuniform List<scalar> 
10000
(
0.00014709246
-5.2534261e-05
-0.00084661082
-0.00084952487
-0.00037916897
-0.00041898616
-0.00059584823
-0.0015304164
-0.0021794685
-0.00061933078
5.7950823e-05
-0.00040145849
-0.0010499948
-0.00080939174
-1.6300021e-05
-2.6274364e-05
-0.001097149
-0.0020574973
-0.001829083
-0.00040731913
-8.552369e-05
-0.000574723
-0.0010571739
-0.00053098634
0.0004083974
-0.00044495886
-0.0014997018
-0.0017867419
-0.0020380252
-0.00065158597
-7.7638541e-05
-0.00061202169
-0.00076257092
-5.4474384e-05
-0.0001569222
-0.0010289491
-0.0015453562
-0.0024481544
-0.0023523957
-0.00052673549
-5.8768137e-05
-0.00025618439
-0.00030225658
-0.00067203703
-0.00092772453
-0.0014199543
-0.0023521073
-0.0026417223
-0.0019331518
-0.00040899619
0.00016427415
0.0001755449
-0.00090319298
-0.0013905964
-0.0015495227
-0.0026398543
-0.0029592516
-0.0024872905
-0.0015704271
-0.00026252453
0.00020303937
-0.00028215766
-0.0013049312
-0.0016470324
-0.0025386301
-0.0034732919
-0.0032334775
-0.0021228794
-0.00077047125
-1.1726475e-05
-0.00016992648
-0.00072830881
-0.0013514
-0.0022430017
-0.0029634183
-0.0035212249
-0.0029877179
-0.0015027366
-0.00044829304
-6.9646832e-06
-0.00014834764
-0.00053848251
-0.0016955885
-0.002502013
-0.0025777659
-0.0029544492
-0.0022489238
-0.0011521871
-0.00019186513
0.00014031135
6.3663985e-05
-0.00058686572
-0.0018747131
-0.0021381282
-0.0021814495
-0.0023585445
-0.001865584
-0.00092413049
0.00024276616
0.00028278966
0.0001398502
-0.0013758714
-0.0031270015
-0.0023393729
-0.0004601672
-0.00054460457
-0.0030315107
-0.0047132131
-0.0048205943
-0.001504291
-0.00028423906
-0.0024430038
-0.0030813794
-0.001300726
8.3633725e-06
-0.00064220603
-0.0036238364
-0.005915243
-0.0052043901
-0.0013509483
-0.00057157119
-0.0022301902
-0.0020156032
-0.00078102664
0.00032085532
-0.0012162637
-0.0045494498
-0.0056672465
-0.0049757671
-0.001455063
-0.00025382426
-0.0013316049
-0.0015963202
-0.000505381
-0.00054092135
-0.0025719162
-0.0049678031
-0.0064844877
-0.0052066785
-0.0011993798
0.00012085997
-0.00067184379
-0.0012202578
-0.0017012082
-0.0025787137
-0.0038840202
-0.0063985245
-0.0066094931
-0.0040154524
-0.00077672871
5.8529357e-05
-0.00055058231
-0.0021456044
-0.0034049499
-0.0044608348
-0.0065438053
-0.0075077899
-0.0058029348
-0.0030794685
-0.00053575411
5.5792346e-05
-0.0013435032
-0.003149968
-0.0043689646
-0.0065506028
-0.0080300455
-0.0073551785
-0.0050650778
-0.0021239607
-0.00019228694
-0.00033635437
-0.0020685217
-0.0034895715
-0.0052540244
-0.0070008215
-0.0075004595
-0.0066776574
-0.004200453
-0.00121104
9.3224457e-05
-0.00074556097
-0.0022975364
-0.0037192124
-0.0053112111
-0.0058690503
-0.0064856305
-0.0057526968
-0.003221394
-0.00028497891
0.0003809948
-0.00059221827
-0.0022236943
-0.0034918599
-0.0042937102
-0.0048736115
-0.0056089675
-0.0048092294
-0.0023614717
0.00016014769
0.00038997539
-9.6778612e-05
-0.0028190048
-0.0045610751
-0.0024907766
-0.00040331591
-0.001398186
-0.0053334244
-0.0076941951
-0.0069255721
-0.0019775952
-0.00081777606
-0.0040574613
-0.004307894
-0.0011067865
0.00033964133
-0.0019677251
-0.00609394
-0.0088067339
-0.0071048955
-0.001636697
-0.00092241642
-0.0033537295
-0.002629851
-0.00053543826
0.0005096407
-0.0022592258
-0.0070427156
-0.0082015562
-0.0060862722
-0.0015219154
-0.00064898866
-0.0021262377
-0.001958818
-0.00046804541
-0.00046511966
-0.0037106099
-0.0071494449
-0.0082575779
-0.0058617134
-0.0012307387
2.4359343e-07
-0.0013983912
-0.0019911101
-0.0019922491
-0.0031218887
-0.0051404191
-0.0079649873
-0.0079310706
-0.0047408621
-0.00090423519
-0.00015368403
-0.0012132808
-0.0027635784
-0.0040995747
-0.0054156996
-0.0076243367
-0.0087069949
-0.0071361322
-0.0041720338
-0.00081033892
-0.00037944911
-0.0022594307
-0.0037339945
-0.004873442
-0.0070356151
-0.0087998723
-0.0086996074
-0.0069630417
-0.0036248115
-0.00051161017
-0.0006606943
-0.0029225718
-0.0038190835
-0.0050218468
-0.0069732495
-0.0083589563
-0.0085988152
-0.0064986051
-0.0026293921
-0.00013973456
-0.0011211417
-0.002766792
-0.0031848388
-0.0046029569
-0.0059141695
-0.0078318434
-0.0080620804
-0.0053987154
-0.0016435941
7.5941708e-05
-0.00078024319
-0.0020832718
-0.0025759016
-0.003676437
-0.0052835696
-0.0072429054
-0.0070561738
-0.0045173881
-0.0014046351
1.957155e-05
-0.00057947678
-0.0039515888
-0.0047641382
-0.0019875185
-0.00039972
-0.0024452437
-0.0071823984
-0.009406015
-0.007127335
-0.0017016272
-0.0014999452
-0.0049161941
-0.0039075903
-0.0005909169
0.00051511915
-0.0031276746
-0.0080272402
-0.0095768408
-0.0061816359
-0.0010930924
-0.001222547
-0.0039801199
-0.0023942823
5.3500826e-05
0.00051700351
-0.0029535691
-0.0078199487
-0.0080175132
-0.0050195307
-0.0011019182
-0.00092891332
-0.0025463383
-0.001691586
-0.00010545312
-0.00025961307
-0.0034881021
-0.0068697955
-0.0076990119
-0.0051274149
-0.001001916
-0.00029147922
-0.0019391005
-0.0019088185
-0.0014630757
-0.002179043
-0.0039176678
-0.006947504
-0.007436681
-0.0048440374
-0.0010400645
-0.0003190206
-0.0016296144
-0.0024663178
-0.0028014994
-0.0034708591
-0.0056050374
-0.0077238746
-0.007686673
-0.0054505986
-0.0012449044
-0.00074643333
-0.0024474255
-0.0022692455
-0.0024271743
-0.004295978
-0.0068751826
-0.0089100474
-0.0088270088
-0.0054640257
-0.00098810354
-0.00088224833
-0.0022671643
-0.001308873
-0.0019290548
-0.0043249383
-0.0075675807
-0.01013517
-0.0088957159
-0.0043891871
-0.00054801691
-0.00086031711
-0.0010589241
-0.00039141705
-0.0018463421
-0.004283639
-0.0082655104
-0.01011909
-0.0079451995
-0.0033223172
-0.00019397531
-0.00025178218
-0.00015936018
-0.00025465241
-0.001753562
-0.0046481219
-0.0081875686
-0.0090737584
-0.0067540076
-0.0025525254
-3.4821975e-05
-0.00072224945
-0.0038502707
-0.0039161479
-0.0010117793
-0.00033020851
-0.0036469287
-0.0082357799
-0.0089441606
-0.0053167572
-0.0009527522
-0.0017511931
-0.0045372276
-0.0024183279
0.00011709236
-2.4989077e-05
-0.0040628783
-0.0081511343
-0.0081878775
-0.0039183201
-0.00031244671
-0.0011802206
-0.0034009884
-0.0014844294
0.00032840899
0.00013009117
-0.0032123404
-0.0071203106
-0.0061627706
-0.0029697971
-0.00051139097
-0.00075264631
-0.0021055086
-0.0014051744
9.1350615e-05
5.6821534e-05
-0.0026280414
-0.0053450008
-0.0059927752
-0.0039852475
-0.00078173072
-0.00042763946
-0.0020607998
-0.0015101705
-0.00063100077
-0.00067629705
-0.0018265592
-0.0052351378
-0.0066768237
-0.0049048183
-0.0011817996
-0.00054916683
-0.0016452087
-0.0013233629
-0.00071503743
-0.00068482723
-0.0032463695
-0.0070246172
-0.0082019802
-0.0062101576
-0.0015054129
-0.00070493911
-0.0016262112
-7.5333192e-05
0.00075478079
-0.001294625
-0.0056061026
-0.0095869425
-0.0098818614
-0.0061392848
-0.0011961332
-0.0004927363
-0.00052973948
0.0014827704
0.0011701357
-0.0023644434
-0.0075981739
-0.011334105
-0.009927344
-0.0049403988
-0.0006734398
-0.00020075036
0.001155179
0.0021197693
0.0002407275
-0.0035038302
-0.0088111399
-0.011312306
-0.0090795763
-0.0033951861
6.808739e-05
0.00043955511
0.0018172207
0.001415843
-0.00076488561
-0.0045893534
-0.0088326401
-0.010064346
-0.0071832455
-0.0017527219
0.00042153662
-0.00059304854
-0.0026194712
-0.0019609823
-0.00015783095
-0.0010027649
-0.0048056117
-0.0083994152
-0.0072359558
-0.0029317432
-0.00024373912
-0.0012015408
-0.0026673214
-0.00074655148
0.00034064033
-0.0012933149
-0.0052376085
-0.0076376921
-0.0059455023
-0.0016266198
0.00026886816
-0.0006249486
-0.001836447
-0.00066947322
-0.00027710342
-0.0011441047
-0.0038302286
-0.0063146563
-0.0040995784
-0.0011713995
-0.00012913279
-0.00039192016
-0.001375812
-0.0014404331
-0.00057542394
-0.00058664253
-0.0025987275
-0.0044635711
-0.0046060218
-0.0030965176
-0.00067937295
-0.00029263451
-0.0019557197
-0.0015855372
-0.00060832795
-0.00041083721
-0.0013273275
-0.0048058965
-0.0061696909
-0.0045416344
-0.0011478607
-0.00058562008
-0.0015171518
-0.00073376037
0.00015784363
3.3193287e-05
-0.003231211
-0.0073583832
-0.0079009173
-0.0057268412
-0.0014485235
-0.00058063212
-0.00098033575
0.0010533441
0.0018945731
-0.0010433209
-0.0063319628
-0.010027792
-0.009143096
-0.0052078677
-0.0010238419
-7.7804598e-05
0.00056760766
0.0024403609
0.0016666034
-0.0028616185
-0.0084531062
-0.011309911
-0.0088783506
-0.0039426015
-0.00046215426
0.00027967034
0.0021560415
0.0023928245
-0.00017553927
-0.0043382162
-0.0093053675
-0.011005225
-0.0075981526
-0.0023111709
5.3823803e-05
0.00079227753
0.002327951
0.00097046313
-0.0017036309
-0.0054919421
-0.0091193393
-0.0095256707
-0.005981654
-0.0018606022
-0.00016177487
0.00011774913
-0.00029495809
-4.3555586e-05
-4.2254695e-05
-0.0025905372
-0.0063453553
-0.0083085092
-0.0054797987
-0.0011569023
0.00015965749
-0.00030041125
-0.00020666562
0.00041319316
-0.00056052642
-0.0034171127
-0.006860387
-0.0074880543
-0.0042743751
-0.00014205395
0.00054487299
0.00017661088
-0.00020805842
-0.00072397168
-0.0019436626
-0.0034218414
-0.0054350745
-0.0064256152
-0.0028246833
-2.1344562e-05
5.5748218e-05
4.0879711e-06
-0.0008870812
-0.0022069212
-0.0022581914
-0.0026473801
-0.0042324993
-0.0048964423
-0.0038246843
-0.0021363281
-0.00045232235
-0.00016890378
-0.0021094662
-0.002421636
-0.0020061613
-0.0023090236
-0.0030142368
-0.0053363563
-0.005294008
-0.0032965145
-0.00079534251
-0.00054696208
-0.0017183852
-0.0014371885
-0.0011453735
-0.0019308698
-0.0048724393
-0.0073435484
-0.0064204822
-0.0040650955
-0.00096031001
-0.00051225804
-0.001199185
0.00020625174
0.00041467629
-0.0029489635
-0.0073458576
-0.0091475242
-0.0071317092
-0.0034225938
-0.00054609421
7.7892826e-09
0.00016450881
0.0011544234
-5.611426e-05
-0.0043779754
-0.0086836072
-0.0097727055
-0.0066929307
-0.002406378
-8.9653667e-05
0.00029135792
0.0014559303
0.00065594242
-0.0020546483
-0.0055447615
-0.0091835583
-0.0094199723
-0.005606904
-0.0015904799
-4.8702739e-05
0.00067657335
0.0013000662
-0.00083985063
-0.003331284
-0.0063067426
-0.0088096858
-0.0081139877
-0.0048608169
-0.002875959
-0.00094663964
0.0010871983
0.0020203009
0.00077692539
-0.0010282493
-0.0045665768
-0.0077702332
-0.0082745934
-0.0041726232
7.9436974e-05
0.00039786299
0.00046656152
0.0014028967
0.00034148323
-0.0022755949
-0.0057519999
-0.0084995555
-0.0076042858
-0.0031266638
0.00089289051
0.00071789854
0.00067559533
0.0004133627
-0.0015870261
-0.0039064148
-0.0058215753
-0.0073165503
-0.0069840583
-0.0019832298
0.0011426565
0.00037081459
0.00017626669
-0.00096105518
-0.0032194187
-0.0040457001
-0.005085502
-0.0064233858
-0.0056432354
-0.0028654864
-0.00043140682
0.00012030972
-0.00015596813
-0.0024648027
-0.0033571317
-0.0037795668
-0.0049083356
-0.0050135499
-0.0053443976
-0.0035731339
-0.0011766095
-0.00012624885
-0.00061401534
-0.0022160536
-0.0025529204
-0.0031324603
-0.0042803192
-0.0057917934
-0.0061117981
-0.0043650876
-0.0018399778
-0.00013376247
-0.00064218299
-0.0020111195
-0.0012809618
-0.0014765665
-0.0042767433
-0.0069174062
-0.0071124533
-0.0049148539
-0.0015228543
0.0001091059
-0.00016714362
-0.00092551849
-0.00059187022
-0.0014927996
-0.0047488818
-0.007559849
-0.0074585444
-0.0045075438
-0.0011853587
0.00016689355
5.5123242e-05
0.00017827378
-0.0010197843
-0.0030664709
-0.0057763444
-0.0082591257
-0.0072549093
-0.004497274
-0.0013090811
0.00024477498
0.00037515887
0.00013770116
-0.0019161678
-0.0038120657
-0.0061574525
-0.007906094
-0.0068039252
-0.0042937703
-0.0012641541
0.00019684503
0.0015600834
0.0028152163
0.00035023265
-0.0023120374
-0.0058115845
-0.0081308337
-0.0074872355
-0.0025429053
0.0014472819
0.00067291988
0.00065226768
0.0014372083
-0.00054219629
-0.0035963303
-0.0068716918
-0.0088928193
-0.0068849925
-0.0015901547
0.0021987251
0.0010135613
0.00064141129
1.6382188e-05
-0.002217524
-0.0046665626
-0.0068213018
-0.0080506545
-0.0067372412
-0.00070146154
0.002668569
0.00083794354
5.7315143e-05
-0.0011305483
-0.0031412386
-0.0044023523
-0.0062590587
-0.0074449465
-0.0055051514
-0.001435681
0.001260751
0.00056986886
-0.00021478392
-0.002338143
-0.0030235459
-0.004270407
-0.0061764429
-0.005613406
-0.0045693251
-0.001944576
0.00020919273
0.00018948989
-0.0006494232
-0.0021402657
-0.0025286052
-0.0037574934
-0.0049986819
-0.0054187616
-0.0048685577
-0.0029599502
-0.00084683893
3.9768224e-05
-0.0007227743
-0.002257964
-0.0015756734
-0.0018331584
-0.0041502579
-0.0057789581
-0.0054335389
-0.0034128097
-0.00075474594
0.00018967512
-0.00024792784
-0.0013902715
-0.0011487644
-0.0015895774
-0.004362088
-0.0062829751
-0.0056200248
-0.0030277776
-0.00059415095
0.00012912117
-8.7607134e-05
-0.00041651998
-0.0014211999
-0.0030762734
-0.0056745272
-0.0072471917
-0.0055013659
-0.0028800816
-0.00029884666
0.00039514417
0.00025303423
-0.00016898485
-0.0020867388
-0.0040489536
-0.0064696781
-0.0072469137
-0.0053673368
-0.0025718782
0.00066688699
0.00077294343
0.0013806289
0.0020626122
-0.00050069252
-0.0026309369
-0.005160969
-0.0064772658
-0.005144264
5.2418727e-06
0.0032710218
0.0010509256
0.00019835839
0.00036501552
-0.00093302202
-0.0031650465
-0.0057351809
-0.0071969125
-0.0045710672
0.00083607778
0.0037030079
0.0012814273
0.00024889795
-0.00043271706
-0.0013690532
-0.0033892727
-0.0057632049
-0.0068315378
-0.0050683956
0.00098348428
0.0034171109
0.00083989826
-8.9861199e-05
-0.00050334495
-0.0012955281
-0.0029626714
-0.0055766115
-0.006683467
-0.0045989279
-0.00059606879
0.0012253517
0.00024336308
-0.00010717514
-0.0011910528
-0.0011666783
-0.0031820481
-0.0056993651
-0.0051312637
-0.0042060338
-0.0016617087
-0.00022228238
-0.00019269936
-0.00047266919
-0.0011055812
-0.0011369586
-0.0028988317
-0.0046988016
-0.0051454039
-0.0045802855
-0.0025922207
-0.0010515993
-0.00028974091
-0.00058693954
-0.0015453249
-0.00065323303
-0.0014817742
-0.0041613022
-0.0051648695
-0.0043494672
-0.0024702539
-0.00047631849
9.4328205e-05
-9.0538053e-05
-0.0010297127
-0.00116482
-0.0020364706
-0.004680159
-0.0052888373
-0.003650312
-0.0016115924
0.0005539126
0.00059295169
-3.3049177e-05
-0.0005670825
-0.0020853797
-0.0041269674
-0.0061574544
-0.0059734149
-0.0033688386
-0.00028470862
0.0023444284
0.0010902369
0.00019745257
-0.00088362375
-0.0036424761
-0.0056758638
-0.0069571101
-0.0055428737
-0.0020448003
0.0012091546
0.0012576163
-0.0001315898
0.00089179332
0.00089252106
-0.00065314654
-0.0013455462
-0.002509016
-0.0028786113
-0.0013885978
0.0031514075
0.0050054773
0.0013150906
-0.0003705529
-0.00045117974
-8.2207154e-05
-0.00099585728
-0.0026700632
-0.0036552671
-0.001036574
0.0035272167
0.0045241
0.0011696758
-4.0071389e-06
-4.8273217e-05
0.00075456851
-0.00078039284
-0.0032097002
-0.0041552167
-0.0026243578
0.0023822444
0.0029999366
0.00034404987
1.0073224e-05
0.00095653497
0.0013272822
-0.00084413279
-0.0039494753
-0.0049777804
-0.0034415551
-0.00052320184
0.00047145792
-0.00012573353
0.00022911849
0.00051687954
0.00090629283
-0.0019682504
-0.0047971272
-0.0043953998
-0.0039268957
-0.0016475646
-0.00036942553
-0.00023276164
-9.7291508e-05
0.0002558507
4.7870006e-05
-0.0024315597
-0.0046927638
-0.0048768636
-0.0037783593
-0.0017168751
1.6323321e-05
0.00014438715
-0.000288652
-0.0007597259
-0.00041622064
-0.002208434
-0.0046962107
-0.00416562
-0.0023611114
-0.00030158609
0.0016415907
0.00078029071
0.00013739089
-0.0009799096
-0.0023571117
-0.0037340981
-0.0050295682
-0.0033110796
-0.00031596219
0.0019166308
0.0032352954
0.0012314641
-3.8112391e-05
-0.001528889
-0.0044666398
-0.0062382431
-0.0058898839
-0.0028196419
0.0012723943
0.0037910442
0.0046715631
0.0015506633
-0.00018352754
-0.0029854506
-0.0064097534
-0.00710346
-0.0054847029
-0.0013000637
0.0029030095
0.0049466032
0.0037220027
0.00059842372
0.00061089103
0.00044558604
2.3473177e-05
0.00077622548
0.0010548365
0.0016750307
0.002827637
0.0058683598
0.005833185
0.0012601775
-0.00058556323
-0.00037384259
0.0012999449
0.0015628306
0.0011167623
0.0006496725
0.0025324909
0.0055145174
0.0045541267
0.00084786797
6.4605181e-05
0.00082558057
0.0025970366
0.0015422282
-0.00040512603
-0.0011257218
-0.00025209502
0.0032951748
0.0026798609
0.00011954842
0.00026541791
0.0021997206
0.0028648328
0.0003465804
-0.0025221216
-0.0031561601
-0.0021032023
7.8689848e-05
0.0012142301
0.00025535669
0.00058900876
0.0015915834
0.0013807863
-0.0021625582
-0.0044192342
-0.0033661383
-0.0025133471
0.00032024334
0.0018159259
0.00050967583
0.00030670174
0.00073975784
-0.00077405116
-0.0036675274
-0.005081945
-0.0035810571
-0.0010671012
0.0016752279
0.0032000812
0.0010470901
-9.4563518e-05
-0.0012091695
-0.0024250468
-0.0044029746
-0.0048441308
-0.0015725191
0.0017136643
0.0040832294
0.0049250909
0.0015527775
0.00010993781
-0.0023399742
-0.0054097447
-0.0059287803
-0.0040458444
0.00064595452
0.0047131848
0.0071072463
0.0057954759
0.0011556879
-0.0003304584
-0.0037823549
-0.0078608746
-0.0073779064
-0.003247593
0.0021904672
0.0071456828
0.0085792439
0.0051728977
0.00073665033
-0.00074276808
-0.0054932986
-0.0087496412
-0.0067927149
-0.002059993
0.0037551191
0.007308579
0.007355053
0.004750987
0.00087441398
0.0008298887
0.00079531992
0.00047098996
0.0023426676
0.0041509134
0.0058556359
0.0063447812
0.0073231307
0.0056482271
0.0010286603
-0.00049650178
-0.00014250076
0.0017312837
0.0029686457
0.0042746542
0.0044801788
0.0050685071
0.0063109177
0.004326727
0.00069278523
0.00020467477
0.00095584264
0.0025051073
0.0023608789
0.0017951119
0.0014889222
0.0016970186
0.004376894
0.0034836105
0.0004035485
0.00034369401
0.0018916165
0.0021054784
7.6564987e-05
-0.0015068078
-0.0010873764
0.00016488976
0.0025209966
0.0036402762
0.0010117174
0.00062199365
0.00097405407
-0.00038697343
-0.0036086068
-0.0039172117
-0.00081582629
0.0012406715
0.0042276885
0.0049394772
0.0013544297
0.00042618806
-0.00046418523
-0.0036759839
-0.0056357586
-0.0041833707
5.9569689e-05
0.003593952
0.0060497681
0.0058572163
0.0014811345
-0.00029497768
-0.0033926597
-0.0059545288
-0.0059133553
-0.0027702658
0.0027817385
0.0068242954
0.0080929291
0.0058190208
0.0012716016
-0.00042466119
-0.0051119478
-0.0085796013
-0.0060921057
-0.00075430859
0.0056431937
0.0098374495
0.0094887353
0.0051064916
0.00069677592
-0.0009697866
-0.0063388967
-0.0097444499
-0.0060625608
0.00075850577
0.0066469788
0.010263262
0.0087619833
0.004405463
0.00081373122
-0.0013056614
-0.0072765642
-0.009266052
-0.0046362389
0.0014626316
0.0065227368
0.0090867244
0.0080751774
0.0022408053
-0.00074632932
0.0012612622
0.000947302
-0.00031094706
0.0025363939
0.0058127996
0.0083726197
0.0083307879
0.0077229837
0.0052509091
0.00093076239
-0.00047442791
-0.00082481694
0.00049666536
0.0026629325
0.0057797136
0.006860948
0.0066460171
0.0069894392
0.0044794611
0.00066780837
7.9849654e-05
-0.0003296901
0.00038184217
0.001636374
0.0029415118
0.0036610842
0.0041723623
0.0062611197
0.0049164784
0.00086872081
6.3980188e-05
-0.00013202785
-0.0004155925
-0.0011990419
-0.00057074084
0.0020227203
0.0037599213
0.0055969263
0.0057582425
0.0015594826
0.00016420846
-0.0012297102
-0.0034801321
-0.0049814954
-0.0021896234
0.0030929822
0.0058557364
0.0077540672
0.0062776263
0.0013827175
4.1923008e-05
-0.0030033154
-0.006766047
-0.0063301773
-0.0018896619
0.004348377
0.0080229884
0.0085032138
0.0054265676
0.00089242229
-0.00084357248
-0.0059412455
-0.0083183598
-0.0055495975
0.00013603323
0.0068041446
0.010037943
0.0084726015
0.0034118931
0.00014416528
-0.0010812574
-0.0071617409
-0.0096521426
-0.0046468029
0.0023734051
0.0085305836
0.010755219
0.0071529248
0.0017222201
-0.00019876601
-0.0013326022
-0.0074031094
-0.0097108723
-0.0040566498
0.0030423204
0.0075226787
0.0086876541
0.0054813264
0.0018051218
0.00018738325
-0.0015955561
-0.0074961715
-0.0083733611
-0.003285655
0.0020417299
0.0056648502
0.0070508718
0.0055461535
-2.0795258e-05
-0.001416044
0.0014630549
0.00021274482
-0.0022339844
0.0014892128
0.0057484653
0.008620309
0.0090063704
0.0082342755
0.0053765519
0.001023629
-0.00071646059
-0.0024246484
-0.001624453
0.0010826805
0.0051572093
0.0075998744
0.0079823837
0.0082133374
0.005337539
0.0008711628
-0.00029520737
-0.002222039
-0.0025455159
-0.00015636121
0.0029548092
0.0051399763
0.0069769732
0.008533003
0.0063533367
0.0013348087
-0.00031010605
-0.0027361797
-0.0032859468
-0.0024478546
4.1782494e-05
0.0049507738
0.0072423926
0.0079600821
0.0066871393
0.0016622579
-0.00056622866
-0.0038676129
-0.0060760514
-0.0055547247
-0.00014458644
0.0065370703
0.0089514797
0.0091969296
0.0060090097
0.0010525643
-0.00070427679
-0.0055298355
-0.0084013734
-0.0055472506
0.00038837541
0.0068580537
0.0096242407
0.0077955305
0.0036301925
0.00040568127
-0.0012465183
-0.0073479452
-0.0087251515
-0.0041576309
0.0017626932
0.0074879908
0.0086464396
0.0051308821
0.0014640663
0.00010998224
-0.0013869346
-0.007559233
-0.0091413647
-0.003572744
0.0027702236
0.0065530137
0.006245378
0.0034181884
0.00085783163
-0.000125039
-0.0012604772
-0.0070492179
-0.0089784068
-0.0034937044
0.0015981416
0.0034219431
0.0042690975
0.0038852388
0.0011188444
-0.00043153241
-0.001412943
-0.006582448
-0.0077917646
-0.003917071
-0.00028672352
0.0020080699
0.0034730176
0.0030729668
0.00030971592
-0.00066445784
0.0014108791
-0.00098926773
-0.0045847218
-0.00049551372
0.004411021
0.0074165633
0.0089980437
0.0091917039
0.0062740781
0.0013941693
-0.0010364321
-0.0043295187
-0.0038290484
-0.00069332018
0.0033424882
0.0071019852
0.0091005507
0.0095169889
0.0063783218
0.0012276859
-0.00081595482
-0.0037449739
-0.0045939047
-0.0019591582
0.0024882748
0.0058366491
0.0084200538
0.0099529504
0.0072467213
0.0015011637
-0.00053264984
-0.0043387014
-0.0050753842
-0.0024350489
0.0011240383
0.0059637391
0.0081440993
0.0085181837
0.0063798434
0.0013769664
-0.00094782554
-0.0052086182
-0.0063356339
-0.0039531116
0.0014038465
0.0069137942
0.0088769283
0.0082893026
0.004497656
0.00065312765
-0.0012450051
-0.0062614477
-0.0072938342
-0.0035194775
0.0013088921
0.0058864811
0.0077005699
0.0057187244
0.0025121316
0.00035731433
-0.0011575444
-0.0067885323
-0.0074738797
-0.0028759667
0.0013265881
0.0043377218
0.0046864638
0.0026832323
0.0015424716
0.00065924811
-0.0011766671
-0.0068394374
-0.0082502853
-0.0030626032
0.00086536215
0.0016960163
0.0021349665
0.0025144242
0.0019686699
0.00043020839
-0.00094068777
-0.0060272857
-0.0084726845
-0.0045396145
-0.0014728719
-0.0012683491
0.0014821634
0.0037426891
0.0033873429
0.001070319
-0.0011071711
-0.0058667939
-0.008248764
-0.005811669
-0.0030023498
-0.0012591682
0.0015915045
0.0043592951
0.0035189103
0.0005179202
0.0010897983
-0.0024170731
-0.0066909623
-0.0026466322
0.0025760397
0.0057381638
0.0082717838
0.0096467906
0.0074431664
0.0019423174
-0.0013146274
-0.0060780678
-0.0055250114
-0.0016319049
0.0015068754
0.0050835138
0.0085967299
0.010323707
0.0071671604
0.0013843766
-0.0013508648
-0.0046054033
-0.0047066811
-0.0027962799
0.00093698832
0.0044683509
0.0079597476
0.010417018
0.0068131738
0.0009954974
-0.00053732668
-0.0040937865
-0.0050077234
-0.0025367875
0.00080650531
0.0047911184
0.0071916224
0.0078292549
0.0050572382
0.00083456875
-0.00067437971
-0.0047550504
-0.0056115637
-0.0024843389
0.0014648807
0.0048841735
0.0069023361
0.0067163987
0.0034659717
0.00056591483
-0.001250103
-0.0057328381
-0.0057080935
-0.0020088952
0.0006871652
0.0030218261
0.0047004587
0.0045455853
0.0027632668
0.00049464302
-0.0011108133
-0.0060248641
-0.0059039592
-0.0020685161
-0.00030441192
0.001090073
0.0027866245
0.0038885092
0.0028084823
0.00055687576
-0.0010334721
-0.0060448741
-0.0071132013
-0.0030663071
-0.001803999
-0.001093886
0.002256022
0.0044605761
0.0027800789
0.00020878906
-0.00065953539
-0.0052546364
-0.0083984117
-0.0057691359
-0.0035880822
-0.001737817
0.0027016146
0.0047650842
0.0043628513
0.0013901161
-0.001217476
-0.0066748661
-0.0092231235
-0.00641351
-0.0040979707
-0.0017513756
0.0022728336
0.0060149447
0.0048354239
0.00052383765
8.0427826e-05
-0.0046740975
-0.008509075
-0.0045510821
0.00055841955
0.0038172312
0.0073048636
0.0094473204
0.0072593229
0.0017965338
-0.0016066973
-0.0078156719
-0.0075120998
-0.0019382974
0.00088009522
0.0026894062
0.0066407862
0.0094225678
0.0061257352
0.00091097745
-0.0020139552
-0.0059019185
-0.003867694
-0.0013863508
-0.00043558616
0.0012922472
0.0060323435
0.0092384808
0.0052467342
0.00047493732
-0.0009420472
-0.0031742914
-0.0021990201
-0.0017008339
-0.0014323554
0.0017412776
0.0049138442
0.0060903234
0.0047065913
0.0010796757
-0.00027209868
-0.0027371873
-0.0036302313
-0.0021451226
-0.00057180611
0.0016541053
0.0040804584
0.0049321013
0.0034662377
0.00082174264
-0.00072759677
-0.0041682971
-0.0045114711
-0.0018370544
-0.00085872892
0.0011391417
0.0039320493
0.0044881984
0.0020699772
-5.4371428e-05
-0.001023982
-0.0052621717
-0.0045783602
-0.0017832647
-0.0011739421
0.00050198869
0.0034391621
0.0051062621
0.0034957208
0.00072252872
-0.001170315
-0.0054408172
-0.0062384132
-0.00378894
-0.0018405245
0.00049784509
0.0032949265
0.00476163
0.0045797661
0.0013403763
-0.0010404836
-0.005471011
-0.0079106047
-0.0060896446
-0.0027760681
0.00067614886
0.0037125937
0.0070441414
0.0052342517
0.000359875
-0.0019260399
-0.0074534056
-0.0076575574
-0.0055694368
-0.0044771387
0.00052732815
0.0058047151
0.0065001604
0.0021455395
-0.00071876506
-0.0021027075
-0.009701771
-0.011053369
-0.0057202865
-0.0015768293
0.0013015429
0.0073740715
0.0099152924
0.005326996
0.00074801988
-0.0032252893
-0.010971291
-0.0085012014
-0.0020777996
0.00054729674
0.0011024666
0.0044107074
0.0069195133
0.0047005975
0.00089771777
-0.002949054
-0.0069836873
-0.0019616277
0.00075596324
-0.0011969345
-0.0017628456
0.0028574145
0.0059969011
0.0055119919
0.0018539545
-0.001523844
-0.0018795493
0.0019706194
0.0003646725
-0.0038629031
-0.0029409567
0.001564903
0.0039282216
0.0052436936
0.0021054393
-0.00052072941
-0.00050743793
0.00048084374
-0.0010665289
-0.0031574963
-0.0023112647
0.001850539
0.0034182156
0.002377155
0.00082464211
-0.00010775988
-0.0014996545
-0.0024395809
-0.0015958899
-0.0012969094
0.00020489526
0.0029568746
0.0020212661
0.0006923629
0.00041366025
-0.00065344705
-0.0035718268
-0.0035625798
-0.0016149482
-1.1644777e-05
0.0018496046
0.0031097179
0.0020860889
0.002086989
0.0012622622
-0.0020833361
-0.0060163116
-0.0052853853
-0.0026027657
9.506158e-05
0.0014640738
0.0029903447
0.0030380789
0.0046908094
0.0023218339
-0.0026506327
-0.0074902172
-0.0065538715
-0.0041936343
-0.001918601
0.00051747772
0.0041265311
0.0055531968
0.005712647
0.0020026223
-0.002500935
-0.0058313152
-0.0047422888
-0.0057376032
-0.0044562692
0.0011739081
0.006988791
0.0066637371
0.0022515246
1.4418883e-05
-0.0063261088
-0.016469282
-0.010820945
-0.0058054567
-0.0065146991
-0.0064296999
0.0068583244
0.016510771
0.010739776
0.0019779738
-0.0031633387
-0.010624421
-0.0082633285
-0.003169474
-0.0032324737
-0.004873031
0.0017461673
0.010168151
0.011122602
0.0034178229
-0.0024295349
-0.0067917013
-0.0038496979
-0.0019398869
-0.0035192161
-0.0049952806
-0.00080833629
0.0050634557
0.011029671
0.005247688
-0.0014582617
-0.0036531751
-0.00015113989
-0.00075121981
-0.0059515892
-0.006470764
-0.0018395851
0.002995145
0.011975993
0.0064842001
-0.00067221318
-0.0029261323
-0.0014314445
-0.00056224164
-0.003963405
-0.0057601805
-0.0025777193
0.0010432391
0.0071305379
0.0042366432
0.00072988875
-0.00065769134
-0.0028702554
-0.001195409
-9.2701919e-05
0.00044117538
0.0016178568
-0.0024103414
-0.0045278137
-0.00063720984
0.0003655659
-0.0014917123
-0.0030291769
-0.0013271421
0.0029485339
0.004910685
0.0024506979
-0.003466686
-0.0073641706
-0.0020472742
-0.0026782159
-0.0083243511
-0.0064560074
-0.0029647926
0.0033647393
0.0054695919
-0.00039581101
-0.0045663379
-0.0024533992
0.00028539165
-0.0038628473
-0.012939026
-0.010202183
-0.0053473593
-0.0024569524
0.00040075971
0.00029470158
0.0027110427
0.0089189772
0.0039565708
-0.0024229983
-0.0080344547
-0.0056026157
-0.0068639266
-0.013139068
-0.009025116
0.0016786035
0.01171681
0.013701247
0.0034735715
-0.0040053136
-0.018542876
-0.017335883
-0.0052417772
0.0015899754
0.0020288337
-0.0033852279
-0.0033996743
-0.00010886364
-6.1650023e-05
-0.0053893429
-0.013995422
-0.0056099954
-0.00065310741
-0.0040775958
-0.0043925885
-0.00014781299
0.0029262746
-0.00029374712
-0.0013988819
-0.00097367689
0.0018369956
0.0057156262
-0.0003942871
-0.00993296
-0.0099072596
-0.0018428308
0.0035153934
-0.0011719379
-0.0024956401
0.0024279154
0.0090560878
0.0054357822
-0.0041744268
-0.011067835
-0.011604474
-0.0060263495
0.0013930627
-0.0015335248
-0.0028135358
0.002085436
0.0066844852
0.0021943069
-0.0059249615
-0.0091871439
-0.0086137614
-0.0057582475
0.001784464
0.0011273459
-0.0016172073
-0.001350466
-0.0024668489
-0.001554457
-0.0034286104
-0.0053295867
-0.0064828712
-0.0059283437
0.0024733904
0.0069726871
0.0013596938
-0.0021955119
-0.0052516081
-0.0050175785
-0.0046314632
-0.0040655411
-0.0042213662
-0.0039449517
0.0017059421
0.0078065493
0.002589137
0.00080781113
-0.00092445095
-0.0074329936
-0.0073440278
-0.0052315812
-0.0046695748
-0.00066757113
0.005339817
0.0083017135
0.0025196806
0.0020217878
0.0016634609
-0.0065507894
-0.0063623928
-0.0029852141
-0.0042998879
-0.0010785248
0.0064171115
0.0075655292
0.0017102606
0.00068455624
-0.0019875239
-0.0086727708
-0.0050447435
0.0032746305
0.0020096289
0.00066145586
0.0050987969
0.0082140203
0.002952008
0.00032635796
-0.0050030208
-0.01340921
-0.013993012
-0.0066337341
-0.00070806257
0.00015199856
-0.00026247506
-0.002174927
-0.0010731768
-0.0021544376