/*--------------------------------*- C++ -*----------------------------------*\
| =========                 |                                                 |
| \\      /  F ield         | OpenFOAM: The Open Source CFD Toolbox           |
|  \\    /   O peration     | Version:  v2106                                 |
|   \\  /    A nd           | Website:  www.openfoam.com                      |
|    \\/     M anipulation  |                                                 |
\*---------------------------------------------------------------------------*/
FoamFile
{
    version     2.0;
    format      ascii;
    arch        "LSB;label=32;scalar=64";
    class       volVectorField;
    location    "40";
    object      gradT;
}
// * * * * * * * * * * * * * * * * * * * * * * * * * * * * * * * * * * * * * //

dimensions      [0 -1 0 1 0 0 0];

internalField   nonuniform List<vector> 
10000
(
(0.00014709246 0.00014709241 2999.1037)
(-5.2534261e-05 5.7950766e-05 2999.1043)
(-0.00084661082 -8.5523747e-05 2999.1027)
(-0.00084952487 -7.7638579e-05 2999.1005)
(-0.00037916897 -5.8768327e-05 2999.0994)
(-0.00041898616 0.00016427405 2999.0994)
(-0.00059584823 0.00020303954 2999.0982)
(-0.0015304164 -0.00016992647 2999.0962)
(-0.0021794685 -0.00014834776 2999.092)
(-0.00061933078 6.366389e-05 2999.0887)
(5.7950823e-05 -5.2534346e-05 2999.1043)
(-0.00040145849 -0.00040145858 2999.1042)
(-0.0010499948 -0.00057472309 2999.1019)
(-0.00080939174 -0.00061202167 2999.1)
(-1.6300021e-05 -0.00025618456 2999.0994)
(-2.6274364e-05 0.0001755447 2999.1)
(-0.001097149 -0.00028215726 2999.0989)
(-0.0020574973 -0.00072830889 2999.0954)
(-0.001829083 -0.00053848282 2999.0908)
(-0.00040731913 -0.00058686561 2999.0883)
(-8.552369e-05 -0.0008466107 2999.1027)
(-0.000574723 -0.0010499948 2999.1019)
(-0.0010571739 -0.0010571739 2999.1001)
(-0.00053098634 -0.00076257083 2999.0984)
(0.0004083974 -0.00030225655 2999.0985)
(-0.00044495886 -0.00090319301 2999.0994)
(-0.0014997018 -0.0013049313 2999.0968)
(-0.0017867419 -0.0013514002 2999.0934)
(-0.0020380252 -0.0016955884 2999.0894)
(-0.00065158597 -0.0018747129 2999.086)
(-7.7638541e-05 -0.00084952495 2999.1005)
(-0.00061202169 -0.00080939162 2999.1)
(-0.00076257092 -0.00053098634 2999.0984)
(-5.4474384e-05 -5.4474299e-05 2999.0974)
(-0.0001569222 -0.00067203703 2999.098)
(-0.0010289491 -0.0013905962 2999.0968)
(-0.0015453562 -0.0016470325 2999.0942)
(-0.0024481544 -0.0022430017 2999.0904)
(-0.0023523957 -0.0025020129 2999.085)
(-0.00052673549 -0.0021381282 2999.0822)
(-5.8768137e-05 -0.00037916905 2999.0994)
(-0.00025618439 -1.6300021e-05 2999.0994)
(-0.00030225658 0.00040839754 2999.0985)
(-0.00067203703 -0.00015692208 2999.098)
(-0.00092772453 -0.0009277245 2999.096)
(-0.0014199543 -0.0015495226 2999.0944)
(-0.0023521073 -0.0025386297 2999.0906)
(-0.0026417223 -0.002963418 2999.0854)
(-0.0019331518 -0.0025777658 2999.0809)
(-0.00040899619 -0.0021814493 2999.0789)
(0.00016427415 -0.00041898554 2999.0994)
(0.0001755449 -2.6274279e-05 2999.1)
(-0.00090319298 -0.0004449588 2999.0994)
(-0.0013905964 -0.0010289489 2999.0968)
(-0.0015495227 -0.0014199541 2999.0944)
(-0.0026398543 -0.0026398545 2999.0907)
(-0.0029592516 -0.0034732917 2999.0847)
(-0.0024872905 -0.0035212247 2999.0798)
(-0.0015704271 -0.0029544487 2999.0759)
(-0.00026252453 -0.0023585442 2999.0746)
(0.00020303937 -0.00059584792 2999.0982)
(-0.00028215766 -0.0010971489 2999.0989)
(-0.0013049312 -0.0014997016 2999.0968)
(-0.0016470324 -0.0015453559 2999.0942)
(-0.0025386301 -0.0023521069 2999.0906)
(-0.0034732919 -0.0029592515 2999.0847)
(-0.0032334775 -0.0032334775 2999.0783)
(-0.0021228794 -0.0029877179 2999.0734)
(-0.00077047125 -0.0022489236 2999.0706)
(-1.1726475e-05 -0.0018655838 2999.0704)
(-0.00016992648 -0.0015304166 2999.0962)
(-0.00072830881 -0.0020574971 2999.0954)
(-0.0013514 -0.0017867414 2999.0934)
(-0.0022430017 -0.0024481544 2999.0904)
(-0.0029634183 -0.002641722 2999.0854)
(-0.0035212249 -0.0024872901 2999.0798)
(-0.0029877179 -0.0021228793 2999.0734)
(-0.0015027366 -0.0015027364 2999.0693)
(-0.00044829304 -0.0011521871 2999.0676)
(-6.9646832e-06 -0.00092413032 2999.0676)
(-0.00014834764 -0.0021794684 2999.092)
(-0.00053848251 -0.0018290827 2999.0908)
(-0.0016955885 -0.0020380253 2999.0894)
(-0.002502013 -0.0023523958 2999.085)
(-0.0025777659 -0.0019331518 2999.0809)
(-0.0029544492 -0.001570427 2999.0759)
(-0.0022489238 -0.00077047142 2999.0706)
(-0.0011521871 -0.00044829301 2999.0676)
(-0.00019186513 -0.00019186533 2999.0662)
(0.00014031135 0.00024276619 2999.067)
(6.3663985e-05 -0.00061933069 2999.0887)
(-0.00058686572 -0.00040731906 2999.0883)
(-0.0018747131 -0.00065158616 2999.086)
(-0.0021381282 -0.00052673552 2999.0822)
(-0.0021814495 -0.00040899632 2999.0789)
(-0.0023585445 -0.0002625246 2999.0746)
(-0.001865584 -1.172657e-05 2999.0704)
(-0.00092413049 -6.9647208e-06 2999.0676)
(0.00024276616 0.00014031116 2999.067)
(0.00028278966 0.00028278947 2999.0682)
(0.0001398502 0.00013985023 2999.1022)
(-0.0013758714 -0.00028423902 2999.1018)
(-0.0031270015 -0.00057157136 2999.0994)
(-0.0023393729 -0.00025382423 2999.0981)
(-0.0004601672 0.00012085991 2999.0978)
(-0.00054460457 5.8529489e-05 2999.0981)
(-0.0030315107 5.579227e-05 2999.0968)
(-0.0047132131 -0.00033635435 2999.0933)
(-0.0048205943 -0.00074556094 2999.0906)
(-0.001504291 -0.00059221825 2999.0886)
(-0.00028423906 -0.0013758713 2999.1018)
(-0.0024430038 -0.0024430034 2999.1005)
(-0.0030813794 -0.0022301902 2999.0981)
(-0.001300726 -0.0013316051 2999.0972)
(8.3633725e-06 -0.00067184393 2999.0978)
(-0.00064220603 -0.00055058254 2999.0976)
(-0.0036238364 -0.0013435031 2999.0959)
(-0.005915243 -0.0020685217 2999.0926)
(-0.0052043901 -0.0022975364 2999.0892)
(-0.0013509483 -0.0022236945 2999.0873)
(-0.00057157119 -0.0031270014 2999.0994)
(-0.0022301902 -0.0030813792 2999.0981)
(-0.0020156032 -0.0020156025 2999.0966)
(-0.00078102664 -0.00159632 2999.0966)
(0.00032085532 -0.0012202576 2999.0966)
(-0.0012162637 -0.0021456048 2999.0967)
(-0.0045494498 -0.0031499678 2999.0948)
(-0.0056672465 -0.0034895714 2999.0911)
(-0.0049757671 -0.0037192125 2999.0884)
(-0.001455063 -0.0034918598 2999.0871)
(-0.00025382426 -0.0023393727 2999.0981)
(-0.0013316049 -0.001300726 2999.0972)
(-0.0015963202 -0.0007810263 2999.0966)
(-0.000505381 -0.00050538054 2999.096)
(-0.00054092135 -0.0017012078 2999.0962)
(-0.0025719162 -0.0034049495 2999.0957)
(-0.0049678031 -0.0043689643 2999.0935)
(-0.0064844877 -0.0052540242 2999.0901)
(-0.0052066785 -0.005311211 2999.0877)
(-0.0011993798 -0.0042937095 2999.0866)
(0.00012085997 -0.00046016692 2999.0978)
(-0.00067184379 8.3635143e-06 2999.0978)
(-0.0012202578 0.00032085569 2999.0966)
(-0.0017012082 -0.00054092064 2999.0962)
(-0.0025787137 -0.0025787132 2999.0953)
(-0.0038840202 -0.0044608341 2999.094)
(-0.0063985245 -0.0065506023 2999.0916)
(-0.0066094931 -0.0070008209 2999.0884)
(-0.0040154524 -0.0058690494 2999.0863)
(-0.00077672871 -0.0048736108 2999.0855)
(5.8529357e-05 -0.00054460395 2999.0981)
(-0.00055058231 -0.00064220538 2999.0976)
(-0.0021456044 -0.0012162633 2999.0967)
(-0.0034049499 -0.0025719156 2999.0957)
(-0.0044608348 -0.0038840197 2999.094)
(-0.0065438053 -0.0065438048 2999.0919)
(-0.0075077899 -0.008030045 2999.089)
(-0.0058029348 -0.0075004588 2999.0861)
(-0.0030794685 -0.0064856297 2999.0843)
(-0.00053575411 -0.0056089671 2999.0835)
(5.5792346e-05 -0.0030315102 2999.0968)
(-0.0013435032 -0.0036238358 2999.0959)
(-0.003149968 -0.0045494496 2999.0948)
(-0.0043689646 -0.004967803 2999.0935)
(-0.0065506028 -0.0063985241 2999.0916)
(-0.0080300455 -0.0075077897 2999.089)
(-0.0073551785 -0.0073551783 2999.0862)
(-0.0050650778 -0.0066776572 2999.0835)
(-0.0021239607 -0.0057526965 2999.0814)
(-0.00019228694 -0.0048092287 2999.0807)
(-0.00033635437 -0.0047132128 2999.0933)
(-0.0020685217 -0.0059152428 2999.0926)
(-0.0034895715 -0.005667246 2999.0911)
(-0.0052540244 -0.0064844872 2999.0901)
(-0.0070008215 -0.0066094926 2999.0884)
(-0.0075004595 -0.0058029346 2999.0861)
(-0.0066776574 -0.0050650776 2999.0835)
(-0.004200453 -0.0042004529 2999.0805)
(-0.00121104 -0.0032213938 2999.0785)
(9.3224457e-05 -0.0023614712 2999.0783)
(-0.00074556097 -0.004820594 2999.0906)
(-0.0022975364 -0.0052043899 2999.0892)
(-0.0037192124 -0.0049757667 2999.0884)
(-0.0053112111 -0.0052066783 2999.0877)
(-0.0058690503 -0.0040154524 2999.0863)
(-0.0064856305 -0.0030794682 2999.0843)
(-0.0057526968 -0.0021239603 2999.0814)
(-0.003221394 -0.0012110403 2999.0785)
(-0.00028497891 -0.000284979 2999.0772)
(0.0003809948 0.00016014741 2999.0771)
(-0.00059221827 -0.0015042909 2999.0886)
(-0.0022236943 -0.0013509482 2999.0873)
(-0.0034918599 -0.0014550629 2999.0871)
(-0.0042937102 -0.0011993799 2999.0866)
(-0.0048736115 -0.00077672892 2999.0855)
(-0.0056089675 -0.00053575405 2999.0835)
(-0.0048092294 -0.00019228687 2999.0807)
(-0.0023614717 9.3224211e-05 2999.0783)
(0.00016014769 0.00038099468 2999.0771)
(0.00038997539 0.00038997528 2999.0767)
(-9.6778612e-05 -9.6778782e-05 2999.0992)
(-0.0028190048 -0.00081777624 2999.0981)
(-0.0045610751 -0.00092241641 2999.0966)
(-0.0024907766 -0.00064898884 2999.0965)
(-0.00040331591 2.4363046e-07 2999.0969)
(-0.001398186 -0.00015368401 2999.0965)
(-0.0053334244 -0.00037944909 2999.095)
(-0.0076941951 -0.00066069443 2999.0924)
(-0.0069255721 -0.0011211416 2999.0904)
(-0.0019775952 -0.0007802434 2999.0901)
(-0.00081777606 -0.0028190047 2999.0981)
(-0.0040574613 -0.0040574615 2999.0963)
(-0.004307894 -0.0033537294 2999.0956)
(-0.0011067865 -0.0021262374 2999.0954)
(0.00033964133 -0.0013983911 2999.0963)
(-0.0019677251 -0.0012132808 2999.0959)
(-0.00609394 -0.0022594309 2999.0938)
(-0.0088067339 -0.002922572 2999.0915)
(-0.0071048955 -0.0027667919 2999.0902)
(-0.001636697 -0.0020832722 2999.0906)
(-0.00092241642 -0.0045610745 2999.0966)
(-0.0033537295 -0.0043078934 2999.0956)
(-0.002629851 -0.0026298509 2999.0948)
(-0.00053543826 -0.0019588175 2999.0952)
(0.0005096407 -0.0019911098 2999.0957)
(-0.0022592258 -0.0027635785 2999.0954)
(-0.0070427156 -0.0037339946 2999.0939)
(-0.0082015562 -0.0038190833 2999.0922)
(-0.0060862722 -0.0031848386 2999.0916)
(-0.0015219154 -0.0025759012 2999.0921)
(-0.00064898866 -0.0024907759 2999.0965)
(-0.0021262377 -0.0011067859 2999.0954)
(-0.001958818 -0.00053543758 2999.0952)
(-0.00046804541 -0.00046804496 2999.0953)
(-0.00046511966 -0.0019922484 2999.0956)
(-0.0037106099 -0.0040995744 2999.0956)
(-0.0071494449 -0.0048734418 2999.0947)
(-0.0082575779 -0.0050218461 2999.0937)
(-0.0058617134 -0.0046029562 2999.0935)
(-0.0012307387 -0.0036764359 2999.0938)
(2.4359343e-07 -0.00040331517 2999.0969)
(-0.0013983912 0.00033964179 2999.0963)
(-0.0019911101 0.00050964172 2999.0957)
(-0.0019922491 -0.00046511857 2999.0956)
(-0.0031218887 -0.0031218875 2999.0959)
(-0.0051404191 -0.0054156985 2999.096)
(-0.0079649873 -0.0070356143 2999.0959)
(-0.0079310706 -0.0069732485 2999.0955)
(-0.0047408621 -0.0059141686 2999.0951)
(-0.00090423519 -0.0052835689 2999.0947)
(-0.00015368403 -0.0013981856 2999.0965)
(-0.0012132808 -0.0019677247 2999.0959)
(-0.0027635784 -0.0022592252 2999.0954)
(-0.0040995747 -0.0037106091 2999.0956)
(-0.0054156996 -0.0051404181 2999.096)
(-0.0076243367 -0.0076243355 2999.0966)
(-0.0087069949 -0.0087998713 2999.097)
(-0.0071361322 -0.0083589556 2999.0964)
(-0.0041720338 -0.0078318425 2999.0951)
(-0.00081033892 -0.007242905 2999.094)
(-0.00037944911 -0.0053334241 2999.095)
(-0.0022594307 -0.0060939395 2999.0938)
(-0.0037339945 -0.0070427151 2999.0939)
(-0.004873442 -0.0071494446 2999.0947)
(-0.0070356151 -0.0079649872 2999.0959)
(-0.0087998723 -0.0087069945 2999.097)
(-0.0086996074 -0.0086996068 2999.097)
(-0.0069630417 -0.0085988148 2999.0954)
(-0.0036248115 -0.0080620797 2999.0933)
(-0.00051161017 -0.0070561732 2999.0921)
(-0.0006606943 -0.0076941944 2999.0924)
(-0.0029225718 -0.0088067332 2999.0915)
(-0.0038190835 -0.0082015557 2999.0922)
(-0.0050218468 -0.0082575775 2999.0937)
(-0.0069732495 -0.0079310705 2999.0955)
(-0.0083589563 -0.0071361318 2999.0964)
(-0.0085988152 -0.0069630416 2999.0954)
(-0.0064986051 -0.0064986048 2999.0929)
(-0.0026293921 -0.0053987153 2999.0907)
(-0.00013973456 -0.0045173875 2999.0898)
(-0.0011211417 -0.0069255717 2999.0904)
(-0.002766792 -0.0071048951 2999.0902)
(-0.0031848388 -0.0060862717 2999.0916)
(-0.0046029569 -0.0058617132 2999.0935)
(-0.0059141695 -0.004740862 2999.0951)
(-0.0078318434 -0.0041720333 2999.0951)
(-0.0080620804 -0.0036248111 2999.0933)
(-0.0053987154 -0.0026293919 2999.0907)
(-0.0016435941 -0.0016435941 2999.0886)
(7.5941708e-05 -0.0014046349 2999.0877)
(-0.00078024319 -0.0019775953 2999.0901)
(-0.0020832718 -0.0016366968 2999.0906)
(-0.0025759016 -0.0015219151 2999.0921)
(-0.003676437 -0.0012307388 2999.0938)
(-0.0052835696 -0.00090423521 2999.0947)
(-0.0072429054 -0.00081033884 2999.094)
(-0.0070561738 -0.00051160993 2999.0921)
(-0.0045173881 -0.00013973446 2999.0898)
(-0.0014046351 7.594167e-05 2999.0877)
(1.957155e-05 1.9571512e-05 2999.0871)
(-0.00057947678 -0.00057947672 2999.0981)
(-0.0039515888 -0.0014999452 2999.0972)
(-0.0047641382 -0.001222547 2999.0971)
(-0.0019875185 -0.00092891323 2999.0978)
(-0.00039972 -0.00029147926 2999.0985)
(-0.0024452437 -0.00031902046 2999.0979)
(-0.0071823984 -0.00074643321 2999.0963)
(-0.009406015 -0.00088224834 2999.095)
(-0.007127335 -0.00086031709 2999.0951)
(-0.0017016272 -0.0002517823 2999.0966)
(-0.0014999452 -0.0039515884 2999.0972)
(-0.0049161941 -0.0049161937 2999.0958)
(-0.0039075903 -0.0039801195 2999.0967)
(-0.0005909169 -0.0025463378 2999.0977)
(0.00051511915 -0.0019391002 2999.0979)
(-0.0031276746 -0.0016296142 2999.0973)
(-0.0080272402 -0.0024474257 2999.0958)
(-0.0095768408 -0.0022671645 2999.0952)
(-0.0061816359 -0.0010589238 2999.0964)
(-0.0010930924 -0.00015936027 2999.0984)
(-0.001222547 -0.0047641375 2999.0971)
(-0.0039801199 -0.0039075896 2999.0967)
(-0.0023942823 -0.0023942816 2999.097)
(5.3500826e-05 -0.0016915853 2999.0978)
(0.00051700351 -0.0019088179 2999.0979)
(-0.0029535691 -0.0024663175 2999.0974)
(-0.0078199487 -0.0022692454 2999.0969)
(-0.0080175132 -0.0013088728 2999.0974)
(-0.0050195307 -0.00039141648 2999.099)
(-0.0011019182 -0.00025465178 2999.1005)
(-0.00092891332 -0.0019875176 2999.0978)
(-0.0025463383 -0.0005909159 2999.0977)
(-0.001691586 5.3501878e-05 2999.0978)
(-0.00010545312 -0.0001054521 2999.0982)
(-0.00025961307 -0.0014630747 2999.0984)
(-0.0034881021 -0.0028014986 2999.0987)
(-0.0068697955 -0.0024271734 2999.0995)
(-0.0076990119 -0.001929054 2999.1005)
(-0.0051274149 -0.0018463412 2999.1017)
(-0.001001916 -0.0017535607 2999.1024)
(-0.00029147922 -0.00039971911 2999.0985)
(-0.0019391005 0.00051511998 2999.0979)
(-0.0019088185 0.00051700477 2999.0979)
(-0.0014630757 -0.00025961182 2999.0984)
(-0.002179043 -0.0021790416 2999.0992)
(-0.0039176678 -0.0034708578 2999.1008)
(-0.006947504 -0.0042959769 2999.1026)
(-0.007436681 -0.004324937 2999.1036)
(-0.0048440374 -0.004283638 2999.1038)
(-0.0010400645 -0.0046481207 2999.1034)
(-0.0003190206 -0.002445243 2999.0979)
(-0.0016296144 -0.0031276742 2999.0973)
(-0.0024663178 -0.0029535681 2999.0974)
(-0.0028014994 -0.0034881012 2999.0987)
(-0.0034708591 -0.0039176667 2999.1008)
(-0.0056050374 -0.0056050362 2999.1035)
(-0.0077238746 -0.0068751815 2999.1052)
(-0.007686673 -0.0075675796 2999.1051)
(-0.0054505986 -0.0082655093 2999.1041)
(-0.0012449044 -0.0081875679 2999.1031)
(-0.00074643333 -0.0071823981 2999.0963)
(-0.0024474255 -0.0080272397 2999.0958)
(-0.0022692455 -0.0078199479 2999.0969)
(-0.0024271743 -0.0068697948 2999.0995)
(-0.004295978 -0.0069475033 2999.1026)
(-0.0068751826 -0.0077238741 2999.1052)
(-0.0089100474 -0.0089100466 2999.1058)
(-0.0088270088 -0.01013517 2999.1043)
(-0.0054640257 -0.010119089 2999.1028)
(-0.00098810354 -0.0090737582 2999.1018)
(-0.00088224833 -0.0094060145 2999.095)
(-0.0022671643 -0.0095768402 2999.0952)
(-0.001308873 -0.008017513 2999.0974)
(-0.0019290548 -0.0076990117 2999.1005)
(-0.0043249383 -0.0074366808 2999.1036)
(-0.0075675807 -0.0076866728 2999.1051)
(-0.01013517 -0.0088270086 2999.1043)
(-0.0088957159 -0.0088957155 2999.1024)
(-0.0043891871 -0.0079451993 2999.1009)
(-0.00054801691 -0.006754007 2999.1001)
(-0.00086031711 -0.0071273346 2999.0951)
(-0.0010589241 -0.0061816354 2999.0964)
(-0.00039141705 -0.0050195304 2999.099)
(-0.0018463421 -0.0051274148 2999.1017)
(-0.004283639 -0.0048440376 2999.1038)
(-0.0082655104 -0.0054505984 2999.1041)
(-0.01011909 -0.0054640255 2999.1028)
(-0.0079451995 -0.0043891866 2999.1009)
(-0.0033223172 -0.0033223172 2999.0992)
(-0.00019397531 -0.0025525248 2999.0991)
(-0.00025178218 -0.0017016272 2999.0966)
(-0.00015936018 -0.0010930923 2999.0984)
(-0.00025465241 -0.0011019179 2999.1005)
(-0.001753562 -0.0010019158 2999.1024)
(-0.0046481219 -0.0010400645 2999.1034)
(-0.0081875686 -0.0012449044 2999.1031)
(-0.0090737584 -0.00098810335 2999.1018)
(-0.0067540076 -0.00054801658 2999.1001)
(-0.0025525254 -0.00019397538 2999.0991)
(-3.4821975e-05 -3.482205e-05 2999.0997)
(-0.00072224945 -0.00072224932 2999.1019)
(-0.0038502707 -0.001751193 2999.1019)
(-0.0039161479 -0.0011802206 2999.1033)
(-0.0010117793 -0.00075264633 2999.1047)
(-0.00033020851 -0.00042763943 2999.1051)
(-0.0036469287 -0.00054916671 2999.1041)
(-0.0082357799 -0.00070493913 2999.1027)
(-0.0089441606 -0.00049273634 2999.1029)
(-0.0053167572 -0.00020075044 2999.1049)
(-0.0009527522 0.00043955506 2999.1071)
(-0.0017511931 -0.0038502701 2999.1019)
(-0.0045372276 -0.0045372268 2999.1024)
(-0.0024183279 -0.0034009878 2999.1042)
(0.00011709236 -0.0021055084 2999.1055)
(-2.4989077e-05 -0.0020607995 2999.1051)
(-0.0040628783 -0.0016452087 2999.1037)
(-0.0081511343 -0.0016262111 2999.103)
(-0.0081878775 -0.00052973945 2999.1041)
(-0.0039183201 0.0011551788 2999.1066)
(-0.00031244671 0.0018172207 2999.1087)
(-0.0011802206 -0.0039161471 2999.1033)
(-0.0034009884 -0.0024183269 2999.1042)
(-0.0014844294 -0.0014844281 2999.1054)
(0.00032840899 -0.0014051734 2999.1059)
(0.00013009117 -0.0015101698 2999.1051)
(-0.0032123404 -0.0013233627 2999.1042)
(-0.0071203106 -7.5332875e-05 2999.1042)
(-0.0061627706 0.0014827708 2999.1057)
(-0.0029697971 0.0021197695 2999.1081)
(-0.00051139097 0.0014158435 2999.1096)
(-0.00075264631 -0.0010117786 2999.1047)
(-0.0021055086 0.00011709315 2999.1055)
(-0.0014051744 0.0003284101 2999.1059)
(9.1350615e-05 9.1352062e-05 2999.1058)
(5.6821534e-05 -0.00063099967 2999.1054)
(-0.0026280414 -0.00071503615 2999.1055)
(-0.0053450008 0.0007547815 2999.1063)
(-0.0059927752 0.0011701366 2999.1079)
(-0.0039852475 0.00024072844 2999.1094)
(-0.00078173072 -0.00076488456 2999.1099)
(-0.00042763946 -0.0003302076 2999.1051)
(-0.0020607998 -2.4988368e-05 2999.1051)
(-0.0015101705 0.0001300923 2999.1051)
(-0.00063100077 5.6823097e-05 2999.1054)
(-0.00067629705 -0.00067629574 2999.1059)
(-0.0018265592 -0.00068482566 2999.1072)
(-0.0052351378 -0.0012946238 2999.1085)
(-0.0066768237 -0.0023644421 2999.1093)
(-0.0049048183 -0.0035038289 2999.1098)
(-0.0011817996 -0.0045893522 2999.1096)
(-0.00054916683 -0.003646928 2999.1041)
(-0.0016452087 -0.0040628775 2999.1037)
(-0.0013233629 -0.0032123394 2999.1042)
(-0.00071503743 -0.0026280402 2999.1055)
(-0.00068482723 -0.0018265578 2999.1072)
(-0.0032463695 -0.0032463682 2999.109)
(-0.0070246172 -0.0056061012 2999.1096)
(-0.0082019802 -0.0075981728 2999.1093)
(-0.0062101576 -0.0088111389 2999.1094)
(-0.0015054129 -0.0088326393 2999.1091)
(-0.00070493911 -0.0082357793 2999.1027)
(-0.0016262112 -0.0081511335 2999.103)
(-7.5333192e-05 -0.0071203101 2999.1042)
(0.00075478079 -0.0053450002 2999.1063)
(-0.001294625 -0.005235137 2999.1085)
(-0.0056061026 -0.0070246164 2999.1096)
(-0.0095869425 -0.0095869414 2999.1091)
(-0.0098818614 -0.011334104 2999.1085)
(-0.0061392848 -0.011312305 2999.1088)
(-0.0011961332 -0.010064346 2999.1087)
(-0.0004927363 -0.0089441604 2999.1029)
(-0.00052973948 -0.0081878773 2999.1041)
(0.0014827704 -0.0061627703 2999.1057)
(0.0011701357 -0.0059927748 2999.1079)
(-0.0023644434 -0.0066768235 2999.1093)
(-0.0075981739 -0.0082019799 2999.1093)
(-0.011334105 -0.0098818608 2999.1085)
(-0.009927344 -0.0099273435 2999.1082)
(-0.0049403988 -0.0090795757 2999.1085)
(-0.0006734398 -0.0071832448 2999.1086)
(-0.00020075036 -0.0053167572 2999.1049)
(0.001155179 -0.0039183201 2999.1066)
(0.0021197693 -0.0029697971 2999.1081)
(0.0002407275 -0.0039852475 2999.1094)
(-0.0035038302 -0.0049048184 2999.1098)
(-0.0088111399 -0.0062101574 2999.1094)
(-0.011312306 -0.0061392846 2999.1088)
(-0.0090795763 -0.0049403984 2999.1085)
(-0.0033951861 -0.0033951861 2999.1091)
(6.808739e-05 -0.0017527215 2999.1095)
(0.00043955511 -0.00095275211 2999.1071)
(0.0018172207 -0.00031244663 2999.1087)
(0.001415843 -0.00051139096 2999.1096)
(-0.00076488561 -0.00078173082 2999.1099)
(-0.0045893534 -0.0011817997 2999.1096)
(-0.0088326401 -0.0015054129 2999.1091)
(-0.010064346 -0.0011961332 2999.1087)
(-0.0071832455 -0.00067343958 2999.1086)
(-0.0017527219 6.8087333e-05 2999.1095)
(0.00042153662 0.00042153656 2999.1093)
(-0.00059304854 -0.00059304845 2999.1113)
(-0.0026194712 -0.0012015407 2999.1126)
(-0.0019609823 -0.00062494854 2999.1149)
(-0.00015783095 -0.00039192016 2999.1165)
(-0.0010027649 -0.00029263435 2999.1159)
(-0.0048056117 -0.00058562019 2999.1142)
(-0.0083994152 -0.00058063218 2999.1132)
(-0.0072359558 -7.7804809e-05 2999.1141)
(-0.0029317432 0.00027967017 2999.1166)
(-0.00024373912 0.00079227745 2999.1183)
(-0.0012015408 -0.0026194707 2999.1126)
(-0.0026673214 -0.0026673208 2999.1148)
(-0.00074655148 -0.0018364465 2999.1169)
(0.00034064033 -0.0013758117 2999.1176)
(-0.0012933149 -0.001955719 2999.1163)
(-0.0052376085 -0.0015171515 2999.1142)
(-0.0076376921 -0.00098033584 2999.1135)
(-0.0059455023 0.00056760737 2999.1149)
(-0.0016266198 0.0021560416 2999.1174)
(0.00026886816 0.0023279511 2999.1187)
(-0.0006249486 -0.0019609814 2999.1149)
(-0.001836447 -0.0007465504 2999.1169)
(-0.00066947322 -0.00066947206 2999.1181)
(-0.00027710342 -0.001440432 2999.1177)
(-0.0011441047 -0.0015855363 2999.1158)
(-0.0038302286 -0.00073375966 2999.1141)
(-0.0063146563 0.0010533446 2999.1136)
(-0.0040995784 0.0024403613 2999.1148)
(-0.0011713995 0.0023928252 2999.1169)
(-0.00012913279 0.00097046353 2999.1178)
(-0.00039192016 -0.00015782976 2999.1165)
(-0.001375812 0.00034064138 2999.1176)
(-0.0014404331 -0.00027710237 2999.1177)
(-0.00057542394 -0.0005754226 2999.1168)
(-0.00058664253 -0.0006083269 2999.1153)
(-0.0025987275 0.00015784488 2999.1141)
(-0.0044635711 0.0018945742 2999.1137)
(-0.0046060218 0.0016666046 2999.1145)
(-0.0030965176 -0.00017553839 2999.1159)
(-0.00067937295 -0.0017036303 2999.1164)
(-0.00029263451 -0.001002764 2999.1159)
(-0.0019557197 -0.0012933139 2999.1163)
(-0.0015855372 -0.0011441037 2999.1158)
(-0.00060832795 -0.00058664111 2999.1153)
(-0.00041083721 -0.00041083612 2999.1144)
(-0.0013273275 3.3194708e-05 2999.1137)
(-0.0048058965 -0.0010433196 2999.1133)
(-0.0061696909 -0.0028616173 2999.1136)
(-0.0045416344 -0.0043382151 2999.1146)
(-0.0011478607 -0.0054919409 2999.1152)
(-0.00058562008 -0.0048056112 2999.1142)
(-0.0015171518 -0.0052376077 2999.1142)
(-0.00073376037 -0.0038302273 2999.1141)
(0.00015784363 -0.0025987263 2999.1141)
(3.3193287e-05 -0.0013273263 2999.1137)
(-0.003231211 -0.0032312101 2999.1129)
(-0.0073583832 -0.0063319616 2999.1121)
(-0.0079009173 -0.0084531052 2999.1125)
(-0.0057268412 -0.0093053667 2999.1139)
(-0.0014485235 -0.0091193385 2999.1147)
(-0.00058063212 -0.008399415 2999.1132)
(-0.00098033575 -0.0076376918 2999.1135)
(0.0010533441 -0.0063146556 2999.1136)
(0.0018945731 -0.0044635705 2999.1137)
(-0.0010433209 -0.0048058958 2999.1133)
(-0.0063319628 -0.0073583822 2999.1121)
(-0.010027792 -0.010027791 2999.1115)
(-0.009143096 -0.01130991 2999.1125)
(-0.0052078677 -0.011005224 2999.1143)
(-0.0010238419 -0.0095256705 2999.1152)
(-7.7804598e-05 -0.0072359556 2999.1141)
(0.00056760766 -0.0059455019 2999.1149)
(0.0024403609 -0.0040995783 2999.1148)
(0.0016666034 -0.0046060216 2999.1145)
(-0.0028616185 -0.0061696907 2999.1136)
(-0.0084531062 -0.0079009168 2999.1125)
(-0.011309911 -0.0091430954 2999.1125)
(-0.0088783506 -0.0088783502 2999.1141)
(-0.0039426015 -0.007598152 2999.1158)
(-0.00046215426 -0.0059816534 2999.1166)
(0.00027967034 -0.002931743 2999.1166)
(0.0021560415 -0.0016266198 2999.1174)
(0.0023928245 -0.0011713997 2999.1169)
(-0.00017553927 -0.0030965176 2999.1159)
(-0.0043382162 -0.004541634 2999.1146)
(-0.0093053675 -0.0057268412 2999.1139)
(-0.011005225 -0.0052078671 2999.1143)
(-0.0075981526 -0.0039426007 2999.1158)
(-0.0023111709 -0.0023111705 2999.1177)
(5.3823803e-05 -0.0018606014 2999.1176)
(0.00079227753 -0.00024373914 2999.1183)
(0.002327951 0.00026886805 2999.1187)
(0.00097046313 -0.00012913284 2999.1178)
(-0.0017036309 -0.00067937284 2999.1164)
(-0.0054919421 -0.0011478606 2999.1152)
(-0.0091193393 -0.0014485234 2999.1147)
(-0.0095256707 -0.0010238418 2999.1152)
(-0.005981654 -0.00046215386 2999.1166)
(-0.0018606022 5.3823935e-05 2999.1176)
(-0.00016177487 -0.00016177474 2999.1155)
(0.00011774913 0.00011774928 2999.1233)
(-0.00029495809 -0.0003004111 2999.1258)
(-4.3555586e-05 0.00017661093 2999.1279)
(-4.2254695e-05 4.0880633e-06 2999.1285)
(-0.0025905372 -0.00016890355 2999.1271)
(-0.0063453553 -0.00054696227 2999.125)
(-0.0083085092 -0.00051225798 2999.1241)
(-0.0054797987 7.6755958e-09 2999.1251)
(-0.0011569023 0.00029135773 2999.1272)
(0.00015965749 0.00067657322 2999.1281)
(-0.00030041125 -0.00029495752 2999.1258)
(-0.00020666562 -0.0002066649 2999.1283)
(0.00041319316 -0.00020805785 2999.1299)
(-0.00056052642 -0.000887081 2999.1294)
(-0.0034171127 -0.0021094658 2999.1273)
(-0.006860387 -0.0017183852 2999.1249)
(-0.0074880543 -0.0011991849 2999.124)
(-0.0042743751 0.00016450883 2999.125)
(-0.00014205395 0.0014559305 2999.1268)
(0.00054487299 0.0013000665 2999.1275)
(0.00017661088 -4.3554877e-05 2999.1279)
(-0.00020805842 0.00041319396 2999.1299)
(-0.00072397168 -0.00072397046 2999.1302)
(-0.0019436626 -0.0022069204 2999.129)
(-0.0034218414 -0.0024216354 2999.1265)
(-0.0054350745 -0.0014371878 2999.1243)
(-0.0064256152 0.00020625228 2999.1231)
(-0.0028246833 0.0011544242 2999.1236)
(-2.1344562e-05 0.00065594307 2999.1252)
(5.5748218e-05 -0.00083984995 2999.1259)
(4.0879711e-06 -4.225373e-05 2999.1285)
(-0.0008870812 -0.00056052571 2999.1294)
(-0.0022069212 -0.0019436615 2999.129)
(-0.0022581914 -0.0022581901 2999.1276)
(-0.0026473801 -0.0020061602 2999.1255)
(-0.0042324993 -0.0011453723 2999.1231)
(-0.0048964423 0.00041467752 2999.1217)
(-0.0038246843 -5.6113434e-05 2999.1219)
(-0.0021363281 -0.0020546473 2999.1234)
(-0.00045232235 -0.0033312834 2999.1246)
(-0.00016890378 -0.0025905364 2999.1271)
(-0.0021094662 -0.0034171115 2999.1273)
(-0.002421636 -0.0034218405 2999.1265)
(-0.0020061613 -0.0026473788 2999.1255)
(-0.0023090236 -0.0023090225 2999.1234)
(-0.0030142368 -0.0019308684 2999.121)
(-0.0053363563 -0.0029489626 2999.1197)
(-0.005294008 -0.0043779746 2999.1205)
(-0.0032965145 -0.0055447605 2999.1223)
(-0.00079534251 -0.006306742 2999.1238)
(-0.00054696208 -0.0063453547 2999.125)
(-0.0017183852 -0.0068603861 2999.1249)
(-0.0014371885 -0.0054350735 2999.1243)
(-0.0011453735 -0.0042324983 2999.1231)
(-0.0019308698 -0.0030142359 2999.121)
(-0.0048724393 -0.0048724382 2999.1188)
(-0.0073435484 -0.0073458567 2999.1184)
(-0.0064204822 -0.0086836061 2999.12)
(-0.0040650955 -0.0091835579 2999.122)
(-0.00096031001 -0.0088096854 2999.1239)
(-0.00051225804 -0.0083085086 2999.1241)
(-0.001199185 -0.0074880538 2999.124)
(0.00020625174 -0.0064256145 2999.1231)
(0.00041467629 -0.0048964419 2999.1217)
(-0.0029489635 -0.0053363553 2999.1197)
(-0.0073458576 -0.0073435475 2999.1184)
(-0.0091475242 -0.0091475232 2999.1191)
(-0.0071317092 -0.0097727046 2999.1213)
(-0.0034225938 -0.0094199716 2999.1233)
(-0.00054609421 -0.0081139871 2999.125)
(7.7892826e-09 -0.0054797985 2999.1251)
(0.00016450881 -0.0042743746 2999.125)
(0.0011544234 -0.0028246832 2999.1236)
(-5.611426e-05 -0.0038246839 2999.1219)
(-0.0043779754 -0.0052940078 2999.1205)
(-0.0086836072 -0.006420482 2999.12)
(-0.0097727055 -0.0071317084 2999.1213)
(-0.0066929307 -0.00669293 2999.1239)
(-0.002406378 -0.0056069033 2999.1257)
(-8.9653667e-05 -0.0048608161 2999.1267)
(0.00029135792 -0.0011569022 2999.1272)
(0.0014559303 -0.00014205381 2999.1268)
(0.00065594242 -2.1344788e-05 2999.1252)
(-0.0020546483 -0.0021363278 2999.1234)
(-0.0055447615 -0.0032965145 2999.1223)
(-0.0091835583 -0.0040650951 2999.122)
(-0.0094199723 -0.0034225931 2999.1233)
(-0.005606904 -0.0024063772 2999.1257)
(-0.0015904799 -0.0015904793 2999.1264)
(-4.8702739e-05 -0.0028759582 2999.1267)
(0.00067657335 0.00015965755 2999.1281)
(0.0013000662 0.00054487299 2999.1275)
(-0.00083985063 5.5748143e-05 2999.1259)
(-0.003331284 -0.00045232237 2999.1246)
(-0.0063067426 -0.00079534232 2999.1238)
(-0.0088096858 -0.00096030974 2999.1239)
(-0.0081139877 -0.00054609397 2999.125)
(-0.0048608169 -8.9653344e-05 2999.1267)
(-0.002875959 -4.8702512e-05 2999.1267)
(-0.00094663964 -0.00094663941 2999.1273)
(0.0010871983 0.0010871984 2999.1342)
(0.0020203009 0.00046656161 2999.1363)
(0.00077692539 0.00067559565 2999.1373)
(-0.0010282493 0.00017626684 2999.1367)
(-0.0045665768 -0.00015596809 2999.135)
(-0.0077702332 -0.00061401522 2999.1335)
(-0.0082745934 -0.00064218299 2999.1332)
(-0.0041726232 -0.00016714349 2999.1343)
(7.9436974e-05 5.5123318e-05 2999.1362)
(0.00039786299 0.00037515887 2999.1369)
(0.00046656152 0.0020203015 2999.1363)
(0.0014028967 0.001402897 2999.1378)
(0.00034148323 0.00041336329 2999.138)
(-0.0022755949 -0.00096105452 2999.1368)
(-0.0057519999 -0.0024648022 2999.1349)
(-0.0084995555 -0.0022160531 2999.1334)
(-0.0076042858 -0.0020111193 2999.1329)
(-0.0031266638 -0.00092551798 2999.134)
(0.00089289051 0.00017827412 2999.1356)
(0.00071789854 0.00013770153 2999.1363)
(0.00067559533 0.00077692621 2999.1373)
(0.0004133627 0.00034148397 2999.138)
(-0.0015870261 -0.0015870257 2999.1375)
(-0.0039064148 -0.0032194179 2999.1365)
(-0.0058215753 -0.0033571309 2999.1348)
(-0.0073165503 -0.0025529201 2999.1331)