/*--------------------------------*- C++ -*----------------------------------*\
| =========                 |                                                 |
| \\      /  F ield         | OpenFOAM: The Open Source CFD Toolbox           |
|  \\    /   O peration     | Version:  v2106                                 |
|   \\  /    A nd           | Website:  www.openfoam.com                      |
|    \\/     M anipulation  |                                                 |
\*---------------------------------------------------------------------------*/
FoamFile
{
    version     2.0;
    format      ascii;
    arch        "LSB;label=32;scalar=64";
    class       volScalarField;
    location    "40";
    object      laplacianT;
}
// * * * * * * * * * * * * * * * * * * * * * * * * * * * * * * * * * * * * * //

dimensions      [0 -2 0 1 0 0 0];

internalField   nonuniform List<scalar> 
10000
(
1.1226935
-1.4779137
-3.0534993
-1.4766949
-1.6082897
-0.41662383
0.32775193
-5.4225694
-0.39930603
2.5128731
-1.4779127
-4.3396603
-3.9241531
-2.0317613
-0.087732872
-3.3997096
-4.9590919
-3.6459397
-0.47139605
-2.2194978
-3.0534983
-3.9241525
-3.865636
1.0085255
-1.0191657
-6.3656622
-1.5153249
-4.2171482
-3.9221883
0.47247164
-1.4766952
-2.0317618
1.0085265
1.3997375
-3.4846271
-0.69069563
-1.3575552
-3.6491409
3.2951989
4.4521731
-1.6082871
-0.087733896
-1.0191644
-3.4846279
-0.36316607
-3.2507843
-2.1491168
-0.25090031
3.1746019
4.4262407
-0.41662139
-3.3997093
-6.3656622
-0.69069484
-3.2507822
-2.9126576
1.815527
2.0758254
6.443163
6.7334672
0.32774892
-4.9590912
-1.5153223
-1.3575568
-2.149117
1.8155288
6.5505044
9.2875749
10.152708
7.5078726
-5.4225687
-3.6459386
-4.2171486
-3.6491421
-0.25090066
2.0758262
9.2875742
9.5358372
8.5028255
8.4388198
-0.39930461
-0.47139662
-3.9221911
3.2951997
3.1745997
6.4431613
10.152709
8.5028246
10.105228
8.3244847
2.5128731
-2.2194997
0.4724738
4.4521735
4.4262407
6.733467
7.5078751
8.4388183
8.3244878
4.4622975
-2.5713687
-8.5421905
-5.2761932
-1.680794
1.6611432
-4.3953199
-4.7949231
-3.7020669
-3.6467105
1.9457153
-8.5421917
-11.033818
-2.3715852
-2.545712
-2.982061
-6.1638776
-10.01627
-5.3368376
0.82081057
3.7718336
-5.2761924
-2.3715882
0.33404774
-0.93623243
0.57180853
-8.0101167
-5.1268298
-1.4518533
-0.94636352
5.4869373
-1.6807948
-2.5457104
-0.93623566
1.0216603
-5.155656
-4.4016783
-4.9897959
-2.1863995
6.510149
9.3159709
1.6611444
-2.9820608
0.57180875
-5.155654
0.2391298
-3.4842857
-2.4592944
6.7256063
10.306239
9.4415409
-4.3953204
-6.1638742
-8.0101189
-4.4016807
-3.4842862
-2.9582505
6.7476147
11.601849
12.612329
11.578591
-4.7949234
-10.016273
-5.1268293
-4.9897956
-2.4592936
6.747615
13.454831
16.582446
17.098869
13.991375
-3.7020673
-5.336837
-1.4518536
-2.186399
6.725605
11.60185
16.582447
18.943096
18.634862
14.381094
-3.6467114
0.8208105
-0.94636391
6.5101471
10.306236
12.61233
17.098869
18.634861
17.454591
10.982101
1.9457145
3.7718341
5.4869355
9.3159697
9.4415417
11.578591
13.991373
14.381098
10.982102
6.3329079
-3.1627203
-10.830923
-3.1550007
-0.23780257
0.95662744
-5.0230604
-6.4501397
-2.4892767
0.12189452
7.3396187
-10.83092
-10.182683
-0.27436522
2.8237574
-4.7651476
-6.1413472
-7.5156287
-2.6174179
8.9918363
11.322029
-3.1550005
-0.27436335
4.2747843
2.1523185
1.8549072
-8.127937
-3.7968688
4.2375197
6.8656868
10.380115
-0.23780075
2.8237546
2.1523213
5.3232704
-3.3560522
-4.2781693
-0.9771885
3.8881906
11.459177
11.698924
0.95662711
-4.7651465
1.8549063
-3.3560514
0.072090015
-1.4358748
1.3100985
9.5960565
12.191478
10.125081
-5.0230606
-6.1413479
-8.1279376
-4.2781714
-1.4358784
1.0840053
9.6325045
12.254488
12.740593
11.824131
-6.4501386
-7.5156267
-3.7968686
-0.97718868
1.310096
9.6325039
13.661077
15.359892
17.515092
14.617891
-2.4892753
-2.617419
4.2375187
3.8881901
9.5960576
12.254489
15.359892
18.576118
19.970886
14.975144
0.12189269
8.9918368
6.8656865
11.459175
12.191479
12.740591
17.515094
19.970886
18.523157
13.841763
7.33962
11.322028
10.380112
11.698924
10.125081
11.82413
14.61789
14.975144
13.841763
11.97349
-3.0312139
-7.4607292
2.0470277
3.532812
3.4075502
-1.7723228
-3.6498286
3.1562547
9.3604616
13.664762
-7.4607295
1.092753
6.1657889
9.2003301
0.6244257
-3.5544112
0.27344651
8.8685976
17.941505
14.275107
2.047028
6.1657882
12.91776
7.6170237
6.7143943
-2.5966791
3.3766473
11.180417
10.627487
11.343764
3.5328108
9.2003304
7.6170255
8.8615931
1.4075255
0.64916435
2.5861573
6.1886856
11.570785
9.8928342
3.4075496
0.62442292
6.7143931
1.4075233
5.0351741
1.7372361
1.6738583
6.8109964
7.3437886
6.498502
-1.7723248
-3.5544114
-2.5966798
0.64916377
1.7372356
0.33530341
3.2811039
3.2600511
5.9686296
8.1786662
-3.64983
0.27344737
3.3766441
2.5861567
1.6738579
3.2811033
2.6068126
6.5061001
12.928188
12.248316
3.1562545
8.8685976
11.180414
6.1886839
6.8109939
3.2600529
6.5060988
14.031386
17.80966
14.553881
9.36046
17.941504
10.627488
11.570786
7.3437883
5.9686296
12.92819
17.809661
21.131739
17.244157
13.664761
14.275104
11.343761
9.8928329
6.498503
8.1786669
12.248317
14.553878
17.244159
13.507302
2.9077786
-0.56342803
9.1948666
10.587054
6.7634332
1.7167746
3.4732765
11.426499
16.150111
15.892697
-0.56342834
13.325303
14.123518
13.39553
5.9644822
3.8472006
7.9176707
15.117255
20.774743
12.634382
9.1948656
14.123516
18.5786
12.016995
11.898696
3.4975007
9.5169074
14.929526
10.694451
8.5183819
10.587054
13.395528
12.016992
13.976067
6.2571413
5.435904
4.9658206
4.95665
7.92937
6.2517816
6.7634335
5.9644821
11.898697
6.2571411
9.7075897
3.0218139
-2.4353815
0.59066525
1.804336
3.3872851
1.7167736
3.8472019
3.4974974
5.4359008
3.0218147
-5.086162
-5.9784611
-3.4961317
1.6832005
5.6624745
3.4732762
7.9176694
9.5169076
4.9658192
-2.4353842
-5.9784631
-5.0286656
3.4957963
9.9023587
10.170192
11.426497
15.117253
14.929525
4.9566486
0.59066403
-3.4961305
3.4957949
12.773436
16.603907
14.450694
16.150112
20.774744
10.69445
7.9293666
1.8043352
1.6832004
9.9023575
16.603909
24.134405
14.738034
15.892697
12.634381
8.5183809
6.2517808
3.3872857
5.6624744
10.170192
14.450694
14.738036
3.2594044
7.9857648
8.0035728
14.854266
12.646282
9.0782942
4.3189236
7.8702662
15.865978
16.828585
13.779723
8.0035733
18.092483
16.514081
13.126558
6.5899276
7.674458
12.461004
16.254022
17.682834
8.3620263
14.854267
16.514081
18.373479
11.529888
14.37149
6.7010647
12.449209
15.322948
7.5940816
5.3646285
12.646281
13.126556
11.529886
14.77507
8.2762778
7.1754762
5.324387
3.6048396
5.3030132
5.8436701
9.0782921
6.589927
14.37149
8.2762781
11.569192
2.2574739
-4.2778141
0.14729846
2.1078735
4.8145637
4.3189234
7.6744548
6.7010648
7.1754741
2.2574755
-7.5092904
-5.1745705
0.12334368
3.5954896
8.6485232
7.8702659
12.461003
12.449206
5.3243867
-4.2778161
-5.1745689
0.29095709
9.4032911
11.951114
12.077343
15.86598
16.254021
15.322946
3.6048369
0.14730103
0.12334137
9.4032934
16.899707
18.715429
15.33613
16.828584
17.682832
7.5940818
5.3030143
2.1078732
3.5954902
11.951113
18.71543
17.403183
9.8369076
13.779723
8.3620262
5.3646292
5.8436688
4.8145622
8.6485251
12.077343
15.336127
9.8369077
7.6138133
13.053883
10.925698
14.657928
9.1451007
6.3190762
4.3023441
9.102073
15.413002
13.603328
10.512679
10.925697
15.499145
9.7959551
6.6612516
2.6726893
6.7093906
12.151811
14.344313
13.4308
5.3108767
14.657928
9.7959531
11.202856
6.0797164
12.230709
6.323993
13.27736
15.545437
5.9159044
5.7052001
9.1451013
6.6612524
6.0797134
11.242843
6.3275117
7.2240038
7.0870088
6.1293879
7.737281
9.0674218
6.3190745
2.6726911
12.230708
6.3275113
11.260405
4.2001529
1.2488547
6.8393696
7.5352269
9.5841649
4.3023452
6.7093867
6.3239918
7.2240012
4.2001536
-0.65141334
5.3543916
8.9772012
10.199446
13.464597
9.1020713
12.151812
13.277358
7.0870078
1.2488563
5.354388
11.595341
17.656547
17.69289
16.421581
15.413002
14.344311
15.545435
6.1293886
6.839366
8.9771997
17.656548
20.824686
21.364534
15.764332
13.60333
13.430798
5.9159052
7.7372789
7.5352294
10.199447
17.692889
21.364535
15.656485
11.285199
10.51268
5.3108752
5.7052022
9.0674213
9.5841656
13.464596
16.421579
15.764331
11.285198
22.531896
15.948402
6.8526161
8.4071486
2.363786
1.8505647
2.1243454
7.919067
14.184506
10.956251
8.6050189
6.8526164
6.2045682
-0.57108103
-1.5168346
-2.2680172
4.6029497
11.334099
13.338544
11.390508
5.0817552
8.4071471
-0.57107825
2.7998591
-0.15173117
8.9965936
5.0999523
14.366589
17.488337
7.4459529
7.1398595
2.3637845
-1.5168354
-0.15172975
6.5180431
3.0937794
7.3331958
10.701843
11.014177
11.304936
9.0019553
1.8505644
-2.2680194
8.9965934
3.09378
10.911003
8.7049982
8.882491
12.342971
9.7797679
8.2198586
2.1243449
4.6029506
5.0999544
7.3331934
8.7049986
8.6192556
12.977971
12.309157
13.71863
10.034632
7.9190683
11.334098
14.366587
10.701844
8.8824909
12.977973
16.160056
18.360082
19.033387
12.72659
14.184505
13.338545
17.488339
11.014177
12.342972
12.309159
18.360078
18.156721
16.897126
12.201689
10.95625
11.390508
7.4459517
11.304935
9.7797707
13.718628
19.033386
16.897124
21.296093
15.668197
8.605018
5.0817532
7.1398575
9.001955
8.2198567
10.034631
12.726591
12.201686
15.668197
9.8099151
13.953094
0.86231051
2.221889
-2.1655851
-0.091473634
1.8660431
8.3385873
14.78322
10.172662
8.3417174
0.86231131
-1.3616496
-6.3127561
-4.0911984
-2.8230518
5.1506695
12.621498
14.004972
11.260914
4.9041436
2.2218883
-6.3127561
0.0890991
-2.281857
7.4214583
4.7082695
15.940519
19.165737
8.1695506
4.2923034
-2.1655845
-4.0912005
-2.2818584
3.0258276
-0.14490753
7.1202175
12.124204
12.32332
8.6483903
3.375965
-0.091472859
-2.8230504
7.42146
-0.14490707
10.023445
10.473899
9.8757379
10.341556
5.229437
2.5406015
1.8660422
5.1506696
4.7082677
7.1202174
10.473899
10.140247
11.105436
10.41562
10.564657
7.902831
8.3385856
12.621497
15.94052
12.124204
9.8757356
11.105435
12.487614
14.02336
14.319091
9.9433918
14.78322
14.004973
19.165736
12.32332
10.341556
10.41562
14.02336
15.146889
13.104284
13.238432
10.172661
11.260912
8.1695493
8.6483894
5.2294377
10.564656
14.319092
13.104282
16.516369
14.331878
8.3417149
4.9041419
4.2923035
3.3759651
2.5406
7.9028314
9.9433888
13.238433
14.331877
3.1338676
11.617371
-1.1580202
2.2772565
0.24038383
3.6180421
5.5221053
11.367519
17.126896
10.457776
7.8914728
-1.1580211
1.1402087
-1.577329
1.7481128
1.8420288
8.914508
15.878703
14.777193
9.961227
2.6794518
2.2772562
-1.5773308
5.1380075
-0.17568343
8.3954164
5.8555661
16.538167
17.917018
5.2753703
2.5920802
0.24038426
1.7481131
-0.17568257
1.6630418
-2.0035161
5.9478945
9.075952
10.133686
4.2074107
4.821492
3.6180422
1.8420269
8.3954151
-2.003515
8.6475837
7.2642769
6.736597
8.7998693
4.2596087
7.5927816
5.5221057
8.9145081
5.8555692
5.9478931
7.2642786
7.1408151
9.2674348
12.224156
11.492738
15.731451
11.367521
15.878701
16.538168
9.0759536
6.7365984
9.2674343
10.935855
14.140298
15.090913
15.976913
17.126895
14.777191
17.917016
10.133687
8.7998712
12.224154
14.140299
14.918453
19.55439
15.845681
10.457775
9.961228
5.2753675
4.2074127
4.2596063
11.492741
15.09091
19.554389
17.475643
6.4910326
7.8914721
2.6794509
2.5920794
4.8214926
7.5927834
15.731448
15.976915
15.845681
6.4910329
18.759694
13.226835
3.8224988
9.7847486
8.329061
11.214748
11.418515
15.290629
19.143683
9.8119498
6.5936104
3.8225009
12.203496
9.6314263
11.232598
8.6208632
13.296838
17.908658
13.376561
6.3256031
2.1759186
9.7847511
9.6314249
13.657583
3.8653878
10.737964
6.9348324
15.751835
15.283942
2.4814079
7.2664006
8.3290605
11.232597
3.8653891
1.9903467
-1.9788723
5.5291031
6.191945
9.3190321
6.9647744
12.378118
11.214746
8.6208632
10.737965
-1.978872
9.3347047
5.3376764
7.9273649
12.495905
11.942413
17.098447
11.418517
13.296837
6.9348346
5.5291038
5.3376758
8.6772543
12.342831
16.9593
19.688974
20.604126
15.290629
17.908658
15.751836
6.191943
7.9273686
12.342832
13.949501
18.281508
19.754955
15.720902
19.143681
13.37656
15.283942
9.3190342
12.495903
16.959302
18.281508
17.910262
19.09083
11.939456
9.8119512
6.3256006
2.4814078
6.9647748
11.942414
19.688974
19.754956
19.09083
16.465878
4.2153994
6.5936079
2.1759188
7.2664015
12.378118
17.098445
20.604126
15.720902
11.939456
4.2153983
7.7682393
18.524924
11.828414
18.57668
16.272882
18.090949
16.144348
16.358983
17.932108
6.9751404
5.5331723
11.828414
22.802881
18.512697
18.120691
13.174629
13.653153
15.425506
8.8065924
1.4278703
2.4574571
18.576679
18.512699
19.524496
6.9327835
12.381373
6.9874133
14.230029
13.355358
4.2481552
12.649829
16.272881
18.12069
6.932784
3.656465
0.6834461
7.7414779
8.192685
14.740751
16.696888
18.308482
18.090951
13.174629
12.381373
0.6834458
14.459567
10.020053
17.091177
22.375373
20.521498
20.722502
16.144349
13.653153
6.9874161
7.7414793
10.02005
17.948652
21.18274
24.974028
22.818697
18.293892
16.358982
15.425507
14.230029
8.1926894
17.091175
21.18274
21.062504
21.858724
18.488896
8.4947611
17.932108
8.8065887
13.355358
14.740748
22.375373
24.974028
21.858724
20.683881
5.7247679
5.6992777
6.9751394
1.4278682
4.2481566
16.696889
20.5215
22.818696
18.488895
5.7247655
-5.7942172
2.2654104
5.5331705
2.4574567
12.64983
18.308482
20.722501
18.293892
8.4947617
5.6992797
2.2654127
-2.2058308
24.652555
15.432153
22.631776
19.885848
21.011437
17.057902
12.502125
12.421487
3.0613571
4.4931012
15.432152
25.497404
20.220229
19.919705
14.466975
9.2065063
9.1015093
4.4072291
0.56892769
3.5175472
22.631775
20.220232
21.275915
10.423668
13.993432
7.1903921
14.966956
16.86513
9.5819045
16.152922
19.885847
19.919706
10.423668
7.7250758
6.5018506
13.355222
15.945844
23.432603
21.864615
18.617555
21.011438
14.466977
13.993432
6.5018504
23.281848
20.061452
25.116758
26.19958
20.034944
14.62661
17.057901
9.2065033
7.1903938
13.355222
20.061454
25.085123
23.634245
24.218084
14.937483
9.244721
12.502126
9.1015109
14.966956
15.945843
25.116758
23.634245
21.712733
13.858053
6.072884
2.6318507
12.421489
4.407227
16.865133
23.432603
26.199584
24.218084
13.858052
1.544472
-7.8887218
-3.1812689
3.0613542
0.56892975
9.5819032
21.864613
20.034943
14.937481
6.0728858
-7.8887223
-6.4844969
-12.138486
4.4931027
3.5175476
16.152923
18.617557
14.626609
9.244722
2.6318497
-3.1812674
-12.138486
6.5933563
27.178883
11.826313
21.234251
19.370518
19.863643
14.418733
7.0984062
7.2963989
2.1256543
4.0340424
11.826314
20.524114
17.395089
18.595813
14.440846
4.6593598
5.1884458
3.7160116
0.5828484
5.6080886
21.234251
17.395087
21.747684
15.507678
16.09472
10.722241
17.41459
18.658161
11.45136
14.938125
19.370516
18.595814
15.507678
12.363268
16.490692
19.433241
19.831337
24.424241
20.697079
14.240671
19.86364
14.440847
16.09472
16.490692
31.148052
25.944745
25.549175
21.320128
11.816611
9.9114927
14.418733
4.6593607
10.722239
19.433241
25.944744
26.448412
19.660374
14.099478
4.6648551
7.0182178
7.098405
5.1884448
17.414591
19.831337
25.549176
19.660374
10.544773
-1.7435677
-6.4668724
3.5551634
7.2963988
3.7160112
18.658161
24.424239
21.320126
14.099477
-1.7435678
-13.979288
-8.9020838
1.4262989
2.1256549
0.58284964
11.451362
20.697078
11.81661
4.6648559
-6.4668741
-8.9020816
-0.56463763
-4.587276
4.0340426
5.6080896
14.938124
14.24067
9.9114925
7.0182181
3.5551645
1.4262997
-4.5872763
17.189713
24.777012
4.7345559
17.637531
17.438072
16.021487
10.934522
6.1061833
5.2024176
2.7853228
4.7013889
4.7345557
13.901894
14.104789
14.487627
14.783063
5.6171782
5.3101933
4.9148197
-0.062597192
5.0798578
17.637529
14.104791
19.85436
21.649257
19.173364
17.416333
21.453977
16.672998
10.49354
9.8791461
17.438075
14.487626
21.649257
15.325831
25.844831
26.55732
20.330907
21.135268
16.359071
10.797399
16.021487
14.783063
19.173366
25.844832
39.529363
28.833322
22.329514
16.082161
5.4853024
7.7108249
10.934524
5.6171785
17.41633
26.557319
28.833321
26.593094
15.081747
7.0523295
5.1437467
11.121675
6.1061843
5.3101945
21.453976
20.330905
22.329514
15.081747
2.3977573
-2.249731
5.7872896
9.6579621
5.2024176
4.9148178
16.672998
21.135268
16.082161
7.0523283
-2.2497328
3.6616422
8.3053651
12.376524
2.7853218
-0.06259591
10.49354
16.359069
5.4853031
5.1437445
5.7872912
8.3053645
1.3706505
14.075136
4.7013916
5.0798563
9.8791468
10.7974
7.7108241
11.121677
9.6579629
12.376522
14.075137
22.665842
21.300195
-1.524902
13.188372
15.844763
14.094628
8.9106383
9.6680405
4.9041452
3.0913549
3.1253605
-1.5249031
7.2726435
13.188012
10.519365
14.526941
10.353598
6.0623973
2.3793598
-1.8203263
0.6075307
13.188372
13.188013
15.50106
24.593345
22.637678
19.205678
19.762649
14.106973
5.6311811
3.4050605
15.844763
10.519367
24.593346
19.430059
24.117417
22.479798
16.073494
17.176446
10.966356
8.7631014
14.094629
14.526939
22.637678
24.11742
32.224262
20.699076
16.363209
7.9791006
3.9412189
9.2791298
8.9106371
10.3536
19.205678
22.479798
20.699076
19.11905
10.343018
5.6988057
8.7710298
12.929792
9.6680409
6.0623962
19.762647
16.073494
16.363208
10.343019
8.6577725
10.684562
23.421936
17.025811
4.9041454
2.3793633
14.106972
17.176445
7.9790995
5.6988069
10.684562
17.840145
17.328115
17.67103
3.0913558
-1.8203246
5.6311801
10.966353
3.9412168
8.7710322
23.421937
17.328118
19.296766
9.3148895
3.1253603
0.60753209
3.4050583
8.7631009
9.27913
12.929793
17.025812
17.671031
9.3148912
9.8192445
19.050739
-4.8697382
9.6260744
14.674857
14.50555
8.0501556
11.454175
5.9015011
4.3416333
-2.0085071
-4.8697388
1.8687125
14.737836
7.2713207
10.135364
11.563257
9.3362213
3.1626763
-5.0137564
-4.5219092
9.6260733
14.737836
11.787463
18.425976
22.775033
19.258397
20.955352
13.993662
0.18577062
5.4918119
14.674859
7.2713217
18.425977
18.917556
21.631988
17.935258
14.249904
12.716591
8.2804127
12.923108
14.505554
10.135365
22.775032
21.631987
23.005899
13.50451
13.891938
3.5765565
5.2242576
8.6842356
8.0501563
11.563259
19.258398
17.935258
13.504511
14.936401
14.017584
16.308879
16.021673
15.437904
11.454175
9.3362222
20.955353
14.249903
13.891937
14.017584
19.310787
20.699468
17.430202
17.608402
5.901502
3.1626756
13.993662
12.71659
3.5765571
16.308879
20.69947
17.806259
9.1040533
21.432371
4.3416331
-5.0137549
0.18576662
8.2804128
5.2242571
16.021674
17.430202
9.1040585
16.902827
2.9245538
-2.0085056
-4.5219097
5.4918089
12.923107
8.6842367
15.437901
17.608405
21.432371
2.9245525
6.7341364
17.238133
-1.4165826
7.3332089
14.710946
16.332287
11.41766
13.344767
9.4714101
5.9692376
-1.0457817
-1.4165823
-2.727615
17.27644
15.10368
7.9777249
10.398766
13.33753
7.6225686
-2.3421967
4.4394438
7.3332109
17.276443
19.220871
16.353376
15.891624
19.767789
25.850551
13.184708
1.4005568
16.440656
14.710946
15.103681
16.353379
10.671613
18.093457
19.813185
13.754132
14.248911
11.76724
11.217297
16.332288
7.9777265
15.891623
18.09346
19.051508
16.005699
17.126205
15.410149
14.460654
11.384117
11.41766
10.398767
19.767789
19.813185
16.005697
24.011122
19.248269
18.435117
10.604371
23.243849
13.344768
13.337531
25.850552
13.754134
17.126205
19.248268
24.78611
15.441461
7.8295835
8.9633505
9.4714094
7.6225677
13.184708
14.248909
15.410148
18.435118
15.441461
14.211195
13.349404
5.2001128
5.9692371
-2.342198
1.4005563
11.76724
14.460653
10.604373
7.8295854
13.349403
-15.646278
-0.69210113
-1.0457808
4.4394426
16.440656
11.217298
11.384116
23.243852
8.9633496
5.2001147
-0.69209879
19.231146
15.24486
5.2771411
19.618369
29.304279
26.692159
25.417118
22.25121
11.257864
14.255631
25.461941
5.2771409
21.600242
40.003255
39.935627
28.884852
21.165116
20.281407
21.517466
26.475681
37.817126
19.618369
40.003258
39.563279
22.591395
14.095866
20.400028
27.487926
16.9784
22.563269
20.831555
29.30428
39.935629
22.591395
5.596554
8.9055195
23.322072
21.993806
22.08219
25.47351
22.47409
26.692159
28.884853
14.095866
8.90552
13.663744
20.649842
25.100733
12.70631
16.38719
26.556472
25.41712
21.165115
20.400026
23.322072
20.649844
27.861852
23.748345
17.852005
21.955949
18.839779
22.251207
20.281405
27.487927
21.993807
25.100732
23.748344
23.264909
17.977275
22.023098
3.9218164
11.257863
21.517466
16.978399
22.082191
12.706309
17.852006
17.977275
11.242905
12.551792
-12.153143
14.255631
26.475677
22.563268
25.473509
16.387189
21.955951
22.023097
12.55179
13.977092
3.3054126
25.46194
37.817128
20.831554
22.47409
26.556475
18.839777
3.9218172
-12.153144
3.3054122
21.821208
-40.496624
12.620692
5.8378416
2.9754984
0.95804629
37.213521
62.856987
0.26244122
-33.686984
-35.498383
12.620693
5.6911379
17.641678
19.699613
11.73126
15.275858
37.804815
25.537854
4.3645763
-24.991007
5.83784
17.641675
33.501681
37.053933
34.92446
24.786276
40.184923
36.464994
45.217304
-15.143789
2.9754956
19.699612
37.053941
16.955019
21.239355
29.103403
32.70439
28.532182
39.891424
-45.996089
0.95804396
11.731257
34.924465
21.239354
13.005427
19.377507
35.136116
32.617382
43.29785
-16.247305
37.213524
15.275858
24.78628
29.103403
19.377505
13.424625
2.8787673
-16.12497
30.125369
46.339318
62.856985
37.804818
40.184922
32.704389
35.136116
2.8787712
-5.9156294
-22.867982
19.488361
58.251521
0.26244161
25.537855
36.464989
28.53218
32.617375
-16.124969
-22.867984
0.56761755
41.474156
50.826566
-33.686983
4.3645804
45.217302
39.891431
43.297852
30.125374
19.488365
41.474157
43.624772
0.79027694
-35.498383
-24.991001
-15.143793
-45.996091
-16.247305
46.339317
58.251521
50.826568
0.79027449
-13.562525
3.0080537
3.8506645
70.813664
69.959885
50.836469
13.182185
3.8969248
58.017803
69.254625
68.664344
3.8506633
58.145721
71.73949
34.377157
23.01038
39.460615
34.620245
25.129237
21.950178
51.670657
70.813665
71.73949
20.904311
-12.972931
-8.9827755
35.117622
29.574742
19.54319
0.89152846
50.629257
69.959885
34.377155
-12.972938
-10.724034
-1.1221723
23.060601
35.715515
41.430292
14.207655
73.420104
50.836468
23.01038
-8.9827752
-1.1221684
14.892129
21.131807
24.607946
31.003385
-3.1418414
38.166238
13.182178
39.460618
35.117622
23.060602
21.131807
23.61999
33.689161
53.570489
0.41271366
-12.663196
3.8969261
34.620243
29.574746
35.715514
24.607947
33.689157
30.120443
52.66929
19.220678
-9.9034906
58.0178
25.129235
19.543191
41.430294
31.003392
53.570489
52.669292
40.424851
11.84655
-4.163086
69.254628
21.950176
0.89152873
14.207646
-3.1418422
0.41271121
19.220675
11.846547
-9.6149903
4.6054431
68.66435
51.670655
50.629261
73.420107
38.16624
-12.663192
-9.9034913
-4.1630873
4.6054449
-13.618944
29.158533
0.6031985
-13.910402
7.8497466
27.594187
20.431356
12.517578
-3.5813092
4.2438082
14.241947
0.60319843
3.7492785
8.7426995
18.66224
30.334
5.5333089
21.183761
19.06704
-0.84497665
-3.166676
-13.910404
8.7427007
15.842989
12.936496
15.833101
3.600026
22.242016
14.128388
0.86976038
7.4205866
7.8497432
18.66224
12.936496
13.378106
14.575204
18.282921
20.62516
22.554319
22.117464
27.875328
27.594186
30.334001
15.8331
14.575206
33.289505
16.58966
23.111889
30.417983
24.371902
34.426115
20.431358
5.5333071
3.6000283
18.28292
16.589659
11.262161
20.937472
27.185462
36.131529
35.521837
12.517576
21.183761
22.242018
20.625158
23.111889
20.937472
25.093221
37.934686
45.829094
36.655594
-3.5813087
19.067042
14.128386
22.55432
30.417981
27.185462
37.934688
47.256276
41.808536
29.213395
4.2438101
-0.84497646
0.86976383
22.117463
24.371905
36.131528
45.829097
41.808537
29.284891
14.69009
14.241948
-3.1666782
7.4205872
27.875327
34.426114
35.521839
36.655593
29.213393
14.690091
21.86841
28.084093
-19.980153
11.992705
6.5816192
25.682406
11.875056
10.063039
20.044226
0.98875096
6.1115191
-19.98015
-37.452286
3.6938724
-3.3751309
-6.3145814
4.9706331
-6.3540155
-6.6384351
1.1322829
13.49437
11.992705
3.6938736
8.4093707
10.214994
18.996634
4.3886404
12.597321
22.738234
11.932717
18.142272
6.5816189
-3.3751287
10.214994
19.223911
4.4715177
9.6957599
9.0178207
26.362083
27.276211
24.294901
25.682408
-6.3145827
18.996636
4.4715165
25.6125
19.351428
22.296156
35.580031
24.040136
22.72233
11.875054
4.9706334
4.3886416
9.6957582
19.351428
27.05265
39.664001
34.50722
23.839795
29.805968
10.063038
-6.3540157
12.597318
9.0178214
22.296154
39.664001
35.366366
32.982793
33.033715
32.038213
20.044228
-6.6384356
22.738234
26.362083
35.58003
34.507221
32.982796
34.300284
34.606703
24.564283
0.98875094
1.1322861
11.932716
27.276214
24.040135
23.839794
33.033713
34.606704
19.14757
16.683909
6.1115216
13.49437
18.142272
24.294898
22.722332
29.805968
32.038211
24.564282
16.683909
33.969732
-2.7656767
-23.224174
4.4475323
5.1287744
16.362145
2.4091796
9.4973816
14.723383
0.99020669
11.457153
-23.224176
-13.128534
-9.3396909
13.306255
7.3379438
-2.1823274
3.326607
6.9163159
8.9280603
19.493944
4.4475299
-9.3396913
16.794179
12.648182
21.588553
-5.2107339
14.111705
27.855115
13.309091
21.615496
5.1287738
13.306256
12.648182
17.63844
8.6976016
7.8913102
15.675102
26.380562
24.298865
25.458422
16.362144
7.3379436
21.588553
8.6976002
23.121289
18.133614
21.443926
28.202716
21.829846
20.626608
2.409182
-2.1823258
-5.2107331
7.8913072
18.133613
25.332667
31.017727
28.434453
21.803125
27.602442
9.4973807
3.3266061
14.111706
15.675102
21.443929
31.017725
28.21733
29.594515
27.219234
31.213057
14.723384
6.9163159
27.855115
26.380559
28.202714
28.434455
29.594513
27.578041
34.2343
28.10027
0.99020606
8.9280592
13.309091
24.298865
21.829846
21.803124
27.219235
34.2343
28.80551
21.197864
11.457153
19.493946
21.615496
25.458423
20.626608
27.602443
31.213057
28.100271
21.197865
36.785235
4.903261
-21.564837
7.0461881
17.045716
20.21545
17.52684
13.18692
21.492152
22.020874
21.920139
-21.564837
-7.0360742
10.838017
30.984821
10.278088
8.0681611
17.021807
17.319993
20.349419
20.52298
7.0461879
10.838021
32.071415
17.824943
22.055652
12.062722
24.599724
29.299235
15.223105
20.912552
17.045718
30.984825
17.824941
19.464506
12.560066
14.374459
12.917825
18.879888
18.963644
23.356519
20.215451
10.27809
22.055654
12.560065
25.357249
19.632337
13.660408
16.921409
14.478124
18.547481
17.526839
8.0681616
12.062722
14.37446
19.63234
20.352441
16.054488
15.084049
19.515537
24.505098
13.186922
17.021806
24.599724
12.917824
13.660406
16.054489
12.77975
26.723541
26.142607
26.970494
21.492151
17.319995
29.299234
18.879891
16.92141
15.084047
26.723542
27.934818
31.325727
27.275393
22.020877
20.349421
15.223107
18.963643
14.478127
19.515538
26.142608
31.325725
34.389815
15.748312
21.920139
20.522982
20.912553
23.356519
18.547483
24.505099
26.970494
27.275394
15.748312
18.790917
25.105969
-10.043334
21.957635
25.32962
32.583252
24.370259
22.671714
31.249957
28.15687
25.169672
-10.043335
9.4855166
23.09843
24.49471
24.412445
18.679509
23.648333
21.290137
21.922708
18.92527
21.957636
23.098429
37.093099
19.783274
31.581578
17.40393
27.092086
30.093206
15.408149
18.546777
25.329621
24.494712
19.783276
20.959414
15.70737
14.535732
11.865878
14.602979
13.867702
19.228619
32.583253
24.412445
31.581578
15.707371
29.760973
16.996256
4.8928739
8.7613163
7.8075381
16.66038
24.370262
18.679509
17.403931
14.535732
16.996254
10.571922
7.5474287
10.762862
14.902133
23.797627
22.671715
23.648334
27.092086
11.865879
4.892876
7.5474302
9.9009612
26.735948
23.852594
23.563951
31.249956
21.290135
30.093209
14.602977
8.761318
10.762864
26.73595
29.260397
24.784377
25.058564
28.156869
21.922709
15.40815
13.867703
7.8075391
14.902135
23.852595
24.784377
19.508262
6.2394422
25.169674
18.925268
18.546779
19.228618
16.660379
23.797626
23.563951
25.058564
6.2394429
24.207597
28.424695
-5.9332023
27.154607
30.58838
32.205926
23.913861
24.002282
32.88405
27.213621
25.216535
-5.9332011
30.634125
17.696394
22.211719
17.684874
17.736117
25.056701
20.950384
20.763134
16.6543
27.154608
17.696396
25.307005
18.85559
32.040844
15.395065
26.36537
30.739081
12.945132
17.749574
30.588381
22.211719
18.85559
23.772377
11.869873
11.762622
9.0569298
11.864808
12.658746
19.389454
32.205928
17.684873
32.040843
11.869872
24.061617
9.8786247
1.5924781
6.9483127
7.7552737
19.434168
23.913864
17.736119
15.395067
11.762626
9.878627
7.5079694
7.9840771
12.879511
14.359929
26.83034
24.00228
25.056703
26.365371
9.0569297
1.5924774
7.9840796
14.722905
24.199466
25.463537
25.782779
32.88405
20.950384
30.739082
11.864809
6.9483137
12.879512
24.199464
27.496277
21.890116
23.517293
27.213622
20.763135
12.945135
12.658747
7.7552741
14.359928
25.463539
21.890118
13.471644
8.0052819
25.216534
16.6543
17.749575
19.389457
19.434166
26.830341
25.782779
23.51729
8.0052828
47.699844
28.588652
9.0043405
28.518329
23.715933
25.137854
20.872679
22.402425
32.426833
23.790736
24.547752
9.0043405
18.905363
13.188164
21.811549
12.92038
14.552875
22.50386
18.878142
19.694948
15.674368
28.51833
13.188165
32.460164
16.550444
29.571853
15.950518
27.147307
32.8319
13.523126
19.337237
23.715934
21.811553
16.550443
20.145545
10.74406
14.418244
13.987091
17.764139
16.876144
18.384654
25.137854
12.920379
29.571855
10.744059
27.164417
18.779238
13.284761
12.306513
9.3118352
16.20478
20.872677
14.552874
15.950518
14.418244
18.779238
22.743596
14.634942
14.174994
15.217846
20.103039
22.402427
22.503859
27.147314
13.987094
13.284763
14.634945
16.841754
17.372702
24.948034
19.315619
32.426834
18.878144
32.831903
17.764138
12.306517
14.174993
17.3727
20.540683
14.217409
17.805399
23.790736
19.694948
13.523125
16.876146
9.3118364
15.217847
24.948033
14.217407
22.793038
14.376402
24.547754
15.674369
19.337234
18.384653
16.204781
20.103038
19.315619
17.8054
14.376403
25.728779
36.348026
14.309107
25.478522
15.669101
20.383874
17.256969
18.046242
29.609293
22.201356
24.488263
14.309106
7.9559957
7.7822744
11.447242
6.8873289
8.8330107
18.107018
17.124988
20.341041
15.055853
25.478522
7.7822734
28.561235
9.7513313
25.015295
14.384815
27.087751
36.200392
16.37981
16.729552
15.669102
11.447241
9.7513307
13.339644
10.32431
17.860298
19.420762
23.304407
16.873542
10.812918
20.383873
6.8873285
25.015296
10.32431
32.800309
28.565638
20.464464
13.598893
5.5426259
7.1924143
17.256971
8.8330097
14.384816
17.860299
28.565639
31.698915
15.163027
13.959042
10.913875
16.598522
18.046243
18.107019
27.087749
19.42076
20.464465
15.163025
13.013468
10.990675
19.287959
14.677306
29.609293
17.12499
36.200392
23.304412
13.59889
13.959043
10.990675
18.849658
9.6016012
18.029655
22.201357
20.341039
16.379813
16.873541
5.5426227
10.913876
19.287956
9.6016032
13.847665
10.590887
24.488262
15.055853
16.729551
10.812919
7.1924121
16.59852
14.677305