/*--------------------------------*- C++ -*----------------------------------*\
| =========                 |                                                 |
| \\      /  F ield         | OpenFOAM: The Open Source CFD Toolbox           |
|  \\    /   O peration     | Version:  v2106                                 |
|   \\  /    A nd           | Website:  www.openfoam.com                      |
|    \\/     M anipulation  |                                                 |
\*---------------------------------------------------------------------------*/
FoamFile
{
    version     2.0;
    format      ascii;
    arch        "LSB;label=32;scalar=64";
    class       volScalarField;
    location    "22.5";
    object      gradTz;
}
// * * * * * * * * * * * * * * * * * * * * * * * * * * * * * * * * * * * * * //

dimensions      [0 -1 0 1 0 0 0];

internalField   nonuniform List<scalar> 
4000
(
401.58969
401.58773
401.59462
401.59391
401.59285
401.5921
401.59146
401.59076
401.58998
401.58953
401.58773
401.59178
401.59602
401.59494
401.5939
401.59321
401.59263
401.59187
401.59067
401.58973
401.59462
401.59602
401.59972
401.59857
401.59755
401.59693
401.59648
401.59583
401.59443
401.59263
401.59391
401.59494
401.59857
401.59742
401.59643
401.5959
401.59558
401.59515
401.59406
401.59256
401.59285
401.5939
401.59755
401.59643
401.59551
401.59504
401.59482
401.59453
401.59359
401.59226
401.5921
401.59321
401.59693
401.5959
401.59504
401.59465
401.59449
401.59426
401.59339
401.59211
401.59146
401.59263
401.59648
401.59558
401.59482
401.59449
401.59439
401.59418
401.59331
401.59202
401.59076
401.59187
401.59583
401.59515
401.59453
401.59426
401.59418
401.59396
401.59305
401.59169
401.58998
401.59067
401.59443
401.59406
401.59359
401.59339
401.59331
401.59305
401.59205
401.5906
401.58953
401.58973
401.59263
401.59256
401.59226
401.59211
401.59202
401.59169
401.5906
401.5891
595.73191
595.73138
595.73757
595.73684
595.73554
595.73454
595.73366
595.73259
595.73125
595.73108
595.73138
595.73488
595.73908
595.73802
595.73674
595.73583
595.73506
595.73389
595.73163
595.73057
595.73757
595.73908
595.7427
595.74152
595.74026
595.73947
595.73891
595.73795
595.73541
595.7333
595.73684
595.73802
595.74152
595.74032
595.73912
595.73845
595.73809
595.73745
595.73529
595.7335
595.73554
595.73674
595.74026
595.73912
595.738
595.73744
595.73722
595.73677
595.73484
595.73327
595.73454
595.73583
595.73947
595.73845
595.73744
595.73697
595.73685
595.7365
595.73465
595.73315
595.73366
595.73506
595.73891
595.73809
595.73722
595.73685
595.7368
595.73647
595.73461
595.73308
595.73259
595.73389
595.73795
595.73745
595.73677
595.7365
595.73647
595.7361
595.73415
595.73248
595.73125
595.73163
595.73541
595.73529
595.73484
595.73465
595.73461
595.73415
595.73202
595.73016
595.73108
595.73057
595.7333
595.7335
595.73327
595.73315
595.73308
595.73248
595.73016
595.72881
595.91723
595.91728
595.92111
595.92035
595.91925
595.91842
595.91768
595.91658
595.91477
595.91464
595.91728
595.9198
595.92243
595.92148
595.92041
595.91969
595.91911
595.918
595.9151
595.91394
595.92111
595.92243
595.92469
595.92366
595.92263
595.92204
595.92169
595.92085
595.91774
595.91573
595.92035
595.92148
595.92366
595.92263
595.92166
595.92119
595.92104
595.92051
595.91773
595.91596
595.91925
595.92041
595.92263
595.92166
595.92078
595.92041
595.9204
595.92005
595.91748
595.91589
595.91842
595.91969
595.92204
595.92119
595.92041
595.92014
595.92023
595.91996
595.91746
595.91593
595.91768
595.91911
595.92169
595.92104
595.9204
595.92023
595.92037
595.92011
595.91758
595.91599
595.91658
595.918
595.92085
595.92051
595.92005
595.91996
595.92011
595.91979
595.9171
595.91528
595.91477
595.9151
595.91774
595.91773
595.91748
595.91746
595.91758
595.9171
595.91411
595.91198
595.91464
595.91394
595.91573
595.91596
595.91589
595.91593
595.91599
595.91528
595.91198
595.91148
597.71995
597.71966
597.72287
597.72208
597.7211
597.72044
597.71989
597.71893
597.71688
597.71637
597.71966
597.72152
597.72367
597.72273
597.7218
597.72126
597.72092
597.72003
597.717
597.71572
597.72287
597.72367
597.72553
597.72455
597.72367
597.72326
597.72316
597.72255
597.7193
597.71722
597.72208
597.72273
597.72455
597.72359
597.72278
597.72249
597.72259
597.72228
597.71932
597.71744
597.7211
597.7218
597.72367
597.72278
597.72206
597.72188
597.72211
597.72197
597.7192
597.71747
597.72044
597.72126
597.72326
597.72249
597.72188
597.72179
597.72211
597.72205
597.71934
597.71766
597.71989
597.72092
597.72316
597.72259
597.72211
597.72211
597.72247
597.72241
597.71964
597.71788
597.71893
597.72003
597.72255
597.72228
597.72197
597.72205
597.72241
597.72225
597.71926
597.71717
597.71688
597.717
597.7193
597.71932
597.7192
597.71934
597.71964
597.71926
597.71585
597.71325
597.71637
597.71572
597.71722
597.71744
597.71747
597.71766
597.71788
597.71717
597.71325
597.71307
601.06601
601.06564
601.06855
601.06776
601.06688
601.06637
601.06604
601.06534
601.06345
601.0629
601.06564
601.06725
601.06916
601.06824
601.06741
601.06703
601.06691
601.0663
601.06349
601.06228
601.06855
601.06916
601.07082
601.06988
601.06911
601.06886
601.06897
601.06864
601.0656
601.06364
601.06776
601.06824
601.06988
601.06896
601.06827
601.06814
601.06846
601.06842
601.06565
601.06387
601.06688
601.06741
601.06911
601.06827
601.06766
601.06765
601.06809
601.06822
601.06563
601.06398
601.06637
601.06703
601.06886
601.06814
601.06765
601.06772
601.06825
601.06845
601.06591
601.0643
601.06604
601.06691
601.06897
601.06846
601.06809
601.06825
601.06881
601.069
601.06639
601.06468
601.06534
601.0663
601.06864
601.06842
601.06822
601.06845
601.069
601.06906
601.0662
601.06413
601.06345
601.06349
601.0656
601.06565
601.06563
601.06591
601.06639
601.0662
601.06283
601.0601
601.0629
601.06228
601.06364
601.06387
601.06398
601.0643
601.06468
601.06413
601.0601
601.05996
605.87459
605.87419
605.87684
605.87605
605.87525
605.87488
605.87473
605.87427
605.87262
605.87214
605.87419
605.87562
605.87733
605.87642
605.87568
605.87543
605.8755
605.87514
605.87261
605.87152
605.87684
605.87733
605.87881
605.87789
605.87721
605.87709
605.87739
605.87731
605.87457
605.87278
605.87605
605.87642
605.87789
605.877
605.8764
605.87641
605.87691
605.87711
605.87463
605.87301
605.87525
605.87568
605.87721
605.8764
605.87589
605.87601
605.87664
605.87699
605.87468
605.87319
605.87488
605.87543
605.87709
605.87641
605.87601
605.87622
605.87692
605.87735
605.87508
605.87362
605.87473
605.8755
605.87739
605.87691
605.87664
605.87692
605.87766
605.87806
605.87571
605.87415
605.87427
605.87514
605.87731
605.87711
605.87699
605.87735
605.87806
605.87834
605.87573
605.87378
605.87262
605.87261
605.87457
605.87463
605.87468
605.87508
605.87571
605.87573
605.87258
605.86991
605.87214
605.87152
605.87278
605.87301
605.87319
605.87362
605.87415
605.87378
605.86991
605.8698
612.05592
612.0555
612.05787
612.05707
612.05636
612.0561
612.05612
612.05586
612.05445
612.05409
612.0555
612.05674
612.05824
612.05734
612.05668
612.05655
612.05677
612.05663
612.0544
612.05347
612.05787
612.05824
612.05952
612.05862
612.05802
612.05803
612.05848
612.05862
612.0562
612.05461
612.05707
612.05734
612.05862
612.05776
612.05724
612.05737
612.05802
612.05843
612.05626
612.05484
612.05636
612.05668
612.05802
612.05724
612.05681
612.05705
612.05782
612.05839
612.05638
612.05509
612.0561
612.05655
612.05803
612.05737
612.05705
612.05737
612.05822
612.05884
612.05688
612.05561
612.05612
612.05677
612.05848
612.05802
612.05782
612.05822
612.05909
612.0597
612.05765
612.05628
612.05586
612.05663
612.05862
612.05843
612.05839
612.05884
612.0597
612.06017
612.05786
612.05611
612.05445
612.0544
612.0562
612.05626
612.05638
612.05688
612.05765
612.05786
612.055
612.05252
612.05409
612.05347
612.05461
612.05484
612.05509
612.05561
612.05628
612.05611
612.05252
612.05247
619.51277
619.51232
619.51439
619.5136
619.51295
619.51281
619.51297
619.51291
619.51174
619.51149
619.51232
619.51336
619.51464
619.51375
619.51316
619.51313
619.5135
619.51357
619.51164
619.51087
619.51439
619.51464
619.51572
619.51483
619.51431
619.51442
619.51501
619.51535
619.51326
619.5119
619.5136
619.51375
619.51483
619.514
619.51355
619.51378
619.51456
619.51517
619.51333
619.51213
619.51295
619.51316
619.51431
619.51355
619.5132
619.51353
619.51444
619.51519
619.5135
619.51242
619.51281
619.51313
619.51442
619.51378
619.51353
619.51395
619.51493
619.51574
619.51409
619.51303
619.51297
619.5135
619.51501
619.51456
619.51444
619.51493
619.51593
619.51672
619.51499
619.51383
619.51291
619.51357
619.51535
619.51517
619.51519
619.51574
619.51672
619.51738
619.51539
619.51385
619.51174
619.51164
619.51326
619.51333
619.5135
619.51409
619.51499
619.51539
619.51286
619.51059
619.51149
619.51087
619.5119
619.51213
619.51242
619.51303
619.51383
619.51385
619.51059
619.51065
628.14127
628.14078
628.14255
628.14176
628.14118
628.14113
628.14144
628.14156
628.14063
628.1405
628.14078
628.14163
628.14267
628.1418
628.14127
628.14134
628.14185
628.1421
628.14048
628.13989
628.14255
628.14267
628.14354
628.14268
628.14222
628.14242
628.14314
628.14367
628.14192
628.14079
628.14176
628.1418
628.14268
628.14186
628.14148
628.14181
628.14271
628.14349
628.14198
628.141
628.14118
628.14127
628.14222
628.14148
628.1412
628.14162
628.14264
628.14357
628.1422
628.14134
628.14113
628.14134
628.14242
628.14181
628.14162
628.14212
628.14321
628.1442
628.14287
628.14203
628.14144
628.14185
628.14314
628.14271
628.14264
628.14321
628.14433
628.14529
628.14388
628.14295
628.14156
628.1421
628.14367
628.14349
628.14357
628.1442
628.14529
628.14613
628.14447
628.14317
628.14063
628.14048
628.14192
628.14198
628.1422
628.14287
628.14388
628.14447
628.14229
628.14027
628.1405
628.13989
628.14079
628.141
628.14134
628.14203
628.14295
628.14317
628.14027
628.14044
637.83164
637.83113
637.83259
637.8318
637.83129
637.83134
637.83176
637.83206
637.83137
637.83135
637.83113
637.83177
637.83257
637.83172
637.83126
637.83143
637.83205
637.83249
637.83118
637.83075
637.83259
637.83257
637.83324
637.8324
637.83201
637.83229
637.83313
637.83383
637.83242
637.83152
637.8318
637.83172
637.8324
637.83161
637.8313
637.8317
637.83271
637.83366
637.83248
637.83173
637.83129
637.83126
637.83201
637.8313
637.83108
637.83157
637.8327
637.83379
637.83274
637.8321
637.83134
637.83143
637.83229
637.8317
637.83157
637.83216
637.83334
637.83449
637.83348
637.83286
637.83176
637.83205
637.83313
637.83271
637.8327
637.83334
637.83455
637.83567
637.8346
637.83389
637.83206
637.83249
637.83383
637.83366
637.83379
637.83449
637.83567
637.83668
637.83536
637.8343
637.83137
637.83118
637.83242
637.83248
637.83274
637.83348
637.8346
637.83536
637.83353
637.83178
637.83135
637.83075
637.83152
637.83173
637.8321
637.83286
637.83389
637.8343
637.83178
637.83206
648.46904
648.46849
648.46964
648.46886
648.46842
648.46855
648.46909
648.46955
648.4691
648.46919
648.46849
648.46892
648.4695
648.46867
648.46828
648.46852
648.46925
648.46986
648.46887
648.46861
648.46964
648.4695
648.46995
648.46914
648.46882
648.46918
648.47011
648.47098
648.46991
648.46924
648.46886
648.46867
648.46914
648.46838
648.46814
648.46861
648.46971
648.47081
648.46996
648.46944
648.46842
648.46828
648.46882
648.46814
648.46798
648.46855
648.46975
648.47099
648.47026
648.46984
648.46855
648.46852
648.46918
648.46861
648.46855
648.4692
648.47047
648.47175
648.47106
648.47066
648.46909
648.46925
648.47011
648.46971
648.46975
648.47047
648.47176
648.47302
648.47227
648.47179
648.46955
648.46986
648.47098
648.47081
648.47099
648.47175
648.47302
648.47418
648.4732
648.47238
648.4691
648.46887
648.46991
648.46996
648.47026
648.47106
648.47227
648.4732
648.47174
648.47025
648.46919
648.46861
648.46924
648.46944
648.46984
648.47066
648.47179
648.47238
648.47025
648.47064
659.93434
659.93377
659.9346
659.93384
659.93347
659.93368
659.93433
659.93494
659.93472
659.93492
659.93377
659.934
659.93434
659.93354
659.93322
659.93354
659.93437
659.93514
659.93445
659.93436
659.9346
659.93434
659.93458
659.93381
659.93355
659.93399
659.93501
659.93602
659.93529
659.93486
659.93384
659.93354
659.93381
659.93309
659.93291
659.93345
659.93463
659.93586
659.93533
659.93504
659.93347
659.93322
659.93355
659.93291
659.93282
659.93345
659.93472
659.93608
659.93567
659.93547
659.93368
659.93354
659.93399
659.93345
659.93345
659.93415
659.93549
659.9369
659.93652
659.93634
659.93433
659.93437
659.93501
659.93463
659.93472
659.93549
659.93685
659.93824
659.9378
659.93755
659.93494
659.93514
659.93602
659.93586
659.93608
659.9369
659.93824
659.93953
659.93888
659.93831
659.93472
659.93445
659.93529
659.93533
659.93567
659.93652
659.9378
659.93888
659.93778
659.93658
659.93492
659.93436
659.93486
659.93504
659.93547
659.93634
659.93755
659.93831
659.93658
659.93707
672.10512
672.10453
672.10505
672.10432
672.10402
672.10432
672.10505
672.10581
672.10581
672.10612
672.10453
672.10456
672.10468
672.10392
672.10367
672.10407
672.10498
672.10589
672.1055
672.10557
672.10505
672.10468
672.10472
672.10399
672.10381
672.10431
672.1054
672.10654
672.10614
672.10594
672.10432
672.10392
672.10399
672.10332
672.10321
672.10381
672.10504
672.10639
672.10618
672.1061
672.10402
672.10367
672.10381
672.10321
672.10317
672.10386
672.10519
672.10666
672.10655
672.10656
672.10432
672.10407
672.10431
672.10381
672.10386
672.10461
672.106
672.10751
672.10744
672.10747
672.10505
672.10498
672.1054
672.10504
672.10519
672.106
672.10741
672.10891
672.10879
672.10874
672.10581
672.10589
672.10654
672.10639
672.10666
672.10751
672.10891
672.11032
672.11
672.10967
672.10581
672.1055
672.10614
672.10618
672.10655
672.10744
672.10879
672.11
672.10926
672.10833
672.10612
672.10557
672.10594
672.1061
672.10656
672.10747
672.10874
672.10967
672.10833
672.10892
684.85661
684.85601
684.85622
684.85553
684.8553
684.85567
684.85649
684.85738
684.85759
684.85799
684.85601
684.85585
684.85574
684.85504
684.85486
684.85532
684.8563
684.85734
684.85725
684.85748
684.85622
684.85574
684.85559
684.85492
684.85481
684.85536
684.85651
684.85777
684.85769
684.85771
684.85553
684.85504
684.85492
684.8543
684.85426
684.85491
684.85619
684.85764
684.85773
684.85786
684.8553
684.85486
684.85481
684.85426
684.85428
684.85501
684.85638
684.85794
684.85813
684.85834
684.85567
684.85532
684.85536
684.85491
684.85501
684.85581
684.85723
684.85883
684.85905
684.85928
684.85649
684.8563
684.85651
684.85619
684.85638
684.85723
684.85868
684.86026
684.86044
684.8606
684.85738
684.85734
684.85777
684.85764
684.85794
684.85883
684.86026
684.86177
684.86176
684.86167
684.85759
684.85725
684.85769
684.85773
684.85813
684.85905
684.86044
684.86176
684.86138
684.86072
684.85799
684.85748
684.85771
684.85786
684.85834
684.85928
684.8606
684.86167
684.86072
684.8614
698.06266
698.06207
698.06198
698.06133
698.06118
698.06162
698.06251
698.06351
698.06393
698.06442
698.06207
698.06171
698.0614
698.06076
698.06066
698.06118
698.06222
698.06337
698.06356
698.06393
698.06198
698.0614
698.06107
698.06047
698.06042
698.06103
698.06222
698.06358
698.0638
698.06404
698.06133
698.06076
698.06047
698.05991
698.05993
698.06063
698.06194
698.06346
698.06384
698.06418
698.06118
698.06066
698.06042
698.05993
698.06002
698.06079
698.06218
698.0638
698.06427
698.06467
698.06162
698.06118
698.06103
698.06063
698.06079
698.06161
698.06305
698.06471
698.06521
698.06563
698.06251
698.06222
698.06222
698.06194
698.06218
698.06305
698.06451
698.06616
698.06662
698.06699
698.06351
698.06337
698.06358
698.06346
698.0638
698.06471
698.06616
698.06774
698.06804
698.06817
698.06393
698.06356
698.0638
698.06384
698.06427
698.06521
698.06662
698.06804
698.06799
698.06761
698.06442
698.06393
698.06404
698.06418
698.06467
698.06563
698.06699
698.06817
698.06761
698.06836
711.59679
711.5962
711.59583
711.59524
711.59517
711.59567
711.59662
711.59772
711.59832
711.59889
711.5962
711.59568
711.59518
711.5946
711.59457
711.59515
711.59623
711.59748
711.59794
711.59845
711.59583
711.59518
711.59468
711.59414
711.59417
711.59482
711.59604
711.59747
711.59799
711.59843
711.59524
711.5946
711.59414
711.59366
711.59375
711.59448
711.5958
711.59738
711.59803
711.59856
711.59517
711.59457
711.59417
711.59375
711.5939
711.59469
711.59608
711.59775
711.59848
711.59906
711.59567
711.59515
711.59482
711.59448
711.59469
711.59554
711.59698
711.59867
711.59943
711.60003
711.59662
711.59623
711.59604
711.5958
711.59608
711.59698
711.59844
711.60013
711.60085
711.6014
711.59772
711.59748
711.59747
711.59738
711.59775
711.59867
711.60013
711.60176
711.60234
711.60269
711.59832
711.59794
711.59799
711.59803
711.59848
711.59943
711.60085
711.60234
711.60262
711.6025
711.59889
711.59845
711.59843
711.59856
711.59906
711.60003
711.6014
711.60269
711.6025
711.60332
725.33317
725.3326
725.33196
725.33144
725.33145
725.332
725.333
725.33417
725.33495
725.33558
725.3326
725.33191
725.33123
725.33074
725.33079
725.33141
725.33252
725.33384
725.33455
725.33519
725.33196
725.33123
725.33058
725.33013
725.33023
725.33092
725.33215
725.33363
725.33442
725.33505
725.33144
725.33074
725.33013
725.32973
725.32988
725.33063
725.33195
725.33356
725.33447
725.33517
725.33145
725.33079
725.33023
725.32988
725.33009
725.3309
725.33228
725.33396
725.33493
725.33568
725.332
725.33141
725.33092
725.33063
725.3309
725.33176
725.33318
725.33489
725.33588
725.33664
725.333
725.33252
725.33215
725.33195
725.33228
725.33318
725.33462
725.33632
725.33728
725.33801
725.33417
725.33384
725.33363
725.33356
725.33396
725.33489
725.33632
725.33798
725.33883
725.33937
725.33495
725.33455
725.33442
725.33447
725.33493
725.33588
725.33728
725.33883
725.33941
725.33954
725.33558
725.33519
725.33505
725.33517
725.33568
725.33664
725.33801
725.33937
725.33954
725.34042
739.14762
739.14708
739.14618
739.14574
739.14583
739.14643
739.14746
739.14869
739.14963
739.15032
739.14708
739.14624
739.1454
739.145
739.14513
739.14578
739.14691
739.14829
739.14923
739.14997
739.14618
739.1454
739.14462
739.14426
739.14443
739.14514
739.14637
739.14788
739.14892
739.14972
739.14574
739.145
739.14426
739.14394
739.14416
739.14493
739.14623
739.14785
739.14897
739.14983
739.14583
739.14513
739.14443
739.14416
739.14443
739.14525
739.1466
739.14827
739.14945
739.15035
739.14643
739.14578
739.14514
739.14493
739.14525
739.1461
739.14749
739.14919
739.15038
739.15129
739.14746
739.14691
739.14637
739.14623
739.1466
739.14749
739.14888
739.15058
739.15176
739.15263
739.14869
739.14829
739.14788
739.14785
739.14827
739.14919
739.15058
739.15224
739.15333
739.15405
739.14963
739.14923
739.14892
739.14897
739.14945
739.15038
739.15176
739.15333
739.15419
739.15456
739.15032
739.14997
739.14972
739.14983
739.15035
739.15129
739.15263
739.15405
739.15456
739.15548
752.91859
752.91808
752.91695
752.9166
752.91677
752.91741
752.91846
752.91973
752.9208
752.92153
752.91808
752.91711
752.91613
752.91583
752.91603
752.91672
752.91784
752.91925
752.9204
752.92124
752.91695
752.91613
752.91523
752.91497
752.91521
752.91594
752.91714
752.91867
752.91993
752.92089
752.9166
752.91583
752.91497
752.91475
752.91503
752.91581
752.91707
752.91867
752.91999
752.92099
752.91677
752.91603
752.91521
752.91503
752.91536
752.91617
752.91747
752.91911
752.92048
752.9215
752.91741
752.91672
752.91594
752.91581
752.91617
752.91702
752.91834
752.92
752.92138
752.92241
752.91846
752.91784
752.91714
752.91707
752.91747
752.91834
752.91968
752.92134
752.92271
752.92371
752.91973
752.91925
752.91867
752.91867
752.91911
752.92
752.92134
752.92298
752.92427
752.92516
752.9208
752.9204
752.91993
752.91999
752.92048
752.92138
752.92271
752.92427
752.92539
752.92599
752.92153
752.92124
752.92089
752.92099
752.9215
752.92241
752.92371
752.92516
752.92599
752.92693
766.52804
766.52758
766.52625
766.52599
766.52625
766.52692
766.52797
766.52926
766.53044
766.5312
766.52758
766.52651
766.52541
766.52521
766.52549
766.52619
766.5273
766.52872
766.53005
766.53097
766.52625
766.52541
766.5244
766.52425
766.52457
766.52531
766.52647
766.52797
766.52943
766.53052
766.52599
766.52521
766.52425
766.52414
766.52449
766.52526
766.52646
766.52801
766.52951
766.53063
766.52625
766.52549
766.52457
766.52449
766.52487
766.52566
766.52689
766.52847
766.52999
766.53112
766.52692
766.52619
766.52531
766.52526
766.52566
766.52649
766.52773
766.52933
766.53086
766.53199
766.52797
766.5273
766.52647
766.52646
766.52689
766.52773
766.52899
766.53059
766.53211
766.53323
766.52926
766.52872
766.52797
766.52801
766.52847
766.52933
766.53059
766.53217
766.53364
766.53468
766.53044
766.53005
766.52943
766.52951
766.52999
766.53086
766.53211
766.53364
766.53499
766.53579
766.5312
766.53097
766.53052
766.53063
766.53112
766.53199
766.53323
766.53468
766.53579
766.53674
779.86238
779.86198
779.86047
779.86031
779.86065
779.86134
779.86237
779.86366
779.86494
779.86571
779.86198
779.86081
779.85962
779.85953
779.85989
779.86061
779.86168
779.86308
779.86457
779.86555
779.86047
779.85962
779.85854
779.8585
779.85888
779.85962
779.86072
779.86218
779.86381
779.86501
779.86031
779.85953
779.8585
779.85849
779.8589
779.85966
779.86078
779.86226
779.8639
779.86511
779.86065
779.85989
779.85888
779.8589
779.85933
779.86011
779.86124
779.86274
779.86438
779.86559
779.86134
779.86061
779.85962
779.85966
779.86011
779.86089
779.86204
779.86354
779.86519
779.8664
779.86237
779.86168
779.86072
779.86078
779.86124
779.86204
779.8632
779.8647
779.86635
779.86756
779.86366
779.86308
779.86218
779.86226
779.86274
779.86354
779.8647
779.8662
779.86783
779.86898
779.86494
779.86457
779.86381
779.8639
779.86438
779.86519
779.86635
779.86783
779.86937
779.87036
779.86571
779.86555
779.86501
779.86511
779.86559
779.8664
779.86756
779.86898
779.87036
779.8713
792.8132
792.81286
792.81119
792.81115
792.81157
792.81227
792.81327
792.81454
792.81588
792.81664
792.81286
792.81162
792.81035
792.81039
792.81082
792.81154
792.81256
792.81392
792.81553
792.81656
792.81119
792.81035
792.80922
792.8093
792.80975
792.81047
792.8115
792.81289
792.81465
792.81595
792.81115
792.81039
792.8093
792.80941
792.80988
792.81061
792.81163
792.81301
792.81476
792.81604
792.81157
792.81082
792.80975
792.80988
792.81035
792.81109
792.81212
792.8135
792.81523
792.8165
792.81227
792.81154
792.81047
792.81061
792.81109
792.81183
792.81286
792.81424
792.81598
792.81724
792.81327
792.81256
792.8115
792.81163
792.81212
792.81286
792.81389
792.81528
792.81702
792.81829
792.81454
792.81392
792.81289
792.81301
792.8135
792.81424
792.81528
792.81667
792.81841
792.81966
792.81588
792.81553
792.81465
792.81476
792.81523
792.81598
792.81702
792.81841
792.82011
792.82126
792.81664
792.81656
792.81595
792.81604
792.8165
792.81724
792.81829
792.81966
792.82126
792.82218
805.278
805.27775
805.27594
805.27602
805.27651
805.27722
805.27817
805.27939
805.28077
805.28151
805.27775
805.27646
805.27513
805.2753
805.2758
805.27651
805.27746
805.27875
805.28046
805.2815
805.27594
805.27513
805.27396
805.27417
805.27468
805.27538
805.27631
805.27761
805.27946
805.28083
805.27602
805.2753
805.27417
805.2744
805.27492
805.27561
805.27652
805.27778
805.27959
805.28092
805.27651
805.2758
805.27468
805.27492
805.27544
805.27613
805.27702
805.27826
805.28005
805.28135
805.27722
805.27651
805.27538
805.27561
805.27613
805.27681
805.2777
805.27893
805.28071
805.28201
805.27817
805.27746
805.27631
805.27652
805.27702
805.2777
805.27859
805.27983
805.28162
805.28293
805.27939
805.27875
805.27761
805.27778
805.27826
805.27893
805.27983
805.28108
805.28289
805.28422
805.28077
805.28046
805.27946
805.27959
805.28005
805.28071
805.28162
805.28289
805.28472
805.28602
805.28151
805.2815
805.28083
805.28092
805.28135
805.28201
805.28293
805.28422
805.28602
805.28689
817.16086
817.1607
817.15879
817.15899
817.15955
817.16026
817.16114
817.16228
817.16367
817.16438
817.1607
817.15938
817.15802
817.15832
817.15889
817.15957
817.16043
817.16164
817.16341
817.16446
817.15879
817.15802
817.15684
817.15717
817.15774
817.15841
817.15923
817.1604
817.16232
817.16373
817.15899
817.15832
817.15717
817.15753
817.15809
817.15874
817.15951
817.16062
817.16247
817.16382
817.15955
817.15889
817.15774
817.15809
817.15865
817.15928
817.16003
817.1611
817.16291
817.16421
817.16026
817.15957
817.15841
817.15874
817.15928
817.15989
817.16062
817.16168
817.16348
817.16477
817.16114
817.16043
817.15923
817.15951
817.16003
817.16062
817.16135
817.16241
817.16423
817.16554
817.16228
817.16164
817.1604
817.16062
817.1611
817.16168
817.16241
817.1635
817.16536
817.16673
817.16367
817.16341
817.16232
817.16247
817.16291
817.16348
817.16423
817.16536
817.16728
817.16868
817.16438
817.16446
817.16373
817.16382
817.16421
817.16477
817.16554
817.16673
817.16868
817.16949
828.37294
828.37289
828.37089
828.37122
828.37186
828.37255
828.37334
828.37439
828.37577
828.37642
828.37289
828.37156
828.3702
828.37063
828.37126
828.37191
828.37266
828.37375
828.37556
828.37658
828.37089
828.3702
828.36901
828.36948
828.37011
828.37072
828.37141
828.37243
828.37439
828.37581
828.37122
828.37063
828.36948
828.36996
828.37057
828.37115
828.37177
828.3727
828.37456
828.3759
828.37186
828.37126
828.37011
828.37057
828.37116
828.37171
828.37229
828.37317
828.37496
828.37625
828.37255
828.37191
828.37072
828.37115
828.37171
828.37224
828.3728
828.37365
828.37542
828.3767
828.37334
828.37266
828.37141
828.37177
828.37229
828.3728
828.37335
828.37421
828.376
828.3773
828.37439
828.37375
828.37243
828.3727
828.37317
828.37365
828.37421
828.3751
828.37696
828.37835
828.37577
828.37556
828.37439
828.37456
828.37496
828.37542
828.376
828.37696
828.37893
828.38042
828.37642
828.37658
828.37581
828.3759
828.37625
828.3767
828.3773
828.37835
828.38042
828.38115
838.83298
838.83303
838.83099
838.83145
838.83215
838.8328
838.8335
838.83443
838.83576
838.83635
838.83303
838.83172
838.83037
838.83093
838.83162
838.83223
838.83286
838.8338
838.83561
838.83659
838.83099
838.83037
838.82921
838.82981
838.83048
838.83104
838.83157
838.83243
838.83437
838.83578
838.83145
838.83093
838.82981
838.83041
838.83106
838.83156
838.83202
838.83275
838.83456
838.83588
838.83215
838.83162
838.83048
838.83106
838.83167
838.83214
838.83254
838.83319
838.83493
838.83617
838.8328
838.83223
838.83104
838.83156
838.83214
838.83256
838.83293
838.83356
838.83527
838.8365
838.8335
838.83286
838.83157
838.83202
838.83254
838.83293
838.83328
838.83392
838.83566
838.83692
838.83443
838.8338
838.83243
838.83275
838.83319
838.83356
838.83392
838.83459
838.83642
838.8378
838.83576
838.83561
838.83437
838.83456
838.83493
838.83527
838.83566
838.83642
838.8384
838.83995
838.83635
838.83659
838.83578
838.83588
838.83617
838.8365
838.83692
838.8378
838.83995
838.84058
848.46759
848.46777
848.46569
848.46628
848.46703
848.46764
848.46822
848.46901
848.47027
848.47078
848.46777
848.46648
848.46516
848.46586
848.4666
848.46715
848.46764
848.46842
848.47019
848.47111
848.46569
848.46516
848.46405
848.46478
848.46548
848.46597
848.46634
848.46699
848.4689
848.47027
848.46628
848.46586
848.46478
848.4655
848.46617
848.46659
848.46686
848.46736
848.46911
848.47036
848.46703
848.4666
848.46548
848.46617
848.4668
848.46717
848.46737
848.46778
848.46943
848.4706
848.46764
848.46715
848.46597
848.46659
848.46717
848.46749
848.46764
848.46802
848.46964
848.47079
848.46822
848.46764
848.46634
848.46686
848.46737
848.46764
848.46778
848.46816
848.46981
848.471
848.46901
848.46842
848.46699
848.46736
848.46778
848.46802
848.46816
848.46859
848.47035
848.47169
848.47027
848.47019
848.4689
848.46911
848.46943
848.46964
848.46981
848.47035
848.47231
848.47389
848.47078
848.47111
848.47027
848.47036
848.4706
848.47079
848.471
848.47169
848.47389
848.47441
857.21156
857.21186
857.20978
857.2105
857.2113
857.21185
857.21229
857.21292
857.21408
857.21449
857.21186
857.21063
857.20936
857.21019
857.21096
857.21144
857.21177
857.21237
857.21407
857.21491
857.20978
857.20936
857.2083
857.20916
857.20989
857.21029
857.21048
857.21091
857.21274
857.21405
857.2105
857.21019
857.20916
857.20999
857.21068
857.21101
857.21107
857.21133
857.21297
857.21414
857.2113
857.21096
857.20989
857.21068
857.21132
857.21158
857.21156
857.21171
857.21323
857.21431
857.21185
857.21144
857.21029
857.21101
857.21158
857.21177
857.2117
857.21181
857.2133
857.21434
857.21229
857.21177
857.21048
857.21107
857.21156
857.2117
857.21161
857.21171
857.21324
857.21433
857.21292
857.21237
857.21091
857.21133
857.21171
857.21181
857.21171
857.21188
857.21353
857.21481
857.21408
857.21407
857.21274
857.21297
857.21323
857.2133
857.21324
857.21353
857.21543
857.21701
857.21449
857.21491
857.21405
857.21414
857.21431
857.21434
857.21433
857.21481
857.21701
857.2174
865.00801
865.00844
865.00637
865.00722
865.00805
865.00853
865.00881
865.00925
865.0103
865.01058
865.00844
865.00728
865.00607
865.00703
865.00782
865.00822
865.00837
865.00876
865.01036
865.0111
865.00637
865.00607
865.00508
865.00605
865.0068
865.00711
865.0071
865.00729
865.00901
865.01023
865.00722
865.00703
865.00605
865.007
865.0077
865.00791
865.00775
865.00774
865.00924
865.0103
865.00805
865.00782
865.0068
865.0077
865.00833
865.00846
865.00821
865.00807
865.00944
865.01039
865.00853
865.00822
865.00711
865.00791
865.00846
865.00852
865.00821
865.00802
865.00935
865.01027
865.00881
865.00837
865.0071
865.00775
865.00821
865.00821
865.00787
865.00768
865.00904
865.01002
865.00925
865.00876
865.00729
865.00774
865.00807
865.00802
865.00768
865.00755
865.00906
865.01025
865.0103
865.01036
865.00901
865.00924
865.00944
865.00935
865.00904
865.00906
865.01087
865.01241
865.01058
865.0111
865.01023
865.0103
865.01039
865.01027
865.01002
865.01025
865.01241
865.01266
871.80844
871.80901
871.80698
871.80793
871.80878
871.80917
871.80929
871.80952
871.81042
871.81057
871.80901
871.80793
871.8068
871.80787
871.80868
871.80897
871.80893
871.80909
871.81056
871.81117
871.80698
871.8068
871.80589
871.80697
871.80772
871.80791
871.80768
871.80761
871.80918
871.8103
871.80793
871.80787
871.80697
871.80802
871.8087
871.80879
871.8084
871.80809
871.80942
871.81035
871.80878
871.80868