/*--------------------------------*- C++ -*----------------------------------*\
| =========                 |                                                 |
| \\      /  F ield         | OpenFOAM: The Open Source CFD Toolbox           |
|  \\    /   O peration     | Version:  v2106                                 |
|   \\  /    A nd           | Website:  www.openfoam.com                      |
|    \\/     M anipulation  |                                                 |
\*---------------------------------------------------------------------------*/
FoamFile
{
    version     2.0;
    format      ascii;
    arch        "LSB;label=32;scalar=64";
    class       volScalarField;
    location    "10";
    object      gradTy;
}
// * * * * * * * * * * * * * * * * * * * * * * * * * * * * * * * * * * * * * //

dimensions      [0 -1 0 1 0 0 0];

internalField   nonuniform List<scalar> 
4000
(
-0.00026809544
-0.00062740083
0.00033521432
-0.00012641231
-0.00024437198
-0.00022971498
-0.00018985342
-0.00016260648
-0.0001250816
-1.4912631e-05
-0.00099668016
-9.1715529e-05
0.00076336137
-0.00016815578
-0.00035624278
-0.00027003421
-0.00015046591
-0.00012543545
-0.00016943118
-1.1027057e-05
0.0009145059
0.0016659887
0.00083806564
0.00055686752
0.0005950576
0.00075112189
0.00091854474
0.00097018857
0.00080254583
0.00058984956
0.00102801
0.00015863052
-9.1594195e-05
-8.4377525e-05
3.9569861e-05
0.00022268862
0.00044328744
0.00064526278
0.00071224348
0.00060769179
-0.0010528582
-0.0012078122
-0.0011547366
-0.0010135578
-0.00084767046
-0.00067493858
-0.00048328589
-0.00026777124
-5.1857231e-05
0.00012041194
-0.00084657644
-0.00076479859
-0.00064079956
-0.00044131146
-0.00023708198
-7.6926901e-05
5.4452988e-05
0.00016901137
0.00026883565
0.00034585607
-0.00035040955
-0.0002497468
-0.0002058108
-3.0680121e-05
0.00021676338
0.00037648721
0.00046270163
0.00049487182
0.00048761638
0.00045746832
-9.417001e-05
2.9877214e-06
-0.00011313529
-0.00011301118
0.00015582076
0.00031841747
0.00037020342
0.00034333222
0.00026984293
0.00018804154
-3.8011334e-05
0.00018352943
7.6397063e-05
-0.00019680957
3.8826063e-05
0.00019137361
0.00021567077
0.00015397011
6.0380091e-05
-3.298851e-07
-1.299978e-05
9.7169184e-05
9.2602973e-05
-4.4628329e-05
2.2901837e-05
7.0217783e-05
7.4248786e-05
5.0119081e-05
1.9714532e-05
9.6457669e-06
-9.8388036e-05
-0.00065709656
0.00094580574
-1.2861148e-05
-0.00025280394
-0.00019416202
-8.7928309e-05
-2.6848754e-05
0.00012425406
0.00046996161
-0.00099886256
0.0005674281
0.0018993073
-5.3623105e-05
-0.00042330755
-0.00014637309
0.00018401163
0.00019975169
0.00013125976
0.0006660658
0.0022009281
0.0031672812
0.0015798768
0.00097001418
0.0011000018
0.0015568838
0.0020455501
0.0021611077
0.0016890778
0.0012238126
0.0017456101
-5.2304403e-05
-0.00057700479
-0.00053217942
-0.00017808454
0.00035824762
0.0010073419
0.0015778526
0.0017533707
0.001519574
-0.0028057147
-0.0030776661
-0.0028984647
-0.0024907964
-0.0020080377
-0.0014972055
-0.00093173657
-0.00031656559
0.00026358833
0.00069788559
-0.0022222005
-0.0019748871
-0.0016148814
-0.0010293388
-0.0004294549
4.6962322e-05
0.00043584484
0.0007660143
0.0010365364
0.001219461
-0.00093759884
-0.00068662895
-0.00059147407
-8.2405049e-05
0.00062813093
0.0010982349
0.0013471829
0.0014264473
0.0013776382
0.0012415842
-0.00030931035
8.9631897e-06
-0.00036206223
-0.00034750915
0.00038396653
0.00084781575
0.0009846581
0.00087827106
0.00063609293
0.00038663431
-0.00027707288
0.00046814266
0.00018924122
-0.0004691524
0.00013096262
0.00054529877
0.00058440929
0.00036043568
9.2772531e-05
4.1162182e-05
-0.00012151809
0.00022418947
0.00023501927
-8.5987311e-05
7.9154826e-05
0.00020354419
0.00020110454
0.00011284152
3.4798784e-05
7.8434628e-05
0.00054468858
-0.0005873733
0.0012515769
9.0521349e-06
-0.00027817434
-0.00015928759
-4.0959951e-06
2.8997745e-05
0.00033826039
0.0010629325
8.9946167e-05
0.0011502786
0.0025419384
1.6530035e-05
-0.00038074672
0.00013264075
0.00066456291
0.00054398011
0.00046849155
0.0016080805
0.0029453599
0.0038399981
0.0018116114
0.0010491039
0.0013228735
0.0021064791
0.0029466377
0.0031117132
0.0023420527
0.0017712064
0.001595853
-0.00069877377
-0.0013268321
-0.0011875116
-0.0005956367
0.00029327456
0.0013761218
0.0023157905
0.0026271176
0.0023791435
-0.0042657095
-0.0045182191
-0.0041495988
-0.0034608438
-0.0026688126
-0.0018309584
-0.00090837725
7.0780975e-05
0.00095867454
0.0015997009
-0.0032007553
-0.0027896378
-0.0021554456
-0.0011658736
-0.00018368711
0.00059456174
0.0012203658
0.001729768
0.0021117439
0.0023154438
-0.0013167859
-0.0010343579
-0.00090544654
-2.9123799e-05
0.0011170694
0.0018726156
0.0022522757
0.0023295674
0.0021723841
0.0018415204
-0.00043579992
7.7734663e-05
-0.00063187127
-0.00052685035
0.00061912445
0.0013402015
0.0015105026
0.0012603099
0.00081341658
0.00044083463
-0.0007586621
0.00079224003
0.00030543828
-0.0005482668
0.00036879134
0.00098065313
0.00095446707
0.00049260605
0.00013499177
0.00010054091
-0.00041867248
0.00030599963
0.00034105348
-7.4564528e-05
0.00017573746
0.00035278638
0.00031153737
0.00013221054
6.3149397e-05
0.0001092433
0.00090251092
-0.00059635024
0.0014757287
6.2101924e-06
-0.00030217759
-0.00010818056
9.7156168e-05
4.4724315e-05
0.00043892885
0.001501154
0.00049345117
0.0013532778
0.0028566317
-0.00010923538
-0.00047393845
0.00031253253
0.0010691823
0.00074460183
0.00060611265
0.0023692567
0.0032910392
0.0041948798
0.001828526
0.00098446059
0.00143104
0.00255629
0.003766713
0.0039883802
0.002975465
0.0024102295
0.0014679045
-0.0011989549
-0.0018626656
-0.001596441
-0.00075808755
0.00048023635
0.0019856859
0.0032636298
0.0036833589
0.00342525
-0.0053424838
-0.00551407
-0.0049207159
-0.0039422405
-0.0028440386
-0.0016890914
-0.00042794655
0.00087788516
0.0020176316
0.002804124
-0.0038183481
-0.0032193474
-0.0022752273
-0.00088367437
0.00046854609
0.0015324177
0.0023704102
0.0030172206
0.0034477902
0.0035918594
-0.00154106
-0.0013117026
-0.0011089907
0.00012038761
0.0016744028
0.0026873642
0.0031592058
0.0031764699
0.0028415664
0.0022536199
-0.00045660805
5.605097e-05
-0.0009196777
-0.00073519702
0.00077799534
0.0017103811
0.0018553753
0.0013927418
0.00074693371
0.00045763549
-0.001075909
0.0011087355
0.00054874589
-0.00046941525
0.00071036603
0.0014568236
0.0012850048
0.00053397354
0.00034989854
0.00029270152
-0.00066736449
0.00039486066
0.0005080649
1.8036947e-05
0.00033599227
0.00054236522
0.00043203844
0.00015040084
0.00023917296
0.00011226949
0.0010093604
-0.00073080611
0.0015926549
-7.9511799e-05
-0.00039786708
-0.00011740409
0.00015744253
3.3673723e-05
0.00051925437
0.0018822294
0.00044232612
0.0013172678
0.0029933542
-0.00035527438
-0.00066229534
0.00041697028
0.0014305189
0.00092555758
0.00075841849
0.0030952503
0.0036041722
0.0045811137
0.00193163
0.0010389195
0.0016700771
0.0031373085
0.0047138891
0.004979549
0.0037405946
0.0031875883
0.0015713838
-0.0014143992
-0.0020842657
-0.0016759521
-0.00058848064
0.00099236021
0.0029040446
0.0044881174
0.0049868692
0.0047005537
-0.0060209685
-0.0060778069
-0.0052487238
-0.0039794179
-0.0025804115
-0.0011195049
0.00046101722
0.0020598318
0.0034059587
0.0042920353
-0.0040668013
-0.0032338369
-0.0019739871
-0.00019002487
0.0015185382
0.0028514039
0.0038773285
0.0046220053
0.0050431087
0.0050578216
-0.0015931701
-0.0013665534
-0.0010845828
0.00047568703
0.0024111744
0.0036550238
0.0041817758
0.0040781822
0.0034821247
0.002553719
-0.00052190303
2.0814736e-05
-0.0011940034
-0.00095247984
0.00088882124
0.0019924616
0.0020546014
0.0012928105
0.000395587
0.00033959488
-0.0014135839
0.0013592496
0.00075610878
-0.00043271111
0.00096854507
0.0017994924
0.0014043614
0.0002750291
0.00045114578
0.00050778633
-0.00088967684
0.00047329822
0.00066821104
0.00010462735
0.00047733402
0.00069534508
0.00048714265
7.6407942e-05
0.00044981457
0.00011416831
0.0010671856
-0.00087325042
0.0016996454
-0.00016114343
-0.000485388
-0.00011716631
0.00023115562
4.1100477e-05
0.00062037521
0.0022617935
0.00036583362
0.0013145233
0.0031804513
-0.00051865575
-0.00075935803
0.0006122141
0.0018843016
0.0012021604
0.0010168842
0.003882546
0.0040503112
0.0051184717
0.0022171322
0.0012921844
0.0021103261
0.0039126365
0.0058425154
0.0061351741
0.0046707505
0.0041148213
0.001932061
-0.001345489
-0.0020077483
-0.0014522951
-0.00011858695
0.0017947446
0.0040950508
0.0059585672
0.0065141419
0.0061824579
-0.0063346169
-0.0062686512
-0.005203747
-0.0036481991
-0.0019567073
-0.00020209477
0.0016799386
0.0035452217
0.0050660888
0.0060220855
-0.0039469352
-0.0028721198
-0.0013032756
0.00086006954
0.0029103622
0.0044967155
0.0056912481
0.006506102
0.0068795615
0.0067204778
-0.0013558674
-0.0011184672
-0.00076592111
0.0011040704
0.0033979016
0.0048513869
0.0054072881
0.0051427221
0.0042251859
0.0028828441
-0.00043425604
0.00014957335
-0.0013016734
-0.0010221915
0.0011174176
0.0023639586
0.0023057311
0.0011818564
-3.9076673e-05
0.00015441163
-0.0016489842
0.0016820553
0.0010314015
-0.00033829747
0.0012552922
0.0021385664
0.001469668
-0.00012131166
0.0004422232
0.00068335166
-0.0010700548
0.00057136344
0.00084038638
0.00020074397
0.00061926373
0.00083807515
0.00051320796
-5.6819408e-05
0.00064220015
0.00010393289
0.0011364327
-0.00098789852
0.0018228199
-0.00021514744
-0.00054308088
-8.8828374e-05
0.00033162634
7.5900058e-05
0.00074545819
0.002649978
0.00038173872
0.0014113194
0.003463935
-0.00056116956
-0.00073245661
0.00092428961
0.0024470735
0.0015857511
0.00138032
0.0047424429
0.0046438811
0.0058030077
0.0026713921
0.0017234449
0.0027259806
0.0048528676
0.0071213244
0.0074284738
0.0057382243
0.0051692229
0.0025070912
-0.0010417599
-0.0016893004
-0.00098717136
0.00058603735
0.0028194179
0.0054903946
0.0076119772
0.0082092459
0.0078222625
-0.0063534297
-0.0061639511
-0.0048679705
-0.0030345284
-0.0010613813
0.00097349685
0.0031399849
0.0052503812
0.0069239414
0.007931776
-0.003533234
-0.0022211732
-0.00035370391
0.0021741706
0.0045506533
0.0063755368
0.0077228009
0.0085892296
0.0088936707
0.0085398093
-0.00086538737
-0.00061829472
-0.00020392586
0.0019573115
0.0045886335
0.0062341959
0.0068023263
0.0063557937
0.0050877317
0.0032948054
-0.00017199061
0.00044875717
-0.001238744
-0.00093434292
0.0014801073
0.0028496135
0.0026509771
0.001135019
-0.00045173189
-2.8039371e-05
-0.0017706311
0.0020904859
0.0013860607
-0.000168765
0.001596346
0.0025126298
0.0015469257
-0.00054835854
0.00038386732
0.00082629055
-0.0012163489
0.00068817095
0.0010250664
0.00030883672
0.00076707743
0.00098072647
0.00053116983
-0.00021455778
0.00081363152
8.0391046e-05
0.0012220082
-0.0010739909
0.001959362
-0.00024427019
-0.00057411069
-3.6505969e-05
0.00045346649
0.00013257093
0.00088774076
0.0030423767
0.00048867261
0.0015947033
0.003824194
-0.0005035676
-0.00060430289
0.0013278604
0.003091243
0.002051138
0.0018226844
0.0056555106
0.0053507037
0.0065952848
0.0032524329
0.002287965
0.0034695844
0.0059082357
0.0084998298
0.0088135049
0.006900807
0.0063150973
0.0032415214
-0.00055868761
-0.0011869756
-0.00034153606
0.0014619177
0.0040010252
0.0070241489
0.0093855618
0.010014243
0.0095678864
-0.0061429971
-0.0058313507
-0.004311569
-0.00221108
3.0992247e-05
0.002331657
0.0047657793
0.0071027436
0.0089120961
0.0099598391
-0.0029003152
-0.0013589495
0.00079523064
0.0036712959
0.0063574619
0.008406083
0.0098922089
0.010796811
0.011020222
0.010463537
-0.00018725767
6.6357687e-05
0.00053601989
0.0029716268
0.0059205565
0.0077427134
0.0083112842
0.0076728054
0.0060442423
0.0037900857
0.00022868106
0.00088009246
-0.0010398775
-0.00071893035
0.0019502168
0.0034273864
0.0030782295
0.0011603445
-0.00080845134
-0.0001727942
-0.0018007647
0.0025639439
0.001803608
6.5536401e-05
0.0019859326
0.0029226319
0.0016526587
-0.00096008781
0.00031952001
0.00096030453
-0.0013372421
0.0008173938
0.0012179754
0.00042692067
0.00092040418
0.001125416
0.00054928101
-0.00037735504
0.00097305244
4.983465e-05
0.0013180868
-0.0011368937
0.0021021312
-0.00025481918
-0.00058480108
3.2998565e-05
0.00058946458
0.00020454054
0.0010404907
0.003432387
0.0006637113
0.0018397779
0.0042339824
-0.0003720475
-0.00040185055
0.001794354
0.0037872531
0.0025715149
0.0023187174
0.0065981222
0.0061323665
0.0074554783
0.0039205411
0.002945116
0.0042988791
0.0070346752
0.00993302
0.010247937
0.008119802
0.0075174939
0.0040871533
5.6754806e-05
-0.00054867967
0.00043509286
0.0024578184
0.0052867748
0.0086425736
0.011226824
0.011879416
0.011373036
-0.0057553312
-0.0053236046
-0.0035889297
-0.0012340454
0.0012627522
0.0038138058
0.0064985661
0.0090447974
0.010975525
0.012054152
-0.0021065368
-0.00034513828
0.0020825669
0.0052890027
0.0082673221
0.010524817
0.01213714
0.013069569
0.013205033
0.012443931
0.00062337229
0.00088068526
0.0014005332
0.004093947
0.0073405824
0.0093249386
0.0098853344
0.0090513781
0.0070628028
0.0043508076
0.00072917477
0.001405714
-0.00073936095
-0.00040750407
0.002497481
0.0040694543
0.0035653741
0.0012469228
-0.0011050398
-0.00026990961
-0.0017605015
0.0030812681
0.0022661057
0.00035082515
0.0024123176
0.0033601799
0.0017866805
-0.0013403905
0.00026984807
0.0011016094
-0.0014376442
0.00095425205
0.0014152923
0.00055271335
0.0010777059
0.0012717985
0.00057030462
-0.00053619834
0.001127058
1.8309237e-05
0.0014191605
-0.0011810263
0.0022453385
-0.00025162665
-0.00057993421
0.0001144974
0.00073413128
0.00028688697
0.0011985997
0.0038140943
0.00088681791
0.0021260849
0.0046715327
-0.00018678734
-0.00014569219
0.0023017796
0.004512163
0.0031259093
0.0028486569
0.0075496453
0.0069572298
0.0083513292
0.0046443575
0.0036633234
0.0051811506
0.0081978857
0.011385392
0.011697622
0.0093637371
0.0087467096
0.0050058598
0.00076795077
0.00018863498
0.0013047439
0.0035344749
0.0066360206
0.010303823
0.01309402
0.013764436
0.013199185
-0.0052296706
-0.0046804845
-0.0027411037
-0.00014592219
0.0025901731
0.0053753374
0.0082932524
0.011031715
0.013070385
0.014172102
-0.0011953074
0.00077579082
0.0034625478
0.0069800321
0.010231896
0.012683111
0.014409587
0.015361251
0.01540472
0.014441039
0.0015253101
0.0017838945
0.0023494398
0.0052836303
0.0088074393
0.010940008
0.011485579
0.01045662
0.0081146038
0.0049557274
0.001298883
0.0019955856
-0.00036462312
-2.6069176e-05
0.0030959901
0.0047510631
0.0040911233
0.001380088
-0.0013477289
-0.00032198479
-0.0016660246
0.0036247865
0.0027577115
0.00067387456
0.0028628758
0.0038142615
0.0019426636
-0.0016866315
0.00024059083
0.0012558697
-0.0015204452
0.0010950495
0.001613547
0.00068369782
0.0012367126
0.0014181761
0.0005942583
-0.0006877415
0.0012780877
-1.0888901e-05
0.0015212484
-0.0012093438
0.0023847712
-0.00023797799
-0.00056275343
0.00020434244
0.00088350763
0.00037610912
0.0013582512
0.00418254
0.0011432226
0.0024385068
0.0051206668
3.7689469e-05
0.00014932159
0.0028339418
0.005248748
0.0036985524
0.0033974376
0.0084931475
0.0078005963
0.009257645
0.005399779
0.0044185231
0.0060914126
0.0093714039
0.012829155
0.013135464
0.010607503
0.0099784569
0.0059679329
0.001546646
0.00099658775
0.0022382796
0.0046616628
0.0080172394
0.011975044
0.014953841
0.015636691
0.015014718
-0.0045956554
-0.0039321747
-0.001799403
0.001020706
0.0039795568
0.0069816642
0.010114562
0.013027955
0.015161362
0.016278836
-0.0001992902
0.0019701014
0.0049001362
0.0087078434
0.012213518
0.014842848
0.016671661
0.01763497
0.017584123
0.016421819
0.0024877985
0.0027454485
0.003352409
0.0065095087
0.01028901
0.0125558
0.013081132
0.011860326
0.0091753961
0.0055852276
0.0019145193
0.0026266346
6.3208847e-05
0.00040498276
0.0037248554
0.0054517831
0.0046373178
0.0015460477
-0.0015452523
-0.00033629893
-0.0015297113
0.004179935
0.0032648838
0.0010229278
0.003325761
0.0042738085
0.0021126108
-0.0020012898
0.00023026424
0.0014219926
-0.0015876559
0.0012366329
0.001809484
0.000817269
0.0013948354
0.0015622514
0.00061996641
-0.00083119426
0.0014259353
-3.6708715e-05
0.0016214293
-0.0012238484
0.0025172535
-0.00021617859
-0.0005355359
0.00029985349
0.0010345954
0.0004696096
0.0015164736
0.0045335267
0.0014219436
0.00276568
0.0055690676
0.0002906579
0.00047216098
0.0033784998
0.0059836051
0.004277253
0.003953292
0.0094146854
0.0086429834
0.010154488
0.0061679613
0.005191989
0.0070101143
0.010534261
0.014241969
0.014539528
0.011830763
0.011192828
0.0069498931
0.002370709
0.0018529865
0.003212862
0.0058155474
0.0094053294
0.013629743
0.016779084
0.017469329
0.01679344
-0.0038761265
-0.0031020783
-0.00078828449
0.0022401939
0.0054041829
0.0086051421
0.011934031
0.015004518
0.017219334
0.01834538
0.00085621709
0.003211414
0.0063676612
0.010443269
0.014181857
0.016973117
0.018892431
0.019860376
0.01971406
0.018358655
0.0034871869
0.003741821
0.00438594
0.0077470876
0.011759694
0.014146463
0.014646953
0.013239425
0.010225041
0.0062225358
0.002558159
0.0032809763
0.00052784595
0.00086977031
0.0043674318
0.0061550732
0.0051890604
0.001733161
-0.0017058058
-0.00032088302
-0.0013611227
0.004734753
0.0037763098
0.001388053
0.0037906663
0.0047289158
0.0022889453
-0.0022879735
0.00023490122
0.0015959576
-0.0016407652
0.001376288
0.0020001638
0.00095099753
0.0015495713
0.0017016951
0.0006459685
-0.00096664182
0.0015692504
-5.9270875e-05
0.0017174304
-0.001225979
0.002640268
-0.0001879415
-0.0004999787
0.00039893926
0.0011849886
0.00056535531
0.0016708498
0.0048634288
0.0017144789
0.0030987352
0.0060069993
0.00056386263
0.00081426702
0.0039256215
0.0067058457
0.004852213
0.00450672
0.010302549
0.0094686618
0.011025718
0.0069337892
0.0059687292
0.0079214844
0.011669313
0.015605321
0.015891565
0.013016659
0.012373224
0.0079327973
0.0032224273
0.002740065
0.0042101225
0.0069768054
0.010779717
0.015245931
0.01854695
0.019239742
0.01851325
-0.0030891181
-0.002208797
0.00027264073
0.0034917866
0.0068422353
0.010222998
0.013727988
0.016937061
0.019219683
0.020347157
0.0019510332
0.0044784841
0.0078426119
0.012162321
0.016111737
0.019048074
0.021045876
0.022011797
0.021769742
0.020228079
0.0045047144
0.0047543385
0.0054313059
0.008976591
0.013198539
0.015690654
0.016162262
0.014574716
0.011246757
0.0068536762
0.003215711
0.0039445029
0.0010165852
0.0013558407
0.0050103964
0.0068475356
0.0057342618
0.0019320303
-0.0018361114
-0.00028292812
-0.0011676637
0.0052794466
0.0042826726
0.0017611055
0.004248972
0.0051712015
0.0024652539
-0.0025498385
0.00025029547
0.0017730822
-0.0016808535
0.0015117255
0.0021830326
0.0010827689
0.0016987045
0.0018344185
0.00067092919
-0.0010943019
0.0017063848
-7.9110735e-05
0.0018074059
-0.0012168275
0.0027517496
-0.00015460139
-0.00045741341
0.00049988737
0.0013326704
0.0006616842
0.0018193469
0.005169061
0.0020140074
0.003430523
0.0064265306
0.00085071025
0.001168734
0.0044671739
0.0074063091
0.0054152862
0.0050498148
0.011146697
0.010264648
0.011857988
0.0076848356
0.0067364113
0.0088124388
0.012762148
0.01690346
0.017176029
0.01415089
0.013505529
0.008901038
0.0040872935
0.0036432413
0.0052148966
0.0081293468
0.012123089
0.016804895
0.020237892
0.020928496
0.020155145
-0.002249247
-0.0012675139
0.0013672166
0.0047582233
0.008275409
0.011815961
0.015476228
0.01880466
0.021141151
0.022262916
0.0030686067
0.0057537325
0.0093061818
0.013844754
0.01798173
0.021045572
0.023109579
0.024067031
0.023729709
0.022009832
0.005525081
0.0057677762
0.0064731932
0.010181657
0.014587996
0.017170356
0.017609455
0.015849952
0.012226436
0.00746707
0.003875857
0.0046058718
0.0015193627
0.0018533012
0.0056429641
0.0075182244
0.0062630943
0.0021352054
-0.0019413314
-0.00022834335
-0.00095509412
0.0058059711
0.0047763169
0.0021354706
0.0046935703
0.0055937264
0.0026363708
-0.0027891558
0.00027282198
0.0019490219
-0.0017086747
0.0016410394
0.0023559136
0.0012107988
0.0018403462
0.0019586422
0.00069376095
-0.0012142683
0.001835753
-9.6801731e-05
0.0018898177
-0.0011972633
0.0028499718
-0.00011723847
-0.00040893131
0.00060124264
0.0014758957
0.00075719062
0.0019602115
0.0054475931
0.0023148964
0.0037551276
0.0068210492
0.0011457611
0.0015297977
0.0049962223
0.0080770778
0.0059595098
0.0055758221
0.011938363
0.011020015
0.012640052
0.008410648
0.0074846341
0.0096718513
0.013800377
0.018122712
0.018379415
0.015221088
0.014577508
0.009841487
0.0049531324
0.0045502354
0.0062143356
0.0092594336
0.01342053
0.018290374
0.021834833
0.0225186
0.021702521
-0.0013687057
-0.00029098403
0.0024817556
0.006024759
0.0096879498
0.013367325
0.017161124
0.020588969
0.022965058
0.024073987
0.0041949924
0.0070222329
0.010742272
0.015473093
0.019773213
0.022946267
0.02506388
0.026006568
0.025575112
0.023686192
0.0065354889
0.0067694109
0.0074987764
0.011348449
0.015913079
0.018570092
0.018973379
0.017051193
0.013152102
0.0080530941
0.0045293074
0.0052557812
0.0020280518
0.0023541574
0.0062562778
0.0081580915
0.0067675098
0.0023368144
-0.0020252751
-0.00016179242
-0.00072794626
0.0063076575
0.0052509065
0.0025057505
0.0051185947
0.0059907687
0.0027982197
-0.0030073306
0.00029961284
0.0021200828
-0.0017247368
0.0017626448
0.0025169569
0.0013335915
0.0019729042
0.0020728777
0.0007136248
-0.001326461
0.0019559466
-0.00011281431
0.0019633624
-0.001168015
0.0029334743
-7.6758687e-05
-0.00035546439
0.00070172943
0.0016131172
0.00085065153
0.0020919022
0.0056964947
0.0026123703
0.0040675381
0.0071849384
0.0014443871
0.0018924941
0.005506701
0.008711164
0.0064787951
0.0060788419
0.012669784
0.011725398
0.013362282
0.009102247
0.0082044209
0.010490054
0.014773144
0.019251019
0.019489822
0.016216391
0.015578396
0.010742875
0.0058094671
0.0054504308
0.0071972736
0.010355059
0.014658926
0.01968799
0.023322637
0.023994994
0.023140669
-0.00045798932
0.00070974286
0.0036043246
0.0072784662
0.011065977
0.01486231
0.018767018
0.022273652
0.024674764
0.025763763
0.0053181201
0.0082709925
0.01213679
0.017031958
0.021469721
0.024732998
0.026891299
0.027813049
0.027289206
0.025241495
0.0075249723
0.0077483555
0.0084970664
0.012465033
0.017160778
0.019876374
0.020240828
0.018166347
0.014013491
0.0086036952
0.0051682678
0.0058864453
0.0025359457
0.0028518172
0.0068429492
0.0087595639
0.007240856
0.0025322264
-0.0020906705
-8.6888397e-05
-0.00048985668
0.0067789081
0.005701132
0.0028674826
0.0055191638
0.0063575936
0.00294761
-0.0032050579
0.00032849515
0.0022832349
-0.0017293769
0.0018752155
0.0026645844
0.0014498858
0.0020950347
0.0021758848
0.00072989405
-0.0014306457
0.0020657488
-0.00012748589
0.0020269225
-0.0011297284
0.0030010159
-3.3949213e-05
-0.00029784137
0.0008001992
0.0017429368
0.00094097654
0.0022130442
0.0059135006
0.002902276
0.0043634161
0.0075133518
0.0017425324
0.0022524217
0.0059931889
0.0093022989
0.0069677161
0.006553622
0.013334021
0.012372654
0.014016323
0.0097517704
0.0088878617
0.011258487
0.015670801
0.020277632
0.020496654
0.017127142
0.016498602
0.011595342
0.0066470559
0.0063344118
0.0081537722
0.011405508
0.015826548
0.020984863
0.024687748
0.025344205
0.024456439
0.00047356807
0.0017247907
0.0047242245
0.0085077298
0.012397
0.016287597
0.020279788
0.023843982
0.026255293
0.02731733
0.0064272654
0.0094884326
0.013477143
0.018507578
0.023056497
0.026390366
0.028576147
0.029470904
0.02885701
0.026661784
0.0084839162
0.0086950822
0.0094584435
0.013520935
0.018319644
0.02107732
0.021400182
0.019184828
0.014801728
0.0091120732
0.005786051
0.0064912121
0.0030373741
0.0033407214
0.0073967164
0.0093162266
0.0076775799
0.0027177728
-0.0021394223
-6.415556e-06
-0.00024382309
0.0072149631
0.0061224814
0.0032169119
0.0058911726
0.0066902598
0.0030820527
-0.0033824954
0.00035786435
0.0024360227
-0.0017228235
0.0019776329
0.0027974423
0.0015586068
0.0022055982
0.002266631
0.00074211411
-0.0015264721
0.0021641186
-0.00014103317
0.0020795311
-0.0010830087
0.0030515419
1.0481926e-05
-0.00023682755
0.00089559427
0.0018640718
0.0010271732
0.0023223985
0.0060965907
0.0031809138
0.0046389299
0.0078020556
0.0020365415
0.0026055744
0.0064507547
0.0098447897
0.0074213644
0.0069954149
0.013924831
0.012954607
0.014594843
0.010352219
0.0095278595
0.011969457
0.016484678
0.021192904
0.021390421
0.017944687
0.017329509
0.012390109
0.007457555
0.0071936279
0.0090747936
0.012401046
0.016912757
0.022169337
0.025917934
0.026554107
0.025637997
0.0014173969
0.0027450654
0.0058316101
0.0097018835
0.013669574
0.017631005
0.021686553
0.025286564
0.027693071
0.028721217
0.0075126625
0.010664011
0.014751878
0.019887458
0.024520169
0.027904437
0.030104242
0.030966089
0.030265054
0.027934568
0.0094037078
0.0096010762
0.010374317
0.014506819
0.019379494
0.022162378
0.022441147
0.020097316
0.015509083
0.0095724292
0.0063767925
0.0070642826
0.0035274177
0.0038160659
0.0079121873
0.0098225839
0.008072999
0.0028905206
-0.0021728345
7.7466544e-05
7.600113e-06
0.0076117263
0.006511067
0.0035508146
0.0062311299
0.0069854675
0.0031996083
-0.0035394197
0.00038655431
0.002576456
-0.001705246
0.0020689461
0.0029143649
0.0016588274
0.0023036248
0.0023442582
0.00074996725
-0.0016135111
0.0022501679
-0.00015357663
0.0021203484
-0.0010284521
0.0030841621
5.5877344e-05
-0.0001731532
0.00098692273
0.0019753336
0.0011083228
0.0024188414
0.0062439785
0.003444914
0.0048906345
0.0080473174
0.0023230369
0.0029482216
0.0068748504
0.010333425
0.0078352483
0.0073998773
0.014436591
0.013464874
0.015091368
0.010897276
0.01011795
0.012615968
0.017206929
0.021988145
0.022162603
0.018661236
0.018063331
0.013119245
0.0082332723
0.0080201495
0.0099519639
0.01333269
0.0179078
0.023230797
0.02700212
0.027613751
0.02667466
0.0023653975
0.0037619656
0.0069172109
0.010850944
0.014873047
0.018881264
0.022975456
0.026589142
0.028975742
0.029963219
0.0085652191
0.011787949
0.015950422
0.021160127
0.025848529
0.029262535
0.031462727
0.03228591
0.031501205
0.02904864
0.010276479
0.010458579
0.011236877
0.015414253
0.020331197
0.023122131
0.023354572
0.020895566
0.016128783
0.0099797646
0.0069352387
0.0076005003
0.0040016913
0.0042735907
0.0083846452
0.010273877
0.0084231227
0.0030480888
-0.0021918001
0.00016304621
0.00026215116
0.0079656347
0.0068634935
0.0038663627
0.0065360329
0.0072404396
0.0032987635
-0.003675362
0.00041372091
0.0027029053
-0.001676795
0.0021483421
0.0030143473
0.0017497388
0.0023882862
0.0024080564
0.00075324326
-0.0016912892
0.0023231408
-0.00016516631
0.0021486442
-0.00096666961
0.0030981361
0.00010160951
-0.00010753432
0.0010732412
0.0020756129
0.0011835634
0.0025013507
0.0063541077
0.0036911471
0.005115385
0.0082458263
0.0025988292
0.003276823
0.0072612362
0.010763408
0.0082052224
0.0077629983
0.014864237
0.013897735
0.015500153
0.011381179
0.010652174
0.013191595
0.017830429
0.022655541
0.022805562
0.019269762
0.018693019
0.013775491
0.0089669858
0.0088064881
0.010777402
0.014192059
0.018802665
0.024159542
0.027930277
0.028513263
0.027556788
0.0033097178
0.0047671653
0.0079721249
0.01194542
0.015997388
0.020027846
0.024135519
0.02774046
0.030092047
0.03103227
0.0095763047
0.012851025
0.01706289
0.022314971
0.027030373
0.030453102
0.032639931
0.033418894
0.032554545
0.029993954
0.011094915
0.011260399
0.012038901
0.016235531
0.021166513
0.023948145
0.024132305
0.021572269
0.016654859
0.010329717
0.0074565843
0.0080951911
0.0044561745
0.0047094126
0.0088098952
0.010665941
0.0087245084
0.003188495
-0.0021969641
0.00024890709
0.00051774211
0.0082735586
0.0071767568
0.0041610155
0.0068032678
0.0074528263
0.0033783278
-0.0037897254
0.00043873993
0.0028140096
-0.0016376344
0.0022151227
0.0030965248
0.001830627
0.0024588749
0.0024574424
0.00075181456
-0.001759319
0.0023823954
-0.00017580588
0.0021637858
-0.00089830446
0.0030928628
0.00014706498
-4.0688119e-05
0.0011536423
0.0021638693
0.0012520773
0.002568996
0.0064256507
0.0039166551
0.0053102705
0.008394635
0.0028608493
0.0035879637
0.0076059283
0.011130317
0.0085274365
0.0080810478
0.015203237
0.014248038
0.015816092
0.011798617
0.011124978
0.013690401
0.018348693
0.023188081
0.023312479
0.019763937
0.019212189
0.014352132
0.0096518053
0.0095454603
0.011543589
0.014971243
0.019588974
0.024946693
0.028693336
0.029243758
0.028275701
0.0042425817
0.0057524478
0.0089876607
0.012976162
0.017033046
0.021060848
0.025156533
0.028730168
0.031031728
0.031918361
0.010537586
0.013844422
0.018079939
0.023342102
0.028055389
0.031465589
0.033625278
0.034354704
0.033415279
0.030761522
0.011852103
0.011999755
0.012773611
0.016963542
0.021877972
0.024632861
0.024767088
0.022120938
0.017082025
0.010618421
0.0079363435
0.0085440336
0.0048870744
0.0051198893
0.0091841389
0.010995085
0.0089741399
0.0033100219
-0.0021888676
0.00033379316
0.0007723609
0.008532721
0.0074481612
0.0044324307
0.0070305264
0.0076206242
0.0034373443
-0.0038818921
0.00046111553
0.0029085934
-0.0015879693
0.0022686854
0.0031601567
0.0019008536
0.0025147855
0.0024919422
0.0007456141
-0.0018171268
0.0024273879
-0.00018547484
0.0021652281
-0.00082404745
0.0030678714
0.00019163144
2.6654482e-05
0.0012272455
0.0022391249
0.0013130808
0.0026209315
0.0064575095
0.0041185956
0.0054725605
0.0084911103
0.0031060927
0.003878303
0.0079051558
0.011430066
0.0087982946
0.0083505332
0.015449556
0.014511125
0.016034643
0.012144657
0.011531137
0.014106864
0.018755819
0.023579517
0.023677308
0.020138069
0.019615065
0.014842883
0.010281058
0.010230076
0.012243265
0.015662717
0.020258902
0.025584123
0.029283128
0.029797282
0.028823614
0.0051561463
0.0067095674
0.0099552094
0.013934249
0.017970846
0.021970894
0.026028973
0.029548743
0.031785458
0.032612461
0.011440893
0.014759599
0.018992657
0.024232252
0.028914063
0.032290379
0.03440921
0.035084063
0.034074663
0.031343336
0.012541406
0.012670159
0.013434545
0.017591649
0.022458771
0.025169498
0.025252456
0.022535811
0.017405566
0.010842384
0.0083702387
0.0089429486
0.0052907057
0.0055014999
0.0095038646
0.011257985
0.0091693177
0.003411095
-0.0021680827
0.0004164834
0.0010239856
0.0087406287
0.0076752473
0.0046783857
0.0072157333
0.007742104
0.0034750064
-0.0039513227
0.00048039478
0.0029855906
-0.0015280706
0.0023085075
0.0032046114
0.0019598386
0.0025554994
0.0025111744
0.00073461473
-0.0018642801
0.0024576588
-0.00019414954
0.0021525032
-0.00074465006
0.0030228129
0.00023468571
9.3737407e-05
0.0012931881
0.0023004569
0.0013658152
0.0026563883
0.0064488161
0.0042941889
0.0055996534
0.0085328876
0.0033315681
0.0041445262
0.008155323
0.011658878
0.0090144164