/*--------------------------------*- C++ -*----------------------------------*\
| =========                 |                                                 |
| \\      /  F ield         | OpenFOAM: The Open Source CFD Toolbox           |
|  \\    /   O peration     | Version:  v2106                                 |
|   \\  /    A nd           | Website:  www.openfoam.com                      |
|    \\/     M anipulation  |                                                 |
\*---------------------------------------------------------------------------*/
FoamFile
{
    version     2.0;
    format      ascii;
    arch        "LSB;label=32;scalar=64";
    class       volVectorField;
    location    "60";
    object      flux;
}
// * * * * * * * * * * * * * * * * * * * * * * * * * * * * * * * * * * * * * //

dimensions      [0 1 -1 1 0 0 0];

internalField   nonuniform List<vector> 
10000
(
(5.6991041e-08 5.6991039e-08 0.29836881)
(9.1166365e-08 4.7848077e-08 0.29836911)
(-5.9628874e-08 1.5884289e-08 0.29836911)
(-7.6345427e-08 2.4801417e-08 0.29836887)
(5.5243845e-10 3.0596963e-08 0.29836883)
(2.1114963e-08 2.926786e-08 0.29836887)
(2.0956367e-08 2.9340155e-08 0.29836891)
(2.3382441e-08 3.1609505e-08 0.29836896)
(1.6266438e-08 3.2878398e-08 0.29836901)
(2.8763926e-09 2.8556807e-08 0.29836902)
(4.7848079e-08 9.1166365e-08 0.29836911)
(2.9506239e-08 2.9506234e-08 0.29836934)
(-9.4198865e-08 -6.1898618e-09 0.29836919)
(-5.4276416e-08 1.5756351e-08 0.298369)
(7.2521033e-09 2.4044752e-08 0.29836899)
(1.9229751e-08 2.1366074e-08 0.29836902)
(2.4468835e-08 2.3203086e-08 0.29836906)
(2.8689806e-08 3.0655357e-08 0.29836912)
(1.1687391e-08 3.8073478e-08 0.29836918)
(-1.4451984e-09 3.3947737e-08 0.29836916)
(1.5884287e-08 -5.9628877e-08 0.29836911)
(-6.1898618e-09 -9.4198864e-08 0.29836919)
(-7.3378757e-08 -7.3378757e-08 0.29836907)
(-4.6110813e-08 -6.3759276e-08 0.29836891)
(6.162162e-09 -6.4663419e-08 0.2983689)
(2.0273296e-08 -6.5133361e-08 0.29836893)
(3.024565e-08 -6.2742566e-08 0.29836898)
(3.8252833e-08 -5.6747422e-08 0.29836906)
(1.9558817e-08 -4.6179977e-08 0.29836913)
(1.2589869e-10 -3.6207877e-08 0.29836913)
(2.480142e-08 -7.634543e-08 0.29836887)
(1.5756359e-08 -5.4276413e-08 0.298369)
(-6.3759276e-08 -4.6110816e-08 0.29836891)
(-4.5561077e-08 -4.5561075e-08 0.29836876)
(5.8780188e-09 -4.5618492e-08 0.29836874)
(2.1150603e-08 -4.465698e-08 0.29836878)
(3.2854774e-08 -4.3900368e-08 0.29836883)
(4.5252395e-08 -4.2531886e-08 0.29836891)
(3.2226936e-08 -3.7913819e-08 0.29836901)
(5.2028686e-09 -3.0310315e-08 0.29836903)
(3.0596965e-08 5.5244129e-10 0.29836883)
(2.4044752e-08 7.2521004e-09 0.29836899)
(-6.4663419e-08 6.1621563e-09 0.2983689)
(-4.5618489e-08 5.8780188e-09 0.29836874)
(7.0662565e-09 7.0662566e-09 0.29836873)
(2.199142e-08 8.9758686e-09 0.29836877)
(3.2370744e-08 9.939248e-09 0.29836882)
(4.4239383e-08 9.3332204e-09 0.2983689)
(3.1780388e-08 8.1450906e-09 0.298369)
(5.1949011e-09 7.0528671e-09 0.29836902)
(2.926786e-08 2.1114963e-08 0.29836887)
(2.1366074e-08 1.9229751e-08 0.29836902)
(-6.5133358e-08 2.0273293e-08 0.29836893)
(-4.4656977e-08 2.1150598e-08 0.29836878)
(8.9758686e-09 2.199142e-08 0.29836877)
(2.4023595e-08 2.4023592e-08 0.29836881)
(3.3212126e-08 2.6334385e-08 0.29836886)
(4.3458238e-08 2.7407614e-08 0.29836895)
(2.9946582e-08 2.7257491e-08 0.29836904)
(4.4747196e-09 2.6439759e-08 0.29836906)
(2.9340157e-08 2.0956361e-08 0.29836891)
(2.3203083e-08 2.4468835e-08 0.29836906)
(-6.2742572e-08 3.0245644e-08 0.29836898)
(-4.3900363e-08 3.2854766e-08 0.29836883)
(9.9392508e-09 3.2370747e-08 0.29836882)
(2.6334385e-08 3.321212e-08 0.29836886)
(3.5754766e-08 3.5754763e-08 0.29836892)
(4.5162488e-08 3.7886676e-08 0.29836901)
(3.0812532e-08 3.9083577e-08 0.29836911)
(4.6497462e-09 3.964399e-08 0.29836912)
(3.1609509e-08 2.3382441e-08 0.29836896)
(3.0655357e-08 2.86898e-08 0.29836912)
(-5.6747427e-08 3.8252833e-08 0.29836906)
(-4.2531875e-08 4.5252395e-08 0.29836891)
(9.3332233e-09 4.4239383e-08 0.2983689)
(2.7407611e-08 4.345824e-08 0.29836895)
(3.7886682e-08 4.5162491e-08 0.29836901)
(4.6787051e-08 4.6787054e-08 0.2983691)
(3.1703897e-08 4.7248969e-08 0.2983692)
(4.8483287e-09 4.6689021e-08 0.29836922)
(3.2878396e-08 1.6266449e-08 0.29836901)
(3.8073475e-08 1.1687391e-08 0.29836918)
(-4.6179977e-08 1.955882e-08 0.29836913)
(-3.7913813e-08 3.2226944e-08 0.29836901)
(8.1450963e-09 3.178038e-08 0.298369)
(2.7257494e-08 2.9946585e-08 0.29836904)
(3.9083579e-08 3.0812532e-08 0.29836911)
(4.7248966e-08 3.1703897e-08 0.2983692)
(3.07145e-08 3.0714506e-08 0.29836929)
(4.2764479e-09 2.7157637e-08 0.29836931)
(2.8556803e-08 2.8763964e-09 0.29836902)
(3.3947728e-08 -1.4451966e-09 0.29836916)
(-3.6207874e-08 1.2589869e-10 0.29836913)
(-3.0310315e-08 5.2028725e-09 0.29836903)
(7.0528642e-09 5.1948973e-09 0.29836902)
(2.6439764e-08 4.4747177e-09 0.29836906)
(3.9643993e-08 4.6497443e-09 0.29836912)
(4.6689024e-08 4.8483268e-09 0.29836922)
(2.7157637e-08 4.2764498e-09 0.29836931)
(2.4770827e-09 2.4770846e-09 0.29836931)
(1.2900975e-07 1.2900975e-07 0.29837063)
(1.756915e-07 9.113676e-08 0.29837078)
(-1.73213e-07 3.3573779e-08 0.29837072)
(-1.8389549e-07 5.2990606e-08 0.29837057)
(-1.5021697e-09 6.3830718e-08 0.29837054)
(5.6627587e-08 6.1539934e-08 0.29837057)
(6.7523467e-08 6.3135309e-08 0.29837061)
(7.3568756e-08 6.9746771e-08 0.29837067)
(4.0450621e-08 7.1629734e-08 0.29837072)
(3.1874625e-09 5.4927782e-08 0.29837071)
(9.113676e-08 1.756915e-07 0.29837078)
(3.2537537e-08 3.2537534e-08 0.29837088)
(-2.3043223e-07 -3.0888185e-08 0.29837076)
(-1.3851008e-07 1.4832966e-08 0.29837063)
(1.1321822e-08 3.1376715e-08 0.29837061)
(5.5584474e-08 2.7378059e-08 0.29837064)
(7.9833723e-08 3.4712332e-08 0.29837069)
(8.6310393e-08 5.6965641e-08 0.29837076)
(1.8222139e-08 7.6017631e-08 0.29837081)
(-1.3514489e-08 5.8102549e-08 0.29837076)
(3.3573779e-08 -1.73213e-07 0.29837072)
(-3.0888182e-08 -2.3043222e-07 0.29837076)
(-1.9091757e-07 -1.9091756e-07 0.29837066)
(-1.2163059e-07 -1.7094241e-07 0.29837054)
(1.1042923e-08 -1.7058695e-07 0.29837053)
(5.9963205e-08 -1.7035552e-07 0.29837055)
(9.711105e-08 -1.6365021e-07 0.29837061)
(1.1487406e-07 -1.4523596e-07 0.2983707)
(4.1587529e-08 -1.1441062e-07 0.29837077)
(-8.7559253e-09 -8.7198461e-08 0.29837073)
(5.2990612e-08 -1.8389548e-07 0.29837057)
(1.4832975e-08 -1.3851007e-07 0.29837063)
(-1.7094241e-07 -1.2163058e-07 0.29837054)
(-1.1817947e-07 -1.1817945e-07 0.29837043)
(1.1908713e-08 -1.1634798e-07 0.29837042)
(6.2521212e-08 -1.1347046e-07 0.29837044)
(1.0495328e-07 -1.1140983e-07 0.2983705)
(1.3554999e-07 -1.0643872e-07 0.2983706)
(7.6259641e-08 -9.2132146e-08 0.29837069)
(4.6269482e-09 -7.1170876e-08 0.29837067)
(6.383072e-08 -1.5021669e-09 0.29837054)
(3.1376715e-08 1.1321819e-08 0.29837061)
(-1.7058695e-07 1.1042917e-08 0.29837053)
(-1.1634798e-07 1.1908716e-08 0.29837042)
(1.5751917e-08 1.575192e-08 0.2983704)
(6.4901354e-08 2.1116873e-08 0.29837044)
(1.0414279e-07 2.3896541e-08 0.29837049)
(1.3415174e-07 2.29818e-08 0.29837059)
(7.6855375e-08 2.1141449e-08 0.29837068)
(5.2182543e-09 1.9679317e-08 0.29837067)
(6.1539936e-08 5.6627582e-08 0.29837057)
(2.7378059e-08 5.5584465e-08 0.29837064)
(-1.7035552e-07 5.9963202e-08 0.29837055)
(-1.1347046e-07 6.2521198e-08 0.29837044)
(2.111687e-08 6.4901351e-08 0.29837044)
(7.0665834e-08 7.0665826e-08 0.29837047)
(1.068182e-07 7.7096584e-08 0.29837053)
(1.327949e-07 8.0314251e-08 0.29837063)
(7.2957158e-08 8.0446543e-08 0.29837072)
(3.6521935e-09 7.8882616e-08 0.2983707)
(6.3135309e-08 6.7523462e-08 0.29837061)
(3.4712335e-08 7.9833708e-08 0.29837069)
(-1.6365022e-07 9.7111038e-08 0.29837061)
(-1.1140983e-07 1.0495326e-07 0.2983705)
(2.3896544e-08 1.0414279e-07 0.29837049)
(7.7096587e-08 1.068182e-07 0.29837053)
(1.1379121e-07 1.1379121e-07 0.2983706)
(1.375017e-07 1.1971324e-07 0.2983707)
(7.5423739e-08 1.2300674e-07 0.29837079)
(4.1756361e-09 1.2429581e-07 0.29837078)
(6.9746767e-08 7.3568748e-08 0.29837067)
(5.6965635e-08 8.6310393e-08 0.29837076)
(-1.4523596e-07 1.1487404e-07 0.2983707)
(-1.0643871e-07 1.3554999e-07 0.2983706)
(2.2981806e-08 1.3415174e-07 0.29837059)
(8.0314251e-08 1.327949e-07 0.29837063)
(1.1971324e-07 1.375017e-07 0.2983707)
(1.4201043e-07 1.4201043e-07 0.29837081)
(7.7539732e-08 1.4253444e-07 0.2983709)
(4.511575e-09 1.3787063e-07 0.29837088)
(7.1629739e-08 4.0450615e-08 0.29837072)
(7.6017631e-08 1.8222141e-08 0.29837081)
(-1.1441062e-07 4.1587532e-08 0.29837077)
(-9.2132137e-08 7.6259644e-08 0.29837069)
(2.114146e-08 7.6855366e-08 0.29837068)
(8.0446546e-08 7.2957158e-08 0.29837072)
(1.2300674e-07 7.5423739e-08 0.29837079)
(1.4253444e-07 7.753973e-08 0.2983709)
(7.1283935e-08 7.1283932e-08 0.29837099)
(1.0664242e-09 4.9877488e-08 0.29837096)
(5.4927784e-08 3.1874625e-09 0.29837071)
(5.8102552e-08 -1.3514492e-08 0.29837076)
(-8.7198461e-08 -8.7559234e-09 0.29837073)
(-7.1170879e-08 4.6269501e-09 0.29837067)
(1.9679319e-08 5.2182486e-09 0.29837067)
(7.8882624e-08 3.6521897e-09 0.2983707)
(1.2429581e-07 4.1756342e-09 0.29837078)
(1.3787063e-07 4.5115731e-09 0.29837088)
(4.9877491e-08 1.0664223e-09 0.29837096)
(-9.7593878e-09 -9.7593897e-09 0.29837089)
(1.5843902e-07 1.5843902e-07 0.29837376)
(1.7871526e-07 1.12493e-07 0.29837385)
(-2.7678198e-07 4.3751963e-08 0.29837378)
(-2.5820357e-07 6.8516145e-08 0.29837366)
(-8.9957281e-10 8.1791309e-08 0.29837364)
(9.2434374e-08 7.9512843e-08 0.29837367)
(1.2330748e-07 8.3499551e-08 0.29837372)
(1.3027147e-07 9.5673679e-08 0.29837379)
(5.8543051e-08 9.73645e-08 0.29837384)
(-9.2668032e-10 6.4996571e-08 0.29837383)
(1.12493e-07 1.7871525e-07 0.29837385)
(6.6846723e-09 6.6846668e-09 0.29837392)
(-3.4274726e-07 -6.695671e-08 0.29837381)
(-2.0114455e-07 -8.4705562e-09 0.29837371)
(1.5595475e-08 1.258353e-08 0.29837369)
(9.4996736e-08 8.866104e-09 0.29837372)
(1.4754874e-07 2.2641359e-08 0.29837378)
(1.510689e-07 6.2316326e-08 0.29837387)
(1.2527389e-08 9.3112274e-08 0.29837392)
(-3.329461e-08 5.6880538e-08 0.29837386)
(4.3751965e-08 -2.7678198e-07 0.29837378)
(-6.6956704e-08 -3.4274726e-07 0.29837381)
(-2.919372e-07 -2.919372e-07 0.29837372)
(-1.7866333e-07 -2.650129e-07 0.29837362)
(1.6437087e-08 -2.6266919e-07 0.29837361)
(1.024922e-07 -2.616942e-07 0.29837364)
(1.767577e-07 -2.5158099e-07 0.2983737)
(2.0074239e-07 -2.2048233e-07 0.29837381)
(5.3107263e-08 -1.6945494e-07 0.29837388)
(-2.5081171e-08 -1.2753747e-07 0.29837383)
(6.8516145e-08 -2.5820356e-07 0.29837366)
(-8.4705562e-09 -2.0114455e-07 0.29837371)
(-2.650129e-07 -1.7866333e-07 0.29837362)
(-1.7187653e-07 -1.7187653e-07 0.29837353)
(1.8914173e-08 -1.6720187e-07 0.29837352)
(1.0608493e-07 -1.6240771e-07 0.29837355)
(1.887606e-07 -1.5956403e-07 0.29837362)
(2.3319495e-07 -1.5121844e-07 0.29837373)
(1.0547225e-07 -1.2830727e-07 0.29837382)
(-5.3496327e-09 -9.696071e-08 0.29837379)
(8.1791304e-08 -8.9956991e-10 0.29837364)
(1.2583521e-08 1.5595475e-08 0.29837369)
(-2.6266918e-07 1.6437087e-08 0.29837361)
(-1.6720187e-07 1.8914167e-08 0.29837352)
(2.5905908e-08 2.5905905e-08 0.29837352)
(1.1013004e-07 3.4917864e-08 0.29837355)
(1.8794698e-07 3.9609938e-08 0.29837361)
(2.3199916e-07 3.9067061e-08 0.29837373)
(1.0736499e-07 3.7545689e-08 0.29837382)
(-4.1834672e-09 3.6448878e-08 0.29837379)
(7.9512842e-08 9.2434362e-08 0.29837367)
(8.8661012e-09 9.4996733e-08 0.29837372)
(-2.6169421e-07 1.0249219e-07 0.29837364)
(-1.6240772e-07 1.0608492e-07 0.29837355)
(3.4917869e-08 1.1013003e-07 0.29837355)
(1.1978896e-07 1.1978896e-07 0.29837358)
(1.929098e-07 1.3022709e-07 0.29837365)
(2.311307e-07 1.3593471e-07 0.29837377)
(1.0285407e-07 1.3726684e-07 0.29837386)
(-6.0808399e-09 1.3634134e-07 0.29837383)
(8.3499551e-08 1.2330747e-07 0.29837372)
(2.2641353e-08 1.4754872e-07 0.29837378)
(-2.51581e-07 1.7675769e-07 0.2983737)
(-1.5956403e-07 1.8876059e-07 0.29837362)
(3.9609952e-08 1.8794697e-07 0.29837361)
(1.3022709e-07 1.9290979e-07 0.29837365)
(2.0409272e-07 2.0409272e-07 0.29837372)
(2.3903891e-07 2.1375577e-07 0.29837384)
(1.0777162e-07 2.1930893e-07 0.29837394)
(-4.8004703e-09 2.2141749e-07 0.29837391)
(9.5673676e-08 1.3027146e-07 0.29837379)
(6.2316315e-08 1.5106889e-07 0.29837387)
(-2.2048233e-07 2.0074238e-07 0.29837381)
(-1.5121843e-07 2.3319494e-07 0.29837373)
(3.9067066e-08 2.3199915e-07 0.29837373)
(1.3593472e-07 2.3113069e-07 0.29837377)
(2.1375578e-07 2.390389e-07 0.29837384)
(2.4634691e-07 2.463469e-07 0.29837397)
(1.1051578e-07 2.4508657e-07 0.29837406)
(-4.6751344e-09 2.295538e-07 0.29837403)
(9.7364504e-08 5.854304e-08 0.29837384)
(9.3112274e-08 1.252738e-08 0.29837392)
(-1.6945494e-07 5.3107263e-08 0.29837388)
(-1.2830726e-07 1.0547225e-07 0.29837382)
(3.7545698e-08 1.0736499e-07 0.29837382)
(1.3726684e-07 1.0285406e-07 0.29837386)
(2.1930893e-07 1.0777161e-07 0.29837394)
(2.4508658e-07 1.1051577e-07 0.29837406)
(9.097852e-08 9.0978511e-08 0.29837415)
(-1.5155653e-08 3.5947414e-08 0.29837409)
(6.4996569e-08 -9.2668036e-10 0.29837383)
(5.6880538e-08 -3.3294615e-08 0.29837386)
(-1.2753747e-07 -2.5081171e-08 0.29837383)
(-9.6960701e-08 -5.3496326e-09 0.29837379)
(3.6448881e-08 -4.1834672e-09 0.29837379)
(1.3634134e-07 -6.0808437e-09 0.29837383)
(2.2141749e-07 -4.8004722e-09 0.29837391)
(2.2955381e-07 -4.6751362e-09 0.29837403)
(3.5947423e-08 -1.5155655e-08 0.29837409)
(-4.1362532e-08 -4.1362534e-08 0.29837399)
(1.8907151e-07 1.8907152e-07 0.29837833)
(1.9354084e-07 1.3311095e-07 0.29837843)
(-3.6285259e-07 5.3002964e-08 0.29837838)
(-3.2324348e-07 8.2639919e-08 0.29837827)
(3.2350042e-09 9.8193012e-08 0.29837825)
(1.3413925e-07 9.5784568e-08 0.29837828)
(1.8917184e-07 1.0226493e-07 0.29837834)
(1.9508381e-07 1.2128029e-07 0.29837842)
(7.7994443e-08 1.2448338e-07 0.29837848)
(-5.5763034e-09 7.7149978e-08 0.29837847)
(1.3311095e-07 1.9354085e-07 0.29837843)
(-1.056199e-08 -1.0561982e-08 0.2983785)
(-4.3855914e-07 -9.5241552e-08 0.29837841)
(-2.5545841e-07 -2.4972411e-08 0.29837832)
(2.2951977e-08 3.0377685e-10 0.2983783)
(1.4024712e-07 -3.5934646e-09 0.29837833)
(2.2741543e-07 1.6400202e-08 0.2983784)
(2.284115e-07 7.5030394e-08 0.2983785)
(1.1798971e-08 1.1840839e-07 0.29837856)
(-5.2909708e-08 6.1957536e-08 0.29837851)
(5.3002962e-08 -3.628526e-07 0.29837838)
(-9.5241555e-08 -4.3855913e-07 0.29837841)
(-3.7726302e-07 -3.7726302e-07 0.29837833)
(-2.2769815e-07 -3.4365484e-07 0.29837825)
(2.4613951e-08 -3.3929542e-07 0.29837824)
(1.5023567e-07 -3.3786601e-07 0.29837827)
(2.677957e-07 -3.2474725e-07 0.29837834)
(2.97092e-07 -2.8121044e-07 0.29837846)
(6.4921585e-08 -2.1217442e-07 0.29837854)
(-4.3210205e-08 -1.5983485e-07 0.29837848)
(8.2639925e-08 -3.2324348e-07 0.29837827)
(-2.4972405e-08 -2.554584e-07 0.29837832)
(-3.4365484e-07 -2.2769815e-07 0.29837825)
(-2.1749081e-07 -2.1749081e-07 0.29837817)
(2.8740803e-08 -2.0981062e-07 0.29837816)
(1.5479529e-07 -2.0313348e-07 0.29837819)
(2.84071e-07 -1.994196e-07 0.29837826)
(3.4098433e-07 -1.8714703e-07 0.29837839)
(1.3317455e-07 -1.5567935e-07 0.29837849)
(-1.8016667e-08 -1.1501354e-07 0.29837845)
(9.8193014e-08 3.2350101e-09 0.29837825)
(3.0377691e-10 2.2951971e-08 0.2983783)
(-3.3929543e-07 2.4613948e-08 0.29837824)
(-2.0981062e-07 2.8740803e-08 0.29837816)
(3.8971277e-08 3.8971277e-08 0.29837816)
(1.6062669e-07 5.1520564e-08 0.29837819)
(2.8378215e-07 5.8145346e-08 0.29837826)
(3.4083225e-07 5.8515937e-08 0.29837839)
(1.3705508e-07 5.8042136e-08 0.29837849)
(-1.6099665e-08 5.8039879e-08 0.29837845)
(9.5784566e-08 1.3413924e-07 0.29837828)
(-3.5934675e-09 1.4024711e-07 0.29837833)
(-3.3786601e-07 1.5023567e-07 0.29837827)
(-2.0313348e-07 1.5479528e-07 0.29837819)
(5.1520564e-08 1.6062669e-07 0.29837819)
(1.7396936e-07 1.7396936e-07 0.29837823)
(2.9106637e-07 1.8819031e-07 0.2983783)
(3.4088112e-07 1.9659089e-07 0.29837843)
(1.3269849e-07 1.9975989e-07 0.29837853)
(-1.8018172e-08 2.0072033e-07 0.2983785)
(1.0226493e-07 1.8917182e-07 0.29837834)
(1.6400207e-08 2.2741541e-07 0.2983784)
(-3.2474725e-07 2.6779569e-07 0.29837834)
(-1.994196e-07 2.8407099e-07 0.29837826)
(5.8145361e-08 2.8378214e-07 0.29837826)
(1.8819031e-07 2.9106637e-07 0.2983783)
(3.0640368e-07 3.0640368e-07 0.29837838)
(3.5240184e-07 3.2018852e-07 0.29837851)
(1.4118451e-07 3.2854932e-07 0.29837862)
(-1.5459375e-08 3.3158638e-07 0.29837859)
(1.2128029e-07 1.950838e-07 0.29837842)
(7.50304e-08 2.2841148e-07 0.2983785)
(-2.8121043e-07 2.9709198e-07 0.29837846)
(-1.8714703e-07 3.4098432e-07 0.29837839)
(5.8515946e-08 3.4083224e-07 0.29837839)
(1.965909e-07 3.4088111e-07 0.29837843)
(3.2018852e-07 3.5240183e-07 0.29837851)
(3.6302676e-07 3.6302676e-07 0.29837865)
(1.4409636e-07 3.5813567e-07 0.29837876)
(-1.5993464e-08 3.2343772e-07 0.29837873)
(1.2448338e-07 7.7994428e-08 0.29837848)
(1.1840839e-07 1.1798969e-08 0.29837856)
(-2.1217441e-07 6.4921576e-08 0.29837854)
(-1.5567934e-07 1.3317455e-07 0.29837849)
(5.804215e-08 1.3705507e-07 0.29837849)
(1.9975989e-07 1.3269849e-07 0.29837853)
(3.2854933e-07 1.4118451e-07 0.29837862)
(3.5813568e-07 1.4409635e-07 0.29837876)
(1.0159547e-07 1.0159547e-07 0.29837886)
(-3.8591342e-08 8.8656636e-09 0.29837878)
(7.7149984e-08 -5.5763092e-09 0.29837847)
(6.1957547e-08 -5.2909708e-08 0.29837851)
(-1.5983485e-07 -4.3210207e-08 0.29837848)
(-1.1501353e-07 -1.8016666e-08 0.29837845)
(5.8039888e-08 -1.6099667e-08 0.29837845)
(2.0072033e-07 -1.8018174e-08 0.2983785)
(3.3158638e-07 -1.5459373e-08 0.29837859)
(3.2343772e-07 -1.5993472e-08 0.29837873)
(8.8656692e-09 -3.8591346e-08 0.29837878)
(-7.7813333e-08 -7.7813337e-08 0.29837867)
(2.2587296e-07 2.2587296e-07 0.29838447)
(2.2333019e-07 1.5731868e-07 0.29838458)
(-4.3992677e-07 6.5414031e-08 0.29838453)
(-3.8307982e-07 9.99015e-08 0.29838443)
(1.1285931e-08 1.1771184e-07 0.29838441)
(1.8095237e-07 1.149264e-07 0.29838445)
(2.6363374e-07 1.2354591e-07 0.29838451)
(2.7125427e-07 1.4918569e-07 0.2983846)
(1.0466635e-07 1.5350268e-07 0.29838467)
(-9.3255455e-09 9.1553227e-08 0.29838466)
(1.5731868e-07 2.2333019e-07 0.29838458)
(-1.735821e-08 -1.7358201e-08 0.29838465)
(-5.2605253e-07 -1.1391768e-07 0.29838457)
(-3.0463311e-07 -3.1930898e-08 0.29838448)
(3.3823278e-08 -2.4584662e-09 0.29838448)
(1.8970348e-07 -7.0169506e-09 0.29838451)
(3.1502268e-07 1.8515348e-08 0.29838458)
(3.1618942e-07 9.5672067e-08 0.29838469)
(1.8217645e-08 1.5023168e-07 0.29838476)
(-7.1275e-08 7.3460245e-08 0.2983847)
(6.5414033e-08 -4.3992676e-07 0.29838453)
(-1.1391769e-07 -5.2605253e-07 0.29838457)
(-4.5449946e-07 -4.5449945e-07 0.2983845)
(-2.716206e-07 -4.1422383e-07 0.29838442)
(3.6199879e-08 -4.0781255e-07 0.29838441)
(2.0192618e-07 -4.060297e-07 0.29838445)
(3.6632275e-07 -3.8996235e-07 0.29838452)
(4.029706e-07 -3.3384877e-07 0.29838465)
(8.2454525e-08 -2.4766741e-07 0.29838474)
(-6.05065e-08 -1.8595277e-07 0.29838468)
(9.9901502e-08 -3.8307982e-07 0.29838443)
(-3.1930901e-08 -3.0463311e-07 0.29838448)
(-4.1422384e-07 -2.716206e-07 0.29838442)
(-2.5794621e-07 -2.579462e-07 0.29838435)
(4.201741e-08 -2.4723651e-07 0.29838434)
(2.0755369e-07 -2.3870882e-07 0.29838438)
(3.8720361e-07 -2.3400358e-07 0.29838445)
(4.5848436e-07 -2.1737506e-07 0.29838459)
(1.6611364e-07 -1.7724913e-07 0.29838469)
(-3.0131908e-08 -1.2770462e-07 0.29838465)
(1.1771184e-07 1.1285925e-08 0.29838441)
(-2.4584693e-09 3.3823267e-08 0.29838448)
(-4.0781255e-07 3.6199879e-08 0.29838441)
(-2.4723651e-07 4.2017408e-08 0.29838434)
(5.5437255e-08 5.5437255e-08 0.29838434)
(2.1515911e-07 7.1366256e-08 0.29838438)
(3.8765652e-07 7.9863366e-08 0.29838445)
(4.5972506e-07 8.1358044e-08 0.29838459)
(1.7212497e-07 8.2223207e-08 0.2983847)
(-2.747683e-08 8.3567804e-08 0.29838466)
(1.149264e-07 1.8095236e-07 0.29838445)
(-7.0169476e-09 1.8970347e-07 0.29838451)
(-4.060297e-07 2.0192618e-07 0.29838445)
(-2.3870883e-07 2.0755368e-07 0.29838438)
(7.1366259e-08 2.1515911e-07 0.29838438)
(2.319798e-07 2.319798e-07 0.29838442)
(3.971954e-07 2.4983276e-07 0.2983845)
(4.608442e-07 2.6109137e-07 0.29838463)
(1.683234e-07 2.6669869e-07 0.29838474)
(-2.923551e-08 2.7083137e-07 0.29838471)
(1.2354591e-07 2.6363372e-07 0.29838451)
(1.8515354e-08 3.1502267e-07 0.29838458)
(-3.8996234e-07 3.6632273e-07 0.29838452)
(-2.3400358e-07 3.8720361e-07 0.29838445)
(7.9863372e-08 3.8765651e-07 0.29838445)
(2.4983276e-07 3.971954e-07 0.2983845)
(4.1676808e-07 4.1676808e-07 0.29838458)
(4.7659098e-07 4.3536566e-07 0.29838472)
(1.8186497e-07 4.4781989e-07 0.29838483)
(-2.4721705e-08 4.5289945e-07 0.29838481)
(1.491857e-07 2.7125425e-07 0.2983846)
(9.567207e-08 3.1618941e-07 0.29838469)
(-3.3384876e-07 4.0297058e-07 0.29838465)
(-2.1737506e-07 4.5848434e-07 0.29838459)
(8.135805e-08 4.5972505e-07 0.29838459)
(2.6109137e-07 4.6084419e-07 0.29838463)
(4.3536566e-07 4.7659098e-07 0.29838472)
(4.9189601e-07 4.91896e-07 0.29838487)
(1.8585719e-07 4.8343671e-07 0.29838499)
(-2.5849137e-08 4.2392324e-07 0.29838496)
(1.5350269e-07 1.0466634e-07 0.29838467)
(1.5023168e-07 1.8217642e-08 0.29838476)
(-2.4766741e-07 8.245452e-08 0.29838474)
(-1.7724912e-07 1.6611363e-07 0.29838469)
(8.2223221e-08 1.7212497e-07 0.2983847)
(2.6669869e-07 1.6832339e-07 0.29838474)
(4.4781989e-07 1.8186498e-07 0.29838483)
(4.8343671e-07 1.8585718e-07 0.29838499)
(1.1389221e-07 1.1389221e-07 0.29838509)
(-6.439735e-08 -2.192296e-08 0.29838501)
(9.1553229e-08 -9.3255436e-09 0.29838466)
(7.3460245e-08 -7.1275002e-08 0.2983847)
(-1.8595277e-07 -6.0506503e-08 0.29838468)
(-1.2770461e-07 -3.0131908e-08 0.29838465)
(8.3567815e-08 -2.7476828e-08 0.29838466)
(2.7083138e-07 -2.9235512e-08 0.29838471)
(4.5289945e-07 -2.4721703e-08 0.29838481)
(4.2392324e-07 -2.5849139e-08 0.29838496)
(-2.1922958e-08 -6.4397352e-08 0.29838501)
(-1.1639258e-07 -1.1639259e-07 0.2983849)
(2.6459639e-07 2.6459639e-07 0.29839217)
(2.5809929e-07 1.828381e-07 0.29839229)
(-5.1271943e-07 7.9171104e-08 0.29839224)
(-4.3888853e-07 1.1853768e-07 0.29839215)
(2.2659958e-08 1.3862816e-07 0.29839213)
(2.30715e-07 1.3538639e-07 0.29839217)
(3.4189696e-07 1.4596868e-07 0.29839224)
(3.5252575e-07 1.7810462e-07 0.29839233)
(1.3473467e-07 1.8331492e-07 0.2983924)
(-1.2656523e-08 1.0689679e-07 0.29839239)
(1.828381e-07 2.5809929e-07 0.29839229)
(-2.0038638e-08 -2.0038641e-08 0.29839236)
(-6.0917006e-07 -1.28506e-07 0.29839228)
(-3.4970294e-07 -3.4779509e-08 0.2983922)
(4.7933028e-08 -1.0347803e-09 0.2983922)
(2.4172577e-07 -6.350021e-09 0.29839223)
(4.059743e-07 2.4479075e-08 0.2983923)
(4.0854512e-07 1.2002687e-07 0.29839242)
(2.7922914e-08 1.852412e-07 0.29839249)
(-8.9074655e-08 8.8375199e-08 0.29839244)
(7.9171105e-08 -5.1271944e-07 0.29839224)
(-1.28506e-07 -6.0917005e-07 0.29839228)
(-5.274603e-07 -5.274603e-07 0.29839221)
(-3.1141731e-07 -4.8055076e-07 0.29839214)
(5.1089446e-08 -4.7204108e-07 0.29839214)
(2.5622886e-07 -4.6987596e-07 0.29839217)
(4.6827384e-07 -4.5078762e-07 0.29839225)
(5.1328788e-07 -3.8192985e-07 0.29839238)
(1.03083e-07 -2.7880779e-07 0.29839247)
(-7.7233858e-08 -2.0781864e-07 0.29839242)
(1.1853768e-07 -4.3888853e-07 0.29839215)
(-3.4779506e-08 -3.4970294e-07 0.2983922)
(-4.8055077e-07 -3.1141731e-07 0.29839214)
(-2.9428372e-07 -2.9428371e-07 0.29839207)
(5.860783e-08 -2.8056278e-07 0.29839207)
(2.6297923e-07 -2.702205e-07 0.29839211)
(4.9392041e-07 -2.6449146e-07 0.29839219)
(5.8052495e-07 -2.4336433e-07 0.29839232)
(2.0203413e-07 -1.9458687e-07 0.29839243)
(-4.1748552e-08 -1.3638159e-07 0.2983924)
(1.3862816e-07 2.2659952e-08 0.29839213)
(-1.0347748e-09 4.7933017e-08 0.2983922)
(-4.7204107e-07 5.1089446e-08 0.29839214)
(-2.8056278e-07 5.8607827e-08 0.29839207)
(7.5152658e-08 7.5152661e-08 0.29839208)
(2.7230017e-07 9.4341175e-08 0.29839211)
(4.9513001e-07 1.0460652e-07 0.29839219)
(5.8319248e-07 1.071939e-07 0.29839233)
(2.1006574e-07 1.0937412e-07 0.29839244)
(-3.843034e-08 1.1202618e-07 0.29839241)
(1.3538639e-07 2.3071499e-07 0.29839217)
(-6.3500124e-09 2.4172576e-07 0.29839223)
(-4.6987596e-07 2.5622885e-07 0.29839217)
(-2.702205e-07 2.6297922e-07 0.29839211)
(9.4341178e-08 2.7230017e-07 0.29839211)
(2.9243308e-07 2.9243308e-07 0.29839216)
(5.0677313e-07 3.1373966e-07 0.29839224)
(5.8529255e-07 3.2781786e-07 0.29839238)
(2.0686641e-07 3.3615127e-07 0.29839249)
(-3.9980512e-08 3.4436357e-07 0.29839246)
(1.4596868e-07 3.4189695e-07 0.29839224)
(2.4479081e-08 4.0597429e-07 0.2983923)
(-4.5078761e-07 4.6827383e-07 0.29839225)
(-2.6449145e-07 4.939204e-07 0.29839219)
(1.0460652e-07 4.9513001e-07 0.29839219)
(3.1373966e-07 5.0677312e-07 0.29839224)
(5.3051479e-07 5.3051479e-07 0.29839232)
(6.0560409e-07 5.5435575e-07 0.29839247)
(2.2661146e-07 5.7205917e-07 0.29839258)
(-3.2955472e-08 5.8060544e-07 0.29839256)
(1.7810462e-07 3.5252575e-07 0.29839233)
(1.2002687e-07 4.0854511e-07 0.29839242)
(-3.8192984e-07 5.1328788e-07 0.29839238)
(-2.4336433e-07 5.8052494e-07 0.29839232)
(1.071939e-07 5.8319247e-07 0.29839233)
(3.2781786e-07 5.8529255e-07 0.29839238)
(5.5435576e-07 6.0560409e-07 0.29839247)
(6.2683694e-07 6.2683694e-07 0.29839262)
(2.331161e-07 6.1584982e-07 0.29839274)
(-3.4282999e-08 5.298407e-07 0.29839272)
(1.8331492e-07 1.3473466e-07 0.2983924)
(1.8524121e-07 2.7922906e-08 0.29839249)
(-2.7880779e-07 1.0308299e-07 0.29839247)
(-1.9458686e-07 2.0203411e-07 0.29839243)
(1.0937413e-07 2.1006574e-07 0.29839244)
(3.3615128e-07 2.0686641e-07 0.29839249)
(5.7205918e-07 2.2661145e-07 0.29839258)
(6.1584982e-07 2.3311609e-07 0.29839274)
(1.2961522e-07 1.2961522e-07 0.29839285)
(-9.0294882e-08 -5.2249797e-08 0.29839277)
(1.0689679e-07 -1.2656526e-08 0.29839239)
(8.8375205e-08 -8.9074662e-08 0.29839244)
(-2.0781863e-07 -7.7233862e-08 0.29839242)
(-1.3638158e-07 -4.1748558e-08 0.2983924)
(1.1202619e-07 -3.8430341e-08 0.29839241)
(3.4436358e-07 -3.9980517e-08 0.29839246)
(5.8060545e-07 -3.2955474e-08 0.29839256)
(5.2984071e-07 -3.4283001e-08 0.29839272)
(-5.2249791e-08 -9.0294882e-08 0.29839277)
(-1.5552634e-07 -1.5552634e-07 0.29839266)
(3.0316632e-07 3.0316632e-07 0.29840142)
(2.9383487e-07 2.0839648e-07 0.29840154)
(-5.824535e-07 9.3082019e-08 0.29840149)
(-4.911601e-07 1.3731739e-07 0.2984014)
(3.7001666e-08 1.597188e-07 0.29840139)
(2.8271496e-07 1.5605999e-07 0.29840143)
(4.2212123e-07 1.6860533e-07 0.2984015)
(4.3593745e-07 2.0724779e-07 0.29840159)
(1.6629372e-07 2.1335255e-07 0.29840166)
(-1.5743056e-08 1.2260921e-07 0.29840166)
(2.0839648e-07 2.9383487e-07 0.29840154)
(-2.1291581e-08 -2.1291586e-08 0.29840161)
(-6.8907214e-07 -1.4157512e-07 0.29840153)
(-3.9120493e-07 -3.617717e-08 0.29840145)
(6.511556e-08 1.896052e-09 0.29840145)
(2.9604475e-07 -4.0949827e-09 0.29840149)
(4.9890294e-07 3.2052739e-08 0.29840156)
(5.0305829e-07 1.4602246e-07 0.29840168)
(3.9335853e-08 2.2183937e-07 0.29840175)
(-1.064864e-07 1.0514995e-07 0.2984017)
(9.3082021e-08 -5.824535e-07 0.29840149)
(-1.4157511e-07 -6.8907214e-07 0.29840153)
(-5.9733909e-07 -5.9733909e-07 0.29840147)
(-3.4768893e-07 -5.4388363e-07 0.2984014)
(6.9083853e-08 -5.3327519e-07 0.2984014)
(3.1287165e-07 -5.3070702e-07 0.29840144)
(5.7223867e-07 -5.085622e-07 0.29840151)
(6.2572409e-07 -4.2692746e-07 0.29840164)
(1.2542122e-07 -3.0694956e-07 0.29840174)
(-9.3536001e-08 -2.2668058e-07 0.29840169)
(1.3731739e-07 -4.911601e-07 0.2984014)
(-3.6177172e-08 -3.9120493e-07 0.29840145)
(-5.4388363e-07 -3.4768893e-07 0.2984014)
(-3.2714103e-07 -3.2714103e-07 0.29840133)
(7.8292172e-08 -3.1042819e-07 0.29840133)
(3.2075774e-07 -2.9828658e-07 0.29840137)
(6.0268249e-07 -2.9153417e-07 0.29840145)
(7.0467094e-07 -2.6591092e-07 0.29840159)
(2.3958274e-07 -2.0857115e-07 0.2984017)
(-5.2973746e-08 -1.4189086e-07 0.29840167)
(1.597188e-07 3.700165e-08 0.29840139)
(1.896058e-09 6.5115552e-08 0.29840145)
(-5.3327519e-07 6.908385e-08 0.2984014)
(-3.1042819e-07 7.8292169e-08 0.29840133)
(9.7938309e-08 9.7938309e-08 0.29840134)
(3.3176567e-07 1.2033618e-07 0.29840138)
(6.0461433e-07 1.3228674e-07 0.29840146)
(7.086871e-07 1.3584306e-07 0.2984016)
(2.4944128e-07 1.3915288e-07 0.29840171)
(-4.9082473e-08 1.4289137e-07 0.29840168)
(1.5605999e-07 2.8271495e-07 0.29840143)
(-4.0949715e-09 2.9604474e-07 0.29840149)
(-5.3070701e-07 3.1287164e-07 0.29840144)
(-2.9828657e-07 3.2075774e-07 0.29840137)
(1.2033618e-07 3.3176567e-07 0.29840138)
(3.5510617e-07 3.5510618e-07 0.29840143)
(6.1818938e-07 3.7967567e-07 0.29840151)
(7.1153708e-07 3.9636251e-07 0.29840165)
(2.4663104e-07 4.073612e-07 0.29840176)
(-5.048142e-08 4.2001723e-07 0.29840173)
(1.6860533e-07 4.2212123e-07 0.2984015)
(3.2052751e-08 4.9890293e-07 0.29840156)
(-5.0856219e-07 5.7223866e-07 0.29840151)
(-2.9153416e-07 6.0268249e-07 0.29840145)
(1.3228675e-07 6.0461432e-07 0.29840146)
(3.7967567e-07 6.1818938e-07 0.29840151)
(6.4587066e-07 6.4587067e-07 0.2984016)
(7.3637263e-07 6.7497933e-07 0.29840174)
(2.7309599e-07 6.9853006e-07 0.29840186)
(-4.0645117e-08 7.1153094e-07 0.29840184)
(2.0724779e-07 4.3593746e-07 0.29840159)
(1.4602246e-07 5.0305829e-07 0.29840168)
(-4.2692745e-07 6.2572408e-07 0.29840164)
(-2.6591092e-07 7.0467093e-07 0.29840159)
(1.3584308e-07 7.0868709e-07 0.2984016)
(3.9636252e-07 7.1153707e-07 0.29840165)
(6.7497932e-07 7.3637263e-07 0.29840174)
(7.6419647e-07 7.6419647e-07 0.29840189)
(2.8318265e-07 7.5161658e-07 0.29840202)
(-4.181417e-08 6.3908541e-07 0.298402)
(2.1335255e-07 1.6629372e-07 0.29840166)
(2.2183937e-07 3.9335848e-08 0.29840175)
(-3.0694955e-07 1.2542121e-07 0.29840174)
(-2.0857115e-07 2.3958273e-07 0.2984017)
(1.3915289e-07 2.4944127e-07 0.29840171)
(4.073612e-07 2.4663103e-07 0.29840176)
(6.9853007e-07 2.7309599e-07 0.29840186)
(7.5161658e-07 2.8318265e-07 0.29840202)
(1.4798493e-07 1.4798492e-07 0.29840213)
(-1.156659e-07 -8.0934615e-08 0.29840206)
(1.2260921e-07 -1.574306e-08 0.29840166)
(1.0514995e-07 -1.064864e-07 0.2984017)
(-2.2668057e-07 -9.3536003e-08 0.29840169)
(-1.4189085e-07 -5.297375e-08 0.29840167)
(1.4289137e-07 -4.9082475e-08 0.29840168)
(4.2001724e-07 -5.0481424e-08 0.29840173)
(7.1153095e-07 -4.0645117e-08 0.29840184)
(6.3908541e-07 -4.1814168e-08 0.298402)
(-8.0934615e-08 -1.156659e-07 0.29840206)
(-1.9442719e-07 -1.944272e-07 0.29840194)
(3.4158718e-07 3.4158718e-07 0.29841219)
(3.3036924e-07 2.3395472e-07 0.29841231)
(-6.4958054e-07 1.070896e-07 0.29841227)
(-5.4044328e-07 1.5613967e-07 0.29841218)
(5.3921627e-08 1.8083397e-07 0.29841217)