/*--------------------------------*- C++ -*----------------------------------*\
| =========                 |                                                 |
| \\      /  F ield         | OpenFOAM: The Open Source CFD Toolbox           |
|  \\    /   O peration     | Version:  v2106                                 |
|   \\  /    A nd           | Website:  www.openfoam.com                      |
|    \\/     M anipulation  |                                                 |
\*---------------------------------------------------------------------------*/
FoamFile
{
    version     2.0;
    format      ascii;
    arch        "LSB;label=32;scalar=64";
    class       volScalarField;
    location    "60";
    object      gradTx;
}
// * * * * * * * * * * * * * * * * * * * * * * * * * * * * * * * * * * * * * //

dimensions      [0 -1 0 1 0 0 0];

internalField   nonuniform List<scalar> 
10000
(
0.00056991041
0.00091166365
-0.00059628874
-0.00076345427
5.5243845e-06
0.00021114963
0.00020956367
0.00023382441
0.00016266438
2.8763926e-05
0.00047848079
0.00029506239
-0.00094198865
-0.00054276416
7.2521033e-05
0.00019229751
0.00024468835
0.00028689806
0.00011687391
-1.4451984e-05
0.00015884287
-6.1898618e-05
-0.00073378757
-0.00046110813
6.162162e-05
0.00020273296
0.0003024565
0.00038252833
0.00019558817
1.2589869e-06
0.0002480142
0.00015756359
-0.00063759276
-0.00045561077
5.8780188e-05
0.00021150603
0.00032854774
0.00045252395
0.00032226936
5.2028686e-05
0.00030596965
0.00024044752
-0.00064663419
-0.00045618489
7.0662565e-05
0.0002199142
0.00032370744
0.00044239383
0.00031780388
5.1949011e-05
0.0002926786
0.00021366074
-0.00065133358
-0.00044656977
8.9758686e-05
0.00024023595
0.00033212126
0.00043458238
0.00029946582
4.4747196e-05
0.00029340157
0.00023203083
-0.00062742572
-0.00043900363
9.9392508e-05
0.00026334385
0.00035754766
0.00045162488
0.00030812532
4.6497462e-05
0.00031609509
0.00030655357
-0.00056747427
-0.00042531875
9.3332233e-05
0.00027407611
0.00037886682
0.00046787051
0.00031703897
4.8483287e-05
0.00032878396
0.00038073475
-0.00046179977
-0.00037913813
8.1450963e-05
0.00027257494
0.00039083579
0.00047248966
0.000307145
4.2764479e-05
0.00028556803
0.00033947728
-0.00036207874
-0.00030310315
7.0528642e-05
0.00026439764
0.00039643993
0.00046689024
0.00027157637
2.4770827e-05
0.0012900975
0.001756915
-0.00173213
-0.0018389549
-1.5021697e-05
0.00056627587
0.00067523467
0.00073568756
0.00040450621
3.1874625e-05
0.0009113676
0.00032537537
-0.0023043223
-0.0013851008
0.00011321822
0.00055584474
0.00079833723
0.00086310393
0.00018222139
-0.00013514489
0.00033573779
-0.00030888182
-0.0019091757
-0.0012163059
0.00011042923
0.00059963205
0.0009711105
0.0011487406
0.00041587529
-8.7559253e-05
0.00052990612
0.00014832975
-0.0017094241
-0.0011817947
0.00011908713
0.00062521212
0.0010495328
0.0013554999
0.00076259641
4.6269482e-05
0.0006383072
0.00031376715
-0.0017058695
-0.0011634798
0.00015751917
0.00064901354
0.0010414279
0.0013415174
0.00076855375
5.2182543e-05
0.00061539936
0.00027378059
-0.0017035552
-0.0011347046
0.0002111687
0.00070665834
0.001068182
0.001327949
0.00072957158
3.6521935e-05
0.00063135309
0.00034712335
-0.0016365022
-0.0011140983
0.00023896544
0.00077096587
0.0011379121
0.001375017
0.00075423739
4.1756361e-05
0.00069746767
0.00056965635
-0.0014523596
-0.0010643871
0.00022981806
0.00080314251
0.0011971324
0.0014201043
0.00077539732
4.511575e-05
0.00071629739
0.00076017631
-0.0011441062
-0.00092132137
0.0002114146
0.00080446546
0.0012300674
0.0014253444
0.00071283935
1.0664242e-05
0.00054927784
0.00058102552
-0.00087198461
-0.00071170879
0.00019679319
0.00078882624
0.0012429581
0.0013787063
0.00049877491
-9.7593878e-05
0.0015843902
0.0017871526
-0.0027678198
-0.0025820357
-8.9957281e-06
0.00092434374
0.0012330748
0.0013027147
0.00058543051
-9.2668032e-06
0.00112493
6.6846723e-05
-0.0034274726
-0.0020114455
0.00015595475
0.00094996736
0.0014754874
0.001510689
0.00012527389
-0.0003329461
0.00043751965
-0.00066956704
-0.002919372
-0.0017866333
0.00016437087
0.001024922
0.001767577
0.0020074239
0.00053107263
-0.00025081171
0.00068516145
-8.4705562e-05
-0.002650129
-0.0017187653
0.00018914173
0.0010608493
0.001887606
0.0023319495
0.0010547225
-5.3496327e-05
0.00081791304
0.00012583521
-0.0026266918
-0.0016720187
0.00025905908
0.0011013004
0.0018794698
0.0023199916
0.0010736499
-4.1834672e-05
0.00079512842
8.8661012e-05
-0.0026169421
-0.0016240772
0.00034917869
0.0011978896
0.001929098
0.002311307
0.0010285407
-6.0808399e-05
0.00083499551
0.00022641353
-0.00251581
-0.0015956403
0.00039609952
0.0013022709
0.0020409272
0.0023903891
0.0010777162
-4.8004703e-05
0.00095673676
0.00062316315
-0.0022048233
-0.0015121843
0.00039067066
0.0013593472
0.0021375578
0.0024634691
0.0011051578
-4.6751344e-05
0.00097364504
0.00093112274
-0.0016945494
-0.0012830726
0.00037545698
0.0013726684
0.0021930893
0.0024508658
0.0009097852
-0.00015155653
0.00064996569
0.00056880538
-0.0012753747
-0.00096960701
0.00036448881
0.0013634134
0.0022141749
0.0022955381
0.00035947423
-0.00041362532
0.0018907151
0.0019354084
-0.0036285259
-0.0032324348
3.2350042e-05
0.0013413925
0.0018917184
0.0019508381
0.00077994443
-5.5763034e-05
0.0013311095
-0.0001056199
-0.0043855914
-0.0025545841
0.00022951977
0.0014024712
0.0022741543
0.002284115
0.00011798971
-0.00052909708
0.00053002962
-0.00095241555
-0.0037726302
-0.0022769815
0.00024613951
0.0015023567
0.002677957
0.00297092
0.00064921585
-0.00043210205
0.00082639925
-0.00024972405
-0.0034365484
-0.0021749081
0.00028740803
0.0015479529
0.00284071
0.0034098433
0.0013317455
-0.00018016667
0.00098193014
3.0377691e-06
-0.0033929543
-0.0020981062
0.00038971277
0.0016062669
0.0028378215
0.0034083225
0.0013705508
-0.00016099665
0.00095784566
-3.5934675e-05
-0.0033786601
-0.0020313348
0.00051520564
0.0017396936
0.0029106637
0.0034088112
0.0013269849
-0.00018018172
0.0010226493
0.00016400207
-0.0032474725
-0.001994196
0.00058145361
0.0018819031
0.0030640368
0.0035240184
0.0014118451
-0.00015459375
0.0012128029
0.000750304
-0.0028121043
-0.0018714703
0.00058515946
0.001965909
0.0032018852
0.0036302676
0.0014409636
-0.00015993464
0.0012448338
0.0011840839
-0.0021217441
-0.0015567934
0.0005804215
0.0019975989
0.0032854933
0.0035813568
0.0010159547
-0.00038591342
0.00077149984
0.00061957547
-0.0015983485
-0.0011501353
0.00058039888
0.0020072033
0.0033158638
0.0032343772
8.8656692e-05
-0.00077813333
0.0022587296
0.0022333019
-0.0043992677
-0.0038307982
0.00011285931
0.0018095237
0.0026363374
0.0027125427
0.0010466635
-9.3255455e-05
0.0015731868
-0.0001735821
-0.0052605253
-0.0030463311
0.00033823278
0.0018970348
0.0031502268
0.0031618942
0.00018217645
-0.00071275
0.00065414033
-0.0011391769
-0.0045449946
-0.002716206
0.00036199879
0.0020192618
0.0036632275
0.004029706
0.00082454525
-0.000605065
0.00099901502
-0.00031930901
-0.0041422384
-0.0025794621
0.0004201741
0.0020755369
0.0038720361
0.0045848436
0.0016611364
-0.00030131908
0.0011771184
-2.4584693e-05
-0.0040781255
-0.0024723651
0.00055437255
0.0021515911
0.0038765652
0.0045972506
0.0017212497
-0.0002747683
0.001149264
-7.0169476e-05
-0.004060297
-0.0023870883
0.00071366259
0.002319798
0.003971954
0.004608442
0.001683234
-0.0002923551
0.0012354591
0.00018515354
-0.0038996234
-0.0023400358
0.00079863372
0.0024983276
0.0041676808
0.0047659098
0.0018186497
-0.00024721705
0.001491857
0.0009567207
-0.0033384876
-0.0021737506
0.0008135805
0.0026109137
0.0043536566
0.0049189601
0.0018585719
-0.00025849137
0.0015350269
0.0015023168
-0.0024766741
-0.0017724912
0.00082223221
0.0026669869
0.0044781989
0.0048343671
0.0011389221
-0.0006439735
0.00091553229
0.00073460245
-0.0018595277
-0.0012770461
0.00083567815
0.0027083138
0.0045289945
0.0042392324
-0.00021922958
-0.0011639258
0.0026459639
0.0025809929
-0.0051271943
-0.0043888853
0.00022659958
0.00230715
0.0034189696
0.0035252575
0.0013473467
-0.00012656523
0.001828381
-0.00020038638
-0.0060917006
-0.0034970294
0.00047933028
0.0024172577
0.004059743
0.0040854512
0.00027922914
-0.00089074655
0.00079171105
-0.00128506
-0.005274603
-0.0031141731
0.00051089446
0.0025622886
0.0046827384
0.0051328788
0.00103083
-0.00077233858
0.0011853768
-0.00034779506
-0.0048055077
-0.0029428372
0.0005860783
0.0026297923
0.0049392041
0.0058052495
0.0020203413
-0.00041748552
0.0013862816
-1.0347748e-05
-0.0047204107
-0.0028056278
0.00075152658
0.0027230017
0.0049513001
0.0058319248
0.0021006574
-0.0003843034
0.0013538639
-6.3500124e-05
-0.0046987596
-0.002702205
0.00094341178
0.0029243308
0.0050677313
0.0058529255
0.0020686641
-0.00039980512
0.0014596868
0.00024479081
-0.0045078761
-0.0026449145
0.0010460652
0.0031373966
0.0053051479
0.0060560409
0.0022661146
-0.00032955472
0.0017810462
0.0012002687
-0.0038192984
-0.0024336433
0.001071939
0.0032781786
0.0055435576
0.0062683694
0.002331161
-0.00034282999
0.0018331492
0.0018524121
-0.0027880779
-0.0019458686
0.0010937413
0.0033615128
0.0057205918
0.0061584982
0.0012961522
-0.00090294882
0.0010689679
0.00088375205
-0.0020781863
-0.0013638158
0.0011202619
0.0034436358
0.0058060545
0.0052984071
-0.00052249791
-0.0015552634
0.0030316632
0.0029383487
-0.005824535
-0.004911601
0.00037001666
0.0028271496
0.0042212123
0.0043593745
0.0016629372
-0.00015743056
0.0020839648
-0.00021291581
-0.0068907214
-0.0039120493
0.0006511556
0.0029604475
0.0049890294
0.0050305829
0.00039335853
-0.001064864
0.00093082021
-0.0014157511
-0.0059733909
-0.0034768893
0.00069083853
0.0031287165
0.0057223867
0.0062572409
0.0012542122
-0.00093536001
0.0013731739
-0.00036177172
-0.0054388363
-0.0032714103
0.00078292172
0.0032075774
0.0060268249
0.0070467094
0.0023958274
-0.00052973746
0.001597188
1.896058e-05
-0.0053327519
-0.0031042819
0.00097938309
0.0033176567
0.0060461433
0.007086871
0.0024944128
-0.00049082473
0.0015605999
-4.0949715e-05
-0.0053070701
-0.0029828657
0.0012033618
0.0035510617
0.0061818938
0.0071153708
0.0024663104
-0.0005048142
0.0016860533
0.00032052751
-0.0050856219
-0.0029153416
0.0013228675
0.0037967567
0.0064587066
0.0073637263
0.0027309599
-0.00040645117
0.0020724779
0.0014602246
-0.0042692745
-0.0026591092
0.0013584308
0.0039636252
0.0067497932
0.0076419647
0.0028318265
-0.0004181417
0.0021335255
0.0022183937
-0.0030694955
-0.0020857115
0.0013915289
0.004073612
0.0069853007
0.0075161658
0.0014798493
-0.001156659
0.0012260921
0.0010514995
-0.0022668057
-0.0014189085
0.0014289137
0.0042001724
0.0071153095
0.0063908541
-0.00080934615
-0.0019442719
0.0034158718
0.0033036924
-0.0064958054
-0.0054044328
0.00053921627
0.0033679206
0.0050399854
0.0052080875
0.0019900742
-0.00018532633
0.0023395472
-0.00021377127
-0.0076630312
-0.0042982673
0.0008486856
0.0035246097
0.0059348424
0.0059906857
0.0005212753
-0.0012347758
0.001070896
-0.0015341629
-0.0066470429
-0.0038118298
0.00089606604
0.0037159404
0.0067782656
0.0073958618
0.0014911537
-0.0010940153
0.0015613967
-0.00036500876
-0.0060482537
-0.003572947
0.0010047951
0.0038063122
0.0071308405
0.0083020645
0.0027840876
-0.00063790427
0.0018083397
5.8440121e-05
-0.0059217224
-0.0033761784
0.0012323732
0.0039335831
0.0071575476
0.0083552705
0.0028995053
-0.00059393475
0.0017677096
-8.1589633e-06
-0.005892144
-0.0032366396
0.0014886747
0.0041989364
0.0073116506
0.0083892002
0.0028725429
-0.00060736628
0.0019127991
0.00040645983
-0.00564002
-0.0031585355
0.0016249976
0.0044761129
0.0076254794
0.0086804165
0.0032046341
-0.00048010937
0.002364281
0.0017301212
-0.004696146
-0.0028573576
0.001669485
0.0046668683
0.0079671379
0.0090257221
0.0033459988
-0.00048830458
0.0024345312
0.0025942341
-0.0033286411
-0.0021991268
0.0017121334
0.0048012589
0.0082620014
0.0088884981
0.0016797989
-0.0014051834
0.0013850816
0.0012312007
-0.0024333338
-0.001449006
0.0017579403
0.004971997
0.0084405939
0.007500887
-0.0010809709
-0.0023288178
0.0037996319
0.003676634
-0.0071457228
-0.0058733416
0.00072832287
0.0039246145
0.0058703699
0.006065927
0.0023257434
-0.00021044845
0.0025955397
-0.00020393236
-0.0084129119
-0.0046618685
0.0010650563
0.0041034718
0.0068909971
0.0069597563
0.00065993913
-0.0014006914
0.0012125877
-0.0016405938
-0.007299404
-0.0041253511
0.0011189425
0.0043168816
0.0078437899
0.0085427691
0.001738642
-0.0012485693
0.001750747
-0.00035761354
-0.0066376742
-0.0038544467
0.0012432488
0.0044185257
0.0082447571
0.0095656416
0.0031824306
-0.00074214946
0.0020202364
0.00010739674
-0.0064919822
-0.0036292096
0.0015015032
0.0045634106
0.0082796023
0.0096322956
0.0033144024
-0.00069334207
0.0019752359
3.3005986e-05
-0.0064594817
-0.0034718859
0.0017904296
0.0048612104
0.0084521177
0.009670799
0.0032869009
-0.00070687268
0.0021394746
0.0004996638
-0.0061769283
-0.0033826805
0.0019441879
0.0051697408
0.0088015892
0.01000268
0.0036849022
-0.00055096111
0.002655654
0.0020064259
-0.0051057217
-0.0030360736
0.0019977903
0.0053831974
0.0091915954
0.010413668
0.0038673326
-0.0005551603
0.0027353607
0.0029765057
-0.0035710431
-0.002293154
0.0020493454
0.0055401258
0.0095444586
0.01026574
0.0018888776
-0.0016496917
0.0015451178
0.0014193245
-0.0025832303
-0.0014603132
0.0021022606
0.0057536974
0.0097720272
0.0086176437
-0.0013422204
-0.0027092257
0.0041816695
0.0040534783
-0.0077778219
-0.0063219421
0.00093379219
0.0044932808
0.0067065388
0.0069259031
0.002665104
-0.00023373512
0.0028509213
-0.00018608151
-0.0091423932
-0.00500464
0.0012977901
0.0046923126
0.0078499248
0.0079298479
0.00080464048
-0.0015633966
0.0013552964
-0.0017363276
-0.0079308135
-0.0044179739
0.0013567365
0.0049253971
0.0089101932
0.0096896973
0.0019920791
-0.0013997687
0.0019412071
-0.00033907298
-0.0072060905
-0.0041164898
0.0014941543
0.0050365501
0.0093590733
0.010829165
0.0035865486
-0.00084310405
0.0022334977
0.00016764076
-0.0070426631
-0.0038653974
0.0017808875
0.0051983837
0.0094026433
0.010910216
0.0037359696
-0.000789173
0.0021838724
8.3871299e-05
-0.0070097263
-0.0036923388
0.0021015596
0.0055288253
0.0095941744
0.010953686
0.0037081096
-0.00080274547
0.0023661856
0.00059975696
-0.0066984256
-0.0035924108
0.0022731627
0.0058691172
0.0099790246
0.011325251
0.0041711913
-0.00061832213
0.0029461296
0.0022875255
-0.0055005778
-0.0031998886
0.0023366608
0.0061052066
0.010416089
0.011800235
0.0043938953
-0.00061854486
0.0030354821
0.0033635511
-0.0037991086
-0.0023718919
0.0023976839
0.0062841521
0.010825574
0.011640626
0.0021039283
-0.0018900915
0.0017058205
0.0016145005
-0.0027186698
-0.0014559982
0.0024582219
0.0065404284
0.011101874
0.0097329724
-0.001595987
-0.003085155
0.0045606783
0.0044304295
-0.0083962547
-0.006754181
0.0011547178
0.0050754992
0.0075472857
0.0077822559
0.0030021556
-0.00025672114
0.0031039426
-0.00016534952
-0.0098557098
-0.0053272558
0.0015510151
0.0052948597
0.0088087452
0.0088928689
0.00094830622
-0.0017245685
0.0014968257
-0.0018267587
-0.0085428835
-0.0046857024
0.0016165659
0.0055447576
0.0099725881
0.010827029
0.0022434488
-0.0015495783
0.0021309725
-0.00031197822
-0.0077503498
-0.0043514543
0.001765106
0.0056619925
0.010467104
0.012081834
0.0039874255
-0.00094310008
0.0024481092
0.00024171993
-0.0075670817
-0.0040764446
0.0020766803
0.005838252
0.010518756
0.012177649
0.0041549333
-0.00088381637
0.0023951707
0.00014986992
-0.0075362587
-0.0038913398
0.0024263314
0.0062003739
0.010729754
0.012227117
0.0041281494
-0.00089685942
0.0025943495
0.00071097833
-0.007199949
-0.0037829502
0.0026150618
0.0065728779
0.011150916
0.012639311
0.0046578158
-0.00068323252
0.0032361436
0.0025751722
-0.0058779002
-0.0033451718
0.0026889816
0.0068325337
0.011635722
0.01317867
0.0049220841
-0.00067873422
0.0033347581
0.0037557512
-0.0040109835
-0.0024323302
0.0027603445
0.0070345404
0.012102469
0.013007911
0.0023230401
-0.0021259103
0.0018669107
0.0018164654
-0.0028387809
-0.0014336873
0.0028297055
0.0073354161
0.012429657
0.010843895
-0.0018415742
-0.0034551437
0.0049369404
0.0048065362
-0.0090082983
-0.0071836751
0.0013821991
0.005674478
0.0083988138
0.008634329
0.0033316365
-0.00028127086
0.0033534105
-0.00014973466
-0.010569363
-0.0056456531
0.001823663
0.0059226787
0.0097753695
0.0098458842
0.0010833134
-0.0018867175
0.0016327599
-0.0019289704
-0.009155557
-0.0049386962
0.0019058564
0.0061905
0.011038377
0.011949838
0.0024827441
-0.0017014072
0.0023127009
-0.00029699328
-0.0082849956
-0.0045606664
0.0020693118
0.0063115781
0.011574888
0.01331637
0.0043713183
-0.0010471431
0.002658108
0.0003160086
-0.0080705703
-0.0042573409
0.0024043204
0.0064992057
0.011632264
0.013424586
0.0045527138
-0.0009843798
0.0026070102
0.00022666401
-0.0080393467
-0.0040622024
0.0027797602
0.0068910217
0.011862221
0.013479428
0.004524595
-0.00099811105
0.0028235752
0.00083203057
-0.007681671
-0.0039486352
0.002983764
0.0072960779
0.012321867
0.013934637
0.0051222661
-0.00075501447
0.003524714
0.0028662274
-0.0062398284
-0.0034683158
0.0030670931
0.0075806247
0.01285805
0.014543022
0.0054332039
-0.00074397925
0.0036312786
0.0041475396
-0.0042111851
-0.0024738872
0.0031468217
0.0078061289
0.013385461
0.014366622
0.0025328089
-0.0023637196
0.0020258319
0.0020173351
-0.0029518234
-0.0013983461
0.0032203697
0.0081501769
0.013766659
0.011953565
-0.0020889144
-0.0038251281
0.0053157051
0.005198304
-0.0096095026
-0.0076359027
0.0015795167
0.0062758252
0.0092670636
0.0094876021
0.0036528
-0.00030826217
0.0036071248
-0.00012622928
-0.011303775
-0.0060105305
0.0020769276
0.0065729331
0.010763374
0.010796154
0.001210194
-0.0020499458
0.0017660162
-0.0020533793
-0.0098148599
-0.0052345416
0.0021940003
0.0068685488
0.01212526
0.01306692
0.0027127183
-0.0018542701
0.0024776102
-0.0003315865
-0.0088649473
-0.0047960832
0.0023849695
0.0069966258
0.012702016
0.014541783
0.004740828
-0.0011543049
0.0028495977
0.00034798194
-0.0086004125
-0.0044505186
0.0027486039
0.0071950734
0.012762313
0.014657039
0.0049260387
-0.0010924237
0.0028092175
0.00028289716
-0.0085569054
-0.0042414798
0.003148791
0.0076138513
0.013008074
0.014710794
0.0048828706
-0.0011129375
0.0030476697
0.00094070552
-0.0081767199
-0.004123994
0.0033658295
0.008050349
0.013506935
0.015207795
0.005540234
-0.00084471503
0.0038067576
0.0031410931
-0.0066182636
-0.0036044262
0.0034548495
0.0083584733
0.014098179
0.015891183
0.0059007392
-0.00082712182
0.0039200374
0.0045200235
-0.0044310909
-0.0025338753
0.0035348409
0.0086011056
0.014687325
0.015717485
0.0027098289
-0.0026158529
0.0021783537
0.0022010115
-0.0030876297
-0.0013911057
0.0035968921
0.0089726687
0.015116048
0.013060778
-0.0023626104
-0.004208748
0.0057063745
0.0056607283
-0.010127282
-0.0081026405
0.0016833009
0.0068233322
0.01013538
0.01034281
0.0039677766
-0.0003369956
0.0038974651
1.1460313e-05
-0.011997518
-0.0064690308
0.0022161275
0.0071902068
0.011764582
0.011751563
0.0013434374
-0.0022075818
0.0019401959
-0.0021007018
-0.010510144
-0.0056552285
0.0023808499
0.0075308749
0.013234775
0.014197347
0.0029684168
-0.0019920671
0.0026506415
-0.0003714018
-0.0095192124
-0.0051539836
0.0026122925
0.0076739796
0.013857186
0.015789444
0.0051561355
-0.0012371165
0.003029269
0.00034671015
-0.009195097
-0.0047508537
0.0030151662
0.0078873625
0.013922776
0.015915343
0.0053551533
-0.0011711065
0.0030058591
0.00032614727
-0.0091230473
-0.0045196674
0.0034408665
0.0083277862
0.014177146
0.015958314
0.0052853685
-0.001202305
0.0032738522
0.0010542529
-0.0087113243
-0.0043943662
0.0036689727
0.0087886498
0.014707059
0.016484761
0.0059810651
-0.0009178308
0.0040919938
0.0034255424
-0.0070304433
-0.0038316664
0.0037608266
0.0091120699
0.015347465
0.017239171
0.0063814635
-0.00089854311
0.0042130205
0.0049087898
-0.004673443
-0.0026763707
0.0038378423
0.0093580681
0.015987917
0.017068525
0.0029064828
-0.0028537881
0.0023424343
0.0024261825
-0.0032177451
-0.0014449298
0.0038900596
0.0097379817
0.01644356
0.014164589
-0.0026028901
-0.0045714584
0.0060819606
0.0062172281
-0.010366505
-0.0084233096
0.0016791205
0.0072363692
0.010950746
0.011175321
0.004261449
-0.00037190462
0.004250885
0.0004765422
-0.012347898
-0.0068981526
0.0021745367
0.0076731039
0.012721222
0.012685688
0.0014667443
-0.002364166
0.0022548367
-0.0017437878
-0.010961705
-0.0061193496
0.0023840645
0.0080818096
0.014325899
0.015334114
0.0032560773
-0.0021107967
0.0029299561
-0.00011865808
-0.010018527
-0.0055871957
0.0026531616
0.0082442552
0.015007984
0.017076654
0.0056677537
-0.0012731663
0.0032716081
0.00056017214
-0.0096507482
-0.0051228491
0.0031071173
0.0084840461
0.015099676
0.017254494
0.0059567556
-0.001170433
0.0032602336
0.00058628581
-0.0095399023
-0.0048641429
0.0035596404
0.0089381206
0.015358696
0.017299269
0.0059044147
-0.0011908886
0.0035627645
0.0014056126
-0.0090795968
-0.0047206126
0.0038009827
0.0094077027
0.015898048
0.017837502
0.0066337082
-0.00088861096
0.0044405509
0.0039614394
-0.0072531401
-0.0040903654
0.0039103529
0.0097364917
0.016565288
0.018641078
0.0070570506
-0.00087217684
0.0045696758
0.0055644058
-0.0046886302
-0.0028002327
0.0040235973
0.0099907112
0.017239856
0.018458297
0.0032966535
-0.0029914604
0.0025774144
0.0029560677
-0.0030521306
-0.001389687
0.0041470138
0.010413444
0.017717924
0.015304023
-0.0026101144
-0.0048100222
0.0062482693
0.0064777135
-0.010199041
-0.0082335184
0.001713267
0.0074949913
0.011659123
0.011937053
0.0044745692
-0.00043727815
0.0044657559
0.0011231571
-0.011907615
-0.0068768648
0.0020714792
0.007959574
0.013530422
0.013485795
0.0013935642
-0.002603451
0.002678565
-0.000804027
-0.010640048
-0.0061881789
0.0023397372
0.0084946434
0.015339907
0.01637985
0.0033177974
-0.0023380305
0.0033267067
0.00068214959
-0.0098360754
-0.0056870609
0.002616881
0.0086597775
0.016083093
0.018290818
0.0059543312
-0.0014249294
0.0035830008
0.0012413126
-0.0094502442
-0.0051727839
0.0031364339
0.0089486446
0.016245657
0.018594367
0.0064094021
-0.0012638597
0.0035655148
0.0013086199
-0.0092906736
-0.0048903641
0.0036253292
0.0094199242
0.016531044
0.018707561
0.0064855844
-0.0012307898
0.0038927226
0.0022409646
-0.0087500406
-0.0047187825
0.0038965806
0.0098884017
0.017061271
0.019264087
0.0072995151
-0.00088550704
0.0048130479
0.0049894044
-0.0067380024
-0.0039846141
0.0040732799
0.010235538
0.01773283
0.020092677
0.0077467532
-0.00086571545
0.0049252174
0.0066837612
-0.0039450178
-0.0025042656
0.0043133236
0.010558122
0.018446387
0.019877578
0.0036846514
-0.0031520171
0.0027590445
0.0038326326
-0.0021772353
-0.00089300937
0.004604533
0.011125651
0.018993999
0.016477813
-0.0026475252
-0.0050871665
0.0057460494
0.0050469912
-0.010238969
-0.0072857184
0.0020220454
0.0077063436
0.012302997
0.012667031
0.0046126992
-0.00054453359
0.0037039503
0.00027386275
-0.010946674
-0.0060822653
0.0021205743
0.0080237245
0.014003486
0.0138941
0.00074759686
-0.0030856758
0.0025639637
-0.00059847613
-0.009677378
-0.0054239974
0.0025795508
0.0088993808
0.016254804
0.017151873
0.0026495042
-0.0029175691
0.0032321472
0.00083545419
-0.0090431818
-0.0050348358
0.0028009271
0.0090132083
0.017011767
0.019150382
0.0053172203
-0.0020195031
0.0033662658
0.0012632449
-0.0086299486
-0.0045100061
0.0033835924
0.0093581134
0.017254136
0.019553368
0.0057721703
-0.0018902478
0.0032978331
0.0013929596
-0.008362829
-0.0042307943
0.0039261383
0.00987831
0.017614962
0.019798065
0.0059699824
-0.0018290249
0.0035778531
0.0024562821
-0.0076404647
-0.0040512735
0.0042486939
0.010369815
0.018156539
0.020414996
0.0069086786
-0.0014330623
0.004431492
0.0053447658
-0.0053545473
-0.0032314623
0.0045293325
0.010780713
0.018847163
0.021277153
0.0073961572
-0.0014038844
0.0043958993
0.0069411243
-0.0023841829
-0.0016497783
0.0048963774
0.011231444
0.019635627
0.021031362
0.0029947507
-0.0038784869
0.0018547571
0.0033815709
-0.00078492391
-0.00010879623
0.0051820946
0.011917222
0.020273338
0.017363225
-0.0040309935
-0.0060877138
0.0044415385
0.00040359935
-0.012114936
-0.0059183478
0.0026931333
0.0081625736
0.01333267
0.014085548
0.0055947149
-0.00037698944
0.00093778145
-0.0049402709
-0.011180527
-0.0050033064
0.0021333749
0.007541432
0.013562314
0.013413329
-0.00028869946
-0.003585366
0.00087895834
-0.0039682772
-0.0096790284
-0.0041365648
0.0031894435
0.0093702743
0.016922006
0.017430833
0.0016040197
-0.0035609244
0.001560721
-0.0025043628
-0.0091652679
-0.0039453143
0.0033120882
0.0094792097
0.017806187
0.019630808
0.0045922208
-0.0025160202
0.001488986
-0.0021864942
-0.0086210362
-0.0035163428
0.0038529217
0.0097973134
0.018031387
0.019992146
0.005026092
-0.0023758527
0.0011875487
-0.0020080526
-0.0079865544
-0.0032818359
0.0043990136
0.010354887
0.018440927
0.020269864
0.0051756285
-0.0023496835
0.0010748915
-0.00097879359
-0.0066832584
-0.0030893036
0.0047285991
0.010879509
0.019013287
0.020923821
0.0061047502
-0.0019730113
0.0013406447
0.0015812836
-0.0037426812
-0.0021724552
0.005033753
0.011336787
0.019741284
0.021832688
0.0065632146
-0.0019811776
0.00062674515
0.0023664909
-0.00046577978
-0.00052799035
0.0053676556
0.011811183
0.020576111
0.021579819
0.0018214444
-0.0046599691
-0.0025816315
-0.0024094116
0.001138239
0.0012496172
0.0056171607
0.012415445
0.02112887
0.017549382
-0.0059704265
-0.0071757582
0.0040661844
-0.0044280809
-0.015798102
-0.0046567066
0.0039754552
0.010113522
0.017300283
0.020768185
0.013816046
0.0023973591
-0.0016892591
-0.011943931
-0.013960402
-0.0048163326
0.0012904323
0.0056444165
0.011261987
0.012566494
0.0031864308
-0.0014707251
-0.00094438222
-0.0094066562
-0.01189607
-0.0033066044
0.0035415364
0.0090848647
0.015863817
0.016220149
0.0024478524
-0.002700794
-0.00046412563
-0.0080418985
-0.011231138
-0.0031611203
0.0039084208
0.0099408381
0.01788383
0.019414153
0.0057311793
-0.0017039119
-0.0010507996
-0.0080565541
-0.010240858
-0.0028602101
0.0042516539
0.010279829
0.018463739
0.02049499
0.0075338788
-0.00095056023
-0.0022541409
-0.0084758172
-0.0086131489
-0.0024510027
0.0046443245
0.010703833
0.018883218
0.021053658
0.0087223115
-0.00038345134
-0.0040302035
-0.0090852115
-0.005944436
-0.0016652462
0.005014649
0.011117913
0.019347715
0.021721597
0.010177619
0.00030745952
-0.0062796712
-0.0099122832
-0.0019913062
0.00014891929
0.0056437124
0.011587809
0.019988609
0.022608006
0.010895662
0.00045647981
-0.0094979969
-0.013633247
0.00090322248
0.0026095952
0.0066541538
0.012344519
0.020902062
0.022486319
0.0064684676
-0.002084184
-0.013366081
-0.021280477
0.00055344216
0.0052349458
0.0086348448
0.014231549
0.022161959
0.018898854
0.00011438595
-0.0037795747
0.0029508349
-0.0081389522
-0.016640796
-0.0019066401
0.0085458436
0.019578459
0.036573277
0.056545011
0.066474218
0.02220061
-0.0021681019
-0.014640655
-0.015710157
-0.0048699364
0.00047831529
0.0052831867
0.01591169
0.036194614
0.068233913
0.029129599
-0.0013836334
-0.011681898
-0.013012272
-0.0029092886
0.0026570254
0.0064626494
0.012871783
0.02505519
0.050867319
0.022921169
-0.0015476759
-0.011012131
-0.011768891
-0.0020769689
0.0041578651
0.0087411281
0.01447967
0.021710688
0.036871721
0.016037423
-0.0033591643
-0.012684547
-0.010219305
-0.0013307412
0.0048272722
0.010061766
0.0164176
0.021826226
0.028805593
0.011279807
-0.0069260281
-0.016900949
-0.0080893406
9.3278089e-05
0.0054849732
0.01072716
0.017712599
0.0230124
0.025332649
0.0087466333
-0.012889346
-0.025800357
-0.0067613632
0.0022683753
0.0068133038
0.011431651
0.0185037
0.024213392
0.024558657
0.0077781444
-0.020700419
-0.040602443
-0.0095213603
0.003639095
0.0087179018
0.01281326
0.019598023
0.025682506
0.024908373
0.0074132605
-0.026456278
-0.057290179
-0.021245289
-0.00096058795
0.0081150152
0.013818816
0.021173806
0.027266088
0.023646449
0.0061142843
-0.019527289
-0.056209341
-0.040883553
-0.018422631
-0.0028211702
0.0085663232
0.019173747
0.024770298
0.02321667
0.0071267411
-0.005580616
-0.01597895
-0.014402972
-0.0087045398
-0.0024482914
-0.002646142
-0.0081343719
-0.018734062
-0.034036077
-0.014219295
-0.0036016895
-0.014977047
-0.014295614
-0.0034584562
0.0059764722
0.011737012
0.014193369
0.0061015068
-0.033118116
-0.021366292
-0.0049126813
-0.016245253
-0.01348776
-0.0040092349
0.0046764939
0.011808112
0.019642962
0.021965163
-0.010190079
-0.013497462
-0.0035301171
-0.014061836
-0.013219144
-0.0038581845
0.0042148496
0.010572591
0.019246913
0.02721212
0.0063314813
-0.0057238452
-0.0014152922
-0.011549948
-0.013887489
-0.0034817799
0.0048127184
0.010431201
0.018270649
0.027793175
0.014888077
-0.00082108777
0.002086392
-0.0069370503
-0.014980767
-0.0037219601
0.0054734545
0.01105766
0.018088618
0.027393013
0.018856426
0.0018504382
0.008173477
0.002904306
-0.015051909
-0.0048586909
0.0052977866
0.011540598
0.018373558
0.02717569
0.020817811
0.0032903725
0.016971552
0.020840283
-0.0099272232
-0.0050942731
0.0043151601
0.011160569
0.018408551
0.027300821
0.022463217
0.0043397555
0.024730523
0.043603531
0.0060587043
0.00096932191
0.0054786798
0.010923113
0.018281366
0.027569211
0.022573189
0.0042816981
0.017583526
0.044686281
0.029522374
0.019983883
0.016840105
0.017090303
0.022015342
0.0290562
0.0161267
4.2096117e-05
0.0072236646
0.0074521471
-0.012990833
-0.010500078
0.0033588296
0.011231381
0.016960404
0.019512953
0.0014506146
-0.0053879275
0.0044794463
-0.00097185909
-0.015863495
-0.0083766668
0.0036910342
0.010764096
0.018147062
0.024183185
0.0024409191
-0.0069760432
0.0016076604
-0.0039360629
-0.013543248
-0.0072167451
0.0038399976
0.010692477
0.018549521
0.026473766
0.0082237799
-0.0043545964
0.0025643383
-0.0015242746
-0.012129968
-0.0065175172
0.0043082879
0.010936454
0.018561054
0.027087037
0.013849461
-0.0010309046
0.0030232679
-0.00065272986
-0.011684098
-0.0059088103
0.0050001836
0.011446917
0.018487521
0.026179518
0.015794739
0.00071223431
0.0027858081
-0.0010431066
-0.011512715
-0.0053573312
0.005768224
0.012228521
0.018877896
0.025525967
0.016327929
0.0015239972
0.0027117443
-0.001191634
-0.01151174
-0.0051543702
0.0062922507
0.013037519
0.019629802
0.025577662
0.01689527
0.0020693478
0.0035769135
0.00054601059
-0.011098722
-0.0054193314
0.0060850655
0.013370802
0.020314398
0.026154479
0.018031249
0.0026969338
0.0058252323
0.0057691793
-0.0086078888
-0.0054486183
0.0047311813
0.012435663
0.020258314
0.026526878
0.01752952
0.0022439151
0.0042371166
0.0073191759
0.00030981919
0.0021516279
0.008563534