/*--------------------------------*- C++ -*----------------------------------*\
| =========                 |                                                 |
| \\      /  F ield         | OpenFOAM: The Open Source CFD Toolbox           |
|  \\    /   O peration     | Version:  v2106                                 |
|   \\  /    A nd           | Website:  www.openfoam.com                      |
|    \\/     M anipulation  |                                                 |
\*---------------------------------------------------------------------------*/
FoamFile
{
    version     2.0;
    format      ascii;
    arch        "LSB;label=32;scalar=64";
    class       volScalarField;
    location    "60";
    object      gradTy;
}
// * * * * * * * * * * * * * * * * * * * * * * * * * * * * * * * * * * * * * //

dimensions      [0 -1 0 1 0 0 0];

internalField   nonuniform List<scalar> 
10000
(
0.00056991039
0.00047848077
0.00015884289
0.00024801417
0.00030596963
0.0002926786
0.00029340155
0.00031609505
0.00032878398
0.00028556807
0.00091166365
0.00029506234
-6.1898618e-05
0.00015756351
0.00024044752
0.00021366074
0.00023203086
0.00030655357
0.00038073478
0.00033947737
-0.00059628877
-0.00094198864
-0.00073378757
-0.00063759276
-0.00064663419
-0.00065133361
-0.00062742566
-0.00056747422
-0.00046179977
-0.00036207877
-0.0007634543
-0.00054276413
-0.00046110816
-0.00045561075
-0.00045618492
-0.0004465698
-0.00043900368
-0.00042531886
-0.00037913819
-0.00030310315
5.5244129e-06
7.2521004e-05
6.1621563e-05
5.8780188e-05
7.0662566e-05
8.9758686e-05
9.939248e-05
9.3332204e-05
8.1450906e-05
7.0528671e-05
0.00021114963
0.00019229751
0.00020273293
0.00021150598
0.0002199142
0.00024023592
0.00026334385
0.00027407614
0.00027257491
0.00026439759
0.00020956361
0.00024468835
0.00030245644
0.00032854766
0.00032370747
0.0003321212
0.00035754763
0.00037886676
0.00039083577
0.0003964399
0.00023382441
0.000286898
0.00038252833
0.00045252395
0.00044239383
0.0004345824
0.00045162491
0.00046787054
0.00047248969
0.00046689021
0.00016266449
0.00011687391
0.0001955882
0.00032226944
0.0003178038
0.00029946585
0.00030812532
0.00031703897
0.00030714506
0.00027157637
2.8763964e-05
-1.4451966e-05
1.2589869e-06
5.2028725e-05
5.1948973e-05
4.4747177e-05
4.6497443e-05
4.8483268e-05
4.2764498e-05
2.4770846e-05
0.0012900975
0.0009113676
0.00033573779
0.00052990606
0.00063830718
0.00061539934
0.00063135309
0.00069746771
0.00071629734
0.00054927782
0.001756915
0.00032537534
-0.00030888185
0.00014832966
0.00031376715
0.00027378059
0.00034712332
0.00056965641
0.00076017631
0.00058102549
-0.00173213
-0.0023043222
-0.0019091756
-0.0017094241
-0.0017058695
-0.0017035552
-0.0016365021
-0.0014523596
-0.0011441062
-0.00087198461
-0.0018389548
-0.0013851007
-0.0012163058
-0.0011817945
-0.0011634798
-0.0011347046
-0.0011140983
-0.0010643872
-0.00092132146
-0.00071170876
-1.5021669e-05
0.00011321819
0.00011042917
0.00011908716
0.0001575192
0.00021116873
0.00023896541
0.000229818
0.00021141449
0.00019679317
0.00056627582
0.00055584465
0.00059963202
0.00062521198
0.00064901351
0.00070665826
0.00077096584
0.00080314251
0.00080446543
0.00078882616
0.00067523462
0.00079833708
0.00097111038
0.0010495326
0.0010414279
0.001068182
0.0011379121
0.0011971324
0.0012300674
0.0012429581
0.00073568748
0.00086310393
0.0011487404
0.0013554999
0.0013415174
0.001327949
0.001375017
0.0014201043
0.0014253444
0.0013787063
0.00040450615
0.00018222141
0.00041587532
0.00076259644
0.00076855366
0.00072957158
0.00075423739
0.0007753973
0.00071283932
0.00049877488
3.1874625e-05
-0.00013514492
-8.7559234e-05
4.6269501e-05
5.2182486e-05
3.6521897e-05
4.1756342e-05
4.5115731e-05
1.0664223e-05
-9.7593897e-05
0.0015843902
0.00112493
0.00043751963
0.00068516145
0.00081791309
0.00079512843
0.00083499551
0.00095673679
0.000973645
0.00064996571
0.0017871525
6.6846668e-05
-0.0006695671
-8.4705562e-05
0.0001258353
8.866104e-05
0.00022641359
0.00062316326
0.00093112274
0.00056880538
-0.0027678198
-0.0034274726
-0.002919372
-0.002650129
-0.0026266919
-0.002616942
-0.0025158099
-0.0022048233
-0.0016945494
-0.0012753747
-0.0025820356
-0.0020114455
-0.0017866333
-0.0017187653
-0.0016720187
-0.0016240771
-0.0015956403
-0.0015121844
-0.0012830727
-0.0009696071
-8.9956991e-06
0.00015595475
0.00016437087
0.00018914167
0.00025905905
0.00034917864
0.00039609938
0.00039067061
0.00037545689
0.00036448878
0.00092434362
0.00094996733
0.0010249219
0.0010608492
0.0011013003
0.0011978896
0.0013022709
0.0013593471
0.0013726684
0.0013634134
0.0012330747
0.0014754872
0.0017675769
0.0018876059
0.0018794697
0.0019290979
0.0020409272
0.0021375577
0.0021930893
0.0022141749
0.0013027146
0.0015106889
0.0020074238
0.0023319494
0.0023199915
0.0023113069
0.002390389
0.002463469
0.0024508657
0.002295538
0.0005854304
0.0001252738
0.00053107263
0.0010547225
0.0010736499
0.0010285406
0.0010777161
0.0011051577
0.00090978511
0.00035947414
-9.2668036e-06
-0.00033294615
-0.00025081171
-5.3496326e-05
-4.1834672e-05
-6.0808437e-05
-4.8004722e-05
-4.6751362e-05
-0.00015155655
-0.00041362534
0.0018907152
0.0013311095
0.00053002964
0.00082639919
0.00098193012
0.00095784568
0.0010226493
0.0012128029
0.0012448338
0.00077149978
0.0019354085
-0.00010561982
-0.00095241552
-0.00024972411
3.0377685e-06
-3.5934646e-05
0.00016400202
0.00075030394
0.0011840839
0.00061957536
-0.003628526
-0.0043855913
-0.0037726302
-0.0034365484
-0.0033929542
-0.0033786601
-0.0032474725
-0.0028121044
-0.0021217442
-0.0015983485
-0.0032324348
-0.002554584
-0.0022769815
-0.0021749081
-0.0020981062
-0.0020313348
-0.001994196
-0.0018714703
-0.0015567935
-0.0011501354
3.2350101e-05
0.00022951971
0.00024613948
0.00028740803
0.00038971277
0.00051520564
0.00058145346
0.00058515937
0.00058042136
0.00058039879
0.0013413924
0.0014024711
0.0015023567
0.0015479528
0.0016062669
0.0017396936
0.0018819031
0.0019659089
0.0019975989
0.0020072033
0.0018917182
0.0022741541
0.0026779569
0.0028407099
0.0028378214
0.0029106637
0.0030640368
0.0032018852
0.0032854932
0.0033158638
0.001950838
0.0022841148
0.0029709198
0.0034098432
0.0034083224
0.0034088111
0.0035240183
0.0036302676
0.0035813567
0.0032343772
0.00077994428
0.00011798969
0.00064921576
0.0013317455
0.0013705507
0.0013269849
0.0014118451
0.0014409635
0.0010159547
8.8656636e-05
-5.5763092e-05
-0.00052909708
-0.00043210207
-0.00018016666
-0.00016099667
-0.00018018174
-0.00015459373
-0.00015993472
-0.00038591346
-0.00077813337
0.0022587296
0.0015731868
0.00065414031
0.000999015
0.0011771184
0.001149264
0.0012354591
0.0014918569
0.0015350268
0.00091553227
0.0022333019
-0.00017358201
-0.0011391768
-0.00031930898
-2.4584662e-05
-7.0169506e-05
0.00018515348
0.00095672067
0.0015023168
0.00073460245
-0.0043992676
-0.0052605253
-0.0045449945
-0.0041422383
-0.0040781255
-0.004060297
-0.0038996235
-0.0033384877
-0.0024766741
-0.0018595277
-0.0038307982
-0.0030463311
-0.002716206
-0.002579462
-0.0024723651
-0.0023870882
-0.0023400358
-0.0021737506
-0.0017724913
-0.0012770462
0.00011285925
0.00033823267
0.00036199879
0.00042017408
0.00055437255
0.00071366256
0.00079863366
0.00081358044
0.00082223207
0.00083567804
0.0018095236
0.0018970347
0.0020192618
0.0020755368
0.0021515911
0.002319798
0.0024983276
0.0026109137
0.0026669869
0.0027083137
0.0026363372
0.0031502267
0.0036632273
0.0038720361
0.0038765651
0.003971954
0.0041676808
0.0043536566
0.0044781989
0.0045289945
0.0027125425
0.0031618941
0.0040297058
0.0045848434
0.0045972505
0.0046084419
0.0047659098
0.00491896
0.0048343671
0.0042392324
0.0010466634
0.00018217642
0.0008245452
0.0016611363
0.0017212497
0.0016832339
0.0018186498
0.0018585718
0.0011389221
-0.0002192296
-9.3255436e-05
-0.00071275002
-0.00060506503
-0.00030131908
-0.00027476828
-0.00029235512
-0.00024721703
-0.00025849139
-0.00064397352
-0.0011639259
0.0026459639
0.001828381
0.00079171104
0.0011853768
0.0013862816
0.0013538639
0.0014596868
0.0017810462
0.0018331492
0.0010689679
0.0025809929
-0.00020038641
-0.00128506
-0.00034779509
-1.0347803e-05
-6.350021e-05
0.00024479075
0.0012002687
0.001852412
0.00088375199
-0.0051271944
-0.0060917005
-0.005274603
-0.0048055076
-0.0047204108
-0.0046987596
-0.0045078762
-0.0038192985
-0.0027880779
-0.0020781864
-0.0043888853
-0.0034970294
-0.0031141731
-0.0029428371
-0.0028056278
-0.002702205
-0.0026449146
-0.0024336433
-0.0019458687
-0.0013638159
0.00022659952
0.00047933017
0.00051089446
0.00058607827
0.00075152661
0.00094341175
0.0010460652
0.001071939
0.0010937412
0.0011202618
0.0023071499
0.0024172576
0.0025622885
0.0026297922
0.0027230017
0.0029243308
0.0031373966
0.0032781786
0.0033615127
0.0034436357
0.0034189695
0.0040597429
0.0046827383
0.004939204
0.0049513001
0.0050677312
0.0053051479
0.0055435575
0.0057205917
0.0058060544
0.0035252575
0.0040854511
0.0051328788
0.0058052494
0.0058319247
0.0058529255
0.0060560409
0.0062683694
0.0061584982
0.005298407
0.0013473466
0.00027922906
0.0010308299
0.0020203411
0.0021006574
0.0020686641
0.0022661145
0.0023311609
0.0012961522
-0.00052249797
-0.00012656526
-0.00089074662
-0.00077233862
-0.00041748558
-0.00038430341
-0.00039980517
-0.00032955474
-0.00034283001
-0.00090294882
-0.0015552634
0.0030316632
0.0020839648
0.00093082019
0.0013731739
0.001597188
0.0015605999
0.0016860533
0.0020724779
0.0021335255
0.0012260921
0.0029383487
-0.00021291586
-0.0014157512
-0.0003617717
1.896052e-05
-4.0949827e-05
0.00032052739
0.0014602246
0.0022183937
0.0010514995
-0.005824535
-0.0068907214
-0.0059733909
-0.0054388363
-0.0053327519
-0.0053070702
-0.005085622
-0.0042692746
-0.0030694956
-0.0022668058
-0.004911601
-0.0039120493
-0.0034768893
-0.0032714103
-0.0031042819
-0.0029828658
-0.0029153417
-0.0026591092
-0.0020857115
-0.0014189086
0.0003700165
0.00065115552
0.0006908385
0.00078292169
0.00097938309
0.0012033618
0.0013228674
0.0013584306
0.0013915288
0.0014289137
0.0028271495
0.0029604474
0.0031287164
0.0032075774
0.0033176567
0.0035510618
0.0037967567
0.0039636251
0.004073612
0.0042001723
0.0042212123
0.0049890293
0.0057223866
0.0060268249
0.0060461432
0.0061818938
0.0064587067
0.0067497933
0.0069853006
0.0071153094
0.0043593746
0.0050305829
0.0062572408
0.0070467093
0.0070868709
0.0071153707
0.0073637263
0.0076419647
0.0075161658
0.0063908541
0.0016629372
0.00039335848
0.0012542121
0.0023958273
0.0024944127
0.0024663103
0.0027309599
0.0028318265
0.0014798492
-0.00080934615
-0.0001574306
-0.001064864
-0.00093536003
-0.0005297375
-0.00049082475
-0.00050481424
-0.00040645117
-0.00041814168
-0.001156659
-0.001944272
0.0034158718
0.0023395472
0.001070896
0.0015613967
0.0018083397
0.0017677096
0.0019127991
0.002364281
0.0024345312
0.0013850817
0.0033036924
-0.00021377136
-0.0015341629
-0.00036500884
5.8440008e-05
-8.1590744e-06
0.00040645981
0.0017301211
0.0025942341
0.0012312007
-0.0064958055
-0.0076630312
-0.0066470429
-0.0060482537
-0.0059217226
-0.0058921442
-0.00564002
-0.0046961462
-0.0033286412
-0.0024333339
-0.0054044329
-0.0042982674
-0.0038118299
-0.0035729469
-0.0033761784
-0.0032366397
-0.0031585357
-0.0028573578
-0.002199127
-0.0014490062
0.00053921616
0.00084868546
0.00089606596
0.0010047952
0.0012323733
0.0014886747
0.0016249975
0.0016694849
0.0017121332
0.0017579402
0.0033679205
0.0035246097
0.0037159402
0.0038063121
0.0039335831
0.0041989365
0.004476113
0.0046668683
0.0048012589
0.004971997
0.0050399854
0.0059348424
0.0067782655
0.0071308404
0.0071575475
0.0073116507
0.0076254795
0.0079671379
0.0082620013
0.0084405939
0.0052080875
0.0059906856
0.0073958618
0.0083020645
0.0083552705
0.0083892002
0.0086804165
0.0090257223
0.0088884981
0.0075008871
0.0019900742
0.00052127524
0.0014911537
0.0027840875
0.0028995053
0.0028725428
0.003204634
0.0033459989
0.0016797989
-0.0010809708
-0.00018532631
-0.0012347759
-0.0010940153
-0.00063790431
-0.00059393475
-0.00060736632
-0.00048010935
-0.00048830462
-0.0014051834
-0.0023288178
0.0037996319
0.0025955397
0.0012125876
0.001750747
0.0020202364
0.0019752359
0.0021394746
0.002655654
0.0027353608
0.0015451178
0.0036766339
-0.00020393242
-0.0016405939
-0.00035761366
0.00010739657
3.3005932e-05
0.00049966368
0.0020064259
0.0029765058
0.0014193245
-0.0071457229
-0.0084129119
-0.0072994041
-0.0066376743
-0.0064919823
-0.0064594818
-0.0061769284
-0.0051057218
-0.0035710432
-0.0025832303
-0.0058733417
-0.0046618686
-0.0041253512
-0.0038544468
-0.0036292096
-0.0034718861
-0.0033826807
-0.0030360737
-0.0022931542
-0.0014603133
0.00072832285
0.0010650562
0.0011189424
0.0012432488
0.0015015032
0.0017904296
0.0019441878
0.0019977902
0.0020493452
0.0021022604
0.0039246145
0.0041034718
0.0043168816
0.0044185257
0.0045634107
0.0048612105
0.0051697409
0.0053831974
0.0055401258
0.0057536972
0.00587037
0.0068909971
0.0078437899
0.008244757
0.0082796023
0.0084521178
0.0088015893
0.0091915955
0.0095444586
0.0097720272
0.0060659271
0.0069597563
0.008542769
0.0095656414
0.0096322955
0.0096707989
0.01000268
0.010413668
0.01026574
0.0086176437
0.0023257434
0.00065993913
0.001738642
0.0031824306
0.0033144023
0.0032869008
0.0036849022
0.0038673326
0.0018888777
-0.0013422204
-0.00021044847
-0.0014006914
-0.0012485693
-0.00074214948
-0.00069334211
-0.00070687266
-0.00055096107
-0.00055516028
-0.0016496916
-0.0027092257
0.0041816695
0.0028509212
0.0013552963
0.0019412071
0.0022334977
0.0021838723
0.0023661855
0.0029461296
0.0030354821
0.0017058206
0.0040534782
-0.0001860815
-0.0017363276
-0.00033907313
0.00016764057
8.387116e-05
0.00059975681
0.0022875255
0.003363551
0.0016145006
-0.007777822
-0.0091423933
-0.0079308135
-0.0072060906
-0.0070426632
-0.0070097264
-0.0066984258
-0.0055005779
-0.0037991086
-0.0027186698
-0.0063219423
-0.0050046402
-0.004417974
-0.0041164898
-0.0038653974
-0.0036923388
-0.0035924108
-0.0031998887
-0.0023718919
-0.0014559983
0.00093379211
0.00129779
0.0013567364
0.0014941543
0.0017808874
0.0021015596
0.0022731626
0.0023366607
0.0023976839
0.0024582218
0.0044932809
0.0046923126
0.0049253971
0.0050365501
0.0051983837
0.0055288253
0.0058691173
0.0061052066
0.006284152
0.0065404283
0.0067065389
0.0078499247
0.0089101931
0.0093590732
0.0094026432
0.0095941744
0.0099790245
0.010416089
0.010825574
0.011101874
0.0069259031
0.0079298479
0.0096896972
0.010829165
0.010910216
0.010953686
0.011325251
0.011800235
0.011640626
0.0097329722
0.0026651042
0.00080464051
0.0019920791
0.0035865485
0.0037359695
0.0037081096
0.0041711913
0.0043938953
0.0021039283
-0.001595987
-0.00023373504
-0.0015633966
-0.0013997688
-0.00084310407
-0.00078917298
-0.00080274541
-0.00061832213
-0.00061854484
-0.0018900914
-0.003085155
0.0045606783
0.0031039426
0.0014968256
0.0021309725
0.0024481091
0.0023951707
0.0025943495
0.0032361437
0.0033347581
0.0018669107
0.0044304294
-0.00016534949
-0.0018267588
-0.00031197828
0.00024171979
0.00014986981
0.00071097827
0.0025751722
0.0037557512
0.0018164654
-0.0083962547
-0.0098557099
-0.0085428834
-0.0077503498
-0.0075670819
-0.0075362588
-0.0071999491
-0.0058779002
-0.0040109836
-0.0028387809
-0.0067541811
-0.005327256
-0.0046857025
-0.0043514542
-0.0040764446
-0.0038913399
-0.0037829503
-0.0033451719
-0.0024323303
-0.0014336874
0.0011547177
0.0015510149
0.0016165658
0.001765106
0.0020766803
0.0024263314
0.0026150617
0.0026889815
0.0027603444
0.0028297054
0.0050754992
0.0052948597
0.0055447576
0.0056619924
0.005838252
0.006200374
0.0065728779
0.0068325337
0.0070345403
0.0073354161
0.0075472858
0.0088087452
0.009972588
0.010467104
0.010518756
0.010729754
0.011150916
0.011635722
0.012102469
0.012429657
0.0077822559
0.0088928688
0.010827029
0.012081834
0.012177649
0.012227117
0.012639311
0.01317867
0.013007911
0.010843894
0.0030021556
0.00094830622
0.0022434488
0.0039874255
0.0041549333
0.0041281494
0.0046578158
0.0049220841
0.0023230401
-0.0018415742
-0.00025672106
-0.0017245684
-0.0015495783
-0.00094310006
-0.00088381639
-0.0008968594
-0.00068323256
-0.00067873424
-0.0021259103
-0.0034551437
0.0049369405
0.0033534105
0.0016327599
0.0023127009
0.0026581079
0.0026070102
0.0028235751
0.003524714
0.0036312786
0.0020258319
0.0048065362
-0.0001497346
-0.0019289705
-0.00029699337
0.00031600848
0.00022666396
0.00083203051
0.0028662274
0.0041475396
0.0020173351
-0.0090082983
-0.010569363
-0.0091555569
-0.0082849956
-0.0080705703
-0.0080393468
-0.0076816709
-0.0062398284
-0.004211185
-0.0029518234
-0.0071836752
-0.0056456531
-0.0049386962
-0.0045606664
-0.0042573409
-0.0040622024
-0.0039486352
-0.0034683158
-0.0024738872
-0.0013983461
0.0013821991
0.001823663
0.0019058564
0.0020693118
0.0024043204
0.0027797602
0.002983764
0.003067093
0.0031468216
0.0032203697
0.005674478
0.0059226788
0.0061905
0.0063115782
0.0064992058
0.0068910218
0.007296078
0.0075806246
0.0078061289
0.0081501769
0.0083988138
0.0097753695
0.011038377
0.011574888
0.011632264
0.011862221
0.012321867
0.01285805
0.013385461
0.013766659
0.008634329
0.0098458841
0.011949838
0.01331637
0.013424586
0.013479428
0.013934637
0.014543022
0.014366622
0.011953565
0.0033316365
0.0010833134
0.0024827441
0.0043713183
0.0045527138
0.0045245949
0.0051222661
0.0054332039
0.002532809
-0.0020889144
-0.00028127084
-0.0018867175
-0.0017014072
-0.0010471431
-0.00098437982
-0.00099811107
-0.00075501448
-0.00074397927
-0.0023637196
-0.0038251281
0.0053157051
0.0036071248
0.0017660163
0.0024776102
0.0028495978
0.0028092175
0.0030476697
0.0038067576
0.0039200373
0.0021783537
0.0051983041
-0.00012622922
-0.0020533793
-0.00033158651
0.00034798189
0.00028289708
0.00094070543
0.0031410931
0.0045200234
0.0022010115
-0.0096095026
-0.011303774
-0.0098148598
-0.0088649472
-0.0086004126
-0.0085569054
-0.0081767199
-0.0066182636
-0.0044310909
-0.0030876296
-0.0076359027
-0.0060105305
-0.0052345415
-0.0047960831
-0.0044505185
-0.0042414796
-0.0041239939
-0.0036044261
-0.0025338753
-0.0013911057
0.0015795167
0.0020769277
0.0021940004
0.0023849695
0.0027486039
0.003148791
0.0033658295
0.0034548494
0.0035348409
0.003596892
0.0062758252
0.0065729332
0.0068685488
0.0069966258
0.0071950734
0.0076138514
0.008050349
0.0083584733
0.0086011056
0.0089726686
0.0092670637
0.010763374
0.01212526
0.012702016
0.012762313
0.013008074
0.013506935
0.014098179
0.014687325
0.015116048
0.0094876021
0.010796154
0.01306692
0.014541783
0.014657039
0.014710794
0.015207795
0.015891183
0.015717485
0.013060778
0.0036527998
0.001210194
0.0027127182
0.0047408279
0.0049260387
0.0048828705
0.005540234
0.0059007392
0.0027098289
-0.0023626104
-0.00030826216
-0.0020499458
-0.0018542702
-0.001154305
-0.0010924237
-0.0011129375
-0.00084471502
-0.00082712184
-0.0026158529
-0.004208748
0.0057063745
0.0038974651
0.0019401959
0.0026506414
0.003029269
0.0030058592
0.0032738521
0.0040919938
0.0042130205
0.0023424343
0.0056607283
1.1460341e-05
-0.0021007018
-0.00037140171
0.0003467102
0.00032614732
0.0010542529
0.0034255424
0.0049087898
0.0024261826
-0.010127282
-0.011997517
-0.010510144
-0.0095192123
-0.0091950969
-0.0091230472
-0.0087113241
-0.0070304432
-0.0046734429
-0.0032177451
-0.0081026404
-0.0064690307
-0.0056552285
-0.0051539836
-0.0047508537
-0.0045196673
-0.0043943661
-0.0038316663
-0.0026763707
-0.0014449298
0.0016833009
0.0022161274
0.0023808499
0.0026122926
0.0030151661
0.0034408665
0.0036689727
0.0037608266
0.0038378423
0.0038900595
0.0068233322
0.0071902069
0.007530875
0.0076739796
0.0078873624
0.0083277862
0.0087886497
0.0091120699
0.0093580681
0.0097379817
0.01013538
0.011764582
0.013234775
0.013857186
0.013922776
0.014177146
0.014707059
0.015347465
0.015987917
0.01644356
0.01034281
0.011751563
0.014197347
0.015789444
0.015915343
0.015958314
0.016484761
0.017239171
0.017068525
0.014164589
0.0039677766
0.0013434372
0.0029684167
0.0051561355
0.0053551533
0.0052853684
0.0059810651
0.0063814635
0.0029064828
-0.0026028901
-0.00033699562
-0.0022075819
-0.0019920671
-0.0012371166
-0.0011711065
-0.0012023051
-0.00091783077
-0.00089854317
-0.0028537881
-0.0045714584
0.0060819607
0.004250885
0.0022548367
0.0029299561
0.003271608
0.0032602336
0.0035627645
0.0044405509
0.0045696758
0.0025774144
0.0062172281
0.00047654231
-0.0017437877
-0.00011865808
0.00056017217
0.00058628586
0.0014056126
0.0039614394
0.0055644058
0.0029560677
-0.010366505
-0.012347898
-0.010961705
-0.010018527
-0.009650748
-0.0095399021
-0.0090795967
-0.00725314
-0.0046886302
-0.0030521306
-0.0084233095
-0.0068981525
-0.0061193495
-0.0055871956
-0.005122849
-0.0048641427
-0.0047206126
-0.0040903654
-0.0028002326
-0.0013896871
0.0016791206
0.0021745368
0.0023840645
0.0026531616
0.0031071173
0.0035596404
0.0038009827
0.0039103528
0.0040235972
0.0041470138
0.0072363691
0.0076731038
0.0080818096
0.0082442552
0.0084840461
0.0089381206
0.0094077027
0.0097364918
0.0099907113
0.010413444
0.010950746
0.012721221
0.014325899
0.015007984
0.015099677
0.015358696
0.015898048
0.016565288
0.017239856
0.017717924
0.011175321
0.012685688
0.015334114
0.017076654
0.017254494
0.017299269
0.017837502
0.018641078
0.018458297
0.015304023
0.004261449
0.0014667442
0.0032560772
0.0056677538
0.0059567556
0.0059044147
0.0066337083
0.0070570506
0.0032966535
-0.0026101144
-0.00037190466
-0.0023641661
-0.0021107968
-0.0012731663
-0.001170433
-0.0011908886
-0.00088861092
-0.00087217683
-0.0029914604
-0.0048100222
0.0062482694
0.004465756
0.0026785651
0.0033267067
0.0035830008
0.0035655148
0.0038927226
0.0048130478
0.0049252174
0.0027590445
0.0064777136
0.0011231572
-0.00080402688
0.00068214968
0.0012413126
0.0013086199
0.0022409647
0.0049894044
0.0066837611
0.0038326326
-0.010199041
-0.011907614
-0.010640048
-0.0098360753
-0.0094502441
-0.0092906735
-0.0087500406
-0.0067380024
-0.0039450178
-0.0021772353
-0.0082335183
-0.0068768647
-0.0061881788
-0.0056870608
-0.0051727837
-0.0048903641
-0.0047187825
-0.0039846141
-0.0025042656
-0.00089300937
0.001713267
0.0020714792
0.0023397373
0.002616881
0.0031364341
0.0036253293
0.0038965807
0.0040732799
0.0043133237
0.0046045331
0.0074949912
0.0079595739
0.0084946433
0.0086597775
0.0089486446
0.0094199242
0.0098884017
0.010235538
0.010558122
0.011125651
0.011659123
0.013530422
0.015339907
0.016083093
0.016245657
0.016531044
0.017061271
0.01773283
0.018446387
0.018993999
0.011937053
0.013485795
0.01637985
0.018290818
0.018594367
0.018707561
0.019264087
0.020092677
0.019877578
0.016477813
0.0044745692
0.0013935641
0.0033177973
0.0059543312
0.0064094021
0.0064855844
0.007299515
0.0077467532
0.0036846515
-0.0026475251
-0.00043727816
-0.0026034511
-0.0023380306
-0.0014249294
-0.0012638598
-0.0012307898
-0.00088550708
-0.00086571547
-0.0031520171
-0.0050871665
0.0057460494
0.0037039503
0.0025639637
0.0032321472
0.0033662658
0.0032978331
0.0035778531
0.004431492
0.0043958993
0.0018547571
0.0050469913
0.00027386284
-0.00059847602
0.00083545428
0.0012632449
0.0013929597
0.0024562821
0.0053447659
0.0069411243
0.0033815709
-0.010238969
-0.010946674
-0.009677378
-0.0090431817
-0.0086299485
-0.0083628289
-0.0076404647
-0.0053545473
-0.0023841829
-0.00078492386
-0.0072857183
-0.0060822652
-0.0054239973
-0.0050348357
-0.0045100061
-0.0042307942
-0.0040512735
-0.0032314623
-0.0016497783
-0.00010879623
0.0020220455
0.0021205744
0.0025795509
0.0028009272
0.0033835924
0.0039261384
0.0042486941
0.0045293326
0.0048963774
0.0051820947
0.0077063436
0.0080237245
0.0088993808
0.0090132084
0.0093581135
0.00987831
0.010369815
0.010780714
0.011231444
0.011917222
0.012302997
0.014003486
0.016254804
0.017011767
0.017254136
0.017614962
0.018156539
0.018847163
0.019635627
0.020273338
0.01266703
0.0138941
0.017151873
0.019150382
0.019553368
0.019798065
0.020414996
0.021277153
0.021031362
0.017363225
0.0046126991
0.00074759686
0.0026495042
0.0053172202
0.0057721703
0.0059699824
0.0069086786
0.0073961572
0.0029947506
-0.0040309935
-0.00054453355
-0.0030856757
-0.0029175692
-0.0020195031
-0.0018902478
-0.0018290249
-0.0014330623
-0.0014038844
-0.0038784869
-0.0060877138
0.0044415385
0.00093778145
0.00087895836
0.001560721
0.0014889859
0.0011875487
0.0010748915
0.0013406448
0.00062674517
-0.0025816314
0.00040359944
-0.0049402708
-0.0039682771
-0.0025043627
-0.0021864942
-0.0020080525
-0.00097879354
0.0015812836
0.0023664909
-0.0024094116
-0.012114936
-0.011180527
-0.0096790283
-0.0091652678
-0.0086210362
-0.0079865544
-0.0066832584
-0.0037426813
-0.00046577977
0.001138239
-0.0059183478
-0.0050033064
-0.0041365648
-0.0039453142
-0.0035163428
-0.0032818359
-0.0030893036
-0.0021724551
-0.00052799035
0.0012496172
0.0026931333
0.0021333749
0.0031894435
0.0033120883
0.0038529218
0.0043990136
0.0047285991
0.005033753
0.0053676556
0.0056171607
0.0081625736
0.0075414319
0.0093702742
0.0094792097
0.0097973134
0.010354887
0.010879509
0.011336787
0.011811183
0.012415445
0.01333267
0.013562314
0.016922006
0.017806187
0.018031387
0.018440927
0.019013287
0.019741284
0.020576111
0.02112887
0.014085548
0.013413329
0.017430833
0.019630807
0.019992146
0.020269864
0.020923821
0.021832688
0.021579819
0.017549382
0.0055947149
-0.0002886994
0.0016040196
0.0045922208
0.005026092
0.0051756285
0.0061047501
0.0065632146
0.0018214443
-0.0059704266
-0.00037698942
-0.003585366
-0.0035609244
-0.0025160202
-0.0023758528
-0.0023496834
-0.0019730114
-0.0019811776
-0.0046599691
-0.0071757582
0.0040661844
-0.0016892591
-0.0009443822
-0.00046412561
-0.0010507996
-0.0022541409
-0.0040302034
-0.0062796711
-0.0094979969
-0.013366081
-0.0044280809
-0.011943931
-0.0094066562
-0.0080418985
-0.008056554
-0.0084758172
-0.0090852116
-0.0099122831
-0.013633247
-0.021280477
-0.015798102
-0.013960402
-0.01189607
-0.011231138
-0.010240858
-0.008613149
-0.0059444361
-0.0019913063
0.00090322237
0.00055344219
-0.0046567066
-0.0048163326
-0.0033066044
-0.0031611202
-0.0028602101
-0.0024510027
-0.0016652463
0.00014891927
0.0026095951
0.0052349457
0.0039754551
0.0012904322
0.0035415364
0.0039084208
0.004251654
0.0046443245
0.005014649
0.0056437125
0.0066541539
0.0086348447
0.010113522
0.0056444165
0.0090848648
0.0099408382
0.010279829
0.010703833
0.011117914
0.011587809
0.01234452
0.014231549
0.017300283
0.011261987
0.015863817
0.01788383
0.018463739
0.018883218
0.019347715
0.019988609
0.020902063
0.022161959
0.020768185
0.012566494
0.016220149
0.019414153
0.02049499
0.021053658
0.021721596
0.022608006
0.022486319
0.018898854
0.013816046
0.0031864309
0.0024478523
0.0057311792
0.0075338789
0.0087223116
0.010177619
0.010895662
0.0064684676
0.00011438587
0.0023973592
-0.0014707251
-0.002700794
-0.0017039119
-0.00095056028
-0.0003834513
0.00030745954
0.00045647977
-0.002084184
-0.0037795747
0.0029508349
-0.0021681018
-0.0013836334
-0.0015476759
-0.0033591643
-0.0069260281
-0.012889346
-0.020700419
-0.026456278
-0.019527289
-0.0081389522
-0.014640655
-0.011681898
-0.011012131
-0.012684547
-0.016900949
-0.025800357
-0.040602442
-0.057290178
-0.056209341
-0.016640796
-0.015710157
-0.013012272
-0.011768891
-0.010219305
-0.0080893407
-0.0067613633
-0.0095213603
-0.021245289
-0.040883552
-0.0019066401
-0.0048699364
-0.0029092885
-0.0020769688
-0.0013307412
9.3278009e-05
0.0022683753
0.003639095
-0.00096058801
-0.018422631
0.0085458435
0.0004783152
0.0026570253
0.0041578651
0.0048272723
0.0054849733
0.0068133038
0.0087179017
0.0081150152
-0.0028211701
0.01957846
0.0052831867
0.0064626493
0.008741128
0.010061766
0.01072716
0.011431651
0.01281326
0.013818817
0.0085663232
0.036573277
0.01591169
0.012871783
0.01447967
0.0164176
0.017712599
0.0185037
0.019598023
0.021173806
0.019173747
0.056545012
0.036194614
0.02505519
0.021710688
0.021826226
0.0230124
0.024213391
0.025682506
0.027266088
0.024770298
0.066474218
0.068233914
0.050867319
0.036871721
0.028805593
0.025332649
0.024558657
0.024908373
0.023646449
0.02321667
0.02220061
0.029129599
0.022921169
0.016037424
0.011279807
0.0087466333
0.0077781444
0.0074132605
0.0061142843
0.007126741
-0.0055806161
-0.0036016895
-0.0049126812
-0.0035301171
-0.0014152921
0.002086392
0.0081734769
0.016971552
0.024730523
0.017583526
-0.01597895
-0.014977048
-0.016245253
-0.014061836
-0.011549948
-0.0069370504
0.0029043058
0.020840283
0.043603531
0.044686281
-0.014402972
-0.014295614
-0.01348776
-0.013219145
-0.013887489
-0.014980767
-0.015051909
-0.0099272233
0.0060587042
0.029522374
-0.0087045399
-0.0034584563
-0.0040092349
-0.0038581846
-0.0034817799
-0.00372196
-0.0048586908
-0.0050942731
0.00096932183
0.019983883
-0.0024482914
0.0059764723
0.0046764939
0.0042148496
0.0048127183
0.0054734545
0.0052977867
0.0043151601
0.0054786798
0.016840105
-0.002646142
0.011737012
0.011808112
0.010572591
0.010431201
0.01105766
0.011540598
0.011160569
0.010923113
0.017090303
-0.0081343719
0.014193369
0.019642962
0.019246913
0.018270649
0.018088618
0.018373558
0.018408551
0.018281366
0.022015342
-0.018734063
0.0061015068
0.021965163
0.02721212
0.027793175
0.027393013
0.02717569
0.027300821
0.027569211
0.0290562
-0.034036077
-0.033118116
-0.010190079
0.0063314812
0.014888077
0.018856426
0.020817811
0.022463217
0.022573189
0.0161267
-0.014219295
-0.021366292
-0.013497462
-0.0057238453
-0.00082108785
0.0018504381
0.0032903725
0.0043397554
0.0042816981
4.2096114e-05
0.0072236646
0.0044794463
0.0016076604
0.0025643383
0.003023268
0.0027858081
0.0027117443
0.0035769135
0.0058252323
0.0042371166
0.0074521472
-0.00097185907
-0.0039360629
-0.0015242746
-0.00065272977
-0.0010431066
-0.001191634
0.0005460106
0.0057691793
0.0073191759
-0.012990833
-0.015863495
-0.013543248
-0.012129968
-0.011684099
-0.011512715
-0.01151174
-0.011098723
-0.0086078887
0.00030981923
-0.010500078
-0.008376667
-0.0072167452
-0.0065175172
-0.0059088104
-0.0053573312
-0.0051543702
-0.0054193313
-0.0054486183
0.0021516278
0.0033588295
0.0036910342
0.0038399975
0.0043082879
0.0050001835
0.0057682239
0.0062922507
0.0060850656
0.0047311813
0.008563534
0.011231381
0.010764096
0.010692477
0.010936454
0.011446917
0.012228521
0.013037519
0.013370802
0.012435663
0.014471333
0.016960404
0.018147062
0.018549521
0.018561054
0.018487521
0.018877896
0.019629802
0.020314398
0.020258314
0.022017718
0.019512953
0.024183185
0.026473766
0.027087037
0.026179518
0.025525967
0.025577662
0.026154479
0.026526878
0.026788729
0.0014506145
0.0024409192
0.0082237798
0.013849461
0.015794739
0.016327929
0.01689527
0.018031249
0.01752952
0.0098225774
-0.0053879276
-0.0069760432
-0.0043545965
-0.0010309046