/*--------------------------------*- C++ -*----------------------------------*\
| =========                 |                                                 |
| \\      /  F ield         | OpenFOAM: The Open Source CFD Toolbox           |
|  \\    /   O peration     | Version:  v2106                                 |
|   \\  /    A nd           | Website:  www.openfoam.com                      |
|    \\/     M anipulation  |                                                 |
\*---------------------------------------------------------------------------*/
FoamFile
{
    version     2.0;
    format      ascii;
    arch        "LSB;label=32;scalar=64";
    class       volScalarField;
    location    "60";
    object      gradTz;
}
// * * * * * * * * * * * * * * * * * * * * * * * * * * * * * * * * * * * * * //

dimensions      [0 -1 0 1 0 0 0];

internalField   nonuniform List<scalar> 
10000
(
2983.6881
2983.6911
2983.6911
2983.6887
2983.6883
2983.6887
2983.6891
2983.6896
2983.6901
2983.6902
2983.6911
2983.6934
2983.6919
2983.69
2983.6899
2983.6902
2983.6906
2983.6912
2983.6918
2983.6916
2983.6911
2983.6919
2983.6907
2983.6891
2983.689
2983.6893
2983.6898
2983.6906
2983.6913
2983.6913
2983.6887
2983.69
2983.6891
2983.6876
2983.6874
2983.6878
2983.6883
2983.6891
2983.6901
2983.6903
2983.6883
2983.6899
2983.689
2983.6874
2983.6873
2983.6877
2983.6882
2983.689
2983.69
2983.6902
2983.6887
2983.6902
2983.6893
2983.6878
2983.6877
2983.6881
2983.6886
2983.6895
2983.6904
2983.6906
2983.6891
2983.6906
2983.6898
2983.6883
2983.6882
2983.6886
2983.6892
2983.6901
2983.6911
2983.6912
2983.6896
2983.6912
2983.6906
2983.6891
2983.689
2983.6895
2983.6901
2983.691
2983.692
2983.6922
2983.6901
2983.6918
2983.6913
2983.6901
2983.69
2983.6904
2983.6911
2983.692
2983.6929
2983.6931
2983.6902
2983.6916
2983.6913
2983.6903
2983.6902
2983.6906
2983.6912
2983.6922
2983.6931
2983.6931
2983.7063
2983.7078
2983.7072
2983.7057
2983.7054
2983.7057
2983.7061
2983.7067
2983.7072
2983.7071
2983.7078
2983.7088
2983.7076
2983.7063
2983.7061
2983.7064
2983.7069
2983.7076
2983.7081
2983.7076
2983.7072
2983.7076
2983.7066
2983.7054
2983.7053
2983.7055
2983.7061
2983.707
2983.7077
2983.7073
2983.7057
2983.7063
2983.7054
2983.7043
2983.7042
2983.7044
2983.705
2983.706
2983.7069
2983.7067
2983.7054
2983.7061
2983.7053
2983.7042
2983.704
2983.7044
2983.7049
2983.7059
2983.7068
2983.7067
2983.7057
2983.7064
2983.7055
2983.7044
2983.7044
2983.7047
2983.7053
2983.7063
2983.7072
2983.707
2983.7061
2983.7069
2983.7061
2983.705
2983.7049
2983.7053
2983.706
2983.707
2983.7079
2983.7078
2983.7067
2983.7076
2983.707
2983.706
2983.7059
2983.7063
2983.707
2983.7081
2983.709
2983.7088
2983.7072
2983.7081
2983.7077
2983.7069
2983.7068
2983.7072
2983.7079
2983.709
2983.7099
2983.7096
2983.7071
2983.7076
2983.7073
2983.7067
2983.7067
2983.707
2983.7078
2983.7088
2983.7096
2983.7089
2983.7376
2983.7385
2983.7378
2983.7366
2983.7364
2983.7367
2983.7372
2983.7379
2983.7384
2983.7383
2983.7385
2983.7392
2983.7381
2983.7371
2983.7369
2983.7372
2983.7378
2983.7387
2983.7392
2983.7386
2983.7378
2983.7381
2983.7372
2983.7362
2983.7361
2983.7364
2983.737
2983.7381
2983.7388
2983.7383
2983.7366
2983.7371
2983.7362
2983.7353
2983.7352
2983.7355
2983.7362
2983.7373
2983.7382
2983.7379
2983.7364
2983.7369
2983.7361
2983.7352
2983.7352
2983.7355
2983.7361
2983.7373
2983.7382
2983.7379
2983.7367
2983.7372
2983.7364
2983.7355
2983.7355
2983.7358
2983.7365
2983.7377
2983.7386
2983.7383
2983.7372
2983.7378
2983.737
2983.7362
2983.7361
2983.7365
2983.7372
2983.7384
2983.7394
2983.7391
2983.7379
2983.7387
2983.7381
2983.7373
2983.7373
2983.7377
2983.7384
2983.7397
2983.7406
2983.7403
2983.7384
2983.7392
2983.7388
2983.7382
2983.7382
2983.7386
2983.7394
2983.7406
2983.7415
2983.7409
2983.7383
2983.7386
2983.7383
2983.7379
2983.7379
2983.7383
2983.7391
2983.7403
2983.7409
2983.7399
2983.7833
2983.7843
2983.7838
2983.7827
2983.7825
2983.7828
2983.7834
2983.7842
2983.7848
2983.7847
2983.7843
2983.785
2983.7841
2983.7832
2983.783
2983.7833
2983.784
2983.785
2983.7856
2983.7851
2983.7838
2983.7841
2983.7833
2983.7825
2983.7824
2983.7827
2983.7834
2983.7846
2983.7854
2983.7848
2983.7827
2983.7832
2983.7825
2983.7817
2983.7816
2983.7819
2983.7826
2983.7839
2983.7849
2983.7845
2983.7825
2983.783
2983.7824
2983.7816
2983.7816
2983.7819
2983.7826
2983.7839
2983.7849
2983.7845
2983.7828
2983.7833
2983.7827
2983.7819
2983.7819
2983.7823
2983.783
2983.7843
2983.7853
2983.785
2983.7834
2983.784
2983.7834
2983.7826
2983.7826
2983.783
2983.7838
2983.7851
2983.7862
2983.7859
2983.7842
2983.785
2983.7846
2983.7839
2983.7839
2983.7843
2983.7851
2983.7865
2983.7876
2983.7873
2983.7848
2983.7856
2983.7854
2983.7849
2983.7849
2983.7853
2983.7862
2983.7876
2983.7886
2983.7878
2983.7847
2983.7851
2983.7848
2983.7845
2983.7845
2983.785
2983.7859
2983.7873
2983.7878
2983.7867
2983.8447
2983.8458
2983.8453
2983.8443
2983.8441
2983.8445
2983.8451
2983.846
2983.8467
2983.8466
2983.8458
2983.8465
2983.8457
2983.8448
2983.8448
2983.8451
2983.8458
2983.8469
2983.8476
2983.847
2983.8453
2983.8457
2983.845
2983.8442
2983.8441
2983.8445
2983.8452
2983.8465
2983.8474
2983.8468
2983.8443
2983.8448
2983.8442
2983.8435
2983.8434
2983.8438
2983.8445
2983.8459
2983.8469
2983.8465
2983.8441
2983.8448
2983.8441
2983.8434
2983.8434
2983.8438
2983.8445
2983.8459
2983.847
2983.8466
2983.8445
2983.8451
2983.8445
2983.8438
2983.8438
2983.8442
2983.845
2983.8463
2983.8474
2983.8471
2983.8451
2983.8458
2983.8452
2983.8445
2983.8445
2983.845
2983.8458
2983.8472
2983.8483
2983.8481
2983.846
2983.8469
2983.8465
2983.8459
2983.8459
2983.8463
2983.8472
2983.8487
2983.8499
2983.8496
2983.8467
2983.8476
2983.8474
2983.8469
2983.847
2983.8474
2983.8483
2983.8499
2983.8509
2983.8501
2983.8466
2983.847
2983.8468
2983.8465
2983.8466
2983.8471
2983.8481
2983.8496
2983.8501
2983.849
2983.9217
2983.9229
2983.9224
2983.9215
2983.9213
2983.9217
2983.9224
2983.9233
2983.924
2983.9239
2983.9229
2983.9236
2983.9228
2983.922
2983.922
2983.9223
2983.923
2983.9242
2983.9249
2983.9244
2983.9224
2983.9228
2983.9221
2983.9214
2983.9214
2983.9217
2983.9225
2983.9238
2983.9247
2983.9242
2983.9215
2983.922
2983.9214
2983.9207
2983.9207
2983.9211
2983.9219
2983.9232
2983.9243
2983.924
2983.9213
2983.922
2983.9214
2983.9207
2983.9208
2983.9211
2983.9219
2983.9233
2983.9244
2983.9241
2983.9217
2983.9223
2983.9217
2983.9211
2983.9211
2983.9216
2983.9224
2983.9238
2983.9249
2983.9246
2983.9224
2983.923
2983.9225
2983.9219
2983.9219
2983.9224
2983.9232
2983.9247
2983.9258
2983.9256
2983.9233
2983.9242
2983.9238
2983.9232
2983.9233
2983.9238
2983.9247
2983.9262
2983.9274
2983.9272
2983.924
2983.9249
2983.9247
2983.9243
2983.9244
2983.9249
2983.9258
2983.9274
2983.9285
2983.9277
2983.9239
2983.9244
2983.9242
2983.924
2983.9241
2983.9246
2983.9256
2983.9272
2983.9277
2983.9266
2984.0142
2984.0154
2984.0149
2984.014
2984.0139
2984.0143
2984.015
2984.0159
2984.0166
2984.0166
2984.0154
2984.0161
2984.0153
2984.0145
2984.0145
2984.0149
2984.0156
2984.0168
2984.0175
2984.017
2984.0149
2984.0153
2984.0147
2984.014
2984.014
2984.0144
2984.0151
2984.0164
2984.0174
2984.0169
2984.014
2984.0145
2984.014
2984.0133
2984.0133
2984.0137
2984.0145
2984.0159
2984.017
2984.0167
2984.0139
2984.0145
2984.014
2984.0133
2984.0134
2984.0138
2984.0146
2984.016
2984.0171
2984.0168
2984.0143
2984.0149
2984.0144
2984.0137
2984.0138
2984.0143
2984.0151
2984.0165
2984.0176
2984.0173
2984.015
2984.0156
2984.0151
2984.0145
2984.0146
2984.0151
2984.016
2984.0174
2984.0186
2984.0184
2984.0159
2984.0168
2984.0164
2984.0159
2984.016
2984.0165
2984.0174
2984.0189
2984.0202
2984.02
2984.0166
2984.0175
2984.0174
2984.017
2984.0171
2984.0176
2984.0186
2984.0202
2984.0213
2984.0206
2984.0166
2984.017
2984.0169
2984.0167
2984.0168
2984.0173
2984.0184
2984.02
2984.0206
2984.0194
2984.1219
2984.1231
2984.1227
2984.1218
2984.1217
2984.1221
2984.1228
2984.1238
2984.1245
2984.1244
2984.1231
2984.1238
2984.1231
2984.1223
2984.1223
2984.1227
2984.1235
2984.1246
2984.1254
2984.1249
2984.1227
2984.1231
2984.1224
2984.1218
2984.1218
2984.1222
2984.123
2984.1243
2984.1253
2984.1248
2984.1218
2984.1223
2984.1218
2984.1211
2984.1212
2984.1216
2984.1224
2984.1238
2984.1249
2984.1246
2984.1217
2984.1223
2984.1218
2984.1212
2984.1213
2984.1217
2984.1225
2984.1239
2984.1251
2984.1247
2984.1221
2984.1227
2984.1222
2984.1216
2984.1217
2984.1222
2984.123
2984.1244
2984.1256
2984.1253
2984.1228
2984.1235
2984.123
2984.1224
2984.1225
2984.123
2984.1239
2984.1253
2984.1265
2984.1263
2984.1238
2984.1246
2984.1243
2984.1238
2984.1239
2984.1244
2984.1253
2984.1269
2984.1281
2984.1279
2984.1245
2984.1254
2984.1253
2984.1249
2984.1251
2984.1256
2984.1265
2984.1281
2984.1293
2984.1285
2984.1244
2984.1249
2984.1248
2984.1246
2984.1247
2984.1253
2984.1263
2984.1279
2984.1285
2984.1274
2984.2448
2984.2459
2984.2455
2984.2447
2984.2446
2984.2451
2984.2457
2984.2467
2984.2475
2984.2474
2984.2459
2984.2467
2984.246
2984.2452
2984.2453
2984.2457
2984.2464
2984.2476
2984.2484
2984.2479
2984.2455
2984.246
2984.2453
2984.2447
2984.2447
2984.2451
2984.2459
2984.2473
2984.2482
2984.2478
2984.2447
2984.2452
2984.2447
2984.2441
2984.2441
2984.2446
2984.2454
2984.2468
2984.2479
2984.2476
2984.2446
2984.2453
2984.2447
2984.2441
2984.2442
2984.2447
2984.2455
2984.2469
2984.2481
2984.2478
2984.2451
2984.2457
2984.2451
2984.2446
2984.2447
2984.2452
2984.246
2984.2475
2984.2486
2984.2483
2984.2457
2984.2464
2984.2459
2984.2454
2984.2455
2984.246
2984.2469
2984.2484
2984.2495
2984.2493
2984.2467
2984.2476
2984.2473
2984.2468
2984.2469
2984.2475
2984.2484
2984.2499
2984.2511
2984.251
2984.2475
2984.2484
2984.2482
2984.2479
2984.2481
2984.2486
2984.2495
2984.2511
2984.2523
2984.2516
2984.2474
2984.2479
2984.2478
2984.2476
2984.2478
2984.2483
2984.2493
2984.251
2984.2516
2984.2504
2984.3827
2984.3838
2984.3834
2984.3826
2984.3826
2984.383
2984.3837
2984.3847
2984.3854
2984.3854
2984.3838
2984.3846
2984.3839
2984.3832
2984.3832
2984.3836
2984.3844
2984.3856
2984.3863
2984.3858
2984.3834
2984.3839
2984.3833
2984.3826
2984.3827
2984.3831
2984.3839
2984.3853
2984.3862
2984.3858
2984.3826
2984.3832
2984.3826
2984.382
2984.3821
2984.3826
2984.3834
2984.3848
2984.3859
2984.3856
2984.3826
2984.3832
2984.3827
2984.3821
2984.3823
2984.3827
2984.3835
2984.3849
2984.3861
2984.3858
2984.383
2984.3836
2984.3831
2984.3826
2984.3827
2984.3832
2984.384
2984.3855
2984.3866
2984.3863
2984.3837
2984.3844
2984.3839
2984.3834
2984.3835
2984.384
2984.3849
2984.3864
2984.3876
2984.3874
2984.3847
2984.3856
2984.3853
2984.3848
2984.3849
2984.3855
2984.3864
2984.3879
2984.3892
2984.389
2984.3854
2984.3863
2984.3862
2984.3859
2984.3861
2984.3866
2984.3876
2984.3892
2984.3903
2984.3896
2984.3854
2984.3858
2984.3858
2984.3856
2984.3858
2984.3863
2984.3874
2984.389
2984.3896
2984.3885
2984.5355
2984.5366
2984.5362
2984.5354
2984.5354
2984.5358
2984.5366
2984.5375
2984.5383
2984.5382
2984.5366
2984.5374
2984.5367
2984.5359
2984.536
2984.5365
2984.5372
2984.5384
2984.5392
2984.5387
2984.5362
2984.5367
2984.536
2984.5354
2984.5355
2984.536
2984.5368
2984.5381
2984.539
2984.5386
2984.5354
2984.5359
2984.5354
2984.5349
2984.535
2984.5354
2984.5363
2984.5377
2984.5387
2984.5384
2984.5354
2984.536
2984.5355
2984.535
2984.5351
2984.5356
2984.5364
2984.5378
2984.5389
2984.5387
2984.5358
2984.5365
2984.536
2984.5354
2984.5356
2984.5361
2984.537
2984.5384
2984.5395
2984.5392
2984.5366
2984.5372
2984.5368
2984.5363
2984.5364
2984.537
2984.5379
2984.5393
2984.5405
2984.5403
2984.5375
2984.5384
2984.5381
2984.5377
2984.5378
2984.5384
2984.5393
2984.5408
2984.5421
2984.5419
2984.5383
2984.5392
2984.539
2984.5387
2984.5389
2984.5395
2984.5405
2984.5421
2984.5432
2984.5425
2984.5382
2984.5387
2984.5386
2984.5384
2984.5387
2984.5392
2984.5403
2984.5419
2984.5425
2984.5414
2984.703
2984.7041
2984.7038
2984.7029
2984.7029
2984.7033
2984.7041
2984.7051
2984.7058
2984.7057
2984.7041
2984.7049
2984.7042
2984.7034
2984.7035
2984.704
2984.7048
2984.7059
2984.7067
2984.7062
2984.7038
2984.7042
2984.7035
2984.7029
2984.703
2984.7035
2984.7043
2984.7056
2984.7066
2984.7061
2984.7029
2984.7034
2984.7029
2984.7023
2984.7025
2984.7029
2984.7038
2984.7052
2984.7063
2984.7059
2984.7029
2984.7035
2984.703
2984.7025
2984.7026
2984.7031
2984.704
2984.7054
2984.7065
2984.7061
2984.7033
2984.704
2984.7035
2984.7029
2984.7031
2984.7037
2984.7045
2984.7059
2984.707
2984.7067
2984.7041
2984.7048
2984.7043
2984.7038
2984.704
2984.7045
2984.7055
2984.7069
2984.708
2984.7078
2984.7051
2984.7059
2984.7056
2984.7052
2984.7054
2984.7059
2984.7069
2984.7084
2984.7096
2984.7094
2984.7058
2984.7067
2984.7066
2984.7063
2984.7065
2984.707
2984.708
2984.7096
2984.7107
2984.71
2984.7057
2984.7062
2984.7061
2984.7059
2984.7061
2984.7067
2984.7078
2984.7094
2984.71
2984.7089
2984.8851
2984.8862
2984.8859
2984.8851
2984.885
2984.8854
2984.8862
2984.8872
2984.8879
2984.8878
2984.8862
2984.887
2984.8864
2984.8856
2984.8856
2984.886
2984.8868
2984.888
2984.8887
2984.8883
2984.8859
2984.8864
2984.8858
2984.885
2984.885
2984.8855
2984.8864
2984.8877
2984.8886
2984.8882
2984.8851
2984.8856
2984.885
2984.8844
2984.8844
2984.8849
2984.8858
2984.8872
2984.8883
2984.888
2984.885
2984.8856
2984.885
2984.8844
2984.8845
2984.8851
2984.8859
2984.8873
2984.8884
2984.8881
2984.8854
2984.886
2984.8855
2984.8849
2984.8851
2984.8856
2984.8865
2984.8879
2984.889
2984.8887
2984.8862
2984.8868
2984.8864
2984.8858
2984.8859
2984.8865
2984.8874
2984.8889
2984.89
2984.8897
2984.8872
2984.888
2984.8877
2984.8872
2984.8873
2984.8879
2984.8889
2984.8904
2984.8916
2984.8913
2984.8879
2984.8887
2984.8886
2984.8883
2984.8884
2984.889
2984.89
2984.8916
2984.8927
2984.8919
2984.8878
2984.8883
2984.8882
2984.888
2984.8881
2984.8887
2984.8897
2984.8913
2984.8919
2984.8908
2985.0815
2985.0826
2985.0825
2985.0819
2985.0817
2985.082
2985.0827
2985.0836
2985.0843
2985.0843
2985.0826
2985.0836
2985.0832
2985.0825
2985.0823
2985.0826
2985.0834
2985.0846
2985.0853
2985.0849
2985.0825
2985.0832
2985.0828
2985.0821
2985.0819
2985.0823
2985.0831
2985.0845
2985.0854
2985.085
2985.0819
2985.0825
2985.0821
2985.0814
2985.0813
2985.0817
2985.0825
2985.084
2985.0851
2985.0849
2985.0817
2985.0823
2985.0819
2985.0813
2985.0812
2985.0816
2985.0825
2985.084
2985.0851
2985.085
2985.082
2985.0826
2985.0823
2985.0817
2985.0816
2985.0821
2985.083
2985.0844
2985.0856
2985.0854
2985.0827
2985.0834
2985.0831
2985.0825
2985.0825
2985.083
2985.0839
2985.0854
2985.0865
2985.0865
2985.0836
2985.0846
2985.0845
2985.084
2985.084
2985.0844
2985.0854
2985.0869
2985.0881
2985.088
2985.0843
2985.0853
2985.0854
2985.0851
2985.0851
2985.0856
2985.0865
2985.0881
2985.0893
2985.0887
2985.0843
2985.0849
2985.085
2985.0849
2985.085
2985.0854
2985.0865
2985.088
2985.0887
2985.0878
2985.2919
2985.2927
2985.2928
2985.2927
2985.2926
2985.2927
2985.2933
2985.2942
2985.2949
2985.2947
2985.2927
2985.2936
2985.2939
2985.2937
2985.2935
2985.2935
2985.2942
2985.2953
2985.296
2985.2954
2985.2928
2985.2939
2985.294
2985.2937
2985.2935
2985.2937
2985.2945
2985.2958
2985.2967
2985.2961
2985.2927
2985.2937
2985.2937
2985.2934
2985.2932
2985.2934
2985.2942
2985.2956
2985.2967
2985.2964
2985.2926
2985.2935
2985.2935
2985.2932
2985.2931
2985.2933
2985.2942
2985.2956
2985.2968
2985.2967
2985.2927
2985.2935
2985.2937
2985.2934
2985.2933
2985.2936
2985.2944
2985.2959
2985.2972
2985.2971
2985.2933
2985.2942
2985.2945
2985.2942
2985.2942
2985.2944
2985.2953
2985.2968
2985.298
2985.2981
2985.2942
2985.2953
2985.2958
2985.2956
2985.2956
2985.2959
2985.2968
2985.2983
2985.2996
2985.2997
2985.2949
2985.296
2985.2967
2985.2967
2985.2968
2985.2972
2985.298
2985.2996
2985.3008
2985.3004
2985.2947
2985.2954
2985.2961
2985.2964
2985.2967
2985.2971
2985.2981
2985.2997
2985.3004
2985.2996
2985.5167
2985.5162
2985.5155
2985.5163
2985.5166
2985.5166
2985.5171
2985.518
2985.5186
2985.5183
2985.5162
2985.5153
2985.516
2985.5167
2985.5168
2985.5167
2985.5171
2985.518
2985.5183
2985.5173
2985.5155
2985.516
2985.5166
2985.5172
2985.5173
2985.5174
2985.5182
2985.5194
2985.52
2985.5188
2985.5163
2985.5167
2985.5172
2985.5177
2985.5178
2985.5179
2985.5186
2985.5199
2985.5206
2985.5195
2985.5166
2985.5168
2985.5173
2985.5178
2985.518
2985.5181
2985.5188
2985.5202
2985.5211
2985.52
2985.5166
2985.5167
2985.5174
2985.5179
2985.5181
2985.5182
2985.519
2985.5205
2985.5215
2985.5206
2985.5171
2985.5171
2985.5182
2985.5186
2985.5188
2985.519
2985.5198
2985.5213
2985.5224
2985.5216
2985.518
2985.518
2985.5194
2985.5199
2985.5202
2985.5205
2985.5213
2985.5228
2985.5239
2985.5231
2985.5186
2985.5183
2985.52
2985.5206
2985.5211
2985.5215
2985.5224
2985.5239
2985.5249
2985.5236
2985.5183
2985.5173
2985.5188
2985.5195
2985.52
2985.5206
2985.5216
2985.5231
2985.5236
2985.5217
2985.7576
2985.7549
2985.7516
2985.753
2985.7539
2985.754
2985.7545
2985.7557
2985.7567
2985.7568
2985.7549
2985.7496
2985.7489
2985.7504
2985.7507
2985.7504
2985.7503
2985.7505
2985.7502
2985.7488
2985.7516
2985.7489
2985.7484
2985.7498
2985.7505
2985.7507
2985.7513
2985.7523
2985.7524
2985.7505
2985.753
2985.7504
2985.7498
2985.751
2985.7516
2985.7517
2985.7524
2985.7535
2985.7537
2985.7521
2985.7539
2985.7507
2985.7505
2985.7516
2985.7521
2985.7523
2985.753
2985.7541
2985.7544
2985.7527
2985.754
2985.7504
2985.7507
2985.7517
2985.7523
2985.7525
2985.7532
2985.7544
2985.7548
2985.7531
2985.7545
2985.7503
2985.7513
2985.7524
2985.753
2985.7532
2985.7539
2985.7552
2985.7556
2985.754
2985.7557
2985.7505
2985.7523
2985.7535
2985.7541
2985.7544
2985.7552
2985.7564
2985.7569
2985.7552
2985.7567
2985.7502
2985.7524
2985.7537
2985.7544
2985.7548
2985.7556
2985.7569
2985.7573
2985.755
2985.7568
2985.7488
2985.7505
2985.7521
2985.7527
2985.7531
2985.754
2985.7552
2985.755
2985.7519
2986.0202
2986.0177
2986.0107
2986.0121
2986.0133
2986.0141
2986.0157
2986.0191
2986.0238
2986.0283
2986.0177
2986.0096
2986.0054
2986.0066
2986.0067
2986.0057
2986.0043
2986.003
2986.003
2986.0054
2986.0107
2986.0054
2986.0019
2986.0032
2986.004
2986.0042
2986.0042
2986.0038
2986.0033
2986.0036
2986.0121
2986.0066
2986.0032
2986.0044
2986.0051
2986.0055
2986.006
2986.0063
2986.0063
2986.0068
2986.0133
2986.0067
2986.004
2986.0051
2986.0057
2986.006
2986.0066
2986.0072
2986.0075
2986.0089
2986.0141
2986.0057
2986.0042
2986.0055
2986.006
2986.0062
2986.0068
2986.0075
2986.008
2986.0102
2986.0157
2986.0043
2986.0042
2986.006
2986.0066
2986.0068
2986.0073
2986.008
2986.0086
2986.0113
2986.0191
2986.003
2986.0038
2986.0063
2986.0072
2986.0075
2986.008
2986.0086
2986.0093
2986.0121
2986.0238
2986.003
2986.0033
2986.0063
2986.0075
2986.008
2986.0086
2986.0093
2986.0101
2986.0128
2986.0283
2986.0054
2986.0036
2986.0068
2986.0089
2986.0102
2986.0113
2986.0121
2986.0128
2986.0163
2986.3126
2986.3103
2986.304
2986.3058
2986.308
2986.3117
2986.3195
2986.3349
2986.3619
2986.3958
2986.3103
2986.3057
2986.3006
2986.3011
2986.3008
2986.2995
2986.2985
2986.3018
2986.3213
2986.3704
2986.304
2986.3006
2986.2963
2986.2973
2986.2975
2986.2968
2986.2946
2986.2927
2986.3023
2986.342
2986.3058
2986.3011
2986.2973
2986.2985
2986.2992
2986.2994
2986.2984
2986.2961
2986.3005
2986.3283
2986.308
2986.3008
2986.2975
2986.2992
2986.2997
2986.3001
2986.3
2986.2985
2986.3018
2986.3223
2986.3117
2986.2995
2986.2968
2986.2994
2986.3001
2986.3005
2986.3005
2986.2997
2986.3033
2986.3199
2986.3195
2986.2985
2986.2946
2986.2984
2986.3
2986.3005
2986.3005
2986.3
2986.3038
2986.3185
2986.3349
2986.3018
2986.2927
2986.2961
2986.2985
2986.2997
2986.3
2986.2996
2986.3039
2986.318
2986.3619
2986.3213
2986.3023
2986.3005
2986.3018
2986.3033
2986.3038
2986.3039
2986.3095
2986.3257
2986.3958
2986.3704
2986.342
2986.3283
2986.3223
2986.3199
2986.3185
2986.318
2986.3257
2986.3471
2986.6504
2986.6359
2986.6388
2986.6373
2986.6348
2986.6309
2986.622
2986.6055
2986.5825
2986.5576
2986.6359
2986.6331
2986.6329
2986.6327
2986.6342
2986.6374
2986.6403
2986.6403
2986.6339
2986.604
2986.6388
2986.6329
2986.632
2986.6313
2986.6313
2986.6324
2986.634
2986.6362
2986.6398
2986.6236
2986.6373
2986.6327
2986.6313
2986.6307
2986.6306
2986.631
2986.6312
2986.6324
2986.639
2986.633
2986.6348
2986.6342
2986.6313
2986.6306
2986.6307
2986.6312
2986.6308
2986.631
2986.6381
2986.6383
2986.6309
2986.6374
2986.6324
2986.631
2986.6312
2986.6319
2986.6315
2986.6311
2986.6379
2986.6412
2986.622
2986.6403
2986.634
2986.6312
2986.6308
2986.6315
2986.6313
2986.6305
2986.6367
2986.6412
2986.6055
2986.6403
2986.6362
2986.6324
2986.631
2986.6311
2986.6305
2986.6295
2986.6352
2986.6411
2986.5825
2986.6339
2986.6398
2986.639
2986.6381
2986.6379
2986.6367
2986.6352
2986.6418
2986.6513
2986.5576
2986.604
2986.6236
2986.633
2986.6383
2986.6412
2986.6412
2986.6411
2986.6513
2986.6571
2986.9643
2986.9707
2986.9798
2986.9743
2986.9712
2986.9691
2986.9629
2986.9495
2986.9259
2986.8845
2986.9707
2986.9806
2986.9843
2986.9805
2986.9808
2986.9837
2986.9863
2986.9859
2986.9743
2986.9201
2986.9798
2986.9843
2986.9876
2986.9838
2986.9833
2986.985
2986.9875
2986.9907
2986.9889
2986.948
2986.9743
2986.9805
2986.9838
2986.9801
2986.9794
2986.9803
2986.9816
2986.9843
2986.9869
2986.9613
2986.9712
2986.9808
2986.9833
2986.9794
2986.9787
2986.9795
2986.9801
2986.9816
2986.9844
2986.9686
2986.9691
2986.9837
2986.985
2986.9803
2986.9795
2986.9806
2986.981
2986.9817
2986.9835
2986.9727
2986.9629
2986.9863
2986.9875
2986.9816
2986.9801
2986.981
2986.9817
2986.9822
2986.9831
2986.9745
2986.9495
2986.9859
2986.9907
2986.9843
2986.9816
2986.9817
2986.9822
2986.9824
2986.9826
2986.9756
2986.9259
2986.9743
2986.9889
2986.9869
2986.9844
2986.9835
2986.9831
2986.9826
2986.9823
2986.9765
2986.8845
2986.9201
2986.948
2986.9613
2986.9686
2986.9727
2986.9745
2986.9756
2986.9765
2986.9622
2987.3004
2987.324
2987.3272
2987.3232
2987.3241
2987.3288
2987.3373
2987.3522
2987.3742
2987.395
2987.324
2987.3393
2987.3403
2987.336
2987.3347
2987.3342
2987.3341
2987.3368
2987.3473
2987.3741
2987.3272
2987.3403
2987.3418
2987.3384
2987.3379
2987.3383
2987.3381
2987.3375
2987.3384
2987.3543
2987.3232
2987.336
2987.3384
2987.3352
2987.3349
2987.3359
2987.3368
2987.3366
2987.3337
2987.3403
2987.3241
2987.3347
2987.3379
2987.3349
2987.3346
2987.3356
2987.3369
2987.3375
2987.3331
2987.3333
2987.3288
2987.3342
2987.3383
2987.3359
2987.3356
2987.3364
2987.338
2987.3391
2987.3344
2987.3307
2987.3373
2987.3341
2987.3381
2987.3368
2987.3369
2987.338
2987.3396
2987.3411
2987.3366
2987.3311
2987.3522
2987.3368
2987.3375
2987.3366
2987.3375
2987.3391
2987.3411
2987.343
2987.3387
2987.3321
2987.3742
2987.3473
2987.3384
2987.3337
2987.3331
2987.3344
2987.3366
2987.3387
2987.3341
2987.3258
2987.395
2987.3741
2987.3543
2987.3403
2987.3333
2987.3307
2987.3311
2987.3321
2987.3258
2987.3189
2987.6782
2987.6809
2987.6793
2987.6779
2987.678
2987.6784
2987.6786
2987.6777
2987.6755
2987.6825
2987.6809
2987.6833
2987.6817
2987.6806
2987.6808
2987.6816
2987.6827
2987.6825
2987.6771
2987.6816
2987.6793
2987.6817
2987.6802
2987.6791
2987.6793
2987.6802
2987.6819
2987.6832
2987.6779
2987.6789
2987.6779
2987.6806
2987.6791
2987.678
2987.6781
2987.6789
2987.6808
2987.683
2987.6786
2987.6766
2987.678
2987.6808
2987.6793
2987.6781
2987.6783
2987.6789
2987.6807
2987.6833
2987.6797
2987.6754
2987.6784
2987.6816
2987.6802
2987.6789
2987.6789
2987.6795
2987.6812
2987.684
2987.681
2987.6755
2987.6786
2987.6827
2987.6819
2987.6808
2987.6807
2987.6812
2987.683
2987.6858
2987.6833
2987.6773
2987.6777
2987.6825
2987.6832
2987.683
2987.6833
2987.684
2987.6858
2987.6886
2987.6862
2987.6792
2987.6755
2987.6771
2987.6779
2987.6786
2987.6797
2987.681
2987.6833
2987.6862
2987.6828
2987.673
2987.6825
2987.6816
2987.6789
2987.6766
2987.6754
2987.6755
2987.6773
2987.6792
2987.673
2987.6665
2988.01
2988.0081
2988.0076
2988.0071
2988.0073
2988.008
2988.0094
2988.011
2988.0093
2988.0086
2988.0081
2988.0071
2988.0064
2988.006
2988.0061
2988.0066
2988.0083
2988.0109
2988.0095
2988.0087
2988.0076
2988.0064
2988.0058
2988.0055
2988.0055
2988.0058
2988.0075
2988.0106
2988.0099
2988.0086
2988.0071
2988.006
2988.0055
2988.0052
2988.0053
2988.0055
2988.007
2988.0103
2988.0102
2988.0084
2988.0073
2988.0061
2988.0055
2988.0053
2988.0054
2988.0057
2988.0071
2988.0103
2988.0107
2988.0084
2988.008
2988.0066
2988.0058
2988.0055
2988.0057
2988.006
2988.0074
2988.0107
2988.0114
2988.0089
2988.0094
2988.0083
2988.0075
2988.007
2988.0071
2988.0074
2988.0089
2988.0122
2988.0133
2988.0109
2988.011
2988.0109
2988.0106
2988.0103
2988.0103
2988.0107
2988.0122
2988.0156
2988.0168
2988.0138
2988.0093
2988.0095
2988.0099
2988.0102
2988.0107
2988.0114
2988.0133
2988.0168
2988.017
2988.0109
2988.0086
2988.0087
2988.0086
2988.0084
2988.0084
2988.0089
2988.0109
2988.0138
2988.0109
2988.0057
2988.3394
2988.34
2988.3401
2988.3396
2988.3396
2988.3399
2988.3408
2988.3428
2988.3439
2988.3441
2988.34
2988.3405
2988.3403
2988.3399
2988.3399
2988.34
2988.3408
2988.3431
2988.3443
2988.3444
2988.3401
2988.3403
2988.3402
2988.3399
2988.3399
2988.3399
2988.3407
2988.3431
2988.3445
2988.3446
2988.3396
2988.3399
2988.3399
2988.3397
2988.3398
2988.3398
2988.3405
2988.3429
2988.3446
2988.3447
2988.3396
2988.3399
2988.3399
2988.3398
2988.34
2988.3401
2988.3407
2988.3431
2988.3449
2988.3448
2988.3399
2988.34
2988.3399
2988.3398
2988.3401
2988.3402
2988.3409
2988.3432
2988.3452
2988.3452
2988.3408
2988.3408
2988.3407
2988.3405
2988.3407
2988.3409
2988.3417
2988.3441
2988.3464
2988.3468
2988.3428
2988.3431
2988.3431
2988.3429
2988.3431
2988.3432
2988.3441
2988.3468
2988.3493
2988.3496
2988.3439
2988.3443
2988.3445
2988.3446
2988.3449
2988.3452
2988.3464
2988.3493
2988.3514
2988.3496
2988.3441
2988.3444
2988.3446
2988.3447
2988.3448
2988.3452
2988.3468
2988.3496
2988.3496
2988.347
2988.6886
2988.69
2988.6899
2988.6894
2988.6894
2988.6896
2988.69
2988.6911
2988.6922
2988.6926
2988.69
2988.6909
2988.6906
2988.6902
2988.6903
2988.6904
2988.6907
2988.6919
2988.693
2988.6931
2988.6899
2988.6906
2988.6903
2988.6901
2988.6902
2988.6903
2988.6906
2988.6919
2988.6931
2988.6933
2988.6894
2988.6902
2988.6901
2988.6898
2988.69
2988.6901
2988.6905
2988.6918
2988.6931
2988.6933
2988.6894
2988.6903
2988.6902
2988.69
2988.6902
2988.6904
2988.6907
2988.6921
2988.6934
2988.6935
2988.6896
2988.6904
2988.6903
2988.6901
2988.6904
2988.6906
2988.691
2988.6923
2988.6936
2988.6938
2988.69
2988.6907
2988.6906
2988.6905
2988.6907
2988.691
2988.6914
2988.6927
2988.6943
2988.6948
2988.6911
2988.6919
2988.6919
2988.6918
2988.6921
2988.6923
2988.6927
2988.6943
2988.6962
2988.6969
2988.6922
2988.693
2988.6931
2988.6931
2988.6934
2988.6936
2988.6943
2988.6962
2988.698
2988.6977
2988.6926
2988.6931
2988.6933
2988.6933
2988.6935
2988.6938
2988.6948
2988.6969
2988.6977
2988.6966
2989.0511
2989.052
2989.0518
2989.0513
2989.0514
2989.0517
2989.052
2989.0527
2989.0533
2989.0534
2989.052
2989.0526
2989.0521
2989.0518
2989.052
2989.0523
2989.0527
2989.0534
2989.054
2989.0538
2989.0518
2989.0521
2989.0518
2989.0515
2989.0517
2989.052
2989.0524
2989.0533
2989.0541
2989.0539
2989.0513
2989.0518
2989.0515
2989.0512
2989.0514
2989.0518
2989.0522
2989.0532
2989.054
2989.0539
2989.0514
2989.052
2989.0517
2989.0514
2989.0517
2989.0521
2989.0525
2989.0535
2989.0543
2989.0542
2989.0517
2989.0523
2989.052
2989.0518
2989.0521
2989.0525
2989.0529
2989.0539
2989.0546
2989.0545
2989.052
2989.0527
2989.0524
2989.0522
2989.0525
2989.0529
2989.0534
2989.0543
2989.0552
2989.0552
2989.0527
2989.0534
2989.0533
2989.0532
2989.0535
2989.0539
2989.0543
2989.0553
2989.0564
2989.0567
2989.0533
2989.054
2989.0541
2989.054
2989.0543
2989.0546
2989.0552
2989.0564
2989.0577
2989.0574
2989.0534
2989.0538
2989.0539
2989.0539
2989.0542
2989.0545
2989.0552
2989.0567
2989.0574
2989.0567
2989.4225
2989.4232
2989.4229
2989.4225
2989.4226
2989.423
2989.4235
2989.4242
2989.4247
2989.4246
2989.4232
2989.4236
2989.4232
2989.4228
2989.423
2989.4234
2989.424
2989.4248
2989.4253
2989.425
2989.4229
2989.4232
2989.4228
2989.4225
2989.4227
2989.4231
2989.4237
2989.4246
2989.4253
2989.425
2989.4225
2989.4228
2989.4225
2989.4222
2989.4224
2989.4228
2989.4235
2989.4245
2989.4252
2989.425
2989.4226
2989.423
2989.4227
2989.4224
2989.4226
2989.4231
2989.4237
2989.4247
2989.4255
2989.4253
2989.423
2989.4234
2989.4231
2989.4228
2989.4231
2989.4236
2989.4242
2989.4252
2989.4259
2989.4257
2989.4235
2989.424
2989.4237
2989.4235
2989.4237
2989.4242
2989.4249
2989.4258
2989.4266
2989.4264
2989.4242
2989.4248
2989.4246
2989.4245
2989.4247
2989.4252
2989.4258
2989.4268
2989.4276
2989.4276
2989.4247
2989.4253
2989.4253
2989.4252
2989.4255
2989.4259
2989.4266
2989.4276
2989.4285
2989.4281
2989.4246
2989.425
2989.425
2989.425
2989.4253
2989.4257
2989.4264
2989.4276
2989.4281
2989.4274
2989.8034
2989.8041
2989.8039
2989.8035
2989.8036
2989.804
2989.8046
2989.8053
2989.8058
2989.8058
2989.8041
2989.8046
2989.8042
2989.8038
2989.804
2989.8044
2989.805
2989.8058
2989.8064
2989.8061
2989.8039
2989.8042
2989.8039
2989.8035
2989.8037
2989.8041
2989.8047
2989.8057
2989.8064
2989.8061
2989.8035
2989.8038
2989.8035
2989.8032
2989.8034
2989.8038
2989.8044
2989.8055
2989.8062
2989.8061
2989.8036
2989.804
2989.8037
2989.8034
2989.8036
2989.804
2989.8046
2989.8057
2989.8065
2989.8063
2989.804
2989.8044
2989.8041
2989.8038
2989.804
2989.8044
2989.8051
2989.8062
2989.8069
2989.8067
2989.8046
2989.805
2989.8047
2989.8044
2989.8046
2989.8051
2989.8058
2989.8068
2989.8076
2989.8075
2989.8053
2989.8058
2989.8057
2989.8055
2989.8057
2989.8062
2989.8068
2989.8079
2989.8087
2989.8086
2989.8058
2989.8064
2989.8064
2989.8062
2989.8065
2989.8069
2989.8076
2989.8087
2989.8095
2989.809
2989.8058
2989.8061
2989.8061
2989.8061
2989.8063
2989.8067
2989.8075
2989.8086
2989.809
2989.8083
2990.1943
2990.195
2990.1948
2990.1944
2990.1944
2990.1948
2990.1953
2990.196
2990.1966
2990.1965
2990.195
2990.1955
2990.1951
2990.1947
2990.1948
2990.1952
2990.1958
2990.1966
2990.1971
2990.1969
2990.1948
2990.1951
2990.1948
2990.1945
2990.1946
2990.1949
2990.1955
2990.1965
2990.1971
2990.1968
2990.1944
2990.1947
2990.1945
2990.1942
2990.1943
2990.1947
2990.1953
2990.1962
2990.197
2990.1968
2990.1944
2990.1948
2990.1946
2990.1943