/*--------------------------------*- C++ -*----------------------------------*\
| =========                 |                                                 |
| \\      /  F ield         | OpenFOAM: The Open Source CFD Toolbox           |
|  \\    /   O peration     | Version:  v2106                                 |
|   \\  /    A nd           | Website:  www.openfoam.com                      |
|    \\/     M anipulation  |                                                 |
\*---------------------------------------------------------------------------*/
FoamFile
{
    version     2.0;
    format      ascii;
    arch        "LSB;label=32;scalar=64";
    class       volVectorField;
    location    "22.5";
    object      flux;
}
// * * * * * * * * * * * * * * * * * * * * * * * * * * * * * * * * * * * * * //

dimensions      [0 1 -1 1 0 0 0];

internalField   nonuniform List<vector> 
4000
(
(4.3962956e-07 4.3962956e-07 0.90857366)
(-1.2445676e-06 -8.2468024e-07 0.90857591)
(-1.7236296e-06 -3.0451459e-07 0.90856754)
(4.2780036e-07 -2.3942955e-07 0.90856825)
(4.1877279e-07 -2.4246019e-07 0.90856945)
(3.21426e-07 -2.5128629e-07 0.90857033)
(3.1901414e-07 -2.5930613e-07 0.90857111)
(3.5798289e-07 -2.5082643e-07 0.908572)
(3.1948365e-07 -1.9233239e-07 0.90857301)
(8.6962434e-08 -9.8287162e-08 0.9085736)
(-8.2468024e-07 -1.2445676e-06 0.90857591)
(-2.3607838e-06 -2.3607838e-06 0.90857097)
(-8.4575362e-07 -1.451993e-06 0.90856573)
(5.2088195e-07 -1.3412408e-06 0.90856687)
(4.0098767e-07 -1.3524948e-06 0.90856805)
(2.9615709e-07 -1.3826119e-06 0.90856887)
(3.1970395e-07 -1.4216342e-06 0.90856959)
(4.584435e-07 -1.4319932e-06 0.90857056)
(5.4829254e-07 -1.3008108e-06 0.90857208)
(1.8100766e-07 -9.5220813e-07 0.90857327)
(-3.0451459e-07 -1.7236296e-06 0.90856754)
(-1.451993e-06 -8.4575362e-07 0.90856573)
(-7.0408659e-07 -7.0408659e-07 0.90856114)
(5.2729854e-07 -6.9201047e-07 0.90856237)
(3.7740171e-07 -7.0740238e-07 0.90856352)
(2.5228664e-07 -7.4169022e-07 0.90856425)
(2.6963279e-07 -7.9866187e-07 0.90856482)
(4.7880626e-07 -8.7066496e-07 0.90856568)
(7.9926874e-07 -8.9788678e-07 0.90856746)
(3.1936424e-07 -7.6771526e-07 0.90856971)
(-2.3942954e-07 4.2780036e-07 0.90856825)
(-1.3412408e-06 5.2088194e-07 0.90856687)
(-6.9201047e-07 5.2729854e-07 0.90856237)
(5.1756617e-07 5.1756616e-07 0.90856361)
(3.5130792e-07 4.9706106e-07 0.90856472)
(2.048976e-07 4.6376454e-07 0.90856535)
(1.907292e-07 4.1255212e-07 0.90856577)
(3.5921859e-07 3.3511933e-07 0.90856637)
(6.5124225e-07 2.2844795e-07 0.90856781)
(2.6778868e-07 1.1489357e-07 0.90856971)
(-2.424602e-07 4.1877279e-07 0.90856945)
(-1.3524949e-06 4.0098767e-07 0.90856805)
(-7.0740237e-07 3.7740171e-07 0.90856352)
(4.9706106e-07 3.5130792e-07 0.90856472)
(3.236001e-07 3.2360008e-07 0.90856576)
(1.677777e-07 2.9275971e-07 0.90856631)
(1.4098758e-07 2.5700029e-07 0.90856662)
(2.9470209e-07 2.1426457e-07 0.90856707)
(5.7904298e-07 1.6489643e-07 0.90856832)
(2.4366132e-07 1.1871654e-07 0.90857003)
(-2.5128629e-07 3.2142599e-07 0.90857033)
(-1.3826119e-06 2.9615709e-07 0.90856887)
(-7.4169023e-07 2.5228663e-07 0.90856425)
(4.6376454e-07 2.048976e-07 0.90856535)
(2.9275971e-07 1.677777e-07 0.90856631)
(1.382978e-07 1.382978e-07 0.90856678)
(1.1223407e-07 1.1421394e-07 0.90856701)
(2.6711473e-07 9.4989837e-08 0.90856739)
(5.5569421e-07 8.0756924e-08 0.90856857)
(2.3700208e-07 7.2659861e-08 0.90857022)
(-2.5930613e-07 3.1901414e-07 0.90857111)
(-1.4216342e-06 3.1970394e-07 0.90856959)
(-7.9866186e-07 2.6963279e-07 0.90856482)
(4.1255213e-07 1.9072922e-07 0.90856577)
(2.5700029e-07 1.4098759e-07 0.90856662)
(1.1421394e-07 1.1223408e-07 0.90856701)
(9.7679619e-08 9.7679627e-08 0.90856719)
(2.6124507e-07 9.55798e-08 0.90856754)
(5.5671301e-07 1.0408067e-07 0.90856872)
(2.3826328e-07 1.1768195e-07 0.90857039)
(-2.5082642e-07 3.5798288e-07 0.908572)
(-1.4319932e-06 4.584435e-07 0.90857056)
(-8.7066495e-07 4.7880626e-07 0.90856568)
(3.3511933e-07 3.5921859e-07 0.90856637)
(2.1426457e-07 2.9470208e-07 0.90856707)
(9.4989846e-08 2.6711473e-07 0.90856739)
(9.5579794e-08 2.6124507e-07 0.90856754)
(2.7351577e-07 2.7351577e-07 0.90856791)
(5.7779636e-07 3.006113e-07 0.90856914)
(2.460696e-07 3.3219583e-07 0.90857088)
(-1.9233239e-07 3.1948365e-07 0.90857301)
(-1.3008108e-06 5.4829254e-07 0.90857208)
(-8.9788677e-07 7.9926874e-07 0.90856746)
(2.2844794e-07 6.5124224e-07 0.90856781)
(1.6489643e-07 5.7904298e-07 0.90856832)
(8.0756925e-08 5.5569421e-07 0.90856857)
(1.0408066e-07 5.56713e-07 0.90856872)
(3.006113e-07 5.7779636e-07 0.90856914)
(6.1539306e-07 6.1539306e-07 0.90857047)
(2.5931963e-07 6.5262511e-07 0.90857232)
(-9.8287162e-08 8.6962438e-08 0.9085736)
(-9.5220813e-07 1.8100767e-07 0.90857327)
(-7.6771526e-07 3.1936424e-07 0.90856971)
(1.1489358e-07 2.6778868e-07 0.90856971)
(1.1871654e-07 2.4366132e-07 0.90857003)
(7.2659863e-08 2.3700208e-07 0.90857022)
(1.1768194e-07 2.3826328e-07 0.90857039)
(3.3219583e-07 2.460696e-07 0.90857088)
(6.5262511e-07 2.5931964e-07 0.90857232)
(2.7089097e-07 2.7089097e-07 0.90857422)
(9.3008986e-07 9.3008986e-07 1.3503165)
(-5.4627279e-06 -2.4742193e-06 1.3503169)
(-6.3380796e-06 -9.0009546e-07 1.3503092)
(1.5744964e-06 -6.6279826e-07 1.35031)
(1.8646355e-06 -6.6832189e-07 1.3503115)
(1.5389653e-06 -7.0870772e-07 1.3503126)
(1.5687768e-06 -7.4846872e-07 1.3503137)
(1.7892299e-06 -6.9539031e-07 1.3503151)
(1.4472131e-06 -3.5806451e-07 1.3503169)
(3.3181091e-07 -3.6401768e-08 1.3503172)
(-2.4742193e-06 -5.4627279e-06 1.3503169)
(-8.2080057e-06 -8.2080057e-06 1.3503125)
(-3.6209484e-06 -5.2767314e-06 1.3503072)
(1.9221567e-06 -4.8181819e-06 1.3503083)
(1.7957713e-06 -4.8475695e-06 1.3503098)
(1.4187451e-06 -4.9906448e-06 1.3503109)
(1.588753e-06 -5.1849041e-06 1.3503119)
(2.3748361e-06 -5.212672e-06 1.3503134)
(2.4356959e-06 -4.438663e-06 1.3503162)
(6.5347366e-07 -2.9963632e-06 1.3503176)
(-9.0009546e-07 -6.3380797e-06 1.3503092)
(-5.2767313e-06 -3.6209484e-06 1.3503072)
(-2.9482561e-06 -2.9482561e-06 1.3503026)
(2.0036582e-06 -2.8334412e-06 1.3503039)
(1.6921726e-06 -2.8939766e-06 1.3503054)
(1.2016308e-06 -3.0627193e-06 1.3503063)
(1.3467497e-06 -3.3459701e-06 1.350307)
(2.5354709e-06 -3.6894312e-06 1.3503083)
(3.6635218e-06 -3.7264398e-06 1.3503115)
(1.2933441e-06 -3.0559836e-06 1.3503142)
(-6.6279826e-07 1.5744964e-06 1.35031)
(-4.8181819e-06 1.9221567e-06 1.3503083)
(-2.8334412e-06 2.0036582e-06 1.3503039)
(1.9764363e-06 1.9764362e-06 1.3503052)
(1.5664932e-06 1.8789208e-06 1.3503066)
(9.6675157e-07 1.7139306e-06 1.3503074)
(9.6204098e-07 1.4598168e-06 1.3503079)
(1.9943664e-06 1.0822905e-06 1.3503088)
(3.0691435e-06 6.0367979e-07 1.3503116)
(1.1004445e-06 1.4132426e-07 1.3503139)
(-6.6832189e-07 1.8646355e-06 1.3503115)
(-4.8475695e-06 1.7957713e-06 1.3503098)
(-2.8939766e-06 1.6921726e-06 1.3503054)
(1.8789208e-06 1.5664932e-06 1.3503066)
(1.429667e-06 1.429667e-06 1.3503079)
(7.8252684e-07 1.2770907e-06 1.3503086)
(7.1510955e-07 1.0999574e-06 1.3503089)
(1.6793338e-06 8.8784626e-07 1.3503096)
(2.7225556e-06 6.4759655e-07 1.3503121)
(9.8510711e-07 4.2197346e-07 1.3503142)
(-7.0870772e-07 1.5389654e-06 1.3503126)
(-4.9906448e-06 1.4187451e-06 1.3503109)
(-3.0627193e-06 1.2016308e-06 1.3503063)
(1.7139306e-06 9.6675157e-07 1.3503074)
(1.2770907e-06 7.8252683e-07 1.3503086)
(6.3704196e-07 6.3704197e-07 1.3503091)
(5.7279653e-07 5.1914805e-07 1.3503093)
(1.5420056e-06 4.2543066e-07 1.3503099)
(2.6032707e-06 3.5686238e-07 1.3503123)
(9.5002908e-07 3.1661186e-07 1.3503143)
(-7.4846872e-07 1.5687768e-06 1.3503137)
(-5.1849041e-06 1.5887529e-06 1.3503119)
(-3.3459701e-06 1.3467497e-06 1.350307)
(1.4598168e-06 9.6204098e-07 1.3503079)
(1.0999574e-06 7.1510955e-07 1.3503089)
(5.1914806e-07 5.7279653e-07 1.3503093)
(5.0349824e-07 5.0349824e-07 1.3503095)
(1.5170482e-06 4.9859041e-07 1.35031)
(2.6137368e-06 5.4972836e-07 1.3503125)
(9.5827342e-07 6.3156951e-07 1.3503145)
(-6.9539032e-07 1.7892298e-06 1.3503151)
(-5.212672e-06 2.3748361e-06 1.3503134)
(-3.6894312e-06 2.5354709e-06 1.3503083)
(1.0822905e-06 1.9943664e-06 1.3503088)
(8.8784626e-07 1.6793339e-06 1.3503096)
(4.2543066e-07 1.5420056e-06 1.3503099)
(4.9859041e-07 1.5170482e-06 1.35031)
(1.5882357e-06 1.5882357e-06 1.3503106)
(2.7362498e-06 1.7390139e-06 1.3503132)
(1.0045898e-06 1.9173081e-06 1.3503153)
(-3.5806451e-07 1.4472131e-06 1.3503169)
(-4.438663e-06 2.4356959e-06 1.3503162)
(-3.7264398e-06 3.6635218e-06 1.3503115)
(6.036798e-07 3.0691435e-06 1.3503116)
(6.4759655e-07 2.7225556e-06 1.3503121)
(3.5686238e-07 2.6032707e-06 1.3503123)
(5.4972835e-07 2.6137368e-06 1.3503125)
(1.7390139e-06 2.7362498e-06 1.3503132)
(2.9428092e-06 2.9428092e-06 1.3503159)
(1.0771362e-06 3.0718209e-06 1.3503183)
(-3.6401768e-08 3.3181092e-07 1.3503172)
(-2.9963632e-06 6.5347367e-07 1.3503176)
(-3.0559836e-06 1.2933441e-06 1.3503142)
(1.4132427e-07 1.1004445e-06 1.3503139)
(4.2197346e-07 9.8510711e-07 1.3503142)
(3.1661185e-07 9.5002908e-07 1.3503143)
(6.3156951e-07 9.5827342e-07 1.3503145)
(1.9173081e-06 1.0045899e-06 1.3503153)
(3.0718209e-06 1.0771362e-06 1.3503183)
(1.0905977e-06 1.0905977e-06 1.3503201)
(7.1615699e-07 7.1615699e-07 1.3469262)
(-8.4604044e-06 -3.7683118e-06 1.3469259)
(-8.6201761e-06 -1.6623832e-06 1.3469212)
(2.6491422e-06 -1.3331145e-06 1.346922)
(3.0950354e-06 -1.3471898e-06 1.3469233)
(2.6079121e-06 -1.4275212e-06 1.3469243)
(2.7944021e-06 -1.520156e-06 1.3469253)
(3.4703721e-06 -1.4241248e-06 1.3469267)
(2.35605e-06 -6.0320805e-07 1.346929)
(2.883492e-07 2.2432804e-07 1.3469293)
(-3.7683118e-06 -8.4604044e-06 1.3469259)
(-1.2028214e-05 -1.2028214e-05 1.3469227)
(-4.9673806e-06 -8.0361302e-06 1.3469194)
(3.1219323e-06 -7.3785365e-06 1.3469205)
(2.9534254e-06 -7.439854e-06 1.3469217)
(2.3484628e-06 -7.7157123e-06 1.3469226)
(2.7994966e-06 -8.1218811e-06 1.3469234)
(4.8457939e-06 -8.2362153e-06 1.3469248)
(4.8287293e-06 -6.6055675e-06 1.3469285)
(1.1158853e-06 -3.8645748e-06 1.34693)
(-1.6623832e-06 -8.6201761e-06 1.3469212)
(-8.0361302e-06 -4.9673806e-06 1.3469194)
(-3.9704987e-06 -3.9704987e-06 1.3469165)
(3.2454184e-06 -3.7879089e-06 1.3469177)
(2.7578596e-06 -3.9007453e-06 1.3469189)
(1.925885e-06 -4.2127345e-06 1.3469197)
(2.2738991e-06 -4.7486874e-06 1.3469201)
(4.9866856e-06 -5.4289694e-06 1.3469213)
(6.7276904e-06 -5.5403005e-06 1.3469252)
(2.1156777e-06 -4.4909703e-06 1.3469278)
(-1.3331145e-06 2.6491421e-06 1.346922)
(-7.3785365e-06 3.1219323e-06 1.3469205)
(-3.7879089e-06 3.2454184e-06 1.3469177)
(3.1916856e-06 3.1916856e-06 1.3469189)
(2.5285998e-06 3.0130261e-06 1.3469201)
(1.5005207e-06 2.7141e-06 1.3469206)
(1.5832617e-06 2.2562931e-06 1.3469209)
(4.0541808e-06 1.5832933e-06 1.3469216)
(5.7667285e-06 7.7403005e-07 1.3469251)
(1.8154389e-06 3.3385068e-08 1.3469275)
(-1.3471898e-06 3.0950354e-06 1.3469233)
(-7.439854e-06 2.9534254e-06 1.3469217)
(-3.9007453e-06 2.7578596e-06 1.3469189)
(3.0130261e-06 2.5285998e-06 1.3469201)
(2.280274e-06 2.280274e-06 1.3469211)
(1.169152e-06 2.0052958e-06 1.3469216)
(1.1430924e-06 1.6887853e-06 1.3469216)
(3.5044226e-06 1.3136532e-06 1.3469221)
(5.1777822e-06 9.0090873e-07 1.3469254)
(1.6219143e-06 5.2173321e-07 1.3469275)
(-1.4275212e-06 2.6079121e-06 1.3469243)
(-7.7157122e-06 2.3484628e-06 1.3469226)
(-4.2127345e-06 1.925885e-06 1.3469197)
(2.7141e-06 1.5005207e-06 1.3469206)
(2.0052958e-06 1.169152e-06 1.3469216)
(9.0903212e-07 9.0903211e-07 1.3469219)
(8.9161902e-07 7.0238206e-07 1.3469218)
(3.2663042e-06 5.448148e-07 1.3469223)
(4.9748085e-06 4.4064116e-07 1.3469255)
(1.5626552e-06 3.9162367e-07 1.3469275)
(-1.520156e-06 2.7944021e-06 1.3469253)
(-8.1218811e-06 2.7994966e-06 1.3469234)
(-4.7486874e-06 2.2738991e-06 1.3469201)
(2.2562931e-06 1.5832617e-06 1.3469209)
(1.6887853e-06 1.1430924e-06 1.3469216)
(7.0238207e-07 8.9161903e-07 1.3469218)
(7.7887506e-07 7.7887506e-07 1.3469217)
(3.2426817e-06 7.9582236e-07 1.3469221)
(5.0245911e-06 9.3383747e-07 1.3469254)
(1.589236e-06 1.1494841e-06 1.3469275)
(-1.4241248e-06 3.4703721e-06 1.3469267)
(-8.2362153e-06 4.8457939e-06 1.3469248)
(-5.4289694e-06 4.9866857e-06 1.3469213)
(1.5832933e-06 4.0541808e-06 1.3469216)
(1.3136532e-06 3.5044226e-06 1.3469221)
(5.448148e-07 3.2663042e-06 1.3469223)
(7.9582236e-07 3.2426817e-06 1.3469221)
(3.4212666e-06 3.4212666e-06 1.3469227)
(5.3284702e-06 3.7784932e-06 1.3469261)
(1.7064196e-06 4.1861529e-06 1.3469285)
(-6.0320805e-07 2.35605e-06 1.346929)
(-6.6055675e-06 4.8287293e-06 1.3469285)
(-5.5403005e-06 6.7276904e-06 1.3469252)
(7.7403006e-07 5.7667285e-06 1.3469251)
(9.0090874e-07 5.1777822e-06 1.3469254)
(4.4064115e-07 4.9748085e-06 1.3469255)
(9.3383746e-07 5.0245911e-06 1.3469254)
(3.7784932e-06 5.3284702e-06 1.3469261)
(5.7894774e-06 5.7894774e-06 1.3469299)
(1.8610092e-06 5.4067523e-06 1.3469326)
(2.2432804e-07 2.8834921e-07 1.3469293)
(-3.8645748e-06 1.1158853e-06 1.34693)
(-4.4909703e-06 2.1156777e-06 1.3469278)
(3.3385074e-08 1.8154389e-06 1.3469275)
(5.2173321e-07 1.6219143e-06 1.3469275)
(3.9162367e-07 1.5626552e-06 1.3469275)
(1.1494841e-06 1.589236e-06 1.3469275)
(4.1861529e-06 1.7064196e-06 1.3469285)
(5.4067523e-06 1.8610092e-06 1.3469326)
(1.4512695e-06 1.4512695e-06 1.3469334)
(7.4089355e-07 7.4089354e-07 1.3416787)
(-1.0513173e-05 -4.6366716e-06 1.3416789)
(-1.0242666e-05 -2.0844741e-06 1.341675)
(3.7398149e-06 -1.6899554e-06 1.341676)
(4.1764015e-06 -1.7200572e-06 1.3416772)
(3.4819465e-06 -1.8490847e-06 1.341678)
(3.9084734e-06 -2.0206557e-06 1.3416787)
(5.5090203e-06 -1.9444167e-06 1.3416799)
(4.0284938e-06 -7.119122e-07 1.3416825)
(5.0962225e-07 4.7127772e-07 1.3416832)
(-4.6366716e-06 -1.0513173e-05 1.3416789)
(-1.4751224e-05 -1.4751224e-05 1.3416765)
(-5.8225921e-06 -9.8984191e-06 1.3416739)
(4.2864403e-06 -9.1094068e-06 1.3416751)
(3.9377075e-06 -9.2238992e-06 1.3416762)
(3.0310488e-06 -9.6517929e-06 1.3416769)
(3.7654754e-06 -1.0318492e-05 1.3416773)
(7.4721354e-06 -1.0628712e-05 1.3416785)
(7.6520355e-06 -8.2462801e-06 1.3416823)
(1.6928122e-06 -4.4709016e-06 1.341684)
(-2.0844741e-06 -1.0242666e-05 1.341675)
(-9.8984191e-06 -5.8225921e-06 1.3416739)
(-4.6008488e-06 -4.6008488e-06 1.3416716)
(4.4143348e-06 -4.3920024e-06 1.3416728)
(3.6340154e-06 -4.573786e-06 1.3416739)
(2.3873533e-06 -5.0385686e-06 1.3416744)
(2.9315544e-06 -5.8388796e-06 1.3416746)
(7.5812326e-06 -6.8696857e-06 1.3416754)
(1.0186304e-05 -7.0313865e-06 1.3416795)
(3.0265412e-06 -5.6090448e-06 1.3416821)
(-1.6899554e-06 3.7398149e-06 1.341676)
(-9.1094069e-06 4.2864403e-06 1.3416751)
(-4.3920024e-06 4.4143348e-06 1.3416728)
(4.3135032e-06 4.3135032e-06 1.341674)
(3.2911413e-06 4.0433396e-06 1.341675)
(1.7659551e-06 3.6053976e-06 1.3416754)
(1.9343583e-06 2.9417502e-06 1.3416753)
(6.2796285e-06 1.9773822e-06 1.3416757)
(8.9126765e-06 8.683012e-07 1.3416794)
(2.6410401e-06 -1.0127375e-07 1.3416819)
(-1.7200572e-06 4.1764015e-06 1.3416772)
(-9.2238992e-06 3.9377075e-06 1.3416762)
(-4.573786e-06 3.6340154e-06 1.3416739)
(4.0433396e-06 3.2911412e-06 1.341675)
(2.9259099e-06 2.9259099e-06 1.3416759)
(1.2857639e-06 2.5269591e-06 1.3416762)
(1.303539e-06 2.0730223e-06 1.3416759)
(5.5077836e-06 1.5417753e-06 1.3416761)
(8.1076482e-06 9.7402695e-07 1.3416796)
(2.3801579e-06 4.6573394e-07 1.3416818)
(-1.8490847e-06 3.4819465e-06 1.341678)
(-9.6517929e-06 3.0310488e-06 1.3416769)
(-5.0385686e-06 2.3873533e-06 1.3416744)
(3.6053976e-06 1.7659551e-06 1.3416754)
(2.5269591e-06 1.2857639e-06 1.3416762)
(9.1306761e-07 9.130676e-07 1.3416763)
(9.4917451e-07 6.2462344e-07 1.3416759)
(5.1806331e-06 4.1729513e-07 1.341676)
(7.8366351e-06 3.0125166e-07 1.3416794)
(2.3021781e-06 2.712634e-07 1.3416816)
(-2.0206557e-06 3.9084734e-06 1.3416787)
(-1.0318492e-05 3.7654754e-06 1.3416773)
(-5.8388796e-06 2.9315544e-06 1.3416746)
(2.9417502e-06 1.9343583e-06 1.3416753)
(2.0730223e-06 1.303539e-06 1.3416759)
(6.2462344e-07 9.4917451e-07 1.3416759)
(8.0776651e-07 8.077665e-07 1.3416755)
(5.1844118e-06 8.7862803e-07 1.3416756)
(7.9616164e-06 1.1642563e-06 1.3416791)
(2.3601657e-06 1.6008464e-06 1.3416814)
(-1.9444167e-06 5.5090203e-06 1.3416799)
(-1.0628712e-05 7.4721354e-06 1.3416785)
(-6.8696857e-06 7.5812326e-06 1.3416754)
(1.9773822e-06 6.2796285e-06 1.3416757)
(1.5417753e-06 5.5077836e-06 1.3416761)
(4.1729512e-07 5.1806331e-06 1.341676)
(8.7862802e-07 5.1844118e-06 1.3416756)
(5.5371229e-06 5.5371229e-06 1.3416759)
(8.5588535e-06 6.2433611e-06 1.3416796)
(2.5932382e-06 7.0697396e-06 1.3416823)
(-7.1191221e-07 4.0284938e-06 1.3416825)
(-8.2462801e-06 7.6520355e-06 1.3416823)
(-7.0313865e-06 1.0186304e-05 1.3416795)
(8.683012e-07 8.9126765e-06 1.3416794)
(9.7402694e-07 8.1076482e-06 1.3416796)
(3.0125165e-07 7.8366351e-06 1.3416794)
(1.1642563e-06 7.9616165e-06 1.3416791)
(6.2433611e-06 8.5588535e-06 1.3416796)
(9.4942332e-06 9.4942332e-06 1.3416839)
(2.9110847e-06 7.9693443e-06 1.3416872)
(4.7127772e-07 5.0962225e-07 1.3416832)
(-4.4709016e-06 1.6928122e-06 1.341684)
(-5.6090448e-06 3.0265412e-06 1.3416821)
(-1.0127374e-07 2.6410401e-06 1.3416819)
(4.6573394e-07 2.3801579e-06 1.3416818)
(2.7126339e-07 2.3021781e-06 1.3416816)
(1.6008464e-06 2.3601657e-06 1.3416814)
(7.0697396e-06 2.5932382e-06 1.3416823)
(7.9693443e-06 2.9110847e-06 1.3416872)
(1.5766455e-06 1.5766455e-06 1.3416875)
(8.4309252e-07 8.4309252e-07 1.3346409)
(-1.2209486e-05 -5.3547092e-06 1.3346412)
(-1.157789e-05 -2.3778156e-06 1.3346377)
(4.8371097e-06 -1.9275431e-06 1.3346388)
(5.1216705e-06 -1.9775146e-06 1.3346399)
(4.1130779e-06 -2.1582954e-06 1.3346405)
(4.6995722e-06 -2.4159982e-06 1.3346409)
(7.2890059e-06 -2.3769137e-06 1.3346418)
(5.6842405e-06 -7.5555337e-07 1.3346441)
(7.75015e-07 7.1884491e-07 1.3346449)
(-5.3547092e-06 -1.2209486e-05 1.3346412)
(-1.7040847e-05 -1.7040847e-05 1.3346392)
(-6.4371415e-06 -1.138546e-05 1.3346369)
(5.4375611e-06 -1.0494047e-05 1.3346382)
(4.7755422e-06 -1.0674936e-05 1.3346392)
(3.4553525e-06 -1.1263881e-05 1.3346397)
(4.3716448e-06 -1.220656e-05 1.3346398)
(9.7796729e-06 -1.2744188e-05 1.3346406)
(1.0327878e-05 -9.6423565e-06 1.3346441)
(2.2494133e-06 -4.9590919e-06 1.3346456)
(-2.3778156e-06 -1.157789e-05 1.3346377)
(-1.138546e-05 -6.4371415e-06 1.3346369)
(-5.0310902e-06 -5.0310902e-06 1.334635)
(5.5476342e-06 -4.82099e-06 1.3346362)
(4.3518365e-06 -5.0851222e-06 1.3346372)
(2.5814541e-06 -5.710434e-06 1.3346375)
(3.2192655e-06 -6.7816087e-06 1.3346374)
(9.853209e-06 -8.1676089e-06 1.3346378)
(1.3469336e-05 -8.3674719e-06 1.3346415)
(3.8971914e-06 -6.590172e-06 1.334644)
(-1.9275431e-06 4.8371097e-06 1.3346388)
(-1.0494047e-05 5.4375611e-06 1.3346382)
(-4.82099e-06 5.5476342e-06 1.3346362)
(5.3835292e-06 5.3835292e-06 1.3346374)
(3.8860981e-06 5.0122593e-06 1.3346383)
(1.7588659e-06 4.4303214e-06 1.3346385)
(1.9144698e-06 3.5589126e-06 1.3346381)
(8.1938096e-06 2.3059999e-06 1.3346381)
(1.1905315e-05 9.140479e-07 1.3346415)
(3.4342802e-06 -2.6383613e-07 1.3346438)
(-1.9775146e-06 5.1216705e-06 1.3346399)
(-1.0674936e-05 4.7755422e-06 1.3346392)
(-5.0851222e-06 4.3518365e-06 1.3346372)
(5.0122593e-06 3.8860981e-06 1.3346383)
(3.3986288e-06 3.3986288e-06 1.3346391)
(1.1281075e-06 2.8740748e-06 1.3346391)
(1.094944e-06 2.284379e-06 1.3346386)
(7.2083444e-06 1.6025651e-06 1.3346384)
(1.08995e-05 8.9173247e-07 1.3346416)
(3.1119353e-06 2.6853873e-07 1.3346437)
(-2.1582954e-06 4.1130779e-06 1.3346405)
(-1.1263881e-05 3.4553525e-06 1.3346397)
(-5.710434e-06 2.5814541e-06 1.3346375)
(4.4303214e-06 1.7588659e-06 1.3346385)
(2.8740747e-06 1.1281075e-06 1.3346391)
(6.4461621e-07 6.4461621e-07 1.334639)
(6.4296024e-07 2.8010536e-07 1.3346384)
(6.8011631e-06 3.3556351e-08 1.3346381)
(1.0571289e-05 -7.8343652e-08 1.3346412)
(3.0188177e-06 -7.2234187e-08 1.3346433)
(-2.4159982e-06 4.6995722e-06 1.3346409)
(-1.220656e-05 4.3716448e-06 1.3346398)
(-6.7816087e-06 3.2192655e-06 1.3346374)
(3.5589126e-06 1.9144698e-06 1.3346381)
(2.284379e-06 1.094944e-06 1.3346386)
(2.8010535e-07 6.4296025e-07 1.3346384)
(4.8388412e-07 4.8388412e-07 1.3346376)
(6.8498954e-06 6.3019523e-07 1.3346374)
(1.079371e-05 1.1027317e-06 1.3346406)
(3.1160083e-06 1.8185197e-06 1.3346428)
(-2.3769137e-06 7.2890059e-06 1.3346418)
(-1.2744188e-05 9.7796729e-06 1.3346406)
(-8.1676089e-06 9.853209e-06 1.3346378)
(2.3059999e-06 8.1938096e-06 1.3346381)
(1.6025652e-06 7.2083443e-06 1.3346384)
(3.3556352e-08 6.8011631e-06 1.3346381)
(6.3019523e-07 6.8498954e-06 1.3346374)
(7.4200106e-06 7.4200106e-06 1.3346373)
(1.1759614e-05 8.5768711e-06 1.3346408)
(3.4960097e-06 9.998519e-06 1.3346434)
(-7.5555337e-07 5.6842405e-06 1.3346441)
(-9.6423565e-06 1.0327878e-05 1.3346441)
(-8.3674719e-06 1.3469336e-05 1.3346415)
(9.140479e-07 1.1905315e-05 1.3346415)
(8.9173248e-07 1.08995e-05 1.3346416)
(-7.8343645e-08 1.0571289e-05 1.3346412)
(1.1027317e-06 1.079371e-05 1.3346406)
(8.5768711e-06 1.1759614e-05 1.3346408)
(1.3372218e-05 1.3372218e-05 1.334645)
(4.0637736e-06 1.0626795e-05 1.3346484)
(7.1884492e-07 7.75015e-07 1.3346449)
(-4.9590919e-06 2.2494133e-06 1.3346456)
(-6.590172e-06 3.8971914e-06 1.334644)
(-2.6383613e-07 3.4342802e-06 1.3346438)
(2.6853873e-07 3.1119353e-06 1.3346437)
(-7.2234195e-08 3.0188177e-06 1.3346433)
(1.8185197e-06 3.1160083e-06 1.3346428)
(9.998519e-06 3.4960097e-06 1.3346434)
(1.0626795e-05 4.0637736e-06 1.3346484)
(1.6657271e-06 1.6657271e-06 1.3346486)
(9.7866362e-07 9.7866362e-07 1.3258878)
(-1.3667155e-05 -5.9803934e-06 1.3258882)
(-1.2688999e-05 -2.5968896e-06 1.3258851)
(5.9345412e-06 -2.0966827e-06 1.3258862)
(5.9438684e-06 -2.1687619e-06 1.3258873)
(4.5188097e-06 -2.4026991e-06 1.3258878)
(5.173562e-06 -2.7494345e-06 1.3258879)
(8.7217452e-06 -2.7561742e-06 1.3258884)
(7.1199974e-06 -7.6453365e-07 1.3258904)
(1.0056538e-06 9.7568443e-07 1.325891)
(-5.9803934e-06 -1.3667155e-05 1.3258882)
(-1.9030484e-05 -1.9030484e-05 1.3258865)
(-6.8634338e-06 -1.2614391e-05 1.3258845)
(6.5767328e-06 -1.16379e-05 1.3258858)
(5.4848438e-06 -1.1893456e-05 1.3258868)
(3.6478009e-06 -1.2648569e-05 1.3258871)
(4.6433493e-06 -1.387452e-05 1.325887)
(1.1699096e-05 -1.4657621e-05 1.3258874)
(1.2717785e-05 -1.0874884e-05 1.3258904)
(2.745872e-06 -5.3516618e-06 1.3258918)
(-2.5968896e-06 -1.2688999e-05 1.3258851)
(-1.2614391e-05 -6.8634338e-06 1.3258845)
(-5.2964161e-06 -5.296416e-06 1.3258829)
(6.6554763e-06 -5.1003055e-06 1.3258842)
(4.9331999e-06 -5.4559731e-06 1.3258851)
(2.5377453e-06 -6.247259e-06 1.3258852)
(3.1645105e-06 -7.5934462e-06 1.3258848)
(1.1721381e-05 -9.339421e-06 1.3258848)
(1.6425956e-05 -9.5844715e-06 1.3258881)
(4.6878016e-06 -7.4793627e-06 1.3258903)
(-2.0966827e-06 5.9345412e-06 1.3258862)
(-1.16379e-05 6.5767328e-06 1.3258858)
(-5.1003055e-06 6.6554763e-06 1.3258842)
(6.4171758e-06 6.4171758e-06 1.3258854)
(4.3378902e-06 5.9377364e-06 1.3258862)
(1.5103276e-06 5.2080917e-06 1.3258862)
(1.5511871e-06 4.1277345e-06 1.3258855)
(9.7080707e-06 2.5879815e-06 1.3258851)
(1.4577844e-05 9.2033627e-07 1.3258881)
(4.1492781e-06 -4.589613e-07 1.3258901)
(-2.1687619e-06 5.9438684e-06 1.3258873)
(-1.1893456e-05 5.4848438e-06 1.3258868)
(-5.4559731e-06 4.9331999e-06 1.3258851)
(5.9377364e-06 4.3378902e-06 1.3258862)
(3.7241159e-06 3.7241159e-06 1.3258869)
(7.2774338e-07 3.0727159e-06 1.3258867)
(5.4440034e-07 2.3485842e-06 1.3258859)
(8.5139834e-06 1.5200897e-06 1.3258853)
(1.3379013e-05 6.7309699e-07 1.3258881)
(3.7682698e-06 -5.8053506e-08 1.3258899)
(-2.4026991e-06 4.5188097e-06 1.3258878)
(-1.2648569e-05 3.6478009e-06 1.3258871)
(-6.247259e-06 2.5377453e-06 1.3258852)
(5.2080917e-06 1.5103276e-06 1.3258862)
(3.0727159e-06 7.2774338e-07 1.3258867)
(1.3479595e-07 1.3479596e-07 1.3258864)
(-1.4390364e-09 -3.0174655e-07 1.3258855)
(8.0325836e-06 -5.8078543e-07 1.3258848)
(1.2999701e-05 -6.7967281e-07 1.3258876)
(3.6618444e-06 -6.2992083e-07 1.3258893)
(-2.7494345e-06 5.1735619e-06 1.3258879)
(-1.387452e-05 4.6433493e-06 1.325887)
(-7.5934463e-06 3.1645105e-06 1.3258848)
(4.1277345e-06 1.5511871e-06 1.3258855)
(2.3485842e-06 5.4440034e-07 1.3258859)
(-3.0174655e-07 -1.4390364e-09 1.3258855)
(-1.7118104e-07 -1.7118105e-07 1.3258845)
(8.1360571e-06 6.2525442e-08 1.3258839)
(1.3329878e-05 7.4112626e-07 1.3258867)
(3.8014378e-06 1.7611803e-06 1.3258886)
(-2.7561742e-06 8.7217451e-06 1.3258884)
(-1.4657621e-05 1.1699096e-05 1.3258874)
(-9.339421e-06 1.1721381e-05 1.3258848)
(2.5879815e-06 9.7080707e-06 1.3258851)
(1.5200897e-06 8.5139834e-06 1.3258853)
(-5.8078544e-07 8.0325836e-06 1.3258848)
(6.2525442e-08 8.1360571e-06 1.3258839)
(8.9448908e-06 8.9448908e-06 1.3258834)
(1.4698356e-05 1.0600471e-05 1.3258865)
(4.3418804e-06 1.2701806e-05 1.3258889)
(-7.6453365e-07 7.1199974e-06 1.3258904)
(-1.0874884e-05 1.2717785e-05 1.3258904)
(-9.5844715e-06 1.6425956e-05 1.3258881)
(9.2033626e-07 1.4577844e-05 1.3258881)
(6.73097e-07 1.3379013e-05 1.3258881)
(-6.796728e-07 1.2999701e-05 1.3258876)
(7.4112625e-07 1.3329878e-05 1.3258867)
(1.0600471e-05 1.4698356e-05 1.3258865)
(1.7086793e-05 1.7086793e-05 1.3258904)
(5.2023283e-06 1.3180875e-05 1.3258937)
(9.7568443e-07 1.0056538e-06 1.325891)
(-5.3516618e-06 2.745872e-06 1.3258918)
(-7.4793627e-06 4.6878016e-06 1.3258903)
(-4.5896131e-07 4.1492781e-06 1.3258901)
(-5.8053514e-08 3.7682698e-06 1.3258899)
(-6.2992082e-07 3.6618444e-06 1.3258893)
(1.7611803e-06 3.8014378e-06 1.3258886)
(1.2701806e-05 4.3418804e-06 1.3258889)
(1.3180875e-05 5.2023283e-06 1.3258937)
(1.7379343e-06 1.7379343e-06 1.3258938)
(1.1470216e-06 1.1470216e-06 1.3155056)
(-1.4887857e-05 -6.5153649e-06 1.3155061)
(-1.3583203e-05 -2.7462347e-06 1.3155034)
(7.026476e-06 -2.2013316e-06 1.3155045)
(6.6506072e-06 -2.2970849e-06 1.3155055)
(4.7186801e-06 -2.5849865e-06 1.3155058)
(5.3569546e-06 -3.0225864e-06 1.3155057)
(9.8101194e-06 -3.08277e-06 1.3155059)
(8.2916852e-06 -7.4415208e-07 1.3155076)
(1.1794361e-06 1.242601e-06 1.315508)
(-6.5153649e-06 -1.4887857e-05 1.3155061)
(-2.072774e-05 -2.072774e-05 1.3155047)
(-7.1121547e-06 -1.3595326e-05 1.315503)
(7.7002006e-06 -1.2547819e-05 1.3155043)
(6.0751248e-06 -1.2883674e-05 1.3155052)
(3.6304279e-06 -1.3807948e-05 1.3155054)
(4.6102794e-06 -1.5321516e-05 1.315505)
(1.3227771e-05 -1.6366165e-05 1.315505)
(1.4779742e-05 -1.1954855e-05 1.3155077)
(3.1661893e-06 -5.6529063e-06 1.3155088)
(-2.7462347e-06 -1.3583203e-05 1.3155034)
(-1.3595326e-05 -7.1121547e-06 1.315503)
(-5.4032827e-06 -5.4032827e-06 1.3155016)
(7.7381284e-06 -5.2319407e-06 1.315503)
(5.3904783e-06 -5.6853254e-06 1.3155038)
(2.2808387e-06 -6.6458482e-06 1.3155038)
(2.7987374e-06 -8.2690324e-06 1.3155031)
(1.3176779e-05 -1.0379096e-05 1.3155027)
(1.9004944e-05 -1.0685922e-05 1.3155056)
(5.3807353e-06 -8.2854638e-06 1.3155075)
(-2.2013316e-06 7.026476e-06 1.3155045)
(-1.2547819e-05 7.7002006e-06 1.3155043)
(-5.2319407e-06 7.7381284e-06 1.315503)
(7.418158e-06 7.418158e-06 1.3155042)
(4.6612172e-06 6.8257531e-06 1.3155049)
(1.0467208e-06 5.9461252e-06 1.3155047)
(8.7703095e-07 4.6566358e-06 1.3155038)
(1.0810881e-05 2.8317238e-06 1.3155031)
(1.6873375e-05 8.9123844e-07 1.3155056)
(4.766495e-06 -6.8735512e-07 1.3155073)
(-2.2970849e-06 6.6506072e-06 1.3155055)
(-1.2883674e-05 6.0751248e-06 1.3155052)
(-5.6853254e-06 5.3904783e-06 1.3155038)
(6.8257531e-06 4.6612172e-06 1.3155049)
(3.9184455e-06 3.9184455e-06 1.3155055)
(1.1172135e-07 3.1394733e-06 1.3155052)
(-3.15664e-07 2.2820027e-06 1.3155041)
(9.4113823e-06 1.3095205e-06 1.3155032)
(1.5485865e-05 3.3027691e-07 1.3155055)
(4.3283396e-06 -5.0525909e-07 1.315507)
(-2.5849865e-06 4.7186801e-06 1.3155058)
(-1.3807948e-05 3.6304279e-06 1.3155054)
(-6.6458482e-06 2.2808387e-06 1.3155038)
(5.9461252e-06 1.0467207e-06 1.3155047)
(3.1394734e-06 1.1172134e-07 1.3155052)
(-5.897221e-07 -5.8972209e-07 1.3155047)
(-9.5292186e-07 -1.0957883e-06 1.3155035)
(8.8591554e-06 -1.4035792e-06 1.3155026)
(1.5058595e-05 -1.4852989e-06 1.3155048)
(4.209471e-06 -1.38936e-06 1.3155063)
(-3.0225864e-06 5.3569546e-06 1.3155057)
(-1.5321516e-05 4.6102794e-06 1.315505)
(-8.2690324e-06 2.7987374e-06 1.3155031)
(4.6566358e-06 8.7703097e-07 1.3155038)
(2.2820027e-06 -3.15664e-07 1.3155041)
(-1.0957883e-06 -9.5292185e-07 1.3155035)
(-1.1295211e-06 -1.1295211e-06 1.3155023)
(9.0218718e-06 -8.029832e-07 1.3155014)
(1.5500084e-05 8.8982578e-08 1.3155037)
(4.3922988e-06 1.4211743e-06 1.3155053)
(-3.08277e-06 9.8101194e-06 1.3155059)
(-1.6366165e-05 1.3227771e-05 1.315505)
(-1.0379096e-05 1.3176779e-05 1.3155027)
(2.8317238e-06 1.0810881e-05 1.3155031)
(1.3095205e-06 9.4113823e-06 1.3155032)
(-1.4035792e-06 8.8591554e-06 1.3155026)
(-8.0298321e-07 9.0218718e-06 1.3155014)
(1.0077659e-05 1.0077659e-05 1.3155006)
(1.7282753e-05 1.2250331e-05 1.3155032)
(5.0975989e-06 1.5065054e-05 1.3155053)
(-7.4415208e-07 8.2916851e-06 1.3155076)
(-1.1954855e-05 1.4779742e-05 1.3155077)
(-1.0685922e-05 1.9004944e-05 1.3155056)
(8.9123844e-07 1.6873375e-05 1.3155056)
(3.3027691e-07 1.5485865e-05 1.3155055)
(-1.4852989e-06 1.5058595e-05 1.3155048)
(8.8982576e-08 1.5500084e-05 1.3155037)
(1.2250331e-05 1.7282753e-05 1.3155032)
(2.0487479e-05 2.0487479e-05 1.3155066)
(6.2687811e-06 1.5502228e-05 1.3155096)
(1.242601e-06 1.1794361e-06 1.315508)
(-5.6529063e-06 3.1661893e-06 1.3155088)
(-8.2854638e-06 5.3807353e-06 1.3155075)
(-6.8735512e-07 4.766495e-06 1.3155073)
(-5.0525909e-07 4.3283396e-06 1.315507)
(-1.38936e-06 4.209471e-06 1.3155063)
(1.4211743e-06 4.3922988e-06 1.3155053)
(1.5065054e-05 5.0975989e-06 1.3155053)
(1.5502228e-05 6.2687811e-06 1.3155096)
(1.7740978e-06 1.7740978e-06 1.3155097)
(1.348451e-06 1.348451e-06 1.3035892)
(-1.5867175e-05 -6.957318e-06 1.3035898)
(-1.4263136e-05 -2.8265346e-06 1.3035875)
(8.1048033e-06 -2.2421568e-06 1.3035887)
(7.2449243e-06 -2.3626979e-06 1.3035896)
(4.7266128e-06 -2.7048208e-06 1.3035898)
(5.2694343e-06 -3.2342591e-06 1.3035894)
(1.0563167e-05 -3.3548215e-06 1.3035893)
(9.1878145e-06 -6.9563947e-07 1.3035906)
(1.2895344e-06 1.5177197e-06 1.3035909)
(-6.957318e-06 -1.5867175e-05 1.3035898)
(-2.2129652e-05 -2.2129652e-05 1.3035887)
(-7.1903959e-06 -1.4329885e-05 1.3035873)
(8.8005584e-06 -1.322439e-05 1.3035887)
(6.5509284e-06 -1.3644451e-05 1.3035895)
(3.4192711e-06 -1.473898e-05 1.3035895)
(4.2944334e-06 -1.654184e-05 1.3035889)
(1.4371096e-05 -1.7861844e-05 1.3035886)