/*--------------------------------*- C++ -*----------------------------------*\
| =========                 |                                                 |
| \\      /  F ield         | OpenFOAM: The Open Source CFD Toolbox           |
|  \\    /   O peration     | Version:  v2106                                 |
|   \\  /    A nd           | Website:  www.openfoam.com                      |
|    \\/     M anipulation  |                                                 |
\*---------------------------------------------------------------------------*/
FoamFile
{
    version     2.0;
    format      ascii;
    arch        "LSB;label=32;scalar=64";
    class       volScalarField;
    location    "22.5";
    object      gradTz;
}
// * * * * * * * * * * * * * * * * * * * * * * * * * * * * * * * * * * * * * //

dimensions      [0 -1 0 1 0 0 0];

internalField   nonuniform List<scalar> 
4000
(
712.21354
712.2153
712.20876
712.20931
712.21024
712.21093
712.21155
712.21225
712.21303
712.2135
712.2153
712.21143
712.20734
712.20823
712.20915
712.20979
712.21035
712.21112
712.2123
712.21324
712.20876
712.20734
712.20375
712.20471
712.20561
712.20618
712.20663
712.2073
712.20869
712.21045
712.20931
712.20823
712.20471
712.20568
712.20655
712.20704
712.20737
712.20784
712.20896
712.21045
712.21024
712.20915
712.20561
712.20655
712.20736
712.20779
712.20803
712.20839
712.20937
712.2107
712.21093
712.20979
712.20618
712.20704
712.20779
712.20816
712.20834
712.20863
712.20956
712.21086
712.21155
712.21035
712.20663
712.20737
712.20803
712.20834
712.20848
712.20876
712.20968
712.21098
712.21225
712.21112
712.2073
712.20784
712.20839
712.20863
712.20876
712.20904
712.21001
712.21137
712.21303
712.2123
712.20869
712.20896
712.20937
712.20956
712.20968
712.21001
712.21105
712.2125
712.2135
712.21324
712.21045
712.21045
712.2107
712.21086
712.21098
712.21137
712.2125
712.21398
1049.8051
1049.8054
1049.7996
1049.8001
1049.8013
1049.8022
1049.803
1049.8041
1049.8054
1049.8057
1049.8054
1049.802
1049.798
1049.7989
1049.8
1049.8008
1049.8016
1049.8027
1049.805
1049.806
1049.7996
1049.798
1049.7945
1049.7955
1049.7966
1049.7973
1049.7979
1049.7989
1049.8014
1049.8034
1049.8001
1049.7989
1049.7955
1049.7965
1049.7975
1049.7982
1049.7985
1049.7992
1049.8014
1049.8032
1049.8013
1049.8
1049.7966
1049.7975
1049.7985
1049.799
1049.7993
1049.7998
1049.8018
1049.8034
1049.8022
1049.8008
1049.7973
1049.7982
1049.799
1049.7995
1049.7996
1049.8001
1049.8019
1049.8035
1049.803
1049.8016
1049.7979
1049.7985
1049.7993
1049.7996
1049.7997
1049.8002
1049.802
1049.8036
1049.8041
1049.8027
1049.7989
1049.7992
1049.7998
1049.8001
1049.8002
1049.8006
1049.8026
1049.8043
1049.8054
1049.805
1049.8014
1049.8014
1049.8018
1049.8019
1049.802
1049.8026
1049.8047
1049.8066
1049.8057
1049.806
1049.8034
1049.8032
1049.8034
1049.8035
1049.8036
1049.8043
1049.8066
1049.8079
1038.7338
1038.7336
1038.73
1038.7307
1038.7316
1038.7324
1038.7331
1038.7342
1038.7359
1038.7361
1038.7336
1038.7311
1038.7287
1038.7295
1038.7304
1038.7311
1038.7317
1038.7328
1038.7355
1038.7367
1038.73
1038.7287
1038.7265
1038.7274
1038.7284
1038.7289
1038.7292
1038.7301
1038.7331
1038.735
1038.7307
1038.7295
1038.7274
1038.7283
1038.7292
1038.7296
1038.7298
1038.7304
1038.733
1038.7348
1038.7316
1038.7304
1038.7284
1038.7292
1038.73
1038.7303
1038.7304
1038.7308
1038.7333
1038.7348
1038.7324
1038.7311
1038.7289
1038.7296
1038.7303
1038.7306
1038.7305
1038.7309
1038.7333
1038.7348
1038.7331
1038.7317
1038.7292
1038.7298
1038.7304
1038.7305
1038.7304
1038.7308
1038.7332
1038.7348
1038.7342
1038.7328
1038.7301
1038.7304
1038.7308
1038.7309
1038.7308
1038.7311
1038.7338
1038.7356
1038.7359
1038.7355
1038.7331
1038.733
1038.7333
1038.7333
1038.7332
1038.7338
1038.7366
1038.7387
1038.7361
1038.7367
1038.735
1038.7348
1038.7348
1038.7348
1038.7348
1038.7356
1038.7387
1038.7393
1026.5102
1026.5104
1026.5075
1026.5082
1026.5091
1026.5097
1026.5102
1026.5111
1026.5131
1026.5136
1026.5104
1026.5086
1026.5067
1026.5076
1026.5084
1026.5089
1026.5092
1026.5101
1026.5129
1026.5142
1026.5075
1026.5067
1026.505
1026.5059
1026.5067
1026.5071
1026.5072
1026.5078
1026.5109
1026.5128
1026.5082
1026.5076
1026.5059
1026.5068
1026.5076
1026.5078
1026.5077
1026.5081
1026.5108
1026.5126
1026.5091
1026.5084
1026.5067
1026.5076
1026.5082
1026.5084
1026.5082
1026.5083
1026.5109
1026.5126
1026.5097
1026.5089
1026.5071
1026.5078
1026.5084
1026.5085
1026.5082
1026.5083
1026.5108
1026.5124
1026.5102
1026.5092
1026.5072
1026.5077
1026.5082
1026.5082
1026.5079
1026.5079
1026.5106
1026.5123
1026.5111
1026.5101
1026.5078
1026.5081
1026.5083
1026.5083
1026.5079
1026.5081
1026.5109
1026.5129
1026.5131
1026.5129
1026.5109
1026.5108
1026.5109
1026.5108
1026.5106
1026.5109
1026.5141
1026.5166
1026.5136
1026.5142
1026.5128
1026.5126
1026.5126
1026.5124
1026.5123
1026.5129
1026.5166
1026.5168
1013.2175
1013.2178
1013.2153
1013.2161
1013.2169
1013.2174
1013.2176
1013.2183
1013.22
1013.2206
1013.2178
1013.2164
1013.2147
1013.2156
1013.2164
1013.2168
1013.2169
1013.2174
1013.22
1013.2211
1013.2153
1013.2147
1013.2134
1013.2143
1013.215
1013.2152
1013.2151
1013.2154
1013.2181
1013.2199
1013.2161
1013.2156
1013.2143
1013.2152
1013.2158
1013.2159
1013.2156
1013.2156
1013.2181
1013.2198
1013.2169
1013.2164
1013.215
1013.2158
1013.2164
1013.2164
1013.2159
1013.2158
1013.2181
1013.2197
1013.2174
1013.2168
1013.2152
1013.2159
1013.2164
1013.2163
1013.2158
1013.2156
1013.2179
1013.2194
1013.2176
1013.2169
1013.2151
1013.2156
1013.2159
1013.2158
1013.2152
1013.215
1013.2174
1013.219
1013.2183
1013.2174
1013.2154
1013.2156
1013.2158
1013.2156
1013.215
1013.2149
1013.2175
1013.2195
1013.22
1013.22
1013.2181
1013.2181
1013.2181
1013.2179
1013.2174
1013.2175
1013.2206
1013.2231
1013.2206
1013.2211
1013.2199
1013.2198
1013.2197
1013.2194
1013.219
1013.2195
1013.2231
1013.2233
998.94095
998.94128
998.93909
998.93991
998.94067
998.94099
998.94107
998.94143
998.94288
998.94332
998.94128
998.94007
998.93871
998.93963
998.94034
998.94055
998.94044
998.94068
998.9429
998.94389
998.93909
998.93871
998.93756
998.93849
998.93914
998.93922
998.93888
998.93887
998.94126
998.94286
998.93991
998.93963
998.93849
998.93938
998.93995
998.93992
998.9394
998.93912
998.94126
998.9427
998.94067
998.94034
998.93914
998.93995
998.94044
998.9403
998.93966
998.93924
998.94123
998.94254
998.94099
998.94055
998.93922
998.93992
998.9403
998.94008
998.93937
998.93888
998.94083
998.94212
998.94107
998.94044
998.93888
998.9394
998.93966
998.93937
998.93863
998.93816
998.94018
998.94156
998.94143
998.94068
998.93887
998.93912
998.93924
998.93888
998.93816
998.9378
998.94006
998.9418
998.94288
998.9429
998.94126
998.94126
998.94123
998.94083
998.94018
998.94006
998.94283
998.94523
998.94332
998.94389
998.94286
998.9427
998.94254
998.94212
998.94156
998.9418
998.94523
998.94533
983.76951
983.76991
983.76803
983.76888
983.76958
983.76978
983.76968
983.76979
983.77095
983.77125
983.76991
983.76892
983.76782
983.76875
983.7694
983.76948
983.76919
983.76917
983.77104
983.77184
983.76803
983.76782
983.76689
983.76783
983.76841
983.76837
983.76785
983.76758
983.76958
983.77093
983.76888
983.76875
983.76783
983.76872
983.76922
983.76906
983.76837
983.76783
983.7696
983.77078
983.76958
983.7694
983.76841
983.76922
983.76963
983.76938
983.76856
983.76788
983.7695
983.77057
983.76978
983.76948
983.76837
983.76906
983.76938
983.76904
983.76815
983.76742
983.769
983.77004
983.76968
983.76919
983.76785
983.76837
983.76856
983.76815
983.76725
983.76653
983.76817
983.76931
983.76979
983.76917
983.76758
983.76783
983.76788
983.76742
983.76653
983.76592
983.76781
983.76931
983.77095
983.77104
983.76958
983.7696
983.7695
983.769
983.76817
983.76781
983.77021
983.77239
983.77125
983.77184
983.77093
983.77078
983.77057
983.77004
983.76931
983.76931
983.77239
983.77238
967.79463
967.79509
967.79352
967.79438
967.79501
967.79511
967.79484
967.79473
967.79561
967.79576
967.79509
967.79432
967.79346
967.7944
967.79497
967.79495
967.79449
967.79424
967.79576
967.79636
967.79352
967.79346
967.79276
967.79369
967.7942
967.79405
967.79337
967.79286
967.79448
967.79557
967.79438
967.7944
967.79369
967.79457
967.795
967.79473
967.79389
967.79312
967.79451
967.79544
967.79501
967.79497
967.7942
967.795
967.79534
967.79498
967.79402
967.79311
967.79436
967.79517
967.79511
967.79495
967.79405
967.79473
967.79498
967.79454
967.7935
967.79254
967.79375
967.79454
967.79484
967.79449
967.79337
967.79389
967.79402
967.7935
967.79245
967.7915
967.79278
967.79366
967.79473
967.79424
967.79286
967.79312
967.79311
967.79254
967.7915
967.79067
967.79218
967.79341
967.79561
967.79576
967.79448
967.79451
967.79436
967.79375
967.79278
967.79218
967.7942
967.79611
967.79576
967.79636
967.79557
967.79544
967.79517
967.79454
967.79366
967.79341
967.79611
967.79598
951.10913
951.10965
951.10838
951.10925
951.10982
951.1098
951.10939
951.10908
951.10969
951.1097
951.10965
951.10909
951.10847
951.1094
951.10991
951.10978
951.10918
951.10871
951.10989
951.11029
951.10838
951.10847
951.10798
951.10889
951.10933
951.10908
951.10827
951.10755
951.1088
951.10963
951.10925
951.1094
951.10889
951.10976
951.11012
951.10976
951.10878
951.1078
951.10883
951.1095
951.10982
951.10991
951.10933
951.11012
951.11039
951.10994
951.10884
951.10774
951.10862
951.10919
951.1098
951.10978
951.10908
951.10976
951.10994
951.1094
951.10824
951.10708
951.10793
951.10847
951.10939
951.10918
951.10827
951.10878
951.10884
951.10824
951.10705
951.10591
951.10682
951.10745
951.10908
951.10871
951.10755
951.1078
951.10774
951.10708
951.10591
951.10487
951.10601
951.10698
951.10969
951.10989
951.1088
951.10883
951.10862
951.10793
951.10682
951.10601
951.10764
951.10927
951.1097
951.11029
951.10963
951.1095
951.10919
951.10847
951.10745
951.10698
951.10927
951.10902
933.80671
933.80728
933.8063
933.80716
933.80766
933.80754
933.807
933.8065
933.80685
933.80673
933.80728
933.80692
933.80652
933.80742
933.80786
933.80764
933.80691
933.80626
933.80711
933.80732
933.8063
933.80652
933.80622
933.80711
933.80748
933.80714
933.80621
933.8053
933.8062
933.80678
933.80716
933.80742
933.80711
933.80795
933.80824
933.80779
933.8067
933.80555
933.80622
933.80666
933.80766
933.80786
933.80748
933.80824
933.80845
933.8079
933.8067
933.80543
933.80597
933.8063
933.80754
933.80764
933.80714
933.80779
933.8079
933.80729
933.80602
933.80469
933.8052
933.8055
933.807
933.80691
933.80621
933.8067
933.8067
933.80602
933.80473
933.80341
933.80398
933.80437
933.8065
933.80626
933.8053
933.80555
933.80543
933.80469
933.80341
933.8022
933.80298
933.80369
933.80685
933.80711
933.8062
933.80622
933.80597
933.8052
933.80398
933.80298
933.80423
933.80558
933.80673
933.80732
933.80678
933.80666
933.8063
933.8055
933.80437
933.80369
933.80558
933.80521
915.98132
915.98192
915.98123
915.98207
915.98249
915.98229
915.98163
915.98096
915.98108
915.98083
915.98192
915.98177
915.98156
915.98243
915.9828
915.9825
915.98166
915.98083
915.98137
915.98141
915.98123
915.98156
915.98145
915.9823
915.9826
915.98218
915.98115
915.98008
915.98064
915.98098
915.98207
915.98243
915.9823
915.98309
915.98331
915.98279
915.98161
915.98031
915.98066
915.98086
915.98249
915.9828
915.9826
915.98331
915.98346
915.98284
915.98156
915.98013
915.98036
915.98047
915.98229
915.9825
915.98218
915.98279
915.98284
915.98215
915.98081
915.97933
915.97952
915.97961
915.98163
915.98166
915.98115
915.98161
915.98156
915.98081
915.97943
915.97797
915.97822
915.97837
915.98096
915.98083
915.98008
915.98031
915.98013
915.97933
915.97797
915.97661
915.97705
915.97751
915.98108
915.98137
915.98064
915.98066
915.98036
915.97952
915.97822
915.97705
915.97794
915.97902
915.98083
915.98141
915.98098
915.98086
915.98047
915.97961
915.97837
915.97751
915.97902
915.97853
897.72671
897.72734
897.72691
897.72772
897.72806
897.72778
897.72702
897.72621
897.72611
897.72575
897.72734
897.72736
897.72735
897.72817
897.72846
897.72808
897.72716
897.72618
897.72643
897.72631
897.72691
897.72735
897.7274
897.7282
897.72843
897.72794
897.72683
897.72562
897.72587
897.72599
897.72772
897.72817
897.7282
897.72894
897.72909
897.7285
897.72725
897.72583
897.72588
897.72587
897.72806
897.72846
897.72843
897.72909
897.72917
897.72849
897.72714
897.72561
897.72554
897.72544
897.72778
897.72808
897.72794
897.7285
897.72849
897.72775
897.72634
897.72476
897.72466
897.72453
897.72702
897.72716
897.72683
897.72725
897.72714
897.72634
897.7249
897.72333
897.72328
897.72323
897.72621
897.72618
897.72562
897.72583
897.72561
897.72476
897.72333
897.72185
897.72198
897.72221
897.72611
897.72643
897.72587
897.72588
897.72554
897.72466
897.72328
897.72198
897.72253
897.72334
897.72575
897.72631
897.72599
897.72587
897.72544
897.72453
897.72323
897.72221
897.72334
897.72276
879.13596
879.13661
879.13643
879.13718
879.13745
879.13709
879.13625
879.13532
879.13502
879.13457
879.13661
879.13679
879.13695
879.13772
879.13793
879.13748
879.13648
879.13539
879.13537
879.1351
879.13643
879.13695
879.13716
879.13789
879.13804
879.13749
879.13633
879.13501
879.13497
879.13489
879.13718
879.13772
879.13789
879.13857
879.13865
879.138
879.13671
879.1352
879.13497
879.13477
879.13745
879.13793
879.13804
879.13865
879.13865
879.13793
879.13654
879.13493
879.1346
879.13431
879.13709
879.13748
879.13749
879.138
879.13793
879.13714
879.1357
879.13404
879.13368
879.13337
879.13625
879.13648
879.13633
879.13671
879.13654
879.1357
879.13423
879.13258
879.13226
879.13201
879.13532
879.13539
879.13501
879.1352
879.13493
879.13404
879.13258
879.131
879.13085
879.13086
879.13502
879.13537
879.13497
879.13497
879.1346
879.13368
879.13226
879.13085
879.13108
879.13164
879.13457
879.1351
879.13489
879.13477
879.13431
879.13337
879.13201
879.13086
879.13164
879.13097
860.30108
860.30172
860.30178
860.30247
860.30266
860.30224
860.30133
860.3003
860.29983
860.2993
860.30172
860.30206
860.30238
860.30307
860.3032
860.3027
860.30165
860.30046
860.30019
860.29979
860.30178
860.30238
860.30271
860.30337
860.30345
860.30285
860.30165
860.30025
860.29994
860.29968
860.30247
860.30307
860.30337
860.30397
860.30398
860.3033
860.30198
860.30041
860.29994
860.29956
860.30266
860.3032
860.30345
860.30398
860.30393
860.30317
860.30176
860.3001
860.29953
860.29908
860.30224
860.3027
860.30285
860.3033
860.30317
860.30235
860.30089
860.29918
860.29859
860.29812
860.30133
860.30165
860.30165
860.30198
860.30176
860.30089
860.29941
860.29771
860.29715
860.29673
860.3003
860.30046
860.30025
860.30041
860.3001
860.29918
860.29771
860.29607
860.29567
860.29548
860.29983
860.30019
860.29994
860.29994
860.29953
860.29859
860.29715
860.29567
860.2956
860.29593
860.2993
860.29979
860.29968
860.29956
860.29908
860.29812
860.29673
860.29548
860.29593
860.29519
841.31262
841.31325
841.31353
841.31415
841.31425
841.31377
841.31282
841.31171
841.31108
841.31049
841.31325
841.31372
841.31417
841.31478
841.31484
841.31428
841.3132
841.31194
841.31146
841.31094
841.31353
841.31417
841.31463
841.3152
841.3152
841.31456
841.31334
841.3119
841.31135
841.31092
841.31415
841.31478
841.3152
841.31572
841.31566
841.31494
841.31362
841.31202
841.31133
841.31079
841.31425
841.31484
841.3152
841.31566
841.31554
841.31476
841.31336
841.31167
841.3109
841.3103
841.31377
841.31428
841.31456
841.31494
841.31476
841.31392
841.31247
841.31075
841.30995
841.30934
841.31282
841.3132
841.31334
841.31362
841.31336
841.31247
841.311
841.30928
841.30852
841.30795
841.31171
841.31194
841.3119
841.31202
841.31167
841.31075
841.30928
841.30762
841.30699
841.30663
841.31108
841.31146
841.31135
841.31133
841.3109
841.30995
841.30852
841.30699
841.30666
841.30676
841.31049
841.31094
841.31092
841.31079
841.3103
841.30934
841.30795
841.30663
841.30676
841.30597
822.25935
822.25996
822.26043
822.26097
822.26099
822.26046
822.25948
822.25833
822.25756
822.25692
822.25996
822.26055
822.26112
822.26163
822.26161
822.26102
822.25992
822.25862
822.25794
822.25732
822.26043
822.26112
822.26167
822.26215
822.26208
822.26141
822.26019
822.25872
822.25797
822.25739
822.26097
822.26163
822.26215
822.26257
822.26245
822.26171
822.26041
822.25881
822.25793
822.25726
822.26099
822.26161
822.26208
822.26245
822.26227
822.26148
822.2601
822.25843
822.25748
822.25676
822.26046
822.26102
822.26141
822.26171
822.26148
822.26063
822.25922
822.25751
822.25654
822.2558
822.25948
822.25992
822.26019
822.26041
822.2601
822.25922
822.25779
822.25608
822.25514
822.25444
822.25833
822.25862
822.25872
822.25881
822.25843
822.25751
822.25608
822.25442
822.25359
822.25307
822.25756
822.25794
822.25797
822.25793
822.25748
822.25654
822.25514
822.25359
822.25303
822.25293
822.25692
822.25732
822.25739
822.25726
822.25676
822.2558
822.25444
822.25307
822.25293
822.25209
803.22797
803.22853
803.22919
803.22964
803.22957
803.22901
803.22801
803.22683
803.22596
803.22528
803.22853
803.22923
803.2299
803.23031
803.23022
803.22959
803.2285
803.22718
803.22633
803.22563
803.22919
803.2299
803.23053
803.23091
803.23077
803.23008
803.22889
803.22742
803.22649
803.22578
803.22964
803.23031
803.23091
803.23124
803.23105
803.2303
803.22903
803.22746
803.22643
803.22564
803.22957
803.23022
803.23077
803.23105
803.23081
803.23002
803.22869
803.22706
803.22597
803.22514
803.22901
803.22959
803.23008
803.2303
803.23002
803.22918
803.22782
803.22616
803.22505
803.22421
803.22801
803.2285
803.22889
803.22903
803.22869
803.22782
803.22645
803.22478
803.22369
803.22289
803.22683
803.22718
803.22742
803.22746
803.22706
803.22616
803.22478
803.22316
803.22216
803.22151
803.22596
803.22633
803.22649
803.22643
803.22597
803.22505
803.22369
803.22216
803.2214
803.2211
803.22528
803.22563
803.22578
803.22564
803.22514
803.22421
803.22289
803.22151
803.2211
803.22025
784.30279
784.3033
784.30413
784.30447
784.30433
784.30373
784.30274
784.30155
784.30059
784.2999
784.3033
784.30409
784.30484
784.30514
784.30497
784.30433
784.30326
784.30194
784.30095
784.30019
784.30413
784.30484
784.30554
784.30581
784.30559
784.3049
784.30375
784.30231
784.30123
784.30041
784.30447
784.30514
784.30581
784.30603
784.30578
784.30504
784.30383
784.30231
784.30115
784.30027
784.30433
784.30497
784.30559
784.30578
784.30549
784.30471
784.30345
784.30188
784.30068
784.29977
784.30373
784.30433
784.3049
784.30504
784.30471
784.30389
784.30261
784.30102
784.2998
784.29889
784.30274
784.30326
784.30375
784.30383
784.30345
784.30261
784.30131
784.29972
784.29851
784.29762
784.30155
784.30194
784.30231
784.30231
784.30188
784.30102
784.29972
784.29816
784.29703
784.29626
784.30059
784.30095
784.30123
784.30115
784.30068
784.2998
784.29851
784.29703
784.29608
784.29562
784.2999
784.30019
784.30041
784.30027
784.29977
784.29889
784.29762
784.29626
784.29562
784.29476
765.56552
765.56597
765.56694
765.56718
765.56696
765.56634
765.56538
765.5642
765.56317
765.56248
765.56597
765.56683
765.56765
765.56784
765.5676
765.56694
765.56591
765.56462
765.56351
765.56271
765.56694
765.56765
765.5684
765.56855
765.56828
765.56759
765.5665
765.56511
765.5639
765.56299
765.56718
765.56784
765.56855
765.56867
765.56836
765.56764
765.5665
765.56506
765.5638
765.56285
765.56696
765.5676
765.56828
765.56836
765.56802
765.56726
765.56609
765.56462
765.56333
765.56237
765.56634
765.56694
765.56759
765.56764
765.56726
765.56648
765.56529
765.5638
765.5625
765.56153
765.56538
765.56591
765.5665
765.5665
765.56609
765.56529
765.56409
765.5626
765.56131
765.56035
765.5642
765.56462
765.56511
765.56506
765.56462
765.5638
765.5626
765.56112
765.55989
765.55903
765.56317
765.56351
765.5639
765.5638
765.56333
765.5625
765.56131
765.55989
765.55879
765.55818
765.56248
765.56271
765.56299
765.56285
765.56237
765.56153
765.56035
765.55903
765.55818
765.55733
747.09502
747.0954
747.0965
747.09663
747.09633
747.0957
747.09477
747.09363
747.09256
747.09188
747.0954
747.09631
747.09719
747.09726
747.09694
747.09629
747.09531
747.09407
747.09287
747.09204
747.0965
747.09719
747.09798
747.09801
747.09767
747.09699
747.09598
747.09467
747.09336
747.09238
747.09663
747.09726
747.09801
747.09802
747.09765
747.09695
747.09591
747.09457
747.09323
747.09224
747.09633
747.09694
747.09767
747.09765
747.09726
747.09654
747.09548
747.09412
747.09277
747.09177
747.0957
747.09629
747.09699
747.09695
747.09654
747.09581
747.09473
747.09336
747.09201
747.091
747.09477
747.09531
747.09598
747.09591
747.09548
747.09473
747.09364
747.09227
747.09092
747.08993
747.09363
747.09407
747.09467
747.09457
747.09412
747.09336
747.09227
747.09091
747.0896
747.08867
747.09256
747.09287
747.09336
747.09323
747.09277
747.09201
747.09092
747.0896
747.08839
747.08765
747.09188
747.09204
747.09238
747.09224
747.09177
747.091
747.08993
747.08867
747.08765
747.08682
728.96707
728.96738
728.96859
728.9686
728.96823
728.9676
728.96672
728.96563
728.96454
728.96388
728.96738
728.96833
728.96924
728.96919
728.96881
728.96817
728.96726
728.96609
728.96481
728.96397
728.96859
728.96924
728.97005
728.96997
728.96957
728.96892
728.96799
728.96678
728.9654
728.96437
728.9686
728.96919
728.96997
728.96986
728.96945
728.96878
728.96785
728.96663
728.96525
728.96423
728.96823
728.96881
728.96957
728.96945
728.96902
728.96834
728.9674
728.96618
728.9648
728.96379
728.9676
728.96817
728.96892
728.96878
728.96834
728.96766
728.96671
728.96549
728.96411
728.96309
728.96672
728.96726
728.96799
728.96785
728.9674
728.96671
728.96576
728.96453
728.96316
728.96214
728.96563
728.96609
728.96678
728.96663
728.96618
728.96549
728.96453
728.96331
728.96195
728.96096
728.96454
728.96481
728.9654
728.96525
728.9648
728.96411
728.96316
728.96195
728.96064
728.95979
728.96388
728.96397
728.96437
728.96423
728.96379
728.96309
728.96214
728.96096
728.95979
728.95901
711.2542
711.25442
711.25572
711.25562
711.25519
711.25456
711.25374
711.25272
711.25163
711.25101
711.25442
711.2554
711.25633
711.25617
711.25572
711.2551
711.25427
711.25319
711.25187
711.25103
711.25572
711.25633
711.25716
711.25696
711.2565
711.25588
711.25506
711.25396
711.25254
711.25148
711.25562
711.25617
711.25696
711.25673
711.25627
711.25565
711.25484
711.25377
711.25237
711.25133
711.25519
711.25572
711.2565
711.25627
711.25581
711.25519
711.25438
711.25332
711.25194
711.25092
711.25456
711.2551
711.25588
711.25565
711.25519
711.25457
711.25377
711.25271
711.25133
711.25032
711.25374
711.25427
711.25506
711.25484
711.25438
711.25377
711.25296
711.2519
711.25052
711.24951
711.25272
711.25319
711.25396
711.25377
711.25332
711.25271
711.2519
711.25083
711.24945
711.24844
711.25163
711.25187
711.25254
711.25237
711.25194
711.25133
711.25052
711.24945
711.24808
711.24713
711.25101
711.25103
711.25148
711.25133
711.25092
711.25032
711.24951
711.24844
711.24713
711.24641
694.02546
694.02559
694.02697
694.02675
694.02625
694.02565
694.0249
694.02397
694.0229
694.02233
694.02559
694.02658
694.02753
694.02724
694.02673
694.02614
694.02541
694.02443
694.02309
694.02227
694.02697
694.02753
694.02835
694.02803
694.02753
694.02695
694.02624
694.02528
694.02384
694.02276
694.02675
694.02724
694.02803
694.0277
694.02719
694.02663
694.02595
694.02504
694.02365
694.02262
694.02625
694.02673
694.02753
694.02719
694.0267
694.02614
694.02549
694.0246
694.02324
694.02225
694.02565
694.02614
694.02695
694.02663
694.02614
694.0256
694.02495
694.02408
694.02273
694.02174
694.0249
694.02541
694.02624
694.02595
694.02549
694.02495
694.02431
694.02343
694.02208
694.02108
694.02397
694.02443
694.02528
694.02504
694.0246
694.02408
694.02343
694.02254
694.02116
694.02013
694.0229
694.02309
694.02384
694.02365
694.02324
694.02273
694.02208
694.02116
694.01975
694.01873
694.02233
694.02227
694.02276
694.02262
694.02225
694.02174
694.02108
694.02013
694.01873
694.01807
677.34627
677.3463
677.34775
677.34742
677.34686
677.34627
677.34562
677.34479
677.34375
677.34324
677.3463
677.34729
677.34824
677.34783
677.34728
677.34672
677.34609
677.34524
677.34389
677.34311
677.34775
677.34824
677.34906
677.34862
677.34807
677.34754
677.34697
677.34616
677.34471
677.34364
677.34742
677.34783
677.34862
677.34817
677.34764
677.34713
677.3466
677.34587
677.3445
677.3435
677.34686
677.34728
677.34807
677.34764
677.34712
677.34663
677.34614
677.34545
677.34413
677.34317
677.34627
677.34672
677.34754
677.34713
677.34663
677.34617
677.3457
677.34502
677.34372
677.34277
677.34562
677.34609
677.34697
677.3466
677.34614
677.3457
677.34523
677.34455
677.34324
677.34227
677.34479
677.34524
677.34616
677.34587
677.34545
677.34502
677.34455
677.34385
677.3425
677.34147
677.34375
677.34389
677.34471
677.3445
677.34413
677.34372
677.34324
677.3425
677.34107
677.33999
677.34324
677.34311
677.34364
677.3435
677.34317
677.34277
677.34227
677.34147
677.33999
677.33941
661.27825
661.27817
661.27967
661.27922
661.27861
661.27806
661.2775
661.27679
661.2758
661.27536
661.27817
661.27915
661.28009
661.27956
661.27897
661.27845
661.27794
661.27722
661.27589
661.27515
661.27967
661.28009
661.28089
661.28034
661.27975
661.27928
661.27885
661.2782
661.27678
661.27573
661.27922
661.27956
661.28034
661.27978
661.27922
661.27878
661.27842
661.27787
661.27655
661.27559
661.27861
661.27897
661.27975
661.27922
661.27868
661.27828
661.27796
661.27747
661.27622
661.27531
661.27806
661.27845
661.27928
661.27878
661.27828
661.27791
661.27761
661.27715
661.27592
661.27503
661.2775
661.27794
661.27885
661.27842
661.27796
661.27761
661.27733
661.27687
661.27562
661.2747
661.27679
661.27722
661.2782
661.27787
661.27747
661.27715
661.27687
661.27638
661.27507
661.27406
661.2758
661.27589
661.27678
661.27655
661.27622
661.27592
661.27562
661.27507
661.27364
661.27252
661.27536
661.27515
661.27573
661.27559
661.27531
661.27503
661.2747
661.27406
661.27252
661.27204
645.87901
645.87883
645.88037
645.87981
645.87916
645.87865
645.8782
645.87761
645.87669
645.87633
645.87883
645.87979
645.88072
645.88008
645.87944
645.87898
645.8786
645.87802
645.87673
645.87605
645.88037
645.88072
645.8815
645.88083
645.88021
645.87981
645.87952
645.87905
645.87767
645.87665
645.87981
645.88008
645.88083
645.88017
645.87958
645.87923
645.87903
645.87869
645.87744
645.87652
645.87916
645.87944
645.88021
645.87958
645.87903
645.87872
645.87858
645.87831
645.87714
645.8763
645.87865
645.87898
645.87981
645.87923
645.87872
645.87845
645.87834
645.87811
645.87696
645.87614
645.8782
645.8786
645.87952
645.87903
645.87858
645.87834
645.87825
645.87802
645.87685
645.876
645.87761
645.87802
645.87905
645.87869
645.87831
645.87811
645.87802
645.87775
645.8765
645.87554
645.87669
645.87673
645.87767
645.87744
645.87714
645.87696
645.87685
645.8765
645.87511
645.87396
645.87633
645.87605
645.87665
645.87652
645.8763
645.87614
645.876
645.87554
645.87396
645.87357
631.20209
631.20179
631.20337
631.2027
631.20201
631.20155
631.20122
631.20077
631.19993
631.19966
631.20179
631.20273
631.20363
631.20288
631.20221
631.20181
631.20157
631.20116
631.19991
631.1993
631.20337
631.20363
631.20438
631.20361
631.20297
631.20263
631.20251
631.20223
631.20091
631.19994
631.2027
631.20288
631.20361
631.20285
631.20225
631.20198
631.20196
631.20183
631.20066
631.19982
631.20201
631.20221
631.20297
631.20225
631.2017
631.20148
631.20153
631.20149
631.20042
631.19965
631.20155
631.20181
631.20263
631.20198
631.20148
631.20132
631.20141
631.20141
631.20037
631.19963
631.20122
631.20157
631.20251
631.20196
631.20153
631.20141
631.20152
631.20152
631.20046
631.19968
631.20077
631.20116
631.20223
631.20183
631.20149
631.20141
631.20152
631.20147
631.20032
631.1994
631.19993
631.19991
631.20091
631.20066
631.20042
631.20037
631.20046
631.20032
631.19897
631.19781
631.19966
631.1993
631.19994
631.19982
631.19965
631.19963
631.19968
631.1994
631.19781
631.19753
617.2967
617.2963
617.29789
617.29713
617.29641
617.29601
617.2958
617.29551
617.29476
617.29458
617.2963
617.29719
617.29807
617.29722
617.29653
617.2962
617.2961
617.29586
617.29469
617.29415
617.29789
617.29807
617.29878
617.29791
617.29726
617.29701
617.29705
617.29697
617.29572
617.29481
617.29713
617.29722
617.29791
617.29707
617.29646
617.29629
617.29645
617.29654
617.29548
617.29471
617.29641
617.29653
617.29726
617.29646
617.29591
617.29581
617.29604
617.29624
617.29528
617.29461
617.29601
617.2962
617.29701
617.29629
617.29581
617.29575
617.29605
617.29629
617.29537
617.29472
617.2958
617.2961
617.29705
617.29645
617.29604
617.29605
617.29636
617.29661
617.29566
617.29497
617.29551
617.29586
617.29697
617.29654
617.29624
617.29629
617.29661
617.2968
617.29575
617.29489
617.29476
617.29469
617.29572
617.29548
617.29528
617.29537
617.29566
617.29575
617.29446
617.29331
617.29458
617.29415
617.29481
617.29471
617.29461
617.29472
617.29497
617.29489
617.29331
617.29315
604.20767
604.20716
604.20876
604.20791
604.20717
604.20684
604.20677
604.20664
604.20599
604.20592
604.20716
604.20801
604.20886
604.20791
604.20721
604.20696
604.20702
604.20696
604.20587
604.20542
604.20876
604.20886
604.20953
604.20858
604.20792
604.20776
604.20797
604.2081
604.20695
604.20611
604.20791
604.20791
604.20858
604.20765
604.20705
604.20698
604.20732
604.20765
604.2067
604.20602
604.20717
604.20721
604.20792
604.20705
604.20652
604.20652
604.20696
604.2074
604.20657
604.206
604.20684
604.20696
604.20776
604.20698
604.20652
604.20659
604.20709
604.20758
604.2068
604.20625
604.20677
604.20702
604.20797
604.20732
604.20696
604.20709
604.20762
604.20811
604.20731
604.20671
604.20664
604.20696
604.2081
604.20765
604.2074
604.20758
604.20811
604.20855
604.20762
604.20684
604.20599
604.20587
604.20695
604.2067
604.20657
604.2068
604.20731
604.20762
604.20641
604.20529
604.20592
604.20542
604.20611
604.20602
604.206
604.20625
604.20671
604.20684
604.20529
604.20524
591.97526
591.97465
591.97626
591.97533
591.97459
591.97433
591.97441
591.97444
591.97392
591.97395
591.97465
591.97546
591.97627
591.97525
591.97454
591.97438
591.9746
591.97473
591.97374
591.97339
591.97626
591.97627
591.9769
591.97587
591.97522
591.97516
591.97556
591.9759
591.97486
591.9741
591.97533
591.97525
591.97587
591.97488
591.97429
591.97433
591.97488
591.97544
591.97462
591.97404
591.97459
591.97454