/*--------------------------------*- C++ -*----------------------------------*\
| =========                 |                                                 |
| \\      /  F ield         | OpenFOAM: The Open Source CFD Toolbox           |
|  \\    /   O peration     | Version:  v2106                                 |
|   \\  /    A nd           | Website:  www.openfoam.com                      |
|    \\/     M anipulation  |                                                 |
\*---------------------------------------------------------------------------*/
FoamFile
{
    version     2.0;
    format      ascii;
    arch        "LSB;label=32;scalar=64";
    class       volScalarField;
    location    "22.5";
    object      laplacianT;
}
// * * * * * * * * * * * * * * * * * * * * * * * * * * * * * * * * * * * * * //

dimensions      [0 -2 0 1 0 0 0];

internalField   nonuniform List<scalar> 
4000
(
51424.514
51423.618
51424.299
51423.994
51424.018
51424.07
51424.117
51424.17
51424.231
51424.258
51423.618
51424.255
51424.184
51423.951
51423.991
51424.043
51424.09
51424.149
51424.223
51424.216
51424.299
51424.184
51424.309
51424.112
51424.154
51424.201
51424.244
51424.309
51424.408
51424.34
51423.994
51423.951
51424.112
51423.919
51423.958
51424
51424.035
51424.093
51424.204
51424.191
51424.018
51423.991
51424.154
51423.958
51423.994
51424.031
51424.058
51424.107
51424.207
51424.188
51424.07
51424.043
51424.201
51424
51424.031
51424.063
51424.086
51424.13
51424.224
51424.2
51424.117
51424.09
51424.244
51424.035
51424.058
51424.086
51424.106
51424.148
51424.242
51424.218
51424.17
51424.149
51424.309
51424.093
51424.107
51424.13
51424.148
51424.192
51424.289
51424.268
51424.231
51424.223
51424.408
51424.204
51424.207
51424.224
51424.242
51424.289
51424.391
51424.372
51424.258
51424.216
51424.34
51424.191
51424.188
51424.2
51424.218
51424.268
51424.372
51424.344
-1046.9954
-1049.4544
-1046.2933
-1047.2942
-1047.4384
-1047.4375
-1047.4278
-1047.4116
-1047.3892
-1047.3889
-1049.4544
-1047.7499
-1046.8321
-1047.6918
-1047.7896
-1047.7763
-1047.7522
-1047.7334
-1047.8503
-1047.8586
-1046.2933
-1046.8321
-1045.5313
-1046.3169
-1046.4065
-1046.3898
-1046.3475
-1046.2756
-1046.4103
-1046.9786
-1047.2942
-1047.6918
-1046.3169
-1047.0914
-1047.1806
-1047.1647
-1047.1173
-1047.0071
-1047.0141
-1047.3192
-1047.4384
-1047.7896
-1046.4065
-1047.1806
-1047.2706
-1047.256
-1047.2112
-1047.1033
-1047.1068
-1047.381
-1047.4375
-1047.7763
-1046.3898
-1047.1647
-1047.256
-1047.2421
-1047.1984
-1047.093
-1047.1005
-1047.3762
-1047.4278
-1047.7522
-1046.3475
-1047.1173
-1047.2112
-1047.1984
-1047.1548
-1047.0495
-1047.0575
-1047.3361
-1047.4116
-1047.7334
-1046.2756
-1047.0071
-1047.1033
-1047.093
-1047.0495
-1046.9436
-1046.9514
-1047.2387
-1047.3892
-1047.8503
-1046.4103
-1047.0141
-1047.1068
-1047.1005
-1047.0575
-1046.9514
-1046.9619
-1047.2827
-1047.3889
-1047.8586
-1046.9786
-1047.3192
-1047.381
-1047.3762
-1047.3361
-1047.2387
-1047.2827
-1047.6806
-1166.502
-1169.2859
-1165.4546
-1166.8534
-1167.0512
-1167.0449
-1167.0197
-1166.9886
-1167.033
-1166.6173
-1169.2859
-1166.8985
-1165.8705
-1167.0712
-1167.2063
-1167.1762
-1167.1086
-1167.0523
-1167.5994
-1167.5647
-1165.4546
-1165.8705
-1164.3431
-1165.4478
-1165.5728
-1165.5377
-1165.4331
-1165.2419
-1165.7325
-1166.4467
-1166.8534
-1167.0712
-1165.4478
-1166.5382
-1166.6631
-1166.6303
-1166.5196
-1166.2661
-1166.5571
-1166.8802
-1167.0512
-1167.2063
-1165.5728
-1166.6631
-1166.7893
-1166.7589
-1166.6532
-1166.4036
-1166.6883
-1166.9588
-1167.0449
-1167.1762
-1165.5377
-1166.6303
-1166.7589
-1166.7298
-1166.6259
-1166.3802
-1166.6707
-1166.9412
-1167.0197
-1167.1086
-1165.4331
-1166.5196
-1166.6532
-1166.6259
-1166.522
-1166.2761
-1166.5671
-1166.8443
-1166.9886
-1167.0523
-1165.2419
-1166.2661
-1166.4036
-1166.3802
-1166.2761
-1166.0288
-1166.3205
-1166.6344
-1167.033
-1167.5994
-1165.7325
-1166.5571
-1166.6883
-1166.6707
-1166.5671
-1166.3205
-1166.6277
-1167.0987
-1166.6173
-1167.5647
-1166.4467
-1166.8802
-1166.9588
-1166.9412
-1166.8443
-1166.6344
-1167.0987
-1167.2325
-1277.541
-1280.8766
-1276.3106
-1278.0549
-1278.3013
-1278.2876
-1278.2376
-1278.1814
-1278.4527
-1277.9063
-1280.8766
-1278.0838
-1276.8545
-1278.3542
-1278.5235
-1278.474
-1278.3426
-1278.1818
-1279.2204
-1279.1872
-1276.3106
-1276.8545
-1275.0245
-1276.4089
-1276.5665
-1276.5122
-1276.3307
-1275.9666
-1276.9144
-1277.8466
-1278.0549
-1278.3542
-1276.4089
-1277.7759
-1277.9337
-1277.8834
-1277.6949
-1277.2453
-1277.9283
-1278.3646
-1278.3013
-1278.5235
-1276.5665
-1277.9337
-1278.0934
-1278.0466
-1277.8651
-1277.42
-1278.0932
-1278.4582
-1278.2876
-1278.474
-1276.5122
-1277.8834
-1278.0466
-1278.0014
-1277.8226
-1277.3822
-1278.062
-1278.4247
-1278.2376
-1278.3426
-1276.3307
-1277.6949
-1277.8651
-1277.8226
-1277.6434
-1277.202
-1277.8812
-1278.254
-1278.1814
-1278.1818
-1275.9666
-1277.2453
-1277.42
-1277.3822
-1277.202
-1276.7575
-1277.4386
-1277.8946
-1278.4527
-1279.2204
-1276.9144
-1277.9283
-1278.0932
-1278.062
-1277.8812
-1277.4386
-1278.1682
-1279.0794
-1277.9063
-1279.1872
-1277.8466
-1278.3646
-1278.4582
-1278.4247
-1278.254
-1277.8946
-1279.0794
-1278.648
-1380.2708
-1384.105
-1378.8231
-1380.8915
-1381.1835
-1381.161
-1381.0765
-1380.9561
-1381.3914
-1380.7308
-1384.105
-1380.9211
-1379.4849
-1381.2656
-1381.4672
-1381.3985
-1381.1963
-1380.8933
-1382.3647
-1382.3094
-1378.8231
-1379.4849
-1377.3525
-1378.9994
-1379.1882
-1379.1152
-1378.851
-1378.2801
-1379.6381
-1380.7575
-1380.8915
-1381.2656
-1378.9994
-1380.6262
-1380.8154
-1380.7479
-1380.476
-1379.7961
-1380.828
-1381.3552
-1381.1835
-1381.4672
-1379.1882
-1380.8154
-1381.007
-1380.944
-1380.6811
-1380.0059
-1381.0243
-1381.4629
-1381.161
-1381.3985
-1379.1152
-1380.7479
-1380.944
-1380.8831
-1380.6234
-1379.9536
-1380.9789
-1381.4121
-1381.0765
-1381.1963
-1378.851
-1380.476
-1380.6811
-1380.6234
-1380.3629
-1379.6905
-1380.7123
-1381.1565
-1380.9561
-1380.8933
-1378.2801
-1379.7961
-1380.0059
-1379.9536
-1379.6905
-1379.0112
-1380.0316
-1380.6078
-1381.3914
-1382.3647
-1379.6381
-1380.828
-1381.0243
-1380.9789
-1380.7123
-1380.0316
-1381.1307
-1382.5594
-1380.7308
-1382.3094
-1380.7575
-1381.3552
-1381.4629
-1381.4121
-1381.1565
-1380.6078
-1382.5594
-1381.5419
-1474.2218
-1478.5108
-1472.5637
-1474.9396
-1475.2749
-1475.2438
-1475.1243
-1474.9321
-1475.5061
-1474.7353
-1478.5108
-1474.9634
-1473.339
-1475.3859
-1475.6184
-1475.5314
-1475.2592
-1474.8072
-1476.6766
-1476.5952
-1472.5637
-1473.339
-1470.9274
-1472.8232
-1473.0417
-1472.9509
-1472.6055
-1471.8226
-1473.5583
-1474.8469
-1474.9396
-1475.3859
-1472.8232
-1474.6961
-1474.9154
-1474.8318
-1474.4778
-1473.563
-1474.9143
-1475.5197
-1475.2749
-1475.6184
-1473.0417
-1474.9154
-1475.1373
-1475.0592
-1474.7161
-1473.8063
-1475.1403
-1475.641
-1475.2438
-1475.5314
-1472.9509
-1474.8318
-1475.0592
-1474.9837
-1474.6444
-1473.7404
-1475.0815
-1475.5735
-1475.1243
-1475.2592
-1472.6055
-1474.4778
-1474.7161
-1474.6444
-1474.3038
-1473.3954
-1474.7292
-1475.231
-1474.9321
-1474.8072
-1471.8226
-1473.563
-1473.8063
-1473.7404
-1473.3954
-1472.4751
-1473.8011
-1474.481
-1475.5061
-1476.6766
-1473.5583
-1474.9143
-1475.1403
-1475.0815
-1474.7292
-1473.8011
-1475.2304
-1477.1806
-1474.7353
-1476.5952
-1474.8469
-1475.5197
-1475.641
-1475.5735
-1475.231
-1474.481
-1477.1806
-1475.5981
-1559.1087
-1563.8195
-1557.2649
-1559.931
-1560.307
-1560.2678
-1560.1142
-1559.8494
-1560.548
-1559.6707
-1563.8195
-1559.9478
-1558.1576
-1560.4554
-1560.7168
-1560.6124
-1560.2723
-1559.6711
-1561.908
-1561.7972
-1557.2649
-1558.1576
-1555.4942
-1557.6246
-1557.871
-1557.7635
-1557.3395
-1556.3469
-1558.4296
-1559.869
-1559.931
-1560.4554
-1557.6246
-1559.7296
-1559.977
-1559.8782
-1559.4449
-1558.2988
-1559.9418
-1560.6124
-1560.307
-1560.7168
-1557.871
-1559.977
-1560.2275
-1560.1353
-1559.7147
-1558.5735
-1560.1959
-1560.7465
-1560.2678
-1560.6124
-1557.7635
-1559.8782
-1560.1353
-1560.046
-1559.6298
-1558.495
-1560.1244
-1560.6627
-1560.1142
-1560.2723
-1557.3395
-1559.4449
-1559.7147
-1559.6298
-1559.2118
-1558.0707
-1559.6887
-1560.2348
-1559.8494
-1559.6711
-1556.3469
-1558.2988
-1558.5735
-1558.495
-1558.0707
-1556.9124
-1558.515
-1559.2824
-1560.548
-1561.908
-1558.4296
-1559.9418
-1560.1959
-1560.1244
-1559.6887
-1558.515
-1560.242
-1562.6934
-1559.6707
-1561.7972
-1559.869
-1560.6124
-1560.7465
-1560.6627
-1560.2348
-1559.2824
-1562.6934
-1560.572
-1634.7535
-1639.8541
-1632.7519
-1635.6892
-1636.1031
-1636.0559
-1635.8691
-1635.5323
-1636.343
-1635.362
-1639.8541
-1635.6997
-1633.766
-1636.298
-1636.5862
-1636.4651
-1636.0592
-1635.3109
-1637.8844
-1637.7395
-1632.7519
-1633.766
-1630.879
-1633.2284
-1633.5007
-1633.3772
-1632.8775
-1631.6804
-1634.079
-1635.6488
-1635.6892
-1636.298
-1633.2284
-1635.5499
-1635.8236
-1635.7103
-1635.2008
-1633.8296
-1635.7367
-1636.4575
-1636.1031
-1636.5862
-1633.5007
-1635.8236
-1636.1007
-1635.9949
-1635.4999
-1634.1338
-1636.017
-1636.6035
-1636.0559
-1636.4651
-1633.3772
-1635.7103
-1635.9949
-1635.8927
-1635.4025
-1634.0432
-1635.9335
-1636.5043
-1635.8691
-1636.0592
-1632.8775
-1635.2008
-1635.4999
-1635.4025
-1634.9101
-1633.5427
-1635.4176
-1635.9934
-1635.5323
-1635.3109
-1631.6804
-1633.8296
-1634.1338
-1634.0432
-1633.5427
-1632.1526
-1634.0039
-1634.8417
-1636.343
-1637.8844
-1634.079
-1635.7367
-1636.017
-1635.9335
-1635.4176
-1634.0039
-1635.998
-1638.9214
-1635.362
-1637.7395
-1635.6488
-1636.4575
-1636.6035
-1636.5043
-1635.9934
-1634.8417
-1638.9214
-1636.2878
-1701.0454
-1706.5024
-1698.914
-1702.1017
-1702.5504
-1702.4954
-1702.2765
-1701.8689
-1702.7794
-1701.6979
-1706.5024
-1702.1076
-1700.0524
-1702.8003
-1703.113
-1702.9759
-1702.5067
-1701.6147
-1704.4935
-1704.3096
-1698.914
-1700.0524
-1696.9698
-1699.5212
-1699.8173
-1699.6786
-1699.1065
-1697.7118
-1700.3948
-1702.074
-1702.1017
-1702.8003
-1699.5212
-1702.0426
-1702.3403
-1702.2134
-1701.6311
-1700.0431
-1702.1867
-1702.9425
-1702.5504
-1703.113
-1699.8173
-1702.3403
-1702.6418
-1702.5233
-1701.9573
-1700.3745
-1702.4913
-1703.0995
-1702.4954
-1702.9759
-1699.6786
-1702.2134
-1702.5233
-1702.4086
-1701.8481
-1700.2725
-1702.3963
-1702.9854
-1702.2765
-1702.5067
-1699.1065
-1701.6311
-1701.9573
-1701.8481
-1701.2847
-1699.6992
-1701.8035
-1702.3947
-1701.8689
-1701.6147
-1697.7118
-1700.0431
-1700.3745
-1700.2725
-1699.6992
-1698.0858
-1700.158
-1701.0494
-1702.7794
-1704.4935
-1700.3948
-1702.1867
-1702.4913
-1702.3963
-1701.8035
-1700.158
-1702.3895
-1705.7514
-1701.6979
-1704.3096
-1702.074
-1702.9425
-1703.0995
-1702.9854
-1702.3947
-1701.0494
-1705.7514
-1702.6338
-1757.9315
-1763.7104
-1755.6978
-1759.1137
-1759.5939
-1759.5314
-1759.2817
-1758.8051
-1759.8032
-1758.6249
-1763.7104
-1759.1174
-1756.9618
-1759.9062
-1760.2411
-1760.0887
-1759.5593
-1758.5282
-1761.6804
-1761.4527
-1755.6978
-1756.9618
-1753.7116
-1756.4469
-1756.7645
-1756.6115
-1755.971
-1754.387
-1757.3229
-1759.0901
-1759.1137
-1759.9062
-1756.4469
-1759.1501
-1759.4696
-1759.3299
-1758.6789
-1756.8841
-1759.2365
-1760.0126
-1759.5939
-1760.2411
-1756.7645
-1759.4696
-1759.7933
-1759.6628
-1759.0297
-1757.2403
-1759.5632
-1760.1795
-1759.5314
-1760.0887
-1756.6115
-1759.3299
-1759.6628
-1759.5366
-1758.9094
-1757.1275
-1759.4575
-1760.0513
-1759.2817
-1759.5593
-1755.971
-1758.6789
-1759.0297
-1758.9094
-1758.279
-1756.4855
-1758.7919
-1759.3847
-1758.8051
-1758.5282
-1754.387
-1756.8841
-1757.2403
-1757.1275
-1756.4855
-1754.6587
-1756.9246
-1757.853
-1759.8032
-1761.6804
-1757.3229
-1759.2365
-1759.5632
-1759.4575
-1758.7919
-1756.9246
-1759.3642
-1763.1287
-1758.6249
-1761.4527
-1759.0901
-1760.0126
-1760.1795
-1760.0513
-1759.3847
-1757.853
-1763.1287
-1759.5569
-1805.4114
-1811.4767
-1803.1025
-1806.723
-1807.2313
-1807.1615
-1806.8825
-1806.3394
-1807.4131
-1806.1425
-1811.4767
-1806.7275
-1804.4917
-1807.6122
-1807.9667
-1807.8
-1807.2137
-1806.0494
-1809.4429
-1809.1671
-1803.1025
-1804.4917
-1801.1013
-1804.0014
-1804.3382
-1804.172
-1803.4673
-1801.704
-1804.8612
-1806.6956
-1806.723
-1807.6122
-1804.0014
-1806.8677
-1807.2066
-1807.055
-1806.3398
-1804.3497
-1806.8836
-1807.6659
-1807.2313
-1807.9667
-1804.3382
-1807.2066
-1807.5501
-1807.4085
-1806.7127
-1804.7282
-1807.2302
-1807.8415
-1807.1615
-1807.8
-1804.172
-1807.055
-1807.4085
-1807.2715
-1806.5821
-1804.6054
-1807.1144
-1807.7002
-1806.8825
-1807.2137
-1803.4673
-1806.3398
-1806.7127
-1806.5821
-1805.8891
-1803.8991
-1806.3807
-1806.9619
-1806.3394
-1806.0494
-1801.704
-1804.3497
-1804.7282
-1804.6054
-1803.8991
-1801.8706
-1804.3032
-1805.2528
-1807.4131
-1809.4429
-1804.8612
-1806.8836
-1807.2302
-1807.1144
-1806.3807
-1804.3032
-1806.9219
-1811.0516
-1806.1425
-1809.1671
-1806.6956
-1807.6659
-1807.8415
-1807.7002
-1806.9619
-1805.2528
-1811.0516
-1807.0571
-1843.5327
-1849.848
-1841.1746
-1844.9752
-1845.5078
-1845.4312
-1845.1247
-1844.5181
-1845.6556
-1844.2976
-1849.848
-1844.9838
-1842.6872
-1845.9622
-1846.3338
-1846.1539
-1845.5146
-1844.2238
-1847.8266
-1847.4991
-1841.1746
-1842.6872
-1839.1836
-1842.2285
-1842.5821
-1842.4036
-1841.6396
-1839.7082
-1843.0555
-1844.9368
-1844.9752
-1845.9622
-1842.2285
-1845.2381
-1845.5941
-1845.4315
-1844.657
-1842.4845
-1845.1731
-1845.9484
-1845.5078
-1846.3338
-1842.5821
-1845.5941
-1845.9548
-1845.803
-1845.0494
-1842.8826
-1845.5373
-1846.1315
-1845.4312
-1846.1539
-1842.4036
-1845.4315
-1845.803
-1845.6562
-1844.9093
-1842.7507
-1845.4122
-1845.978
-1845.1247
-1845.5146
-1841.6396
-1844.657
-1845.0494
-1844.9093
-1844.1584
-1841.9849
-1844.6152
-1845.173
-1844.5181
-1844.2238
-1839.7082
-1842.4845
-1842.8826
-1842.7507
-1841.9849
-1839.7679
-1842.3408
-1843.2967
-1845.6556
-1847.8266
-1843.0555
-1845.1731
-1845.5373
-1845.4122
-1844.6152
-1842.3408
-1845.1103
-1849.5667
-1844.2976
-1847.4991
-1844.9368
-1845.9484
-1846.1315
-1845.978
-1845.173
-1843.2967
-1849.5667
-1845.1825
-1872.3864
-1878.914
-1870.0037
-1873.9588
-1874.5122
-1874.4291
-1874.097
-1873.4306
-1874.6203
-1873.1809
-1878.914
-1873.9749
-1871.6361
-1875.0435
-1875.4295
-1875.2375
-1874.5495
-1873.1402
-1876.9203
-1876.5381
-1870.0037
-1871.6361
-1868.0457
-1871.2148
-1871.5826
-1871.3931
-1870.5749
-1868.4878
-1871.9945
-1873.903
-1873.9588
-1875.0435
-1871.2148
-1874.3472
-1874.7176
-1874.5453
-1873.7168
-1871.3761
-1874.1932
-1874.9493
-1874.5122
-1875.4295
-1871.5826
-1874.7176
-1875.0931
-1874.9322
-1874.1259
-1871.7911
-1874.5724
-1875.1388
-1874.4291
-1875.2375
-1871.3931
-1874.5453
-1874.9322
-1874.7765
-1873.9774
-1871.651
-1874.4389
-1874.9741
-1874.097
-1874.5495
-1870.5749
-1873.7168
-1874.1259
-1873.9774
-1873.1737
-1870.8308
-1873.5841
-1874.1077
-1873.4306
-1873.1402
-1868.4878
-1871.3761
-1871.7911
-1871.651
-1870.8308
-1868.4398
-1871.1275
-1872.0758
-1874.6203
-1876.9203
-1871.9945
-1874.1932
-1874.5724
-1874.4389
-1873.5841
-1871.1275
-1874.0203
-1878.7639
-1873.1809
-1876.5381
-1873.903
-1874.9493
-1875.1388
-1874.9741
-1874.1077
-1872.0758
-1878.7639
-1874.0242
-1892.1019
-1898.8038
-1889.7183
-1893.8014
-1894.3718
-1894.2828
-1893.9273
-1893.205
-1894.4359
-1892.9216
-1898.8038
-1893.8287
-1891.465
-1894.9821
-1895.3798
-1895.177
-1894.4447
-1892.9258
-1896.8517
-1896.4127
-1889.7183
-1891.465
-1887.8135
-1891.0855
-1891.465
-1891.2658
-1890.3989
-1888.1698
-1891.8057
-1893.7228
-1893.8014
-1894.9821
-1891.0855
-1894.3198
-1894.7022
-1894.5212
-1893.6443
-1891.1508
-1894.071
-1894.7969
-1894.3718
-1895.3798
-1891.465
-1894.7022
-1895.0898
-1894.9209
-1894.0673
-1891.5799
-1894.4627
-1894.9915
-1894.2828
-1895.177
-1891.2658
-1894.5212
-1894.9209
-1894.7574
-1893.9113
-1891.4325
-1894.3218
-1894.8167
-1893.9273
-1894.4447
-1890.3989
-1893.6443
-1894.0673
-1893.9113
-1893.0604
-1890.5636
-1893.4148
-1893.8947
-1893.205
-1892.9258
-1888.1698
-1891.1508
-1891.5799
-1891.4325
-1890.5636
-1888.0142
-1890.7921
-1891.7199
-1894.4359
-1896.8517
-1891.8057
-1894.071
-1894.4627
-1894.3218
-1893.4148
-1890.7921
-1893.7815
-1898.7725
-1892.9216
-1896.4127
-1893.7228
-1894.7969
-1894.9915
-1894.8167
-1893.8947
-1891.7199
-1898.7725
-1893.7129
-1902.8444
-1909.6817
-1900.4815
-1904.6659
-1905.2495
-1905.155
-1904.7785
-1904.0048
-1905.2661
-1903.6842
-1909.6817
-1904.7077
-1902.3357
-1905.9391
-1906.346
-1906.1336
-1905.362
-1903.7431
-1907.784
-1907.2869
-1900.4815
-1902.3357
-1898.6478
-1902.0011
-1902.3898
-1902.1822
-1901.2725
-1898.9159
-1902.6517
-1904.5599
-1904.6659
-1905.9391
-1902.0011
-1905.316
-1905.7077
-1905.5193
-1904.6
-1901.9701
-1904.9687
-1905.6548
-1905.2495
-1906.346
-1902.3898
-1905.7077
-1906.1049
-1905.929
-1905.034
-1902.4104
-1905.3705
-1905.8532
-1905.155
-1906.1336
-1902.1822
-1905.5193
-1905.929
-1905.7589
-1904.8717
-1902.2567
-1905.223
-1905.6695
-1904.7785
-1905.362
-1901.2725
-1904.6
-1905.034
-1904.8717
-1903.9792
-1901.3449
-1904.27
-1904.6979
-1904.0048
-1903.7431
-1898.9159
-1901.9701
-1902.4104
-1902.2567
-1901.3449
-1898.654
-1901.4982
-1902.394
-1905.2661
-1907.784
-1902.6517
-1904.9687
-1905.3705
-1905.223
-1904.27
-1901.4982
-1904.5588
-1909.7571
-1903.6842
-1907.2869
-1904.5599
-1905.6548
-1905.8532
-1905.6695
-1904.6979
-1902.394
-1909.7571
-1904.4141
-1904.8104
-1911.7437
-1902.4884
-1906.7468
-1907.3398
-1907.2405
-1906.8454
-1906.0253
-1907.3067
-1905.6651
-1911.7437
-1906.8064
-1904.4415
-1908.1078
-1908.5211
-1908.3006
-1907.4947
-1905.7864
-1909.9119
-1909.3566
-1902.4884
-1904.4415
-1900.7411
-1904.154
-1904.5492
-1904.3346
-1903.3881
-1900.9195
-1904.7267
-1906.6097
-1906.7468
-1908.1078
-1904.154
-1907.5277
-1907.9263
-1907.7317
-1906.776
-1904.027
-1907.0806
-1907.7184
-1907.3398
-1908.5211
-1904.5492
-1907.9263
-1908.3304
-1908.1488
-1907.2183
-1904.4757
-1907.4897
-1907.9194
-1907.2405
-1908.3006
-1904.3346
-1907.7317
-1908.1488
-1907.9731
-1907.0506
-1904.3168
-1907.3368
-1907.7281
-1906.8454
-1907.4947
-1903.3881
-1906.776
-1907.2183
-1907.0506
-1906.1226
-1903.3682
-1906.3441
-1906.7133
-1906.0253
-1905.7864
-1900.9195
-1904.027
-1904.4757
-1904.3168
-1903.3682
-1900.5533
-1903.4413
-1904.2951
-1907.3067
-1909.9119
-1904.7267
-1907.0806
-1907.4897
-1907.3368
-1906.3441
-1903.4413
-1906.5486
-1911.9145
-1905.6651
-1909.3566
-1906.6097
-1907.7184
-1907.9194
-1907.7281
-1906.7133
-1904.2951
-1911.9145
-1906.3255
-1898.2256
-1905.2151
-1895.9628
-1900.2678
-1900.8663
-1900.7629
-1900.3518
-1899.4905
-1900.7824
-1899.0897
-1905.2151
-1900.3481
-1898.0047
-1901.7103
-1902.1273
-1901.9002
-1901.0654
-1899.2787
-1903.4596
-1902.8466
-1895.9628
-1898.0047
-1894.3149
-1897.7652
-1898.1645
-1897.9443
-1896.9673
-1894.4028
-1898.2542
-1900.0969
-1900.2678
-1901.7103
-1897.7652
-1901.1762
-1901.5789
-1901.3795
-1900.3938
-1897.5437
-1900.6298
-1901.2123
-1900.8663
-1902.1273
-1898.1645
-1901.5789
-1901.9874
-1901.8013
-1900.8415
-1897.9979
-1901.0437
-1901.4146
-1900.7629
-1901.9002
-1897.9443
-1901.3795
-1901.8013
-1901.6212
-1900.6696
-1897.8348
-1900.8863
-1901.2169
-1900.3518
-1901.0654
-1896.9673
-1900.3938
-1900.8415
-1900.6696
-1899.7122
-1896.8558
-1899.8606
-1900.1656
-1899.4905
-1899.2787
-1894.4028
-1897.5437
-1897.9979
-1897.8348
-1896.8558
-1893.9354
-1896.8456
-1897.6487
-1900.7824
-1903.4596
-1898.2542
-1900.6298
-1901.0437
-1900.8863
-1899.8606
-1896.8456
-1899.9765
-1905.4707
-1899.0897
-1902.8466
-1900.0969
-1901.2123
-1901.4146
-1901.2169
-1900.1656
-1897.6487
-1905.4707
-1899.6739
-1883.3421
-1890.3478
-1881.1549
-1885.479
-1886.0792
-1885.9724
-1885.5479
-1884.6511
-1885.9442
-1884.2097
-1890.3478
-1885.5825
-1883.2739
-1886.9953
-1887.4134
-1887.1812
-1886.3229
-1884.4695
-1888.6774
-1888.0085
-1881.1549
-1883.2739
-1879.6167
-1883.0826
-1883.4834
-1883.259
-1882.258
-1879.6144
-1883.4837
-1885.2726
-1885.479
-1886.9953
-1883.0826
-1886.509
-1886.9134
-1886.7105
-1885.7012
-1882.7687
-1885.8659
-1886.3876
-1886.0792
-1887.4134
-1883.4834
-1886.9134
-1887.3236
-1887.1342
-1886.1515
-1883.2255
-1886.282
-1886.5899
-1885.9724
-1887.1812
-1883.259
-1886.7105
-1887.1342
-1886.951
-1885.9766
-1883.0593
-1886.1212
-1886.3872
-1885.5479
-1886.3229
-1882.258
-1885.7012
-1886.1515
-1885.9766
-1884.9961
-1882.0563
-1885.0691
-1885.3062
-1884.6511
-1884.4695
-1879.6144
-1882.7687
-1883.2255
-1883.0593
-1882.0563
-1879.0495
-1881.9618
-1882.7069
-1885.9442
-1888.6774
-1883.4837
-1885.8659
-1886.282
-1886.1212
-1885.0691
-1881.9618
-1885.0944
-1890.6783
-1884.2097
-1888.0085
-1885.2726
-1886.3876
-1886.5899
-1886.3872
-1885.3062
-1882.7069
-1890.6783
-1884.7121
-1860.4358
-1867.4178
-1858.3389
-1862.6548
-1863.2529
-1863.1434
-1862.7084
-1861.782
-1863.0676
-1861.301
-1867.4178
-1862.7835
-1860.5222
-1864.2359
-1864.6525
-1864.4166
-1863.5405
-1861.6327
-1865.8402
-1865.1181
-1858.3389
-1860.5222
-1856.9185
-1860.3781
-1860.7779
-1860.5509
-1859.5323
-1856.827
-1860.689
-1862.412
-1862.6548
-1864.2359
-1860.3781
-1863.7983
-1864.2019
-1863.9968
-1862.9706
-1859.9747
-1863.0629
-1863.5196
-1863.2529
-1864.6525
-1860.7779
-1864.2019
-1864.6113
-1864.4199
-1863.4206
-1860.4313
-1863.4786
-1863.7206
-1863.1434
-1864.4166
-1860.5509
-1863.9968
-1864.4199
-1864.2348
-1863.2439
-1860.2632
-1863.3155
-1863.5142
-1862.7084
-1863.5405
-1859.5323
-1862.9706
-1863.4206
-1863.2439
-1862.2467
-1859.2427
-1862.2439
-1862.4106
-1861.782
-1861.6327
-1856.827
-1859.9747
-1860.4313
-1860.2632
-1859.2427
-1856.169
-1859.0644
-1859.7456
-1863.0676
-1865.8402
-1860.689
-1863.0629
-1863.4786
-1863.3155
-1862.2439
-1859.0644
-1862.1781
-1867.8141
-1861.301
-1865.1181
-1862.412
-1863.5196
-1863.7206
-1863.5142
-1862.4106
-1859.7456
-1867.8141
-1861.7175
-1829.8054
-1836.7237
-1827.8112
-1832.0919
-1832.6843
-1832.5728
-1832.1302
-1831.1802
-1832.4502
-1830.6619
-1836.7237
-1832.2474
-1830.0447
-1833.7275
-1834.1401
-1833.9022
-1833.014
-1831.0643
-1835.2453
-1834.4735
-1827.8112
-1830.0447
-1826.5144
-1829.9461
-1830.3426
-1830.1144
-1829.0848
-1826.3353
-1830.1665
-1831.8128
-1832.0919
-1833.7275
-1829.9461
-1833.339
-1833.7392
-1833.5333
-1832.4969
-1829.457
-1832.5172
-1832.9061
-1832.6843
-1834.1401
-1830.3426
-1833.7392
-1834.1453
-1833.9532
-1832.9438
-1829.9105
-1832.9299
-1833.1046
-1832.5728
-1833.9022
-1830.1144
-1833.5333
-1833.9532
-1833.7673
-1832.7664
-1829.7416
-1832.7656
-1832.8959
-1832.1302
-1833.014
-1829.0848
-1832.4969
-1832.9438
-1832.7664
-1831.7589
-1828.7102
-1831.6814
-1831.7768
-1831.1802
-1831.0643
-1826.3353
-1829.457
-1829.9105
-1829.7416
-1828.7102
-1825.5897
-1828.4504
-1829.0635
-1832.4502
-1835.2453
-1830.1665
-1832.5172
-1832.9299
-1832.7656
-1831.6814
-1828.4504
-1831.526
-1837.1777
-1830.6619
-1834.4735
-1831.8128
-1832.9061
-1833.1046
-1832.8959
-1831.7768
-1829.0635
-1837.1777
-1830.9897
-1791.7698
-1798.5849
-1789.8891
-1794.1081
-1794.6912
-1794.5785
-1794.131
-1793.1637
-1794.4107
-1792.6114
-1798.5849
-1794.2913
-1792.1576
-1795.7869
-1796.193
-1795.9547
-1795.06
-1793.0812
-1797.2109
-1796.394
-1789.8891
-1792.1576
-1788.7194
-1792.1022
-1792.4929
-1792.265
-1791.2311
-1788.4553
-1792.2331
-1793.7936
-1794.1081
-1795.7869
-1792.1022
-1795.4468
-1795.8413
-1795.6359
-1794.5958
-1791.5317
-1794.5462
-1794.8657
-1794.6912
-1796.193
-1792.4929
-1795.8413
-1796.2416
-1796.05
-1795.0371
-1791.9794
-1794.9533
-1795.0606
-1794.5785
-1795.9547
-1792.265
-1795.6359
-1796.05
-1795.8647
-1794.86
-1791.8107
-1794.7889
-1794.8509
-1794.131
-1795.06
-1791.2311
-1794.5958
-1795.0371
-1794.86
-1793.8489
-1790.7751
-1793.6991
-1793.7236
-1793.1637
-1793.0812
-1788.4553
-1791.5317
-1791.9794
-1791.8107
-1790.7751
-1787.6278
-1790.4374
-1790.9794
-1794.4107
-1797.2109
-1792.2331
-1794.5462
-1794.9533
-1794.7889
-1793.6991
-1790.4374
-1793.4572
-1799.0892
-1792.6114
-1796.394
-1793.7936
-1794.8657
-1795.0606
-1794.8509
-1793.7236
-1790.9794
-1799.0892
-1792.849
-1746.6675
-1753.3405
-1744.9091
-1749.0405
-1749.6107
-1749.4976
-1749.0484
-1748.0701
-1749.2871
-1747.4878
-1753.3405
-1749.2518
-1747.1965
-1750.7502
-1751.1475
-1750.9102
-1750.015
-1748.0202
-1752.0747
-1751.2182
-1744.9091
-1747.1965
-1743.8681
-1747.1813
-1747.5639
-1747.3379
-1746.3063
-1743.5222
-1747.2255
-1748.6924
-1749.0405
-1750.7502
-1747.1813
-1750.4573
-1750.8438
-1750.6402
-1749.6031
-1746.5344
-1749.4867
-1749.7368
-1749.6107
-1751.1475
-1747.5639
-1750.8438
-1751.236
-1751.0461
-1750.036
-1746.9736
-1749.8858
-1749.9268
-1749.4976
-1750.9102
-1747.3379
-1750.6402
-1751.0461
-1750.8624
-1749.8606
-1746.8063
-1749.7223
-1749.7174
-1749.0484
-1750.015
-1746.3063
-1749.6031
-1750.036
-1749.8606
-1748.8521
-1745.773
-1748.6339
-1748.5891
-1748.0701
-1748.0202
-1743.5222
-1746.5344
-1746.9736
-1746.8063
-1745.773
-1742.6192
-1745.3624
-1745.8318
-1749.2871
-1752.0747
-1747.2255
-1749.4867
-1749.8858
-1749.7223
-1748.6339
-1745.3624
-1748.31
-1753.8887
-1747.4878
-1751.2182
-1748.6924
-1749.7368
-1749.9268
-1749.7174
-1748.5891
-1745.8318
-1753.8887
-1747.635
-1694.8553
-1701.3477
-1693.2262
-1697.2448
-1697.7988
-1697.6861
-1697.2379
-1696.2552
-1697.4358
-1695.6478
-1701.3477
-1697.4841
-1695.5157
-1698.9723
-1699.3584
-1699.1238
-1698.2337
-1696.2359
-1700.1931
-1699.3033
-1693.2262
-1695.5157
-1692.3134
-1695.5371
-1695.9094
-1695.6867
-1694.6639
-1691.8893
-1695.4984
-1696.8655
-1697.2448
-1698.9723
-1695.5371
-1698.7247
-1699.1008
-1698.9005
-1697.8729
-1694.8192
-1697.6941
-1697.8759
-1697.7988
-1699.3584
-1695.9094
-1699.1008
-1699.4826
-1699.2958
-1698.2948
-1695.2472
-1698.0828
-1698.0599
-1697.6861
-1699.1238
-1695.6867
-1698.9005
-1699.2958
-1699.115
-1698.1222
-1695.0824
-1697.9212
-1697.8522
-1697.2379
-1698.2337
-1694.6639
-1697.8729
-1698.2948
-1698.1222
-1697.1228
-1694.058
-1696.8411
-1696.7299
-1696.2552
-1696.2359
-1691.8893
-1694.8192
-1695.2472
-1695.0824
-1694.058
-1690.9179
-1693.5809
-1693.9774
-1697.4358
-1700.1931
-1695.4984
-1697.6941
-1698.0828
-1697.9212
-1696.8411
-1693.5809
-1696.4411
-1701.9345
-1695.6478
-1699.3033
-1696.8655
-1697.8759
-1698.0599
-1697.8522
-1696.7299
-1693.9774
-1701.9345
-1695.7056
-1636.7071
-1642.9815
-1635.2123
-1639.094
-1639.6286
-1639.517
-1639.0727
-1638.0921
-1639.2306
-1637.4655
-1642.9815
-1639.3604
-1637.4866
-1640.8254
-1641.1981
-1640.9677
-1640.0886
-1638.1009
-1641.9398
-1641.0235
-1635.2123
-1637.4866
-1634.4257
-1637.5406
-1637.9005
-1637.6825
-1636.675
-1633.9278
-1637.4243
-1638.6866
-1639.094
-1640.8254
-1637.5406
-1640.6207
-1640.9845
-1640.7885
-1639.777
-1636.7576
-1639.5411
-1639.6568
-1639.6286
-1641.1981
-1637.9005
-1640.9845
-1641.3537
-1641.171
-1640.1855
-1637.1721
-1639.9171
-1639.8337
-1639.517
-1640.9677
-1637.6825
-1640.7885
-1641.171
-1640.9942
-1640.0167
-1637.0108
-1639.7585
-1639.6291
-1639.0727
-1640.0886
-1636.675
-1639.777
-1640.1855
-1640.0167
-1639.0326
-1636.0017
-1638.6935
-1638.52
-1638.0921
-1638.1009
-1633.9278
-1636.7576
-1637.1721
-1637.0108
-1636.0017
-1632.8952
-1635.4653
-1635.79
-1639.2306
-1641.9398
-1637.4243
-1639.5411
-1639.9171
-1639.7585
-1638.6935
-1635.4653
-1638.2245
-1643.602
-1637.4655
-1641.0235
-1638.6866
-1639.6568
-1639.8337
-1639.6291
-1638.52
-1635.79
-1643.602
-1637.436
-1572.613
-1578.6333
-1571.2562
-1574.9777
-1575.4897
-1575.38
-1574.9427
-1573.9706
-1575.0617
-1573.331
-1578.6333
-1575.2699
-1573.4973
-1576.6986
-1577.0559
-1576.8312
-1575.9685
-1574.0039
-1577.705
-1576.7701
-1571.2562
-1573.4973
-1570.5918
-1573.5796
-1573.9251
-1573.7131
-1572.7273
-1570.0249
-1573.392
-1574.5461
-1574.9777
-1576.6986
-1573.5796
-1576.5341
-1576.8833
-1576.6931
-1575.7038
-1572.738
-1575.4173
-1575.4703
-1575.4897
-1577.0559
-1573.9251
-1576.8833
-1577.2378
-1577.0605
-1576.0966
-1573.1364
-1575.7783
-1575.639
-1575.38
-1576.8312
-1573.7131
-1576.6931
-1577.0605
-1576.889
-1575.9328
-1572.9796
-1575.6238
-1575.4386
-1574.9427
-1575.9685
-1572.7273
-1575.7038
-1576.0966
-1575.9328
-1574.9701
-1571.9921
-1574.5805
-1574.3498
-1573.9706
-1574.0039
-1570.0249
-1572.738
-1573.1364
-1572.9796
-1571.9921
-1568.9389
-1571.4048
-1571.6598
-1575.0617
-1577.705
-1573.392
-1575.4173
-1575.7783
-1575.6238
-1574.5805
-1571.4048
-1574.0507
-1579.2837
-1573.331
-1576.7701
-1574.5461
-1575.4703
-1575.639
-1575.4386
-1574.3498
-1571.6598
-1579.2837
-1573.2176
-1502.979
-1508.7102
-1501.762
-1505.3013
-1505.7878
-1505.6809
-1505.2532
-1504.296
-1505.3351
-1503.6506
-1508.7102
-1505.6174
-1503.9518
-1506.9968
-1507.3368
-1507.1193
-1506.2785
-1504.3499
-1507.8951
-1506.9496
-1501.762
-1503.9518
-1501.2147
-1504.0578
-1504.3869
-1504.1825
-1503.2243
-1500.584
-1503.8061
-1504.8497
-1505.3013
-1506.9968
-1504.0578
-1506.8694
-1507.2022
-1507.0189
-1506.0579
-1503.1643
-1505.7279
-1505.7224
-1505.7878
-1507.3368
-1504.3869
-1507.2022
-1507.54
-1507.3691
-1506.4328
-1503.5444
-1506.0718
-1505.882
-1505.6809
-1507.1193
-1504.1825
-1507.0189
-1507.3691
-1507.2039
-1506.275
-1503.3932
-1505.9223
-1505.6872
-1505.2532
-1506.2785
-1503.2243
-1506.0579
-1506.4328
-1506.275
-1505.3396
-1502.4333
-1504.9072
-1504.6253
-1504.296
-1504.3499
-1500.584
-1503.1643
-1503.5444
-1503.3932
-1502.4333
-1499.4526
-1501.8041
-1501.9927
-1505.3351
-1507.8951
-1503.8061
-1505.7279
-1506.0718
-1505.9223
-1504.9072
-1501.8041
-1504.3256
-1509.3873
-1503.6506
-1506.9496
-1504.8497
-1505.7224
-1505.882
-1505.6872
-1504.6253
-1501.9927
-1509.3873
-1503.4574
-1428.2258
-1433.6346
-1427.149
-1430.4853
-1430.9436
-1430.8401
-1430.4248
-1429.4889
-1430.4719
-1428.845
-1433.6346
-1430.8228
-1429.2694
-1432.1404
-1432.4611
-1432.2522
-1431.4386
-1429.5585
-1432.9314
-1431.9841
-1427.149
-1429.2694
-1426.712
-1429.3941
-1429.705
-1429.5094
-1428.5848
-1426.0233
-1429.0863
-1430.0186
-1430.4853
-1432.1404
-1429.3941
-1432.0464
-1432.361
-1432.1857
-1431.259
-1428.4557
-1430.8932
-1430.8345
-1430.9436
-1432.4611
-1429.705
-1432.361
-1432.6803
-1432.517
-1431.6139
-1428.8153
-1431.2181
-1430.984
-1430.8401
-1432.2522
-1429.5094
-1432.1857
-1432.517
-1432.3591
-1431.4631
-1428.6707
-1431.0746
-1430.7961
-1430.4248
-1431.4386
-1428.5848
-1431.259
-1431.6139
-1431.4631
-1430.5608
-1427.7444
-1430.0939
-1429.7678
-1429.4889
-1429.5585
-1426.0233
-1428.4557
-1428.8153
-1428.6707
-1427.7444
-1424.8548
-1427.0829
-1427.2093
-1430.4719
-1432.9314