/*--------------------------------*- C++ -*----------------------------------*\
| =========                 |                                                 |
| \\      /  F ield         | OpenFOAM: The Open Source CFD Toolbox           |
|  \\    /   O peration     | Version:  v2106                                 |
|   \\  /    A nd           | Website:  www.openfoam.com                      |
|    \\/     M anipulation  |                                                 |
\*---------------------------------------------------------------------------*/
FoamFile
{
    version     2.0;
    format      ascii;
    arch        "LSB;label=32;scalar=64";
    class       volVectorField;
    location    "2.5";
    object      flux;
}
// * * * * * * * * * * * * * * * * * * * * * * * * * * * * * * * * * * * * * //

dimensions      [0 1 -1 1 0 0 0];

internalField   nonuniform List<vector> 
4000
(
(6.1991388e-07 6.1991388e-07 2.6755798)
(7.0015789e-06 5.3509443e-06 2.6755847)
(-2.0531664e-06 -1.7939298e-07 2.6756063)
(-9.2562423e-06 8.5835583e-07 2.6755706)
(-4.3242314e-07 1.2523714e-06 2.6755649)
(1.754822e-06 1.3479547e-06 2.6755682)
(2.1567258e-06 1.417754e-06 2.6755737)
(1.993244e-06 1.5102457e-06 2.6755794)
(1.3579885e-06 1.4162439e-06 2.6755842)
(3.1039557e-07 8.5438726e-07 2.675587)
(5.3509443e-06 7.0015789e-06 2.6755847)
(5.8026191e-06 5.8026192e-06 2.6756111)
(-8.7920496e-06 -1.230419e-06 2.6756019)
(-7.1085959e-06 1.0151954e-06 2.6755725)
(3.0197515e-07 1.7922598e-06 2.6755693)
(2.0028959e-06 1.9969786e-06 2.6755733)
(2.4001623e-06 2.2673758e-06 2.6755793)
(1.9909789e-06 2.8536574e-06 2.6755858)
(3.7420087e-07 3.2262443e-06 2.6755894)
(-2.5146105e-07 1.9661568e-06 2.6755882)
(-1.7939298e-07 -2.0531664e-06 2.6756063)
(-1.230419e-06 -8.7920496e-06 2.6756019)
(-6.8405898e-06 -6.8405898e-06 2.6755969)
(-6.2335637e-06 -5.9234452e-06 2.6755703)
(5.4936005e-07 -5.7054129e-06 2.675568)
(2.229938e-06 -5.675464e-06 2.6755723)
(3.0134046e-06 -5.4899384e-06 2.6755792)
(2.9521126e-06 -4.7439115e-06 2.6755881)
(4.7048795e-07 -3.3475971e-06 2.6755941)
(-5.2966274e-07 -2.4905163e-06 2.6755906)
(8.5835583e-07 -9.2562423e-06 2.6755706)
(1.0151954e-06 -7.1085959e-06 2.6755725)
(-5.9234452e-06 -6.2335637e-06 2.6755703)
(-5.973419e-06 -5.973419e-06 2.6755448)
(5.4995631e-07 -5.9833574e-06 2.6755426)
(2.2183703e-06 -6.0967238e-06 2.6755467)
(3.3317148e-06 -6.1895728e-06 2.6755537)
(4.1333202e-06 -6.0096744e-06 2.6755642)
(2.627596e-06 -5.1908322e-06 2.6755746)
(3.1992609e-07 -3.9155031e-06 2.6755769)
(1.2523714e-06 -4.3242315e-07 2.6755649)
(1.7922598e-06 3.0197515e-07 2.6755693)
(-5.7054129e-06 5.4936006e-07 2.675568)
(-5.9833573e-06 5.4995631e-07 2.6755426)
(4.2605533e-07 4.2605533e-07 2.6755402)
(2.0237225e-06 2.5724487e-07 2.675544)
(3.100454e-06 5.1774691e-08 2.6755504)
(3.9508533e-06 -1.6902306e-07 2.6755604)
(2.5646594e-06 -3.3977587e-07 2.6755706)
(3.2055667e-07 -4.4011626e-07 2.6755731)
(1.3479547e-06 1.754822e-06 2.6755682)
(1.9969786e-06 2.0028959e-06 2.6755733)
(-5.675464e-06 2.229938e-06 2.6755723)
(-6.0967238e-06 2.2183703e-06 2.6755467)
(2.5724487e-07 2.0237225e-06 2.675544)
(1.8440897e-06 1.8440897e-06 2.6755472)
(2.9054468e-06 1.6834987e-06 2.6755532)
(3.7417696e-06 1.5295025e-06 2.6755626)
(2.3565028e-06 1.3816726e-06 2.6755724)
(2.530325e-07 1.2526738e-06 2.6755744)
(1.417754e-06 2.1567258e-06 2.6755737)
(2.2673758e-06 2.4001623e-06 2.6755793)
(-5.4899384e-06 3.0134046e-06 2.6755792)
(-6.1895728e-06 3.3317148e-06 2.6755537)
(5.1774695e-08 3.100454e-06 2.6755504)
(1.6834987e-06 2.9054468e-06 2.6755532)
(2.7858668e-06 2.7858668e-06 2.6755588)
(3.6490272e-06 2.7124074e-06 2.675568)
(2.2878306e-06 2.6602329e-06 2.6755775)
(2.3455742e-07 2.6289066e-06 2.6755795)
(1.5102457e-06 1.993244e-06 2.6755794)
(2.8536574e-06 1.9909789e-06 2.6755858)
(-4.7439115e-06 2.9521126e-06 2.6755881)
(-6.0096744e-06 4.1333202e-06 2.6755642)
(-1.6902305e-07 3.9508533e-06 2.6755604)
(1.5295025e-06 3.7417696e-06 2.6755626)
(2.7124074e-06 3.6490272e-06 2.675568)
(3.6161357e-06 3.6161357e-06 2.6755771)
(2.2730019e-06 3.5723711e-06 2.6755865)
(2.3214828e-07 3.4970921e-06 2.6755885)
(1.4162439e-06 1.3579885e-06 2.6755842)
(3.2262443e-06 3.7420088e-07 2.6755894)
(-3.3475971e-06 4.7048795e-07 2.6755941)
(-5.1908322e-06 2.627596e-06 2.6755746)
(-3.3977587e-07 2.5646593e-06 2.6755706)
(1.3816726e-06 2.3565028e-06 2.6755724)
(2.6602329e-06 2.2878306e-06 2.6755775)
(3.5723711e-06 2.2730019e-06 2.6755865)
(2.168787e-06 2.168787e-06 2.6755958)
(1.843714e-07 1.9018153e-06 2.6755972)
(8.5438726e-07 3.1039557e-07 2.675587)
(1.9661568e-06 -2.5146105e-07 2.6755882)
(-2.4905163e-06 -5.2966274e-07 2.6755906)
(-3.9155031e-06 3.1992609e-07 2.6755769)
(-4.4011626e-07 3.2055666e-07 2.6755731)
(1.2526738e-06 2.530325e-07 2.6755744)
(2.6289066e-06 2.3455742e-07 2.6755795)
(3.4970921e-06 2.3214828e-07 2.6755885)
(1.9018154e-06 1.843714e-07 2.6755972)
(5.4167182e-08 5.4167182e-08 2.6755973)
(3.0579256e-06 3.0579256e-06 3.9415586)
(1.8864634e-05 1.0320097e-05 3.9415561)
(-1.5214164e-05 -3.9100279e-06 3.9415597)
(-3.4703988e-05 -7.483349e-07 3.9415257)
(-2.2781217e-06 5.7657301e-07 3.9415196)
(7.9733027e-06 9.4896494e-07 3.9415242)
(1.0501108e-05 1.3180415e-06 3.9415323)
(9.9388433e-06 1.7868965e-06 3.9415414)
(7.3431884e-06 9.7467395e-07 3.9415483)
(1.9107434e-06 -1.4651186e-06 3.9415554)
(1.0320097e-05 1.8864634e-05 3.9415561)
(8.4127064e-06 8.4127064e-06 3.9415624)
(-3.1816813e-05 -1.0588214e-05 3.9415492)
(-2.7974089e-05 -3.6137871e-06 3.9415202)
(2.6782792e-07 -8.6722873e-07 3.9415162)
(9.0855054e-06 -1.1992202e-08 3.9415214)
(1.1758006e-05 1.3902559e-06 3.9415306)
(9.4237921e-06 4.359136e-06 3.9415414)
(2.4651657e-06 5.2243313e-06 3.9415448)
(-5.2904921e-07 -5.4494319e-07 3.9415444)
(-3.9100279e-06 -1.5214164e-05 3.9415597)
(-1.0588214e-05 -3.1816813e-05 3.9415492)
(-2.7240655e-05 -2.7240655e-05 3.9415379)
(-2.4983005e-05 -2.4086527e-05 3.9415113)
(1.323673e-06 -2.3167846e-05 3.9415081)
(1.0230787e-05 -2.3016484e-05 3.9415136)
(1.4872236e-05 -2.2053857e-05 3.9415241)
(1.3772919e-05 -1.8290259e-05 3.941539)
(2.4391092e-06 -1.2284033e-05 3.9415465)
(-1.9354396e-06 -9.4546688e-06 3.9415439)
(-7.483349e-07 -3.4703988e-05 3.9415257)
(-3.6137871e-06 -2.7974089e-05 3.9415202)
(-2.4086527e-05 -2.4983005e-05 3.9415113)
(-2.390128e-05 -2.390128e-05 3.9414858)
(1.3378715e-06 -2.3932219e-05 3.9414827)
(1.0199494e-05 -2.447285e-05 3.9414878)
(1.6484229e-05 -2.4883831e-05 3.9414982)
(1.9193615e-05 -2.3836059e-05 3.9415152)
(1.1300755e-05 -1.9953161e-05 3.9415278)
(1.3571929e-06 -1.4690917e-05 3.9415311)
(5.7657302e-07 -2.2781217e-06 3.9415196)
(-8.6722872e-07 2.6782793e-07 3.9415162)
(-2.3167846e-05 1.323673e-06 3.9415081)
(-2.3932219e-05 1.3378715e-06 3.9414827)
(7.521035e-07 7.5210351e-07 3.9414792)
(9.2791755e-06 -6.9655016e-08 3.9414837)
(1.5509028e-05 -1.0452048e-06 3.9414933)
(1.8703589e-05 -1.9635136e-06 3.9415096)
(1.1584253e-05 -2.4372413e-06 3.9415223)
(1.5727238e-06 -2.4641082e-06 3.9415261)
(9.4896495e-07 7.9733027e-06 3.9415242)
(-1.1992197e-08 9.0855054e-06 3.9415214)
(-2.3016484e-05 1.0230787e-05 3.9415136)
(-2.447285e-05 1.0199494e-05 3.9414878)
(-6.9655021e-08 9.2791755e-06 3.9414837)
(8.4021861e-06 8.4021861e-06 3.9414875)
(1.4590371e-05 7.6252103e-06 3.9414963)
(1.7801579e-05 6.917525e-06 3.941512)
(1.080016e-05 6.3100298e-06 3.9415241)
(1.3392816e-06 5.8727617e-06 3.9415276)
(1.3180415e-06 1.0501108e-05 3.9415323)
(1.3902559e-06 1.1758006e-05 3.9415306)
(-2.2053857e-05 1.4872236e-05 3.9415241)
(-2.4883831e-05 1.6484229e-05 3.9414982)
(-1.0452048e-06 1.5509028e-05 3.9414933)
(7.6252103e-06 1.4590371e-05 3.9414963)
(1.4024367e-05 1.4024367e-05 3.9415047)
(1.7388409e-05 1.3689861e-05 3.9415201)
(1.053949e-05 1.3459684e-05 3.9415321)
(1.2812117e-06 1.3339203e-05 3.9415356)
(1.7868965e-06 9.9388433e-06 3.9415414)
(4.3591361e-06 9.4237921e-06 3.9415414)
(-1.8290259e-05 1.3772919e-05 3.941539)
(-2.3836059e-05 1.9193615e-05 3.9415152)
(-1.9635136e-06 1.8703589e-05 3.9415096)
(6.917525e-06 1.7801579e-05 3.941512)
(1.3689861e-05 1.7388409e-05 3.9415201)
(1.7236896e-05 1.7236896e-05 3.9415353)
(1.0449502e-05 1.6937978e-05 3.9415473)
(1.2589606e-06 1.6313496e-05 3.9415506)
(9.7467395e-07 7.3431884e-06 3.9415483)
(5.2243313e-06 2.4651657e-06 3.9415448)
(-1.2284033e-05 2.4391092e-06 3.9415465)
(-1.9953161e-05 1.1300755e-05 3.9415278)
(-2.4372413e-06 1.1584253e-05 3.9415223)
(6.3100298e-06 1.080016e-05 3.9415241)
(1.3459684e-05 1.053949e-05 3.9415321)
(1.6937978e-05 1.0449502e-05 3.9415473)
(9.6160896e-06 9.6160896e-06 3.9415584)
(8.6489068e-07 7.5526527e-06 3.9415599)
(-1.4651186e-06 1.9107434e-06 3.9415554)
(-5.4494318e-07 -5.2904921e-07 3.9415444)
(-9.4546688e-06 -1.9354396e-06 3.9415439)
(-1.4690917e-05 1.3571929e-06 3.9415311)
(-2.4641082e-06 1.5727238e-06 3.9415261)
(5.8727617e-06 1.3392816e-06 3.9415276)
(1.3339203e-05 1.2812117e-06 3.9415356)
(1.6313496e-05 1.2589606e-06 3.9415506)
(7.5526528e-06 8.6489067e-07 3.9415599)
(-1.1666394e-07 -1.1666394e-07 3.9415597)
(-1.1662526e-06 -1.1662526e-06 3.8361088)
(7.5929882e-06 9.3661004e-06 3.8360952)
(-3.2520609e-05 -7.1637528e-06 3.8360859)
(-4.9058774e-05 -2.8244032e-06 3.8360655)
(-1.922425e-06 -1.0406539e-06 3.8360629)
(1.4411609e-05 -5.1442315e-07 3.8360678)
(1.9323843e-05 2.8542193e-07 3.8360762)
(1.8016508e-05 1.5007072e-06 3.8360861)
(1.537259e-05 -9.7319403e-07 3.8360917)
(5.027805e-06 -6.5265802e-06 3.8361001)
(9.3661004e-06 7.5929882e-06 3.8360952)
(-1.4032611e-06 -1.4032611e-06 3.8360895)
(-5.0806362e-05 -2.3107231e-05 3.8360752)
(-3.9874129e-05 -1.3544119e-05 3.8360578)
(1.5425447e-06 -9.864115e-06 3.8360563)
(1.6400722e-05 -8.7500037e-06 3.8360614)
(2.2346538e-05 -6.0917365e-06 3.8360712)
(1.6128585e-05 3.74828e-07 3.8360844)
(3.3316599e-06 1.248998e-06 3.8360864)
(-5.2558102e-07 -9.6324894e-06 3.8360868)
(-7.1637528e-06 -3.2520609e-05 3.8360859)
(-2.3107231e-05 -5.0806362e-05 3.8360752)
(-4.4661463e-05 -4.4661463e-05 3.8360624)
(-3.5815661e-05 -4.0323484e-05 3.8360465)
(2.8716897e-06 -3.918251e-05 3.8360452)
(1.8183987e-05 -3.9263577e-05 3.8360501)
(2.8448674e-05 -3.7849517e-05 3.8360607)
(2.5357243e-05 -3.0905863e-05 3.8360783)
(5.3652729e-06 -2.0277701e-05 3.8360847)
(-2.2265204e-06 -1.5771596e-05 3.8360838)
(-2.8244032e-06 -4.9058774e-05 3.8360655)
(-1.3544119e-05 -3.9874129e-05 3.8360578)
(-4.0323484e-05 -3.5815661e-05 3.8360465)
(-3.4395177e-05 -3.4395177e-05 3.836031)
(2.6024524e-06 -3.465723e-05 3.8360296)
(1.7733715e-05 -3.5808847e-05 3.8360339)
(3.070425e-05 -3.6819447e-05 3.836044)
(3.3700399e-05 -3.5286042e-05 3.836063)
(1.8465925e-05 -2.925172e-05 3.836073)
(2.478488e-06 -2.1647486e-05 3.8360756)
(-1.0406539e-06 -1.922425e-06 3.8360629)
(-9.8641149e-06 1.5425447e-06 3.8360563)
(-3.918251e-05 2.8716897e-06 3.8360452)
(-3.465723e-05 2.6024524e-06 3.8360296)
(1.4580201e-06 1.4580201e-06 3.8360277)
(1.6021769e-05 -6.0510619e-08 3.8360312)
(2.8971479e-05 -1.8187333e-06 3.8360404)
(3.2924972e-05 -3.3594217e-06 3.8360588)
(1.9003832e-05 -4.0159334e-06 3.8360688)
(2.8429698e-06 -3.9144383e-06 3.8360718)
(-5.1442314e-07 1.4411609e-05 3.8360678)
(-8.7500037e-06 1.6400722e-05 3.8360614)
(-3.9263577e-05 1.8183987e-05 3.8360501)
(-3.5808847e-05 1.7733715e-05 3.8360339)
(-6.0510625e-08 1.6021769e-05 3.8360312)
(1.4456962e-05 1.4456962e-05 3.836034)
(2.7405339e-05 1.3123824e-05 3.8360426)
(3.1503198e-05 1.1998474e-05 3.8360604)
(1.7910909e-05 1.1157053e-05 3.8360701)
(2.5461515e-06 1.0738747e-05 3.8360731)
(2.8542193e-07 1.9323843e-05 3.8360762)
(-6.0917365e-06 2.2346538e-05 3.8360712)
(-3.7849517e-05 2.8448674e-05 3.8360607)
(-3.6819447e-05 3.070425e-05 3.836044)
(-1.8187333e-06 2.8971479e-05 3.8360404)
(1.3123824e-05 2.7405339e-05 3.8360426)
(2.6512992e-05 2.6512992e-05 3.8360508)
(3.0958201e-05 2.6072237e-05 3.8360684)
(1.7744105e-05 2.5801225e-05 3.8360783)
(2.5640986e-06 2.5716208e-05 3.8360816)
(1.5007072e-06 1.8016508e-05 3.8360861)
(3.7482801e-07 1.6128585e-05 3.8360844)
(-3.0905863e-05 2.5357243e-05 3.8360783)
(-3.5286042e-05 3.3700399e-05 3.836063)
(-3.3594217e-06 3.2924972e-05 3.8360588)
(1.1998474e-05 3.1503198e-05 3.8360604)
(2.6072237e-05 3.0958201e-05 3.8360684)
(3.0791432e-05 3.0791432e-05 3.8360862)
(1.755488e-05 2.9924048e-05 3.8360961)
(2.4894733e-06 2.7750767e-05 3.8360991)
(-9.7319403e-07 1.537259e-05 3.8360917)
(1.248998e-06 3.3316599e-06 3.8360864)
(-2.0277701e-05 5.3652729e-06 3.8360847)
(-2.925172e-05 1.8465925e-05 3.836073)
(-4.0159334e-06 1.9003832e-05 3.8360688)
(1.1157053e-05 1.7910909e-05 3.8360701)
(2.5801225e-05 1.7744105e-05 3.8360783)
(2.9924048e-05 1.755488e-05 3.8360961)
(1.470344e-05 1.470344e-05 3.8361042)
(1.1152444e-06 1.0893221e-05 3.8361024)
(-6.5265802e-06 5.027805e-06 3.8361001)
(-9.6324894e-06 -5.2558101e-07 3.8360868)
(-1.5771596e-05 -2.2265204e-06 3.8360838)
(-2.1647486e-05 2.478488e-06 3.8360756)
(-3.9144383e-06 2.8429698e-06 3.8360718)
(1.0738747e-05 2.5461515e-06 3.8360731)
(2.5716208e-05 2.5640986e-06 3.8360816)
(2.7750767e-05 2.4894733e-06 3.8360991)
(1.0893221e-05 1.1152444e-06 3.8361024)
(-5.067235e-08 -5.067235e-08 3.836104)
(-6.0219658e-06 -6.0219658e-06 3.679733)
(-3.9599619e-06 6.4843275e-06 3.6797211)
(-4.4737349e-05 -1.1093638e-05 3.6797142)
(-5.7546298e-05 -5.8660889e-06 3.6797016)
(4.5493907e-08 -3.8447999e-06 3.6797015)
(2.1191673e-05 -3.3026404e-06 3.6797063)
(2.8854842e-05 -2.0304699e-06 3.6797146)
(2.5463914e-05 6.1348693e-07 3.6797259)
(2.1247742e-05 -2.5610317e-06 3.6797315)
(7.4856533e-06 -1.0296632e-05 3.679739)
(6.4843275e-06 -3.9599619e-06 3.6797211)
(-1.1567471e-05 -1.1567471e-05 3.6797137)
(-6.3262968e-05 -3.4055711e-05 3.6797045)
(-4.6673045e-05 -2.2623211e-05 3.6796942)
(3.8906661e-06 -1.8572541e-05 3.6796945)
(2.3913168e-05 -1.7651673e-05 3.6796992)
(3.4729033e-05 -1.4034133e-05 3.6797085)
(2.4668072e-05 -3.4437002e-06 3.6797237)
(4.8825652e-06 -1.8005858e-06 3.6797274)
(-2.4994642e-07 -1.6828704e-05 3.6797292)
(-1.1093638e-05 -4.4737349e-05 3.6797142)
(-3.4055711e-05 -6.3262968e-05 3.6797045)
(-5.5793083e-05 -5.5793083e-05 3.6796968)
(-4.2063133e-05 -5.0764132e-05 3.6796873)
(5.0170315e-06 -4.9769051e-05 3.6796875)
(2.5730081e-05 -5.0450214e-05 3.6796916)
(4.3062813e-05 -4.9110448e-05 3.6797011)
(3.7697462e-05 -3.9621153e-05 3.6797198)
(7.8627372e-06 -2.5606648e-05 3.6797265)
(-2.5330934e-06 -2.0630786e-05 3.6797266)
(-5.8660889e-06 -5.7546298e-05 3.6797016)
(-2.2623211e-05 -4.6673045e-05 3.6796942)
(-5.0764132e-05 -4.2063133e-05 3.6796873)
(-4.0649015e-05 -4.0649015e-05 3.679678)
(4.2045855e-06 -4.1357682e-05 3.6796778)
(2.4571772e-05 -4.3290955e-05 3.679681)
(4.5558091e-05 -4.5099543e-05 3.6796898)
(4.8171869e-05 -4.3316717e-05 3.6797093)
(2.3872929e-05 -3.5704991e-05 3.6797188)
(3.0672936e-06 -2.6596365e-05 3.679721)
(-3.8447999e-06 4.5493901e-08 3.6797015)
(-1.8572541e-05 3.8906661e-06 3.6796945)
(-4.9769051e-05 5.0170315e-06 3.6796875)
(-4.1357682e-05 4.2045855e-06 3.6796778)
(2.3750914e-06 2.3750914e-06 3.679677)
(2.198822e-05 1.019586e-07 3.6796793)
(4.3037051e-05 -2.4487465e-06 3.6796871)
(4.7092018e-05 -4.5449363e-06 3.6797061)
(2.4583095e-05 -5.2954616e-06 3.6797155)
(3.5393253e-06 -4.9864485e-06 3.679718)
(-3.3026404e-06 2.1191673e-05 3.6797063)
(-1.7651673e-05 2.3913168e-05 3.6796992)
(-5.0450214e-05 2.5730081e-05 3.6796916)
(-4.3290955e-05 2.4571772e-05 3.679681)
(1.019586e-07 2.198822e-05 3.6796793)
(1.9747934e-05 1.9747934e-05 3.679681)
(4.0911196e-05 1.7944084e-05 3.6796882)
(4.5325154e-05 1.6575382e-05 3.6797067)
(2.3431416e-05 1.5756503e-05 3.679716)
(3.2733024e-06 1.5688001e-05 3.6797188)
(-2.0304699e-06 2.8854842e-05 3.6797146)
(-1.4034133e-05 3.4729033e-05 3.6797085)
(-4.9110448e-05 4.3062813e-05 3.6797011)
(-4.5099543e-05 4.5558091e-05 3.6796898)
(-2.4487465e-06 4.3037051e-05 3.6796871)
(1.7944084e-05 4.0911196e-05 3.6796882)
(3.9864499e-05 3.9864499e-05 3.6796951)
(4.4904436e-05 3.9549172e-05 3.6797138)
(2.3695714e-05 3.9409569e-05 3.6797236)
(3.4936573e-06 3.9381129e-05 3.6797272)
(6.1348693e-07 2.5463914e-05 3.6797259)
(-3.4437002e-06 2.4668072e-05 3.6797237)
(-3.9621153e-05 3.7697462e-05 3.6797198)
(-4.3316717e-05 4.8171869e-05 3.6797093)
(-4.5449363e-06 4.7092018e-05 3.6797061)
(1.6575382e-05 4.5325154e-05 3.6797067)
(3.9549172e-05 4.4904436e-05 3.6797138)
(4.4870223e-05 4.4870223e-05 3.679733)
(2.3263373e-05 4.2788312e-05 3.679743)
(3.2543419e-06 3.698744e-05 3.6797462)
(-2.5610317e-06 2.1247742e-05 3.6797315)
(-1.8005858e-06 4.8825652e-06 3.6797274)
(-2.5606648e-05 7.8627372e-06 3.6797265)
(-3.5704991e-05 2.3872929e-05 3.6797188)
(-5.2954616e-06 2.4583095e-05 3.6797155)
(1.5756503e-05 2.3431416e-05 3.679716)
(3.9409569e-05 2.3695714e-05 3.6797236)
(4.2788312e-05 2.3263373e-05 3.679743)
(1.5812929e-05 1.5812929e-05 3.6797504)
(-3.7359143e-07 1.2373715e-05 3.6797452)
(-1.0296632e-05 7.4856533e-06 3.679739)
(-1.6828704e-05 -2.4994641e-07 3.6797292)
(-2.0630786e-05 -2.5330934e-06 3.6797266)
(-2.6596365e-05 3.0672936e-06 3.679721)
(-4.9864485e-06 3.5393253e-06 3.679718)
(1.5688001e-05 3.2733024e-06 3.6797188)
(3.9381129e-05 3.4936573e-06 3.6797272)
(3.698744e-05 3.2543419e-06 3.6797462)
(1.2373715e-05 -3.7359142e-07 3.6797452)
(9.6153268e-07 9.6153269e-07 3.6797484)
(-9.0575297e-06 -9.0575298e-06 3.4810069)
(-1.1020852e-05 4.4646569e-06 3.4809996)
(-5.1867093e-05 -1.360353e-05 3.4809959)
(-6.1741337e-05 -7.7286883e-06 3.4809893)
(2.8125265e-06 -5.6353713e-06 3.4809907)
(2.755791e-05 -5.2545167e-06 3.4809947)
(3.8857909e-05 -3.7878258e-06 3.4810016)
(3.4933254e-05 4.861985e-08 3.4810126)
(2.849e-05 -3.7397724e-06 3.4810195)
(9.9854047e-06 -1.3007193e-05 3.4810266)
(4.4646569e-06 -1.1020852e-05 3.4809996)
(-1.7839855e-05 -1.7839855e-05 3.4809946)
(-7.0157103e-05 -4.0439811e-05 3.4809902)
(-4.9789105e-05 -2.7720182e-05 3.4809852)
(6.5237834e-06 -2.3706358e-05 3.4809866)
(3.0329228e-05 -2.3412736e-05 3.4809901)
(4.6812612e-05 -1.9542033e-05 3.4809973)
(3.5005336e-05 -5.6508473e-06 3.4810114)
(8.9062832e-06 -3.7120159e-06 3.4810165)
(7.1798474e-07 -2.1924738e-05 3.4810196)
(-1.360353e-05 -5.1867093e-05 3.4809959)
(-4.0439811e-05 -7.0157103e-05 3.4809902)
(-6.1747414e-05 -6.1747414e-05 3.4809867)
(-4.5007889e-05 -5.6403445e-05 3.4809822)
(7.1199733e-06 -5.5817046e-05 3.4809833)
(3.1722234e-05 -5.7353062e-05 3.4809858)
(5.6619793e-05 -5.6499076e-05 3.4809927)
(5.0763274e-05 -4.5159998e-05 3.4810094)
(1.2216109e-05 -2.8835734e-05 3.4810165)
(-2.1564116e-06 -2.3900661e-05 3.481018)
(-7.7286883e-06 -6.1741337e-05 3.4809893)
(-2.7720182e-05 -4.9789105e-05 3.4809852)
(-5.6403445e-05 -4.5007889e-05 3.4809822)
(-4.3858739e-05 -4.3858739e-05 3.4809776)
(5.5741679e-06 -4.5178074e-05 3.480978)
(2.9647198e-05 -4.8011691e-05 3.4809796)
(5.9005672e-05 -5.0754293e-05 3.4809855)
(6.2668676e-05 -4.8949332e-05 3.4810027)
(3.0165617e-05 -4.0266564e-05 3.4810116)
(4.008032e-06 -3.0205796e-05 3.4810143)
(-5.6353713e-06 2.8125266e-06 3.4809907)
(-2.3706358e-05 6.5237834e-06 3.4809866)
(-5.5817046e-05 7.1199733e-06 3.4809833)
(-4.5178074e-05 5.5741679e-06 3.480978)
(2.967021e-06 2.967021e-06 3.4809777)
(2.6146015e-05 -9.1363955e-08 3.4809784)
(5.5682152e-05 -3.4158413e-06 3.4809834)
(6.1251006e-05 -5.9958057e-06 3.481)
(3.0959652e-05 -6.7675408e-06 3.4810087)
(4.550769e-06 -6.1844283e-06 3.4810116)
(-5.2545167e-06 2.755791e-05 3.4809947)
(-2.3412736e-05 3.0329228e-05 3.4809901)
(-5.7353062e-05 3.1722234e-05 3.4809858)
(-4.8011691e-05 2.9647198e-05 3.4809796)
(-9.1363956e-08 2.6146015e-05 3.4809784)
(2.3264336e-05 2.3264336e-05 3.4809785)
(5.310123e-05 2.110005e-05 3.4809829)
(5.9316976e-05 1.9698379e-05 3.4809992)
(2.9976995e-05 1.9211774e-05 3.481008)
(4.3967737e-06 1.9862746e-05 3.4810113)
(-3.7878258e-06 3.8857909e-05 3.4810016)
(-1.9542033e-05 4.6812612e-05 3.4809973)
(-5.6499076e-05 5.6619793e-05 3.4809927)
(-5.0754293e-05 5.9005672e-05 3.4809855)
(-3.4158413e-06 5.5682152e-05 3.4809834)
(2.110005e-05 5.310123e-05 3.4809829)
(5.2116196e-05 5.2116196e-05 3.4809872)
(5.936273e-05 5.2289781e-05 3.4810039)
(3.1124019e-05 5.2741686e-05 3.4810136)
(4.9847506e-06 5.3154201e-05 3.4810182)
(4.8619859e-08 3.4933254e-05 3.4810126)
(-5.6508473e-06 3.5005336e-05 3.4810114)
(-4.5159998e-05 5.0763274e-05 3.4810094)
(-4.8949332e-05 6.2668676e-05 3.4810027)
(-5.9958057e-06 6.1251006e-05 3.481)
(1.9698379e-05 5.9316976e-05 3.4809992)
(5.2289781e-05 5.936273e-05 3.4810039)
(5.9942467e-05 5.9942467e-05 3.4810214)
(3.0841415e-05 5.6714921e-05 3.481032)
(4.6717832e-06 4.5720859e-05 3.4810368)
(-3.7397724e-06 2.849e-05 3.4810195)
(-3.7120159e-06 8.9062832e-06 3.4810165)
(-2.8835734e-05 1.2216109e-05 3.4810165)
(-4.0266564e-05 3.0165618e-05 3.4810116)
(-6.7675408e-06 3.0959652e-05 3.4810087)
(1.9211774e-05 2.9976995e-05 3.481008)
(5.2741686e-05 3.1124019e-05 3.4810136)
(5.6714921e-05 3.0841415e-05 3.481032)
(1.6902408e-05 1.6902408e-05 3.4810401)
(-2.3446254e-06 1.3082649e-05 3.4810345)
(-1.3007193e-05 9.9854047e-06 3.4810266)
(-2.1924738e-05 7.1798474e-07 3.4810196)
(-2.3900661e-05 -2.1564116e-06 3.481018)
(-3.0205796e-05 4.008032e-06 3.4810143)
(-6.1844283e-06 4.550769e-06 3.4810116)
(1.9862746e-05 4.3967737e-06 3.4810113)
(5.3154201e-05 4.9847506e-06 3.4810182)
(4.5720859e-05 4.6717832e-06 3.4810368)
(1.3082649e-05 -2.3446254e-06 3.4810345)
(2.1252779e-06 2.1252779e-06 3.4810381)
(-1.0823554e-05 -1.0823554e-05 3.2492156)
(-1.4902053e-05 3.1871451e-06 3.2492117)
(-5.4981934e-05 -1.4855857e-05 3.2492101)
(-6.2656351e-05 -8.5613061e-06 3.2492086)
(5.4844931e-06 -6.5156726e-06 3.2492107)
(3.2111824e-05 -6.3977038e-06 3.2492133)
(4.6684318e-05 -4.9366293e-06 3.2492175)
(4.3289994e-05 -2.0074365e-07 3.2492257)
(3.516159e-05 -4.5491969e-06 3.2492314)
(1.217984e-05 -1.492081e-05 3.2492371)
(3.1871451e-06 -1.4902053e-05 3.2492117)
(-2.0950511e-05 -2.0950511e-05 3.2492087)
(-7.2604602e-05 -4.3092811e-05 3.2492079)
(-5.014608e-05 -2.9624471e-05 3.2492073)
(8.729896e-06 -2.5938313e-05 3.2492092)
(3.4480388e-05 -2.6525622e-05 3.2492109)
(5.5979756e-05 -2.2916172e-05 3.2492149)
(4.3871146e-05 -6.6217532e-06 3.2492253)
(1.3081493e-05 -4.7650872e-06 3.2492295)
(1.8082269e-06 -2.5395884e-05 3.2492324)
(-1.4855857e-05 -5.4981934e-05 3.2492101)
(-4.3092811e-05 -7.2604602e-05 3.2492079)
(-6.3655888e-05 -6.3655888e-05 3.2492078)
(-4.5501858e-05 -5.8315407e-05 3.2492072)
(8.5833422e-06 -5.8315782e-05 3.2492085)
(3.5133964e-05 -6.0851757e-05 3.2492092)
(6.6588181e-05 -6.0774604e-05 3.2492125)
(6.1441083e-05 -4.8262783e-05 3.2492247)
(1.6387459e-05 -3.0517869e-05 3.24923)
(-1.5740268e-06 -2.5894277e-05 3.2492315)
(-8.5613061e-06 -6.2656351e-05 3.2492086)
(-2.9624471e-05 -5.014608e-05 3.2492073)
(-5.8315407e-05 -4.5501858e-05 3.2492072)
(-4.4805976e-05 -4.4805976e-05 3.2492064)
(6.1935467e-06 -4.6834159e-05 3.249207)
(3.2021567e-05 -5.0617197e-05 3.2492066)
(6.8568726e-05 -5.4359603e-05 3.2492089)
(7.4127878e-05 -5.2745828e-05 3.2492211)
(3.5449997e-05 -4.3458488e-05 3.2492273)
(4.8906205e-06 -3.289087e-05 3.2492294)
(-6.5156726e-06 5.4844931e-06 3.2492107)
(-2.5938313e-05 8.729896e-06 3.2492092)
(-5.8315782e-05 8.5833422e-06 3.2492085)
(-4.6834159e-05 6.1935467e-06 3.249207)
(2.7721213e-06 2.7721213e-06 3.2492068)
(2.7608519e-05 -1.0595325e-06 3.2492056)
(6.445955e-05 -5.1075228e-06 3.2492069)
(7.2342202e-05 -8.1025992e-06 3.2492185)
(3.6242425e-05 -8.8523574e-06 3.2492247)
(5.4710537e-06 -7.9636106e-06 3.2492268)
(-6.3977038e-06 3.2111824e-05 3.2492133)
(-2.6525622e-05 3.4480388e-05 3.2492109)
(-6.0851757e-05 3.5133964e-05 3.2492092)
(-5.0617197e-05 3.2021567e-05 3.2492066)
(-1.0595325e-06 2.7608519e-05 3.2492056)
(2.4141923e-05 2.4141923e-05 3.2492038)
(6.1525659e-05 2.1723374e-05 3.2492047)
(7.0383042e-05 2.0462486e-05 3.2492161)
(3.5588985e-05 2.0554531e-05 3.2492224)
(5.4831185e-06 2.221203e-05 3.2492251)
(-4.9366293e-06 4.6684318e-05 3.2492175)
(-2.2916172e-05 5.5979756e-05 3.2492149)
(-6.0774604e-05 6.6588181e-05 3.2492125)
(-5.4359603e-05 6.8568726e-05 3.2492089)
(-5.1075228e-06 6.445955e-05 3.2492069)
(2.1723374e-05 6.1525659e-05 3.2492047)
(6.0780113e-05 6.0780113e-05 3.2492056)
(7.1173358e-05 6.1756662e-05 3.2492176)
(3.7991968e-05 6.3296159e-05 3.249225)
(6.5760534e-06 6.4755593e-05 3.2492293)
(-2.0074364e-07 4.3289994e-05 3.2492257)
(-6.6217532e-06 4.3871146e-05 3.2492253)
(-4.8262783e-05 6.1441083e-05 3.2492247)
(-5.2745828e-05 7.4127878e-05 3.2492211)
(-8.1025992e-06 7.2342202e-05 3.2492185)
(2.0462486e-05 7.0383042e-05 3.2492161)
(6.1756662e-05 7.1173358e-05 3.2492176)
(7.2899089e-05 7.2899089e-05 3.2492308)
(3.8587916e-05 6.9256918e-05 3.2492396)
(6.4560746e-06 5.3290829e-05 3.2492448)
(-4.5491969e-06 3.516159e-05 3.2492314)
(-4.7650872e-06 1.3081493e-05 3.2492295)
(-3.0517869e-05 1.6387459e-05 3.24923)
(-4.3458488e-05 3.5449997e-05 3.2492273)
(-8.8523574e-06 3.6242425e-05 3.2492247)
(2.0554531e-05 3.5588985e-05 3.2492224)
(6.3296159e-05 3.7991968e-05 3.249225)
(6.9256918e-05 3.8587916e-05 3.2492396)
(1.8383704e-05 1.8383704e-05 3.2492469)
(-4.0680076e-06 1.3658876e-05 3.2492422)
(-1.492081e-05 1.217984e-05 3.2492371)
(-2.5395884e-05 1.8082269e-06 3.2492324)
(-2.5894277e-05 -1.5740268e-06 3.2492315)
(-3.289087e-05 4.8906205e-06 3.2492294)
(-7.9636106e-06 5.4710537e-06 3.2492268)
(2.221203e-05 5.4831185e-06 3.2492251)
(6.4755593e-05 6.5760534e-06 3.2492293)
(5.3290829e-05 6.4560747e-06 3.2492448)
(1.3658876e-05 -4.0680076e-06 3.2492422)
(3.3061907e-06 3.3061907e-06 3.2492456)
(-1.1626087e-05 -1.1626087e-05 2.9937968)
(-1.640665e-05 2.4871668e-06 2.9937956)
(-5.4905387e-05 -1.5066656e-05 2.9937957)
(-6.1089943e-05 -8.5701997e-06 2.9937982)
(7.5223468e-06 -6.6631992e-06 2.9938005)
(3.4283323e-05 -6.8607658e-06 2.9938013)
(5.1191183e-05 -5.5448112e-06 2.9938025)
(4.8797904e-05 -1.8941627e-07 2.9938069)
(3.9858199e-05 -4.9968664e-06 2.9938101)
(1.3761744e-05 -1.6120752e-05 2.9938137)
(2.4871668e-06 -1.640665e-05 2.9937956)
(-2.1567507e-05 -2.1567507e-05 2.9937942)
(-7.1491428e-05 -4.2756569e-05 2.9937963)
(-4.8484764e-05 -2.9036932e-05 2.9937991)
(1.0086497e-05 -2.5885009e-05 2.993801)
(3.5960904e-05 -2.7477185e-05 2.9938008)
(6.1198204e-05 -2.4491451e-05 2.9938014)
(4.9619825e-05 -6.6592364e-06 2.9938072)
(1.5961199e-05 -5.1221864e-06 2.9938093)
(2.6378584e-06 -2.7496176e-05 2.9938111)
(-1.5066656e-05 -5.4905387e-05 2.9937957)
(-4.2756569e-05 -7.1491428e-05 2.9937963)
(-6.2374807e-05 -6.2374807e-05 2.9937987)
(-4.4218387e-05 -5.7298074e-05 2.9938013)
(9.0820947e-06 -5.7985645e-05 2.9938024)
(3.567688e-05 -6.1566574e-05 2.9938012)
(7.2009124e-05 -6.2448456e-05 2.9938008)
(6.8167174e-05 -4.9405316e-05 2.9938075)
(1.9021259e-05 -3.1020466e-05 2.99381)
(-1.1542522e-06 -2.6911628e-05 2.9938107)
(-8.5701997e-06 -6.1089943e-05 2.9937982)
(-2.9036932e-05 -4.8484764e-05 2.9937991)
(-5.7298074e-05 -4.4218387e-05 2.9938013)
(-4.4095604e-05 -4.4095604e-05 2.9938034)
(5.8179988e-06 -4.6862499e-05 2.9938038)
(3.1498095e-05 -5.1570585e-05 2.9938016)
(7.3359457e-05 -5.6302871e-05 2.9938001)
(8.1047813e-05 -5.5056709e-05 2.9938065)
(3.8454884e-05 -4.5586333e-05 2.9938092)
(5.3770822e-06 -3.4908448e-05 2.9938098)
(-6.6631992e-06 7.5223468e-06 2.9938005)
(-2.5885009e-05 1.0086497e-05 2.993801)
(-5.7985645e-05 9.0820947e-06 2.9938024)
(-4.6862499e-05 5.8179988e-06 2.9938038)
(1.6071126e-06 1.6071126e-06 2.9938035)
(2.6236507e-05 -2.9382562e-06 2.9938005)
(6.8523e-05 -7.6248192e-06 2.9937983)
(7.8883715e-05 -1.0962718e-05 2.9938041)
(3.9169528e-05 -1.1670554e-05 2.9938066)
(5.9643397e-06 -1.04865e-05 2.9938072)
(-6.8607658e-06 3.4283323e-05 2.9938013)
(-2.7477185e-05 3.5960904e-05 2.9938008)
(-6.1566574e-05 3.567688e-05 2.9938012)
(-5.1570585e-05 3.1498095e-05 2.9938016)
(-2.9382562e-06 2.6236507e-05 2.9938005)
(2.2266163e-05 2.2266163e-05 2.993797)
(6.5334996e-05 1.969065e-05 2.9937944)
(7.7002077e-05 1.8689669e-05 2.9938001)
(3.8931102e-05 1.9498378e-05 2.9938029)
(6.1664511e-06 2.2290415e-05 2.9938041)
(-5.5448112e-06 5.1191183e-05 2.9938025)
(-2.4491451e-05 6.1198204e-05 2.9938014)
(-6.2448456e-05 7.2009124e-05 2.9938008)
(-5.6302871e-05 7.3359457e-05 2.9938001)
(-7.6248192e-06 6.8523e-05 2.9937983)
(1.969065e-05 6.5334996e-05 2.9937944)
(6.4946506e-05 6.4946506e-05 2.9937919)
(7.8691443e-05 6.6909204e-05 2.9937983)
(4.2770275e-05 6.9848028e-05 2.9938023)
(7.8256986e-06 7.2779368e-05 2.9938051)
(-1.8941626e-07 4.8797904e-05 2.9938069)
(-6.6592364e-06 4.9619825e-05 2.9938072)
(-4.9405316e-05 6.8167174e-05 2.9938075)
(-5.5056709e-05 8.1047813e-05 2.9938065)
(-1.0962718e-05 7.8883715e-05 2.9938041)
(1.8689669e-05 7.7002077e-05 2.9938001)
(6.6909204e-05 7.8691443e-05 2.9937983)
(8.1903599e-05 8.1903599e-05 2.9938061)
(4.4801267e-05 7.857468e-05 2.9938118)
(8.120678e-06 5.8616069e-05 2.9938161)
(-4.9968665e-06 3.9858199e-05 2.9938101)
(-5.1221864e-06 1.5961199e-05 2.9938093)
(-3.1020466e-05 1.9021259e-05 2.99381)
(-4.5586333e-05 3.8454884e-05 2.9938092)
(-1.1670554e-05 3.9169528e-05 2.9938066)
(1.9498378e-05 3.8931102e-05 2.9938029)
(6.9848028e-05 4.2770275e-05 2.9938023)
(7.857468e-05 4.4801267e-05 2.9938118)
(1.9482738e-05 1.9482738e-05 2.9938169)
(-5.4800445e-06 1.3865785e-05 2.9938129)
(-1.6120752e-05 1.3761744e-05 2.9938137)
(-2.7496176e-05 2.6378584e-06 2.9938111)
(-2.6911628e-05 -1.1542522e-06 2.9938107)
(-3.4908448e-05 5.3770822e-06 2.9938098)
(-1.04865e-05 5.9643397e-06 2.9938072)
(2.2290415e-05 6.1664511e-06 2.9938041)
(7.2779368e-05 7.8256987e-06 2.9938051)
(5.8616069e-05 8.120678e-06 2.9938161)
(1.3865785e-05 -5.4800444e-06 2.9938129)
(4.3760448e-06 4.3760448e-06 2.9938158)
(-1.1594107e-05 -1.1594107e-05 2.723894)
(-1.5977407e-05 2.2819795e-06 2.7238951)
(-5.2359862e-05 -1.440301e-05 2.7238963)
(-5.7755984e-05 -7.9073412e-06 2.7239019)
(8.6264018e-06 -6.2051328e-06 2.7239041)
(3.3993967e-05 -6.734921e-06 2.7239031)
(5.2162232e-05 -5.6600637e-06 2.7239013)
(5.0903655e-05 4.9573201e-08 2.7239019)
(4.1984411e-05 -5.1005657e-06 2.7239023)
(1.4571884e-05 -1.6660212e-05 2.7239035)
(2.2819795e-06 -1.5977407e-05 2.7238951)
(-2.0190765e-05 -2.0190765e-05 2.7238951)
(-6.7643836e-05 -4.0044946e-05 2.7238993)
(-4.5459173e-05 -2.6518755e-05 2.7239047)
(1.0385032e-05 -2.4032902e-05 2.7239062)
(3.481157e-05 -2.6649807e-05 2.7239042)
(6.233897e-05 -2.4524997e-05 2.7239016)