/*--------------------------------*- C++ -*----------------------------------*\
| =========                 |                                                 |
| \\      /  F ield         | OpenFOAM: The Open Source CFD Toolbox           |
|  \\    /   O peration     | Version:  v2106                                 |
|   \\  /    A nd           | Website:  www.openfoam.com                      |
|    \\/     M anipulation  |                                                 |
\*---------------------------------------------------------------------------*/
FoamFile
{
    version     2.0;
    format      ascii;
    arch        "LSB;label=32;scalar=64";
    class       volScalarField;
    location    "2.5";
    object      gradTy;
}
// * * * * * * * * * * * * * * * * * * * * * * * * * * * * * * * * * * * * * //

dimensions      [0 -1 0 1 0 0 0];

internalField   nonuniform List<scalar> 
4000
(
0.00048393273
0.0041771883
-0.00014004224
0.00067007127
0.00097765758
0.0010522742
0.0011067627
0.0011789658
0.0011055838
0.0006669732
0.0054657481
0.0045297856
-0.00096052048
0.00079250731
0.0013991188
0.0015589315
0.0017700157
0.0022276936
0.0025185517
0.0015348706
-0.0016027941
-0.0068634697
-0.0053400724
-0.0046241084
-0.0044539025
-0.0044305231
-0.0042856934
-0.0037033111
-0.0026132851
-0.0019442092
-0.0072258402
-0.0055492905
-0.0048662009
-0.0046631205
-0.0046708788
-0.0047593777
-0.0048318598
-0.0046914229
-0.0040521976
-0.0030566182
-0.00033756901
0.00023573542
0.00042885523
0.00042932072
0.00033259803
0.00020081696
4.041766e-05
-0.00013194702
-0.00026524436
-0.0003435746
0.0013698932
0.0015635508
0.0017407901
0.00173176
0.0015798091
0.0014395796
0.0013142151
0.0011939986
0.0010785959
0.00097789361
0.0016836374
0.0018736748
0.0023523994
0.0026008869
0.0024203543
0.0022681229
0.0021747733
0.0021174276
0.0020766977
0.002052243
0.0015560162
0.0015542479
0.0023045521
0.0032266561
0.0030842143
0.0029209941
0.0028485952
0.0028229185
0.0027887539
0.0027299876
0.001060107
0.00029211806
0.00036728408
0.0020512199
0.0020020887
0.0018395923
0.0017859837
0.0017744077
0.0016930528
0.0014846427
0.00024230877
-0.00019630183
-0.00041347859
0.00024974873
0.00025024098
0.00019752857
0.0001831061
0.00018122541
0.00014392862
4.2285342e-05
0.0023312961
0.0078678179
-0.0029809198
-0.00057051436
0.00043956683
0.00072347039
0.0010048463
0.0013622912
0.00074307025
-0.0011169746
0.014381987
0.0064136634
-0.0080722231
-0.0027550733
-0.00066115649
-9.1425958e-06
0.001059901
0.0033233107
0.0039829166
-0.00041545285
-0.011598946
-0.024256444
-0.020767682
-0.018363049
-0.017662667
-0.01754727
-0.016813383
-0.013944097
-0.0093650791
-0.007208034
-0.026457571
-0.021326841
-0.019046504
-0.018221825
-0.018245412
-0.018657577
-0.018970899
-0.018172098
-0.015211859
-0.011200037
-0.0017367909
0.00020418624
0.0010091398
0.0010199646
0.00057338766
-5.3103496e-05
-0.00079684179
-0.0014969405
-0.0018581002
-0.0018785829
0.0060786739
0.0069265931
0.0077997314
0.0077758764
0.0070742451
0.006405647
0.0058132969
0.0052737722
0.0048106305
0.0044772666
0.0080058178
0.0089640489
0.011338271
0.012567223
0.011823751
0.011123386
0.010691876
0.010436855
0.010261372
0.010169519
0.0075771587
0.0071844946
0.010500174
0.014632799
0.014259214
0.01357154
0.013256548
0.013141037
0.012913146
0.012437055
0.0055982874
0.0018793887
0.0018595238
0.0086154513
0.0088315845
0.008233809
0.0080350789
0.0079664735
0.0073310971
0.0057579778
0.0014567092
-0.00040333562
-0.0014755371
0.0010346945
0.0011990106
0.0010210393
0.00097676804
0.00095980419
0.00065937379
-8.8942046e-05
-0.00086962971
0.0069839409
-0.0053417344
-0.0021060496
-0.00077597591
-0.00038358571
0.00021282822
0.0011190199
-0.00072567343
-0.0048666199
0.0056617994
-0.0010463577
-0.017230174
-0.010099333
-0.0073552946
-0.0065245439
-0.0045423749
0.00027949487
0.00093132984
-0.0071825777
-0.024249365
-0.037884351
-0.03330234
-0.030067687
-0.029216907
-0.029277353
-0.028222939
-0.023045318
-0.015120303
-0.011760274
-0.036581255
-0.029732617
-0.026706375
-0.025647183
-0.025842587
-0.026701303
-0.027454865
-0.026311457
-0.02181189
-0.016141703
-0.0014334791
0.0011502168
0.0021413098
0.0019405504
0.0010871905
-4.5120481e-05
-0.0013561605
-0.002504993
-0.0029945283
-0.0029188471
0.010746187
0.012229393
0.013559106
0.01322336
0.011946828
0.010780009
0.0097859382
0.0089468054
0.0083193888
0.0080074731
0.014409051
0.016662959
0.021213089
0.022894995
0.021602935
0.020435122
0.019769731
0.019441073
0.019238987
0.019175592
0.01343422
0.012026467
0.018907924
0.025129104
0.024550899
0.023490736
0.02308435
0.022959992
0.022313214
0.020692681
0.011462751
0.0024842909
0.004000678
0.013769335
0.014170433
0.013355481
0.0132311
0.01309
0.010963789
0.0081226555
0.0037490409
-0.00039190559
-0.0016602308
0.0018481137
0.002119894
0.0018985679
0.0019119501
0.0018563046
0.00083159479
-3.778442e-05
-0.0043991484
0.004736912
-0.0081040915
-0.0042852801
-0.0028086935
-0.0024126364
-0.0014832934
0.00044816275
-0.0018708775
-0.0075218648
-0.0028928198
-0.0084502344
-0.024878281
-0.016526651
-0.013567567
-0.012894855
-0.010252177
-0.0025156822
-0.0013153588
-0.012293657
-0.032681396
-0.046214684
-0.040757812
-0.037084092
-0.036357169
-0.036854767
-0.035876038
-0.028943934
-0.018706095
-0.015071143
-0.042038573
-0.034095476
-0.030727859
-0.029694833
-0.030212528
-0.031624816
-0.032946016
-0.03164362
-0.026083115
-0.019429105
3.323409e-05
0.0028421997
0.0036650299
0.003071525
0.0017350469
7.4482582e-05
-0.0017888528
-0.0033201557
-0.0038684269
-0.0036426873
0.015480886
0.017468987
0.018796276
0.017950118
0.016062788
0.014426218
0.013108472
0.012108607
0.011510399
0.011460357
0.021078962
0.02537016
0.031458135
0.033280993
0.031439331
0.029886354
0.02912172
0.02889136
0.028789372
0.028768594
0.018601827
0.018020451
0.027538645
0.035190393
0.034401546
0.033110819
0.032803473
0.032778471
0.031257593
0.027019955
0.015521839
0.0035667976
0.0057438642
0.017439589
0.017958379
0.017117057
0.017310129
0.016994291
0.011551613
0.0090392085
0.0054683972
-0.00018259014
-0.0018504682
0.0022407111
0.0025855386
0.0023912042
0.0025521769
0.0023773522
-0.00027291487
0.00070241593
-0.0064935363
0.0032008082
-0.0097526622
-0.0055408652
-0.0040401209
-0.0037670775
-0.0027155743
3.4856616e-05
-0.0026811229
-0.0093251335
-0.0079010849
-0.012789774
-0.028992172
-0.019873206
-0.016995608
-0.016785102
-0.014010107
-0.004051214
-0.0026612238
-0.015718314
-0.037184629
-0.050297139
-0.044268061
-0.040436872
-0.04001647
-0.041117669
-0.04050542
-0.032376176
-0.020672956
-0.017134897
-0.044263711
-0.035694899
-0.032267147
-0.031443309
-0.03238917
-0.034420651
-0.036386875
-0.035092845
-0.028867972
-0.021655188
0.0020163618
0.0046770434
0.0051044658
0.0039962455
0.0021271237
-6.5500859e-05
-0.0024488924
-0.0042985244
-0.004851797
-0.0044337507
0.019756866
0.021743686
0.022742366
0.021254737
0.018744661
0.01667872
0.015127093
0.014122199
0.013773338
0.014240033
0.027858077
0.033560978
0.040591964
0.042302471
0.03991977
0.038069448
0.037363248
0.037487682
0.037811653
0.038107391
0.025044401
0.025096078
0.036393285
0.044928542
0.043912188
0.042525638
0.042558433
0.042974043
0.040660136
0.032778256
0.020425091
0.0063851054
0.0087579902
0.021626385
0.022195647
0.021491158
0.022313481
0.022110868
0.012117694
0.0093792283
0.0071587493
0.00051473865
-0.0015459778
0.0028734447
0.0032625449
0.0031521423
0.003573675
0.0033493007
-0.0016809117
0.0015236567
-0.0076286373
0.0022463581
-0.010470679
-0.0060341682
-0.0045923678
-0.0045092207
-0.0034794275
-0.00014148779
-0.0032063566
-0.010516456
-0.010503239
-0.014766302
-0.030372607
-0.020879882
-0.01828181
-0.018695754
-0.016151742
-0.0046671327
-0.0033585203
-0.017899481
-0.038752271
-0.05117306
-0.044865851
-0.041101798
-0.041102064
-0.042889462
-0.042835073
-0.034016494
-0.02150955
-0.018250758
-0.044161364
-0.035343897
-0.032070567
-0.03158011
-0.033009613
-0.035675967
-0.038313678
-0.037176242
-0.030630343
-0.02318209
0.0038655732
0.0061529945
0.0060497016
0.0043653304
0.0019538443
-0.00074677876
-0.0035998791
-0.0057108634
-0.0062393052
-0.0056128996
0.022633011
0.024302421
0.024763078
0.022569412
0.019459013
0.017015689
0.015311047
0.014422343
0.014487213
0.015655448
0.032903969
0.039455569
0.04693259
0.048328537
0.045432316
0.043364452
0.042838969
0.043527241
0.044612295
0.045640926
0.030511579
0.030921186
0.043304801
0.052246709
0.050988136
0.049607283
0.050164303
0.051380608
0.048813525
0.037560334
0.024782527
0.0092200747
0.011550179
0.024985811
0.025544331
0.025083775
0.026777437
0.02719746
0.012957163
0.0096270203
0.0085845708
0.0012744712
-0.0011094028
0.0034469992
0.0038560995
0.003864603
0.0046349227
0.0045503575
-0.0028672046
0.0023302623
-0.0080699993
0.0017264138
-0.010458198
-0.0059488246
-0.0046251203
-0.0047622565
-0.0038488135
-0.00013147926
-0.0034684675
-0.011189872
-0.011388326
-0.014970624
-0.029678567
-0.020155381
-0.017967539
-0.019072713
-0.017000224
-0.0046223668
-0.003555456
-0.019085881
-0.038111403
-0.049624261
-0.04329616
-0.039772269
-0.040249532
-0.042735156
-0.043347285
-0.034293648
-0.021532191
-0.01868013
-0.042404304
-0.033654687
-0.030693276
-0.03060806
-0.032528645
-0.035796664
-0.039081474
-0.038216458
-0.031642786
-0.024230957
0.0052214797
0.0070013318
0.0063041476
0.0040384448
0.0011155444
-0.0020395304
-0.0052926111
-0.0076095414
-0.0081008681
-0.007278982
0.023797048
0.024961509
0.024764363
0.021863756
0.018211534
0.0154556
0.013667858
0.012973043
0.013534387
0.015472419
0.035533277
0.042479443
0.049983623
0.050920951
0.047563828
0.04535094
0.04508127
0.046443615
0.048483523
0.050518245
0.033872024
0.034442542
0.047316792
0.056257636
0.05475548
0.053449379
0.054622008
0.056851632
0.054540916
0.040687073
0.027666713
0.011079124
0.013203199
0.026692642
0.0271887
0.027023201
0.029688077
0.031097832
0.013523518
0.0096246336
0.0095524172
0.0018310128
-0.0008011994
0.0037323873
0.00414002
0.0042803113
0.0054320417
0.0056367925
-0.0038038537
0.0030375362
-0.0079391719
0.0015626068
-0.0098625959
-0.0054146285
-0.0042490249
-0.0046118021
-0.0038757824
3.394571e-05
-0.0034926591
-0.011408231
-0.010940679
-0.013825815
-0.027421156
-0.018158977
-0.016456764
-0.018248714
-0.016793726
-0.0040833855
-0.0033654516
-0.019450799
-0.035853905
-0.046319758
-0.040187067
-0.037027472
-0.037988754
-0.041125345
-0.042437156
-0.033530423
-0.020973322
-0.018617446
-0.039548969
-0.031128613
-0.028584577
-0.0289303
-0.031307891
-0.035102263
-0.038963312
-0.038443769
-0.032080723
-0.024929805
0.0059070124
0.0071112521
0.0058172752
0.0030133797
-0.00035468803
-0.003885074
-0.0074510487
-0.0099148637
-0.010363891
-0.00937589
0.023277696
0.02383756
0.022940734
0.019389158
0.015285314
0.012292797
0.010482874
0.010024937
0.011101687
0.01378918
0.035718583
0.042687205
0.049883912
0.050282127
0.046542406
0.044252337
0.044274546
0.046336847
0.049391885
0.052539968
0.034856751
0.035431436
0.048285026
0.05689527
0.055167615
0.053982428
0.055786428
0.059099767
0.057409201
0.041805918
0.02874921
0.011585946
0.013381797
0.026498922
0.026895761
0.027037896
0.030660004
0.033241016
0.013366155
0.0090945328
0.0099782292
0.0020626576
-0.00074533577
0.0036332416
0.0040219428
0.0042919089
0.0058136046
0.0063906304
-0.0045885842
0.0035428825
-0.0073540879
0.0016701753
-0.0088380275
-0.0045646773
-0.0035802178
-0.0041547396
-0.0036289699
0.0003125637
-0.0033223543
-0.011242147
-0.0095172134
-0.011743123
-0.024096492
-0.015330107
-0.01414149
-0.016560203
-0.015786541
-0.0032142412
-0.0029104035
-0.019159109
-0.032517177
-0.041869456
-0.036104161
-0.033387276
-0.034799489
-0.038493506
-0.040472428
-0.032008865
-0.02002225
-0.01821027
-0.036059778
-0.028173063
-0.026104775
-0.026868391
-0.029636354
-0.033849971
-0.038179261
-0.038033581
-0.032061039
-0.025344046
0.0058798667
0.0064947732
0.00464977
0.0013885436
-0.0023318102
-0.006139872
-0.0099196384
-0.012467237
-0.012870519
-0.011752901
0.021297544
0.021224416
0.019652493
0.015551476
0.011109586
0.0079636479
0.0061837573
0.0059781457
0.0075421548
0.010898727
0.033758912
0.040459867
0.047104874
0.046944509
0.042921264
0.040617143
0.040935762
0.043657616
0.047683474
0.051922079
0.033642948
0.034102871
0.046519085
0.05455305
0.052637307
0.051602169
0.053995704
0.058349881
0.057494582
0.040929353
0.028071731
0.010739664
0.012126863
0.024538259
0.024816397
0.025252595
0.029736978
0.033517058
0.01231645
0.0079019653
0.0098657997
0.0019460065
-0.00096667088
0.0031539933
0.0035113244
0.003899072
0.005749039
0.0067248084
-0.005294447
0.0037818188
-0.0064491504
0.0019515908
-0.007544552
-0.0035351539
-0.002740045
-0.003498099
-0.003191405
0.00065186116
-0.0030125832
-0.010770936
-0.0074835021
-0.0091266044
-0.020179804
-0.012084218
-0.01139783
-0.014342804
-0.014245424
-0.0021813916
-0.0023141078
-0.01837357
-0.028580515
-0.036810632
-0.031538129
-0.029301149
-0.03110113
-0.035227246
-0.037789262
-0.029977806
-0.018832464
-0.017570188
-0.032306182
-0.025099421
-0.023524207
-0.024662423
-0.027731653
-0.032237496
-0.036902332
-0.037119593
-0.031660028
-0.02549789
0.0052011974
0.0052567798
0.002942611
-0.00066931661
-0.0046324626
-0.0086104352
-0.012499682
-0.015066445
-0.015420371
-0.014211399
0.018194208
0.017517168
0.015346615
0.010829037
0.0061759362
0.0029618178
0.0012554075
0.0012962983
0.0032859948
0.0071922206
0.030125815
0.036350756
0.042287228
0.041600195
0.037405131
0.035144185
0.035739612
0.039031869
0.043907191
0.049118717
0.030646306
0.030914538
0.042577622
0.049871336
0.047819926
0.046950646
0.049850513
0.055118226
0.055184531
0.038333531
0.025905815
0.0087716198
0.0097136368
0.021179237
0.02133534
0.022034284
0.027231262
0.032121132
0.010446567
0.0060922783
0.0092851713
0.0015268186
-0.001421137
0.0023683358
0.0026869547
0.0031743176
0.0052911053
0.0066486679
-0.0059428945
0.0037458086
-0.0053603171
0.0023112785
-0.0061310873
-0.0024500958
-0.0018402815
-0.0027442485
-0.0026464859
0.00099966638
-0.0026195894
-0.010075204
-0.0051791509
-0.0063353061
-0.016086008
-0.0087772241
-0.0085513482
-0.011896743
-0.012417846
-0.0011329026
-0.001685089
-0.017244524
-0.024441695
-0.031583756
-0.026883613
-0.025128641
-0.027233471
-0.031649202
-0.034675504
-0.027645167
-0.017520656
-0.016777561
-0.028560347
-0.022124139
-0.021025688
-0.022473996
-0.025743102
-0.03040614
-0.03526245
-0.035801887
-0.030926111
-0.02539157
0.0040036557
0.0035624267
0.00088413706
-0.0029581348
-0.0070480069
-0.011086386
-0.014982632
-0.017506264
-0.017807143
-0.016543977
0.014357379
0.013148072
0.01049088
0.0057060388
0.00097153273
-0.0022285863
-0.0038269931
-0.0035610481
-0.0012288746
0.0030851712
0.025361754
0.030977626
0.036125594
0.034981662
0.030729848
0.028561783
0.029397386
0.033139009
0.038691022
0.044693817
0.026390756
0.026431101
0.037123514
0.043585949
0.041459852
0.040761439
0.044057971
0.050055075
0.051026464
0.034441053
0.022644754
0.0060324483
0.0065331325
0.016900054
0.01694345
0.017862342
0.023589669
0.02941715
0.007975647
0.0038374448
0.0083462375
0.00089062286
-0.0020267191
0.0013860197
0.0016629753
0.0022281299
0.0045390058
0.0062299928
-0.0065179351
0.0034711913
-0.0042089323
0.0026687982
-0.0047217589
-0.0014096018
-0.00097166247
-0.0019791801
-0.0020666949
0.0013127927
-0.0021930353
-0.009230134
-0.002884166
-0.003653406
-0.012141311
-0.0056809109
-0.0058528262
-0.0094616831
-0.010507793
-0.0001818614
-0.0011047318
-0.015900722
-0.020402619
-0.026520219
-0.022430124
-0.021131512
-0.023448359
-0.028007493
-0.031361025
-0.02517325
-0.016167902
-0.01588614
-0.025003641
-0.019378497
-0.018715157
-0.020396732
-0.023761426
-0.028449327
-0.03335403
-0.034155764
-0.029891497
-0.025015901
0.0024587552
0.0016043877
-0.0013220171
-0.0052715934
-0.0093746121
-0.013369644
-0.017178538
-0.019602968
-0.019847931
-0.018565103
0.010175845
0.008533296
0.0055208775
0.00062063009
-0.0040717266
-0.007183296
-0.0086481808
-0.0081892457
-0.0056092206
-0.0010377097
0.020003276
0.024941236
0.029283098
0.027775478
0.023576661
0.021542155
0.022570712
0.02662415
0.03265207
0.039227715
0.021414664
0.021225153
0.030817725
0.036418275
0.034280259
0.033748883
0.037319219
0.043830242
0.045614954
0.029722908
0.018717524
0.0029031338
0.0029986636
0.012190244
0.012138526
0.013228109
0.019290062
0.025831673
0.0051827289
0.0013670092
0.0071738915
0.00013679279
-0.0026901018
0.00032463443
0.00056029536
0.0011798529
0.0036079693
0.0055636159
-0.0069867277
0.0030198028
-0.0030918079
0.0029657525
-0.0034092544
-0.00048465112
-0.00019874867
-0.0012667854
-0.001507669
0.0015614141
-0.001771828
-0.0083012439
-0.00080212808
-0.0012782979
-0.0085734351
-0.0029759659
-0.0034708729
-0.0072073536
-0.0086653473
0.00059989953
-0.00062345703
-0.014445273
-0.016669071
-0.021844677
-0.018366739
-0.017478913
-0.019913711
-0.024477508
-0.028017586
-0.022680433
-0.014824716
-0.014929191
-0.0217407
-0.016924942
-0.016638138
-0.018471913
-0.02183295
-0.026424793
-0.031245997
-0.032241096
-0.028582501
-0.024363861
0.00074734543
-0.00042585594
-0.0034840422
-0.0074244514
-0.011436922
-0.015296586
-0.018936822
-0.021215322
-0.021403289
-0.020131803
0.005997361
0.0040339805
0.00080288654
-0.0040698945
-0.0086101612
-0.011569794
-0.012884467
-0.012270854
-0.0095403882
-0.0048588443
0.014526637
0.018768937
0.022333891
0.020566012
0.016517588
0.014647276
0.015816528
0.020040884
0.026336218
0.03325325
0.016205965
0.015809726
0.024247855
0.029002596
0.026911351
0.026536129
0.03025543
0.037055819
0.039513459
0.024627827
0.014526648
-0.00026733883
-0.00051852421
0.0074839028
0.0073587108
0.0085674214
0.014770721
0.021779787
0.0023427283
-0.0010882248
0.0058889004
-0.00064051553
-0.0033256435
-0.00071016563
-0.00051321642
0.00013749117
0.0026078128
0.0047488456
-0.007315942
0.0024615435
-0.0020776282
0.0031670637
-0.0022541621
0.00028259469
0.0004399778
-0.00064812348
-0.0010067904
0.0017297805
-0.0013829598
-0.0073424568
0.00094098968
0.00067618879
-0.0055168759
-0.00075884442
-0.0014977151
-0.0052366728
-0.0069874269
0.0011795046
-0.00026324143
-0.012956092
-0.013361327
-0.017688031
-0.01479636
-0.014261372
-0.016725832
-0.021171449
-0.024765412
-0.020247482
-0.013518498
-0.013926343
-0.018817237
-0.014776028
-0.014798077
-0.016705499
-0.01997474
-0.024367305
-0.028991717
-0.030110498
-0.027027404
-0.023438521
-0.00096370248
-0.0023597798
-0.0054415309
-0.0092698571
-0.013103337
-0.016751496
-0.020158032
-0.02225518
-0.022387453
-0.021154198
0.0021030065
-6.7145902e-05
-0.0033867053
-0.0081067262
-0.012403682
-0.015161421
-0.016317497
-0.015590057
-0.012802416
-0.0081464305
0.009315293
0.012882149
0.015731471
0.013806116
0.0099882775
0.0083024323
0.0095596413
0.013821162
0.02018414
0.027217505
0.011163424
0.010599169
0.017887609
0.021846083
0.019851922
0.019616663
0.023367003
0.030241162
0.033206292
0.01953825
0.010409507
-0.0031988489
-0.0037260898
0.0031222896
0.0029458871
0.0042232714
0.010389514
0.017619614
-0.00031339809
-0.0033330627
0.0045954306
-0.0013640664
-0.0038664699
-0.0016359631
-0.0014738818
-0.00081379346
0.0016301087
0.0038751161
-0.0074819197
0.0018620064
-0.0012080295
0.0032584376
-0.0012883312
0.00087494424
0.00092864912
-0.00014396123
-0.00058479388
0.0018145021
-0.0010423886
-0.0063958536
0.0022874218
0.0021669692
-0.0030274608
0.0009431515
3.721558e-05
-0.0035964237
-0.0055253914
0.001555556
-2.3808627e-05
-0.011489106
-0.010530746
-0.014105986
-0.011754563
-0.011508808
-0.013925504
-0.01815148
-0.021682957
-0.017925887
-0.012261451
-0.012889928
-0.016238061
-0.01291259
-0.013173384
-0.015083531
-0.018187989
-0.022299525
-0.026636933
-0.027815065
-0.025261118
-0.022257108
-0.002537198
-0.0040655562
-0.0070767731
-0.010708228
-0.014292767
-0.017671435
-0.020796981
-0.022689364
-0.022769747
-0.021597083
-0.0013047365
-0.003574901
-0.0068673435
-0.011332354
-0.015316287
-0.017836568
-0.018833087
-0.018032176
-0.015271301
-0.010758285
0.0046465484
0.0075842434
0.009798528
0.0078098365
0.0042829873
0.0027919072
0.0040873797
0.0082671263
0.01451887
0.021464594
0.0065799521
0.00589356
0.012081535
0.015315066
0.01345735
0.0133423
0.017019135
0.02377379
0.027075264
0.014748719
0.0066198622
-0.0056956714
-0.0064247999
-0.00065971323
-0.0008668422
0.00043256817
0.0064070479
0.013630036
-0.0026180236
-0.0052267193
0.0033745639
-0.001978901
-0.0042689677
-0.002397886
-0.0022662941
-0.0016161098
0.00074238302
0.0030143729
-0.0074753136
0.0012752425
-0.00050153212
0.0032418097
-0.00052039006
0.0012945716
0.0012688861
0.0002410071
-0.00024898247
0.0018215775
-0.00075703195
-0.0054924754
0.0032327432
0.0032044563
-0.0011010566
0.0021535157
0.0011505951
-0.0022911279
-0.0042957164
0.0017485782
0.00010989634
-0.010082582
-0.0081781524
-0.01109901
-0.009229093
-0.009208808
-0.011514332
-0.0154433
-0.018817174
-0.015746124
-0.011057482
-0.011829889
-0.013982911
-0.011298997
-0.011731259
-0.013584236
-0.016468156
-0.020239822
-0.024224876
-0.025407262
-0.023326694
-0.020851508
-0.0038738122
-0.0054541589
-0.0083184558
-0.01168865
-0.014974042
-0.018043911
-0.020858851
-0.022534662
-0.022569144
-0.021474649
-0.0041025846
-0.0063793875
-0.0095488961
-0.013682229
-0.017305616
-0.019567039
-0.020409283
-0.019572413
-0.016909451
-0.012634785
0.00069308949
0.0030639451
0.0047327956
0.0027611208
-0.00043464424
-0.0017296297
-0.00044001817
0.0035587467
0.0095492147
0.016234237
0.0026427049
0.0018806307
0.0070483176
0.0096403229
0.0079464999
0.00793003
0.011446331
0.017919263
0.021394782
0.010461263
0.0033249145
-0.0076461649
-0.008506246
-0.0037299304
-0.0039504922
-0.0026699172
0.002987135
0.010005573
-0.0044708651
-0.0066875411
0.0022825257
-0.0024529177
-0.0045124601
-0.0029678561
-0.0028623363
-0.0022381923
-1.2559034e-05
0.0022184893
-0.0073015719
0.00074070526
4.1219228e-05
0.0031301863
5.8037635e-05
0.001557019
0.0014743089
0.00051347353
3.032941e-06
0.0017630823
-0.00052715163
-0.004653676
0.0038095649
0.0038347925
0.00030741558
0.0029284815
0.0018887972
-0.0012969904
-0.0032909808
0.0017916446
0.00016065098
-0.0087614347
-0.0062710734
-0.0086308243
-0.0071773844
-0.0073227834
-0.0094691382
-0.013048161
-0.016192631
-0.013724628
-0.009907329
-0.010756864
-0.012018907
-0.0098944999
-0.010437525
-0.012186254
-0.014811482
-0.018206824
-0.021798548
-0.022941264
-0.021274206
-0.019266036
-0.0049138196
-0.0064791379
-0.0091392915
-0.012204516
-0.015159862
-0.017899392
-0.020390447
-0.021848218
-0.021844359
-0.020840758
-0.0062388612
-0.0084457752
-0.011418639
-0.015169268
-0.018405705
-0.020399853
-0.021097973
-0.020258132
-0.017749537
-0.013784953
-0.0024653569
-0.00059094375
0.00062327813
-0.0012674104
-0.0041111617
-0.0052162365
-0.0039694412
-0.00022867721
0.0053834106
0.011670927
-0.00055560085
-0.0013508777
0.0028960309
0.0049344242
0.0034203726
0.0034805116
0.0067688084
0.012833363
0.016339376
0.0067923252
0.00061292788
-0.0090122096
-0.0099401515
-0.0060444462
-0.0062649243
-0.0050369861
0.0002082552
0.0068626178
-0.005832783
-0.007688138
0.0013522072
-0.0027743172
-0.00459585
-0.0033406741
-0.0032570701
-0.0026716067
-0.00061401428
0.0015200707
-0.0069787147
0.0002831674
0.00043203487
0.0029428314
0.00046641584
0.0016857067
0.0015655307
0.00068716388
0.00017979341
0.0016541296
-0.00034864383
-0.0038926795
0.0040724841
0.0041240555
0.00126708
0.0033414471
0.0023137986
-0.00057401506
-0.0024894944
0.0017225329
0.00015328726
-0.0075408751
-0.0047581659
-0.006643853
-0.0055407743
-0.0057988192
-0.0077533446
-0.010952405
-0.013818725
-0.011868975
-0.0088117308
-0.0096835247
-0.010309319
-0.0086606468
-0.0092626006
-0.010873217
-0.013218207
-0.016221142
-0.019400757
-0.020471451
-0.019157909
-0.017553447
-0.0056339955
-0.0071318098
-0.0095494577
-0.012285396
-0.014897382
-0.017300817
-0.01946882
-0.02071561
-0.020681785
-0.019777079
-0.007720865
-0.0097994709
-0.012524158
-0.015864851
-0.018706708
-0.020436288
-0.021003856
-0.020188462
-0.017875451
-0.014269297
-0.0048246355
-0.0033741869
-0.0025280876
-0.0042907563
-0.0067783966
-0.0077055495
-0.0065305705
-0.0031022487
0.002048144
0.0078391228
-0.0029991351
-0.003791791
-0.00035635354
0.0012152032
-0.00011350494
2.2373285e-06
0.0030149
0.0085809518
0.011998378
0.0037863828
-0.0014930863
-0.0098133
-0.010756494
-0.0076278502
-0.0078384902
-0.0066893191
-0.0019193246
0.0042520524
-0.0067138936
-0.0082450161
0.00059666943
-0.0029473663
-0.0045327722
-0.0035285622
-0.0034631309
-0.0029254244
-0.0010590279
0.00093522811
-0.0065336915
-8.5520226e-05
0.00069029206
0.002701327
0.00073025113
0.0017074343
0.0015660853
0.00077925002
0.00029304682
0.001510433
-0.00021496624
-0.0032161361
0.0040857593
0.0041456979
0.0018575388
0.0034708909
0.0024923191
-7.5426817e-05
-0.0018627911
0.0015779894
0.00011077283
-0.0064291938
-0.0035802055
-0.0050710447
-0.0042550126
-0.0045809637
-0.0063251603
-0.0091343554
-0.011694899
-0.010181319
-0.0077728799
-0.0086245359
-0.0088190157
-0.0075652644
-0.0081842355
-0.0096354121
-0.011693257
-0.014305073
-0.017072712
-0.018049901
-0.017032563
-0.015770203
-0.0060413944
-0.0074336708
-0.0095877121
-0.011987062
-0.014257372
-0.016332079
-0.018189242
-0.019238557
-0.019183213
-0.018381002
-0.0085999734
-0.010509531
-0.012955083
-0.01587927
-0.018334538
-0.019811139
-0.020263756
-0.019494171
-0.017403293
-0.014182248
-0.0064366537
-0.0053398793
-0.0047832375
-0.0063868424
-0.0085280659
-0.0092933207
-0.0082110983
-0.0051282999
-0.00049080288
0.0047408873
-0.0047291688
-0.0054911884
-0.0027556049
-0.0015691695
-0.0027154561
-0.0025631408
0.00014500749
0.0051571546
0.008393691
0.0014324166
-0.0030192511
-0.010109105
-0.011026434
-0.008552322
-0.0087467364
-0.0076947671
-0.0034348133
0.00217442
-0.0071595513
-0.0084060043
1.3554669e-05
-0.0029876152
-0.0043464231
-0.0035553859
-0.00350485
-0.0030205787
-0.001357487
0.00046721475
-0.0059983365
-0.00036375393
0.0008389462
0.0024266978
0.00087716322
0.0016490423
0.0014994358
0.00080767779
0.00035554379
0.001346585
-0.00011859904
-0.0026255673
0.0039142264
0.003971552
0.0021589523
0.0033919274
0.0024883089
0.00024572884
-0.0013808669
0.00139013
5.1976707e-05
-0.0054297181
-0.0026777013
-0.0038441845
-0.0032573259
-0.0036152763
-0.0051428895
-0.0075688784
-0.0098141361
-0.0086604058
-0.0067946074
-0.0075956367
-0.0075172509
-0.006583842
-0.0071878944
-0.0084694056
-0.01024529
-0.012481125
-0.014851978
-0.015723665
-0.014949758
-0.013971858
-0.006165602
-0.0074276488
-0.0093118006
-0.011381251
-0.01332352
-0.015087026
-0.016654031
-0.017523745
-0.017454763
-0.016754755
-0.008956656
-0.010672494
-0.012825832
-0.015343741
-0.01743252
-0.018674252
-0.019028308
-0.018319844
-0.01646436
-0.013636174
-0.0073903929
-0.0065820321
-0.0062459917
-0.0076735594
-0.0094885323
-0.010110278
-0.0091341246
-0.006410928
-0.0023088796
0.0023334033
-0.0058248967
-0.0065361109
-0.0043920531
-0.0035165822
-0.0044898323
-0.0043173146
-0.0019258845
0.0025079304
0.0054977377
-0.00031952663
-0.0040248776
-0.0099831061
-0.010844726
-0.0089183371
-0.0090929183
-0.0081493476
-0.0044092478
0.0005949837
-0.0072367048
-0.0082378336
-0.00041038491
-0.0029173532
-0.0040648481
-0.0034513727
-0.0034129149
-0.0029847006
-0.0015274572
0.00011015465
-0.0054056334
-0.00055726454
0.00090155154
0.00213757
0.00093408336
0.0015351886
0.0013870122
0.0007893758
0.00037955493
0.0011750191
-5.2047164e-05
-0.0021186529
0.0036173315
0.0036661292
0.0022455057
0.0031711264
0.0023584024
0.00043249018
-0.0010154241
0.0011846715
-9.1887728e-06
-0.0045421284
-0.0019956179
-0.0028991899
-0.0024906207
-0.0028532551
-0.0041679616
-0.0062301257
-0.0081651765
-0.0073025988
-0.0058817976
-0.0066123234
-0.0063785672
-0.0056991739
-0.0062656705
-0.0073765149
-0.0088849284
-0.010770132
-0.012770481
-0.013532427
-0.012954803
-0.01220914
-0.0060507548
-0.007169474
-0.008789391
-0.010546345
-0.012183008
-0.013660028
-0.01496322
-0.01567367
-0.015597911
-0.014996556
-0.0088869136
-0.0103981
-0.01226074
-0.014395314
-0.016146293
-0.017175526
-0.017447176
-0.016809484
-0.015191302
-0.012748121
-0.0077951435
-0.0072166786
-0.0070429621
-0.0082891517
-0.0098052564
-0.010302794
-0.0094392152
-0.0070737537
-0.0035056245
0.00054477656
-0.0063866375
-0.0070340406
-0.0053804021
-0.0047506617
-0.0055647239
-0.0053853532
-0.003308849
0.00054823747
0.0032498042
-0.0015434244
-0.0045883312
-0.0095288391
-0.010315131
-0.0088385637
-0.0089918442
-0.0081614503
-0.0049304808
-0.00054292001
-0.0070221426
-0.0078153395
-0.00069515549
-0.0027617612
-0.0037171153
-0.0032487784
-0.0032200063
-0.002847875
-0.0015912193
-0.00014760765
-0.004786705
-0.00067640557
0.00090023663
0.0018492028
0.00092545654
0.0013870742
0.0012471151
0.00073920838
0.00037599751
0.0010055386
-8.451525e-06
-0.0016903457
0.0032457961
0.003283626
0.0021816892
0.0028639506
0.0021497232
0.00052185815
-0.00074156595
0.0009805396
-6.3651316e-05
-0.0037633417
-0.0014858529
-0.0021790458
-0.0019055283
-0.002253346
-0.0033663263
-0.0050930088
-0.0067338875
-0.0061023258
-0.0050394728
-0.0056885325
-0.0053825254
-0.0049000376
-0.0054144915
-0.0063608355
-0.007622822
-0.0091895074
-0.010852977
-0.011506897
-0.01108454
-0.0105251
-0.0057482565
-0.0067200553
-0.0080903489
-0.009559718
-0.010919021
-0.012138708
-0.01320758
-0.013779964
-0.013703
-0.013194208
-0.0084910426
-0.009797719
-0.011382332
-0.01316528
-0.014612486
-0.015453839
-0.015658237
-0.015095975
-0.013707861
-0.011629799
-0.0077668641
-0.0073673688
-0.0073081827
-0.0083766858
-0.0096255727
-0.010017942
-0.0092677084
-0.0072455455
-0.0041907873
-0.00071272346
-0.0065222881
-0.0070989616
-0.0058443734
-0.0054045469
-0.0060759362
-0.005899967
-0.0041255601
-0.000823046
0.0015698287
-0.0023249365
-0.0047955456
-0.0088393721
-0.0095394269
-0.0084255788
-0.0085576297
-0.0078398228
-0.0050914541
-0.0013070008
-0.0065933446
-0.0072130166
-0.00086406948
-0.0025459637
-0.0033305297
-0.0029786701
-0.0029575702
-0.0026394757
-0.0015721955
-0.00032076647
-0.0041687056
-0.00073388117
0.00085449035
0.001573182
0.00087225895
0.0012219054
0.001094481
0.00066949785
0.00035402592
0.00084526737
1.8099979e-05
-0.0013338154
0.0028402918
0.0028669447
0.0020207211
0.0025141038
0.0018993753
0.0005440825
-0.00053841097
0.00079038087
-0.00010647919
-0.0030881443