/*--------------------------------*- C++ -*----------------------------------*\
| =========                 |                                                 |
| \\      /  F ield         | OpenFOAM: The Open Source CFD Toolbox           |
|  \\    /   O peration     | Version:  v2106                                 |
|   \\  /    A nd           | Website:  www.openfoam.com                      |
|    \\/     M anipulation  |                                                 |
\*---------------------------------------------------------------------------*/
FoamFile
{
    version     2.0;
    format      ascii;
    arch        "LSB;label=32;scalar=64";
    class       volScalarField;
    location    "2.5";
    object      gradTz;
}
// * * * * * * * * * * * * * * * * * * * * * * * * * * * * * * * * * * * * * //

dimensions      [0 -1 0 1 0 0 0];

internalField   nonuniform List<scalar> 
4000
(
2088.6782
2088.682
2088.6987
2088.6711
2088.6666
2088.6692
2088.6734
2088.6779
2088.6816
2088.6838
2088.682
2088.7024
2088.6953
2088.6725
2088.67
2088.6731
2088.6778
2088.6828
2088.6857
2088.6847
2088.6987
2088.6953
2088.6914
2088.6708
2088.669
2088.6723
2088.6777
2088.6846
2088.6893
2088.6866
2088.6711
2088.6725
2088.6708
2088.651
2088.6493
2088.6525
2088.658
2088.6661
2088.6742
2088.676
2088.6666
2088.67
2088.669
2088.6493
2088.6475
2088.6504
2088.6554
2088.6631
2088.671
2088.673
2088.6692
2088.6731
2088.6723
2088.6525
2088.6504
2088.6529
2088.6575
2088.6649
2088.6724
2088.674
2088.6734
2088.6778
2088.6777
2088.658
2088.6554
2088.6575
2088.6619
2088.669
2088.6764
2088.6779
2088.6779
2088.6828
2088.6846
2088.6661
2088.6631
2088.6649
2088.669
2088.6761
2088.6834
2088.6849
2088.6816
2088.6857
2088.6893
2088.6742
2088.671
2088.6724
2088.6764
2088.6834
2088.6906
2088.6917
2088.6838
2088.6847
2088.6866
2088.676
2088.673
2088.674
2088.6779
2088.6849
2088.6917
2088.6917
3004.9588
3004.9567
3004.959
3004.9341
3004.9296
3004.933
3004.939
3004.9457
3004.9509
3004.9561
3004.9567
3004.9609
3004.9511
3004.9299
3004.927
3004.9308
3004.9376
3004.9456
3004.9481
3004.9478
3004.959
3004.9511
3004.9427
3004.9232
3004.9208
3004.9249
3004.9327
3004.9438
3004.9493
3004.9474
3004.9341
3004.9299
3004.9232
3004.9045
3004.9022
3004.906
3004.9137
3004.9263
3004.9356
3004.938
3004.9296
3004.927
3004.9208
3004.9022
3004.8997
3004.903
3004.91
3004.9221
3004.9315
3004.9343
3004.933
3004.9308
3004.9249
3004.906
3004.903
3004.9057
3004.9123
3004.9239
3004.9329
3004.9354
3004.939
3004.9376
3004.9327
3004.9137
3004.91
3004.9123
3004.9185
3004.9299
3004.9387
3004.9413
3004.9457
3004.9456
3004.9438
3004.9263
3004.9221
3004.9239
3004.9299
3004.9412
3004.95
3004.9525
3004.9509
3004.9481
3004.9493
3004.9356
3004.9315
3004.9329
3004.9387
3004.95
3004.9583
3004.9593
3004.9561
3004.9478
3004.9474
3004.938
3004.9343
3004.9354
3004.9413
3004.9525
3004.9593
3004.9592
2860.4388
2860.4287
2860.4215
2860.4076
2860.4059
2860.4093
2860.4153
2860.4224
2860.4263
2860.4323
2860.4287
2860.424
2860.4138
2860.402
2860.401
2860.4046
2860.4116
2860.421
2860.4224
2860.4227
2860.4215
2860.4138
2860.4047
2860.3938
2860.393
2860.3965
2860.404
2860.4166
2860.421
2860.4205
2860.4076
2860.402
2860.3938
2860.3833
2860.3823
2860.3853
2860.3925
2860.406
2860.4131
2860.4149
2860.4059
2860.401
2860.393
2860.3823
2860.381
2860.3835
2860.39
2860.4031
2860.4102
2860.4122
2860.4093
2860.4046
2860.3965
2860.3853
2860.3835
2860.3855
2860.3915
2860.4042
2860.4111
2860.4131
2860.4153
2860.4116
2860.404
2860.3925
2860.39
2860.3915
2860.3973
2860.4099
2860.4169
2860.4192
2860.4224
2860.421
2860.4166
2860.406
2860.4031
2860.4042
2860.4099
2860.4227
2860.4296
2860.4317
2860.4263
2860.4224
2860.421
2860.4131
2860.4102
2860.4111
2860.4169
2860.4296
2860.4352
2860.4338
2860.4323
2860.4227
2860.4205
2860.4149
2860.4122
2860.4131
2860.4192
2860.4317
2860.4338
2860.435
2688.1075
2688.0991
2688.0939
2688.0861
2688.0862
2688.0896
2688.0953
2688.103
2688.1069
2688.112
2688.0991
2688.0934
2688.0873
2688.081
2688.0813
2688.0845
2688.0909
2688.1014
2688.1039
2688.1053
2688.0939
2688.0873
2688.0822
2688.0763
2688.0766
2688.0793
2688.0858
2688.0987
2688.1033
2688.1034
2688.0861
2688.081
2688.0763
2688.0706
2688.0705
2688.0727
2688.0786
2688.0921
2688.0984
2688.0999
2688.0862
2688.0813
2688.0766
2688.0705
2688.0701
2688.0716
2688.0769
2688.0899
2688.0962
2688.0979
2688.0896
2688.0845
2688.0793
2688.0727
2688.0716
2688.0726
2688.0775
2688.0903
2688.0965
2688.0984
2688.0953
2688.0909
2688.0858
2688.0786
2688.0769
2688.0775
2688.0822
2688.0951
2688.1017
2688.1042
2688.103
2688.1014
2688.0987
2688.0921
2688.0899
2688.0903
2688.0951
2688.1083
2688.1151
2688.1173
2688.1069
2688.1039
2688.1033
2688.0984
2688.0962
2688.0965
2688.1017
2688.1151
2688.12
2688.1162
2688.112
2688.1053
2688.1034
2688.0999
2688.0979
2688.0984
2688.1042
2688.1173
2688.1162
2688.1186
2495.6081
2495.6032
2495.6005
2495.5971
2495.5983
2495.601
2495.6055
2495.6128
2495.6174
2495.6221
2495.6032
2495.5995
2495.5969
2495.5945
2495.5957
2495.5978
2495.6025
2495.6119
2495.6154
2495.6176
2495.6005
2495.5969
2495.595
2495.5928
2495.5936
2495.5952
2495.5996
2495.6107
2495.6153
2495.6165
2495.5971
2495.5945
2495.5928
2495.5905
2495.5909
2495.5918
2495.5955
2495.6068
2495.6126
2495.6144
2495.5983
2495.5957
2495.5936
2495.5909
2495.5908
2495.5911
2495.5942
2495.6051
2495.6108
2495.6127
2495.601
2495.5978
2495.5952
2495.5918
2495.5911
2495.591
2495.5937
2495.6045
2495.6102
2495.6124
2495.6055
2495.6025
2495.5996
2495.5955
2495.5942
2495.5937
2495.5964
2495.6074
2495.6138
2495.6169
2495.6128
2495.6119
2495.6107
2495.6068
2495.6051
2495.6045
2495.6074
2495.6191
2495.626
2495.6293
2495.6174
2495.6154
2495.6153
2495.6126
2495.6108
2495.6102
2495.6138
2495.626
2495.6313
2495.6274
2495.6221
2495.6176
2495.6165
2495.6144
2495.6127
2495.6124
2495.6169
2495.6293
2495.6274
2495.6299
2290.1061
2290.1037
2290.1026
2290.1028
2290.1045
2290.106
2290.1085
2290.1137
2290.1173
2290.1209
2290.1037
2290.1015
2290.1015
2290.1022
2290.1036
2290.1045
2290.1068
2290.1134
2290.1161
2290.1181
2290.1026
2290.1015
2290.1019
2290.1025
2290.1035
2290.1037
2290.1055
2290.1131
2290.1164
2290.1175
2290.1028
2290.1022
2290.1025
2290.1028
2290.1033
2290.1029
2290.104
2290.1115
2290.1153
2290.1166
2290.1045
2290.1036
2290.1035
2290.1033
2290.1033
2290.1023
2290.1028
2290.11
2290.1137
2290.115
2290.106
2290.1045
2290.1037
2290.1029
2290.1023
2290.1009
2290.1011
2290.1082
2290.112
2290.1137
2290.1085
2290.1068
2290.1055
2290.104
2290.1028
2290.1011
2290.1013
2290.1088
2290.1134
2290.1162
2290.1137
2290.1134
2290.1131
2290.1115
2290.11
2290.1082
2290.1088
2290.1171
2290.1227
2290.1261
2290.1173
2290.1161
2290.1164
2290.1153
2290.1137
2290.112
2290.1134
2290.1227
2290.1273
2290.1241
2290.1209
2290.1181
2290.1175
2290.1166
2290.115
2290.1137
2290.1162
2290.1261
2290.1241
2290.1264
2078.0798
2078.0794
2078.0794
2078.0823
2078.084
2078.0843
2078.0847
2078.0871
2078.089
2078.0911
2078.0794
2078.0784
2078.0803
2078.0832
2078.0845
2078.0842
2078.0841
2078.0874
2078.0886
2078.0898
2078.0794
2078.0803
2078.0824
2078.085
2078.0858
2078.0848
2078.084
2078.0877
2078.089
2078.0896
2078.0823
2078.0832
2078.085
2078.0873
2078.0877
2078.0859
2078.0845
2078.0879
2078.0891
2078.0894
2078.084
2078.0845
2078.0858
2078.0877
2078.0875
2078.0853
2078.0834
2078.0865
2078.0876
2078.0878
2078.0843
2078.0842
2078.0848
2078.0859
2078.0853
2078.0828
2078.0806
2078.0837
2078.085
2078.0856
2078.0847
2078.0841
2078.084
2078.0845
2078.0834
2078.0806
2078.0785
2078.0821
2078.0842
2078.0859
2078.0871
2078.0874
2078.0877
2078.0879
2078.0865
2078.0837
2078.0821
2078.0865
2078.0898
2078.0925
2078.089
2078.0886
2078.089
2078.0891
2078.0876
2078.085
2078.0842
2078.0898
2078.0928
2078.0902
2078.0911
2078.0898
2078.0896
2078.0894
2078.0878
2078.0856
2078.0859
2078.0925
2078.0902
2078.092
1865.2116
1865.2127
1865.2135
1865.2183
1865.2198
1865.2189
1865.2173
1865.2171
1865.2171
1865.2175
1865.2127
1865.2126
1865.2159
1865.2203
1865.2214
1865.2198
1865.2176
1865.2178
1865.2173
1865.2175
1865.2135
1865.2159
1865.219
1865.2231
1865.2236
1865.2214
1865.2185
1865.2185
1865.2177
1865.2175
1865.2183
1865.2203
1865.2231
1865.2267
1865.2268
1865.2241
1865.2205
1865.2201
1865.2188
1865.2179
1865.2198
1865.2214
1865.2236
1865.2268
1865.2265
1865.2234
1865.2194
1865.2187
1865.2173
1865.2164
1865.2189
1865.2198
1865.2214
1865.2241
1865.2234
1865.22
1865.2159
1865.2152
1865.214
1865.2135
1865.2173
1865.2176
1865.2185
1865.2205
1865.2194
1865.2159
1865.2119
1865.2117
1865.2113
1865.2118
1865.2171
1865.2178
1865.2185
1865.2201
1865.2187
1865.2152
1865.2117
1865.2124
1865.2132
1865.2149
1865.2171
1865.2173
1865.2177
1865.2188
1865.2173
1865.214
1865.2113
1865.2132
1865.2143
1865.212
1865.2175
1865.2175
1865.2175
1865.2179
1865.2164
1865.2135
1865.2118
1865.2149
1865.212
1865.2131
1656.3284
1656.3306
1656.3318
1656.3379
1656.3391
1656.3372
1656.334
1656.3316
1656.3298
1656.3287
1656.3306
1656.3312
1656.3353
1656.3407
1656.3413
1656.3388
1656.335
1656.3325
1656.3305
1656.3297
1656.3318
1656.3353
1656.339
1656.3439
1656.3441
1656.3411
1656.3365
1656.3335
1656.3308
1656.3298
1656.3379
1656.3407
1656.3439
1656.3484
1656.3482
1656.3447
1656.3396
1656.336
1656.3326
1656.3307
1656.3391
1656.3413
1656.3441
1656.3482
1656.3477
1656.3439
1656.3386
1656.3348
1656.3312
1656.3292
1656.3372
1656.3388
1656.3411
1656.3447
1656.3439
1656.34
1656.3346
1656.3309
1656.3276
1656.3259
1656.334
1656.335
1656.3365
1656.3396
1656.3386
1656.3346
1656.3293
1656.3261
1656.3234
1656.3226
1656.3316
1656.3325
1656.3335
1656.336
1656.3348
1656.3309
1656.3261
1656.3236
1656.3221
1656.3225
1656.3298
1656.3305
1656.3308
1656.3326
1656.3312
1656.3276
1656.3234
1656.3221
1656.3212
1656.3192
1656.3287
1656.3297
1656.3298
1656.3307
1656.3292
1656.3259
1656.3226
1656.3225
1656.3192
1656.3195
1455.3884
1455.3914
1455.3928
1455.3995
1455.4003
1455.3976
1455.3933
1455.3892
1455.3861
1455.3838
1455.3914
1455.3924
1455.3968
1455.4027
1455.4029
1455.3997
1455.3948
1455.3903
1455.3871
1455.3855
1455.3928
1455.3968
1455.4008
1455.406
1455.4059
1455.4023
1455.3967
1455.3913
1455.3873
1455.3857
1455.3995
1455.4027
1455.406
1455.4109
1455.4104
1455.4066
1455.4006
1455.3946
1455.3896
1455.387
1455.4003
1455.4029
1455.4059
1455.4104
1455.4098
1455.4057
1455.3996
1455.3935
1455.3884
1455.3857
1455.3976
1455.3997
1455.4023
1455.4066
1455.4057
1455.4016
1455.3955
1455.3896
1455.3847
1455.3822
1455.3933
1455.3948
1455.3967
1455.4006
1455.3996
1455.3955
1455.3896
1455.384
1455.3797
1455.3778
1455.3892
1455.3903
1455.3913
1455.3946
1455.3935
1455.3896
1455.384
1455.3791
1455.3757
1455.375
1455.3861
1455.3871
1455.3873
1455.3896
1455.3884
1455.3847
1455.3797
1455.3757
1455.3732
1455.3714
1455.3838
1455.3855
1455.3857
1455.387
1455.3857
1455.3822
1455.3778
1455.375
1455.3714
1455.3709
1265.5008
1265.5041
1265.5054
1265.5123
1265.5127
1265.5096
1265.5047
1265.4995
1265.4954
1265.4923
1265.5041
1265.5052
1265.5096
1265.5155
1265.5153
1265.5119
1265.5064
1265.5005
1265.4967
1265.4946
1265.5054
1265.5096
1265.5134
1265.5187
1265.5182
1265.5145
1265.5084
1265.5015
1265.4966
1265.4947
1265.5123
1265.5155
1265.5187
1265.5237
1265.523
1265.5191
1265.5128
1265.5053
1265.4993
1265.4963
1265.5127
1265.5153
1265.5182
1265.523
1265.5222
1265.5183
1265.512
1265.5044
1265.4984
1265.4952
1265.5096
1265.5119
1265.5145
1265.5191
1265.5183
1265.5143
1265.5081
1265.5007
1265.4949
1265.4919
1265.5047
1265.5064
1265.5084
1265.5128
1265.512
1265.5081
1265.5021
1265.4949
1265.4895
1265.487
1265.4995
1265.5005
1265.5015
1265.5053
1265.5044
1265.5007
1265.4949
1265.4883
1265.4836
1265.482
1265.4954
1265.4967
1265.4966
1265.4993
1265.4984
1265.4949
1265.4895
1265.4836
1265.48
1265.4784
1265.4923
1265.4946
1265.4947
1265.4963
1265.4952
1265.4919
1265.487
1265.482
1265.4784
1265.4773
1088.968
1088.9714
1088.9723
1088.9791
1088.9792
1088.9759
1088.9708
1088.965
1088.9606
1088.9569
1088.9714
1088.9723
1088.9764
1088.9821
1088.9816
1088.9781
1088.9725
1088.9659
1088.9619
1088.9596
1088.9723
1088.9764
1088.9799
1088.9849
1088.9842
1088.9806
1088.9746
1088.9668
1088.9617
1088.9597
1088.9791
1088.9821
1088.9849
1088.9897
1088.9889
1088.9853
1088.9792
1088.9709
1088.9646
1088.9614
1088.9792
1088.9816
1088.9842
1088.9889
1088.9882
1088.9846
1088.9786
1088.9703
1088.964
1088.9608
1088.9759
1088.9781
1088.9806
1088.9853
1088.9846
1088.9811
1088.9752
1088.9671
1088.961
1088.9579
1088.9708
1088.9725
1088.9746
1088.9792
1088.9786
1088.9752
1088.9695
1088.9616
1088.9557
1088.9528
1088.965
1088.9659
1088.9668
1088.9709
1088.9703
1088.9671
1088.9616
1088.954
1088.9486
1088.9464
1088.9606
1088.9619
1088.9617
1088.9646
1088.964
1088.961
1088.9557
1088.9486
1088.9442
1088.943
1088.9569
1088.9596
1088.9597
1088.9614
1088.9608
1088.9579
1088.9528
1088.9464
1088.943
1088.9415
927.34624
927.34944
927.35007
927.35648
927.35625
927.35306
927.34818
927.34237
927.33793
927.33406
927.34944
927.35018
927.35377
927.35902
927.35837
927.35505
927.34977
927.34299
927.33914
927.33689
927.35007
927.35377
927.35669
927.3614
927.36061
927.35728
927.3517
927.34373
927.33877
927.337
927.35648
927.35902
927.3614
927.36589
927.36509
927.36189
927.35636
927.34792
927.34179
927.33885
927.35625
927.35837
927.36061
927.36509
927.36439
927.36136
927.35606
927.34777
927.34163
927.33858
927.35306
927.35505
927.35728
927.36189
927.36136
927.35851
927.35338
927.34527
927.33925
927.33626
927.34818
927.34977
927.3517
927.35636
927.35606
927.35338
927.34839
927.34037
927.33444
927.33147
927.34237
927.34299
927.34373
927.34792
927.34777
927.34527
927.34037
927.33246
927.32678
927.32425
927.33793
927.33914
927.33877
927.34179
927.34163
927.33925
927.33444
927.32678
927.32203
927.32129
927.33406
927.33689
927.337
927.33885
927.33858
927.33626
927.33147
927.32425
927.32129
927.31955
781.51874
781.52156
781.52183
781.5277
781.52733
781.52442
781.52003
781.51454
781.5104
781.50663
781.52156
781.522
781.52501
781.52974
781.52902
781.5261
781.52141
781.51492
781.5115
781.50949
781.52183
781.52501
781.52737
781.53162
781.53084
781.52803
781.52317
781.51549
781.511
781.50959
781.5277
781.52974
781.53162
781.53571
781.53501
781.53243
781.52775
781.51967
781.51406
781.51153
781.52733
781.52902
781.53084
781.53501
781.53448
781.53215
781.52778
781.51992
781.51432
781.51169
781.52442
781.5261
781.52803
781.53243
781.53215
781.53005
781.52589
781.5182
781.51269
781.51006
781.52003
781.52141
781.52317
781.52775
781.52778
781.52589
781.52183
781.51416
781.50859
781.50579
781.51454
781.51492
781.51549
781.51967
781.51992
781.5182
781.51416
781.50642
781.50088
781.49827
781.5104
781.5115
781.511
781.51406
781.51432
781.51269
781.50859
781.50088
781.49615
781.49592
781.50663
781.50949
781.50959
781.51153
781.51169
781.51006
781.50579
781.49827
781.49592
781.49414
651.7782
651.78056
651.78049
651.78575
651.78532
651.78284
651.77912
651.77421
651.7706
651.76713
651.78056
651.78067
651.78309
651.78726
651.78657
651.78417
651.78026
651.77435
651.77154
651.7699
651.78049
651.78309
651.78491
651.78866
651.78797
651.78578
651.78181
651.77478
651.77097
651.77
651.78575
651.78726
651.78866
651.79232
651.79178
651.7899
651.7862
651.77885
651.774
651.772
651.78532
651.78657
651.78797
651.79178
651.79148
651.78991
651.78658
651.77949
651.77467
651.77259
651.78284
651.78417
651.78578
651.7899
651.78991
651.7886
651.7855
651.77857
651.77382
651.77168
651.77912
651.78026
651.78181
651.7862
651.78658
651.7855
651.78249
651.7755
651.77056
651.7681
651.77421
651.77435
651.77478
651.77885
651.77949
651.77857
651.7755
651.76831
651.76318
651.7607
651.7706
651.77154
651.77097
651.774
651.77467
651.77382
651.77056
651.76318
651.75875
651.75902
651.76713
651.7699
651.77
651.772
651.77259
651.77168
651.7681
651.7607
651.75902
651.75734
537.91633
537.9182
537.91785
537.92246
537.92207
537.92008
537.91713
537.91297
537.91
537.90696
537.9182
537.91801
537.91987
537.92348
537.92289
537.92107
537.91801
537.91289
537.91077
537.90958
537.91785
537.91987
537.92118
537.92444
537.92392
537.92238
537.91937
537.91321
537.91018
537.90969
537.92246
537.92348
537.92444
537.92767
537.92734
537.92617
537.9235
537.91709
537.91312
537.91171
537.92207
537.92289
537.92392
537.92734
537.92729
537.92647
537.92421
537.91808
537.91417
537.91268
537.92008
537.92107
537.92238
537.92617
537.92647
537.92594
537.92391
537.91794
537.91405
537.91247
537.91713
537.91801
537.91937
537.9235
537.92421
537.92391
537.92194
537.91585
537.91169
537.90966
537.91297
537.91289
537.91321
537.91709
537.91808
537.91794
537.91585
537.90944
537.90491
537.90267
537.91
537.91077
537.91018
537.91312
537.91417
537.91405
537.91169
537.90491
537.90095
537.9017
537.90696
537.90958
537.90969
537.91171
537.91268
537.91247
537.90966
537.90267
537.9017
537.90021
439.31663
439.31803
439.31747
439.32145
439.32114
439.31969
439.31753
439.31417
439.31188
439.30935
439.31803
439.31758
439.31895
439.32204
439.32159
439.32036
439.31817
439.31392
439.3125
439.31175
439.31747
439.31895
439.31984
439.32264
439.32231
439.32141
439.31933
439.31415
439.31193
439.3119
439.32145
439.32204
439.32264
439.32545
439.32535
439.32485
439.32317
439.3178
439.31474
439.3139
439.32114
439.32159
439.32231
439.32535
439.32556
439.32543
439.32416
439.31908
439.3161
439.31519
439.31969
439.32036
439.32141
439.32485
439.32543
439.32559
439.32456
439.31962
439.31663
439.3156
439.31753
439.31817
439.31933
439.32317
439.32416
439.32456
439.32356
439.31847
439.31513
439.31356
439.31417
439.31392
439.31415
439.3178
439.31908
439.31962
439.31847
439.31296
439.30913
439.3072
439.31188
439.3125
439.31193
439.31474
439.3161
439.31663
439.31513
439.30913
439.30573
439.30688
439.30935
439.31175
439.3119
439.3139
439.31519
439.3156
439.31356
439.3072
439.30688
439.30565
355.04745
355.04842
355.04772
355.05111
355.05092
355.04998
355.04856
355.04601
355.04439
355.04238
355.04842
355.04778
355.04873
355.05134
355.05106
355.05038
355.049
355.04563
355.04486
355.04454
355.04772
355.04873
355.04927
355.05165
355.05153
355.0512
355.04999
355.0458
355.04434
355.04471
355.05111
355.05134
355.05165
355.05408
355.0542
355.0543
355.05349
355.04918
355.04699
355.04667
355.05092
355.05106
355.05153
355.0542
355.05464
355.05511
355.05472
355.05069
355.04858
355.04821
355.04998
355.05038
355.0512
355.0543
355.05511
355.05586
355.0557
355.05179
355.04965
355.04913
355.04856
355.049
355.04999
355.05349
355.05472
355.0557
355.05555
355.05145
355.04893
355.04781
355.04601
355.04563
355.0458
355.04918
355.05069
355.05179
355.05145
355.04689
355.04378
355.0422
355.04439
355.04486
355.04434
355.04699
355.04858
355.04965
355.04893
355.04378
355.04098
355.04245
355.04238
355.04454
355.04471
355.04667
355.04821
355.04913
355.04781
355.0422
355.04245
355.04148
283.9518
283.95241
283.95165
283.95449
283.95444
283.95396
283.9532
283.9514
283.95038
283.94887
283.95241
283.95164
283.95226
283.95444
283.95434
283.95414
283.95347
283.95094
283.95072
283.95077
283.95165
283.95226
283.95254
283.95455
283.95461
283.95478
283.95431
283.95106
283.95027
283.95098
283.95449
283.95444
283.95455
283.95662
283.95695
283.95753
283.95747
283.95414
283.95274
283.95285
283.95444
283.95434
283.95461
283.95695
283.95759
283.95852
283.95886
283.95581
283.95448
283.95456
283.95396
283.95414
283.95478
283.95753
283.95852
283.95974
283.96028
283.95734
283.95597
283.95588
283.9532
283.95347
283.95431
283.95747
283.95886
283.96028
283.96083
283.95768
283.95589
283.95519
283.9514
283.95094
283.95106
283.95414
283.95581
283.95734
283.95768
283.95403
283.95161
283.95037
283.95038
283.95072
283.95027
283.95274
283.95448
283.95597
283.95589
283.95161
283.94939
283.95109
283.94887
283.95077
283.95098
283.95285
283.95456
283.95588
283.95519
283.95037
283.95109
283.95038
224.73097
224.73128
224.7305
224.73287
224.73294
224.73286
224.73265
224.7315
224.73099
224.72993
224.73128
224.73044
224.7308
224.73261
224.73267
224.73287
224.73278
224.731
224.73124
224.73158
224.7305
224.7308
224.73088
224.73257
224.7328
224.73337
224.7335
224.73111
224.73087
224.73182
224.73287
224.73261
224.73257
224.73434
224.73483
224.73578
224.73631
224.73387
224.73313
224.73359
224.73294
224.73267
224.7328
224.73483
224.73561
224.7369
224.7378
224.73562
224.73495
224.73538
224.73286
224.73287
224.73337
224.73578
224.7369
224.73845
224.73954
224.73744
224.73671
224.73697
224.73265
224.73278
224.7335
224.73631
224.7378
224.73954
224.74062
224.73831
224.73716
224.73681
224.7315
224.731
224.73111
224.73387
224.73562
224.73744
224.73831
224.73549
224.7337
224.73278
224.73099
224.73124
224.73087
224.73313
224.73495
224.73671
224.73716
224.7337
224.73202
224.73384
224.72993
224.73158
224.73182
224.73359
224.73538
224.73697
224.73681
224.73278
224.73384
224.73337
176.01889
176.01898
176.01822
176.02017
176.02035
176.02059
176.02082
176.02021
176.02012
176.01944
176.01898
176.01811
176.01829
176.01978
176.01997
176.02049
176.02085
176.0197
176.02029
176.02084
176.01822
176.01829
176.01824
176.01964
176.02001
176.02086
176.02146
176.0198
176.02001
176.02111
176.02017
176.01978
176.01964
176.02114
176.02175
176.02296
176.02393
176.02226
176.02204
176.02275
176.02035
176.01997
176.02001
176.02175
176.02264
176.02416
176.02546
176.02402
176.02387
176.02455
176.02059
176.02049
176.02086
176.02296
176.02416
176.02591
176.02738
176.026
176.02579
176.02631
176.02082
176.02085
176.02146
176.02393
176.02546
176.02738
176.02883
176.02724
176.02663
176.02656
176.02021
176.0197
176.0198
176.02226
176.02402
176.026
176.02724
176.02517
176.02391
176.02327
176.02012
176.02029
176.02001
176.02204
176.02387
176.02579
176.02663
176.02391
176.0227
176.02456
176.01944
176.02084
176.02111
176.02275
176.02455
176.02631
176.02656
176.02327
176.02456
176.02429
136.44553
136.44546
136.44476
136.44635
136.44662
136.44709
136.44764
136.44747
136.44769
136.44732
136.44546
136.44462
136.44466
136.44588
136.44618
136.44691
136.44761
136.44697
136.4478
136.4485
136.44476
136.44466
136.44453
136.44569
136.44616
136.4472
136.44812
136.44707
136.4476
136.44878
136.44635
136.44588
136.44569
136.44695
136.44764
136.44901
136.45027
136.44922
136.44941
136.45028
136.44662
136.44618
136.44616
136.44764
136.44858
136.45022
136.45178
136.45094
136.45118
136.45203
136.44709
136.44691
136.4472
136.44901
136.45022
136.45207
136.45377
136.45298
136.45316
136.45385
136.44764
136.44761
136.44812
136.45027
136.45178
136.45377
136.45544
136.45445
136.45425
136.4544
136.44747
136.44697
136.44707
136.44922
136.45094
136.45298
136.45445
136.453
136.45219
136.45178
136.44769
136.4478
136.4476
136.44941
136.45118
136.45316
136.45425
136.45219
136.45137
136.45319
136.44732
136.4485
136.44878
136.45028
136.45203
136.45385
136.4544
136.45178
136.45319
136.45309
104.68781
104.68763
104.687
104.68829
104.68862
104.68925
104.69002
104.69017
104.69062
104.69049
104.68763
104.68684
104.6868
104.68779
104.68816
104.68903
104.68994
104.68971
104.69068
104.69146
104.687
104.6868
104.68662
104.68758
104.68811
104.68925
104.69037
104.68981
104.69054
104.69174
104.68829
104.68779
104.68758
104.68863
104.68936
104.69079
104.69221
104.69167
104.69213
104.69309
104.68862
104.68816
104.68811
104.68936
104.69031
104.69198
104.69366
104.69329
104.69381
104.69475
104.68925
104.68903
104.68925
104.69079
104.69198
104.69382
104.69563
104.69529
104.69575
104.69655
104.69002
104.68994
104.69037
104.69221
104.69366
104.69563
104.6974
104.69689
104.697
104.69729
104.69017
104.68971
104.68981
104.69167
104.69329
104.69529
104.69689
104.69594
104.69549
104.69526
104.69062
104.69068
104.69054
104.69213
104.69381
104.69575
104.697
104.69549
104.69499
104.69671
104.69049
104.69146
104.69174
104.69309
104.69475
104.69655
104.69729
104.69526
104.69671
104.69674
79.507796
79.507552
79.506997
79.508034
79.508408
79.509123
79.510019
79.51039
79.51098
79.51103
79.507552
79.506823
79.506734
79.507536
79.507955
79.50888
79.509912
79.509975
79.511011
79.511825
79.506997
79.506734
79.50654
79.507327
79.507885
79.509055
79.510278
79.510077
79.510934
79.512099
79.508034
79.507536
79.507327
79.508202
79.508932
79.510351
79.511837
79.511662
79.512313
79.513289
79.508408
79.507955
79.507885
79.508932
79.509851
79.511477
79.513181
79.513157
79.513855
79.514819
79.509123
79.50888
79.509055
79.510351
79.511477
79.513255
79.51506
79.515063
79.515701
79.516535
79.510019
79.509912
79.510278
79.511837
79.513181
79.51506
79.516839
79.516673
79.516998
79.517393
79.51039
79.509975
79.510077
79.511662
79.513157
79.515063
79.516673
79.516129
79.515945
79.515853
79.51098
79.511011
79.510934
79.512313
79.513855
79.515701
79.516998
79.515945
79.515686
79.517278
79.51103
79.511825
79.512099
79.513289
79.514819
79.516535
79.517393
79.515853
79.517278
79.517394
59.778707
59.778431
59.777958
59.778786
59.779175
59.779924
59.780871
59.781383
59.782048
59.782219
59.778431
59.777782
59.777668
59.778314
59.778749
59.779682
59.780753
59.78102
59.782058
59.782859
59.777958
59.777668
59.777476
59.778119
59.778675
59.779818
59.781059
59.78112
59.782026
59.783119
59.778786
59.778314
59.778119
59.778841
59.779545
59.780899
59.782365
59.782456
59.783205
59.784155
59.779175
59.778749
59.778675
59.779545
59.780409
59.781937
59.783587
59.783803
59.784592
59.785534
59.779924
59.779682
59.779818
59.780899
59.781937
59.783593
59.785325
59.78556
59.786293
59.787121
59.780871
59.780753
59.781059
59.782365
59.783587
59.785325
59.78703
59.787116
59.787576
59.788021
59.781383
59.78102
59.78112
59.782456
59.783803
59.78556
59.787116
59.786871
59.786882
59.786892
59.782048
59.782058
59.782026
59.783205
59.784592
59.786293
59.787576
59.786882
59.786803
59.788236
59.782219
59.782859
59.783119
59.784155
59.785534
59.787121
59.788021
59.786892
59.788236
59.78841
44.499868
44.499586
44.499192
44.499848
44.500233
44.500973
44.501914
44.5025
44.503186
44.503432
44.499586
44.499021
44.498899
44.499417
44.499846
44.500743
44.501795
44.502188
44.503183
44.50394
44.499192
44.498899
44.498721
44.499243
44.499776
44.50085
44.502049
44.502285
44.503184
44.504181
44.499848
44.499417
44.499243
44.499835
44.500493
44.501743
44.50313
44.503396
44.504178
44.50507
44.500233
44.499846
44.499776
44.500493
44.501284
44.502678
44.504216
44.504586
44.5054
44.506285
44.500973
44.500743
44.50085
44.501743
44.502678
44.504177
44.505782
44.506164
44.506929
44.507716
44.501914
44.501795
44.502049
44.50313
44.504216
44.505782
44.507361
44.507615
44.508146
44.508606
44.5025
44.502188
44.502285
44.503396
44.504586
44.506164
44.507615
44.507584
44.507726
44.507806
44.503186
44.503183
44.503184
44.504178
44.5054
44.506929
44.508146
44.507726
44.507774
44.509034
44.503432
44.50394
44.504181
44.50507
44.506285
44.507716
44.508606
44.507806
44.509034
44.509242
32.802264
32.801994
32.801671
32.802188
32.802553
32.803254
32.804146
32.804754
32.805423
32.805707
32.801994
32.801511
32.801393
32.801806
32.802213
32.803044
32.804033
32.804492
32.805413
32.806106
32.801671
32.801393
32.801235
32.801657
32.80215
32.803129
32.804243
32.804583
32.805436
32.806323
32.802188
32.801806
32.801657
32.802138
32.802735
32.803858
32.805128
32.805498
32.806264
32.807074
32.802553
32.802213
32.80215
32.802735
32.803441
32.804681
32.806074
32.806527
32.807321
32.808126
32.803254
32.803044
32.803129
32.803858
32.804681
32.806006
32.807451
32.807913
32.808663
32.809386
32.804146
32.804033
32.804243
32.805128
32.806074
32.807451
32.808873
32.809226
32.809779
32.810228
32.804754
32.804492
32.804583
32.805498
32.806527
32.807913
32.809226
32.809339
32.809562
32.809685
32.805423
32.805413
32.805436
32.806264
32.807321
32.808663
32.809779
32.809562
32.809691
32.810779
32.805707
32.806106
32.806323
32.807074
32.808126
32.809386
32.810228
32.809685
32.810779
32.810999
23.946636
23.946388
23.946128
23.946533
23.946869
23.94751
23.948326
23.948918
23.949543
23.949838
23.946388
23.945983
23.945875
23.946204
23.946576
23.947324
23.948224
23.948702
23.949529
23.950147
23.946128
23.945875
23.94574
23.946079
23.946523
23.947391
23.948395
23.948786
23.949566
23.950338
23.946533
23.946204
23.946079
23.946468
23.946997
23.947981
23.949111
23.949529
23.950247
23.950965
23.946869
23.946576
23.946523
23.946997
23.947613
23.948692
23.94992
23.950405
23.951145
23.951859
23.94751
23.947324
23.947391
23.947981
23.948692
23.949838
23.951107
23.951597
23.9523
23.952946
23.948326
23.948224
23.948395
23.949111
23.94992
23.951107
23.952356
23.952755
23.953295
23.953715
23.948918
23.948702
23.948786
23.949529
23.950405
23.951597
23.952755
23.952956
23.953221
23.953366
23.949543
23.949529
23.949566
23.950247
23.951145
23.9523
23.953295
23.953221
23.953397
23.954318
23.949838
23.950147
23.950338
23.950965
23.951859
23.952946
23.953715
23.953366
23.954318
23.954537
17.316085
17.315866
17.31566
17.315975
17.316276
17.316845
17.31757
17.318121
17.318686
17.318972
17.315866
17.315532
17.315438
17.315698
17.31603
17.316685
17.31748
17.317946
17.318671
17.319209
17.31566
17.315438
17.315326
17.315597
17.315987
17.316738
17.317619
17.318022
17.318715
17.319374
17.315975
17.315698
17.315597
17.315909
17.316366
17.31721
17.318192
17.318619
17.319268
17.319889
17.316276
17.31603
17.315987
17.316366
17.316894
17.317813
17.318871
17.319351
17.320018
17.320637
17.316845
17.316685
17.316738
17.31721
17.317813
17.318785
17.319875
17.320357
17.320994
17.321557
17.31757
17.31748
17.317619
17.318192
17.318871
17.319875
17.320948
17.321356
17.32186
17.32224
17.318121
17.317946
17.318022
17.318619
17.319351
17.320357
17.321356
17.321602
17.321881
17.322033
17.318686
17.318671
17.318715
17.319268
17.320018
17.320994
17.32186
17.321881
17.322077
17.322845
17.318972
17.319209
17.319374
17.319889
17.320637
17.321557
17.32224
17.322033
17.322845
17.323051
12.405037
12.404847
12.404688
12.404931
12.405194
12.405686
12.406314
12.40681
12.407305
12.40757
12.404847
12.404576
12.404498
12.404702
12.40499
12.405552
12.406237
12.40667
12.407291
12.40775
12.404688
12.404498
12.404407
12.404622
12.404957
12.405594
12.406349
12.406736
12.407337
12.40789
12.404931
12.404702
12.404622
12.40487
12.405258
12.405968
12.406802
12.407211
12.407781
12.408308
12.405194
12.40499
12.404957
12.405258
12.405701
12.40647