/*--------------------------------*- C++ -*----------------------------------*\
| =========                 |                                                 |
| \\      /  F ield         | OpenFOAM: The Open Source CFD Toolbox           |
|  \\    /   O peration     | Version:  v2106                                 |
|   \\  /    A nd           | Website:  www.openfoam.com                      |
|    \\/     M anipulation  |                                                 |
\*---------------------------------------------------------------------------*/
FoamFile
{
    version     2.0;
    format      ascii;
    arch        "LSB;label=32;scalar=64";
    class       volVectorField;
    location    "2.5";
    object      gradT;
}
// * * * * * * * * * * * * * * * * * * * * * * * * * * * * * * * * * * * * * //

dimensions      [0 -1 0 1 0 0 0];

internalField   nonuniform List<vector> 
4000
(
(0.00048393272 0.00048393273 2088.6782)
(0.0054657481 0.0041771883 2088.682)
(-0.0016027941 -0.00014004224 2088.6987)
(-0.0072258402 0.00067007127 2088.6711)
(-0.00033756901 0.00097765758 2088.6666)
(0.0013698932 0.0010522742 2088.6692)
(0.0016836374 0.0011067627 2088.6734)
(0.0015560161 0.0011789658 2088.6779)
(0.001060107 0.0011055838 2088.6816)
(0.00024230877 0.0006669732 2088.6838)
(0.0041771883 0.0054657481 2088.682)
(0.0045297856 0.0045297856 2088.7024)
(-0.0068634697 -0.00096052048 2088.6953)
(-0.0055492905 0.00079250731 2088.6725)
(0.00023573542 0.0013991188 2088.67)
(0.0015635508 0.0015589315 2088.6731)
(0.0018736749 0.0017700157 2088.6778)
(0.0015542479 0.0022276936 2088.6828)
(0.00029211806 0.0025185517 2088.6857)
(-0.00019630183 0.0015348706 2088.6847)
(-0.00014004223 -0.0016027941 2088.6987)
(-0.00096052048 -0.0068634697 2088.6953)
(-0.0053400724 -0.0053400724 2088.6914)
(-0.0048662009 -0.0046241084 2088.6708)
(0.00042885522 -0.0044539025 2088.669)
(0.0017407901 -0.0044305231 2088.6723)
(0.0023523994 -0.0042856934 2088.6777)
(0.0023045521 -0.0037033111 2088.6846)
(0.00036728408 -0.0026132851 2088.6893)
(-0.00041347859 -0.0019442092 2088.6866)
(0.00067007127 -0.0072258402 2088.6711)
(0.0007925073 -0.0055492905 2088.6725)
(-0.0046241084 -0.0048662009 2088.6708)
(-0.0046631205 -0.0046631205 2088.651)
(0.00042932072 -0.0046708788 2088.6493)
(0.00173176 -0.0047593777 2088.6525)
(0.0026008869 -0.0048318598 2088.658)
(0.0032266561 -0.0046914229 2088.6661)
(0.0020512199 -0.0040521976 2088.6742)
(0.00024974873 -0.0030566182 2088.676)
(0.00097765758 -0.00033756901 2088.6666)
(0.0013991188 0.00023573542 2088.67)
(-0.0044539025 0.00042885523 2088.669)
(-0.0046708788 0.00042932072 2088.6493)
(0.00033259803 0.00033259803 2088.6475)
(0.0015798091 0.00020081696 2088.6504)
(0.0024203543 4.041766e-05 2088.6554)
(0.0030842143 -0.00013194702 2088.6631)
(0.0020020887 -0.00026524436 2088.671)
(0.00025024099 -0.0003435746 2088.673)
(0.0010522742 0.0013698932 2088.6692)
(0.0015589315 0.0015635508 2088.6731)
(-0.0044305231 0.0017407901 2088.6723)
(-0.0047593777 0.00173176 2088.6525)
(0.00020081695 0.0015798091 2088.6504)
(0.0014395796 0.0014395796 2088.6529)
(0.0022681229 0.0013142151 2088.6575)
(0.0029209941 0.0011939986 2088.6649)
(0.0018395923 0.0010785959 2088.6724)
(0.00019752857 0.00097789361 2088.674)
(0.0011067627 0.0016836374 2088.6734)
(0.0017700157 0.0018736748 2088.6778)
(-0.0042856934 0.0023523994 2088.6777)
(-0.0048318598 0.0026008869 2088.658)
(4.0417663e-05 0.0024203543 2088.6554)
(0.0013142151 0.0022681229 2088.6575)
(0.0021747733 0.0021747733 2088.6619)
(0.0028485952 0.0021174276 2088.669)
(0.0017859837 0.0020766977 2088.6764)
(0.0001831061 0.002052243 2088.6779)
(0.0011789658 0.0015560162 2088.6779)
(0.0022276936 0.0015542479 2088.6828)
(-0.0037033111 0.0023045521 2088.6846)
(-0.0046914229 0.0032266561 2088.6661)
(-0.00013194702 0.0030842143 2088.6631)
(0.0011939986 0.0029209941 2088.6649)
(0.0021174276 0.0028485952 2088.669)
(0.0028229185 0.0028229185 2088.6761)
(0.0017744077 0.0027887539 2088.6834)
(0.00018122541 0.0027299876 2088.6849)
(0.0011055838 0.001060107 2088.6816)
(0.0025185517 0.00029211806 2088.6857)
(-0.0026132851 0.00036728408 2088.6893)
(-0.0040521976 0.0020512199 2088.6742)
(-0.00026524436 0.0020020887 2088.671)
(0.001078596 0.0018395923 2088.6724)
(0.0020766977 0.0017859837 2088.6764)
(0.0027887539 0.0017744077 2088.6834)
(0.0016930528 0.0016930528 2088.6906)
(0.00014392862 0.0014846427 2088.6917)
(0.0006669732 0.00024230877 2088.6838)
(0.0015348706 -0.00019630183 2088.6847)
(-0.0019442092 -0.00041347859 2088.6866)
(-0.0030566182 0.00024974873 2088.676)
(-0.00034357459 0.00025024098 2088.673)
(0.00097789362 0.00019752857 2088.674)
(0.002052243 0.0001831061 2088.6779)
(0.0027299876 0.00018122541 2088.6849)
(0.0014846427 0.00014392862 2088.6917)
(4.2285342e-05 4.2285342e-05 2088.6917)
(0.0023312961 0.0023312961 3004.9588)
(0.014381987 0.0078678179 3004.9567)
(-0.011598946 -0.0029809198 3004.959)
(-0.026457571 -0.00057051436 3004.9341)
(-0.0017367909 0.00043956683 3004.9296)
(0.0060786739 0.00072347039 3004.933)
(0.0080058178 0.0010048463 3004.939)
(0.0075771587 0.0013622912 3004.9457)
(0.0055982874 0.00074307025 3004.9509)
(0.0014567092 -0.0011169746 3004.9561)
(0.0078678179 0.014381987 3004.9567)
(0.0064136634 0.0064136634 3004.9609)
(-0.024256444 -0.0080722231 3004.9511)
(-0.021326841 -0.0027550733 3004.9299)
(0.00020418623 -0.00066115649 3004.927)
(0.0069265931 -9.1425958e-06 3004.9308)
(0.008964049 0.001059901 3004.9376)
(0.0071844946 0.0033233107 3004.9456)
(0.0018793887 0.0039829166 3004.9481)
(-0.00040333563 -0.00041545285 3004.9478)
(-0.0029809198 -0.011598946 3004.959)
(-0.0080722231 -0.024256444 3004.9511)
(-0.020767682 -0.020767682 3004.9427)
(-0.019046504 -0.018363049 3004.9232)
(0.0010091398 -0.017662667 3004.9208)
(0.0077997314 -0.01754727 3004.9249)
(0.011338271 -0.016813383 3004.9327)
(0.010500174 -0.013944097 3004.9438)
(0.0018595238 -0.0093650791 3004.9493)
(-0.0014755371 -0.007208034 3004.9474)
(-0.00057051436 -0.026457571 3004.9341)
(-0.0027550733 -0.021326841 3004.9299)
(-0.018363049 -0.019046504 3004.9232)
(-0.018221825 -0.018221825 3004.9045)
(0.0010199646 -0.018245412 3004.9022)
(0.0077758764 -0.018657577 3004.906)
(0.012567223 -0.018970899 3004.9137)
(0.014632799 -0.018172098 3004.9263)
(0.0086154513 -0.015211859 3004.9356)
(0.0010346945 -0.011200037 3004.938)
(0.00043956684 -0.0017367909 3004.9296)
(-0.00066115648 0.00020418624 3004.927)
(-0.017662667 0.0010091398 3004.9208)
(-0.018245412 0.0010199646 3004.9022)
(0.00057338766 0.00057338766 3004.8997)
(0.0070742451 -5.3103496e-05 3004.903)
(0.011823751 -0.00079684179 3004.91)
(0.014259214 -0.0014969405 3004.9221)
(0.0088315845 -0.0018581002 3004.9315)
(0.0011990106 -0.0018785829 3004.9343)
(0.00072347039 0.0060786739 3004.933)
(-9.1425917e-06 0.0069265931 3004.9308)
(-0.01754727 0.0077997314 3004.9249)
(-0.018657577 0.0077758764 3004.906)
(-5.31035e-05 0.0070742451 3004.903)
(0.006405647 0.006405647 3004.9057)
(0.011123386 0.0058132969 3004.9123)
(0.01357154 0.0052737722 3004.9239)
(0.008233809 0.0048106305 3004.9329)
(0.0010210393 0.0044772666 3004.9354)
(0.0010048463 0.0080058178 3004.939)
(0.001059901 0.0089640489 3004.9376)
(-0.016813383 0.011338271 3004.9327)
(-0.018970899 0.012567223 3004.9137)
(-0.00079684179 0.011823751 3004.91)
(0.0058132969 0.011123386 3004.9123)
(0.010691876 0.010691876 3004.9185)
(0.013256548 0.010436855 3004.9299)
(0.0080350789 0.010261372 3004.9387)
(0.00097676804 0.010169519 3004.9413)
(0.0013622912 0.0075771587 3004.9457)
(0.0033233107 0.0071844946 3004.9456)
(-0.013944097 0.010500174 3004.9438)
(-0.018172098 0.014632799 3004.9263)
(-0.0014969406 0.014259214 3004.9221)
(0.0052737722 0.01357154 3004.9239)
(0.010436855 0.013256548 3004.9299)
(0.013141037 0.013141037 3004.9412)
(0.0079664735 0.012913146 3004.95)
(0.00095980419 0.012437055 3004.9525)
(0.00074307025 0.0055982874 3004.9509)
(0.0039829166 0.0018793887 3004.9481)
(-0.0093650791 0.0018595238 3004.9493)
(-0.015211859 0.0086154513 3004.9356)
(-0.0018581002 0.0088315845 3004.9315)
(0.0048106305 0.008233809 3004.9329)
(0.010261372 0.0080350789 3004.9387)
(0.012913146 0.0079664735 3004.95)
(0.0073310971 0.0073310971 3004.9583)
(0.00065937379 0.0057579778 3004.9593)
(-0.0011169746 0.0014567092 3004.9561)
(-0.00041545285 -0.00040333562 3004.9478)
(-0.007208034 -0.0014755371 3004.9474)
(-0.011200037 0.0010346945 3004.938)
(-0.0018785829 0.0011990106 3004.9343)
(0.0044772666 0.0010210393 3004.9354)
(0.010169519 0.00097676804 3004.9413)
(0.012437055 0.00095980419 3004.9525)
(0.0057579778 0.00065937379 3004.9593)
(-8.8942045e-05 -8.8942046e-05 3004.9592)
(-0.00086962971 -0.00086962971 2860.4388)
(0.0056617994 0.0069839409 2860.4287)
(-0.024249365 -0.0053417344 2860.4215)
(-0.036581255 -0.0021060496 2860.4076)
(-0.0014334791 -0.00077597591 2860.4059)
(0.010746186 -0.00038358571 2860.4093)
(0.014409051 0.00021282822 2860.4153)
(0.01343422 0.0011190199 2860.4224)
(0.011462751 -0.00072567343 2860.4263)
(0.0037490409 -0.0048666199 2860.4323)
(0.0069839409 0.0056617994 2860.4287)
(-0.0010463577 -0.0010463577 2860.424)
(-0.037884351 -0.017230174 2860.4138)
(-0.029732617 -0.010099333 2860.402)
(0.0011502168 -0.0073552946 2860.401)
(0.012229393 -0.0065245439 2860.4046)
(0.016662959 -0.0045423749 2860.4116)
(0.012026467 0.00027949487 2860.421)
(0.0024842909 0.00093132984 2860.4224)
(-0.0003919056 -0.0071825777 2860.4227)
(-0.0053417344 -0.024249365 2860.4215)
(-0.017230174 -0.037884351 2860.4138)
(-0.03330234 -0.03330234 2860.4047)
(-0.026706375 -0.030067687 2860.3938)
(0.0021413098 -0.029216907 2860.393)
(0.013559106 -0.029277353 2860.3965)
(0.021213089 -0.028222939 2860.404)
(0.018907924 -0.023045318 2860.4166)
(0.004000678 -0.015120303 2860.421)
(-0.0016602308 -0.011760274 2860.4205)
(-0.0021060496 -0.036581255 2860.4076)
(-0.010099333 -0.029732617 2860.402)
(-0.030067687 -0.026706375 2860.3938)
(-0.025647183 -0.025647183 2860.3833)
(0.0019405504 -0.025842587 2860.3823)
(0.01322336 -0.026701303 2860.3853)
(0.022894995 -0.027454865 2860.3925)
(0.025129104 -0.026311457 2860.406)
(0.013769335 -0.02181189 2860.4131)
(0.0018481137 -0.016141703 2860.4149)
(-0.00077597591 -0.0014334791 2860.4059)
(-0.0073552946 0.0011502168 2860.401)
(-0.029216907 0.0021413098 2860.393)
(-0.025842587 0.0019405504 2860.3823)
(0.0010871905 0.0010871905 2860.381)
(0.011946828 -4.5120481e-05 2860.3835)
(0.021602935 -0.0013561605 2860.39)
(0.024550899 -0.002504993 2860.4031)
(0.014170433 -0.0029945283 2860.4102)
(0.002119894 -0.0029188471 2860.4122)
(-0.0003835857 0.010746187 2860.4093)
(-0.0065245439 0.012229393 2860.4046)
(-0.029277353 0.013559106 2860.3965)
(-0.026701303 0.01322336 2860.3853)
(-4.5120486e-05 0.011946828 2860.3835)
(0.010780009 0.010780009 2860.3855)
(0.020435122 0.0097859382 2860.3915)
(0.023490736 0.0089468054 2860.4042)
(0.013355481 0.0083193888 2860.4111)
(0.0018985679 0.0080074731 2860.4131)
(0.00021282822 0.014409051 2860.4153)
(-0.0045423749 0.016662959 2860.4116)
(-0.028222939 0.021213089 2860.404)
(-0.027454865 0.022894995 2860.3925)
(-0.0013561605 0.021602935 2860.39)
(0.0097859382 0.020435122 2860.3915)
(0.019769731 0.019769731 2860.3973)
(0.02308435 0.019441073 2860.4099)
(0.0132311 0.019238987 2860.4169)
(0.0019119501 0.019175592 2860.4192)
(0.0011190199 0.01343422 2860.4224)
(0.00027949487 0.012026467 2860.421)
(-0.023045318 0.018907924 2860.4166)
(-0.026311457 0.025129104 2860.406)
(-0.002504993 0.024550899 2860.4031)
(0.0089468054 0.023490736 2860.4042)
(0.019441073 0.02308435 2860.4099)
(0.022959992 0.022959992 2860.4227)
(0.01309 0.022313214 2860.4296)
(0.0018563046 0.020692681 2860.4317)
(-0.00072567343 0.011462751 2860.4263)
(0.00093132984 0.0024842909 2860.4224)
(-0.015120303 0.004000678 2860.421)
(-0.02181189 0.013769335 2860.4131)
(-0.0029945283 0.014170433 2860.4102)
(0.0083193888 0.013355481 2860.4111)
(0.019238987 0.0132311 2860.4169)
(0.022313214 0.01309 2860.4296)
(0.010963789 0.010963789 2860.4352)
(0.00083159479 0.0081226555 2860.4338)
(-0.0048666199 0.0037490409 2860.4323)
(-0.0071825777 -0.00039190559 2860.4227)
(-0.011760274 -0.0016602308 2860.4205)
(-0.016141703 0.0018481137 2860.4149)
(-0.0029188471 0.002119894 2860.4122)
(0.0080074731 0.0018985679 2860.4131)
(0.019175592 0.0019119501 2860.4192)
(0.020692681 0.0018563046 2860.4317)
(0.0081226555 0.00083159479 2860.4338)
(-3.778442e-05 -3.778442e-05 2860.435)
(-0.0043991484 -0.0043991484 2688.1075)
(-0.0028928197 0.004736912 2688.0991)
(-0.032681396 -0.0081040915 2688.0939)
(-0.042038573 -0.0042852801 2688.0861)
(3.3234094e-05 -0.0028086935 2688.0862)
(0.015480886 -0.0024126364 2688.0896)
(0.021078962 -0.0014832934 2688.0953)
(0.018601827 0.00044816275 2688.103)
(0.015521839 -0.0018708775 2688.1069)
(0.0054683972 -0.0075218648 2688.112)
(0.004736912 -0.0028928198 2688.0991)
(-0.0084502344 -0.0084502344 2688.0934)
(-0.046214684 -0.024878281 2688.0873)
(-0.034095476 -0.016526651 2688.081)
(0.0028421997 -0.013567567 2688.0813)
(0.017468987 -0.012894855 2688.0845)
(0.02537016 -0.010252177 2688.0909)
(0.018020451 -0.0025156822 2688.1014)
(0.0035667976 -0.0013153588 2688.1039)
(-0.00018259015 -0.012293657 2688.1053)
(-0.0081040915 -0.032681396 2688.0939)
(-0.024878281 -0.046214684 2688.0873)
(-0.040757812 -0.040757812 2688.0822)
(-0.030727859 -0.037084092 2688.0763)
(0.0036650299 -0.036357169 2688.0766)
(0.018796276 -0.036854767 2688.0793)
(0.031458135 -0.035876038 2688.0858)
(0.027538645 -0.028943934 2688.0987)
(0.0057438642 -0.018706095 2688.1033)
(-0.0018504682 -0.015071143 2688.1034)
(-0.0042852801 -0.042038573 2688.0861)
(-0.016526651 -0.034095476 2688.081)
(-0.037084092 -0.030727859 2688.0763)
(-0.029694833 -0.029694833 2688.0706)
(0.003071525 -0.030212528 2688.0705)
(0.017950118 -0.031624816 2688.0727)
(0.033280993 -0.032946016 2688.0786)
(0.035190393 -0.03164362 2688.0921)
(0.017439589 -0.026083115 2688.0984)
(0.0022407111 -0.019429105 2688.0999)
(-0.0028086935 3.323409e-05 2688.0862)
(-0.013567567 0.0028421997 2688.0813)
(-0.036357169 0.0036650299 2688.0766)
(-0.030212528 0.003071525 2688.0705)
(0.0017350469 0.0017350469 2688.0701)
(0.016062788 7.4482582e-05 2688.0716)
(0.031439331 -0.0017888528 2688.0769)
(0.034401546 -0.0033201557 2688.0899)
(0.017958379 -0.0038684269 2688.0962)
(0.0025855386 -0.0036426873 2688.0979)
(-0.0024126364 0.015480886 2688.0896)
(-0.012894855 0.017468987 2688.0845)
(-0.036854767 0.018796276 2688.0793)
(-0.031624816 0.017950118 2688.0727)
(7.448258e-05 0.016062788 2688.0716)
(0.014426218 0.014426218 2688.0726)
(0.029886354 0.013108472 2688.0775)
(0.033110819 0.012108607 2688.0903)
(0.017117057 0.011510399 2688.0965)
(0.0023912042 0.011460357 2688.0984)
(-0.0014832934 0.021078962 2688.0953)
(-0.010252177 0.02537016 2688.0909)
(-0.035876038 0.031458135 2688.0858)
(-0.032946016 0.033280993 2688.0786)
(-0.0017888528 0.031439331 2688.0769)
(0.013108472 0.029886354 2688.0775)
(0.02912172 0.02912172 2688.0822)
(0.032803473 0.02889136 2688.0951)
(0.017310129 0.028789372 2688.1017)
(0.0025521769 0.028768594 2688.1042)
(0.00044816275 0.018601827 2688.103)
(-0.0025156822 0.018020451 2688.1014)
(-0.028943934 0.027538645 2688.0987)
(-0.03164362 0.035190393 2688.0921)
(-0.0033201557 0.034401546 2688.0899)
(0.012108607 0.033110819 2688.0903)
(0.02889136 0.032803473 2688.0951)
(0.032778471 0.032778471 2688.1083)
(0.016994291 0.031257593 2688.1151)
(0.0023773522 0.027019955 2688.1173)
(-0.0018708775 0.015521839 2688.1069)
(-0.0013153588 0.0035667976 2688.1039)
(-0.018706095 0.0057438642 2688.1033)
(-0.026083115 0.017439589 2688.0984)
(-0.0038684269 0.017958379 2688.0962)
(0.011510399 0.017117057 2688.0965)
(0.028789372 0.017310129 2688.1017)
(0.031257593 0.016994291 2688.1151)
(0.011551613 0.011551613 2688.12)
(-0.00027291487 0.0090392085 2688.1162)
(-0.0075218648 0.0054683972 2688.112)
(-0.012293657 -0.00018259014 2688.1053)
(-0.015071143 -0.0018504682 2688.1034)
(-0.019429105 0.0022407111 2688.0999)
(-0.0036426873 0.0025855386 2688.0979)
(0.011460357 0.0023912042 2688.0984)
(0.028768594 0.0025521769 2688.1042)
(0.027019955 0.0023773522 2688.1173)
(0.0090392085 -0.00027291487 2688.1162)
(0.00070241592 0.00070241593 2688.1186)
(-0.0064935363 -0.0064935363 2495.6081)
(-0.0079010849 0.0032008082 2495.6032)
(-0.037184629 -0.0097526622 2495.6005)
(-0.044263711 -0.0055408652 2495.5971)
(0.0020163618 -0.0040401209 2495.5983)
(0.019756866 -0.0037670775 2495.601)
(0.027858077 -0.0027155743 2495.6055)
(0.025044401 3.4856616e-05 2495.6128)
(0.020425091 -0.0026811229 2495.6174)
(0.0071587493 -0.0093251335 2495.6221)
(0.0032008082 -0.0079010849 2495.6032)
(-0.012789774 -0.012789774 2495.5995)
(-0.050297139 -0.028992172 2495.5969)
(-0.035694899 -0.019873206 2495.5945)
(0.0046770433 -0.016995608 2495.5957)
(0.021743686 -0.016785102 2495.5978)
(0.033560978 -0.014010107 2495.6025)
(0.025096078 -0.004051214 2495.6119)
(0.0063851054 -0.0026612238 2495.6154)
(0.00051473865 -0.015718314 2495.6176)
(-0.0097526622 -0.037184629 2495.6005)
(-0.028992172 -0.050297139 2495.5969)
(-0.044268061 -0.044268061 2495.595)
(-0.032267147 -0.040436872 2495.5928)
(0.0051044658 -0.04001647 2495.5936)
(0.022742366 -0.041117669 2495.5952)
(0.040591964 -0.04050542 2495.5996)
(0.036393285 -0.032376176 2495.6107)
(0.0087579902 -0.020672956 2495.6153)
(-0.0015459778 -0.017134897 2495.6165)
(-0.0055408652 -0.044263711 2495.5971)
(-0.019873206 -0.035694899 2495.5945)
(-0.040436872 -0.032267147 2495.5928)
(-0.031443309 -0.031443309 2495.5905)
(0.0039962455 -0.03238917 2495.5909)
(0.021254737 -0.034420651 2495.5918)
(0.042302471 -0.036386875 2495.5955)
(0.044928542 -0.035092845 2495.6068)
(0.021626385 -0.028867972 2495.6126)
(0.0028734447 -0.021655188 2495.6144)
(-0.0040401209 0.0020163618 2495.5983)
(-0.016995608 0.0046770434 2495.5957)
(-0.04001647 0.0051044658 2495.5936)
(-0.03238917 0.0039962455 2495.5909)
(0.0021271237 0.0021271237 2495.5908)
(0.018744661 -6.5500859e-05 2495.5911)
(0.03991977 -0.0024488924 2495.5942)
(0.043912188 -0.0042985244 2495.6051)
(0.022195647 -0.004851797 2495.6108)
(0.0032625449 -0.0044337507 2495.6127)
(-0.0037670775 0.019756866 2495.601)
(-0.016785102 0.021743686 2495.5978)
(-0.041117669 0.022742366 2495.5952)
(-0.034420651 0.021254737 2495.5918)
(-6.5500859e-05 0.018744661 2495.5911)
(0.01667872 0.01667872 2495.591)
(0.038069448 0.015127093 2495.5937)
(0.042525638 0.014122199 2495.6045)
(0.021491158 0.013773338 2495.6102)
(0.0031521423 0.014240033 2495.6124)
(-0.0027155743 0.027858077 2495.6055)
(-0.014010107 0.033560978 2495.6025)
(-0.04050542 0.040591964 2495.5996)
(-0.036386875 0.042302471 2495.5955)
(-0.0024488924 0.03991977 2495.5942)
(0.015127093 0.038069448 2495.5937)
(0.037363248 0.037363248 2495.5964)
(0.042558433 0.037487682 2495.6074)
(0.022313481 0.037811653 2495.6138)
(0.003573675 0.038107391 2495.6169)
(3.4856622e-05 0.025044401 2495.6128)
(-0.0040512139 0.025096078 2495.6119)
(-0.032376176 0.036393285 2495.6107)
(-0.035092845 0.044928542 2495.6068)
(-0.0042985244 0.043912188 2495.6051)
(0.014122199 0.042525638 2495.6045)
(0.037487682 0.042558433 2495.6074)
(0.042974043 0.042974043 2495.6191)
(0.022110868 0.040660136 2495.626)
(0.0033493007 0.032778256 2495.6293)
(-0.0026811229 0.020425091 2495.6174)
(-0.0026612238 0.0063851054 2495.6154)
(-0.020672956 0.0087579902 2495.6153)
(-0.028867972 0.021626385 2495.6126)
(-0.004851797 0.022195647 2495.6108)
(0.013773338 0.021491158 2495.6102)
(0.037811653 0.022313481 2495.6138)
(0.040660136 0.022110868 2495.626)
(0.012117694 0.012117694 2495.6313)
(-0.0016809117 0.0093792283 2495.6274)
(-0.0093251335 0.0071587493 2495.6221)
(-0.015718314 0.00051473865 2495.6176)
(-0.017134897 -0.0015459778 2495.6165)
(-0.021655188 0.0028734447 2495.6144)
(-0.0044337507 0.0032625449 2495.6127)
(0.014240033 0.0031521423 2495.6124)
(0.038107391 0.003573675 2495.6169)
(0.032778256 0.0033493007 2495.6293)
(0.0093792283 -0.0016809117 2495.6274)
(0.0015236567 0.0015236567 2495.6299)
(-0.0076286373 -0.0076286373 2290.1061)
(-0.010503239 0.0022463581 2290.1037)
(-0.038752271 -0.010470679 2290.1026)
(-0.044161364 -0.0060341682 2290.1028)
(0.0038655732 -0.0045923678 2290.1045)
(0.022633011 -0.0045092207 2290.106)
(0.032903969 -0.0034794275 2290.1085)
(0.030511579 -0.00014148779 2290.1137)
(0.024782527 -0.0032063566 2290.1173)
(0.0085845708 -0.010516456 2290.1209)
(0.0022463581 -0.010503239 2290.1037)
(-0.014766302 -0.014766302 2290.1015)
(-0.05117306 -0.030372607 2290.1015)
(-0.035343897 -0.020879882 2290.1022)
(0.0061529945 -0.01828181 2290.1036)
(0.024302421 -0.018695754 2290.1045)
(0.039455569 -0.016151742 2290.1068)
(0.030921186 -0.0046671327 2290.1134)
(0.0092200747 -0.0033585203 2290.1161)
(0.0012744712 -0.017899481 2290.1181)
(-0.010470679 -0.038752271 2290.1026)
(-0.030372607 -0.05117306 2290.1015)
(-0.044865851 -0.044865851 2290.1019)
(-0.032070567 -0.041101798 2290.1025)
(0.0060497016 -0.041102064 2290.1035)
(0.024763078 -0.042889462 2290.1037)
(0.04693259 -0.042835073 2290.1055)
(0.043304801 -0.034016494 2290.1131)
(0.011550179 -0.02150955 2290.1164)
(-0.0011094028 -0.018250758 2290.1175)
(-0.0060341682 -0.044161364 2290.1028)
(-0.020879882 -0.035343897 2290.1022)
(-0.041101798 -0.032070567 2290.1025)
(-0.03158011 -0.03158011 2290.1028)
(0.0043653304 -0.033009613 2290.1033)
(0.022569412 -0.035675967 2290.1029)
(0.048328537 -0.038313678 2290.104)
(0.052246709 -0.037176242 2290.1115)
(0.024985811 -0.030630343 2290.1153)
(0.0034469992 -0.02318209 2290.1166)
(-0.0045923678 0.0038655732 2290.1045)
(-0.01828181 0.0061529945 2290.1036)
(-0.041102064 0.0060497016 2290.1035)
(-0.033009613 0.0043653304 2290.1033)
(0.0019538443 0.0019538443 2290.1033)
(0.019459013 -0.00074677876 2290.1023)
(0.045432316 -0.0035998791 2290.1028)
(0.050988136 -0.0057108634 2290.11)
(0.025544331 -0.0062393052 2290.1137)
(0.0038560995 -0.0056128996 2290.115)
(-0.0045092207 0.022633011 2290.106)
(-0.018695754 0.024302421 2290.1045)
(-0.042889462 0.024763078 2290.1037)
(-0.035675967 0.022569412 2290.1029)
(-0.00074677876 0.019459013 2290.1023)
(0.017015689 0.017015689 2290.1009)
(0.043364452 0.015311047 2290.1011)
(0.049607283 0.014422343 2290.1082)
(0.025083775 0.014487213 2290.112)
(0.003864603 0.015655448 2290.1137)
(-0.0034794275 0.032903969 2290.1085)
(-0.016151742 0.039455569 2290.1068)
(-0.042835073 0.04693259 2290.1055)
(-0.038313678 0.048328537 2290.104)
(-0.0035998791 0.045432316 2290.1028)
(0.015311047 0.043364452 2290.1011)
(0.042838969 0.042838969 2290.1013)
(0.050164303 0.043527241 2290.1088)
(0.026777437 0.044612295 2290.1134)
(0.0046349227 0.045640926 2290.1162)
(-0.00014148779 0.030511579 2290.1137)
(-0.0046671327 0.030921186 2290.1134)
(-0.034016494 0.043304801 2290.1131)
(-0.037176242 0.052246709 2290.1115)
(-0.0057108634 0.050988136 2290.11)
(0.014422342 0.049607283 2290.1082)
(0.043527241 0.050164303 2290.1088)
(0.051380608 0.051380608 2290.1171)
(0.02719746 0.048813525 2290.1227)
(0.0045503575 0.037560334 2290.1261)
(-0.0032063566 0.024782527 2290.1173)
(-0.0033585203 0.0092200747 2290.1161)
(-0.02150955 0.011550179 2290.1164)
(-0.030630343 0.024985811 2290.1153)
(-0.0062393052 0.025544331 2290.1137)
(0.014487213 0.025083775 2290.112)
(0.044612295 0.026777437 2290.1134)
(0.048813525 0.02719746 2290.1227)
(0.012957163 0.012957163 2290.1273)
(-0.0028672046 0.0096270203 2290.1241)
(-0.010516456 0.0085845708 2290.1209)
(-0.017899481 0.0012744712 2290.1181)
(-0.018250758 -0.0011094028 2290.1175)
(-0.02318209 0.0034469992 2290.1166)
(-0.0056128996 0.0038560995 2290.115)
(0.015655448 0.003864603 2290.1137)
(0.045640926 0.0046349227 2290.1162)
(0.037560334 0.0045503575 2290.1261)
(0.0096270203 -0.0028672046 2290.1241)
(0.0023302623 0.0023302623 2290.1264)
(-0.0080699993 -0.0080699993 2078.0798)
(-0.011388326 0.0017264138 2078.0794)
(-0.038111403 -0.010458198 2078.0794)
(-0.042404304 -0.0059488246 2078.0823)
(0.0052214797 -0.0046251203 2078.084)
(0.023797048 -0.0047622565 2078.0843)
(0.035533277 -0.0038488135 2078.0847)
(0.033872024 -0.00013147926 2078.0871)
(0.027666713 -0.0034684675 2078.089)
(0.0095524172 -0.011189872 2078.0911)
(0.0017264138 -0.011388326 2078.0794)
(-0.014970624 -0.014970624 2078.0784)
(-0.049624261 -0.029678567 2078.0803)
(-0.033654687 -0.020155381 2078.0832)
(0.0070013318 -0.017967539 2078.0845)
(0.024961509 -0.019072713 2078.0842)
(0.042479443 -0.017000224 2078.0841)
(0.034442542 -0.0046223668 2078.0874)
(0.011079124 -0.003555456 2078.0886)
(0.0018310129 -0.019085881 2078.0898)
(-0.010458198 -0.038111403 2078.0794)
(-0.029678567 -0.049624261 2078.0803)
(-0.04329616 -0.04329616 2078.0824)
(-0.030693276 -0.039772269 2078.085)
(0.0063041476 -0.040249532 2078.0858)
(0.024764363 -0.042735156 2078.0848)
(0.049983623 -0.043347285 2078.084)
(0.047316792 -0.034293648 2078.0877)
(0.013203199 -0.021532191 2078.089)
(-0.0008011994 -0.01868013 2078.0896)
(-0.0059488246 -0.042404304 2078.0823)
(-0.020155381 -0.033654687 2078.0832)
(-0.039772269 -0.030693276 2078.085)
(-0.03060806 -0.03060806 2078.0873)
(0.0040384448 -0.032528645 2078.0877)
(0.021863756 -0.035796664 2078.0859)
(0.050920951 -0.039081474 2078.0845)
(0.056257636 -0.038216458 2078.0879)
(0.026692642 -0.031642786 2078.0891)
(0.0037323873 -0.024230957 2078.0894)
(-0.0046251203 0.0052214797 2078.084)
(-0.017967539 0.0070013318 2078.0845)
(-0.040249532 0.0063041476 2078.0858)
(-0.032528645 0.0040384448 2078.0877)
(0.0011155444 0.0011155444 2078.0875)
(0.018211534 -0.0020395304 2078.0853)
(0.047563828 -0.0052926111 2078.0834)
(0.05475548 -0.0076095414 2078.0865)
(0.0271887 -0.0081008681 2078.0876)
(0.00414002 -0.007278982 2078.0878)
(-0.0047622565 0.023797048 2078.0843)
(-0.019072713 0.024961509 2078.0842)
(-0.042735156 0.024764363 2078.0848)
(-0.035796664 0.021863756 2078.0859)
(-0.0020395304 0.018211534 2078.0853)
(0.0154556 0.0154556 2078.0828)
(0.04535094 0.013667858 2078.0806)
(0.053449379 0.012973043 2078.0837)
(0.027023201 0.013534387 2078.085)
(0.0042803113 0.015472419 2078.0856)
(-0.0038488135 0.035533277 2078.0847)
(-0.017000224 0.042479443 2078.0841)
(-0.043347285 0.049983623 2078.084)
(-0.039081474 0.050920951 2078.0845)
(-0.0052926111 0.047563828 2078.0834)
(0.013667858 0.04535094 2078.0806)
(0.04508127 0.04508127 2078.0785)
(0.054622008 0.046443615 2078.0821)
(0.029688077 0.048483523 2078.0842)
(0.0054320417 0.050518245 2078.0859)
(-0.00013147926 0.033872024 2078.0871)
(-0.0046223668 0.034442542 2078.0874)
(-0.034293648 0.047316792 2078.0877)
(-0.038216458 0.056257636 2078.0879)
(-0.0076095414 0.05475548 2078.0865)
(0.012973043 0.053449379 2078.0837)
(0.046443615 0.054622008 2078.0821)
(0.056851632 0.056851632 2078.0865)
(0.031097832 0.054540916 2078.0898)
(0.0056367926 0.040687073 2078.0925)
(-0.0034684675 0.027666713 2078.089)
(-0.003555456 0.011079124 2078.0886)
(-0.021532191 0.013203199 2078.089)
(-0.031642786 0.026692642 2078.0891)
(-0.0081008681 0.0271887 2078.0876)
(0.013534387 0.027023201 2078.085)
(0.048483523 0.029688077 2078.0842)
(0.054540916 0.031097832 2078.0898)
(0.013523518 0.013523518 2078.0928)
(-0.0038038537 0.0096246336 2078.0902)
(-0.011189872 0.0095524172 2078.0911)
(-0.019085881 0.0018310128 2078.0898)
(-0.01868013 -0.0008011994 2078.0896)
(-0.024230957 0.0037323873 2078.0894)
(-0.007278982 0.00414002 2078.0878)
(0.015472419 0.0042803113 2078.0856)
(0.050518245 0.0054320417 2078.0859)
(0.040687073 0.0056367925 2078.0925)
(0.0096246336 -0.0038038537 2078.0902)
(0.0030375362 0.0030375362 2078.092)
(-0.0079391719 -0.0079391719 1865.2116)
(-0.010940679 0.0015626068 1865.2127)
(-0.035853905 -0.0098625959 1865.2135)
(-0.039548969 -0.0054146285 1865.2183)
(0.0059070124 -0.0042490249 1865.2198)
(0.023277696 -0.0046118021 1865.2189)
(0.035718583 -0.0038757824 1865.2173)
(0.034856751 3.394571e-05 1865.2171)
(0.02874921 -0.0034926591 1865.2171)
(0.0099782292 -0.011408231 1865.2175)
(0.0015626068 -0.010940679 1865.2127)
(-0.013825815 -0.013825815 1865.2126)
(-0.046319758 -0.027421156 1865.2159)
(-0.031128613 -0.018158977 1865.2203)
(0.0071112521 -0.016456764 1865.2214)
(0.02383756 -0.018248714 1865.2198)
(0.042687205 -0.016793726 1865.2176)
(0.035431436 -0.0040833855 1865.2178)
(0.011585946 -0.0033654516 1865.2173)
(0.0020626576 -0.019450799 1865.2175)
(-0.0098625959 -0.035853905 1865.2135)
(-0.027421156 -0.046319758 1865.2159)
(-0.040187067 -0.040187067 1865.219)
(-0.028584577 -0.037027472 1865.2231)
(0.0058172751 -0.037988754 1865.2236)
(0.022940734 -0.041125345 1865.2214)
(0.049883912 -0.042437156 1865.2185)
(0.048285026 -0.033530423 1865.2185)
(0.013381797 -0.020973322 1865.2177)
(-0.00074533577 -0.018617446 1865.2175)
(-0.0054146285 -0.039548969 1865.2183)
(-0.018158977 -0.031128613 1865.2203)
(-0.037027472 -0.028584577 1865.2231)
(-0.0289303 -0.0289303 1865.2267)
(0.0030133797 -0.031307891 1865.2268)
(0.019389158 -0.035102263 1865.2241)
(0.050282127 -0.038963312 1865.2205)
(0.05689527 -0.038443769 1865.2201)
(0.026498922 -0.032080723 1865.2188)
(0.0036332416 -0.024929805 1865.2179)
(-0.0042490249 0.0059070124 1865.2198)
(-0.016456764 0.0071112521 1865.2214)
(-0.037988754 0.0058172752 1865.2236)
(-0.031307891 0.0030133797 1865.2268)
(-0.00035468803 -0.00035468803 1865.2265)
(0.015285314 -0.003885074 1865.2234)
(0.046542406 -0.0074510487 1865.2194)
(0.055167615 -0.0099148637 1865.2187)
(0.026895761 -0.010363891 1865.2173)
(0.0040219428 -0.00937589 1865.2164)
(-0.0046118021 0.023277696 1865.2189)
(-0.018248714 0.02383756 1865.2198)
(-0.041125345 0.022940734 1865.2214)
(-0.035102263 0.019389158 1865.2241)
(-0.003885074 0.015285314 1865.2234)
(0.012292797 0.012292797 1865.22)
(0.044252337 0.010482874 1865.2159)
(0.053982428 0.010024937 1865.2152)
(0.027037896 0.011101687 1865.214)
(0.0042919089 0.01378918 1865.2135)
(-0.0038757824 0.035718583 1865.2173)
(-0.016793726 0.042687205 1865.2176)
(-0.042437156 0.049883912 1865.2185)
(-0.038963312 0.050282127 1865.2205)
(-0.0074510487 0.046542406 1865.2194)
(0.010482874 0.044252337 1865.2159)
(0.044274546 0.044274546 1865.2119)
(0.055786428 0.046336847 1865.2117)
(0.030660004 0.049391885 1865.2113)
(0.0058136046 0.052539968 1865.2118)
(3.3945709e-05 0.034856751 1865.2171)
(-0.0040833855 0.035431436 1865.2178)