/*--------------------------------*- C++ -*----------------------------------*\
| =========                 |                                                 |
| \\      /  F ield         | OpenFOAM: The Open Source CFD Toolbox           |
|  \\    /   O peration     | Version:  v2106                                 |
|   \\  /    A nd           | Website:  www.openfoam.com                      |
|    \\/     M anipulation  |                                                 |
\*---------------------------------------------------------------------------*/
FoamFile
{
    version     2.0;
    format      ascii;
    arch        "LSB;label=32;scalar=64";
    class       volScalarField;
    location    "2.5";
    object      laplacianT;
}
// * * * * * * * * * * * * * * * * * * * * * * * * * * * * * * * * * * * * * //

dimensions      [0 -2 0 1 0 0 0];

internalField   nonuniform List<scalar> 
4000
(
147092.01
147094.04
147089.06
147091.92
147090.94
147090.85
147091.1
147091.39
147091.6
147091.68
147094.04
147087.39
147089.76
147090.55
147089.52
147089.48
147089.76
147090.08
147090.23
147090.59
147089.06
147089.76
147088.74
147089.62
147088.72
147088.73
147089.06
147089.41
147089.44
147090.07
147091.92
147090.55
147089.62
147090.62
147089.76
147089.79
147090.16
147090.61
147090.58
147090.65
147090.94
147089.52
147088.72
147089.76
147088.9
147088.92
147089.29
147089.8
147089.94
147090.23
147090.85
147089.48
147088.73
147089.79
147088.92
147088.91
147089.26
147089.75
147089.89
147090.22
147091.1
147089.76
147089.06
147090.16
147089.29
147089.26
147089.58
147090.06
147090.19
147090.51
147091.39
147090.08
147089.41
147090.61
147089.8
147089.75
147090.06
147090.52
147090.64
147090.95
147091.6
147090.23
147089.44
147090.58
147089.94
147089.89
147090.19
147090.64
147090.73
147090.99
147091.68
147090.59
147090.07
147090.65
147090.23
147090.22
147090.51
147090.95
147090.99
147091.21
-12864.788
-12863.863
-12877.282
-12864.701
-12866.518
-12867.353
-12867.535
-12867.617
-12867.956
-12868.382
-12863.863
-12875.949
-12872.092
-12865.247
-12867.467
-12868.24
-12868.411
-12868.599
-12868.532
-12867.491
-12877.282
-12872.092
-12875.549
-12868.847
-12870.87
-12871.548
-12871.759
-12872.475
-12873.114
-12870.076
-12864.701
-12865.247
-12868.847
-12862.031
-12863.969
-12864.554
-12864.617
-12865.421
-12867.317
-12867.22
-12866.518
-12867.467
-12870.87
-12863.969
-12865.872
-12866.414
-12866.34
-12866.793
-12868.152
-12867.575
-12867.353
-12868.24
-12871.548
-12864.554
-12866.414
-12866.954
-12866.866
-12867.263
-12868.495
-12867.711
-12867.535
-12868.411
-12871.759
-12864.617
-12866.34
-12866.866
-12866.781
-12867.181
-12868.414
-12867.635
-12867.617
-12868.599
-12872.475
-12865.421
-12866.793
-12867.263
-12867.181
-12867.602
-12868.879
-12868.199
-12867.956
-12868.532
-12873.114
-12867.317
-12868.152
-12868.495
-12868.414
-12868.879
-12870.255
-12869.62
-12868.382
-12867.491
-12870.076
-12867.22
-12867.575
-12867.711
-12867.635
-12868.199
-12869.62
-12868.109
-16038.336
-16034.163
-16047.02
-16032.531
-16035.221
-16036.375
-16036.614
-16036.798
-16037.233
-16039.729
-16034.163
-16047.121
-16041.11
-16033.42
-16036.52
-16037.55
-16037.893
-16038.703
-16036.985
-16035.215
-16047.02
-16041.11
-16043.426
-16035.83
-16038.641
-16039.476
-16039.832
-16041.968
-16042.439
-16038.714
-16032.531
-16033.42
-16035.83
-16028.081
-16030.772
-16031.431
-16031.427
-16033.501
-16035.593
-16035.599
-16035.221
-16036.52
-16038.641
-16030.772
-16033.417
-16034.015
-16033.787
-16035.321
-16036.638
-16035.996
-16036.375
-16037.55
-16039.476
-16031.431
-16034.015
-16034.61
-16034.36
-16035.802
-16036.928
-16036.01
-16036.614
-16037.893
-16039.832
-16031.427
-16033.787
-16034.36
-16034.118
-16035.572
-16036.717
-16035.901
-16036.798
-16038.703
-16041.968
-16033.501
-16035.321
-16035.802
-16035.572
-16037.083
-16038.354
-16037.81
-16037.233
-16036.985
-16042.439
-16035.593
-16036.638
-16036.928
-16036.717
-16038.354
-16039.888
-16038.78
-16039.729
-16035.215
-16038.714
-16035.599
-16035.996
-16036.01
-16035.901
-16037.81
-16038.78
-16036.654
-18431.078
-18424.526
-18438.179
-18422.36
-18425.658
-18427.02
-18427.322
-18427.755
-18427.304
-18430.825
-18424.526
-18436.859
-18430.529
-18422.235
-18425.928
-18427.065
-18427.598
-18429.86
-18426.782
-18424.563
-18438.179
-18430.529
-18433.148
-18424.915
-18428.246
-18429.067
-18429.432
-18433.459
-18433.336
-18428.646
-18422.36
-18422.235
-18424.915
-18416.502
-18419.689
-18420.269
-18420.092
-18423.959
-18425.776
-18425.357
-18425.658
-18425.928
-18428.246
-18419.689
-18422.825
-18423.329
-18422.852
-18426.026
-18426.902
-18425.735
-18427.02
-18427.065
-18429.067
-18420.269
-18423.329
-18423.831
-18423.323
-18426.374
-18427.011
-18425.552
-18427.322
-18427.598
-18429.432
-18420.092
-18422.852
-18423.323
-18422.826
-18425.904
-18426.598
-18425.419
-18427.755
-18429.86
-18433.459
-18423.959
-18426.026
-18426.374
-18425.904
-18429.099
-18430.062
-18429.41
-18427.304
-18426.782
-18433.336
-18425.776
-18426.902
-18427.011
-18426.598
-18430.062
-18431.484
-18427.932
-18430.825
-18424.563
-18428.646
-18425.357
-18425.735
-18425.552
-18425.419
-18429.41
-18427.932
-18427.024
-20075.343
-20067.883
-20082.064
-20065.477
-20069.213
-20070.68
-20071.023
-20072.069
-20071.569
-20076
-20067.883
-20079.941
-20073.656
-20065.05
-20069.14
-20070.229
-20070.731
-20074.479
-20070.781
-20068.574
-20082.064
-20073.656
-20076.636
-20068.058
-20071.735
-20072.411
-20072.575
-20078.443
-20078.203
-20073.077
-20065.477
-20065.05
-20068.058
-20059.283
-20062.8
-20063.182
-20062.645
-20068.285
-20070.225
-20069.713
-20069.213
-20069.14
-20071.735
-20062.8
-20066.263
-20066.558
-20065.656
-20070.482
-20071.359
-20070.031
-20070.68
-20070.229
-20072.411
-20063.182
-20066.558
-20066.851
-20065.909
-20070.587
-20071.19
-20069.583
-20071.023
-20070.731
-20072.575
-20062.645
-20065.656
-20065.909
-20064.982
-20069.704
-20070.423
-20069.359
-20072.069
-20074.479
-20078.443
-20068.285
-20070.482
-20070.587
-20069.704
-20074.634
-20075.878
-20075.843
-20071.569
-20070.781
-20078.203
-20070.225
-20071.359
-20071.19
-20070.423
-20075.878
-20078.065
-20071.591
-20076
-20068.574
-20073.077
-20069.713
-20070.031
-20069.583
-20069.359
-20075.843
-20071.591
-20072.053
-21033.527
-21025.591
-21039.874
-21023.066
-21027.092
-21028.559
-21028.8
-21030.264
-21029.807
-21034.907
-21025.591
-21037.213
-21031.16
-21022.536
-21026.867
-21027.809
-21028.088
-21032.935
-21028.788
-21026.674
-21039.874
-21031.16
-21034.405
-21025.777
-21029.66
-21030.113
-21029.904
-21037.146
-21036.797
-21031.445
-21023.066
-21022.536
-21025.777
-21016.941
-21020.655
-21020.774
-21019.731
-21026.687
-21028.668
-21028.104
-21027.092
-21026.867
-21029.66
-21020.655
-21024.313
-21024.337
-21022.878
-21028.931
-21029.764
-21028.339
-21028.559
-21027.809
-21030.113
-21020.774
-21024.337
-21024.36
-21022.851
-21028.734
-21029.265
-21027.587
-21028.8
-21028.088
-21029.904
-21019.731
-21022.878
-21022.851
-21021.357
-21027.296
-21027.997
-21027.149
-21030.264
-21032.935
-21037.146
-21026.687
-21028.931
-21028.734
-21027.296
-21033.53
-21035.047
-21035.937
-21029.807
-21028.788
-21036.797
-21028.668
-21029.764
-21029.265
-21027.997
-21035.047
-21038.231
-21029.2
-21034.907
-21026.674
-21031.445
-21028.104
-21028.339
-21027.587
-21027.149
-21035.937
-21029.2
-21030.961
-21381.139
-21373.043
-21387.077
-21370.536
-21374.724
-21376.124
-21376.195
-21377.904
-21377.465
-21383.008
-21373.043
-21384.078
-21378.417
-21370.035
-21374.47
-21375.217
-21375.187
-21380.779
-21376.299
-21374.301
-21387.077
-21378.417
-21381.843
-21373.426
-21377.393
-21377.595
-21376.947
-21385.116
-21384.632
-21379.196
-21370.536
-21370.035
-21373.426
-21364.795
-21368.59
-21368.431
-21366.847
-21374.68
-21376.591
-21375.965
-21374.724
-21374.47
-21377.393
-21368.59
-21372.33
-21372.072
-21370.035
-21376.906
-21377.619
-21376.108
-21376.124
-21375.217
-21377.595
-21368.431
-21372.072
-21371.813
-21369.719
-21376.401
-21376.79
-21375.055
-21376.195
-21375.187
-21376.947
-21366.847
-21370.035
-21369.719
-21367.635
-21374.377
-21374.977
-21374.337
-21377.904
-21380.779
-21385.116
-21374.68
-21376.906
-21376.401
-21374.377
-21381.483
-21383.162
-21385.009
-21377.465
-21376.299
-21384.632
-21376.591
-21377.619
-21376.79
-21374.977
-21383.162
-21387.272
-21376.214
-21383.008
-21374.301
-21379.196
-21375.965
-21376.108
-21375.055
-21374.337
-21385.009
-21376.214
-21379.136
-21202.119
-21194.175
-21207.677
-21191.809
-21196.036
-21197.327
-21197.202
-21199.023
-21198.576
-21204.343
-21194.175
-21204.543
-21199.394
-21191.457
-21195.874
-21196.405
-21196.038
-21202.067
-21197.364
-21195.475
-21207.677
-21199.394
-21202.92
-21194.92
-21198.864
-21198.814
-21197.723
-21206.418
-21205.78
-21200.36
-21191.809
-21191.457
-21194.92
-21186.709
-21190.481
-21190.055
-21187.96
-21196.279
-21198.026
-21197.307
-21196.036
-21195.874
-21198.864
-21190.481
-21194.202
-21193.677
-21191.106
-21198.433
-21198.966
-21197.36
-21197.327
-21196.405
-21198.814
-21190.055
-21193.677
-21193.152
-21190.517
-21197.643
-21197.837
-21196.038
-21197.202
-21196.038
-21197.723
-21187.96
-21191.106
-21190.517
-21187.887
-21195.072
-21195.504
-21195.022
-21199.023
-21202.067
-21206.418
-21196.279
-21198.433
-21197.643
-21195.072
-21202.669
-21204.397
-21207.093
-21198.576
-21197.364
-21205.78
-21198.026
-21198.966
-21197.837
-21195.504
-21204.397
-21209.255
-21196.696
-21204.343
-21195.475
-21200.36
-21197.307
-21197.36
-21196.038
-21195.022
-21207.093
-21196.696
-21200.585
-20583.704
-20576.186
-20588.93
-20574.045
-20578.204
-20579.357
-20579.034
-20580.866
-20580.39
-20586.171
-20576.186
-20585.845
-20581.28
-20573.935
-20578.226
-20578.539
-20577.843
-20584.045
-20579.225
-20577.417
-20588.93
-20581.28
-20584.821
-20577.392
-20581.217
-20580.933
-20579.436
-20588.31
-20587.509
-20582.173
-20574.045
-20573.935
-20577.392
-20569.757
-20573.416
-20572.754
-20570.215
-20578.685
-20580.198
-20579.35
-20578.204
-20578.226
-20581.217
-20573.416
-20577.031
-20576.271
-20573.249
-20580.725
-20581.038
-20579.32
-20579.357
-20578.539
-20580.933
-20572.754
-20576.271
-20575.513
-20572.422
-20579.69
-20579.658
-20577.777
-20579.034
-20577.843
-20579.436
-20570.215
-20573.249
-20572.422
-20569.33
-20576.652
-20576.873
-20576.48
-20580.866
-20584.045
-20588.31
-20578.685
-20580.725
-20579.69
-20576.652
-20584.416
-20586.095
-20589.465
-20580.39
-20579.225
-20587.509
-20580.198
-20581.038
-20579.658
-20576.873
-20586.095
-20591.492
-20577.918
-20586.171
-20577.417
-20582.173
-20579.35
-20579.32
-20577.777
-20576.48
-20589.465
-20577.918
-20582.546
-19612.562
-19605.679
-19617.494
-19603.81
-19607.807
-19608.806
-19608.302
-19610.069
-19609.552
-19615.162
-19605.679
-19614.606
-19610.652
-19603.993
-19608.069
-19608.177
-19607.185
-19613.342
-19608.507
-19606.748
-19617.494
-19610.652
-19614.128
-19607.367
-19610.996
-19610.509
-19608.668
-19617.433
-19616.475
-19611.278
-19603.81
-19603.993
-19607.367
-19600.412
-19603.886
-19603.027
-19600.138
-19608.484
-19609.721
-19608.717
-19607.807
-19608.069
-19610.996
-19603.886
-19607.321
-19606.37
-19603.003
-19610.378
-19610.455
-19608.615
-19608.806
-19608.177
-19610.509
-19603.027
-19606.37
-19605.422
-19601.984
-19609.147
-19608.882
-19606.91
-19608.302
-19607.185
-19608.668
-19600.138
-19603.003
-19601.984
-19598.538
-19605.748
-19605.74
-19605.372
-19610.069
-19613.342
-19617.433
-19608.484
-19610.378
-19609.147
-19605.748
-19613.414
-19614.972
-19618.819
-19609.552
-19608.507
-19616.475
-19609.721
-19610.455
-19608.882
-19605.74
-19614.972
-19620.696
-19606.552
-19615.162
-19606.748
-19611.278
-19608.717
-19608.615
-19606.91
-19605.372
-19618.819
-19606.552
-19611.683
-18372.053
-18365.944
-18376.711
-18364.364
-18368.125
-18368.963
-18368.305
-18369.954
-18369.396
-18374.686
-18365.944
-18374.126
-18370.774
-18364.849
-18368.642
-18368.569
-18367.332
-18373.27
-18368.517
-18366.785
-18376.711
-18370.774
-18374.11
-18368.072
-18371.447
-18370.795
-18368.689
-18377.117
-18376.023
-18371.011
-18364.364
-18364.849
-18368.072
-18361.854
-18365.086
-18364.079
-18360.946
-18368.953
-18369.899
-18368.73
-18368.125
-18368.642
-18371.447
-18365.086
-18368.286
-18367.193
-18363.599
-18370.678
-18370.527
-18368.572
-18368.963
-18368.569
-18370.795
-18364.079
-18367.193
-18366.105
-18362.439
-18369.31
-18368.825
-18366.765
-18368.305
-18367.332
-18368.689
-18360.946
-18363.599
-18362.439
-18358.76
-18365.668
-18365.435
-18365.042
-18369.954
-18373.27
-18377.117
-18368.953
-18370.678
-18369.31
-18365.668
-18373.029
-18374.416
-18378.546
-18369.396
-18368.517
-18376.023
-18369.899
-18370.527
-18368.825
-18365.435
-18374.416
-18380.274
-18365.96
-18374.686
-18366.785
-18371.011
-18368.73
-18368.572
-18366.765
-18365.042
-18378.546
-18365.96
-18371.366
-16940.253
-16934.989
-16944.639
-16933.69
-16937.16
-16937.843
-16937.066
-16938.563
-16937.972
-16942.83
-16934.989
-16942.42
-16939.636
-16934.455
-16937.919
-16937.694
-16936.274
-16941.865
-16937.28
-16935.567
-16944.639
-16939.636
-16942.771
-16937.472
-16940.551
-16939.778
-16937.494
-16945.414
-16944.216
-16939.435
-16933.69
-16934.455
-16937.472
-16932.01
-16934.961
-16933.855
-16930.588
-16938.096
-16938.759
-16937.439
-16937.16
-16937.919
-16940.551
-16934.961
-16937.886
-16936.703
-16933
-16939.64
-16939.286
-16937.238
-16937.843
-16937.694
-16939.778
-16933.855
-16936.703
-16935.525
-16931.752
-16938.191
-16937.518
-16935.389
-16937.066
-16936.274
-16937.494
-16930.588
-16933
-16931.752
-16927.961
-16934.427
-16933.993
-16933.545
-16938.563
-16941.865
-16945.414
-16938.096
-16939.64
-16938.191
-16934.427
-16941.331
-16942.523
-16946.76
-16937.972
-16937.28
-16944.216
-16938.759
-16939.286
-16937.518
-16933.993
-16942.523
-16948.345
-16934.212
-16942.83
-16935.567
-16939.435
-16937.439
-16937.238
-16935.389
-16933.545
-16946.76
-16934.212
-16939.69
-15388.472
-15384.063
-15392.576
-15383.025
-15386.168
-15386.707
-15385.848
-15387.175
-15386.566
-15390.922
-15384.063
-15390.747
-15388.479
-15384.023
-15387.13
-15386.788
-15385.249
-15390.405
-15386.065
-15384.372
-15392.576
-15388.479
-15391.366
-15386.792
-15389.552
-15388.7
-15386.326
-15393.621
-15392.357
-15387.849
-15383.025
-15384.023
-15386.792
-15382.072
-15384.721
-15383.564
-15380.267
-15387.17
-15387.575
-15386.132
-15386.168
-15387.13
-15389.552
-15384.721
-15387.35
-15386.125
-15382.424
-15388.53
-15388.009
-15385.905
-15386.707
-15386.788
-15388.7
-15383.564
-15386.125
-15384.906
-15381.139
-15387.053
-15386.233
-15384.07
-15385.848
-15385.249
-15386.326
-15380.267
-15382.424
-15381.139
-15377.348
-15383.281
-15382.682
-15382.167
-15387.175
-15390.405
-15393.621
-15387.17
-15388.53
-15387.053
-15383.281
-15389.626
-15390.615
-15394.813
-15386.566
-15386.065
-15392.357
-15387.575
-15388.009
-15386.233
-15382.682
-15390.615
-15396.261
-15382.607
-15390.922
-15384.372
-15387.849
-15386.132
-15385.905
-15384.07
-15382.167
-15394.813
-15382.607
-15387.985
-13780.13
-13776.542
-13783.934
-13775.733
-13778.533
-13778.942
-13778.04
-13779.193
-13778.582
-13782.402
-13776.542
-13782.49
-13780.678
-13776.906
-13779.647
-13779.222
-13777.627
-13782.294
-13778.258
-13776.601
-13783.934
-13780.678
-13783.286
-13779.4
-13781.835
-13780.945
-13778.56
-13785.158
-13783.869
-13779.673
-13775.733
-13776.906
-13779.4
-13775.387
-13777.725
-13776.561
-13773.328
-13779.561
-13779.746
-13778.221
-13778.533
-13779.647
-13781.835
-13777.725
-13780.049
-13778.827
-13775.227
-13780.741
-13780.096
-13777.981
-13778.942
-13779.222
-13780.945
-13776.561
-13778.827
-13777.611
-13773.948
-13779.285
-13778.364
-13776.207
-13778.04
-13777.627
-13778.56
-13773.328
-13775.227
-13773.948
-13770.259
-13775.605
-13774.884
-13774.305
-13779.193
-13782.294
-13785.158
-13779.561
-13780.741
-13779.285
-13775.605
-13781.33
-13782.125
-13786.166
-13778.582
-13778.258
-13783.869
-13779.746
-13780.096
-13778.364
-13774.884
-13782.125
-13787.483
-13774.55
-13782.402
-13776.601
-13779.673
-13778.221
-13777.981
-13776.207
-13774.305
-13786.166
-13774.55
-13779.692
-12169.95
-12167.114
-12173.437
-12166.502
-12168.956
-12169.254
-12168.344
-12169.327
-12168.731
-12172.011
-12167.114
-12172.349
-12170.93
-12167.786
-12170.166
-12169.69
-12168.096
-12172.249
-12168.563
-12166.96
-12173.437
-12170.93
-12173.243
-12169.993
-12172.107
-12171.215
-12168.89
-12174.759
-12173.484
-12169.631
-12166.502
-12167.786
-12169.993
-12166.633
-12168.666
-12167.532
-12164.441
-12169.978
-12169.984
-12168.422
-12168.956
-12170.166
-12172.107
-12168.666
-12170.69
-12169.507
-12166.088
-12170.987
-12170.263
-12168.182
-12169.254
-12169.69
-12171.215
-12167.532
-12169.507
-12168.331
-12164.854
-12169.591
-12168.616
-12166.508
-12168.344
-12168.096
-12168.89
-12164.441
-12166.088
-12164.854
-12161.349
-12166.086
-12165.288
-12164.66
-12169.327
-12172.249
-12174.759
-12169.978
-12170.987
-12169.591
-12166.086
-12171.166
-12171.785
-12175.581
-12168.731
-12168.563
-12173.484
-12169.984
-12170.263
-12168.616
-12165.288
-12171.785
-12176.773
-12164.747
-12172.011
-12166.96
-12169.631
-12168.422
-12168.182
-12166.508
-12164.66
-12175.581
-12164.747
-12169.549
-10603.451
-10601.279
-10606.609
-10600.831
-10602.948
-10603.155
-10602.266
-10603.091
-10602.524
-10605.286
-10601.279
-10605.836
-10604.745
-10602.165
-10604.201
-10603.703
-10602.158
-10605.795
-10602.484
-10600.958
-10606.609
-10604.745
-10606.762
-10604.084
-10605.893
-10605.03
-10602.821
-10607.96
-10606.734
-10603.245
-10600.831
-10602.165
-10604.084
-10601.315
-10603.056
-10601.983
-10599.095
-10603.937
-10603.808
-10602.255
-10602.948
-10604.201
-10605.893
-10603.056
-10604.794
-10603.679
-10600.503
-10604.789
-10604.026
-10602.024
-10603.155
-10603.703
-10605.03
-10601.983
-10603.679
-10602.573
-10599.344
-10603.484
-10602.497
-10600.479
-10602.266
-10602.158
-10602.821
-10599.095
-10600.503
-10599.344
-10596.086
-10600.219
-10599.384
-10598.728
-10603.091
-10605.795
-10607.96
-10603.937
-10604.789
-10603.484
-10600.219
-10604.656
-10605.12
-10608.611
-10602.524
-10602.484
-10606.734
-10603.808
-10604.026
-10602.497
-10599.384
-10605.12
-10609.683
-10598.693
-10605.286
-10600.958
-10603.245
-10602.255
-10602.024
-10600.479
-10598.728
-10608.611
-10598.693
-10603.086
-9116.7646
-9115.1587
-9119.5881
-9114.8429
-9116.6435
-9116.7781
-9115.9343
-9116.6161
-9116.0906
-9118.3706
-9115.1587
-9119.08
-9118.2585
-9116.1732
-9117.8903
-9117.3941
-9115.9366
-9119.0748
-9116.1504
-9114.7199
-9119.5881
-9118.2585
-9119.9892
-9117.8163
-9119.3424
-9118.5307
-9116.4808
-9120.9139
-9119.7643
-9116.6492
-9114.8429
-9116.1732
-9117.8163
-9115.5682
-9117.0396
-9116.0486
-9113.4051
-9117.5781
-9117.3544
-9115.8527
-9116.6435
-9117.8903
-9119.3424
-9117.0396
-9118.5103
-9117.4863
-9114.5939
-9118.2893
-9117.524
-9115.6385
-9116.7781
-9117.3941
-9118.5307
-9116.0486
-9117.4863
-9116.4696
-9113.531
-9117.0972
-9116.1339
-9114.2414
-9115.9343
-9115.9366
-9116.4808
-9113.4051
-9114.5939
-9113.531
-9110.5626
-9114.1166
-9113.2824
-9112.6182
-9116.6161
-9119.0748
-9120.9139
-9117.5781
-9118.2893
-9117.0972
-9114.1166
-9117.9336
-9118.2681
-9121.4195
-9116.0906
-9116.1504
-9119.7643
-9117.3544
-9117.524
-9116.1339
-9113.2824
-9118.2681
-9122.3757
-9112.4966
-9118.3706
-9114.7199
-9116.6492
-9115.8527
-9115.6385
-9114.2414
-9112.6182
-9121.4195
-9112.4966
-9116.441
-7736.7882
-7735.649
-7739.2788
-7735.4372
-7736.9476
-7737.0267
-7736.2461
-7736.8013
-7736.3259
-7738.173
-7735.649
-7738.9852
-7738.3798
-7736.72
-7738.1485
-7737.6731
-7736.3304
-7738.9991
-7736.4572
-7735.1398
-7739.2788
-7738.3798
-7739.8414
-7738.105
-7739.3755
-7738.6318
-7736.7696
-7740.5392
-7739.4861
-7736.7441
-7735.4372
-7736.72
-7738.105
-7736.3074
-7737.5345
-7736.6402
-7734.2677
-7737.8134
-7737.5306
-7736.1138
-7736.9476
-7738.1485
-7739.3755
-7737.5345
-7738.7636
-7737.8433
-7735.259
-7738.4003
-7737.6617
-7735.9216
-7737.0267
-7737.6731
-7738.6318
-7736.6402
-7737.8433
-7736.9302
-7734.3053
-7737.3341
-7736.4232
-7734.682
-7736.2461
-7736.3304
-7736.7696
-7734.2677
-7735.259
-7734.3053
-7731.6515
-7734.6641
-7733.86
-7733.2084
-7736.8013
-7738.9991
-7740.5392
-7737.8134
-7738.4003
-7737.3341
-7734.6641
-7737.9008
-7738.1305
-7740.9257
-7736.3259
-7736.4572
-7739.4861
-7737.5306
-7737.6617
-7736.4232
-7733.86
-7738.1305
-7741.7711
-7733.0313
-7738.173
-7735.1398
-7736.7441
-7736.1138
-7735.9216
-7734.682
-7733.2084
-7740.9257
-7733.0313
-7736.5107
-6481.6669
-6480.9006
-6483.8352
-6480.7685
-6482.0188
-6482.0575
-6481.3519
-6481.7977
-6481.3769
-6482.8456
-6480.9006
-6483.7073
-6483.2715
-6481.9706
-6483.1437
-6482.7028
-6481.4923
-6483.7303
-6481.5552
-6480.3624
-6483.8352
-6483.2715
-6484.4876
-6483.1208
-6484.1653
-6483.4998
-6481.8412
-6485.0023
-6484.0581
-6481.6781
-6480.7685
-6481.9706
-6483.1208
-6481.7052
-6482.716
-6481.926
-6479.8353
-6482.8066
-6482.4946
-6481.1881
-6482.0188
-6483.1437
-6484.1653
-6482.716
-6483.7307
-6482.9207
-6480.6523
-6483.2864
-6482.5958
-6481.0206
-6482.0575
-6482.7028
-6483.4998
-6481.926
-6482.9207
-6482.1176
-6479.8142
-6482.3515
-6481.5131
-6479.9406
-6481.3519
-6481.4923
-6481.8412
-6479.8353
-6480.6523
-6479.8142
-6477.4833
-6480.0019
-6479.2499
-6478.6281
-6481.7977
-6483.7303
-6485.0023
-6482.8066
-6483.2864
-6482.3515
-6480.0019
-6482.7079
-6482.8557
-6485.2951
-6481.3769
-6481.5552
-6484.0581
-6482.4946
-6482.5958
-6481.5131
-6479.2499
-6482.8557
-6486.0353
-6478.4215
-6482.8456
-6480.3624
-6481.6781
-6481.1881
-6481.0206
-6479.9406
-6478.6281
-6485.2951
-6478.4215
-6481.4402
-5361.5832
-5361.1049
-5363.4464
-5361.0318
-5362.0541
-5362.065
-5361.4405
-5361.7936
-5361.429
-5362.575
-5361.1049
-5363.4402
-5363.1346
-5362.1307
-5363.0823
-5362.6849
-5361.6152
-5363.4667
-5361.6334
-5360.5709
-5363.4464
-5363.1346
-5364.1321
-5363.0726
-5363.9211
-5363.3384
-5361.8881
-5364.5032
-5363.6735
-5361.6359
-5361.0318
-5362.1307
-5363.0726
-5361.9747
-5362.7977
-5362.1136
-5360.3027
-5362.7595
-5362.4415
-5361.2619
-5362.0541
-5363.0823
-5363.9211
-5362.7977
-5363.6258
-5362.9267
-5360.9689
-5363.1484
-5362.5202
-5361.12
-5362.065
-5362.6849
-5363.3384
-5362.1136
-5362.9267
-5362.2342
-5360.2466
-5362.3439
-5361.5906
-5360.1952
-5361.4405
-5361.6152
-5361.8881
-5360.3027
-5360.9689
-5360.2466
-5358.2336
-5360.3108
-5359.6259
-5359.047
-5361.7936
-5363.4667
-5364.5032
-5362.7595
-5363.1484
-5362.3439
-5360.3108
-5362.5422
-5362.628
-5364.7244
-5361.429
-5361.6334
-5363.6735
-5362.4415
-5362.5202
-5361.5906
-5359.6259
-5362.628
-5365.3659
-5358.831
-5362.575
-5360.5709
-5361.6359
-5361.2619
-5361.12
-5360.1952
-5359.047
-5364.7244
-5358.831
-5361.4093
-4379.7881
-4379.5244
-4381.3689
-4379.4936
-4380.3194
-4380.3126
-4379.7708
-4380.047
-4379.7371
-4380.6144
-4379.5244
-4381.4466
-4381.2388
-4380.4761
-4381.2391
-4380.8898
-4379.9622
-4381.4737
-4379.9509
-4379.0196
-4381.3689
-4381.2388
-4382.0458
-4381.2371
-4381.9186
-4381.4187
-4380.1725
-4382.3074
-4381.5919
-4379.8707
-4379.4936
-4380.4761
-4381.2371
-4380.3987
-4381.0614
-4380.4802
-4378.9373
-4380.9421
-4380.6353
-4379.5907
-4380.3194
-4381.2391
-4381.9186
-4381.0614
-4381.7299
-4381.1378
-4379.4751
-4381.2549
-4380.6972
-4379.4737
-4380.3126
-4380.8898
-4381.4187
-4380.4802
-4381.1378
-4380.5516
-4378.864
-4380.575
-4379.9126
-4378.695
-4379.7708
-4379.9622
-4380.1725
-4378.9373
-4379.4751
-4378.864
-4377.1533
-4378.8439
-4378.2344
-4377.7074
-4380.047
-4381.4737
-4382.3074
-4380.9421
-4381.2549
-4380.575
-4378.8439
-4380.659
-4380.6999
-4382.4751
-4379.7371
-4379.9509
-4381.5919
-4380.6353
-4380.6972
-4379.9126
-4378.2344
-4380.6999
-4383.0252
-4377.497
-4380.6144
-4379.0196
-4379.8707
-4379.5907
-4379.4737
-4378.695
-4377.7074
-4382.4751
-4377.497
-4379.6659
-3533.8015
-3533.6912
-3535.1262
-3533.6893
-3534.3488
-3534.332
-3533.8707
-3534.0839
-3533.8254
-3534.4839
-3533.6912
-3535.2569
-3535.1205
-3534.5504
-3535.1554
-3534.8554
-3534.0651
-3535.2831
-3534.0361
-3533.2322
-3535.1262
-3535.1205
-3535.7649
-3535.1572
-3535.6988
-3535.2782
-3534.2251
-3535.9454
-3535.3392
-3533.9041
-3533.6893
-3534.5504
-3535.1572
-3534.5271
-3535.0551
-3534.5702
-3533.2763
-3534.8912
-3534.6072
-3533.6988
-3534.3488
-3535.1554
-3535.6988
-3535.0551
-3535.5892
-3535.0967
-3533.7064
-3535.1412
-3534.6568
-3533.605
-3534.332
-3534.8554
-3535.2782
-3534.5702
-3535.0967
-3534.6095
-3533.1986
-3534.5765
-3534.0056
-3532.9598
-3533.8707
-3534.0651
-3534.2251
-3533.2763
-3533.7064
-3533.1986
-3531.7671
-3533.1251
-3532.594
-3532.124
-3534.0839
-3535.2831
-3535.9454
-3534.8912
-3535.1412
-3534.5765
-3533.1251
-3534.5821
-3534.5918
-3536.0736
-3533.8254
-3534.0361
-3535.3392
-3534.6072
-3534.6568
-3534.0056
-3532.594
-3534.5918
-3536.5404
-3531.9293
-3534.4839
-3533.2322
-3533.9041
-3533.6988
-3533.605
-3532.9598
-3532.124
-3536.0736
-3531.9293
-3533.7273
-2816.6897
-2816.6835
-2817.7864
-2816.7001
-2817.221
-2817.2
-2816.8141
-2816.9768
-2816.7649
-2817.249
-2816.6835
-2817.9458
-2817.8604
-2817.4412
-2817.9159
-2817.6638
-2817.0017
-2817.9708
-2816.9636
-2816.2798
-2817.7864
-2817.8604
-2818.3684
-2817.919
-2818.3451
-2817.9977
-2817.1218
-2818.4907
-2817.9855
-2816.8041
-2816.7001
-2817.4412
-2817.919
-2817.4529
-2817.8695
-2817.4721
-2816.4034
-2817.688
-2817.4337
-2816.657
-2817.221
-2817.9159
-2818.3451
-2817.8695
-2818.2921
-2817.8896
-2816.7444
-2817.8866
-2817.4742
-2816.5838
-2817.2
-2817.6638
-2817.9977
-2817.4721
-2817.8896
-2817.4917
-2816.3297
-2817.4255
-2816.9423
-2816.0575
-2816.8141
-2817.0017
-2817.1218
-2816.4034
-2816.7444
-2816.3297
-2815.1496
-2816.2266
-2815.7726
-2815.361
-2816.9768
-2817.9708
-2818.4907
-2817.688
-2817.8866
-2817.4255
-2816.2266
-2817.3808
-2817.3702
-2818.59
-2816.7649
-2816.9636
-2817.9855
-2817.4337
-2817.4742
-2816.9423
-2815.7726
-2817.3702
-2818.9819
-2815.188
-2817.249
-2816.2798
-2816.8041
-2816.657
-2816.5838
-2816.0575
-2815.361
-2818.59
-2815.188
-2816.6576
-2218.3326
-2218.3923
-2219.23
-2218.4195
-2218.8268
-2218.8051
-2218.4878
-2218.6106
-2218.4398
-2218.7881
-2218.3923
-2219.3998
-2219.3497
-2219.0467
-2219.4155
-2219.2079
-2218.6621
-2219.4236
-2218.6209
-2218.0475
-2219.23
-2219.3497
-2219.7452
-2219.4183
-2219.7504
-2219.4685
-2218.7512
-2219.8269
-2219.4127
-2218.4518
-2218.4195
-2219.0467
-2219.4183
-2219.0792
-2219.4049
-2219.0847
-2218.2149
-2219.2242
-2219.0028
-2218.3491
-2218.8268
-2219.4155
-2219.7504
-2219.4049
-2219.7363
-2219.4128
-2218.4831
-2219.3812
-2219.0366
-2218.2938
-2218.8051
-2219.2079
-2219.4685
-2219.0847
-2219.4128
-2219.0934
-2218.1502
-2219.0108
-2218.609
-2217.871
-2218.4878
-2218.6621
-2218.7512
-2218.2149
-2218.4831
-2218.1502
-2217.1913
-2218.0348
-2217.6536
-2217.2993
-2218.6106
-2219.4236
-2219.8269
-2219.2242
-2219.3812
-2219.0108
-2218.0348
-2218.9374
-2218.9146
-2219.9053
-2218.4398
-2218.6209
-2219.4127
-2219.0028
-2219.0366
-2218.609
-2217.6536
-2218.9146
-2220.2307
-2217.1508
-2218.7881
-2218.0475
-2218.4518
-2218.3491
-2218.2938
-2217.871
-2217.2993
-2219.9053
-2217.1508
-2218.3354
-1726.6021
-1726.699
-1727.328
-1726.7312
-1727.0465
-1727.0266
-1726.77
-1726.8616
-1726.7263
-1726.9708
-1726.699
-1727.4953
-1727.4688
-1727.2537
-1727.5375
-1727.3699
-1726.9269
-1727.5181
-1726.8868
-1726.4123
-1727.328
-1727.4688
-1727.773
-1727.5393
-1727.7958
-1727.5711
-1726.9924
-1727.8275
-1727.4931
-1726.7208
-1726.7312
-1727.2537
-1727.5393
-1727.2968
-1727.5493
-1727.2955
-1726.5977
-1727.3812
-1727.1931
-1726.6512
-1727.0465
-1727.5375
-1727.7958
-1727.5493
-1727.8068
-1727.5512
-1726.8071
-1727.5048
-1727.2217
-1726.6107
-1727.0266
-1727.3699
-1727.5711
-1727.2955
-1727.5512
-1727.2991
-1726.5442
-1727.2121
-1726.8832
-1726.2762
-1726.77
-1726.9269
-1726.9924
-1726.5977
-1726.8071
-1726.5442
-1725.776
-1726.4285
-1726.1138
-1725.8136
-1726.8616
-1727.5181
-1727.8275
-1727.3812
-1727.5048
-1727.2121
-1726.4285
-1727.1255
-1727.0967
-1727.8905
-1726.7263
-1726.8868
-1727.4931
-1727.1931
-1727.2217
-1726.8832
-1726.1138
-1727.0967
-1728.1579
-1725.6899
-1726.9708
-1726.4123
-1726.7208
-1726.6512
-1726.6107
-1726.2762
-1725.8136
-1727.8905
-1725.6899
-1726.632
-1328.3927
-1328.5065
-1328.9734
-1328.5398
-1328.7815
-1328.7645
-1328.5605
-1328.6282
-1328.5226
-1328.6898
-1328.5065
-1329.1298
-1329.1183
-1328.9685
-1329.185
-1329.0522
-1328.6981
-1329.1517
-1328.6614
-1328.2739
-1328.9734
-1329.1183
-1329.3497
-1329.1855
-1329.382
-1329.2059
-1328.7457
-1329.3865
-1329.1204
-1328.5068
-1328.5398
-1328.9685
-1329.1855
-1329.0152
-1329.2093
-1329.0115
-1328.4595
-1329.0606
-1328.9043
-1328.4614
-1328.7815
-1329.185
-1329.382
-1329.2093
-1329.4078
-1329.2092
-1328.6218
-1329.1575
-1328.9288
-1328.4329
-1328.7645
-1329.0522
-1329.2059
-1329.0115
-1329.2092
-1329.0135
-1328.4176
-1328.9298
-1328.6649
-1328.172
-1328.5605
-1328.6981
-1328.7457
-1328.4595
-1328.6218
-1328.4176
-1327.8106
-1328.3093
-1328.0536
-1327.803
-1328.6282
-1329.1517
-1329.3865
-1329.0606
-1329.1575
-1328.9298
-1328.3093
-1328.8409
-1328.8102
-1329.438
-1328.5226
-1328.6614
-1329.1204
-1328.9043
-1328.9288
-1328.6649
-1328.0536
-1328.8102
-1329.6555
-1327.7028
-1328.6898
-1328.2739
-1328.5068
-1328.4614
-1328.4329
-1328.172
-1327.803
-1329.438
-1327.7028
-1328.4423
-1010.4678
-1010.5844
-1010.9273
-1010.6162
-1010.8
-1010.7864
-1010.6266
-1010.6763
-1010.5951
-1010.706
-1010.5844
-1011.0677
-1011.0654
-1010.9631
-1011.1269
-1011.0236
-1010.7447
-1011.0888
-1010.7127
-1010.4003
-1010.9273
-1011.0654
-1011.2393
-1011.1262
-1011.2755
-1011.1398
-1010.779
-1011.2651
-1011.0563
-1010.5742
-1010.6162
-1010.9631
-1011.1262
-1011.0088
-1011.1568
-1011.0052
-1010.5745
-1011.0305
-1010.9031
-1010.5461
-1010.8
-1011.1269
-1011.2755
-1011.1568
-1011.3088
-1011.1569
-1010.6994
-1011.1061
-1010.9242
-1010.5269
-1010.7864
-1011.0236
-1011.1398
-1011.0052
-1011.1569
-1011.0075
-1010.5434
-1010.9317
-1010.7215
-1010.3265
-1010.6266
-1010.7447
-1010.779
-1010.5745
-1010.6994
-1010.5434
-1010.0702
-1010.447
-1010.2423
-1010.0361
-1010.6763
-1011.0888
-1011.2651
-1011.0305
-1011.1061
-1010.9317
-1010.447
-1010.8476
-1010.8177
-1011.3079
-1010.5951
-1010.7127
-1011.0563
-1010.9031