/*--------------------------------*- C++ -*----------------------------------*\
| =========                 |                                                 |
| \\      /  F ield         | OpenFOAM: The Open Source CFD Toolbox           |
|  \\    /   O peration     | Version:  v2106                                 |
|   \\  /    A nd           | Website:  www.openfoam.com                      |
|    \\/     M anipulation  |                                                 |
\*---------------------------------------------------------------------------*/
FoamFile
{
    version     2.0;
    format      ascii;
    arch        "LSB;label=32;scalar=64";
    class       volVectorField;
    location    "30";
    object      flux;
}
// * * * * * * * * * * * * * * * * * * * * * * * * * * * * * * * * * * * * * //

dimensions      [0 1 -1 1 0 0 0];

internalField   nonuniform List<vector> 
4000
(
(-2.5196562e-07 -2.5196561e-07 0.61513835)
(6.8892392e-07 4.6256403e-07 0.61513704)
(9.5181259e-07 1.6490278e-07 0.61514172)
(-2.6091155e-07 1.2814836e-07 0.61514126)
(-2.4421025e-07 1.2995249e-07 0.61514055)
(-1.8133597e-07 1.350815e-07 0.61514005)
(-1.7398589e-07 1.3992999e-07 0.61513961)
(-1.9205922e-07 1.3576938e-07 0.61513913)
(-1.7032627e-07 1.0368602e-07 0.61513859)
(-4.6183626e-08 5.1141864e-08 0.61513828)
(4.6256403e-07 6.8892392e-07 0.61513704)
(1.3142265e-06 1.3142265e-06 0.61513979)
(4.5018907e-07 7.9514122e-07 0.61514269)
(-3.1333699e-07 7.3278023e-07 0.61514198)
(-2.3381054e-07 7.394476e-07 0.61514128)
(-1.6636973e-07 7.5697401e-07 0.61514082)
(-1.7295406e-07 7.8007729e-07 0.61514042)
(-2.4642517e-07 7.8797686e-07 0.6151399)
(-2.9726755e-07 7.1709396e-07 0.61513908)
(-9.8727779e-08 5.2287824e-07 0.61513843)
(1.6490278e-07 9.5181259e-07 0.61514172)
(7.9514122e-07 4.5018908e-07 0.61514269)
(3.703663e-07 3.703663e-07 0.61514522)
(-3.1660517e-07 3.6388684e-07 0.61514446)
(-2.2001648e-07 3.7294854e-07 0.61514378)
(-1.4070628e-07 3.9291763e-07 0.61514336)
(-1.4298303e-07 4.2619191e-07 0.61514305)
(-2.5504255e-07 4.6885948e-07 0.6151426)
(-4.3542489e-07 4.8746884e-07 0.61514164)
(-1.7566077e-07 4.1749043e-07 0.61514041)
(1.2814836e-07 -2.6091155e-07 0.61514126)
(7.3278023e-07 -3.1333698e-07 0.61514198)
(3.6388683e-07 -3.1660516e-07 0.61514446)
(-3.1075475e-07 -3.1075475e-07 0.6151437)
(-2.0477975e-07 -2.9875406e-07 0.61514304)
(-1.1312636e-07 -2.793692e-07 0.61514268)
(-9.701221e-08 -2.495683e-07 0.61514246)
(-1.8514823e-07 -2.0444921e-07 0.61514216)
(-3.486366e-07 -1.4213092e-07 0.6151414)
(-1.4538005e-07 -7.5698186e-08 0.61514037)
(1.299525e-07 -2.4421026e-07 0.61514055)
(7.3944761e-07 -2.3381055e-07 0.61514128)
(3.7294853e-07 -2.2001649e-07 0.61514378)
(-2.9875407e-07 -2.0477975e-07 0.61514304)
(-1.8863093e-07 -1.8863093e-07 0.61514242)
(-9.152052e-08 -1.7066908e-07 0.61514211)
(-6.8063038e-08 -1.4982921e-07 0.61514196)
(-1.4760516e-07 -1.2490266e-07 0.61514174)
(-3.0667387e-07 -9.6110727e-08 0.61514109)
(-1.3137229e-07 -6.9246938e-08 0.61514017)
(1.350815e-07 -1.8133597e-07 0.61514005)
(7.5697401e-07 -1.6636974e-07 0.61514082)
(3.9291764e-07 -1.407063e-07 0.61514336)
(-2.793692e-07 -1.1312636e-07 0.61514268)
(-1.7066908e-07 -9.152052e-08 0.61514211)
(-7.4324637e-08 -7.4324627e-08 0.61514184)
(-5.1245797e-08 -6.0221322e-08 0.61514174)
(-1.3142975e-07 -4.8883637e-08 0.61514157)
(-2.9298087e-07 -4.0416412e-08 0.61514096)
(-1.2747086e-07 -3.5566832e-08 0.61514007)
(1.3992998e-07 -1.7398588e-07 0.61513961)
(7.8007728e-07 -1.7295406e-07 0.61514042)
(4.2619191e-07 -1.4298303e-07 0.61514305)
(-2.4956829e-07 -9.7012218e-08 0.61514246)
(-1.498292e-07 -6.8063039e-08 0.61514196)
(-6.0221322e-08 -5.124579e-08 0.61514174)
(-4.2622048e-08 -4.2622035e-08 0.61514166)
(-1.2780025e-07 -4.1165328e-08 0.6151415)
(-2.9335707e-07 -4.5831742e-08 0.61514089)
(-1.2813923e-07 -5.3514143e-08 0.61514)
(1.3576938e-07 -1.9205922e-07 0.61513913)
(7.8797686e-07 -2.4642517e-07 0.6151399)
(4.6885948e-07 -2.5504254e-07 0.6151426)
(-2.0444921e-07 -1.8514823e-07 0.61514216)
(-1.2490265e-07 -1.4760516e-07 0.61514174)
(-4.8883633e-08 -1.3142976e-07 0.61514157)
(-4.1165334e-08 -1.2780025e-07 0.6151415)
(-1.3463945e-07 -1.3463945e-07 0.61514134)
(-3.0532969e-07 -1.5009403e-07 0.6151407)
(-1.3259246e-07 -1.6828955e-07 0.61513977)
(1.0368601e-07 -1.7032627e-07 0.61513859)
(7.1709396e-07 -2.9726754e-07 0.61513908)
(4.8746885e-07 -4.354249e-07 0.61514164)
(-1.4213091e-07 -3.4863659e-07 0.6151414)
(-9.6110731e-08 -3.0667387e-07 0.61514109)
(-4.041641e-08 -2.9298087e-07 0.61514096)
(-4.5831741e-08 -2.9335707e-07 0.61514089)
(-1.5009404e-07 -3.0532968e-07 0.6151407)
(-3.2700716e-07 -3.2700716e-07 0.61514)
(-1.4026957e-07 -3.4893851e-07 0.615139)
(5.1141865e-08 -4.6183624e-08 0.61513828)
(5.2287823e-07 -9.8727774e-08 0.61513843)
(4.1749043e-07 -1.7566077e-07 0.61514041)
(-7.5698177e-08 -1.4538006e-07 0.61514037)
(-6.9246935e-08 -1.3137228e-07 0.61514017)
(-3.5566835e-08 -1.2747086e-07 0.61514007)
(-5.3514146e-08 -1.2813923e-07 0.61514)
(-1.6828955e-07 -1.3259246e-07 0.61513977)
(-3.4893851e-07 -1.4026957e-07 0.615139)
(-1.4721336e-07 -1.4721336e-07 0.61513797)
(-5.5314824e-07 -5.5314824e-07 0.91577725)
(3.0017146e-06 1.371239e-06 0.91577692)
(3.4840993e-06 4.7220954e-07 0.91578118)
(-9.7026044e-07 3.3798022e-07 0.9157807)
(-1.0876007e-06 3.413778e-07 0.91577983)
(-8.677765e-07 3.6484686e-07 0.91577915)
(-8.5590189e-07 3.8881121e-07 0.91577854)
(-9.6093403e-07 3.6182356e-07 0.9157778)
(-7.6766836e-07 1.7585139e-07 0.91577686)
(-1.7302519e-07 -2.8193406e-09 0.91577673)
(1.3712389e-06 3.0017145e-06 0.91577692)
(4.5397513e-06 4.5397513e-06 0.91577934)
(1.9342111e-06 2.8679947e-06 0.91578224)
(-1.1665081e-06 2.6089866e-06 0.91578154)
(-1.0473007e-06 2.6267057e-06 0.91578068)
(-7.9662639e-07 2.7099131e-06 0.91578006)
(-8.6043684e-07 2.8246583e-06 0.91577953)
(-1.2803738e-06 2.849982e-06 0.91577871)
(-1.3146327e-06 2.4275161e-06 0.91577715)
(-3.5169592e-07 1.6243806e-06 0.9157764)
(4.7220954e-07 3.4840993e-06 0.91578118)
(2.8679947e-06 1.9342111e-06 0.91578224)
(1.5533345e-06 1.5533345e-06 0.91578475)
(-1.2115494e-06 1.4893398e-06 0.91578396)
(-9.8667425e-07 1.5251305e-06 0.91578311)
(-6.6982393e-07 1.623295e-06 0.91578257)
(-7.1583293e-07 1.7884919e-06 0.91578218)
(-1.3580762e-06 1.9918573e-06 0.91578151)
(-1.9932698e-06 2.0271913e-06 0.91577975)
(-7.0844888e-07 1.6626486e-06 0.91577829)
(3.3798021e-07 -9.7026044e-07 0.9157807)
(2.6089866e-06 -1.166508e-06 0.91578154)
(1.4893398e-06 -1.2115494e-06 0.91578396)
(-1.1947121e-06 -1.1947121e-06 0.91578316)
(-9.1334557e-07 -1.1376742e-06 0.91578235)
(-5.3326493e-07 -1.0417054e-06 0.91578189)
(-4.9187448e-07 -8.9396069e-07 0.91578164)
(-1.0416744e-06 -6.7411581e-07 0.91578118)
(-1.6438414e-06 -3.9425065e-07 0.91577968)
(-5.9472439e-07 -1.231845e-07 0.91577844)
(3.413778e-07 -1.0876007e-06 0.91577983)
(2.6267057e-06 -1.0473007e-06 0.91578068)
(1.5251305e-06 -9.8667424e-07 0.91578311)
(-1.1376742e-06 -9.1334556e-07 0.91578235)
(-8.3366752e-07 -8.3366752e-07 0.9157816)
(-4.2611041e-07 -7.4486386e-07 0.91578121)
(-3.4824333e-07 -6.4169771e-07 0.91578106)
(-8.5836612e-07 -5.1805098e-07 0.91578073)
(-1.4423385e-06 -3.7792964e-07 0.91577938)
(-5.2773811e-07 -2.4667092e-07 0.91577828)
(3.6484686e-07 -8.677765e-07 0.91577915)
(2.7099131e-06 -7.966264e-07 0.91578006)
(1.623295e-06 -6.6982394e-07 0.91578257)
(-1.0417054e-06 -5.3326494e-07 0.91578189)
(-7.4486386e-07 -4.2611041e-07 0.91578121)
(-3.4129512e-07 -3.4129512e-07 0.9157809)
(-2.650616e-07 -2.7228265e-07 0.91578081)
(-7.7790629e-07 -2.1702571e-07 0.91578054)
(-1.3724614e-06 -1.7621728e-07 0.91577925)
(-5.0721858e-07 -1.5211196e-07 0.9157782)
(3.888112e-07 -8.5590188e-07 0.91577854)
(2.8246583e-06 -8.6043684e-07 0.91577953)
(1.7884919e-06 -7.1583294e-07 0.91578218)
(-8.9396068e-07 -4.9187448e-07 0.91578164)
(-6.416977e-07 -3.4824334e-07 0.91578106)
(-2.7228264e-07 -2.6506161e-07 0.91578081)
(-2.2397393e-07 -2.2397392e-07 0.91578076)
(-7.6230076e-07 -2.1990958e-07 0.91578051)
(-1.3774247e-06 -2.4818666e-07 0.91577922)
(-5.116679e-07 -2.9451806e-07 0.91577814)
(3.6182356e-07 -9.6093404e-07 0.9157778)
(2.849982e-06 -1.2803737e-06 0.91577871)
(1.9918573e-06 -1.3580762e-06 0.91578151)
(-6.7411581e-07 -1.0416744e-06 0.91578118)
(-5.1805099e-07 -8.5836612e-07 0.91578073)
(-2.1702571e-07 -7.779063e-07 0.91578054)
(-2.1990958e-07 -7.6230075e-07 0.91578051)
(-8.0211903e-07 -8.0211903e-07 0.91578024)
(-1.4470698e-06 -8.8819368e-07 0.91577888)
(-5.3810618e-07 -9.9115825e-07 0.91577771)
(1.758514e-07 -7.6766836e-07 0.91577686)
(2.4275161e-06 -1.3146327e-06 0.91577715)
(2.0271913e-06 -1.9932698e-06 0.91577975)
(-3.9425065e-07 -1.6438414e-06 0.91577968)
(-3.7792964e-07 -1.4423385e-06 0.91577938)
(-1.7621728e-07 -1.3724614e-06 0.91577925)
(-2.4818666e-07 -1.3774247e-06 0.91577922)
(-8.8819368e-07 -1.4470698e-06 0.91577888)
(-1.5664639e-06 -1.5664639e-06 0.9157774)
(-5.8031095e-07 -1.6457509e-06 0.91577611)
(-2.8193413e-09 -1.7302519e-07 0.91577673)
(1.6243806e-06 -3.5169593e-07 0.9157764)
(1.6626486e-06 -7.0844888e-07 0.91577829)
(-1.231845e-07 -5.9472439e-07 0.91577844)
(-2.4667092e-07 -5.2773811e-07 0.91577828)
(-1.5211196e-07 -5.0721858e-07 0.9157782)
(-2.9451806e-07 -5.116679e-07 0.91577814)
(-9.9115825e-07 -5.3810618e-07 0.91577771)
(-1.6457509e-06 -5.8031095e-07 0.91577611)
(-5.909642e-07 -5.9096419e-07 0.91577516)
(-4.6889764e-07 -4.6889764e-07 0.91776152)
(4.6152258e-06 2.0748776e-06 0.91776159)
(4.7249229e-06 8.7474372e-07 0.91776425)
(-1.6134579e-06 6.8846571e-07 0.91776374)
(-1.7982004e-06 6.9669045e-07 0.91776298)
(-1.4671969e-06 7.4303549e-07 0.91776241)
(-1.523964e-06 7.9777583e-07 0.9177619)
(-1.8691976e-06 7.4864927e-07 0.91776113)
(-1.2357743e-06 2.9324662e-07 0.91775987)
(-1.3449072e-07 -1.6677169e-07 0.91775977)
(2.0748776e-06 4.6152258e-06 0.91776159)
(6.630688e-06 6.630688e-06 0.91776335)
(2.645305e-06 4.3580963e-06 0.91776519)
(-1.8805378e-06 3.9863465e-06 0.91776454)
(-1.7163457e-06 4.0223503e-06 0.91776381)
(-1.3155688e-06 4.1817905e-06 0.91776331)
(-1.5155434e-06 4.4192007e-06 0.91776291)
(-2.6259914e-06 4.4997228e-06 0.91776213)
(-2.6089058e-06 3.603407e-06 0.91776012)
(-5.9450903e-07 2.0762638e-06 0.9177593)
(8.7474372e-07 4.7249229e-06 0.91776425)
(4.3580963e-06 2.645305e-06 0.91776519)
(2.0805813e-06 2.0805813e-06 0.91776677)
(-1.9492039e-06 1.9782716e-06 0.91776607)
(-1.6027564e-06 2.0443088e-06 0.91776536)
(-1.0703465e-06 2.2249862e-06 0.91776495)
(-1.2060317e-06 2.5359491e-06 0.91776471)
(-2.6849913e-06 2.9350721e-06 0.91776411)
(-3.6592334e-06 3.020227e-06 0.91776195)
(-1.1525862e-06 2.4477893e-06 0.91776055)
(6.8846571e-07 -1.6134579e-06 0.91776374)
(3.9863465e-06 -1.8805378e-06 0.91776454)
(1.9782716e-06 -1.9492039e-06 0.91776607)
(-1.9168103e-06 -1.9168103e-06 0.91776536)
(-1.4696311e-06 -1.8128704e-06 0.9177647)
(-8.2392859e-07 -1.6395885e-06 0.91776437)
(-8.0545747e-07 -1.3742579e-06 0.91776427)
(-2.1417135e-06 -9.8365232e-07 0.91776388)
(-3.0961885e-06 -5.1185384e-07 0.91776195)
(-9.7613409e-07 -7.8958571e-08 0.91776071)
(6.9669045e-07 -1.7982004e-06 0.91776298)
(4.0223503e-06 -1.7163457e-06 0.91776381)
(2.0443088e-06 -1.6027564e-06 0.91776536)
(-1.8128704e-06 -1.4696311e-06 0.9177647)
(-1.3255346e-06 -1.3255346e-06 0.91776409)
(-6.3173401e-07 -1.1659551e-06 0.91776384)
(-5.5009551e-07 -9.82094e-07 0.91776383)
(-1.8225872e-06 -7.6395594e-07 0.91776357)
(-2.7545396e-06 -5.2372084e-07 0.91776178)
(-8.6398938e-07 -3.0356867e-07 0.91776066)
(7.4303549e-07 -1.4671969e-06 0.91776241)
(4.1817905e-06 -1.3155688e-06 0.91776331)
(2.2249862e-06 -1.0703465e-06 0.91776495)
(-1.6395885e-06 -8.2392859e-07 0.91776437)
(-1.1659551e-06 -6.3173401e-07 0.91776384)
(-4.8048798e-07 -4.8048798e-07 0.91776365)
(-4.034583e-07 -3.5978562e-07 0.91776371)
(-1.6833404e-06 -2.6695781e-07 0.91776351)
(-2.6358013e-06 -2.0469066e-07 0.91776177)
(-8.2936598e-07 -1.7475472e-07 0.91776069)
(7.9777583e-07 -1.523964e-06 0.9177619)
(4.4192007e-06 -1.5155434e-06 0.91776291)
(2.5359491e-06 -1.2060317e-06 0.91776471)
(-1.3742579e-06 -8.0545747e-07 0.91776427)
(-9.82094e-07 -5.5009551e-07 0.91776383)
(-3.5978562e-07 -4.034583e-07 0.91776371)
(-3.3656534e-07 -3.3656535e-07 0.9177638)
(-1.6674922e-06 -3.4398951e-07 0.9177636)
(-2.6623366e-06 -4.2095622e-07 0.91776184)
(-8.4403208e-07 -5.4307072e-07 0.91776072)
(7.4864927e-07 -1.8691976e-06 0.91776113)
(4.4997228e-06 -2.6259914e-06 0.91776213)
(2.9350721e-06 -2.6849913e-06 0.91776411)
(-9.8365232e-07 -2.1417135e-06 0.91776388)
(-7.6395595e-07 -1.8225872e-06 0.91776357)
(-2.6695782e-07 -1.6833404e-06 0.91776351)
(-3.4398951e-07 -1.6674922e-06 0.9177636)
(-1.7677312e-06 -1.7677312e-06 0.91776336)
(-2.8348825e-06 -1.9713376e-06 0.91776149)
(-9.1077564e-07 -2.2066976e-06 0.91776021)
(2.9324662e-07 -1.2357743e-06 0.91775987)
(3.603407e-06 -2.6089058e-06 0.91776012)
(3.020227e-06 -3.6592334e-06 0.91776195)
(-5.1185384e-07 -3.0961885e-06 0.91776195)
(-5.2372084e-07 -2.7545397e-06 0.91776178)
(-2.0469067e-07 -2.6358012e-06 0.91776177)
(-4.2095622e-07 -2.6623365e-06 0.91776184)
(-1.9713376e-06 -2.8348825e-06 0.91776149)
(-3.1013029e-06 -3.1013029e-06 0.91775942)
(-1.0009387e-06 -2.9024425e-06 0.91775793)
(-1.6677169e-07 -1.3449072e-07 0.91775977)
(2.0762638e-06 -5.9450903e-07 0.9177593)
(2.4477893e-06 -1.1525862e-06 0.91776055)
(-7.8958564e-08 -9.761341e-07 0.91776071)
(-3.0356865e-07 -8.6398938e-07 0.91776066)
(-1.7475471e-07 -8.2936597e-07 0.91776069)
(-5.4307073e-07 -8.4403208e-07 0.91776072)
(-2.2066976e-06 -9.1077565e-07 0.91776021)
(-2.9024425e-06 -1.0009387e-06 0.91775793)
(-7.7820206e-07 -7.7820206e-07 0.91775756)
(-5.1150958e-07 -5.1150958e-07 0.92084238)
(5.7289346e-06 2.5486018e-06 0.9208422)
(5.6324173e-06 1.0967212e-06 0.92084444)
(-2.2395361e-06 8.7342535e-07 0.92084389)
(-2.413216e-06 8.9049734e-07 0.92084321)
(-1.9559258e-06 9.6434712e-07 0.92084275)
(-2.1348527e-06 1.0639789e-06 0.92084237)
(-2.9861631e-06 1.0270614e-06 0.92084169)
(-2.1345631e-06 3.4102094e-07 0.92084026)
(-2.4319255e-07 -3.166269e-07 0.92083989)
(2.5486018e-06 5.7289346e-06 0.9208422)
(8.141281e-06 8.141281e-06 0.92084352)
(3.1196525e-06 5.3825602e-06 0.92084502)
(-2.5488719e-06 4.9359128e-06 0.92084437)
(-2.2768333e-06 5.0015593e-06 0.92084371)
(-1.6957034e-06 5.247136e-06 0.92084334)
(-2.0407813e-06 5.6328194e-06 0.92084309)
(-4.0706002e-06 5.8268094e-06 0.92084247)
(-4.1500955e-06 4.5097368e-06 0.92084036)
(-9.0084039e-07 2.4023644e-06 0.92083945)
(1.0967212e-06 5.6324173e-06 0.92084444)
(5.3825602e-06 3.1196525e-06 0.92084502)
(2.427049e-06 2.427049e-06 0.92084632)
(-2.620537e-06 2.3092973e-06 0.92084564)
(-2.1019928e-06 2.4143009e-06 0.92084502)
(-1.3246657e-06 2.6819498e-06 0.92084473)
(-1.5551792e-06 3.1436343e-06 0.92084466)
(-4.1092458e-06 3.7432563e-06 0.92084422)
(-5.5590082e-06 3.8595403e-06 0.92084196)
(-1.6481075e-06 3.0765909e-06 0.9208405)
(8.7342535e-07 -2.2395361e-06 0.92084389)
(4.9359128e-06 -2.5488719e-06 0.92084437)
(2.3092973e-06 -2.620537e-06 0.92084564)
(-2.56162e-06 -2.56162e-06 0.92084497)
(-1.9041808e-06 -2.4056128e-06 0.9208444)
(-9.663701e-07 -2.1529546e-06 0.9208442)
(-9.7947489e-07 -1.7699698e-06 0.92084426)
(-3.3546942e-06 -1.2127071e-06 0.92084404)
(-4.8167609e-06 -5.6904671e-07 0.92084197)
(-1.4228066e-06 -5.1340769e-09 0.92084065)
(8.9049733e-07 -2.413216e-06 0.92084321)
(5.0015593e-06 -2.2768333e-06 0.92084371)
(2.4143009e-06 -2.1019928e-06 0.92084502)
(-2.4056128e-06 -1.9041808e-06 0.9208444)
(-1.6933274e-06 -1.6933274e-06 0.92084389)
(-6.8902262e-07 -1.462798e-06 0.92084376)
(-6.149318e-07 -1.2001454e-06 0.92084392)
(-2.9083227e-06 -8.9239515e-07 0.92084382)
(-4.3514351e-06 -5.6308423e-07 0.92084189)
(-1.2721658e-06 -2.6893161e-07 0.92084067)
(9.6434712e-07 -1.9559258e-06 0.92084275)
(5.247136e-06 -1.6957034e-06 0.92084334)
(2.6819498e-06 -1.3246657e-06 0.92084473)
(-2.1529546e-06 -9.663701e-07 0.9208442)
(-1.462798e-06 -6.8902262e-07 0.92084376)
(-4.7318806e-07 -4.7318805e-07 0.92084371)
(-4.0907209e-07 -3.0532792e-07 0.92084392)
(-2.717633e-06 -1.8343087e-07 0.92084387)
(-4.1932973e-06 -1.135598e-07 0.92084198)
(-1.2267049e-06 -9.3750728e-08 0.9208408)
(1.0639789e-06 -2.1348527e-06 0.92084237)
(5.6328194e-06 -2.0407813e-06 0.92084309)
(3.1436343e-06 -1.5551793e-06 0.92084466)
(-1.7699698e-06 -9.7947489e-07 0.92084426)
(-1.2001454e-06 -6.1493181e-07 0.92084392)
(-3.0532792e-07 -4.0907209e-07 0.92084392)
(-3.2517462e-07 -3.2517462e-07 0.92084417)
(-2.7165546e-06 -3.6241512e-07 0.92084412)
(-4.261755e-06 -5.2230159e-07 0.92084219)
(-1.2589597e-06 -7.6902018e-07 0.92084095)
(1.0270614e-06 -2.9861631e-06 0.92084169)
(5.8268094e-06 -4.0706002e-06 0.92084247)
(3.7432563e-06 -4.1092458e-06 0.92084422)
(-1.2127071e-06 -3.3546942e-06 0.92084404)
(-8.9239516e-07 -2.9083227e-06 0.92084382)
(-1.8343086e-07 -2.717633e-06 0.92084387)
(-3.6241511e-07 -2.7165546e-06 0.92084412)
(-2.91476e-06 -2.91476e-06 0.920844)
(-4.5999024e-06 -3.3157323e-06 0.92084192)
(-1.3911839e-06 -3.7893345e-06 0.92084045)
(3.4102094e-07 -2.1345631e-06 0.92084026)
(4.5097368e-06 -4.1500955e-06 0.92084036)
(3.8595402e-06 -5.5590081e-06 0.92084196)
(-5.6904671e-07 -4.8167609e-06 0.92084197)
(-5.6308423e-07 -4.3514351e-06 0.92084189)
(-1.135598e-07 -4.1932973e-06 0.92084198)
(-5.223016e-07 -4.261755e-06 0.92084219)
(-3.3157323e-06 -4.5999024e-06 0.92084192)
(-5.1363294e-06 -5.1363294e-06 0.92083954)
(-1.5746945e-06 -4.3014053e-06 0.92083772)
(-3.166269e-07 -2.4319255e-07 0.92083989)
(2.4023643e-06 -9.0084039e-07 0.92083945)
(3.0765908e-06 -1.6481075e-06 0.9208405)
(-5.1340844e-09 -1.4228066e-06 0.92084065)
(-2.6893161e-07 -1.2721658e-06 0.92084067)
(-9.3750721e-08 -1.2267049e-06 0.9208408)
(-7.6902018e-07 -1.2589597e-06 0.92084095)
(-3.7893345e-06 -1.3911839e-06 0.92084045)
(-4.3014053e-06 -1.5746945e-06 0.92083772)
(-8.3456788e-07 -8.3456788e-07 0.92083758)
(-5.8788035e-07 -5.8788035e-07 0.92498683)
(6.6781236e-06 2.9492894e-06 0.92498659)
(6.4151545e-06 1.2580585e-06 0.92498863)
(-2.8458797e-06 1.0029221e-06 0.92498806)
(-2.9426341e-06 1.0307937e-06 0.92498744)
(-2.3113231e-06 1.1335404e-06 0.92498708)
(-2.5771234e-06 1.2814201e-06 0.92498684)
(-3.9765294e-06 1.2650776e-06 0.92498635)
(-3.0398264e-06 3.5881712e-07 0.92498503)
(-3.8042806e-07 -4.6140564e-07 0.92498464)
(2.9492894e-06 6.6781236e-06 0.92498659)
(9.4470321e-06 9.4470321e-06 0.92498773)
(3.4956032e-06 6.2350379e-06 0.92498907)
(-3.1867767e-06 5.7292332e-06 0.92498841)
(-2.7467067e-06 5.8312754e-06 0.92498782)
(-1.9353836e-06 6.1670418e-06 0.92498754)
(-2.3798176e-06 6.7076849e-06 0.92498746)
(-5.3604339e-06 7.028917e-06 0.92498703)
(-5.6295512e-06 5.3025685e-06 0.92498506)
(-1.2006508e-06 2.6812436e-06 0.9249842)
(1.2580585e-06 6.4151545e-06 0.92498863)
(6.2350379e-06 3.4956032e-06 0.92498907)
(2.6973554e-06 2.6973554e-06 0.92499022)
(-3.2496422e-06 2.5775283e-06 0.92498955)
(-2.5048255e-06 2.7282728e-06 0.924989)
(-1.4349136e-06 3.0862232e-06 0.92498882)
(-1.7152482e-06 3.7005778e-06 0.9249889)
(-5.3816459e-06 4.5002664e-06 0.92498867)
(-7.3874998e-06 4.6358685e-06 0.92498654)
(-2.127978e-06 3.6477426e-06 0.92498516)
(1.0029221e-06 -2.8458797e-06 0.92498806)
(5.7292332e-06 -3.1867768e-06 0.92498841)
(2.5775283e-06 -3.2496422e-06 0.92498955)
(-3.1558593e-06 -3.1558593e-06 0.92498889)
(-2.2380118e-06 -2.9431836e-06 0.92498839)
(-9.6307869e-07 -2.6092886e-06 0.9249883)
(-9.6577444e-07 -2.108858e-06 0.92498852)
(-4.4251432e-06 -1.3884353e-06 0.9249885)
(-6.482075e-06 -5.8506185e-07 0.92498657)
(-1.8594014e-06 9.5765906e-08 0.92498531)
(1.0307937e-06 -2.9426341e-06 0.92498744)
(5.8312754e-06 -2.7467067e-06 0.92498782)
(2.7282728e-06 -2.5048255e-06 0.924989)
(-2.9431836e-06 -2.2380118e-06 0.92498839)
(-1.9582548e-06 -1.9582548e-06 0.92498796)
(-6.0058804e-07 -1.6567238e-06 0.92498795)
(-4.9439491e-07 -1.3171829e-06 0.92498826)
(-3.8578497e-06 -9.24084e-07 0.92498835)
(-5.9032986e-06 -5.136772e-07 0.92498654)
(-1.6740928e-06 -1.5460352e-07 0.92498539)
(1.1335404e-06 -2.3113231e-06 0.92498708)
(6.1670418e-06 -1.9353836e-06 0.92498754)
(3.0862232e-06 -1.4349136e-06 0.92498882)
(-2.6092886e-06 -9.6307869e-07 0.9249883)
(-1.6567238e-06 -6.0058805e-07 0.92498795)
(-3.2200683e-07 -3.2200683e-07 0.924988)
(-2.3313466e-07 -1.1097249e-07 0.92498837)
(-3.6216374e-06 3.3360962e-08 0.92498851)
(-5.7125945e-06 1.0124444e-07 0.92498674)
(-1.6200189e-06 1.0098533e-07 0.92498561)
(1.2814201e-06 -2.5771234e-06 0.92498684)
(6.7076849e-06 -2.3798176e-06 0.92498746)
(3.7005778e-06 -1.7152482e-06 0.9249889)
(-2.108858e-06 -9.6577444e-07 0.92498852)
(-1.3171829e-06 -4.9439491e-07 0.92498826)
(-1.1097249e-07 -2.3313466e-07 0.92498837)
(-1.3902712e-07 -1.3902711e-07 0.92498877)
(-3.6456328e-06 -2.185553e-07 0.9249889)
(-5.8356743e-06 -4.8346064e-07 0.92498708)
(-1.6742656e-06 -8.8711917e-07 0.92498588)
(1.2650776e-06 -3.9765294e-06 0.92498635)
(7.028917e-06 -5.3604339e-06 0.92498703)
(4.5002664e-06 -5.3816459e-06 0.92498867)
(-1.3884353e-06 -4.4251432e-06 0.9249885)
(-9.24084e-07 -3.8578497e-06 0.92498835)
(3.3360967e-08 -3.6216374e-06 0.92498851)
(-2.1855529e-07 -3.6456328e-06 0.9249889)
(-3.9660709e-06 -3.9660709e-06 0.92498895)
(-6.3811584e-06 -4.6206893e-06 0.92498696)
(-1.8891246e-06 -5.4300542e-06 0.9249855)
(3.5881712e-07 -3.0398264e-06 0.92498503)
(5.3025685e-06 -5.6295512e-06 0.92498506)
(4.6358685e-06 -7.3874998e-06 0.92498654)
(-5.8506185e-07 -6.482075e-06 0.92498657)
(-5.1367719e-07 -5.9032986e-06 0.92498654)
(1.0124443e-07 -5.7125945e-06 0.92498674)
(-4.8346065e-07 -5.8356743e-06 0.92498708)
(-4.6206893e-06 -6.3811584e-06 0.92498696)
(-7.2996575e-06 -7.2996575e-06 0.92498461)
(-2.2138421e-06 -5.7781532e-06 0.92498269)
(-4.6140564e-07 -3.8042806e-07 0.92498464)
(2.6812436e-06 -1.2006508e-06 0.9249842)
(3.6477426e-06 -2.127978e-06 0.92498516)
(9.5765903e-08 -1.8594014e-06 0.92498531)
(-1.5460352e-07 -1.6740928e-06 0.92498539)
(1.0098533e-07 -1.6200189e-06 0.92498561)
(-8.8711917e-07 -1.6742656e-06 0.92498588)
(-5.4300542e-06 -1.8891246e-06 0.9249855)
(-5.7781532e-06 -2.2138421e-06 0.92498269)
(-8.7478854e-07 -8.7478854e-07 0.92498257)
(-6.7391665e-07 -6.7391665e-07 0.93015635)
(7.5254214e-06 3.3085393e-06 0.93015608)
(7.1035476e-06 1.388144e-06 0.93015794)
(-3.4332818e-06 1.1042283e-06 0.93015736)
(-3.3974763e-06 1.1439552e-06 0.93015678)
(-2.5473261e-06 1.2760972e-06 0.93015652)
(-2.8598113e-06 1.4732467e-06 0.93015642)
(-4.7983215e-06 1.4810656e-06 0.93015609)
(-3.8456562e-06 3.6278991e-07 0.93015494)
(-5.0450934e-07 -6.0697614e-07 0.9301546)
(3.3085393e-06 7.5254214e-06 0.93015608)
(1.0618513e-05 1.0618513e-05 0.93015709)
(3.7970808e-06 6.9764067e-06 0.93015829)
(-3.7995648e-06 6.4204763e-06 0.93015762)
(-3.1396729e-06 6.5628738e-06 0.93015708)
(-2.0533889e-06 6.9907586e-06 0.9301569)
(-2.5523587e-06 7.6886544e-06 0.93015695)
(-6.4640068e-06 8.1436809e-06 0.93015671)
(-6.9777187e-06 6.0235716e-06 0.93015493)
(-1.4742754e-06 2.9220486e-06 0.93015416)
(1.388144e-06 7.1035477e-06 0.93015794)
(6.9764067e-06 3.7970808e-06 0.93015829)
(2.905511e-06 2.905511e-06 0.93015931)
(-3.8468147e-06 2.7913895e-06 0.93015864)
(-2.827194e-06 2.99224e-06 0.93015815)
(-1.4215454e-06 3.4425385e-06 0.93015806)
(-1.7068889e-06 4.2102811e-06 0.93015828)
(-6.4634045e-06 5.2099421e-06 0.93015823)
(-9.0672885e-06 5.3645113e-06 0.93015631)
(-2.5721913e-06 4.18251e-06 0.93015504)
(1.1042283e-06 -3.4332818e-06 0.93015736)
(6.4204763e-06 -3.7995648e-06 0.93015762)
(2.7913895e-06 -3.8468147e-06 0.93015864)
(-3.7128358e-06 -3.7128358e-06 0.93015799)
(-2.4885239e-06 -3.4403624e-06 0.93015756)
(-8.3534786e-07 -3.0241112e-06 0.93015756)
(-7.8495517e-07 -2.4068409e-06 0.93015792)
(-5.3097766e-06 -1.5260152e-06 0.93015807)
(-8.0051508e-06 -5.6928229e-07 0.93015634)
(-2.2622762e-06 2.2254361e-07 0.9301552)
(1.1439552e-06 -3.3974763e-06 0.93015678)
(6.5628738e-06 -3.1396729e-06 0.93015708)
(2.99224e-06 -2.827194e-06 0.93015815)
(-3.4403624e-06 -2.4885239e-06 0.93015756)
(-2.1384694e-06 -2.1384694e-06 0.93015718)
(-3.8802387e-07 -1.7661451e-06 0.93015727)
(-2.0879291e-07 -1.3514548e-06 0.93015772)
(-4.6258458e-06 -8.7633338e-07 0.93015798)
(-7.3187297e-06 -3.8993565e-07 0.93015637)
(-2.0443074e-06 2.9199128e-08 0.93015532)
(1.2760972e-06 -2.5473261e-06 0.93015652)
(6.9907586e-06 -2.0533889e-06 0.9301569)
(3.4425385e-06 -1.4215454e-06 0.93015806)
(-3.0241112e-06 -8.3534785e-07 0.93015756)
(-1.7661451e-06 -3.8802387e-07 0.93015727)
(-4.8333326e-08 -4.8333322e-08 0.93015741)
(1.0485658e-07 2.0279258e-07 0.93015792)
(-4.3482573e-06 3.6502134e-07 0.93015823)
(-7.0996183e-06 4.2530371e-07 0.93015665)
(-1.982853e-06 4.0036875e-07 0.93015562)
(1.4732467e-06 -2.8598113e-06 0.93015642)
(7.6886544e-06 -2.5523587e-06 0.93015695)
(4.2102811e-06 -1.7068889e-06 0.93015828)
(-2.4068409e-06 -7.8495517e-07 0.93015792)
(-1.3514548e-06 -2.0879292e-07 0.93015772)
(2.0279258e-07 1.0485657e-07 0.93015792)
(2.0456175e-07 2.0456175e-07 0.93015845)
(-4.4033347e-06 7.5588341e-08 0.93015875)
(-7.2833823e-06 -3.0516608e-07 0.93015711)
(-2.0609307e-06 -8.7941149e-07 0.93015601)
(1.4810656e-06 -4.7983215e-06 0.93015609)
(8.1436809e-06 -6.4640068e-06 0.93015671)
(5.2099421e-06 -6.4634045e-06 0.93015823)
(-1.5260152e-06 -5.3097766e-06 0.93015807)
(-8.7633338e-07 -4.6258458e-06 0.93015798)
(3.6502134e-07 -4.3482573e-06 0.93015823)
(7.5588348e-08 -4.4033347e-06 0.93015875)
(-4.8579852e-06 -4.8579852e-06 0.93015896)
(-8.0546181e-06 -5.7922886e-06 0.93015714)
(-2.3656832e-06 -6.9824403e-06 0.93015577)
(3.6278992e-07 -3.8456562e-06 0.93015494)
(6.0235716e-06 -6.9777187e-06 0.93015493)
(5.3645113e-06 -9.0672885e-06 0.93015631)
(-5.6928229e-07 -8.0051507e-06 0.93015634)
(-3.8993565e-07 -7.3187297e-06 0.93015637)
(4.2530371e-07 -7.0996183e-06 0.93015665)
(-3.0516608e-07 -7.2833823e-06 0.93015711)
(-5.7922886e-06 -8.0546181e-06 0.93015714)
(-9.4078373e-06 -9.4078373e-06 0.93015494)
(-2.8543651e-06 -7.2260957e-06 0.93015306)
(-6.0697614e-07 -5.0450935e-07 0.9301546)
(2.9220486e-06 -1.4742754e-06 0.93015416)
(4.18251e-06 -2.5721913e-06 0.93015504)
(2.225436e-07 -2.2622762e-06 0.9301552)
(2.9199113e-08 -2.0443074e-06 0.93015532)
(4.0036876e-07 -1.982853e-06 0.93015562)
(-8.7941148e-07 -2.0609307e-06 0.93015601)
(-6.9824403e-06 -2.3656832e-06 0.93015577)
(-7.2260957e-06 -2.8543651e-06 0.93015306)
(-9.1118895e-07 -9.1118895e-07 0.93015297)
(-7.7010662e-07 -7.7010662e-07 0.93630538)
(8.2672554e-06 3.6259666e-06 0.93630507)
(7.6954206e-06 1.4880801e-06 0.93630675)
(-4.0036049e-06 1.1781169e-06 0.93630616)
(-3.7855887e-06 1.2303995e-06 0.93630563)
(-2.677605e-06 1.3921473e-06 0.93630544)
(-3.0002943e-06 1.639094e-06 0.93630546)
(-5.4559161e-06 1.6742627e-06 0.93630529)
(-4.5301187e-06 3.5507045e-07 0.93630431)
(-6.0391432e-07 -7.5460804e-07 0.93630405)
(3.6259666e-06 8.2672554e-06 0.93630507)
(1.1654536e-05 1.1654536e-05 0.93630596)
(4.0236456e-06 7.6066438e-06 0.936307)
(-4.3901259e-06 7.0077886e-06 0.93630634)
(-3.4645431e-06 7.1930795e-06 0.93630584)
(-2.0645632e-06 7.7139456e-06 0.93630575)
(-2.5771212e-06 8.570023e-06 0.93630592)
(-7.3819516e-06 9.1648377e-06 0.93630583)
(-8.1734247e-06 6.6750553e-06 0.93630426)
(-1.7135928e-06 3.1237889e-06 0.9363036)
(1.4880801e-06 7.6954206e-06 0.93630675)
(7.6066438e-06 4.0236456e-06 0.936307)
(3.0486729e-06 3.0486729e-06 0.9363079)
(-4.4171693e-06 2.9455528e-06 0.93630722)
(-3.0794317e-06 3.1992358e-06 0.93630678)
(-1.3006614e-06 3.7428046e-06 0.93630678)
(-1.5494022e-06 4.6636578e-06 0.93630712)
(-7.3508839e-06 5.8632592e-06 0.93630723)
(-1.0571168e-05 6.0425236e-06 0.93630553)
(-2.9714253e-06 4.6816324e-06 0.93630441)
(1.1781169e-06 -4.0036049e-06 0.93630616)
(7.0077886e-06 -4.3901259e-06 0.93630634)
(2.9455528e-06 -4.4171693e-06 0.93630722)
(-4.239563e-06 -4.239563e-06 0.93630658)
(-2.6672913e-06 -3.905389e-06 0.9363062)
(-6.0014127e-07 -3.4063946e-06 0.93630629)
(-4.566667e-07 -2.6733182e-06 0.93630676)
(-6.0030858e-06 -1.6345876e-06 0.93630708)
(-9.3550514e-06 -5.2803797e-07 0.93630556)
(-2.6208535e-06 3.7195299e-07 0.93630456)
(1.2303995e-06 -3.7855887e-06 0.93630563)
(7.1930794e-06 -3.4645431e-06 0.93630584)
(3.1992358e-06 -3.0794316e-06 0.93630678)
(-3.905389e-06 -2.6672913e-06 0.9363062)
(-2.2462632e-06 -2.2462632e-06 0.93630588)
(-6.8590676e-08 -1.803589e-06 0.93630604)
(2.2240484e-07 -1.3152871e-06 0.93630661)
(-5.2056036e-06 -7.6068854e-07 0.93630704)
(-8.564627e-06 -2.0156059e-07 0.93630564)
(-2.3714313e-06 2.7481969e-07 0.93630473)
(1.3921473e-06 -2.677605e-06 0.93630544)
(7.7139456e-06 -2.0645632e-06 0.93630575)
(3.7428046e-06 -1.3006614e-06 0.93630678)
(-3.4063946e-06 -6.0014127e-07 0.93630629)
(-1.803589e-06 -6.859068e-08 0.93630604)
(3.3083487e-07 3.3083487e-07 0.93630628)
(5.8623373e-07 6.1986465e-07 0.9363069)
(-4.8893593e-06 7.9715845e-07 0.93630737)
(-8.3195431e-06 8.4689139e-07 0.936306)
(-2.3032666e-06 7.9547371e-07 0.93630511)
(1.639094e-06 -3.0002943e-06 0.93630546)
(8.570023e-06 -2.5771212e-06 0.93630592)
(4.6636578e-06 -1.5494022e-06 0.93630712)
(-2.6733182e-06 -4.5666671e-07 0.93630676)
(-1.3152871e-06 2.2240483e-07 0.93630661)
(6.1986466e-07 5.8623373e-07 0.9363069)
(6.8872842e-07 6.8872841e-07 0.93630754)
(-4.9785769e-06 5.067714e-07 0.93630799)
(-8.5663118e-06 5.9003291e-09 0.93630657)
(-2.4057098e-06 -7.4306894e-07 0.93630561)
(1.6742627e-06 -5.4559161e-06 0.93630529)
(9.1648377e-06 -7.3819516e-06 0.93630583)
(5.8632592e-06 -7.3508839e-06 0.93630723)
(-1.6345876e-06 -6.0030858e-06 0.93630708)
(-7.6068854e-07 -5.2056036e-06 0.93630704)
(7.9715845e-07 -4.8893593e-06 0.93630737)
(5.067714e-07 -4.9785769e-06 0.93630799)
(-5.5721874e-06 -5.5721874e-06 0.93630836)
(-9.5693835e-06 -6.7957146e-06 0.93630675)
(-2.8025794e-06 -8.3833316e-06 0.93630551)
(3.5507045e-07 -4.5301187e-06 0.93630431)
(6.6750553e-06 -8.1734247e-06 0.93630426)
(6.0425236e-06 -1.0571168e-05 0.93630553)
(-5.2803798e-07 -9.3550514e-06 0.93630556)
(-2.015606e-07 -8.564627e-06 0.93630564)
(8.4689139e-07 -8.3195432e-06 0.936306)
(5.9003353e-09 -8.5663118e-06 0.93630657)
(-6.7957146e-06 -9.5693835e-06 0.93630675)
(-1.1377456e-05 -1.1377456e-05 0.93630475)
(-3.464121e-06 -8.5738214e-06 0.93630299)
(-7.5460805e-07 -6.0391432e-07 0.93630405)
(3.1237889e-06 -1.7135928e-06 0.9363036)