/*--------------------------------*- C++ -*----------------------------------*\
| =========                 |                                                 |
| \\      /  F ield         | OpenFOAM: The Open Source CFD Toolbox           |
|  \\    /   O peration     | Version:  v2106                                 |
|   \\  /    A nd           | Website:  www.openfoam.com                      |
|    \\/     M anipulation  |                                                 |
\*---------------------------------------------------------------------------*/
FoamFile
{
    version     2.0;
    format      ascii;
    arch        "LSB;label=32;scalar=64";
    class       volScalarField;
    location    "30";
    object      gradTz;
}
// * * * * * * * * * * * * * * * * * * * * * * * * * * * * * * * * * * * * * //

dimensions      [0 -1 0 1 0 0 0];

internalField   nonuniform List<scalar> 
4000
(
482.52597
482.52495
482.52861
482.52825
482.5277
482.5273
482.52696
482.52658
482.52616
482.52592
482.52495
482.5271
482.52937
482.52882
482.52827
482.5279
482.52759
482.52719
482.52654
482.52604
482.52861
482.52937
482.53135
482.53076
482.53022
482.5299
482.52965
482.5293
482.52855
482.52758
482.52825
482.52882
482.53076
482.53016
482.52965
482.52936
482.52919
482.52896
482.52836
482.52756
482.5277
482.52827
482.53022
482.52965
482.52916
482.52892
482.5288
482.52863
482.52812
482.5274
482.5273
482.5279
482.5299
482.52936
482.52892
482.52871
482.52862
482.52849
482.52801
482.52732
482.52696
482.52759
482.52965
482.52919
482.5288
482.52862
482.52856
482.52844
482.52797
482.52726
482.52658
482.52719
482.5293
482.52896
482.52863
482.52849
482.52844
482.52831
482.52781
482.52708
482.52616
482.52654
482.52855
482.52836
482.52812
482.52801
482.52797
482.52781
482.52727
482.52649
482.52592
482.52604
482.52758
482.52756
482.5274
482.52732
482.52726
482.52708
482.52649
482.52568
714.34193
714.34168
714.34497
714.3446
714.34393
714.3434
714.34293
714.34235
714.34163
714.34153
714.34168
714.34355
714.3458
714.34525
714.34458
714.3441
714.34369
714.34306
714.34185
714.34127
714.34497
714.3458
714.34773
714.34712
714.34647
714.34605
714.34575
714.34523
714.34386
714.34273
714.3446
714.34525
714.34712
714.3465
714.34588
714.34552
714.34533
714.34497
714.34381
714.34285
714.34393
714.34458
714.34647
714.34588
714.34529
714.345
714.34488
714.34462
714.34358
714.34273
714.3434
714.3441
714.34605
714.34552
714.345
714.34475
714.34468
714.34448
714.34348
714.34266
714.34293
714.34369
714.34575
714.34533
714.34488
714.34468
714.34464
714.34445
714.34345
714.34262
714.34235
714.34306
714.34523
714.34497
714.34462
714.34448
714.34445
714.34424
714.34319
714.34228
714.34163
714.34185
714.34386
714.34381
714.34358
714.34348
714.34345
714.34319
714.34204
714.34104
714.34153
714.34127
714.34273
714.34285
714.34273
714.34266
714.34262
714.34228
714.34104
714.34031
711.93071
711.93077
711.93279
711.9324
711.93182
711.93138
711.93099
711.9304
711.92944
711.92936
711.93077
711.93211
711.93351
711.93301
711.93245
711.93207
711.93177
711.93117
711.92962
711.92899
711.93279
711.93351
711.93471
711.93417
711.93363
711.93332
711.93313
711.93268
711.93102
711.92994
711.9324
711.93301
711.93417
711.93363
711.93313
711.93288
711.9328
711.9325
711.93102
711.93007
711.93182
711.93245
711.93363
711.93313
711.93266
711.93247
711.93246
711.93227
711.93089
711.93004
711.93138
711.93207
711.93332
711.93288
711.93247
711.93233
711.93237
711.93222
711.93088
711.93006
711.93099
711.93177
711.93313
711.9328
711.93246
711.93237
711.93244
711.93229
711.93094
711.93008
711.9304
711.93117
711.93268
711.9325
711.93227
711.93222
711.93229
711.93211
711.93067
711.92969
711.92944
711.92962
711.93102
711.93102
711.93089
711.93088
711.93094
711.93067
711.92907
711.92793
711.92936
711.92899
711.92994
711.93007
711.93004
711.93006
711.93008
711.92969
711.92793
711.92766
710.40272
710.40259
710.40427
710.40385
710.40333
710.40298
710.4027
710.40219
710.4011
710.40082
710.40259
710.40357
710.4047
710.4042
710.40371
710.40342
710.40324
710.40277
710.40117
710.40048
710.40427
710.4047
710.40567
710.40515
710.40469
710.40447
710.40442
710.40409
710.40237
710.40126
710.40385
710.4042
710.40515
710.40464
710.40422
710.40407
710.40412
710.40395
710.40238
710.40138
710.40333
710.40371
710.40469
710.40422
710.40384
710.40374
710.40386
710.40379
710.40232
710.4014
710.40298
710.40342
710.40447
710.40407
710.40374
710.4037
710.40387
710.40383
710.4024
710.4015
710.4027
710.40324
710.40442
710.40412
710.40386
710.40387
710.40406
710.40402
710.40256
710.40161
710.40219
710.40277
710.40409
710.40395
710.40379
710.40383
710.40402
710.40393
710.40235
710.40124
710.4011
710.40117
710.40237
710.40238
710.40232
710.4024
710.40256
710.40235
710.40054
710.39916
710.40082
710.40048
710.40126
710.40138
710.4014
710.4015
710.40161
710.40124
710.39916
710.39905
709.71343
709.71325
709.71475
709.71433
709.71386
709.7136
709.71343
709.71306
709.71207
709.71177
709.71325
709.71409
709.71507
709.71458
709.71414
709.71394
709.71388
709.71357
709.71209
709.71144
709.71475
709.71507
709.71592
709.71542
709.71501
709.71488
709.71495
709.71478
709.71319
709.71215
709.71433
709.71458
709.71542
709.71493
709.71456
709.7145
709.71467
709.71465
709.7132
709.71226
709.71386
709.71414
709.71501
709.71456
709.71424
709.71424
709.71448
709.71455
709.71319
709.71232
709.7136
709.71394
709.71488
709.7145
709.71424
709.71428
709.71456
709.71467
709.71334
709.71249
709.71343
709.71388
709.71495
709.71467
709.71448
709.71456
709.71487
709.71497
709.7136
709.7127
709.71306
709.71357
709.71478
709.71465
709.71455
709.71467
709.71497
709.71501
709.71351
709.71241
709.71207
709.71209
709.71319
709.7132
709.71319
709.71334
709.7136
709.71351
709.71174
709.71029
709.71177
709.71144
709.71215
709.71226
709.71232
709.71249
709.7127
709.71241
709.71029
709.71022
709.81537
709.81517
709.81652
709.81609
709.81567
709.81547
709.81541
709.81517
709.81432
709.81407
709.81517
709.81591
709.81677
709.81628
709.81588
709.81575
709.8158
709.81562
709.81431
709.81374
709.81652
709.81677
709.81751
709.81701
709.81665
709.8166
709.81677
709.81674
709.81532
709.81438
709.81609
709.81628
709.81701
709.81653
709.81622
709.81623
709.8165
709.81662
709.81534
709.8145
709.81567
709.81588
709.81665
709.81622
709.81595
709.81601
709.81636
709.81656
709.81536
709.81459
709.81547
709.81575
709.8166
709.81623
709.81601
709.81613
709.81651
709.81675
709.81558
709.81482
709.81541
709.8158
709.81677
709.8165
709.81636
709.81651
709.81691
709.81714
709.81593
709.81512
709.81517
709.81562
709.81674
709.81662
709.81656
709.81675
709.81714
709.81731
709.81596
709.81494
709.81432
709.81431
709.81532
709.81534
709.81536
709.81558
709.81593
709.81596
709.81432
709.81292
709.81407
709.81374
709.81438
709.8145
709.81459
709.81482
709.81512
709.81494
709.81292
709.81286
710.65705
710.65683
710.65802
710.65758
710.6572
710.65707
710.6571
710.65698
710.65626
710.65608
710.65683
710.65745
710.6582
710.65771
710.65735
710.65729
710.65742
710.65737
710.65623
710.65575
710.65802
710.6582
710.65883
710.65834
710.65802
710.65803
710.65828
710.65838
710.65714
710.65633
710.65758
710.65771
710.65834
710.65787
710.65759
710.65767
710.65803
710.65827
710.65717
710.65644
710.6572
710.65735
710.65802
710.65759
710.65736
710.6575
710.65792
710.65825
710.65723
710.65657
710.65707
710.65729
710.65803
710.65767
710.6575
710.65767
710.65814
710.6585
710.6575
710.65685
710.6571
710.65742
710.65828
710.65803
710.65792
710.65814
710.65862
710.65897
710.65793
710.65723
710.65698
710.65737
710.65838
710.65827
710.65825
710.6585
710.65897
710.65924
710.65807
710.65716
710.65626
710.65623
710.65714
710.65717
710.65723
710.6575
710.65793
710.65807
710.6566
710.65531
710.65608
710.65575
710.65633
710.65644
710.65657
710.65685
710.65723
710.65716
710.65531
710.65529
712.18378
712.18353
712.18457
712.18413
712.18378
712.18371
712.18382
712.18382
712.18323
712.18311
712.18353
712.18405
712.18467
712.18418
712.18387
712.18386
712.18408
712.18414
712.18317
712.18279
712.18457
712.18467
712.18519
712.1847
712.18442
712.18449
712.18483
712.18504
712.18399
712.1833
712.18413
712.18418
712.1847
712.18424
712.18401
712.18414
712.18457
712.18493
712.18401
712.18341
712.18378
712.18387
712.18442
712.18401
712.18382
712.18401
712.18451
712.18494
712.1841
712.18356
712.18371
712.18386
712.18449
712.18414
712.18401
712.18424
712.18478
712.18524
712.18442
712.1839
712.18382
712.18408
712.18483
712.18457
712.18451
712.18478
712.18533
712.18578
712.18492
712.18434
712.18382
712.18414
712.18504
712.18493
712.18494
712.18524
712.18578
712.18617
712.18517
712.18439
712.18323
712.18317
712.18399
712.18401
712.1841
712.18442
712.18492
712.18517
712.18389
712.18273
712.18311
712.18279
712.1833
712.18341
712.18356
712.1839
712.18434
712.18439
712.18273
712.18277
714.3382
714.33793
714.3388
714.33836
714.33805
714.33804
714.33822
714.33832
714.33787
714.33782
714.33793
714.33834
714.33883
714.33835
714.33807
714.33812
714.33841
714.33858
714.33778
714.33749
714.3388
714.33883
714.33923
714.33876
714.33852
714.33864
714.33904
714.33936
714.3385
714.33794
714.33836
714.33835
714.33876
714.33831
714.33811
714.3383
714.3388
714.33925
714.33852
714.33804
714.33805
714.33807
714.33852
714.33811
714.33796
714.3382
714.33876
714.33929
714.33864
714.33822
714.33804
714.33812
714.33864
714.3383
714.3382
714.33848
714.33908
714.33964
714.339
714.3386
714.33822
714.33841
714.33904
714.3388
714.33876
714.33908
714.33969
714.34024
714.33957
714.33911
714.33832
714.33858
714.33936
714.33925
714.33929
714.33964
714.34024
714.34073
714.33992
714.33928
714.33787
714.33778
714.3385
714.33852
714.33864
714.339
714.33957
714.33992
714.33884
714.33781
714.33782
714.33749
714.33794
714.33804
714.33822
714.3386
714.33911
714.33928
714.33781
714.33792
717.06067
717.06039
717.06109
717.06066
717.06038
717.06042
717.06067
717.06087
717.06055
717.06057
717.06039
717.06068
717.06105
717.06058
717.06034
717.06044
717.06079
717.06107
717.06044
717.06025
717.06109
717.06105
717.06134
717.06088
717.06068
717.06084
717.06131
717.06173
717.06105
717.06062
717.06066
717.06058
717.06088
717.06045
717.06029
717.06052
717.06107
717.06162
717.06107
717.06072
717.06038
717.06034
717.06068
717.06029
717.06017
717.06045
717.06107
717.06169
717.06121
717.06092
717.06042
717.06044
717.06084
717.06052
717.06045
717.06077
717.06143
717.06208
717.06162
717.06134
717.06067
717.06079
717.06131
717.06107
717.06107
717.06143
717.0621
717.06273
717.06224
717.06191
717.06087
717.06107
717.06173
717.06162
717.06169
717.06208
717.06273
717.06331
717.06269
717.06218
717.06055
717.06044
717.06105
717.06107
717.06121
717.06162
717.06224
717.06269
717.0618
717.06092
717.06057
717.06025
717.06062
717.06072
717.06092
717.06134
717.06191
717.06218
717.06092
717.06109
720.28974
720.28944
720.28997
720.28955
720.28931
720.2894
720.28971
720.29
720.28981
720.28989
720.28944
720.28962
720.28986
720.28941
720.28921
720.28935
720.28976
720.29013
720.28967
720.28957
720.28997
720.28986
720.29005
720.28961
720.28944
720.28965
720.29017
720.29067
720.29018
720.28988
720.28955
720.28941
720.28961
720.28919
720.28907
720.28933
720.28994
720.29057
720.2902
720.28997
720.28931
720.28921
720.28944
720.28907
720.28899
720.2893
720.28997
720.29067
720.29036
720.29019
720.2894
720.28935
720.28965
720.28933
720.2893
720.28966
720.29036
720.29109
720.2908
720.29064
720.28971
720.28976
720.29017
720.28994
720.28997
720.29036
720.29107
720.29179
720.29147
720.29126
720.29
720.29013
720.29067
720.29057
720.29067
720.29109
720.29179
720.29245
720.29201
720.29163
720.28981
720.28967
720.29018
720.2902
720.29036
720.2908
720.29147
720.29201
720.29132
720.29059
720.28989
720.28957
720.28988
720.28997
720.29019
720.29064
720.29126
720.29163
720.29059
720.29081
723.96251
723.9622
723.96257
723.96215
723.96196
723.96209
723.96246
723.96282
723.96276
723.9629
723.9622
723.96227
723.9624
723.96197
723.9618
723.96199
723.96245
723.9629
723.96261
723.96259
723.96257
723.9624
723.96248
723.96206
723.96193
723.96217
723.96274
723.96332
723.96301
723.96283
723.96215
723.96197
723.96206
723.96167
723.96158
723.96188
723.96253
723.96323
723.96302
723.96292
723.96196
723.9618
723.96193
723.96158
723.96153
723.96188
723.96258
723.96335
723.96321
723.96315
723.96209
723.96199
723.96217
723.96188
723.96188
723.96227
723.963
723.96379
723.96367
723.96363
723.96246
723.96245
723.96274
723.96253
723.96258
723.963
723.96375
723.96453
723.96438
723.9643
723.96282
723.9629
723.96332
723.96323
723.96335
723.96379
723.96453
723.96526
723.965
723.96475
723.96276
723.96261
723.96301
723.96302
723.96321
723.96367
723.96438
723.965
723.96451
723.96392
723.9629
723.96259
723.96283
723.96292
723.96315
723.96363
723.9643
723.96475
723.96392
723.9642
728.01515
728.01483
728.01504
728.01465
728.01449
728.01466
728.01508
728.01552
728.01557
728.01576
728.01483
728.0148
728.01481
728.01441
728.01428
728.0145
728.01501
728.01554
728.0154
728.01547
728.01504
728.01481
728.01479
728.0144
728.01431
728.01459
728.01519
728.01584
728.0157
728.01564
728.01465
728.01441
728.0144
728.01404
728.01399
728.01432
728.015
728.01575
728.01572
728.01572
728.01449
728.01428
728.01431
728.01399
728.01397
728.01435
728.01508
728.0159
728.01592
728.01597
728.01466
728.0145
728.01459
728.01432
728.01435
728.01477
728.01552
728.01637
728.0164
728.01647
728.01508
728.01501
728.01519
728.015
728.01508
728.01552
728.0163
728.01713
728.01714
728.01717
728.01552
728.01554
728.01584
728.01575
728.0159
728.01637
728.01713
728.01792
728.01783
728.01771
728.01557
728.0154
728.0157
728.01572
728.01592
728.0164
728.01714
728.01783
728.01752
728.01708
728.01576
728.01547
728.01564
728.01572
728.01597
728.01647
728.01717
728.01771
728.01708
728.01742
732.38332
732.38299
732.38305
732.38268
732.38256
732.38277
732.38323
732.38374
732.3839
732.38414
732.38299
732.38287
732.38277
732.3824
732.38231
732.38257
732.38311
732.3837
732.38371
732.38387
732.38305
732.38277
732.38265
732.3823
732.38224
732.38255
732.38318
732.38388
732.38391
732.38397
732.38268
732.3824
732.3823
732.38197
732.38195
732.38231
732.38301
732.38381
732.38393
732.38405
732.38256
732.38231
732.38224
732.38195
732.38197
732.38237
732.38312
732.38397
732.38415
732.3843
732.38277
732.38257
732.38255
732.38231
732.38237
732.38281
732.38358
732.38446
732.38465
732.38482
732.38323
732.38311
732.38318
732.38301
732.38312
732.38358
732.38436
732.38524
732.3854
732.38554
732.38374
732.3837
732.38388
732.38381
732.38397
732.38446
732.38524
732.38607
732.38615
732.38615
732.3839
732.38371
732.38391
732.38393
732.38415
732.38465
732.3854
732.38615
732.38602
732.38573
732.38414
732.38387
732.38397
732.38405
732.3843
732.38482
732.38554
732.38615
732.38573
732.3861
737.00259
737.00227
737.00218
737.00184
737.00177
737.00201
737.0025
737.00306
737.00333
737.00361
737.00227
737.00205
737.00185
737.00152
737.00147
737.00176
737.00233
737.00297
737.00313
737.00336
737.00218
737.00185
737.00165
737.00133
737.00132
737.00165
737.0023
737.00305
737.00323
737.00339
737.00184
737.00152
737.00133
737.00104
737.00106
737.00144
737.00215
737.00298
737.00325
737.00347
737.00177
737.00147
737.00132
737.00106
737.00112
737.00153
737.00228
737.00317
737.00348
737.00373
737.00201
737.00176
737.00165
737.00144
737.00153
737.00198
737.00276
737.00366
737.00399
737.00425
737.0025
737.00233
737.0023
737.00215
737.00228
737.00276
737.00355
737.00445
737.00475
737.00499
737.00306
737.00297
737.00305
737.00298
737.00317
737.00366
737.00445
737.00532
737.00554
737.00565
737.00333
737.00313
737.00323
737.00325
737.00348
737.00399
737.00475
737.00554
737.00558
737.00543
737.00361
737.00336
737.00339
737.00347
737.00373
737.00425
737.00499
737.00565
737.00543
737.00584
741.80894
741.80862
741.8084
741.80809
741.80806
741.80834
741.80886
741.80946
741.80982
741.81014
741.80862
741.80832
741.80804
741.80774
741.80773
741.80805
741.80864
741.80932
741.80961
741.80991
741.8084
741.80804
741.80775
741.80748
741.8075
741.80786
741.80851
741.80929
741.80962
741.80988
741.80809
741.80774
741.80748
741.80723
741.80728
741.80768
741.80839
741.80924
741.80964
741.80995
741.80806
741.80773
741.8075
741.80728
741.80737
741.8078
741.80855
741.80945
741.80988
741.81023
741.80834
741.80805
741.80786
741.80768
741.8078
741.80826
741.80903
741.80994
741.81039
741.81074
741.80886
741.80864
741.80851
741.80839
741.80855
741.80903
741.80981
741.81072
741.81116
741.81148
741.80946
741.80932
741.80929
741.80924
741.80945
741.80994
741.81072
741.81161
741.81197
741.81219
741.80982
741.80961
741.80962
741.80964
741.80988
741.81039
741.81116
741.81197
741.81217
741.81215
741.81014
741.80991
741.80988
741.80995
741.81023
741.81074
741.81148
741.81219
741.81215
741.8126
746.73913
746.73883
746.73847
746.7382
746.73822
746.73852
746.73906
746.7397
746.74014
746.74049
746.73883
746.73845
746.73808
746.73783
746.73787
746.7382
746.7388
746.73952
746.73993
746.74028
746.73847
746.73808
746.73773
746.7375
746.73756
746.73793
746.73859
746.73939
746.73985
746.7402
746.7382
746.73783
746.7375
746.7373
746.73739
746.73779
746.7385
746.73936
746.73987
746.74027
746.73822
746.73787
746.73756
746.73739
746.73751
746.73794
746.73868
746.73957
746.74012
746.74054
746.73852
746.7382
746.73793
746.73779
746.73794
746.7384
746.73915
746.74007
746.74063
746.74106
746.73906
746.7388
746.73859
746.7385
746.73868
746.73915
746.73992
746.74083
746.74138
746.74179
746.7397
746.73952
746.73939
746.73936
746.73957
746.74007
746.74083
746.74172
746.74221
746.74253
746.74014
746.73993
746.73985
746.73987
746.74012
746.74063
746.74138
746.74221
746.74256
746.74267
746.74049
746.74028
746.7402
746.74027
746.74054
746.74106
746.74179
746.74253
746.74267
746.74314
751.73115
751.73086
751.73039
751.73016
751.73022
751.73055
751.7311
751.73176
751.73227
751.73264
751.73086
751.73042
751.72997
751.72978
751.72985
751.73021
751.73081
751.73154
751.73206
751.73247
751.73039
751.72997
751.72956
751.72938
751.72948
751.72987
751.73051
751.73132
751.73189
751.73234
751.73016
751.72978
751.72938
751.72923
751.72936
751.72977
751.73045
751.73131
751.73193
751.7324
751.73022
751.72985
751.72948
751.72936
751.72951
751.72994
751.73065
751.73154
751.73218
751.73267
751.73055
751.73021
751.72987
751.72977
751.72994
751.7304
751.73112
751.73202
751.73268
751.73317
751.7311
751.73081
751.73051
751.73045
751.73065
751.73112
751.73186
751.73276
751.7334
751.73388
751.73176
751.73154
751.73132
751.73131
751.73154
751.73202
751.73276
751.73363
751.73423
751.73464
751.73227
751.73206
751.73189
751.73193
751.73218
751.73268
751.7334
751.73423
751.73472
751.73494
751.73264
751.73247
751.73234
751.7324
751.73267
751.73317
751.73388
751.73464
751.73494
751.73543
756.72459
756.72432
756.72373
756.72356
756.72367
756.72401
756.72456
756.72523
756.72581
756.7262
756.72432
756.72382
756.72331
756.72317
756.72329
756.72365
756.72424
756.72498
756.7256
756.72605
756.72373
756.72331
756.72284
756.72272
756.72286
756.72325
756.72388
756.72468
756.72535
756.72587
756.72356
756.72317
756.72272
756.72262
756.72278
756.72319
756.72385
756.72468
756.7254
756.72593
756.72367
756.72329
756.72286
756.72278
756.72296
756.72339
756.72407
756.72492
756.72565
756.7262
756.72401
756.72365
756.72325
756.72319
756.72339
756.72384
756.72453
756.72539
756.72613
756.72668
756.72456
756.72424
756.72388
756.72385
756.72407
756.72453
756.72522
756.72609
756.72682
756.72736
756.72523
756.72498
756.72468
756.72468
756.72492
756.72539
756.72609
756.72694
756.72764
756.72812
756.72581
756.7256
756.72535
756.7254
756.72565
756.72613
756.72682
756.72764
756.72824
756.72858
756.7262
756.72605
756.72587
756.72593
756.7262
756.72668
756.72736
756.72812
756.72858
756.72907
761.661
761.66077
761.66008
761.65996
761.66011
761.66047
761.66101
761.66169
761.66231
761.66271
761.66077
761.66021
761.65965
761.65957
761.65973
761.6601
761.66067
761.66141
761.66211
761.6626
761.66008
761.65965
761.65914
761.65908
761.65926
761.65965
761.66025
761.66102
761.66179
761.66237
761.65996
761.65957
761.65908
761.65904
761.65923
761.65964
761.66026
761.66106
761.66184
761.66243
761.66011
761.65973
761.65926
761.65923
761.65944
761.65986
761.66049
761.6613
761.6621
761.66269
761.66047
761.6601
761.65965
761.65964
761.65986
761.66029
761.66093
761.66175
761.66255
761.66314
761.66101
761.66067
761.66025
761.66026
761.66049
761.66093
761.66157
761.66239
761.66319
761.66378
761.66169
761.66141
761.66102
761.66106
761.6613
761.66175
761.66239
761.66321
761.66398
761.66453
761.66231
761.66211
761.66179
761.66184
761.6621
761.66255
761.66319
761.66398
761.66469
761.66512
761.66271
761.6626
761.66237
761.66243
761.66269
761.66314
761.66378
761.66453
761.66512
761.66561
766.48429
766.48409
766.48331
766.48326
766.48345
766.48381
766.48434
766.485
766.48566
766.48606
766.48409
766.48349
766.48289
766.48287
766.48307
766.48344
766.48399
766.48471
766.48548
766.48599
766.48331
766.48289
766.48235
766.48235
766.48256
766.48294
766.48351
766.48425
766.48509
766.48572
766.48326
766.48287
766.48235
766.48237
766.48259
766.48298
766.48355
766.48431
766.48515
766.48578
766.48345
766.48307
766.48256
766.48259
766.48282
766.48322
766.4838
766.48456
766.4854
766.48603
766.48381
766.48344
766.48294
766.48298
766.48322
766.48363
766.48421
766.48497
766.48582
766.48644
766.48434
766.48399
766.48351
766.48355
766.4838
766.48421
766.4848
766.48556
766.48641
766.48703
766.485
766.48471
766.48425
766.48431
766.48456
766.48497
766.48556
766.48632
766.48715
766.48775
766.48566
766.48548
766.48509
766.48515
766.4854
766.48582
766.48641
766.48715
766.48795
766.48847
766.48606
766.48599
766.48572
766.48578
766.48603
766.48644
766.48703
766.48775
766.48847
766.48895
771.14095
771.14079
771.13995
771.13995
771.14018
771.14055
771.14105
771.14169
771.14238
771.14276
771.14079
771.14016
771.13953
771.13958
771.13981
771.14018
771.1407
771.14138
771.14221
771.14273
771.13995
771.13953
771.13897
771.13904
771.13928
771.13965
771.14017
771.14087
771.14176
771.14243
771.13995
771.13958
771.13904
771.13912
771.13937
771.13974
771.14026
771.14095
771.14183
771.14249
771.14018
771.13981
771.13928
771.13937
771.13962
771.14
771.14051
771.1412
771.14208
771.14272
771.14055
771.14018
771.13965
771.13974
771.14
771.14038
771.14089
771.14158
771.14245
771.1431
771.14105
771.1407
771.14017
771.14026
771.14051
771.14089
771.1414
771.14209
771.14297
771.14362
771.14169
771.14138
771.14087
771.14095
771.1412
771.14158
771.14209
771.14278
771.14367
771.14431
771.14238
771.14221
771.14176
771.14183
771.14208
771.14245
771.14297
771.14367
771.14454
771.14513
771.14276
771.14273
771.14243
771.14249
771.14272
771.1431
771.14362
771.14431
771.14513
771.14559
775.58042
775.58031
775.5794
775.57947
775.57974
775.5801
775.58058
775.58118
775.58188
775.58225
775.58031
775.57966
775.57901
775.57912
775.57939
775.57975
775.58022
775.58087
775.58173
775.58226
775.5794
775.57901
775.57843
775.57856
775.57884
775.5792
775.57966
775.58029
775.58123
775.58192
775.57947
775.57912
775.57856
775.57871
775.57899
775.57934
775.57978
775.5804
775.58131
775.58198
775.57974
775.57939
775.57884
775.57899
775.57926
775.57961
775.58005
775.58065
775.58155
775.5822
775.5801
775.57975
775.5792
775.57934
775.57961
775.57995
775.58039
775.58099
775.58188
775.58253
775.58058
775.58022
775.57966
775.57978
775.58005
775.58039
775.58082
775.58142
775.58232
775.58297
775.58118
775.58087
775.58029
775.5804
775.58065
775.58099
775.58142
775.58203
775.58294
775.58361
775.58188
775.58173
775.58123
775.58131
775.58155
775.58188
775.58232
775.58294
775.58386
775.58452
775.58225
775.58226
775.58192
775.58198
775.5822
775.58253
775.58297
775.58361
775.58452
775.58495
779.75527
779.75521
779.75426
779.75439
779.75469
779.75505
779.75549
779.75605
779.75674
779.75709
779.75521
779.75455
779.75389
779.75407
779.75438
779.75472
779.75514
779.75573
779.75662
779.75714
779.75426
779.75389
779.75331
779.75351
779.75382
779.75415
779.75455
779.75511
779.75607
779.75678
779.75439
779.75407
779.75351
779.75372
779.75402
779.75434
779.75471
779.75524
779.75616
779.75684
779.75469
779.75438
779.75382
779.75402
779.75432
779.75463
779.75498
779.75549
779.75639
779.75703
779.75505
779.75472
779.75415
779.75434
779.75463
779.75493
779.75528
779.75578
779.75666
779.75731
779.75549
779.75514
779.75455
779.75471
779.75498
779.75528
779.75562
779.75612
779.75702
779.75767
779.75605
779.75573
779.75511
779.75524
779.75549
779.75578
779.75612
779.75664
779.75756
779.75824
779.75674
779.75662
779.75607
779.75616
779.75639
779.75666
779.75702
779.75756
779.75852
779.75922
779.75709
779.75714
779.75678
779.75684
779.75703
779.75731
779.75767
779.75824
779.75922
779.75962
783.62146
783.62145
783.62046
783.62066
783.621
783.62134
783.62173
783.62224
783.62291
783.62323
783.62145
783.6208
783.62013
783.62038
783.62072
783.62104
783.62141
783.62193
783.62282
783.62333
783.62046
783.62013
783.61956
783.61983
783.62016
783.62046
783.62079
783.62127
783.62224
783.62294
783.62066
783.62038
783.61983
783.6201
783.62042
783.62071
783.62099
783.62143
783.62234
783.623
783.621
783.62072
783.62016
783.62042
783.62073
783.621
783.62126
783.62166
783.62254
783.62317
783.62134
783.62104
783.62046
783.62071
783.621
783.62125
783.6215
783.62189
783.62276
783.62338
783.62173
783.62141
783.62079
783.62099
783.62126
783.6215
783.62175
783.62214
783.62302
783.62366
783.62224
783.62193
783.62127
783.62143
783.62166
783.62189
783.62214
783.62255
783.62346
783.62415
783.62291
783.62282
783.62224
783.62234
783.62254
783.62276
783.62302
783.62346
783.62444
783.62518
783.62323
783.62333
783.62294
783.623
783.62317
783.62338
783.62366
783.62415
783.62518
783.62554
787.13848
787.13853
787.13751
787.13777
787.13814
787.13847
787.1388
787.13924
787.13989
787.14017
787.13853
787.13788
787.13722
787.13754
787.1379
787.1382
787.1385
787.13894
787.13983
787.14031
787.13751
787.13722
787.13666
787.137
787.13735
787.13762
787.13786
787.13825
787.13921
787.1399
787.13777
787.13754
787.137
787.13733
787.13767
787.13791
787.13811
787.13843
787.13932
787.13996
787.13814
787.1379
787.13735
787.13767
787.13799
787.13821
787.13838
787.13866
787.1395
787.1401
787.13847
787.1382
787.13762
787.13791
787.13821
787.13841
787.13856
787.13883
787.13966
787.14025
787.1388
787.1385
787.13786
787.13811
787.13838
787.13856
787.1387
787.13897
787.13981
787.14042
787.13924
787.13894
787.13825
787.13843
787.13866
787.13883
787.13897
787.13926
787.14015
787.14082
787.13989
787.13983
787.13921
787.13932
787.1395
787.13966
787.13981
787.14015
787.14112
787.14189
787.14017
787.14031
787.1399
787.13996
787.1401
787.14025
787.14042
787.14082
787.14189
787.14219
790.26949
790.26961
790.26857
790.26891
790.2693
790.2696
790.26987
790.27023
790.27084
790.27107
790.26961
790.26898
790.26834
790.26872
790.26911
790.26938
790.26959
790.26995
790.27081
790.27126
790.26857
790.26834
790.2678
790.2682
790.26857
790.2688
790.26895
790.26924
790.27017
790.27084
790.26891
790.26872
790.2682
790.26859
790.26894
790.26914
790.26924
790.26944
790.27029
790.27089
790.2693
790.26911
790.26857
790.26894
790.26927
790.26944
790.2695
790.26965
790.27044
790.27101
790.2696
790.26938
790.2688
790.26914
790.26944
790.26958
790.26962
790.26975
790.27053
790.27108
790.26987
790.26959
790.26895
790.26924
790.2695
790.26962
790.26964
790.26978
790.27057
790.27114
790.27023
790.26995
790.26924
790.26944
790.26965
790.26975
790.26978
790.26994
790.27079
790.27144
790.27084
790.27081
790.27017
790.27029
790.27044
790.27053
790.27057
790.27079
790.27175
790.27253
790.27107
790.27126
790.27084
790.27089
790.27101
790.27108
790.27114
790.27144
790.27253
790.27277
792.98149
792.98167
792.98063
792.98103
792.98144
792.98171
792.98191
792.98218
792.98274
792.98292
792.98167
792.98106
792.98045
792.9809
792.9813
792.98153
792.98166
792.98192
792.98275
792.98315
792.98063
792.98045
792.97993
792.9804
792.98078
792.98097
792.98103
792.9812
792.98208
792.98272
792.98103
792.9809
792.9804
792.98085
792.98121
792.98135
792.98135
792.98142
792.98221
792.98277
792.98144
792.9813
792.98078
792.98121
792.98153
792.98164
792.98159
792.98161
792.98234
792.98284
792.98171
792.98153
792.98097
792.98135
792.98164
792.98172
792.98164
792.98163
792.98234
792.98284
792.98191
792.98166
792.98103
792.98135
792.98159
792.98164
792.98155
792.98154
792.98227
792.98279
792.98218
792.98192
792.9812
792.98142
792.98161
792.98163
792.98154
792.98157
792.98236
792.98297
792.98274
792.98275
792.98208
792.98221
792.98234
792.98234
792.98227
792.98236
792.98328
792.98406
792.98292
792.98315
792.98272
792.98277
792.98284
792.98284
792.98279
792.98297
792.98406
792.98423
795.2453
795.24555
795.24452
795.24497
795.2454
795.24563
795.24575
795.24593
795.24642
795.24654
795.24555
795.24498
795.24439
795.2449
795.24531
795.2455
795.24554
795.24569
795.24647
795.24682
795.24452
795.24439
795.24391
795.24443
795.24482
795.24495
795.24491
795.24496
795.24579
795.24638
795.24497
795.2449
795.24443
795.24494
795.24529
795.24538
795.24526
795.2452
795.24591
795.24642
795.2454
795.24531
795.24482
795.24529
795.24562
795.24566
795.24549
795.24536
795.24601
795.24645
795.24563
795.2455
795.24495
795.24538
795.24566
795.24567
795.24547
795.24531
795.24593
795.24636
795.24575
795.24554
795.24491
795.24526
795.24549
795.24547
795.24525
795.24509
795.24573
795.24619
795.24593
795.24569
795.24496
795.2452
795.24536
795.24531
795.24509
795.24496
795.24568
795.24625
795.24642
795.24647
795.24579
795.24591
795.24601
795.24593
795.24573
795.24568
795.24655
795.24732
795.24654
795.24682
795.24638
795.24642
795.24645
795.24636
795.24619
795.24625
795.24732
795.24741
797.03568
797.03599
797.03497
797.03548
797.03592
797.03611
797.03613
797.03621
797.03663
797.03668
797.03599
797.03546
797.03491
797.03547
797.03589
797.03602
797.03597
797.036
797.03671
797.037
797.03497
797.03491
797.03446
797.03504
797.03542
797.0355
797.03535
797.03526
797.03602
797.03655
797.03548
797.03547
797.03504
797.03559
797.03594
797.03596
797.03573
797.03551
797.03614
797.03658
797.03592
797.03589