/*--------------------------------*- C++ -*----------------------------------*\
| =========                 |                                                 |
| \\      /  F ield         | OpenFOAM: The Open Source CFD Toolbox           |
|  \\    /   O peration     | Version:  v2106                                 |
|   \\  /    A nd           | Website:  www.openfoam.com                      |
|    \\/     M anipulation  |                                                 |
\*---------------------------------------------------------------------------*/
FoamFile
{
    version     2.0;
    format      ascii;
    arch        "LSB;label=32;scalar=64";
    class       volVectorField;
    location    "30";
    object      gradT;
}
// * * * * * * * * * * * * * * * * * * * * * * * * * * * * * * * * * * * * * //

dimensions      [0 -1 0 1 0 0 0];

internalField   nonuniform List<vector> 
4000
(
(-0.00019764652 -0.00019764652 482.52597)
(0.00054040475 0.00036284384 482.52495)
(0.00074661951 0.00012935281 482.52861)
(-0.00020466388 0.00010052196 482.52825)
(-0.00019156307 0.00010193715 482.5277)
(-0.00014224331 0.00010596044 482.5273)
(-0.00013647777 0.00010976368 482.52696)
(-0.00015065482 0.00010650003 482.52658)
(-0.0001336071 8.1333242e-05 482.52616)
(-3.6227296e-05 4.011663e-05 482.52592)
(0.00036284384 0.00054040475 482.52495)
(0.0010309037 0.0010309037 482.5271)
(0.00035313669 0.00062372357 482.52937)
(-0.00024578736 0.00057480645 482.52882)
(-0.00018340534 0.00058003646 482.52827)
(-0.00013050351 0.0005937845 482.5279)
(-0.00013566839 0.00061190714 482.52759)
(-0.00019330049 0.00061810372 482.52719)
(-0.0002331822 0.00056250185 482.52654)
(-7.7443908e-05 0.00041015542 482.52604)
(0.00012935281 0.00074661951 482.52861)
(0.00062372357 0.00035313669 482.52937)
(0.00029052221 0.00029052221 482.53135)
(-0.00024835098 0.0002854396 482.53076)
(-0.00017258502 0.00029254777 482.53022)
(-0.00011037262 0.0003082119 482.5299)
(-0.00011215855 0.00033431286 482.52965)
(-0.00020006012 0.0003677821 482.5293)
(-0.00034155539 0.00038237963 482.52855)
(-0.00013779158 0.00032748726 482.52758)
(0.00010052196 -0.00020466388 482.52825)
(0.00057480645 -0.00024578736 482.52882)
(0.0002854396 -0.00024835098 482.53076)
(-0.00024376181 -0.00024376181 482.53016)
(-0.00016063305 -0.00023434824 482.52965)
(-8.873842e-05 -0.0002191424 482.52936)
(-7.6098183e-05 -0.00019576602 482.52919)
(-0.00014523372 -0.00016037376 482.52896)
(-0.00027347703 -0.00011149014 482.52836)
(-0.00011403882 -5.9379066e-05 482.52756)
(0.00010193716 -0.00019156307 482.5277)
(0.00058003646 -0.00018340535 482.52827)
(0.00029254776 -0.00017258503 482.53022)
(-0.00023434825 -0.00016063304 482.52965)
(-0.00014796561 -0.00014796561 482.52916)
(-7.1790399e-05 -0.000133876 482.52892)
(-5.3389913e-05 -0.00011752882 482.5288)
(-0.00011578424 -9.7975974e-05 482.52863)
(-0.00024056069 -7.5391043e-05 482.52812)
(-0.00010305087 -5.4318587e-05 482.5274)
(0.00010596044 -0.00014224331 482.5273)
(0.0005937845 -0.00013050352 482.5279)
(0.0003082119 -0.00011037264 482.5299)
(-0.0002191424 -8.8738421e-05 482.52936)
(-0.000133876 -7.1790399e-05 482.52892)
(-5.8301628e-05 -5.830162e-05 482.52871)
(-4.0198157e-05 -4.7238726e-05 482.52862)
(-0.00010309594 -3.8345235e-05 482.52849)
(-0.00022981965 -3.1703386e-05 482.52801)
(-9.9990516e-05 -2.7899285e-05 482.52732)
(0.00010976368 -0.00013647777 482.52696)
(0.00061190713 -0.00013566838 482.52759)
(0.00033431286 -0.00011215855 482.52965)
(-0.00019576601 -7.6098189e-05 482.52919)
(-0.00011752881 -5.3389915e-05 482.5288)
(-4.7238726e-05 -4.0198152e-05 482.52862)
(-3.3433528e-05 -3.3433518e-05 482.52856)
(-0.0001002489 -3.2290849e-05 482.52844)
(-0.00023011474 -3.5951271e-05 482.52797)
(-0.0001005148 -4.197749e-05 482.52726)
(0.00010650003 -0.00015065483 482.52658)
(0.00061810371 -0.00019330049 482.52719)
(0.0003677821 -0.00020006011 482.5293)
(-0.00016037376 -0.00014523372 482.52896)
(-9.7975966e-05 -0.00011578423 482.52863)
(-3.8345231e-05 -0.00010309595 482.52849)
(-3.2290854e-05 -0.00010024889 482.52844)
(-0.00010561369 -0.00010561369 482.52831)
(-0.00023950629 -0.00011773655 482.52781)
(-0.000104008 -0.00013200945 482.52708)
(8.133324e-05 -0.0001336071 482.52616)
(0.00056250185 -0.00023318219 482.52654)
(0.00038237964 -0.00034155539 482.52855)
(-0.00011149013 -0.00027347703 482.52836)
(-7.5391046e-05 -0.00024056069 482.52812)
(-3.1703384e-05 -0.00022981965 482.52801)
(-3.595127e-05 -0.00023011474 482.52797)
(-0.00011773656 -0.00023950629 482.52781)
(-0.0002565105 -0.0002565105 482.52727)
(-0.00011003007 -0.00027371386 482.52649)
(4.0116631e-05 -3.6227295e-05 482.52592)
(0.00041015542 -7.7443904e-05 482.52604)
(0.00032748726 -0.00013779158 482.52758)
(-5.9379059e-05 -0.00011403882 482.52756)
(-5.4318585e-05 -0.00010305087 482.5274)
(-2.7899287e-05 -9.9990514e-05 482.52732)
(-4.1977492e-05 -0.0001005148 482.52726)
(-0.00013200945 -0.000104008 482.52708)
(-0.00027371386 -0.00011003007 482.52649)
(-0.0001154769 -0.0001154769 482.52568)
(-0.00043147718 -0.00043147718 714.34193)
(0.0023414543 0.0010696198 714.34168)
(0.0027177331 0.00036834182 714.34497)
(-0.00075684092 0.00026363773 714.3446)
(-0.00084837089 0.00026628798 714.34393)
(-0.00067689946 0.00028459476 714.3434)
(-0.00066763681 0.00030328788 714.34293)
(-0.00074956597 0.00028223647 714.34235)
(-0.00059881123 0.00013717094 714.34163)
(-0.00013496639 -2.1991955e-06 714.34153)
(0.0010696198 0.0023414543 714.34168)
(0.0035411828 0.0035411828 714.34355)
(0.0015087599 0.0022371475 714.3458)
(-0.00090992169 0.0020351111 714.34525)
(-0.00081693535 0.0020489327 714.34458)
(-0.0006213996 0.0021138377 714.3441)
(-0.00067117424 0.0022033435 714.34369)
(-0.0009987414 0.002223097 714.34306)
(-0.0010254647 0.0018935572 714.34185)
(-0.00027433652 0.0012670802 714.34127)
(0.00036834182 0.0027177331 714.34497)
(0.0022371475 0.0015087599 714.3458)
(0.0012116614 0.0012116614 714.34773)
(-0.00094505567 0.001161743 714.34712)
(-0.00076964431 0.0011896611 714.34647)
(-0.00052248874 0.0012662332 714.34605)
(-0.00055837754 0.0013950933 714.34575)
(-0.0010593523 0.0015537262 714.34523)
(-0.001554828 0.0015812882 714.34386)
(-0.00055261771 0.0012969307 714.34273)
(0.00026363772 -0.00075684092 714.3446)
(0.0020351111 -0.00090992168 714.34525)
(0.001161743 -0.00094505567 714.34712)
(-0.00093192195 -0.00093192195 714.3465)
(-0.00071244509 -0.00088743016 714.34588)
(-0.00041596741 -0.00081257076 714.34552)
(-0.00038368124 -0.00069732413 714.34533)
(-0.00081254655 -0.00052583657 714.34497)
(-0.0012822603 -0.00030753086 714.34381)
(-0.00046390819 -9.6088709e-05 714.34285)
(0.00026628798 -0.0008483709 714.34393)
(0.0020489327 -0.00081693534 714.34458)
(0.0011896611 -0.0007696443 714.34647)
(-0.00088743016 -0.00071244509 714.34588)
(-0.00065029312 -0.00065029312 714.34529)
(-0.00033238271 -0.00058102281 714.345)
(-0.00027164336 -0.00050054919 714.34488)
(-0.000669559 -0.00040409994 714.34462)
(-0.0011250802 -0.00029479984 714.34358)
(-0.00041165628 -0.00019241293 714.34273)
(0.00028459476 -0.00067689946 714.3434)
(0.0021138377 -0.00062139961 714.3441)
(0.0012662332 -0.00052248874 714.34605)
(-0.00081257076 -0.00041596741 714.34552)
(-0.00058102281 -0.00033238271 714.345)
(-0.00026622348 -0.00026622348 714.34475)
(-0.00020675837 -0.00021239107 714.34468)
(-0.00060679719 -0.00016928851 714.34448)
(-0.0010705733 -0.00013745634 714.34348)
(-0.00039565025 -0.00011865325 714.34266)
(0.00030328788 -0.00066763681 714.34293)
(0.0022033434 -0.00067117425 714.34369)
(0.0013950933 -0.00055837755 714.34575)
(-0.00069732413 -0.00038368124 714.34533)
(-0.00050054919 -0.00027164336 714.34488)
(-0.00021239106 -0.00020675837 714.34468)
(-0.00017470838 -0.00017470838 714.34464)
(-0.00059462427 -0.00017153804 714.34445)
(-0.0010744449 -0.00019359526 714.34345)
(-0.00039912089 -0.00022973556 714.34262)
(0.00028223647 -0.00074956598 714.34235)
(0.002223097 -0.00099874139 714.34306)
(0.0015537262 -0.0010593523 714.34523)
(-0.00052583657 -0.00081254655 714.34497)
(-0.00040409994 -0.00066955899 714.34462)
(-0.0001692885 -0.0006067972 714.34448)
(-0.00017153803 -0.00059462427 714.34445)
(-0.00062568407 -0.00062568407 714.34424)
(-0.0011287708 -0.00069282566 714.34319)
(-0.00041974378 -0.00077314204 714.34228)
(0.00013717094 -0.00059881123 714.34163)
(0.0018935572 -0.0010254647 714.34185)
(0.0015812881 -0.001554828 714.34386)
(-0.00030753086 -0.0012822603 714.34381)
(-0.00029479984 -0.0011250802 714.34358)
(-0.00013745634 -0.0010705733 714.34348)
(-0.00019359526 -0.0010744449 714.34345)
(-0.00069282566 -0.0011287708 714.34319)
(-0.0012219029 -0.0012219029 714.34204)
(-0.00045266515 -0.0012837499 714.34104)
(-2.1991961e-06 -0.00013496639 714.34153)
(0.0012670802 -0.00027433652 714.34127)
(0.0012969307 -0.00055261771 714.34273)
(-9.6088705e-05 -0.00046390819 714.34285)
(-0.00019241293 -0.00041165628 714.34273)
(-0.00011865325 -0.00039565025 714.34266)
(-0.00022973556 -0.00039912089 714.34262)
(-0.00077314204 -0.00041974378 714.34228)
(-0.0012837499 -0.00045266515 714.34104)
(-0.0004609751 -0.0004609751 714.34031)
(-0.0003637357 -0.0003637357 711.93071)
(0.0035801469 0.0016095348 711.93077)
(0.0036652414 0.00067856068 711.93279)
(-0.0012515998 0.00053406015 711.9324)
(-0.0013949093 0.0005404403 711.93182)
(-0.0011381415 0.00057639132 711.93138)
(-0.0011821772 0.00061885478 711.93099)
(-0.0014499836 0.00058074608 711.9304)
(-0.00095862127 0.00022747879 711.92944)
(-0.00010432784 -0.000129369 711.92936)
(0.0016095348 0.0035801469 711.93077)
(0.0051435914 0.0051435914 711.93211)
(0.0020520295 0.0033806848 711.93351)
(-0.0014587804 0.0030923091 711.93301)
(-0.0013314125 0.0031202383 711.93245)
(-0.0010205198 0.00324392 711.93207)
(-0.0011756451 0.0034280851 711.93177)
(-0.0020370476 0.0034905482 711.93117)
(-0.0020237939 0.0027952535 711.92962)
(-0.00046117563 0.0016106101 711.92899)
(0.00067856068 0.0036652414 711.93279)
(0.0033806848 0.0020520295 711.93351)
(0.0016139591 0.0016139591 711.93471)
(-0.0015120464 0.0015345949 711.93417)
(-0.0012432984 0.0015858217 711.93363)
(-0.00083029466 0.0017259777 711.93332)
(-0.00093554907 0.0019671994 711.93313)
(-0.0020828152 0.0022768092 711.93268)
(-0.0028385593 0.002342866 711.93102)
(-0.00089409012 0.0018988118 711.92994)
(0.00053406016 -0.0012515998 711.9324)
(0.0030923091 -0.0014587804 711.93301)
(0.0015345949 -0.0015120464 711.93417)
(-0.0014869179 -0.0014869179 711.93363)
(-0.0011400297 -0.0014062891 711.93313)
(-0.00063914211 -0.00127187 711.93288)
(-0.00062481359 -0.0010660464 711.9328)
(-0.001661381 -0.00076304382 711.9325)
(-0.0024017913 -0.00039705789 711.93102)
(-0.00075721177 -6.125015e-05 711.93007)
(0.0005404403 -0.0013949093 711.93182)
(0.0031202383 -0.0013314125 711.93245)
(0.0015858217 -0.0012432984 711.93363)
(-0.0014062891 -0.0011400297 711.93313)
(-0.0010282505 -0.0010282505 711.93266)
(-0.00049005194 -0.00090446068 711.93247)
(-0.00042672291 -0.00076183499 711.93246)
(-0.0014138267 -0.00059261983 711.93227)
(-0.0021367657 -0.00040626342 711.93089)
(-0.0006702183 -0.00023548585 711.93004)
(0.00057639132 -0.0011381415 711.93138)
(0.00324392 -0.0010205198 711.93207)
(0.0017259777 -0.00083029467 711.93332)
(-0.00127187 -0.0006391421 711.93288)
(-0.00090446068 -0.00049005195 711.93247)
(-0.0003727266 -0.0003727266 711.93233)
(-0.00031297274 -0.00027909475 711.93237)
(-0.0013058094 -0.00020708588 711.93222)
(-0.0020446573 -0.00015878369 711.93088)
(-0.00064336006 -0.00013556163 711.93006)
(0.00061885478 -0.0011821772 711.93099)
(0.0034280851 -0.0011756451 711.93177)
(0.0019671994 -0.00093554907 711.93313)
(-0.0010660464 -0.0006248136 711.9328)
(-0.00076183499 -0.00042672291 711.93246)
(-0.00027909474 -0.00031297274 711.93237)
(-0.00026108219 -0.0002610822 711.93244)
(-0.0012935156 -0.00026684131 711.93229)
(-0.0020652414 -0.00032654632 711.93094)
(-0.00065473692 -0.00042127362 711.93008)
(0.00058074608 -0.0014499836 711.9304)
(0.0034905482 -0.0020370476 711.93117)
(0.0022768092 -0.0020828152 711.93268)
(-0.00076304382 -0.001661381 711.9325)
(-0.00059261983 -0.0014138267 711.93227)
(-0.00020708589 -0.0013058094 711.93222)
(-0.00026684131 -0.0012935156 711.93229)
(-0.0013712736 -0.0013712736 711.93211)
(-0.0021990896 -0.0015292161 711.93067)
(-0.00070651159 -0.0017117908 711.92969)
(0.00022747879 -0.00095862127 711.92944)
(0.0027952535 -0.0020237939 711.92962)
(0.002342866 -0.0028385593 711.93102)
(-0.00039705789 -0.0024017913 711.93102)
(-0.00040626342 -0.0021367657 711.93089)
(-0.0001587837 -0.0020446573 711.93088)
(-0.00032654632 -0.0020652414 711.93094)
(-0.0015292161 -0.0021990896 711.93067)
(-0.0024057587 -0.0024057587 711.92907)
(-0.00077645337 -0.0022514977 711.92793)
(-0.000129369 -0.00010432784 711.92936)
(0.0016106101 -0.00046117562 711.92899)
(0.0018988118 -0.00089409013 711.92994)
(-6.1250144e-05 -0.00075721177 711.93007)
(-0.00023548584 -0.0006702183 711.93004)
(-0.00013556163 -0.00064336005 711.93006)
(-0.00042127363 -0.00065473692 711.93008)
(-0.0017117908 -0.00070651159 711.92969)
(-0.0022514977 -0.00077645337 711.92793)
(-0.00060367094 -0.00060367094 711.92766)
(-0.00039461454 -0.00039461454 710.40272)
(0.004419704 0.0019661711 710.40259)
(0.0043452434 0.00084608796 710.40427)
(-0.0017277359 0.00067382184 710.40385)
(-0.0018617248 0.00068699239 710.40333)
(-0.001508939 0.00074396532 710.40298)
(-0.0016469758 0.00082082834 710.4027)
(-0.0023037367 0.00079234753 710.40219)
(-0.0016467525 0.00026308759 710.4011)
(-0.00018761588 -0.00024426832 710.40082)
(0.0019661711 0.004419704 710.40259)
(0.0062807578 0.0062807578 710.40357)
(0.0024067196 0.004152486 710.4047)
(-0.0019663793 0.0038079108 710.4042)
(-0.0017565096 0.0038585552 710.40371)
(-0.0013081851 0.0040480104 710.40342)
(-0.0015744025 0.0043455538 710.40324)
(-0.0031403478 0.0044952114 710.40277)
(-0.0032016762 0.0034791289 710.40117)
(-0.00069497179 0.0018533533 710.40048)
(0.00084608795 0.0043452434 710.40427)
(0.004152486 0.0024067196 710.4047)
(0.0018723965 0.0018723965 710.40567)
(-0.0020216667 0.0017815545 710.40515)
(-0.0016216252 0.0018625617 710.40469)
(-0.0010219404 0.002069045 710.40447)
(-0.0011997748 0.0024252209 710.40442)
(-0.0031701616 0.0028878115 710.40409)
(-0.0042886106 0.0029775213 710.40237)
(-0.0012714663 0.002373499 710.40126)
(0.00067382184 -0.0017277359 710.40385)
(0.0038079108 -0.0019663793 710.4042)
(0.0017815545 -0.0020216667 710.40515)
(-0.001976214 -0.001976214 710.40464)
(-0.0014690191 -0.0018558591 710.40422)
(-0.00074552595 -0.0016609408 710.40407)
(-0.00075563592 -0.0013654793 710.40412)
(-0.0025880474 -0.00093556771 710.40395)
(-0.0037159887 -0.00043900273 710.40238)
(-0.0010976533 -3.9607888e-06 710.40138)
(0.00068699238 -0.0018617248 710.40333)
(0.0038585552 -0.0017565096 710.40371)
(0.0018625617 -0.0016216252 710.40469)
(-0.0018558591 -0.0014690191 710.40422)
(-0.001306352 -0.001306352 710.40384)
(-0.00053156059 -0.0011285054 710.40374)
(-0.00047440171 -0.00092587669 710.40386)
(-0.002243685 -0.00068845649 710.40379)
(-0.0033570037 -0.00043440285 710.40232)
(-0.00098143834 -0.0002074728 710.4014)
(0.00074396532 -0.001508939 710.40298)
(0.0040480104 -0.0013081851 710.40342)
(0.002069045 -0.0010219404 710.40447)
(-0.0016609408 -0.00074552595 710.40407)
(-0.0011285054 -0.00053156058 710.40374)
(-0.0003650506 -0.00036505059 710.4037)
(-0.00031558702 -0.00023555147 710.40387)
(-0.0020965736 -0.00014151149 710.40383)
(-0.003235005 -8.760803e-05 710.4024)
(-0.0009463666 -7.232592e-05 710.4015)
(0.00082082833 -0.0016469758 710.4027)
(0.0043455538 -0.0015744025 710.40324)
(0.0024252209 -0.0011997748 710.40442)
(-0.0013654793 -0.00075563591 710.40412)
(-0.00092587668 -0.00047440171 710.40386)
(-0.00023555147 -0.00031558703 710.40387)
(-0.00025086261 -0.0002508626 710.40406)
(-0.0020957416 -0.00027959255 710.40402)
(-0.0032878181 -0.00040294026 710.40256)
(-0.00097125027 -0.00059327637 710.40161)
(0.00079234753 -0.0023037367 710.40219)
(0.0044952114 -0.0031403478 710.40277)
(0.0028878115 -0.0031701616 710.40409)
(-0.00093556771 -0.0025880474 710.40395)
(-0.00068845649 -0.002243685 710.40379)
(-0.00014151149 -0.0020965736 710.40383)
(-0.00027959255 -0.0020957416 710.40402)
(-0.0022486512 -0.0022486512 710.40393)
(-0.0035486889 -0.0025579896 710.40235)
(-0.0010732573 -0.0029233598 710.40124)
(0.00026308759 -0.0016467524 710.4011)
(0.0034791289 -0.0032016762 710.40117)
(0.0029775213 -0.0042886106 710.40237)
(-0.00043900273 -0.0037159887 710.40238)
(-0.00043440285 -0.0033570037 710.40232)
(-8.7608035e-05 -0.003235005 710.4024)
(-0.00040294026 -0.0032878181 710.40256)
(-0.0025579896 -0.0035486889 710.40235)
(-0.0039625266 -0.0039625266 710.40054)
(-0.0012148304 -0.0033184074 710.39916)
(-0.00024426832 -0.00018761588 710.40082)
(0.0018533532 -0.00069497179 710.40048)
(0.002373499 -0.0012714663 710.40126)
(-3.9607946e-06 -0.0010976533 710.40138)
(-0.0002074728 -0.00098143834 710.4014)
(-7.2325914e-05 -0.0009463666 710.4015)
(-0.00059327637 -0.00097125026 710.40161)
(-0.0029233598 -0.0010732573 710.40124)
(-0.0033184074 -0.0012148304 710.39916)
(-0.00064384453 -0.00064384453 710.39905)
(-0.00045106218 -0.00045106218 709.71343)
(0.0051239151 0.0022628974 709.71325)
(0.0049221467 0.00096526879 709.71475)
(-0.0021835542 0.00076951065 709.71433)
(-0.0022577909 0.00079089572 709.71386)
(-0.0017734058 0.00086973 709.7136)
(-0.0019773461 0.00098319346 709.71343)
(-0.0030510665 0.00097065442 709.71306)
(-0.0023323636 0.00027530915 709.71207)
(-0.00029189055 -0.00035402211 709.71177)
(0.0022628974 0.0051239151 709.71325)
(0.0072484116 0.0072484116 709.71409)
(0.0026820666 0.0047839489 709.71507)
(-0.0024451138 0.0043958609 709.71458)
(-0.0021074619 0.0044741547 709.71414)
(-0.0014849592 0.0047317778 709.71394)
(-0.0018259594 0.0051465964 709.71388)
(-0.004112893 0.0053930678 709.71357)
(-0.0043193784 0.0040684948 709.71209)
(-0.0009212218 0.0020572344 709.71144)
(0.00096526879 0.0049221467 709.71475)
(0.0047839489 0.0026820666 709.71507)
(0.002069596 0.002069596 709.71592)
(-0.0024933483 0.0019776565 709.71542)
(-0.001921874 0.002093318 709.71501)
(-0.0011009641 0.0023679622 709.71488)
(-0.0013160561 0.0028393372 709.71495)
(-0.004129168 0.0034529132 709.71478)
(-0.0056681971 0.0035569566 709.71319)
(-0.0016327309 0.0027987986 709.71215)
(0.00076951065 -0.0021835542 709.71433)
(0.0043958609 -0.0024451138 709.71458)
(0.0019776565 -0.0024933483 709.71542)
(-0.0024213917 -0.0024213917 709.71493)
(-0.0017171562 -0.0022582124 709.71456)
(-0.00073894005 -0.0020020252 709.7145)
(-0.00074100842 -0.0016180606 709.71467)
(-0.0033952735 -0.0010653028 709.71465)
(-0.004973493 -0.00044889962 709.7132)
(-0.0014266605 7.3478181e-05 709.71226)
(0.00079089572 -0.0022577909 709.71386)
(0.0044741547 -0.0021074619 709.71414)
(0.0020933181 -0.001921874 709.71501)
(-0.0022582124 -0.0017171562 709.71456)
(-0.0015025075 -0.0015025075 709.71424)
(-0.00046081236 -0.0012711522 709.71424)
(-0.00037933371 -0.0010106331 709.71448)
(-0.0029600071 -0.00070902067 709.71455)
(-0.004529416 -0.00039412842 709.71319)
(-0.001284479 -0.00011862244 709.71232)
(0.00086973 -0.0017734058 709.7136)
(0.0047317778 -0.0014849592 709.71394)
(0.0023679622 -0.0011009642 709.71488)
(-0.0020020252 -0.00073894005 709.7145)
(-0.0012711522 -0.00046081237 709.71424)
(-0.00024706574 -0.00024706574 709.71428)
(-0.00017887691 -8.5145714e-05 709.71456)
(-0.0027787688 2.559682e-05 709.71467)
(-0.0043830948 7.7681686e-05 709.71334)
(-0.0012429898 7.748288e-05 709.71249)
(0.00098319346 -0.0019773461 709.71343)
(0.0051465964 -0.0018259594 709.71388)
(0.0028393372 -0.0013160561 709.71495)
(-0.0016180606 -0.00074100842 709.71467)
(-0.0010106331 -0.00037933371 709.71448)
(-8.5145709e-05 -0.00017887691 709.71456)
(-0.00010667114 -0.00010667114 709.71487)
(-0.0027971797 -0.00016769062 709.71497)
(-0.00447753 -0.0003709442 709.7136)
(-0.0012846115 -0.00068065876 709.7127)
(0.00097065442 -0.0030510665 709.71306)
(0.0053930678 -0.004112893 709.71357)
(0.0034529132 -0.004129168 709.71478)
(-0.0010653028 -0.0033952735 709.71465)
(-0.00070902067 -0.002960007 709.71455)
(2.5596824e-05 -0.0027787688 709.71467)
(-0.00016769062 -0.0027971797 709.71497)
(-0.0030430419 -0.0030430418 709.71501)
(-0.0048960629 -0.0035453102 709.71351)
(-0.0014494662 -0.0041663106 709.71241)
(0.00027530915 -0.0023323636 709.71207)
(0.0040684949 -0.0043193785 709.71209)
(0.0035569566 -0.0056681971 709.71319)
(-0.00044889962 -0.004973493 709.7132)
(-0.00039412841 -0.004529416 709.71319)
(7.7681679e-05 -0.0043830948 709.71334)
(-0.0003709442 -0.00447753 709.7136)
(-0.0035453102 -0.0048960629 709.71351)
(-0.0056007987 -0.0056007987 709.71174)
(-0.0016986118 -0.0044333963 709.71029)
(-0.00035402211 -0.00029189054 709.71177)
(0.0020572344 -0.0009212218 709.71144)
(0.0027987986 -0.0016327309 709.71215)
(7.3478178e-05 -0.0014266605 709.71226)
(-0.00011862244 -0.001284479 709.71232)
(7.7482882e-05 -0.0012429898 709.71249)
(-0.00068065876 -0.0012846115 709.7127)
(-0.0041663106 -0.0014494662 709.71241)
(-0.0044333963 -0.0016986118 709.71029)
(-0.00067119791 -0.00067119791 709.71022)
(-0.00051427526 -0.00051427526 709.81537)
(0.0057427548 0.0025247928 709.81517)
(0.0054208165 0.0010593121 709.81652)
(-0.0026199853 0.00084265203 709.81609)
(-0.0025926617 0.00087296826 709.81567)
(-0.0019439002 0.00097380765 709.81547)
(-0.0021823621 0.0011242552 709.81541)
(-0.0036616665 0.0011302219 709.81517)
(-0.0029346743 0.00027685009 709.81432)
(-0.00038499818 -0.00046319204 709.81407)
(0.0025247928 0.0057427548 709.81517)
(0.0081031358 0.0081031358 709.81591)
(0.0028976053 0.0053237933 709.81677)
(-0.002899501 0.0048995552 709.81628)
(-0.0023959283 0.0050082208 709.81588)
(-0.0015669698 0.0053347457 709.81575)
(-0.0019477407 0.0058673199 709.8158)
(-0.0049327742 0.0062145571 709.81562)
(-0.0053247953 0.0045966722 709.81431)
(-0.0011250403 0.0022298564 709.81374)
(0.0010593121 0.0054208165 709.81652)
(0.0053237933 0.0028976053 709.81677)
(0.0022172359 0.0022172359 709.81751)
(-0.0029355579 0.0021301482 709.81701)
(-0.0021574712 0.0022834201 709.81665)
(-0.0010848011 0.0026270492 709.8166)
(-0.0013025507 0.0032129242 709.81677)
(-0.0049323142 0.0039757796 709.81674)
(-0.006919375 0.0040937338 709.81532)
(-0.0019628753 0.0031917321 709.81438)
(0.00084265202 -0.0026199853 709.81609)
(0.0048995552 -0.002899501 709.81628)
(0.0021301482 -0.0029355579 709.81701)
(-0.0028333168 -0.0028333168 709.81653)
(-0.0018990273 -0.0026253886 709.81622)
(-0.00063746562 -0.0023077415 709.81623)
(-0.00059901025 -0.0018366939 709.8165)
(-0.0040519647 -0.0011645235 709.81662)
(-0.0061088427 -0.00043442729 709.81534)
(-0.0017263747 0.00016982615 709.8145)
(0.00087296826 -0.0025926617 709.81567)
(0.0050082208 -0.0023959283 709.81588)
(0.0022834201 -0.0021574712 709.81665)
(-0.0026253886 -0.0018990273 709.81622)
(-0.0016318959 -0.0016318959 709.81595)
(-0.00029610644 -0.00134777 709.81601)
(-0.00015933279 -0.0010313141 709.81636)
(-0.0035300476 -0.00066874225 709.81656)
(-0.0055850253 -0.00029756536 709.81536)
(-0.0015600397 2.2282265e-05 709.81459)
(0.00097380765 -0.0019439002 709.81547)
(0.0053347457 -0.0015669698 709.81575)
(0.0026270492 -0.0010848011 709.8166)
(-0.0023077415 -0.00063746562 709.81623)
(-0.00134777 -0.00029610644 709.81601)
(-3.6883837e-05 -3.6883834e-05 709.81613)
(8.001752e-05 0.00015475385 709.81651)
(-0.003318216 0.00027855289 709.81675)
(-0.0054178182 0.00032455523 709.81558)
(-0.001513143 0.00030552702 709.81482)
(0.0011242552 -0.0021823621 709.81541)
(0.0058673199 -0.0019477406 709.8158)
(0.0032129242 -0.0013025507 709.81677)
(-0.0018366939 -0.00059901026 709.8165)
(-0.0010313141 -0.0001593328 709.81636)
(0.00015475385 8.0017514e-05 709.81651)
(0.00015610393 0.00015610393 709.81691)
(-0.0033602463 5.768252e-05 709.81714)
(-0.0055580511 -0.00023287651 709.81593)
(-0.0015727252 -0.00067109126 709.81512)
(0.0011302219 -0.0036616665 709.81517)
(0.0062145571 -0.0049327742 709.81562)
(0.0039757796 -0.0049323142 709.81674)
(-0.0011645236 -0.0040519647 709.81662)
(-0.00066874226 -0.0035300476 709.81656)
(0.00027855289 -0.003318216 709.81675)
(5.7682525e-05 -0.0033602463 709.81714)
(-0.0037071964 -0.0037071964 709.81731)
(-0.006146592 -0.0044201766 709.81596)
(-0.0018052861 -0.0053283983 709.81494)
(0.00027685009 -0.0029346743 709.81432)
(0.0045966722 -0.0053247953 709.81431)
(0.0040937338 -0.0069193749 709.81532)
(-0.00043442729 -0.0061088427 709.81534)
(-0.00029756536 -0.0055850253 709.81536)
(0.00032455522 -0.0054178182 709.81558)
(-0.00023287651 -0.0055580511 709.81593)
(-0.0044201766 -0.006146592 709.81596)
(-0.007179253 -0.007179253 709.81432)
(-0.0021782063 -0.0055143355 709.81292)
(-0.00046319204 -0.00038499818 709.81407)
(0.0022298564 -0.0011250403 709.81374)
(0.0031917322 -0.0019628753 709.81438)
(0.00016982614 -0.0017263747 709.8145)
(2.2282254e-05 -0.0015600397 709.81459)
(0.00030552702 -0.001513143 709.81482)
(-0.00067109125 -0.0015727252 709.81512)
(-0.0053283983 -0.0018052861 709.81494)
(-0.0055143355 -0.0021782063 709.81292)
(-0.00069534115 -0.00069534116 709.81286)
(-0.00058451196 -0.00058451196 710.65705)
(0.0062748581 0.0027521136 710.65683)
(0.0058408341 0.0011294547 710.65802)
(-0.0030387413 0.00089419224 710.65758)
(-0.0028732668 0.00093387483 710.6572)
(-0.0020323058 0.0010566416 710.65707)
(-0.0022772274 0.0012440745 710.6571)
(-0.0041410477 0.0012707676 710.65698)
(-0.0034383664 0.00026949896 710.65626)
(-0.00045837181 -0.00057274856 710.65608)
(0.0027521136 0.0062748581 710.65683)
(0.0088458081 0.0088458081 710.65745)
(0.0030539521 0.0057734523 710.6582)
(-0.0033321112 0.0053189205 710.65771)
(-0.0026295927 0.0054595566 710.65735)
(-0.0015670062 0.0058548948 710.65729)
(-0.0019560384 0.0065046587 710.65742)
(-0.0056029111 0.006956124 710.65737)
(-0.0062036406 0.0050663762 710.65623)
(-0.0013006193 0.0023709601 710.65575)
(0.0011294547 0.0058408341 710.65802)
(0.0057734523 0.0030539521 710.6582)
(0.0023139464 0.0023139464 710.65883)
(-0.0033526369 0.0022356782 710.65834)
(-0.0023372925 0.002428224 710.65802)
(-0.00098720366 0.0028407934 710.65803)
(-0.0011759982 0.0035397222 710.65828)
(-0.0055793303 0.0044502212 710.65838)
(-0.0080235302 0.0045862834 710.65714)
(-0.0022553158 0.0035533654 710.65633)
(0.00089419224 -0.0030387413 710.65758)
(0.0053189205 -0.0033321112 710.65771)
(0.0022356782 -0.0033526369 710.65834)
(-0.0032178336 -0.0032178336 710.65787)
(-0.0020244775 -0.0029641952 710.65759)
(-0.00045550799 -0.0025854578 710.65767)
(-0.00034661061 -0.0020290519 710.65803)
(-0.0045563498 -0.0012406541 710.65827)
(-0.0071004964 -0.00040078152 710.65717)
(-0.0019892313 0.00028231282 710.65644)
(0.00093387483 -0.0028732668 710.6572)
(0.0054595566 -0.0026295927 710.65735)
(0.002428224 -0.0023372925 710.65802)
(-0.0029641952 -0.0020244775 710.65759)
(-0.0017049167 -0.0017049167 710.65736)
(-5.2060412e-05 -0.0013689263 710.6575)
(0.00016880556 -0.00099830459 710.65792)
(-0.0039510598 -0.00057736358 710.65825)
(-0.0065005633 -0.00015298476 710.65723)
(-0.0017999196 0.00020858852 710.65657)
(0.0010566416 -0.0020323058 710.65707)
(0.0058548948 -0.0015670062 710.65729)
(0.0028407934 -0.00098720366 710.65803)
(-0.0025854578 -0.00045550799 710.65767)
(-0.0013689264 -5.2060415e-05 710.6575)
(0.00025110409 0.00025110409 710.65767)
(0.00044495216 0.00047047807 710.65814)
(-0.00371103 0.00060504429 710.6585)
(-0.0063145443 0.00064279169 710.6575)
(-0.0017481825 0.00060376563 710.65685)
(0.0012440745 -0.0022772274 710.6571)
(0.0065046587 -0.0019560384 710.65742)
(0.0035397222 -0.0011759982 710.65828)
(-0.0020290519 -0.00034661061 710.65803)
(-0.0009983046 0.00016880555 710.65792)
(0.00047047807 0.00044495215 710.65814)
(0.00052274576 0.00052274574 710.65862)
(-0.0037787462 0.00038464014 710.65897)
(-0.006501842 4.4783576e-06 710.65793)
(-0.001825937 -0.00056399033 710.65723)
(0.0012707676 -0.0041410477 710.65698)
(0.006956124 -0.0056029111 710.65737)
(0.0044502212 -0.0055793303 710.65838)
(-0.0012406541 -0.0045563498 710.65827)
(-0.00057736358 -0.0039510598 710.65825)
(0.00060504429 -0.00371103 710.6585)
(0.00038464014 -0.0037787462 710.65897)
(-0.0042292974 -0.0042292974 710.65924)
(-0.0072631748 -0.0051579564 710.65807)
(-0.0021271616 -0.0063629601 710.65716)
(0.00026949896 -0.0034383664 710.65626)
(0.0050663762 -0.0062036407 710.65623)
(0.0045862834 -0.0080235302 710.65714)
(-0.00040078152 -0.0071004964 710.65717)
(-0.00015298476 -0.0065005633 710.65723)
(0.00064279169 -0.0063145443 710.6575)
(4.4783623e-06 -0.006501842 710.65793)
(-0.0051579564 -0.0072631748 710.65807)
(-0.0086355048 -0.0086355047 710.6566)
(-0.0026292728 -0.0065075427 710.65531)
(-0.00057274856 -0.00045837181 710.65608)
(0.0023709601 -0.0013006193 710.65575)
(0.0035533654 -0.0022553159 710.65633)
(0.00028231282 -0.0019892313 710.65644)
(0.00020858852 -0.0017999196 710.65657)
(0.00060376563 -0.0017481825 710.65685)
(-0.00056399032 -0.001825937 710.65723)
(-0.0063629601 -0.0021271616 710.65716)
(-0.0065075427 -0.0026292728 710.65531)
(-0.00070852027 -0.00070852027 710.65529)
(-0.00066248117 -0.00066248117 712.18378)
(0.0067159218 0.0029432997 712.18353)
(0.0061795212 0.0011751698 712.18457)
(-0.0034404337 0.00092357764 712.18413)
(-0.0031040169 0.00097288993 712.18378)
(-0.0020468114 0.0011173169 712.18371)
(-0.0022720402 0.0013414617 712.18382)
(-0.0044946107 0.0013909426 712.18382)
(-0.0038398124 0.00025328211 712.18323)
(-0.00050942396 -0.00068246293 712.18311)
(0.0029432997 0.0067159218 712.18353)
(0.0094723982 0.0094723982 712.18405)
(0.0031499381 0.0061304165 712.18467)
(-0.0037438535 0.0056509835 712.18418)
(-0.002813408 0.0058245162 712.18387)
(-0.0014939538 0.0062879075 712.18386)
(-0.0018616017 0.0070534341 712.18408)
(-0.00612688 0.0076120561 712.18414)
(-0.0069499207 0.0054752176 712.18317)
(-0.001445169 0.0024796172 712.18279)
(0.0011751698 0.0061795212 712.18457)
(0.0061304165 0.0031499381 712.18467)
(0.0023581065 0.0023581065 712.18519)
(-0.0037463341 0.0022917237 712.1847)
(-0.0024670928 0.0025244036 712.18442)
(-0.00081789349 0.0030051766 712.18449)
(-0.00094789162 0.0038149825 712.18483)
(-0.0060728273 0.0048709927 712.18504)