/*--------------------------------*- C++ -*----------------------------------*\
| =========                 |                                                 |
| \\      /  F ield         | OpenFOAM: The Open Source CFD Toolbox           |
|  \\    /   O peration     | Version:  v2106                                 |
|   \\  /    A nd           | Website:  www.openfoam.com                      |
|    \\/     M anipulation  |                                                 |
\*---------------------------------------------------------------------------*/
FoamFile
{
    version     2.0;
    format      ascii;
    arch        "LSB;label=32;scalar=64";
    class       volScalarField;
    location    "30";
    object      laplacianT;
}
// * * * * * * * * * * * * * * * * * * * * * * * * * * * * * * * * * * * * * //

dimensions      [0 -2 0 1 0 0 0];

internalField   nonuniform List<scalar> 
4000
(
34987.061
34987.563
34987.177
34987.349
34987.333
34987.303
34987.276
34987.247
34987.215
34987.2
34987.563
34987.199
34987.241
34987.371
34987.346
34987.316
34987.29
34987.257
34987.217
34987.222
34987.177
34987.241
34987.169
34987.279
34987.253
34987.226
34987.203
34987.167
34987.112
34987.152
34987.349
34987.371
34987.279
34987.386
34987.362
34987.338
34987.32
34987.288
34987.227
34987.235
34987.333
34987.346
34987.253
34987.362
34987.34
34987.319
34987.305
34987.279
34987.224
34987.236
34987.303
34987.316
34987.226
34987.338
34987.319
34987.301
34987.289
34987.266
34987.215
34987.229
34987.276
34987.29
34987.203
34987.32
34987.305
34987.289
34987.279
34987.257
34987.206
34987.22
34987.247
34987.257
34987.167
34987.288
34987.279
34987.266
34987.257
34987.234
34987.182
34987.194
34987.215
34987.217
34987.112
34987.227
34987.224
34987.215
34987.206
34987.182
34987.126
34987.137
34987.2
34987.222
34987.152
34987.235
34987.236
34987.229
34987.22
34987.194
34987.137
34987.154
-286.63876
-285.24134
-287.03377
-286.45803
-286.37629
-286.37709
-286.38295
-286.39271
-286.40655
-286.40784
-285.24134
-286.20654
-286.71751
-286.22388
-286.16853
-286.17639
-286.19055
-286.20248
-286.13924
-286.13609
-287.03377
-286.71751
-287.44937
-286.99808
-286.94735
-286.95707
-286.98157
-287.0239
-286.95182
-286.63333
-286.45803
-286.22388
-286.99808
-286.55307
-286.50255
-286.51183
-286.53917
-286.6033
-286.6044
-286.43731
-286.37629
-286.16853
-286.94735
-286.50255
-286.45158
-286.4601
-286.48592
-286.54863
-286.55158
-286.40197
-286.37709
-286.17639
-286.95707
-286.51183
-286.4601
-286.4682
-286.49335
-286.5546
-286.55527
-286.40476
-286.38295
-286.19055
-286.98157
-286.53917
-286.48592
-286.49335
-286.51847
-286.57966
-286.58
-286.42793
-286.39271
-286.20248
-287.0239
-286.6033
-286.54863
-286.5546
-286.57966
-286.64123
-286.64177
-286.48476
-286.40655
-286.13924
-286.95182
-286.6044
-286.55158
-286.55527
-286.58
-286.64177
-286.64087
-286.46481
-286.40784
-286.13609
-286.63333
-286.43731
-286.40197
-286.40476
-286.42793
-286.48476
-286.46481
-286.24335
-196.082
-194.47621
-196.65727
-195.85274
-195.74027
-195.74408
-195.75882
-195.77758
-195.75507
-195.99413
-194.47621
-195.82233
-196.3987
-195.70887
-195.63203
-195.64937
-195.68842
-195.72277
-195.41823
-195.44484
-196.65727
-196.3987
-197.26262
-196.62759
-196.55652
-196.57664
-196.63675
-196.74833
-196.47779
-196.08065
-195.85274
-195.70887
-196.62759
-196.00069
-195.92967
-195.94847
-196.01203
-196.15912
-196.00315
-195.83112
-195.74027
-195.63203
-196.55652
-195.92967
-195.85787
-195.87526
-195.93597
-196.08074
-195.92816
-195.78616
-195.74408
-195.64937
-196.57664
-195.94847
-195.87526
-195.89196
-195.95156
-196.09413
-195.93826
-195.79623
-195.75882
-195.68842
-196.63675
-196.01203
-195.93597
-195.95156
-196.01119
-196.15386
-195.99773
-195.8519
-195.77758
-195.72277
-196.74833
-196.15912
-196.08074
-196.09413
-196.15386
-196.29734
-196.14093
-195.97433
-195.75507
-195.41823
-196.47779
-196.00315
-195.92816
-195.93826
-195.99773
-196.14093
-195.9759
-195.71981
-195.99413
-195.44484
-196.08065
-195.83112
-195.78616
-195.79623
-195.8519
-195.97433
-195.71981
-195.64788
-109.97154
-108.03188
-110.64362
-109.63991
-109.49949
-109.50736
-109.53623
-109.56971
-109.41952
-109.73852
-108.03188
-109.60752
-110.30476
-109.44236
-109.34572
-109.37391
-109.44935
-109.544
-108.96092
-108.99426
-110.64362
-110.30476
-111.34764
-110.55111
-110.46108
-110.49202
-110.59602
-110.80704
-110.27758
-109.76106
-109.63991
-109.44236
-110.55111
-109.76445
-109.67431
-109.703
-109.81093
-110.07095
-109.69369
-109.46285
-109.49949
-109.34572
-110.46108
-109.67431
-109.58314
-109.60983
-109.7137
-109.97105
-109.59925
-109.40925
-109.50736
-109.37391
-110.49202
-109.703
-109.60983
-109.63556
-109.73797
-109.99261
-109.617
-109.42834
-109.53623
-109.44935
-110.59602
-109.81093
-109.7137
-109.73797
-109.84055
-110.09578
-109.72058
-109.52621
-109.56971
-109.544
-110.80704
-110.07095
-109.97105
-109.99261
-110.09578
-110.35279
-109.97666
-109.73517
-109.41952
-108.96092
-110.27758
-109.69369
-109.59925
-109.617
-109.72058
-109.97666
-109.57339
-109.07241
-109.73852
-108.99426
-109.76106
-109.46285
-109.40925
-109.42834
-109.52621
-109.73517
-109.07241
-109.32408
-28.394223
-26.151326
-29.186853
-27.995775
-27.828995
-27.841746
-27.890176
-27.960354
-27.716711
-28.105932
-26.151326
-27.952177
-28.775786
-27.750784
-27.635285
-27.674265
-27.789923
-27.965793
-27.13419
-27.18689
-29.186853
-28.775786
-29.999982
-29.05131
-28.943165
-28.984666
-29.135723
-29.465284
-28.6997
-28.079272
-27.995775
-27.750784
-29.05131
-28.114154
-28.005758
-28.044119
-28.199616
-28.591759
-28.014026
-27.735109
-27.828995
-27.635285
-28.943165
-28.005758
-27.896081
-27.931865
-28.082209
-28.471553
-27.901506
-27.673322
-27.841746
-27.674265
-28.984666
-28.044119
-27.931865
-27.966438
-28.114971
-28.501267
-27.927238
-27.702158
-27.890176
-27.789923
-29.135723
-28.199616
-28.082209
-28.114971
-28.263949
-28.651695
-28.079733
-27.848484
-27.960354
-27.965793
-29.465284
-28.591759
-28.471553
-28.501267
-28.651695
-29.043432
-28.472463
-28.166327
-27.716711
-27.13419
-28.6997
-28.014026
-27.901506
-27.927238
-28.079733
-28.472463
-27.857213
-27.064398
-28.105932
-27.18689
-28.079272
-27.735109
-27.673322
-27.702158
-27.848484
-28.166327
-27.064398
-27.654261
48.2033
50.724312
47.290808
48.660167
48.852065
48.834654
48.766424
48.65544
48.979705
48.523177
50.724312
48.710889
47.769662
48.949303
49.082845
49.033686
48.878341
48.617644
49.681206
49.607917
47.290808
47.769662
46.375515
47.468885
47.594377
47.542954
47.345613
46.894831
47.881358
48.597682
48.660167
48.949303
47.468885
48.549171
48.675055
48.627648
48.425335
47.898673
48.663325
48.985301
48.852065
49.082845
47.594377
48.675055
48.802455
48.758187
48.562092
48.038251
48.793028
49.054932
48.834654
49.033686
47.542954
48.627648
48.758187
48.715389
48.521434
48.000917
48.759714
49.01657
48.766424
48.878341
47.345613
48.425335
48.562092
48.521434
48.326746
47.803766
48.558384
48.820804
48.65544
48.617644
46.894831
47.898673
48.038251
48.000917
47.803766
47.274005
48.024067
48.387582
48.979705
49.681206
47.881358
48.663325
48.793028
48.759714
48.558384
48.024067
48.832398
49.922227
48.523177
49.607917
48.597682
48.985301
49.054932
49.01657
48.820804
48.387582
49.922227
49.003597
119.47276
122.25246
118.45161
119.98971
120.20536
120.18351
120.09602
119.94398
120.34212
119.821
122.25246
120.04609
118.99868
120.32456
120.47514
120.41626
120.22234
119.87701
121.15789
121.06329
118.45161
118.99868
117.44888
118.67911
118.82101
118.76016
118.51795
117.94743
119.14037
119.94406
119.98971
120.32456
118.67911
119.89477
120.03721
119.98123
119.73358
119.0744
120.01313
120.3725
120.20536
120.47514
118.82101
120.03721
120.18139
120.12911
119.8887
119.23234
120.15911
120.44956
120.18351
120.41626
118.76016
119.98123
120.1291
120.07855
119.84061
119.18783
120.11862
120.40203
120.09602
120.22234
118.51795
119.73358
119.8887
119.84061
119.60166
118.94538
119.86974
120.15757
119.94398
119.87701
117.94743
119.0744
119.23234
119.18783
118.94538
118.27935
119.1949
119.60861
120.34212
121.15789
119.14037
120.01313
120.15911
120.11862
119.86974
119.1949
120.1809
121.559
119.821
121.06329
119.94406
120.3725
120.44956
120.40203
120.15757
119.60861
121.559
120.32412
185.12497
188.14385
184.00842
185.7047
185.94255
185.91637
185.81017
185.61749
186.08347
185.50009
188.14385
185.76609
184.62449
186.08732
186.2538
186.18556
185.95425
185.52557
187.00849
186.89109
184.00842
184.62449
182.93423
184.29266
184.44989
184.38003
184.09455
183.40718
184.79121
185.67236
185.7047
186.08732
184.29266
185.63515
185.79306
185.72892
185.43759
184.64945
185.74882
186.13877
185.94255
186.2538
184.44989
185.79306
185.95293
185.89301
185.60993
184.82462
185.91008
186.22276
185.91637
186.18556
184.38003
185.72892
185.89301
185.83506
185.55477
184.77328
185.86274
186.16642
185.81017
185.95425
184.09455
185.43759
185.60993
185.55477
185.27319
184.48719
185.56795
185.87463
185.61749
185.52557
183.40718
184.64945
184.82462
184.77328
184.48719
183.68841
184.75585
185.21191
186.08347
187.00849
184.79121
185.74882
185.91008
185.86274
185.56795
184.75585
185.9047
187.55685
185.50009
186.89109
185.67236
186.13877
186.22276
186.16642
185.87463
185.21191
187.55685
186.01916
244.91255
248.1501
243.7144
245.55731
245.81563
245.78523
245.66091
245.42835
245.95603
245.31285
248.1501
245.62336
244.39979
245.98943
246.17054
246.09332
245.82602
245.31592
246.98477
246.84286
243.7144
244.39979
242.58477
244.06195
244.23333
244.15487
243.82796
243.02756
244.58662
245.53464
245.55731
245.98943
244.06195
245.52193
245.69412
245.62222
245.28912
244.37661
245.62262
246.03591
245.81563
246.17054
244.23333
245.69412
245.86849
245.80131
245.47743
244.56776
245.79803
246.12626
245.78523
246.09332
244.15487
245.62222
245.80131
245.73634
245.41554
244.50992
245.74417
246.06148
245.66091
245.82602
243.82796
245.28912
245.47743
245.41554
245.09321
244.18207
245.40537
245.72413
245.42835
245.31592
243.02756
244.37661
244.56776
244.50992
244.18207
243.25519
244.46056
244.95087
245.95603
246.98477
244.58662
245.62262
245.79803
245.74417
245.40537
244.46056
245.75724
247.66665
245.31285
246.84286
245.53464
246.03591
246.12626
246.06148
245.72413
244.95087
247.66665
245.84075
298.62998
302.06473
297.36433
299.34137
299.61834
299.58382
299.44209
299.17069
299.75377
299.05354
302.06473
299.41204
298.11875
299.82429
300.01867
299.93291
299.63123
299.04229
300.88015
300.71208
297.36433
298.11875
296.19503
297.78079
297.96505
297.87848
297.51223
296.60343
298.32078
299.32473
299.34137
299.82429
297.78079
299.34819
299.5334
299.45417
299.08149
298.0501
299.42822
299.85756
299.61834
300.01867
297.96505
299.5334
299.72098
299.64696
299.2844
298.25587
299.61659
299.95366
299.58382
299.93291
297.87848
299.45417
299.64696
299.57537
299.21618
298.1919
299.55656
299.88086
299.44209
299.63123
297.51223
299.08149
299.2844
299.21618
298.8552
297.82444
299.17594
299.50002
299.17069
299.04229
296.60343
298.0501
298.25587
298.1919
297.82444
296.77502
298.10395
298.62036
299.75377
300.88015
298.32078
299.42822
299.61659
299.55656
299.17594
298.10395
299.53306
301.68125
299.05354
300.71208
299.32473
299.85756
299.95366
299.88086
299.50002
298.62036
301.68125
299.58311
346.11516
349.72479
344.79625
346.8941
347.18776
347.14929
346.99096
346.68207
347.31406
346.55989
349.72479
346.96957
345.61882
347.42863
347.63487
347.54106
347.20685
346.54221
348.53151
348.33578
344.79625
345.61882
343.60271
345.2862
345.482
345.38785
344.98461
343.97286
345.83118
346.87996
346.8941
347.42863
345.2862
346.95029
347.14719
347.06114
346.65131
345.50736
347.00267
347.44083
347.18776
347.63487
345.482
347.14719
347.34662
347.26622
346.86738
345.72632
347.20273
347.54205
347.14929
347.54106
345.38785
347.06114
347.26622
347.18847
346.79324
345.65662
347.1369
347.46168
346.99096
347.20685
344.98461
346.65131
346.86738
346.79324
346.396
345.25195
346.71692
347.03974
346.68207
346.54221
343.97286
345.50736
345.72632
345.65662
345.25195
344.0864
345.5242
346.05861
347.31406
348.53151
345.83118
347.00267
347.20273
347.1369
346.71692
345.5242
347.07002
349.43712
346.55989
348.33578
346.87996
347.44083
347.54205
347.46168
347.03974
346.05861
349.43712
347.08408
387.25043
391.01198
385.89253
388.09715
388.40545
388.36322
388.18924
387.84448
388.51878
387.71411
391.01198
388.17783
386.78174
388.68357
388.90019
388.79888
388.43424
387.69762
389.8202
389.59552
385.89253
386.78174
384.68964
386.45945
386.66538
386.56425
386.12664
385.01808
386.99964
388.08211
388.09715
388.68357
386.45945
388.20895
388.41612
388.3238
387.87951
386.63011
388.22742
388.66732
388.40545
388.90019
386.66538
388.41612
388.62599
388.53973
388.10722
386.86076
388.43781
388.77299
388.36322
388.79888
386.56425
388.3238
388.53973
388.4563
388.02765
386.78577
388.36661
388.68557
388.18924
388.43424
386.12664
387.87951
388.10722
388.02765
387.59675
386.34654
387.91
388.2252
387.84448
387.69762
385.01808
386.63011
386.86076
386.78577
386.34654
385.0721
386.60385
387.14826
388.51878
389.8202
386.99964
388.22742
388.43781
388.36661
387.91
386.60385
388.25038
390.81538
387.71411
389.59552
388.08211
388.66732
388.77299
388.68557
388.2252
387.14826
390.81538
388.22605
421.96313
425.85304
420.58037
422.87707
423.1979
423.15212
422.96354
422.5848
423.29476
422.44338
425.85304
422.96356
421.53404
423.51512
423.74058
423.63241
423.23961
422.43526
424.67262
424.41792
420.58037
421.53404
419.38235
421.22656
421.44119
421.3337
420.86456
419.66603
421.75284
422.8579
422.87707
423.51512
421.22656
423.04969
423.26568
423.16768
422.69186
421.34486
423.02879
423.46364
423.1979
423.74058
421.44119
423.26568
423.48452
423.39295
422.92964
421.58561
423.24811
423.57305
423.15212
423.63241
421.3337
423.16768
423.39295
423.30439
422.84513
421.50583
423.17201
423.47915
422.96354
423.23961
420.86456
422.69186
422.92964
422.84513
422.38341
421.03491
422.68173
422.98326
422.5848
422.43526
419.66603
421.34486
421.58561
421.50583
421.03491
419.65956
421.27024
421.81688
423.29476
424.67262
421.75284
423.02879
423.24811
423.17201
422.68173
421.27024
423.00138
425.74233
422.44338
424.41792
422.8579
423.46364
423.57305
423.47915
422.98326
421.81688
425.74233
422.93646
450.22554
454.21986
448.83178
451.20534
451.53652
451.48745
451.28543
450.87488
451.61382
450.71982
454.21986
451.29841
449.84706
451.89418
452.12693
452.01254
451.59408
450.72678
453.06013
452.77462
448.83178
449.84706
447.65203
449.55833
449.78016
449.66701
449.1694
447.88838
450.06229
451.17904
451.20534
451.89418
449.55833
451.44292
451.66624
451.56319
451.05895
449.62287
451.37804
451.80136
451.53652
452.12693
449.78016
451.66624
451.89253
451.79625
451.30517
449.8721
451.60484
451.91379
451.48745
452.01254
449.66701
451.56319
451.79625
451.70312
451.21629
449.78804
451.52433
451.81401
451.28543
451.59408
449.1694
451.05895
451.30517
451.21629
450.72677
449.28853
451.00358
451.28578
450.87488
450.72678
447.88838
449.62287
449.8721
449.78804
449.28853
447.82096
449.49557
450.03698
451.61382
453.06013
450.06229
451.37804
451.60484
451.52433
451.00358
449.49557
451.29524
454.18943
450.71982
452.77462
451.17904
451.80136
451.91379
451.81401
451.28578
450.03698
454.18943
451.18781
472.05446
476.12892
470.66312
473.09793
473.43723
473.38513
473.17093
472.73098
473.49228
472.56007
476.12892
473.19843
471.73647
473.8361
474.07453
473.95465
473.5132
472.58817
474.99866
474.68186
470.66312
471.73647
469.5141
471.46987
471.69739
471.57931
471.05646
469.70101
471.94392
473.06172
473.09793
473.8361
471.46987
473.40343
473.63256
473.52513
472.99578
471.47976
473.29086
473.69658
473.43723
474.07453
471.69739
473.63256
473.86476
473.76439
473.24878
471.7358
473.52364
473.81131
473.38513
473.95465
471.57931
473.52513
473.76439
473.6673
473.15609
471.64801
473.43927
473.7063
473.17093
473.5132
471.05646
472.99578
473.24878
473.15609
472.64201
471.12317
472.89142
473.1491
472.73098
472.58817
469.70101
471.47976
471.7358
471.64801
471.12317
469.5727
471.2964
471.82551
473.49228
474.99866
471.94392
473.29086
473.52364
473.43927
472.89142
471.2964
473.14866
476.17284
472.56007
474.68186
473.06172
473.69658
473.81131
473.7063
473.1491
471.82551
476.17284
472.99713
487.5102
491.6404
486.13416
488.61431
488.95946
488.90465
488.67962
488.21289
488.99003
488.02432
491.6404
488.72318
487.26136
489.39971
489.64222
489.5176
489.05598
488.07891
490.54773
490.1995
486.13416
487.26136
485.02729
487.01967
487.25136
487.1291
486.58442
485.16312
487.45708
488.56572
488.61431
489.39971
487.01967
488.98951
489.22289
489.11179
488.56079
486.97451
488.82647
489.20902
488.95946
489.64222
487.25136
489.22289
489.45945
489.35565
488.81888
487.23568
489.06372
489.3253
488.90465
489.5176
487.1291
489.11179
489.35565
489.25522
488.723
487.14472
488.97602
489.21574
488.67962
489.05598
486.58442
488.56079
488.81888
488.723
488.18771
486.598
488.40466
488.63316
488.21289
488.07891
485.16312
486.97451
487.23568
487.14472
486.598
484.97451
486.73272
487.24293
488.99003
490.54773
487.45708
488.82647
489.06372
488.97602
488.40466
486.73272
488.62192
491.75248
488.02432
490.1995
488.56572
489.20902
489.3253
489.21574
488.63316
487.24293
491.75248
488.42509
496.69527
500.85674
495.34671
497.85609
498.20483
498.14764
497.91319
497.42254
498.20916
497.21492
500.85674
497.9743
496.52285
498.68599
498.93097
498.80239
498.32358
497.30054
499.80909
499.42965
495.34671
496.52285
494.29225
496.30826
496.54256
496.41692
495.85395
494.37586
496.70322
497.79297
497.85609
498.68599
496.30826
498.30152
498.53762
498.42356
497.85452
496.20813
498.08622
498.44057
498.20483
498.93097
496.54256
498.53762
498.77696
498.6704
498.116
496.47272
498.32639
498.55765
498.14764
498.80239
496.41692
498.42356
498.6704
498.5673
498.01754
496.37919
498.23596
498.44426
497.91319
498.32358
495.85395
497.85452
498.116
498.01754
497.46456
495.81416
497.64479
497.84003
497.42254
497.30054
494.37586
496.20813
496.47272
496.37919
495.81416
494.12804
495.90658
496.39183
498.20916
499.80909
496.70322
498.08622
498.32639
498.23596
497.64479
495.90658
497.81744
501.03067
497.21492
499.42965
497.79297
498.44057
498.55765
498.44426
497.84003
496.39183
501.03067
497.57461
499.75251
503.92087
498.44281
500.96524
501.31529
501.25607
501.0137
500.50217
501.29209
500.27458
503.92087
501.09372
499.66226
501.83622
502.08207
501.95037
501.45744
500.39487
502.92488
502.51487
498.44281
499.66226
497.44975
499.47636
499.71176
499.58354
499.00595
497.48051
499.82404
500.88577
500.96524
501.83622
499.47636
501.48016
501.71744
501.60117
501.0178
499.32187
501.21179
501.53353
501.31529
502.08207
499.71176
501.71744
501.95799
501.84938
501.28096
499.58815
501.45334
501.65067
501.25607
501.95037
499.58354
501.60117
501.84938
501.74428
501.18058
499.49268
501.36076
501.53418
501.0137
501.45744
499.00595
501.0178
501.28096
501.18058
500.61351
498.91302
500.75363
500.9122
500.50217
500.39487
497.48051
499.32187
499.58815
499.49268
498.91302
497.17507
498.96023
499.4151
501.29209
502.92488
499.82404
501.21179
501.45334
501.36076
500.75363
498.96023
500.87802
504.15025
500.27458
502.51487
500.88577
501.53353
501.65067
501.53418
500.9122
499.4151
504.15025
500.58898
496.86288
501.01395
495.60253
498.12183
498.47094
498.41007
498.16134
497.63213
498.41945
497.38414
501.01395
498.26148
496.85899
499.02984
499.27497
499.14099
498.63713
497.54178
500.07544
499.63593
495.60253
496.85899
494.67853
496.70275
496.93772
496.80778
496.21931
494.6563
496.99933
498.02458
498.12183
499.02984
496.70275
498.70425
498.94118
498.82346
498.22955
496.49497
498.38298
498.66839
498.47094
499.27497
496.93772
498.94118
499.1814
499.07143
498.49271
496.76125
498.62438
498.78484
498.41007
499.14099
496.80778
498.82346
499.07143
498.96502
498.39105
496.66447
498.53026
498.66602
498.16134
498.63713
496.21931
498.22955
498.49271
498.39105
497.8136
496.07394
497.91111
498.03028
497.63213
497.54178
494.6563
496.49497
496.76125
496.66447
496.07394
494.29533
496.074
496.49374
498.41945
500.07544
496.99933
498.38298
498.62438
498.53026
497.91111
496.074
497.98459
501.29242
497.38414
499.63593
498.02458
498.66839
498.78484
498.66602
498.03028
496.49374
501.29242
497.64971
488.24295
492.35285
487.04139
489.54156
489.88751
489.82538
489.57188
489.02835
489.80744
488.76005
492.35285
489.69316
488.32791
490.48187
490.72473
490.58934
490.0778
488.95667
491.47677
491.00927
487.04139
488.32791
486.19274
488.20172
488.43477
488.30395
487.70841
486.11788
488.44441
489.4255
489.54156
490.48187
488.20172
490.1882
490.42328
490.30488
489.70429
487.94222
489.8152
490.06128
489.88751
490.72473
488.43477
490.42328
490.66165
490.55105
489.96577
488.20681
490.05492
490.17631
489.82538
490.58934
488.30395
490.30488
490.55105
490.44403
489.86351
488.10934
489.9599
490.05593
489.57188
490.0778
487.70841
489.70429
489.96577
489.86351
489.27942
487.51178
489.33273
489.41053
489.02835
488.95667
486.11788
487.94222
488.20681
488.10934
487.51178
485.70393
487.46367
487.84428
489.80744
491.47677
488.44441
489.8152
490.05492
489.9599
489.33273
487.46367
489.35366
492.67413
488.76005
491.00927
489.4255
490.06128
490.17631
490.05593
489.41053
487.84428
492.67413
488.97394
474.142
478.18726
473.00759
475.47285
475.81347
475.75049
475.49385
474.93948
475.70506
474.65149
478.18726
475.63702
474.31657
476.44009
476.67916
476.54325
476.02733
474.88765
477.37769
476.88417
473.00759
474.31657
472.23913
474.22023
474.44992
474.31906
473.7203
472.1125
474.40729
475.33735
475.47285
476.44009
474.22023
476.17921
476.41096
476.29266
475.68926
473.91103
475.75662
475.96111
475.81347
476.67916
474.44992
476.41096
476.64599
476.53549
475.94743
474.17227
475.99315
476.07401
475.75049
476.54325
474.31906
476.29266
476.53549
476.42855
475.84524
474.07476
475.89785
475.95285
475.49385
476.02733
473.7203
475.68926
475.94743
475.84524
475.25828
473.47403
475.26671
475.30193
474.93948
474.88765
472.1125
473.91103
474.17227
474.07476
473.47403
471.64857
473.37769
473.71598
475.70506
477.37769
474.40729
475.75662
475.99315
475.89785
475.26671
473.37769
475.23449
478.54527
474.65149
476.88417
475.33735
475.96111
476.07401
475.95285
475.30193
473.71598
478.54527
474.81159
454.83893
458.79661
453.77887
456.19379
456.52696
456.46355
456.20545
455.64382
456.39095
455.33727
458.79661
456.37096
455.10211
457.18194
457.41576
457.28022
456.76326
455.61242
458.0567
457.53962
453.77887
455.10211
453.09399
455.03486
455.25978
455.12975
454.53162
452.9169
455.1656
456.03866
456.19379
457.18194
455.03486
456.95413
457.18114
457.0637
456.46138
454.67841
456.48504
456.64651
456.52696
457.41576
455.25978
457.18114
457.41138
457.3017
456.71465
454.9347
456.71693
456.75658
456.46355
457.28022
455.12975
457.0637
457.3017
457.19556
456.61321
454.83779
456.62198
456.63543
456.20545
456.76326
454.53162
456.46138
456.71465
456.61321
456.02715
454.23776
455.99093
455.98317
455.64382
455.61242
452.9169
454.67841
454.9347
454.83779
454.23776
452.4064
454.09407
454.38765
456.39095
458.0567
455.1656
456.48504
456.71693
456.62198
455.99093
454.09407
455.90597
459.18554
455.33727
457.53962
456.03866
456.64651
456.75658
456.63543
455.98317
454.38765
459.18554
455.44225
430.63897
434.48672
429.65922
432.00882
432.3325
432.2691
432.0112
431.44597
432.17012
431.12256
434.48672
432.19919
430.98796
433.01128
433.23844
433.10416
432.58951
431.435
433.81871
433.281
429.65922
430.98796
429.05984
430.94853
431.16732
431.03897
430.44532
428.8341
431.02327
431.8343
432.00882
433.01128
430.94853
432.81626
433.03715
432.92135
432.32396
430.54771
432.30467
432.42247
432.3325
433.23844
431.16732
433.03715
433.26121
433.15307
432.57078
430.79747
432.53049
432.52904
432.2691
433.10416
431.03897
432.92135
433.15307
433.04842
432.47076
430.70181
432.43651
432.4087
432.0112
432.58951
430.44532
432.32396
432.57078
432.47076
431.88937
430.10633
431.8096
431.75927
431.44597
431.435
428.8341
430.54771
430.79747
430.70181
430.10633
428.28083
429.91708
430.16443
432.17012
433.81871
431.02327
432.30467
432.53049
432.43651
431.8096
429.91708
431.67332
434.90111
431.12256
433.281
431.8343
432.42247
432.52904
432.4087
431.75927
430.16443
434.90111
431.17185
401.87024
405.58642
400.9755
403.24532
403.55758
403.49461
403.2386
402.67347
403.37052
402.33543
405.58642
403.44883
402.30046
404.2549
404.47409
404.34195
403.83292
402.6823
404.99164
404.4367
400.9755
402.30046
400.4621
402.28708
402.49845
402.37261
401.78724
400.18991
402.30715
403.05211
403.24532
404.2549
402.28708
404.09186
404.30534
404.19193
403.60328
401.84515
403.54265
403.61698
403.55758
404.47409
402.49845
404.30534
404.52189
404.416
403.84219
402.08688
403.76103
403.7194
403.49461
404.34195
402.37261
404.19193
404.416
404.31352
403.74424
401.9931
403.66865
403.60064
403.2386
403.83292
401.78724
403.60328
403.84219
403.74424
403.17122
401.40596
403.04987
402.95819
402.67347
402.6823
400.18991
401.84515
402.08688
401.9931
401.40596
399.59804
401.17384
401.37432
403.37052
404.99164
402.30715
403.54265
403.76103
403.66865
403.04987
401.17384
402.86467
406.0212
402.33543
404.4367
403.05211
403.61698
403.7194
403.60064
402.95819
401.37432
406.0212
402.32926
368.88022
372.44397
368.07388
370.2501
370.54909
370.487
370.23454
369.67325
370.3395
369.32332
372.44397
370.46639
369.38533
371.25911
371.46904
371.33994
370.83982
369.70065
371.92284
371.35456
368.07388
369.38533
367.6455
369.39578
369.59851
369.47601
368.90265
367.32952
369.36349
370.03932
370.2501
371.25911
369.39578
371.12674
371.33156
371.22129
370.64512
368.91636
370.54558
370.57745
370.54909
371.46904
369.59851
371.33156
371.53935
371.4364
370.87471
369.14864
370.75522
370.67511
370.487
371.33994
369.47601
371.22129
371.4364
371.33677
370.77947
369.05735
370.66503
370.55871
370.23454
370.83982
368.90265
370.64512
370.87471
370.77947
370.21847
368.48228
370.05833
369.92734
369.67325
369.70065
367.32952
368.91636
369.14864
369.05735
368.48228
366.70351
368.21081
368.36466
370.3395
371.92284
369.36349
370.54558
370.75522
370.66503
370.05833
368.21081
369.82752
372.89455
369.32332
371.35456
370.03932
370.57745
370.67511
370.55871
369.92734
368.36466
372.89455
369.26274
332.03221
335.42354
331.31636
333.38587
333.66984
333.60908
333.36182
332.80809
333.4403
332.44951
335.42354
333.61424
332.60418
334.38611
334.58562
334.46041
333.97242
332.85222
334.9756
334.39832
331.31636
332.60418
330.97068
332.63582
332.82877
332.71041
332.1527
330.61392
332.5544
333.15908
333.38587
334.38611
332.63582
334.28266
334.47765
334.37124
333.81118
332.12285
333.67597
333.6672
333.66984
334.58562
332.82877
334.47765
334.6755
334.57617
334.03014
332.34433
333.87562
333.75953
333.60908
334.46041
332.71041
334.37124
334.57617
334.48005
333.93824
332.25614
333.78822
333.64624
333.36182
333.97242
332.1527
333.81118
334.03014
333.93824
333.39279
331.69678
333.19745
333.02997
332.80809
332.85222
330.61392
332.12285
332.34433
332.25614
331.69678
329.95853
331.39028
331.49859
333.4403
334.9756
332.5544
333.67597
333.87562
333.78822
333.19745
331.39028
332.92522
335.88584
332.44951
334.39832
333.15908
333.6672
333.75953
333.64624
333.02997
331.49859
335.88584
332.33636
291.7018
294.90167
291.07724
293.02769
293.29502
293.23603
292.99559
292.45311
293.0485
292.08963
294.90167
293.26711
292.33096
294.01055
294.19856
294.07808
293.60536
292.51156
294.52562
293.9441
291.07724
292.33096
290.81059
292.38081
292.56291
292.44949
291.91094
290.41643
292.25435
292.78687
293.02769
294.01055
292.38081
293.93385
294.11795
294.01609
293.47566
291.83853
293.30871
293.26194
293.29502
294.19856
292.56291
294.11795
294.30476
294.2097
293.68274
292.04793
293.49721
293.3484
293.23603
294.07808
292.44949
294.01609
294.2097
294.11771
293.5948
291.96342
293.41318
293.23895
292.99559
293.60536
291.91094
293.47566
293.68274
293.5948
293.06832
291.42329
292.84205
292.64169
292.45311
292.51156
290.41643
291.83853
292.04793
291.96342
291.42329
289.73666
291.08681
291.15155
293.0485
294.52562
292.25435
293.30871
293.49721
293.41318
292.84205
291.08681
292.53343
295.37216
292.08963
293.9441
292.78687
293.26194
293.3484
293.23895
292.64169
291.15155
295.37216
291.9265
248.27339
251.26378
247.73965
249.55954
249.80875
249.75196
249.51992
248.99235
249.54857
248.62812
251.26378
249.80862
248.94857
250.51608
250.69159
250.57666
250.12225
249.06211
250.95752
250.37695
247.73965
248.94857
247.54713
249.01335
249.18363
249.07587
248.55989
247.11927
248.84673
249.30708
249.55954
250.51608
249.01335
250.46359
250.6358
250.53916
250.02173
248.44623
249.82767
249.74628
249.80875
250.69159
249.18363
250.6358
250.81057
250.7204
250.2158
248.64239
250.00394
249.82637
249.75196
250.57666
249.07587
250.53916
250.7204
250.63315
250.13239
248.56211
249.92383
249.72147
249.51992
250.12225
248.55989
250.02173
250.2158
250.13239
249.62817
248.04458
249.37593
249.147
248.99235
249.06211
247.11927
248.44623
248.64239
248.56211
248.04458
246.42032
247.68384
247.70779
249.54857
250.95752
248.84673
249.82767
250.00394
249.92383
249.37593
247.68384
249.03667
251.73955
248.62812
250.37695
249.30708
249.74628
249.82637
249.72147
249.147
247.70779
251.73955
248.41838
202.13689
204.90086
201.69224
203.37101
203.60073
203.54658
203.32446
202.81535
203.33054
202.45495
204.90086
203.62799
202.84552
204.29197
204.45409
204.3455
203.91232
202.89291
204.66155
204.08747
201.69224
202.84552
201.56781
202.92166
203.07926
202.97788
202.48769
201.11024
202.72051
203.10967
203.37101
204.29197
202.92166
204.26085
204.42029
204.32949
203.83828
202.33441
203.62231
203.51042
203.60073
204.45409
203.07926
204.42029
204.5821
204.49741
204.0183
202.51625
203.78536
203.5837
203.54658
204.3455
202.97788
204.32949
204.49741
204.41548
203.93997
202.44075
203.7097
203.48402
203.32446
203.91232
202.48769
203.83828
204.0183
203.93997
203.46113
201.94903
203.18845
202.93597
202.81535
202.89291
201.11024
202.33441
202.51625
202.44075
201.94903
200.39746
201.57032
201.55707
203.33054
204.66155
202.72051
203.62231
203.78536
203.7097
203.18845
201.57032
202.82499
205.37962
202.45495
204.08747
203.10967
203.51042
203.5837
203.48402
202.93597
201.55707
205.37962
202.2027
153.68447
156.20626