/*--------------------------------*- C++ -*----------------------------------*\
| =========                 |                                                 |
| \\      /  F ield         | OpenFOAM: The Open Source CFD Toolbox           |
|  \\    /   O peration     | Version:  v2106                                 |
|   \\  /    A nd           | Website:  www.openfoam.com                      |
|    \\/     M anipulation  |                                                 |
\*---------------------------------------------------------------------------*/
FoamFile
{
    version     2.0;
    format      ascii;
    arch        "LSB;label=32;scalar=64";
    class       volScalarField;
    location    "30";
    object      T;
}
// * * * * * * * * * * * * * * * * * * * * * * * * * * * * * * * * * * * * * //

dimensions      [0 0 0 1 0 0 0];

internalField   nonuniform List<scalar> 
4000
(
274.82951
274.8295
274.82952
274.82952
274.82952
274.82952
274.82951
274.82951
274.82951
274.82951
274.8295
274.82952
274.82952
274.82952
274.82952
274.82952
274.82952
274.82952
274.82951
274.82951
274.82952
274.82952
274.82953
274.82953
274.82953
274.82953
274.82953
274.82952
274.82952
274.82952
274.82952
274.82952
274.82953
274.82953
274.82953
274.82952
274.82952
274.82952
274.82952
274.82952
274.82952
274.82952
274.82953
274.82953
274.82952
274.82952
274.82952
274.82952
274.82952
274.82952
274.82952
274.82952
274.82953
274.82952
274.82952
274.82952
274.82952
274.82952
274.82952
274.82952
274.82951
274.82952
274.82953
274.82952
274.82952
274.82952
274.82952
274.82952
274.82952
274.82952
274.82951
274.82952
274.82952
274.82952
274.82952
274.82952
274.82952
274.82952
274.82952
274.82952
274.82951
274.82951
274.82952
274.82952
274.82952
274.82952
274.82952
274.82952
274.82952
274.82951
274.82951
274.82951
274.82952
274.82952
274.82952
274.82952
274.82952
274.82952
274.82951
274.82951
281.98725
281.98724
281.9873
281.98729
281.98728
281.98727
281.98727
281.98726
281.98725
281.98725
281.98724
281.98727
281.98731
281.9873
281.98729
281.98728
281.98728
281.98727
281.98726
281.98725
281.9873
281.98731
281.98734
281.98733
281.98732
281.98732
281.98731
281.9873
281.98729
281.98727
281.98729
281.9873
281.98733
281.98732
281.98731
281.98731
281.9873
281.9873
281.98729
281.98727
281.98728
281.98729
281.98732
281.98731
281.9873
281.9873
281.9873
281.98729
281.98728
281.98727
281.98727
281.98728
281.98732
281.98731
281.9873
281.9873
281.98729
281.98729
281.98728
281.98727
281.98727
281.98728
281.98731
281.9873
281.9873
281.98729
281.98729
281.98729
281.98728
281.98727
281.98726
281.98727
281.9873
281.9873
281.98729
281.98729
281.98729
281.98729
281.98728
281.98727
281.98725
281.98726
281.98729
281.98729
281.98728
281.98728
281.98728
281.98728
281.98727
281.98725
281.98725
281.98725
281.98727
281.98727
281.98727
281.98727
281.98727
281.98727
281.98725
281.98724
289.11635
289.11634
289.11642
289.11641
289.1164
289.11638
289.11637
289.11636
289.11634
289.11634
289.11634
289.11639
289.11644
289.11643
289.11641
289.1164
289.11639
289.11638
289.11635
289.11634
289.11642
289.11644
289.11649
289.11647
289.11646
289.11645
289.11644
289.11643
289.1164
289.11637
289.11641
289.11643
289.11647
289.11646
289.11644
289.11644
289.11643
289.11642
289.1164
289.11637
289.1164
289.11641
289.11646
289.11644
289.11643
289.11642
289.11642
289.11641
289.11639
289.11637
289.11638
289.1164
289.11645
289.11644
289.11642
289.11642
289.11642
289.11641
289.11639
289.11637
289.11637
289.11639
289.11644
289.11643
289.11642
289.11642
289.11641
289.11641
289.11639
289.11637
289.11636
289.11638
289.11643
289.11642
289.11641
289.11641
289.11641
289.11641
289.11638
289.11636
289.11634
289.11635
289.1164
289.1164
289.11639
289.11639
289.11639
289.11638
289.11636
289.11633
289.11634
289.11634
289.11637
289.11637
289.11637
289.11637
289.11637
289.11636
289.11633
289.11632
296.22586
296.22585
296.22595
296.22594
296.22592
296.2259
296.22589
296.22587
296.22584
296.22583
296.22585
296.22591
296.22598
296.22596
296.22594
296.22592
296.22591
296.22589
296.22585
296.22583
296.22595
296.22598
296.22603
296.22601
296.22599
296.22598
296.22597
296.22596
296.22591
296.22587
296.22594
296.22596
296.22601
296.22599
296.22597
296.22596
296.22596
296.22595
296.22591
296.22587
296.22592
296.22594
296.22599
296.22597
296.22596
296.22595
296.22595
296.22594
296.2259
296.22587
296.2259
296.22592
296.22598
296.22596
296.22595
296.22594
296.22594
296.22594
296.2259
296.22587
296.22589
296.22591
296.22597
296.22596
296.22595
296.22594
296.22594
296.22594
296.2259
296.22587
296.22587
296.22589
296.22596
296.22595
296.22594
296.22594
296.22594
296.22593
296.22589
296.22586
296.22584
296.22585
296.22591
296.22591
296.2259
296.2259
296.2259
296.22589
296.22585
296.22581
296.22583
296.22583
296.22587
296.22587
296.22587
296.22587
296.22587
296.22586
296.22581
296.22579
303.3244
303.32439
303.32451
303.32449
303.32446
303.32444
303.32443
303.3244
303.32437
303.32436
303.32439
303.32446
303.32453
303.32451
303.32449
303.32447
303.32446
303.32443
303.32437
303.32435
303.32451
303.32453
303.3246
303.32458
303.32455
303.32454
303.32453
303.32451
303.32445
303.3244
303.32449
303.32451
303.32458
303.32455
303.32453
303.32452
303.32451
303.3245
303.32444
303.3244
303.32446
303.32449
303.32455
303.32453
303.32451
303.3245
303.3245
303.32449
303.32444
303.3244
303.32444
303.32447
303.32454
303.32452
303.3245
303.32449
303.32449
303.32449
303.32444
303.3244
303.32443
303.32446
303.32453
303.32451
303.3245
303.32449
303.3245
303.32449
303.32444
303.3244
303.3244
303.32443
303.32451
303.3245
303.32449
303.32449
303.32449
303.32448
303.32443
303.32439
303.32437
303.32437
303.32445
303.32444
303.32444
303.32444
303.32444
303.32443
303.32437
303.32432
303.32436
303.32435
303.3244
303.3244
303.3244
303.3244
303.3244
303.32439
303.32432
303.3243
310.42013
310.42012
310.42025
310.42022
310.42019
310.42017
310.42015
310.42013
310.42008
310.42007
310.42012
310.42019
310.42028
310.42025
310.42022
310.4202
310.42019
310.42016
310.42009
310.42006
310.42025
310.42028
310.42035
310.42032
310.42029
310.42028
310.42027
310.42025
310.42017
310.42011
310.42022
310.42025
310.42032
310.42029
310.42027
310.42025
310.42025
310.42024
310.42017
310.42012
310.42019
310.42022
310.42029
310.42027
310.42024
310.42023
310.42024
310.42023
310.42016
310.42012
310.42017
310.4202
310.42028
310.42025
310.42023
310.42023
310.42023
310.42023
310.42017
310.42012
310.42015
310.42019
310.42027
310.42025
310.42024
310.42023
310.42024
310.42024
310.42017
310.42012
310.42013
310.42016
310.42025
310.42024
310.42023
310.42023
310.42024
310.42023
310.42016
310.42011
310.42008
310.42009
310.42017
310.42017
310.42016
310.42017
310.42017
310.42016
310.42008
310.42002
310.42007
310.42006
310.42011
310.42012
310.42012
310.42012
310.42012
310.42011
310.42002
310.42
317.52071
317.52069
317.52084
317.52081
317.52078
317.52075
317.52073
317.52071
317.52065
317.52064
317.52069
317.52078
317.52087
317.52084
317.5208
317.52078
317.52077
317.52075
317.52066
317.52062
317.52084
317.52087
317.52095
317.52092
317.52088
317.52087
317.52086
317.52085
317.52075
317.52069
317.52081
317.52084
317.52092
317.52088
317.52085
317.52084
317.52084
317.52083
317.52075
317.52069
317.52078
317.5208
317.52088
317.52085
317.52083
317.52082
317.52082
317.52082
317.52075
317.52069
317.52075
317.52078
317.52087
317.52084
317.52082
317.52081
317.52082
317.52082
317.52075
317.5207
317.52073
317.52077
317.52086
317.52084
317.52082
317.52082
317.52083
317.52083
317.52076
317.5207
317.52071
317.52075
317.52085
317.52083
317.52082
317.52082
317.52083
317.52083
317.52075
317.52068
317.52065
317.52066
317.52075
317.52075
317.52075
317.52075
317.52076
317.52075
317.52065
317.52058
317.52064
317.52062
317.52069
317.52069
317.52069
317.5207
317.5207
317.52068
317.52058
317.52055
324.63327
324.63325
324.63341
324.63338
324.63334
324.63331
324.6333
324.63327
324.63321
324.63319
324.63325
324.63334
324.63344
324.6334
324.63337
324.63335
324.63334
324.63331
324.63321
324.63317
324.63341
324.63344
324.63353
324.63349
324.63345
324.63344
324.63344
324.63342
324.63332
324.63324
324.63338
324.6334
324.63349
324.63345
324.63342
324.63341
324.63341
324.63341
324.63332
324.63325
324.63334
324.63337
324.63345
324.63342
324.63339
324.63338
324.63339
324.63339
324.63331
324.63325
324.63331
324.63335
324.63344
324.63341
324.63338
324.63338
324.6334
324.6334
324.63332
324.63326
324.6333
324.63334
324.63344
324.63341
324.63339
324.6334
324.63341
324.63341
324.63333
324.63327
324.63327
324.63331
324.63342
324.63341
324.63339
324.6334
324.63341
324.63341
324.63332
324.63325
324.63321
324.63321
324.63332
324.63332
324.63331
324.63332
324.63333
324.63332
324.63322
324.63312
324.63319
324.63317
324.63324
324.63325
324.63325
324.63326
324.63327
324.63325
324.63312
324.6331
331.76439
331.76436
331.76453
331.76449
331.76445
331.76443
331.76441
331.76438
331.76432
331.7643
331.76436
331.76446
331.76456
331.76452
331.76448
331.76446
331.76445
331.76443
331.76432
331.76428
331.76453
331.76456
331.76466
331.76461
331.76457
331.76456
331.76456
331.76455
331.76443
331.76435
331.76449
331.76452
331.76461
331.76457
331.76453
331.76452
331.76453
331.76453
331.76443
331.76436
331.76445
331.76448
331.76457
331.76453
331.7645
331.7645
331.76451
331.76452
331.76443
331.76436
331.76443
331.76446
331.76456
331.76452
331.7645
331.7645
331.76452
331.76453
331.76444
331.76437
331.76441
331.76445
331.76456
331.76453
331.76451
331.76452
331.76454
331.76455
331.76446
331.76439
331.76438
331.76443
331.76455
331.76453
331.76452
331.76453
331.76455
331.76455
331.76445
331.76437
331.76432
331.76432
331.76443
331.76443
331.76443
331.76444
331.76446
331.76445
331.76433
331.76423
331.7643
331.76428
331.76435
331.76436
331.76436
331.76437
331.76439
331.76437
331.76423
331.76421
338.92004
338.92001
338.92018
338.92014
338.9201
338.92007
338.92006
338.92003
338.91996
338.91995
338.92001
338.92011
338.92022
338.92017
338.92013
338.92011
338.92011
338.92008
338.91997
338.91992
338.92018
338.92022
338.92031
338.92026
338.92022
338.92021
338.92022
338.92021
338.92009
338.92
338.92014
338.92017
338.92026
338.92022
338.92018
338.92017
338.92019
338.92019
338.92009
338.92001
338.9201
338.92013
338.92022
338.92018
338.92015
338.92015
338.92017
338.92018
338.92008
338.92001
338.92007
338.92011
338.92021
338.92017
338.92015
338.92015
338.92018
338.92019
338.9201
338.92003
338.92006
338.92011
338.92022
338.92019
338.92017
338.92018
338.9202
338.92022
338.92012
338.92005
338.92003
338.92008
338.92021
338.92019
338.92018
338.92019
338.92022
338.92023
338.92012
338.92004
338.91996
338.91997
338.92009
338.92009
338.92008
338.9201
338.92012
338.92012
338.91999
338.91988
338.91995
338.91992
338.92
338.92001
338.92001
338.92003
338.92005
338.92004
338.91988
338.91986
346.1056
346.10557
346.10575
346.10571
346.10566
346.10564
346.10562
346.1056
346.10553
346.10551
346.10557
346.10567
346.10578
346.10573
346.10569
346.10567
346.10567
346.10565
346.10553
346.10548
346.10575
346.10578
346.10588
346.10583
346.10579
346.10578
346.10579
346.10578
346.10565
346.10556
346.10571
346.10573
346.10583
346.10578
346.10574
346.10573
346.10576
346.10577
346.10565
346.10557
346.10566
346.10569
346.10579
346.10574
346.10571
346.10571
346.10574
346.10575
346.10565
346.10558
346.10564
346.10567
346.10578
346.10573
346.10571
346.10571
346.10575
346.10577
346.10567
346.1056
346.10562
346.10567
346.10579
346.10576
346.10574
346.10575
346.10578
346.1058
346.1057
346.10563
346.1056
346.10565
346.10578
346.10577
346.10575
346.10577
346.1058
346.10582
346.10571
346.10562
346.10553
346.10553
346.10565
346.10565
346.10565
346.10567
346.1057
346.10571
346.10557
346.10545
346.10551
346.10548
346.10556
346.10557
346.10558
346.1056
346.10563
346.10562
346.10545
346.10543
353.32583
353.3258
353.32598
353.32593
353.32589
353.32586
353.32586
353.32583
353.32576
353.32575
353.3258
353.3259
353.32602
353.32596
353.32591
353.3259
353.3259
353.32588
353.32576
353.32571
353.32598
353.32602
353.32611
353.32606
353.32601
353.32601
353.32602
353.32602
353.32589
353.3258
353.32593
353.32596
353.32606
353.326
353.32596
353.32596
353.32599
353.326
353.32589
353.32581
353.32589
353.32591
353.32601
353.32596
353.32593
353.32593
353.32597
353.32599
353.32589
353.32582
353.32586
353.3259
353.32601
353.32596
353.32593
353.32594
353.32598
353.32601
353.32591
353.32584
353.32586
353.3259
353.32602
353.32599
353.32597
353.32598
353.32603
353.32606
353.32595
353.32588
353.32583
353.32588
353.32602
353.326
353.32599
353.32601
353.32606
353.32608
353.32596
353.32587
353.32576
353.32576
353.32589
353.32589
353.32589
353.32591
353.32595
353.32596
353.32582
353.32569
353.32575
353.32571
353.3258
353.32581
353.32582
353.32584
353.32588
353.32587
353.32569
353.32568
360.58485
360.58482
360.585
360.58495
360.5849
360.58488
360.58487
360.58486
360.58478
360.58477
360.58482
360.58492
360.58503
360.58497
360.58492
360.58491
360.58492
360.58491
360.58478
360.58473
360.585
360.58503
360.58513
360.58507
360.58503
360.58502
360.58504
360.58505
360.58491
360.58482
360.58495
360.58497
360.58507
360.58501
360.58497
360.58497
360.58501
360.58503
360.58491
360.58483
360.5849
360.58492
360.58503
360.58497
360.58494
360.58494
360.58499
360.58502
360.58492
360.58484
360.58488
360.58491
360.58502
360.58497
360.58494
360.58496
360.58501
360.58504
360.58494
360.58487
360.58487
360.58492
360.58504
360.58501
360.58499
360.58501
360.58506
360.58509
360.58499
360.58491
360.58486
360.58491
360.58505
360.58503
360.58502
360.58504
360.58509
360.58513
360.58501
360.58491
360.58478
360.58478
360.58491
360.58491
360.58492
360.58494
360.58499
360.58501
360.58486
360.58473
360.58477
360.58473
360.58482
360.58483
360.58484
360.58487
360.58491
360.58491
360.58473
360.58472
367.88613
367.8861
367.88628
367.88623
367.88617
367.88616
367.88616
367.88615
367.88607
367.88606
367.8861
367.8862
367.88631
367.88625
367.8862
367.88619
367.8862
367.8862
367.88607
367.88602
367.88628
367.88631
367.88641
367.88634
367.8863
367.8863
367.88633
367.88634
367.8862
367.88611
367.88623
367.88625
367.88634
367.88628
367.88624
367.88625
367.88629
367.88632
367.8862
367.88612
367.88617
367.8862
367.8863
367.88624
367.88621
367.88622
367.88627
367.88631
367.88621
367.88614
367.88616
367.88619
367.8863
367.88625
367.88622
367.88624
367.88629
367.88634
367.88624
367.88617
367.88616
367.8862
367.88633
367.88629
367.88627
367.88629
367.88635
367.8864
367.88629
367.88622
367.88615
367.8862
367.88634
367.88632
367.88631
367.88634
367.8864
367.88644
367.88632
367.88622
367.88607
367.88607
367.8862
367.8862
367.88621
367.88624
367.88629
367.88632
367.88617
367.88603
367.88606
367.88602
367.88611
367.88612
367.88614
367.88617
367.88622
367.88622
367.88603
367.88603
375.23252
375.23248
375.23266
375.2326
375.23255
375.23253
375.23254
375.23253
375.23246
375.23245
375.23248
375.23257
375.23269
375.23262
375.23257
375.23256
375.23258
375.23258
375.23246
375.23241
375.23266
375.23269
375.23278
375.23272
375.23267
375.23267
375.23271
375.23273
375.23259
375.2325
375.2326
375.23262
375.23272
375.23265
375.23261
375.23262
375.23267
375.23271
375.23259
375.23251
375.23255
375.23257
375.23267
375.23261
375.23258
375.23259
375.23265
375.2327
375.2326
375.23253
375.23253
375.23256
375.23267
375.23262
375.23259
375.23262
375.23268
375.23273
375.23264
375.23257
375.23254
375.23258
375.23271
375.23267
375.23265
375.23268
375.23274
375.2328
375.2327
375.23263
375.23253
375.23258
375.23273
375.23271
375.2327
375.23273
375.2328
375.23285
375.23273
375.23263
375.23246
375.23246
375.23259
375.23259
375.2326
375.23264
375.2327
375.23273
375.23258
375.23244
375.23245
375.23241
375.2325
375.23251
375.23253
375.23257
375.23263
375.23263
375.23244
375.23244
382.62619
382.62614
382.62633
382.62626
382.62621
382.6262
382.62621
382.62621
382.62614
382.62613
382.62614
382.62624
382.62635
382.62628
382.62623
382.62622
382.62625
382.62625
382.62613
382.62609
382.62633
382.62635
382.62644
382.62637
382.62633
382.62633
382.62637
382.6264
382.62627
382.62618
382.62626
382.62628
382.62637
382.6263
382.62626
382.62628
382.62633
382.62638
382.62627
382.62619
382.62621
382.62623
382.62633
382.62626
382.62623
382.62625
382.62632
382.62638
382.62628
382.62621
382.6262
382.62622
382.62633
382.62628
382.62625
382.62628
382.62635
382.62641
382.62632
382.62626
382.62621
382.62625
382.62637
382.62633
382.62632
382.62635
382.62642
382.62649
382.62639
382.62632
382.62621
382.62625
382.6264
382.62638
382.62638
382.62641
382.62649
382.62654
382.62643
382.62634
382.62614
382.62613
382.62627
382.62627
382.62628
382.62632
382.62639
382.62643
382.62628
382.62614
382.62613
382.62609
382.62618
382.62619
382.62621
382.62626
382.62632
382.62634
382.62614
382.62614
390.0687
390.06865
390.06883
390.06876
390.06871
390.0687
390.06872
390.06872
390.06866
390.06866
390.06865
390.06874
390.06885
390.06877
390.06872
390.06872
390.06875
390.06877
390.06865
390.06861
390.06883
390.06885
390.06894
390.06886
390.06882
390.06883
390.06888
390.06891
390.06878
390.0687
390.06876
390.06877
390.06886
390.06879
390.06875
390.06877
390.06883
390.06889
390.06879
390.06871
390.06871
390.06872
390.06882
390.06875
390.06872
390.06875
390.06882
390.06889
390.0688
390.06873
390.0687
390.06872
390.06883
390.06877
390.06875
390.06878
390.06886
390.06893
390.06884
390.06878
390.06872
390.06875
390.06888
390.06883
390.06882
390.06886
390.06894
390.06901
390.06892
390.06885
390.06872
390.06877
390.06891
390.06889
390.06889
390.06893
390.06901
390.06908
390.06897
390.06888
390.06866
390.06865
390.06878
390.06879
390.0688
390.06884
390.06892
390.06897
390.06882
390.06869
390.06866
390.06861
390.0687
390.06871
390.06873
390.06878
390.06885
390.06888
390.06869
390.06869
397.56097
397.56092
397.5611
397.56103
397.56097
397.56097
397.56099
397.561
397.56094
397.56094
397.56092
397.56101
397.56111
397.56103
397.56098
397.56099
397.56102
397.56105
397.56093
397.56089
397.5611
397.56111
397.5612
397.56112
397.56108
397.56109
397.56114
397.56119
397.56107
397.56098
397.56103
397.56103
397.56112
397.56105
397.56101
397.56103
397.5611
397.56117
397.56107
397.561
397.56097
397.56098
397.56108
397.56101
397.56098
397.56101
397.56109
397.56117
397.56108
397.56102
397.56097
397.56099
397.56109
397.56103
397.56101
397.56105
397.56113
397.56122
397.56113
397.56108
397.56099
397.56102
397.56114
397.5611
397.56109
397.56113
397.56122
397.5613
397.56122
397.56116
397.561
397.56105
397.56119
397.56117
397.56117
397.56122
397.5613
397.56138
397.56127
397.56119
397.56094
397.56093
397.56107
397.56107
397.56108
397.56113
397.56122
397.56127
397.56113
397.561
397.56094
397.56089
397.56098
397.561
397.56102
397.56108
397.56116
397.56119
397.561
397.56101
405.10332
405.10327
405.10344
405.10337
405.10331
405.10331
405.10334
405.10336
405.1033
405.10331
405.10327
405.10335
405.10345
405.10337
405.10332
405.10333
405.10337
405.1034
405.10329
405.10326
405.10344
405.10345
405.10353
405.10345
405.10341
405.10343
405.10349
405.10354
405.10342
405.10334
405.10337
405.10337
405.10345
405.10338
405.10334
405.10337
405.10344
405.10352
405.10342
405.10336
405.10331
405.10332
405.10341
405.10334
405.10331
405.10335
405.10343
405.10352
405.10344
405.10339
405.10331
405.10333
405.10343
405.10337
405.10335
405.10339
405.10348
405.10357
405.1035
405.10345
405.10334
405.10337
405.10349
405.10344
405.10343
405.10348
405.10358
405.10367
405.10359
405.10353
405.10336
405.1034
405.10354
405.10352
405.10352
405.10357
405.10367
405.10375
405.10365
405.10357
405.1033
405.10329
405.10342
405.10342
405.10344
405.1035
405.10359
405.10365
405.10352
405.10338
405.10331
405.10326
405.10334
405.10336
405.10339
405.10345
405.10353
405.10357
405.10338
405.1034
412.69546
412.6954
412.69557
412.6955
412.69545
412.69545
412.69548
412.69551
412.69546
412.69547
412.6954
412.69548
412.69558
412.6955
412.69545
412.69546
412.69551
412.69554
412.69544
412.69542
412.69557
412.69558
412.69566
412.69558
412.69553
412.69555
412.69562
412.69568
412.69557
412.6955
412.6955
412.6955
412.69558
412.6955
412.69547
412.6955
412.69558
412.69566
412.69557
412.69552
412.69545
412.69545
412.69553
412.69547
412.69544
412.69548
412.69557
412.69567
412.69559
412.69555
412.69545
412.69546
412.69555
412.6955
412.69548
412.69552
412.69562
412.69572
412.69565
412.69561
412.69548
412.69551
412.69562
412.69558
412.69557
412.69562
412.69573
412.69583
412.69575
412.6957
412.69551
412.69554
412.69568
412.69566
412.69567
412.69572
412.69583
412.69592
412.69583
412.69575
412.69546
412.69544
412.69557
412.69557
412.69559
412.69565
412.69575
412.69583
412.6957
412.69557
412.69547
412.69542
412.6955
412.69552
412.69555
412.69561
412.6957
412.69575
412.69557
412.69559
420.33654
420.33648
420.33664
420.33657
420.33652
420.33652
420.33656
420.33659
420.33655
420.33656
420.33648
420.33655
420.33664
420.33656
420.33652
420.33653
420.33658
420.33663
420.33653
420.33651
420.33664
420.33664
420.33671
420.33663
420.33659
420.33662
420.33669
420.33676
420.33666
420.33659
420.33657
420.33656
420.33663
420.33656
420.33653
420.33656
420.33665
420.33674
420.33666
420.33661
420.33652
420.33652
420.33659
420.33653
420.3365
420.33654
420.33664
420.33675
420.33668
420.33664
420.33652
420.33653
420.33662
420.33656
420.33654
420.33659
420.3367
420.33681
420.33675
420.33671
420.33656
420.33658
420.33669
420.33665
420.33664
420.3367
420.33681
420.33692
420.33685
420.33681
420.33659
420.33663
420.33676
420.33674
420.33675
420.33681
420.33692
420.33702
420.33693
420.33686
420.33655
420.33653
420.33666
420.33666
420.33668
420.33675
420.33685
420.33693
420.33681
420.33669
420.33656
420.33651
420.33659
420.33661
420.33664
420.33671
420.33681
420.33686
420.33669
420.33671
428.02515
428.02509
428.02524
428.02516
428.02512
428.02512
428.02517
428.02521
428.02517
428.02519
428.02509
428.02515
428.02523
428.02515
428.02511
428.02513
428.02519
428.02524
428.02515
428.02514
428.02524
428.02523
428.0253
428.02522
428.02519
428.02521
428.02529
428.02537
428.02527
428.02521
428.02516
428.02515
428.02522
428.02515
428.02512
428.02515
428.02525
428.02535
428.02528
428.02523
428.02512
428.02511
428.02519
428.02512
428.0251
428.02514
428.02525
428.02536
428.0253
428.02527
428.02512
428.02513
428.02521
428.02515
428.02514
428.0252
428.02531
428.02542
428.02537
428.02534
428.02517
428.02519
428.02529
428.02525
428.02525
428.02531
428.02542
428.02554
428.02548
428.02544
428.02521
428.02524
428.02537
428.02535
428.02536
428.02542
428.02554
428.02564
428.02557
428.0255
428.02517
428.02515
428.02527
428.02528
428.0253
428.02537
428.02548
428.02557
428.02546
428.02534
428.02519
428.02514
428.02521
428.02523
428.02527
428.02534
428.02544
428.0255
428.02534
428.02537
435.75936
435.7593
435.75944
435.75937
435.75932
435.75933
435.75938
435.75942
435.7594
435.75942
435.7593
435.75936
435.75943
435.75935
435.75931
435.75933
435.7594
435.75945
435.75938
435.75936
435.75944
435.75943
435.75949
435.75941
435.75938
435.75941
435.75949
435.75958
435.75949
435.75944
435.75937
435.75935
435.75941
435.75934
435.75931
435.75935
435.75945
435.75956
435.7595
435.75946
435.75932
435.75931
435.75938
435.75931
435.75929
435.75934
435.75945
435.75957
435.75952
435.7595
435.75933
435.75933
435.75941
435.75935
435.75934
435.7594
435.75952
435.75964
435.7596
435.75957
435.75938
435.7594
435.75949
435.75945
435.75945
435.75952
435.75964
435.75976
435.75971
435.75968
435.75942
435.75945
435.75958
435.75956
435.75957
435.75964
435.75976
435.75987
435.75981
435.75975
435.7594
435.75938
435.75949
435.7595
435.75952
435.7596
435.75971
435.75981
435.7597
435.75959
435.75942
435.75936
435.75944
435.75946
435.7595
435.75957
435.75968
435.75975
435.75959
435.75962
443.53675
443.53669
443.53682
443.53675
443.53671
443.53673
443.53678
443.53683
443.53681
443.53683
443.53669
443.53675
443.53681
443.53674
443.5367
443.53672
443.53679
443.53686
443.53679
443.53678
443.53682
443.53681
443.53687
443.53679
443.53676
443.5368
443.53688
443.53697
443.5369
443.53685
443.53675
443.53674
443.53679
443.53672
443.5367
443.53674
443.53684
443.53695
443.5369
443.53687
443.53671
443.5367
443.53676
443.5367
443.53668
443.53673
443.53685
443.53697
443.53693
443.53691
443.53673
443.53672
443.5368
443.53674
443.53673
443.53679
443.53692
443.53704
443.53701
443.53699
443.53678
443.53679
443.53688
443.53684
443.53685
443.53692
443.53704
443.53716
443.53713
443.5371
443.53683
443.53686
443.53697
443.53695
443.53697
443.53704
443.53716
443.53728
443.53723
443.53718
443.53681
443.53679
443.5369
443.5369
443.53693
443.53701
443.53713
443.53723
443.53713
443.53703
443.53683
443.53678
443.53685
443.53687
443.53691
443.53699
443.5371
443.53718
443.53703
443.53706
451.35446
451.3544
451.35452
451.35445
451.35441
451.35443
451.35449
451.35454
451.35453
451.35456
451.3544
451.35445
451.35451
451.35443
451.3544
451.35443
451.3545
451.35457
451.35451
451.35451
451.35452
451.35451
451.35456
451.35448
451.35446
451.35449
451.35459
451.35468
451.35462
451.35458
451.35445
451.35443
451.35448
451.35441
451.35439
451.35444
451.35455
451.35466
451.35462
451.3546
451.35441
451.3544
451.35446
451.35439
451.35438
451.35444
451.35455
451.35468
451.35465
451.35464
451.35443
451.35443
451.35449
451.35444
451.35444
451.3545
451.35462
451.35476
451.35473
451.35472
451.35449
451.3545
451.35459
451.35455
451.35455
451.35462
451.35475
451.35488
451.35485
451.35483
451.35454
451.35457
451.35468
451.35466
451.35468
451.35476
451.35488
451.355
451.35496
451.35491
451.35453
451.35451
451.35462
451.35462
451.35465
451.35473
451.35485
451.35496
451.35487
451.35477
451.35456
451.35451
451.35458
451.3546
451.35464
451.35472
451.35483
451.35491
451.35477
451.35482
459.20918
459.20912
459.20923
459.20917
459.20913
459.20915
459.20921
459.20927
459.20927
459.2093
459.20912
459.20916
459.20922
459.20914
459.20911
459.20914
459.20922
459.20929
459.20925
459.20925
459.20923
459.20922
459.20926
459.20919
459.20917
459.20921
459.2093
459.2094
459.20934
459.20931
459.20917
459.20914
459.20919
459.20912
459.20911
459.20916
459.20926
459.20938
459.20935
459.20933
459.20913
459.20911
459.20917
459.20911
459.2091
459.20915
459.20927
459.2094
459.20938
459.20937
459.20915
459.20914
459.20921
459.20916
459.20915
459.20922
459.20935
459.20948
459.20946
459.20946
459.20921
459.20922
459.2093
459.20926
459.20927
459.20935
459.20947
459.20961
459.20959
459.20958
459.20927
459.20929
459.2094
459.20938
459.2094
459.20948
459.20961
459.20973
459.2097
459.20966
459.20927
459.20925
459.20934
459.20935
459.20938
459.20946
459.20959
459.2097
459.20962
459.20953
459.2093
459.20925
459.20931
459.20933
459.20937
459.20946
459.20958
459.20966
459.20953
459.20958
467.09723
467.09717
467.09727
467.09721
467.09718
467.0972
467.09726
467.09733
467.09733
467.09736
467.09717
467.0972
467.09725
467.09718
467.09716
467.09719
467.09727
467.09735
467.09731
467.09731
467.09727
467.09725
467.09729
467.09722
467.0972
467.09725
467.09734
467.09744
467.0974
467.09737
467.09721
467.09718
467.09722
467.09716
467.09715
467.0972
467.09731
467.09743
467.09741
467.0974
467.09718
467.09716
467.0972
467.09715
467.09714
467.0972
467.09732
467.09745
467.09744
467.09744
467.0972
467.09719
467.09725
467.0972
467.0972
467.09727
467.09739
467.09753
467.09752
467.09752
467.09726
467.09727
467.09734
467.09731
467.09732
467.09739
467.09752
467.09766
467.09765
467.09764
467.09733
467.09735
467.09744
467.09743
467.09745
467.09753
467.09766
467.09779
467.09776
467.09773
467.09733
467.09731
467.0974
467.09741
467.09744
467.09752
467.09765
467.09776
467.09769
467.09761
467.09736
467.09731
467.09737
467.0974
467.09744
467.09752
467.09764
467.09773
467.09761
467.09766
475.01457
475.01451
475.01461
475.01454
475.01452
475.01454
475.01461
475.01468
475.01468
475.01472
475.01451
475.01454
475.01458
475.01452
475.0145
475.01453
475.01461
475.01469
475.01466
475.01467
475.01461
475.01458
475.01462
475.01455
475.01454
475.01458
475.01468
475.01478
475.01475
475.01473
475.01454
475.01452
475.01455
475.0145
475.01448
475.01454
475.01465
475.01477
475.01476
475.01475
475.01452
475.0145
475.01454
475.01448
475.01448
475.01454
475.01466
475.0148
475.01479
475.01479
475.01454
475.01453
475.01458
475.01454
475.01454
475.01461
475.01474
475.01488
475.01487
475.01488
475.01461
475.01461
475.01468
475.01465
475.01466
475.01474
475.01487
475.015
475.015
475.015
475.01468
475.01469
475.01478
475.01477
475.0148
475.01488
475.015
475.01513
475.01511
475.01509
475.01468
475.01466
475.01475
475.01476
475.01479
475.01487
475.015
475.01511
475.01506
475.01498
475.01472
475.01467
475.01473
475.01475
475.01479
475.01488
475.015
475.01509
475.01498
475.01503
482.95686
482.9568
482.95689
482.95683
482.95681
482.95684
482.9569
482.95697
482.95698
482.95702
482.9568
482.95683
482.95686
482.9568
482.95678
482.95682
482.9569
482.95699
482.95696
482.95698
482.95689
482.95686
482.95689
482.95683
482.95682
482.95687
482.95696
482.95707
482.95704
482.95703
482.95683
482.9568
482.95683
482.95678
482.95677
482.95683
482.95694
482.95706
482.95705
482.95705
482.95681
482.95678
482.95682
482.95677
482.95677
482.95683
482.95695
482.95709
482.95709
482.9571
482.95684
482.95682
482.95687
482.95683
482.95683
482.9569
482.95703
482.95716
482.95717
482.95718
482.9569
482.9569
482.95696
482.95694
482.95695
482.95703
482.95715
482.95729
482.95729
482.9573
482.95697
482.95699
482.95707
482.95706
482.95709
482.95716
482.95729
482.95742
482.95741
482.95739
482.95698
482.95696
482.95704
482.95705
482.95709
482.95717
482.95729
482.95741
482.95736
482.95729
482.95702
482.95698
482.95703
482.95705
482.9571
482.95718
482.9573
482.95739
482.95729
482.95734
490.91948
490.91942
490.9195
490.91944
490.91943
490.91946
490.91952
490.9196
490.91961
490.91965
490.91942
490.91944
490.91947
490.91942
490.9194
490.91944
490.91952
490.91961
490.91959
490.91961
490.9195
490.91947
490.9195
490.91944
490.91943
490.91948
490.91958
490.91968
490.91966
490.91966
490.91944
490.91942
490.91944
490.91939
490.91939
490.91945
490.91955
490.91968
490.91967
490.91968
490.91943