/*--------------------------------*- C++ -*----------------------------------*\
| =========                 |                                                 |
| \\      /  F ield         | OpenFOAM: The Open Source CFD Toolbox           |
|  \\    /   O peration     | Version:  v2106                                 |
|   \\  /    A nd           | Website:  www.openfoam.com                      |
|    \\/     M anipulation  |                                                 |
\*---------------------------------------------------------------------------*/
FoamFile
{
    version     2.0;
    format      ascii;
    arch        "LSB;label=32;scalar=64";
    class       volScalarField;
    location    "5";
    object      calFieldValue;
}
// * * * * * * * * * * * * * * * * * * * * * * * * * * * * * * * * * * * * * //

dimensions      [0 0 0 1 0 0 0];

internalField   nonuniform List<scalar> 
4000
(
277.88975
277.88975
277.88975
277.88976
277.88976
277.88976
277.88975
277.88975
277.88975
277.88974
277.88975
277.88974
277.88975
277.88976
277.88976
277.88976
277.88975
277.88975
277.88974
277.88974
277.88975
277.88975
277.88976
277.88977
277.88976
277.88976
277.88975
277.88975
277.88975
277.88975
277.88976
277.88976
277.88977
277.88977
277.88977
277.88977
277.88976
277.88976
277.88976
277.88975
277.88976
277.88976
277.88976
277.88977
277.88977
277.88977
277.88976
277.88976
277.88976
277.88976
277.88976
277.88976
277.88976
277.88977
277.88977
277.88976
277.88976
277.88976
277.88976
277.88976
277.88975
277.88975
277.88975
277.88976
277.88976
277.88976
277.88976
277.88976
277.88976
277.88976
277.88975
277.88975
277.88975
277.88976
277.88976
277.88976
277.88976
277.88976
277.88976
277.88975
277.88975
277.88974
277.88975
277.88976
277.88976
277.88976
277.88976
277.88976
277.88975
277.88975
277.88974
277.88974
277.88975
277.88975
277.88976
277.88976
277.88976
277.88975
277.88975
277.88975
278.94682
278.94682
278.94682
278.94685
278.94685
278.94681
278.9468
278.94681
278.9468
278.9468
278.94682
278.94681
278.94683
278.94686
278.94686
278.94682
278.9468
278.94679
278.94681
278.94681
278.94682
278.94683
278.94685
278.94687
278.94684
278.94682
278.94681
278.9468
278.94681
278.94681
278.94685
278.94686
278.94687
278.94687
278.94686
278.94685
278.94684
278.94682
278.94684
278.94683
278.94685
278.94686
278.94684
278.94686
278.94686
278.94685
278.94684
278.94683
278.94682
278.94684
278.94681
278.94682
278.94682
278.94685
278.94685
278.94684
278.94683
278.94683
278.94684
278.94684
278.9468
278.9468
278.94681
278.94684
278.94684
278.94683
278.94683
278.94685
278.94685
278.94684
278.94681
278.94679
278.9468
278.94682
278.94683
278.94683
278.94685
278.94685
278.94684
278.94686
278.9468
278.94681
278.94681
278.94684
278.94682
278.94684
278.94685
278.94684
278.94686
278.94685
278.9468
278.94681
278.94681
278.94683
278.94684
278.94684
278.94684
278.94686
278.94685
278.94685
280.04468
280.04469
280.0447
280.04474
280.04472
280.04469
280.04467
280.04465
280.04464
280.04463
280.04469
280.04469
280.04472
280.04476
280.04472
280.0447
280.04468
280.04466
280.04465
280.04467
280.0447
280.04472
280.04474
280.04475
280.04474
280.04469
280.04469
280.04467
280.04466
280.04466
280.04474
280.04476
280.04475
280.04477
280.04474
280.04472
280.0447
280.04471
280.04469
280.04468
280.04472
280.04472
280.04474
280.04474
280.04473
280.04472
280.04471
280.04472
280.0447
280.0447
280.04469
280.0447
280.04469
280.04472
280.04472
280.04471
280.04471
280.04472
280.04471
280.04473
280.04467
280.04468
280.04469
280.0447
280.04471
280.04471
280.04473
280.04472
280.04473
280.04473
280.04465
280.04466
280.04467
280.04471
280.04472
280.04472
280.04472
280.04473
280.04474
280.04474
280.04464
280.04465
280.04466
280.04469
280.0447
280.04471
280.04473
280.04474
280.04473
280.04472
280.04463
280.04467
280.04466
280.04468
280.0447
280.04473
280.04473
280.04474
280.04472
280.04474
281.2107
281.21072
281.2107
281.21076
281.21073
281.2107
281.21067
281.21064
281.21065
281.21064
281.21072
281.21072
281.21073
281.21077
281.21074
281.21071
281.21068
281.21065
281.21066
281.21066
281.2107
281.21073
281.21076
281.21077
281.21073
281.21071
281.21068
281.21067
281.21065
281.21067
281.21076
281.21077
281.21077
281.2108
281.21077
281.21074
281.21072
281.21072
281.21069
281.21071
281.21073
281.21074
281.21073
281.21077
281.21074
281.21072
281.21073
281.21073
281.21071
281.21073
281.2107
281.21071
281.21071
281.21074
281.21072
281.21071
281.21073
281.21074
281.21075
281.21074
281.21067
281.21068
281.21068
281.21072
281.21073
281.21073
281.21075
281.21076
281.21077
281.21076
281.21064
281.21065
281.21067
281.21072
281.21073
281.21074
281.21076
281.21077
281.21078
281.21077
281.21065
281.21066
281.21065
281.21069
281.21071
281.21075
281.21077
281.21078
281.21076
281.21077
281.21064
281.21066
281.21067
281.21071
281.21073
281.21074
281.21076
281.21077
281.21077
281.21077
282.47241
282.47243
282.47241
282.47248
282.47245
282.47241
282.47238
282.47235
282.47235
282.47233
282.47243
282.4724
282.47245
282.47247
282.47243
282.4724
282.47236
282.47235
282.47236
282.47235
282.47241
282.47245
282.47246
282.4725
282.47246
282.47243
282.4724
282.47238
282.47235
282.47237
282.47248
282.47247
282.4725
282.47251
282.47247
282.47245
282.47245
282.47244
282.47241
282.47242
282.47245
282.47243
282.47246
282.47247
282.47247
282.47246
282.47247
282.47246
282.47246
282.47245
282.47241
282.4724
282.47243
282.47245
282.47246
282.47245
282.47247
282.47247
282.47247
282.47249
282.47238
282.47236
282.4724
282.47245
282.47247
282.47247
282.47249
282.4725
282.4725
282.47251
282.47235
282.47235
282.47238
282.47244
282.47246
282.47247
282.4725
282.47252
282.47249
282.4725
282.47235
282.47236
282.47235
282.47241
282.47246
282.47247
282.4725
282.47249
282.47249
282.47251
282.47233
282.47235
282.47237
282.47242
282.47245
282.47249
282.47251
282.4725
282.47251
282.4725
283.85765
283.85767
283.85766
283.85773
283.8577
283.85766
283.85762
283.85761
283.85758
283.85756
283.85767
283.85767
283.85769
283.85772
283.85769
283.85765
283.85764
283.85759
283.85759
283.85761
283.85766
283.85769
283.85771
283.85775
283.85772
283.85769
283.85765
283.85763
283.85762
283.85762
283.85773
283.85772
283.85775
283.85777
283.85774
283.85772
283.85772
283.8577
283.85768
283.85769
283.8577
283.85769
283.85772
283.85774
283.85772
283.85773
283.85774
283.85773
283.85772
283.85773
283.85766
283.85765
283.85769
283.85772
283.85773
283.85773
283.85777
283.85777
283.85776
283.85778
283.85762
283.85764
283.85765
283.85772
283.85774
283.85777
283.8578
283.8578
283.85781
283.8578
283.85761
283.85759
283.85763
283.8577
283.85773
283.85777
283.8578
283.85781
283.8578
283.85781
283.85758
283.85759
283.85762
283.85768
283.85772
283.85776
283.85781
283.8578
283.85779
283.85781
283.85756
283.85761
283.85762
283.85769
283.85773
283.85778
283.8578
283.85781
283.85781
283.8578
285.39465
285.39467
285.39467
285.39475
285.39472
285.39466
285.39464
285.39462
285.39459
285.39459
285.39467
285.39465
285.3947
285.39475
285.39471
285.39467
285.39463
285.39461
285.3946
285.39462
285.39467
285.3947
285.39473
285.39476
285.39472
285.39469
285.39468
285.39465
285.39463
285.39465
285.39475
285.39475
285.39476
285.39478
285.39478
285.39476
285.39476
285.39473
285.39471
285.39472
285.39472
285.39471
285.39472
285.39478
285.39476
285.39476
285.39479
285.39477
285.39478
285.39479
285.39466
285.39467
285.39469
285.39476
285.39476
285.39478
285.39483
285.39484
285.39483
285.39484
285.39464
285.39463
285.39468
285.39476
285.39479
285.39483
285.39488
285.39487
285.39488
285.39489
285.39462
285.39461
285.39465
285.39473
285.39477
285.39484
285.39487
285.39488
285.39486
285.39487
285.39459
285.3946
285.39463
285.39471
285.39478
285.39483
285.39488
285.39486
285.39487
285.39486
285.39459
285.39462
285.39465
285.39472
285.39479
285.39484
285.39489
285.39487
285.39486
285.39488
287.11205
287.11207
287.11207
287.11213
287.11211
287.11208
287.11205
287.11203
287.11202
287.11199
287.11207
287.11205
287.11211
287.11216
287.11213
287.11209
287.11205
287.11204
287.11203
287.11205
287.11207
287.11211
287.11214
287.11218
287.11215
287.11212
287.1121
287.11207
287.11207
287.11207
287.11213
287.11216
287.11218
287.11221
287.11219
287.1122
287.11219
287.11218
287.11216
287.11217
287.11211
287.11213
287.11215
287.11219
287.1122
287.1122
287.11224
287.11224
287.11224
287.11225
287.11208
287.11209
287.11212
287.1122
287.1122
287.11224
287.11229
287.1123
287.1123
287.11231
287.11205
287.11205
287.1121
287.11219
287.11224
287.11229
287.11234
287.11238
287.11236
287.11236
287.11203
287.11204
287.11207
287.11218
287.11224
287.1123
287.11238
287.11238
287.11235
287.11235
287.11202
287.11203
287.11207
287.11216
287.11224
287.1123
287.11236
287.11235
287.11232
287.11234
287.11199
287.11205
287.11207
287.11217
287.11225
287.11231
287.11236
287.11235
287.11234
287.11236
289.03896
289.03895
289.03896
289.03905
289.03904
289.039
289.03898
289.03895
289.03894
289.03893
289.03895
289.03896
289.039
289.03906
289.03904
289.039
289.03898
289.03897
289.03896
289.03897
289.03896
289.039
289.03903
289.03908
289.03906
289.03905
289.03904
289.03902
289.039
289.03902
289.03905
289.03906
289.03908
289.03913
289.03913
289.03912
289.03915
289.03913
289.0391
289.03911
289.03904
289.03904
289.03906
289.03913
289.03913
289.03916
289.0392
289.0392
289.03919
289.0392
289.039
289.039
289.03905
289.03912
289.03916
289.03921
289.03928
289.03929
289.03929
289.0393
289.03898
289.03898
289.03904
289.03915
289.0392
289.03928
289.03935
289.03937
289.03935
289.03937
289.03895
289.03897
289.03902
289.03913
289.0392
289.03929
289.03937
289.03937
289.03936
289.03933
289.03894
289.03896
289.039
289.0391
289.03919
289.03929
289.03935
289.03936
289.03932
289.03934
289.03893
289.03897
289.03902
289.03911
289.0392
289.0393
289.03937
289.03933
289.03934
289.03933
291.20494
291.20496
291.20497
291.20508
291.20507
291.20503
291.20501
291.20498
291.20499
291.20495
291.20496
291.20497
291.20502
291.20509
291.20507
291.20503
291.20504
291.205
291.20501
291.20503
291.20497
291.20502
291.20506
291.20512
291.2051
291.2051
291.20509
291.20506
291.20506
291.20508
291.20508
291.20509
291.20512
291.20517
291.20516
291.20518
291.2052
291.20518
291.20517
291.20518
291.20507
291.20507
291.2051
291.20516
291.20519
291.20523
291.20529
291.20529
291.20528
291.20529
291.20503
291.20503
291.2051
291.20518
291.20523
291.2053
291.20536
291.20539
291.20539
291.20542
291.20501
291.20504
291.20509
291.2052
291.20529
291.20536
291.20545
291.20548
291.20547
291.20546
291.20498
291.205
291.20506
291.20518
291.20529
291.20539
291.20548
291.2055
291.20545
291.20544
291.20499
291.20501
291.20506
291.20517
291.20528
291.20539
291.20547
291.20545
291.20543
291.20545
291.20495
291.20503
291.20508
291.20518
291.20529
291.20542
291.20546
291.20544
291.20545
291.20543
293.64018
293.64021
293.64022
293.64031
293.64033
293.6403
293.64028
293.64027
293.64025
293.64024
293.64021
293.64019
293.64025
293.64035
293.64034
293.64031
293.64031
293.64027
293.64028
293.64029
293.64022
293.64025
293.64029
293.64038
293.64037
293.64035
293.64037
293.64034
293.64034
293.64036
293.64031
293.64035
293.64038
293.64045
293.64044
293.64047
293.64052
293.64049
293.64048
293.64049
293.64033
293.64034
293.64037
293.64044
293.64048
293.64053
293.6406
293.64061
293.6406
293.64061
293.6403
293.64031
293.64035
293.64047
293.64053
293.64062
293.6407
293.64072
293.64072
293.64075
293.64028
293.64031
293.64037
293.64052
293.6406
293.6407
293.6408
293.64082
293.64083
293.64082
293.64027
293.64027
293.64034
293.64049
293.64061
293.64072
293.64082
293.64083
293.64081
293.64079
293.64025
293.64028
293.64034
293.64048
293.6406
293.64072
293.64083
293.64081
293.64078
293.6408
293.64024
293.64029
293.64036
293.64049
293.64061
293.64075
293.64082
293.64079
293.6408
293.64078
296.37527
296.37527
296.37529
296.37541
296.37542
296.37539
296.37539
296.37538
296.37536
296.37535
296.37527
296.37528
296.37534
296.37543
296.37542
296.37542
296.37543
296.37541
296.37541
296.37543
296.37529
296.37534
296.3754
296.37547
296.37547
296.37548
296.37549
296.37548
296.37548
296.3755
296.37541
296.37543
296.37547
296.37554
296.37557
296.3756
296.37566
296.37563
296.37561
296.37564
296.37542
296.37542
296.37547
296.37557
296.37562
296.37568
296.37575
296.37576
296.37577
296.37578
296.37539
296.37542
296.37548
296.3756
296.37568
296.37577
296.37589
296.37591
296.37592
296.37593
296.37539
296.37543
296.37549
296.37566
296.37575
296.37589
296.37599
296.37603
296.37602
296.376
296.37538
296.37541
296.37548
296.37563
296.37576
296.37591
296.37603
296.37604
296.37601
296.37599
296.37536
296.37541
296.37548
296.37561
296.37577
296.37592
296.37602
296.37601
296.37597
296.37599
296.37535
296.37543
296.3755
296.37564
296.37578
296.37593
296.376
296.37599
296.37599
296.37597
299.44125
299.44125
299.44127
299.44141
299.44142
299.44142
299.4414
299.44139
299.44139
299.44138
299.44125
299.44126
299.44133
299.44143
299.44143
299.44143
299.44144
299.44142
299.44142
299.44146
299.44127
299.44133
299.44139
299.44147
299.44148
299.44149
299.44153
299.4415
299.4415
299.44154
299.44141
299.44143
299.44147
299.44156
299.4416
299.44163
299.44169
299.44168
299.44169
299.4417
299.44142
299.44143
299.44148
299.4416
299.44166
299.44174
299.44182
299.44185
299.44184
299.44186
299.44142
299.44143
299.44149
299.44163
299.44174
299.44185
299.44197
299.44199
299.442
299.44202
299.4414
299.44144
299.44153
299.44169
299.44182
299.44197
299.4421
299.44212
299.44212
299.4421
299.44139
299.44142
299.4415
299.44168
299.44185
299.44199
299.44212
299.44214
299.4421
299.44208
299.44139
299.44142
299.4415
299.44169
299.44184
299.442
299.44212
299.4421
299.44207
299.44208
299.44138
299.44146
299.44154
299.4417
299.44186
299.44202
299.4421
299.44208
299.44208
299.44209
302.86955
302.86959
302.86961
302.86975
302.86978
302.86976
302.86976
302.86975
302.86974
302.86973
302.86959
302.86957
302.86965
302.86978
302.86979
302.86979
302.8698
302.86978
302.86981
302.86982
302.86961
302.86965
302.86972
302.86981
302.86984
302.86987
302.86991
302.86987
302.86989
302.86991
302.86975
302.86978
302.86981
302.86992
302.86997
302.87002
302.87008
302.87007
302.87007
302.87008
302.86978
302.86979
302.86984
302.86997
302.87005
302.87014
302.87022
302.87025
302.87026
302.87028
302.86976
302.86979
302.86987
302.87002
302.87014
302.87025
302.87038
302.87042
302.87043
302.87045
302.86976
302.8698
302.86991
302.87008
302.87022
302.87038
302.87052
302.87056
302.87055
302.87056
302.86975
302.86978
302.86987
302.87007
302.87025
302.87042
302.87056
302.87058
302.87053
302.87051
302.86974
302.86981
302.86989
302.87007
302.87026
302.87043
302.87055
302.87053
302.87049
302.87051
302.86973
302.86982
302.86991
302.87008
302.87028
302.87045
302.87056
302.87051
302.87051
302.87051
306.6919
306.69191
306.69197
306.69209
306.69214
306.69213
306.69214
306.69215
306.69214
306.69213
306.69191
306.69192
306.692
306.69212
306.69216
306.69217
306.69218
306.69218
306.69218
306.69222
306.69197
306.692
306.69208
306.69218
306.69222
306.69225
306.69229
306.69228
306.69228
306.69232
306.69209
306.69212
306.69218
306.6923
306.69236
306.69241
306.6925
306.69249
306.69249
306.6925
306.69214
306.69216
306.69222
306.69236
306.69245
306.69255
306.69266
306.69269
306.69269
306.69272
306.69213
306.69217
306.69225
306.69241
306.69255
306.6927
306.69283
306.69287
306.69288
306.6929
306.69214
306.69218
306.69229
306.6925
306.69266
306.69283
306.69299
306.69303
306.69303
306.693
306.69215
306.69218
306.69228
306.69249
306.69269
306.69287
306.69303
306.69303
306.693
306.69297
306.69214
306.69218
306.69228
306.69249
306.69269
306.69288
306.69303
306.693
306.69295
306.69297
306.69213
306.69222
306.69232
306.6925
306.69272
306.6929
306.693
306.69297
306.69297
306.69297
310.94002
310.94003
310.94009
310.94022
310.94029
310.9403
310.94031
310.94032
310.94031
310.94031
310.94003
310.94005
310.94013
310.94025
310.94031
310.94032
310.94036
310.94034
310.94036
310.94037
310.94009
310.94013
310.94021
310.94032
310.94038
310.94043
310.94048
310.94047
310.94046
310.94051
310.94022
310.94025
310.94032
310.94045
310.94052
310.94061
310.9407
310.94068
310.94069
310.94069
310.94029
310.94031
310.94038
310.94052
310.94062
310.94076
310.94087
310.9409
310.9409
310.94093
310.9403
310.94032
310.94043
310.94061
310.94076
310.94092
310.94105
310.94109
310.94112
310.94114
310.94031
310.94036
310.94048
310.9407
310.94087
310.94105
310.94122
310.94126
310.94125
310.94124
310.94032
310.94034
310.94047
310.94068
310.9409
310.94109
310.94126
310.94127
310.94124
310.94121
310.94031
310.94036
310.94046
310.94069
310.9409
310.94112
310.94125
310.94124
310.94119
310.94121
310.94031
310.94037
310.94051
310.94069
310.94093
310.94114
310.94124
310.94121
310.94121
310.94121
315.6455
315.64554
315.64558
315.64574
315.64582
315.64584
315.64585
315.64586
315.64586
315.64585
315.64554
315.64554
315.64565
315.64578
315.64584
315.64587
315.64591
315.6459
315.64593
315.64594
315.64558
315.64565
315.64573
315.64585
315.64592
315.64598
315.64603
315.64602
315.64604
315.64608
315.64574
315.64578
315.64585
315.646
315.64608
315.64617
315.64626
315.64627
315.64628
315.64628
315.64582
315.64584
315.64592
315.64608
315.64621
315.64633
315.64647
315.6465
315.6465
315.64652
315.64584
315.64587
315.64598
315.64617
315.64633
315.6465
315.64666
315.64673
315.64673
315.64674
315.64585
315.64591
315.64603
315.64626
315.64647
315.64666
315.64684
315.6469
315.64689
315.64685
315.64586
315.6459
315.64602
315.64627
315.6465
315.64673
315.6469
315.64691
315.64685
315.64684
315.64586
315.64593
315.64604
315.64628
315.6465
315.64673
315.64689
315.64685
315.64682
315.64684
315.64585
315.64594
315.64608
315.64628
315.64652
315.64674
315.64685
315.64684
315.64684
315.64684
320.83956
320.8396
320.83965
320.83981
320.8399
320.83992
320.83994
320.83995
320.83997
320.83996
320.8396
320.8396
320.83971
320.83985
320.83992
320.83995
320.84
320.84
320.84002
320.84006
320.83965
320.83971
320.8398
320.83993
320.84001
320.84008
320.84013
320.84014
320.84016
320.84018
320.83981
320.83985
320.83993
320.84008
320.84017
320.84027
320.84039
320.84038
320.84038
320.84041
320.8399
320.83992
320.84001
320.84017
320.84032
320.84047
320.84059
320.84064
320.84065
320.84067
320.83992
320.83995
320.84008
320.84027
320.84047
320.84065
320.84082
320.84088
320.84089
320.8409
320.83994
320.84
320.84013
320.84039
320.84059
320.84082
320.841
320.84106
320.84104
320.84103
320.83995
320.84
320.84014
320.84038
320.84064
320.84088
320.84106
320.84107
320.84103
320.84099
320.83997
320.84002
320.84016
320.84038
320.84065
320.84089
320.84104
320.84103
320.84098
320.84099
320.83996
320.84006
320.84018
320.84041
320.84067
320.8409
320.84103
320.84099
320.84099
320.84099
326.55248
326.55252
326.55258
326.55274
326.55284
326.55287
326.55291
326.55293
326.55292
326.55292
326.55252
326.55252
326.55262
326.55279
326.55287
326.55291
326.55298
326.55298
326.553
326.55302
326.55258
326.55262
326.55274
326.55287
326.55296
326.55304
326.55312
326.55311
326.55313
326.55317
326.55274
326.55279
326.55287
326.55303
326.55314
326.55327
326.55337
326.55338
326.55338
326.55341
326.55284
326.55287
326.55296
326.55314
326.5533
326.55346
326.55361
326.55363
326.55366
326.55368
326.55287
326.55291
326.55304
326.55327
326.55346
326.55367
326.55384
326.5539
326.55391
326.55392
326.55291
326.55298
326.55312
326.55337
326.55361
326.55384
326.55403
326.55408
326.55407
326.55405
326.55293
326.55298
326.55311
326.55338
326.55363
326.5539
326.55408
326.55409
326.55405
326.55401
326.55292
326.553
326.55313
326.55338
326.55366
326.55391
326.55407
326.55405
326.554
326.55403
326.55292
326.55302
326.55317
326.55341
326.55368
326.55392
326.55405
326.55401
326.55403
326.55403
332.8133
332.81335
332.81341
332.81358
332.81369
332.81375
332.81377
332.81381
332.8138
332.8138
332.81335
332.81335
332.81348
332.81363
332.81372
332.81379
332.81384
332.81386
332.81389
332.8139
332.81341
332.81348
332.81358
332.81374
332.81384
332.81392
332.81401
332.814
332.81402
332.81407
332.81358
332.81363
332.81374
332.81388
332.81402
332.81416
332.81426
332.81428
332.81429
332.81432
332.81369
332.81372
332.81384
332.81402
332.81419
332.81436
332.81452
332.81457
332.81457
332.81459
332.81375
332.81379
332.81392
332.81416
332.81436
332.81459
332.81476
332.81483
332.81485
332.81486
332.81377
332.81384
332.81401
332.81426
332.81452
332.81476
332.81497
332.81501
332.81501
332.81499
332.81381
332.81386
332.814
332.81428
332.81457
332.81483
332.81501
332.81504
332.815
332.81495
332.8138
332.81389
332.81402
332.81429
332.81457
332.81485
332.81501
332.815
332.81494
332.81495
332.8138
332.8139
332.81407
332.81432
332.81459
332.81486
332.81499
332.81495
332.81495
332.81494
339.64923
339.64928
339.64934
339.64952
339.64963
339.6497
339.64975
339.64977
339.64979
339.64979
339.64928
339.64929
339.64941
339.64957
339.6497
339.64975
339.64982
339.64983
339.64985
339.64989
339.64934
339.64941
339.64952
339.64969
339.6498
339.64989
339.64998
339.65
339.65002
339.65006
339.64952
339.64957
339.64969
339.64986
339.64999
339.65014
339.65026
339.65028
339.65029
339.65032
339.64963
339.6497
339.6498
339.64999
339.6502
339.65037
339.65053
339.65056
339.65059
339.65061
339.6497
339.64975
339.64989
339.65014
339.65037
339.65061
339.65079
339.65085
339.65088
339.65088
339.64975
339.64982
339.64998
339.65026
339.65053
339.65079
339.65097
339.65103
339.65104
339.65102
339.64977
339.64983
339.65
339.65028
339.65056
339.65085
339.65103
339.65106
339.65102
339.65098
339.64979
339.64985
339.65002
339.65029
339.65059
339.65088
339.65104
339.65102
339.65096
339.65097
339.64979
339.64989
339.65006
339.65032
339.65061
339.65088
339.65102
339.65098
339.65097
339.65096
347.0849
347.08495
347.08502
347.08519
347.08534
347.08539
347.08545
347.08549
347.08549
347.08549
347.08495
347.08496
347.08509
347.08527
347.08539
347.08547
347.08552
347.08556
347.08558
347.0856
347.08502
347.08509
347.0852
347.08537
347.08549
347.08562
347.08571
347.0857
347.08575
347.08577
347.08519
347.08527
347.08537
347.08555
347.08572
347.08587
347.08597
347.08599
347.08603
347.08606
347.08534
347.08539
347.08549
347.08572
347.08591
347.08612
347.08628
347.08631
347.08634
347.08635
347.08539
347.08547
347.08562
347.08587
347.08612
347.08636
347.08654
347.0866
347.08663
347.08663
347.08545
347.08552
347.08571
347.08597
347.08628
347.08654
347.08676
347.08679
347.08679
347.08677
347.08549
347.08556
347.0857
347.08599
347.08631
347.0866
347.08679
347.08682
347.08678
347.08673
347.08549
347.08558
347.08575
347.08603
347.08634
347.08663
347.08679
347.08678
347.08672
347.08675
347.08549
347.0856
347.08577
347.08606
347.08635
347.08663
347.08677
347.08673
347.08675
347.08672
355.14162
355.14167
355.14176
355.14194
355.14208
355.14216
355.14222
355.14226
355.14226
355.14227
355.14167
355.1417
355.14181
355.142
355.14215
355.14223
355.1423
355.14233
355.14236
355.14237
355.14176
355.14181
355.14195
355.14213
355.14226
355.14239
355.14248
355.14251
355.14254
355.14258
355.14194
355.142
355.14213
355.14231
355.14249
355.14264
355.14275
355.1428
355.14282
355.14285
355.14208
355.14215
355.14226
355.14249
355.14269
355.14291
355.14307
355.14312
355.14313
355.14315
355.14216
355.14223
355.14239
355.14264
355.14291
355.14315
355.14334
355.1434
355.14343
355.14343
355.14222
355.1423
355.14248
355.14275
355.14307
355.14334
355.14355
355.14361
355.14359
355.14357
355.14226
355.14233
355.14251
355.1428
355.14312
355.1434
355.14361
355.14362
355.14358
355.14353
355.14226
355.14236
355.14254
355.14282
355.14313
355.14343
355.14359
355.14358
355.14354
355.14355
355.14227
355.14237
355.14258
355.14285
355.14315
355.14343
355.14357
355.14353
355.14355
355.14354
363.83648
363.83652
363.8366
363.83678
363.83694
363.83703
363.8371
363.83712
363.83715
363.83716
363.83652
363.83654
363.83667
363.83686
363.83699
363.83711
363.83718
363.83722
363.83725
363.83726
363.8366
363.83667
363.83679
363.83697
363.83713
363.83727
363.83736
363.83737
363.8374
363.83745
363.83678
363.83686
363.83697
363.83718
363.83736
363.83753
363.83764
363.83769
363.83771
363.83774
363.83694
363.83699
363.83713
363.83736
363.83758
363.8378
363.83796
363.83802
363.83803
363.83805
363.83703
363.83711
363.83727
363.83753
363.8378
363.83806
363.83824
363.83831
363.83834
363.83834
363.8371
363.83718
363.83736
363.83764
363.83796
363.83824
363.83846
363.83852
363.8385
363.83847
363.83712
363.83722
363.83737
363.83769
363.83802
363.83831
363.83852
363.83853
363.83849
363.83844
363.83715
363.83725
363.8374
363.83771
363.83803
363.83834
363.8385
363.83849
363.83845
363.83846
363.83716
363.83726
363.83745
363.83774
363.83805
363.83834
363.83847
363.83844
363.83846
363.83845
373.18114
373.18118
373.18129
373.18146
373.18163
373.18173
373.1818
373.18183
373.18186
373.18187
373.18118
373.1812
373.18133
373.18152
373.18169
373.18179
373.18188
373.1819
373.18193
373.18197
373.18129
373.18133
373.18147
373.18166
373.18183
373.18197
373.18207
373.18208
373.18212
373.18216
373.18146
373.18152
373.18166
373.18185
373.18206
373.18223
373.18235
373.18241
373.18243
373.18246
373.18163
373.18169
373.18183
373.18206
373.18228
373.18251
373.18268
373.18274
373.18275
373.18277
373.18173
373.18179
373.18197
373.18223
373.18251
373.18277
373.18298
373.18303
373.18306
373.18306
373.1818
373.18188
373.18207
373.18235
373.18268
373.18298
373.18318
373.18324
373.18322
373.18319
373.18183
373.1819
373.18208
373.18241
373.18274
373.18303
373.18324
373.18325
373.18321
373.18316
373.18186
373.18193
373.18212
373.18243
373.18275
373.18306
373.18322
373.18321
373.18316
373.18318
373.18187
373.18197
373.18216
373.18246
373.18277
373.18306
373.18319
373.18316
373.18318
373.18315
383.18085
383.1809
383.18098
383.18117
383.18135
383.18146
383.18153
383.18156
383.1816
383.18161
383.1809
383.18091
383.18105
383.18124
383.18141
383.18154
383.18161
383.18166
383.18169
383.18171
383.18098
383.18105
383.18119
383.18137
383.18155
383.18169
383.1818
383.18184
383.18188
383.1819
383.18117
383.18124
383.18137
383.18159
383.18178
383.18196
383.1821
383.18214
383.18217
383.1822
383.18135
383.18141
383.18155
383.18178
383.18204
383.18227
383.18243
383.18248
383.18252
383.18254
383.18146
383.18154
383.18169
383.18196
383.18227
383.18253
383.18272
383.1828
383.1828
383.1828
383.18153
383.18161
383.1818
383.1821
383.18243
383.18272
383.18294
383.18298
383.18297
383.18293
383.18156
383.18166
383.18184
383.18214
383.18248
383.1828
383.18298
383.18302
383.18295
383.18291
383.1816
383.18169
383.18188
383.18217
383.18252
383.1828
383.18297
383.18295
383.18293
383.18293
383.18161
383.18171
383.1819
383.1822
383.18254
383.1828
383.18293
383.18291
383.18293
383.1829
393.83302
393.83307
393.83317
393.83334
393.83352
393.83363
393.83371
393.83377
393.83379
393.83383
393.83307
393.83311
393.83321
393.83343
393.8336
393.83371
393.83382
393.83385
393.83389
393.83392
393.83317
393.83321
393.83336
393.83356
393.83374
393.8339
393.83401
393.83403
393.83407
393.83412
393.83334
393.83343
393.83356
393.83375
393.83398
393.83416
393.83428
393.83433
393.83438
393.83439
393.83352
393.8336
393.83374
393.83398
393.83423
393.83445
393.83462
393.83469
393.83471
393.83473
393.83363
393.83371
393.8339
393.83416
393.83445
393.83472
393.83493
393.83498
393.83502
393.83502
393.83371
393.83382
393.83401
393.83428
393.83462
393.83493
393.83513
393.83519
393.83518
393.83512
393.83377
393.83385
393.83403
393.83433
393.83469
393.83498
393.83519
393.83521
393.83515
393.8351
393.83379
393.83389
393.83407
393.83438
393.83471
393.83502
393.83518
393.83515
393.83513
393.83513
393.83383
393.83392
393.83412
393.83439
393.83473
393.83502
393.83512
393.8351
393.83513
393.83509
405.12597
405.12602
405.12612
405.12631
405.1265
405.12661
405.12669
405.12674
405.12678
405.1268
405.12602
405.12606
405.12619
405.12637
405.12655
405.12669
405.12677
405.12683
405.12687
405.12689
405.12612
405.12619
405.12632
405.12651
405.12671
405.12685
405.12696
405.12702
405.12706
405.12708
405.12631
405.12637
405.12651
405.12672
405.12695
405.12713
405.12725
405.1273
405.12734
405.12738
405.1265
405.12655
405.12671
405.12695
405.1272
405.12742
405.12759
405.12764
405.12769
405.12769
405.12661
405.12669
405.12685
405.12713
405.12742
405.12769
405.12788
405.12796
405.12798
405.12797
405.12669
405.12677
405.12696
405.12725
405.12759
405.12788
405.1281
405.12814
405.12814
405.1281
405.12674
405.12683
405.12702
405.1273
405.12764
405.12796
405.12814
405.12816
405.12813
405.12809
405.12678
405.12687
405.12706
405.12734
405.12769
405.12798
405.12814
405.12813
405.12809
405.12809
405.1268
405.12689
405.12708
405.12738
405.12769
405.12797
405.1281
405.12809
405.12809
405.12806
417.0377
417.03775
417.03785
417.03801
417.03819
417.03831
417.03842
417.03847
417.03849
417.03852
417.03775
417.03776
417.03789
417.03809
417.03827
417.03839
417.0385
417.03855
417.03859
417.03861
417.03785
417.03789
417.03802
417.03822
417.03841
417.03857
417.03868
417.03872
417.03878
417.03882
417.03801
417.03809
417.03822
417.03843
417.03864
417.03885
417.03897
417.03903
417.03905
417.03909
417.03819
417.03827
417.03841
417.03864
417.0389
417.03914
417.03931
417.03937
417.0394
417.03942
417.03831
417.03839
417.03857
417.03885
417.03914
417.03941
417.0396
417.03966
417.03968
417.03968
417.03842
417.0385
417.03868
417.03897
417.03931
417.0396
417.03979
417.03984
417.03984
417.03978
417.03847
417.03855
417.03872
417.03903
417.03937
417.03966
417.03984
417.03986
417.03981
417.03978
417.03849
417.03859
417.03878
417.03905
417.0394
417.03968
417.03984
417.03981
417.03978
417.03978
417.03852
417.03861
417.03882
417.03909
417.03942
417.03968
417.03978
417.03978
417.03978
417.03977
429.53472
429.53476
429.53486
429.53503
429.53522
429.53534
429.53543
429.53549
429.53554
429.53557
429.53476
429.5348
429.53492
429.53512
429.5353
429.53542
429.53553
429.53559
429.53561
429.53565
429.53486
429.53492
429.53505
429.53524
429.53543
429.53559
429.53571
429.53576
429.53582
429.53584
429.53503
429.53512
429.53524
429.53542
429.53565
429.53584
429.53599
429.53603
429.53608
429.5361
429.53522
429.5353