/*--------------------------------*- C++ -*----------------------------------*\
| =========                 |                                                 |
| \\      /  F ield         | OpenFOAM: The Open Source CFD Toolbox           |
|  \\    /   O peration     | Version:  v2106                                 |
|   \\  /    A nd           | Website:  www.openfoam.com                      |
|    \\/     M anipulation  |                                                 |
\*---------------------------------------------------------------------------*/
FoamFile
{
    version     2.0;
    format      ascii;
    arch        "LSB;label=32;scalar=64";
    class       volScalarField;
    location    "5";
    object      gradTz;
}
// * * * * * * * * * * * * * * * * * * * * * * * * * * * * * * * * * * * * * //

dimensions      [0 -1 0 1 0 0 0];

internalField   nonuniform List<scalar> 
4000
(
124.78718
124.78764
124.7876
124.78632
124.78742
124.78721
124.7866
124.7862
124.78607
124.78612
124.78764
124.78794
124.78697
124.78691
124.7877
124.78727
124.78663
124.78626
124.78611
124.78598
124.7876
124.78697
124.78698
124.78683
124.78742
124.78696
124.78637
124.78613
124.78622
124.78625
124.78632
124.78691
124.78683
124.7865
124.78706
124.78664
124.78608
124.78583
124.78601
124.78626
124.78742
124.7877
124.78742
124.78706
124.78771
124.78744
124.78698
124.78673
124.78678
124.78687
124.78721
124.78727
124.78696
124.78664
124.78744
124.78736
124.78708
124.78696
124.78709
124.78719
124.7866
124.78663
124.78637
124.78608
124.78698
124.78708
124.78696
124.78696
124.78716
124.78731
124.7862
124.78626
124.78613
124.78583
124.78673
124.78696
124.78696
124.78701
124.78725
124.78741
124.78607
124.78611
124.78622
124.78601
124.78678
124.78709
124.78716
124.78725
124.78749
124.78767
124.78612
124.78598
124.78625
124.78626
124.78687
124.78719
124.78731
124.78741
124.78767
124.78786
127.6213
127.62086
127.621
127.62056
127.62104
127.62075
127.62025
127.61993
127.61986
127.6201
127.62086
127.62085
127.62069
127.62068
127.62099
127.62059
127.62009
127.61982
127.61967
127.61963
127.621
127.62069
127.62076
127.62071
127.62094
127.62054
127.62006
127.61993
127.62004
127.62006
127.62056
127.62068
127.62071
127.6206
127.62085
127.62051
127.62005
127.61991
127.62009
127.62025
127.62104
127.62099
127.62094
127.62085
127.62121
127.62102
127.62067
127.62053
127.62065
127.62073
127.62075
127.62059
127.62054
127.62051
127.62102
127.62101
127.62082
127.6208
127.62096
127.62105
127.62025
127.62009
127.62006
127.62005
127.62067
127.62082
127.62077
127.62084
127.62106
127.62117
127.61993
127.61982
127.61993
127.61991
127.62053
127.6208
127.62084
127.62096
127.62121
127.62136
127.61986
127.61967
127.62004
127.62009
127.62065
127.62096
127.62106
127.62121
127.62147
127.62166
127.6201
127.61963
127.62006
127.62025
127.62073
127.62105
127.62117
127.62136
127.62166
127.6218
132.86484
132.86438
132.86451
132.86424
132.8645
132.86421
132.86379
132.86356
132.8635
132.86389
132.86438
132.86439
132.86429
132.86429
132.86445
132.86409
132.86368
132.86355
132.86343
132.86345
132.86451
132.86429
132.86432
132.8643
132.86443
132.86408
132.86368
132.86367
132.86381
132.86385
132.86424
132.86429
132.8643
132.86427
132.86445
132.86419
132.8638
132.86378
132.86399
132.86413
132.8645
132.86445
132.86443
132.86445
132.86477
132.86466
132.86438
132.86437
132.86454
132.86462
132.86421
132.86409
132.86408
132.86419
132.86466
132.86472
132.86459
132.86468
132.86488
132.86496
132.86379
132.86368
132.86368
132.8638
132.86438
132.86459
132.86459
132.86475
132.86498
132.86507
132.86356
132.86355
132.86367
132.86378
132.86437
132.86468
132.86475
132.86495
132.86521
132.86537
132.8635
132.86343
132.86381
132.86399
132.86454
132.86488
132.86498
132.86521
132.86548
132.86564
132.86389
132.86345
132.86385
132.86413
132.86462
132.86496
132.86507
132.86537
132.86564
132.86579
140.75835
140.75817
140.75824
140.75791
140.75817
140.75796
140.75762
140.75748
140.75746
140.75787
140.75817
140.75818
140.75804
140.758
140.75819
140.75792
140.75757
140.75755
140.7575
140.75756
140.75824
140.75804
140.75806
140.75802
140.75821
140.75796
140.75761
140.75771
140.75791
140.75796
140.75791
140.758
140.75802
140.758
140.75826
140.7581
140.75778
140.75786
140.75815
140.75831
140.75817
140.75819
140.75821
140.75826
140.75866
140.75866
140.75843
140.75853
140.75877
140.75887
140.75796
140.75792
140.75796
140.7581
140.75866
140.75883
140.75874
140.75892
140.75917
140.75924
140.75762
140.75757
140.75761
140.75778
140.75843
140.75874
140.75876
140.75899
140.75926
140.75934
140.75748
140.75755
140.75771
140.75786
140.75853
140.75892
140.75899
140.75924
140.75955
140.75976
140.75746
140.7575
140.75791
140.75815
140.75877
140.75917
140.75926
140.75955
140.75989
140.75998
140.75787
140.75756
140.75796
140.75831
140.75887
140.75924
140.75934
140.75976
140.75998
140.76014
151.33476
151.33464
151.33467
151.33436
151.33471
151.33459
151.33432
151.33425
151.33429
151.33469
151.33464
151.33464
151.33448
151.33448
151.33477
151.3346
151.33431
151.33435
151.33436
151.33444
151.33467
151.33448
151.3345
151.33452
151.33482
151.33469
151.3344
151.33455
151.33481
151.33489
151.33436
151.33448
151.33452
151.33456
151.33495
151.33491
151.33464
151.33479
151.33513
151.33533
151.33471
151.33477
151.33482
151.33495
151.33548
151.33559
151.33542
151.33557
151.33586
151.33597
151.33459
151.3346
151.33469
151.33491
151.33559
151.33588
151.33583
151.33604
151.33632
151.33639
151.33432
151.33431
151.3344
151.33464
151.33542
151.33583
151.33588
151.33612
151.3364
151.33647
151.33425
151.33435
151.33455
151.33479
151.33557
151.33604
151.33612
151.33637
151.3367
151.33697
151.33429
151.33436
151.33481
151.33513
151.33586
151.33632
151.3364
151.3367
151.33712
151.33719
151.33469
151.33444
151.33489
151.33533
151.33597
151.33639
151.33647
151.33697
151.33719
151.33734
164.63453
164.63438
164.63443
164.63418
164.63465
164.63464
164.63445
164.63441
164.63449
164.63489
164.63438
164.63436
164.63423
164.63431
164.63472
164.63468
164.63447
164.63454
164.63458
164.63468
164.63443
164.63423
164.6343
164.6344
164.63483
164.63482
164.63461
164.63481
164.6351
164.63519
164.63418
164.63431
164.6344
164.63454
164.63506
164.63514
164.63495
164.63514
164.63551
164.63571
164.63465
164.63472
164.63483
164.63506
164.63572
164.63596
164.63586
164.63604
164.63634
164.63645
164.63464
164.63468
164.63482
164.63514
164.63596
164.63637
164.63638
164.63661
164.63689
164.63693
164.63445
164.63447
164.63461
164.63495
164.63586
164.63638
164.63647
164.63671
164.63697
164.63701
164.63441
164.63454
164.63481
164.63514
164.63604
164.63661
164.63671
164.63694
164.63726
164.63753
164.63449
164.63458
164.6351
164.63551
164.63634
164.63689
164.63697
164.63726
164.63769
164.63776
164.63489
164.63468
164.63519
164.63571
164.63645
164.63693
164.63701
164.63753
164.63776
164.63789
180.70373
180.70359
180.7037
180.70353
180.70411
180.70421
180.7041
180.70411
180.70423
180.70464
180.70359
180.7036
180.70352
180.70369
180.70422
180.70428
180.70415
180.70428
180.70435
180.70446
180.7037
180.70352
180.70365
180.70385
180.7044
180.7045
180.70436
180.70462
180.70494
180.70504
180.70353
180.70369
180.70385
180.70408
180.70472
180.70492
180.7048
180.70503
180.70543
180.70564
180.70411
180.70422
180.7044
180.70472
180.70551
180.70586
180.70582
180.70604
180.70636
180.70647
180.70421
180.70428
180.7045
180.70492
180.70586
180.70637
180.70645
180.7067
180.70698
180.707
180.7041
180.70415
180.70436
180.7048
180.70582
180.70645
180.70659
180.70685
180.7071
180.70711
180.70411
180.70428
180.70462
180.70503
180.70604
180.7067
180.70685
180.70709
180.70738
180.70764
180.70423
180.70435
180.70494
180.70543
180.70636
180.70698
180.7071
180.70738
180.70781
180.70786
180.70464
180.70446
180.70504
180.70564
180.70647
180.707
180.70711
180.70764
180.70786
180.70797
199.59152
199.5914
199.59158
199.59148
199.59216
199.59235
199.59231
199.59238
199.59252
199.59294
199.5914
199.59145
199.59143
199.59169
199.59231
199.59246
199.59241
199.59258
199.59268
199.59279
199.59158
199.59143
199.59163
199.59191
199.59256
199.59275
199.59268
199.59298
199.59333
199.59343
199.59148
199.59169
199.59191
199.59223
199.59297
199.59326
199.5932
199.59348
199.5939
199.5941
199.59216
199.59231
199.59256
199.59297
199.59386
199.5943
199.59432
199.59458
199.59491
199.59501
199.59235
199.59246
199.59275
199.59326
199.5943
199.59489
199.59503
199.59531
199.5956
199.5956
199.59231
199.59241
199.59268
199.5932
199.59432
199.59503
199.59522
199.5955
199.59574
199.59573
199.59238
199.59258
199.59298
199.59348
199.59458
199.59531
199.5955
199.59575
199.59603
199.59627
199.59252
199.59268
199.59333
199.5939
199.59491
199.5956
199.59574
199.59603
199.59645
199.59648
199.59294
199.59279
199.59343
199.5941
199.59501
199.5956
199.59573
199.59627
199.59648
199.59658
221.34644
221.34636
221.34659
221.34656
221.34732
221.34758
221.3476
221.3477
221.34787
221.3483
221.34636
221.34644
221.34648
221.34681
221.34751
221.34774
221.34773
221.34795
221.34807
221.34818
221.34659
221.34648
221.34674
221.34709
221.34782
221.34808
221.34807
221.3484
221.34876
221.34887
221.34656
221.34681
221.34709
221.34749
221.34831
221.34866
221.34865
221.34896
221.3494
221.3496
221.34732
221.34751
221.34782
221.34831
221.34927
221.34978
221.34985
221.35013
221.35047
221.35056
221.34758
221.34774
221.34808
221.34866
221.34978
221.35045
221.35062
221.35093
221.35122
221.35121
221.3476
221.34773
221.34807
221.34865
221.34985
221.35062
221.35085
221.35115
221.35139
221.35135
221.3477
221.34795
221.3484
221.34896
221.35013
221.35093
221.35115
221.3514
221.35168
221.3519
221.34787
221.34807
221.34876
221.3494
221.35047
221.35122
221.35139
221.35168
221.35209
221.3521
221.3483
221.34818
221.34887
221.3496
221.35056
221.35121
221.35135
221.3519
221.3521
221.35218
246.01276
246.01271
246.01299
246.01302
246.01384
246.01416
246.01422
246.01435
246.01453
246.01497
246.01271
246.01282
246.01292
246.0133
246.01407
246.01435
246.01439
246.01463
246.01476
246.01487
246.01299
246.01292
246.01322
246.01364
246.01443
246.01475
246.01477
246.01514
246.01551
246.0156
246.01302
246.0133
246.01364
246.01409
246.01498
246.01539
246.01542
246.01575
246.01619
246.01638
246.01384
246.01407
246.01443
246.01498
246.01601
246.01658
246.01668
246.01698
246.01732
246.0174
246.01416
246.01435
246.01475
246.01539
246.01658
246.01729
246.0175
246.01782
246.0181
246.01808
246.01422
246.01439
246.01477
246.01542
246.01668
246.0175
246.01776
246.01806
246.01829
246.01823
246.01435
246.01463
246.01514
246.01575
246.01698
246.01782
246.01806
246.01832
246.01859
246.01879
246.01453
246.01476
246.01551
246.01619
246.01732
246.0181
246.01829
246.01859
246.01899
246.01897
246.01497
246.01487
246.0156
246.01638
246.0174
246.01808
246.01823
246.01879
246.01897
246.01904
273.62642
273.6264
273.62672
273.62681
273.62768
273.62804
273.62814
273.6283
273.62848
273.62892
273.6264
273.62655
273.62669
273.62712
273.62794
273.62827
273.62835
273.62861
273.62874
273.62884
273.62672
273.62669
273.62704
273.6275
273.62835
273.62871
273.62877
273.62915
273.62953
273.62961
273.62681
273.62712
273.6275
273.62802
273.62896
273.62941
273.62947
273.62981
273.63026
273.63044
273.62768
273.62794
273.62835
273.62896
273.63004
273.63065
273.63078
273.63109
273.63143
273.63149
273.62804
273.62827
273.62871
273.62941
273.63065
273.63141
273.63164
273.63196
273.63224
273.6322
273.62814
273.62835
273.62877
273.62947
273.63078
273.63164
273.63191
273.63221
273.63243
273.63236
273.6283
273.62861
273.62915
273.62981
273.63109
273.63196
273.63221
273.63247
273.63273
273.63292
273.62848
273.62874
273.62953
273.63026
273.63143
273.63224
273.63243
273.63273
273.63312
273.63309
273.62892
273.62884
273.62961
273.63044
273.63149
273.6322
273.63236
273.63292
273.63309
273.63313
304.2108
304.21082
304.21117
304.21131
304.21221
304.21262
304.21275
304.21292
304.21311
304.21355
304.21082
304.21098
304.21117
304.21165
304.21251
304.21288
304.21298
304.21326
304.2134
304.21349
304.21117
304.21117
304.21155
304.21207
304.21296
304.21337
304.21345
304.21384
304.21421
304.21429
304.21131
304.21165
304.21207
304.21263
304.21362
304.21411
304.21419
304.21455
304.21498
304.21515
304.21221
304.21251
304.21296
304.21362
304.21475
304.21539
304.21554
304.21585
304.21618
304.21623
304.21262
304.21288
304.21337
304.21411
304.21539
304.21619
304.21643
304.21675
304.21702
304.21695
304.21275
304.21298
304.21345
304.21419
304.21554
304.21643
304.21671
304.21701
304.21722
304.21712
304.21292
304.21326
304.21384
304.21455
304.21585
304.21675
304.21701
304.21727
304.2175
304.21767
304.21311
304.2134
304.21421
304.21498
304.21618
304.21702
304.21722
304.2175
304.21788
304.21783
304.21355
304.21349
304.21429
304.21515
304.21623
304.21695
304.21712
304.21767
304.21783
304.21786
337.77225
337.77229
337.77268
337.77287
337.7738
337.77424
337.7744
337.77459
337.77478
337.77521
337.77229
337.77248
337.77271
337.77323
337.77412
337.77454
337.77466
337.77495
337.77509
337.77517
337.77268
337.77271
337.77313
337.77368
337.77461
337.77505
337.77516
337.77556
337.77593
337.776
337.77287
337.77323
337.77368
337.77429
337.77531
337.77584
337.77594
337.7763
337.77673
337.77688
337.7738
337.77412
337.77461
337.77531
337.77647
337.77715
337.77731
337.77763
337.77795
337.77799
337.77424
337.77454
337.77505
337.77584
337.77715
337.77798
337.77823
337.77855
337.7788
337.77872
337.7744
337.77466
337.77516
337.77594
337.77731
337.77823
337.77852
337.77881
337.779
337.77887
337.77459
337.77495
337.77556
337.7763
337.77763
337.77855
337.77881
337.77905
337.77927
337.77943
337.77478
337.77509
337.77593
337.77673
337.77795
337.7788
337.779
337.77927
337.77964
337.77956
337.77521
337.77517
337.776
337.77688
337.77799
337.77872
337.77887
337.77943
337.77956
337.77957
374.2956
374.29567
374.29608
374.29632
374.29727
374.29775
374.29793
374.29813
374.29832
374.29874
374.29567
374.29588
374.29614
374.2967
374.29762
374.29807
374.29822
374.29852
374.29865
374.29873
374.29608
374.29614
374.29659
374.29718
374.29814
374.29862
374.29875
374.29916
374.29951
374.29957
374.29632
374.2967
374.29718
374.29783
374.29887
374.29944
374.29956
374.29993
374.30034
374.30048
374.29727
374.29762
374.29814
374.29887
374.30006
374.30077
374.30095
374.30126
374.30157
374.30159
374.29775
374.29807
374.29862
374.29944
374.30077
374.30162
374.30188
374.30219
374.30243
374.30232
374.29793
374.29822
374.29875
374.29956
374.30095
374.30188
374.30217
374.30245
374.30262
374.30247
374.29813
374.29852
374.29916
374.29993
374.30126
374.30219
374.30245
374.30268
374.30288
374.30301
374.29832
374.29865
374.29951
374.30034
374.30157
374.30243
374.30262
374.30288
374.30323
374.30313
374.29874
374.29873
374.29957
374.30048
374.30159
374.30232
374.30247
374.30301
374.30313
374.30312
413.73977
413.73986
413.74029
413.74058
413.74154
413.74205
413.74226
413.74248
413.74266
413.74307
413.73986
413.74009
413.74039
413.74097
413.74191
413.74239
413.74257
413.74288
413.74301
413.74308
413.74029
413.74039
413.74086
413.74148
413.74245
413.74297
413.74312
413.74354
413.74388
413.74392
413.74058
413.74097
413.74148
413.74216
413.74323
413.74383
413.74396
413.74433
413.74473
413.74485
413.74154
413.74191
413.74245
413.74323
413.74443
413.74516
413.74535
413.74567
413.74596
413.74596
413.74205
413.74239
413.74297
413.74383
413.74516
413.74602
413.74629
413.7466
413.74682
413.74669
413.74226
413.74257
413.74312
413.74396
413.74535
413.74629
413.74659
413.74686
413.747
413.74683
413.74248
413.74288
413.74354
413.74433
413.74567
413.7466
413.74686
413.74707
413.74724
413.74736
413.74266
413.74301
413.74388
413.74473
413.74596
413.74682
413.747
413.74724
413.74757
413.74745
413.74307
413.74308
413.74392
413.74485
413.74596
413.74669
413.74683
413.74736
413.74745
413.74742
456.03354
456.03366
456.03411
456.03444
456.0354
456.03594
456.03618
456.03641
456.03659
456.03699
456.03366
456.0339
456.03423
456.03484
456.03578
456.0363
456.03651
456.03683
456.03696
456.03702
456.03411
456.03423
456.03472
456.03537
456.03635
456.0369
456.03708
456.0375
456.03783
456.03786
456.03444
456.03484
456.03537
456.03608
456.03715
456.03778
456.03794
456.03831
456.03869
456.03879
456.0354
456.03578
456.03635
456.03715
456.03836
456.03911
456.03932
456.03963
456.03991
456.03989
456.03594
456.0363
456.0369
456.03778
456.03911
456.03998
456.04026
456.04056
456.04075
456.04061
456.03618
456.03651
456.03708
456.03794
456.03932
456.04026
456.04055
456.04081
456.04092
456.04074
456.03641
456.03683
456.0375
456.03831
456.03963
456.04056
456.04081
456.04101
456.04115
456.04125
456.03659
456.03696
456.03783
456.03869
456.03991
456.04075
456.04092
456.04115
456.04145
456.04131
456.03699
456.03702
456.03786
456.03879
456.03989
456.04061
456.04074
456.04125
456.04131
456.04127
501.07172
501.07186
501.07232
501.0727
501.07364
501.07421
501.07448
501.07472
501.07491
501.07528
501.07186
501.07211
501.07247
501.0731
501.07404
501.07458
501.07482
501.07515
501.07528
501.07534
501.07232
501.07247
501.07297
501.07364
501.07462
501.0752
501.07541
501.07583
501.07615
501.07616
501.0727
501.0731
501.07364
501.07437
501.07544
501.0761
501.07628
501.07665
501.07701
501.07709
501.07364
501.07404
501.07462
501.07544
501.07664
501.0774
501.07763
501.07794
501.0782
501.07817
501.07421
501.07458
501.0752
501.0761
501.0774
501.07828
501.07857
501.07886
501.07903
501.07887
501.07448
501.07482
501.07541
501.07628
501.07763
501.07857
501.07886
501.0791
501.07919
501.07899
501.07472
501.07515
501.07583
501.07665
501.07794
501.07886
501.0791
501.07928
501.0794
501.07947
501.07491
501.07528
501.07615
501.07701
501.0782
501.07903
501.07919
501.0794
501.07967
501.07951
501.07528
501.07534
501.07616
501.07709
501.07817
501.07887
501.07899
501.07947
501.07951
501.07945
548.7117
548.71186
548.71232
548.71275
548.71366
548.71425
548.71456
548.71481
548.715
548.71534
548.71186
548.71211
548.7125
548.71314
548.71406
548.71463
548.71491
548.71525
548.71538
548.71543
548.71232
548.7125
548.71301
548.71369
548.71466
548.71526
548.7155
548.71592
548.71622
548.71623
548.71275
548.71314
548.71369
548.71443
548.71549
548.71616
548.71638
548.71675
548.71709
548.71714
548.71366
548.71406
548.71466
548.71549
548.71666
548.71744
548.71768
548.71799
548.71823
548.71818
548.71425
548.71463
548.71526
548.71616
548.71744
548.71831
548.7186
548.71888
548.71903
548.71886
548.71456
548.71491
548.7155
548.71638
548.71768
548.7186
548.71889
548.71912
548.71918
548.71896
548.71481
548.71525
548.71592
548.71675
548.71799
548.71888
548.71912
548.71928
548.71937
548.71942
548.715
548.71538
548.71622
548.71709
548.71823
548.71903
548.71918
548.71937
548.71961
548.71944
548.71534
548.71543
548.71623
548.71714
548.71818
548.71886
548.71896
548.71942
548.71944
548.71936
598.77067
598.77084
598.7713
598.77177
598.77265
598.77325
598.77359
598.77386
598.77404
598.77436
598.77084
598.77109
598.77151
598.77214
598.77304
598.77364
598.77394
598.77429
598.77442
598.77447
598.7713
598.77151
598.77201
598.7727
598.77364
598.77427
598.77454
598.77495
598.77524
598.77524
598.77177
598.77214
598.7727
598.77345
598.77447
598.77516
598.77541
598.77577
598.77609
598.77613
598.77265
598.77304
598.77364
598.77447
598.7756
598.77638
598.77665
598.77696
598.77718
598.77711
598.77325
598.77364
598.77427
598.77516
598.77638
598.77724
598.77754
598.77782
598.77794
598.77776
598.77359
598.77394
598.77454
598.77541
598.77665
598.77754
598.77783
598.77804
598.77808
598.77785
598.77386
598.77429
598.77495
598.77577
598.77696
598.77782
598.77804
598.77818
598.77824
598.77828
598.77404
598.77442
598.77524
598.77609
598.77718
598.77794
598.77808
598.77824
598.77846
598.77827
598.77436
598.77447
598.77524
598.77613
598.77711
598.77776
598.77785
598.77828
598.77827
598.77817
651.02352
651.02371
651.02415
651.02466
651.02548
651.0261
651.02647
651.02676
651.02694
651.02723
651.02371
651.02394
651.02438
651.02501
651.02586
651.02648
651.02682
651.02718
651.02732
651.02736
651.02415
651.02438
651.02487
651.02555
651.02646
651.02711
651.02741
651.02782
651.02808
651.02808
651.02466
651.02501
651.02555
651.0263
651.02728
651.02798
651.02826
651.02862
651.02891
651.02893
651.02548
651.02586
651.02646
651.02728
651.02836
651.02913
651.02942
651.02972
651.02992
651.02985
651.0261
651.02648
651.02711
651.02798
651.02913
651.02997
651.03028
651.03054
651.03064
651.03045
651.02647
651.02682
651.02741
651.02826
651.02942
651.03028
651.03056
651.03075
651.03077
651.03053
651.02676
651.02718
651.02782
651.02862
651.02972
651.03054
651.03075
651.03087
651.03091
651.03093
651.02694
651.02732
651.02808
651.02891
651.02992
651.03064
651.03077
651.03091
651.03109
651.03089
651.02723
651.02736
651.02808
651.02893
651.02985
651.03045
651.03053
651.03093
651.03089
651.03078
705.20162
705.20182
705.20224
705.20278
705.20354
705.20416
705.20457
705.20487
705.20506
705.2053
705.20182
705.20204
705.20249
705.20311
705.20391
705.20454
705.20491
705.20527
705.20542
705.20546
705.20224
705.20249
705.20297
705.20363
705.20449
705.20514
705.20548
705.20588
705.20613
705.20612
705.20278
705.20311
705.20363
705.20436
705.20529
705.20599
705.2063
705.20666
705.20692
705.20692
705.20354
705.20391
705.20449
705.20529
705.20629
705.20705
705.20736
705.20766
705.20784
705.20776
705.20416
705.20454
705.20514
705.20599
705.20705
705.20786
705.20817
705.20842
705.2085
705.20831
705.20457
705.20491
705.20548
705.2063
705.20736
705.20817
705.20845
705.20862
705.20861
705.20838
705.20487
705.20527
705.20588
705.20666
705.20766
705.20842
705.20862
705.20872
705.20873
705.20873
705.20506
705.20542
705.20613
705.20692
705.20784
705.2085
705.20861
705.20873
705.20888
705.20867
705.2053
705.20546
705.20612
705.20692
705.20776
705.20831
705.20838
705.20873
705.20867
705.20855
760.99252
760.99273
760.99312
760.99369
760.99437
760.99498
760.99542
760.99574
760.99592
760.99613
760.99273
760.99293
760.99339
760.99397
760.9947
760.99534
760.99575
760.99611
760.99627
760.99631
760.99312
760.99339
760.99383
760.99447
760.99526
760.99592
760.99629
760.99668
760.9969
760.99689
760.99369
760.99397
760.99447
760.99518
760.99602
760.99672
760.99706
760.99741
760.99764
760.99763
760.99437
760.9947
760.99526
760.99602
760.99693
760.99767
760.998
760.99829
760.99845
760.99837
760.99498
760.99534
760.99592
760.99672
760.99767
760.99843
760.99875
760.99899
760.99905
760.99886
760.99542
760.99575
760.99629
760.99706
760.998
760.99875
760.99902
760.99918
760.99915
760.99891
760.99574
760.99611
760.99668
760.99741
760.99829
760.99899
760.99918
760.99926
760.99924
760.99922
760.99592
760.99627
760.9969
760.99764
760.99845
760.99905
760.99915
760.99924
760.99935
760.99914
760.99613
760.99631
760.99689
760.99763
760.99837
760.99886
760.99891
760.99922
760.99914
760.99902
818.04067
818.04088
818.04124
818.04183
818.04241
818.04301
818.04348
818.04381
818.04399
818.04415
818.04088
818.04106
818.04152
818.04207
818.04271
818.04335
818.04379
818.04415
818.04431
818.04436
818.04124
818.04152
818.04192
818.04252
818.04323
818.04389
818.04429
818.04466
818.04486
818.04485
818.04183
818.04207
818.04252
818.04319
818.04395
818.04463
818.045
818.04534
818.04553
818.0455
818.04241
818.04271
818.04323
818.04395
818.04474
818.04545
818.0458
818.04608
818.04621
818.04613
818.04301
818.04335
818.04389
818.04463
818.04545
818.04615
818.04647
818.04669
818.04673
818.04655
818.04348
818.04379
818.04429
818.045
818.0458
818.04647
818.04673
818.04687
818.04682
818.04659
818.04381
818.04415
818.04466
818.04534
818.04608
818.04669
818.04687
818.04693
818.04688
818.04685
818.04399
818.04431
818.04486
818.04553
818.04621
818.04673
818.04682
818.04688
818.04696
818.04675
818.04415
818.04436
818.04485
818.0455
818.04613
818.04655
818.04659
818.04685
818.04675
818.04662
875.94928
875.94948
875.94979
875.95039
875.95085
875.95144
875.95193
875.95227
875.95245
875.95256
875.94948
875.94963
875.95008
875.95057
875.95112
875.95174
875.95221
875.95257
875.95274
875.95279
875.94979
875.95008
875.95043
875.95098
875.95158
875.95223
875.95266
875.95302
875.95318
875.95317
875.95039
875.95057
875.95098
875.9516
875.95224
875.9529
875.9533
875.95362
875.95377
875.95373
875.95085
875.95112
875.95158
875.95224
875.9529
875.95356
875.95393
875.9542
875.95431
875.95423
875.95144
875.95174
875.95223
875.9529
875.95356
875.9542
875.95452
875.95472
875.95473
875.95457
875.95193
875.95221
875.95266
875.9533
875.95393
875.95452
875.95476
875.95488
875.95481
875.9546
875.95227
875.95257
875.95302
875.95362
875.9542
875.95472
875.95488
875.95492
875.95485
875.9548
875.95245
875.95274
875.95318
875.95377
875.95431
875.95473
875.95481
875.95485
875.95488
875.95468
875.95256
875.95279
875.95317
875.95373
875.95423
875.95457
875.9546
875.9548
875.95468
875.95455
934.2832
934.28341
934.28366
934.28426
934.28459
934.28515
934.28565
934.28599
934.28617
934.28623
934.28341
934.28352
934.28394
934.28438
934.2848
934.28541
934.28589
934.28624
934.28642
934.28647
934.28366
934.28394
934.28424
934.28472
934.28521
934.28583
934.28628
934.28661
934.28674
934.28674
934.28426
934.28438
934.28472
934.28527
934.28578
934.28641
934.28683
934.28713
934.28724
934.28719
934.28459
934.2848
934.28521
934.28578
934.2863
934.2869
934.28727
934.28753
934.28761
934.28754
934.28515
934.28541
934.28583
934.28641
934.2869
934.28745
934.28776
934.28794
934.28793
934.28779
934.28565
934.28589
934.28628
934.28683
934.28727
934.28776
934.28799
934.28808
934.28799
934.2878
934.28599
934.28624
934.28661
934.28713
934.28753
934.28794
934.28808
934.28809
934.288
934.28794
934.28617
934.28642
934.28674
934.28724
934.28761
934.28793
934.28799
934.288
934.28799
934.28781
934.28623
934.28647
934.28674
934.28719
934.28754
934.28779
934.2878
934.28794
934.28781
934.28767
992.57311
992.5733
992.57348
992.57407
992.57426
992.57477
992.57528
992.57562
992.5758
992.5758
992.5733
992.57337
992.57376
992.57412
992.57441
992.57498
992.57548
992.57582
992.576
992.57605
992.57348
992.57376
992.57399
992.57439
992.57474
992.57533
992.5758
992.57609
992.57619
992.57619
992.57407
992.57412
992.57439
992.57486
992.57522
992.57579
992.57623
992.57651
992.57657
992.57651
992.57426
992.57441
992.57474
992.57522
992.57557
992.57609
992.57647
992.57671
992.57677
992.5767
992.57477
992.57498
992.57533
992.57579
992.57609
992.57654
992.57684
992.57699
992.57697
992.57684
992.57528
992.57548
992.5758
992.57623
992.57647
992.57684
992.57705
992.57711
992.57701
992.57684
992.57562
992.57582
992.57609
992.57651
992.57671
992.57699
992.57711
992.5771
992.57699
992.57691
992.5758
992.576
992.57619
992.57657
992.57677
992.57697
992.57701
992.57699
992.57693
992.57676
992.5758
992.57605
992.57619
992.57651
992.5767
992.57684
992.57684
992.57691
992.57676
992.57663
1050.3206
1050.3207
1050.3209
1050.3214
1050.3214
1050.3219
1050.3224
1050.3227
1050.3229
1050.3228
1050.3207
1050.3208
1050.3211
1050.3214
1050.3215
1050.3221
1050.3226
1050.3229
1050.3231
1050.3231
1050.3209
1050.3211
1050.3213
1050.3216
1050.3218
1050.3223
1050.3228
1050.323
1050.3231
1050.3231
1050.3214
1050.3214
1050.3216
1050.3219
1050.3221
1050.3227
1050.3231
1050.3233
1050.3234
1050.3233
1050.3214
1050.3215
1050.3218
1050.3221
1050.3223
1050.3227
1050.3231
1050.3233
1050.3233
1050.3233
1050.3219
1050.3221
1050.3223
1050.3227
1050.3227
1050.3231
1050.3233
1050.3235
1050.3234
1050.3233
1050.3224
1050.3226
1050.3228
1050.3231
1050.3231
1050.3233
1050.3235
1050.3236
1050.3234
1050.3233
1050.3227
1050.3229
1050.323
1050.3233
1050.3233
1050.3235
1050.3236
1050.3235
1050.3234
1050.3233
1050.3229
1050.3231
1050.3231
1050.3234
1050.3233
1050.3234
1050.3234
1050.3234
1050.3233
1050.3231
1050.3228
1050.3231
1050.3231
1050.3233
1050.3233
1050.3233
1050.3233
1050.3233
1050.3231
1050.323
1107.0044
1107.0045
1107.0045
1107.0051
1107.0049
1107.0053
1107.0058
1107.0061
1107.0062
1107.0061
1107.0045
1107.0045
1107.0048
1107.0049
1107.0049
1107.0054
1107.0059
1107.0061
1107.0063
1107.0064
1107.0045
1107.0048
1107.0048
1107.005
1107.0051
1107.0055
1107.006
1107.0062
1107.0062
1107.0062
1107.0051
1107.0049
1107.005
1107.0053
1107.0053
1107.0057
1107.0062
1107.0064
1107.0063
1107.0062
1107.0049
1107.0049
1107.0051
1107.0053
1107.0053
1107.0056
1107.0059
1107.0061
1107.0061
1107.0061
1107.0053
1107.0054
1107.0055
1107.0057
1107.0056
1107.0058
1107.006
1107.0061
1107.006
1107.006
1107.0058
1107.0059
1107.006
1107.0062
1107.0059
1107.006
1107.0062
1107.0062
1107.006
1107.0059
1107.0061
1107.0061
1107.0062
1107.0064
1107.0061
1107.0061
1107.0062
1107.0061
1107.0059
1107.0058
1107.0062
1107.0063
1107.0062
1107.0063
1107.0061
1107.006
1107.006
1107.0059
1107.0058
1107.0056
1107.0061
1107.0064
1107.0062
1107.0062
1107.0061
1107.006
1107.0059
1107.0058
1107.0056
1107.0055
1162.0875
1162.0877
1162.0876
1162.088
1162.0877
1162.088
1162.0884
1162.0887
1162.0889
1162.0887
1162.0877
1162.0876
1162.0878
1162.0878
1162.0876
1162.088
1162.0885
1162.0887
1162.0889
1162.0889
1162.0876
1162.0878
1162.0878
1162.0878
1162.0877
1162.088
1162.0885
1162.0886
1162.0886
1162.0886
1162.088
1162.0878
1162.0878
1162.088
1162.0878
1162.0881
1162.0885
1162.0887
1162.0885
1162.0884
1162.0877
1162.0876
1162.0877
1162.0878
1162.0875
1162.0877
1162.088
1162.0881
1162.0881
1162.088
1162.088
1162.088
1162.088
1162.0881
1162.0877
1162.0877
1162.0879
1162.088
1162.0878
1162.0878
1162.0884
1162.0885
1162.0885
1162.0885
1162.088
1162.0879
1162.088
1162.088
1162.0878
1162.0877
1162.0887
1162.0887
1162.0886
1162.0887
1162.0881
1162.088
1162.088
1162.0879
1162.0877
1162.0875
1162.0889
1162.0889
1162.0886
1162.0885
1162.0881
1162.0878
1162.0878
1162.0877
1162.0875
1162.0873
1162.0887
1162.0889
1162.0886
1162.0884
1162.088
1162.0878
1162.0877
1162.0875
1162.0873
1162.0872
1215.0254
1215.0255
1215.0253
1215.0257
1215.0252
1215.0253
1215.0257
1215.026
1215.0261
1215.0258
1215.0255
1215.0253
1215.0255
1215.0254
1215.025
1215.0253
1215.0257
1215.0259
1215.026
1215.026
1215.0253
1215.0255
1215.0253
1215.0253
1215.0249
1215.0252
1215.0256
1215.0256
1215.0255
1215.0255
1215.0257
1215.0254
1215.0253
1215.0252
1215.0248
1215.025
1215.0254
1215.0255
1215.0253