/*--------------------------------*- C++ -*----------------------------------*\
| =========                 |                                                 |
| \\      /  F ield         | OpenFOAM: The Open Source CFD Toolbox           |
|  \\    /   O peration     | Version:  v2106                                 |
|   \\  /    A nd           | Website:  www.openfoam.com                      |
|    \\/     M anipulation  |                                                 |
\*---------------------------------------------------------------------------*/
FoamFile
{
    version     2.0;
    format      ascii;
    arch        "LSB;label=32;scalar=64";
    class       volScalarField;
    location    "5";
    object      laplacianT;
}
// * * * * * * * * * * * * * * * * * * * * * * * * * * * * * * * * * * * * * //

dimensions      [0 -2 0 1 0 0 0];

internalField   nonuniform List<scalar> 
4000
(
130.77138
130.56867
130.50184
130.89366
130.59055
130.62194
130.66352
130.67466
130.67343
130.66523
130.56867
130.35258
130.74604
130.64829
130.48538
130.55888
130.60092
130.61049
130.61264
130.64083
130.50184
130.74604
130.64741
130.70177
130.56649
130.63136
130.66642
130.66627
130.63726
130.63911
130.89366
130.64829
130.70177
130.79292
130.65777
130.71829
130.75626
130.77019
130.74208
130.6924
130.59055
130.48538
130.56649
130.65777
130.51554
130.56875
130.60185
130.62336
130.62754
130.63117
130.62194
130.55888
130.63136
130.71829
130.56875
130.61506
130.6403
130.64989
130.64109
130.63641
130.66352
130.60092
130.66642
130.75626
130.60185
130.6403
130.66275
130.66932
130.65551
130.64488
130.67466
130.61049
130.66627
130.77019
130.62336
130.64989
130.66932
130.67717
130.66544
130.65688
130.67343
130.61264
130.63726
130.74208
130.62754
130.64109
130.65551
130.66544
130.65784
130.65134
130.66523
130.64083
130.63911
130.6924
130.63117
130.63641
130.64488
130.65688
130.65134
130.63747
392.60466
392.53103
392.29973
392.90915
392.38427
392.46679
392.55395
392.57706
392.56366
392.52036
392.53103
392.31919
392.71875
392.5981
392.33368
392.48436
392.56882
392.5899
392.60859
392.67268
392.29973
392.71875
392.47834
392.60453
392.37661
392.50884
392.5817
392.57013
392.48799
392.51456
392.90915
392.5981
392.60453
392.78476
392.55219
392.67483
392.75999
392.78858
392.70307
392.61231
392.38427
392.33368
392.37661
392.55219
392.30219
392.4065
392.4801
392.52885
392.51339
392.52232
392.46679
392.48436
392.50884
392.67483
392.4065
392.49305
392.54721
392.57008
392.53038
392.52649
392.55395
392.56882
392.5817
392.75999
392.4801
392.54721
392.59372
392.60968
392.56058
392.54816
392.57706
392.5899
392.57013
392.78858
392.52885
392.57008
392.60968
392.62965
392.58749
392.57821
392.56366
392.60859
392.48799
392.70307
392.51339
392.53038
392.56058
392.58749
392.55554
392.53627
392.52036
392.67268
392.51456
392.61231
392.52232
392.52649
392.54816
392.57821
392.53627
392.52961
656.04212
656.26748
655.88276
656.55705
655.93912
656.0739
656.19527
656.23182
656.22317
656.04165
656.26748
655.93409
656.38201
656.20833
655.91177
656.12576
656.23985
656.24777
656.32312
656.40341
655.88276
656.38201
656.10389
656.22916
655.97115
656.16215
656.27501
656.22854
656.10287
656.13187
656.55705
656.20833
656.22916
656.41513
656.14478
656.31811
656.45474
656.48506
656.36672
656.24964
655.93912
655.91177
655.97115
656.14478
655.84611
655.98842
656.10248
656.15718
656.13047
656.13922
656.0739
656.12576
656.16215
656.31811
655.98842
656.10304
656.18724
656.20436
656.14489
656.14038
656.19527
656.23985
656.27501
656.45474
656.10248
656.18724
656.26024
656.26892
656.20002
656.19063
656.23182
656.24777
656.22854
656.48506
656.15718
656.20436
656.26892
656.28723
656.2333
656.21411
656.22317
656.32312
656.10287
656.36672
656.13047
656.14489
656.20002
656.2333
656.19103
656.13851
656.04165
656.40341
656.13187
656.24964
656.13922
656.14038
656.19063
656.21411
656.13851
656.13827
922.41549
922.70643
922.2213
923.02686
922.30604
922.47739
922.62708
922.67041
922.70528
922.39302
922.70643
922.31789
922.82176
922.63731
922.29349
922.55896
922.70632
922.66822
922.7915
922.89256
922.2213
922.82176
922.4906
922.65274
922.34916
922.58686
922.75175
922.65264
922.49286
922.54895
923.02686
922.63731
922.65274
922.88271
922.55957
922.76986
922.96727
922.97321
922.81545
922.68413
922.30604
922.29349
922.34916
922.55957
922.19834
922.36568
922.53147
922.56853
922.52405
922.54491
922.47739
922.55896
922.58686
922.76986
922.36568
922.49559
922.6218
922.61174
922.52929
922.5435
922.62708
922.70632
922.75175
922.96727
922.53147
922.6218
922.73367
922.71517
922.62653
922.64136
922.67041
922.66822
922.65264
922.97321
922.56853
922.61174
922.71517
922.71385
922.64844
922.61425
922.70528
922.7915
922.49286
922.81545
922.52405
922.52929
922.62653
922.64844
922.58303
922.55664
922.39302
922.89256
922.54895
922.68413
922.54491
922.5435
922.64136
922.61425
922.55664
922.54079
1192.5508
1192.857
1192.3046
1193.2507
1192.4166
1192.6188
1192.7981
1192.837
1192.89
1192.4646
1192.857
1192.406
1192.988
1192.7924
1192.3887
1192.7004
1192.8953
1192.8186
1192.9751
1193.0878
1192.3046
1192.988
1192.6204
1192.8196
1192.4574
1192.7338
1192.9612
1192.8105
1192.6031
1192.6748
1193.2507
1192.7924
1192.8196
1193.0944
1192.7059
1192.9451
1193.2144
1193.1955
1192.9824
1192.8247
1192.4166
1192.3887
1192.4574
1192.7059
1192.2698
1192.4542
1192.6838
1192.7041
1192.6271
1192.6508
1192.6188
1192.7004
1192.7338
1192.9451
1192.4542
1192.5911
1192.7716
1192.7363
1192.6183
1192.6474
1192.7981
1192.8953
1192.9612
1193.2144
1192.6838
1192.7716
1192.9352
1192.8932
1192.7752
1192.8116
1192.837
1192.8186
1192.8105
1193.1955
1192.7041
1192.7363
1192.8932
1192.8779
1192.788
1192.6978
1192.89
1192.9751
1192.6031
1192.9824
1192.6271
1192.6183
1192.7752
1192.788
1192.6513
1192.6778
1192.4646
1193.0878
1192.6748
1192.8247
1192.6508
1192.6474
1192.8116
1192.6978
1192.6778
1192.6469
1467.0377
1467.3941
1466.7757
1467.861
1466.9049
1467.1341
1467.3476
1467.3935
1467.4653
1466.9392
1467.3941
1466.9008
1467.5613
1467.3486
1466.8749
1467.2255
1467.4698
1467.3643
1467.5573
1467.6859
1466.7757
1467.5613
1467.156
1467.3875
1466.9575
1467.2651
1467.5569
1467.3615
1467.1108
1467.2009
1467.861
1467.3486
1467.3875
1467.7029
1467.2401
1467.5009
1467.845
1467.8084
1467.5445
1467.3632
1466.9049
1466.8749
1466.9575
1467.2401
1466.72
1466.9141
1467.2107
1467.2221
1467.1182
1467.1499
1467.1341
1467.2255
1467.2651
1467.5009
1466.9141
1467.0503
1467.2882
1467.2361
1467.0895
1467.1435
1467.3476
1467.4698
1467.5569
1467.845
1467.2107
1467.2882
1467.507
1467.4519
1467.3157
1467.3886
1467.3935
1467.3643
1467.3615
1467.8084
1467.2221
1467.2361
1467.4519
1467.4375
1467.3373
1467.1776
1467.4653
1467.5573
1467.1108
1467.5445
1467.1182
1467.0895
1467.3157
1467.3373
1467.1149
1467.1982
1466.9392
1467.6859
1467.2009
1467.3632
1467.1499
1467.1435
1467.3886
1467.1776
1467.1982
1467.1541
1746.3765
1746.7918
1746.1023
1747.3254
1746.2412
1746.4931
1746.7383
1746.7919
1746.8801
1746.2532
1746.7918
1746.2579
1746.9935
1746.7597
1746.2103
1746.5948
1746.885
1746.7503
1746.9788
1747.1242
1746.1023
1746.9935
1746.5461
1746.8069
1746.3038
1746.6379
1746.9915
1746.7502
1746.4551
1746.5648
1747.3254
1746.7597
1746.8069
1747.1602
1746.6176
1746.8955
1747.3124
1747.2574
1746.942
1746.7378
1746.2412
1746.2103
1746.3038
1746.6176
1746.0082
1746.2069
1746.5686
1746.5707
1746.4398
1746.4819
1746.4931
1746.5948
1746.6379
1746.8955
1746.2069
1746.3372
1746.6302
1746.5607
1746.3859
1746.47
1746.7383
1746.885
1746.9915
1747.3124
1746.5686
1746.6302
1746.9017
1746.8337
1746.6824
1746.8024
1746.7919
1746.7503
1746.7502
1747.2574
1746.5707
1746.5607
1746.8337
1746.8236
1746.7212
1746.4919
1746.8801
1746.9788
1746.4551
1746.942
1746.4398
1746.3859
1746.6824
1746.7212
1746.4111
1746.5542
1746.2532
1747.1242
1746.5648
1746.7378
1746.4819
1746.47
1746.8024
1746.4919
1746.5542
1746.4995
2030.6952
2031.1683
2030.4043
2031.7652
2030.5495
2030.8222
2031.0973
2031.1579
2031.2616
2030.5322
2031.1683
2030.5905
2031.3994
2031.1427
2030.5147
2030.9313
2031.266
2031.1007
2031.3648
2031.5283
2030.4043
2031.3994
2030.9074
2031.1962
2030.6171
2030.9762
2031.3907
2031.102
2030.7615
2030.8926
2031.7652
2031.1427
2031.1962
2031.5862
2030.961
2031.2542
2031.7436
2031.6691
2031.3012
2031.0756
2030.5495
2030.5147
2030.6171
2030.961
2030.2591
2030.4606
2030.8868
2030.8788
2030.7204
2030.775
2030.8222
2030.9313
2030.9762
2031.2542
2030.4606
2030.5826
2030.9297
2030.8417
2030.6381
2030.756
2031.0973
2031.266
2031.3907
2031.7436
2030.8868
2030.9297
2031.2528
2031.1707
2031.0047
2031.1784
2031.1579
2031.1007
2031.102
2031.6691
2030.8788
2030.8417
2031.1707
2031.1651
2031.0635
2030.7677
2031.2616
2031.3648
2030.7615
2031.3012
2030.7204
2030.6381
2031.0047
2031.0635
2030.666
2030.8729
2030.5322
2031.5283
2030.8926
2031.0756
2030.775
2030.756
2031.1784
2030.7677
2030.8729
2030.8104
2319.7577
2320.2866
2319.4467
2320.9457
2319.5967
2319.8894
2320.1941
2320.2615
2320.381
2319.5479
2320.2866
2319.6625
2320.5435
2320.2635
2319.555
2320.0032
2320.3825
2320.186
2320.4867
2320.6703
2319.4467
2320.5435
2320.006
2320.3223
2319.6655
2320.0491
2320.5251
2320.188
2319.8019
2319.9569
2320.9457
2320.2635
2320.3223
2320.7485
2320.039
2320.3468
2320.9095
2320.8152
2320.3944
2320.1493
2319.5967
2319.555
2319.6655
2320.039
2319.2426
2319.446
2319.9374
2319.9191
2319.7331
2319.8029
2319.8894
2320.0032
2320.0491
2320.3468
2319.446
2319.5584
2319.9603
2319.8534
2319.6209
2319.7758
2320.1941
2320.3825
2320.5251
2320.9095
2319.9374
2319.9603
2320.3351
2320.2386
2320.0581
2320.2903
2320.2615
2320.186
2320.188
2320.8152
2319.9191
2319.8534
2320.2386
2320.2374
2320.138
2319.7779
2320.381
2320.4867
2319.8019
2320.3944
2319.7331
2319.6209
2320.0581
2320.138
2319.6528
2319.9278
2319.5479
2320.6703
2319.9569
2320.1493
2319.8029
2319.7758
2320.2903
2319.7779
2319.9278
2319.8599
2612.9419
2613.5247
2612.6086
2614.2455
2612.7624
2613.0748
2613.409
2613.4835
2613.6194
2612.6819
2613.5247
2612.8528
2613.8048
2613.5015
2612.7115
2613.1908
2613.6152
2613.3872
2613.7256
2613.9314
2612.6086
2613.8048
2613.2217
2613.5651
2612.8295
2613.2371
2613.7757
2613.3895
2612.9579
2613.1393
2614.2455
2613.5015
2613.5651
2614.0271
2613.2319
2613.5538
2614.1911
2614.0769
2613.603
2613.3406
2612.7624
2612.7115
2612.8295
2613.2319
2612.3396
2612.5441
2613.1021
2613.0735
2612.8602
2612.9475
2613.0748
2613.1908
2613.2371
2613.5538
2612.5441
2612.6462
2613.1039
2612.978
2612.7169
2612.912
2613.409
2613.6152
2613.7757
2614.1911
2613.1021
2613.1039
2613.5315
2613.4204
2613.2259
2613.5204
2613.4835
2613.3872
2613.3895
2614.0769
2613.0735
2612.978
2613.4204
2613.4239
2613.3276
2612.9048
2613.6194
2613.7256
2612.9579
2613.603
2612.8602
2612.7169
2613.2259
2613.3276
2612.754
2613.1008
2612.6819
2613.9314
2613.1393
2613.3406
2612.9475
2612.912
2613.5204
2612.9048
2613.1008
2613.0296
2909.2087
2909.8433
2908.8515
2910.6249
2909.0081
2909.3396
2909.7034
2909.7852
2909.9381
2908.896
2909.8433
2909.123
2910.1442
2909.8178
2908.9456
2909.4554
2909.9254
2909.6657
2910.0429
2910.2729
2908.8515
2910.1442
2909.516
2909.886
2909.0706
2909.5016
2910.1037
2909.6683
2909.1912
2909.4015
2910.6249
2909.8178
2909.886
2910.3829
2909.5011
2909.8364
2910.5495
2910.4154
2909.8883
2909.6109
2909.0081
2908.9456
2909.0706
2909.5011
2908.5121
2908.7169
2909.3425
2909.3039
2909.0633
2909.1707
2909.3396
2909.4554
2909.5016
2909.8364
2908.7169
2908.8076
2909.3221
2909.1775
2908.8881
2909.1265
2909.7034
2909.9254
2910.1037
2910.5495
2909.3425
2909.3221
2909.8035
2909.6782
2909.4703
2909.8307
2909.7852
2909.6657
2909.6683
2910.4154
2909.3039
2909.1775
2909.6782
2909.6869
2909.5947
2909.1102
2909.9381
2910.0429
2909.1912
2909.8883
2909.0633
2908.8881
2909.4703
2909.5947
2908.9317
2909.354
2908.896
2910.2729
2909.4015
2909.6109
2909.1707
2909.1265
2909.8307
2909.1102
2909.354
2909.2812
3207.0797
3207.7636
3206.6976
3208.6048
3206.8557
3207.2054
3207.5987
3207.688
3207.8587
3206.712
3207.7636
3206.9951
3208.0829
3207.7341
3206.7796
3207.3187
3207.8347
3207.5431
3207.96
3208.2158
3206.6976
3208.0829
3207.4106
3207.8063
3206.911
3207.3643
3208.0306
3207.5457
3207.0239
3207.2653
3208.6048
3207.7341
3207.8063
3208.337
3207.3683
3207.716
3208.5057
3208.3517
3207.7718
3207.4818
3206.8557
3206.7796
3206.911
3207.3683
3206.2821
3206.4861
3207.1805
3207.1318
3206.8644
3206.9941
3207.2054
3207.3187
3207.3643
3207.716
3206.4861
3206.5643
3207.1366
3206.9735
3206.6564
3206.9411
3207.5987
3207.8347
3208.0306
3208.5057
3207.1805
3207.1366
3207.6728
3207.5336
3207.3133
3207.743
3207.688
3207.5431
3207.5457
3208.3517
3207.1318
3206.9735
3207.5336
3207.5482
3207.4611
3206.9157
3207.8587
3207.96
3207.0239
3207.7718
3206.8644
3206.6564
3207.3133
3207.4611
3206.7079
3207.209
3206.712
3208.2158
3207.2653
3207.4818
3206.9941
3206.9411
3207.743
3206.9157
3207.209
3207.1364
3504.6273
3505.3579
3504.2197
3506.2567
3504.378
3504.7447
3505.1671
3505.264
3505.453
3504.2027
3505.3579
3504.542
3505.6929
3505.3225
3504.2863
3504.853
3505.4151
3505.0915
3505.5488
3505.8319
3504.2197
3505.6929
3504.9781
3505.3984
3504.4233
3504.8974
3505.6285
3505.0941
3504.5282
3504.803
3506.2567
3505.3225
3505.3984
3505.9612
3504.9059
3505.2643
3506.1314
3505.9573
3505.3254
3505.0253
3504.378
3504.2863
3504.4233
3504.9059
3503.7229
3503.9246
3504.6883
3504.6298
3504.3358
3504.4902
3504.7447
3504.853
3504.8974
3505.2643
3503.9246
3503.9887
3504.6196
3504.4383
3504.0943
3504.4282
3505.1671
3505.4151
3505.6285
3506.1314
3504.6883
3504.6196
3505.2114
3505.0587
3504.8272
3505.3295
3505.264
3505.0915
3505.0941
3505.9573
3504.6298
3504.4383
3505.0587
3505.0798
3504.9992
3504.3938
3505.453
3505.5488
3504.5282
3505.3254
3504.3358
3504.0943
3504.8272
3504.9992
3504.1551
3504.7383
3504.2027
3505.8319
3504.803
3505.0253
3504.4902
3504.4282
3505.3295
3504.3938
3504.7383
3504.6674
3799.4764
3800.2503
3799.0433
3801.204
3799.2001
3799.5823
3800.0328
3800.1375
3800.3452
3798.9929
3800.2503
3799.3888
3800.5983
3800.2076
3799.091
3799.683
3800.2908
3799.9355
3800.4334
3800.745
3799.0433
3800.5983
3799.8434
3800.2866
3799.2328
3799.7257
3800.5213
3799.9379
3799.3292
3799.6392
3801.204
3800.2076
3800.2866
3800.8794
3799.7386
3800.1059
3801.0502
3800.8562
3800.1731
3799.8658
3799.2001
3799.091
3799.2328
3799.7386
3798.46
3798.6576
3799.4907
3799.4224
3799.1026
3799.2837
3799.5823
3799.683
3799.7257
3800.1059
3798.6576
3798.7061
3799.3958
3799.1967
3798.8268
3799.2125
3800.0328
3800.2908
3800.5213
3801.0502
3799.4907
3799.3958
3800.0434
3799.8778
3799.6364
3800.2144
3800.1375
3799.9355
3799.9379
3800.8562
3799.4224
3799.1967
3799.8778
3799.9062
3799.8335
3799.169
3800.3452
3800.4334
3799.3292
3800.1731
3799.1026
3798.8268
3799.6364
3799.8335
3798.8981
3799.5665
3798.9929
3800.745
3799.6392
3799.8658
3799.2837
3799.2125
3800.2144
3799.169
3799.5665
3799.4987
4088.8178
4089.6313
4088.3597
4090.6363
4088.5132
4088.909
4089.3865
4089.4989
4089.7256
4088.2739
4089.6313
4088.727
4089.9895
4089.5799
4088.3852
4088.9999
4089.6524
4089.2657
4089.8041
4090.145
4088.3597
4089.9895
4089.1973
4089.6616
4088.5308
4089.0401
4089.8996
4089.2678
4088.6181
4088.9647
4090.6363
4089.5799
4089.6616
4090.2818
4089.0574
4089.4313
4090.452
4090.2382
4089.5055
4089.194
4088.5132
4088.3852
4088.5308
4089.0574
4087.6854
4087.8769
4088.779
4088.7008
4088.3558
4088.5656
4088.909
4088.9999
4089.0401
4089.4313
4087.8769
4087.908
4088.6563
4088.4397
4088.0451
4088.4852
4089.3865
4089.6524
4089.8996
4090.452
4088.779
4088.6563
4089.3597
4089.1817
4088.9319
4089.5883
4089.4989
4089.2657
4089.2678
4090.2382
4088.7008
4088.4397
4089.1817
4089.2181
4089.1548
4088.4323
4089.7256
4089.8041
4088.6181
4089.5055
4088.3558
4088.0451
4088.9319
4089.1548
4088.1282
4088.8844
4088.2739
4090.145
4088.9647
4089.194
4088.5656
4088.4852
4089.5883
4088.4323
4088.8844
4088.8212
4369.4353
4370.2841
4368.9534
4371.3362
4369.1017
4369.5087
4370.0116
4370.1316
4370.3772
4368.8299
4370.2841
4369.3407
4370.6497
4370.2231
4368.9535
4369.5874
4370.2834
4369.8659
4370.4441
4370.8146
4368.9534
4370.6497
4369.8238
4370.3069
4369.102
4369.6246
4370.5467
4369.8676
4369.1789
4369.5633
4371.3362
4370.2231
4370.3069
4370.9514
4369.6463
4370.0241
4371.1197
4370.8862
4370.1059
4369.7934
4369.1017
4368.9535
4369.102
4369.6463
4368.1843
4368.3674
4369.3373
4369.2491
4368.8799
4369.1199
4369.5087
4369.5874
4369.6246
4370.0241
4368.3674
4368.3791
4369.1852
4368.9516
4368.5339
4369.0302
4370.0116
4370.2834
4370.5467
4371.1197
4369.3373
4369.1852
4369.9437
4369.7541
4369.4976
4370.2346
4370.1316
4369.8659
4369.8676
4370.8862
4369.2491
4368.9516
4369.7541
4369.799
4369.7468
4368.9678
4370.3772
4370.4441
4369.1789
4370.1059
4368.8799
4368.5339
4369.4976
4369.7468
4368.6295
4369.4757
4368.8299
4370.8146
4369.5633
4369.7934
4369.1199
4369.0302
4370.2346
4368.9678
4369.4757
4369.4185
4637.7454
4638.6248
4637.2415
4639.7188
4637.3825
4637.7982
4638.3243
4638.4517
4638.716
4637.0781
4638.6248
4637.6471
4638.9948
4638.5535
4637.2134
4637.8627
4638.6002
4638.1525
4638.7694
4639.1694
4637.2415
4638.9948
4638.1397
4638.6389
4637.3637
4637.8961
4638.8786
4638.1538
4637.4288
4637.8516
4639.7188
4638.5535
4638.6389
4639.304
4637.9224
4638.3009
4639.469
4639.2159
4638.3907
4638.0803
4637.3825
4637.2134
4637.3637
4637.9224
4636.3749
4636.5471
4637.5827
4637.4845
4637.0922
4637.3635
4637.7982
4637.8627
4637.8961
4638.3009
4636.5471
4636.5373
4637.3998
4637.1498
4636.7106
4637.2646
4638.3243
4638.6002
4638.8786
4639.469
4637.5827
4637.3998
4638.2121
4638.0115
4637.7503
4638.5694
4638.4517
4638.1525
4638.1538
4639.2159
4637.4845
4637.1498
4638.0115
4638.0656
4638.0261
4637.1923
4638.716
4638.7694
4637.4288
4638.3907
4637.0922
4636.7106
4637.7503
4638.0261
4636.8196
4637.7571
4637.0781
4639.1694
4637.8516
4638.0803
4637.3635
4637.2646
4638.5694
4637.1923
4637.7571
4637.7071
4889.8507
4890.7555
4889.3275
4891.8852
4889.4591
4889.8803
4890.4273
4890.5615
4890.844
4889.1216
4890.7555
4889.7494
4891.1271
4890.6736
4889.2687
4889.9289
4890.7051
4890.2285
4890.8823
4891.311
4889.3275
4891.1271
4890.2479
4890.7601
4889.4196
4889.9578
4890.9978
4890.2295
4889.4712
4889.9325
4891.8852
4890.6736
4890.7601
4891.4417
4889.9888
4890.3646
4891.6016
4891.3294
4890.4625
4890.1574
4889.4591
4889.2687
4889.4196
4889.9888
4888.3618
4888.5203
4889.6188
4889.5104
4889.0963
4889.3997
4889.8803
4889.9289
4889.9578
4890.3646
4888.5203
4888.4871
4889.4036
4889.1379
4888.6792
4889.2916
4890.4273
4890.7051
4890.9978
4891.6016
4889.6188
4889.4036
4890.2677
4890.057
4889.793
4890.6949
4890.5615
4890.2285
4890.2295
4891.3294
4889.5104
4889.1379
4890.057
4890.1207
4890.0956
4889.209
4890.844
4890.8823
4889.4712
4890.4625
4889.0963
4888.6792
4889.793
4890.0956
4888.8019
4889.8314
4889.1216
4891.311
4889.9325
4890.1574
4889.3997
4889.2916
4890.6949
4889.209
4889.8314
4889.7895
5121.6063
5122.5307
5121.067
5123.6894
5121.187
5121.6106
5122.1753
5122.3158
5122.6157
5120.8165
5122.5307
5121.5032
5122.9012
5122.4385
5120.9756
5121.6416
5122.4533
5121.9492
5122.6373
5123.0936
5121.067
5122.9012
5122.0037
5122.5255
5121.1259
5121.6655
5122.7591
5121.9498
5121.1622
5121.6612
5123.6894
5122.4385
5122.5255
5123.2189
5121.7013
5122.0706
5123.3719
5123.0811
5122.1763
5121.8798
5121.187
5120.9756
5121.1259
5121.7013
5120.0022
5120.1442
5121.3016
5121.1829
5120.7486
5121.0843
5121.6106
5121.6416
5121.6655
5122.0706
5120.1442
5120.0854
5121.0529
5120.7724
5120.2963
5120.9671
5122.1753
5122.4533
5122.7591
5123.3719
5121.3016
5121.0529
5121.9661
5121.746
5121.4815
5122.4658
5122.3158
5121.9492
5121.9498
5123.0811
5121.1829
5120.7724
5121.746
5121.8197
5121.8106
5120.8738
5122.6157
5122.6373
5121.1622
5122.1763
5120.7486
5120.2963
5121.4815
5121.8106
5120.4329
5121.5538
5120.8165
5123.0936
5121.6612
5121.8798
5121.0843
5120.9671
5122.4658
5120.8738
5121.5538
5121.5209
5328.6981
5329.6362
5328.1469
5330.8159
5328.2531
5328.6756
5329.2545
5329.4005
5329.7166
5327.8496
5329.6362
5328.5953
5330.0028
5329.5344
5328.0215
5328.6878
5329.5309
5329.0011
5329.7205
5330.2022
5328.1469
5330.0028
5329.0937
5329.6213
5328.1699
5328.706
5329.8483
5329.0015
5328.1887
5328.7241
5330.8159
5329.5344
5329.6213
5330.3213
5328.7469
5329.1057
5330.4655
5330.1568
5329.2187
5328.9339
5328.2531
5328.0215
5328.1699
5328.7469
5326.9844
5327.1071
5328.3184
5328.1892
5327.7366
5328.1041
5328.6756
5328.6878
5328.706
5329.1057
5327.1071
5327.0207
5328.0353
5327.7408
5327.25
5327.9781
5329.2545
5329.5309
5329.8483
5330.4655
5328.3184
5328.0353
5328.9939
5328.7655
5328.5026
5329.5679
5329.4005
5329.0011
5329.0015
5330.1568
5328.1892
5327.7408
5328.7655
5328.8493
5328.8578
5327.8736
5329.7166
5329.7205
5328.1887
5329.2187
5327.7366
5327.25
5328.5026
5328.8578
5327.4
5328.6106
5327.8496
5330.2022
5328.7241
5328.9339
5328.1041
5327.9781
5329.5679
5327.8736
5328.6106
5328.5875
5506.7331
5507.6784
5506.1748
5508.8707
5506.2652
5506.6826
5507.2718
5507.4223
5507.7532
5505.8288
5507.6784
5506.6331
5508.0387
5507.568
5506.0146
5506.6752
5507.545
5506.9917
5507.7384
5508.2429
5506.1748
5508.0387
5507.1251
5507.6544
5506.1597
5506.6873
5507.8724
5506.9921
5506.1588
5506.7284
5508.8707
5507.568
5507.6544
5508.3554
5506.7334
5507.0775
5508.4889
5508.1631
5507.1968
5506.9267
5506.2652
5506.0146
5506.1597
5506.7334
5504.9179
5505.0182
5506.2775
5506.1377
5505.6688
5506.0671
5506.6826
5506.6752
5506.6873
5507.0775
5505.0182
5504.9026
5505.9594
5505.6519
5505.1492
5505.9327
5507.2718
5507.545
5507.8724
5508.4889
5506.2775
5505.9594
5506.9588
5506.7231
5506.4642
5507.6078
5507.4223
5506.9917
5506.9921
5508.1631
5506.1377
5505.6519
5506.7231
5506.817
5506.8445
5505.8165
5507.7532
5507.7384
5506.1588
5507.1968
5505.6688
5505.1492
5506.4642
5506.8445
5505.312
5506.6092
5505.8288
5508.2429
5506.7284
5506.9267
5506.0671
5505.9327
5507.6078
5505.8165
5506.6092
5506.5962
5651.3382
5652.2839
5650.7783
5653.4797
5650.8508
5651.2591
5651.8543
5652.0084
5652.3521
5650.3821
5652.2839
5651.2441
5652.6355
5652.1667
5650.5832
5651.2319
5652.1229
5651.5487
5652.3181
5652.8421
5650.7783
5652.6355
5651.7253
5652.252
5650.7239
5651.2374
5652.4584
5651.5492
5650.7009
5651.3016
5653.4797
5652.1667
5652.252
5652.9481
5651.289
5651.6139
5653.0688
5652.727
5651.7383
5651.4858
5650.8508
5650.5832
5650.7239
5651.289
5649.4322
5649.5072
5650.8073
5650.6568
5650.1741
5650.6013
5651.2591
5651.2319
5651.2374
5651.6139
5649.5072
5649.3608
5650.4539
5650.1347
5649.623
5650.4589
5651.8543
5652.1229
5652.4584
5653.0688
5650.8073
5650.4539
5651.4888
5651.2468
5650.9944
5652.2121
5652.0084
5651.5487
5651.5492
5652.727
5650.6568
5650.1347
5651.2468
5651.3507
5651.3984
5650.3306
5652.3521
5652.3181
5650.7009
5651.7383
5650.1741
5649.623
5650.9944
5651.3984
5649.7975
5651.1769
5650.3821
5652.8421
5651.3016
5651.4858
5650.6013
5650.4589
5652.2121
5650.3306
5651.1769
5651.1742
5758.2671
5759.2063
5757.7116
5760.3956
5757.7646
5758.1596
5758.7559
5758.9123
5759.2666
5757.2643
5759.2063
5758.1825
5759.5471
5759.0842
5757.4824
5758.1126
5759.0186
5758.4266
5759.2133
5759.7527
5757.7116
5759.5471
5758.6485
5759.1681
5757.6173
5758.1112
5759.3603
5758.4273
5757.5698
5758.1979
5760.3956
5759.0842
5759.1681
5759.853
5758.1685
5758.4698
5759.9588
5759.6022
5758.5977
5758.3653
5757.7646
5757.4824
5757.6173
5758.1685
5756.2834
5756.3305
5757.6631
5757.5019
5757.008
5757.4616
5758.1596
5758.1126
5758.1112
5758.4698
5756.3305
5756.152
5757.2747
5756.9451
5756.4278
5757.3119
5758.7559
5759.0186
5759.3603
5759.9588
5757.6631
5757.2747
5758.3387
5758.0917
5757.848
5759.1344
5758.9123
5758.4266
5758.4273
5759.6022
5757.5019
5756.9451
5758.0917
5758.2052
5758.2741
5757.171
5759.2666
5759.2133
5757.5698
5758.5977
5757.008
5756.4278
5757.848
5758.2741
5756.6125
5758.068
5757.2643
5759.7527
5758.1979
5758.3653
5757.4616
5757.3119
5759.1344
5757.171
5758.068
5758.0755
5823.5117
5824.4374
5822.9674
5825.6098
5822.9991
5823.3766
5823.969
5824.1262
5824.4885
5822.4683
5824.4374
5823.4407
5824.7654
5824.3129
5822.7054
5823.3104
5824.2246
5823.6181
5824.4162
5824.9664
5822.9674
5824.7654
5823.8871
5824.3947
5822.8333
5823.3018
5824.5702
5823.6195
5822.759
5823.4098
5825.6098
5824.3129
5824.3947
5825.0621
5823.3651
5823.6384
5825.151
5824.7812
5823.7679
5823.5579
5822.9991
5822.7054
5822.8333
5823.3651
5821.4661
5821.4827
5822.8385
5822.6668
5822.1645
5822.6413
5823.3766
5823.3104
5823.3018
5823.6384
5821.4827
5821.2712
5822.4157
5822.0773
5821.5578
5822.4849
5823.969
5824.2246
5824.5702
5825.151
5822.8385
5822.4157
5823.5018
5823.251
5823.0184
5824.3664
5824.1262
5823.6181
5823.6195
5824.7812
5822.6668
5822.0773
5823.251
5823.3734
5823.4644
5822.3312
5824.4885
5824.4162
5822.759
5823.7679
5822.1645
5821.5578
5823.0184
5823.4644
5821.7508
5823.275
5822.4683
5824.9664
5823.4098
5823.5579
5822.6413
5822.4849
5824.3664
5822.3312
5823.275
5823.2922
5843.4158
5844.3206
5842.8895
5845.4655
5842.8987
5843.2545
5843.8375
5843.9942
5844.3615
5842.339
5844.3206
5843.3628
5844.6343
5844.1966
5842.5972
5843.1701
5844.0852
5843.4681
5844.2708
5844.8266
5842.8895
5844.6343
5843.7851
5844.2759
5842.7168
5843.1543
5844.4321
5843.4702
5842.6135
5843.2815
5845.4655
5844.1966
5844.2759
5844.9193
5843.2236
5843.4647
5844.9894
5844.6082
5843.5936
5843.4079
5842.8987
5842.5972
5842.7168
5843.2236
5841.3264
5841.3102
5842.679
5842.4968
5841.9893
5842.4853
5843.2545
5843.1701
5843.1543
5843.4647
5841.3102
5841.0652
5842.223
5841.8775
5841.3595
5842.3231
5843.8375
5844.0852
5844.4321
5844.9894
5842.679
5842.223
5843.3231
5843.0699
5842.8506
5844.2517
5843.9942
5843.4681
5843.4702
5844.6082
5842.4968
5841.8775
5843.0699
5843.2004
5843.3138
5842.1563
5844.3615
5844.2708
5842.6135
5843.5936
5841.9893
5841.3595
5842.8506
5843.3138
5841.5585
5843.1421
5842.339
5844.8266
5843.2815
5843.4079
5842.4853
5842.3231
5844.2517
5842.1563
5843.1421
5843.1683
5814.7869
5815.6637
5814.2862
5816.7702
5814.2717
5814.6016
5815.1696
5815.3241
5815.6933
5813.685
5815.6637
5814.7565
5815.9618
5815.5434
5813.9664
5814.5006
5815.4086
5814.785
5815.5853
5816.1408
5814.2862
5815.9618
5815.1507
5815.6199
5814.0767
5814.4775
5815.7544
5814.7883
5813.9423
5814.6213
5816.7702
5815.5434
5815.6199
5816.2327
5814.5531
5814.7579
5816.2822
5815.8915
5814.8837
5814.7238
5814.2717
5813.9664
5814.0767
5814.5531
5812.6741
5812.6232
5813.9938
5813.8015
5813.2922
5813.8028
5814.6016
5814.5006
5814.4775
5814.7579
5812.6232
5812.3447
5813.5065
5813.1557
5812.6431
5813.6357
5815.1696
5815.4086
5815.7544
5816.2822
5813.9938
5813.5065
5814.6117
5814.3576
5814.1537
5815.5981
5815.3241
5814.785
5814.7883
5815.8915
5813.8015
5813.1557
5814.3576
5814.4952
5814.6311
5813.4557
5815.6933
5815.5853
5813.9423
5814.8837
5813.2922
5812.6431
5814.1537
5814.6311
5812.8454
5814.4776
5813.685
5816.1408
5814.6213
5814.7238
5813.8028
5813.6357
5815.5981
5813.4557
5814.4776
5814.512
5735.0044
5735.8462
5734.5367
5736.9033
5734.498
5734.798
5735.3453
5735.4958
5735.8634
5733.8866
5735.8462
5735.0014
5736.1275
5735.7329
5734.1933
5734.6823
5735.5749
5734.9495
5735.7395
5736.2885
5734.5367
5736.1275
5735.3635
5735.8062
5734.2933
5734.6521
5735.9168
5734.9541
5734.1261
5734.8092
5736.9033
5735.7329
5735.8062
5736.382
5734.734
5734.8987
5736.4093
5736.0115
5735.0189
5734.8859
5734.498
5734.1933
5734.2933
5734.734
5732.8903
5732.8033
5734.1638
5733.9618
5733.4543
5733.9742
5734.798
5734.6823
5734.6521
5734.8987
5732.8033
5732.4919
5733.6476
5733.2936
5732.7902
5733.8034
5735.3453
5735.5749
5735.9168
5736.4093
5734.1638
5733.6476
5734.7485
5734.4949
5734.3084
5735.7848
5735.4958
5734.9495
5734.9541
5736.0115
5733.9618
5733.2936
5734.4949
5734.6385
5734.7965
5733.6103
5735.8634
5735.7395
5734.1261
5735.0189
5733.4543
5732.7902
5734.3084
5734.7965
5732.9929
5734.6616
5733.8866
5736.2885
5734.8092
5734.8859
5733.9742
5733.8034
5735.7848
5733.6103
5734.6616
5734.7029
5602.1188
5602.9185
5601.6915
5603.9155
5601.6283
5601.8945
5602.4154
5602.5602
5602.9224
5600.9951
5602.9185
5602.1478
5603.1823
5602.816
5601.329
5601.7666
5602.6351
5602.0127
5602.7847
5603.3205
5601.6915
5603.1823
5602.4741
5602.8857
5601.4178
5601.7294
5602.9703
5602.019
5601.2163
5601.8961
5603.9155
5602.816
5602.8857
5603.4183
5601.8178
5601.9391
5603.422
5603.0196
5602.0508
5601.9455
5601.6283
5601.329
5601.4178
5601.8178
5600.0272
5599.903
5601.2409
5601.0298
5600.5278
5601.0512
5601.8945
5601.7666
5601.7294
5601.9391
5599.903
5599.5598
5600.6989
5600.3438
5599.8537
5600.8779
5602.4154
5602.6351
5602.9703
5603.422
5601.2409
5600.6989
5601.7854
5601.5339
5601.3667
5602.8623
5602.5602
5602.0127
5602.019
5603.0196
5601.0298
5600.3438
5601.5339
5601.6819
5601.8615
5600.672
5602.9224
5602.7847
5601.2163
5602.0508
5600.5278
5599.8537
5601.3667
5601.8615
5600.0536
5601.745
5600.9951
5603.3205
5601.8961
5601.9455
5601.0512
5600.8779
5602.8623
5600.672
5601.745
5601.792
5414.9393
5415.6905
5414.5597
5416.6169
5414.4722
5414.7013
5415.1899
5415.3273
5415.6803
5413.8206
5415.6905
5415.0048
5415.9361
5415.6023
5414.1833
5414.5637
5415.3994
5414.7852
5415.5308
5416.0466
5414.5597
5415.9361
5415.292
5415.6682
5414.26
5414.5201
5415.7249
5414.7934
5414.0234
5414.6921
5416.6169
5415.6023
5415.6682
5416.1517
5414.6147
5414.6899
5416.1306
5415.7263
5414.7903
5414.7128
5414.4722
5414.1833
5414.26
5414.6147
5412.8953
5412.7335
5414.0358
5413.8164
5413.3238
5413.8444
5414.7013
5414.5637
5414.5201
5414.6899
5412.7335
5412.36
5413.4714
5413.1177
5412.6449
5413.6699
5415.1899
5415.3994
5415.7249
5416.1306
5414.0358
5413.4714
5414.5333
5414.2854
5414.139
5415.6403
5415.3273
5414.7852
5414.7934
5415.7263
5413.8164
5413.1177
5414.2854
5414.4363
5414.6364
5413.4518
5415.6803
5415.5308
5414.0234
5414.7903
5413.3238
5412.6449
5414.139
5414.6364
5412.8387
5414.5379
5413.8206
5416.0466
5414.6921
5414.7128
5413.8444
5413.6699
5415.6403
5413.4518
5414.5379
5414.589
5173.1073
5173.8037
5172.7825
5174.6497
5172.6712
5172.8599
5173.3109
5173.4391
5173.7789
5172.0051
5173.8037
5173.2135
5174.0309
5173.7337
5172.3978
5172.7158
5173.51
5172.9092
5173.6201
5174.1091
5172.7825
5174.0309
5173.4589
5173.7955
5172.4619
5172.6662
5173.8229
5172.9196
5172.1896
5172.839
5174.6497
5173.7337
5173.7955
5174.2244
5172.7671
5172.7938