/*--------------------------------*- C++ -*----------------------------------*\
| =========                 |                                                 |
| \\      /  F ield         | OpenFOAM: The Open Source CFD Toolbox           |
|  \\    /   O peration     | Version:  v2106                                 |
|   \\  /    A nd           | Website:  www.openfoam.com                      |
|    \\/     M anipulation  |                                                 |
\*---------------------------------------------------------------------------*/
FoamFile
{
    version     2.0;
    format      ascii;
    arch        "LSB;label=32;scalar=64";
    class       volVectorField;
    location    "80";
    object      U;
}
// * * * * * * * * * * * * * * * * * * * * * * * * * * * * * * * * * * * * * //

dimensions      [0 1 -1 0 0 0 0];

internalField   nonuniform List<vector> 
4000
(
(0 0 166.811)
(0 0 228.305)
(0 0 241.871)
(0 0 245.524)
(0 0 246.58)
(0 0 246.58)
(0 0 245.524)
(0 0 241.871)
(0 0 228.305)
(0 0 166.811)
(0 0 228.305)
(0 0 335.595)
(0 0 364.311)
(0 0 373.158)
(0 0 375.912)
(0 0 375.912)
(0 0 373.158)
(0 0 364.311)
(0 0 335.595)
(0 0 228.305)
(0 0 241.871)
(0 0 364.311)
(0 0 399.895)
(0 0 411.679)
(0 0 415.526)
(0 0 415.526)
(0 0 411.679)
(0 0 399.895)
(0 0 364.311)
(0 0 241.871)
(0 0 245.524)
(0 0 373.158)
(0 0 411.679)
(0 0 424.942)
(0 0 429.394)
(0 0 429.394)
(0 0 424.942)
(0 0 411.679)
(0 0 373.158)
(0 0 245.524)
(0 0 246.58)
(0 0 375.912)
(0 0 415.526)
(0 0 429.394)
(0 0 434.109)
(0 0 434.109)
(0 0 429.394)
(0 0 415.526)
(0 0 375.912)
(0 0 246.58)
(0 0 246.58)
(0 0 375.912)
(0 0 415.526)
(0 0 429.394)
(0 0 434.109)
(0 0 434.109)
(0 0 429.394)
(0 0 415.526)
(0 0 375.912)
(0 0 246.58)
(0 0 245.524)
(0 0 373.158)
(0 0 411.679)
(0 0 424.942)
(0 0 429.394)
(0 0 429.394)
(0 0 424.942)
(0 0 411.679)
(0 0 373.158)
(0 0 245.524)
(0 0 241.871)
(0 0 364.311)
(0 0 399.895)
(0 0 411.679)
(0 0 415.526)
(0 0 415.526)
(0 0 411.679)
(0 0 399.895)
(0 0 364.311)
(0 0 241.871)
(0 0 228.305)
(0 0 335.595)
(0 0 364.311)
(0 0 373.158)
(0 0 375.912)
(0 0 375.912)
(0 0 373.158)
(0 0 364.311)
(0 0 335.595)
(0 0 228.305)
(0 0 166.811)
(0 0 228.305)
(0 0 241.871)
(0 0 245.524)
(0 0 246.58)
(0 0 246.58)
(0 0 245.524)
(0 0 241.871)
(0 0 228.305)
(0 0 166.811)
(0 0 42.7203)
(0 0 80.2395)
(0 0 94.9471)
(0 0 100.735)
(0 0 102.796)
(0 0 102.796)
(0 0 100.735)
(0 0 94.9471)
(0 0 80.2394)
(0 0 42.7203)
(0 0 80.2395)
(0 0 162.161)
(0 0 198.01)
(0 0 213.124)
(0 0 218.703)
(0 0 218.703)
(0 0 213.124)
(0 0 198.01)
(0 0 162.161)
(0 0 80.2394)
(0 0 94.9471)
(0 0 198.01)
(0 0 245.832)
(0 0 266.927)
(0 0 274.937)
(0 0 274.937)
(0 0 266.927)
(0 0 245.832)
(0 0 198.01)
(0 0 94.9471)
(0 0 100.735)
(0 0 213.124)
(0 0 266.927)
(0 0 291.318)
(0 0 300.751)
(0 0 300.751)
(0 0 291.318)
(0 0 266.927)
(0 0 213.124)
(0 0 100.735)
(0 0 102.796)
(0 0 218.703)
(0 0 274.937)
(0 0 300.751)
(0 0 310.824)
(0 0 310.824)
(0 0 300.751)
(0 0 274.937)
(0 0 218.703)
(0 0 102.796)
(0 0 102.796)
(0 0 218.703)
(0 0 274.937)
(0 0 300.751)
(0 0 310.824)
(0 0 310.824)
(0 0 300.751)
(0 0 274.937)
(0 0 218.703)
(0 0 102.796)
(0 0 100.735)
(0 0 213.124)
(0 0 266.927)
(0 0 291.318)
(0 0 300.751)
(0 0 300.751)
(0 0 291.318)
(0 0 266.927)
(0 0 213.124)
(0 0 100.735)
(0 0 94.9471)
(0 0 198.01)
(0 0 245.832)
(0 0 266.927)
(0 0 274.937)
(0 0 274.937)
(0 0 266.927)
(0 0 245.832)
(0 0 198.01)
(0 0 94.9471)
(0 0 80.2394)
(0 0 162.161)
(0 0 198.01)
(0 0 213.124)
(0 0 218.703)
(0 0 218.703)
(0 0 213.124)
(0 0 198.01)
(0 0 162.161)
(0 0 80.2394)
(0 0 42.7203)
(0 0 80.2394)
(0 0 94.9471)
(0 0 100.735)
(0 0 102.796)
(0 0 102.796)
(0 0 100.735)
(0 0 94.9471)
(0 0 80.2394)
(0 0 42.7203)
(0 0 14.5482)
(0 0 33.7631)
(0 0 44.1166)
(0 0 49.1862)
(0 0 51.2348)
(0 0 51.2348)
(0 0 49.1862)
(0 0 44.1166)
(0 0 33.7631)
(0 0 14.5482)
(0 0 33.7631)
(0 0 81.5081)
(0 0 108.681)
(0 0 122.458)
(0 0 128.13)
(0 0 128.13)
(0 0 122.458)
(0 0 108.681)
(0 0 81.508)
(0 0 33.7631)
(0 0 44.1166)
(0 0 108.681)
(0 0 146.765)
(0 0 166.615)
(0 0 174.928)
(0 0 174.928)
(0 0 166.615)
(0 0 146.765)
(0 0 108.681)
(0 0 44.1166)
(0 0 49.1862)
(0 0 122.458)
(0 0 166.615)
(0 0 190.056)
(0 0 199.993)
(0 0 199.993)
(0 0 190.056)
(0 0 166.615)
(0 0 122.457)
(0 0 49.1862)
(0 0 51.2348)
(0 0 128.13)
(0 0 174.928)
(0 0 199.993)
(0 0 210.683)
(0 0 210.683)
(0 0 199.993)
(0 0 174.928)
(0 0 128.13)
(0 0 51.2348)
(0 0 51.2348)
(0 0 128.13)
(0 0 174.928)
(0 0 199.993)
(0 0 210.683)
(0 0 210.683)
(0 0 199.993)
(0 0 174.928)
(0 0 128.13)
(0 0 51.2348)
(0 0 49.1862)
(0 0 122.458)
(0 0 166.615)
(0 0 190.056)
(0 0 199.993)
(0 0 199.993)
(0 0 190.056)
(0 0 166.615)
(0 0 122.458)
(0 0 49.1862)
(0 0 44.1166)
(0 0 108.681)
(0 0 146.765)
(0 0 166.615)
(0 0 174.928)
(0 0 174.928)
(0 0 166.615)
(0 0 146.765)
(0 0 108.681)
(0 0 44.1166)
(0 0 33.7631)
(0 0 81.508)
(0 0 108.681)
(0 0 122.457)
(0 0 128.13)
(0 0 128.13)
(0 0 122.458)
(0 0 108.681)
(0 0 81.5081)
(0 0 33.7631)
(0 0 14.5482)
(0 0 33.7631)
(0 0 44.1166)
(0 0 49.1862)
(0 0 51.2348)
(0 0 51.2348)
(0 0 49.1862)
(0 0 44.1166)
(0 0 33.7631)
(0 0 14.5482)
(0 0 6.24993)
(0 0 16.2509)
(0 0 22.7391)
(0 0 26.3889)
(0 0 27.9944)
(0 0 27.9944)
(0 0 26.3889)
(0 0 22.7391)
(0 0 16.2509)
(0 0 6.24992)
(0 0 16.2509)
(0 0 42.9318)
(0 0 60.6791)
(0 0 70.8353)
(0 0 75.3463)
(0 0 75.3463)
(0 0 70.8353)
(0 0 60.679)
(0 0 42.9318)
(0 0 16.2509)
(0 0 22.7391)
(0 0 60.6791)
(0 0 86.423)
(0 0 101.395)
(0 0 108.113)
(0 0 108.113)
(0 0 101.395)
(0 0 86.423)
(0 0 60.679)
(0 0 22.7391)
(0 0 26.3889)
(0 0 70.8353)
(0 0 101.395)
(0 0 119.375)
(0 0 127.505)
(0 0 127.505)
(0 0 119.375)
(0 0 101.395)
(0 0 70.8353)
(0 0 26.3889)
(0 0 27.9944)
(0 0 75.3463)
(0 0 108.113)
(0 0 127.505)
(0 0 136.309)
(0 0 136.309)
(0 0 127.505)
(0 0 108.113)
(0 0 75.3463)
(0 0 27.9944)
(0 0 27.9944)
(0 0 75.3463)
(0 0 108.113)
(0 0 127.505)
(0 0 136.309)
(0 0 136.309)
(0 0 127.505)
(0 0 108.113)
(0 0 75.3463)
(0 0 27.9944)
(0 0 26.3889)
(0 0 70.8353)
(0 0 101.395)
(0 0 119.375)
(0 0 127.505)
(0 0 127.505)
(0 0 119.375)
(0 0 101.395)
(0 0 70.8353)
(0 0 26.3889)
(0 0 22.7391)
(0 0 60.679)
(0 0 86.423)
(0 0 101.395)
(0 0 108.113)
(0 0 108.113)
(0 0 101.395)
(0 0 86.423)
(0 0 60.6791)
(0 0 22.7391)
(0 0 16.2509)
(0 0 42.9318)
(0 0 60.679)
(0 0 70.8353)
(0 0 75.3463)
(0 0 75.3463)
(0 0 70.8353)
(0 0 60.6791)
(0 0 42.9318)
(0 0 16.2509)
(0 0 6.24992)
(0 0 16.2509)
(0 0 22.7391)
(0 0 26.3889)
(0 0 27.9944)
(0 0 27.9944)
(0 0 26.3889)
(0 0 22.7391)
(0 0 16.2509)
(0 0 6.24993)
(0 0 3.07704)
(0 0 8.44216)
(0 0 12.3138)
(0 0 14.6916)
(0 0 15.7985)
(0 0 15.7984)
(0 0 14.6916)
(0 0 12.3138)
(0 0 8.44214)
(0 0 3.07703)
(0 0 8.44216)
(0 0 23.2955)
(0 0 34.1328)
(0 0 40.8452)
(0 0 43.9854)
(0 0 43.9854)
(0 0 40.8451)
(0 0 34.1328)
(0 0 23.2954)
(0 0 8.44214)
(0 0 12.3138)
(0 0 34.1328)
(0 0 50.2206)
(0 0 60.276)
(0 0 65.0081)
(0 0 65.0081)
(0 0 60.276)
(0 0 50.2206)
(0 0 34.1328)
(0 0 12.3138)
(0 0 14.6916)
(0 0 40.8452)
(0 0 60.276)
(0 0 72.5065)
(0 0 78.2896)
(0 0 78.2896)
(0 0 72.5065)
(0 0 60.276)
(0 0 40.8452)
(0 0 14.6916)
(0 0 15.7985)
(0 0 43.9854)
(0 0 65.0081)
(0 0 78.2896)
(0 0 84.5859)
(0 0 84.5859)
(0 0 78.2897)
(0 0 65.0082)
(0 0 43.9854)
(0 0 15.7985)
(0 0 15.7984)
(0 0 43.9854)
(0 0 65.0081)
(0 0 78.2896)
(0 0 84.5859)
(0 0 84.5859)
(0 0 78.2897)
(0 0 65.0082)
(0 0 43.9855)
(0 0 15.7985)
(0 0 14.6916)
(0 0 40.8451)
(0 0 60.276)
(0 0 72.5065)
(0 0 78.2897)
(0 0 78.2897)
(0 0 72.5065)
(0 0 60.2761)
(0 0 40.8452)
(0 0 14.6916)
(0 0 12.3138)
(0 0 34.1328)
(0 0 50.2206)
(0 0 60.276)
(0 0 65.0082)
(0 0 65.0082)
(0 0 60.2761)
(0 0 50.2206)
(0 0 34.1329)
(0 0 12.3138)
(0 0 8.44214)
(0 0 23.2954)
(0 0 34.1328)
(0 0 40.8452)
(0 0 43.9854)
(0 0 43.9855)
(0 0 40.8452)
(0 0 34.1329)
(0 0 23.2955)
(0 0 8.44217)
(0 0 3.07703)
(0 0 8.44214)
(0 0 12.3138)
(0 0 14.6916)
(0 0 15.7985)
(0 0 15.7985)
(0 0 14.6916)
(0 0 12.3138)
(0 0 8.44217)
(0 0 3.07704)
(0 0 1.60849)
(0 0 4.52457)
(0 0 6.76098)
(0 0 8.21275)
(0 0 8.9143)
(0 0 8.9143)
(0 0 8.21275)
(0 0 6.76097)
(0 0 4.52456)
(0 0 1.60848)
(0 0 4.52457)
(0 0 12.7541)
(0 0 19.0966)
(0 0 23.2311)
(0 0 25.2344)
(0 0 25.2344)
(0 0 23.2311)
(0 0 19.0966)
(0 0 12.7541)
(0 0 4.52456)
(0 0 6.76098)
(0 0 19.0966)
(0 0 28.6555)
(0 0 34.9183)
(0 0 37.9631)
(0 0 37.9631)
(0 0 34.9183)
(0 0 28.6555)
(0 0 19.0966)
(0 0 6.76098)
(0 0 8.21275)
(0 0 23.2311)
(0 0 34.9183)
(0 0 42.6071)
(0 0 46.3561)
(0 0 46.3561)
(0 0 42.6071)
(0 0 34.9183)
(0 0 23.2312)
(0 0 8.21275)
(0 0 8.9143)
(0 0 25.2344)
(0 0 37.9631)
(0 0 46.3561)
(0 0 50.4548)
(0 0 50.4548)
(0 0 46.3561)
(0 0 37.9632)
(0 0 25.2345)
(0 0 8.91432)
(0 0 8.9143)
(0 0 25.2344)
(0 0 37.9631)
(0 0 46.3561)
(0 0 50.4548)
(0 0 50.4548)
(0 0 46.3561)
(0 0 37.9632)
(0 0 25.2345)
(0 0 8.91432)
(0 0 8.21275)
(0 0 23.2311)
(0 0 34.9183)
(0 0 42.6071)
(0 0 46.3561)
(0 0 46.3561)
(0 0 42.6072)
(0 0 34.9184)
(0 0 23.2312)
(0 0 8.21278)
(0 0 6.76097)
(0 0 19.0966)
(0 0 28.6555)
(0 0 34.9183)
(0 0 37.9632)
(0 0 37.9632)
(0 0 34.9184)
(0 0 28.6556)
(0 0 19.0967)
(0 0 6.76101)
(0 0 4.52456)
(0 0 12.7541)
(0 0 19.0966)
(0 0 23.2312)
(0 0 25.2345)
(0 0 25.2345)
(0 0 23.2312)
(0 0 19.0967)
(0 0 12.7541)
(0 0 4.52459)
(0 0 1.60848)
(0 0 4.52456)
(0 0 6.76098)
(0 0 8.21275)
(0 0 8.91432)
(0 0 8.91432)
(0 0 8.21278)
(0 0 6.76101)
(0 0 4.52459)
(0 0 1.60849)
(0 0 0.853577)
(0 0 2.43066)
(0 0 3.68379)
(0 0 4.52629)
(0 0 4.94361)
(0 0 4.94361)
(0 0 4.52628)
(0 0 3.68378)
(0 0 2.43065)
(0 0 0.853571)
(0 0 2.43066)
(0 0 6.92729)
(0 0 10.5084)
(0 0 12.9212)
(0 0 14.1181)
(0 0 14.1181)
(0 0 12.9212)
(0 0 10.5084)
(0 0 6.92729)
(0 0 2.43065)
(0 0 3.68379)
(0 0 10.5084)
(0 0 15.959)
(0 0 19.6416)
(0 0 21.4719)
(0 0 21.4719)
(0 0 19.6416)
(0 0 15.959)
(0 0 10.5084)
(0 0 3.68379)
(0 0 4.52629)
(0 0 12.9212)
(0 0 19.6416)
(0 0 24.193)
(0 0 26.4591)
(0 0 26.4592)
(0 0 24.1931)
(0 0 19.6416)
(0 0 12.9213)
(0 0 4.5263)
(0 0 4.94361)
(0 0 14.1181)
(0 0 21.4719)
(0 0 26.4591)
(0 0 28.9446)
(0 0 28.9446)
(0 0 26.4592)
(0 0 21.472)
(0 0 14.1182)
(0 0 4.94363)
(0 0 4.94361)
(0 0 14.1181)
(0 0 21.4719)
(0 0 26.4592)
(0 0 28.9446)
(0 0 28.9447)
(0 0 26.4592)
(0 0 21.472)
(0 0 14.1182)
(0 0 4.94364)
(0 0 4.52628)
(0 0 12.9212)
(0 0 19.6416)
(0 0 24.1931)
(0 0 26.4592)
(0 0 26.4592)
(0 0 24.1931)
(0 0 19.6417)
(0 0 12.9213)
(0 0 4.52632)
(0 0 3.68378)
(0 0 10.5084)
(0 0 15.959)
(0 0 19.6416)
(0 0 21.472)
(0 0 21.472)
(0 0 19.6417)
(0 0 15.9591)
(0 0 10.5085)
(0 0 3.68382)
(0 0 2.43065)
(0 0 6.92729)
(0 0 10.5084)
(0 0 12.9213)
(0 0 14.1182)
(0 0 14.1182)
(0 0 12.9213)
(0 0 10.5085)
(0 0 6.92735)
(0 0 2.43068)
(0 0 0.853571)
(0 0 2.43065)
(0 0 3.68379)
(0 0 4.5263)
(0 0 4.94363)
(0 0 4.94364)
(0 0 4.52632)
(0 0 3.68382)
(0 0 2.43068)
(0 0 0.853584)
(0 0 0.448809)
(0 0 1.28639)
(0 0 1.9662)
(0 0 2.43363)
(0 0 2.669)
(0 0 2.669)
(0 0 2.43363)
(0 0 1.9662)
(0 0 1.28638)
(0 0 0.448806)
(0 0 1.28639)
(0 0 3.68837)
(0 0 5.64012)
(0 0 6.98361)
(0 0 7.66066)
(0 0 7.66066)
(0 0 6.98361)
(0 0 5.64012)
(0 0 3.68837)
(0 0 1.28638)
(0 0 1.9662)
(0 0 5.64012)
(0 0 8.62984)
(0 0 10.6911)
(0 0 11.731)
(0 0 11.731)
(0 0 10.6911)
(0 0 8.62987)
(0 0 5.64013)
(0 0 1.96621)
(0 0 2.43363)
(0 0 6.98361)
(0 0 10.6911)
(0 0 13.2507)
(0 0 14.5434)
(0 0 14.5435)
(0 0 13.2508)
(0 0 10.6911)
(0 0 6.98364)
(0 0 2.43364)
(0 0 2.669)
(0 0 7.66066)
(0 0 11.731)
(0 0 14.5434)
(0 0 15.9647)
(0 0 15.9647)
(0 0 14.5435)
(0 0 11.7311)
(0 0 7.66071)
(0 0 2.66902)
(0 0 2.669)
(0 0 7.66066)
(0 0 11.731)
(0 0 14.5435)
(0 0 15.9647)
(0 0 15.9647)
(0 0 14.5435)
(0 0 11.7311)
(0 0 7.66072)
(0 0 2.66903)
(0 0 2.43363)
(0 0 6.98361)
(0 0 10.6911)
(0 0 13.2508)
(0 0 14.5435)
(0 0 14.5435)
(0 0 13.2508)
(0 0 10.6912)
(0 0 6.98368)
(0 0 2.43366)
(0 0 1.9662)
(0 0 5.64012)
(0 0 8.62987)
(0 0 10.6911)
(0 0 11.7311)
(0 0 11.7311)
(0 0 10.6912)
(0 0 8.62994)
(0 0 5.64019)
(0 0 1.96623)
(0 0 1.28638)
(0 0 3.68837)
(0 0 5.64013)
(0 0 6.98364)
(0 0 7.66071)
(0 0 7.66072)
(0 0 6.98368)
(0 0 5.64019)
(0 0 3.68843)
(0 0 1.28641)
(0 0 0.448806)
(0 0 1.28638)
(0 0 1.96621)
(0 0 2.43364)
(0 0 2.66902)
(0 0 2.66903)
(0 0 2.43366)
(0 0 1.96623)
(0 0 1.28641)
(0 0 0.448817)
(0 0 0.230726)
(0 0 0.663785)
(0 0 1.01994)
(0 0 1.26843)
(0 0 1.39494)
(0 0 1.39494)
(0 0 1.26843)
(0 0 1.01994)
(0 0 0.663784)
(0 0 0.230725)
(0 0 0.663785)
(0 0 1.90999)
(0 0 2.93548)
(0 0 3.65142)
(0 0 4.01608)
(0 0 4.01608)
(0 0 3.65142)
(0 0 2.93549)
(0 0 1.91)
(0 0 0.663786)
(0 0 1.01994)
(0 0 2.93548)
(0 0 4.51305)
(0 0 5.61541)
(0 0 6.17727)
(0 0 6.17728)
(0 0 5.61542)
(0 0 4.51307)
(0 0 2.9355)
(0 0 1.01994)
(0 0 1.26843)
(0 0 3.65142)
(0 0 5.61541)
(0 0 6.98891)
(0 0 7.68941)
(0 0 7.68942)
(0 0 6.98894)
(0 0 5.61544)
(0 0 3.65145)
(0 0 1.26844)
(0 0 1.39494)
(0 0 4.01608)
(0 0 6.17727)
(0 0 7.68941)
(0 0 8.4609)
(0 0 8.46091)
(0 0 7.68945)
(0 0 6.17732)
(0 0 4.01613)
(0 0 1.39496)
(0 0 1.39494)
(0 0 4.01608)
(0 0 6.17728)
(0 0 7.68942)
(0 0 8.46091)
(0 0 8.46093)
(0 0 7.68947)
(0 0 6.17734)
(0 0 4.01614)
(0 0 1.39497)
(0 0 1.26843)
(0 0 3.65142)
(0 0 5.61542)
(0 0 6.98894)
(0 0 7.68945)
(0 0 7.68947)
(0 0 6.98899)
(0 0 5.61549)
(0 0 3.65148)
(0 0 1.26846)
(0 0 1.01994)
(0 0 2.93549)
(0 0 4.51307)
(0 0 5.61544)
(0 0 6.17732)
(0 0 6.17734)
(0 0 5.61549)
(0 0 4.51313)
(0 0 2.93554)
(0 0 1.01996)
(0 0 0.663784)
(0 0 1.91)
(0 0 2.9355)
(0 0 3.65145)
(0 0 4.01613)
(0 0 4.01614)
(0 0 3.65148)
(0 0 2.93554)
(0 0 1.91004)
(0 0 0.663802)
(0 0 0.230725)
(0 0 0.663786)
(0 0 1.01994)
(0 0 1.26844)
(0 0 1.39496)
(0 0 1.39497)
(0 0 1.26846)
(0 0 1.01996)
(0 0 0.663802)
(0 0 0.230733)
(0 0 0.115099)
(0 0 0.33189)
(0 0 0.511697)
(0 0 0.638377)
(0 0 0.703357)
(0 0 0.703358)
(0 0 0.638378)
(0 0 0.511698)
(0 0 0.33189)
(0 0 0.115099)
(0 0 0.33189)
(0 0 0.957093)
(0 0 1.4758)
(0 0 1.84138)
(0 0 2.02895)
(0 0 2.02895)
(0 0 1.84138)
(0 0 1.47581)
(0 0 0.957098)
(0 0 0.331891)
(0 0 0.511697)
(0 0 1.4758)
(0 0 2.27606)
(0 0 2.84036)
(0 0 3.13001)
(0 0 3.13001)
(0 0 2.84037)
(0 0 2.27607)
(0 0 1.47582)
(0 0 0.511702)
(0 0 0.638377)
(0 0 1.84138)
(0 0 2.84036)
(0 0 3.54514)
(0 0 3.90703)
(0 0 3.90704)
(0 0 3.54516)
(0 0 2.84039)
(0 0 1.8414)
(0 0 0.638387)
(0 0 0.703357)
(0 0 2.02895)
(0 0 3.13001)
(0 0 3.90703)
(0 0 4.30612)
(0 0 4.30613)
(0 0 3.90706)
(0 0 3.13005)
(0 0 2.02898)
(0 0 0.703371)
(0 0 0.703358)
(0 0 2.02895)
(0 0 3.13001)
(0 0 3.90704)
(0 0 4.30613)
(0 0 4.30614)
(0 0 3.90708)
(0 0 3.13006)
(0 0 2.02899)
(0 0 0.703374)
(0 0 0.638378)
(0 0 1.84138)
(0 0 2.84037)
(0 0 3.54516)
(0 0 3.90706)
(0 0 3.90708)
(0 0 3.54519)
(0 0 2.84042)
(0 0 1.84142)
(0 0 0.638395)
(0 0 0.511698)
(0 0 1.47581)
(0 0 2.27607)
(0 0 2.84039)
(0 0 3.13005)
(0 0 3.13006)
(0 0 2.84042)
(0 0 2.27611)
(0 0 1.47585)
(0 0 0.511714)
(0 0 0.33189)
(0 0 0.957098)
(0 0 1.47582)
(0 0 1.8414)
(0 0 2.02898)
(0 0 2.02899)
(0 0 1.84142)
(0 0 1.47585)
(0 0 0.957127)
(0 0 0.331903)
(0 0 0.115099)
(0 0 0.331891)
(0 0 0.511702)
(0 0 0.638387)
(0 0 0.703371)
(0 0 0.703374)
(0 0 0.638395)
(0 0 0.511714)
(0 0 0.331903)
(0 0 0.115104)
(0 0 0.055474)
(0 0 0.160196)
(0 0 0.247541)
(0 0 0.309489)
(0 0 0.34143)
(0 0 0.34143)
(0 0 0.30949)
(0 0 0.247543)
(0 0 0.160196)
(0 0 0.0554739)
(0 0 0.160196)
(0 0 0.462629)
(0 0 0.714928)
(0 0 0.893899)
(0 0 0.986195)
(0 0 0.986196)
(0 0 0.893904)
(0 0 0.714934)
(0 0 0.462634)
(0 0 0.160197)
(0 0 0.247541)
(0 0 0.714928)
(0 0 1.10494)
(0 0 1.38169)
(0 0 1.52444)
(0 0 1.52445)
(0 0 1.3817)
(0 0 1.10495)
(0 0 0.714939)
(0 0 0.247546)
(0 0 0.309489)
(0 0 0.893899)
(0 0 1.38169)
(0 0 1.72793)
(0 0 1.90657)
(0 0 1.90657)
(0 0 1.72794)
(0 0 1.38171)
(0 0 0.893917)
(0 0 0.309496)
(0 0 0.34143)
(0 0 0.986195)
(0 0 1.52444)
(0 0 1.90657)
(0 0 2.10375)
(0 0 2.10376)
(0 0 1.90659)
(0 0 1.52447)
(0 0 0.986218)
(0 0 0.341439)
(0 0 0.34143)
(0 0 0.986196)
(0 0 1.52445)
(0 0 1.90657)
(0 0 2.10376)
(0 0 2.10376)
(0 0 1.90659)
(0 0 1.52448)
(0 0 0.986223)
(0 0 0.341441)
(0 0 0.30949)
(0 0 0.893904)
(0 0 1.3817)
(0 0 1.72794)
(0 0 1.90659)
(0 0 1.90659)
(0 0 1.72796)
(0 0 1.38173)
(0 0 0.893932)
(0 0 0.309502)
(0 0 0.247543)
(0 0 0.714934)
(0 0 1.10495)
(0 0 1.38171)
(0 0 1.52447)
(0 0 1.52448)
(0 0 1.38173)
(0 0 1.10498)
(0 0 0.714959)
(0 0 0.247553)
(0 0 0.160196)
(0 0 0.462634)
(0 0 0.714939)
(0 0 0.893917)
(0 0 0.986218)
(0 0 0.986223)
(0 0 0.893932)
(0 0 0.714959)
(0 0 0.462652)
(0 0 0.160204)
(0 0 0.0554739)
(0 0 0.160197)
(0 0 0.247546)
(0 0 0.309496)
(0 0 0.341439)
(0 0 0.341441)
(0 0 0.309502)
(0 0 0.247553)
(0 0 0.160204)
(0 0 0.0554774)
(0 0 0.025767)
(0 0 0.0744825)
(0 0 0.115272)
(0 0 0.144334)
(0 0 0.159374)
(0 0 0.159374)
(0 0 0.144335)
(0 0 0.115273)
(0 0 0.0744831)
(0 0 0.025767)
(0 0 0.0744825)
(0 0 0.215307)
(0 0 0.333231)
(0 0 0.417263)
(0 0 0.460754)
(0 0 0.460756)
(0 0 0.417266)
(0 0 0.333236)
(0 0 0.215311)
(0 0 0.0744837)
(0 0 0.115272)
(0 0 0.333231)
(0 0 0.515778)
(0 0 0.645884)
(0 0 0.713233)
(0 0 0.713235)
(0 0 0.645891)
(0 0 0.515786)
(0 0 0.333239)
(0 0 0.115275)
(0 0 0.144334)
(0 0 0.417263)
(0 0 0.645884)
(0 0 0.808861)
(0 0 0.893237)
(0 0 0.893241)
(0 0 0.808871)
(0 0 0.645898)
(0 0 0.417275)
(0 0 0.144339)
(0 0 0.159374)
(0 0 0.460754)
(0 0 0.713233)
(0 0 0.893237)
(0 0 0.986437)
(0 0 0.986442)
(0 0 0.89325)
(0 0 0.713249)
(0 0 0.460769)
(0 0 0.15938)
(0 0 0.159374)
(0 0 0.460756)
(0 0 0.713235)
(0 0 0.893241)
(0 0 0.986442)
(0 0 0.986447)
(0 0 0.893255)
(0 0 0.713254)
(0 0 0.460772)
(0 0 0.159381)
(0 0 0.144335)
(0 0 0.417266)
(0 0 0.645891)
(0 0 0.808871)
(0 0 0.89325)
(0 0 0.893255)
(0 0 0.808885)
(0 0 0.64591)
(0 0 0.417284)
(0 0 0.144342)
(0 0 0.115273)
(0 0 0.333236)
(0 0 0.515786)
(0 0 0.645898)
(0 0 0.713249)
(0 0 0.713254)
(0 0 0.64591)
(0 0 0.515803)
(0 0 0.333251)
(0 0 0.115279)
(0 0 0.0744831)
(0 0 0.215311)
(0 0 0.333239)
(0 0 0.417275)
(0 0 0.460769)
(0 0 0.460772)
(0 0 0.417284)
(0 0 0.333251)
(0 0 0.215322)
(0 0 0.0744881)
(0 0 0.025767)
(0 0 0.0744837)
(0 0 0.115275)
(0 0 0.144339)
(0 0 0.15938)
(0 0 0.159381)
(0 0 0.144342)
(0 0 0.115279)
(0 0 0.0744881)
(0 0 0.0257691)
(0 0 0.0115188)
(0 0 0.0333194)
(0 0 0.0516226)
(0 0 0.0647066)
(0 0 0.0714955)
(0 0 0.0714957)
(0 0 0.0647071)
(0 0 0.0516232)
(0 0 0.0333199)
(0 0 0.0115189)
(0 0 0.0333194)
(0 0 0.0963822)
(0 0 0.149331)
(0 0 0.187185)
(0 0 0.206828)
(0 0 0.206829)
(0 0 0.187187)
(0 0 0.149334)
(0 0 0.0963845)
(0 0 0.0333203)
(0 0 0.0516226)
(0 0 0.149331)
(0 0 0.231379)
(0 0 0.290043)
(0 0 0.320487)
(0 0 0.320489)
(0 0 0.290047)
(0 0 0.231384)
(0 0 0.149336)
(0 0 0.0516244)
(0 0 0.0647066)
(0 0 0.187185)
(0 0 0.290043)
(0 0 0.363596)
(0 0 0.40177)
(0 0 0.401772)
(0 0 0.363602)
(0 0 0.290051)
(0 0 0.187192)
(0 0 0.0647095)
(0 0 0.0714955)
(0 0 0.206828)
(0 0 0.320487)
(0 0 0.40177)
(0 0 0.44396)
(0 0 0.443962)
(0 0 0.401778)
(0 0 0.320497)
(0 0 0.206837)
(0 0 0.0714992)
(0 0 0.0714957)
(0 0 0.206829)
(0 0 0.320489)
(0 0 0.401772)
(0 0 0.443962)
(0 0 0.443965)
(0 0 0.401781)
(0 0 0.3205)
(0 0 0.206839)
(0 0 0.0714999)
(0 0 0.0647071)
(0 0 0.187187)
(0 0 0.290047)
(0 0 0.363602)
(0 0 0.401778)
(0 0 0.401781)
(0 0 0.36361)
(0 0 0.290058)
(0 0 0.187197)
(0 0 0.0647114)
(0 0 0.0516232)
(0 0 0.149334)
(0 0 0.231384)
(0 0 0.290051)
(0 0 0.320497)
(0 0 0.3205)
(0 0 0.290058)
(0 0 0.231394)
(0 0 0.149343)
(0 0 0.0516271)
(0 0 0.0333199)
(0 0 0.0963845)
(0 0 0.149336)
(0 0 0.187192)
(0 0 0.206837)
(0 0 0.206839)
(0 0 0.187197)
(0 0 0.149343)
(0 0 0.0963909)
(0 0 0.0333228)
(0 0 0.0115189)
(0 0 0.0333203)
(0 0 0.0516244)
(0 0 0.0647095)
(0 0 0.0714992)
(0 0 0.0714999)
(0 0 0.0647114)
(0 0 0.0516271)
(0 0 0.0333228)
(0 0 0.0115201)
(0 0 0.00495287)
(0 0 0.0143339)
(0 0 0.0222254)
(0 0 0.0278802)
(0 0 0.03082)
(0 0 0.0308201)
(0 0 0.0278805)
(0 0 0.0222258)
(0 0 0.0143342)
(0 0 0.00495296)
(0 0 0.0143339)
(0 0 0.0414836)
(0 0 0.0643235)
(0 0 0.0806909)
(0 0 0.0892003)
(0 0 0.0892007)
(0 0 0.0806921)
(0 0 0.0643251)
(0 0 0.041485)
(0 0 0.0143344)
(0 0 0.0222254)
(0 0 0.0643235)
(0 0 0.0997414)
(0 0 0.125124)
(0 0 0.138322)
(0 0 0.138323)
(0 0 0.125127)
(0 0 0.0997445)
(0 0 0.0643262)
(0 0 0.0222265)
(0 0 0.0278802)
(0 0 0.0806909)
(0 0 0.125124)
(0 0 0.156971)
(0 0 0.173531)
(0 0 0.173532)
(0 0 0.156975)
(0 0 0.125129)
(0 0 0.0806948)
(0 0 0.0278818)
(0 0 0.03082)
(0 0 0.0892003)
(0 0 0.138322)
(0 0 0.173531)
(0 0 0.19184)
(0 0 0.191841)
(0 0 0.173535)
(0 0 0.138328)
(0 0 0.0892052)
(0 0 0.0308221)
(0 0 0.0308201)
(0 0 0.0892007)
(0 0 0.138323)
(0 0 0.173532)
(0 0 0.191841)
(0 0 0.191843)
(0 0 0.173537)
(0 0 0.138329)
(0 0 0.0892062)
(0 0 0.0308225)
(0 0 0.0278805)
(0 0 0.0806921)
(0 0 0.125127)
(0 0 0.156975)
(0 0 0.173535)
(0 0 0.173537)
(0 0 0.156979)
(0 0 0.125133)
(0 0 0.0806975)
(0 0 0.0278829)
(0 0 0.0222258)
(0 0 0.0643251)
(0 0 0.0997445)
(0 0 0.125129)
(0 0 0.138328)
(0 0 0.138329)
(0 0 0.125133)
(0 0 0.0997497)
(0 0 0.0643299)
(0 0 0.0222279)
(0 0 0.0143342)
(0 0 0.041485)
(0 0 0.0643262)
(0 0 0.0806948)
(0 0 0.0892052)
(0 0 0.0892062)
(0 0 0.0806975)
(0 0 0.0643299)
(0 0 0.0414884)
(0 0 0.0143357)
(0 0 0.00495296)
(0 0 0.0143344)
(0 0 0.0222265)
(0 0 0.0278818)
(0 0 0.0308221)
(0 0 0.0308225)
(0 0 0.0278829)
(0 0 0.0222279)
(0 0 0.0143357)
(0 0 0.00495358)
(0 0 0.00204817)
(0 0 0.00592968)
(0 0 0.00919965)
(0 0 0.011547)
(0 0 0.0127691)
(0 0 0.0127692)
(0 0 0.0115472)
(0 0 0.00919989)
(0 0 0.00592987)
(0 0 0.00204823)
(0 0 0.00592968)
(0 0 0.0171673)
(0 0 0.0266347)
(0 0 0.0334312)
(0 0 0.0369698)
(0 0 0.0369701)
(0 0 0.0334319)
(0 0 0.0266356)
(0 0 0.0171681)
(0 0 0.00592998)
(0 0 0.00919965)
(0 0 0.0266347)
(0 0 0.041324)
(0 0 0.0518699)
(0 0 0.0573609)
(0 0 0.0573613)
(0 0 0.0518711)
(0 0 0.0413256)
(0 0 0.0266361)
(0 0 0.00920024)
(0 0 0.011547)
(0 0 0.0334312)
(0 0 0.0518699)
(0 0 0.0651083)
(0 0 0.0720015)
(0 0 0.0720022)
(0 0 0.06511)
(0 0 0.0518722)
(0 0 0.0334333)
(0 0 0.0115479)
(0 0 0.0127691)
(0 0 0.0369698)
(0 0 0.0573609)
(0 0 0.0720015)
(0 0 0.0796252)
(0 0 0.079626)
(0 0 0.0720037)
(0 0 0.0573637)
(0 0 0.0369724)
(0 0 0.0127702)
(0 0 0.0127692)
(0 0 0.0369701)
(0 0 0.0573613)
(0 0 0.0720022)
(0 0 0.079626)
(0 0 0.0796268)
(0 0 0.0720045)
(0 0 0.0573644)
(0 0 0.0369729)
(0 0 0.0127704)
(0 0 0.0115472)
(0 0 0.0334319)
(0 0 0.0518711)
(0 0 0.06511)
(0 0 0.0720037)
(0 0 0.0720045)
(0 0 0.0651123)
(0 0 0.0518741)
(0 0 0.0334347)
(0 0 0.0115484)
(0 0 0.00919989)
(0 0 0.0266356)
(0 0 0.0413256)
(0 0 0.0518722)
(0 0 0.0573637)
(0 0 0.0573644)
(0 0 0.0518741)
(0 0 0.0413283)
(0 0 0.026638)
(0 0 0.00920095)
(0 0 0.00592987)
(0 0 0.0171681)
(0 0 0.0266361)
(0 0 0.0334333)
(0 0 0.0369724)
(0 0 0.0369729)
(0 0 0.0334347)
(0 0 0.026638)
(0 0 0.0171698)
(0 0 0.00593064)
(0 0 0.00204823)
(0 0 0.00592998)
(0 0 0.00920024)
(0 0 0.0115479)
(0 0 0.0127702)
(0 0 0.0127704)
(0 0 0.0115484)
(0 0 0.00920095)
(0 0 0.00593064)
(0 0 0.00204853)
(0 0 0.000814754)
(0 0 0.00235946)
(0 0 0.00366224)
(0 0 0.00459873)
(0 0 0.00508683)
(0 0 0.00508687)
(0 0 0.00459882)
(0 0 0.00366236)
(0 0 0.00235957)
(0 0 0.000814787)
(0 0 0.00235946)
(0 0 0.00683288)
(0 0 0.0106058)
(0 0 0.0133179)
(0 0 0.0147316)
(0 0 0.0147317)
(0 0 0.0133183)
(0 0 0.0106062)
(0 0 0.00683327)
(0 0 0.00235962)
(0 0 0.00366224)
(0 0 0.0106058)
(0 0 0.0164621)
(0 0 0.0206722)
(0 0 0.0228667)
(0 0 0.0228669)
(0 0 0.0206728)
(0 0 0.0164629)
(0 0 0.0106065)
(0 0 0.00366254)
(0 0 0.00459873)
(0 0 0.0133179)
(0 0 0.0206722)
(0 0 0.0259594)
(0 0 0.0287154)
(0 0 0.0287157)
(0 0 0.0259602)
(0 0 0.0206734)
(0 0 0.013319)
(0 0 0.00459916)
(0 0 0.00508683)
(0 0 0.0147316)
(0 0 0.0228667)
(0 0 0.0287154)
(0 0 0.0317642)
(0 0 0.0317645)
(0 0 0.0287164)
(0 0 0.0228681)
(0 0 0.0147329)
(0 0 0.00508737)
(0 0 0.00508687)
(0 0 0.0147317)
(0 0 0.0228669)
(0 0 0.0287157)
(0 0 0.0317645)
(0 0 0.031765)
(0 0 0.0287168)
(0 0 0.0228685)
(0 0 0.0147331)
(0 0 0.00508746)
(0 0 0.00459882)
(0 0 0.0133183)
(0 0 0.0206728)
(0 0 0.0259602)
(0 0 0.0287164)
(0 0 0.0287168)
(0 0 0.0259613)
(0 0 0.0206743)
(0 0 0.0133196)
(0 0 0.00459941)
(0 0 0.00366236)
(0 0 0.0106062)
(0 0 0.0164629)
(0 0 0.0206734)
(0 0 0.0228681)
(0 0 0.0228685)
(0 0 0.0206743)
(0 0 0.0164642)
(0 0 0.0106074)
(0 0 0.00366288)
(0 0 0.00235957)
(0 0 0.00683327)
(0 0 0.0106065)
(0 0 0.013319)
(0 0 0.0147329)
(0 0 0.0147331)
(0 0 0.0133196)
(0 0 0.0106074)
(0 0 0.00683409)
(0 0 0.00235993)
(0 0 0.000814787)
(0 0 0.00235962)
(0 0 0.00366254)
(0 0 0.00459916)
(0 0 0.00508737)
(0 0 0.00508746)
(0 0 0.00459941)
(0 0 0.00366288)
(0 0 0.00235993)
(0 0 0.000814934)
(0 0 0.000311913)
(0 0 0.000903471)
(0 0 0.0014028)
(0 0 0.00176213)
(0 0 0.00194957)
(0 0 0.00194959)
(0 0 0.00176217)
(0 0 0.00140287)
(0 0 0.000903521)
(0 0 0.00031193)
(0 0 0.000903471)
(0 0 0.00261697)
(0 0 0.00406336)
(0 0 0.00510421)
(0 0 0.00564719)
(0 0 0.00564726)
(0 0 0.00510437)
(0 0 0.00406357)
(0 0 0.00261715)
(0 0 0.000903546)
(0 0 0.0014028)
(0 0 0.00406336)
(0 0 0.00630923)
(0 0 0.00792546)
(0 0 0.00876863)
(0 0 0.00876874)
(0 0 0.00792575)
(0 0 0.00630961)
(0 0 0.0040637)
(0 0 0.00140295)
(0 0 0.00176213)
(0 0 0.00510421)
(0 0 0.00792546)
(0 0 0.00995582)
(0 0 0.0110151)
(0 0 0.0110152)
(0 0 0.00995622)
(0 0 0.00792599)
(0 0 0.00510469)
(0 0 0.00176233)
(0 0 0.00194957)
(0 0 0.00564719)
(0 0 0.00876863)
(0 0 0.0110151)
(0 0 0.0121871)
(0 0 0.0121872)
(0 0 0.0110155)
(0 0 0.00876928)
(0 0 0.00564778)
(0 0 0.00194982)
(0 0 0.00194959)
(0 0 0.00564726)
(0 0 0.00876874)
(0 0 0.0110152)
(0 0 0.0121872)
(0 0 0.0121874)
(0 0 0.0110157)
(0 0 0.00876943)
(0 0 0.00564789)
(0 0 0.00194987)
(0 0 0.00176217)
(0 0 0.00510437)
(0 0 0.00792575)
(0 0 0.00995622)
(0 0 0.0110155)
(0 0 0.0110157)
(0 0 0.00995672)
(0 0 0.00792642)
(0 0 0.00510499)
(0 0 0.00176244)
(0 0 0.00140287)
(0 0 0.00406357)
(0 0 0.00630961)
(0 0 0.00792599)
(0 0 0.00876928)
(0 0 0.00876943)
(0 0 0.00792642)
(0 0 0.00631019)
(0 0 0.0040641)
(0 0 0.0014031)
(0 0 0.000903521)
(0 0 0.00261715)
(0 0 0.0040637)
(0 0 0.00510469)
(0 0 0.00564778)
(0 0 0.00564789)
(0 0 0.00510499)
(0 0 0.0040641)
(0 0 0.00261752)
(0 0 0.000903688)
(0 0 0.00031193)
(0 0 0.000903546)
(0 0 0.00140295)
(0 0 0.00176233)
(0 0 0.00194982)
(0 0 0.00194987)
(0 0 0.00176244)
(0 0 0.0014031)
(0 0 0.000903688)
(0 0 0.000311997)
(0 0 0.000114986)
(0 0 0.00033312)
(0 0 0.00051737)
(0 0 0.000650069)
(0 0 0.000719341)
(0 0 0.000719349)
(0 0 0.000650091)
(0 0 0.000517398)
(0 0 0.000333143)
(0 0 0.000114995)
(0 0 0.00033312)
(0 0 0.000965068)
(0 0 0.00149887)
(0 0 0.00188332)
(0 0 0.00208401)
(0 0 0.00208404)
(0 0 0.00188339)
(0 0 0.00149896)
(0 0 0.000965153)
(0 0 0.000333154)
(0 0 0.00051737)
(0 0 0.00149887)
(0 0 0.00232794)
(0 0 0.00292507)
(0 0 0.00323679)
(0 0 0.00323684)
(0 0 0.00292519)
(0 0 0.00232811)
(0 0 0.00149902)
(0 0 0.000517435)
(0 0 0.000650069)
(0 0 0.00188332)
(0 0 0.00292507)
(0 0 0.00367539)
(0 0 0.0040671)
(0 0 0.00406717)
(0 0 0.00367557)
(0 0 0.0029253)
(0 0 0.00188353)
(0 0 0.00065016)
(0 0 0.000719341)
(0 0 0.00208401)
(0 0 0.00323679)
(0 0 0.0040671)
(0 0 0.00450058)
(0 0 0.00450066)
(0 0 0.00406732)
(0 0 0.00323708)
(0 0 0.00208427)
(0 0 0.000719452)
(0 0 0.000719349)
(0 0 0.00208404)
(0 0 0.00323684)
(0 0 0.00406717)
(0 0 0.00450066)
(0 0 0.00450075)
(0 0 0.0040674)
(0 0 0.00323715)
(0 0 0.00208432)
(0 0 0.00071947)
(0 0 0.000650091)
(0 0 0.00188339)
(0 0 0.00292519)
(0 0 0.00367557)
(0 0 0.00406732)
(0 0 0.0040674)
(0 0 0.00367579)
(0 0 0.00292549)
(0 0 0.00188366)
(0 0 0.000650209)
(0 0 0.000517398)
(0 0 0.00149896)
(0 0 0.00232811)
(0 0 0.0029253)
(0 0 0.00323708)
(0 0 0.00323715)
(0 0 0.00292549)
(0 0 0.00232836)
(0 0 0.00149919)
(0 0 0.0005175)
(0 0 0.000333143)
(0 0 0.000965153)
(0 0 0.00149902)
(0 0 0.00188353)
(0 0 0.00208427)
(0 0 0.00208432)
(0 0 0.00188366)
(0 0 0.00149919)
(0 0 0.000965313)
(0 0 0.000333215)
(0 0 0.000114995)
(0 0 0.000333154)
(0 0 0.000517435)
(0 0 0.00065016)
(0 0 0.000719452)
(0 0 0.00071947)
(0 0 0.000650209)
(0 0 0.0005175)
(0 0 0.000333215)
(0 0 0.000115023)
(0 0 4.08475e-05)
(0 0 0.000118353)
(0 0 0.000183855)
(0 0 0.000231062)
(0 0 0.000255719)
(0 0 0.000255723)
(0 0 0.000231072)
(0 0 0.000183867)
(0 0 0.000118363)
(0 0 4.08512e-05)
(0 0 0.000118353)
(0 0 0.000342923)
(0 0 0.000532717)
(0 0 0.000669502)
(0 0 0.000740948)
(0 0 0.000740959)
(0 0 0.000669533)
(0 0 0.000532758)
(0 0 0.000342959)
(0 0 0.000118368)
(0 0 0.000183855)
(0 0 0.000532717)
(0 0 0.000827559)
(0 0 0.00104006)
(0 0 0.00115105)
(0 0 0.00115107)
(0 0 0.00104011)
(0 0 0.000827631)
(0 0 0.000532781)
(0 0 0.000183883)
(0 0 0.000231062)
(0 0 0.000669502)
(0 0 0.00104006)
(0 0 0.00130713)
(0 0 0.00144663)
(0 0 0.00144666)
(0 0 0.0013072)
(0 0 0.00104016)
(0 0 0.000669591)
(0 0 0.000231101)
(0 0 0.000255719)
(0 0 0.000740948)
(0 0 0.00115105)
(0 0 0.00144663)
(0 0 0.00160103)
(0 0 0.00160106)
(0 0 0.00144672)
(0 0 0.00115117)
(0 0 0.000741055)
(0 0 0.000255766)
(0 0 0.000255723)
(0 0 0.000740959)
(0 0 0.00115107)
(0 0 0.00144666)
(0 0 0.00160106)
(0 0 0.0016011)
(0 0 0.00144675)
(0 0 0.0011512)
(0 0 0.000741074)
(0 0 0.000255773)
(0 0 0.000231072)
(0 0 0.000669533)
(0 0 0.00104011)
(0 0 0.0013072)
(0 0 0.00144672)
(0 0 0.00144675)
(0 0 0.00130729)
(0 0 0.00104023)
(0 0 0.000669644)
(0 0 0.00023112)
(0 0 0.000183867)
(0 0 0.000532758)
(0 0 0.000827631)
(0 0 0.00104016)
(0 0 0.00115117)
(0 0 0.0011512)
(0 0 0.00104023)
(0 0 0.000827734)
(0 0 0.000532853)
(0 0 0.000183909)
(0 0 0.000118363)
(0 0 0.000342959)
(0 0 0.000532781)
(0 0 0.000669591)
(0 0 0.000741055)
(0 0 0.000741074)
(0 0 0.000669644)
(0 0 0.000532853)
(0 0 0.000343026)
(0 0 0.000118393)
(0 0 4.08512e-05)
(0 0 0.000118368)
(0 0 0.000183883)
(0 0 0.000231101)
(0 0 0.000255766)
(0 0 0.000255773)
(0 0 0.00023112)
(0 0 0.000183909)
(0 0 0.000118393)
(0 0 4.08629e-05)
(0 0 1.39934e-05)
(0 0 4.05496e-05)
(0 0 6.30029e-05)
(0 0 7.91937e-05)
(0 0 8.76544e-05)
(0 0 8.76558e-05)
(0 0 7.91976e-05)
(0 0 6.30079e-05)
(0 0 4.05538e-05)
(0 0 1.3995e-05)
(0 0 4.05496e-05)
(0 0 0.000117504)
(0 0 0.00018257)
(0 0 0.000229489)
(0 0 0.000254007)
(0 0 0.000254012)
(0 0 0.000229502)
(0 0 0.000182587)
(0 0 0.000117519)
(0 0 4.05557e-05)
(0 0 6.30029e-05)
(0 0 0.00018257)
(0 0 0.000283667)
(0 0 0.00035657)
(0 0 0.000394667)
(0 0 0.000394675)
(0 0 0.000356592)
(0 0 0.000283696)
(0 0 0.000182596)
(0 0 6.3014e-05)
(0 0 7.91937e-05)
(0 0 0.000229489)
(0 0 0.00035657)
(0 0 0.000448211)
(0 0 0.000496101)
(0 0 0.000496112)