/*--------------------------------*- C++ -*----------------------------------*\
| =========                 |                                                 |
| \\      /  F ield         | OpenFOAM: The Open Source CFD Toolbox           |
|  \\    /   O peration     | Version:  v2106                                 |
|   \\  /    A nd           | Website:  www.openfoam.com                      |
|    \\/     M anipulation  |                                                 |
\*---------------------------------------------------------------------------*/
FoamFile
{
    version     2.0;
    format      ascii;
    arch        "LSB;label=32;scalar=64";
    class       volScalarField;
    location    "37.5";
    object      calFieldValue;
}
// * * * * * * * * * * * * * * * * * * * * * * * * * * * * * * * * * * * * * //

dimensions      [0 0 0 1 0 0 0];

internalField   nonuniform List<scalar> 
4000
(
275.48966
275.48966
275.48966
275.48966
275.48966
275.48966
275.48966
275.48966
275.48966
275.48966
275.48966
275.48966
275.48966
275.48966
275.48966
275.48966
275.48966
275.48966
275.48966
275.48966
275.48966
275.48966
275.48966
275.48965
275.48965
275.48966
275.48966
275.48966
275.48966
275.48966
275.48966
275.48966
275.48965
275.48965
275.48965
275.48965
275.48966
275.48966
275.48966
275.48966
275.48966
275.48966
275.48965
275.48965
275.48965
275.48965
275.48965
275.48966
275.48966
275.48966
275.48966
275.48966
275.48966
275.48965
275.48965
275.48965
275.48965
275.48966
275.48966
275.48966
275.48966
275.48966
275.48966
275.48966
275.48965
275.48965
275.48966
275.48966
275.48966
275.48966
275.48966
275.48966
275.48966
275.48966
275.48966
275.48966
275.48966
275.48966
275.48966
275.48966
275.48966
275.48966
275.48966
275.48966
275.48966
275.48966
275.48966
275.48966
275.48966
275.48966
275.48966
275.48966
275.48966
275.48966
275.48966
275.48966
275.48966
275.48966
275.48966
275.48966
282.72745
282.72745
282.72745
282.72744
282.72744
282.72742
282.72742
282.72745
282.72745
282.72745
282.72745
282.72745
282.72744
282.72744
282.72744
282.72742
282.72742
282.72742
282.72745
282.72745
282.72745
282.72744
282.72744
282.72744
282.72741
282.72741
282.72742
282.72742
282.72745
282.72745
282.72744
282.72744
282.72744
282.72741
282.72741
282.72741
282.72741
282.72741
282.72744
282.72744
282.72744
282.72744
282.72741
282.72741
282.72741
282.72741
282.72741
282.72741
282.72741
282.72744
282.72742
282.72742
282.72741
282.72741
282.72741
282.72741
282.72741
282.72741
282.72744
282.72744
282.72742
282.72742
282.72742
282.72741
282.72741
282.72741
282.72741
282.72744
282.72744
282.72744
282.72745
282.72742
282.72742
282.72741
282.72741
282.72741
282.72744
282.72744
282.72744
282.72747
282.72745
282.72745
282.72745
282.72744
282.72741
282.72744
282.72744
282.72744
282.72747
282.72747
282.72745
282.72745
282.72745
282.72744
282.72744
282.72744
282.72744
282.72747
282.72747
282.72747
289.96817
289.96817
289.96817
289.96816
289.96813
289.96813
289.96814
289.96814
289.96815
289.96815
289.96817
289.96817
289.96816
289.96816
289.96813
289.96813
289.96814
289.96814
289.96814
289.96817
289.96817
289.96816
289.96816
289.96813
289.96813
289.9681
289.96813
289.96814
289.96814
289.96814
289.96816
289.96816
289.96813
289.96812
289.96809
289.9681
289.9681
289.96813
289.96814
289.96814
289.96813
289.96813
289.96813
289.96809
289.9681
289.9681
289.9681
289.96813
289.96813
289.96814
289.96813
289.96813
289.9681
289.9681
289.9681
289.9681
289.9681
289.96813
289.96813
289.96816
289.96814
289.96814
289.96813
289.9681
289.9681
289.9681
289.96813
289.96813
289.96816
289.96816
289.96814
289.96814
289.96814
289.96813
289.96813
289.96813
289.96813
289.96816
289.96819
289.96819
289.96815
289.96814
289.96814
289.96814
289.96813
289.96813
289.96816
289.96819
289.96819
289.96819
289.96815
289.96817
289.96814
289.96814
289.96814
289.96816
289.96816
289.96819
289.96819
289.96822
297.21375
297.21375
297.21372
297.21371
297.21368
297.21369
297.21369
297.2137
297.21373
297.21373
297.21375
297.21375
297.21371
297.21371
297.21368
297.21369
297.21369
297.2137
297.21373
297.21373
297.21372
297.21371
297.21371
297.21368
297.21365
297.21365
297.21366
297.21369
297.2137
297.21372
297.21371
297.21371
297.21368
297.21367
297.21364
297.21365
297.21365
297.21368
297.21369
297.21372
297.21368
297.21368
297.21365
297.21364
297.21362
297.21362
297.21365
297.21368
297.21369
297.21372
297.21369
297.21369
297.21365
297.21365
297.21362
297.21362
297.21365
297.21368
297.21371
297.21371
297.21369
297.21369
297.21366
297.21365
297.21365
297.21365
297.21368
297.21371
297.21374
297.21374
297.2137
297.2137
297.21369
297.21368
297.21368
297.21368
297.21371
297.21374
297.21377
297.21377
297.21373
297.21373
297.2137
297.21369
297.21369
297.21371
297.21374
297.21377
297.21378
297.2138
297.21373
297.21373
297.21372
297.21372
297.21372
297.21371
297.21374
297.21377
297.2138
297.21381
304.46601
304.46601
304.46598
304.46596
304.46594
304.46594
304.46595
304.46596
304.46599
304.46599
304.46601
304.46598
304.46597
304.46593
304.46591
304.46591
304.46592
304.46595
304.46599
304.46599
304.46598
304.46597
304.46594
304.46593
304.4659
304.46591
304.46591
304.46595
304.46595
304.46598
304.46596
304.46593
304.46593
304.46589
304.46587
304.46587
304.4659
304.46594
304.46595
304.46597
304.46594
304.46591
304.4659
304.46587
304.46587
304.46587
304.4659
304.46593
304.46597
304.46597
304.46594
304.46591
304.46591
304.46587
304.46587
304.46587
304.4659
304.46593
304.46597
304.46599
304.46595
304.46592
304.46591
304.4659
304.4659
304.4659
304.46593
304.46596
304.46599
304.46602
304.46596
304.46595
304.46595
304.46594
304.46593
304.46593
304.46596
304.46602
304.46603
304.46606
304.46599
304.46599
304.46595
304.46595
304.46597
304.46597
304.46599
304.46603
304.46606
304.46609
304.46599
304.46599
304.46598
304.46597
304.46597
304.46599
304.46602
304.46606
304.46609
304.46609
311.7267
311.7267
311.72667
311.72666
311.72663
311.72664
311.72664
311.72668
311.72669
311.72669
311.7267
311.7267
311.72667
311.72663
311.7266
311.72661
311.72664
311.72665
311.72668
311.72671
311.72667
311.72667
311.72663
311.72662
311.7266
311.7266
311.72661
311.72664
311.72668
311.72668
311.72666
311.72663
311.72662
311.72659
311.72656
311.72656
311.7266
311.72663
311.72667
311.7267
311.72663
311.7266
311.7266
311.72656
311.72653
311.72656
311.72659
311.72663
311.72666
311.72669
311.72664
311.72661
311.7266
311.72656
311.72656
311.72656
311.72662
311.72665
311.72668
311.72671
311.72664
311.72664
311.72661
311.7266
311.72659
311.72662
311.72665
311.72668
311.72674
311.72674
311.72668
311.72665
311.72664
311.72663
311.72663
311.72665
311.72668
311.72674
311.72677
311.72681
311.72669
311.72668
311.72668
311.72667
311.72666
311.72668
311.72674
311.72677
311.72681
311.72684
311.72669
311.72671
311.72668
311.7267
311.72669
311.72671
311.72674
311.72681
311.72684
311.72684
318.99751
318.9975
318.99747
318.99746
318.99743
318.99741
318.99744
318.99748
318.99749
318.99752
318.9975
318.99748
318.99746
318.99743
318.9974
318.99741
318.99741
318.99745
318.99748
318.99751
318.99747
318.99746
318.99743
318.99739
318.99736
318.99737
318.99741
318.99744
318.99748
318.99751
318.99746
318.99743
318.99739
318.99735
318.99735
318.99736
318.99739
318.99743
318.99747
318.9975
318.99743
318.9974
318.99736
318.99735
318.99732
318.99733
318.99738
318.99742
318.99748
318.99751
318.99741
318.99741
318.99737
318.99736
318.99733
318.99735
318.99741
318.99747
318.99751
318.99754
318.99744
318.99741
318.99741
318.99739
318.99738
318.99741
318.99746
318.9975
318.99756
318.99759
318.99748
318.99745
318.99744
318.99743
318.99742
318.99747
318.9975
318.99756
318.9976
318.99763
318.99749
318.99748
318.99748
318.99747
318.99748
318.99751
318.99756
318.9976
318.99766
318.99766
318.99752
318.99751
318.99751
318.9975
318.99751
318.99754
318.99759
318.99763
318.99766
318.99769
326.2799
326.2799
326.27987
326.27982
326.27979
326.2798
326.27984
326.27987
326.27991
326.27991
326.2799
326.27987
326.27986
326.27982
326.27979
326.2798
326.27981
326.27987
326.27991
326.27993
326.27987
326.27986
326.27982
326.27978
326.27975
326.27976
326.2798
326.27984
326.2799
326.2799
326.27982
326.27982
326.27978
326.27974
326.27972
326.27975
326.27978
326.27985
326.27988
326.27991
326.27979
326.27979
326.27975
326.27972
326.27971
326.27971
326.27977
326.27984
326.2799
326.27993
326.2798
326.2798
326.27976
326.27975
326.27971
326.27974
326.27979
326.27986
326.27992
326.27995
326.27984
326.27981
326.2798
326.27978
326.27977
326.27979
326.27985
326.27994
326.27998
326.28001
326.27987
326.27987
326.27984
326.27985
326.27984
326.27986
326.27994
326.28
326.28004
326.28007
326.27991
326.27991
326.2799
326.27988
326.2799
326.27992
326.27998
326.28004
326.28008
326.28011
326.27991
326.27993
326.2799
326.27991
326.27993
326.27995
326.28001
326.28007
326.28011
326.28014
333.57524
333.57521
333.57518
333.57516
333.57513
333.57514
333.57517
333.57521
333.57525
333.57528
333.57521
333.57521
333.57517
333.57513
333.5751
333.57511
333.57514
333.57521
333.57524
333.57527
333.57518
333.57517
333.57513
333.57509
333.57506
333.5751
333.57513
333.5752
333.57523
333.57526
333.57516
333.57513
333.57509
333.57505
333.57505
333.57505
333.57511
333.57518
333.57522
333.57525
333.57513
333.5751
333.57506
333.57505
333.57502
333.57504
333.5751
333.57517
333.57523
333.57526
333.57514
333.57511
333.5751
333.57505
333.57504
333.57507
333.57515
333.57522
333.57528
333.57531
333.57517
333.57514
333.57513
333.57511
333.5751
333.57515
333.57521
333.5753
333.57533
333.57539
333.57521
333.57521
333.5752
333.57518
333.57517
333.57522
333.5753
333.57536
333.57543
333.57543
333.57525
333.57524
333.57523
333.57522
333.57523
333.57528
333.57533
333.57543
333.57547
333.5755
333.57528
333.57527
333.57526
333.57525
333.57526
333.57531
333.57539
333.57543
333.5755
333.5755
340.88464
340.88464
340.8846
340.88459
340.88455
340.88456
340.8846
340.88464
340.8847
340.8847
340.88464
340.88464
340.8846
340.88455
340.88452
340.88453
340.88459
340.88463
340.88469
340.88472
340.8846
340.8846
340.88456
340.88451
340.88448
340.88452
340.88455
340.88462
340.88469
340.88471
340.88459
340.88455
340.88451
340.88447
340.88444
340.88447
340.88453
340.8846
340.88467
340.8847
340.88455
340.88452
340.88448
340.88444
340.88443
340.88446
340.88455
340.88461
340.88468
340.88471
340.88456
340.88453
340.88452
340.88447
340.88446
340.88451
340.88457
340.88466
340.88472
340.88478
340.8846
340.88459
340.88455
340.88453
340.88455
340.88457
340.88465
340.88474
340.88481
340.88484
340.88464
340.88463
340.88462
340.8846
340.88461
340.88466
340.88474
340.88483
340.88487
340.88491
340.8847
340.88469
340.88469
340.88467
340.88468
340.88472
340.88481
340.88487
340.88494
340.88497
340.8847
340.88472
340.88471
340.8847
340.88471
340.88478
340.88484
340.88491
340.88497
340.88497
348.20913
348.20912
348.20909
348.20904
348.20904
348.20904
348.20908
348.20915
348.20918
348.20922
348.20912
348.2091
348.20905
348.20903
348.209
348.20901
348.20907
348.20911
348.20918
348.20921
348.20909
348.20905
348.20901
348.209
348.20897
348.20897
348.20903
348.2091
348.20917
348.2092
348.20904
348.20903
348.209
348.20895
348.20892
348.20895
348.20904
348.20911
348.20917
348.2092
348.20904
348.209
348.20897
348.20892
348.20891
348.20894
348.20902
348.20912
348.20918
348.20921
348.20904
348.20901
348.20897
348.20895
348.20894
348.20899
348.20907
348.20916
348.20923
348.20929
348.20908
348.20907
348.20903
348.20904
348.20902
348.20907
348.20915
348.20924
348.20934
348.20937
348.20915
348.20911
348.2091
348.20911
348.20912
348.20916
348.20924
348.20934
348.20941
348.20944
348.20918
348.20918
348.20917
348.20917
348.20918
348.20923
348.20934
348.20941
348.20947
348.2095
348.20922
348.20921
348.2092
348.2092
348.20921
348.20929
348.20937
348.20944
348.2095
348.20951
355.54941
355.54938
355.54934
355.54932
355.54929
355.54929
355.54936
355.54942
355.54946
355.5495
355.54938
355.54938
355.54933
355.54929
355.54925
355.54929
355.54935
355.54942
355.54948
355.54951
355.54934
355.54933
355.54929
355.54925
355.54921
355.54925
355.54931
355.54941
355.54947
355.5495
355.54932
355.54929
355.54925
355.5492
355.54919
355.54922
355.54931
355.54938
355.54945
355.54951
355.54929
355.54925
355.54921
355.54919
355.54918
355.54921
355.54929
355.54939
355.54948
355.54951
355.54929
355.54929
355.54925
355.54922
355.54921
355.54926
355.54936
355.54946
355.54955
355.54958
355.54936
355.54935
355.54931
355.54931
355.54929
355.54936
355.54944
355.54956
355.54963
355.54967
355.54942
355.54942
355.54941
355.54938
355.54939
355.54946
355.54956
355.54966
355.54973
355.54977
355.54946
355.54948
355.54947
355.54945
355.54948
355.54955
355.54963
355.54973
355.5498
355.54983
355.5495
355.54951
355.5495
355.54951
355.54951
355.54958
355.54967
355.54977
355.54983
355.54983
362.90598
362.90595
362.90591
362.90589
362.90585
362.90589
362.90592
362.90599
362.90606
362.90609
362.90595
362.90595
362.9059
362.90585
362.90582
362.90585
362.90592
362.90599
362.90605
362.90611
362.90591
362.9059
362.90586
362.90581
362.90578
362.90581
362.9059
362.90597
362.90604
362.90609
362.90589
362.90585
362.90581
362.90577
362.90576
362.90578
362.90587
362.90597
362.90606
362.9061
362.90585
362.90582
362.90578
362.90576
362.90575
362.9058
362.90588
362.906
362.90607
362.90613
362.90589
362.90585
362.90581
362.90578
362.9058
362.90584
362.90595
362.90604
362.90614
362.9062
362.90592
362.90592
362.9059
362.90587
362.90588
362.90595
362.90606
362.90615
362.90625
362.90628
362.90599
362.90599
362.90597
362.90597
362.906
362.90604
362.90615
362.90627
362.90635
362.90638
362.90606
362.90605
362.90604
362.90606
362.90607
362.90614
362.90625
362.90635
362.90642
362.90645
362.90609
362.90611
362.90609
362.9061
362.90613
362.9062
362.90628
362.90638
362.90645
362.90648
370.27911
370.27911
370.27907
370.27905
370.27901
370.27901
370.27908
370.27914
370.27921
370.27924
370.27911
370.27908
370.27903
370.27901
370.27897
370.27901
370.27907
370.27914
370.27923
370.27926
370.27907
370.27903
370.27899
370.27894
370.27893
370.27896
370.27905
370.27912
370.27922
370.27924
370.27905
370.27901
370.27894
370.27892
370.27891
370.27893
370.27902
370.27912
370.27921
370.27925
370.27901
370.27897
370.27893
370.27891
370.27889
370.27894
370.27903
370.27915
370.27924
370.2793
370.27901
370.27901
370.27896
370.27893
370.27894
370.27899
370.27909
370.27922
370.27931
370.27937
370.27908
370.27907
370.27905
370.27902
370.27903
370.27909
370.2792
370.27932
370.27942
370.27948
370.27914
370.27914
370.27912
370.27912
370.27915
370.27922
370.27932
370.27945
370.27952
370.27956
370.27921
370.27923
370.27922
370.27921
370.27924
370.27931
370.27942
370.27952
370.27959
370.27962
370.27924
370.27926
370.27924
370.27925
370.2793
370.27937
370.27948
370.27956
370.27962
370.27965
377.66885
377.66882
377.66881
377.66876
377.66875
377.66875
377.66881
377.66891
377.66897
377.66901
377.66882
377.66882
377.66877
377.66872
377.66871
377.66874
377.6688
377.6689
377.66897
377.66902
377.66881
377.66877
377.66873
377.66868
377.66867
377.66869
377.66878
377.66888
377.66895
377.66901
377.66876
377.66872
377.66868
377.66865
377.66864
377.66867
377.66878
377.66888
377.66897
377.66901
377.66875
377.66871
377.66867
377.66864
377.66863
377.66867
377.66878
377.66891
377.669
377.66906
377.66875
377.66874
377.66869
377.66867
377.66867
377.66874
377.66885
377.66897
377.66907
377.66913
377.66881
377.6688
377.66878
377.66878
377.66878
377.66885
377.66898
377.6691
377.6692
377.66924
377.66891
377.6689
377.66888
377.66888
377.66891
377.66897
377.6691
377.6692
377.6693
377.66934
377.66897
377.66897
377.66895
377.66897
377.669
377.66907
377.6692
377.6693
377.66938
377.6694
377.66901
377.66902
377.66901
377.66901
377.66906
377.66913
377.66924
377.66934
377.6694
377.66944
385.07496
385.07493
385.07492
385.07486
385.07485
385.07488
385.07494
385.07504
385.0751
385.07514
385.07493
385.07493
385.07488
385.07482
385.07481
385.07484
385.07493
385.075
385.0751
385.07513
385.07492
385.07488
385.07483
385.07478
385.07477
385.07482
385.07491
385.07501
385.07508
385.07513
385.07486
385.07482
385.07478
385.07476
385.07474
385.07479
385.0749
385.075
385.0751
385.07513
385.07485
385.07481
385.07477
385.07474
385.07472
385.07479
385.0749
385.07503
385.07513
385.07519
385.07488
385.07484
385.07482
385.07479
385.07479
385.07486
385.07497
385.07509
385.07521
385.07528
385.07494
385.07493
385.07491
385.0749
385.0749
385.07497
385.0751
385.07522
385.07532
385.07539
385.07504
385.075
385.07501
385.075
385.07503
385.07509
385.07522
385.07535
385.07545
385.07549
385.0751
385.0751
385.07508
385.0751
385.07513
385.07521
385.07532
385.07545
385.07552
385.07555
385.07514
385.07513
385.07513
385.07513
385.07519
385.07528
385.07539
385.07549
385.07555
385.07559
392.49696
392.49696
392.49692
392.49689
392.49687
392.4969
392.49696
392.49706
392.49713
392.49716
392.49696
392.49693
392.49691
392.49685
392.49684
392.49686
392.49696
392.49705
392.49715
392.49718
392.49692
392.49691
392.49686
392.4968
392.49679
392.49684
392.49693
392.49703
392.49712
392.49718
392.49689
392.49685
392.4968
392.49678
392.49676
392.49681
392.49692
392.49705
392.49715
392.49718
392.49687
392.49684
392.49679
392.49676
392.49677
392.49681
392.49695
392.49707
392.49717
392.49723
392.4969
392.49686
392.49684
392.49681
392.49681
392.49688
392.49701
392.49716
392.49726
392.49732
392.49696
392.49696
392.49693
392.49692
392.49695
392.49701
392.49714
392.49729
392.49739
392.49743
392.49706
392.49705
392.49703
392.49705
392.49707
392.49716
392.49729
392.49742
392.49749
392.49756
392.49713
392.49715
392.49712
392.49715
392.49717
392.49726
392.49739
392.49749
392.49759
392.49762
392.49716
392.49718
392.49718
392.49718
392.49723
392.49732
392.49743
392.49756
392.49762
392.49766
399.93423
399.93422
399.93418
399.93416
399.93414
399.93416
399.93423
399.93432
399.93442
399.93445
399.93422
399.93419
399.93417
399.93411
399.9341
399.93413
399.93422
399.93431
399.93441
399.93446
399.93418
399.93417
399.93412
399.93407
399.93405
399.9341
399.93419
399.93432
399.93441
399.93444
399.93416
399.93411
399.93407
399.93404
399.93402
399.93407
399.93421
399.93431
399.93441
399.93446
399.93414
399.9341
399.93405
399.93402
399.93403
399.93409
399.9342
399.93436
399.93445
399.93451
399.93416
399.93413
399.9341
399.93407
399.93409
399.93416
399.93429
399.93444
399.93454
399.9346
399.93423
399.93422
399.93419
399.93421
399.9342
399.93429
399.93442
399.93457
399.93467
399.93474
399.93432
399.93431
399.93432
399.93431
399.93436
399.93444
399.93457
399.9347
399.9348
399.93484
399.93442
399.93441
399.93441
399.93441
399.93445
399.93454
399.93467
399.9348
399.93488
399.93491
399.93445
399.93446
399.93444
399.93446
399.93451
399.9346
399.93474
399.93484
399.93491
399.93494
407.38586
407.38585
407.38581
407.38578
407.38576
407.38579
407.38588
407.38597
407.38604
407.38607
407.38585
407.38582
407.38577
407.38574
407.38572
407.38575
407.38586
407.38596
407.38605
407.38608
407.38581
407.38577
407.38575
407.38569
407.38567
407.38572
407.38584
407.38594
407.38603
407.38609
407.38578
407.38574
407.38569
407.38566
407.38564
407.38571
407.38583
407.38595
407.38605
407.38611
407.38576
407.38572
407.38567
407.38564
407.38564
407.38571
407.38584
407.38597
407.38609
407.38615
407.38579
407.38575
407.38572
407.38571
407.38571
407.3858
407.38593
407.38608
407.38618
407.38624
407.38588
407.38586
407.38584
407.38583
407.38584
407.38593
407.38606
407.38621
407.38631
407.38638
407.38597
407.38596
407.38594
407.38595
407.38597
407.38608
407.38621
407.38634
407.38644
407.38648
407.38604
407.38605
407.38603
407.38605
407.38609
407.38618
407.38631
407.38644
407.38652
407.38657
407.38607
407.38608
407.38609
407.38611
407.38615
407.38624
407.38638
407.38648
407.38657
407.38661
414.85079
414.85079
414.85074
414.85071
414.85069
414.85075
414.85081
414.85093
414.851
414.85103
414.85079
414.85075
414.85073
414.85067
414.85065
414.85071
414.8508
414.85092
414.85101
414.85104
414.85074
414.85073
414.85068
414.85065
414.85063
414.85068
414.8508
414.85089
414.85099
414.85104
414.85071
414.85067
414.85065
414.85059
414.8506
414.85067
414.85078
414.85091
414.851
414.85106
414.85069
414.85065
414.85063
414.8506
414.8506
414.85066
414.8508
414.85095
414.85105
414.85111
414.85075
414.85071
414.85068
414.85067
414.85066
414.85075
414.85088
414.85103
414.85116
414.85122
414.85081
414.8508
414.8508
414.85078
414.8508
414.85088
414.85104
414.85116
414.85129
414.85136
414.85093
414.85092
414.85089
414.85091
414.85095
414.85103
414.85116
414.85132
414.85142
414.85146
414.851
414.85101
414.85099
414.851
414.85105
414.85116
414.85129
414.85142
414.8515
414.85153
414.85103
414.85104
414.85104
414.85106
414.85111
414.85122
414.85136
414.85146
414.85153
414.85156
422.32792
422.32791
422.32786
422.32784
422.32781
422.32786
422.32795
422.32805
422.32814
422.32817
422.32791
422.32788
422.32785
422.32779
422.3278
422.32782
422.32794
422.32803
422.32813
422.32818
422.32786
422.32785
422.3278
422.32777
422.32775
422.3278
422.32791
422.32804
422.32813
422.32819
422.32784
422.32779
422.32777
422.32774
422.32771
422.32778
422.32792
422.32805
422.32814
422.3282
422.32781
422.3278
422.32775
422.32771
422.32774
422.3278
422.32794
422.32806
422.32818
422.32825
422.32786
422.32782
422.3278
422.32778
422.3278
422.32789
422.32802
422.32817
422.32829
422.32836
422.32795
422.32794
422.32791
422.32792
422.32794
422.32802
422.32815
422.3283
422.32843
422.3285
422.32805
422.32803
422.32804
422.32805
422.32806
422.32817
422.3283
422.32845
422.32856
422.3286
422.32814
422.32813
422.32813
422.32814
422.32818
422.32829
422.32843
422.32856
422.32863
422.32866
422.32817
422.32818
422.32819
422.3282
422.32825
422.32836
422.3285
422.3286
422.32866
422.3287
429.816
429.81599
429.81595
429.81592
429.81592
429.81594
429.81603
429.81615
429.81622
429.81625
429.81599
429.81596
429.81593
429.8159
429.81588
429.81593
429.81601
429.81614
429.81623
429.81626
429.81595
429.81593
429.81588
429.81585
429.81583
429.8159
429.81601
429.81611
429.81623
429.81626
429.81592
429.8159
429.81585
429.81582
429.81582
429.81588
429.816
429.81612
429.81624
429.8163
429.81592
429.81588
429.81583
429.81582
429.81581
429.8159
429.81604
429.81616
429.81628
429.81635
429.81594
429.81593
429.8159
429.81588
429.8159
429.81599
429.81612
429.81627
429.81639
429.81646
429.81603
429.81601
429.81601
429.816
429.81604
429.81612
429.81627
429.8164
429.81652
429.81659
429.81615
429.81614
429.81611
429.81612
429.81616
429.81627
429.8164
429.81655
429.81666
429.8167
429.81622
429.81623
429.81623
429.81624
429.81628
429.81639
429.81652
429.81666
429.81673
429.81679
429.81625
429.81626
429.81626
429.8163
429.81635
429.81646
429.81659
429.8167
429.81679
429.81679
437.31386
437.31385
437.31383
437.3138
437.31377
437.31382
437.31391
437.31403
437.3141
437.31413
437.31385
437.31384
437.31379
437.31376
437.31376
437.31381
437.31389
437.31402
437.31411
437.31414
437.31383
437.31379
437.31377
437.31373
437.31371
437.31378
437.31389
437.31402
437.31411
437.31417
437.3138
437.31376
437.31373
437.3137
437.3137
437.31376
437.31388
437.31403
437.31412
437.31418
437.31377
437.31376
437.31371
437.3137
437.31369
437.31378
437.31391
437.31406
437.31416
437.31422
437.31382
437.31381
437.31378
437.31376
437.31378
437.31386
437.31399
437.31414
437.31427
437.31433
437.31391
437.31389
437.31389
437.31388
437.31391
437.31399
437.31415
437.3143
437.3144
437.31447
437.31403
437.31402
437.31402
437.31403
437.31406
437.31414
437.3143
437.31443
437.31453
437.31457
437.3141
437.31411
437.31411
437.31412
437.31416
437.31427
437.3144
437.31453
437.31463
437.31466
437.31413
437.31414
437.31417
437.31418
437.31422
437.31433
437.31447
437.31457
437.31466
437.3147
444.82047
444.82047
444.82042
444.82039
444.82039
444.82043
444.82052
444.82061
444.8207
444.82073
444.82047
444.82043
444.82041
444.82037
444.82035
444.82042
444.8205
444.82063
444.82072
444.82075
444.82042
444.82041
444.82035
444.82032
444.82032
444.82039
444.8205
444.8206
444.82069
444.82075
444.82039
444.82037
444.82032
444.82031
444.82031
444.82037
444.82048
444.82064
444.82073
444.82079
444.82039
444.82035
444.82032
444.82031
444.8203
444.82038
444.82052
444.82067
444.82077
444.82083
444.82043
444.82042
444.82039
444.82037
444.82038
444.82047
444.8206
444.82075
444.82087
444.82094
444.82052
444.8205
444.8205
444.82048
444.82052
444.8206
444.82075
444.8209
444.821
444.82107
444.82061
444.82063
444.8206
444.82064
444.82067
444.82075
444.8209
444.82103
444.82114
444.82118
444.8207
444.82072
444.82069
444.82073
444.82077
444.82087
444.821
444.82114
444.82124
444.82127
444.82073
444.82075
444.82075
444.82079
444.82083
444.82094
444.82107
444.82118
444.82127
444.8213
452.33494
452.33493
452.33491
452.33488
452.33488
452.33492
452.33501
452.3351
452.33519
452.33522
452.33493
452.3349
452.33487
452.33484
452.33484
452.33488
452.33499
452.33509
452.33518
452.33524
452.33491
452.33487
452.33485
452.33481
452.33481
452.33488
452.33499
452.33509
452.33518
452.33523
452.33488
452.33484
452.33481
452.33477
452.3348
452.33486
452.33497
452.33512
452.33521
452.33527
452.33488
452.33484
452.33481
452.3348
452.33478
452.33487
452.335
452.33515
452.33525
452.33531
452.33492
452.33488
452.33488
452.33486
452.33487
452.33495
452.33511
452.33523
452.33535
452.33542
452.33501
452.33499
452.33499
452.33497
452.335
452.33511
452.33524
452.33539
452.33549
452.33556
452.3351
452.33509
452.33509
452.33512
452.33515
452.33523
452.33539
452.33552
452.33562
452.33566
452.33519
452.33518
452.33518
452.33521
452.33525
452.33535
452.33549
452.33562
452.33569
452.33575
452.33522
452.33524
452.33523
452.33527
452.33531
452.33542
452.33556
452.33566
452.33575
452.33576
459.85681
459.8568
459.85676
459.85675
459.85675
459.85679
459.85688
459.85697
459.85706
459.85709
459.8568
459.85677
459.85674
459.85671
459.85671
459.85678
459.85686
459.85698
459.85707
459.8571
459.85676
459.85674
459.85672
459.85668
459.85668
459.85675
459.85686
459.85698
459.85707
459.8571
459.85675
459.85671
459.85668
459.85667
459.85666
459.85673
459.85687
459.85699
459.85708
459.85714
459.85675
459.85671
459.85668
459.85666
459.85668
459.85676
459.8569
459.85702
459.85714
459.8572
459.85679
459.85678
459.85675
459.85673
459.85676
459.85684
459.85697
459.85712
459.85722
459.85728
459.85688
459.85686
459.85686
459.85687
459.8569
459.85697
459.85713
459.85725
459.85735
459.85742
459.85697
459.85698
459.85698
459.85699
459.85702
459.85712
459.85725
459.85741
459.85748
459.85752
459.85706
459.85707
459.85707
459.85708
459.85714
459.85722
459.85735
459.85748
459.85758
459.85761
459.85709
459.8571
459.8571
459.85714
459.8572
459.85728
459.85742
459.85752
459.85761
459.85762
467.38606
467.38605
467.38603
467.386
467.38599
467.38603
467.38612
467.38624
467.3863
467.38635
467.38605
467.38604
467.38599
467.38598
467.38598
467.38602
467.38613
467.38622
467.38631
467.38637
467.38603
467.38599
467.38596
467.38595
467.38595
467.38602
467.38613
467.38622
467.38631
467.38636
467.386
467.38598
467.38595
467.38592
467.38594
467.386
467.38611
467.38623
467.38635
467.38638
467.38599
467.38598
467.38595
467.38594
467.38595
467.38601
467.38614
467.38629
467.38638
467.38644
467.38603
467.38602
467.38602
467.386
467.38601
467.38608
467.38624
467.38636
467.38649
467.38655
467.38612
467.38613
467.38613
467.38611
467.38614
467.38624
467.38637
467.38652
467.38662
467.38666
467.38624
467.38622
467.38622
467.38623
467.38629
467.38636
467.38652
467.38665
467.38672
467.38676
467.3863
467.38631
467.38631
467.38635
467.38638
467.38649
467.38662
467.38672
467.38682
467.38685
467.38635
467.38637
467.38636
467.38638
467.38644
467.38655
467.38666
467.38676
467.38685
467.38686
474.92329
474.92328
474.92326
474.92325
474.92325
474.92329
474.92337
474.92346
474.92355
474.92358
474.92328
474.92327
474.92324
474.92321
474.92321
474.92327
474.92336
474.92347
474.92356
474.92359
474.92326
474.92324
474.92322
474.92318
474.92321
474.92324
474.92335
474.92347
474.92356
474.92359
474.92325
474.92321
474.92318
474.92317
474.92319
474.92325
474.92336
474.92348
474.92357
474.92363
474.92325
474.92321
474.92321
474.92319
474.9232
474.92326
474.92339
474.92351
474.92363
474.92367
474.92329
474.92327
474.92324
474.92325
474.92326
474.92334
474.92347
474.92362
474.92371
474.92378
474.92337
474.92336
474.92335
474.92336
474.92339
474.92347
474.92362
474.92375
474.92385
474.92392
474.92346
474.92347
474.92347
474.92348
474.92351
474.92362
474.92375
474.92387
474.92398
474.92401
474.92355
474.92356
474.92356
474.92357
474.92363
474.92371
474.92385
474.92398
474.92405
474.92408
474.92358
474.92359
474.92359
474.92363
474.92367
474.92378
474.92392
474.92401
474.92408
474.92409
482.4699
482.46989
482.46987
482.46984
482.46984
482.46988
482.46999
482.47007
482.47014
482.47016
482.46989
482.46986
482.46983
482.46983
482.46982
482.46986
482.46997
482.47006
482.47015
482.47018
482.46987
482.46983
482.46981
482.4698
482.46979
482.46986
482.46997
482.47006
482.47014
482.4702
482.46984
482.46983
482.4698
482.46979
482.46978
482.46987
482.46998
482.4701
482.47016
482.47022
482.46984
482.46982
482.46979
482.46978
482.46979
482.46988
482.47001
482.47013
482.47022
482.47028
482.46988
482.46986
482.46986
482.46987
482.46988
482.46995
482.47008
482.4702
482.4703
482.47037
482.46999
482.46997
482.46997
482.46998
482.47001
482.47008
482.47021
482.47033
482.47043
482.47048
482.47007
482.47006
482.47006
482.4701
482.47013
482.4702
482.47033
482.47046
482.47053
482.47057
482.47014
482.47015
482.47014
482.47016
482.47022
482.4703
482.47043
482.47053
482.4706
482.47064
482.47016
482.47018
482.4702
482.47022
482.47028
482.47037
482.47048
482.47057
482.47064
482.47067
490.02803
490.02802
490.02801
490.028
490.028
490.02804
490.02812
490.02821
490.02829
490.02832
490.02802
490.02802
490.02799
490.02799
490.02798
490.02802
490.02813
490.02822
490.02828
490.02834
490.02801
490.02799
490.02797
490.02796
490.02796
490.02802
490.02813
490.02822
490.0283
490.02833
490.028
490.02799
490.02796
490.02793
490.02795
490.028
490.02814
490.02823
490.02832
490.02835
490.028