/*--------------------------------*- C++ -*----------------------------------*\
| =========                 |                                                 |
| \\      /  F ield         | OpenFOAM: The Open Source CFD Toolbox           |
|  \\    /   O peration     | Version:  v2106                                 |
|   \\  /    A nd           | Website:  www.openfoam.com                      |
|    \\/     M anipulation  |                                                 |
\*---------------------------------------------------------------------------*/
FoamFile
{
    version     2.0;
    format      ascii;
    arch        "LSB;label=32;scalar=64";
    class       volScalarField;
    location    "37.5";
    object      gradTx;
}
// * * * * * * * * * * * * * * * * * * * * * * * * * * * * * * * * * * * * * //

dimensions      [0 -1 0 1 0 0 0];

internalField   nonuniform List<scalar> 
4000
(
0.00029744417
-0.00014497906
-0.0007400989
-0.00022888283
-7.989459e-05
6.534163e-05
0.00017537715
0.0002259713
0.00017713954
4.0825614e-05
-8.4377588e-05
-0.00058458344
-0.00060806019
-0.00022539502
-6.9984587e-05
8.0957468e-05
0.00020873223
0.0002925605
0.00025008203
6.0442405e-05
4.3745836e-06
-0.00044125447
-0.00059179262
-0.00021337894
-5.754309e-05
9.5790462e-05
0.00023091661
0.00033814182
0.00034859316
0.00010495804
3.6482227e-06
-0.00043627716
-0.00057901877
-0.00019969318
-4.2786456e-05
0.00011261763
0.00024955994
0.00035512255
0.00035797645
0.0001062891
6.6997951e-06
-0.00042575057
-0.00056609079
-0.00018550848
-2.8001922e-05
0.00012857612
0.00026729636
0.00037365375
0.00037275583
0.00011002557
1.0254892e-05
-0.00041392567
-0.00055182065
-0.00017015202
-1.3307298e-05
0.00014250542
0.0002804918
0.00038553862
0.00038172262
0.00011233497
1.7110351e-05
-0.00039530174
-0.00053443061
-0.00015272282
1.8858572e-06
0.00015516277
0.00029110308
0.00039375396
0.0003870278
0.00011357299
3.2491613e-05
-0.00035838621
-0.00051099294
-0.00013377226
1.7624573e-05
0.00016631213
0.00029914992
0.00039866366
0.00038887274
0.00011371626
6.1503148e-05
-0.00028313123
-0.00047186856
-0.00011721089
3.2301934e-05
0.00017526298
0.00030422811
0.00039943308
0.00038465824
0.00011148034
8.1119938e-05
-0.0001869326
-0.00040309852
-0.00010960958
4.1370737e-05
0.0001805841
0.00030630005
0.00039629411
0.00037106022
0.00010465091
0.00063001475
-0.0005125514
-0.0019173512
-0.00068650804
-0.00021824955
0.00021422518
0.00054998092
0.00069817336
0.00045617096
6.8156083e-05
-0.00016833531
-0.001456933
-0.0016587076
-0.00066829946
-0.00018998302
0.00026028949
0.00065317789
0.00091909183
0.00066817674
0.00011067474
4.2704617e-07
-0.0011630343
-0.0015982324
-0.00063071387
-0.00015256066
0.00030496702
0.00072005388
0.0010606969
0.0009644792
0.0002416432
4.0937614e-06
-0.0011378141
-0.0015583944
-0.00058983149
-0.00010859274
0.0003552499
0.00077603638
0.0011146218
0.0010038719
0.00025122378
1.2566109e-05
-0.0011072401
-0.0015197644
-0.00054756475
-6.4444069e-05
0.00040286542
0.00082845573
0.0011681895
0.0010447771
0.00026108225
2.2938113e-05
-0.0010721253
-0.0014770041
-0.00050171488
-2.0453984e-05
0.00044469238
0.00086821796
0.0012040169
0.0010711823
0.0002676534
4.3275648e-05
-0.0010164983
-0.001424804
-0.00044966636
2.4998425e-05
0.00048269169
0.00090008579
0.0012287977
0.0010871021
0.00027131402
9.1736092e-05
-0.00090205229
-0.0013541456
-0.00039331303
7.17276e-05
0.00051632244
0.00092430866
0.0012432954
0.0010913786
0.00027108059
0.00019055463
-0.00065397473
-0.0012292741
-0.00034217371
0.00011439355
0.00054329984
0.00093936421
0.001242931
0.0010675515
0.00025852317
0.00023307328
-0.00039374406
-0.0010184505
-0.00031301513
0.00013903799
0.0005586475
0.000944505
0.0012237448
0.00096934534
0.00020560979
0.00076348027
-0.00096713435
-0.002850156
-0.0010850493
-0.00030993653
0.00040812641
0.00099105106
0.0012703959
0.00070247338
3.4875733e-05
-0.00030221122
-0.0022451338
-0.0025171926
-0.0010528981
-0.00026567423
0.0004806074
0.0011610944
0.0016781637
0.0011360738
0.0001334969
-8.8519353e-05
-0.0018608843
-0.0024212668
-0.00099129173
-0.00020357326
0.00055502833
0.0012692645
0.0019069711
0.0016091543
0.00034065088
-8.0235601e-05
-0.0018162446
-0.0023562064
-0.00092432708
-0.00013102823
0.0006387955
0.0013634688
0.0020009438
0.0016857822
0.00036166357
-6.708523e-05
-0.0017671268
-0.0022926958
-0.00085473473
-5.8114043e-05
0.00071747308
0.0014496806
0.0020882791
0.0017518951
0.00037749826
-5.0727405e-05
-0.0017098813
-0.0022215604
-0.00077886786
1.4774865e-05
0.00078700767
0.0015159133
0.0021479402
0.001795413
0.00038816736
-1.876457e-05
-0.0016202249
-0.0021345077
-0.00069228997
9.0098138e-05
0.00085027846
0.0015691951
0.0021897652
0.0018225436
0.00039443567
6.2634838e-05
-0.0014316679
-0.002019186
-0.00059845171
0.00016721938
0.00090652216
0.0016102295
0.0022149257
0.0018298284
0.00039381028
0.00025308059
-0.00098364967
-0.0018117275
-0.00051098201
0.00023709448
0.00095176459
0.0016361806
0.0022122051
0.0017695565
0.0003609246
0.00035170176
-0.00052498695
-0.0014694775
-0.00045571096
0.00027685016
0.00097717072
0.001644645
0.0021619385
0.0014113584
0.0001550116
0.00089259234
-0.0013525778
-0.0036677228
-0.0014152883
-0.00034973439
0.00064891275
0.0014918114
0.0019517043
0.0010881015
4.572882e-05
-0.00040279663
-0.0029146221
-0.0032678793
-0.001370125
-0.00029021072
0.00074551222
0.0017189528
0.0025259985
0.0016969722
0.00017791755
-0.00014877056
-0.0024502381
-0.0031409608
-0.0012861737
-0.00020411053
0.00084990482
0.0018688949
0.0028425587
0.0023396814
0.0004561983
-0.00013623429
-0.0023878601
-0.0030525499
-0.0011943776
-0.00010392881
0.00096640038
0.0020005535
0.0029764678
0.002454748
0.00048922722
-0.00011866168
-0.0023211235
-0.0029652134
-0.00109836
-2.969595e-06
0.0010755108
0.0021198441
0.0030967366
0.002545694
0.00051106581
-9.6551849e-05
-0.0022422362
-0.002866268
-0.00099323665
9.8207701e-05
0.0011722592
0.0022121477
0.0031798837
0.0026060719
0.00052577438
-5.4262024e-05
-0.0021201314
-0.0027443252
-0.00087275399
0.00020288924
0.0012604431
0.002286715
0.0032390436
0.00264514
0.00053494985
5.4875739e-05
-0.0018651527
-0.0025846672
-0.00074228743
0.00030980192
0.0013391301
0.0023451076
0.0032771586
0.0026602706
0.00053598525
0.00032860083
-0.001229277
-0.0022938559
-0.00061857609
0.00040630515
0.0014027501
0.0023839899
0.0032793429
0.0025758057
0.00048727081
0.00046078956
-0.00061357279
-0.0018268914
-0.00053627482
0.00046112589
0.0014385761
0.0023993062
0.0032078244
0.0018583918
5.7709322e-05
0.0010215162
-0.0016942084
-0.0044091367
-0.001687288
-0.00034181906
0.00092979259
0.0020281401
0.0026730579
0.0015257265
7.5887258e-05
-0.0004888298
-0.0035197581
-0.0039440477
-0.0016293684
-0.00026720021
0.0010508017
0.0023116417
0.0034091284
0.0022912134
0.00023170593
-0.00019551697
-0.0029776315
-0.0037875112
-0.0015240982
-0.00015800906
0.001184415
0.0025026226
0.0038127374
0.0030973821
0.00057719083
-0.00017877043
-0.0028981326
-0.0036768286
-0.0014084657
-3.1132839e-05
0.0013326798
0.0026706317
0.0039858183
0.0032503401
0.00062196997
-0.00015690391
-0.0028144417
-0.0035666086
-0.001286925
9.7025865e-05
0.0014714001
0.0028220916
0.0041380903
0.0033655383
0.00064971176
-0.00012902453
-0.0027143226
-0.0034407612
-0.0011534308
0.00022570643
0.0015946574
0.0029397983
0.0042440627
0.0034422429
0.00066832194
-7.6231144e-05
-0.0025598193
-0.0032847305
-0.00099993992
0.00035900346
0.001707124
0.0030350569
0.004319947
0.0034926232
0.00068019639
5.9976566e-05
-0.00223984
-0.0030817712
-0.00083396185
0.00049487307
0.0018076227
0.0031101913
0.0043706087
0.0035160548
0.00068325547
0.00041448249
-0.0014201398
-0.0027080405
-0.00067458701
0.0006172479
0.0018889807
0.0031616029
0.0043800356
0.0034191563
0.00062493386
0.00057030116
-0.00066818442
-0.0021226445
-0.00056580562
0.00068677584
0.0019347077
0.0031840032
0.0042971418
0.0023226718
-4.7734197e-05
0.0011495616
-0.0020008115
-0.0050880993
-0.0019110565
-0.00029383826
0.0012429642
0.0025894314
0.0034133415
0.0019849689
0.00011491163
-0.00056517268
-0.0040762659
-0.0045601057
-0.0018407309
-0.00020472112
0.001387616
0.0029276788
0.0043068664
0.0028987472
0.00029090306
-0.00023407473
-0.0034591901
-0.004374875
-0.0017149219
-7.3299543e-05
0.0015494326
0.0031583124
0.0047953374
0.0038624494
0.0007005448
-0.00021317696
-0.0033630417
-0.0042427444
-0.001576353
7.9307574e-05
0.0017283822
0.0033613887
0.0050064359
0.0040522114
0.0007566496
-0.00018719101
-0.0032630555
-0.0041104971
-0.0014302165
0.0002337185
0.0018957314
0.0035439387
0.0051896387
0.0041908889
0.00079010956
-0.00015376554
-0.0031425029
-0.0039587157
-0.001269335
0.00038897967
0.0020446442
0.0036862463
0.0053176985
0.0042833753
0.00081248837
-9.0756466e-05
-0.0029565871
-0.0037697309
-0.0010839177
0.00054998044
0.0021806409
0.0038015452
0.0054096774
0.0043443973
0.00082682916
7.1732748e-05
-0.0025736219
-0.0035250058
-0.00088370871
0.00071383734
0.0023022507
0.0038927536
0.0054719675
0.0043747124
0.00083133939
0.00050492682
-0.0015745912
-0.0030701614
-0.00068961639
0.00086124301
0.0024006796
0.0039558142
0.0054879276
0.0042692723
0.00076610578
0.00068091826
-0.00069614144
-0.0023715416
-0.00055526926
0.00094500118
0.0024557591
0.0039840907
0.0053968425
0.0027952792
-0.00015132266
0.0012745415
-0.002278012
-0.0057109902
-0.0020946667
-0.00021436158
0.0015782676
0.003163354
0.0041576429
0.0024509201
0.00015833522
-0.0006337909
-0.0045901066
-0.0051231721
-0.002012348
-0.00011135014
0.0017455964
0.0035542013
0.0052031543
0.0035065272
0.00035281592
-0.00026685487
-0.0039016869
-0.0049103379
-0.0018668156
4.140759e-05
0.0019345041
0.0038228878
0.005773465
0.0046214629
0.000823781
-0.00024191216
-0.0037894543
-0.0047576201
-0.0017062554
0.00021869863
0.0021429235
0.0040596137
0.0060211688
0.004846725
0.0008907776
-0.00021197577
-0.0036738359
-0.0046042453
-0.0015365309
0.00039829938
0.0023377674
0.0042720101
0.0062340636
0.0050079536
0.00092972663
-0.00017323786
-0.0035336851
-0.0044275713
-0.0013493636
0.00057907856
0.0025113254
0.004437959
0.0063833521
0.0051156226
0.00095573549
-0.00010042325
-0.0033175993
-0.0042069182
-0.0011332677
0.00076670133
0.0026699425
0.0045725379
0.0064908198
0.0051868617
0.00097243502
8.7326962e-05
-0.0028741513
-0.0039221589
-0.00090024135
0.00095742388
0.0028118533
0.0046792088
0.0065641673
0.0052231708
0.00097800476
0.00059658436
-0.0017017772
-0.0033889036
-0.00067266911
0.0011288846
0.0029266988
0.0047533531
0.0065860485
0.0051104861
0.00090693048
0.00079106506
-0.00070360851
-0.0025819611
-0.00051375066
0.0012263215
0.0029907613
0.004786757
0.0064877917
0.0032669522
-0.00025101785
0.0013944868
-0.0025292128
-0.0062809544
-0.0022441946
-0.00011086283
0.0019265932
0.0037391028
0.0048942533
0.0029142749
0.00020390101
-0.00069564296
-0.0050636034
-0.0056368911
-0.0021503889
5.382014e-06
0.0021155238
0.0041800859
0.0060852807
0.0041050058
0.00041553728
-0.00029510693
-0.0043080281
-0.00539775
-0.0019860533
0.00017848728
0.0023302934
0.004485067
0.0067338555
0.0053641673
0.00094482916
-0.00026626744
-0.0041803991
-0.0052254123
-0.001804544
0.00037930219
0.0025668236
0.0047538824
0.0070165515
0.0056234573
0.0010222643
-0.00023256981
-0.0040498868
-0.0050519052
-0.0016123457
0.00058290932
0.0027878842
0.0049947293
0.0072577424
0.0058061797
0.001066443
-0.00018877088
-0.003891049
-0.0048514921
-0.001400122
0.00078801281
0.0029849399
0.0051832185
0.0074272667
0.005928322
0.0010959128
-0.0001066161
-0.0036461867
-0.0046006053
-0.0011547549
0.0010010256
0.0031651249
0.0053361786
0.0075495091
0.0060093363
0.0011148791
0.00010521782
-0.0031450848
-0.0042776956
-0.00089045971
0.0012173489
0.0033263892
0.0054575994
0.0076333988
0.0060511589
0.0011213298
0.00068740214
-0.0018065845
-0.0036693345
-0.00063086798
0.0014117408
0.0034568916
0.0055423107
0.0076608607
0.0059320014
0.0010450145
0.00089903842
-0.0006951923
-0.002759244
-0.00044844728
0.0015222136
0.0035295458
0.0055804362
0.0075560639
0.003730061
-0.00034663044
0.0015078272
-0.0027563126
-0.0067993397
-0.0023641693
1.0422444e-05
0.002280171
0.0043076083
0.0056136741
0.003368358
0.00025028445
-0.00075120929
-0.0054973587
-0.0061029931
-0.0022594604
0.00013916773
0.0024895134
0.0047959762
0.0069428483
0.004686817
0.00047774088
-0.00031953678
-0.0046792725
-0.0058390199
-0.0020773523
0.0003315232
0.0027287815
0.0051353168
0.0076656422
0.0060823865
0.0010620683
-0.00028697819
-0.0045370388
-0.0056481436
-0.0018760469
0.00055457959
0.0029919147
0.0054345039
0.0079815316
0.0063740589
0.0011494473
-0.00024973087
-0.0043924555
-0.0054556064
-0.0016626047
0.00078088557
0.0032377745
0.0057022579
0.0082494757
0.0065771061
0.0011985713
-0.00020114799
-0.0042159381
-0.0052327317
-0.0014266845
0.0010089926
0.0034570559
0.0059120678
0.0084381355
0.0067129271
0.00123131
-0.00011016925
-0.003943845
-0.0049532052
-0.0011536117
0.0012460268
0.003657641
0.0060824082
0.0085743476
0.0068032017
0.0012524305
0.00012443063
-0.0033882295
-0.004594204
-0.0008597434
0.0014865565
0.0038372062
0.0062177766
0.0086682196
0.0068501888
0.001259674
0.00077594683
-0.0018918769
-0.0039145218
-0.00056977823
0.0017026307
0.0039825129
0.0063124923
0.0087010112
0.0067252773
0.0011786198
0.0010034033
-0.00067420104
-0.0029069621
-0.00036502386
0.0018254247
0.0040633018
0.0063550384
0.0085902952
0.0041784628
-0.00043820228
0.0016132992
-0.0029602795
-0.0072664107
-0.0024579281
0.00014441561
0.002632478
0.0048612452
0.0063079501
0.0038078877
0.00029657751
-0.00080071734
-0.0058910811
-0.0065220738
-0.0023429678
0.00028485667
0.0028609266
0.005393969
0.0077670592
0.0052459268
0.00053844381
-0.00034056854
-0.0050155261
-0.0062349007
-0.0021442231
0.00049525632
0.003123193
0.0057655462
0.0085595874
0.0067692744
0.0011741948
-0.00030449274
-0.0048595712
-0.0060266769
-0.0019243858
0.00073914916
0.0034112732
0.006093223
0.0089066875
0.0070915041
0.001270971
-0.00026392831
-0.0047018211
-0.0058163187
-0.001691046
0.00098672282
0.0036803782
0.0063861941
0.0091996965
0.0073135976
0.0013247305
-0.00021086537
-0.0045087305
-0.0055723844
-0.0014329193
0.0012363877
0.003920493
0.0066159911
0.0094062913
0.0074622314
0.0013605288
-0.00011162924
-0.0042111061
-0.0052659721
-0.0011338608
0.0014959426
0.0041402009
0.0068026209
0.0095555956
0.0075611908
0.0013836724
0.00014428381
-0.0036044295
-0.0048731304
-0.00081227135
0.0017591558
0.0043369197
0.0069510629
0.0096588386
0.0076130152
0.0013916478
0.0008611102
-0.0019594688
-0.0041263438
-0.00049375171
0.0019955464
0.0044961001
0.0070551682
0.0096967192
0.0074830987
0.0013063573
0.0011029765
-0.00064304284
-0.003027553
-0.00026794809
0.002129883
0.0045845129
0.0071018467
0.0095807466
0.0046071059
-0.00052568076
0.0017098599
-0.0031415237
-0.0076817878
-0.0025279256
0.00028700693
0.0029780517
0.0053935438
0.0069702668
0.0042284449
0.00034208571
-0.00084425509
-0.006244014
-0.0068940516
-0.0024034277
0.00043827046
0.0032241887
0.0059673286
0.0085503052
0.0057771894
0.00059686802
-0.00035846697
-0.0053163895
-0.0065854542
-0.0021892814
0.00066540364
0.0035078204
0.0063688334
0.0094076642
0.0074189098
0.001280119
-0.00031909762
-0.0051476804
-0.0063611772
-0.0019522835
0.00092860922
0.0038190491
0.0067229561
0.0097838132
0.0077696942
0.0013856917
-0.0002754683
-0.0049777453
-0.00613431
-0.0017005054
0.0011958997
0.004109714
0.0070393116
0.010100057
0.0080094481
0.0014437514
-0.00021825526
-0.0047692837
-0.0058708384
-0.0014217874
0.001465556
0.0043691533
0.0072876514
0.010323288
0.0081699599
0.0014823838
-0.00011137695
-0.0044479766
-0.0055394496
-0.0010986119
0.0017460039
0.0046066014
0.0074893924
0.010484739
0.0082769785
0.0015074054
0.00016426789
-0.0037939941
-0.0051152108
-0.00075130924
0.0020302513
0.0048192341
0.0076499662
0.010596694
0.0083333018
0.0015160573
0.00094198195
-0.0020105792
-0.0043059416
-0.00040621943
0.0022854788
0.0049912836
0.0077627979
0.010639408
0.0081991668
0.0014270546
0.0011967643
-0.00060352926
-0.003122706
-0.00016077088
0.0024305169
0.0050867646
0.0078133081
0.010518882
0.0050117279
-0.00060890198
0.0017966347
-0.0033001255
-0.0080447349
-0.0025759812
0.00043485414
0.0033122947
0.0058989593
0.0075946986
0.0046262215
0.00038624376
-0.00088183324
-0.0065551792
-0.0072184579
-0.0024427168
0.00059600254
0.0035745967
0.0065102611
0.0092859188
0.0062761186
0.00065237008
-0.00037340107
-0.005581206
-0.0068903428
-0.0022144962
0.00083845992
0.0038778345
0.0069392071
0.010202813
0.0080260822
0.0013789066
-0.00033098192
-0.0054007871
-0.0066514028
-0.0019618096
0.001119342
0.0042102781
0.0073175773
0.010605677
0.008403249
0.0014926225
-0.00028455818
-0.005219721
-0.0064094356
-0.0016931596
0.0014046848
0.0045206928
0.007655349
0.01094319
0.0086591742
0.0015546219
-0.00022354964
-0.0049971813
-0.0061280633
-0.0013955848
0.0016926517
0.0047978381
0.0079206818
0.011181665
0.0088305627
0.0015958475
-0.00010969018
-0.0046541811
-0.0057737542
-0.0010503013
0.0019922448
0.005051543
0.0081362716
0.01135425
0.00894497
0.0016225907
0.00018398491
-0.0039569335
-0.0053207472
-0.00067944284
0.0022957563
0.0052787607
0.0083079698
0.011474211
0.0090054338
0.0016318629
0.00101779
-0.0020460672
-0.0044539955
-0.00030992378
0.0025682325
0.0054626033
0.0084288178
0.011521483
0.008867898
0.001539695
0.0012839163
-0.00055707287
-0.0031936168
-4.6350828e-05
0.00272307
0.0055645564
0.0084828408
0.011397139
0.0053886667
-0.00068762464
0.0018728866
-0.0034359787
-0.0083543548
-0.002603468
0.0005852079
0.0036313063
0.0063726997
0.0081760459
0.0049978858
0.00042857536
-0.00091342191
-0.0068235295
-0.0074946327
-0.0024622615
0.00075524428
0.0039081522
0.0070177458
0.0099680175
0.0067387607
0.00070440428
-0.00038548057
-0.0058092137
-0.0071490258
-0.0022213781
0.001011525
0.0042291199
0.0074714813
0.010938787
0.0085861739
0.0014697459
-0.00034027385
-0.0056182004
-0.0068969011
-0.0019545684
0.0013083428
0.0045807188
0.0078717563
0.011365875
0.0089873914
0.0015909025
-0.00029134295
-0.0054271238
-0.0066413327
-0.0016707121
0.0016099675
0.0049089578
0.0082288502
0.011722565
0.0092579031
0.0016564578
-0.00022691627
-0.0051918833
-0.0063438026
-0.0013561259
0.0019144572
0.0052020872
0.0085095277
0.011974803
0.0094391041
0.0017000206
-0.00010677898
-0.0048293102
-0.0059687661
-0.00099087431
0.0022313359
0.0054704717
0.0087376245
0.012157447
0.0095601871
0.0017283189
0.00020311446
-0.0040931017
-0.0054897921
-0.00059875696
0.0025522286
0.0057108614
0.0089193768
0.012284665
0.0096244119
0.0017381527
0.0010878688
-0.0020665694
-0.0045709087
-0.00020709553
0.002840264
0.0059053537
0.0090474865
0.012336194
0.0094843172
0.0016433864
0.0013636977
-0.00050481361
-0.0032411614
7.2972256e-05
0.0030039412
0.0060131454
0.0091046846
0.012208795
0.0057347462
-0.00076156128
0.0019379974
-0.0035488859
-0.0086097283
-0.0026114559
0.00073577247
0.0039317498
0.0068106016
0.0087097301
0.0053405025
0.00046867083
-0.00093897394
-0.0070480498
-0.0077218627
-0.0024631798
0.00091364623
0.0042214304
0.0074854125
0.010591403
0.0071616205
0.00075250139
-0.00039477855
-0.005999646
-0.0073608967
-0.0022111219
0.0011821664
0.0045581446
0.0079611357
0.011610058
0.0090950906
0.0015519289
-0.00034706349
-0.0057992182
-0.0070971454
-0.001931839
0.0014930838
0.0049267245
0.0083808412
0.012058731
0.0095178812
0.0016797782
-0.00029592778
-0.005599312
-0.006829556
-0.001634533
0.0018091234
0.0052707561
0.008755048
0.012432393
0.0098013069
0.0017484842
-0.00022848099
-0.0053528243
-0.0065177078
-0.001304882
0.0021282503
0.0055780537
0.0090493312
0.012696831
0.0099911982
0.0017941146
-0.00010280742
-0.0049729172
-0.0061242618
-0.00092192151
0.0024604526
0.0058594544
0.0092885204
0.012888401
0.010118206
0.0018237925
0.00022139297
-0.0042022902
-0.0056222791
-0.00051096964
0.0027967402
0.006111526
0.0094791986
0.013022084
0.010185791
0.0018341263
0.0011516411
-0.0020725892
-0.0046569336
-9.9586239e-05
0.0030985526
0.0063154622
0.0096137737
0.013077547
0.010043997
0.001737345
0.0014354717
-0.00044770212
-0.0032660184
0.00019524675
0.0032700572
0.0064284247
0.0096737912
0.012947876
0.0060472056
-0.00083040141
0.0019914566
-0.0036386242
-0.0088100153
-0.0026008182
0.00088459906
0.0042107518
0.0072090411
0.009191724
0.005651484
0.00050617349
-0.00095844078
-0.007227829
-0.0078994807
-0.0024463877
0.0010692121
0.0045114793
0.0079094548
0.011151495
0.0075416163
0.00079625555
-0.0004013466
-0.0061518016
-0.0075253827
-0.0021847116
0.0013483134
0.0048618613
0.0084042297
0.012211754
0.0095492209
0.0016248397
-0.00035141773
-0.0059431963
-0.0072516332
-0.0018946807
0.0016714097
0.0052451455
0.008840774
0.012679241
0.0099909755
0.001758593
-0.00029839295
-0.0057356949
-0.0069736756
-0.0015857621
0.0019999106
0.0056028433
0.0092297814
0.013067567
0.010285565
0.0018300254
-0.0002283424
-0.005479482
-0.0066494355
-0.0012430835
0.0023317016
0.0059224087
0.0095358503
0.01334257
0.010482972
0.0018774413
-9.7907935e-05
-0.0050845854
-0.0062400094
-0.0008447801
0.0026771738
0.0062150848
0.0097846515
0.01354188
0.010615118
0.0019083152
0.00023860007
-0.0042842933
-0.0057181164
-0.0004175319
0.0030267779
0.0064772789
0.009983075
0.0136812
0.010685644
0.0019190845
0.0012086063
-0.0020645556
-0.0047122634
1.1033412e-05
0.0033405022
0.0066893972
0.010123281
0.013740251
0.010543023
0.0018208845
0.0014986883
-0.00038655633
-0.0032687572
0.00031881195
0.0035187747
0.0068068319
0.010185746
0.013609105
0.0063236535
-0.00089382817
0.0020328531
-0.0037049935
-0.0089545293
-0.0025723103
0.001030006
0.0044658277
0.0075648708
0.0096185063
0.005928559
0.00054077071
-0.00097178354
-0.0073621111
-0.00802694
-0.0024126785
0.001220219
0.0047757471
0.008286568
0.011644293
0.0078760518
0.00083531565
-0.00040522531
-0.0062650946
-0.0076420171
-0.0021429987
0.0015081791
0.0051376346
0.0087973424
0.012739616
0.0099454122
0.0016879477
-0.00035339069
-0.006049599
-0.0073599588
-0.0018440103
0.0018414595
0.0055332572
0.009248031
0.013223033
0.010403405
0.00182678
-0.00029880406
-0.005835783
-0.0070733489
-0.0015253865
0.0021803932
0.0059024123
0.0096494372
0.013623626
0.01070734
0.0019004979
-0.00022658201
-0.0055714258
-0.0067387184
-0.0011717962
0.002522799
0.0062322714
0.0099654012
0.013907494
0.010911044
0.0019494065
-9.2191178e-05
-0.0051639761
-0.0063158388
-0.00076060877
0.0028794074
0.0065344146
0.010222277
0.014113312
0.011047511
0.0019812855
0.00025454942
-0.0043389543
-0.0057772553
-0.00031970135
0.0032401692
0.0068051111
0.010427219
0.014257407
0.011120541
0.0019924237
0.001258333
-0.0020428666
-0.0047370981
0.00012340115
0.0035638684
0.0070241007
0.010572189
0.014319679
0.01097797
0.0018934098
0.001552878
-0.00032210113
-0.0032499017
0.00044222642
0.0037478081
0.0071452821
0.010636715
0.014187866
0.0065620383
-0.00095153075
0.0020618707
-0.0037478504
-0.0090427929
-0.002526629
0.0011705195
0.0046948274
0.0078753755
0.0099870312
0.006169753
0.00057218793
-0.00097898108
-0.0074503342
-0.0081038682
-0.0023627805
0.0013651592
0.0050120271
0.0086139059
0.012066342
0.0081625989
0.0008693797
-0.00040645187
-0.0063390923
-0.0077104942
-0.0020867608
0.0016602015
0.0053831879
0.0091375294
0.013189976
0.010280956
0.0017408027
-0.00035303123
-0.0061180355
-0.0074218672
-0.0017806596
0.0020016095
0.0057887078
0.009599582
0.013686341
0.010752363
0.0018838577
-0.00029721951
-0.005899224
-0.0071283733
-0.0014542969
0.002348884
0.006167042
0.01001091
0.014096728
0.011063768
0.0019594064
-0.00022327145
-0.0056283535
-0.0067854169
-0.0010919771
0.0026997913
0.0065051585
0.010334818
0.014387711
0.011272512
0.0020095058
-8.5753063e-05
-0.0052108636
-0.0063516927
-0.00067044282
0.0030653348
0.0068149034
0.010598182
0.014598765
0.011412457
0.0020421931
0.00026908213
-0.0043661996
-0.0057997407
-0.00021859649
0.0034350277
0.0070924309
0.010808377
0.014746744
0.011487539
0.0020536311
0.0013004543
-0.0020079188
-0.0047316936
0.00023630968
0.0037667041
0.0073169396
0.010957216
0.014811852
0.011345896
0.0019544136
0.0015976461
-0.0002549966
-0.0032099766
0.00056421519
0.0039551762
0.0074411197
0.011023404
0.014680183
0.0067606281
-0.0010032139
0.0020782833
-0.0037671347
-0.0090745795
-0.0024644559
0.00130483
0.0048958957
0.0081382406
0.010294709
0.0063733747
0.00060018451
-0.00098003587
-0.0074921579
-0.0081301082
-0.0022974013
0.0015026958
0.0052184196
0.0088890505
0.012414725
0.0083992868
0.00089819075
-0.00040506553
-0.006373542
-0.0077307089
-0.0020167439
0.0018030007
0.0055965644
0.0094222939
0.013559741
0.01055358
0.001783032
-0.00035038834
-0.0061482874
-0.0074372933
-0.0017054182
0.0021504301
0.0060094803
0.0098928606
0.014065992
0.011035494
0.0019294276
-0.00029369575
-0.0059258299
-0.0071387258
-0.00137333
0.0025039031
0.0063946595
0.010311573
0.014483643
0.011352447
0.002006341
-0.00021847776
-0.0056501167
-0.006789559
-0.0010045158
0.0028611467
0.0067389472
0.010641427
0.014779943
0.011564943
0.0020573222
-7.8679816e-05
-0.0052251612
-0.0063476652
-0.00057523499
0.00323337
0.0070543823
0.010909654
0.014994931
0.011707502
0.002090616
0.00028206215
-0.0043660633
-0.0057857488
-0.00011523684
0.0036097133
0.0073370282
0.011123804
0.015145881
0.011784173
0.0021022832
0.001334664
-0.0019601294
-0.0046963973
0.00034866723
0.0039473207
0.0075656706
0.011275592
0.015213423
0.01164433
0.0020034737
0.0016326703
-0.00018585821
-0.0031495421
0.00068363079
0.0041391626
0.0076920831
0.011343034
0.015082709
0.0069179972
-0.0010486056
0.0020819528
-0.0037628884
-0.0090499435
-0.0023864901
0.0014317593
0.0050674428
0.0083515295
0.010539391
0.0065380075
0.00062455084
-0.00097497836
-0.0074874853
-0.0081057488
-0.0022172595
0.0016316312
0.0053933022
0.0091099896
0.012687041
0.0085844953
0.0009215342
-0.00040111181
-0.0063683921
-0.0077027868
-0.0019336952
0.0019353465
0.0057760991
0.0096495649
0.01384638
0.010761442
0.0018143383
-0.00034551524
-0.0061403287
-0.007406392
-0.001619065
0.0022866547
0.0061938643
0.010125744
0.014359396
0.011250891
0.0019631718
-0.00028829139
-0.0059155972
-0.0071045924
-0.0012832996
0.0026441459
0.0065835128
0.010549258
0.014781734
0.011571439
0.0020409757
-0.0002122673
-0.0056367415
-0.0067513685
-0.0009102657
0.0030055222
0.0069318479
0.010883023
0.015081525
0.011786375
0.0020925241
-7.1051808e-05
-0.0052069409
-0.0063040303
-0.00047588595
0.0033821294
0.0072510274
0.011154458
0.01529912
0.01193067
0.0021262191
0.00029337275
-0.0043387061
-0.0057356145
-1.0572865e-05
0.0037628018
0.0075370482
0.011371241
0.015452109
0.012008456
0.0021380434
0.0013607146
-0.0018999528
-0.0046316754
0.00045946827
0.004104258
0.0077684137
0.011525043
0.015521667
0.011871275
0.0020402509
0.001657698
-0.00011527171
-0.003069219
0.00079942438
0.0042982865
0.0078962788
0.011593322
0.015392715
0.0070330163
-0.0010874625
0.0020728259
-0.0037352706
-0.0089692435
-0.0022934729
0.0015502359
0.0052081221
0.0085136664
0.010719364
0.0066625036
0.00064510616
-0.00096387024
-0.0074364778
-0.0080311468
-0.0021231098
0.0017508814
0.0055353077
0.0092751004
0.012881406
0.0087169497
0.00093923561
-0.00039464559
-0.0063238071
-0.0076271068
-0.0018383872
0.0020561344
0.0059203963
0.0098176805
0.014047919
0.010903128
0.001834498
-0.00033847242
-0.0060943411
-0.0073295605
-0.0015223927
0.0024091549
0.0063404347
0.010296535
0.014564537
0.011397094
0.0019848517
-0.00028107018
-0.0058687214
-0.0070263897
-0.0011850207
0.0027684597
0.0067321495
0.010722239
0.014988957
0.01171926
0.0020630664
-0.00020470878
-0.0055884426
-0.006671287
-0.00081006751
0.0031317402
0.0070823838
0.011057858
0.01529039
0.011935312
0.0021148642
-6.2946439e-05
-0.0051564471
-0.0062212627
-0.00037326745
0.0035104087
0.0074033393
0.011330826
0.015509251
0.012080451
0.0021487525
0.00030291386
-0.0042844285
-0.0056498523
9.449127e-05
0.0038930627
0.0076909708
0.011548907
0.015663335
0.012158873
0.002160661
0.0013784152
-0.0018278919
-0.0045381321
0.00056777109
0.0042362619
0.0079236325
0.011703772
0.01573448
0.0120252
0.0020644883
0.0016725446
-4.3804061e-05
-0.0029697079
0.00091062359
0.0044312806
0.0080521617
0.011772467
0.015608084
0.0071048447
-0.0011195756
0.002050932
-0.0036845685
-0.0088331593
-0.0021862074
0.001659275
0.0053168117
0.0086234223
0.010833333
0.0067459784
0.00066169686
-0.00094680684
-0.0073395668
-0.0079069442
-0.0020157622
0.0018594569
0.0056433062
0.0093831355
0.012996439
0.0087957164
0.00095115899
-0.00038573357
-0.0062401786
-0.0075043173
-0.0017316369
0.0021643653
0.0060283122
0.0099253751
0.014162934
0.010977648
0.0018433601
-0.00032933017
-0.0060107249
-0.0072074543
-0.0014162266
0.0025169214
0.0064480339
0.010403953
0.014679967
0.011473086
0.0019943071
-0.00027210347
-0.0057856081
-0.0069047817
-0.0010793281
0.0028758242
0.0068393996
0.010829222
0.015103854
0.011794883
0.0020724501
-0.00019587558
-0.0055056346
-0.0065499897
-0.00070476769
0.0032387689
0.0071893735
0.011164624
0.01540507
0.012010718
0.002124178
-5.444043e-05
-0.0050741076
-0.006100054
-0.00026824061
0.0036171638
0.0075101258
0.011437443
0.015623846
0.012155807
0.0021580506
0.00031059993
-0.0042036817
-0.0055291723
0.00019907959
0.0039994399
0.0077975944
0.011655475
0.015778076
0.01223438
0.0021699698
0.0013876298
-0.001744507
-0.0044165252
0.00067267994
0.0043422659
0.0080301175
0.01181045
0.015850369
0.012105039
0.0020760099
0.001677092
2.7987923e-05
-0.0028518031
0.0010163149
0.0045370723
0.0081585183
0.011879138
0.015727308
0.0071329236
-0.0011447735
0.0020163803
-0.0036112065
-0.0086427038
-0.0020655745
0.0017579607
0.0053925981
0.0086799007
0.010880424
0.0067878054
0.00067419496
-0.00092391906
-0.0071974616
-0.007734081
-0.0018960982
0.0019564448
0.0057163886
0.0094332093
0.013031256
0.0088201981
0.00095720513
-0.00037445643
-0.0061181341
-0.0073353497
-0.0016143219
0.0022591288
0.0060989381
0.0099717652
0.014190542
0.010984431
0.0018408443
-0.00031817053
-0.0058901075
-0.0070410002
-0.0013014404
0.0026090468
0.0065157553
0.010447116
0.014704803
0.011478285
0.0019914539
-0.0002614722
-0.0056668815
-0.006740692
-0.00096709268
0.0029653348
0.0069043591
0.010869328
0.015125543
0.01179773
0.0020690435
-0.00018584779
-0.0053889393
-0.0063883982
-0.00059523439
0.0033257058
0.0072519147
0.011202445
0.015424684
0.012012017
0.0021203825
-4.5611836e-05
-0.0049605415
-0.0059413253