/*--------------------------------*- C++ -*----------------------------------*\
| =========                 |                                                 |
| \\      /  F ield         | OpenFOAM: The Open Source CFD Toolbox           |
|  \\    /   O peration     | Version:  v2106                                 |
|   \\  /    A nd           | Website:  www.openfoam.com                      |
|    \\/     M anipulation  |                                                 |
\*---------------------------------------------------------------------------*/
FoamFile
{
    version     2.0;
    format      ascii;
    arch        "LSB;label=32;scalar=64";
    class       volScalarField;
    location    "37.5";
    object      gradTz;
}
// * * * * * * * * * * * * * * * * * * * * * * * * * * * * * * * * * * * * * //

dimensions      [0 -1 0 1 0 0 0];

internalField   nonuniform List<scalar> 
4000
(
745.26955
745.27107
745.26892
745.26831
745.268
745.26801
745.26828
745.26873
745.26919
745.26938
745.27107
745.27065
745.26893
745.26833
745.26804
745.26806
745.26837
745.26892
745.26957
745.26986
745.26892
745.26893
745.26726
745.26668
745.26641
745.26647
745.26681
745.26741
745.26819
745.26875
745.26831
745.26833
745.26668
745.26613
745.26589
745.26597
745.26635
745.26699
745.26781
745.26838
745.268
745.26804
745.26641
745.26589
745.26568
745.26579
745.2662
745.26688
745.26773
745.26832
745.26801
745.26806
745.26647
745.26597
745.26579
745.26593
745.26637
745.26707
745.26795
745.26855
745.26828
745.26837
745.26681
745.26635
745.2662
745.26637
745.26684
745.26756
745.26844
745.26905
745.26873
745.26892
745.26741
745.26699
745.26688
745.26707
745.26756
745.26829
745.26918
745.26979
745.26919
745.26957
745.26819
745.26781
745.26773
745.26795
745.26844
745.26918
745.27007
745.27066
745.26938
745.26986
745.26875
745.26838
745.26832
745.26855
745.26905
745.26979
745.27066
745.27118
745.30094
745.30164
745.30012
745.29953
745.29926
745.2993
745.29961
745.30012
745.30065
745.30064
745.30164
745.30131
745.29998
745.2994
745.29915
745.29921
745.29955
745.30016
745.30094
745.30105
745.30012
745.29998
745.2987
745.29815
745.29792
745.298
745.29838
745.29904
745.29995
745.3003
745.29953
745.2994
745.29815
745.29763
745.29743
745.29754
745.29795
745.29865
745.2996
745.29998
745.29926
745.29915
745.29792
745.29743
745.29725
745.2974
745.29784
745.29858
745.29956
745.29996
745.2993
745.29921
745.298
745.29754
745.2974
745.29757
745.29804
745.2988
745.2998
745.30022
745.29961
745.29955
745.29838
745.29795
745.29784
745.29804
745.29854
745.29932
745.30033
745.30075
745.30012
745.30016
745.29904
745.29865
745.29858
745.2988
745.29932
745.30011
745.30113
745.30155
745.30065
745.30094
745.29995
745.2996
745.29956
745.2998
745.30033
745.30113
745.30214
745.30252
745.30064
745.30105
745.3003
745.29998
745.29996
745.30022
745.30075
745.30155
745.30252
745.30259
745.35871
745.3591
745.35787
745.35735
745.35714
745.35722
745.35757
745.35816
745.35883
745.35879
745.3591
745.35875
745.35764
745.35714
745.35694
745.35704
745.35743
745.3581
745.35903
745.35913
745.35787
745.35764
745.35658
745.3561
745.35592
745.35605
745.35647
745.3572
745.35825
745.35857
745.35735
745.35714
745.3561
745.35564
745.35549
745.35565
745.35611
745.35687
745.35797
745.35832
745.35714
745.35694
745.35592
745.35549
745.35537
745.35556
745.35605
745.35685
745.35797
745.35835
745.35722
745.35704
745.35605
745.35565
745.35556
745.35577
745.35628
745.35711
745.35826
745.35865
745.35757
745.35743
745.35647
745.35611
745.35605
745.35628
745.35682
745.35767
745.35883
745.35923
745.35816
745.3581
745.3572
745.35687
745.35685
745.35711
745.35767
745.35853
745.3597
745.3601
745.35883
745.35903
745.35825
745.35797
745.35797
745.35826
745.35883
745.3597
745.36087
745.36121
745.35879
745.35913
745.35857
745.35832
745.35835
745.35865
745.35923
745.3601
745.36121
745.36099
745.44488
745.44526
745.44415
745.44371
745.44355
745.44367
745.44407
745.44471
745.44547
745.44553
745.44526
745.44498
745.44399
745.44356
745.44341
745.44356
745.44398
745.44471
745.44571
745.44586
745.44415
745.44399
745.44303
745.44262
745.4425
745.44267
745.44313
745.4439
745.44504
745.44539
745.44371
745.44356
745.44262
745.44224
745.44214
745.44234
745.44283
745.44364
745.44482
745.44521
745.44355
745.44341
745.4425
745.44214
745.44207
745.44229
745.44282
745.44367
745.44487
745.44528
745.44367
745.44356
745.44267
745.44234
745.44229
745.44255
745.4431
745.44397
745.4452
745.44562
745.44407
745.44398
745.44313
745.44283
745.44282
745.4431
745.44368
745.44457
745.44581
745.44624
745.44471
745.44471
745.4439
745.44364
745.44367
745.44397
745.44457
745.44547
745.44672
745.44716
745.44547
745.44571
745.44504
745.44482
745.44487
745.4452
745.44581
745.44672
745.44798
745.44837
745.44553
745.44586
745.44539
745.44521
745.44528
745.44562
745.44624
745.44716
745.44837
745.44807
745.55935
745.55973
745.5587
745.55831
745.5582
745.55837
745.5588
745.55947
745.56026
745.56036
745.55973
745.55949
745.55857
745.5582
745.5581
745.55828
745.55874
745.55949
745.56052
745.56069
745.5587
745.55857
745.55769
745.55734
745.55726
745.55747
745.55796
745.55876
745.55991
745.56028
745.55831
745.5582
745.55734
745.55701
745.55696
745.55719
745.55772
745.55855
745.55975
745.56015
745.5582
745.5581
745.55726
745.55696
745.55693
745.55719
745.55775
745.55862
745.55984
745.56026
745.55837
745.55828
745.55747
745.55719
745.55719
745.55748
745.55806
745.55896
745.5602
745.56063
745.5588
745.55874
745.55796
745.55772
745.55775
745.55806
745.55867
745.55958
745.56084
745.56128
745.55947
745.55949
745.55876
745.55855
745.55862
745.55896
745.55958
745.5605
745.56177
745.56222
745.56026
745.56052
745.55991
745.55975
745.55984
745.5602
745.56084
745.56177
745.56305
745.56347
745.56036
745.56069
745.56028
745.56015
745.56026
745.56063
745.56128
745.56222
745.56347
745.56315
745.70129
745.70167
745.70071
745.70037
745.7003
745.7005
745.70095
745.70163
745.70244
745.70256
745.70167
745.70146
745.7006
745.70028
745.70022
745.70043
745.70092
745.70168
745.70271
745.70289
745.70071
745.7006
745.69979
745.69948
745.69944
745.69968
745.70019
745.701
745.70215
745.70252
745.70037
745.70028
745.69948
745.6992
745.69918
745.69945
745.69999
745.70084
745.70203
745.70243
745.7003
745.70022
745.69944
745.69918
745.69919
745.69948
745.70006
745.70093
745.70216
745.70258
745.7005
745.70043
745.69968
745.69945
745.69948
745.6998
745.7004
745.7013
745.70254
745.70297
745.70095
745.70092
745.70019
745.69999
745.70006
745.7004
745.70102
745.70194
745.70319
745.70363
745.70163
745.70168
745.701
745.70084
745.70093
745.7013
745.70194
745.70287
745.70413
745.70457
745.70244
745.70271
745.70215
745.70203
745.70216
745.70254
745.70319
745.70413
745.7054
745.70582
745.70256
745.70289
745.70252
745.70243
745.70258
745.70297
745.70363
745.70457
745.70582
745.70552
745.86981
745.87018
745.86928
745.86899
745.86895
745.86917
745.86963
745.87032
745.87111
745.87125
745.87018
745.86998
745.86919
745.86891
745.86888
745.86912
745.86961
745.87037
745.87139
745.87157
745.86928
745.86919
745.86843
745.86817
745.86816
745.86842
745.86894
745.86975
745.87088
745.87125
745.86899
745.86891
745.86817
745.86792
745.86794
745.86822
745.86878
745.86962
745.87079
745.87119
745.86895
745.86888
745.86816
745.86794
745.86798
745.86829
745.86887
745.86974
745.87094
745.87136
745.86917
745.86912
745.86842
745.86822
745.86829
745.86862
745.86923
745.87012
745.87134
745.87176
745.86963
745.86961
745.86894
745.86878
745.86887
745.86923
745.86986
745.87076
745.872
745.87243
745.87032
745.87037
745.86975
745.86962
745.86974
745.87012
745.87076
745.87168
745.87293
745.87336
745.87111
745.87139
745.87088
745.87079
745.87094
745.87134
745.872
745.87293
745.87417
745.87459
745.87125
745.87157
745.87125
745.87119
745.87136
745.87176
745.87243
745.87336
745.87459
745.8743
746.06384
746.06419
746.06336
746.0631
746.06309
746.06333
746.0638
746.06447
746.06525
746.06539
746.06419
746.06402
746.06328
746.06304
746.06304
746.06329
746.06378
746.06453
746.06552
746.06571
746.06336
746.06328
746.06259
746.06236
746.06238
746.06265
746.06317
746.06396
746.06506
746.06542
746.0631
746.06304
746.06236
746.06215
746.06219
746.06248
746.06303
746.06386
746.065
746.06538
746.06309
746.06304
746.06238
746.06219
746.06225
746.06257
746.06315
746.064
746.06516
746.06557
746.06333
746.06329
746.06265
746.06248
746.06257
746.06291
746.06351
746.06438
746.06557
746.06598
746.0638
746.06378
746.06317
746.06303
746.06315
746.06351
746.06414
746.06502
746.06622
746.06664
746.06447
746.06453
746.06396
746.06386
746.064
746.06438
746.06502
746.06592
746.06713
746.06755
746.06525
746.06552
746.06506
746.065
746.06516
746.06557
746.06622
746.06713
746.06834
746.06874
746.06539
746.06571
746.06542
746.06538
746.06557
746.06598
746.06664
746.06755
746.06874
746.06846
746.28218
746.2825
746.28174
746.28152
746.28153
746.28177
746.28224
746.2829
746.28365
746.28379
746.2825
746.28235
746.28168
746.28146
746.28148
746.28174
746.28223
746.28295
746.28391
746.28409
746.28174
746.28168
746.28104
746.28084
746.28088
746.28116
746.28167
746.28244
746.2835
746.28384
746.28152
746.28146
746.28084
746.28066
746.28072
746.28102
746.28156
746.28236
746.28345
746.28383
746.28153
746.28148
746.28088
746.28072
746.2808
746.28112
746.28169
746.28251
746.28363
746.28402
746.28177
746.28174
746.28116
746.28102
746.28112
746.28147
746.28206
746.2829
746.28404
746.28443
746.28224
746.28223
746.28167
746.28156
746.28169
746.28206
746.28267
746.28352
746.28467
746.28508
746.2829
746.28295
746.28244
746.28236
746.28251
746.2829
746.28352
746.28439
746.28555
746.28596
746.28365
746.28391
746.2835
746.28345
746.28363
746.28404
746.28467
746.28555
746.28671
746.2871
746.28379
746.28409
746.28384
746.28383
746.28402
746.28443
746.28508
746.28596
746.2871
746.28683
746.52346
746.52376
746.52307
746.52288
746.52291
746.52315
746.52361
746.52424
746.52496
746.5251
746.52376
746.52362
746.52301
746.52283
746.52287
746.52313
746.5236
746.5243
746.52521
746.52539
746.52307
746.52301
746.52243
746.52227
746.52232
746.5226
746.5231
746.52383
746.52484
746.52517
746.52288
746.52283
746.52227
746.52212
746.52219
746.52249
746.52302
746.52378
746.52482
746.52517
746.52291
746.52287
746.52232
746.52219
746.52228
746.52261
746.52316
746.52394
746.52501
746.52537
746.52315
746.52313
746.5226
746.52249
746.52261
746.52295
746.52352
746.52432
746.5254
746.52578
746.52361
746.5236
746.5231
746.52302
746.52316
746.52352
746.52411
746.52492
746.52602
746.5264
746.52424
746.5243
746.52383
746.52378
746.52394
746.52432
746.52492
746.52575
746.52685
746.52724
746.52496
746.52521
746.52484
746.52482
746.52501
746.5254
746.52602
746.52685
746.52795
746.52833
746.5251
746.52539
746.52517
746.52517
746.52537
746.52578
746.5264
746.52724
746.52833
746.52807
746.78619
746.78647
746.78585
746.78569
746.78573
746.78598
746.78641
746.78702
746.7877
746.78783
746.78647
746.78634
746.7858
746.78565
746.7857
746.78596
746.78642
746.78708
746.78793
746.78811
746.78585
746.7858
746.78529
746.78515
746.78522
746.78549
746.78597
746.78666
746.78761
746.78792
746.78569
746.78565
746.78515
746.78502
746.78511
746.7854
746.78591
746.78663
746.78761
746.78794
746.78573
746.7857
746.78522
746.78511
746.78521
746.78553
746.78605
746.7868
746.7878
746.78814
746.78598
746.78596
746.78549
746.7854
746.78553
746.78586
746.7864
746.78716
746.78818
746.78853
746.78641
746.78642
746.78597
746.78591
746.78605
746.7864
746.78696
746.78774
746.78876
746.78912
746.78702
746.78708
746.78666
746.78663
746.7868
746.78716
746.78774
746.78852
746.78955
746.78991
746.7877
746.78793
746.78761
746.78761
746.7878
746.78818
746.78876
746.78955
746.79059
746.79094
746.78783
746.78811
746.78792
746.78794
746.78814
746.78853
746.78912
746.78991
746.79094
746.7907
747.06875
747.069
747.06846
747.06833
747.06838
747.06862
747.06904
747.0696
747.07024
747.07037
747.069
747.06889
747.06842
747.06829
747.06836
747.06861
747.06904
747.06966
747.07046
747.07062
747.06846
747.06842
747.06797
747.06786
747.06793
747.0682
747.06866
747.0693
747.07019
747.07047
747.06833
747.06829
747.06786
747.06776
747.06785
747.06814
747.06861
747.06929
747.0702
747.0705
747.06838
747.06836
747.06793
747.06785
747.06796
747.06827
747.06876
747.06946
747.07039
747.0707
747.06862
747.06861
747.0682
747.06814
747.06827
747.06859
747.0691
747.06981
747.07075
747.07108
747.06904
747.06904
747.06866
747.06861
747.06876
747.0691
747.06963
747.07035
747.0713
747.07163
747.0696
747.06966
747.0693
747.06929
747.06946
747.06981
747.07035
747.07108
747.07204
747.07237
747.07024
747.07046
747.07019
747.0702
747.07039
747.07075
747.0713
747.07204
747.073
747.07332
747.07037
747.07062
747.07047
747.0705
747.0707
747.07108
747.07163
747.07237
747.07332
747.07309
747.3694
747.36961
747.36915
747.36905
747.36911
747.36935
747.36973
747.37026
747.37085
747.37097
747.36961
747.36953
747.36912
747.36902
747.3691
747.36934
747.36974
747.37031
747.37105
747.3712
747.36915
747.36912
747.36873
747.36865
747.36873
747.36899
747.36942
747.37001
747.37082
747.37108
747.36905
747.36902
747.36865
747.36858
747.36868
747.36895
747.36939
747.37001
747.37085
747.37113
747.36911
747.3691
747.36873
747.36868
747.36879
747.36908
747.36954
747.37018
747.37103
747.37132
747.36935
747.36934
747.36899
747.36895
747.36908
747.36939
747.36986
747.37051
747.37138
747.37167
747.36973
747.36974
747.36942
747.36939
747.36954
747.36986
747.37035
747.37101
747.37189
747.37219
747.37026
747.37031
747.37001
747.37001
747.37018
747.37051
747.37101
747.37169
747.37256
747.37287
747.37085
747.37105
747.37082
747.37085
747.37103
747.37138
747.37189
747.37256
747.37344
747.37374
747.37097
747.3712
747.37108
747.37113
747.37132
747.37167
747.37219
747.37287
747.37374
747.37352
747.68627
747.68645
747.68607
747.68599
747.68607
747.68629
747.68665
747.68713
747.68767
747.68778
747.68645
747.68638
747.68604
747.68598
747.68606
747.68629
747.68666
747.68718
747.68785
747.68798
747.68607
747.68604
747.68572
747.68567
747.68576
747.686
747.68639
747.68694
747.68767
747.6879
747.68599
747.68598
747.68567
747.68562
747.68573
747.68598
747.68639
747.68695
747.68771
747.68796
747.68607
747.68606
747.68576
747.68573
747.68585
747.68612
747.68654
747.68712
747.68789
747.68815
747.68629
747.68629
747.686
747.68598
747.68612
747.6864
747.68684
747.68743
747.68821
747.68847
747.68665
747.68666
747.68639
747.68639
747.68654
747.68684
747.68729
747.68788
747.68867
747.68894
747.68713
747.68718
747.68694
747.68695
747.68712
747.68743
747.68788
747.68849
747.68928
747.68955
747.68767
747.68785
747.68767
747.68771
747.68789
747.68821
747.68867
747.68928
747.69007
747.69034
747.68778
747.68798
747.6879
747.68796
747.68815
747.68847
747.68894
747.68955
747.69034
747.69014
748.01741
748.01755
748.01726
748.01721
748.0173
748.0175
748.01783
748.01826
748.01874
748.01885
748.01755
748.01751
748.01724
748.0172
748.01729
748.01751
748.01785
748.01831
748.0189
748.01902
748.01726
748.01724
748.01699
748.01696
748.01706
748.01729
748.01764
748.01812
748.01877
748.01897
748.01721
748.0172
748.01696
748.01694
748.01705
748.01729
748.01765
748.01815
748.01882
748.01904
748.0173
748.01729
748.01706
748.01705
748.01717
748.01742
748.0178
748.01831
748.01899
748.01922
748.0175
748.01751
748.01729
748.01729
748.01742
748.01768
748.01807
748.0186
748.01928
748.01952
748.01783
748.01785
748.01764
748.01765
748.0178
748.01807
748.01847
748.01901
748.0197
748.01994
748.01826
748.01831
748.01812
748.01815
748.01831
748.0186
748.01901
748.01954
748.02024
748.02048
748.01874
748.0189
748.01877
748.01882
748.01899
748.01928
748.0197
748.02024
748.02094
748.02118
748.01885
748.01902
748.01897
748.01904
748.01922
748.01952
748.01994
748.02048
748.02118
748.02099
748.36078
748.36089
748.36067
748.36065
748.36075
748.36094
748.36123
748.36161
748.36203
748.36213
748.36089
748.36086
748.36066
748.36065
748.36075
748.36095
748.36125
748.36165
748.36216
748.36227
748.36067
748.36066
748.36049
748.36048
748.36058
748.36079
748.3611
748.36153
748.36208
748.36226
748.36065
748.36065
748.36048
748.36048
748.36059
748.36081
748.36114
748.36157
748.36214
748.36233
748.36075
748.36075
748.36058
748.36059
748.36071
748.36094
748.36128
748.36172
748.36231
748.3625
748.36094
748.36095
748.36079
748.36081
748.36094
748.36118
748.36153
748.36198
748.36257
748.36277
748.36123
748.36125
748.3611
748.36114
748.36128
748.36153
748.36188
748.36234
748.36294
748.36314
748.36161
748.36165
748.36153
748.36157
748.36172
748.36198
748.36234
748.3628
748.3634
748.36361
748.36203
748.36216
748.36208
748.36214
748.36231
748.36257
748.36294
748.3634
748.36401
748.36421
748.36213
748.36227
748.36226
748.36233
748.3625
748.36277
748.36314
748.36361
748.36421
748.36404
748.71426
748.71433
748.7142
748.71421
748.71431
748.71448
748.71474
748.71506
748.71541
748.7155
748.71433
748.71432
748.7142
748.71421
748.71431
748.7145
748.71476
748.7151
748.71553
748.71562
748.7142
748.7142
748.71409
748.71411
748.71422
748.71441
748.71468
748.71503
748.7155
748.71564
748.71421
748.71421
748.71411
748.71414
748.71425
748.71445
748.71473
748.71509
748.71557
748.71572
748.71431
748.71431
748.71422
748.71425
748.71437
748.71457
748.71486
748.71523
748.71572
748.71588
748.71448
748.7145
748.71441
748.71445
748.71457
748.71478
748.71508
748.71546
748.71595
748.71611
748.71474
748.71476
748.71468
748.71473
748.71486
748.71508
748.71538
748.71577
748.71626
748.71643
748.71506
748.7151
748.71503
748.71509
748.71523
748.71546
748.71577
748.71616
748.71666
748.71682
748.71541
748.71553
748.7155
748.71557
748.71572
748.71595
748.71626
748.71666
748.71716
748.71732
748.7155
748.71562
748.71564
748.71572
748.71588
748.71611
748.71643
748.71682
748.71732
748.71718
749.07567
749.0757
749.07565
749.07569
749.07579
749.07595
749.07617
749.07643
749.07672
749.0768
749.0757
749.07571
749.07566
749.0757
749.07581
749.07597
749.07619
749.07647
749.07681
749.07689
749.07565
749.07566
749.07563
749.07567
749.07578
749.07595
749.07617
749.07646
749.07683
749.07694
749.07569
749.0757
749.07567
749.07572
749.07583
749.076
749.07624
749.07653
749.07691
749.07703
749.07579
749.07581
749.07578
749.07583
749.07595
749.07613
749.07637
749.07667
749.07705
749.07717
749.07595
749.07597
749.07595
749.076
749.07613
749.07631
749.07655
749.07686
749.07725
749.07737
749.07617
749.07619
749.07617
749.07624
749.07637
749.07655
749.0768
749.07711
749.0775
749.07763
749.07643
749.07647
749.07646
749.07653
749.07667
749.07686
749.07711
749.07742
749.07782
749.07794
749.07672
749.07681
749.07683
749.07691
749.07705
749.07725
749.0775
749.07782
749.07821
749.07834
749.0768
749.07689
749.07694
749.07703
749.07717
749.07737
749.07763
749.07794
749.07834
749.07821
749.44278
749.44277
749.44281
749.44288
749.44298
749.44312
749.44329
749.4435
749.44372
749.44379
749.44277
749.4428
749.44283
749.44289
749.443
749.44314
749.44332
749.44353
749.44378
749.44385
749.44281
749.44283
749.44286
749.44293
749.44304
749.44318
749.44336
749.44358
749.44385
749.44393
749.44288
749.44289
749.44293
749.443
749.44311
749.44326
749.44344
749.44366
749.44394
749.44403
749.44298
749.443
749.44304
749.44311
749.44323
749.44338
749.44357
749.44379
749.44407
749.44416
749.44312
749.44314
749.44318
749.44326
749.44338
749.44353
749.44372
749.44395
749.44423
749.44432
749.44329
749.44332
749.44336
749.44344
749.44357
749.44372
749.44391
749.44414
749.44443
749.44452
749.4435
749.44353
749.44358
749.44366
749.44379
749.44395
749.44414
749.44437
749.44466
749.44475
749.44372
749.44378
749.44385
749.44394
749.44407
749.44423
749.44443
749.44466
749.44495
749.44504
749.44379
749.44385
749.44393
749.44403
749.44416
749.44432
749.44452
749.44475
749.44504
749.44493
749.81333
749.81328
749.8134
749.8135
749.8136
749.81372
749.81385
749.814
749.81415
749.8142
749.81328
749.81332
749.81343
749.81352
749.81363
749.81375
749.81388
749.81402
749.81419
749.81423
749.8134
749.81343
749.81353
749.81363
749.81373
749.81385
749.81399
749.81413
749.8143
749.81435
749.8135
749.81352
749.81363
749.81372
749.81383
749.81395
749.81408
749.81423
749.8144
749.81445
749.8136
749.81363
749.81373
749.81383
749.81394
749.81406
749.81419
749.81434
749.81452
749.81456
749.81372
749.81375
749.81385
749.81395
749.81406
749.81418
749.81432
749.81446
749.81464
749.81469
749.81385
749.81388
749.81399
749.81408
749.81419
749.81432
749.81445
749.8146
749.81478
749.81483
749.814
749.81402
749.81413
749.81423
749.81434
749.81446
749.8146
749.81475
749.81493
749.81497
749.81415
749.81419
749.8143
749.8144
749.81452
749.81464
749.81478
749.81493
749.81511
749.81516
749.8142
749.81423
749.81435
749.81445
749.81456
749.81469
749.81483
749.81497
749.81516
749.81507
750.18503
750.18494
750.18515
750.18527
750.18538
750.18547
750.18556
750.18564
750.18572
750.18577
750.18494
750.185
750.18518
750.1853
750.18541
750.1855
750.18559
750.18566
750.18574
750.18576
750.18515
750.18518
750.18535
750.18547
750.18558
750.18567
750.18576
750.18583
750.1859
750.18591
750.18527
750.1853
750.18547
750.18559
750.18569
750.18579
750.18587
750.18594
750.18601
750.18602
750.18538
750.18541
750.18558
750.18569
750.1858
750.18589
750.18597
750.18604
750.18611
750.18611
750.18547
750.1855
750.18567
750.18579
750.18589
750.18598
750.18606
750.18612
750.18619
750.1862
750.18556
750.18559
750.18576
750.18587
750.18597
750.18606
750.18614
750.1862
750.18627
750.18628
750.18564
750.18566
750.18583
750.18594
750.18604
750.18612
750.1862
750.18627
750.18633
750.18634
750.18572
750.18574
750.1859
750.18601
750.18611
750.18619
750.18627
750.18633
750.1864
750.18642
750.18577
750.18576
750.18591
750.18602
750.18611
750.1862
750.18628
750.18634
750.18642
750.18635
750.55559
750.55546
750.55575
750.5559
750.55601
750.55608
750.55613
750.55614
750.55615
750.55618
750.55546
750.55554
750.55579
750.55593
750.55604
750.55611
750.55615
750.55616
750.55614
750.55615
750.55575
750.55579
750.55604
750.55617
750.55628
750.55635
750.55638
750.55638
750.55635
750.55633
750.5559
750.55593
750.55617
750.55631
750.55641
750.55648
750.55651
750.5565
750.55646
750.55644
750.55601
750.55604
750.55628
750.55641
750.55651
750.55657
750.5566
750.55658
750.55655
750.55652
750.55608
750.55611
750.55635
750.55648
750.55657
750.55663
750.55665
750.55664
750.5566
750.55656
750.55613
750.55615
750.55638
750.55651
750.5566
750.55665
750.55667
750.55665
750.55661
750.55658
750.55614
750.55616
750.55638
750.5565
750.55658
750.55664
750.55665
750.55663
750.55659
750.55656
750.55615
750.55614
750.55635
750.55646
750.55655
750.5566
750.55661
750.55659
750.55655
750.55653
750.55618
750.55615
750.55633
750.55644
750.55652
750.55656
750.55658
750.55656
750.55653
750.55648
750.92272
750.92256
750.92293
750.9231
750.92321
750.92326
750.92326
750.92321
750.92315
750.92317
750.92256
750.92266
750.92298
750.92314
750.92325
750.9233
750.92329
750.92322
750.92312
750.92311
750.92293
750.92298
750.92329
750.92345
750.92355
750.92359
750.92358
750.9235
750.92337
750.92331
750.9231
750.92314
750.92345
750.9236
750.9237
750.92374
750.92371
750.92363
750.92349
750.92343
750.92321
750.92325
750.92355
750.9237
750.92379
750.92382
750.92379
750.9237
750.92356
750.92349
750.92326
750.9233
750.92359
750.92374
750.92382
750.92385
750.92381
750.92372
750.92357
750.9235
750.92326
750.92329
750.92358
750.92371
750.92379
750.92381
750.92377
750.92367
750.92352
750.92345
750.92321
750.92322
750.9235
750.92363
750.9237
750.92372
750.92367
750.92357
750.92341
750.92334
750.92315
750.92312
750.92337
750.92349
750.92356
750.92357
750.92352
750.92341
750.92326
750.9232
750.92317
750.92311
750.92331
750.92343
750.92349
750.9235
750.92345
750.92334
750.9232
750.92318
751.28417
751.28398
751.28443
751.28461
751.28472
751.28475
751.28471
751.2846
751.28446
751.28447
751.28398
751.28409
751.28448
751.28466
751.28477
751.28479
751.28473
751.2846
751.2844
751.28437
751.28443
751.28448
751.28485
751.28503
751.28513
751.28515
751.28508
751.28493
751.2847
751.28461
751.28461
751.28466
751.28503
751.2852
751.2853
751.2853
751.28523
751.28507
751.28482
751.28472
751.28472
751.28477
751.28513
751.2853
751.28538
751.28538
751.28529
751.28512
751.28487
751.28476
751.28475
751.28479
751.28515
751.2853
751.28538
751.28537
751.28528
751.2851
751.28484
751.28473
751.28471
751.28473
751.28508
751.28523
751.28529
751.28528
751.28518
751.28499
751.28473
751.28462
751.2846
751.2846
751.28493
751.28507
751.28512
751.2851
751.28499
751.28481
751.28454
751.28443
751.28446
751.2844
751.2847
751.28482
751.28487
751.28484
751.28473
751.28454
751.28428
751.28418
751.28447
751.28437
751.28461
751.28472
751.28476
751.28473
751.28462
751.28443
751.28418
751.28418
751.63771
751.63748
751.638
751.63821
751.63832
751.63832
751.63823
751.63806
751.63785
751.63785
751.63748
751.6376
751.63806
751.63826
751.63836
751.63836
751.63826
751.63805
751.63777
751.63772
751.638
751.63806
751.6385
751.63869
751.63879
751.63878
751.63866
751.63844
751.6381
751.63798
751.63821
751.63826
751.63869
751.63888
751.63897
751.63894
751.63882
751.63858
751.63823
751.6381
751.63832
751.63836
751.63879
751.63897
751.63904
751.63901
751.63887
751.63862
751.63826
751.63812
751.63832
751.63836
751.63878
751.63894
751.63901
751.63897
751.63882
751.63856
751.63819
751.63805
751.63823
751.63826
751.63866
751.63882
751.63887
751.63882
751.63866
751.63839
751.63802
751.63787
751.63806
751.63805
751.63844
751.63858
751.63862
751.63856
751.63839
751.63812
751.63775
751.6376
751.63785
751.63777
751.6381
751.63823
751.63826
751.63819
751.63802
751.63775
751.63738
751.63724
751.63785
751.63772
751.63798
751.6381
751.63812
751.63805
751.63787
751.6376
751.63724
751.63726
751.98115
751.98088
751.98148
751.98171
751.98181
751.98179
751.98165
751.98142
751.98115
751.98113
751.98088
751.98102
751.98154
751.98176
751.98186
751.98183
751.98168
751.98141
751.98103
751.98097
751.98148
751.98154
751.98204
751.98225
751.98234
751.9823
751.98214
751.98184
751.98141
751.98125
751.98171
751.98176
751.98225
751.98246
751.98253
751.98248
751.9823
751.98199
751.98154
751.98137
751.98181
751.98186
751.98234
751.98253
751.9826
751.98253
751.98234
751.98201
751.98155
751.98137
751.98179
751.98183
751.9823
751.98248
751.98253
751.98246
751.98225
751.98191
751.98144
751.98126
751.98165
751.98168
751.98214
751.9823
751.98234
751.98225
751.98203
751.98169
751.98121
751.98102
751.98142
751.98141
751.98184
751.98199
751.98201
751.98191
751.98169
751.98133
751.98086
751.98067
751.98115
751.98103
751.98141
751.98154
751.98155
751.98144
751.98121
751.98086
751.98038
751.9802
751.98113
751.98097
751.98125
751.98137
751.98137
751.98126
751.98102
751.98067
751.9802
751.98024
752.31238
752.31208
752.31274
752.31299
752.31309
752.31304
752.31286
752.31257
752.31222
752.31219
752.31208
752.31223
752.31281
752.31305
752.31314
752.31309
752.31289
752.31255
752.31209
752.31201
752.31274
752.31281
752.31337
752.3136
752.31368
752.31361
752.31339
752.31303
752.3125
752.31231
752.31299
752.31305
752.3136
752.31381
752.31388
752.3138
752.31356
752.31318
752.31263
752.31243
752.31309
752.31314
752.31368
752.31388
752.31394
752.31384
752.31359
752.31318
752.31262
752.31241
752.31304
752.31309
752.31361
752.3138
752.31384
752.31373
752.31346
752.31305
752.31247
752.31225
752.31286
752.31289
752.31339
752.31356
752.31359
752.31346
752.31319
752.31276
752.31218
752.31196
752.31257
752.31255
752.31303
752.31318
752.31318
752.31305
752.31276
752.31233
752.31175
752.31152
752.31222
752.31209
752.3125
752.31263
752.31262
752.31247
752.31218
752.31175
752.31116
752.31095
752.31219
752.31201
752.31231
752.31243
752.31241
752.31225
752.31196
752.31152
752.31095
752.31102
752.62936
752.62903
752.62976
752.63002
752.63011
752.63004
752.62981
752.62946
752.62905
752.629
752.62903
752.6292
752.62983
752.63008
752.63017
752.63008
752.62984
752.62943
752.62889
752.62879
752.62976
752.62983
752.63043
752.63068
752.63075
752.63065
752.63039
752.62995
752.62933
752.62911
752.63002
752.63008
752.63068
752.6309
752.63096
752.63085
752.63056
752.63011
752.62946
752.62922
752.63011
752.63017
752.63075
752.63096
752.63101
752.63087
752.63057
752.63009
752.62943
752.62918
752.63004
752.63008
752.63065
752.63085
752.63087
752.63073
752.63041
752.62992
752.62925
752.62899
752.62981
752.62984
752.63039
752.63056
752.63057
752.63041
752.63008
752.62958
752.6289
752.62863
752.62946
752.62943
752.62995
752.63011
752.63009
752.62992
752.62958
752.62906
752.62838
752.62812
752.62905
752.62889
752.62933
752.62946
752.62943
752.62925
752.6289
752.62838
752.6277
752.62745
752.629
752.62879
752.62911
752.62922
752.62918
752.62899
752.62863
752.62812
752.62745
752.62753
752.93014
752.92978
752.93056
752.93084
752.93092
752.93082
752.93055
752.93014
752.92966
752.9296
752.92978
752.92995
752.93064
752.9309
752.93098
752.93087
752.93058
752.9301
752.92948
752.92936
752.93056
752.93064
752.93129
752.93154
752.93161
752.93148
752.93117
752.93066
752.92995
752.9297
752.93084
752.9309
752.93154
752.93178
752.93183
752.93168
752.93134
752.93082
752.93008
752.92981
752.93092
752.93098
752.93161
752.93183
752.93186
752.93169
752.93134
752.93079
752.93003
752.92975
752.93082
752.93087
752.93148
752.93168
752.93169
752.93151
752.93114
752.93057
752.9298
752.92951
752.93055
752.93058
752.93117
752.93134
752.93134
752.93114
752.93075
752.93017
752.92939
752.9291
752.93014
752.9301
752.93066
752.93082
752.93079
752.93057
752.93017
752.92958
752.9288
752.9285
752.92966
752.92948
752.92995
752.93008
752.93003
752.9298
752.92939
752.9288
752.92802
752.92774
752.9296
752.92936
752.9297
752.92981
752.92975
752.92951
752.9291
752.9285
752.92774
752.92784
753.21286
753.21247
753.21331
753.21359
753.21367
753.21354
753.21323
753.21275
753.21222
753.21214
753.21247
753.21266
753.21338
753.21366
753.21373
753.21359
753.21325
753.21271
753.21201
753.21188
753.21331
753.21338
753.21408
753.21434
753.21439
753.21424
753.21387
753.2133
753.21251
753.21223
753.21359
753.21366
753.21434
753.21458
753.21462
753.21444
753.21405
753.21346
753.21263
753.21233
753.21367
753.21373
753.21439