/*--------------------------------*- C++ -*----------------------------------*\
| =========                 |                                                 |
| \\      /  F ield         | OpenFOAM: The Open Source CFD Toolbox           |
|  \\    /   O peration     | Version:  v2106                                 |
|   \\  /    A nd           | Website:  www.openfoam.com                      |
|    \\/     M anipulation  |                                                 |
\*---------------------------------------------------------------------------*/
FoamFile
{
    version     2.0;
    format      ascii;
    arch        "LSB;label=32;scalar=64";
    class       volScalarField;
    location    "37.5";
    object      laplacianT;
}
// * * * * * * * * * * * * * * * * * * * * * * * * * * * * * * * * * * * * * //

dimensions      [0 -2 0 1 0 0 0];

internalField   nonuniform List<scalar> 
4000
(
1.6088167
1.1188792
1.504578
1.4271432
1.4328581
1.4326617
1.4325812
1.4322143
1.4300657
1.4183394
1.1188792
1.2445138
1.3817374
1.3356825
1.3395693
1.3392893
1.3382627
1.3336621
1.3170818
1.298974
1.504578
1.3817374
1.5685092
1.5222582
1.5262121
1.5262344
1.5264886
1.5254069
1.510668
1.4509997
1.4271432
1.3356825
1.5222582
1.4758592
1.4797238
1.4795175
1.4793371
1.4785315
1.4689563
1.4253199
1.4328581
1.3395693
1.5262121
1.4797238
1.4836235
1.4834324
1.4830735
1.481365
1.4697388
1.4241405
1.4326617
1.3392893
1.5262344
1.4795175
1.4834324
1.4833044
1.483048
1.4815482
1.4700217
1.4241379
1.4325812
1.3382627
1.5264886
1.4793371
1.4830735
1.483048
1.4827452
1.4812325
1.4697159
1.4237558
1.4322143
1.3336621
1.5254069
1.4785315
1.481365
1.4815482
1.4812326
1.4796614
1.4680044
1.4217001
1.4300658
1.3170818
1.510668
1.4689563
1.4697388
1.4700217
1.4697159
1.4680044
1.4558646
1.4083105
1.4183394
1.298974
1.4509997
1.4253199
1.4241405
1.4241379
1.4237558
1.4217001
1.4083105
1.3578827
4.7490523
3.7802922
4.5533286
4.408039
4.4162702
4.4158692
4.4151428
4.4122892
4.4012916
4.4257577
3.7802922
3.9155657
4.245309
4.152801
4.1584272
4.1578849
4.1548702
4.1379199
4.0621499
4.1144898
4.5533286
4.245309
4.6500742
4.558406
4.5642119
4.564391
4.5650217
4.5593382
4.4848574
4.4125547
4.408039
4.152801
4.558406
4.4667008
4.4723466
4.4719319
4.4713845
4.4669703
4.4068106
4.3712185
4.4162702
4.1584272
4.5642119
4.4723466
4.47809
4.4777071
4.4766521
4.4700174
4.4055855
4.3681885
4.4158692
4.1578849
4.564391
4.4719319
4.477707
4.4774766
4.476643
4.4703462
4.405796
4.3678298
4.4151428
4.1548702
4.5650217
4.4713845
4.4766521
4.476643
4.4757301
4.4694029
4.4047768
4.3664606
4.4122892
4.1379199
4.5593382
4.4669703
4.4700174
4.4703462
4.4694029
4.4628653
4.3976495
4.3578651
4.4012916
4.0621499
4.4848574
4.4068106
4.4055855
4.405796
4.4047768
4.3976495
4.3303783
4.2857186
4.4257577
4.1144898
4.4125547
4.3712185
4.3681885
4.3678298
4.3664606
4.3578651
4.2857186
4.2649457
7.6399978
6.4384252
7.4440924
7.2576911
7.2661843
7.2655115
7.2630298
7.2507422
7.1969471
7.34888
6.4384252
6.6551907
7.0985691
6.9766134
6.9825203
6.9822237
6.9786668
6.9471538
6.7487955
6.8949024
7.4440924
7.0985691
7.6314143
7.5111356
7.5171738
7.5174961
7.519133
7.509481
7.322924
7.2872886
7.2576911
6.9766134
7.5111356
7.3909654
7.3968341
7.3962512
7.3955979
7.3871434
7.2215835
7.2368265
7.2661843
6.9825203
7.5171738
7.3968341
7.4028696
7.4023852
7.4010511
7.3894553
7.2181933
7.2324197
7.2655115
6.9822237
7.5174961
7.3962512
7.4023852
7.4020969
7.4010543
7.3898387
7.2181803
7.23172
7.2630298
6.9786668
7.519133
7.3955979
7.4010511
7.4010543
7.3999085
7.3886176
7.2166794
7.2293457
7.2507422
6.9471538
7.509481
7.3871434
7.3894553
7.3898387
7.3886176
7.3768112
7.2032033
7.2108952
7.1969471
6.7487955
7.322924
7.2215835
7.2181933
7.2181803
7.2166794
7.2032033
7.0230083
7.0073627
7.34888
6.8949024
7.2872886
7.2368265
7.2324197
7.23172
7.2293457
7.2108952
7.0073627
7.1978867
10.588018
9.125496
10.359636
10.134211
10.14294
10.142277
10.139129
10.118218
9.9972978
10.21921
9.125496
9.3742787
9.9350861
9.7847997
9.7908724
9.7907861
9.7880515
9.7490334
9.4163492
9.6422558
10.359636
9.9350861
10.598899
10.451115
10.457314
10.45765
10.460657
10.451747
10.135736
10.121152
10.134211
9.7847997
10.451115
10.30357
10.309607
10.308841
10.30863
10.301318
10.01314
10.061982
10.14294
9.7908724
10.457314
10.309607
10.315855
10.315239
10.314123
10.30277
10.007691
10.056255
10.142277
9.7907861
10.45765
10.308841
10.315239
10.314877
10.314123
10.303182
10.007463
10.055303
10.139129
9.7880515
10.460657
10.30863
10.314123
10.314123
10.313271
10.302264
10.00614
10.052691
10.118218
9.7490334
10.451747
10.301318
10.30277
10.303182
10.302264
10.290536
9.9915332
10.027804
9.9972978
9.4163492
10.135736
10.01314
10.007691
10.007463
10.00614
9.9915332
9.6783328
9.6440912
10.21921
9.6422558
10.121152
10.061982
10.056255
10.055303
10.052691
10.027804
9.6440912
10.090257
13.454464
11.74289
13.19867
12.935754
12.944624
12.943919
12.940632
12.914926
12.733182
13.019434
11.74289
12.02289
12.698596
12.520995
12.52714
12.52697
12.524533
12.480465
12.017882
12.326112
13.19867
12.698596
13.490207
13.315921
13.322235
13.322446
13.326423
13.320626
12.877708
12.888209
12.935754
12.520995
13.315921
13.141987
13.148137
13.147068
13.14694
13.143341
12.734899
12.820664
12.944624
12.52714
13.322235
13.148137
13.154533
13.153665
13.152393
13.143896
12.727462
12.813615
12.943919
12.52697
13.322446
13.147068
13.153665
13.153109
13.152263
13.144204
12.72692
12.812343
12.940632
12.524533
13.326423
13.14694
13.152393
13.152263
13.151329
13.143259
12.725607
12.809726
12.914926
12.480465
13.320626
13.143341
13.143896
13.144204
13.143259
13.134525
12.713599
12.78371
12.733182
12.017882
12.877708
12.734899
12.727462
12.72692
12.725607
12.713599
12.27272
12.21086
13.019434
12.326112
12.888209
12.820664
12.813615
12.812343
12.809726
12.78371
12.21086
12.920712
16.237431
14.287323
15.955794
15.657002
15.665926
15.665042
15.661215
15.630706
15.390267
15.737958
14.287323
14.596793
15.383296
15.179481
15.185669
15.185386
15.18288
15.133785
14.544118
14.932965
15.955794
15.383296
16.297899
16.098184
16.104571
16.104643
16.109238
16.106537
15.538886
15.57479
15.657002
15.179481
16.098184
15.898931
15.905148
15.903765
15.903382
15.903562
15.376772
15.499271
15.665926
15.185669
16.104571
15.905148
15.911646
15.910512
15.908739
15.903207
15.367396
15.490916
15.665042
15.185386
16.104643
15.903765
15.910512
15.909748
15.908455
15.903369
15.366487
15.489235
15.661215
15.18288
16.109238
15.903382
15.908739
15.908455
15.907067
15.901983
15.364729
15.486205
15.630706
15.133785
16.106537
15.903562
15.903207
15.903369
15.901983
15.89626
15.355592
15.46098
15.390267
14.544118
15.538886
15.376772
15.367396
15.366487
15.364729
15.355592
14.791212
14.699809
15.737958
14.932965
15.57479
15.499271
15.490916
15.489235
15.486205
15.46098
14.699809
15.671452
18.920478
16.743778
18.614628
18.281787
18.290704
18.289659
18.285266
18.250034
17.952628
18.359297
16.743778
17.080779
17.97322
17.744429
17.750613
17.750241
17.74765
17.69375
16.980662
17.447621
18.614628
17.97322
19.005172
18.781242
18.787649
18.787598
18.792753
18.793165
18.104168
18.165211
18.281787
17.744429
18.781242
18.557883
18.564115
18.562442
18.561765
18.565758
17.923734
18.082172
18.290704
17.750613
18.787649
18.564115
18.570661
18.569284
18.566975
18.564487
17.912472
18.072556
18.289659
17.750241
18.787598
18.562442
18.569284
18.568339
18.56656
18.564526
17.911224
18.070473
18.285266
17.74765
18.792753
18.561765
18.566975
18.56656
18.564681
18.562645
17.908918
18.066811
18.250034
17.69375
18.793165
18.565758
18.564487
18.564526
18.562645
18.559928
17.902568
18.043002
17.952628
16.980662
18.104168
17.923734
17.912472
17.911224
17.908918
17.902568
17.218577
17.097552
18.359297
17.447621
18.165211
18.082172
18.072556
18.070473
18.066811
18.043002
17.097552
18.325468
21.486998
19.097096
21.15878
20.793925
20.802766
20.801556
20.796613
20.756832
20.404355
20.867435
19.097097
19.45954
20.452408
20.200037
20.206162
20.205694
20.203026
20.144621
19.31253
19.854689
21.15878
20.452408
21.595339
21.34856
21.35493
21.354746
21.360416
21.36393
20.557824
20.643612
20.793925
20.200037
21.34856
21.102459
21.10865
21.106688
21.105702
21.113486
20.360168
20.553553
20.802766
20.206162
21.35493
21.10865
21.115186
21.113567
21.110714
21.111291
20.347076
20.542724
20.801556
20.205694
21.354746
21.106688
21.113567
21.112437
21.110163
21.111203
20.345499
20.540257
20.796613
20.203026
21.360416
21.105702
21.110714
21.110163
21.107787
21.108829
20.342646
20.535899
20.756832
20.144621
21.36393
21.113486
21.111291
21.111203
21.108829
21.109136
20.339053
20.513764
20.404355
19.31253
20.557824
20.360168
20.347076
20.345499
20.342646
20.339053
19.53978
19.389724
20.867435
19.854689
20.643612
20.553553
20.542724
20.540257
20.535899
20.513764
19.389724
20.86641
23.92112
21.332742
23.572543
23.177913
23.186612
23.185235
23.179764
23.135661
22.730294
23.246919
21.332742
21.718388
22.805557
22.531151
22.537168
22.536598
22.533862
22.471294
21.525334
22.139341
23.572543
22.805557
24.052414
23.784298
23.790581
23.790254
23.796394
23.802977
22.884729
22.994726
23.177913
22.531151
23.784298
23.516963
23.523064
23.520814
23.519514
23.531034
22.67106
22.898195
23.186612
22.537168
23.790581
23.523064
23.529538
23.527676
23.524284
23.527916
22.656207
22.886208
23.185235
22.536598
23.790254
23.520814
23.527676
23.526359
23.523591
23.527691
22.654304
22.883371
23.179764
22.533862
23.796394
23.519514
23.524284
23.523591
23.520719
23.524828
22.650916
22.878313
23.135661
22.471294
23.802977
23.531034
23.527916
23.527691
23.524828
23.528157
22.650076
22.858007
22.730294
21.525334
22.884729
22.67106
22.656207
22.654304
22.650916
22.650076
21.740475
21.562282
23.246919
22.139341
22.994726
22.898195
22.886208
22.883371
22.878313
22.858007
21.562282
23.278632
26.207814
23.436911
25.841018
25.41904
25.427535
25.425991
25.420019
25.371856
24.916095
25.483077
23.436911
23.843381
25.018143
24.723389
24.729253
24.728574
24.72578
24.659428
23.605427
24.287494
25.841018
25.018143
26.361236
26.073429
26.079577
26.079102
26.085666
26.095271
25.070536
25.204063
25.41904
24.723388
26.073429
25.786501
25.792466
25.789933
25.78832
25.803498
24.842166
25.101647
25.427535
24.729253
26.079577
25.792466
25.79883
25.79673
25.792811
25.799468
24.825635
25.088568
25.425991
24.728574
26.079102
25.789933
25.79673
25.795226
25.791972
25.7991
24.82341
25.085374
25.420019
24.72578
26.085666
25.78832
25.792811
25.791972
25.788613
25.795757
24.819504
25.079634
25.371856
24.659428
26.095271
25.803498
25.799468
25.7991
25.795757
25.802083
24.821412
25.061283
24.916095
23.605427
25.070536
24.842166
24.825635
24.82341
24.819504
24.821412
23.807095
23.601857
25.483077
24.287494
25.204063
25.101647
25.088568
25.085374
25.079634
25.061283
23.601857
25.54728
28.332968
25.396619
27.950208
27.503477
27.51171
27.510004
27.503561
27.45163
26.948283
27.562124
25.396619
25.821404
27.076514
26.763223
26.768893
26.768105
26.765265
26.695531
25.539984
26.285905
27.950208
27.076514
28.507559
28.20183
28.207801
28.207173
28.214117
28.226678
27.101772
27.258002
27.503477
26.763223
28.20183
27.897074
27.902861
27.900055
27.898132
27.916869
26.860103
27.150329
27.51171
26.768893
28.207801
27.902861
27.90907
27.906737
27.90231
27.911948
26.841992
27.136232
27.510004
26.768105
28.207173
27.900055
27.906737
27.90505
27.901324
27.911432
26.839451
27.132697
27.503561
26.765265
28.214117
27.898132
27.90231
27.901324
27.897494
27.907623
26.835047
27.126303
27.45163
26.695531
28.226678
27.916869
27.911948
27.911432
27.907623
27.916903
26.839684
27.110015
26.948283
25.539984
27.101772
26.860103
26.841992
26.839451
26.835047
26.839684
25.726906
25.495887
27.562124
26.285905
27.258002
27.150329
27.136232
27.132697
27.126303
27.110015
25.495887
27.658381
30.283468
27.199774
29.8871
29.418368
29.426283
29.42442
29.417542
29.36216
28.814326
29.471241
27.199774
27.640255
28.967973
28.638073
28.643508
28.642612
28.639739
28.567049
27.317079
28.122253
29.8871
28.967973
30.478145
30.156375
30.162126
30.161346
30.168621
30.184057
28.965914
29.143883
29.418368
28.638073
30.156375
29.835666
29.841233
29.838168
29.835942
29.85812
28.712433
29.031612
29.426283
28.643508
30.162126
29.841233
29.847245
29.84469
29.839778
29.852332
28.692848
29.01658
29.42442
28.642612
30.161346
29.838168
29.84469
29.842825
29.838647
29.851668
28.690004
29.012721
29.417542
28.639739
30.168621
29.835942
29.839778
29.838647
29.834364
29.847413
28.685125
29.005709
29.36216
28.567049
30.184057
29.85812
29.852332
29.851668
29.847413
29.859585
28.692458
28.991582
28.814326
27.317079
28.965914
28.712433
28.692848
28.690004
28.685125
28.692458
27.488079
27.232703
29.471241
28.122253
29.143883
29.031612
29.01658
29.012721
29.005709
28.991582
27.232703
29.59893
32.047281
28.835253
31.639747
31.151899
31.159446
31.157433
31.15016
31.091665
30.502721
31.198658
28.835253
29.288712
30.680851
30.336373
30.341538
30.340535
30.337644
30.262445
28.925755
29.785216
31.639747
30.680851
32.260838
31.925009
31.930502
31.92957
31.937129
31.955342
30.651469
30.85008
31.151899
30.336373
31.925009
31.59032
31.595631
31.592322
31.589805
31.615283
30.387736
30.733901
31.159446
30.341538
31.930502
31.595631
31.601406
31.598641
31.593271
31.608661
30.366795
30.718023
31.157433
30.340535
31.92957
31.592322
31.598641
31.596607
31.591998
31.607849
30.363662
30.713861
31.15016
30.337644
31.937129
31.589805
31.593271
31.591998
31.587286
31.603171
30.358336
30.70627
31.091665
30.262445
31.955342
31.615283
31.608661
31.607849
31.603171
31.618158
30.368318
30.694388
30.502721
28.925755
30.651469
30.387736
30.366795
30.363662
30.358336
30.368318
29.079762
28.801603
31.198658
29.785216
30.85008
30.733901
30.718023
30.713861
30.70627
30.694388
28.801603
31.356971
33.613528
30.292967
33.197337
32.69338
32.700509
32.698357
32.690731
32.629482
32.003057
32.733725
30.292967
30.756609
32.204584
31.84765
31.852511
31.851404
31.848511
31.771263
30.356095
31.264544
33.197337
32.204584
33.844643
33.496823
33.502021
33.500941
33.508735
33.529612
32.148046
32.366073
32.69338
31.84765
33.496823
33.150216
33.155236
33.151701
33.148905
33.177525
31.875686
32.2467
32.700509
31.852511
33.502021
33.155236
33.160735
33.157775
33.151978
33.170109
31.853516
32.230074
32.698357
31.851404
33.500941
33.151701
33.157775
33.155582
33.150569
33.169151
31.850111
32.225631
32.690731
31.848511
33.508735
33.148905
33.151978
33.150569
33.145455
33.164076
31.844367
32.217506
32.629482
31.771263
33.529612
33.177525
33.170109
33.169151
33.164076
33.181784
31.856936
32.207941
32.003057
30.356095
32.148046
31.875686
31.853516
31.850111
31.844367
31.856936
30.492146
30.192919
32.733725
31.264544
32.366073
32.2467
32.230074
32.225631
32.217506
32.207941
30.192919
32.92167
34.972548
31.563925
34.550265
34.033304
34.039969
34.03769
34.029757
33.966129
33.306084
34.066978
31.563925
32.03489
33.529774
33.162584
33.167108
33.165903
33.163024
33.084203
31.599278
32.551114
34.550265
33.529774
35.219793
34.862125
34.866995
34.865772
34.873751
34.897161
33.446419
33.682517
34.033304
33.162584
34.862125
34.505736
34.510432
34.50669
34.503632
34.535216
33.167109
33.560686
34.039969
33.167108
34.866995
34.510432
34.51562
34.512481
34.506291
34.527048
33.143846
33.54341
34.03769
33.165903
34.865772
34.50669
34.512481
34.51014
34.504752
34.525949
33.140187
33.538713
34.029757
33.163024
34.873751
34.503632
34.506291
34.504752
34.499266
34.520508
33.13406
33.530103
33.966129
33.084203
34.897161
34.535216
34.527048
34.525949
34.520508
34.540825
33.149136
33.522912
33.306084
31.599278
33.446419
33.167109
33.143846
33.140187
33.13406
33.149136
31.716527
31.398077
34.066978
32.551114
33.682517
33.560686
33.54341
33.538713
33.530103
33.522912
31.398077
34.283384
36.11596
32.640289
35.690186
35.163407
35.169567
35.167172
35.15898
35.093365
34.403769
35.190197
32.640289
33.115674
34.648249
34.273065
34.277223
34.275927
34.273078
34.193168
32.647643
33.636996
35.690186
34.648249
36.377808
36.012495
36.017007
36.015646
36.02376
36.049557
34.538583
34.791297
35.163407
34.273065
36.012495
35.64852
35.652863
35.648936
35.645632
35.679984
34.254044
34.667757
35.169567
34.277223
36.017007
35.652863
35.657706
35.654407
35.64786
35.671114
34.229829
34.649937
35.167172
34.275927
36.015646
35.648936
35.654407
35.651931
35.6462
35.669879
34.22594
34.645014
35.15898
34.273078
36.02376
35.645632
35.64786
35.6462
35.640374
35.664104
34.219466
34.63597
35.093365
34.193168
36.049557
35.679984
35.671114
35.669879
35.664104
35.686904
34.236954
34.631196
34.403769
32.647643
34.538583
34.254044
34.229829
34.22594
34.219466
34.236954
32.745358
32.409649
35.190197
33.636996
34.791297
34.667757
34.649937
34.645014
34.63597
34.631196
32.409649
35.433722
37.03671
33.51542
36.610071
36.076721
36.082336
36.079841
36.071438
36.00424
35.289344
36.096456
33.51542
33.992293
35.553111
35.172245
35.176011
35.17463
35.171828
35.091322
33.494723
34.515495
36.610071
35.553111
37.311546
36.940841
36.944964
36.943474
36.951671
36.979696
35.417805
35.685576
36.076721
35.172245
36.940841
36.571522
36.575483
36.571396
36.567866
36.604773
35.129791
35.561088
36.082336
35.176011
36.944964
36.575483
36.579952
36.576511
36.569648
36.595255
35.104773
35.542834
36.079841
35.17463
36.943474
36.571396
36.576511
36.573915
36.567876
36.593891
35.100675
35.537714
36.071438
35.171828
36.951671
36.567866
36.569648
36.567876
36.561744
36.587816
35.093894
35.528291
36.00424
35.091322
36.979696
36.604773
36.595255
36.593891
36.587816
36.612958
35.113687
35.525963
35.289344
33.494723
35.417805
35.129791
35.104773
35.100675
35.093894
35.113687
33.572299
33.2214
36.096456
34.515495
35.685576
35.561088
35.542834
35.537714
35.528291
35.525963
33.2214
36.365594
37.729122
34.183921
37.304247
36.767614
36.772648
36.770067
36.761505
36.693138
35.957349
36.78017
34.183921
34.659343
36.238779
35.85458
35.85793
35.856473
35.853734
35.773127
34.135299
35.181194
37.304247
36.238779
38.01525
37.641436
37.645145
37.643534
37.651764
37.681844
36.078665
36.359842
36.767614
35.85458
37.641436
37.269052
37.272606
37.268382
37.264647
37.303882
35.788951
36.235172
36.772648
35.85793
37.645145
37.272606
37.276671
37.273109
37.265971
37.293774
35.763283
36.216596
36.770067
35.856473
37.643535
37.268382
37.273109
37.270409
37.264097
37.292288
35.759001
36.211309
36.761505
35.853734
37.651764
37.264647
37.265971
37.264097
37.257698
37.285949
35.751954
36.201566
36.693138
35.773127
37.681844
37.303882
37.293774
37.292288
37.285949
37.313279
35.773929
36.201698
35.957349
34.135299
36.078665
35.788951
35.763283
35.759001
35.751954
35.773929
34.192253
33.828327
36.78017
35.181194
36.359842
36.235172
36.216596
36.211309
36.201566
36.201698
33.828327
37.073256
38.188924
34.641671
37.768432
37.231824
37.236247
37.233595
37.224926
37.155812
36.403665
37.237122
34.641671
35.112709
36.701027
36.315861
36.318775
36.317249
36.314591
36.234379
34.565419
35.629991
37.768432
36.701027
38.484579
38.109962
38.113234
38.111511
38.119723
38.151671
36.517088
36.809937
37.231824
36.315861
38.109962
37.736806
37.739932
37.735596
37.731679
37.773
36.22746
36.685855
37.236247
36.318775
38.113234
37.739932
37.743568
37.739907
37.732537
37.762363
36.2013
36.66707
37.233595
36.317249
38.111511
37.735596
37.739907
37.737118
37.730573
37.760765
36.196861
36.661649
37.224926
36.314591
38.119723
37.731679
37.732537
37.730573
37.723946
37.754202
36.18959
36.651645
37.155812
36.234379
38.151671
37.773
37.762363
37.760765
37.754202
37.783549
36.213611
36.654235
36.403665
34.565419
36.517088
36.22746
36.2013
36.196861
36.18959
36.213611
34.601399
34.22669
37.237122
35.629991
36.809937
36.685855
36.66707
36.661649
36.651645
36.654235
34.22669
37.552346
38.413281
34.885845
37.999764
37.46649
37.470274
37.467567
37.458845
37.389408
36.625541
37.464496
34.885845
35.349595
36.937002
36.553245
36.555704
36.554119
36.551557
36.472236
34.782432
35.859116
37.999764
36.937002
38.71664
38.343529
38.346343
38.344519
38.352661
38.386281
36.730371
37.033087
37.46649
36.553245
38.343529
37.971903
37.974579
37.970159
37.966084
38.009235
36.442614
36.910357
37.470274
36.555704
38.346343
37.974579
37.977764
37.974026
37.966471
37.998135
36.416125
36.89148
37.467567
36.554119
38.344519
37.970159
37.974026
37.971166
37.964427
37.996434
36.411554
36.885958
37.458845
36.551557
38.352661
37.966084
37.966471
37.964427
37.957612
37.989687
36.404105
36.875754
37.389408
36.472236
38.386281
38.009235
37.998135
37.996434
37.989687
38.020871
36.430024
36.880786
36.625541
34.782432
36.730371
36.442614
36.416125
36.411554
36.404105
36.430024
34.797214
34.414033
37.464496
35.859116
37.033087
36.910357
36.89148
36.885958
36.875754
36.880786
34.414033
37.799914
38.400809
34.914937
37.996816
37.470163
37.473285
37.47054
37.461818
37.392487
36.62161
37.460889
34.914937
35.368541
36.945249
36.565267
36.567256
36.565621
36.563171
36.485229
34.785001
35.86716
37.996816
36.945249
38.71
38.340696
38.343035
38.341121
38.349143
38.384227
36.7172
37.027916
37.470163
36.565267
38.340696
37.97289
37.975102
37.970624
37.966416
38.011131
36.433089
36.907296
37.473285
36.567256
38.343035
37.975102
37.977815
37.974024
37.966328
37.999637
36.406432
36.888442
37.47054
36.565621
38.341121
37.970624
37.974024
37.97111
37.964219
37.997843
36.401759
36.882853
37.461818
36.563171
38.349143
37.966416
37.966328
37.964219
37.957257
37.990953
36.394177
36.872511
37.392487
36.485229
38.384227
38.011131
37.999637
37.997843
37.990953
38.023781
36.421833
36.879955
36.62161
34.785001
36.7172
36.433089
36.406432
36.401759
36.394177
36.421833
34.778494
34.389202
37.460889
35.86716
37.027916
36.907296
36.888442
36.882853
36.872511
36.879955
34.389202
37.814432
38.151583
34.728768
37.759606
37.242821
37.245261
37.242495
37.233827
37.165029
36.391895
37.226324
34.728768
35.169428
36.725717
36.351853
36.353359
36.351685
36.349362
36.27328
34.573109
35.65407
37.759606
36.725717
38.464702
38.10148
38.103329
38.101338
38.109191
38.145522
36.477656
36.794457
37.242821
36.351853
38.10148
37.739763
37.741496
37.736988
37.732673
37.778676
36.198942
36.676689
37.245261
36.353359
38.103329
37.741496
37.743721
37.7399
37.732112
37.766859
36.172282
36.657975
37.242495
36.351685
38.101338
37.736988
37.7399
37.736949
37.72995
37.764984
36.167535
36.652354
37.233827
36.349362
38.109191
37.732673
37.732112
37.72995
37.722885
37.757994
36.159868
36.641939
37.165029
36.27328
38.145522
37.778676
37.766859
37.764984
37.757994
37.792264
36.189092
36.651748
36.391895
34.573109
36.477656
36.198942
36.172282
36.167535
36.159868
36.189092
34.545354
34.152352
37.226324
35.65407
36.794457
36.676689
36.657975
36.652354
36.641939
36.651748
34.152352
37.595812
37.667139
34.328483
37.289594
36.785863
36.787607
36.784837
36.776277
36.708438
35.937812
36.762248
34.328483
34.753483
36.279758
35.914317
35.915331
35.913629
35.911447
35.837694
34.148063
35.221163
37.289594
36.279758
37.982255
37.627356
37.628705
37.626647
37.634283
37.671639
36.013217
36.334149
36.785863
35.914317
37.627356
37.273957
37.275201
37.270692
37.266297
37.313305
35.741617
36.21996
36.787607
35.915331
37.628705
37.275201
37.276926
37.273097
37.265265
37.301237
35.715119
36.201501
36.784837
35.913629
37.626647
37.270692
37.273097
37.270129
37.263064
37.299292
35.710329
36.195882
36.776277
35.911447
37.634283
37.266297
37.265265
37.263064
37.25594
37.292245
35.702622
36.185459
36.708438
35.837694
37.671639
37.313305
37.301237
37.299292
37.292245
37.327746
35.733234
36.197573
35.937812
34.148063
36.013217
35.741617
35.715119
35.710329
35.702622
35.733234
34.099232
33.704943
36.762248
35.221163
36.334149
36.21996
36.201501
36.195882
36.185459
36.197573
33.704943
37.145405
36.950462
33.716551
36.589678
36.102108
36.103145
36.100389
36.09199
36.025527
35.262162
36.07152
33.716551
34.123271
35.610122
35.255356
35.255873
35.254153
35.252127
35.181158
33.512484
34.571106
36.589678
35.610122
37.265633
36.921246
36.922086
36.919976
36.927348
36.965498
35.326744
35.64983
36.102108
35.255356
36.921246
36.578345
36.579092
36.57461
36.570162
36.617886
35.063935
35.539924
36.103145
35.255873
36.922086
36.579092
36.580305
36.576494
36.568667
36.605642
35.037763
35.521834
36.100389
35.254153
36.919976
36.57461
36.576494
36.573528
36.56644
36.60364
35.032958
35.516253
36.09199
35.252127
36.927348
36.570162
36.568667
36.56644
36.559301
36.59658
35.025261
35.505886
36.025527
35.181158
36.965498
36.617886
36.605642
36.60364
36.59658
36.633094
35.057072
35.520231
35.262162
33.512484
35.326744
35.063935
35.037763
35.032958
35.025261
35.057072
33.442881
33.049736
36.07152
34.571106
35.64983
35.539924
35.521834
35.516253
35.505886
35.520231
33.049736
36.465987
36.00597
32.896743
35.664172
35.195769
35.196094
35.193369
35.185184
35.120507
34.369109
35.158401
32.896743
33.282674
34.720934
34.379032
34.37905
34.377322
34.375465
34.307718
32.670291
33.707908
35.664172
34.720934
36.319255
35.987503
35.98783
35.985681
35.992744
36.031453
34.422472
34.745719
35.195769
34.379032
35.987503
35.657214
35.657461
35.653034
35.648561
35.696706
34.170075
34.640774
35.196094
34.37905
35.98783
35.657461
35.658156
35.654386
35.646613
35.684363
34.144389
34.623166
35.193369
34.377322
35.985681
35.653034
35.654386
35.65144
35.644375
35.682317
34.139601
34.617658
35.185184
34.375465
35.992744
35.648561
35.646613
35.644375
35.637265
35.675289
34.131962
34.607411
35.120507
34.307718
36.031453
35.696706
35.684363
35.682317
35.675289
35.71259
34.164776
34.623899
34.369109
32.670291
34.422472
34.170075
34.144389
34.139601
34.131962
34.164776
32.580347
32.19077
35.158401
33.707908
34.745719
34.640774
34.623166
34.617658
34.607411
34.623899
32.19077
35.561749
34.839485
31.874111
34.51878
34.072434
34.072045
34.069369
34.061448
33.998957
33.26416
34.028519
31.874111
32.236875
33.617677
33.290748
33.290266
33.288543
33.286867
33.222761
31.626675
32.636891
34.51878
33.617677
35.148953
34.831882
34.831695
34.829521
34.836233
34.875264
33.305976
33.627391
34.072434
33.290748
34.831882
34.516243
34.515989
34.511644
34.507175
34.555447
33.065546
33.528055
34.072045
33.290266
34.831695
34.515989
34.516162
34.512458
34.504787
34.543081
33.040507
33.511039
34.069369
33.288543
34.829521
34.511644
34.512458
34.509551
34.502552
34.541004
33.035765
33.505638
34.061448
33.286867
34.836233
34.507175
34.504787
34.502552
34.495518
34.534051
33.028232
33.495575
33.998957
33.222761
34.875264
34.555447
34.543081
34.541004
34.534051
34.571911
33.061848
33.514106
33.26416
31.626674
33.305976
33.065546
33.040507
33.035765
33.028232
33.061848
31.516951
31.133344
34.028519
32.636891
33.627391
33.528055
33.511039
33.505638
33.495575
33.514106
31.133344
34.438268
33.458194
30.654958
33.160563
32.739025
32.737926
32.735317
32.727711
32.667793
31.954127
32.688842
30.654958
30.992318
32.30715
31.99721
31.996233
31.994527
31.993043
31.932974
30.38807
31.364658
33.160563
32.30715
33.761941
33.461507
33.460808
33.458625
33.464945
33.504058
31.984138
32.301741
32.739025
31.99721
33.461507
33.162465
33.161712
33.157479
33.153043
33.201143
31.75716
32.208628
32.737926
31.996233
33.460808
33.161712
33.161364
33.15775
33.15023
33.188832
31.732924
32.192309
32.735317
31.994527
33.458625
33.157479
33.15775
33.154901
33.148014
33.186739
31.728259
32.18705
32.727711
31.993043
33.464945
33.153043
33.15023
33.148014
33.141098
33.179906
31.720878
32.177235
32.667793
31.932974
33.504058
33.201143
33.188832
33.186739
33.179906
33.218091
31.75509
32.197694
31.954127
30.38807
31.984138
31.75716
31.732924
31.728259
31.720878
31.75509
30.25925
29.883979
32.688842
31.364658
32.301741
32.208628
32.192309
32.18705
32.177235
32.197694
29.883979
33.102473
31.870612
29.2468
31.59789
31.203762
31.201962
31.199437
31.192195
31.13522
30.447086
31.147627
29.2468
29.556675
30.797431
30.506393
30.504928
30.503251
30.501971
30.44631
28.962114
29.899052
31.59789
30.797431
32.166768
31.884825
31.88362
31.881442
31.887333
31.926289
30.46511
30.776943
31.203762
30.506393
31.884825
31.604225
31.60298
31.598886
31.594511
31.642146
30.252984
30.690628
31.201962
30.504928
31.88362
31.60298
31.602114
31.598614
31.591293
31.629968
30.229701
30.675108
31.199437
30.503251
31.881442
31.598886
31.598614
31.595843
31.589112
31.627872
30.225144
30.670026
31.192195
30.501971
31.887333
31.594511
31.591293
31.589112
31.582359
31.621203
30.217964
30.660521
31.13522
30.44631
31.926289
31.642146
31.629968
31.627872
31.621203
31.659481
30.252561
30.682784
30.447086
28.962114
30.46511
30.252984
30.229701
30.225144
30.217964
30.252561
28.815001
28.450379
31.147627
29.899052
30.776943
30.690628
30.675108
30.670026
30.660521
30.682784
28.450379
31.562602
30.086522
27.658312
29.840394
29.476108
29.473619
29.471197
29.464365
29.410687
28.752329
29.414378
27.658312
27.938793
29.097824
28.827484
28.825542
28.823908
28.82284
28.771933
27.357598
28.249111
29.840394
29.097824
30.373265
30.111554
30.109853
30.107697
30.113125
30.151685
28.758257
29.062398
29.476108
28.827484
30.111554
29.851128
29.849402
29.845474
29.84119
29.888068
28.562292
28.983415
29.473619
28.825542
30.109853
29.849402
29.848025
29.844663
29.837589
29.876099
28.540109
28.968793
29.471197
28.823908
30.107697
29.845474
29.844663
29.84199
29.835457
29.874017
28.53569
28.96392
29.464365
28.82284
30.113125
29.84119
29.837589
29.835457
29.828912
29.867554
28.528756
28.954786
29.410687
28.771933
30.151685
29.888068
29.876099
29.874017
29.867554
29.905691
28.563529
28.978718
28.752329
27.357598
28.758257
28.562292
28.540109
28.53569
28.528756
28.563529
27.193112
26.841389
29.414378
28.249111
29.062398
28.983415
28.968793
28.96392
28.954786
28.978718
26.841389
29.828153
28.116918
25.899286
27.898904
27.566709
27.56355
27.56125
27.554873
27.504825
26.880305
27.499781
25.899286
26.148643
27.218803
26.970831
26.968428
26.966849
26.966004
26.920167
25.584414
26.425007
27.898904
27.218803
28.392486
28.152624
28.15044
28.148322
28.153258
28.191187
26.874102
27.168677
27.566709
26.970831
28.152624
27.91398
27.911786
27.908052
27.903889
27.949723
26.69551
27.097516
27.56355
26.968428
28.15044