/*--------------------------------*- C++ -*----------------------------------*\
| =========                 |                                                 |
| \\      /  F ield         | OpenFOAM: The Open Source CFD Toolbox           |
|  \\    /   O peration     | Version:  v2106                                 |
|   \\  /    A nd           | Website:  www.openfoam.com                      |
|    \\/     M anipulation  |                                                 |
\*---------------------------------------------------------------------------*/
FoamFile
{
    version     2.0;
    format      ascii;
    arch        "LSB;label=32;scalar=64";
    class       volVectorField;
    location    "40";
    object      flux;
}
// * * * * * * * * * * * * * * * * * * * * * * * * * * * * * * * * * * * * * //

dimensions      [0 1 -1 1 0 0 0];

internalField   nonuniform List<vector> 
4000
(
(5.0656765e-07 5.0656764e-07 1.8669437)
(-2.4690927e-07 -1.437008e-07 1.8669463)
(-1.2604389e-06 7.4501922e-09 1.8669426)
(-3.8980308e-07 6.2131515e-09 1.8669416)
(-1.3606594e-07 1.1410183e-08 1.8669411)
(1.1128124e-07 1.746476e-08 1.8669411)
(2.9867924e-07 2.9140073e-08 1.8669415)
(3.8484454e-07 5.533541e-08 1.8669423)
(3.0168072e-07 1.0474402e-07 1.8669431)
(6.9528805e-08 1.3815275e-07 1.8669434)
(-1.437008e-07 -2.4690927e-07 1.8669463)
(-9.9558545e-07 -9.9558545e-07 1.8669456)
(-1.0355679e-06 -7.5148646e-07 1.8669427)
(-3.8386309e-07 -7.4300976e-07 1.8669416)
(-1.1918852e-07 -7.2508227e-07 1.8669411)
(1.3787608e-07 -7.0494364e-07 1.8669412)
(3.5548521e-07 -6.7322582e-07 1.8669417)
(4.9825046e-07 -6.1035615e-07 1.8669426)
(4.2590674e-07 -4.821918e-07 1.8669437)
(1.0293753e-07 -3.1835897e-07 1.8669442)
(7.4501904e-09 -1.2604388e-06 1.8669426)
(-7.5148646e-07 -1.0355679e-06 1.8669427)
(-1.0078632e-06 -1.0078632e-06 1.8669398)
(-3.6339888e-07 -9.8610843e-07 1.8669388)
(-9.7999814e-08 -9.6409117e-07 1.8669384)
(1.6313769e-07 -9.3978815e-07 1.8669385)
(3.9326672e-07 -9.1017175e-07 1.866939)
(5.7587855e-07 -8.7025579e-07 1.8669401)
(5.936779e-07 -8.0362432e-07 1.8669414)
(1.7875069e-07 -6.8650424e-07 1.8669424)
(6.2131485e-09 -3.8980306e-07 1.8669416)
(-7.4300977e-07 -3.8386308e-07 1.8669416)
(-9.8610843e-07 -3.6339887e-07 1.8669388)
(-3.400911e-07 -3.4009111e-07 1.8669379)
(-7.2868247e-08 -3.1593358e-07 1.8669375)
(1.917955e-07 -2.8978047e-07 1.8669376)
(4.2501757e-07 -2.6009738e-07 1.8669383)
(6.0479789e-07 -2.278233e-07 1.8669394)
(6.0965828e-07 -1.9961814e-07 1.8669407)
(1.8101759e-07 -1.866726e-07 1.8669417)
(1.1410181e-08 -1.3606594e-07 1.8669411)
(-7.2508227e-07 -1.1918853e-07 1.8669411)
(-9.6409119e-07 -9.7999807e-08 1.8669384)
(-3.1593359e-07 -7.2868244e-08 1.8669375)
(-4.768918e-08 -4.7689208e-08 1.8669371)
(2.1897388e-07 -2.2663251e-08 1.8669373)
(4.552239e-07 3.2117384e-09 1.866938)
(6.3635779e-07 3.0015831e-08 1.8669392)
(6.348286e-07 5.5012393e-08 1.8669406)
(1.8738105e-07 7.0457193e-08 1.8669416)
(1.7464757e-08 1.1128123e-07 1.8669411)
(-7.0494364e-07 1.3787606e-07 1.8669412)
(-9.3978814e-07 1.6313768e-07 1.8669385)
(-2.897805e-07 1.9179551e-07 1.8669376)
(-2.2663253e-08 2.1897387e-07 1.8669373)
(2.4269645e-07 2.4269643e-07 1.8669376)
(4.7769665e-07 2.6425276e-07 1.8669383)
(6.5659854e-07 2.8324091e-07 1.8669395)
(6.5009965e-07 2.9848478e-07 1.866941)
(1.9131412e-07 3.0754701e-07 1.866942)
(2.914007e-08 2.9867924e-07 1.8669415)
(-6.7322582e-07 3.554852e-07 1.8669417)
(-9.1017174e-07 3.9326671e-07 1.866939)
(-2.6009739e-07 4.2501757e-07 1.8669383)
(3.2117384e-09 4.5522392e-07 1.866938)
(2.6425277e-07 4.7769666e-07 1.8669383)
(4.9576838e-07 4.9576837e-07 1.8669391)
(6.7058981e-07 5.094727e-07 1.8669403)
(6.591347e-07 5.181212e-07 1.8669418)
(1.9342254e-07 5.2164983e-07 1.8669429)
(5.5335397e-08 3.8484454e-07 1.8669423)
(-6.1035617e-07 4.9825047e-07 1.8669426)
(-8.7025578e-07 5.7587854e-07 1.8669401)
(-2.2782329e-07 6.0479789e-07 1.8669394)
(3.0015835e-08 6.363578e-07 1.8669392)
(2.8324089e-07 6.5659854e-07 1.8669395)
(5.094727e-07 6.7058983e-07 1.8669403)
(6.7895137e-07 6.7895136e-07 1.8669416)
(6.6227677e-07 6.8026175e-07 1.8669431)
(1.9366654e-07 6.7491586e-07 1.8669441)
(1.0474403e-07 3.0168073e-07 1.8669431)
(-4.8219182e-07 4.2590676e-07 1.8669437)
(-8.0362432e-07 5.9367791e-07 1.8669414)
(-1.9961813e-07 6.0965828e-07 1.8669407)
(5.5012397e-08 6.3482858e-07 1.8669406)
(2.9848479e-07 6.5009962e-07 1.866941)
(5.1812119e-07 6.5913471e-07 1.8669418)
(6.8026173e-07 6.6227677e-07 1.8669431)
(6.550992e-07 6.550992e-07 1.8669446)
(1.8985861e-07 6.3194084e-07 1.8669456)
(1.3815275e-07 6.9528812e-08 1.8669434)
(-3.1835898e-07 1.0293754e-07 1.8669442)
(-6.8650426e-07 1.787507e-07 1.8669424)
(-1.8667262e-07 1.8101758e-07 1.8669417)
(7.0457176e-08 1.8738104e-07 1.8669416)
(3.0754702e-07 1.913141e-07 1.866942)
(5.2164985e-07 1.9342253e-07 1.8669429)
(6.7491586e-07 1.9366654e-07 1.8669441)
(6.3194085e-07 1.8985861e-07 1.8669456)
(1.7822764e-07 1.7822764e-07 1.8669465)
(1.072958e-06 1.072958e-06 1.8669972)
(-8.7291011e-07 -2.8668657e-07 1.8669984)
(-3.2653798e-06 7.2723575e-10 1.8669958)
(-1.16917e-06 6.9718927e-09 1.8669948)
(-3.7169387e-07 2.1400875e-08 1.8669943)
(3.6484007e-07 3.9065103e-08 1.8669944)
(9.3665497e-07 7.3701309e-08 1.8669949)
(1.1890368e-06 1.5623275e-07 1.8669958)
(7.7689026e-07 3.2452745e-07 1.8669967)
(1.1607447e-07 3.9693961e-07 1.8669967)
(-2.8668658e-07 -8.7291009e-07 1.8669984)
(-2.4812562e-06 -2.4812562e-06 1.8669978)
(-2.8248921e-06 -1.9807267e-06 1.8669955)
(-1.1381595e-06 -1.9377751e-06 1.8669946)
(-3.2355405e-07 -1.8857054e-06 1.8669941)
(4.4329072e-07 -1.8259025e-06 1.8669942)
(1.1124065e-06 -1.7311659e-06 1.8669948)
(1.565276e-06 -1.5362566e-06 1.8669958)
(1.1379505e-06 -1.1137636e-06 1.8669972)
(1.8848663e-07 -6.7057307e-07 1.8669974)
(7.2722282e-10 -3.2653798e-06 1.8669958)
(-1.9807267e-06 -2.8248921e-06 1.8669955)
(-2.7218987e-06 -2.7218987e-06 1.8669934)
(-1.0741487e-06 -2.6540519e-06 1.8669924)
(-2.5982123e-07 -2.5882624e-06 1.866992)
(5.193796e-07 -2.5154387e-06 1.8669922)
(1.2263008e-06 -2.4265384e-06 1.8669928)
(1.8064391e-06 -2.3062023e-06 1.8669939)
(1.6425738e-06 -2.0935375e-06 1.8669955)
(4.1153485e-07 -1.7344906e-06 1.8669961)
(6.9718992e-09 -1.16917e-06 1.8669948)
(-1.9377751e-06 -1.1381595e-06 1.8669946)
(-2.6540519e-06 -1.0741487e-06 1.8669924)
(-1.0045232e-06 -1.0045232e-06 1.8669915)
(-1.8494085e-07 -9.3254011e-07 1.8669912)
(6.0501476e-07 -8.5445465e-07 1.8669914)
(1.3216428e-06 -7.6581248e-07 1.8669921)
(1.8982769e-06 -6.6983893e-07 1.8669933)
(1.7096623e-06 -5.8274517e-07 1.8669949)
(4.2785123e-07 -5.3308612e-07 1.8669955)
(2.1400875e-08 -3.7169388e-07 1.8669943)
(-1.8857054e-06 -3.2355407e-07 1.8669941)
(-2.5882624e-06 -2.5982123e-07 1.866992)
(-9.3254012e-07 -1.8494084e-07 1.8669912)
(-1.0975265e-07 -1.0975264e-07 1.8669909)
(6.8610724e-07 -3.4834533e-08 1.8669911)
(1.4109165e-06 4.2574023e-08 1.8669919)
(1.9895064e-06 1.2215696e-07 1.8669932)
(1.7793266e-06 1.9481998e-07 1.8669948)
(4.4464088e-07 2.3679115e-07 1.8669955)
(3.9065106e-08 3.6484006e-07 1.8669944)
(-1.8259025e-06 4.4329072e-07 1.8669942)
(-2.5154387e-06 5.1937959e-07 1.8669922)
(-8.5445465e-07 6.0501477e-07 1.8669914)
(-3.4834542e-08 6.8610725e-07 1.8669911)
(7.5734142e-07 7.5734143e-07 1.8669914)
(1.4786343e-06 8.2205684e-07 1.8669922)
(2.0505229e-06 8.7933229e-07 1.8669935)
(1.8242964e-06 9.2527663e-07 1.8669952)
(4.55832e-07 9.5141474e-07 1.8669959)
(7.3701314e-08 9.3665498e-07 1.8669949)
(-1.7311659e-06 1.1124065e-06 1.8669948)
(-2.4265384e-06 1.2263008e-06 1.8669928)
(-7.6581246e-07 1.3216428e-06 1.8669921)
(4.2574008e-08 1.4109165e-06 1.8669919)
(8.2205683e-07 1.4786343e-06 1.8669922)
(1.5329074e-06 1.5329074e-06 1.8669931)
(2.0927262e-06 1.5741606e-06 1.8669944)
(1.8514091e-06 1.5998013e-06 1.8669961)
(4.6206628e-07 1.6085564e-06 1.8669969)
(1.5623275e-07 1.1890368e-06 1.8669958)
(-1.5362566e-06 1.565276e-06 1.8669958)
(-2.3062023e-06 1.8064391e-06 1.8669939)
(-6.6983893e-07 1.8982769e-06 1.8669933)
(1.2215697e-07 1.9895064e-06 1.8669932)
(8.793323e-07 2.0505229e-06 1.8669935)
(1.5741606e-06 2.0927262e-06 1.8669944)
(2.1174167e-06 2.1174167e-06 1.8669958)
(1.8586922e-06 2.1167962e-06 1.8669975)
(4.6166874e-07 2.0841207e-06 1.8669982)
(3.2452744e-07 7.7689027e-07 1.8669967)
(-1.1137637e-06 1.1379506e-06 1.8669972)
(-2.0935375e-06 1.6425738e-06 1.8669955)
(-5.8274516e-07 1.7096623e-06 1.8669949)
(1.9481998e-07 1.7793266e-06 1.8669948)
(9.2527663e-07 1.8242964e-06 1.8669952)
(1.5998013e-06 1.8514091e-06 1.8669961)
(2.1167962e-06 1.8586922e-06 1.8669975)
(1.818113e-06 1.818113e-06 1.8669992)
(4.4028259e-07 1.6508612e-06 1.8669999)
(3.9693961e-07 1.1607447e-07 1.8669967)
(-6.7057309e-07 1.8848664e-07 1.8669974)
(-1.7344906e-06 4.1153485e-07 1.8669961)
(-5.3308612e-07 4.2785122e-07 1.8669955)
(2.3679114e-07 4.4464088e-07 1.8669955)
(9.5141474e-07 4.5583199e-07 1.8669959)
(1.6085564e-06 4.6206628e-07 1.8669969)
(2.0841207e-06 4.6166873e-07 1.8669982)
(1.6508612e-06 4.4028259e-07 1.8669999)
(3.5016751e-07 3.5016751e-07 1.867)
(1.3002588e-06 1.3002588e-06 1.8670956)
(-1.6470959e-06 -5.1468639e-07 1.8670962)
(-4.85401e-06 -1.5075459e-07 1.8670941)
(-1.8479129e-06 -1.3664679e-07 1.8670932)
(-5.2784308e-07 -1.1425082e-07 1.8670929)
(6.9506707e-07 -8.6392315e-08 1.867093)
(1.6878275e-06 -3.1957429e-08 1.8670936)
(2.1635708e-06 1.066713e-07 1.8670946)
(1.1963601e-06 4.3101338e-07 1.8670958)
(5.9395791e-08 5.9897196e-07 1.8670957)
(-5.146864e-07 -1.6470959e-06 1.8670962)
(-3.8236161e-06 -3.823616e-06 1.8670956)
(-4.2869506e-06 -3.169213e-06 1.8670937)
(-1.7931573e-06 -3.0931885e-06 1.8670929)
(-4.5246136e-07 -3.0095375e-06 1.8670925)
(8.1850715e-07 -2.9120446e-06 1.8670927)
(1.9774229e-06 -2.7593535e-06 1.8670934)
(2.8580271e-06 -2.4382282e-06 1.8670945)
(1.9348111e-06 -1.6752226e-06 1.8670961)
(2.2735436e-07 -8.9408874e-07 1.8670963)
(-1.5075458e-07 -4.85401e-06 1.8670941)
(-3.169213e-06 -4.2869506e-06 1.8670937)
(-4.1235825e-06 -4.1235825e-06 1.8670919)
(-1.6882374e-06 -4.0127801e-06 1.8670911)
(-3.4669918e-07 -3.9046173e-06 1.8670908)
(9.4525105e-07 -3.7834688e-06 1.867091)
(2.1616439e-06 -3.6352122e-06 1.8670917)
(3.2477018e-06 -3.4388114e-06 1.867093)
(2.7404996e-06 -3.0854955e-06 1.8670948)
(5.8015171e-07 -2.5026205e-06 1.8670953)
(-1.3664678e-07 -1.8479129e-06 1.8670932)
(-3.0931885e-06 -1.7931572e-06 1.8670929)
(-4.0127801e-06 -1.6882374e-06 1.8670911)
(-1.5741921e-06 -1.5741921e-06 1.8670903)
(-2.2315006e-07 -1.4556715e-06 1.8670901)
(1.0879122e-06 -1.3264651e-06 1.8670903)
(2.3220803e-06 -1.1790171e-06 1.8670911)
(3.4077437e-06 -1.0192041e-06 1.8670924)
(2.871002e-06 -8.7023726e-07 1.8670943)
(6.1593775e-07 -7.7610688e-07 1.8670949)
(-1.1425081e-07 -5.2784308e-07 1.8670929)
(-3.0095375e-06 -4.5246137e-07 1.8670925)
(-3.9046173e-06 -3.4669917e-07 1.8670908)
(-1.4556715e-06 -2.2315005e-07 1.8670901)
(-9.8972201e-08 -9.8972194e-08 1.8670899)
(1.2219055e-06 2.5162578e-08 1.8670902)
(2.4689049e-06 1.5344324e-07 1.867091)
(3.5564816e-06 2.8478597e-07 1.8670924)
(2.9835968e-06 4.03788e-07 1.8670943)
(6.4290529e-07 4.7149464e-07 1.8670949)
(-8.6392311e-08 6.9506706e-07 1.867093)
(-2.9120446e-06 8.1850712e-07 1.8670927)
(-3.7834688e-06 9.4525105e-07 1.867091)
(-1.3264651e-06 1.0879122e-06 1.8670903)
(2.5162566e-08 1.2219055e-06 1.8670902)
(1.3403277e-06 1.3403277e-06 1.8670906)
(2.5817037e-06 1.4480822e-06 1.8670914)
(3.6580885e-06 1.543869e-06 1.8670928)
(3.0577107e-06 1.6209199e-06 1.8670948)
(6.610755e-07 1.6641883e-06 1.8670955)
(-3.1957432e-08 1.6878275e-06 1.8670936)
(-2.7593535e-06 1.9774229e-06 1.8670934)
(-3.6352122e-06 2.1616439e-06 1.8670917)
(-1.179017e-06 2.3220803e-06 1.8670911)
(1.5344325e-07 2.4689049e-06 1.867091)
(1.4480821e-06 2.5817037e-06 1.8670914)
(2.6724462e-06 2.6724462e-06 1.8670923)
(3.7293193e-06 2.7423306e-06 1.8670938)
(3.1039161e-06 2.786527e-06 1.8670958)
(6.7175087e-07 2.8009425e-06 1.8670964)
(1.066713e-07 2.1635709e-06 1.8670946)
(-2.4382282e-06 2.8580271e-06 1.8670945)
(-3.4388114e-06 3.2477018e-06 1.867093)
(-1.0192041e-06 3.4077437e-06 1.8670924)
(2.8478598e-07 3.5564815e-06 1.8670924)
(1.543869e-06 3.6580885e-06 1.8670928)
(2.7423306e-06 3.7293193e-06 1.8670938)
(3.7721693e-06 3.7721693e-06 1.8670953)
(3.1163225e-06 3.767536e-06 1.8670973)
(6.7068579e-07 3.6819285e-06 1.8670979)
(4.3101339e-07 1.1963601e-06 1.8670958)
(-1.6752226e-06 1.9348111e-06 1.8670961)
(-3.0854956e-06 2.7404996e-06 1.8670948)
(-8.7023727e-07 2.871002e-06 1.8670943)
(4.0378803e-07 2.9835968e-06 1.8670943)
(1.6209199e-06 3.0577107e-06 1.8670948)
(2.786527e-06 3.1039161e-06 1.8670958)
(3.767536e-06 3.1163225e-06 1.8670973)
(3.0136753e-06 3.0136753e-06 1.8670992)
(6.1467924e-07 2.4036397e-06 1.8670998)
(5.9897195e-07 5.9395797e-08 1.8670957)
(-8.9408876e-07 2.2735436e-07 1.8670963)
(-2.5026205e-06 5.8015171e-07 1.8670953)
(-7.7610688e-07 6.1593775e-07 1.8670949)
(4.7149465e-07 6.429053e-07 1.8670949)
(1.6641883e-06 6.610755e-07 1.8670955)
(2.8009425e-06 6.7175087e-07 1.8670964)
(3.6819285e-06 6.7068579e-07 1.8670979)
(2.4036397e-06 6.1467924e-07 1.8670998)
(2.6399539e-07 2.6399539e-07 1.8670994)
(1.5201455e-06 1.5201455e-06 1.8672423)
(-2.3035324e-06 -6.8599024e-07 1.867243)
(-6.2463822e-06 -2.5336651e-07 1.8672411)
(-2.4103326e-06 -2.3201641e-07 1.8672403)
(-5.9562158e-07 -2.0208904e-07 1.86724)
(1.1051426e-06 -1.644345e-07 1.8672403)
(2.5406565e-06 -9.2412045e-08 1.8672409)
(3.3238854e-06 9.3456994e-08 1.867242)
(1.8531111e-06 5.5962948e-07 1.8672433)
(7.787937e-08 7.8475591e-07 1.8672434)
(-6.8599025e-07 -2.3035324e-06 1.867243)
(-4.9638004e-06 -4.9638004e-06 1.8672425)
(-5.5654214e-06 -4.1729228e-06 1.8672408)
(-2.3334164e-06 -4.0666887e-06 1.8672401)
(-4.9424872e-07 -3.9530318e-06 1.8672398)
(1.2696581e-06 -3.8186814e-06 1.8672401)
(2.9274937e-06 -3.6107287e-06 1.8672408)
(4.3019477e-06 -3.1764825e-06 1.867242)
(2.8900594e-06 -2.0935428e-06 1.8672437)
(3.030058e-07 -1.0449566e-06 1.867244)
(-2.5336653e-07 -6.2463822e-06 1.8672411)
(-4.1729228e-06 -5.5654214e-06 1.8672408)
(-5.3492705e-06 -5.3492705e-06 1.8672392)
(-2.1904417e-06 -5.1987007e-06 1.8672385)
(-3.4761421e-07 -5.0499607e-06 1.8672383)
(1.4474458e-06 -4.8814499e-06 1.8672386)
(3.1828554e-06 -4.6737731e-06 1.8672393)
(4.8410712e-06 -4.4018646e-06 1.8672407)
(3.984637e-06 -3.9065932e-06 1.8672426)
(7.7693688e-07 -3.1113208e-06 1.8672432)
(-2.320164e-07 -2.4103327e-06 1.8672403)
(-4.0666887e-06 -2.3334164e-06 1.8672401)
(-5.1987007e-06 -2.1904417e-06 1.8672385)
(-2.0341066e-06 -2.0341065e-06 1.8672378)
(-1.7699793e-07 -1.870582e-06 1.8672376)
(1.6458457e-06 -1.6915498e-06 1.867238)
(3.407079e-06 -1.4863596e-06 1.8672388)
(5.0691276e-06 -1.2641662e-06 1.8672402)
(4.1806032e-06 -1.0534773e-06 1.8672422)
(8.3318737e-07 -9.1331268e-07 1.8672429)
(-2.0208903e-07 -5.9562156e-07 1.86724)
(-3.9530318e-06 -4.9424871e-07 1.8672398)
(-5.0499607e-06 -3.4761422e-07 1.8672383)
(-1.870582e-06 -1.7699791e-07 1.8672376)
(-5.0574824e-09 -5.0574701e-09 1.8672375)
(1.8316682e-06 1.6725437e-07 1.8672379)
(3.6102391e-06 3.4553418e-07 1.8672388)
(5.2739535e-06 5.2761373e-07 1.8672402)
(4.3354905e-06 6.919653e-07 1.8672423)
(8.7037999e-07 7.8532876e-07 1.867243)
(-1.6443449e-07 1.1051426e-06 1.8672403)
(-3.8186814e-06 1.2696581e-06 1.8672401)
(-4.8814499e-06 1.4474458e-06 1.8672386)
(-1.6915498e-06 1.6458457e-06 1.867238)
(1.6725436e-07 1.8316682e-06 1.8672379)
(1.9964373e-06 1.9964373e-06 1.8672383)
(3.7674383e-06 2.1466205e-06 1.8672393)
(5.4155587e-06 2.2806298e-06 1.8672408)
(4.4383183e-06 2.388979e-06 1.8672429)
(8.9542968e-07 2.4499932e-06 1.8672436)
(-9.2412045e-08 2.5406565e-06 1.8672409)
(-3.6107286e-06 2.9274938e-06 1.8672408)
(-4.6737731e-06 3.1828554e-06 1.8672393)
(-1.4863596e-06 3.407079e-06 1.8672388)
(3.4553416e-07 3.610239e-06 1.8672388)
(2.1466205e-06 3.7674383e-06 1.8672393)
(3.8944316e-06 3.8944316e-06 1.8672403)
(5.516312e-06 3.9938781e-06 1.8672418)
(4.5048538e-06 4.0600974e-06 1.8672439)
(9.1105613e-07 4.0861821e-06 1.8672446)
(9.3457005e-08 3.3238854e-06 1.867242)
(-3.1764825e-06 4.3019477e-06 1.867242)
(-4.4018646e-06 4.8410712e-06 1.8672407)
(-1.2641662e-06 5.0691276e-06 1.8672402)
(5.2761374e-07 5.2739535e-06 1.8672402)
(2.2806299e-06 5.4155587e-06 1.8672408)
(3.9938781e-06 5.516312e-06 1.8672418)
(5.5812245e-06 5.5812245e-06 1.8672433)
(4.5306222e-06 5.5849445e-06 1.8672455)
(9.1281949e-07 5.4631435e-06 1.8672462)
(5.5962948e-07 1.8531111e-06 1.8672433)
(-2.0935428e-06 2.8900594e-06 1.8672437)
(-3.9065932e-06 3.984637e-06 1.8672426)
(-1.0534774e-06 4.1806032e-06 1.8672422)
(6.919653e-07 4.3354905e-06 1.8672423)
(2.388979e-06 4.4383183e-06 1.8672429)
(4.0600974e-06 4.5048538e-06 1.8672439)
(5.5849445e-06 4.5306222e-06 1.8672455)
(4.3867729e-06 4.3867729e-06 1.8672476)
(8.2985548e-07 3.1649682e-06 1.8672483)
(7.8475591e-07 7.787937e-08 1.8672434)
(-1.0449566e-06 3.030058e-07 1.867244)
(-3.1113208e-06 7.7693688e-07 1.8672432)
(-9.1331269e-07 8.3318737e-07 1.8672429)
(7.8532877e-07 8.7037999e-07 1.867243)
(2.4499932e-06 8.9542968e-07 1.8672436)
(4.0861821e-06 9.1105612e-07 1.8672446)
(5.4631436e-06 9.1281949e-07 1.8672462)
(3.1649682e-06 8.2985548e-07 1.8672483)
(9.8283039e-08 9.8283036e-08 1.8672477)
(1.7397116e-06 1.7397116e-06 1.8674373)
(-2.8853528e-06 -8.3251065e-07 1.8674379)
(-7.5090608e-06 -3.3297887e-07 1.8674362)
(-2.8735666e-06 -3.0445836e-07 1.8674355)
(-5.8214126e-07 -2.6721819e-07 1.8674353)
(1.5835001e-06 -2.1973771e-07 1.8674356)
(3.4540608e-06 -1.2982697e-07 1.8674363)
(4.5523999e-06 1.0214405e-07 1.8674375)
(2.5984164e-06 7.0589179e-07 1.8674388)
(1.2924126e-07 9.7126163e-07 1.867439)
(-8.3251065e-07 -2.8853528e-06 1.8674379)
(-5.9943885e-06 -5.9943885e-06 1.8674375)
(-6.7169824e-06 -5.0711099e-06 1.8674359)
(-2.7749256e-06 -4.9357178e-06 1.8674353)
(-4.5506028e-07 -4.7931865e-06 1.8674351)
(1.789587e-06 -4.6226769e-06 1.8674354)
(3.9368834e-06 -4.3595471e-06 1.8674362)
(5.8059781e-06 -3.8146007e-06 1.8674375)
(3.9020927e-06 -2.4185953e-06 1.8674393)
(3.946111e-07 -1.137964e-06 1.8674396)
(-3.3297887e-07 -7.5090608e-06 1.8674362)
(-5.0711099e-06 -6.7169824e-06 1.8674359)
(-6.4503901e-06 -6.4503901e-06 1.8674344)
(-2.5956433e-06 -6.26189e-06 1.8674338)
(-2.6910031e-07 -6.0741778e-06 1.8674337)
(2.0171395e-06 -5.8598512e-06 1.8674341)
(4.262137e-06 -5.5941202e-06 1.8674349)
(6.4933518e-06 -5.2484668e-06 1.8674363)
(5.275053e-06 -4.6119779e-06 1.8674382)
(9.8299544e-07 -3.6150085e-06 1.8674389)
(-3.0445837e-07 -2.8735666e-06 1.8674355)
(-4.9357178e-06 -2.7749256e-06 1.8674353)
(-6.26189e-06 -2.5956432e-06 1.8674338)
(-2.3987134e-06 -2.3987134e-06 1.8674333)
(-5.3021466e-08 -2.1917212e-06 1.8674332)
(2.2696446e-06 -1.9643715e-06 1.8674336)
(4.5482678e-06 -1.702966e-06 1.8674345)
(6.7881203e-06 -1.420294e-06 1.8674359)
(5.535551e-06 -1.1488678e-06 1.8674379)
(1.0592574e-06 -9.6360571e-07 1.8674386)
(-2.672182e-07 -5.8214127e-07 1.8674353)
(-4.7931865e-06 -4.5506028e-07 1.8674351)
(-6.0741778e-06 -2.6910029e-07 1.8674337)
(-2.1917212e-06 -5.3021442e-08 1.8674332)
(1.6524156e-07 1.6524157e-07 1.8674331)
(2.5058947e-06 3.8439338e-07 1.8674336)
(4.8062144e-06 6.1140729e-07 1.8674345)
(7.0474499e-06 8.428025e-07 1.867436)
(5.7317414e-06 1.0512152e-06 1.8674381)
(1.1065035e-06 1.169626e-06 1.8674388)
(-2.1973771e-07 1.5835001e-06 1.8674356)
(-4.6226768e-06 1.789587e-06 1.8674354)
(-5.8598512e-06 2.0171395e-06 1.8674341)
(-1.9643715e-06 2.2696446e-06 1.8674336)
(3.8439335e-07 2.5058947e-06 1.8674336)
(2.7158103e-06 2.7158103e-06 1.8674341)
(5.006677e-06 2.9073486e-06 1.8674351)
(7.2279282e-06 3.0785048e-06 1.8674366)
(5.8623745e-06 3.2170629e-06 1.8674387)
(1.1381979e-06 3.2949391e-06 1.8674394)
(-1.2982698e-07 3.4540608e-06 1.8674363)
(-4.3595471e-06 3.9368834e-06 1.8674362)
(-5.5941202e-06 4.2621369e-06 1.8674349)
(-1.702966e-06 4.5482678e-06 1.8674345)
(6.1140729e-07 4.8062144e-06 1.8674345)
(2.9073486e-06 5.006677e-06 1.8674351)
(5.1689089e-06 5.1689089e-06 1.8674361)
(7.3571643e-06 5.2968679e-06 1.8674377)
(5.9481756e-06 5.3844254e-06 1.8674398)
(1.1584209e-06 5.4225746e-06 1.8674406)
(1.0214404e-07 4.5523999e-06 1.8674375)
(-3.8146007e-06 5.8059781e-06 1.8674375)
(-5.2484668e-06 6.4933517e-06 1.8674363)
(-1.4202941e-06 6.7881203e-06 1.8674359)
(8.4280248e-07 7.0474499e-06 1.867436)
(3.0785048e-06 7.2279282e-06 1.8674366)
(5.2968679e-06 7.3571643e-06 1.8674377)
(7.4434447e-06 7.4434447e-06 1.8674392)
(5.9880812e-06 7.4594994e-06 1.8674414)
(1.1636308e-06 7.3183256e-06 1.8674421)
(7.058918e-07 2.5984163e-06 1.8674388)
(-2.4185953e-06 3.9020927e-06 1.8674393)
(-4.6119779e-06 5.275053e-06 1.8674382)
(-1.1488678e-06 5.535551e-06 1.8674379)
(1.0512152e-06 5.7317414e-06 1.8674381)
(3.2170629e-06 5.8623745e-06 1.8674387)
(5.3844254e-06 5.9481757e-06 1.8674398)
(7.4594994e-06 5.9880812e-06 1.8674414)
(5.8230565e-06 5.8230565e-06 1.8674436)
(1.0643051e-06 3.9556688e-06 1.8674443)
(9.7126164e-07 1.2924126e-07 1.867439)
(-1.137964e-06 3.946111e-07 1.8674396)
(-3.6150085e-06 9.8299544e-07 1.8674389)
(-9.6360571e-07 1.0592574e-06 1.8674386)
(1.169626e-06 1.1065035e-06 1.8674388)
(3.2949391e-06 1.1381979e-06 1.8674394)
(5.4225746e-06 1.1584209e-06 1.8674406)
(7.3183256e-06 1.1636307e-06 1.8674421)
(3.9556688e-06 1.0643051e-06 1.8674443)
(-8.1294402e-08 -8.1294405e-08 1.8674437)
(1.9577817e-06 1.9577817e-06 1.867679)
(-3.4075189e-06 -9.6252784e-07 1.8676797)
(-8.6653807e-06 -3.9864539e-07 1.867678)
(-3.2546598e-06 -3.6305507e-07 1.8676774)
(-5.0042676e-07 -3.1879922e-07 1.8676773)
(2.1168527e-06 -2.6187336e-07 1.8676777)
(4.4099782e-06 -1.5456461e-07 1.8676784)
(5.8131534e-06 1.2216559e-07 1.8676796)
(3.3805377e-06 8.5992466e-07 1.867681)
(1.9570244e-07 1.1596501e-06 1.8676812)
(-9.6252784e-07 -3.4075189e-06 1.8676797)
(-6.9421596e-06 -6.9421596e-06 1.8676793)
(-7.7661715e-06 -5.8912373e-06 1.8676778)
(-3.1348906e-06 -5.7274899e-06 1.8676773)
(-3.4865419e-07 -5.5572067e-06 1.8676772)
(2.3632046e-06 -5.3518974e-06 1.8676775)
(4.9860367e-06 -5.03527e-06 1.8676784)
(7.3348873e-06 -4.3830542e-06 1.8676797)
(4.9367645e-06 -2.6816368e-06 1.8676814)
(4.954279e-07 -1.1855768e-06 1.8676817)
(-3.986454e-07 -8.6653807e-06 1.867678)
(-5.8912373e-06 -7.7661715e-06 1.8676778)
(-7.450711e-06 -7.450711e-06 1.8676764)
(-2.9206292e-06 -7.2256836e-06 1.8676759)
(-1.2483427e-07 -7.0004574e-06 1.8676759)
(2.6387894e-06 -6.7419633e-06 1.8676763)
(5.3788214e-06 -6.4201093e-06 1.8676771)
(8.1667867e-06 -6.0033258e-06 1.8676785)
(6.578015e-06 -5.2286947e-06 1.8676805)
(1.1930757e-06 -4.0388975e-06 1.8676811)
(-3.6305508e-07 -3.2546598e-06 1.8676774)
(-5.7274899e-06 -3.1348906e-06 1.8676773)
(-7.2256836e-06 -2.9206292e-06 1.8676759)
(-2.684637e-06 -2.684637e-06 1.8676754)
(1.3506605e-07 -2.4357565e-06 1.8676754)
(2.9435527e-06 -2.1617643e-06 1.8676759)
(5.7246742e-06 -1.8459861e-06 1.8676768)
(8.5263019e-06 -1.5050165e-06 1.8676782)
(6.9011927e-06 -1.174464e-06 1.8676803)
(1.288626e-06 -9.4566165e-07 1.8676809)
(-3.1879922e-07 -5.0042676e-07 1.8676773)
(-5.5572067e-06 -3.4865418e-07 1.8676772)
(-7.0004574e-06 -1.2483426e-07 1.8676759)
(-2.4357565e-06 1.3506608e-07 1.8676754)
(3.9803839e-07 3.9803841e-07 1.8676754)
(3.2285598e-06 6.624588e-07 1.8676759)
(6.0355693e-06 9.3665411e-07 1.8676769)
(8.8383087e-06 1.2157136e-06 1.8676784)
(7.1373698e-06 1.4667555e-06 1.8676805)
(1.3456106e-06 1.6094013e-06 1.8676812)
(-2.6187336e-07 2.1168527e-06 1.8676777)
(-5.3518974e-06 2.3632046e-06 1.8676775)
(-6.7419633e-06 2.6387894e-06 1.8676763)
(-2.1617643e-06 2.9435528e-06 1.8676759)
(6.6245878e-07 3.2285598e-06 1.8676759)
(3.4821684e-06 3.4821685e-06 1.8676765)
(6.277929e-06 3.7137803e-06 1.8676775)
(9.0564033e-06 3.9208899e-06 1.867679)
(7.2948805e-06 4.0885212e-06 1.8676811)
(1.3837232e-06 4.1823252e-06 1.8676819)
(-1.5456461e-07 4.4099782e-06 1.8676784)
(-5.03527e-06 4.9860367e-06 1.8676784)
(-6.4201093e-06 5.3788214e-06 1.8676771)
(-1.8459861e-06 5.7246742e-06 1.8676768)
(9.3665408e-07 6.0355693e-06 1.8676769)
(3.7137802e-06 6.277929e-06 1.8676775)
(6.4742908e-06 6.4742908e-06 1.8676785)
(9.2130497e-06 6.629625e-06 1.8676801)
(7.3988051e-06 6.7370215e-06 1.8676822)
(1.4081466e-06 6.7851784e-06 1.867683)
(1.2216561e-07 5.8131534e-06 1.8676796)
(-4.3830542e-06 7.3348873e-06 1.8676797)
(-6.0033258e-06 8.1667867e-06 1.8676785)
(-1.5050164e-06 8.5263019e-06 1.8676782)
(1.2157136e-06 8.8383088e-06 1.8676784)
(3.9208899e-06 9.0564033e-06 1.867679)
(6.6296249e-06 9.2130497e-06 1.8676801)
(9.319134e-06 9.319134e-06 1.8676817)
(7.4504339e-06 9.3463152e-06 1.8676838)
(1.4158278e-06 9.1911911e-06 1.8676846)
(8.5992466e-07 3.3805377e-06 1.867681)
(-2.6816367e-06 4.9367644e-06 1.8676814)
(-5.2286947e-06 6.578015e-06 1.8676805)
(-1.174464e-06 6.9011927e-06 1.8676803)
(1.4667555e-06 7.1373698e-06 1.8676805)
(4.0885212e-06 7.2948805e-06 1.8676811)
(6.7370215e-06 7.3988051e-06 1.8676822)
(9.3463152e-06 7.4504339e-06 1.8676838)
(7.2708622e-06 7.2708621e-06 1.867686)
(1.3047305e-06 4.7605515e-06 1.8676867)
(1.1596501e-06 1.9570244e-07 1.8676812)
(-1.1855768e-06 4.9542789e-07 1.8676817)
(-4.0388975e-06 1.1930757e-06 1.8676811)
(-9.4566165e-07 1.288626e-06 1.8676809)
(1.6094013e-06 1.3456106e-06 1.8676812)
(4.1823252e-06 1.3837232e-06 1.8676819)
(6.7851783e-06 1.4081466e-06 1.867683)
(9.1911911e-06 1.4158278e-06 1.8676846)
(4.7605516e-06 1.3047305e-06 1.8676867)
(-2.5771256e-07 -2.5771257e-07 1.8676862)
(2.1706312e-06 2.1706312e-06 1.867966)
(-3.8796104e-06 -1.0793894e-06 1.8679666)
(-9.7262068e-06 -4.5447224e-07 1.8679651)
(-3.5673607e-06 -4.1199311e-07 1.8679646)
(-3.6507263e-07 -3.610094e-07 1.8679645)
(2.6878974e-06 -2.9503609e-07 1.8679649)
(5.3874078e-06 -1.7102782e-07 1.8679657)
(7.0807497e-06 1.487236e-07 1.8679669)
(4.1740844e-06 1.0160237e-06 1.8679682)
(2.6965579e-07 1.3472377e-06 1.8679684)
(-1.0793894e-06 -3.8796104e-06 1.8679666)
(-7.8172656e-06 -7.8172656e-06 1.8679663)
(-8.7251123e-06 -6.6448399e-06 1.8679649)
(-3.4271664e-06 -6.4537e-06 1.8679645)
(-1.896371e-07 -6.2567939e-06 1.8679644)
(2.9728697e-06 -6.0181076e-06 1.8679648)
(6.0530474e-06 -5.6500987e-06 1.8679657)
(8.861327e-06 -4.8948765e-06 1.867967)
(5.9718555e-06 -2.8982434e-06 1.8679687)
(6.0086974e-07 -1.1982939e-06 1.867969)
(-4.5447225e-07 -9.7262068e-06 1.8679651)
(-6.6448399e-06 -8.7251123e-06 1.8679649)
(-8.3626412e-06 -8.3626412e-06 1.8679637)
(-3.1793147e-06 -8.1025523e-06 1.8679632)
(7.0519742e-08 -7.8413445e-06 1.8679632)
(3.2945925e-06 -7.5404567e-06 1.8679636)
(6.5106389e-06 -7.1646694e-06 1.8679645)
(9.8326051e-06 -6.6797049e-06 1.8679659)
(7.870667e-06 -5.7715348e-06 1.8679678)
(1.4029554e-06 -4.3972566e-06 1.8679685)
(-4.1199312e-07 -3.5673607e-06 1.8679646)
(-6.4537e-06 -3.4271664e-06 1.8679645)
(-8.1025524e-06 -3.1793147e-06 1.8679632)
(-2.9058698e-06 -2.9058698e-06 1.8679628)
(3.724585e-07 -2.6168173e-06 1.8679628)
(3.6495449e-06 -2.2980587e-06 1.8679633)
(6.9137992e-06 -1.9300325e-06 1.8679642)
(1.0254462e-05 -1.5331728e-06 1.8679657)
(8.2543038e-06 -1.1456017e-06 1.8679677)
(1.5170552e-06 -8.7495275e-07 1.8679683)
(-3.6100939e-07 -3.6507263e-07 1.8679645)
(-6.2567939e-06 -1.8963709e-07 1.8679644)
(-7.8413446e-06 7.0519761e-08 1.8679632)
(-2.6168174e-06 3.7245851e-07 1.8679628)
(6.7833083e-07 6.7833085e-07 1.8679629)
(3.9813773e-06 9.8621013e-07 1.8679634)
(7.2755248e-06 1.3057445e-06 1.8679644)
(1.0617036e-05 1.6305581e-06 1.8679659)
(8.5288871e-06 1.9225674e-06 1.8679679)
(1.5833881e-06 2.088509e-06 1.8679686)
(-2.9503609e-07 2.6878973e-06 1.8679649)
(-6.0181076e-06 2.9728697e-06 1.8679648)
(-7.5404567e-06 3.2945925e-06 1.8679636)
(-2.2980587e-06 3.6495449e-06 1.8679633)
(9.8621012e-07 3.9813773e-06 1.8679634)
(4.2769586e-06 4.2769586e-06 1.867964)
(7.5581471e-06 4.5470943e-06 1.867965)
(1.0871284e-05 4.788778e-06 1.8679665)
(8.7122547e-06 4.9843677e-06 1.8679686)
(1.6276829e-06 5.0934707e-06 1.8679693)
(-1.7102782e-07 5.3874078e-06 1.8679657)
(-5.6500988e-06 6.0530474e-06 1.8679657)
(-7.1646694e-06 6.5106389e-06 1.8679645)
(-1.9300325e-06 6.9137992e-06 1.8679642)
(1.3057445e-06 7.2755248e-06 1.8679644)
(4.5470943e-06 7.5581472e-06 1.867965)
(7.7873442e-06 7.7873442e-06 1.8679661)
(1.1054309e-05 7.969012e-06 1.8679676)
(8.8335798e-06 8.0952848e-06 1.8679697)
(1.6561234e-06 8.152174e-06 1.8679705)
(1.4872361e-07 7.0807497e-06 1.8679669)
(-4.8948765e-06 8.8613269e-06 1.867967)
(-6.6797049e-06 9.8326051e-06 1.8679659)
(-1.5331728e-06 1.0254462e-05 1.8679657)
(1.6305581e-06 1.0617036e-05 1.8679659)
(4.788778e-06 1.0871284e-05 1.8679665)
(7.969012e-06 1.1054309e-05 1.8679676)
(1.1179225e-05 1.1179225e-05 1.8679692)
(8.8954167e-06 1.121649e-05 1.8679713)
(1.665609e-06 1.1049152e-05 1.867972)
(1.0160237e-06 4.1740844e-06 1.8679682)
(-2.8982433e-06 5.9718554e-06 1.8679687)
(-5.7715348e-06 7.870667e-06 1.8679678)
(-1.1456017e-06 8.2543037e-06 1.8679677)
(1.9225674e-06 8.5288871e-06 1.8679679)
(4.9843677e-06 8.7122547e-06 1.8679686)
(8.0952848e-06 8.8335798e-06 1.8679697)
(1.121649e-05 8.8954166e-06 1.8679713)
(8.703507e-06 8.703507e-06 1.8679734)
(1.5445647e-06 5.5638431e-06 1.8679741)
(1.3472377e-06 2.6965578e-07 1.8679684)
(-1.1982939e-06 6.0086974e-07 1.867969)
(-4.3972566e-06 1.4029554e-06 1.8679685)
(-8.7495275e-07 1.5170552e-06 1.8679683)
(2.088509e-06 1.5833881e-06 1.8679686)
(5.0934707e-06 1.6276829e-06 1.8679693)
(8.1521739e-06 1.6561234e-06 1.8679705)
(1.1049152e-05 1.665609e-06 1.867972)
(5.5638431e-06 1.5445647e-06 1.8679741)
(-4.2750023e-07 -4.2750024e-07 1.8679736)
(2.3749064e-06 2.3749064e-06 1.8682964)
(-4.3074228e-06 -1.1847278e-06 1.868297)
(-1.0696895e-05 -5.0258746e-07 1.8682956)
(-3.8220171e-06 -4.5347183e-07 1.8682952)
(-1.8880726e-07 -3.9608245e-07 1.8682952)
(3.2811197e-06 -3.2148989e-07 1.8682956)
(6.3679475e-06 -1.815747e-07 1.8682964)
(8.3352478e-06 1.7919296e-07 1.8682975)
(4.9632093e-06 1.1706926e-06 1.8682989)
(3.4725745e-07 1.5311237e-06 1.8682991)
(-1.1847278e-06 -4.3074228e-06 1.868297)
(-8.6236635e-06 -8.6236635e-06 1.8682967)
(-9.6000114e-06 -7.336867e-06 1.8682955)
(-3.6622596e-06 -7.119506e-06 1.8682951)
(9.1656518e-09 -6.8972347e-06 1.8682951)
(3.6028814e-06 -6.626723e-06 1.8682955)
(7.1189717e-06 -6.2097058e-06 1.8682963)
(1.0363649e-05 -5.3562949e-06 1.8682976)