/*--------------------------------*- C++ -*----------------------------------*\
| =========                 |                                                 |
| \\      /  F ield         | OpenFOAM: The Open Source CFD Toolbox           |
|  \\    /   O peration     | Version:  v2106                                 |
|   \\  /    A nd           | Website:  www.openfoam.com                      |
|    \\/     M anipulation  |                                                 |
\*---------------------------------------------------------------------------*/
FoamFile
{
    version     2.0;
    format      ascii;
    arch        "LSB;label=32;scalar=64";
    class       volVectorField;
    location    "0";
    object      gradTmode1;
}
// * * * * * * * * * * * * * * * * * * * * * * * * * * * * * * * * * * * * * //

dimensions      [0 -1 0 0 0 0 0];

internalField   nonuniform List<vector> 
2000
(
(6.46216e-07 6.46216e-07 -0.152346)
(6.22744e-07 1.1104e-07 -0.152346)
(2.21417e-07 2.05288e-07 -0.152346)
(1.87e-07 -2.39417e-08 -0.152345)
(5.08704e-08 -6.54601e-08 -0.152345)
(1.34077e-07 5.37922e-09 -0.152345)
(3.784e-07 -5.93785e-08 -0.152345)
(8.39007e-07 -2.85814e-07 -0.152345)
(6.45222e-07 -5.18992e-07 -0.152344)
(1.593e-07 -4.36906e-07 -0.152344)
(1.1104e-07 6.22744e-07 -0.152346)
(1.81814e-07 1.81814e-07 -0.152346)
(8.64346e-08 4.24475e-07 -0.152346)
(-8.37488e-08 2.29225e-07 -0.152345)
(8.01914e-08 1.29867e-07 -0.152346)
(1.40159e-07 1.37633e-07 -0.152345)
(8.72062e-08 1.8882e-07 -0.152345)
(3.79393e-07 -6.15991e-08 -0.152345)
(4.94131e-07 -3.95773e-07 -0.152345)
(2.41387e-07 -3.58419e-07 -0.152345)
(2.05288e-07 2.21417e-07 -0.152346)
(4.24475e-07 8.64346e-08 -0.152346)
(2.68828e-07 2.68828e-07 -0.152345)
(-1.07608e-07 1.29992e-07 -0.152345)
(-4.07216e-08 2.91596e-07 -0.152345)
(1.9303e-07 2.97979e-07 -0.152345)
(1.79168e-07 4.3557e-07 -0.152345)
(2.54413e-07 3.92883e-07 -0.152345)
(3.48403e-07 1.67019e-07 -0.152345)
(1.96655e-07 1.05734e-07 -0.152345)
(-2.39418e-08 1.87e-07 -0.152345)
(2.29225e-07 -8.37488e-08 -0.152345)
(1.29992e-07 -1.07608e-07 -0.152345)
(-6.09804e-08 -6.09804e-08 -0.152345)
(2.48179e-07 2.41558e-07 -0.152345)
(2.84132e-07 3.40144e-07 -0.152345)
(1.8211e-07 3.32929e-07 -0.152345)
(1.10842e-07 4.11571e-07 -0.152345)
(2.06981e-07 7.98048e-08 -0.152345)
(1.80101e-07 -5.74017e-08 -0.152345)
(-6.54601e-08 5.08704e-08 -0.152345)
(1.29867e-07 8.01914e-08 -0.152346)
(2.91596e-07 -4.07216e-08 -0.152345)
(2.41558e-07 2.48179e-07 -0.152345)
(3.60402e-07 3.60402e-07 -0.152345)
(2.84401e-07 3.93676e-07 -0.152345)
(2.50596e-07 3.36308e-07 -0.152345)
(1.28901e-09 4.23815e-07 -0.152345)
(-1.2057e-07 3.04045e-07 -0.152345)
(5.94486e-08 -2.75282e-08 -0.152345)
(5.37924e-09 1.34077e-07 -0.152345)
(1.37633e-07 1.40159e-07 -0.152345)
(2.97979e-07 1.9303e-07 -0.152345)
(3.40144e-07 2.84132e-07 -0.152345)
(3.93676e-07 2.84401e-07 -0.152345)
(2.60038e-07 2.60038e-07 -0.152345)
(2.12249e-07 1.17428e-07 -0.152345)
(7.8579e-08 -2.83635e-08 -0.152345)
(-2.44362e-07 2.83921e-07 -0.152345)
(-1.51472e-07 9.69374e-08 -0.152345)
(-5.93785e-08 3.784e-07 -0.152345)
(1.8882e-07 8.72062e-08 -0.152345)
(4.3557e-07 1.79168e-07 -0.152345)
(3.32929e-07 1.8211e-07 -0.152345)
(3.36308e-07 2.50596e-07 -0.152345)
(1.17428e-07 2.12249e-07 -0.152345)
(-3.7806e-08 -3.7806e-08 -0.152345)
(1.67783e-07 -8.85597e-08 -0.152345)
(4.73043e-09 1.89877e-07 -0.152345)
(-1.27535e-07 4.21569e-07 -0.152345)
(-2.85814e-07 8.39006e-07 -0.152345)
(-6.15991e-08 3.79393e-07 -0.152345)
(3.92883e-07 2.54413e-07 -0.152345)
(4.11571e-07 1.10842e-07 -0.152345)
(4.23815e-07 1.28899e-09 -0.152345)
(-2.83635e-08 7.8579e-08 -0.152345)
(-8.85597e-08 1.67783e-07 -0.152345)
(3.06262e-07 3.06262e-07 -0.152345)
(2.65767e-07 1.73118e-07 -0.152345)
(8.02195e-08 2.77127e-07 -0.152345)
(-5.18992e-07 6.45222e-07 -0.152344)
(-3.95773e-07 4.94131e-07 -0.152345)
(1.67019e-07 3.48403e-07 -0.152345)
(7.98048e-08 2.06981e-07 -0.152345)
(3.04045e-07 -1.2057e-07 -0.152345)
(2.83921e-07 -2.44362e-07 -0.152345)
(1.89877e-07 4.73042e-09 -0.152345)
(1.73118e-07 2.65767e-07 -0.152345)
(-2.44045e-08 -2.44045e-08 -0.152345)
(-2.35261e-08 -1.24833e-07 -0.152345)
(-4.36906e-07 1.593e-07 -0.152344)
(-3.58419e-07 2.41387e-07 -0.152345)
(1.05734e-07 1.96655e-07 -0.152345)
(-5.74016e-08 1.80101e-07 -0.152345)
(-2.75282e-08 5.94486e-08 -0.152345)
(9.69373e-08 -1.51472e-07 -0.152345)
(4.21569e-07 -1.27535e-07 -0.152345)
(2.77127e-07 8.02195e-08 -0.152345)
(-1.24833e-07 -2.35261e-08 -0.152345)
(-2.02093e-08 -2.02093e-08 -0.152345)
(7.2526e-08 7.2526e-08 -0.152345)
(1.57719e-09 -1.59705e-07 -0.152345)
(4.9941e-08 -9.10156e-08 -0.152345)
(8.09727e-08 -8.9345e-08 -0.152345)
(-3.88669e-10 -1.16559e-07 -0.152345)
(-3.72695e-08 -3.19191e-08 -0.152345)
(-9.27095e-09 5.40128e-09 -0.152345)
(2.0535e-07 -6.21942e-08 -0.152346)
(1.97091e-07 -1.39234e-07 -0.152346)
(5.92685e-08 -1.19324e-07 -0.152346)
(-1.59705e-07 1.57719e-09 -0.152345)
(-1.61964e-07 -1.61964e-07 -0.152345)
(1.20301e-07 5.3805e-08 -0.152345)
(5.54291e-08 5.53816e-08 -0.152345)
(5.70372e-08 1.08029e-08 -0.152345)
(8.4691e-08 8.66279e-08 -0.152345)
(-3.9546e-08 1.40612e-07 -0.152345)
(6.07145e-08 9.29148e-08 -0.152345)
(1.39962e-07 1.50893e-08 -0.152346)
(7.91786e-08 1.51768e-08 -0.152346)
(-9.10156e-08 4.99411e-08 -0.152345)
(5.3805e-08 1.20301e-07 -0.152345)
(2.67287e-07 2.67287e-07 -0.152346)
(3.79706e-08 1.80286e-07 -0.152346)
(3.08576e-08 2.47366e-07 -0.152345)
(9.25393e-08 2.15132e-07 -0.152345)
(-2.98406e-09 2.78519e-07 -0.152345)
(7.98272e-08 2.93121e-07 -0.152346)
(1.19353e-07 2.62523e-07 -0.152346)
(5.9356e-08 2.60097e-07 -0.152346)
(-8.9345e-08 8.09727e-08 -0.152345)
(5.53816e-08 5.54291e-08 -0.152345)
(1.80286e-07 3.79706e-08 -0.152346)
(3.55083e-08 3.55084e-08 -0.152345)
(9.18834e-08 1.27021e-07 -0.152345)
(1.15844e-07 1.55512e-07 -0.152345)
(3.84429e-08 2.15371e-07 -0.152345)
(4.47185e-08 3.12221e-07 -0.152346)
(1.06937e-07 2.09066e-07 -0.152346)
(7.67523e-08 2.11521e-07 -0.152346)
(-1.16559e-07 -3.88686e-10 -0.152345)
(1.08029e-08 5.70372e-08 -0.152345)
(2.47366e-07 3.08576e-08 -0.152345)
(1.27021e-07 9.18834e-08 -0.152345)
(1.50861e-07 1.50861e-07 -0.152345)
(1.80889e-07 1.93041e-07 -0.152346)
(1.53725e-07 2.0614e-07 -0.152346)
(7.35222e-08 3.02541e-07 -0.152346)
(1.86535e-08 2.8785e-07 -0.152345)
(6.18115e-08 1.87358e-07 -0.152346)
(-3.19191e-08 -3.72695e-08 -0.152345)
(8.66279e-08 8.4691e-08 -0.152345)
(2.15132e-07 9.25393e-08 -0.152345)
(1.55512e-07 1.15844e-07 -0.152345)
(1.93041e-07 1.80889e-07 -0.152346)
(1.71122e-07 1.71122e-07 -0.152346)
(1.47943e-07 1.75114e-07 -0.152346)
(1.26428e-07 1.51604e-07 -0.152346)
(-8.24574e-09 2.91529e-07 -0.152346)
(-2.37393e-08 1.60265e-07 -0.152346)
(5.4013e-09 -9.27095e-09 -0.152345)
(1.40612e-07 -3.9546e-08 -0.152345)
(2.78519e-07 -2.98403e-09 -0.152345)
(2.15371e-07 3.84429e-08 -0.152345)
(2.0614e-07 1.53725e-07 -0.152346)
(1.75114e-07 1.47943e-07 -0.152346)
(1.34206e-07 1.34206e-07 -0.152346)
(1.89937e-07 1.6318e-07 -0.152345)
(2.73146e-08 1.88924e-07 -0.152346)
(-6.94532e-08 2.40518e-07 -0.152345)
(-6.21942e-08 2.0535e-07 -0.152346)
(9.29148e-08 6.07145e-08 -0.152345)
(2.93121e-07 7.98273e-08 -0.152346)
(3.12221e-07 4.47185e-08 -0.152346)
(3.02541e-07 7.35222e-08 -0.152346)
(1.51604e-07 1.26428e-07 -0.152346)
(1.6318e-07 1.89937e-07 -0.152345)
(1.81146e-07 1.81146e-07 -0.152345)
(6.90928e-08 1.55296e-07 -0.152346)
(2.7855e-08 2.27059e-07 -0.152346)
(-1.39234e-07 1.97091e-07 -0.152346)
(1.50893e-08 1.39962e-07 -0.152346)
(2.62523e-07 1.19353e-07 -0.152346)
(2.09066e-07 1.06937e-07 -0.152346)
(2.8785e-07 1.86536e-08 -0.152345)
(2.91529e-07 -8.24572e-09 -0.152346)
(1.88924e-07 2.73146e-08 -0.152346)
(1.55296e-07 6.90928e-08 -0.152346)
(7.32271e-08 7.32271e-08 -0.152346)
(2.30948e-09 1.05388e-07 -0.152345)
(-1.19324e-07 5.92685e-08 -0.152346)
(1.51768e-08 7.91786e-08 -0.152346)
(2.60097e-07 5.9356e-08 -0.152346)
(2.11521e-07 7.67523e-08 -0.152346)
(1.87358e-07 6.18115e-08 -0.152346)
(1.60265e-07 -2.37393e-08 -0.152346)
(2.40518e-07 -6.94532e-08 -0.152345)
(2.27059e-07 2.7855e-08 -0.152346)
(1.05388e-07 2.30949e-09 -0.152345)
(6.00156e-08 6.00156e-08 -0.152345)
(8.13724e-09 8.13723e-09 -0.152346)
(-5.74832e-08 7.12883e-08 -0.152346)
(1.36368e-07 3.6345e-08 -0.152346)
(1.1828e-07 -6.78931e-08 -0.152346)
(-2.32092e-08 -1.8631e-08 -0.152346)
(1.23786e-07 -4.05695e-08 -0.152346)
(8.58047e-08 -2.88541e-08 -0.152346)
(7.09774e-08 4.04801e-08 -0.152346)
(4.30643e-08 -7.14964e-08 -0.152346)
(-5.39536e-09 -8.53221e-08 -0.152346)
(7.12883e-08 -5.74832e-08 -0.152346)
(-2.92754e-08 -2.92754e-08 -0.152346)
(-2.8137e-09 6.05134e-08 -0.152346)
(6.33038e-08 -3.68449e-08 -0.152346)
(4.11439e-09 5.9629e-08 -0.152346)
(1.13563e-07 9.16287e-08 -0.152346)
(1.66854e-07 7.93666e-08 -0.152346)
(2.83351e-08 6.65318e-08 -0.152346)
(-8.27379e-08 5.29085e-08 -0.152346)
(-1.92211e-08 9.41274e-08 -0.152346)
(3.6345e-08 1.36368e-07 -0.152346)
(6.05134e-08 -2.81371e-09 -0.152346)
(1.28798e-07 1.28798e-07 -0.152346)
(1.17395e-07 9.55128e-08 -0.152346)
(1.05264e-07 2.45501e-07 -0.152346)
(1.43524e-07 2.73364e-07 -0.152346)
(6.07078e-08 2.46651e-07 -0.152346)
(4.45192e-08 1.84575e-07 -0.152346)
(7.06599e-08 2.97593e-07 -0.152346)
(3.58236e-08 3.15663e-07 -0.152346)
(-6.78932e-08 1.1828e-07 -0.152346)
(-3.68449e-08 6.33038e-08 -0.152346)
(9.55128e-08 1.17395e-07 -0.152346)
(1.80006e-07 1.80006e-07 -0.152346)
(1.81966e-07 1.67502e-07 -0.152346)
(1.14713e-07 2.12695e-07 -0.152346)
(7.80653e-08 2.21642e-07 -0.152346)
(7.92778e-08 2.99856e-07 -0.152346)
(4.835e-08 2.47601e-07 -0.152346)
(-1.15105e-09 2.03859e-07 -0.152346)
(-1.8631e-08 -2.32093e-08 -0.152346)
(5.9629e-08 4.1144e-09 -0.152346)
(2.45501e-07 1.05264e-07 -0.152346)
(1.67502e-07 1.81966e-07 -0.152346)
(1.37952e-07 1.37952e-07 -0.152346)
(1.97663e-07 1.53411e-07 -0.152346)
(1.47869e-07 1.50023e-07 -0.152346)
(7.04783e-08 2.17692e-07 -0.152346)
(-2.53366e-08 1.81051e-07 -0.152346)
(-7.91813e-09 1.65468e-07 -0.152346)
(-4.05695e-08 1.23786e-07 -0.152346)
(9.16287e-08 1.13563e-07 -0.152346)
(2.73364e-07 1.43524e-07 -0.152346)
(2.12695e-07 1.14713e-07 -0.152346)
(1.53411e-07 1.97663e-07 -0.152346)
(1.26783e-07 1.26783e-07 -0.152346)
(1.42346e-07 1.35368e-07 -0.152346)
(1.10305e-07 1.41608e-07 -0.152346)
(-3.87335e-09 2.24716e-07 -0.152346)
(-1.67336e-08 1.99721e-07 -0.152346)
(-2.88541e-08 8.58047e-08 -0.152346)
(7.93666e-08 1.66854e-07 -0.152346)
(2.46651e-07 6.07078e-08 -0.152346)
(2.21642e-07 7.80653e-08 -0.152346)
(1.50023e-07 1.47869e-07 -0.152346)
(1.35368e-07 1.42346e-07 -0.152346)
(1.62694e-07 1.62694e-07 -0.152346)
(1.59826e-07 1.81843e-07 -0.152346)
(3.27762e-08 1.32368e-07 -0.152346)
(-3.29127e-08 2.11263e-07 -0.152346)
(4.04801e-08 7.09774e-08 -0.152346)
(6.65318e-08 2.83351e-08 -0.152346)
(1.84575e-07 4.45192e-08 -0.152346)
(2.99856e-07 7.92778e-08 -0.152346)
(2.17692e-07 7.04783e-08 -0.152346)
(1.41608e-07 1.10305e-07 -0.152346)
(1.81843e-07 1.59826e-07 -0.152346)
(7.99791e-08 7.99791e-08 -0.152346)
(2.55466e-08 1.34781e-07 -0.152346)
(6.21615e-08 2.52787e-07 -0.152346)
(-7.14964e-08 4.30643e-08 -0.152346)
(5.29085e-08 -8.27379e-08 -0.152346)
(2.97593e-07 7.06599e-08 -0.152346)
(2.47601e-07 4.835e-08 -0.152346)
(1.81051e-07 -2.53366e-08 -0.152346)
(2.24716e-07 -3.87334e-09 -0.152346)
(1.32368e-07 3.27762e-08 -0.152346)
(1.34781e-07 2.55466e-08 -0.152346)
(2.05584e-07 2.05584e-07 -0.152346)
(8.5093e-08 1.59054e-07 -0.152346)
(-8.53221e-08 -5.39536e-09 -0.152346)
(9.41274e-08 -1.92211e-08 -0.152346)
(3.15663e-07 3.58236e-08 -0.152346)
(2.03859e-07 -1.15106e-09 -0.152346)
(1.65468e-07 -7.91813e-09 -0.152346)
(1.99721e-07 -1.67336e-08 -0.152346)
(2.11263e-07 -3.29127e-08 -0.152346)
(2.52787e-07 6.21616e-08 -0.152346)
(1.59054e-07 8.5093e-08 -0.152346)
(1.56322e-08 1.56322e-08 -0.152346)
(4.08716e-09 4.08715e-09 -0.152346)
(4.87069e-08 6.04081e-08 -0.152346)
(1.38652e-07 3.22537e-08 -0.152346)
(2.49674e-09 -4.40075e-08 -0.152346)
(2.39932e-09 2.34487e-08 -0.152346)
(1.10191e-07 1.2266e-08 -0.152346)
(9.10371e-08 3.58547e-08 -0.152346)
(1.1216e-07 2.85038e-08 -0.152346)
(4.1858e-08 -1.99577e-08 -0.152346)
(4.47846e-09 -3.94472e-09 -0.152346)
(6.04081e-08 4.87069e-08 -0.152346)
(7.68734e-08 7.68734e-08 -0.152346)
(3.42361e-08 2.60525e-08 -0.152346)
(-6.30821e-09 4.06766e-08 -0.152346)
(5.86728e-08 6.57768e-08 -0.152346)
(1.22597e-07 1.36499e-07 -0.152346)
(1.07275e-07 1.30105e-07 -0.152346)
(5.6348e-08 4.60095e-08 -0.152346)
(9.40948e-09 9.27375e-08 -0.152346)
(2.04914e-08 9.25191e-08 -0.152346)
(3.22537e-08 1.38652e-07 -0.152346)
(2.60525e-08 3.42361e-08 -0.152346)
(1.02455e-07 1.02455e-07 -0.152346)
(4.2221e-08 1.4828e-07 -0.152346)
(9.82219e-08 1.82097e-07 -0.152346)
(1.74519e-07 2.14305e-07 -0.152346)
(5.47468e-10 2.46473e-07 -0.152346)
(7.47927e-08 2.22474e-07 -0.152346)
(8.83676e-08 2.49618e-07 -0.152346)
(4.26008e-09 1.71978e-07 -0.152346)
(-4.40075e-08 2.49676e-09 -0.152346)
(4.06766e-08 -6.3082e-09 -0.152346)
(1.4828e-07 4.2221e-08 -0.152346)
(7.33336e-08 7.33336e-08 -0.152346)
(1.24698e-07 1.25608e-07 -0.152346)
(1.86973e-07 1.72941e-07 -0.152346)
(1.15443e-07 2.2177e-07 -0.152346)
(5.94929e-08 2.8731e-07 -0.152346)
(-4.10865e-08 1.69656e-07 -0.152346)
(-5.71489e-08 1.51972e-07 -0.152346)
(2.34487e-08 2.3993e-09 -0.152346)
(6.57768e-08 5.86728e-08 -0.152346)
(1.82097e-07 9.82219e-08 -0.152346)
(1.25608e-07 1.24698e-07 -0.152346)
(1.97829e-07 1.97829e-07 -0.152346)
(2.70681e-07 1.82175e-07 -0.152346)
(1.14917e-07 1.42477e-07 -0.152346)
(2.26783e-08 1.69655e-07 -0.152346)
(-4.69712e-08 1.39008e-07 -0.152346)
(-1.34239e-08 1.85802e-07 -0.152346)
(1.2266e-08 1.10191e-07 -0.152346)
(1.36499e-07 1.22597e-07 -0.152346)
(2.14305e-07 1.74519e-07 -0.152346)
(1.72941e-07 1.86973e-07 -0.152346)
(1.82175e-07 2.70681e-07 -0.152346)
(1.3162e-07 1.3162e-07 -0.152346)
(1.02923e-07 1.75587e-07 -0.152346)
(5.60247e-08 1.95658e-07 -0.152346)
(-2.49396e-08 2.42475e-07 -0.152346)
(-1.03551e-08 2.50971e-07 -0.152346)
(3.58547e-08 9.10371e-08 -0.152346)
(1.30105e-07 1.07275e-07 -0.152346)
(2.46473e-07 5.47465e-10 -0.152346)
(2.2177e-07 1.15443e-07 -0.152346)
(1.42477e-07 1.14917e-07 -0.152346)
(1.75587e-07 1.02923e-07 -0.152346)
(1.78954e-07 1.78954e-07 -0.152346)
(8.95665e-08 1.8089e-07 -0.152346)
(8.34215e-09 1.3562e-07 -0.152346)
(-4.92796e-09 1.85612e-07 -0.152346)
(2.85038e-08 1.1216e-07 -0.152346)
(4.60095e-08 5.6348e-08 -0.152346)
(2.22474e-07 7.47927e-08 -0.152346)
(2.8731e-07 5.94929e-08 -0.152346)
(1.69655e-07 2.26784e-08 -0.152346)
(1.95658e-07 5.60247e-08 -0.152346)
(1.8089e-07 8.95665e-08 -0.152346)
(1.26906e-08 1.26906e-08 -0.152346)
(-2.02174e-08 9.75853e-08 -0.152346)
(3.96372e-08 1.50959e-07 -0.152346)
(-1.99576e-08 4.1858e-08 -0.152346)
(9.27375e-08 9.40948e-09 -0.152346)
(2.49618e-07 8.83676e-08 -0.152346)
(1.69656e-07 -4.10865e-08 -0.152346)
(1.39008e-07 -4.69712e-08 -0.152346)
(2.42475e-07 -2.49396e-08 -0.152346)
(1.3562e-07 8.34214e-09 -0.152346)
(9.75853e-08 -2.02174e-08 -0.152346)
(1.46611e-07 1.46611e-07 -0.152346)
(4.8446e-08 1.29475e-07 -0.152346)
(-3.94471e-09 4.47847e-09 -0.152346)
(9.25191e-08 2.04914e-08 -0.152346)
(1.71978e-07 4.26008e-09 -0.152346)
(1.51972e-07 -5.71489e-08 -0.152346)
(1.85802e-07 -1.34239e-08 -0.152346)
(2.50971e-07 -1.03551e-08 -0.152346)
(1.85612e-07 -4.92797e-09 -0.152346)
(1.50959e-07 3.96372e-08 -0.152346)
(1.29475e-07 4.84459e-08 -0.152346)
(2.25011e-08 2.25011e-08 -0.152346)
(8.24997e-08 8.24997e-08 -0.152346)
(1.52e-08 -1.9814e-08 -0.152346)
(-1.81291e-08 -3.36199e-09 -0.152346)
(4.62367e-08 2.71087e-10 -0.152346)
(6.75072e-08 1.67612e-08 -0.152346)
(9.50516e-08 8.43712e-09 -0.152346)
(4.35181e-08 3.08593e-08 -0.152346)
(6.4292e-09 6.09609e-08 -0.152346)
(7.61778e-09 5.99713e-08 -0.152346)
(2.00961e-08 5.82472e-08 -0.152346)
(-1.9814e-08 1.52e-08 -0.152346)
(-7.06617e-08 -7.06617e-08 -0.152346)
(1.95605e-09 3.0773e-08 -0.152346)
(6.63599e-08 9.00415e-08 -0.152346)
(7.56732e-08 1.14451e-08 -0.152346)
(1.0915e-07 8.45419e-08 -0.152346)
(9.60419e-08 9.67994e-08 -0.152346)
(3.55412e-08 6.77267e-08 -0.152346)
(4.90404e-09 1.19673e-07 -0.152346)
(1.8372e-08 8.6733e-08 -0.152346)
(-3.36198e-09 -1.81291e-08 -0.152346)
(3.0773e-08 1.95606e-09 -0.152346)
(1.42574e-07 1.42574e-07 -0.152346)
(2.69088e-08 4.81386e-08 -0.152346)
(6.20076e-08 9.73095e-08 -0.152346)
(1.80406e-07 1.67926e-07 -0.152346)
(2.67029e-08 2.04177e-07 -0.152346)
(2.93028e-08 1.76256e-07 -0.152346)
(2.6624e-08 1.72104e-07 -0.152346)
(-1.28439e-08 9.923e-08 -0.152346)
(2.71074e-10 4.62367e-08 -0.152346)
(9.00415e-08 6.63599e-08 -0.152346)
(4.81386e-08 2.69088e-08 -0.152346)
(2.10953e-08 2.10953e-08 -0.152346)
(1.9546e-07 1.23668e-07 -0.152346)
(2.16017e-07 1.49224e-07 -0.152346)
(1.04372e-07 1.66072e-07 -0.152346)
(3.46849e-09 2.21165e-07 -0.152346)
(-7.21221e-08 1.61042e-07 -0.152346)
(-5.45022e-08 1.75759e-07 -0.152346)
(1.67612e-08 6.75072e-08 -0.152346)
(1.14451e-08 7.56732e-08 -0.152346)
(9.73095e-08 6.20076e-08 -0.152346)
(1.23668e-07 1.9546e-07 -0.152346)
(1.90137e-07 1.90137e-07 -0.152346)
(2.2281e-07 1.35653e-07 -0.152346)
(9.86438e-08 1.13102e-07 -0.152346)
(2.4273e-08 1.4391e-07 -0.152346)
(-1.8782e-08 1.52479e-07 -0.152346)
(1.87346e-09 2.0215e-07 -0.152346)
(8.43712e-09 9.50516e-08 -0.152346)
(8.45419e-08 1.0915e-07 -0.152346)
(1.67926e-07 1.80406e-07 -0.152346)
(1.49224e-07 2.16017e-07 -0.152346)
(1.35653e-07 2.2281e-07 -0.152346)
(1.38982e-07 1.38982e-07 -0.152346)
(1.12629e-07 1.77997e-07 -0.152346)
(4.28459e-08 1.95594e-07 -0.152346)
(-1.38825e-08 2.26311e-07 -0.152346)
(-4.83168e-09 2.39104e-07 -0.152346)
(3.08593e-08 4.35181e-08 -0.152346)
(9.67994e-08 9.60419e-08 -0.152346)
(2.04177e-07 2.67029e-08 -0.152346)
(1.66072e-07 1.04372e-07 -0.152346)
(1.13102e-07 9.86438e-08 -0.152346)
(1.77997e-07 1.12629e-07 -0.152346)
(1.55256e-07 1.55256e-07 -0.152346)
(7.2587e-08 1.5821e-07 -0.152346)
(2.47276e-08 1.23751e-07 -0.152346)
(1.46662e-08 1.05325e-07 -0.152346)
(6.09609e-08 6.4292e-09 -0.152346)
(6.77267e-08 3.55412e-08 -0.152346)
(1.76256e-07 2.93028e-08 -0.152346)
(2.21165e-07 3.46849e-09 -0.152346)
(1.4391e-07 2.4273e-08 -0.152346)
(1.95594e-07 4.28459e-08 -0.152346)
(1.5821e-07 7.25871e-08 -0.152346)
(1.13408e-08 1.13408e-08 -0.152346)
(-6.67676e-08 2.16424e-08 -0.152346)
(-2.32581e-08 2.04113e-08 -0.152346)
(5.99713e-08 7.61777e-09 -0.152346)
(1.19673e-07 4.90405e-09 -0.152346)
(1.72104e-07 2.6624e-08 -0.152346)
(1.61042e-07 -7.21221e-08 -0.152346)
(1.52479e-07 -1.8782e-08 -0.152346)
(2.26311e-07 -1.38825e-08 -0.152346)
(1.23751e-07 2.47276e-08 -0.152346)
(2.16424e-08 -6.67676e-08 -0.152346)
(3.37981e-08 3.37981e-08 -0.152346)
(1.34351e-08 1.11509e-07 -0.152346)
(5.82472e-08 2.00961e-08 -0.152346)
(8.6733e-08 1.8372e-08 -0.152346)
(9.92301e-08 -1.28439e-08 -0.152346)
(1.75759e-07 -5.45022e-08 -0.152346)
(2.0215e-07 1.87345e-09 -0.152346)
(2.39104e-07 -4.83168e-09 -0.152346)
(1.05325e-07 1.46662e-08 -0.152346)
(2.04113e-08 -2.32581e-08 -0.152346)
(1.11509e-07 1.34351e-08 -0.152346)
(5.44533e-08 5.44533e-08 -0.152346)
(-1.40255e-08 -1.40255e-08 -0.152346)
(-5.75611e-08 3.02829e-09 -0.152346)
(7.63685e-08 5.96195e-08 -0.152346)
(7.01943e-08 2.62076e-09 -0.152346)
(3.19463e-08 -1.66454e-08 -0.152346)
(1.11663e-07 1.09719e-08 -0.152346)
(7.3005e-08 -6.61127e-09 -0.152346)
(-2.99262e-09 3.35435e-08 -0.152346)
(-8.30847e-08 4.28289e-08 -0.152346)
(-3.70936e-08 1.17943e-07 -0.152346)
(3.0283e-09 -5.75611e-08 -0.152346)
(1.60839e-08 1.60839e-08 -0.152346)
(7.59609e-08 6.56503e-08 -0.152346)
(-6.07056e-09 3.38978e-08 -0.152346)
(4.02975e-08 3.01597e-08 -0.152346)
(1.21697e-07 9.98909e-08 -0.152346)
(9.55765e-08 7.70708e-08 -0.152346)
(4.64476e-08 1.23867e-08 -0.152346)
(1.3147e-09 7.92387e-08 -0.152346)
(3.80203e-08 1.47851e-07 -0.152346)
(5.96195e-08 7.63685e-08 -0.152346)
(6.56503e-08 7.59609e-08 -0.152346)
(9.41823e-08 9.41823e-08 -0.152346)
(3.47038e-08 2.8817e-09 -0.152346)
(9.79395e-08 1.7381e-07 -0.152346)
(1.58574e-07 1.56737e-07 -0.152346)
(-1.44993e-08 1.71485e-07 -0.152346)
(-8.24676e-10 1.25244e-07 -0.152346)
(5.23801e-08 1.72989e-07 -0.152346)
(3.15191e-08 1.04087e-07 -0.152346)
(2.62077e-09 7.01943e-08 -0.152346)
(3.38978e-08 -6.07056e-09 -0.152346)
(2.8817e-09 3.47038e-08 -0.152346)
(7.35567e-08 7.35567e-08 -0.152346)
(1.94152e-07 1.45455e-07 -0.152346)
(1.19372e-07 1.01633e-07 -0.152346)
(6.4084e-08 1.21488e-07 -0.152346)
(4.79515e-08 2.11181e-07 -0.152346)
(-1.98427e-08 1.9726e-07 -0.152346)
(-3.08819e-08 1.56965e-07 -0.152346)
(-1.66454e-08 3.19464e-08 -0.152346)
(3.01597e-08 4.02975e-08 -0.152346)
(1.7381e-07 9.79395e-08 -0.152346)
(1.45455e-07 1.94152e-07 -0.152346)
(1.26016e-07 1.26016e-07 -0.152346)
(1.34607e-07 8.36898e-08 -0.152346)
(9.50482e-08 1.15622e-07 -0.152346)
(7.4947e-08 1.19539e-07 -0.152346)
(-1.83526e-09 1.16971e-07 -0.152346)
(-8.77518e-09 1.5152e-07 -0.152346)
(1.09719e-08 1.11663e-07 -0.152346)
(9.98909e-08 1.21697e-07 -0.152346)
(1.56736e-07 1.58574e-07 -0.152346)
(1.01633e-07 1.19372e-07 -0.152346)
(8.36898e-08 1.34607e-07 -0.152346)
(1.08977e-07 1.08977e-07 -0.152346)
(9.99329e-08 1.31099e-07 -0.152346)
(4.93013e-08 1.33641e-07 -0.152346)
(1.21388e-08 1.68566e-07 -0.152346)
(3.66693e-09 2.02827e-07 -0.152346)
(-6.61125e-09 7.3005e-08 -0.152346)
(7.70708e-08 9.55765e-08 -0.152346)
(1.71485e-07 -1.44993e-08 -0.152346)
(1.21488e-07 6.4084e-08 -0.152346)
(1.15622e-07 9.50482e-08 -0.152346)
(1.31099e-07 9.99329e-08 -0.152346)
(1.19712e-07 1.19712e-07 -0.152347)
(1.12414e-07 1.55131e-07 -0.152346)
(6.73512e-08 1.21408e-07 -0.152347)
(2.54867e-08 5.44265e-08 -0.152347)
(3.35435e-08 -2.9926e-09 -0.152346)
(1.23867e-08 4.64476e-08 -0.152346)
(1.25244e-07 -8.24683e-10 -0.152346)
(2.11181e-07 4.79515e-08 -0.152346)
(1.19539e-07 7.4947e-08 -0.152346)
(1.33641e-07 4.93013e-08 -0.152346)
(1.55131e-07 1.12414e-07 -0.152346)
(5.09977e-08 5.09977e-08 -0.152346)
(-8.85655e-08 -2.10368e-08 -0.152347)
(-6.33147e-08 -1.30108e-09 -0.152347)
(4.28289e-08 -8.30847e-08 -0.152346)
(7.92387e-08 1.31471e-09 -0.152346)
(1.72989e-07 5.23801e-08 -0.152346)
(1.9726e-07 -1.98428e-08 -0.152346)
(1.16971e-07 -1.83526e-09 -0.152346)
(1.68566e-07 1.21388e-08 -0.152346)
(1.21408e-07 6.73512e-08 -0.152347)
(-2.10368e-08 -8.85655e-08 -0.152347)
(1.50524e-08 1.50524e-08 -0.152347)
(4.52223e-08 1.01796e-07 -0.152347)
(1.17943e-07 -3.70937e-08 -0.152346)
(1.47851e-07 3.80204e-08 -0.152346)
(1.04087e-07 3.15191e-08 -0.152346)
(1.56965e-07 -3.08819e-08 -0.152346)
(1.5152e-07 -8.77517e-09 -0.152346)
(2.02827e-07 3.66694e-09 -0.152346)
(5.44265e-08 2.54867e-08 -0.152347)
(-1.30108e-09 -6.33147e-08 -0.152347)
(1.01796e-07 4.52223e-08 -0.152347)
(2.34289e-08 2.34289e-08 -0.152347)
(-2.63207e-08 -2.63207e-08 -0.152347)
(-1.3918e-08 -5.78097e-10 -0.152347)
(1.15144e-07 6.10141e-08 -0.152347)
(3.54872e-08 -3.36977e-09 -0.152347)
(3.70166e-08 5.28126e-08 -0.152347)
(8.73409e-08 9.31802e-09 -0.152347)
(1.20409e-08 -3.35702e-08 -0.152347)
(2.13712e-09 3.02128e-08 -0.152347)
(-1.00979e-07 4.02942e-08 -0.152347)
(-7.4146e-08 1.58048e-07 -0.152347)
(-5.78087e-10 -1.3918e-08 -0.152347)
(7.34168e-08 7.34168e-08 -0.152347)
(1.12352e-07 7.91442e-08 -0.152347)
(2.72857e-08 8.50229e-08 -0.152347)
(4.97044e-08 1.09551e-07 -0.152347)
(9.58153e-10 9.15648e-08 -0.152347)
(3.29357e-08 7.04619e-08 -0.152347)
(7.60015e-08 3.11633e-08 -0.152347)
(2.68565e-08 8.83335e-08 -0.152347)
(4.36083e-08 1.86833e-07 -0.152347)
(6.10141e-08 1.15144e-07 -0.152347)
(7.91443e-08 1.12352e-07 -0.152347)
(1.2675e-07 1.2675e-07 -0.152346)
(6.58936e-08 8.31593e-08 -0.152346)
(4.35585e-08 1.6066e-07 -0.152346)
(4.82522e-08 1.52649e-07 -0.152347)
(-4.83606e-08 2.031e-07 -0.152347)
(2.00087e-08 1.60677e-07 -0.152347)
(5.46904e-08 1.67757e-07 -0.152347)
(2.43534e-08 8.68571e-08 -0.152347)
(-3.36976e-09 3.54872e-08 -0.152347)
(8.50229e-08 2.72857e-08 -0.152347)
(8.31593e-08 6.58936e-08 -0.152346)
(6.11956e-08 6.11956e-08 -0.152346)
(1.19194e-07 1.0909e-07 -0.152347)
(4.33979e-08 1.16654e-07 -0.152347)
(4.09638e-08 1.39993e-07 -0.152347)
(4.06592e-08 2.02153e-07 -0.152347)
(-4.69638e-08 1.68066e-07 -0.152347)
(-3.72918e-08 1.1784e-07 -0.152347)
(5.28126e-08 3.70166e-08 -0.152347)
(1.09551e-07 4.97044e-08 -0.152347)
(1.6066e-07 4.35585e-08 -0.152346)
(1.0909e-07 1.19194e-07 -0.152347)
(9.90165e-08 9.90165e-08 -0.152347)
(7.91556e-08 7.04027e-08 -0.152347)
(3.71385e-08 9.49106e-08 -0.152347)
(4.80818e-08 7.4973e-08 -0.152347)
(-2.96225e-08 9.20733e-08 -0.152347)
(-2.58729e-08 1.04605e-07 -0.152347)
(9.31803e-09 8.73409e-08 -0.152347)
(9.15649e-08 9.58163e-10 -0.152347)
(1.52649e-07 4.82522e-08 -0.152347)
(1.16654e-07 4.33979e-08 -0.152347)
(7.04027e-08 7.91556e-08 -0.152347)
(3.92921e-08 3.92921e-08 -0.152347)
(4.55342e-08 8.76083e-08 -0.152347)
(3.78219e-08 1.31054e-07 -0.152347)
(-1.73315e-08 1.30073e-07 -0.152347)
(-2.47599e-08 1.72182e-07 -0.152347)
(-3.35701e-08 1.20409e-08 -0.152347)
(7.0462e-08 3.29357e-08 -0.152347)
(2.031e-07 -4.83607e-08 -0.152347)
(1.39993e-07 4.09638e-08 -0.152347)
(9.49106e-08 3.71385e-08 -0.152347)
(8.76083e-08 4.55342e-08 -0.152347)
(1.289e-07 1.289e-07 -0.152347)
(9.05462e-08 1.50876e-07 -0.152347)
(1.15055e-08 7.16997e-08 -0.152347)
(1.62363e-08 6.24173e-08 -0.152347)
(3.02128e-08 2.13714e-09 -0.152347)
(3.11633e-08 7.60015e-08 -0.152347)
(1.60677e-07 2.00087e-08 -0.152347)
(2.02153e-07 4.06592e-08 -0.152347)
(7.4973e-08 4.80818e-08 -0.152347)
(1.31054e-07 3.78219e-08 -0.152347)
(1.50876e-07 9.05462e-08 -0.152347)
(-1.93786e-08 -1.93786e-08 -0.152347)
(-1.0579e-07 -6.87411e-09 -0.152347)
(-3.40422e-08 1.56542e-08 -0.152347)
(4.02942e-08 -1.00979e-07 -0.152347)
(8.83335e-08 2.68564e-08 -0.152347)
(1.67757e-07 5.46904e-08 -0.152347)
(1.68066e-07 -4.69638e-08 -0.152347)
(9.20733e-08 -2.96225e-08 -0.152347)
(1.30073e-07 -1.73316e-08 -0.152347)
(7.16997e-08 1.15055e-08 -0.152347)
(-6.8741e-09 -1.0579e-07 -0.152347)
(4.65383e-08 4.65383e-08 -0.152347)
(3.87646e-08 5.59852e-08 -0.152347)
(1.58048e-07 -7.4146e-08 -0.152347)
(1.86833e-07 4.36083e-08 -0.152347)
(8.68571e-08 2.43534e-08 -0.152347)
(1.1784e-07 -3.72919e-08 -0.152347)
(1.04605e-07 -2.58729e-08 -0.152347)
(1.72182e-07 -2.47599e-08 -0.152347)
(6.24173e-08 1.62363e-08 -0.152347)
(1.56542e-08 -3.40422e-08 -0.152347)
(5.59852e-08 3.87646e-08 -0.152347)
(-2.45954e-08 -2.45953e-08 -0.152347)
(5.77328e-08 5.77329e-08 -0.152347)
(7.52295e-08 1.61528e-08 -0.152347)
(7.56433e-08 5.54999e-08 -0.152347)
(3.46453e-08 4.3492e-08 -0.152347)
(3.436e-08 5.06317e-08 -0.152347)
(5.89511e-09 1.77895e-08 -0.152347)
(-4.55958e-09 3.11098e-08 -0.152347)
(2.48516e-08 3.99844e-08 -0.152347)
(-1.38524e-07 3.6261e-08 -0.152347)
(-1.15969e-07 1.82082e-07 -0.152347)
(1.61528e-08 7.52294e-08 -0.152347)
(7.29964e-08 7.29965e-08 -0.152347)
(1.02982e-07 1.33215e-07 -0.152347)
(2.97771e-08 1.65307e-07 -0.152347)
(8.65749e-09 1.07475e-07 -0.152347)
(-1.36267e-08 1.2832e-07 -0.152347)
(1.76354e-08 1.15924e-07 -0.152347)
(3.00028e-08 3.96307e-08 -0.152347)
(3.57428e-09 8.11961e-08 -0.152347)
(2.98527e-08 1.90498e-07 -0.152347)
(5.54999e-08 7.56432e-08 -0.152347)
(1.33215e-07 1.02982e-07 -0.152347)
(1.67954e-07 1.67954e-07 -0.152347)
(8.90551e-09 1.07492e-07 -0.152347)
(-2.62677e-09 1.56566e-07 -0.152347)
(1.43436e-08 1.55458e-07 -0.152347)
(-9.32493e-08 1.68233e-07 -0.152347)
(-9.8758e-09 1.48346e-07 -0.152347)
(1.23441e-08 1.1507e-07 -0.152347)
(-6.66625e-09 4.49283e-08 -0.152347)
(4.3492e-08 3.46453e-08 -0.152347)
(1.65307e-07 2.97771e-08 -0.152347)
(1.07492e-07 8.9055e-09 -0.152347)
(1.83894e-08 1.83894e-08 -0.152347)
(5.66237e-08 7.80926e-08 -0.152347)
(-1.95946e-09 6.4565e-08 -0.152347)
(1.05238e-08 1.01401e-07 -0.152347)
(-2.31603e-08 1.54411e-07 -0.152347)
(-9.98435e-08 1.06549e-07 -0.152347)
(-4.02893e-08 9.04994e-08 -0.152347)
(5.06317e-08 3.436e-08 -0.152347)
(1.07475e-07 8.6575e-09 -0.152347)
(1.56566e-07 -2.62677e-09 -0.152347)
(7.80926e-08 5.66237e-08 -0.152347)
(4.35489e-08 4.35489e-08 -0.152347)
(3.76519e-08 3.33661e-08 -0.152347)
(-3.40317e-09 7.19387e-08 -0.152347)
(-4.72808e-09 4.24553e-08 -0.152347)
(-5.15676e-08 9.48944e-08 -0.152347)
(-2.27155e-08 8.42894e-08 -0.152347)
(1.77894e-08 5.8951e-09 -0.152347)
(1.2832e-07 -1.36267e-08 -0.152347)
(1.55458e-07 1.43436e-08 -0.152347)
(6.4565e-08 -1.95947e-09 -0.152347)
(3.33661e-08 3.76519e-08 -0.152347)
(2.64303e-08 2.64303e-08 -0.152347)
(1.96129e-08 9.34197e-08 -0.152347)
(-2.04638e-10 1.44362e-07 -0.152347)
(-5.80094e-08 9.78168e-08 -0.152347)
(-5.08943e-08 1.56626e-07 -0.152347)
(3.11098e-08 -4.55961e-09 -0.152347)
(1.15924e-07 1.76354e-08 -0.152347)
(1.68233e-07 -9.32493e-08 -0.152347)
(1.01401e-07 1.05238e-08 -0.152347)
(7.19387e-08 -3.40318e-09 -0.152347)
(9.34197e-08 1.96129e-08 -0.152347)
(1.14528e-07 1.14528e-07 -0.152347)
(-3.30912e-10 1.05666e-07 -0.152347)
(-3.93029e-08 2.93289e-08 -0.152347)
(3.6094e-08 7.45029e-08 -0.152347)
(3.99844e-08 2.48516e-08 -0.152347)
(3.96307e-08 3.00028e-08 -0.152347)
(1.48346e-07 -9.87581e-09 -0.152347)
(1.54411e-07 -2.31603e-08 -0.152347)
(4.24553e-08 -4.72807e-09 -0.152347)
(1.44362e-07 -2.04635e-10 -0.152347)
(1.05666e-07 -3.30915e-10 -0.152347)
(-8.54039e-08 -8.54039e-08 -0.152347)
(-8.91725e-08 2.28357e-09 -0.152347)
(-5.72024e-09 -3.35534e-08 -0.152347)
(3.6261e-08 -1.38524e-07 -0.152347)
(8.11961e-08 3.5743e-09 -0.152347)
(1.1507e-07 1.23442e-08 -0.152347)
(1.06549e-07 -9.98435e-08 -0.152347)
(9.48944e-08 -5.15676e-08 -0.152347)
(9.78169e-08 -5.80094e-08 -0.152347)
(2.93289e-08 -3.93029e-08 -0.152347)
(2.28357e-09 -8.91725e-08 -0.152347)
(1.25476e-08 1.25476e-08 -0.152347)
(2.57058e-10 3.3112e-08 -0.152347)
(1.82082e-07 -1.15969e-07 -0.152347)
(1.90498e-07 2.98527e-08 -0.152347)
(4.49283e-08 -6.66624e-09 -0.152347)
(9.04994e-08 -4.02893e-08 -0.152347)
(8.42894e-08 -2.27155e-08 -0.152347)
(1.56626e-07 -5.08942e-08 -0.152347)
(7.45029e-08 3.6094e-08 -0.152347)
(-3.35533e-08 -5.72024e-09 -0.152347)
(3.3112e-08 2.57065e-10 -0.152347)
(1.48441e-08 1.48441e-08 -0.152347)
(1.72696e-08 1.72696e-08 -0.152347)
(9.98688e-10 7.11215e-08 -0.152347)
(6.66277e-08 8.89017e-08 -0.152347)
(5.02532e-08 7.91334e-08 -0.152347)
(-4.62448e-08 3.86227e-08 -0.152347)