/*--------------------------------*- C++ -*----------------------------------*\
| =========                 |                                                 |
| \\      /  F ield         | OpenFOAM: The Open Source CFD Toolbox           |
|  \\    /   O peration     | Version:  v2106                                 |
|   \\  /    A nd           | Website:  www.openfoam.com                      |
|    \\/     M anipulation  |                                                 |
\*---------------------------------------------------------------------------*/
FoamFile
{
    version     2.0;
    format      ascii;
    arch        "LSB;label=32;scalar=64";
    class       volVectorField;
    location    "0";
    object      gradTmode5;
}
// * * * * * * * * * * * * * * * * * * * * * * * * * * * * * * * * * * * * * //

dimensions      [0 -1 0 0 0 0 0];

internalField   nonuniform List<vector> 
2000
(
(-30.6893 -30.6893 44.0981)
(-33.3461 -6.8726 10.2501)
(-14.7924 -11.2669 9.55536)
(-13.0833 -1.52383 -9.9815)
(-8.52455 2.05819 -8.03035)
(-12.8386 2.71624 -16.6886)
(-26.8353 9.98853 -14.6682)
(-53.3747 23.5194 -33.2837)
(-50.9626 36.4363 -66.5709)
(-19.1613 29.6911 -88.7843)
(-6.8726 -33.3461 10.2501)
(-13.9238 -13.9238 8.2369)
(-9.4436 -23.0627 4.93022)
(0.241773 -14.6328 -4.05657)
(-4.28448 -7.49273 3.50133)
(-4.90832 -4.52471 -6.78546)
(-6.03209 -3.7852 3.21455)
(-26.9269 13.3387 0.763719)
(-44.791 35.2395 -17.2904)
(-25.9065 33.8749 -47.6486)
(-11.2669 -14.7924 9.55536)
(-23.0627 -9.4436 4.93022)
(-15.5014 -15.5014 -10.0895)
(2.48664 -8.86056 -17.8822)
(1.58355 -14.2319 -0.242121)
(-9.13112 -16.3021 -4.51958)
(-8.97187 -24.7897 -4.82433)
(-14.35 -20.0437 -5.29529)
(-30.4265 -3.60878 -14.3039)
(-20.5259 5.9954 -38.6289)
(-1.52383 -13.0833 -9.9815)
(-14.6328 0.241774 -4.05657)
(-8.86056 2.48664 -17.8822)
(1.51129 1.51129 -7.97895)
(-11.7261 -11.9066 -1.22734)
(-15.4661 -17.352 -8.63398)
(-9.77364 -17.6478 -10.9508)
(-5.74599 -21.4179 -9.63017)
(-18.7519 -6.21226 -10.333)
(-16.3024 7.77583 -32.6985)
(2.05819 -8.52455 -8.03035)
(-7.49273 -4.28448 3.50133)
(-14.2319 1.58355 -0.24212)
(-11.9066 -11.726 -1.22734)
(-17.2798 -17.2798 0.0352993)
(-14.8724 -18.202 -8.69141)
(-13.0377 -15.0074 -8.7236)
(-2.91446 -22.096 -15.4917)
(-1.23278 -18.3474 -8.68633)
(-6.53785 4.49967 -20.8161)
(2.71624 -12.8387 -16.6886)
(-4.52471 -4.90831 -6.78546)
(-16.3021 -9.13112 -4.51959)
(-17.352 -15.4661 -8.63398)
(-18.202 -14.8724 -8.69141)
(-13.1938 -13.1938 -16.8485)
(-13.6677 -8.24569 -13.6429)
(-9.08597 -4.51337 -21.8452)
(7.84381 -16.5351 -20.2799)
(6.54471 -3.12516 -14.0926)
(9.98853 -26.8353 -14.6682)
(-3.7852 -6.03209 3.21455)
(-24.7897 -8.97187 -4.82433)
(-17.6478 -9.77364 -10.9508)
(-15.0074 -13.0377 -8.7236)
(-8.24569 -13.6677 -13.6429)
(-4.35733 -4.35733 -7.90015)
(-11.2039 -0.309282 -8.63708)
(0.155433 -10.5412 -14.4693)
(6.87214 -20.2916 -3.93469)
(23.5194 -53.3747 -33.2837)
(13.3387 -26.9269 0.763718)
(-20.0437 -14.35 -5.29529)
(-21.4179 -5.74599 -9.63017)
(-22.096 -2.91446 -15.4917)
(-4.51337 -9.08597 -21.8452)
(-0.30928 -11.2039 -8.63708)
(-15.2698 -15.2698 -9.8337)
(-12.1385 -8.90478 -12.8616)
(-3.20567 -16.5908 -15.2761)
(36.4363 -50.9626 -66.571)
(35.2395 -44.791 -17.2904)
(-3.60878 -30.4265 -14.3039)
(-6.21226 -18.7519 -10.333)
(-18.3474 -1.23279 -8.68634)
(-16.5351 7.84381 -20.2799)
(-10.5412 0.155434 -14.4693)
(-8.90479 -12.1385 -12.8616)
(-1.16552 -1.16552 -9.69283)
(-0.813869 1.62869 -6.27411)
(29.6911 -19.1613 -88.7843)
(33.8748 -25.9065 -47.6486)
(5.99541 -20.5259 -38.6289)
(7.77584 -16.3024 -32.6985)
(4.49966 -6.53785 -20.8161)
(-3.12515 6.5447 -14.0926)
(-20.2916 6.87214 -3.93469)
(-16.5908 -3.20566 -15.2761)
(1.62868 -0.813872 -6.27411)
(-0.411458 -0.411461 -10.8577)
(-3.59303 -3.59303 -52.585)
(-2.08153 7.37394 -22.1825)
(-2.3727 5.18573 -16.0192)
(-2.03332 4.27317 -12.0371)
(-0.893343 4.2108 -6.77733)
(-0.556973 0.226594 -2.30796)
(-2.33225 -0.95534 -1.47525)
(-12.266 2.50358 18.1198)
(-16.5941 6.49488 46.228)
(-8.84762 5.93004 63.4682)
(7.37394 -2.08152 -22.1825)
(6.69723 6.69724 -17.468)
(-5.47347 -0.865757 -5.00857)
(-3.00825 -2.99915 -6.89421)
(-4.93992 -2.79094 -8.09154)
(-5.72311 -6.10831 -3.28174)
(-0.0552647 -8.16823 -10.3247)
(-4.81575 -5.63115 -7.32027)
(-13.1676 -0.969934 13.7521)
(-9.41245 1.1758 38.8004)
(5.18573 -2.37271 -16.0192)
(-0.865758 -5.47347 -5.00857)
(-12.0691 -12.0691 6.39076)
(-3.9585 -10.2947 4.98833)
(-4.00249 -13.0692 -2.49729)
(-5.93426 -11.2863 -2.11456)
(-1.8551 -14.0712 -1.10036)
(-5.06767 -14.7778 1.77222)
(-9.78713 -11.9603 9.15699)
(-6.70188 -9.23268 26.4637)
(4.27317 -2.03332 -12.0371)
(-2.99915 -3.00826 -6.89421)
(-10.2947 -3.9585 4.98833)
(-4.00841 -4.00841 -3.06432)
(-5.93157 -7.32303 -5.74872)
(-6.72505 -8.0352 0.215645)
(-3.54676 -10.3435 3.77817)
(-2.70481 -14.3654 4.92872)
(-7.62246 -9.84042 4.46661)
(-6.68488 -8.40549 18.8774)
(4.2108 -0.893342 -6.77734)
(-2.79094 -4.93992 -8.09155)
(-13.0692 -4.0025 -2.49729)
(-7.32303 -5.93157 -5.74872)
(-8.02929 -8.02929 1.08603)
(-8.95473 -9.50653 5.27904)
(-8.18533 -9.20987 6.80226)
(-4.56459 -13.5112 10.2639)
(-3.82718 -14.9911 4.33707)
(-5.26695 -9.41532 9.64082)
(0.226594 -0.556977 -2.30797)
(-6.10831 -5.72311 -3.28174)
(-11.2863 -5.93426 -2.11456)
(-8.0352 -6.72506 0.215642)
(-9.50653 -8.95474 5.27903)
(-7.90564 -7.90564 11.7238)
(-7.5514 -7.61758 11.8552)
(-8.48607 -8.20353 16.9952)
(-3.52662 -15.9831 13.6148)
(-1.10907 -8.95774 6.1871)
(-0.955339 -2.33225 -1.47525)
(-8.16823 -0.0552665 -10.3247)
(-14.0712 -1.8551 -1.10036)
(-10.3435 -3.54676 3.77817)
(-9.20987 -8.18533 6.80226)
(-7.61758 -7.5514 11.8552)
(-8.48322 -8.48322 8.32135)
(-12.9301 -10.7589 7.72232)
(-4.58139 -12.1164 9.63614)
(1.75838 -13.4699 2.61441)
(2.50358 -12.266 18.1198)
(-5.63115 -4.81575 -7.32028)
(-14.7778 -5.06767 1.77222)
(-14.3654 -2.70482 4.92871)
(-13.5112 -4.56459 10.2639)
(-8.20353 -8.48607 16.9952)
(-10.7589 -12.9301 7.72232)
(-12.1193 -12.1193 7.48402)
(-6.23758 -10.6708 15.6836)
(-2.46254 -13.976 14.3596)
(6.49488 -16.5941 46.228)
(-0.969933 -13.1676 13.7521)
(-11.9603 -9.78713 9.15699)
(-9.84042 -7.62246 4.46661)
(-14.9911 -3.82718 4.33707)
(-15.9831 -3.52662 13.6148)
(-12.1164 -4.58139 9.63614)
(-10.6708 -6.23758 15.6836)
(-6.43819 -6.43819 8.67991)
(-1.54685 -7.83218 3.90034)
(5.93004 -8.84762 63.4682)
(1.1758 -9.41245 38.8004)
(-9.23268 -6.70188 26.4637)
(-8.40548 -6.68488 18.8774)
(-9.41532 -5.26694 9.64082)
(-8.95774 -1.10907 6.1871)
(-13.4699 1.75838 2.61441)
(-13.976 -2.46254 14.3596)
(-7.83218 -1.54685 3.90034)
(-3.85654 -3.85654 2.84493)
(-0.286767 -0.286766 0.309856)
(3.21971 -2.15806 5.81965)
(-4.64692 -0.256293 3.63846)
(-3.84148 3.61903 3.64722)
(1.20455 0.743984 5.355)
(-7.53656 1.74247 4.3292)
(-6.40747 1.13907 0.0351923)
(-5.67142 -1.92068 0.100307)
(-5.61425 3.9604 4.95384)
(-1.9211 5.02322 12.099)
(-2.15806 3.21971 5.81965)
(3.25018 3.25018 -1.7291)
(1.13017 -0.652749 -1.90738)
(-2.8412 2.39258 2.52852)
(-0.672014 -3.21268 1.30831)
(-7.14147 -4.33131 4.32959)
(-10.0706 -3.41032 0.676164)
(-2.8501 -3.00893 -2.7299)
(1.32965 -1.83155 0.611706)
(-0.858276 -3.12972 8.00731)
(-0.256292 -4.64692 3.63846)
(-0.652749 1.13017 -1.90738)
(-5.50452 -5.50452 4.17248)
(-6.40141 -5.03067 5.84776)
(-5.51934 -11.8891 6.16084)
(-7.7342 -12.8047 4.95086)
(-5.08509 -10.6868 4.24411)
(-4.09266 -7.7947 5.25578)
(-5.73504 -12.8943 2.8154)
(-3.21926 -13.9276 8.10803)
(3.61903 -3.84148 3.64722)
(2.39258 -2.84121 2.52852)
(-5.03067 -6.40141 5.84776)
(-9.22576 -9.22576 5.99922)
(-8.44608 -8.32326 6.30866)
(-5.93921 -9.95843 6.64106)
(-5.06057 -9.74519 4.8125)
(-5.05755 -12.9262 3.18069)
(-4.80322 -11.0322 1.80355)
(-1.89157 -9.04703 9.4583)
(0.743984 1.20455 5.355)
(-3.21268 -0.672013 1.3083)
(-11.8891 -5.51934 6.16084)
(-8.32326 -8.44609 6.30866)
(-6.25201 -6.25201 8.54421)
(-9.15612 -6.69391 5.8453)
(-8.0529 -6.93037 4.71869)
(-5.37966 -10.0296 6.75802)
(-1.85582 -9.19925 5.0466)
(-1.2341 -8.19063 9.72684)
(1.74247 -7.53657 4.3292)
(-4.33131 -7.14148 4.32959)
(-12.8047 -7.7342 4.95086)
(-9.95843 -5.93922 6.64106)
(-6.69391 -9.15612 5.8453)
(-6.61757 -6.61757 7.96176)
(-8.39624 -6.7266 6.91017)
(-7.32644 -7.05491 7.99327)
(-2.96427 -11.2361 9.72696)
(-0.882952 -10.1516 9.93738)
(1.13907 -6.40748 0.0351917)
(-3.41032 -10.0706 0.676162)
(-10.6868 -5.08509 4.24411)
(-9.74519 -5.06057 4.8125)
(-6.93036 -8.0529 4.71869)
(-6.7266 -8.39624 6.91017)
(-8.49024 -8.49024 3.07842)
(-9.88912 -9.82044 5.1462)
(-4.95247 -8.47238 9.53705)
(-0.149597 -12.1191 6.36633)
(-1.92068 -5.67143 0.100304)
(-3.00893 -2.8501 -2.7299)
(-7.7947 -4.09266 5.25578)
(-12.9262 -5.05756 3.18069)
(-10.0296 -5.37965 6.75802)
(-7.05491 -7.32644 7.99327)
(-9.82044 -9.88912 5.14621)
(-7.30857 -7.30857 9.27289)
(-5.26289 -9.86101 13.6968)
(-4.52963 -15.3049 12.7057)
(3.9604 -5.61425 4.95384)
(-1.83155 1.32965 0.611702)
(-12.8943 -5.73504 2.8154)
(-11.0322 -4.80322 1.80355)
(-9.19925 -1.85582 5.0466)
(-11.2361 -2.96427 9.72696)
(-8.47237 -4.95247 9.53705)
(-9.86101 -5.26289 13.6968)
(-12.9488 -12.9488 12.55)
(-5.59345 -9.886 10.8907)
(5.02322 -1.9211 12.099)
(-3.12972 -0.858277 8.00731)
(-13.9276 -3.21927 8.10802)
(-9.04702 -1.89157 9.4583)
(-8.19063 -1.2341 9.72683)
(-10.1516 -0.882952 9.93738)
(-12.1191 -0.149597 6.36633)
(-15.3049 -4.52963 12.7057)
(-9.886 -5.59345 10.8907)
(-1.46687 -1.46687 13.1911)
(1.91677 1.91677 -1.64273)
(1.24708 -0.174814 -2.65639)
(-4.54514 -0.360109 -2.59489)
(-0.316785 3.15448 3.64532)
(-0.211358 0.164108 -0.790673)
(-5.87678 0.226985 -0.552282)
(-6.56115 -0.314366 2.01537)
(-7.34732 -0.326624 2.3966)
(-4.59534 2.15274 4.96632)
(-1.70241 1.83831 3.92825)
(-0.174814 1.24708 -2.65639)
(-1.0298 -1.0298 2.02385)
(-1.21585 -0.331743 -1.05955)
(0.207433 -0.798614 1.01669)
(-3.13885 -1.9851 -1.17399)
(-6.35525 -5.48665 -1.40878)
(-7.11475 -3.95931 0.968225)
(-4.88021 -0.475675 2.5436)
(-2.4304 -3.10837 -0.41037)
(-2.01684 -2.81522 -1.71876)
(-0.36011 -4.54514 -2.59489)
(-0.331742 -1.21585 -1.05955)
(-4.31395 -4.31396 -1.56072)
(-1.97014 -6.82399 -1.40516)
(-4.8994 -8.06889 4.06179)
(-7.85099 -8.97487 1.9337)
(-1.55017 -9.93485 3.19636)
(-6.49638 -8.86724 3.89513)
(-6.93488 -10.7684 2.57724)
(-1.40926 -7.78169 5.12269)
(3.15448 -0.316787 3.64532)
(-0.798613 0.207431 1.01669)
(-6.82399 -1.97014 -1.40516)
(-3.5475 -3.5475 4.43936)
(-5.28973 -4.93967 7.49391)
(-8.22121 -7.14076 4.8305)
(-7.00712 -9.86893 3.39123)
(-5.71377 -12.8632 3.45406)
(-1.34485 -7.60922 5.35408)
(0.969873 -6.78668 8.04245)
(0.164108 -0.211361 -0.790675)
(-1.9851 -3.13885 -1.17399)
(-8.06889 -4.8994 4.06178)
(-4.93967 -5.28973 7.49391)
(-8.49265 -8.49265 7.74677)
(-12.7802 -8.18583 5.55426)
(-7.27261 -7.1122 5.21021)
(-4.23668 -8.69859 6.73115)
(-0.858362 -7.06772 6.3781)
(-0.586712 -8.93624 6.24953)
(0.226984 -5.87678 -0.552282)
(-5.48665 -6.35526 -1.40878)
(-8.97487 -7.851 1.93369)
(-7.14076 -8.22122 4.8305)
(-8.18583 -12.7803 5.55426)
(-6.84076 -6.84077 4.87789)
(-7.51989 -9.25785 4.09856)
(-5.66929 -9.81534 5.39171)
(-1.5825 -11.4926 6.54958)
(-0.898648 -12.3182 6.62726)
(-0.314367 -6.56115 2.01537)
(-3.95931 -7.11476 0.968224)
(-9.93485 -1.55017 3.19636)
(-9.86892 -7.00713 3.39123)
(-7.1122 -7.27261 5.21021)
(-9.25785 -7.51989 4.09855)
(-10.2472 -10.2472 2.1591)
(-6.47144 -9.47928 3.50318)
(-3.36127 -8.14654 6.85144)
(-1.41235 -10.7015 5.24418)
(-0.326624 -7.34732 2.3966)
(-0.475676 -4.88021 2.5436)
(-8.86724 -6.49638 3.89513)
(-12.8632 -5.71377 3.45406)
(-8.69859 -4.23668 6.73115)
(-9.81534 -5.66929 5.39171)
(-9.47928 -6.47144 3.50318)
(-3.56864 -3.56864 6.89572)
(-2.80474 -7.65789 8.26624)
(-3.45363 -9.45165 12.8247)
(2.15274 -4.59534 4.96632)
(-3.10837 -2.43041 -0.410371)
(-10.7684 -6.93488 2.57723)
(-7.60922 -1.34486 5.35408)
(-7.06772 -0.858364 6.3781)
(-11.4926 -1.58251 6.54958)
(-8.14654 -3.36127 6.85144)
(-7.65789 -2.80474 8.26624)
(-9.24428 -9.24428 14.0553)
(-3.20611 -7.34685 18.2951)
(1.83831 -1.70241 3.92825)
(-2.81522 -2.01685 -1.71876)
(-7.78169 -1.40926 5.12269)
(-6.78668 0.969871 8.04245)
(-8.93624 -0.586716 6.24952)
(-12.3182 -0.898649 6.62726)
(-10.7015 -1.41235 5.24418)
(-9.45165 -3.45363 12.8247)
(-7.34685 -3.20611 18.2951)
(-1.55621 -1.5562 16.2126)
(-1.30043 -1.30043 -3.76732)
(2.26755 2.52218 -3.62626)
(1.65479 1.27905 -0.775412)
(-2.03726 0.990403 -1.33139)
(-2.99305 0.360672 -2.57977)
(-4.73052 0.885971 -1.98471)
(-3.45859 0.0919324 -1.67298)
(-2.72047 -1.77367 -0.208302)
(-4.0826 -1.41629 3.10435)
(-2.95917 -0.623788 4.60941)
(2.52218 2.26755 -3.62626)
(4.84702 4.84702 -1.89821)
(0.123009 0.381417 -1.58902)
(-2.95564 -2.6579 -3.02894)
(-3.09748 1.63978 -0.528246)
(-4.99926 -1.84533 -1.31989)
(-6.11823 -2.22932 0.280098)
(-4.22869 -1.5104 -0.42456)
(-2.93272 -4.22064 0.548537)
(-2.16667 -1.93527 -0.184424)
(1.27905 1.65479 -0.775413)
(0.381417 0.123008 -1.58902)
(-5.85013 -5.85013 -0.847967)
(-0.778904 -1.608 0.0162279)
(-2.18048 -3.22118 0.912477)
(-8.59962 -6.56546 1.28618)
(-3.12366 -8.26381 0.911378)
(-4.71179 -6.88424 1.57976)
(-4.50748 -7.12982 4.4275)
(-0.673809 -4.16635 3.36656)
(0.990404 -2.03727 -1.33139)
(-2.65789 -2.95564 -3.02894)
(-1.608 -0.778906 0.0162286)
(-0.326689 -0.326689 5.05837)
(-8.05494 -4.63828 1.66467)
(-10.0419 -6.33787 1.87998)
(-6.43701 -7.73134 3.60632)
(-3.09471 -10.0902 4.44996)
(-0.214828 -7.23132 4.68787)
(0.796799 -7.92019 3.54212)
(0.360672 -2.99305 -2.57977)
(1.63978 -3.09748 -0.528246)
(-3.22118 -2.18049 0.912477)
(-4.63828 -8.05494 1.66467)
(-8.19166 -8.19166 0.113035)
(-11.6927 -6.64652 4.34081)
(-6.87601 -6.22304 5.40666)
(-4.21176 -8.09193 5.25023)
(-2.33745 -8.00375 3.62367)
(-1.36268 -9.60582 3.4996)
(0.885969 -4.73052 -1.9847)
(-1.84533 -4.99926 -1.31989)
(-6.56546 -8.59962 1.28618)
(-6.33787 -10.0419 1.87998)
(-6.64652 -11.6927 4.34081)
(-8.07327 -8.07327 6.05529)
(-7.88242 -9.77772 4.79921)
(-4.87542 -10.2829 6.59817)
(-1.72872 -10.7627 5.95999)
(-0.80527 -11.1569 6.0237)
(0.0919336 -3.4586 -1.67298)
(-2.22932 -6.11824 0.280097)
(-8.26381 -3.12366 0.911379)
(-7.73134 -6.43702 3.60632)
(-6.22304 -6.87601 5.40665)
(-9.77772 -7.88243 4.79921)
(-9.08561 -9.08562 7.27298)
(-5.19677 -8.31643 8.11876)
(-3.21147 -6.75572 7.64982)
(-1.75686 -5.92166 7.15845)
(-1.77367 -2.72048 -0.208304)
(-1.5104 -4.2287 -0.424564)
(-6.88424 -4.71179 1.57976)
(-10.0902 -3.09471 4.44996)
(-8.09193 -4.21176 5.25023)
(-10.2829 -4.87542 6.59817)
(-8.31642 -5.19677 8.11876)
(-2.54551 -2.54552 8.54434)
(0.666055 -2.6572 8.3625)
(0.0287906 -2.25392 13.7018)
(-1.41629 -4.08259 3.10435)
(-4.22063 -2.93272 0.548533)
(-7.12982 -4.50747 4.42749)
(-7.23131 -0.214829 4.68786)
(-8.00375 -2.33745 3.62366)
(-10.7627 -1.72872 5.95999)
(-6.75571 -3.21148 7.64982)
(-2.65719 0.666053 8.3625)
(-2.91988 -2.91988 15.4473)
(-1.35358 -6.49808 15.0062)
(-0.623791 -2.95916 4.6094)
(-1.93528 -2.16667 -0.184424)
(-4.16635 -0.673807 3.36656)
(-7.92019 0.7968 3.54212)
(-9.60582 -1.36268 3.4996)
(-11.1569 -0.80527 6.02369)
(-5.92165 -1.75686 7.15845)
(-2.25391 0.0287896 13.7018)
(-6.49808 -1.35358 15.0062)
(-3.54941 -3.54941 13.6289)
(2.05784 2.05784 -4.49482)
(4.23899 1.55323 -0.866783)
(-2.25028 -1.17372 -4.07903)
(-2.12115 1.45694 -5.59328)
(-0.86467 2.21564 -2.03146)
(-4.96998 0.891805 -3.2206)
(-4.78474 1.63871 -1.33541)
(-2.56999 -0.542881 -1.7181)
(0.222368 -0.403071 -0.317131)
(-0.19736 -2.95552 4.36261)
(1.55323 4.23899 -0.866782)
(1.00743 1.00743 -1.05708)
(-2.34657 -0.404298 -6.51469)
(1.26821 0.549008 -4.65941)
(-1.4298 1.50716 -2.73451)
(-5.54691 -2.21576 -3.05104)
(-6.21943 -1.37496 1.54594)
(-4.61177 1.31238 0.00318308)
(-2.19027 -1.78523 1.05743)
(-2.74981 -4.05806 0.520576)
(-1.17372 -2.25028 -4.07903)
(-0.404295 -2.34657 -6.51469)
(-2.7087 -2.7087 -4.43443)
(-0.209694 1.26332 -3.78572)
(-3.62944 -5.87598 -5.52917)
(-7.85209 -5.77501 -3.25714)
(-1.2566 -6.60863 0.337136)
(-2.98026 -3.99272 0.956536)
(-5.14808 -6.62908 2.15872)
(-2.47019 -4.05515 0.855873)
(1.45694 -2.12115 -5.59329)
(0.549008 1.26821 -4.65941)
(1.26332 -0.209696 -3.78572)
(-1.89906 -1.89907 -4.92119)
(-8.46812 -5.73911 -5.01388)
(-6.27956 -4.08613 -1.89498)
(-4.43715 -5.37365 2.48451)
(-4.63222 -9.19272 1.91712)
(-2.25269 -8.41305 2.16625)
(-0.175878 -6.65364 1.73792)
(2.21564 -0.864672 -2.03146)
(1.50716 -1.4298 -2.73451)
(-5.87598 -3.62944 -5.52917)
(-5.73911 -8.46813 -5.01388)
(-5.8165 -5.81651 -4.52494)
(-7.48663 -4.01052 -0.977033)
(-6.36319 -5.91931 2.64323)
(-6.01967 -6.55038 3.07967)
(-2.60899 -5.7956 3.22928)
(-0.710777 -6.45467 4.62157)
(0.891804 -4.96998 -3.2206)
(-2.21576 -5.54691 -3.05104)
(-5.77501 -7.8521 -3.25714)
(-4.08613 -6.27957 -1.89498)
(-4.01052 -7.48663 -0.977033)
(-6.38236 -6.38237 2.11056)
(-6.977 -7.39153 4.94815)
(-4.50851 -6.94681 6.91131)
(-2.15698 -7.46646 6.67087)
(-0.834943 -8.6594 7.47574)
(1.63871 -4.78475 -1.33541)
(-1.37496 -6.21943 1.54593)
(-6.60863 -1.2566 0.337136)
(-5.37365 -4.43715 2.48451)
(-5.91931 -6.36319 2.64323)
(-7.39152 -6.977 4.94815)
(-6.92763 -6.92763 8.50122)
(-6.0946 -7.53312 7.54419)
(-4.32158 -5.74403 8.40029)
(-1.90372 -3.02344 8.27476)
(-0.542883 -2.57 -1.7181)
(1.31238 -4.61178 0.00318236)
(-3.99272 -2.98027 0.956535)
(-9.19272 -4.63222 1.91712)
(-6.55037 -6.01967 3.07967)
(-6.94681 -4.50851 6.91131)
(-7.53311 -6.0946 7.54419)
(-3.3249 -3.3249 7.70108)
(2.3527 0.139597 9.54914)
(1.88565 -1.60394 9.20178)
(-0.403073 0.222367 -0.317129)
(-1.78523 -2.19027 1.05743)
(-6.62907 -5.14808 2.15872)
(-8.41305 -2.25269 2.16625)
(-5.7956 -2.60899 3.22928)
(-7.46646 -2.15698 6.67087)
(-5.74402 -4.32158 8.40029)
(0.139599 2.3527 9.54914)
(-2.60061 -2.60062 9.56064)
(-3.64725 -7.41976 6.67405)
(-2.95552 -0.197359 4.36261)
(-4.05806 -2.7498 0.520577)
(-4.05515 -2.47019 0.855869)
(-6.65364 -0.175876 1.73792)
(-6.45466 -0.710777 4.62157)
(-8.6594 -0.834943 7.47574)
(-3.02343 -1.90372 8.27476)
(-1.60394 1.88565 9.20178)
(-7.41976 -3.64725 6.67405)
(-2.93349 -2.9335 9.1169)
(2.32761 2.32761 -6.75654)
(2.68334 2.33189 -9.87611)
(-3.07171 -1.15662 -11.5343)
(0.0103053 1.92428 -8.09458)
(-0.62036 -0.342376 -8.78123)
(-4.03447 1.05553 -7.90909)
(-1.9561 2.97328 -3.95337)
(-1.70219 -0.0523829 -3.05468)
(1.99812 -0.0417276 -2.79962)
(1.72057 -4.46582 1.49542)
(2.33189 2.68334 -9.87611)
(-0.800889 -0.800888 -9.3577)
(-3.47932 0.0260116 -10.7506)
(0.824547 -0.850335 -9.78986)
(-1.48911 -1.85793 -11.625)
(-0.718819 -1.88187 -8.08106)
(-3.06401 -0.556778 -5.20945)
(-4.7172 1.16424 -2.76025)
(-2.41532 -1.74478 -1.84584)
(-2.70352 -5.44201 -0.867123)
(-1.15662 -3.07172 -11.5343)
(0.026013 -3.47932 -10.7506)
(-3.12116 -3.12116 -13.0808)
(-1.87364 -1.86978 -12.8974)
(-1.6519 -5.50055 -12.0256)
(-2.73332 -5.4094 -8.70737)
(1.09001 -7.32523 -4.66398)
(-2.8902 -4.97031 -3.03509)
(-4.60814 -6.021 -1.89466)
(-1.97666 -2.94901 -0.0758461)
(1.92428 0.0103015 -8.09458)
(-0.850331 0.824543 -9.78987)
(-1.86978 -1.87364 -12.8974)
(-1.55485 -1.55485 -13.7381)
(-5.02873 -3.63406 -10.6263)
(-2.5435 -4.05777 -7.16258)
(-2.62492 -5.42524 -3.75861)
(-3.41296 -7.96709 -2.53279)
(-0.394025 -6.16075 1.1949)
(0.368466 -4.15449 1.90491)
(-0.342375 -0.620362 -8.78123)
(-1.85793 -1.48912 -11.625)
(-5.50055 -1.6519 -12.0256)
(-3.63405 -5.02873 -10.6263)
(-4.15481 -4.15482 -8.15617)
(-4.52451 -2.64098 -5.5494)
(-2.81931 -3.75941 -1.9317)
(-3.62571 -3.09775 1.05414)
(-0.79554 -3.49913 3.26574)
(0.0296045 -3.868 3.59901)
(1.05553 -4.03447 -7.9091)
(-1.88187 -0.71882 -8.08106)
(-5.4094 -2.73332 -8.70737)
(-4.05776 -2.5435 -7.16259)
(-2.64098 -4.52451 -5.5494)
(-2.14809 -2.14809 -2.74009)
(-3.08168 -3.91972 0.591739)
(-3.15269 -5.81835 2.90497)
(-1.16428 -5.59172 3.36384)
(-0.000401349 -7.50372 4.81126)
(2.97328 -1.9561 -3.95337)
(-0.556777 -3.06401 -5.20945)
(-7.32523 1.09001 -4.66398)
(-5.42524 -2.62492 -3.7586)
(-3.7594 -2.81931 -1.9317)
(-3.91972 -3.08168 0.591739)
(-6.48957 -6.48957 1.84408)
(-5.29771 -7.52666 1.38622)
(-2.48091 -3.87745 6.02419)
(-1.88239 -4.19562 4.45102)
(-0.0523832 -1.7022 -3.05468)
(1.16424 -4.7172 -2.76025)
(-4.97031 -2.89021 -3.03509)
(-7.96708 -3.41297 -2.53279)
(-3.09774 -3.62571 1.05414)
(-5.81835 -3.15269 2.90497)
(-7.52665 -5.29771 1.38622)
(-0.540567 -0.540572 4.26428)
(2.16676 -1.49685 6.17958)
(-0.318572 -3.85463 1.89987)
(-0.0417278 1.99812 -2.79962)
(-1.74479 -2.41532 -1.84584)
(-6.021 -4.60814 -1.89466)
(-6.16075 -0.394024 1.1949)
(-3.49913 -0.79554 3.26574)
(-5.59172 -1.16428 3.36384)
(-3.87745 -2.4809 6.02419)
(-1.49685 2.16676 6.17958)
(-5.79496 -5.79496 2.61298)
(-4.24017 -6.58295 3.60374)
(-4.46582 1.72057 1.49542)
(-5.44201 -2.70352 -0.86712)
(-2.94901 -1.97666 -0.0758471)
(-4.15448 0.368467 1.90491)
(-3.868 0.0296048 3.59901)
(-7.50372 -0.000402056 4.81126)
(-4.19562 -1.88239 4.45102)
(-3.85463 -0.31857 1.89988)
(-6.58295 -4.24017 3.60374)
(-1.10656 -1.10656 3.50203)
(-1.06173 -1.06173 -16.3957)
(-0.538795 2.07165 -17.3736)
(-0.468741 -0.389956 -15.6139)
(0.631951 -0.238351 -14.2528)
(-0.679185 -0.628125 -15.4718)
(-0.142122 0.719841 -10.0684)
(0.0696693 0.382633 -8.10522)
(-1.41624 -0.248448 -5.19681)
(4.77247 0.550706 -2.9831)
(4.09768 -5.31806 -0.24884)
(2.07165 -0.538794 -17.3736)
(0.132982 0.132982 -20.259)
(-2.77874 -1.95078 -16.2423)
(0.393782 -4.25384 -17.6625)
(0.279007 -1.73726 -14.8315)
(0.868636 -3.01404 -11.8429)
(-0.898619 -2.08557 -11.1642)
(-1.24816 1.33198 -4.96153)
(-0.297143 -0.880274 -3.14724)
(-1.77109 -5.62933 -2.20332)
(-0.389957 -0.468743 -15.6139)
(-1.95078 -2.77874 -16.2423)
(-4.85556 -4.85556 -18.6993)
(0.845469 -2.68493 -16.2714)
(0.560617 -4.87725 -13.0539)
(-0.49043 -4.85653 -11.6349)
(4.41568 -5.15779 -8.92197)
(-0.210944 -3.76526 -4.97116)
(-2.18883 -3.58834 -2.57726)
(-0.651376 -1.28312 0.0690405)
(-0.238351 0.63195 -14.2528)
(-4.25384 0.393779 -17.6625)
(-2.68493 0.845468 -16.2714)
(0.372099 0.372099 -15.0696)
(-1.89259 -1.86964 -12.5489)
(0.588094 -0.928165 -9.8254)
(0.192649 -2.64137 -6.89317)
(0.321287 -5.10349 -3.06988)
(2.185 -3.25265 1.24283)
(0.534131 -2.97878 1.1711)
(-0.628127 -0.679188 -15.4718)
(-1.73726 0.279004 -14.8315)
(-4.87724 0.560612 -13.0539)
(-1.86964 -1.8926 -12.5489)
(-0.739647 -0.739649 -10.1322)
(-1.26216 0.411976 -7.21274)
(0.240358 -1.56896 -4.16129)
(-0.822229 -1.11262 -0.238214)
(-0.0641199 -3.62666 1.90482)
(-0.377504 -3.54831 0.840827)
(0.719841 -0.142128 -10.0684)
(-3.01404 0.868632 -11.8429)
(-4.85653 -0.490435 -11.6349)
(-0.928162 0.58809 -9.8254)
(0.41198 -1.26216 -7.21274)
(-0.241221 -0.241225 -5.25056)
(-1.33194 -3.61575 -3.59059)
(-1.73641 -6.61473 0.444773)
(-0.25069 -4.70801 1.57138)
(0.612482 -7.80739 1.16791)
(0.382633 0.0696656 -8.10522)
(-2.08556 -0.898622 -11.1642)
(-5.15779 4.41568 -8.92198)
(-2.64136 0.192647 -6.89317)
(-1.56896 0.240355 -4.16129)
(-3.61575 -1.33195 -3.59059)
(-6.13315 -6.13315 -1.70213)
(-1.91449 -6.1738 1.73558)
(-1.25677 -2.92828 4.05189)
(-3.47688 -5.93483 1.42403)
(-0.248447 -1.41624 -5.19681)
(1.33198 -1.24816 -4.96153)
(-3.76526 -0.210945 -4.97116)
(-5.10349 0.321285 -3.06988)
(-1.11261 -0.82223 -0.238214)
(-6.61473 -1.73641 0.444775)
(-6.1738 -1.91449 1.73558)
(1.46846 1.46846 4.90069)
(-0.0117103 -3.27161 2.08234)
(-2.39406 -2.45122 2.92543)
(0.550707 4.77247 -2.9831)
(-0.880272 -0.29714 -3.14725)
(-3.58834 -2.18884 -2.57725)
(-3.25265 2.185 1.24283)
(-3.62666 -0.0641212 1.90482)
(-4.70801 -0.250692 1.57138)
(-2.92828 -1.25678 4.05189)
(-3.27161 -0.011711 2.08234)
(-5.17645 -5.17646 3.77817)
(-2.65649 -5.81761 6.54356)
(-5.31806 4.09768 -0.248843)
(-5.62933 -1.77109 -2.20332)
(-1.28312 -0.651378 0.0690442)
(-2.97878 0.53413 1.17111)
(-3.54831 -0.377505 0.840826)
(-7.80738 0.61248 1.16791)
(-5.93482 -3.47688 1.42403)
(-2.45122 -2.39406 2.92543)
(-5.81761 -2.65649 6.54356)
(-3.03521 -3.03521 5.151)
(1.34974 1.34974 -22.6749)
(3.46513 -0.553512 -19.0352)
(0.0490286 -1.78497 -15.9186)
(0.152428 -1.48538 -18.3122)
(3.56406 0.297883 -14.7117)
(3.33209 -0.719017 -11.1503)
(2.91549 -0.085693 -9.02465)
(3.41993 0.182898 -2.94946)
(6.94608 -0.205875 -1.7998)
(4.45483 -6.4203 -2.17585)
(-0.553509 3.46512 -19.0352)
(0.330415 0.330411 -17.2074)
(-0.882837 -3.05941 -17.2056)
(2.23528 -2.86895 -17.451)
(4.33042 0.559928 -14.0034)
(2.94852 -3.44833 -11.5108)
(3.81741 -1.37354 -7.89712)
(3.29974 1.38989 -3.4999)
(0.342885 -1.33894 -3.30154)
(-1.7596 -5.12413 -2.28013)
(-1.78497 0.0490289 -15.9186)
(-3.05941 -0.882841 -17.2056)
(-3.15033 -3.15034 -16.2826)
(3.77177 0.723099 -13.3565)
(2.98468 -3.21795 -10.917)
(1.39863 -3.39185 -7.73963)
(7.75371 -3.05421 -7.52775)
(3.45452 -3.07866 -4.00527)
(0.432062 -1.63093 -1.76313)
(0.669639 0.425413 0.243266)
(-1.48538 0.152429 -18.3122)
(-2.86895 2.23528 -17.451)
(0.723104 3.77177 -13.3565)
(2.16767 2.16766 -11.6321)
(0.215468 -0.712331 -9.68896)
(3.11225 0.364351 -8.46908)
(4.1306 -0.664556 -6.46948)
(4.72303 -3.23414 -1.98487)
(3.84696 -1.67867 0.36576)
(0.296743 -3.3827 -0.663683)
(0.297882 3.56406 -14.7117)
(0.559928 4.33042 -14.0034)
(-3.21795 2.98467 -10.917)
(-0.712329 0.215466 -9.68896)
(1.18136 1.18136 -8.82046)
(1.4464 1.93386 -8.13335)
(4.15522 -0.456825 -4.617)
(2.4404 0.416909 -0.785455)
(0.283501 -3.17058 -0.490694)
(-1.03439 -3.8712 -0.99637)
(-0.719017 3.33209 -11.1503)
(-3.44833 2.94851 -11.5108)
(-3.39185 1.39863 -7.73963)
(0.364353 3.11225 -8.46908)
(1.93386 1.4464 -8.13335)
(1.47407 1.47406 -6.44948)
(2.61365 -1.46057 -3.63304)
(2.00927 -3.84456 1.18553)
(-0.441145 -3.44465 1.71749)
(-0.403872 -6.92052 0.878725)
(-0.0856924 2.91549 -9.02465)
(-1.37354 3.8174 -7.89712)
(-3.05421 7.75371 -7.52775)
(-0.664554 4.1306 -6.46947)
(-0.456823 4.15522 -4.617)
(-1.46057 2.61365 -3.63304)
(-1.16341 -1.16341 0.898911)
(0.456319 -3.07074 4.26194)
(-2.79246 -3.36649 2.30423)
(-4.51026 -2.4381 2.89841)
(0.182898 3.41992 -2.94945)
(1.38989 3.29974 -3.4999)
(-3.07866 3.45452 -4.00527)
(-3.23414 4.72303 -1.98486)
(0.416912 2.44039 -0.785454)
(-3.84456 2.00927 1.18553)
(-3.07074 0.456319 4.26194)
(-0.193809 -0.193809 5.46329)
(0.191492 -1.77057 3.94632)
(0.524518 1.2649 8.28247)
(-0.205877 6.94608 -1.7998)
(-1.33894 0.342884 -3.30154)
(-1.63092 0.432061 -1.76312)
(-1.67868 3.84696 0.365761)
(-3.17058 0.2835 -0.490695)
(-3.44464 -0.441146 1.71749)
(-3.36649 -2.79246 2.30423)
(-1.77057 0.191493 3.94632)
(-1.33375 -1.33374 7.22228)
(-1.47479 -4.35738 6.38724)
(-6.4203 4.45482 -2.17585)
(-5.12413 -1.75959 -2.28013)
(0.425416 0.669638 0.243268)
(-3.3827 0.296744 -0.663682)
(-3.87119 -1.03439 -0.996369)
(-6.92052 -0.403871 0.878724)
(-2.4381 -4.51026 2.89841)
(1.2649 0.524518 8.28246)
(-4.35738 -1.47479 6.38724)
(-2.49912 -2.49912 8.65372)
(2.57794 2.57794 -13.3554)
(6.21743 3.8994 -12.8457)
(0.254284 -1.67695 -11.6103)
(1.83893 0.622815 -13.1448)
(6.4827 0.0801285 -8.31677)
(5.54489 0.359292 -7.90906)
(8.27049 1.51016 -3.93132)
(5.80861 -0.798893 -2.09652)
(5.54608 -0.951034 -3.45145)
(3.72163 -5.42234 -2.79424)
(3.8994 6.21743 -12.8457)
(1.96254 1.96254 -9.72954)
(-3.0223 -2.31476 -11.1942)
(3.59601 0.701807 -8.63883)
(6.21918 2.05742 -7.32274)
(6.97491 0.396613 -5.56842)
(7.11231 -0.588673 -3.42232)
(3.34742 0.276164 -3.42942)
(0.922629 -0.8436 -2.88652)
(-0.74968 -3.21021 -0.998226)
(-1.67695 0.254282 -11.6103)
(-2.31476 -3.0223 -11.1942)
(-1.00645 -1.00645 -6.81947)
(6.2111 3.13394 -7.05705)
(6.17751 -0.562802 -6.14069)
(2.8988 -1.81478 -3.23467)
(8.15004 -3.73014 -4.02713)
(5.55368 -2.25023 -2.18933)
(2.0597 0.0789626 -1.35103)
(1.35501 0.333331 -1.23549)
(0.622816 1.83893 -13.1448)
(0.701808 3.59601 -8.63883)
(3.13395 6.2111 -7.05705)
(4.03966 4.03966 -6.7651)
(1.27045 0.226882 -5.17004)
(3.80758 -1.32189 -3.97101)
(6.67686 0.269389 -2.79944)
(7.15652 -1.88368 -1.1186)
(3.50619 -1.98022 -1.32435)
(-0.495312 -4.21841 -1.42036)
(0.0801289 6.4827 -8.31677)
(2.05742 6.21918 -7.32274)
(-0.5628 6.17751 -6.14069)
(0.226882 1.27045 -5.17004)
(0.815962 0.815961 -4.13726)
(2.9413 2.43157 -3.64003)
(7.58825 1.26747 -1.71697)
(3.30408 2.05777 -0.358024)
(-0.275035 -2.27493 -0.935771)
(-0.883179 -2.0059 0.270929)
(0.359292 5.54488 -7.90905)
(0.396614 6.97491 -5.56841)
(-1.81478 2.89879 -3.23467)
(-1.32188 3.80757 -3.97101)
(2.43157 2.9413 -3.64003)
(4.25909 4.25909 -2.18204)
(6.30306 1.90016 -0.0448237)
(3.61412 -1.56734 2.04984)
(-0.55749 -1.91309 0.878394)
(-0.226287 -3.91261 3.28085)
(1.51016 8.27049 -3.93132)
(-0.588671 7.11231 -3.42232)
(-3.73014 8.15004 -4.02713)
(0.26939 6.67686 -2.79944)
(1.26748 7.58825 -1.71697)
(1.90016 6.30306 -0.0448234)
(1.76182 1.76182 2.89377)
(-0.509175 -1.89604 1.9787)
(-2.62031 -0.699457 1.75904)
(-2.8827 1.46892 6.2753)
(-0.798893 5.80861 -2.09652)
(0.276165 3.34742 -3.42942)
(-2.25023 5.55368 -2.18933)
(-1.88368 7.15652 -1.1186)
(2.05778 3.30407 -0.358023)
(-1.56734 3.61412 2.04984)
(-1.89604 -0.509177 1.9787)
(1.15284 1.15284 2.3117)
(2.80746 1.64645 6.62275)
(1.94209 1.03761 7.35071)
(-0.951037 5.54607 -3.45144)
(-0.843602 0.922625 -2.88651)
(0.078964 2.0597 -1.35103)
(-1.98022 3.50619 -1.32434)
(-2.27493 -0.275036 -0.935767)
(-1.91309 -0.557495 0.878395)
(-0.699455 -2.62031 1.75904)
(1.64645 2.80746 6.62275)
(-2.73553 -2.73554 5.81864)
(-3.49154 -5.44635 5.14079)
(-5.42234 3.72162 -2.79423)
(-3.21021 -0.749683 -0.998222)
(0.333334 1.35501 -1.23549)
(-4.21841 -0.495313 -1.42036)
(-2.0059 -0.883179 0.270933)
(-3.91261 -0.226288 3.28085)
(1.46892 -2.8827 6.2753)
(1.03761 1.94208 7.35071)
(-5.44635 -3.49154 5.14079)
(-0.768727 -0.768727 6.14864)
(1.85946 1.85946 -7.63005)
(5.21026 2.56264 -7.98632)
(-0.250075 -1.36893 -9.59391)
(3.44593 3.02059 -6.34555)
(8.7998 1.29191 -5.27024)
(7.71754 1.62162 -3.13095)
(8.72803 0.423308 -2.26658)
(3.8998 -1.15 -4.08369)
(6.24836 0.359052 -3.25446)
(5.11203 -4.62429 -0.826303)
(2.56264 5.21026 -7.98632)
(1.98188 1.98188 -10.7333)
(0.207875 1.73139 -6.68678)
(6.10677 3.2188 -4.82102)
(7.40083 2.736 -3.5434)
(6.84893 1.22605 -1.88724)
(5.95641 -1.46934 -3.70577)
(3.83555 1.29707 -2.89418)
(2.77408 0.761475 -1.15463)
(0.128696 -3.56539 -1.25925)
(-1.36893 -0.250076 -9.59392)
(1.73139 0.207876 -6.68678)
(0.986845 0.986843 -4.17366)
(4.45054 2.59683 -5.68124)
(6.80706 -1.06525 -4.15379)
(3.5122 -1.79444 -2.62537)
(8.79905 -2.43133 -1.59772)
(6.13062 -0.767843 -0.627754)
(1.3859 -0.068754 -1.42145)
(0.785172 0.00328018 -1.79454)
(3.02059 3.44593 -6.34555)