/*--------------------------------*- C++ -*----------------------------------*\
| =========                 |                                                 |
| \\      /  F ield         | OpenFOAM: The Open Source CFD Toolbox           |
|  \\    /   O peration     | Version:  v2106                                 |
|   \\  /    A nd           | Website:  www.openfoam.com                      |
|    \\/     M anipulation  |                                                 |
\*---------------------------------------------------------------------------*/
FoamFile
{
    version     2.0;
    format      ascii;
    arch        "LSB;label=32;scalar=64";
    class       volVectorField;
    location    "0";
    object      gradTmode3;
}
// * * * * * * * * * * * * * * * * * * * * * * * * * * * * * * * * * * * * * //

dimensions      [0 -1 0 0 0 0 0];

internalField   nonuniform List<vector> 
2000
(
(-1.12755 -1.12755 -9.5851)
(-1.12382 -0.218117 -10.9733)
(-0.300832 -0.446143 -11.02)
(-0.179108 -0.0766555 -11.7738)
(-0.00146309 0.0404825 -11.7191)
(-0.170453 0.10553 -12.0233)
(-0.637765 0.377677 -11.9532)
(-1.58566 0.859493 -12.5795)
(-1.64017 1.30873 -13.6997)
(-0.648739 1.08243 -14.4831)
(-0.218117 -1.12382 -10.9733)
(-0.442414 -0.442414 -11.1081)
(-0.159371 -0.754957 -11.3473)
(0.307517 -0.467612 -11.6812)
(0.180722 -0.213824 -11.4336)
(0.166742 -0.0729108 -11.7327)
(0.116198 -0.0112221 -11.3872)
(-0.654604 0.584098 -11.4278)
(-1.41723 1.36001 -12.0105)
(-0.875042 1.33928 -13.0769)
(-0.446143 -0.300832 -11.02)
(-0.754957 -0.159371 -11.3473)
(-0.32603 -0.32603 -11.8852)
(0.362026 -0.103072 -12.2063)
(0.393238 -0.272341 -11.5987)
(0.0321489 -0.356446 -11.7004)
(0.0192437 -0.662079 -11.6756)
(-0.214429 -0.499269 -11.6515)
(-0.884986 0.0938447 -11.8819)
(-0.669466 0.459848 -12.7091)
(-0.0766556 -0.179108 -11.7738)
(-0.467612 0.307517 -11.6812)
(-0.103072 0.362026 -12.2063)
(0.361206 0.361206 -11.8691)
(-0.0726522 -0.0959261 -11.6303)
(-0.222995 -0.304551 -11.8438)
(-0.0266237 -0.346173 -11.9083)
(0.101319 -0.484286 -11.8248)
(-0.458116 0.0523233 -11.7812)
(-0.509038 0.564399 -12.4887)
(0.0404825 -0.00146304 -11.7191)
(-0.213824 0.180722 -11.4336)
(-0.272341 0.393238 -11.5987)
(-0.0959262 -0.0726522 -11.6303)
(-0.272519 -0.272519 -11.5638)
(-0.218098 -0.311329 -11.8091)
(-0.160491 -0.19954 -11.7953)
(0.184068 -0.459257 -12.0034)
(0.163699 -0.336133 -11.6914)
(-0.15739 0.476987 -12.0176)
(0.10553 -0.170453 -12.0233)
(-0.0729108 0.166742 -11.7327)
(-0.356447 0.032149 -11.7004)
(-0.304551 -0.222995 -11.8438)
(-0.311329 -0.218098 -11.8091)
(-0.150017 -0.150017 -12.0601)
(-0.174552 0.0324536 -11.9415)
(-0.0352736 0.154383 -12.1782)
(0.478128 -0.280711 -12.0382)
(0.304082 0.183812 -11.7032)
(0.377677 -0.637765 -11.9532)
(-0.011222 0.116199 -11.3872)
(-0.662079 0.0192438 -11.6756)
(-0.346173 -0.0266236 -11.9083)
(-0.19954 -0.160491 -11.7953)
(0.0324536 -0.174552 -11.9415)
(0.143908 0.143908 -11.7173)
(-0.129097 0.270697 -11.6826)
(0.193128 -0.132403 -11.7838)
(0.307134 -0.46634 -11.3017)
(0.859493 -1.58566 -12.5795)
(0.584098 -0.654604 -11.4278)
(-0.499269 -0.214429 -11.6515)
(-0.484286 0.101319 -11.8248)
(-0.459257 0.184068 -12.0034)
(0.154383 -0.0352736 -12.1782)
(0.270697 -0.129097 -11.6826)
(-0.311585 -0.311585 -11.6378)
(-0.258908 -0.070259 -11.6736)
(-0.0298547 -0.36974 -11.6162)
(1.30873 -1.64017 -13.6997)
(1.36001 -1.41723 -12.0105)
(0.0938446 -0.884986 -11.8819)
(0.0523233 -0.458116 -11.7812)
(-0.336133 0.163699 -11.6914)
(-0.280711 0.478128 -12.0382)
(-0.132403 0.193129 -11.7838)
(-0.070259 -0.258908 -11.6736)
(0.134974 0.134974 -11.4071)
(0.00765307 0.215282 -11.2327)
(1.08243 -0.648739 -14.4831)
(1.33928 -0.875042 -13.0769)
(0.459848 -0.669466 -12.7091)
(0.564399 -0.509039 -12.4887)
(0.476987 -0.15739 -12.0176)
(0.183812 0.304082 -11.7032)
(-0.46634 0.307134 -11.3017)
(-0.36974 -0.0298547 -11.6162)
(0.215282 0.00765304 -11.2327)
(0.0504535 0.0504534 -11.3317)
(-0.216648 -0.216648 -12.752)
(-0.0612128 0.248307 -11.7766)
(0.0958598 0.126889 -11.6336)
(0.129888 0.11553 -11.5861)
(0.254283 0.116142 -11.4411)
(0.309774 0.00897792 -11.2722)
(0.248722 -0.0434557 -11.188)
(-0.128918 0.0870297 -10.5116)
(-0.390224 0.221155 -9.47116)
(-0.257539 0.197511 -8.79191)
(0.248307 -0.0612128 -11.7766)
(0.282324 0.282324 -11.6876)
(-0.0369177 -0.0241646 -11.2629)
(0.119142 -0.0748537 -11.4124)
(0.147731 -0.0496528 -11.4945)
(0.150176 -0.13379 -11.3348)
(0.326774 -0.208723 -11.5447)
(0.135692 -0.119503 -11.4593)
(-0.279743 0.0588221 -10.7066)
(-0.281183 0.149791 -9.77767)
(0.126889 0.0958599 -11.6336)
(-0.0241646 -0.0369176 -11.2629)
(-0.261318 -0.261318 -10.9553)
(0.1044 -0.177941 -11.0369)
(0.195346 -0.250127 -11.3214)
(0.150703 -0.195387 -11.2947)
(0.263009 -0.289519 -11.2697)
(0.138627 -0.339382 -11.1676)
(-0.12093 -0.23979 -10.8387)
(-0.16657 -0.0933341 -10.1812)
(0.11553 0.129889 -11.5861)
(-0.0748537 0.119142 -11.4124)
(-0.177941 0.1044 -11.0369)
(0.130332 0.130332 -11.3537)
(0.130285 0.0180554 -11.4592)
(0.110784 -0.00504647 -11.2466)
(0.182778 -0.0882323 -11.0984)
(0.185421 -0.234296 -11.0819)
(-0.0336946 -0.0929657 -11.0633)
(-0.134727 -0.00959456 -10.4887)
(0.116142 0.254283 -11.4411)
(-0.0496528 0.147731 -11.4945)
(-0.250127 0.195346 -11.3214)
(0.0180553 0.130285 -11.4592)
(0.0599673 0.0599674 -11.253)
(0.0444153 -0.0153721 -11.0926)
(0.0337594 -0.00207832 -11.0001)
(0.133894 -0.125979 -10.8687)
(0.103771 -0.170872 -11.0373)
(-0.0831991 0.024505 -10.7934)
(0.00897797 0.309774 -11.2722)
(-0.13379 0.150176 -11.3348)
(-0.195387 0.150703 -11.2947)
(-0.00504651 0.110785 -11.2466)
(-0.0153721 0.0444154 -11.0926)
(0.0487387 0.0487388 -10.8832)
(0.0721715 0.0779296 -10.8344)
(0.0166269 0.0729635 -10.6248)
(0.116789 -0.200302 -10.6929)
(0.0606505 0.0359445 -10.8999)
(-0.0434558 0.248722 -11.188)
(-0.208723 0.326774 -11.5447)
(-0.289519 0.263009 -11.2697)
(-0.0882323 0.182778 -11.0984)
(-0.00207837 0.0337594 -11.0001)
(0.0779295 0.0721715 -10.8344)
(0.0579841 0.0579842 -10.9242)
(-0.144338 -0.0220674 -10.8914)
(0.0667524 -0.0889421 -10.7705)
(0.153047 -0.13639 -10.9667)
(0.0870297 -0.128918 -10.5116)
(-0.119503 0.135692 -11.4593)
(-0.339382 0.138627 -11.1676)
(-0.234296 0.185421 -11.0819)
(-0.125979 0.133894 -10.8687)
(0.0729635 0.0166269 -10.6248)
(-0.0220675 -0.144337 -10.8914)
(-0.130299 -0.130299 -10.8323)
(0.00246636 -0.0580012 -10.4706)
(0.0132026 -0.183996 -10.4842)
(0.221155 -0.390224 -9.47116)
(0.0588221 -0.279743 -10.7066)
(-0.23979 -0.120931 -10.8387)
(-0.0929657 -0.0336946 -11.0633)
(-0.170872 0.103771 -11.0373)
(-0.200302 0.116789 -10.6929)
(-0.0889421 0.0667523 -10.7705)
(-0.0580012 0.00246636 -10.4706)
(0.0130557 0.0130557 -10.6876)
(0.0270525 -0.0760041 -10.7923)
(0.197511 -0.257539 -8.79191)
(0.149791 -0.281183 -9.77767)
(-0.0933341 -0.16657 -10.1812)
(-0.00959457 -0.134727 -10.4887)
(0.0245049 -0.0831991 -10.7934)
(0.0359444 0.0606504 -10.8999)
(-0.13639 0.153047 -10.9667)
(-0.183996 0.0132025 -10.4842)
(-0.0760041 0.0270525 -10.7923)
(-0.0758572 -0.0758572 -10.8377)
(-0.152161 -0.152161 -10.2514)
(-0.00547083 -0.12916 -10.1036)
(-0.110371 -0.0754453 -10.302)
(0.0133477 0.09705 -10.4091)
(0.312479 -0.0129081 -10.3548)
(0.0827217 0.0429132 -10.4205)
(0.122775 0.0209113 -10.5453)
(0.131152 -0.0882319 -10.5663)
(0.079547 0.0732983 -10.3552)
(0.0305194 0.0966663 -9.9933)
(-0.12916 -0.00547087 -10.1036)
(0.0712445 0.0712445 -10.4902)
(0.11584 -0.0766668 -10.5646)
(0.0758848 0.0816137 -10.4953)
(0.258342 -0.0940576 -10.5389)
(0.116541 -0.0954936 -10.4744)
(-0.00837009 -0.0929171 -10.5882)
(0.183539 -0.0719226 -10.7025)
(0.264445 -0.00748553 -10.5798)
(0.0538875 -0.0500364 -10.2521)
(-0.0754452 -0.110371 -10.302)
(-0.0766668 0.11584 -10.5646)
(-0.100002 -0.100001 -10.4141)
(-0.0040431 -0.0443936 -10.408)
(0.135372 -0.237047 -10.4137)
(0.0838623 -0.268283 -10.4811)
(0.146346 -0.215739 -10.5164)
(0.216583 -0.121774 -10.4679)
(0.101433 -0.262812 -10.4873)
(-0.0120314 -0.251179 -10.2406)
(0.09705 0.0133478 -10.4091)
(0.0816137 0.0758848 -10.4953)
(-0.0443936 -0.00404307 -10.408)
(-0.0611605 -0.0611605 -10.456)
(0.0344533 -0.0275018 -10.4514)
(0.137849 -0.1024 -10.4708)
(0.138139 -0.0766398 -10.5216)
(0.136465 -0.185365 -10.5742)
(0.13504 -0.146293 -10.5572)
(0.0655211 -0.0478199 -10.2244)
(-0.0129082 0.312479 -10.3548)
(-0.0940577 0.258342 -10.5389)
(-0.237047 0.135372 -10.4137)
(-0.0275018 0.0344533 -10.4514)
(0.094132 0.094132 -10.3971)
(0.0347243 0.0521067 -10.5227)
(0.0633813 0.0644997 -10.5347)
(0.14693 -0.00216436 -10.4528)
(0.238978 0.0342568 -10.4463)
(0.0864412 0.0657489 -10.2305)
(0.0429132 0.0827218 -10.4205)
(-0.0954937 0.116541 -10.4744)
(-0.268283 0.0838623 -10.4811)
(-0.1024 0.137849 -10.4708)
(0.0521067 0.0347243 -10.5227)
(0.108217 0.108217 -10.4721)
(0.0838678 0.108415 -10.4732)
(0.106222 0.131705 -10.4029)
(0.202953 -0.0139874 -10.2846)
(0.0970132 0.0105129 -10.2377)
(0.0209112 0.122775 -10.5453)
(-0.0929171 -0.00837003 -10.5882)
(-0.215739 0.146346 -10.5164)
(-0.0766398 0.138139 -10.5216)
(0.0644997 0.0633814 -10.5347)
(0.108415 0.0838677 -10.4732)
(0.0868694 0.0868694 -10.5839)
(0.0245276 0.0631896 -10.4734)
(0.117786 0.0898505 -10.2828)
(0.110941 -0.0506552 -10.3533)
(-0.0882318 0.131152 -10.5663)
(-0.0719225 0.183539 -10.7025)
(-0.121774 0.216583 -10.4679)
(-0.185365 0.136465 -10.5742)
(-0.00216444 0.14693 -10.4528)
(0.131705 0.106222 -10.4029)
(0.0631897 0.0245276 -10.4734)
(0.109204 0.109203 -10.3058)
(0.0891085 0.0127021 -10.1056)
(-0.0434925 -0.195299 -10.1048)
(0.0732982 0.0795471 -10.3552)
(-0.00748554 0.264445 -10.5798)
(-0.262812 0.101433 -10.4873)
(-0.146293 0.13504 -10.5572)
(0.0342567 0.238978 -10.4463)
(-0.0139875 0.202953 -10.2846)
(0.0898506 0.117786 -10.2828)
(0.0127022 0.0891086 -10.1056)
(-0.186716 -0.186716 -10.1335)
(-0.0970593 -0.138195 -10.1712)
(0.0966663 0.0305195 -9.9933)
(-0.0500364 0.0538875 -10.2521)
(-0.251179 -0.0120314 -10.2406)
(-0.0478199 0.0655211 -10.2244)
(0.065749 0.0864413 -10.2305)
(0.0105128 0.0970133 -10.2377)
(-0.0506552 0.110942 -10.3533)
(-0.195299 -0.0434925 -10.1048)
(-0.138195 -0.0970593 -10.1712)
(0.00502793 0.00502791 -10.0752)
(-0.0688806 -0.0688806 -9.52251)
(-0.111784 -0.138258 -9.55774)
(-0.209597 -0.135736 -9.62946)
(0.0770954 0.0293557 -9.493)
(0.242855 -0.0680037 -9.65681)
(0.119273 -0.0448924 -9.69305)
(0.102963 -0.0863743 -9.61518)
(0.0611631 -0.0491403 -9.60854)
(0.182764 -0.00343664 -9.53292)
(0.104357 -0.0612707 -9.46552)
(-0.138258 -0.111784 -9.55774)
(-0.178639 -0.178639 -9.51975)
(-0.0419837 -0.136265 -9.65014)
(0.144827 -0.0737979 -9.65442)
(0.168607 -0.10855 -9.73723)
(0.100902 -0.19436 -9.78219)
(0.0987149 -0.179849 -9.72937)
(0.144101 -0.0211249 -9.6475)
(0.170633 -0.0733183 -9.74623)
(0.0465228 -0.0975223 -9.72711)
(-0.135736 -0.209597 -9.62946)
(-0.136265 -0.0419838 -9.65014)
(-0.104756 -0.104756 -9.71239)
(0.10481 -0.138677 -9.75445)
(0.122293 -0.162635 -9.60849)
(0.0479742 -0.191746 -9.7198)
(0.276198 -0.22294 -9.70003)
(0.167693 -0.211162 -9.64966)
(0.106366 -0.217208 -9.66322)
(0.0801529 -0.0656273 -9.52396)
(0.0293556 0.0770955 -9.493)
(-0.073798 0.144827 -9.65442)
(-0.138677 0.10481 -9.75445)
(0.0869489 0.0869489 -9.60826)
(0.115538 0.0346186 -9.548)
(0.0405968 -0.0466911 -9.67981)
(0.0792988 -0.10654 -9.74111)
(0.149833 -0.219233 -9.72229)
(0.316168 -0.0519686 -9.6126)
(0.198103 0.000543639 -9.47068)
(-0.0680038 0.242855 -9.65681)
(-0.10855 0.168607 -9.73723)
(-0.162635 0.122293 -9.60849)
(0.0346185 0.115538 -9.548)
(-0.0113471 -0.011347 -9.59034)
(-0.0931843 -0.0167507 -9.6833)
(0.103656 0.0463884 -9.68919)
(0.222265 0.0453899 -9.62732)
(0.326143 0.101702 -9.60594)
(0.132665 0.0111833 -9.57454)
(-0.0448925 0.119273 -9.69305)
(-0.19436 0.100902 -9.78219)
(-0.191746 0.0479742 -9.7198)
(-0.0466911 0.0405968 -9.67981)
(-0.0167507 -0.0931843 -9.6833)
(0.0983322 0.0983323 -9.72206)
(0.141439 0.0287722 -9.74452)
(0.205146 0.0523779 -9.68321)
(0.281961 -0.0367847 -9.62677)
(0.107585 -0.0868713 -9.60424)
(-0.0863743 0.102963 -9.61518)
(-0.179849 0.098715 -9.72937)
(-0.22294 0.276198 -9.70003)
(-0.10654 0.0792989 -9.74111)
(0.0463884 0.103656 -9.68919)
(0.0287721 0.141439 -9.74452)
(0.0577016 0.0577017 -9.80519)
(0.156708 0.0749963 -9.75946)
(0.186894 0.0901138 -9.65211)
(0.0825785 -0.00346338 -9.68049)
(-0.0491403 0.061163 -9.60854)
(-0.0211248 0.144101 -9.6475)
(-0.211162 0.167694 -9.64966)
(-0.219233 0.149833 -9.72229)
(0.0453899 0.222265 -9.62732)
(0.0523779 0.205146 -9.68321)
(0.0749964 0.156708 -9.75946)
(0.237558 0.237558 -9.67032)
(0.203501 0.0912875 -9.61565)
(0.0140075 -0.00189713 -9.42588)
(-0.0034366 0.182764 -9.53292)
(-0.0733183 0.170633 -9.74623)
(-0.217207 0.106366 -9.66322)
(-0.0519686 0.316168 -9.6126)
(0.101702 0.326143 -9.60594)
(-0.0367847 0.281961 -9.62677)
(0.0901138 0.186894 -9.65211)
(0.0912874 0.203501 -9.61565)
(-0.0525614 -0.0525615 -9.42734)
(-0.0106061 -0.046403 -9.24541)
(-0.0612707 0.104357 -9.46552)
(-0.0975224 0.0465229 -9.72711)
(-0.0656274 0.0801528 -9.52396)
(0.000543579 0.198103 -9.47068)
(0.0111833 0.132665 -9.57454)
(-0.0868712 0.107585 -9.60424)
(-0.00346338 0.0825785 -9.68049)
(-0.00189723 0.0140075 -9.42588)
(-0.0464031 -0.0106062 -9.24541)
(0.0201659 0.0201659 -9.24841)
(-0.187388 -0.187388 -8.53342)
(-0.112417 -0.0911702 -8.53743)
(-0.0456355 -0.0961229 -8.47184)
(-0.0140007 -0.0643665 -8.54041)
(0.112436 -0.0933272 -8.6022)
(0.124348 -0.0462306 -8.61874)
(0.207284 -0.0932812 -8.63916)
(0.213413 -0.12719 -8.59542)
(0.222563 -0.140012 -8.49897)
(0.0979156 -0.164916 -8.39296)
(-0.0911703 -0.112417 -8.53743)
(-0.0211518 -0.0211516 -8.55077)
(-0.0188319 -0.1596 -8.54505)
(-0.0112049 -0.179832 -8.6304)
(0.130572 -0.0457447 -8.57407)
(0.124394 -0.122242 -8.64769)
(0.126325 -0.177764 -8.62672)
(0.166682 -0.113041 -8.64875)
(0.184837 -0.137788 -8.61655)
(0.0730115 -0.108469 -8.61081)
(-0.0961228 -0.0456356 -8.47184)
(-0.1596 -0.0188318 -8.54505)
(-0.204316 -0.204315 -8.56285)
(0.0998549 0.00177015 -8.56332)
(0.170025 -0.0478216 -8.59286)
(-0.00767104 -0.165899 -8.62661)
(0.216486 -0.227478 -8.66768)
(0.253388 -0.196563 -8.63734)
(0.227134 -0.129182 -8.53265)
(0.127235 0.00524806 -8.54676)
(-0.0643665 -0.0140006 -8.54041)
(-0.179832 -0.011205 -8.6304)
(0.0017701 0.099855 -8.56332)
(0.145289 0.145289 -8.43244)
(-0.0370976 -0.00934923 -8.62008)
(-0.0552629 -0.065904 -8.65525)
(0.0956607 -0.0658016 -8.62466)
(0.264979 -0.163028 -8.60728)
(0.386648 -0.0890079 -8.58912)
(0.207442 -0.098407 -8.60566)
(-0.0933272 0.112436 -8.60221)
(-0.0457447 0.130571 -8.57407)
(-0.0478216 0.170025 -8.59286)
(-0.00934926 -0.0370976 -8.62008)
(-0.0411681 -0.041168 -8.7314)
(-0.0641235 0.00985305 -8.6148)
(0.119362 0.0610936 -8.60233)
(0.230182 0.0369136 -8.62547)
(0.291755 0.0200883 -8.68374)
(0.117835 -0.0678149 -8.67149)
(-0.0462306 0.124348 -8.61874)
(-0.122242 0.124394 -8.64769)
(-0.165899 -0.00767108 -8.62661)
(-0.065904 -0.0552629 -8.65525)
(0.00985299 -0.0641234 -8.6148)
(0.0469987 0.0469988 -8.59215)
(0.122721 -0.00758476 -8.65969)
(0.223973 -0.000439474 -8.62359)
(0.281919 -0.0601558 -8.66131)
(0.119538 -0.0954354 -8.64189)
(-0.0932812 0.207284 -8.63916)
(-0.177764 0.126325 -8.62672)
(-0.227478 0.216486 -8.66768)
(-0.0658016 0.0956607 -8.62466)
(0.0610936 0.119362 -8.60233)
(-0.00758479 0.122721 -8.65969)
(0.071924 0.071924 -8.61168)
(0.177611 0.0760796 -8.62832)
(0.196759 0.100967 -8.65707)
(0.0825558 0.127703 -8.64571)
(-0.12719 0.213413 -8.59542)
(-0.113041 0.166682 -8.64875)
(-0.196563 0.253388 -8.63734)
(-0.163028 0.264979 -8.60728)
(0.0369136 0.230182 -8.62547)
(-0.000439428 0.223973 -8.62359)
(0.0760796 0.177611 -8.62832)
(0.253016 0.253016 -8.65006)
(0.333543 0.237469 -8.65422)
(0.146274 0.239786 -8.42361)
(-0.140012 0.222563 -8.49897)
(-0.137788 0.184837 -8.61655)
(-0.129182 0.227134 -8.53265)
(-0.0890078 0.386648 -8.58912)
(0.0200883 0.291755 -8.68374)
(-0.0601559 0.281919 -8.66131)
(0.100967 0.196759 -8.65707)
(0.237469 0.333543 -8.65422)
(0.183529 0.183529 -8.40884)
(0.0848736 0.0392767 -8.33092)
(-0.164916 0.0979156 -8.39296)
(-0.108469 0.0730115 -8.61081)
(0.00524806 0.127235 -8.54676)
(-0.0984071 0.207442 -8.60566)
(-0.067815 0.117835 -8.67149)
(-0.0954354 0.119538 -8.64189)
(0.127703 0.0825559 -8.64571)
(0.239786 0.146274 -8.42361)
(0.0392767 0.0848736 -8.33092)
(0.00202181 0.00202181 -8.28351)
(-0.0728911 -0.072891 -7.2587)
(-0.0502068 -0.151599 -7.14941)
(-0.212581 -0.20894 -7.26459)
(-0.053268 -0.0606352 -7.34764)
(0.164525 -0.0398713 -7.23684)
(0.0823164 -0.0738389 -7.32718)
(0.12629 -0.0739311 -7.31235)
(0.201356 -0.102478 -7.35651)
(0.385218 -0.121022 -7.32783)
(0.210363 -0.279123 -7.15357)
(-0.151599 -0.0502068 -7.14941)
(-0.186256 -0.186256 -7.19753)
(-0.121618 -0.227277 -7.37898)
(0.115801 -0.0967077 -7.3287)
(0.151321 -0.099209 -7.30047)
(0.0482565 -0.202223 -7.36686)
(0.0976503 -0.208364 -7.26001)
(0.154265 -0.0630489 -7.34479)
(0.208574 -0.107002 -7.33495)
(0.0522619 -0.251317 -7.35768)
(-0.20894 -0.212581 -7.26459)
(-0.227277 -0.121618 -7.37898)
(-0.123033 -0.123033 -7.33192)
(0.0748005 0.0592846 -7.34054)
(0.0590091 -0.208646 -7.45668)
(-0.0268386 -0.199302 -7.44435)
(0.265464 -0.22088 -7.36965)
(0.302718 -0.169682 -7.38727)
(0.19695 -0.189771 -7.37184)
(0.0660479 -0.0604754 -7.41328)
(-0.0606351 -0.053268 -7.34764)
(-0.0967077 0.115801 -7.3287)
(0.0592847 0.0748004 -7.34054)
(0.0301876 0.0301876 -7.4283)
(-0.107266 -0.103913 -7.50078)
(0.0360228 -0.0348874 -7.45461)
(0.12727 -0.0411913 -7.36306)
(0.185374 -0.207359 -7.43529)
(0.31778 -0.203055 -7.44004)
(0.181557 -0.124186 -7.44703)
(-0.0398712 0.164525 -7.23684)
(-0.099209 0.151321 -7.30047)
(-0.208646 0.0590091 -7.45668)
(-0.103913 -0.107266 -7.50078)
(-0.00606596 -0.00606595 -7.55105)
(0.0358834 0.0463459 -7.48884)
(0.0929919 0.0113533 -7.41948)
(0.140854 0.0290759 -7.45059)
(0.280124 0.0295094 -7.47013)
(0.144917 -0.0250487 -7.41435)
(-0.0738388 0.0823164 -7.32718)
(-0.202223 0.0482565 -7.36686)
(-0.199302 -0.0268386 -7.44435)
(-0.0348874 0.0360228 -7.45461)
(0.0463459 0.0358833 -7.48884)
(0.0534421 0.0534421 -7.44206)
(0.11 0.0194209 -7.39938)
(0.20353 0.0495233 -7.38471)
(0.263656 -0.0101197 -7.41357)
(0.126999 -0.0610959 -7.35376)
(-0.0739311 0.12629 -7.31235)
(-0.208364 0.0976503 -7.26001)
(-0.22088 0.265464 -7.36965)
(-0.0411913 0.12727 -7.36306)
(0.0113534 0.0929919 -7.41948)
(0.019421 0.11 -7.39938)
(0.0890731 0.0890731 -7.34224)
(0.111314 0.0485213 -7.42868)
(0.169504 0.0972037 -7.39138)
(0.0939405 0.214816 -7.34545)
(-0.102478 0.201356 -7.35651)
(-0.0630488 0.154265 -7.34479)
(-0.169682 0.302718 -7.38727)
(-0.207359 0.185374 -7.43529)
(0.0290759 0.140854 -7.45059)
(0.0495233 0.20353 -7.38471)
(0.0485213 0.111314 -7.42868)
(0.211661 0.211661 -7.43836)
(0.429951 0.339516 -7.34015)
(0.244612 0.312896 -7.26916)
(-0.121022 0.385218 -7.32783)
(-0.107002 0.208574 -7.33495)
(-0.189771 0.19695 -7.37184)
(-0.203055 0.31778 -7.44004)
(0.0295095 0.280124 -7.47013)
(-0.0101197 0.263656 -7.41357)
(0.0972037 0.169504 -7.39138)
(0.339516 0.429951 -7.34015)
(0.270739 0.270739 -7.28212)
(0.0673199 0.0936987 -7.27467)
(-0.279123 0.210363 -7.15357)
(-0.251317 0.0522619 -7.35768)
(-0.0604754 0.0660478 -7.41328)
(-0.124186 0.181557 -7.44703)
(-0.0250487 0.144917 -7.41435)
(-0.0610959 0.126999 -7.35376)
(0.214816 0.0939406 -7.34545)
(0.312896 0.244612 -7.26916)
(0.0936988 0.0673199 -7.27467)
(0.0675711 0.0675711 -7.12095)
(-0.0780935 -0.0780935 -5.8589)
(-0.118307 -0.139293 -5.97425)
(-0.24387 -0.210511 -6.03089)
(0.0137532 -0.0454218 -5.92256)
(0.132898 -0.156964 -5.97876)
(0.0488375 -0.0859169 -6.01533)
(0.177954 -0.0409424 -5.95037)
(0.197927 -0.115472 -5.98377)
(0.425499 -0.147133 -6.01772)
(0.272176 -0.369024 -5.86743)
(-0.139294 -0.118307 -5.97425)
(-0.250724 -0.250724 -5.96995)
(-0.149998 -0.226933 -6.01545)
(0.0672999 -0.172732 -5.99591)
(0.0924028 -0.265584 -6.11686)
(0.164859 -0.239416 -6.06356)
(0.148398 -0.235071 -6.04286)
(0.0917362 -0.143799 -6.03745)
(0.171947 -0.1818 -6.04916)
(0.0502852 -0.368176 -6.01906)
(-0.210511 -0.24387 -6.03089)
(-0.226933 -0.149998 -6.01545)
(-0.165878 -0.165877 -6.12449)
(-0.0248979 -0.0978336 -6.15538)
(0.0662133 -0.248127 -6.18825)
(0.079351 -0.253641 -6.16001)
(0.273571 -0.330526 -6.1061)
(0.251198 -0.287062 -6.12263)
(0.201121 -0.234264 -6.11171)
(0.0857998 -0.0841006 -6.04714)
(-0.0454218 0.0137532 -5.92256)
(-0.172732 0.0672999 -5.99591)
(-0.0978336 -0.0248979 -6.15538)
(-0.0149497 -0.0149497 -6.24155)
(-0.0634041 -0.103722 -6.21308)
(0.0824607 -0.110392 -6.17614)
(0.114977 -0.115625 -6.14478)
(0.187997 -0.226353 -6.16181)
(0.374908 -0.187294 -6.04938)
(0.200449 -0.0994775 -6.02451)
(-0.156964 0.132898 -5.97876)
(-0.265584 0.0924028 -6.11686)
(-0.248127 0.0662133 -6.18825)
(-0.103722 -0.0634041 -6.21308)
(-0.0292295 -0.0292295 -6.20405)
(0.0674481 0.0223968 -6.19021)
(0.157611 0.0247698 -6.13363)
(0.179529 0.0874929 -6.07876)
(0.327997 0.0465525 -6.0302)
(0.173616 0.0254501 -5.99896)
(-0.0859168 0.0488375 -6.01533)
(-0.239416 0.164859 -6.06356)
(-0.253641 0.079351 -6.16001)
(-0.110392 0.0824607 -6.17614)
(0.0223968 0.067448 -6.19021)
(0.13646 0.13646 -6.15876)
(0.180073 0.0696545 -6.10648)
(0.20978 0.0214688 -6.07205)
(0.312865 0.0185968 -6.05341)
(0.179347 -0.0265343 -5.95107)
(-0.0409424 0.177954 -5.95037)
(-0.235071 0.148398 -6.04286)
(-0.330526 0.273571 -6.1061)
(-0.115625 0.114977 -6.14478)
(0.0247699 0.157611 -6.13363)
(0.0696545 0.180073 -6.10648)
(0.0426194 0.0426193 -6.11896)
(0.128472 0.0224335 -6.15388)
(0.279994 0.174392 -5.95568)
(0.128485 0.21231 -5.9467)
(-0.115472 0.197927 -5.98377)
(-0.143799 0.0917362 -6.03745)
(-0.287062 0.251198 -6.12263)
(-0.226353 0.187997 -6.16181)
(0.0874928 0.179529 -6.07876)
(0.0214688 0.20978 -6.07205)
(0.0224334 0.128472 -6.15388)
(0.341552 0.341552 -6.02851)
(0.502742 0.346722 -5.89454)
(0.217265 0.310565 -5.96457)
(-0.147134 0.425499 -6.01772)
(-0.1818 0.171947 -6.04916)
(-0.234264 0.201121 -6.11171)
(-0.187294 0.374908 -6.04938)
(0.0465525 0.327997 -6.0302)
(0.0185968 0.312865 -6.05341)
(0.174392 0.279994 -5.95568)
(0.346722 0.502742 -5.89454)
(0.249007 0.249007 -5.94885)
(0.0923275 0.187483 -5.85232)
(-0.369024 0.272176 -5.86743)
(-0.368176 0.0502852 -6.01906)
(-0.0841006 0.0857998 -6.04714)
(-0.0994775 0.200449 -6.02451)
(0.0254502 0.173616 -5.99896)
(-0.0265343 0.179347 -5.95107)
(0.21231 0.128485 -5.9467)
(0.310565 0.217265 -5.96457)
(0.187483 0.0923275 -5.85232)
(0.155742 0.155742 -5.81927)
(-0.188242 -0.188242 -4.5624)
(-0.222197 -0.147297 -4.59264)
(-0.16089 -0.193504 -4.54382)
(-0.00113511 -0.13398 -4.52189)
(0.0717514 -0.177978 -4.63191)
(0.110702 -0.12206 -4.52389)
(0.157851 -0.166418 -4.55633)
(0.134008 -0.156153 -4.5382)
(0.501563 -0.152461 -4.50098)
(0.360655 -0.430757 -4.39705)
(-0.147297 -0.222197 -4.59264)
(-0.227459 -0.227459 -4.69577)
(-0.147572 -0.320875 -4.57688)
(0.0143914 -0.329531 -4.67191)
(0.0836714 -0.308696 -4.64564)
(0.122261 -0.346896 -4.64073)
(0.123759 -0.364091 -4.71936)
(0.147966 -0.201911 -4.57929)
(0.226958 -0.200992 -4.54804)
(0.082359 -0.431026 -4.51528)
(-0.193504 -0.16089 -4.54382)
(-0.320875 -0.147572 -4.57688)
(-0.262962 -0.262962 -4.70933)
(0.0110436 -0.18636 -4.68291)
(0.054387 -0.304858 -4.65251)
(0.0553065 -0.311885 -4.70386)
(0.302835 -0.322798 -4.70163)
(0.297107 -0.294044 -4.61898)
(0.272448 -0.189989 -4.55914)
(0.130621 -0.0659214 -4.46579)
(-0.13398 -0.00113509 -4.52189)
(-0.329531 0.0143913 -4.67191)
(-0.18636 0.0110436 -4.68291)
(-0.027505 -0.0275051 -4.71453)
(-0.0418535 -0.119716 -4.70711)
(0.104321 -0.0650947 -4.69177)
(0.1416 -0.0687242 -4.66549)
(0.280775 -0.163488 -4.57612)
(0.45508 -0.12154 -4.44229)
(0.206426 -0.0760082 -4.42982)
(-0.177978 0.0717513 -4.63191)
(-0.308696 0.0836714 -4.64564)
(-0.304858 0.054387 -4.65251)
(-0.119716 -0.0418535 -4.70711)
(0.0167974 0.0167973 -4.68546)
(0.106298 0.0637209 -4.65389)
(0.204441 0.0496534 -4.60684)
(0.244291 0.118832 -4.49976)
(0.359928 0.0254808 -4.43043)
(0.176153 0.0483892 -4.43138)
(-0.12206 0.110702 -4.52389)
(-0.346895 0.122261 -4.64073)
(-0.311885 0.0553065 -4.70386)
(-0.0650947 0.104321 -4.69177)
(0.0637209 0.106298 -4.65389)
(0.137178 0.137177 -4.64243)
(0.196711 0.0340928 -4.62355)
(0.256602 -0.0255909 -4.49508)
(0.384638 0.0643914 -4.42829)
(0.229335 -0.0088354 -4.39531)
(-0.166418 0.157851 -4.55633)
(-0.364091 0.123759 -4.71936)
(-0.322798 0.302835 -4.70163)
(-0.0687243 0.1416 -4.66549)
(0.0496534 0.204441 -4.60684)
(0.0340928 0.196711 -4.62355)
(0.0416731 0.0416731 -4.57546)
(0.27459 0.0920599 -4.43801)
(0.376683 0.256068 -4.3131)
(0.102926 0.201322 -4.36724)
(-0.156153 0.134008 -4.5382)
(-0.201911 0.147966 -4.57929)
(-0.294044 0.297107 -4.61898)
(-0.163488 0.280775 -4.57612)
(0.118832 0.244291 -4.49976)
(-0.0255908 0.256602 -4.49508)
(0.0920599 0.27459 -4.43801)
(0.470997 0.470997 -4.28398)
(0.493899 0.34635 -4.32992)
(0.174589 0.407278 -4.2785)
(-0.152461 0.501563 -4.50098)
(-0.200992 0.226958 -4.54804)
(-0.189989 0.272448 -4.55914)
(-0.12154 0.45508 -4.44229)
(0.0254807 0.359928 -4.43043)
(0.0643915 0.384637 -4.42829)
(0.256068 0.376683 -4.3131)
(0.34635 0.493899 -4.32992)
(0.312965 0.312965 -4.25752)
(0.163854 0.238997 -4.15265)
(-0.430757 0.360655 -4.39705)
(-0.431026 0.082359 -4.51528)
(-0.0659214 0.130621 -4.46579)
(-0.0760081 0.206427 -4.42982)
(0.0483893 0.176153 -4.43138)
(-0.00883532 0.229335 -4.39531)
(0.201322 0.102926 -4.36724)
(0.407278 0.174589 -4.2785)
(0.238997 0.163854 -4.15265)
(0.10062 0.10062 -4.2068)
(-0.108331 -0.108331 -3.05999)
(-0.0997287 -0.242424 -2.93573)
(-0.173124 -0.243573 -2.86266)
(-0.0743341 -0.195444 -3.00301)
(0.130903 -0.170692 -2.97339)
(0.12442 -0.20276 -2.9453)
(0.16364 -0.203977 -2.969)
(0.253278 -0.156567 -2.81084)
(0.566651 -0.194202 -2.79221)
(0.376103 -0.487261 -2.79404)
(-0.242424 -0.0997287 -2.93573)
(-0.23497 -0.23497 -2.88023)
(-0.126144 -0.39244 -2.92939)
(-0.00145335 -0.333755 -3.01666)
(0.123587 -0.286187 -2.99249)
(0.0911351 -0.419387 -3.00443)
(0.209832 -0.380377 -2.96163)
(0.263054 -0.224576 -2.84812)
(0.235957 -0.239963 -2.8553)
(0.0830437 -0.436921 -2.80517)
(-0.243572 -0.173124 -2.86266)
(-0.39244 -0.126144 -2.92939)
(-0.271908 -0.271908 -2.96507)
(0.0319192 -0.140451 -2.93884)
(0.0452702 -0.309598 -2.9372)
(0.0302306 -0.304681 -2.912)
(0.358451 -0.276657 -2.96551)
(0.393692 -0.283886 -2.86456)
(0.354306 -0.128509 -2.79953)
(0.179145 0.00136002 -2.71037)
(-0.195444 -0.074334 -3.00301)
(-0.333755 -0.00145343 -3.01666)
(-0.140451 0.0319192 -2.93884)
(-0.0391428 -0.0391428 -2.94566)
(-0.0406431 -0.136671 -2.93929)
(0.124075 -0.0604271 -2.95322)
(0.230627 -0.0208302 -2.92868)
(0.411202 -0.107135 -2.79169)
(0.521203 -0.0585902 -2.70901)
(0.212913 -0.0650661 -2.71045)
(-0.170692 0.130903 -2.97339)
(-0.286187 0.123587 -2.99249)
(-0.309597 0.0452701 -2.9372)
(-0.136671 -0.0406431 -2.93929)
(0.0239859 0.0239859 -2.9518)
(0.146071 0.0717345 -2.97422)
(0.311743 0.0667135 -2.88206)
(0.355932 0.168536 -2.75199)
(0.396375 0.0605522 -2.72404)
(0.172669 0.0599645 -2.71793)
(-0.20276 0.12442 -2.9453)
(-0.419387 0.0911351 -3.00443)
(-0.304681 0.0302306 -2.912)
(-0.060427 0.124075 -2.95322)
(0.0717345 0.146071 -2.97422)
(0.166803 0.166803 -2.94458)
(0.327429 0.101036 -2.85624)
(0.405041 0.0832161 -2.68084)
(0.412631 0.135931 -2.64026)
(0.212325 0.0376108 -2.6527)
(-0.203977 0.16364 -2.969)
(-0.380377 0.209833 -2.96163)
(-0.276657 0.358451 -2.96551)
(-0.0208302 0.230627 -2.92868)
(0.0667136 0.311743 -2.88206)
(0.101036 0.327429 -2.85624)
(0.228156 0.228156 -2.69675)
(0.390828 0.233529 -2.557)
(0.35077 0.272759 -2.60894)
(0.0743483 0.329123 -2.59536)
(-0.156567 0.253278 -2.81084)
(-0.224576 0.263054 -2.84812)
(-0.283886 0.393692 -2.86456)
(-0.107135 0.411202 -2.79169)
(0.168536 0.355932 -2.75199)
(0.0832161 0.405041 -2.68084)
(0.233529 0.390828 -2.557)
(0.449644 0.449644 -2.50067)
(0.508225 0.402301 -2.5613)
(0.268689 0.525155 -2.43881)
(-0.194202 0.566651 -2.79221)
(-0.239963 0.235957 -2.8553)
(-0.128509 0.354306 -2.79953)
(-0.0585902 0.521203 -2.70901)
(0.0605522 0.396375 -2.72404)
(0.135931 0.412631 -2.64026)
(0.272759 0.35077 -2.60894)
(0.402301 0.508225 -2.5613)
(0.426281 0.426281 -2.49335)
(0.197202 0.259178 -2.55053)
(-0.487261 0.376103 -2.79404)
(-0.436921 0.0830438 -2.80517)
(0.00136007 0.179145 -2.71037)
(-0.0650661 0.212913 -2.71045)
(0.0599644 0.172669 -2.71793)
(0.0376108 0.212325 -2.6527)
(0.329123 0.0743483 -2.59536)
(0.525155 0.268689 -2.43881)
(0.259178 0.197202 -2.55053)
(0.101586 0.101586 -2.51578)
(-0.0639787 -0.0639786 -1.00714)
(-0.0248645 -0.0918007 -0.995317)
(-0.228167 -0.260233 -1.00804)
(-0.11186 -0.147631 -1.14326)
(0.129459 -0.197084 -1.08193)
(0.11509 -0.181195 -1.14139)
(0.292309 -0.159053 -1.0676)
(0.310797 -0.193427 -1.02019)
(0.518363 -0.21555 -1.06658)
(0.358823 -0.441884 -1.01928)
(-0.0918008 -0.0248645 -0.995317)
(-0.221119 -0.221119 -0.902329)
(-0.283997 -0.423285 -1.03658)
(-0.048712 -0.265365 -1.03431)
(0.0958948 -0.27251 -1.07717)
(0.153122 -0.313599 -1.08393)
(0.280077 -0.360606 -1.05428)
(0.254299 -0.25563 -1.05298)
(0.269905 -0.208313 -1.02181)
(0.132489 -0.347357 -0.922481)
(-0.260233 -0.228167 -1.00803)
(-0.423285 -0.283997 -1.03658)
(-0.272413 -0.272413 -0.952284)
(0.0389149 -0.115367 -1.03101)
(0.0812245 -0.25166 -1.0573)
(0.0269934 -0.260671 -1.00701)
(0.350278 -0.28985 -1.05776)
(0.46309 -0.237617 -0.989377)
(0.426636 -0.0436978 -0.949743)
(0.219778 0.0287976 -0.916037)
(-0.147631 -0.11186 -1.14326)
(-0.265365 -0.0487121 -1.03431)
(-0.115367 0.0389149 -1.03101)
(-0.0279589 -0.027959 -1.05807)
(-0.0494093 -0.134314 -1.03751)
(0.114932 -0.127312 -1.02419)
(0.303131 0.0147247 -1.0028)
(0.500452 -0.0509201 -0.940147)
(0.53632 -0.0460543 -0.929982)
(0.204984 -0.0835656 -0.915964)
(-0.197084 0.129459 -1.08193)
(-0.27251 0.0958948 -1.07717)
(-0.25166 0.0812246 -1.0573)
(-0.134314 -0.0494094 -1.03751)
(-0.0181289 -0.0181289 -1.02361)
(0.176032 0.0723602 -1.02726)
(0.42667 0.122101 -0.975418)
(0.402311 0.229685 -0.921849)
(0.39399 0.0942322 -0.931355)
(0.182267 0.106141 -0.894944)
(-0.181195 0.11509 -1.14139)
(-0.313599 0.153122 -1.08393)
(-0.260671 0.0269934 -1.00701)
(-0.127312 0.114932 -1.02419)
(0.0723602 0.176032 -1.02726)
(0.255161 0.255161 -0.990567)