/*--------------------------------*- C++ -*----------------------------------*\
| =========                 |                                                 |
| \\      /  F ield         | OpenFOAM: The Open Source CFD Toolbox           |
|  \\    /   O peration     | Version:  v2106                                 |
|   \\  /    A nd           | Website:  www.openfoam.com                      |
|    \\/     M anipulation  |                                                 |
\*---------------------------------------------------------------------------*/
FoamFile
{
    version     2.0;
    format      ascii;
    arch        "LSB;label=32;scalar=64";
    class       volVectorField;
    location    "0";
    object      gradTmode4;
}
// * * * * * * * * * * * * * * * * * * * * * * * * * * * * * * * * * * * * * //

dimensions      [0 -1 0 0 0 0 0];

internalField   nonuniform List<vector> 
2000
(
(-4.34916 -4.34916 8.62111)
(-3.17269 -0.456062 4.35247)
(-0.411376 -0.605198 4.47178)
(0.257152 1.5573 -1.56939)
(1.86799 1.29426 -1.787)
(0.751506 -1.10372 -3.43903)
(-0.860016 -2.36397 -2.14031)
(-2.45358 -1.84239 -4.63606)
(2.16568 -0.906583 -7.62941)
(3.03078 -0.73417 -3.73621)
(-0.456062 -3.17269 4.35248)
(0.571219 0.571219 3.47758)
(1.60198 -1.67495 4.0061)
(2.15661 0.13986 0.891107)
(-0.793028 -0.460925 1.32215)
(-2.90673 -2.38281 -3.33641)
(-1.59869 -4.27584 -3.78785)
(-0.996192 -4.44247 -5.32854)
(3.27391 -4.43345 -6.98237)
(3.2032 -5.25454 -2.98367)
(-0.605198 -0.411375 4.47178)
(-1.67495 1.60198 4.0061)
(-0.842734 -0.842735 0.51455)
(1.47118 -0.496169 -1.71934)
(-0.654682 -3.42254 0.288141)
(-3.06341 -3.15954 -3.15626)
(-2.91968 -3.43026 -5.02722)
(-2.61119 -4.12971 -7.27106)
(1.35361 -4.87536 -9.75708)
(2.2097 -7.05478 -7.37694)
(1.55729 0.257154 -1.56939)
(0.139859 2.15661 0.891105)
(-0.496167 1.47118 -1.71934)
(-0.423194 -0.423195 -0.929488)
(-3.4564 -3.71456 -1.72439)
(-2.91444 -4.20044 -4.7217)
(-2.56885 -3.72096 -6.17494)
(-2.4413 -4.33442 -8.02413)
(0.348833 -2.03474 -10.1256)
(1.02378 -3.89874 -9.92926)
(1.29426 1.86799 -1.787)
(-0.460925 -0.793027 1.32215)
(-3.42254 -0.65468 0.28814)
(-3.71456 -3.4564 -1.72439)
(-4.43193 -4.43192 -3.16838)
(-3.06982 -4.98914 -6.67065)
(-3.05365 -4.95303 -7.81715)
(-0.924974 -4.79579 -10.9297)
(1.78929 -3.40856 -10.3548)
(0.3457 -3.72704 -10.684)
(-1.10372 0.751507 -3.43903)
(-2.38281 -2.90673 -3.33642)
(-3.15954 -3.06341 -3.15626)
(-4.20044 -2.91444 -4.7217)
(-4.98914 -3.06981 -6.67065)
(-3.43555 -3.43555 -10.0976)
(-2.3755 -2.3675 -11.1779)
(-0.896831 -0.605057 -13.3797)
(1.41758 -3.9177 -12.8926)
(0.705305 -4.21492 -11.9769)
(-2.36397 -0.860014 -2.14031)
(-4.27584 -1.59869 -3.78785)
(-3.43025 -2.91967 -5.02722)
(-3.72096 -2.56885 -6.17494)
(-4.95303 -3.05365 -7.81715)
(-2.3675 -2.3755 -11.1779)
(-0.223165 -0.223162 -11.1994)
(-2.47518 -0.707738 -11.306)
(-1.82058 -3.69823 -13.0357)
(0.0484785 -5.79968 -12.5669)
(-1.84239 -2.45358 -4.63606)
(-4.44247 -0.996191 -5.32854)
(-4.12971 -2.61119 -7.27106)
(-4.33442 -2.4413 -8.02413)
(-4.79579 -0.924976 -10.9297)
(-0.605058 -0.896834 -13.3797)
(-0.707739 -2.47518 -11.306)
(-4.3719 -4.3719 -12.4036)
(-3.67436 -3.67849 -13.5465)
(-1.39614 -3.2439 -15.6326)
(-0.906583 2.16568 -7.62941)
(-4.43345 3.27391 -6.98238)
(-4.87536 1.35361 -9.75708)
(-2.03474 0.348831 -10.1256)
(-3.40856 1.78929 -10.3548)
(-3.91771 1.41758 -12.8926)
(-3.69824 -1.82058 -13.0357)
(-3.67849 -3.67436 -13.5465)
(-0.692571 -0.692571 -14.8318)
(0.483069 0.613951 -14.007)
(-0.734168 3.03079 -3.73621)
(-5.25454 3.2032 -2.98367)
(-7.05478 2.2097 -7.37694)
(-3.89874 1.02378 -9.92926)
(-3.72704 0.3457 -10.684)
(-4.21492 0.705307 -11.9769)
(-5.79968 0.048481 -12.5669)
(-3.2439 -1.39614 -15.6326)
(0.61395 0.48307 -14.007)
(-0.089619 -0.0896172 -14.0973)
(-0.0906859 -0.0906848 -1.28045)
(0.366217 1.10943 3.61751)
(-1.34981 0.596326 2.14034)
(-2.06171 0.820265 1.15474)
(-1.17256 1.35761 -1.55697)
(-1.10244 0.419291 -3.63707)
(-1.50067 -0.0679947 -6.36006)
(-2.93907 0.238592 -6.45877)
(-0.529761 0.57996 -7.28327)
(1.0935 0.307688 -10.5992)
(1.10943 0.366217 3.61751)
(1.05323 1.05323 3.13193)
(-1.63898 -1.0364 2.12088)
(-1.30043 -0.593591 -0.20992)
(-1.57354 -0.0365591 -2.83387)
(-2.52804 -1.08085 -2.47872)
(-1.68137 -1.70405 -4.0221)
(-2.29111 -1.50684 -5.20574)
(-0.460664 -1.4533 -6.2441)
(0.821233 -2.25199 -9.66024)
(0.596325 -1.34981 2.14034)
(-1.0364 -1.63898 2.12088)
(-2.99663 -2.99663 2.19036)
(-1.06187 -2.15271 0.184724)
(-1.65982 -3.26443 -2.50133)
(-2.76993 -3.25102 -3.2001)
(-1.92667 -3.78221 -3.93727)
(-2.68831 -3.75825 -3.74613)
(-1.27491 -4.0043 -4.71537)
(0.294813 -4.99892 -7.60183)
(0.820263 -2.06171 1.15474)
(-0.593593 -1.30043 -0.20992)
(-2.15271 -1.06187 0.184725)
(-1.56823 -1.56823 -2.26748)
(-2.67185 -2.8903 -3.42613)
(-3.04582 -3.40669 -3.73007)
(-2.1886 -4.09294 -4.96746)
(-2.5132 -5.01766 -4.86664)
(-1.70133 -4.00337 -5.97349)
(-0.173384 -4.58734 -7.32694)
(1.35761 -1.17256 -1.55697)
(-0.0365595 -1.57354 -2.83387)
(-3.26443 -1.65982 -2.50133)
(-2.8903 -2.67185 -3.42612)
(-3.49828 -3.49828 -3.01003)
(-3.97257 -4.03635 -3.71356)
(-3.53764 -4.78098 -5.3693)
(-2.59874 -5.90249 -5.2363)
(-0.844582 -4.9967 -7.55666)
(-0.289156 -4.58628 -8.36796)
(0.419291 -1.10244 -3.63707)
(-1.08085 -2.52804 -2.47872)
(-3.25102 -2.76993 -3.2001)
(-3.40669 -3.04582 -3.73007)
(-4.03635 -3.97257 -3.71357)
(-4.32853 -4.32853 -3.79543)
(-4.05473 -5.15935 -5.32339)
(-2.72891 -4.72096 -6.13665)
(-0.385131 -5.32221 -7.96309)
(0.237027 -4.80864 -9.21097)
(-0.0679954 -1.50067 -6.36006)
(-1.70406 -1.68137 -4.0221)
(-3.78221 -1.92667 -3.93727)
(-4.09294 -2.1886 -4.96747)
(-4.78098 -3.53764 -5.3693)
(-5.15935 -4.05473 -5.32339)
(-3.93008 -3.93007 -8.60369)
(-2.7616 -3.94076 -10.4914)
(-0.932264 -4.20663 -10.1309)
(0.224407 -5.15361 -10.6323)
(0.238593 -2.93907 -6.45877)
(-1.50684 -2.29111 -5.20574)
(-3.75825 -2.68831 -3.74613)
(-5.01766 -2.5132 -4.86664)
(-5.90249 -2.59874 -5.2363)
(-4.72096 -2.72891 -6.13665)
(-3.94076 -2.7616 -10.4914)
(-3.00546 -3.00546 -11.0519)
(-1.59798 -3.38635 -9.45511)
(-0.709953 -3.80812 -9.09844)
(0.579959 -0.529761 -7.28327)
(-1.4533 -0.460665 -6.2441)
(-4.0043 -1.27491 -4.71537)
(-4.00337 -1.70133 -5.9735)
(-4.9967 -0.844582 -7.55667)
(-5.32221 -0.385132 -7.96309)
(-4.20663 -0.932265 -10.1309)
(-3.38635 -1.59798 -9.45511)
(-1.73492 -1.73492 -10.3489)
(-0.197372 -1.6365 -11.7464)
(0.307689 1.0935 -10.5993)
(-2.25199 0.821233 -9.66025)
(-4.99892 0.294814 -7.60183)
(-4.58734 -0.173385 -7.32694)
(-4.58629 -0.289156 -8.36796)
(-4.80864 0.237027 -9.21097)
(-5.15361 0.224407 -10.6323)
(-3.80812 -0.709953 -9.09845)
(-1.6365 -0.197371 -11.7464)
(-0.611529 -0.611529 -12.3308)
(0.548857 0.548857 6.31623)
(0.248101 -0.941642 6.0942)
(-2.87415 -0.624659 4.08731)
(-3.44016 0.192639 4.0472)
(-2.92382 0.0173601 3.16052)
(-4.05158 0.0546306 0.935913)
(-3.68171 -0.0260149 -1.19756)
(-3.3768 -0.589365 -2.50388)
(-1.9748 0.132592 -3.07891)
(-0.285194 0.204839 -5.32784)
(-0.941643 0.2481 6.0942)
(-0.925415 -0.925415 3.95944)
(-1.73987 -1.62494 3.1038)
(-2.79814 -0.830153 3.13405)
(-3.06183 -1.40529 1.16182)
(-4.09496 -1.94583 0.0249844)
(-4.32571 -1.85305 -1.96642)
(-3.21819 -1.72983 -3.62789)
(-1.18059 -1.86555 -4.11425)
(-0.212947 -2.25712 -6.10001)
(-0.624659 -2.87415 4.08731)
(-1.62494 -1.73987 3.1038)
(-2.77889 -2.77889 3.92379)
(-3.22051 -2.55373 2.90724)
(-4.0395 -4.0148 1.22686)
(-4.49935 -4.41089 -0.575057)
(-3.46571 -4.37562 -2.35832)
(-3.3893 -3.79061 -3.25832)
(-2.5021 -4.60476 -4.1651)
(-0.676762 -4.72148 -5.44389)
(0.192638 -3.44015 4.0472)
(-0.830153 -2.79814 3.13405)
(-2.55373 -3.22051 2.90724)
(-4.03404 -4.03404 1.59412)
(-4.91899 -4.22326 0.196248)
(-4.45578 -4.71391 -1.55873)
(-3.70542 -5.15299 -3.40702)
(-3.44733 -5.82459 -4.58431)
(-2.11146 -4.87603 -4.84327)
(-0.329663 -4.66487 -5.17392)
(0.0173598 -2.92382 3.16052)
(-1.40529 -3.06183 1.16182)
(-4.0148 -4.0395 1.22686)
(-4.22326 -4.91899 0.196248)
(-4.71937 -4.71937 -1.13922)
(-5.42909 -5.0545 -2.92809)
(-4.57638 -5.30895 -4.44876)
(-3.11234 -6.06579 -4.71499)
(-1.34238 -5.39816 -5.38091)
(-0.465597 -5.61107 -6.17065)
(0.0546304 -4.05158 0.93591)
(-1.94583 -4.09496 0.0249821)
(-4.41089 -4.49935 -0.575058)
(-4.71391 -4.45578 -1.55873)
(-5.0545 -5.42909 -2.92809)
(-5.04537 -5.04537 -4.12442)
(-4.71672 -5.60189 -5.02394)
(-3.53653 -5.86021 -5.2777)
(-1.65674 -6.4919 -6.22197)
(-0.542574 -6.47922 -7.53194)
(-0.0260164 -3.68171 -1.19756)
(-1.85306 -4.32571 -1.96642)
(-4.37562 -3.4657 -2.35832)
(-5.15299 -3.70542 -3.40702)
(-5.30895 -4.57638 -4.44876)
(-5.60189 -4.71672 -5.02394)
(-5.39122 -5.39122 -6.04531)
(-4.00235 -5.62297 -7.13174)
(-1.96139 -5.19026 -7.81901)
(-0.452922 -5.68716 -8.91501)
(-0.589365 -3.3768 -2.50388)
(-1.72982 -3.21819 -3.62789)
(-3.79061 -3.3893 -3.25832)
(-5.82459 -3.44733 -4.58431)
(-6.06579 -3.11234 -4.71499)
(-5.86021 -3.53653 -5.2777)
(-5.62297 -4.00235 -7.13174)
(-3.33556 -3.33556 -7.89036)
(-1.72093 -3.89652 -8.06418)
(-1.03947 -4.35807 -8.30041)
(0.132591 -1.9748 -3.07892)
(-1.86555 -1.1806 -4.11425)
(-4.60476 -2.5021 -4.1651)
(-4.87603 -2.11146 -4.84327)
(-5.39816 -1.34238 -5.38091)
(-6.4919 -1.65674 -6.22197)
(-5.19026 -1.96139 -7.81901)
(-3.89652 -1.72093 -8.06418)
(-2.98389 -2.98389 -8.68199)
(-0.91447 -2.61836 -9.50843)
(0.204837 -0.285195 -5.32784)
(-2.25712 -0.212948 -6.10001)
(-4.72147 -0.676763 -5.44389)
(-4.66487 -0.329662 -5.17393)
(-5.61107 -0.465595 -6.17065)
(-6.47922 -0.542574 -7.53195)
(-5.68716 -0.452921 -8.91501)
(-4.35807 -1.03947 -8.30041)
(-2.61836 -0.91447 -9.50843)
(-0.673947 -0.673947 -9.6488)
(-0.312717 -0.312717 5.03825)
(-1.86271 -1.02533 3.48584)
(-3.39682 -0.387184 3.14234)
(-2.9885 -0.0928781 3.79962)
(-4.28385 -0.641097 2.20085)
(-5.46052 -0.491638 0.869923)
(-4.94046 -0.836853 -0.389347)
(-4.82042 -0.885418 -1.65871)
(-3.35372 -0.455373 -1.97049)
(-1.15542 -0.464478 -3.21923)
(-1.02533 -1.86271 3.48584)
(-1.93717 -1.93717 4.47283)
(-2.46436 -1.19993 3.62657)
(-3.24241 -1.73355 3.29551)
(-4.68261 -1.97022 1.76227)
(-5.65628 -2.59182 0.147171)
(-5.33424 -2.86481 -1.32155)
(-4.43894 -2.26128 -2.24408)
(-2.93278 -2.53949 -3.36271)
(-1.16453 -2.36804 -4.59337)
(-0.387183 -3.39682 3.14234)
(-1.19993 -2.46436 3.62657)
(-3.19319 -3.19319 3.02728)
(-3.75879 -3.69265 2.26818)
(-5.14212 -4.23 1.51944)
(-6.35511 -4.83474 -0.191281)
(-4.60993 -5.22282 -1.57154)
(-4.4951 -4.71468 -2.70398)
(-3.46048 -4.73332 -3.47865)
(-0.983971 -4.07284 -3.91291)
(-0.092879 -2.9885 3.79962)
(-1.73355 -3.24241 3.29551)
(-3.69265 -3.75879 2.26818)
(-4.27922 -4.27922 2.007)
(-5.8247 -5.25639 1.04021)
(-6.64909 -5.75973 -0.854461)
(-5.21418 -6.18338 -2.52818)
(-3.94944 -6.47433 -3.66677)
(-2.29094 -5.21917 -3.90269)
(-0.50404 -5.3141 -4.35225)
(-0.641097 -4.28385 2.20085)
(-1.97022 -4.68261 1.76227)
(-4.23001 -5.14212 1.51944)
(-5.25639 -5.8247 1.04021)
(-6.62262 -6.62262 -0.73756)
(-7.28211 -6.60204 -2.15844)
(-5.32454 -6.3979 -3.29377)
(-3.53089 -6.59588 -3.96496)
(-2.30024 -6.3754 -4.88049)
(-1.0789 -6.9443 -5.78435)
(-0.491637 -5.46052 0.869922)
(-2.59182 -5.65628 0.147171)
(-4.83474 -6.35511 -0.191282)
(-5.75972 -6.64909 -0.854461)
(-6.60204 -7.28211 -2.15844)
(-6.42437 -6.42437 -3.23574)
(-5.20802 -6.7559 -4.48989)
(-3.92695 -7.13771 -4.84618)
(-2.63937 -7.76032 -5.81653)
(-1.07294 -7.55301 -6.50894)
(-0.836854 -4.94046 -0.389348)
(-2.86481 -5.33424 -1.32155)
(-5.22282 -4.60993 -1.57154)
(-6.18338 -5.21418 -2.52818)
(-6.3979 -5.32454 -3.29377)
(-6.7559 -5.20802 -4.48989)
(-6.03788 -6.03788 -5.18922)
(-4.5353 -6.55342 -5.85141)
(-2.71554 -6.04884 -6.60445)
(-0.871591 -5.92207 -7.2777)
(-0.885417 -4.82042 -1.65871)
(-2.26128 -4.43894 -2.24408)
(-4.71468 -4.49509 -2.70398)
(-6.47433 -3.94944 -3.66678)
(-6.59587 -3.53089 -3.96496)
(-7.13771 -3.92695 -4.84619)
(-6.55342 -4.5353 -5.85141)
(-3.93791 -3.93791 -6.4481)
(-2.00803 -4.24932 -7.31443)
(-0.946178 -4.40154 -6.90073)
(-0.455373 -3.35372 -1.9705)
(-2.53949 -2.93278 -3.36271)
(-4.73332 -3.46048 -3.47865)
(-5.21917 -2.29094 -3.90269)
(-6.3754 -2.30024 -4.88049)
(-7.76031 -2.63937 -5.81653)
(-6.04884 -2.71554 -6.60445)
(-4.24932 -2.00803 -7.31443)
(-3.17917 -3.17917 -7.15951)
(-1.0238 -2.98489 -7.08309)
(-0.46448 -1.15542 -3.21923)
(-2.36804 -1.16453 -4.59337)
(-4.07284 -0.983973 -3.91291)
(-5.3141 -0.504041 -4.35225)
(-6.9443 -1.0789 -5.78435)
(-7.55301 -1.07294 -6.50894)
(-5.92207 -0.871591 -7.2777)
(-4.40154 -0.946179 -6.90073)
(-2.98489 -1.02381 -7.08309)
(-0.751899 -0.7519 -7.25788)
(-1.00356 -1.00356 4.50894)
(-1.64781 0.0453472 4.93088)
(-2.56037 -0.14043 5.42627)
(-4.38165 -0.311469 4.25836)
(-5.85352 -0.42122 2.65187)
(-6.64178 -0.668122 1.59992)
(-6.21035 -0.958222 -0.0808538)
(-4.95794 -1.17473 -0.921729)
(-3.53532 -1.25963 -0.822392)
(-1.53393 -1.16931 -1.06097)
(0.0453462 -1.64781 4.93088)
(-0.784682 -0.784681 5.8496)
(-2.91719 -1.74 5.18837)
(-4.66244 -2.3616 3.82234)
(-6.21017 -2.08669 2.86434)
(-7.17878 -3.00704 1.22105)
(-6.71696 -3.03525 0.0899994)
(-5.25935 -2.77509 -1.14401)
(-3.52989 -3.37371 -1.73535)
(-1.44361 -2.9508 -2.28451)
(-0.140428 -2.56037 5.42627)
(-1.74 -2.91719 5.18837)
(-4.13729 -4.13729 4.21122)
(-4.72834 -3.84224 3.47977)
(-6.49896 -4.73686 1.67995)
(-7.59033 -5.41252 0.528063)
(-5.9784 -5.58225 -0.526678)
(-5.29641 -5.2133 -1.72487)
(-3.71103 -5.14474 -2.04856)
(-1.11103 -4.48035 -2.6076)
(-0.311469 -4.38165 4.25836)
(-2.3616 -4.66244 3.82234)
(-3.84224 -4.72834 3.47977)
(-5.26201 -5.26201 2.82388)
(-7.78046 -6.48026 0.613658)
(-8.02417 -6.68107 -0.225818)
(-6.51774 -6.87522 -1.077)
(-4.82184 -7.08556 -2.40422)
(-2.79694 -6.27788 -3.1399)
(-0.779218 -6.5363 -3.73899)
(-0.421221 -5.85352 2.65187)
(-2.08669 -6.21017 2.86434)
(-4.73686 -6.49896 1.67995)
(-6.48026 -7.78046 0.613658)
(-7.91802 -7.91802 -0.854866)
(-7.9853 -7.43577 -1.24536)
(-6.3829 -7.27067 -2.13493)
(-4.69906 -7.2452 -3.34697)
(-3.16177 -7.312 -4.47159)
(-1.36945 -7.76776 -4.70915)
(-0.668121 -6.64178 1.59992)
(-3.00704 -7.17878 1.22105)
(-5.41252 -7.59033 0.528063)
(-6.68107 -8.02417 -0.225819)
(-7.43577 -7.9853 -1.24536)
(-7.37682 -7.37682 -1.88007)
(-6.32716 -7.49734 -3.02607)
(-4.86317 -7.74667 -3.83232)
(-3.3195 -8.21585 -4.74454)
(-1.23498 -7.97257 -4.95834)
(-0.958222 -6.21035 -0.0808546)
(-3.03525 -6.71696 0.0899983)
(-5.58225 -5.9784 -0.526678)
(-6.87522 -6.51774 -1.077)
(-7.27067 -6.3829 -2.13493)
(-7.49734 -6.32716 -3.02607)
(-6.75275 -6.75275 -3.39181)
(-5.41757 -7.22488 -4.41652)
(-3.38767 -6.68815 -5.19929)
(-1.12617 -6.07895 -5.62678)
(-1.17473 -4.95795 -0.921729)
(-2.77509 -5.25935 -1.14401)
(-5.2133 -5.29641 -1.72487)
(-7.08556 -4.82184 -2.40422)
(-7.2452 -4.69906 -3.34697)
(-7.74667 -4.86317 -3.83232)
(-7.22488 -5.41757 -4.41653)
(-4.79858 -4.79858 -5.27939)
(-2.17356 -4.45159 -6.12007)
(-0.625778 -4.16346 -5.53542)
(-1.25963 -3.53531 -0.822394)
(-3.3737 -3.52989 -1.73536)
(-5.14474 -3.71103 -2.04856)
(-6.27788 -2.79694 -3.13991)
(-7.312 -3.16177 -4.47159)
(-8.21585 -3.3195 -4.74454)
(-6.68815 -3.38767 -5.19929)
(-4.45159 -2.17356 -6.12007)
(-2.75255 -2.75255 -5.67997)
(-0.838048 -2.97552 -5.54228)
(-1.16931 -1.53393 -1.06098)
(-2.9508 -1.44361 -2.28452)
(-4.48035 -1.11103 -2.6076)
(-6.5363 -0.779219 -3.73899)
(-7.76776 -1.36945 -4.70915)
(-7.97257 -1.23498 -4.95834)
(-6.07895 -1.12617 -5.62678)
(-4.16346 -0.625778 -5.53542)
(-2.97552 -0.838047 -5.54228)
(-0.848739 -0.848738 -5.5545)
(0.109218 0.109221 5.98503)
(-0.945374 -0.106614 7.34344)
(-4.06933 -0.625084 5.9753)
(-5.7629 -0.528898 4.48)
(-6.94229 -0.428626 3.6067)
(-8.19324 -0.870505 2.09952)
(-7.46211 -0.666001 1.48129)
(-5.56196 -1.1077 0.715563)
(-3.49297 -1.36833 0.111916)
(-1.394 -1.68802 0.536061)
(-0.106617 -0.945374 7.34344)
(-1.67968 -1.67968 7.06644)
(-4.49161 -2.41498 5.38176)
(-5.56644 -2.51214 4.0809)
(-7.2839 -2.94214 2.74787)
(-8.43062 -3.66367 1.7291)
(-7.6993 -3.31064 1.77992)
(-6.26429 -3.06442 0.556556)
(-4.07329 -3.76566 -0.0135448)
(-1.71369 -3.91467 -0.330531)
(-0.625085 -4.06933 5.9753)
(-2.41498 -4.49162 5.38176)
(-4.90179 -4.90179 4.44365)
(-6.29006 -4.69111 3.10943)
(-8.09382 -6.48069 1.57324)
(-8.56174 -6.28161 1.09244)
(-6.86286 -6.38982 0.586248)
(-6.01698 -5.97489 -0.40308)
(-4.34321 -6.13787 -0.713728)
(-1.54301 -5.52731 -1.2346)
(-0.528898 -5.7629 4.48)
(-2.51214 -5.56644 4.0809)
(-4.69111 -6.29006 3.10943)
(-7.14534 -7.14534 1.55876)
(-8.8744 -7.7912 0.405437)
(-8.33975 -7.53315 0.152571)
(-7.39258 -7.79163 -0.231289)
(-6.01235 -8.09643 -1.29092)
(-3.62571 -7.6422 -1.77671)
(-1.10312 -7.41565 -2.28992)
(-0.428624 -6.94229 3.6067)
(-2.94214 -7.2839 2.74787)
(-6.48069 -8.09382 1.57324)
(-7.7912 -8.8744 0.405437)
(-8.48163 -8.48163 -0.404973)
(-8.56217 -8.25629 -0.895358)
(-7.42615 -8.34696 -1.44597)
(-5.86755 -8.02397 -2.2437)
(-3.66242 -7.98003 -2.99169)
(-1.31646 -8.16366 -2.77831)
(-0.870503 -8.19324 2.09952)
(-3.66367 -8.43062 1.7291)
(-6.28161 -8.56174 1.09244)
(-7.53314 -8.33975 0.152569)
(-8.25629 -8.56217 -0.895358)
(-8.20508 -8.20508 -1.5594)
(-7.16027 -8.01278 -2.19006)
(-5.64542 -8.20727 -2.94229)
(-3.76539 -8.48802 -3.36075)
(-1.28675 -8.47063 -3.06077)
(-0.666001 -7.46211 1.48129)
(-3.31064 -7.6993 1.77991)
(-6.38982 -6.86286 0.586247)
(-7.79163 -7.39258 -0.23129)
(-8.34696 -7.42615 -1.44597)
(-8.01278 -7.16027 -2.19006)
(-7.42834 -7.42834 -2.82411)
(-6.34279 -8.00049 -3.76576)
(-3.92579 -7.42437 -3.67135)
(-1.29908 -6.49915 -3.71753)
(-1.1077 -5.56196 0.715563)
(-3.06442 -6.26429 0.556553)
(-5.97489 -6.01698 -0.403081)
(-8.09643 -6.01235 -1.29093)
(-8.02397 -5.86754 -2.2437)
(-8.20727 -5.64542 -2.94229)
(-8.00049 -6.34279 -3.76576)
(-5.64145 -5.64145 -4.10993)
(-2.26406 -4.73 -4.22674)
(-0.361534 -4.31704 -4.01904)
(-1.36833 -3.49297 0.111917)
(-3.76566 -4.07329 -0.0135468)
(-6.13787 -4.34321 -0.71373)
(-7.6422 -3.62571 -1.77672)
(-7.98003 -3.66242 -2.99169)
(-8.48802 -3.76539 -3.36074)
(-7.42437 -3.92579 -3.67135)
(-4.73 -2.26406 -4.22674)
(-2.60138 -2.60138 -4.17988)
(-0.886118 -3.00397 -4.24496)
(-1.68802 -1.394 0.536059)
(-3.91467 -1.71369 -0.330531)
(-5.52731 -1.54301 -1.2346)
(-7.41564 -1.10312 -2.28992)
(-8.16366 -1.31646 -2.77831)
(-8.47063 -1.28675 -3.06077)
(-6.49916 -1.29908 -3.71753)
(-4.31704 -0.361534 -4.01904)
(-3.00396 -0.886118 -4.24496)
(-0.76412 -0.76412 -3.95749)
(0.354848 0.35485 6.16509)
(-1.65754 -0.231653 5.43312)
(-5.42381 -0.733968 4.01511)
(-6.75025 -0.710569 3.45519)
(-8.234 -1.28005 2.11989)
(-8.76719 -1.03854 1.64917)
(-7.5943 -0.659598 1.80811)
(-6.32732 -1.33374 1.2439)
(-3.71482 -1.38509 0.733893)
(-1.10978 -2.0359 1.26006)
(-0.231655 -1.65754 5.43312)
(-2.74636 -2.74636 4.82641)
(-5.90273 -3.27165 3.58922)
(-7.29633 -3.73217 2.73001)
(-8.56197 -4.12015 1.22443)
(-8.14673 -4.01412 1.32081)
(-7.88951 -3.93029 1.12845)
(-7.05281 -3.89374 0.849059)
(-4.41698 -4.19935 0.669945)
(-1.76059 -4.72147 0.513056)
(-0.733968 -5.42381 4.01511)
(-3.27165 -5.90273 3.58922)
(-6.40962 -6.40962 2.13057)
(-7.59875 -6.36438 1.09397)
(-8.51595 -7.07929 0.62891)
(-8.57733 -6.98906 0.693586)
(-7.47392 -7.59345 0.523285)
(-6.59638 -7.06078 0.132022)
(-4.54255 -6.90791 -0.0079023)
(-1.6319 -6.43974 -0.0964721)
(-0.71057 -6.75025 3.45519)
(-3.73217 -7.29633 2.73001)
(-6.36438 -7.59875 1.09397)
(-7.966 -7.966 0.32751)
(-9.18664 -8.45848 0.381041)
(-8.66089 -8.66887 0.286911)
(-7.96123 -8.90744 -0.0586752)
(-6.36727 -8.92618 -0.473374)
(-3.79593 -8.55584 -0.305454)
(-1.29242 -8.08002 -0.641679)
(-1.28005 -8.234 2.11989)
(-4.12015 -8.56197 1.22443)
(-7.07929 -8.51595 0.62891)
(-8.45847 -9.18665 0.38104)
(-9.21881 -9.21881 0.0574821)
(-9.02629 -9.14774 -0.355337)
(-7.73124 -9.22944 -0.708973)
(-6.24478 -8.89657 -0.936954)
(-3.69638 -8.89603 -1.13712)
(-1.15607 -8.53861 -0.980684)
(-1.03853 -8.76719 1.64917)
(-4.01412 -8.14673 1.32081)
(-6.98906 -8.57733 0.693585)
(-8.66886 -8.6609 0.286909)
(-9.14774 -9.0263 -0.355338)
(-8.67152 -8.67152 -0.937024)
(-7.71005 -8.87548 -1.47308)
(-6.03386 -9.26873 -1.93721)
(-3.43798 -8.8955 -1.88516)
(-0.935007 -8.91179 -1.36672)
(-0.659597 -7.5943 1.80811)
(-3.93029 -7.88951 1.12845)
(-7.59345 -7.47392 0.523284)
(-8.90744 -7.96123 -0.0586767)
(-9.22944 -7.73124 -0.708973)
(-8.87548 -7.71006 -1.47308)
(-8.32845 -8.32845 -2.41545)
(-6.2648 -8.39252 -2.74661)
(-3.33943 -7.55414 -1.85692)
(-1.17235 -7.03721 -1.8348)
(-1.33374 -6.32732 1.24389)
(-3.89374 -7.05281 0.849058)
(-7.06078 -6.59638 0.13202)
(-8.92618 -6.36727 -0.473376)
(-8.89656 -6.24478 -0.936956)
(-9.26873 -6.03386 -1.93722)
(-8.39252 -6.2648 -2.74661)
(-5.25955 -5.25955 -2.31055)
(-2.08267 -4.96013 -2.02467)
(-0.418078 -4.69089 -2.22162)
(-1.38509 -3.71482 0.733892)
(-4.19935 -4.41698 0.669944)
(-6.90791 -4.54255 -0.00790249)
(-8.55584 -3.79593 -0.305454)
(-8.89602 -3.69638 -1.13712)
(-8.8955 -3.43798 -1.88516)
(-7.55414 -3.33943 -1.85691)
(-4.96013 -2.08267 -2.02467)
(-2.77078 -2.77078 -2.21365)
(-0.903124 -2.91397 -2.13054)
(-2.0359 -1.10979 1.26006)
(-4.72146 -1.76059 0.513056)
(-6.43974 -1.6319 -0.0964721)
(-8.08002 -1.29242 -0.641679)
(-8.53861 -1.15607 -0.980687)
(-8.91179 -0.935007 -1.36673)
(-7.03721 -1.17236 -1.8348)
(-4.69089 -0.418079 -2.22162)
(-2.91397 -0.903124 -2.13054)
(-0.561272 -0.561272 -2.09081)
(-0.622746 -0.622745 2.8919)
(-3.09535 -0.713332 1.74119)
(-6.04726 -1.05097 1.37188)
(-7.65812 -1.25408 0.930149)
(-8.74831 -1.32409 0.23766)
(-8.50502 -1.19886 1.05635)
(-7.86738 -1.34566 0.834996)
(-6.63617 -1.50253 0.903104)
(-3.47681 -1.43228 1.12282)
(-0.867838 -2.43502 1.23273)
(-0.713332 -3.09535 1.74119)
(-3.52358 -3.52358 0.55741)
(-6.58801 -4.29952 0.503528)
(-7.93124 -4.87336 -0.154329)
(-8.6931 -4.43312 0.145103)
(-8.5266 -4.61925 0.458326)
(-8.17105 -4.59546 -0.146335)
(-6.7228 -4.1763 0.668454)
(-4.40929 -4.50745 0.796655)
(-1.87057 -5.2712 0.619298)
(-1.05097 -6.04727 1.37188)
(-4.29952 -6.58801 0.503528)
(-7.39705 -7.39705 -0.218346)
(-7.79172 -7.09361 -0.17857)
(-8.49421 -7.32408 0.178379)
(-8.66737 -7.31551 0.201113)
(-7.42442 -7.57695 0.13303)
(-6.54817 -7.29733 0.506063)
(-4.57171 -7.11327 0.556414)
(-1.63158 -6.68205 0.783648)
(-1.25408 -7.65812 0.930147)
(-4.87336 -7.93124 -0.154329)
(-7.09361 -7.79172 -0.17857)
(-7.85826 -7.85827 -0.187054)
(-8.915 -8.36263 0.332051)
(-8.77947 -8.58207 0.426847)
(-8.15287 -9.02389 0.369317)
(-6.25913 -9.16541 0.595668)
(-3.79401 -8.77142 0.923433)
(-1.43935 -8.29986 0.788708)
(-1.32409 -8.74831 0.237659)
(-4.43312 -8.6931 0.145103)
(-7.32407 -8.49421 0.178378)
(-8.36263 -8.915 0.33205)
(-9.21801 -9.21801 0.528678)
(-9.32863 -9.48022 0.536955)
(-8.00776 -9.76136 0.42567)
(-6.29569 -9.48781 0.531785)
(-3.70615 -9.55974 0.654388)
(-1.16003 -8.88871 0.50832)
(-1.19886 -8.50503 1.05635)
(-4.61925 -8.5266 0.458325)
(-7.31551 -8.66737 0.201114)
(-8.58207 -8.77947 0.426849)
(-9.48022 -9.32863 0.536954)
(-9.32282 -9.32282 0.282336)
(-8.16046 -9.71926 -0.0840327)
(-6.0575 -10.0169 0.0409954)
(-3.19491 -9.20781 0.17948)
(-0.768312 -9.32475 0.209598)
(-1.34566 -7.86738 0.834996)
(-4.59546 -8.17105 -0.146336)
(-7.57695 -7.42443 0.133029)
(-9.02389 -8.15287 0.369318)
(-9.76136 -8.00777 0.425671)
(-9.71926 -8.16046 -0.0840325)
(-8.70187 -8.70187 -0.401249)
(-5.78425 -8.37382 0.00301677)
(-3.01398 -7.56388 0.386276)
(-1.27696 -7.35405 0.120226)
(-1.50253 -6.63617 0.903103)
(-4.1763 -6.7228 0.668454)
(-7.29733 -6.54817 0.506061)
(-9.16541 -6.25913 0.595668)
(-9.48781 -6.29569 0.531785)
(-10.0169 -6.05751 0.0409945)
(-8.37382 -5.78425 0.00301577)
(-4.91951 -4.91951 0.529761)
(-2.17513 -5.08674 0.230659)
(-0.558483 -4.61278 0.191418)
(-1.43228 -3.47681 1.12282)
(-4.50745 -4.40929 0.796654)
(-7.11327 -4.5717 0.556412)
(-8.77142 -3.79401 0.923434)
(-9.55974 -3.70616 0.654387)
(-9.20781 -3.19491 0.179478)
(-7.56387 -3.01398 0.386277)
(-5.08674 -2.17513 0.23066)
(-2.70725 -2.70725 0.268203)
(-0.803002 -2.87316 0.282581)
(-2.43502 -0.867839 1.23273)
(-5.27119 -1.87057 0.619296)
(-6.68205 -1.63158 0.783646)
(-8.29986 -1.43935 0.788709)
(-8.88871 -1.16003 0.50832)
(-9.32475 -0.768312 0.209597)
(-7.35404 -1.27696 0.120227)
(-4.61278 -0.558483 0.191418)
(-2.87316 -0.803002 0.28258)
(-0.72439 -0.724391 -0.0822388)
(-0.795863 -0.795861 -0.864373)
(-3.17756 -1.41543 -0.95245)
(-6.23485 -1.60232 -0.540527)
(-7.88447 -1.79505 -0.99112)
(-8.1078 -1.37261 -0.246555)
(-8.16985 -1.63656 0.182533)
(-7.74755 -1.64093 0.0870093)
(-6.03949 -1.56839 0.955554)
(-3.38519 -1.71126 1.17471)
(-0.999881 -2.64933 0.974202)
(-1.41544 -3.17756 -0.952449)
(-3.98403 -3.98402 -0.880832)
(-6.61447 -4.86188 -1.00918)
(-7.65476 -4.84089 -1.05423)
(-7.94931 -4.17943 -0.313574)
(-8.43817 -4.86936 -0.137532)
(-7.67938 -4.63226 0.0658153)
(-6.10982 -4.29078 0.801479)
(-4.46613 -4.76576 0.845207)
(-1.93795 -5.17055 1.07818)
(-1.60232 -6.23486 -0.540526)
(-4.86188 -6.61447 -1.00918)
(-7.09172 -7.09172 -0.791134)
(-7.20202 -6.39711 -0.0068412)
(-8.13627 -6.89234 0.436364)
(-8.62268 -7.02054 0.66727)
(-7.16897 -7.0778 0.315859)
(-6.173 -7.13357 0.809924)
(-4.26496 -6.78113 1.14481)
(-1.40466 -6.27033 1.64237)
(-1.79505 -7.88447 -0.99112)
(-4.84089 -7.65476 -1.05423)
(-6.39711 -7.20203 -0.00684038)
(-7.45538 -7.45538 0.418507)
(-8.57274 -8.10818 0.784789)
(-8.62363 -8.33302 0.618439)
(-7.79241 -8.6148 0.679428)
(-5.81315 -8.90046 1.23854)
(-3.60289 -8.45787 1.60987)
(-1.42715 -8.35534 1.65589)
(-1.37261 -8.1078 -0.246556)
(-4.17943 -7.94932 -0.313573)
(-6.89234 -8.13627 0.436365)
(-8.10817 -8.57274 0.78479)
(-9.01391 -9.01391 0.784498)
(-9.1293 -9.29226 0.700068)
(-7.73641 -9.68279 0.984611)
(-6.01606 -9.45124 1.37214)
(-3.71985 -9.63998 1.6159)
(-1.30214 -9.11772 1.41066)
(-1.63656 -8.16985 0.182534)
(-4.86935 -8.43817 -0.137533)
(-7.02053 -8.62268 0.66727)
(-8.33302 -8.62363 0.618438)
(-9.29225 -9.1293 0.700068)
(-9.29251 -9.29251 0.857211)
(-7.95139 -9.7024 1.08349)
(-5.77034 -9.7975 1.66374)
(-3.26937 -9.16361 1.66971)
(-0.904888 -9.29988 1.46339)
(-1.64093 -7.74755 0.0870096)
(-4.63225 -7.67938 0.0658159)
(-7.0778 -7.16897 0.315858)
(-8.6148 -7.79241 0.679429)
(-9.68279 -7.73641 0.984611)
(-9.7024 -7.9514 1.08349)
(-8.2414 -8.2414 1.63582)
(-5.47728 -7.90376 2.2176)
(-3.22222 -7.50296 1.90132)
(-1.43841 -7.05539 1.80836)
(-1.56839 -6.03949 0.955553)
(-4.29078 -6.10982 0.801477)
(-7.13357 -6.173 0.809923)
(-8.90046 -5.81315 1.23854)
(-9.45124 -6.01607 1.37214)
(-9.7975 -5.77035 1.66374)
(-7.90375 -5.47728 2.2176)
(-5.03191 -5.03191 2.4388)
(-2.42101 -5.0782 1.97664)
(-0.45732 -4.52854 2.06925)
(-1.71126 -3.3852 1.17471)
(-4.76576 -4.46613 0.845207)
(-6.78113 -4.26496 1.14481)
(-8.45787 -3.60289 1.60987)
(-9.63998 -3.71985 1.6159)
(-9.16361 -3.26937 1.66971)
(-7.50296 -3.22222 1.90132)
(-5.0782 -2.42101 1.97664)
(-2.71886 -2.71886 1.90178)
(-0.888747 -3.18763 1.34838)
(-2.64933 -0.999882 0.974202)
(-5.17054 -1.93795 1.07818)
(-6.27033 -1.40466 1.64237)
(-8.35534 -1.42715 1.65589)
(-9.11772 -1.30214 1.41066)
(-9.29988 -0.904888 1.46339)
(-7.05539 -1.43841 1.80836)
(-4.52854 -0.457321 2.06925)
(-3.18763 -0.888748 1.34838)
(-0.926091 -0.926092 0.998648)
(-0.710823 -0.710822 -0.827627)
(-2.77151 -0.641715 -0.823545)
(-6.08593 -1.51963 -0.286015)
(-7.36415 -1.31719 -0.152437)
(-7.57466 -1.39111 0.792932)
(-8.17146 -1.51893 0.385669)
(-7.09436 -1.36685 0.707205)
(-5.54847 -1.65661 1.099)
(-3.45816 -1.76179 1.15004)
(-1.06835 -2.33104 1.38947)
(-0.641716 -2.77151 -0.823546)
(-3.58031 -3.58031 -0.0598932)
(-6.76141 -4.55013 0.235955)
(-7.23563 -3.88908 1.04083)
(-7.7764 -3.7502 1.10251)
(-8.14721 -4.13452 0.799111)
(-7.23204 -4.36661 0.880621)
(-5.94341 -4.32193 1.03572)
(-4.13259 -4.53735 1.373)
(-1.6376 -4.60303 1.91064)
(-1.51963 -6.08594 -0.286014)
(-4.55013 -6.76141 0.235955)
(-6.3947 -6.3947 1.46151)
(-6.56422 -5.62087 1.65423)
(-7.8201 -6.22571 1.48858)
(-8.78787 -6.55954 1.36447)
(-7.28177 -6.96333 0.884672)
(-5.71921 -6.86026 1.23945)
(-3.73926 -6.34861 1.69228)
(-1.13402 -6.10433 1.94383)
(-1.31719 -7.36415 -0.152436)
(-3.88908 -7.23563 1.04083)
(-5.62087 -6.56422 1.65423)
(-7.06664 -7.06664 1.80069)
(-8.71507 -8.0145 1.56009)
(-8.88483 -8.54927 1.15738)
(-7.53276 -8.35514 1.07636)
(-5.32869 -8.60319 1.42129)
(-3.37666 -8.30033 1.65169)
(-1.39332 -8.53157 1.75329)
(-1.39111 -7.57466 0.792931)
(-3.7502 -7.7764 1.10251)
(-6.22571 -7.8201 1.48859)
(-8.0145 -8.71507 1.5601)
(-9.30273 -9.30273 1.3102)
(-9.12851 -9.24145 1.09415)
(-7.33569 -9.3573 1.15305)
(-5.6644 -9.06262 1.46068)
(-3.66763 -9.49989 1.69047)
(-1.36526 -9.08121 1.77711)
(-1.51893 -8.17146 0.385669)
(-4.13452 -8.14721 0.799112)
(-6.55954 -8.78787 1.36447)
(-8.54927 -8.88483 1.15738)
(-9.24145 -9.12852 1.09415)
(-8.93939 -8.93939 1.14431)
(-7.35393 -9.06805 1.48538)
(-5.47128 -9.17147 2.01477)
(-3.39525 -8.9224 1.98736)
(-0.974635 -8.92705 2.14027)
(-1.36685 -7.09436 0.707203)
(-4.36661 -7.23204 0.88062)
(-6.96333 -7.28177 0.884671)
(-8.35514 -7.53276 1.07635)
(-9.3573 -7.33569 1.15305)
(-9.06805 -7.35393 1.48538)
(-7.56777 -7.56777 2.22479)
(-5.51875 -7.59877 2.42937)
(-3.42322 -7.25695 2.29457)
(-1.36992 -6.74819 2.52691)
(-1.65661 -5.54847 1.099)
(-4.32193 -5.94341 1.03571)
(-6.86026 -5.71922 1.23945)
(-8.60319 -5.32869 1.42129)
(-9.06262 -5.6644 1.46068)
(-9.17147 -5.47129 2.01477)
(-7.59876 -5.51875 2.42937)
(-5.16046 -5.16047 2.43927)
(-2.54467 -5.08628 2.41744)
(-0.465877 -5.07276 2.07596)
(-1.76179 -3.45816 1.15004)
(-4.53736 -4.13259 1.373)
(-6.34861 -3.73926 1.69228)
(-8.30032 -3.37666 1.65169)
(-9.49989 -3.66763 1.69047)
(-8.92239 -3.39525 1.98736)
(-7.25694 -3.42322 2.29457)
(-5.08628 -2.54468 2.41744)
(-3.33551 -3.33551 1.81489)
(-1.3564 -3.94376 1.2955)
(-2.33104 -1.06835 1.38947)
(-4.60303 -1.6376 1.91064)
(-6.10434 -1.13402 1.94383)
(-8.53156 -1.39332 1.75329)
(-9.08121 -1.36526 1.77711)
(-8.92705 -0.974635 2.14027)
(-6.74819 -1.36992 2.52691)
(-5.07276 -0.465878 2.07596)
(-3.94376 -1.3564 1.2955)
(-1.07412 -1.07412 0.996212)
(-0.791782 -0.79178 -0.187589)
(-2.63595 -0.651782 0.261209)
(-5.56374 -1.08035 0.570819)
(-6.80553 -0.601785 1.71762)
(-7.56969 -1.06304 1.53541)
(-8.25558 -1.22312 1.47444)
(-7.03422 -1.46751 1.48727)
(-5.59665 -1.63168 1.31112)
(-3.09472 -1.4883 1.63314)
(-0.760449 -2.12817 2.07423)
(-0.651783 -2.63595 0.261208)
(-2.92452 -2.92452 0.341701)
(-5.51375 -3.11435 1.77577)
(-6.78821 -3.03422 2.43516)