/*--------------------------------*- C++ -*----------------------------------*\
| =========                 |                                                 |
| \\      /  F ield         | OpenFOAM: The Open Source CFD Toolbox           |
|  \\    /   O peration     | Version:  v2106                                 |
|   \\  /    A nd           | Website:  www.openfoam.com                      |
|    \\/     M anipulation  |                                                 |
\*---------------------------------------------------------------------------*/
FoamFile
{
    version     2.0;
    format      ascii;
    arch        "LSB;label=32;scalar=64";
    class       volScalarField;
    location    "0";
    object      Tmode4;
}
// * * * * * * * * * * * * * * * * * * * * * * * * * * * * * * * * * * * * * //

dimensions      [0 0 0 0 0 0 0];

internalField   nonuniform List<scalar> 
2000
(
0.0262461
0.0175479
0.0199007
0.0167251
0.020415
0.0204611
0.021918
0.0187411
0.0170109
0.0230724
0.0175479
0.0166358
0.0186903
0.0198397
0.0230035
0.0182537
0.0171901
0.0150563
0.0151977
0.0216041
0.0199007
0.0186903
0.0165508
0.0170048
0.0194932
0.0156955
0.0133663
0.00985613
0.00814395
0.0125633
0.0167251
0.0198397
0.0170048
0.0188474
0.0161585
0.0119346
0.0103296
0.00679686
0.00544697
0.00749453
0.020415
0.0230035
0.0194932
0.0161585
0.0120641
0.0072946
0.00592442
0.00118729
0.00407447
0.00476587
0.0204611
0.0182537
0.0156955
0.0119346
0.0072946
0.00195629
0.000423508
-0.00279471
-0.00137015
4.0455e-05
0.021918
0.0171901
0.0133663
0.0103296
0.00592443
0.000423511
0.00118943
-2.28188e-05
-0.00376093
-0.00366397
0.0187411
0.0150563
0.00985614
0.00679687
0.0011873
-0.00279471
-2.28159e-05
-0.00421018
-0.00876662
-0.0115589
0.0170109
0.0151977
0.00814395
0.00544697
0.00407448
-0.00137016
-0.00376093
-0.00876663
-0.0111179
-0.0101518
0.0230724
0.0216041
0.0125634
0.00749453
0.00476587
4.04559e-05
-0.00366397
-0.0115589
-0.0101518
-0.010331
0.0174801
0.0172987
0.0182125
0.0145991
0.0140891
0.0122539
0.0118842
0.00925258
0.00600605
0.00819306
0.0172987
0.0195175
0.0194051
0.0162396
0.0168043
0.0130925
0.0117482
0.00972977
0.00716597
0.00880844
0.0182125
0.0194051
0.0161397
0.0134119
0.0140159
0.0100922
0.00847608
0.0062389
0.00309946
0.00368908
0.0145991
0.0162396
0.0134119
0.0119342
0.0102754
0.00659046
0.00418377
0.00221327
-0.000842633
-0.0011894
0.0140891
0.0168043
0.0140159
0.0102754
0.00823534
0.00327886
0.0002902
-0.00379643
-0.00490728
-0.00548559
0.0122539
0.0130925
0.0100922
0.00659046
0.00327886
-0.00148224
-0.0053782
-0.00959171
-0.010836
-0.010362
0.0118842
0.0117482
0.00847608
0.00418377
0.0002902
-0.0053782
-0.0100285
-0.0132384
-0.0155517
-0.0151029
0.00925258
0.00972977
0.0062389
0.00221327
-0.00379642
-0.00959171
-0.0132383
-0.0174732
-0.0192493
-0.0206692
0.00600606
0.00716597
0.00309946
-0.00084263
-0.00490728
-0.010836
-0.0155517
-0.0192493
-0.0223244
-0.0227191
0.00819306
0.00880844
0.00368908
-0.0011894
-0.00548559
-0.010362
-0.0151029
-0.0206692
-0.0227191
-0.0239422
0.0236852
0.0247829
0.0241814
0.0190346
0.0173011
0.013187
0.00919791
0.00582353
0.00244432
0.00187393
0.0247829
0.0228996
0.0229321
0.0194199
0.0173358
0.0132962
0.00914588
0.0046448
0.0027095
0.00228361
0.0241814
0.0229321
0.0209315
0.0173743
0.0144905
0.00929529
0.0054918
0.00236388
-0.00128679
-0.00264031
0.0190346
0.0194199
0.0173743
0.0143124
0.0093062
0.00447443
0.00039464
-0.00293642
-0.00650002
-0.00715934
0.0173011
0.0173358
0.0144905
0.0093062
0.00604399
-0.000132528
-0.00481418
-0.0092853
-0.0110389
-0.01197
0.013187
0.0132962
0.00929529
0.00447443
-0.000132528
-0.00563457
-0.0102233
-0.015068
-0.0172963
-0.0183815
0.00919792
0.00914588
0.00549181
0.000394639
-0.00481418
-0.0102233
-0.016018
-0.0210057
-0.0240226
-0.0249285
0.00582353
0.0046448
0.00236388
-0.00293642
-0.00928529
-0.015068
-0.0210057
-0.0263139
-0.0276768
-0.0297558
0.00244432
0.0027095
-0.00128679
-0.00650002
-0.0110389
-0.0172963
-0.0240226
-0.0276768
-0.0318157
-0.0336446
0.00187393
0.0022836
-0.00264031
-0.00715934
-0.01197
-0.0183815
-0.0249285
-0.0297558
-0.0336446
-0.0349925
0.0301125
0.0294871
0.0263871
0.0226934
0.0204101
0.0141258
0.00948907
0.00424483
-0.000151774
-0.00246262
0.0294871
0.0274364
0.0256127
0.0225077
0.0191279
0.0131425
0.00781536
0.00247399
-0.00106252
-0.00339157
0.0263871
0.0256127
0.0239873
0.0192264
0.0164697
0.00894212
0.00375944
-0.00027774
-0.00523075
-0.00719869
0.0226934
0.0225077
0.0192264
0.0151224
0.0106679
0.00347299
-0.00263028
-0.00695536
-0.0105292
-0.0115372
0.0204101
0.0191279
0.0164697
0.0106679
0.0059569
-0.00257733
-0.00860732
-0.0132264
-0.0156691
-0.0178269
0.0141257
0.0131425
0.00894212
0.00347299
-0.00257733
-0.00973108
-0.0154261
-0.0201471
-0.02328
-0.0254259
0.00948907
0.00781536
0.00375944
-0.00263028
-0.00860732
-0.0154261
-0.0221191
-0.0275018
-0.0311897
-0.0329329
0.00424483
0.00247399
-0.000277741
-0.00695536
-0.0132264
-0.0201471
-0.0275018
-0.0332539
-0.0353776
-0.03727
-0.000151775
-0.00106252
-0.00523075
-0.0105292
-0.0156691
-0.02328
-0.0311897
-0.0353776
-0.0396884
-0.041736
-0.00246261
-0.00339157
-0.00719869
-0.0115373
-0.0178269
-0.0254259
-0.0329329
-0.03727
-0.041736
-0.0432398
0.0337617
0.0317546
0.0304661
0.0266338
0.0217028
0.0149268
0.00841922
0.0025061
-0.00149667
-0.00456453
0.0317546
0.0318453
0.0301852
0.0260109
0.0208603
0.0135906
0.00650278
0.000156638
-0.00401593
-0.00690314
0.0304661
0.0301852
0.0269861
0.0219106
0.0175294
0.00891273
0.00234873
-0.00304408
-0.00824408
-0.0104661
0.0266338
0.0260109
0.0219106
0.0183264
0.0113866
0.00276551
-0.00466172
-0.01027
-0.0143054
-0.0158638
0.0217028
0.0208603
0.0175294
0.0113866
0.00456887
-0.00444942
-0.0114017
-0.0172152
-0.0207998
-0.0235387
0.0149268
0.0135906
0.00891272
0.00276551
-0.00444942
-0.012106
-0.0192031
-0.0247604
-0.0289294
-0.0313994
0.00841922
0.00650278
0.00234873
-0.00466172
-0.0114017
-0.0192031
-0.0263964
-0.0327085
-0.0372315
-0.0394839
0.0025061
0.000156638
-0.00304409
-0.01027
-0.0172152
-0.0247604
-0.0327085
-0.0392101
-0.0423057
-0.0435573
-0.00149667
-0.00401593
-0.00824408
-0.0143054
-0.0207998
-0.0289294
-0.0372315
-0.0423057
-0.0461347
-0.0478108
-0.00456453
-0.00690314
-0.0104661
-0.0158638
-0.0235387
-0.0313994
-0.0394839
-0.0435573
-0.0478108
-0.0495083
0.0391304
0.0393488
0.0372397
0.0312102
0.0257139
0.0173256
0.00932736
0.00240137
-0.00179656
-0.00458457
0.0393488
0.0391356
0.0359895
0.0301524
0.0248566
0.0155846
0.00799536
0.000185978
-0.00453323
-0.0079606
0.0372397
0.0359895
0.0324097
0.0261859
0.0198296
0.00999825
0.00270609
-0.00372747
-0.00932787
-0.0124139
0.0312102
0.0301524
0.0261859
0.0207702
0.0118952
0.00302136
-0.00478428
-0.0117638
-0.016809
-0.0190152
0.0257138
0.0248566
0.0198296
0.0118952
0.00424716
-0.00506804
-0.0128772
-0.0199203
-0.0246123
-0.0272452
0.0173256
0.0155846
0.00999825
0.00302135
-0.00506804
-0.0134912
-0.0214782
-0.0278117
-0.032769
-0.0353425
0.00932736
0.00799536
0.00270608
-0.00478428
-0.0128772
-0.0214782
-0.0289027
-0.0363349
-0.0415883
-0.0441865
0.00240137
0.000185973
-0.00372748
-0.0117638
-0.0199203
-0.0278118
-0.0363349
-0.0438127
-0.0476178
-0.0483408
-0.00179656
-0.00453323
-0.00932787
-0.016809
-0.0246123
-0.032769
-0.0415883
-0.0476178
-0.0510483
-0.0528205
-0.00458457
-0.0079606
-0.0124139
-0.0190152
-0.0272452
-0.0353425
-0.0441865
-0.0483409
-0.0528205
-0.0543488
0.0457318
0.0464415
0.0424167
0.0355938
0.0289162
0.0191258
0.0113818
0.00393723
-0.00127284
-0.0034924
0.0464415
0.0459781
0.0409487
0.0341727
0.0263561
0.0170488
0.0100626
0.00126975
-0.00404302
-0.0075642
0.0424167
0.0409487
0.0358734
0.0281295
0.0206759
0.0110976
0.00352122
-0.00385024
-0.00967154
-0.0129353
0.0355938
0.0341727
0.0281295
0.0214439
0.0121975
0.00307065
-0.0051243
-0.0128518
-0.0178588
-0.0204437
0.0289162
0.0263561
0.0206759
0.0121975
0.00375893
-0.00624013
-0.0142937
-0.0217026
-0.0267832
-0.0290954
0.0191258
0.0170488
0.0110976
0.00307065
-0.00624013
-0.0152248
-0.0235832
-0.0306449
-0.0356509
-0.0375209
0.0113818
0.0100626
0.00352122
-0.0051243
-0.0142937
-0.0235832
-0.0320446
-0.0402401
-0.0445742
-0.0469189
0.00393723
0.00126974
-0.00385025
-0.0128518
-0.0217026
-0.0306449
-0.0402401
-0.04743
-0.0507592
-0.0515953
-0.00127284
-0.00404302
-0.00967154
-0.0178588
-0.0267832
-0.0356509
-0.0445742
-0.0507592
-0.0544945
-0.0563007
-0.00349241
-0.00756421
-0.0129353
-0.0204437
-0.0290954
-0.0375209
-0.0469189
-0.0515953
-0.0563007
-0.0574233
0.0514606
0.0502151
0.0452699
0.0381206
0.0299536
0.0206239
0.0129436
0.00488916
-0.000328772
-0.00206445
0.0502151
0.0487884
0.0431679
0.0356124
0.0273055
0.0182262
0.0102523
0.0018841
-0.00319334
-0.00693449
0.0452699
0.0431679
0.0366708
0.0283738
0.0210874
0.0113854
0.00375266
-0.00346343
-0.00934367
-0.0126068
0.0381205
0.0356124
0.0283738
0.0214252
0.0126573
0.00359518
-0.00490163
-0.0127106
-0.0174199
-0.0202986
0.0299536
0.0273054
0.0210874
0.0126573
0.00436213
-0.00577872
-0.0142951
-0.0217942
-0.0268865
-0.0292066
0.0206239
0.0182262
0.0113854
0.00359517
-0.00577872
-0.0153653
-0.0244244
-0.0316862
-0.0365394
-0.038076
0.0129436
0.0102523
0.00375265
-0.00490164
-0.0142951
-0.0244244
-0.0337336
-0.0418281
-0.0453021
-0.0478561
0.00488916
0.00188409
-0.00346344
-0.0127106
-0.0217943
-0.0316862
-0.0418281
-0.0484338
-0.0516671
-0.0527841
-0.000328779
-0.00319335
-0.00934368
-0.0174199
-0.0268865
-0.0365394
-0.0453021
-0.0516671
-0.0554756
-0.0570816
-0.00206446
-0.00693449
-0.0126068
-0.0202986
-0.0292066
-0.038076
-0.0478561
-0.0527841
-0.0570816
-0.0585304
0.0515156
0.0499238
0.0451604
0.0374541
0.0293915
0.0212385
0.0130518
0.00574344
0.000972812
-0.00102695
0.0499238
0.047093
0.0419558
0.033864
0.0266463
0.0179654
0.00976994
0.00260666
-0.00244971
-0.00632561
0.0451604
0.0419558
0.0354367
0.0277724
0.0210326
0.0114998
0.00378729
-0.00283812
-0.00855871
-0.011368
0.0374541
0.033864
0.0277724
0.0210698
0.0128616
0.00392434
-0.00438566
-0.0116605
-0.016012
-0.0188663
0.0293915
0.0266463
0.0210326
0.0128616
0.00481628
-0.00516622
-0.0134423
-0.020639
-0.0254744
-0.0280787
0.0212385
0.0179654
0.0114998
0.00392434
-0.00516622
-0.0146602
-0.0237512
-0.030563
-0.0352919
-0.0371017
0.0130518
0.00976993
0.00378728
-0.00438566
-0.0134423
-0.0237512
-0.0328471
-0.040234
-0.0438017
-0.0466785
0.00574343
0.00260665
-0.00283812
-0.0116605
-0.020639
-0.030563
-0.040234
-0.0463705
-0.0502979
-0.0512125
0.000972804
-0.00244971
-0.00855872
-0.016012
-0.0254745
-0.0352919
-0.0438017
-0.0502979
-0.0539581
-0.0557356
-0.00102696
-0.00632562
-0.011368
-0.0188663
-0.0280787
-0.0371017
-0.0466785
-0.0512125
-0.0557356
-0.0575878
0.0497318
0.0483102
0.0441888
0.0361383
0.0294605
0.020989
0.0131176
0.00680027
0.00202065
-0.000116044
0.0483102
0.0470268
0.0411496
0.0335039
0.0266783
0.0179511
0.0103839
0.00348705
-0.00150292
-0.00477812
0.0441888
0.0411496
0.0350886
0.0283602
0.0219601
0.01272
0.00438437
-0.00184358
-0.00705405
-0.0093221
0.0361383
0.0335039
0.0283602
0.0222622
0.0142269
0.00483206
-0.00354278
-0.0102335
-0.0142001
-0.0169868
0.0294605
0.0266783
0.0219601
0.0142269
0.00593112
-0.00437858
-0.0123259
-0.01905
-0.0236547
-0.0263852
0.020989
0.0179511
0.01272
0.00483205
-0.00437858
-0.0136508
-0.0222574
-0.0283587
-0.0331999
-0.0351492
0.0131176
0.0103839
0.00438437
-0.00354278
-0.0123259
-0.0222574
-0.030462
-0.0373929
-0.0414995
-0.0442393
0.00680026
0.00348704
-0.00184359
-0.0102335
-0.01905
-0.0283587
-0.0373929
-0.0435562
-0.0477138
-0.0486456
0.00202065
-0.00150293
-0.00705406
-0.0142002
-0.0236547
-0.0331999
-0.0414995
-0.0477138
-0.0516721
-0.0543849
-0.000116053
-0.00477813
-0.00932211
-0.0169868
-0.0263852
-0.0351492
-0.0442393
-0.0486456
-0.0543849
-0.0565331
0.0498603
0.0482767
0.0445884
0.0371493
0.0309774
0.0220099
0.0144662
0.00794144
0.0032729
0.001752
0.0482767
0.0469732
0.0424277
0.0359457
0.0288513
0.0195636
0.0115312
0.00467809
0.000296296
-0.00250433
0.0445884
0.0424277
0.0383597
0.0310808
0.0240098
0.0142288
0.00555663
-0.000359228
-0.00517416
-0.00748038
0.0371493
0.0359457
0.0310808
0.0246712
0.0159818
0.0062391
-0.00223295
-0.00881789
-0.0127086
-0.0153597
0.0309774
0.0288513
0.0240098
0.0159818
0.00743669
-0.00297792
-0.0111362
-0.0177177
-0.0220935
-0.0245245
0.0220099
0.0195636
0.0142288
0.00623909
-0.00297792
-0.0123715
-0.0207805
-0.0265334
-0.0313172
-0.0328212
0.0144662
0.0115312
0.00555662
-0.00223296
-0.0111362
-0.0207805
-0.0283975
-0.0353753
-0.0392125
-0.0416247
0.00794144
0.00467808
-0.000359234
-0.0088179
-0.0177177
-0.0265334
-0.0353753
-0.0414919
-0.045463
-0.0470606
0.00327289
0.000296287
-0.00517417
-0.0127086
-0.0220935
-0.0313172
-0.0392125
-0.045463
-0.0503283
-0.0531446
0.00175199
-0.00250434
-0.00748039
-0.0153597
-0.0245245
-0.0328212
-0.0416247
-0.0470606
-0.0531446
-0.0555953
0.0493566
0.0488326
0.0453305
0.0395736
0.0325313
0.0239379
0.0160921
0.00942251
0.00528694
0.00403241
0.0488326
0.0477102
0.0447011
0.0383742
0.0309529
0.0217614
0.0130279
0.00656009
0.00244199
-0.000614887
0.0453305
0.0447011
0.040699
0.0335902
0.0263134
0.0160981
0.00749018
0.00158999
-0.00333743
-0.00575751
0.0395736
0.0383742
0.0335902
0.0273763
0.0184953
0.00861656
-8.52687e-05
-0.00692402
-0.0108075
-0.0129958
0.0325313
0.0309529
0.0263134
0.0184953
0.0100337
-0.000558605
-0.00927752
-0.0158383
-0.0195907
-0.0218297
0.0239379
0.0217614
0.0160981
0.00861656
-0.000558608
-0.0104336
-0.0186372
-0.0240845
-0.0285508
-0.0299529
0.0160921
0.0130279
0.00749017
-8.52743e-05
-0.00927752
-0.0186372
-0.0260477
-0.0328677
-0.0364785
-0.0388018
0.0094225
0.00656008
0.00158998
-0.00692403
-0.0158383
-0.0240845
-0.0328677
-0.0390015
-0.0433441
-0.0449064
0.00528693
0.00244199
-0.00333744
-0.0108075
-0.0195907
-0.0285508
-0.0364785
-0.0433441
-0.0484872
-0.0506527
0.00403239
-0.000614897
-0.00575752
-0.0129958
-0.0218297
-0.0299529
-0.0388018
-0.0449064
-0.0506527
-0.052768
0.0492397
0.0496598
0.0472583
0.0413443
0.0343948
0.025907
0.0179686
0.0117307
0.00764379
0.00594784
0.0496598
0.0502696
0.0470975
0.0400917
0.0328602
0.023821
0.0154754
0.00916782
0.00481447
0.00169014
0.0472583
0.0470975
0.0421453
0.0357739
0.0284969
0.0187864
0.0104358
0.00446725
-0.000474914
-0.00292394
0.0413443
0.0400917
0.0357739
0.02992
0.0216905
0.0119544
0.00324114
-0.00337681
-0.00731127
-0.00972784
0.0343948
0.0328602
0.0284969
0.0216905
0.0134489
0.00282991
-0.00568278
-0.0121949
-0.016107
-0.0182689
0.025907
0.023821
0.0187864
0.0119544
0.00282991
-0.00675901
-0.014656
-0.0203754
-0.0247106
-0.0257812
0.0179686
0.0154753
0.0104358
0.00324113
-0.00568278
-0.014656
-0.0222888
-0.028975
-0.0325863
-0.0349798
0.0117307
0.0091678
0.00446723
-0.00337682
-0.0121949
-0.0203754
-0.028975
-0.0351828
-0.0397009
-0.0412546
0.00764378
0.00481446
-0.000474926
-0.00731128
-0.016107
-0.0247106
-0.0325863
-0.0397009
-0.0442366
-0.0467237
0.00594782
0.00169013
-0.00292395
-0.00972785
-0.0182689
-0.0257812
-0.0349798
-0.0412546
-0.0467237
-0.0475171
0.0502415
0.0507281
0.0482918
0.0411106
0.0348661
0.0268992
0.0198904
0.0141128
0.0100178
0.0081849
0.0507281
0.0512237
0.0466293
0.0399777
0.0332461
0.0250571
0.0178234
0.0120706
0.00786243
0.00462851
0.0482918
0.0466293
0.0422228
0.0361014
0.0289946
0.0206112
0.0133513
0.00776489
0.00265725
-0.000234431
0.0411106
0.0399777
0.0361014
0.0302023
0.0230203
0.0144176
0.0066979
0.000356251
-0.00386692
-0.00631357
0.0348661
0.0332461
0.0289946
0.0230203
0.0154927
0.00611835
-0.00150885
-0.00814304
-0.0120021
-0.0139442
0.0268992
0.0250571
0.0206112
0.0144176
0.00611834
-0.00220757
-0.00964758
-0.0156234
-0.0197522
-0.0214334
0.0198904
0.0178234
0.0133513
0.00669789
-0.00150886
-0.00964759
-0.0171109
-0.0238302
-0.0278639
-0.0304667
0.0141128
0.0120706
0.00776488
0.000356241
-0.00814305
-0.0156234
-0.0238302
-0.0300331
-0.0348334
-0.0358607
0.0100178
0.00786241
0.00265723
-0.00386693
-0.0120021
-0.0197522
-0.0278639
-0.0348334
-0.0385025
-0.0408184
0.00818489
0.0046285
-0.000234443
-0.00631358
-0.0139442
-0.0214334
-0.0304667
-0.0358607
-0.0408184
-0.0418075
0.047858
0.0483799
0.0442543
0.0375937
0.0320663
0.0257279
0.0204299
0.015708
0.0120202
0.00990922
0.0483799
0.0471725
0.0420649
0.0360343
0.0301822
0.0242157
0.0189493
0.0142025
0.00990939
0.00680025
0.0442543
0.0420649
0.0380493
0.0318605
0.0264474
0.020569
0.0147982
0.0093587
0.0043809
0.00198135
0.0375937
0.0360343
0.0318605
0.026803
0.0219044
0.0151585
0.00846503
0.00256091
-0.000868046
-0.0029584
0.0320663
0.0301822
0.0264474
0.0219044
0.0159001
0.00812511
0.00139622
-0.00452625
-0.00798854
-0.00988087
0.0257279
0.0242157
0.020569
0.0151585
0.00812511
0.000975728
-0.00546246
-0.0109744
-0.015434
-0.0169726
0.0204299
0.0189492
0.0147981
0.00846502
0.00139622
-0.00546246
-0.0120832
-0.0191068
-0.0225688
-0.0248659
0.015708
0.0142025
0.00935869
0.0025609
-0.00452626
-0.0109744
-0.0191068
-0.0245241
-0.0284098
-0.0293212
0.0120202
0.00990938
0.00438089
-0.000868056
-0.00798855
-0.015434
-0.0225688
-0.0284098
-0.0323003
-0.0339495
0.00990921
0.00680024
0.00198134
-0.00295841
-0.00988088
-0.0169726
-0.0248659
-0.0293212
-0.0339495
-0.0347595
0.0411368
0.040321
0.0363116
0.0310948
0.0266974
0.0226291
0.0189728
0.0153033
0.0119892
0.00991394
0.040321
0.0383512
0.034873
0.0292903
0.0253837
0.0214746
0.0175277
0.0136276
0.0104363
0.00846182
0.0363116
0.034873
0.0304735
0.0256851
0.0223288
0.0180374
0.0133006
0.00920947
0.00572622
0.00372691
0.0310948
0.0292903
0.0256851
0.0221508
0.0185713
0.0130678
0.00793897
0.00356496
0.000689953
-0.0012712
0.0266974
0.0253837
0.0223288
0.0185713
0.0135694
0.00787002
0.00254045
-0.00213605
-0.00536441
-0.00718383
0.0226291
0.0214746
0.0180374
0.0130678
0.00787001
0.00249173
-0.00364963
-0.00802987
-0.0119418
-0.0130826
0.0189727
0.0175277
0.0133006
0.00793896
0.00254044
-0.00364963
-0.0101037
-0.0154955
-0.0175263
-0.0200529
0.0153033
0.0136276
0.00920946
0.00356496
-0.00213605
-0.00802987
-0.0154955
-0.0192538
-0.0224459
-0.0240332
0.0119892
0.0104363
0.0057262
0.000689943
-0.00536442
-0.0119418
-0.0175263
-0.0224459
-0.0260487
-0.0276177
0.00991393
0.00846181
0.0037269
-0.00127121
-0.00718384
-0.0130826
-0.0200529
-0.0240332
-0.0276177
-0.0287544
0.0306167
0.0293328
0.0279399
0.0240167
0.0206706
0.0174084
0.0143965
0.0119693
0.0100562
0.00811632
0.0293328
0.0294124
0.0273041
0.0227493
0.0196239
0.0159827
0.0130073
0.0109036
0.00928988
0.00730058
0.0279399
0.0273041
0.023571
0.0200629
0.0170199
0.0131457
0.00989922
0.00771986
0.00471894
0.00347324
0.0240167
0.0227493
0.0200629
0.0173459
0.0144447
0.0096045
0.00613729
0.0027961
0.000623074
-0.000228998
0.0206706
0.0196239
0.0170199
0.0144447
0.0102819
0.00532188
0.00152457
-0.00269458
-0.00337599
-0.00494843
0.0174084
0.0159827
0.0131457
0.0096045
0.00532187
0.0012192
-0.00407277
-0.00737619
-0.00900944
-0.0107788
0.0143965
0.0130073
0.00989922
0.00613729
0.00152456
-0.00407277
-0.00880085
-0.0124092
-0.0143939
-0.016676
0.0119692
0.0109036
0.00771985
0.00279609
-0.00269458
-0.0073762
-0.0124092
-0.0166256
-0.0184804
-0.0188396
0.0100561
0.00928987
0.00471893
0.000623067
-0.003376
-0.00900944
-0.0143939
-0.0184804
-0.0199588
-0.021709
0.00811631
0.00730057
0.00347323
-0.000229006
-0.00494844
-0.0107788
-0.016676
-0.0188396
-0.021709
-0.0224333
0.0187989
0.0187701
0.0186907
0.015923
0.0122532
0.00935611
0.00724267
0.00643941
0.00556604
0.00286172
0.0187701
0.0197869
0.0183273
0.0145488
0.011565
0.00887854
0.00715228
0.0061698
0.00485751
0.00360923
0.0186907
0.0183273
0.0158195
0.0134944
0.0101371
0.00688487
0.0045471
0.00290295
0.00141562
0.00123964
0.015923
0.0145488
0.0134944
0.0109672
0.00755283
0.00407005
0.00103803
-0.000654617
-0.00136274
-0.00222224
0.0122532
0.011565
0.0101371
0.00755283
0.00449625
0.000728291
-0.00199581
-0.0037548
-0.0046479
-0.00567617
0.0093561
0.00887854
0.00688487
0.00407004
0.00072829
-0.00305149
-0.00635508
-0.00772371
-0.00923025
-0.00966872
0.00724266
0.00715228
0.0045471
0.00103802
-0.00199582
-0.00635509
-0.0098905
-0.0115025
-0.0133771
-0.0148042
0.0064394
0.00616979
0.00290295
-0.000654624
-0.00375481
-0.00772371
-0.0115025
-0.0135756
-0.0151846
-0.0163241
0.00556603
0.00485751
0.00141561
-0.00136274
-0.0046479
-0.00923025
-0.0133771
-0.0151846
-0.0173339
-0.0181562
0.0028617
0.00360922
0.00123963
-0.00222225
-0.00567618
-0.00966872
-0.0148042
-0.0163241
-0.0181562
-0.0192567
0.00685812
0.00710436
0.0061438
0.00483544
0.001625
-9.50716e-06
-0.00181203
-0.00293659
-0.00451667
-0.00665001
0.00710436
0.00672492
0.00535447
0.0036407
0.00255993
0.00180542
0.000708583
0.000134532
0.000785269
0.000253316
0.0061438
0.00535447
0.00411548
0.00359319
0.00153818
-0.00127826
-0.00248465
-0.00302092
-0.00182651
-0.00187945
0.00483544
0.0036407
0.00359319
0.00286283
-3.66785e-05
-0.00246195
-0.00412388
-0.00507245
-0.00480004
-0.00394869
0.00162499
0.00255993
0.00153818
-3.66792e-05
-0.0025553
-0.00478014
-0.00690177
-0.0077865
-0.0082346
-0.00775156
-9.51364e-06
0.00180542
-0.00127826
-0.00246195
-0.00478014
-0.00716204
-0.00921605
-0.0105639
-0.0104575
-0.0105191
-0.00181204
0.00070858
-0.00248466
-0.00412388
-0.00690178
-0.00921605
-0.0115273
-0.0123065
-0.0113619
-0.0119207
-0.00293659
0.000134526
-0.00302092
-0.00507245
-0.0077865
-0.0105639
-0.0123065
-0.0126532
-0.0125062
-0.0138306
-0.00451668
0.000785263
-0.00182651
-0.00480005
-0.0082346
-0.0104575
-0.0113619
-0.0125062
-0.0113916
-0.0139774
-0.00665001
0.00025331
-0.00187946
-0.00394869
-0.00775156
-0.0105191
-0.0119207
-0.0138306
-0.0139774
-0.014082
-0.00667756
-0.00642402
-0.00681206
-0.00522348
-0.00982375
-0.0141488
-0.0191177
-0.0224136
-0.0293171
-0.0405004
-0.00642402
-0.00453925
-0.00745845
-0.00910309
-0.0121577
-0.00993608
-0.00898942
-0.00908743
-0.013851
-0.0281725
-0.00681206
-0.00745845
-0.00832
-0.0106172
-0.0121794
-0.0105808
-0.00958443
-0.00737476
-0.00806463
-0.0187366
-0.00522348
-0.00910309
-0.0106172
-0.0120111
-0.0113005
-0.0112964
-0.0117401
-0.00977179
-0.00870488
-0.0146996
-0.00982376
-0.0121578
-0.0121794
-0.0113005
-0.010616
-0.0105384
-0.0115537
-0.0104022
-0.0110756
-0.0126997
-0.0141489
-0.00993608
-0.0105808
-0.0112964
-0.0105384
-0.0104778
-0.011527
-0.0122319
-0.0126527
-0.0118857
-0.0191177
-0.00898942
-0.00958443
-0.0117401
-0.0115537
-0.011527
-0.0138551
-0.0147622
-0.0129986
-0.0105463
-0.0224136
-0.00908743
-0.00737477
-0.00977179
-0.0104022
-0.0122319
-0.0147622
-0.014371
-0.0121806
-0.00898795
-0.0293171
-0.013851
-0.00806464
-0.00870488
-0.0110756
-0.0126527
-0.0129986
-0.0121806
-0.00907666
-0.00953821
-0.0405004
-0.0281725
-0.0187366
-0.0146996
-0.0126997
-0.0118857
-0.0105463
-0.00898795
-0.00953821
-0.0103032
)
;

boundaryField
{
    block1_in
    {
        type            calculated;
        value           nonuniform List<scalar> 
100
(
0.013242
0.0130708
0.0145848
0.0172315
0.019039
0.0197965
0.0190414
0.0186329
0.0191379
0.019369
0.0130708
0.0145991
0.0150416
0.0171485
0.0185818
0.0190095
0.018257
0.0177216
0.0181642
0.0181899
0.0145848
0.0150416
0.0158307
0.0169277
0.0164664
0.0160501
0.0159484
0.0153186
0.0153788
0.0155032
0.0172315
0.0171485
0.0169277
0.0163203
0.0149413
0.0139842
0.0134316
0.0125292
0.0124278
0.0130818
0.019039
0.0185818
0.0164664
0.0149413
0.0133181
0.0119574
0.0109245
0.00962518
0.00993837
0.0103241
0.0197965
0.0190095
0.0160501
0.0139842
0.0119574
0.0103346
0.00870052
0.00718652
0.00678953
0.00681615
0.0190414
0.018257
0.0159484
0.0134316
0.0109245
0.00870052
0.00677991
0.00467542
0.00337944
0.00318349
0.0186329
0.0177216
0.0153186
0.0125292
0.00962518
0.00718652
0.00467542
0.00156189
-0.000461464
-0.000481482
0.0191379
0.0181642
0.0153788
0.0124278
0.00993837
0.00678953
0.00337943
-0.000461464
-0.00188931
-0.00242847
0.019369
0.0181899
0.0155032
0.0130818
0.0103241
0.00681614
0.00318349
-0.000481483
-0.00242847
-0.00303934
)
;
    }
    block1_out
    {
        type            calculated;
        value           nonuniform List<scalar> 
100
(
-0.0144417
-0.0147244
-0.0131557
-0.0124689
-0.0128476
-0.0134189
-0.0138868
-0.0132816
-0.012277
-0.0118216
-0.0147244
-0.0131129
-0.0126414
-0.0128822
-0.0132652
-0.0134113
-0.0131779
-0.012618
-0.0117025
-0.0109747
-0.0131557
-0.0126414
-0.0127933
-0.0131672
-0.0135976
-0.0134543
-0.0127706
-0.0123229
-0.0115566
-0.0107515
-0.0124689
-0.0128822
-0.0131672
-0.0131397
-0.0131583
-0.0131729
-0.0127767
-0.0125263
-0.0117836
-0.0105656
-0.0128476
-0.0132652
-0.0135976
-0.0131583
-0.0129023
-0.0131017
-0.0130451
-0.0126697
-0.0114493
-0.0105443
-0.0134189
-0.0134113
-0.0134543
-0.0131729
-0.0131017
-0.0134197
-0.0133109
-0.0123187
-0.0111377
-0.010448
-0.0138868
-0.0131779
-0.0127706
-0.0127767
-0.0130451
-0.0133109
-0.0126764
-0.0113622
-0.0103319
-0.00984709
-0.0132816
-0.012618
-0.0123229
-0.0125263
-0.0126697
-0.0123187
-0.0113622
-0.0105153
-0.00986808
-0.00908857
-0.0122769
-0.0117025
-0.0115566
-0.0117836
-0.0114493
-0.0111377
-0.0103319
-0.00986808
-0.00868529
-0.00778054
-0.0118216
-0.0109747
-0.0107515
-0.0105656
-0.0105443
-0.010448
-0.00984709
-0.00908857
-0.00778054
-0.00734458
)
;
    }
    block1_wall1
    {
        type            calculated;
        value           nonuniform List<scalar> 
200
(
0.0262461
0.0175479
0.0199007
0.0167251
0.020415
0.0204611
0.021918
0.0187411
0.0170109
0.0230724
0.0174801
0.0172987
0.0182125
0.0145991
0.0140891
0.0122539
0.0118842
0.00925258
0.00600606
0.00819306
0.0236852
0.0247829
0.0241814
0.0190346
0.0173011
0.013187
0.00919792
0.00582353
0.00244432
0.00187393
0.0301125
0.0294871
0.0263871
0.0226934
0.0204101
0.0141257
0.00948907
0.00424483
-0.000151775
-0.00246261
0.0337617
0.0317546
0.0304661
0.0266338
0.0217028
0.0149268
0.00841922
0.0025061
-0.00149667
-0.00456453
0.0391304
0.0393488
0.0372397
0.0312102
0.0257138
0.0173256
0.00932736
0.00240137
-0.00179656
-0.00458457
0.0457318
0.0464415
0.0424167
0.0355938
0.0289162
0.0191258
0.0113818
0.00393723
-0.00127284
-0.00349241
0.0514606
0.0502151
0.0452699
0.0381205
0.0299536
0.0206239
0.0129436
0.00488916
-0.000328779
-0.00206446
0.0515156
0.0499238
0.0451604
0.0374541
0.0293915
0.0212385
0.0130518
0.00574343
0.000972804
-0.00102696
0.0497318
0.0483102
0.0441888
0.0361383
0.0294605
0.020989
0.0131176
0.00680026
0.00202065
-0.000116053
0.0498603
0.0482767
0.0445884
0.0371493
0.0309774
0.0220099
0.0144662
0.00794144
0.00327289
0.00175199
0.0493566
0.0488326
0.0453305
0.0395736
0.0325313
0.0239379
0.0160921
0.0094225
0.00528693
0.00403239
0.0492397
0.0496598
0.0472583
0.0413443
0.0343948
0.025907
0.0179686
0.0117307
0.00764378
0.00594782
0.0502415
0.0507281
0.0482918
0.0411106
0.0348661
0.0268992
0.0198904
0.0141128
0.0100178
0.00818489
0.047858
0.0483799
0.0442543
0.0375937
0.0320663
0.0257279
0.0204299
0.015708
0.0120202
0.00990921
0.0411368
0.040321
0.0363116
0.0310948
0.0266974
0.0226291
0.0189727
0.0153033
0.0119892
0.00991393
0.0306167
0.0293328
0.0279399
0.0240167
0.0206706
0.0174084
0.0143965
0.0119692
0.0100561
0.00811631
0.0187989
0.0187701
0.0186907
0.015923
0.0122532
0.00935611
0.00724266
0.0064394
0.00556603
0.00286171
0.00685812
0.00710436
0.0061438
0.00483544
0.00162499
-9.51265e-06
-0.00181204
-0.00293659
-0.00451668
-0.00665001
-0.00667756
-0.00642402
-0.00681206
-0.00522348
-0.00982375
-0.0141489
-0.0191177
-0.0224136
-0.0293171
-0.0405004
)
;
    }
    block1_wall2
    {
        type            calculated;
        value           nonuniform List<scalar> 
200
(
0.0230724
0.00819306
0.00187393
-0.00246261
-0.00456453
-0.00458457
-0.00349241
-0.00206446
-0.00102696
-0.000116053
0.00175199
0.00403239
0.00594782
0.00818489
0.00990921
0.00991393
0.00811631
0.00286171
-0.00665001
-0.0405004
0.0216041
0.00880844
0.0022836
-0.00339157
-0.00690314
-0.0079606
-0.00756421
-0.00693449
-0.00632562
-0.00477813
-0.00250434
-0.000614897
0.00169013
0.0046285
0.00680024
0.00846181
0.00730057
0.00360922
0.000253311
-0.0281725
0.0125634
0.00368909
-0.00264031
-0.00719869
-0.0104661
-0.0124139
-0.0129353
-0.0126068
-0.011368
-0.00932211
-0.00748039
-0.00575752
-0.00292395
-0.000234442
0.00198134
0.0037269
0.00347323
0.00123963
-0.00187946
-0.0187366
0.00749453
-0.0011894
-0.00715934
-0.0115373
-0.0158638
-0.0190152
-0.0204437
-0.0202986
-0.0188663
-0.0169868
-0.0153597
-0.0129958
-0.00972785
-0.00631358
-0.00295841
-0.00127121
-0.000229006
-0.00222225
-0.00394869
-0.0146996
0.00476587
-0.00548559
-0.01197
-0.0178269
-0.0235387
-0.0272452
-0.0290954
-0.0292066
-0.0280787
-0.0263852
-0.0245245
-0.0218297
-0.0182689
-0.0139442
-0.00988088
-0.00718384
-0.00494844
-0.00567618
-0.00775156
-0.0126997
4.04561e-05
-0.010362
-0.0183815
-0.0254259
-0.0313994
-0.0353425
-0.0375209
-0.038076
-0.0371017
-0.0351492
-0.0328212
-0.0299529
-0.0257812
-0.0214334
-0.0169726
-0.0130826
-0.0107788
-0.00966872
-0.0105191
-0.0118857
-0.00366397
-0.0151029
-0.0249285
-0.0329329
-0.0394839
-0.0441865
-0.0469189
-0.0478561
-0.0466785
-0.0442393
-0.0416247
-0.0388018
-0.0349798
-0.0304667
-0.0248659
-0.0200529
-0.016676
-0.0148042
-0.0119207
-0.0105463
-0.0115589
-0.0206692
-0.0297558
-0.03727
-0.0435573
-0.0483409
-0.0515953
-0.0527841
-0.0512125
-0.0486456
-0.0470606
-0.0449064
-0.0412546
-0.0358607
-0.0293212
-0.0240332
-0.0188396
-0.0163241
-0.0138306
-0.00898795
-0.0101518
-0.0227191
-0.0336446
-0.041736
-0.0478108
-0.0528205
-0.0563007
-0.0570816
-0.0557356
-0.0543849
-0.0531446
-0.0506527
-0.0467237
-0.0408184
-0.0339495
-0.0276177
-0.021709
-0.0181562
-0.0139774
-0.00953821
-0.010331
-0.0239422
-0.0349925
-0.0432398
-0.0495083
-0.0543488
-0.0574233
-0.0585304
-0.0575878
-0.0565331
-0.0555953
-0.052768
-0.0475171
-0.0418075
-0.0347595
-0.0287544
-0.0224333
-0.0192567
-0.014082
-0.0103032
)
;
    }
    block1_wall3
    {
        type            calculated;
        value           nonuniform List<scalar> 
200
(
0.0230724
0.0216041
0.0125633
0.00749453
0.00476587
4.04553e-05
-0.00366397
-0.0115589
-0.0101518
-0.010331
0.00819306
0.00880844
0.00368908
-0.0011894
-0.00548559
-0.010362
-0.0151029
-0.0206692
-0.0227191
-0.0239422
0.00187393
0.00228361
-0.00264031
-0.00715934
-0.01197
-0.0183815
-0.0249285
-0.0297558
-0.0336446
-0.0349925
-0.00246262
-0.00339157
-0.00719869
-0.0115372
-0.0178269
-0.0254259
-0.0329329
-0.03727
-0.041736