/*--------------------------------*- C++ -*----------------------------------*\
| =========                 |                                                 |
| \\      /  F ield         | OpenFOAM: The Open Source CFD Toolbox           |
|  \\    /   O peration     | Version:  v2106                                 |
|   \\  /    A nd           | Website:  www.openfoam.com                      |
|    \\/     M anipulation  |                                                 |
\*---------------------------------------------------------------------------*/
FoamFile
{
    version     2.0;
    format      ascii;
    arch        "LSB;label=32;scalar=64";
    class       volScalarField;
    location    "0";
    object      Tmode3;
}
// * * * * * * * * * * * * * * * * * * * * * * * * * * * * * * * * * * * * * //

dimensions      [0 0 0 0 0 0 0];

internalField   nonuniform List<scalar> 
2000
(
0.0440194
0.0417643
0.0417717
0.0411626
0.0414135
0.0411597
0.0410726
0.0398841
0.0379013
0.0366038
0.0417643
0.041328
0.0408794
0.0410093
0.0414945
0.0413707
0.041828
0.0416031
0.0405187
0.0387687
0.0417717
0.0408794
0.0402618
0.0402274
0.0409859
0.0410139
0.0410502
0.0410523
0.0406213
0.0392824
0.0411626
0.0410093
0.0402274
0.0408031
0.0409498
0.0406578
0.0405038
0.0406046
0.0407064
0.0396884
0.0414135
0.0414945
0.0409859
0.0409498
0.040794
0.0404048
0.0403578
0.0400838
0.0407259
0.0404112
0.0411597
0.0413707
0.0410139
0.0406578
0.0404048
0.0400352
0.0401047
0.0396861
0.0400342
0.0406423
0.0410726
0.041828
0.0410502
0.0405038
0.0403578
0.0401047
0.0404227
0.0403925
0.0401645
0.0407788
0.0398841
0.0416031
0.0410523
0.0406046
0.0400838
0.0396861
0.0403925
0.0402275
0.0397694
0.0397097
0.0379013
0.0405187
0.0406213
0.0407064
0.0407259
0.0400342
0.0401645
0.0397694
0.040024
0.0400393
0.0366038
0.0387687
0.0392824
0.0396884
0.0404112
0.0406423
0.0407788
0.0397097
0.0400393
0.0401402
0.0291232
0.0286899
0.0290008
0.0288817
0.0292606
0.0293902
0.0298801
0.0298877
0.0296223
0.0291072
0.0286899
0.0291865
0.0292546
0.0291127
0.0294929
0.0294082
0.0297932
0.0300617
0.0300646
0.0295022
0.0290008
0.0292546
0.0289525
0.0287319
0.0291613
0.0291226
0.0294627
0.0296487
0.0297399
0.0294068
0.0288817
0.0291127
0.0287319
0.0287568
0.0289926
0.0290174
0.0292142
0.029383
0.029585
0.0293156
0.0292606
0.0294929
0.0291613
0.0289926
0.0291974
0.0291125
0.0292862
0.0291801
0.029554
0.0293876
0.0293902
0.0294082
0.0291226
0.0290174
0.0291125
0.0289867
0.02921
0.029131
0.0292433
0.0293646
0.0298801
0.0297932
0.0294627
0.0292142
0.0292862
0.02921
0.0294421
0.029326
0.0291534
0.0294595
0.0298877
0.0300617
0.0296487
0.029383
0.0291801
0.029131
0.029326
0.0290869
0.0290654
0.0290918
0.0296223
0.0300646
0.0297399
0.029585
0.029554
0.0292433
0.0291534
0.0290654
0.0290374
0.0290915
0.0291072
0.0295022
0.0294068
0.0293156
0.0293876
0.0293646
0.0294595
0.0290918
0.0290915
0.0289398
0.0185155
0.0182111
0.0185045
0.0179904
0.0185312
0.0186153
0.0186967
0.0188609
0.018959
0.01902
0.0182111
0.0179528
0.0183536
0.0181845
0.0185054
0.0187012
0.0187385
0.0186844
0.0191056
0.0192133
0.0185045
0.0183536
0.0183512
0.0181536
0.0183431
0.0184244
0.0185108
0.0187171
0.018944
0.0189199
0.0179904
0.0181845
0.0181536
0.0180957
0.0180313
0.0181646
0.018307
0.0184409
0.0185799
0.018711
0.0185312
0.0185054
0.0183431
0.0180313
0.0182881
0.0182196
0.0183575
0.0183463
0.0186514
0.0188243
0.0186153
0.0187012
0.0184244
0.0181646
0.0182196
0.0182688
0.018436
0.0184366
0.0186484
0.0188425
0.0186967
0.0187385
0.0185108
0.018307
0.0183575
0.018436
0.0185744
0.0186097
0.0186234
0.0188453
0.0188609
0.0186844
0.0187171
0.0184409
0.0183463
0.0184366
0.0186097
0.0185629
0.0188281
0.0187412
0.018959
0.0191056
0.018944
0.0185799
0.0186514
0.0186484
0.0186234
0.0188281
0.0186488
0.0184547
0.01902
0.0192133
0.0189199
0.018711
0.0188243
0.0188425
0.0188453
0.0187412
0.0184547
0.0184648
0.0086204
0.00848264
0.00839683
0.00806344
0.00855102
0.00854916
0.00878957
0.00875508
0.00891189
0.00912061
0.00848264
0.00820612
0.00812536
0.00812216
0.00841502
0.00845937
0.00861682
0.0086568
0.00890502
0.00899807
0.00839683
0.00812536
0.0081243
0.00791585
0.00833392
0.00816043
0.00842987
0.00871283
0.00876526
0.00892556
0.00806344
0.00812216
0.00791585
0.0078448
0.00808975
0.00807588
0.00817094
0.00823448
0.00847061
0.00886681
0.00855102
0.00841502
0.00833392
0.00808975
0.00840316
0.00806705
0.00821679
0.00827436
0.00866132
0.00892665
0.00854916
0.00845937
0.00816043
0.00807588
0.00806705
0.00804238
0.00826372
0.00832526
0.00867401
0.00888918
0.00878957
0.00861682
0.00842987
0.00817094
0.00821679
0.00826372
0.00827434
0.00837912
0.00858775
0.00875291
0.00875508
0.0086568
0.00871283
0.00823448
0.00827436
0.00832526
0.00837912
0.00847525
0.00885424
0.00888225
0.00891189
0.00890502
0.00876526
0.00847061
0.00866132
0.00867401
0.00858775
0.00885424
0.00877033
0.00874911
0.00912061
0.00899807
0.00892556
0.00886681
0.00892665
0.00888918
0.00875291
0.00888225
0.00874911
0.00878945
-0.00052957
-0.000904347
-0.000754404
-0.000995618
-0.000782406
-0.000770747
-0.00053371
-0.000356178
-0.000106884
8.89476e-05
-0.000904347
-0.00108669
-0.00094665
-0.00112435
-0.00096906
-0.000863208
-0.000720272
-0.000610558
-0.000386908
-0.000240885
-0.000754404
-0.00094665
-0.0010736
-0.00135528
-0.000873895
-0.00101523
-0.000889237
-0.000582259
-0.00038246
-0.000127991
-0.000995618
-0.00112435
-0.00135528
-0.00112081
-0.0010647
-0.00119501
-0.00117523
-0.00100368
-0.000645272
-0.000230389
-0.000782406
-0.00096906
-0.000873895
-0.0010647
-0.000892593
-0.00114704
-0.00102084
-0.000908315
-0.000560476
-0.000324805
-0.000770747
-0.000863208
-0.00101523
-0.00119501
-0.00114704
-0.0011753
-0.00105304
-0.000929857
-0.000605095
-0.000366018
-0.00053371
-0.000720272
-0.000889237
-0.00117523
-0.00102084
-0.00105304
-0.00103601
-0.000909194
-0.000680788
-0.000515676
-0.000356178
-0.000610558
-0.000582259
-0.00100368
-0.000908315
-0.000929857
-0.000909194
-0.000777698
-0.000403161
-0.000110613
-0.000106884
-0.000386908
-0.00038246
-0.000645272
-0.000560476
-0.000605095
-0.000680788
-0.000403161
-0.00020585
-3.61032e-05
8.89475e-05
-0.000240885
-0.000127991
-0.000230388
-0.000324805
-0.000366018
-0.000515676
-0.000110613
-3.61032e-05
-3.20596e-05
-0.00844644
-0.00859222
-0.00854685
-0.00901738
-0.00865339
-0.00868833
-0.00848875
-0.00843575
-0.00808604
-0.00766532
-0.00859222
-0.00889542
-0.00896473
-0.00913865
-0.00873313
-0.00883601
-0.00863662
-0.00864071
-0.00832809
-0.00822356
-0.00854685
-0.00896473
-0.00900141
-0.0092108
-0.0088518
-0.00909278
-0.00890548
-0.00856185
-0.00830005
-0.00816795
-0.00901738
-0.00913865
-0.0092108
-0.00902008
-0.00915042
-0.00923461
-0.00907838
-0.00898007
-0.00870763
-0.00834451
-0.00865339
-0.00873313
-0.0088518
-0.00915042
-0.00905963
-0.00916255
-0.00898786
-0.00897657
-0.00870616
-0.00841632
-0.00868833
-0.00883601
-0.00909278
-0.00923461
-0.00916255
-0.00914192
-0.00905567
-0.00892192
-0.00864861
-0.00839461
-0.00848875
-0.00863662
-0.00890548
-0.00907838
-0.00898786
-0.00905567
-0.00894902
-0.00887752
-0.0087264
-0.00853851
-0.00843575
-0.00864071
-0.00856185
-0.00898007
-0.00897657
-0.00892192
-0.00887752
-0.00882488
-0.0084542
-0.00796498
-0.00808604
-0.00832809
-0.00830005
-0.00870763
-0.00870616
-0.00864861
-0.0087264
-0.0084542
-0.00804736
-0.00791272
-0.00766532
-0.00822356
-0.00816795
-0.00834451
-0.00841632
-0.00839461
-0.00853851
-0.00796498
-0.00791272
-0.00777758
-0.015047
-0.0152032
-0.0152836
-0.0156909
-0.0152561
-0.0154251
-0.0151584
-0.0150692
-0.0147625
-0.0142182
-0.0152032
-0.0154817
-0.0157046
-0.0157817
-0.01557
-0.0155969
-0.0152403
-0.0153001
-0.0150568
-0.0149562
-0.0152836
-0.0157046
-0.0157375
-0.0160364
-0.0157872
-0.0159039
-0.0156285
-0.0153568
-0.0151261
-0.0149545
-0.0156909
-0.0157817
-0.0160364
-0.0159774
-0.0160663
-0.0161042
-0.0159013
-0.0158743
-0.0155253
-0.0151244
-0.0152561
-0.01557
-0.0157872
-0.0160663
-0.0159947
-0.0161247
-0.0158598
-0.0158095
-0.0155007
-0.0151535
-0.0154251
-0.0155969
-0.0159039
-0.0161042
-0.0161247
-0.0160594
-0.0158518
-0.0156993
-0.0154322
-0.0150735
-0.0151584
-0.0152403
-0.0156285
-0.0159013
-0.0158598
-0.0158518
-0.0157205
-0.0157666
-0.0154635
-0.0152066
-0.0150692
-0.0153001
-0.0153568
-0.0158743
-0.0158095
-0.0156993
-0.0157666
-0.0156544
-0.0150835
-0.0146489
-0.0147625
-0.0150568
-0.0151261
-0.0155253
-0.0155007
-0.0154322
-0.0154635
-0.0150835
-0.0147701
-0.0145854
-0.0142182
-0.0149562
-0.0149545
-0.0151244
-0.0151535
-0.0150735
-0.0152066
-0.0146489
-0.0145854
-0.014274
-0.0201642
-0.0205407
-0.0206086
-0.0208625
-0.0206109
-0.020719
-0.0203895
-0.0204033
-0.0201215
-0.0194002
-0.0205407
-0.0208353
-0.0209956
-0.0211305
-0.0209669
-0.0209631
-0.0207223
-0.0207156
-0.0204264
-0.0202617
-0.0206086
-0.0209956
-0.0212504
-0.0215216
-0.0212283
-0.0214128
-0.0211177
-0.0208071
-0.0205235
-0.0202622
-0.0208625
-0.0211305
-0.0215216
-0.0215032
-0.0215766
-0.0215869
-0.0213679
-0.0213037
-0.0208064
-0.0203935
-0.0206109
-0.0209669
-0.0212283
-0.0215766
-0.0214677
-0.021543
-0.0212551
-0.0211341
-0.0207665
-0.0204142
-0.020719
-0.0209631
-0.0214128
-0.0215869
-0.021543
-0.0214594
-0.0212686
-0.021066
-0.0207554
-0.0202968
-0.0203895
-0.0207223
-0.0211177
-0.0213679
-0.0212551
-0.0212686
-0.0211869
-0.0211853
-0.0206378
-0.0204319
-0.0204033
-0.0207156
-0.0208071
-0.0213037
-0.0211341
-0.021066
-0.0211853
-0.0208819
-0.0202433
-0.0198941
-0.0201215
-0.0204264
-0.0205235
-0.0208064
-0.0207665
-0.0207554
-0.0206378
-0.0202433
-0.0199451
-0.0196174
-0.0194002
-0.0202617
-0.0202622
-0.0203935
-0.0204142
-0.0202968
-0.0204319
-0.0198941
-0.0196174
-0.0194161
-0.0241718
-0.0243884
-0.0243712
-0.0247347
-0.0245199
-0.0244729
-0.0242711
-0.0241456
-0.0237645
-0.0230123
-0.0243884
-0.0248733
-0.0248584
-0.0251256
-0.0248613
-0.0248784
-0.024679
-0.0244587
-0.0241529
-0.0239868
-0.0243712
-0.0248584
-0.0251561
-0.0254022
-0.0250923
-0.0253116
-0.0250318
-0.0245947
-0.0242444
-0.0238861
-0.0247347
-0.0251256
-0.0254022
-0.0254065
-0.0254805
-0.0254878
-0.0252323
-0.0250265
-0.0244099
-0.0239841
-0.0245199
-0.0248613
-0.0250923
-0.0254805
-0.0253656
-0.0254325
-0.0250735
-0.024809
-0.0243616
-0.0240163
-0.0244729
-0.0248784
-0.0253116
-0.0254878
-0.0254325
-0.0253443
-0.0250989
-0.0246894
-0.0242888
-0.0238642
-0.0242711
-0.024679
-0.0250318
-0.0252323
-0.0250735
-0.0250989
-0.0248714
-0.0246426
-0.0240897
-0.023941
-0.0241456
-0.0244587
-0.0245947
-0.0250265
-0.024809
-0.0246894
-0.0246426
-0.0242224
-0.0237433
-0.0232059
-0.0237645
-0.0241529
-0.0242444
-0.0244099
-0.0243616
-0.0242888
-0.0240897
-0.0237433
-0.0232851
-0.0228907
-0.0230123
-0.0239868
-0.0238861
-0.0239841
-0.0240163
-0.0238642
-0.023941
-0.0232059
-0.0228907
-0.0226876
-0.0262842
-0.0264122
-0.026334
-0.0268685
-0.0265577
-0.0266096
-0.0263275
-0.026025
-0.0257059
-0.0249883
-0.0264122
-0.0265958
-0.0268544
-0.0271638
-0.0269518
-0.026972
-0.0266456
-0.0264118
-0.026137
-0.025872
-0.026334
-0.0268544
-0.0271805
-0.0273992
-0.0271027
-0.0272368
-0.0270487
-0.0265362
-0.0261225
-0.025683
-0.0268685
-0.0271638
-0.0273992
-0.0273945
-0.0274552
-0.0274933
-0.0272253
-0.0268871
-0.0262244
-0.0258144
-0.0265577
-0.0269518
-0.0271027
-0.0274552
-0.0273713
-0.0274914
-0.0270193
-0.0266381
-0.0262146
-0.0258501
-0.0266096
-0.026972
-0.0272368
-0.0274933
-0.0274914
-0.0273486
-0.0269811
-0.0264277
-0.0260359
-0.0256021
-0.0263275
-0.0266456
-0.0270487
-0.0272253
-0.0270193
-0.0269811
-0.0265805
-0.0262993
-0.0258557
-0.0256226
-0.026025
-0.0264118
-0.0265362
-0.0268871
-0.0266381
-0.0264277
-0.0262993
-0.0258833
-0.0253659
-0.0247717
-0.0257059
-0.026137
-0.0261225
-0.0262244
-0.0262146
-0.0260359
-0.0258557
-0.0253659
-0.0249318
-0.0247184
-0.0249883
-0.025872
-0.025683
-0.0258144
-0.0258501
-0.0256021
-0.0256226
-0.0247717
-0.0247184
-0.0244477
-0.026186
-0.0263791
-0.0263873
-0.0270212
-0.0266837
-0.0267557
-0.0264063
-0.026186
-0.0258977
-0.0250509
-0.0263791
-0.0266779
-0.0269315
-0.0271942
-0.0270156
-0.0270463
-0.0267876
-0.0265647
-0.0261965
-0.0258318
-0.0263873
-0.0269315
-0.0270607
-0.0274642
-0.0272069
-0.0273257
-0.0271473
-0.0265735
-0.0261439
-0.0257182
-0.0270212
-0.0271942
-0.0274642
-0.0275226
-0.0275555
-0.0275361
-0.0272379
-0.0269068
-0.0262699
-0.025816
-0.0266837
-0.0270156
-0.0272069
-0.0275555
-0.0274128
-0.027487
-0.0270243
-0.0266527
-0.0262243
-0.0258062
-0.0267557
-0.0270463
-0.0273257
-0.0275361
-0.027487
-0.0273254
-0.0269501
-0.0263934
-0.0260768
-0.0255143
-0.0264063
-0.0267876
-0.0271473
-0.0272379
-0.0270243
-0.0269501
-0.0265334
-0.0263716
-0.0258914
-0.0255136
-0.026186
-0.0265647
-0.0265735
-0.0269068
-0.0266527
-0.0263934
-0.0263716
-0.0260083
-0.0253576
-0.0248706
-0.0258977
-0.0261965
-0.0261439
-0.0262699
-0.0262243
-0.0260768
-0.0258914
-0.0253577
-0.0251193
-0.0248546
-0.0250509
-0.0258318
-0.0257182
-0.025816
-0.0258062
-0.0255143
-0.0255136
-0.0248706
-0.0248546
-0.024641
-0.0244674
-0.0246612
-0.0248229
-0.0252731
-0.0250467
-0.0250181
-0.0247386
-0.0245284
-0.0241231
-0.0231993
-0.0246612
-0.0250906
-0.0252172
-0.025526
-0.0253268
-0.0252879
-0.0251012
-0.0247721
-0.0243453
-0.024048
-0.0248229
-0.0252172
-0.0254587
-0.0258575
-0.0254935
-0.0255636
-0.025323
-0.0247348
-0.0243553
-0.0239383
-0.0252731
-0.025526
-0.0258575
-0.0258003
-0.0256944
-0.0256004
-0.0253163
-0.0250384
-0.0244021
-0.0238518
-0.0250467
-0.0253268
-0.0254935
-0.0256944
-0.0254267
-0.0254888
-0.025146
-0.0248218
-0.0242467
-0.0238417
-0.0250181
-0.0252879
-0.0255636
-0.0256004
-0.0254888
-0.0254296
-0.0250842
-0.024511
-0.0241277
-0.0235665
-0.0247386
-0.0251012
-0.025323
-0.0253163
-0.025146
-0.0250842
-0.0247095
-0.0244884
-0.0239259
-0.0236069
-0.0245284
-0.0247721
-0.0247348
-0.0250384
-0.0248218
-0.024511
-0.0244884
-0.0241137
-0.0236223
-0.0231278
-0.0241231
-0.0243453
-0.0243553
-0.0244021
-0.0242467
-0.0241277
-0.0239259
-0.0236223
-0.0234647
-0.0230048
-0.0231993
-0.024048
-0.0239383
-0.0238518
-0.0238417
-0.0235665
-0.0236069
-0.0231278
-0.0230048
-0.0227118
-0.0210397
-0.0211913
-0.0212415
-0.021694
-0.0214059
-0.0213946
-0.0212081
-0.0209082
-0.0204717
-0.0196943
-0.0211913
-0.0214024
-0.0215951
-0.0219683
-0.0216863
-0.021672
-0.0214567
-0.0210795
-0.0207231
-0.0205076
-0.0212415
-0.0215951
-0.0220292
-0.0222259
-0.0218132
-0.0218494
-0.0216201
-0.0210512
-0.020678
-0.0202688
-0.021694
-0.0219683
-0.0222259
-0.0220526
-0.0218391
-0.0217921
-0.0215628
-0.0212048
-0.0205553
-0.0201484
-0.0214059
-0.0216863
-0.0218132
-0.0218391
-0.0215695
-0.0217071
-0.0213777
-0.0210842
-0.0205653
-0.0202515
-0.0213946
-0.021672
-0.0218494
-0.0217921
-0.0217071
-0.0216819
-0.0213476
-0.020875
-0.0204363
-0.0199259
-0.0212081
-0.0214567
-0.0216201
-0.0215628
-0.0213777
-0.0213476
-0.0210587
-0.0208352
-0.0202419
-0.0201119
-0.0209082
-0.0210795
-0.0210512
-0.0212048
-0.0210842
-0.020875
-0.0208352
-0.0205026
-0.0200713
-0.0196941
-0.0204717
-0.0207231
-0.020678
-0.0205553
-0.0205653
-0.0204363
-0.0202419
-0.0200713
-0.0197835
-0.0195839
-0.0196943
-0.0205076
-0.0202688
-0.0201484
-0.0202515
-0.0199259
-0.0201119
-0.0196941
-0.0195839
-0.0192095
-0.0155269
-0.0156671
-0.0156555
-0.0162382
-0.0158836
-0.0159494
-0.0158113
-0.0155574
-0.0152005
-0.0145696
-0.0156671
-0.0158318
-0.0161725
-0.0164392
-0.01614
-0.0162241
-0.0160653
-0.0156859
-0.0153885
-0.0152444
-0.0156555
-0.0161725
-0.0164633
-0.0165702
-0.0162872
-0.0164038
-0.0161932
-0.0156731
-0.0153689
-0.0151279
-0.0162382
-0.0164392
-0.0165702
-0.0164614
-0.0163114
-0.0163599
-0.0161532
-0.0158255
-0.0152845
-0.0150282
-0.0158836
-0.01614
-0.0162872
-0.0163114
-0.0161659
-0.0163498
-0.0160388
-0.0158554
-0.0154513
-0.0151442
-0.0159494
-0.0162241
-0.0164038
-0.0163599
-0.0163498
-0.0162931
-0.0160025
-0.0156298
-0.0152766
-0.0149351
-0.0158113
-0.0160653
-0.0161932
-0.0161532
-0.0160388
-0.0160025
-0.0157113
-0.0156487
-0.0153135
-0.0152482
-0.0155574
-0.0156859
-0.0156731
-0.0158255
-0.0158554
-0.0156298
-0.0156487
-0.0154961
-0.0151976
-0.0147894
-0.0152005
-0.0153885
-0.0153689
-0.0152845
-0.0154513
-0.0152766
-0.0153135
-0.0151976
-0.0149387
-0.0147691
-0.0145696
-0.0152444
-0.0151279
-0.0150282
-0.0151442
-0.0149351
-0.0152482
-0.0147894
-0.0147691
-0.0146648
-0.00847164
-0.00847917
-0.00863762
-0.00915853
-0.0088715
-0.00892526
-0.00883761
-0.00867365
-0.00842593
-0.00794568
-0.00847917
-0.008748
-0.0091085
-0.00934291
-0.0090867
-0.00918119
-0.00908752
-0.00874728
-0.00861788
-0.00851481
-0.00863762
-0.0091085
-0.00931062
-0.00946113
-0.00926186
-0.0094102
-0.00924478
-0.00894294
-0.00883168
-0.00865245
-0.00915853
-0.00934291
-0.00946113
-0.00946859
-0.00934143
-0.00941805
-0.00932384
-0.00921592
-0.00873328
-0.00848392
-0.0088715
-0.0090867
-0.00926186
-0.00934143
-0.00921722
-0.00942655
-0.0092987
-0.00925327
-0.00886395
-0.00867129
-0.00892526
-0.00918119
-0.0094102
-0.00941805
-0.00942655
-0.00946077
-0.00928221
-0.00903257
-0.00886547
-0.00867396
-0.00883761
-0.00908752
-0.00924478
-0.00932384
-0.0092987
-0.00928221
-0.0090461
-0.00928931
-0.00904708
-0.00896432
-0.00867365
-0.00874728
-0.00894294
-0.00921592
-0.00925327
-0.00903257
-0.00928931
-0.00923593
-0.00892822
-0.00856993
-0.00842593
-0.00861788
-0.00883168
-0.00873328
-0.00886395
-0.00886547
-0.00904708
-0.00892822
-0.00888845
-0.00870055
-0.00794568
-0.00851481
-0.00865245
-0.00848392
-0.00867129
-0.00867396
-0.00896432
-0.00856993
-0.00870055
-0.0083797
-0.000104675
-0.000158156
-0.000282652
-0.000718107
-0.000561808
-0.000551877
-0.000497191
-0.000456064
-0.000401281
-7.1526e-05
-0.000158156
-0.000408759
-0.000558047
-0.000967599
-0.000734265
-0.0007727
-0.000802576
-0.000643713
-0.000548085
-0.000311485
-0.000282652
-0.000558047
-0.00096451
-0.00113206
-0.000955473
-0.00112195
-0.00114466
-0.000926837
-0.000802826
-0.000663018
-0.000718107
-0.000967599
-0.00113206
-0.00122386
-0.0011663
-0.00135211
-0.00137478
-0.00123436
-0.000867702
-0.000750429
-0.000561808
-0.000734265
-0.000955473
-0.0011663
-0.00118643
-0.00138427
-0.00128842
-0.00126784
-0.0010708
-0.000994034
-0.000551877
-0.0007727
-0.00112195
-0.00135211
-0.00138427
-0.00139152
-0.0013885
-0.00134583
-0.00128713
-0.00103653
-0.000497191
-0.000802576
-0.00114466
-0.00137478
-0.00128842
-0.0013885
-0.0015365
-0.00181149
-0.00139156
-0.00149974
-0.000456064
-0.000643713
-0.000926837
-0.00123436
-0.00126784
-0.00134583
-0.00181149
-0.0016525
-0.00144425
-0.00131097
-0.000401281
-0.000548085
-0.000802826
-0.000867702
-0.0010708
-0.00128713
-0.00139156
-0.00144425
-0.00148758
-0.00133664
-7.15263e-05
-0.000311485
-0.000663018
-0.000750429
-0.000994034
-0.00103653
-0.00149974
-0.00131097
-0.00133664
-0.000969217
0.00932414
0.00927667
0.00937992
0.008996
0.00904968
0.00897938
0.00888937
0.00883043
0.00890415
0.00901834
0.00927667
0.00925187
0.00925189
0.00879598
0.00888884
0.0087001
0.00852804
0.00869791
0.00887123
0.00888149
0.00937992
0.00925189
0.008807
0.00863621
0.00864018
0.00836089
0.00831123
0.00856625
0.00855561
0.00871879
0.008996
0.00879598
0.00863621
0.00844981
0.00842882
0.00809763
0.00800866
0.00802782
0.00830411
0.00854553
0.00904968
0.00888884
0.00864018
0.00842882
0.00824968
0.00795822
0.00792737
0.00775547
0.00813067
0.00815133
0.00897938
0.0087001
0.00836089
0.00809763
0.00795822
0.00792128
0.00762971
0.00765228
0.00783205
0.00792278
0.00888937
0.00852804
0.00831123
0.00800866
0.00792737
0.00762971
0.00732165
0.00723439
0.00742197
0.00728737
0.00883043
0.00869791
0.00856625
0.00802782
0.00775547
0.00765228
0.00723439
0.00706042
0.00724775
0.00759488
0.00890415
0.00887123
0.00855561
0.00830411
0.00813067
0.00783205
0.00742197
0.00724775
0.00749699
0.00760607
0.00901834
0.00888149
0.00871879
0.00854553
0.00815133
0.00792278
0.00728737
0.00759488
0.00760607
0.00784315
0.0197156
0.0199861
0.0199513
0.0197007
0.019545
0.0193555
0.0191704
0.0192437
0.0193467
0.0190183
0.0199861
0.0198847
0.0198687
0.0194331
0.0192917
0.0190674
0.018835
0.0189379
0.0188366
0.0186528
0.0199513
0.0198687
0.0194604
0.0193023
0.0191192
0.0187976
0.0187377
0.0187466
0.018642
0.018704
0.0197007
0.0194331
0.0193023
0.0190558
0.0188862
0.0185077
0.0182752
0.0182266
0.0184609
0.0183878
0.019545
0.0192917
0.0191192
0.0188862
0.0185873
0.0181999
0.0179946
0.017936
0.0181201
0.0180184
0.0193555
0.0190674
0.0187976
0.0185077
0.0181999
0.0178985
0.0175454
0.0176361
0.0176219
0.0177047
0.0191704
0.018835
0.0187377
0.0182752
0.0179946
0.0175454
0.0173362
0.0172059
0.0171493
0.0170514
0.0192437
0.0189379
0.0187466
0.0182266
0.017936
0.0176361
0.0172059
0.0170729
0.0171797
0.0172561
0.0193467
0.0188366
0.018642
0.0184609
0.0181201
0.0176219
0.0171493
0.0171797
0.0169698
0.0170118
0.0190183
0.0186528
0.018704
0.0183878
0.0180184
0.0177047
0.0170514
0.0172561
0.0170118
0.0168959
0.0305281
0.0315684
0.0311226
0.0310258
0.0307152
0.0305814
0.0303209
0.0304674
0.0305319
0.0302018
0.0315684
0.0313941
0.0310347
0.0307577
0.0305727
0.0304868
0.0300689
0.0299222
0.0298516
0.0294965
0.0311226
0.0310347
0.0307161
0.0306373
0.0302732
0.0299575
0.0298472
0.0296768
0.0297136
0.0294151
0.0310258
0.0307577
0.0306373
0.0302582
0.0299765
0.0297361
0.0294096
0.0292317
0.0292772
0.0292448
0.0307152
0.0305727
0.0302732
0.0299765
0.0296146
0.0292477
0.0288167
0.0286671
0.0285957
0.0284367
0.0305814
0.0304868
0.0299575
0.0297361
0.0292477
0.0289006
0.028463
0.028293
0.0282227
0.0279219
0.0303209
0.0300689
0.0298472
0.0294096
0.0288167
0.028463
0.027965
0.0276421
0.0279106
0.0276389
0.0304674
0.0299222
0.0296768
0.0292317
0.0286671
0.028293
0.0276421
0.0275001
0.0277053
0.0274227
0.0305319
0.0298516
0.0297136
0.0292772
0.0285957
0.0282227
0.0279106
0.0277053
0.0278736
0.0271541
0.0302018
0.0294965
0.0294151
0.0292448
0.0284367
0.0279219
0.0276389
0.0274227
0.0271541
0.0272501
0.040183
0.0416941
0.041677
0.0426302
0.0422054
0.0420899
0.0415166
0.0418693
0.0425276
0.0421139
0.0416941
0.0423131
0.0420324
0.0421164
0.041537
0.0419236
0.0414433
0.0414238
0.0416772
0.04136
0.041677
0.0420324
0.0424318
0.0422931
0.0412699
0.0412799
0.0413265
0.0413808
0.0415951
0.0414609
0.0426302
0.0421164
0.0422931
0.0414283
0.0410107
0.041078
0.0409631
0.0409268
0.0409702
0.0412004
0.0422054
0.041537
0.0412699
0.0410107
0.0408698
0.0409151
0.0406012
0.0406738
0.0402628
0.0404496
0.0420899
0.0419236
0.0412799
0.041078
0.0409151
0.040958
0.0404874
0.0404308
0.0401025
0.0398086
0.0415166
0.0414433
0.0413265
0.0409631
0.0406012
0.0404874
0.0397002
0.039182
0.0392877
0.0390745
0.0418693
0.0414238
0.0413808
0.0409268
0.0406738
0.0404308
0.039182
0.0387516
0.0388341
0.039178
0.0425276
0.0416772
0.0415951
0.0409702
0.0402628
0.0401025
0.0392877
0.0388341
0.0386714
0.0383313
0.0421139
0.04136
0.0414609
0.0412004
0.0404496
0.0398086
0.0390745
0.039178
0.0383313
0.0382758
)
;

boundaryField
{
    block1_in
    {
        type            calculated;
        value           nonuniform List<scalar> 
100
(
0.0461564
0.0462004
0.0464063
0.0467959
0.0470562
0.0472983
0.0474296
0.0474654
0.0474615
0.0473386
0.0462004
0.0463654
0.0464143
0.0467422
0.0469272
0.0471221
0.0471978
0.0472602
0.0473022
0.0472123
0.0464063
0.0464143
0.0464923
0.046686
0.0466722
0.0467687
0.046932
0.0470019
0.0470626
0.0470537
0.0467959
0.0467422
0.046686
0.0466491
0.0466015
0.0466814
0.0467673
0.0468186
0.0469269
0.0469906
0.0470562
0.0469272
0.0466722
0.0466015
0.0465595
0.0465677
0.0466173
0.0466354
0.0468313
0.046917
0.0472983
0.0471221
0.0467687
0.0466814
0.0465677
0.046571
0.0465989
0.0465868
0.0466769
0.0467066
0.0474296
0.0471978
0.046932
0.0467673
0.0466173
0.0465989
0.0466497
0.0465418
0.0464427
0.0464208
0.0474654
0.0472602
0.0470019
0.0468186
0.0466354
0.0465868
0.0465418
0.0462949
0.0460909
0.0460169
0.0474615
0.0473022
0.0470626
0.0469269
0.0468313
0.0466769
0.0464427
0.0460909
0.0459378
0.0457981
0.0473386
0.0472123
0.0470537
0.0469906
0.046917
0.0467066
0.0464208
0.0460169
0.0457981
0.0458718
)
;
    }
    block1_out
    {
        type            calculated;
        value           nonuniform List<scalar> 
100
(
0.0486894
0.0486294
0.0486789
0.0487787
0.0486684
0.0484918
0.048188
0.0479211
0.0477764
0.0476562
0.0486294
0.0488092
0.0486721
0.0486564
0.0484885
0.0482854
0.047982
0.0477259
0.0476143
0.0475197
0.0486789
0.0486721
0.0485537
0.0484141
0.0480307
0.0477467
0.047564
0.0473191
0.0471976
0.0471513
0.0487787
0.0486564
0.0484141
0.0480909
0.0476745
0.0473624
0.0471108
0.0468358
0.0467329
0.0467845
0.0486684
0.0484885
0.0480307
0.0476745
0.0472908
0.0469258
0.0466127
0.0463062
0.0463069
0.0463533
0.0484918
0.0482854
0.0477467
0.0473624
0.0469258
0.0465427
0.0461831
0.0458922
0.0458144
0.0458188
0.048188
0.047982
0.047564
0.0471108
0.0466127
0.0461831
0.0458534
0.0455267
0.0453228
0.0452864
0.0479211
0.0477259
0.0473191
0.0468358
0.0463062
0.0458922
0.0455267
0.0450785
0.0447791
0.0447417
0.0477764
0.0476143
0.0471976
0.0467329
0.0463069
0.0458144
0.0453228
0.0447791
0.0445604
0.044448
0.0476562
0.0475197
0.0471513
0.0467845
0.0463533
0.0458188
0.0452864
0.0447417
0.044448
0.0444318
)
;
    }
    block1_wall1
    {
        type            calculated;
        value           nonuniform List<scalar> 
200
(
0.0440194
0.0417643
0.0417717
0.0411626
0.0414135
0.0411597
0.0410726
0.0398841
0.0379013
0.0366038
0.0291232
0.0286899
0.0290008
0.0288817
0.0292606
0.0293902
0.0298801
0.0298877
0.0296223
0.0291072
0.0185155
0.0182111
0.0185045
0.0179904
0.0185312
0.0186153
0.0186967
0.0188609
0.018959
0.01902
0.0086204
0.00848264
0.00839683
0.00806344
0.00855102
0.00854916
0.00878957
0.00875508
0.00891189
0.00912061
-0.00052957
-0.000904347
-0.000754404
-0.000995618
-0.000782406
-0.000770747
-0.00053371
-0.000356178
-0.000106884
8.89475e-05
-0.00844644
-0.00859222
-0.00854685
-0.00901738
-0.00865339
-0.00868833
-0.00848875
-0.00843575
-0.00808604
-0.00766532
-0.015047
-0.0152032
-0.0152836
-0.0156909
-0.0152561
-0.0154251
-0.0151584
-0.0150692
-0.0147625
-0.0142182
-0.0201642
-0.0205407
-0.0206086
-0.0208625
-0.0206109
-0.020719
-0.0203895
-0.0204033
-0.0201215
-0.0194002
-0.0241718
-0.0243884
-0.0243712
-0.0247347
-0.0245199
-0.0244729
-0.0242711
-0.0241456
-0.0237645
-0.0230123
-0.0262842
-0.0264122
-0.026334
-0.0268685
-0.0265577
-0.0266096
-0.0263275
-0.026025
-0.0257059
-0.0249883
-0.026186
-0.0263791
-0.0263873
-0.0270212
-0.0266837
-0.0267557
-0.0264063
-0.026186
-0.0258977
-0.0250509
-0.0244674
-0.0246612
-0.0248229
-0.0252731
-0.0250467
-0.0250181
-0.0247386
-0.0245284
-0.0241231
-0.0231993
-0.0210397
-0.0211913
-0.0212415
-0.021694
-0.0214059
-0.0213946
-0.0212081
-0.0209082
-0.0204717
-0.0196943
-0.0155269
-0.0156671
-0.0156555
-0.0162382
-0.0158836
-0.0159494
-0.0158113
-0.0155574
-0.0152005
-0.0145696
-0.00847164
-0.00847917
-0.00863762
-0.00915853
-0.0088715
-0.00892526
-0.00883761
-0.00867365
-0.00842593
-0.00794568
-0.000104675
-0.000158156
-0.000282652
-0.000718107
-0.000561808
-0.000551877
-0.000497191
-0.000456064
-0.000401281
-7.15262e-05
0.00932414
0.00927667
0.00937992
0.008996
0.00904968
0.00897938
0.00888937
0.00883043
0.00890415
0.00901834
0.0197156
0.0199861
0.0199513
0.0197007
0.019545
0.0193555
0.0191704
0.0192437
0.0193467
0.0190183
0.0305281
0.0315684
0.0311226
0.0310258
0.0307152
0.0305814
0.0303209
0.0304674
0.0305319
0.0302018
0.040183
0.0416941
0.041677
0.0426302
0.0422054
0.0420899
0.0415166
0.0418693
0.0425276
0.0421139
)
;
    }
    block1_wall2
    {
        type            calculated;
        value           nonuniform List<scalar> 
200
(
0.0366038
0.0291072
0.01902
0.00912061
8.89475e-05
-0.00766532
-0.0142182
-0.0194002
-0.0230123
-0.0249883
-0.0250509
-0.0231993
-0.0196943
-0.0145696
-0.00794568
-7.15262e-05
0.00901834
0.0190183
0.0302018
0.0421139
0.0387687
0.0295022
0.0192133
0.00899807
-0.000240885
-0.00822356
-0.0149562
-0.0202617
-0.0239868
-0.025872
-0.0258318
-0.024048
-0.0205076
-0.0152444
-0.00851481
-0.000311485
0.00888149
0.0186528
0.0294965
0.04136
0.0392824
0.0294068
0.0189199
0.00892556
-0.000127991
-0.00816795
-0.0149545
-0.0202622
-0.0238861
-0.025683
-0.0257182
-0.0239383
-0.0202688
-0.0151279
-0.00865245
-0.000663018
0.00871879
0.018704
0.0294151
0.0414609
0.0396884
0.0293156
0.018711
0.00886681
-0.000230388
-0.00834451
-0.0151244
-0.0203935
-0.0239841
-0.0258144
-0.025816
-0.0238518
-0.0201484
-0.0150282
-0.00848392
-0.000750429
0.00854553
0.0183878
0.0292448
0.0412004
0.0404112
0.0293876
0.0188243
0.00892665
-0.000324805
-0.00841632
-0.0151535
-0.0204142
-0.0240163
-0.0258501
-0.0258062
-0.0238417
-0.0202515
-0.0151442
-0.00867129
-0.000994034
0.00815133
0.0180184
0.0284367
0.0404496
0.0406423
0.0293646
0.0188425
0.00888918
-0.000366018
-0.00839461
-0.0150735
-0.0202968
-0.0238642
-0.0256021
-0.0255143
-0.0235665
-0.0199259
-0.0149351
-0.00867396
-0.00103653
0.00792278
0.0177047
0.0279219
0.0398086
0.0407788
0.0294595
0.0188453
0.00875291
-0.000515676
-0.00853851
-0.0152066
-0.0204319
-0.023941
-0.0256226
-0.0255136
-0.0236069
-0.0201119
-0.0152482
-0.00896432
-0.00149974
0.00728737
0.0170514
0.0276389
0.0390745
0.0397097
0.0290918
0.0187412
0.00888225
-0.000110613
-0.00796498
-0.0146489
-0.0198941
-0.0232059
-0.0247717
-0.0248706
-0.0231278
-0.0196941
-0.0147894
-0.00856993
-0.00131097
0.00759488
0.0172561
0.0274227
0.039178
0.0400393
0.0290915
0.0184547
0.00874911
-3.61032e-05
-0.00791272
-0.0145854
-0.0196174
-0.0228907
-0.0247184
-0.0248546
-0.0230048
-0.0195839
-0.0147691
-0.00870055
-0.00133664
0.00760607
0.0170118
0.0271541
0.0383313
0.0401402
0.0289398
0.0184648
0.00878945
-3.20596e-05
-0.00777758
-0.014274
-0.0194161
-0.0226876
-0.0244477
-0.024641
-0.0227118
-0.0192095
-0.0146648
-0.0083797
-0.000969217
0.00784315
0.0168959
0.0272501
0.0382758
)
;
    }
    block1_wall3
    {
        type            calculated;
        value           nonuniform List<scalar> 
200
(
0.0366038
0.0387687
0.0392824
0.0396884
0.0404112
0.0406423
0.0407788
0.0397097
0.0400393
0.0401402
0.0291072
0.0295022
0.0294068
0.0293156
0.0293876
0.0293646
0.0294595
0.0290918
0.0290915
0.0289398
0.01902
0.0192133
0.0189199
0.018711
0.0188243
0.0188425
0.0188453
0.0187412
0.0184547
0.0184648
0.00912061
0.00899807
0.00892556
0.00886681
0.00892665
0.00888918
0.00875291
0.00888225