/*--------------------------------*- C++ -*----------------------------------*\
| =========                 |                                                 |
| \\      /  F ield         | OpenFOAM: The Open Source CFD Toolbox           |
|  \\    /   O peration     | Version:  v2106                                 |
|   \\  /    A nd           | Website:  www.openfoam.com                      |
|    \\/     M anipulation  |                                                 |
\*---------------------------------------------------------------------------*/
FoamFile
{
    version     2.0;
    format      ascii;
    arch        "LSB;label=32;scalar=64";
    class       volScalarField;
    location    "60";
    object      DT;
}
// * * * * * * * * * * * * * * * * * * * * * * * * * * * * * * * * * * * * * //

dimensions      [0 2 -1 0 0 0 0];

internalField   nonuniform List<scalar> 
4000
(
0.00054873628
0.00054873624
0.00054873624
0.00054873624
0.00054873624
0.00054873624
0.00054873624
0.00054873625
0.00054873625
0.00054873625
0.00054873624
0.00054873622
0.00054873622
0.00054873622
0.00054873622
0.00054873622
0.00054873622
0.00054873622
0.00054873623
0.00054873624
0.00054873624
0.00054873622
0.00054873622
0.00054873622
0.00054873622
0.00054873622
0.00054873622
0.00054873622
0.00054873623
0.00054873623
0.00054873624
0.00054873622
0.00054873622
0.00054873622
0.00054873622
0.00054873622
0.00054873622
0.00054873622
0.00054873623
0.00054873623
0.00054873624
0.00054873622
0.00054873622
0.00054873622
0.00054873622
0.00054873622
0.00054873622
0.00054873622
0.00054873622
0.00054873623
0.00054873624
0.00054873622
0.00054873622
0.00054873622
0.00054873622
0.00054873622
0.00054873622
0.00054873622
0.00054873623
0.00054873623
0.00054873624
0.00054873622
0.00054873622
0.00054873622
0.00054873622
0.00054873622
0.00054873622
0.00054873622
0.00054873623
0.00054873623
0.00054873625
0.00054873622
0.00054873622
0.00054873622
0.00054873622
0.00054873622
0.00054873622
0.00054873623
0.00054873623
0.00054873624
0.00054873625
0.00054873623
0.00054873623
0.00054873623
0.00054873622
0.00054873623
0.00054873623
0.00054873623
0.00054873623
0.00054873624
0.00054873625
0.00054873624
0.00054873623
0.00054873623
0.00054873623
0.00054873623
0.00054873623
0.00054873624
0.00054873624
0.00054873625
0.00057312511
0.00057312485
0.00057312482
0.00057312481
0.0005731248
0.00057312481
0.00057312483
0.00057312486
0.0005731249
0.00057312495
0.00057312485
0.00057312466
0.00057312465
0.00057312463
0.00057312463
0.00057312463
0.00057312465
0.00057312468
0.00057312472
0.00057312481
0.00057312482
0.00057312465
0.00057312463
0.00057312462
0.00057312461
0.00057312462
0.00057312464
0.00057312466
0.0005731247
0.00057312477
0.00057312481
0.00057312463
0.00057312462
0.00057312461
0.0005731246
0.00057312461
0.00057312462
0.00057312465
0.00057312469
0.00057312476
0.0005731248
0.00057312463
0.00057312461
0.0005731246
0.0005731246
0.00057312461
0.00057312462
0.00057312464
0.00057312468
0.00057312475
0.00057312481
0.00057312463
0.00057312462
0.00057312461
0.00057312461
0.00057312461
0.00057312462
0.00057312465
0.00057312469
0.00057312475
0.00057312483
0.00057312465
0.00057312464
0.00057312462
0.00057312462
0.00057312462
0.00057312464
0.00057312466
0.0005731247
0.00057312477
0.00057312486
0.00057312468
0.00057312466
0.00057312465
0.00057312464
0.00057312465
0.00057312466
0.00057312469
0.00057312473
0.0005731248
0.0005731249
0.00057312472
0.0005731247
0.00057312469
0.00057312468
0.00057312469
0.0005731247
0.00057312473
0.00057312477
0.00057312484
0.00057312495
0.00057312481
0.00057312477
0.00057312476
0.00057312475
0.00057312475
0.00057312477
0.0005731248
0.00057312484
0.00057312492
0.00059650317
0.00059650278
0.00059650273
0.00059650271
0.0005965027
0.00059650271
0.00059650274
0.0005965028
0.00059650288
0.00059650301
0.00059650278
0.0005965025
0.00059650246
0.00059650244
0.00059650243
0.00059650245
0.00059650248
0.00059650253
0.00059650261
0.00059650279
0.00059650273
0.00059650246
0.00059650244
0.00059650242
0.00059650241
0.00059650242
0.00059650245
0.00059650249
0.00059650257
0.00059650273
0.00059650271
0.00059650244
0.00059650242
0.0005965024
0.00059650239
0.0005965024
0.00059650243
0.00059650247
0.00059650254
0.0005965027
0.0005965027
0.00059650243
0.00059650241
0.00059650239
0.00059650239
0.0005965024
0.00059650242
0.00059650246
0.00059650253
0.00059650269
0.00059650271
0.00059650245
0.00059650242
0.0005965024
0.0005965024
0.00059650241
0.00059650243
0.00059650247
0.00059650254
0.0005965027
0.00059650274
0.00059650248
0.00059650245
0.00059650243
0.00059650242
0.00059650243
0.00059650245
0.0005965025
0.00059650256
0.00059650272
0.0005965028
0.00059650253
0.00059650249
0.00059650247
0.00059650246
0.00059650247
0.0005965025
0.00059650254
0.00059650261
0.00059650277
0.00059650288
0.00059650261
0.00059650257
0.00059650254
0.00059650253
0.00059650254
0.00059650256
0.00059650261
0.00059650269
0.00059650286
0.00059650301
0.00059650279
0.00059650273
0.0005965027
0.00059650269
0.0005965027
0.00059650272
0.00059650277
0.00059650286
0.00059650305
0.000618974
0.0006189735
0.00061897345
0.00061897341
0.00061897341
0.00061897343
0.00061897347
0.00061897354
0.00061897366
0.00061897386
0.0006189735
0.00061897315
0.00061897311
0.00061897308
0.00061897308
0.00061897309
0.00061897313
0.0006189732
0.00061897331
0.00061897357
0.00061897345
0.00061897311
0.00061897308
0.00061897305
0.00061897305
0.00061897307
0.0006189731
0.00061897316
0.00061897325
0.0006189735
0.00061897341
0.00061897308
0.00061897305
0.00061897303
0.00061897303
0.00061897304
0.00061897308
0.00061897313
0.00061897322
0.00061897346
0.00061897341
0.00061897308
0.00061897305
0.00061897303
0.00061897303
0.00061897304
0.00061897307
0.00061897312
0.00061897321
0.00061897345
0.00061897343
0.00061897309
0.00061897307
0.00061897304
0.00061897304
0.00061897305
0.00061897308
0.00061897313
0.00061897322
0.00061897346
0.00061897347
0.00061897313
0.0006189731
0.00061897308
0.00061897307
0.00061897308
0.00061897311
0.00061897316
0.00061897325
0.00061897349
0.00061897354
0.0006189732
0.00061897316
0.00061897313
0.00061897312
0.00061897313
0.00061897316
0.00061897322
0.00061897331
0.00061897356
0.00061897366
0.00061897331
0.00061897325
0.00061897322
0.00061897321
0.00061897322
0.00061897325
0.00061897331
0.00061897341
0.00061897367
0.00061897386
0.00061897357
0.0006189735
0.00061897346
0.00061897345
0.00061897346
0.00061897349
0.00061897356
0.00061897367
0.00061897398
0.00064062333
0.00064062275
0.0006406227
0.00064062267
0.00064062267
0.00064062269
0.00064062274
0.00064062282
0.00064062296
0.00064062322
0.00064062275
0.00064062235
0.00064062231
0.00064062229
0.00064062229
0.00064062231
0.00064062235
0.00064062243
0.00064062255
0.00064062289
0.0006406227
0.00064062231
0.00064062229
0.00064062227
0.00064062226
0.00064062228
0.00064062232
0.00064062239
0.0006406225
0.00064062281
0.00064062267
0.00064062229
0.00064062227
0.00064062225
0.00064062225
0.00064062226
0.0006406223
0.00064062236
0.00064062246
0.00064062277
0.00064062267
0.00064062229
0.00064062226
0.00064062225
0.00064062224
0.00064062226
0.00064062229
0.00064062235
0.00064062245
0.00064062275
0.00064062269
0.00064062231
0.00064062228
0.00064062226
0.00064062226
0.00064062227
0.00064062231
0.00064062236
0.00064062246
0.00064062276
0.00064062274
0.00064062235
0.00064062232
0.0006406223
0.00064062229
0.00064062231
0.00064062234
0.0006406224
0.0006406225
0.0006406228
0.00064062282
0.00064062243
0.00064062239
0.00064062236
0.00064062235
0.00064062236
0.0006406224
0.00064062246
0.00064062256
0.00064062288
0.00064062296
0.00064062255
0.0006406225
0.00064062246
0.00064062245
0.00064062246
0.0006406225
0.00064062256
0.00064062268
0.00064062301
0.00064062322
0.00064062289
0.00064062281
0.00064062277
0.00064062275
0.00064062276
0.0006406228
0.00064062288
0.00064062301
0.00064062343
0.00066152331
0.00066152267
0.00066152263
0.0006615226
0.0006615226
0.00066152262
0.00066152268
0.00066152277
0.00066152292
0.00066152323
0.00066152267
0.00066152223
0.0006615222
0.00066152218
0.00066152218
0.00066152221
0.00066152225
0.00066152233
0.00066152247
0.00066152286
0.00066152263
0.0006615222
0.00066152219
0.00066152217
0.00066152217
0.00066152219
0.00066152224
0.0006615223
0.00066152241
0.00066152278
0.0006615226
0.00066152218
0.00066152217
0.00066152216
0.00066152216
0.00066152218
0.00066152222
0.00066152228
0.00066152238
0.00066152273
0.0006615226
0.00066152218
0.00066152217
0.00066152216
0.00066152216
0.00066152218
0.00066152221
0.00066152227
0.00066152236
0.00066152272
0.00066152262
0.00066152221
0.00066152219
0.00066152218
0.00066152218
0.00066152219
0.00066152222
0.00066152228
0.00066152238
0.00066152273
0.00066152268
0.00066152225
0.00066152224
0.00066152222
0.00066152221
0.00066152222
0.00066152226
0.00066152231
0.00066152241
0.00066152277
0.00066152277
0.00066152233
0.0006615223
0.00066152228
0.00066152227
0.00066152228
0.00066152231
0.00066152237
0.00066152248
0.00066152285
0.00066152292
0.00066152247
0.00066152241
0.00066152238
0.00066152236
0.00066152238
0.00066152241
0.00066152248
0.00066152261
0.000661523
0.00066152323
0.00066152286
0.00066152278
0.00066152273
0.00066152272
0.00066152273
0.00066152277
0.00066152285
0.000661523
0.0006615235
0.0006817354
0.00068173472
0.00068173469
0.00068173467
0.00068173468
0.0006817347
0.00068173476
0.00068173485
0.00068173501
0.00068173536
0.00068173472
0.00068173425
0.00068173424
0.00068173423
0.00068173423
0.00068173426
0.00068173431
0.00068173439
0.00068173452
0.00068173496
0.00068173469
0.00068173424
0.00068173424
0.00068173423
0.00068173424
0.00068173426
0.0006817343
0.00068173437
0.00068173447
0.00068173488
0.00068173467
0.00068173423
0.00068173423
0.00068173423
0.00068173423
0.00068173425
0.00068173429
0.00068173434
0.00068173444
0.00068173483
0.00068173468
0.00068173423
0.00068173424
0.00068173423
0.00068173424
0.00068173425
0.00068173429
0.00068173434
0.00068173443
0.00068173482
0.0006817347
0.00068173426
0.00068173426
0.00068173425
0.00068173425
0.00068173427
0.0006817343
0.00068173435
0.00068173444
0.00068173483
0.00068173476
0.00068173431
0.0006817343
0.00068173429
0.00068173429
0.0006817343
0.00068173433
0.00068173438
0.00068173447
0.00068173486
0.00068173485
0.00068173439
0.00068173437
0.00068173434
0.00068173434
0.00068173435
0.00068173438
0.00068173443
0.00068173454
0.00068173494
0.00068173501
0.00068173452
0.00068173447
0.00068173444
0.00068173443
0.00068173444
0.00068173447
0.00068173454
0.00068173466
0.00068173509
0.00068173536
0.00068173496
0.00068173488
0.00068173483
0.00068173482
0.00068173483
0.00068173486
0.00068173494
0.00068173509
0.00068173566
0.00070131262
0.0007013119
0.00070131189
0.00070131189
0.0007013119
0.00070131193
0.00070131198
0.00070131207
0.00070131223
0.0007013126
0.0007013119
0.00070131142
0.00070131143
0.00070131143
0.00070131144
0.00070131147
0.00070131151
0.00070131158
0.00070131171
0.00070131218
0.00070131189
0.00070131143
0.00070131145
0.00070131145
0.00070131146
0.00070131148
0.00070131152
0.00070131158
0.00070131167
0.0007013121
0.00070131189
0.00070131143
0.00070131145
0.00070131145
0.00070131146
0.00070131148
0.00070131151
0.00070131156
0.00070131164
0.00070131206
0.0007013119
0.00070131144
0.00070131146
0.00070131146
0.00070131147
0.00070131149
0.00070131151
0.00070131155
0.00070131163
0.00070131204
0.00070131193
0.00070131147
0.00070131148
0.00070131148
0.00070131149
0.0007013115
0.00070131152
0.00070131156
0.00070131164
0.00070131205
0.00070131198
0.00070131151
0.00070131152
0.00070131151
0.00070131151
0.00070131152
0.00070131155
0.00070131159
0.00070131167
0.00070131208
0.00070131207
0.00070131158
0.00070131158
0.00070131156
0.00070131155
0.00070131156
0.00070131159
0.00070131163
0.00070131172
0.00070131215
0.00070131223
0.00070131171
0.00070131167
0.00070131164
0.00070131163
0.00070131164
0.00070131167
0.00070131172
0.00070131183
0.0007013123
0.0007013126
0.00070131218
0.0007013121
0.00070131206
0.00070131204
0.00070131205
0.00070131208
0.00070131215
0.0007013123
0.00070131292
0.00072030114
0.0007203004
0.00072030042
0.00072030042
0.00072030043
0.00072030046
0.00072030051
0.00072030059
0.00072030075
0.00072030114
0.0007203004
0.00072029992
0.00072029995
0.00072029995
0.00072029997
0.0007203
0.00072030004
0.0007203001
0.00072030022
0.00072030071
0.00072030042
0.00072029995
0.00072029999
0.0007203
0.00072030001
0.00072030004
0.00072030007
0.00072030011
0.00072030019
0.00072030064
0.00072030042
0.00072029995
0.0007203
0.00072030001
0.00072030003
0.00072030004
0.00072030007
0.0007203001
0.00072030016
0.0007203006
0.00072030043
0.00072029997
0.00072030001
0.00072030003
0.00072030004
0.00072030005
0.00072030007
0.00072030009
0.00072030015
0.00072030058
0.00072030046
0.0007203
0.00072030004
0.00072030004
0.00072030005
0.00072030006
0.00072030008
0.0007203001
0.00072030015
0.00072030058
0.00072030051
0.00072030004
0.00072030007
0.00072030007
0.00072030007
0.00072030008
0.00072030009
0.00072030011
0.00072030017
0.00072030061
0.00072030059
0.0007203001
0.00072030011
0.0007203001
0.00072030009
0.0007203001
0.00072030011
0.00072030014
0.00072030021
0.00072030066
0.00072030075
0.00072030022
0.00072030019
0.00072030016
0.00072030015
0.00072030015
0.00072030017
0.00072030021
0.00072030031
0.0007203008
0.00072030114
0.00072030071
0.00072030064
0.0007203006
0.00072030058
0.00072030058
0.00072030061
0.00072030066
0.0007203008
0.00072030146
0.00073874158
0.00073874083
0.00073874087
0.00073874088
0.00073874091
0.00073874093
0.00073874098
0.00073874105
0.00073874119
0.00073874159
0.00073874083
0.00073874035
0.0007387404
0.00073874042
0.00073874044
0.00073874047
0.0007387405
0.00073874055
0.00073874065
0.00073874115
0.00073874087
0.0007387404
0.00073874046
0.00073874049
0.00073874051
0.00073874053
0.00073874055
0.00073874058
0.00073874063
0.00073874109
0.00073874088
0.00073874042
0.00073874049
0.00073874051
0.00073874053
0.00073874054
0.00073874056
0.00073874057
0.00073874061
0.00073874105
0.00073874091
0.00073874044
0.00073874051
0.00073874053
0.00073874054
0.00073874055
0.00073874056
0.00073874057
0.0007387406
0.00073874103
0.00073874093
0.00073874047
0.00073874053
0.00073874054
0.00073874055
0.00073874056
0.00073874056
0.00073874057
0.0007387406
0.00073874103
0.00073874098
0.0007387405
0.00073874055
0.00073874056
0.00073874056
0.00073874056
0.00073874057
0.00073874057
0.00073874061
0.00073874104
0.00073874105
0.00073874055
0.00073874058
0.00073874057
0.00073874057
0.00073874057
0.00073874057
0.00073874058
0.00073874063
0.00073874108
0.00073874119
0.00073874065
0.00073874063
0.00073874061
0.0007387406
0.0007387406
0.00073874061
0.00073874063
0.00073874071
0.0007387412
0.00073874159
0.00073874115
0.00073874109
0.00073874105
0.00073874103
0.00073874103
0.00073874104
0.00073874108
0.0007387412
0.0007387419
0.00075666998
0.00075666923
0.00075666929
0.00075666932
0.00075666935
0.00075666937
0.00075666941
0.00075666946
0.00075666959
0.00075666999
0.00075666923
0.00075666876
0.00075666883
0.00075666886
0.00075666889
0.00075666891
0.00075666894
0.00075666897
0.00075666905
0.00075666955
0.00075666929
0.00075666883
0.00075666891
0.00075666895
0.00075666897
0.00075666899
0.000756669
0.00075666901
0.00075666905
0.0007566695
0.00075666932
0.00075666886
0.00075666895
0.00075666899
0.00075666901
0.00075666902
0.00075666902
0.00075666902
0.00075666903
0.00075666947
0.00075666935
0.00075666889
0.00075666897
0.00075666901
0.00075666903
0.00075666903
0.00075666903
0.00075666901
0.00075666902
0.00075666945
0.00075666937
0.00075666891
0.00075666899
0.00075666902
0.00075666903
0.00075666903
0.00075666902
0.00075666901
0.00075666901
0.00075666944
0.00075666941
0.00075666894
0.000756669
0.00075666902
0.00075666903
0.00075666902
0.00075666901
0.000756669
0.000756669
0.00075666944
0.00075666946
0.00075666897
0.00075666901
0.00075666902
0.00075666901
0.00075666901
0.000756669
0.00075666899
0.00075666901
0.00075666946
0.00075666959
0.00075666905
0.00075666905
0.00075666903
0.00075666902
0.00075666901
0.000756669
0.00075666901
0.00075666906
0.00075666956
0.00075666999
0.00075666955
0.0007566695
0.00075666947
0.00075666945
0.00075666944
0.00075666944
0.00075666946
0.00075666956
0.00075667027
0.00077411857
0.00077411782
0.00077411791
0.00077411795
0.00077411798
0.000774118
0.00077411803
0.00077411807
0.00077411818
0.00077411858
0.00077411782
0.00077411736
0.00077411746
0.00077411751
0.00077411754
0.00077411755
0.00077411757
0.00077411758
0.00077411764
0.00077411814
0.00077411791
0.00077411746
0.00077411757
0.00077411761
0.00077411764
0.00077411766
0.00077411766
0.00077411764
0.00077411765
0.0007741181
0.00077411795
0.00077411751
0.00077411761
0.00077411766
0.00077411769
0.00077411769
0.00077411768
0.00077411766
0.00077411764
0.00077411807
0.00077411798
0.00077411754
0.00077411764
0.00077411769
0.00077411771
0.00077411771
0.00077411769
0.00077411765
0.00077411763
0.00077411805
0.000774118
0.00077411755
0.00077411766
0.00077411769
0.00077411771
0.0007741177
0.00077411768
0.00077411764
0.00077411761
0.00077411803
0.00077411803
0.00077411757
0.00077411766
0.00077411768
0.00077411769
0.00077411768
0.00077411765
0.00077411761
0.00077411759
0.00077411802
0.00077411807
0.00077411758
0.00077411764
0.00077411766
0.00077411765
0.00077411764
0.00077411761
0.00077411758
0.00077411757
0.00077411801
0.00077411818
0.00077411764
0.00077411765
0.00077411764
0.00077411763
0.00077411761
0.00077411759
0.00077411757
0.00077411759
0.00077411809
0.00077411858
0.00077411814
0.0007741181
0.00077411807
0.00077411805
0.00077411803
0.00077411802
0.00077411801
0.00077411809
0.00077411881
0.00079111638
0.00079111564
0.00079111575
0.0007911158
0.00079111584
0.00079111586
0.00079111587
0.0007911159
0.00079111598
0.00079111638
0.00079111564
0.0007911152
0.00079111532
0.00079111538
0.00079111541
0.00079111543
0.00079111543
0.00079111542
0.00079111545
0.00079111595
0.00079111575
0.00079111532
0.00079111545
0.00079111551
0.00079111554
0.00079111555
0.00079111553
0.0007911155
0.00079111548
0.00079111591
0.0007911158
0.00079111538
0.00079111551
0.00079111557
0.00079111559
0.00079111559
0.00079111557
0.00079111552
0.00079111547
0.00079111589
0.00079111584
0.00079111541
0.00079111554
0.00079111559
0.00079111561
0.00079111561
0.00079111557
0.00079111551
0.00079111546
0.00079111587
0.00079111586
0.00079111543
0.00079111555
0.00079111559
0.00079111561
0.0007911156
0.00079111556
0.00079111549
0.00079111544
0.00079111584
0.00079111587
0.00079111543
0.00079111553
0.00079111557
0.00079111557
0.00079111556
0.00079111552
0.00079111545
0.0007911154
0.00079111581
0.0007911159
0.00079111542
0.0007911155
0.00079111552
0.00079111551
0.00079111549
0.00079111545
0.0007911154
0.00079111536
0.00079111578
0.00079111598
0.00079111545
0.00079111548
0.00079111547
0.00079111546
0.00079111544
0.0007911154
0.00079111536
0.00079111535
0.00079111583
0.00079111638
0.00079111595
0.00079111591
0.00079111589
0.00079111587
0.00079111584
0.00079111581
0.00079111578
0.00079111583
0.00079111655
0.00080768974
0.00080768901
0.00080768915
0.00080768921
0.00080768925
0.00080768927
0.00080768927
0.00080768927
0.00080768934
0.00080768972
0.00080768901
0.00080768859
0.00080768873
0.0008076888
0.00080768884
0.00080768885
0.00080768884
0.00080768881
0.00080768882
0.0008076893
0.00080768915
0.00080768873
0.00080768888
0.00080768895
0.00080768899
0.00080768899
0.00080768896
0.00080768891
0.00080768886
0.00080768927
0.00080768921
0.0008076888
0.00080768895
0.00080768902
0.00080768905
0.00080768905
0.00080768901
0.00080768893
0.00080768886
0.00080768925
0.00080768925
0.00080768884
0.00080768899
0.00080768905
0.00080768907
0.00080768906
0.00080768901
0.00080768893
0.00080768884
0.00080768923
0.00080768927
0.00080768885
0.00080768899
0.00080768905
0.00080768906
0.00080768904
0.00080768899
0.0008076889
0.00080768881
0.00080768919
0.00080768927
0.00080768884
0.00080768896
0.00080768901
0.00080768901
0.00080768899
0.00080768893
0.00080768884
0.00080768876
0.00080768915
0.00080768927
0.00080768881
0.00080768891
0.00080768893
0.00080768893
0.0008076889
0.00080768884
0.00080768876
0.00080768869
0.0008076891
0.00080768934
0.00080768882
0.00080768886
0.00080768886
0.00080768884
0.00080768881
0.00080768876
0.00080768869
0.00080768865
0.00080768911
0.00080768972
0.0008076893
0.00080768927
0.00080768925
0.00080768923
0.00080768919
0.00080768915
0.0008076891
0.00080768911
0.00080768983
0.00082386267
0.00082386197
0.00082386212
0.0008238622
0.00082386224
0.00082386225
0.00082386224
0.00082386222
0.00082386227
0.00082386263
0.00082386197
0.00082386157
0.00082386173
0.00082386181
0.00082386185
0.00082386185
0.00082386183
0.00082386178
0.00082386176
0.00082386222
0.00082386212
0.00082386173
0.0008238619
0.00082386198
0.00082386201
0.00082386201
0.00082386197
0.00082386189
0.00082386181
0.00082386221
0.0008238622
0.00082386181
0.00082386198
0.00082386206
0.00082386209
0.00082386207
0.00082386202
0.00082386193
0.00082386182
0.00082386219
0.00082386224
0.00082386185
0.00082386201
0.00082386209
0.00082386211
0.00082386209
0.00082386203
0.00082386192
0.0008238618
0.00082386217
0.00082386225
0.00082386185
0.00082386201
0.00082386207
0.00082386209
0.00082386206
0.00082386199
0.00082386188
0.00082386176
0.00082386212
0.00082386224
0.00082386183
0.00082386197
0.00082386202
0.00082386203
0.00082386199
0.00082386192
0.00082386181
0.00082386169
0.00082386206
0.00082386222
0.00082386178
0.00082386189
0.00082386193
0.00082386192
0.00082386188
0.00082386181
0.0008238617
0.0008238616
0.00082386198
0.00082386227
0.00082386176
0.00082386181
0.00082386182
0.0008238618
0.00082386176
0.00082386169
0.0008238616
0.00082386153
0.00082386197
0.00082386263
0.00082386222
0.00082386221
0.00082386219
0.00082386217
0.00082386212
0.00082386206
0.00082386198
0.00082386197
0.00082386267
0.00083965722
0.00083965655
0.00083965672
0.00083965681
0.00083965685
0.00083965686
0.00083965683
0.0008396568
0.00083965682
0.00083965717
0.00083965655
0.00083965618
0.00083965636
0.00083965644
0.00083965648
0.00083965648
0.00083965645
0.00083965638
0.00083965633
0.00083965677
0.00083965672
0.00083965636
0.00083965654
0.00083965663
0.00083965667
0.00083965666
0.0008396566
0.0008396565
0.00083965639
0.00083965676
0.00083965681
0.00083965644
0.00083965663
0.00083965672
0.00083965675
0.00083965673
0.00083965666
0.00083965654
0.00083965641
0.00083965675
0.00083965685
0.00083965648
0.00083965667
0.00083965675
0.00083965677
0.00083965674
0.00083965666
0.00083965653
0.00083965639
0.00083965672
0.00083965686
0.00083965648
0.00083965666
0.00083965673
0.00083965674
0.00083965671
0.00083965662
0.00083965649
0.00083965633
0.00083965667
0.00083965683
0.00083965645
0.0008396566
0.00083965666
0.00083965666
0.00083965662
0.00083965653
0.0008396564
0.00083965625
0.00083965659
0.0008396568
0.00083965638
0.0008396565
0.00083965654
0.00083965653
0.00083965649
0.0008396564
0.00083965627
0.00083965614
0.00083965649
0.00083965682
0.00083965633
0.00083965639
0.00083965641
0.00083965639
0.00083965633
0.00083965625
0.00083965614
0.00083965603
0.00083965644
0.00083965717
0.00083965677
0.00083965676
0.00083965675
0.00083965672
0.00083965667
0.00083965659
0.00083965649
0.00083965644
0.00083965713
0.00085509375
0.0008550931
0.00085509329
0.00085509339
0.00085509343
0.00085509343
0.00085509339
0.00085509334
0.00085509334
0.00085509366
0.0008550931
0.00085509276
0.00085509295
0.00085509305
0.00085509309
0.00085509308
0.00085509303
0.00085509294
0.00085509287
0.00085509328
0.00085509329
0.00085509295
0.00085509315
0.00085509325
0.00085509329
0.00085509327
0.0008550932
0.00085509308
0.00085509294
0.00085509329
0.00085509339
0.00085509305
0.00085509325
0.00085509334
0.00085509337
0.00085509335
0.00085509326
0.00085509312
0.00085509296
0.00085509328
0.00085509343
0.00085509309
0.00085509329
0.00085509337
0.0008550934
0.00085509336
0.00085509327
0.00085509312
0.00085509294
0.00085509325
0.00085509343
0.00085509308
0.00085509327
0.00085509335
0.00085509336
0.00085509332
0.00085509322
0.00085509306
0.00085509288
0.00085509319
0.00085509339
0.00085509303
0.0008550932
0.00085509326
0.00085509327
0.00085509322
0.00085509311
0.00085509296
0.00085509278
0.00085509309
0.00085509334
0.00085509294
0.00085509308
0.00085509312
0.00085509312
0.00085509306
0.00085509296
0.0008550928
0.00085509264
0.00085509297
0.00085509334
0.00085509287
0.00085509294
0.00085509296
0.00085509294
0.00085509288
0.00085509278
0.00085509264
0.0008550925
0.00085509289
0.00085509366
0.00085509328
0.00085509329
0.00085509328
0.00085509325
0.00085509319
0.00085509309
0.00085509297
0.00085509289
0.00085509355
0.00087019109
0.00087019048
0.00087019069
0.00087019079
0.00087019083
0.00087019083
0.00087019078
0.00087019071
0.00087019068
0.00087019099
0.00087019048
0.00087019017
0.00087019038
0.00087019048
0.00087019052
0.00087019051
0.00087019044
0.00087019034
0.00087019023
0.00087019062
0.00087019069
0.00087019038
0.00087019059
0.00087019069
0.00087019073
0.0008701907
0.00087019062
0.00087019048
0.00087019032
0.00087019063
0.00087019079
0.00087019048
0.00087019069
0.00087019079
0.00087019082
0.00087019079
0.00087019069
0.00087019053
0.00087019034
0.00087019063
0.00087019083
0.00087019052
0.00087019073
0.00087019082
0.00087019084
0.0008701908
0.00087019069
0.00087019052
0.00087019031
0.0008701906
0.00087019083
0.00087019051
0.0008701907
0.00087019079
0.0008701908
0.00087019075
0.00087019063
0.00087019045
0.00087019024
0.00087019052
0.00087019078
0.00087019044
0.00087019062
0.00087019069
0.00087019069
0.00087019063
0.00087019051
0.00087019034
0.00087019013
0.00087019041
0.00087019071
0.00087019034
0.00087019048
0.00087019053
0.00087019052
0.00087019045
0.00087019034
0.00087019016
0.00087018997
0.00087019027
0.00087019068
0.00087019023
0.00087019032
0.00087019034
0.00087019031
0.00087019024
0.00087019013
0.00087018997
0.00087018981
0.00087019016
0.00087019099
0.00087019062
0.00087019063
0.00087019063
0.0008701906
0.00087019052
0.00087019041
0.00087019027
0.00087019016
0.0008701908
0.00088496683
0.00088496625
0.00088496647
0.00088496658
0.00088496662
0.00088496661
0.00088496655
0.00088496646
0.00088496641
0.00088496669
0.00088496625
0.00088496596
0.00088496618
0.00088496629
0.00088496633
0.00088496631
0.00088496624
0.00088496611
0.00088496599
0.00088496634
0.00088496647
0.00088496618
0.00088496641
0.00088496651
0.00088496655
0.00088496652
0.00088496643
0.00088496627
0.00088496608
0.00088496636
0.00088496658
0.00088496629
0.00088496651
0.00088496662
0.00088496664
0.0008849666
0.0008849665
0.00088496632
0.0008849661
0.00088496636
0.00088496662
0.00088496633
0.00088496655
0.00088496664
0.00088496666
0.00088496661
0.00088496649
0.0008849663
0.00088496607
0.00088496633
0.00088496661
0.00088496631
0.00088496652
0.0008849666
0.00088496661
0.00088496656
0.00088496643
0.00088496623
0.000884966
0.00088496625
0.00088496655
0.00088496624
0.00088496643
0.0008849665
0.00088496649
0.00088496643
0.0008849663
0.0008849661
0.00088496586
0.00088496612
0.00088496646
0.00088496611
0.00088496627
0.00088496632
0.0008849663
0.00088496623
0.0008849661
0.00088496591
0.00088496569
0.00088496595
0.00088496641
0.00088496599
0.00088496608
0.0008849661
0.00088496607
0.000884966
0.00088496586
0.00088496569
0.0008849655
0.00088496582
0.00088496669
0.00088496634
0.00088496636
0.00088496636
0.00088496633
0.00088496625
0.00088496612
0.00088496595
0.00088496582
0.00088496643
0.00089943736
0.00089943681
0.00089943704
0.00089943716
0.0008994372
0.00089943718
0.00089943711
0.00089943701
0.00089943693
0.00089943719
0.00089943681
0.00089943655
0.00089943678
0.0008994369
0.00089943694
0.00089943691
0.00089943682
0.00089943668
0.00089943653
0.00089943686
0.00089943704
0.00089943678
0.00089943702
0.00089943713
0.00089943716
0.00089943713
0.00089943702
0.00089943685
0.00089943664
0.00089943689
0.00089943716
0.0008994369
0.00089943713
0.00089943723
0.00089943726
0.00089943721
0.00089943709
0.0008994369
0.00089943666
0.00089943689
0.0008994372
0.00089943694
0.00089943716
0.00089943726
0.00089943728
0.00089943722
0.00089943709
0.00089943688
0.00089943663
0.00089943685
0.00089943718
0.00089943691
0.00089943713
0.00089943721
0.00089943722
0.00089943716
0.00089943702
0.0008994368
0.00089943654
0.00089943676
0.00089943711
0.00089943682
0.00089943702
0.00089943709
0.00089943709
0.00089943702
0.00089943687
0.00089943666
0.0008994364
0.00089943662
0.00089943701
0.00089943668
0.00089943685
0.0008994369
0.00089943688
0.0008994368
0.00089943666
0.00089943645
0.0008994362
0.00089943644
0.00089943693
0.00089943653
0.00089943664
0.00089943666
0.00089943663
0.00089943654
0.0008994364
0.0008994362
0.00089943599
0.00089943628
0.00089943719
0.00089943686
0.00089943689
0.00089943689
0.00089943685
0.00089943676
0.00089943662
0.00089943644
0.00089943628
0.00089943686
0.00091361808
0.00091361758
0.00091361782
0.00091361793
0.00091361797
0.00091361795
0.00091361787
0.00091361775
0.00091361766
0.00091361789
0.00091361758
0.00091361735
0.00091361758
0.0009136177
0.00091361774
0.0009136177
0.00091361761
0.00091361745
0.00091361728
0.00091361758
0.00091361782
0.00091361758
0.00091361782
0.00091361793
0.00091361797
0.00091361792
0.00091361781
0.00091361762
0.00091361739
0.00091361761
0.00091361793
0.0009136177
0.00091361793
0.00091361804
0.00091361807
0.00091361801
0.00091361788
0.00091361767
0.00091361741
0.00091361762
0.00091361797
0.00091361774
0.00091361797
0.00091361807
0.00091361808
0.00091361802
0.00091361788
0.00091361765
0.00091361738
0.00091361757
0.00091361795
0.0009136177
0.00091361792
0.00091361801
0.00091361802
0.00091361795
0.0009136178
0.00091361757
0.00091361729
0.00091361748
0.00091361787
0.00091361761
0.00091361781
0.00091361788
0.00091361788
0.0009136178
0.00091361764
0.00091361741
0.00091361713
0.00091361733
0.00091361775
0.00091361745
0.00091361762
0.00091361767
0.00091361765
0.00091361757
0.00091361741
0.00091361718
0.00091361692
0.00091361713
0.00091361766
0.00091361728
0.00091361739
0.00091361741
0.00091361738
0.00091361729
0.00091361713
0.00091361692
0.00091361668
0.00091361694
0.00091361789
0.00091361758
0.00091361761
0.00091361762