/*--------------------------------*- C++ -*----------------------------------*\
| =========                 |                                                 |
| \\      /  F ield         | OpenFOAM: The Open Source CFD Toolbox           |
|  \\    /   O peration     | Version:  v2106                                 |
|   \\  /    A nd           | Website:  www.openfoam.com                      |
|    \\/     M anipulation  |                                                 |
\*---------------------------------------------------------------------------*/
FoamFile
{
    version     2.0;
    format      ascii;
    arch        "LSB;label=32;scalar=64";
    class       volScalarField;
    location    "60";
    object      gradTx;
}
// * * * * * * * * * * * * * * * * * * * * * * * * * * * * * * * * * * * * * //

dimensions      [0 -1 0 1 0 0 0];

internalField   nonuniform List<scalar> 
4000
(
0.00058011481
0.0012787434
0.00065282088
0.00036344166
0.00012982594
-7.4944781e-05
-0.00025163656
-0.00038304108
-0.00041524471
-0.0001321743
0.00051463978
0.0011578824
0.0006215027
0.00034978615
0.00012030042
-8.576123e-05
-0.00026966093
-0.00042151098
-0.00050719448
-0.00017565933
0.00049954083
0.001120183
0.00059677195
0.00033278269
0.00010591776
-0.00010145784
-0.00029078933
-0.00045293481
-0.00054976163
-0.00019141536
0.000493761
0.0011018335
0.00057844174
0.00031629023
9.0253764e-05
-0.00011798992
-0.00030987381
-0.00047522158
-0.00057197732
-0.00019828425
0.00049043716
0.001089524
0.00056327603
0.00030066908
7.4688594e-05
-0.00013383092
-0.00032629848
-0.00049157131
-0.00058549068
-0.00020197311
0.00048741065
0.0010779253
0.00054839508
0.00028506106
5.9321641e-05
-0.0001488203
-0.00034079383
-0.00050475763
-0.00059537994
-0.00020449968
0.00048322619
0.001063011
0.00053104733
0.00026829599
4.3858208e-05
-0.00016316476
-0.00035417408
-0.00051666674
-0.00060423543
-0.00020676009
0.00047539441
0.0010387726
0.00050818219
0.00024955192
2.8401636e-05
-0.00017669592
-0.00036676274
-0.00052845703
-0.00061383557
-0.00020939627
0.00045757959
0.00099311723
0.00047733674
0.0002296595
1.4322162e-05
-0.00018826019
-0.00037787348
-0.00054027976
-0.00062557523
-0.0002131048
0.00041409456
0.00090425565
0.00044339936
0.00021382287
4.9990035e-06
-0.00019544067
-0.00038521837
-0.00054979682
-0.00063851179
-0.00021802065
0.0025319536
0.0056947852
0.0030601241
0.0017329426
0.00061298134
-0.0003847352
-0.0012571923
-0.0019316634
-0.0021841872
-0.00072111529
0.0022150005
0.0051145369
0.0029145784
0.0016681319
0.00056672472
-0.00043775016
-0.0013467473
-0.0021315016
-0.002733009
-0.00099291296
0.0021451214
0.0049396819
0.0027982691
0.0015863714
0.00049683419
-0.00051437976
-0.001450264
-0.0022861979
-0.0029392422
-0.001068131
0.00211797
0.0048526819
0.0027101665
0.0015064091
0.00042055983
-0.00059505535
-0.0015435046
-0.0023951346
-0.0030474898
-0.001101476
0.0021019142
0.0047931108
0.0026365464
0.0014303667
0.00034465412
-0.00067239519
-0.0016237497
-0.002475035
-0.0031135259
-0.0011195007
0.0020871323
0.0047365347
0.0025640016
0.001354229
0.00026962966
-0.00074564525
-0.0016946594
-0.0025396177
-0.0031620462
-0.0011319178
0.0020665709
0.0046634662
0.0024792412
0.0012723513
0.00019406421
-0.00081584084
-0.001760298
-0.0025982788
-0.0032059448
-0.001143186
0.002027429
0.0045434631
0.0023672444
0.0011807433
0.00011847489
-0.00088219356
-0.0018224022
-0.0026571484
-0.003254894
-0.0011568654
0.0019333454
0.0043089317
0.0022156082
0.0010835142
4.9581145e-05
-0.00093908461
-0.0018778287
-0.0027180244
-0.003319223
-0.0011781207
0.0016615478
0.0037884081
0.0020527635
0.0010064597
3.9184767e-06
-0.00097461251
-0.00191525
-0.0027704265
-0.0034053954
-0.0012143137
0.004084614
0.0093113101
0.005168745
0.0029495597
0.0010042412
-0.00076726309
-0.0023568086
-0.0036749094
-0.0044688123
-0.0015629407
0.0035740189
0.0083738693
0.0049282773
0.0028386944
0.00092302635
-0.00086163354
-0.0025176497
-0.0040375763
-0.0054776437
-0.0020642102
0.0034596535
0.0080846158
0.0047308674
0.0026967976
0.00079992035
-0.00099771521
-0.0027022138
-0.0043135089
-0.0058403069
-0.0021949614
0.0034137071
0.0079359916
0.0045781058
0.002556516
0.00066506951
-0.0011409912
-0.0028681471
-0.004507276
-0.0060316032
-0.0022535033
0.0033857433
0.0078318536
0.0044486889
0.0024221657
0.00053045152
-0.0012785206
-0.0030110759
-0.004649647
-0.0061491186
-0.0022855272
0.0033595639
0.0077316709
0.0043201489
0.0022870471
0.00039704324
-0.0014090746
-0.0031377836
-0.0047653696
-0.0062363272
-0.0023078978
0.0033228296
0.0076014015
0.0041693313
0.0021413603
0.00026236807
-0.0015346099
-0.0032558615
-0.0048718895
-0.0063171317
-0.0023288745
0.0032523365
0.0073862657
0.0039696515
0.0019781851
0.00012740673
-0.0016538602
-0.0033690373
-0.0049820507
-0.0064128829
-0.0023565981
0.0030810517
0.0069628021
0.0036996316
0.0018052221
4.2744688e-06
-0.0017568524
-0.0034725426
-0.0051035542
-0.0065582045
-0.0024085873
0.0025797822
0.0060147711
0.0034156921
0.0016693733
-7.731726e-05
-0.0018218733
-0.0035455931
-0.0052231235
-0.0068326336
-0.0025395508
0.0054682849
0.012519468
0.0070216556
0.00399866
0.001280842
-0.0012402511
-0.0035501685
-0.0055439301
-0.0069133626
-0.0024617021
0.0047859166
0.011265897
0.0066974287
0.0038458819
0.0011665892
-0.0013747341
-0.0037810429
-0.0060674747
-0.0083776344
-0.0031902361
0.0046325703
0.010875735
0.0064270005
0.0036482729
0.00099286589
-0.0015683552
-0.0040447007
-0.0064619234
-0.0088922715
-0.003374653
0.0045697654
0.010671241
0.0062144791
0.003451122
0.00080187881
-0.0017722791
-0.0042814392
-0.0067383511
-0.0091640281
-0.003457463
0.0045307183
0.010525348
0.0060322405
0.003260987
0.00061056834
-0.0019683435
-0.0044856048
-0.0069418451
-0.0093318166
-0.0035031209
0.0044935968
0.010383265
0.0058497687
0.0030688244
0.00042038217
-0.0021549796
-0.0046672785
-0.007108248
-0.0094575417
-0.0035354241
0.004441063
0.010197244
0.0056346955
0.0028609987
0.00022786785
-0.0023351413
-0.0048377868
-0.0072634037
-0.0095765021
-0.0035665522
0.0043396806
0.009888733
0.0053493723
0.0026279203
3.4542936e-05
-0.0025071615
-0.0050031814
-0.0074277438
-0.009723258
-0.0036098343
0.0040920333
0.0092792504
0.0049638191
0.002381077
-0.00014202907
-0.0026567
-0.0051572825
-0.0076160595
-0.0099598672
-0.0036965852
0.0033634993
0.0079098241
0.0045629787
0.0021883752
-0.00025897073
-0.002751847
-0.0052688977
-0.007811109
-0.010438174
-0.0039287057
0.0067546019
0.015467474
0.0086726312
0.004896081
0.0014473881
-0.0017948152
-0.0048093497
-0.007469999
-0.0093941962
-0.0033669094
0.005909531
0.013915723
0.0082709679
0.0047044249
0.0013018957
-0.0019678816
-0.005108133
-0.0081498454
-0.011300541
-0.004315957
0.0057201017
0.01343243
0.0079331831
0.0044547972
0.0010801317
-0.0022168109
-0.0054482979
-0.0086590992
-0.011962084
-0.0045521545
0.0056417555
0.013176275
0.0076649684
0.0042040258
0.00083558849
-0.0024791086
-0.0057535072
-0.0090155425
-0.012311573
-0.00465836
0.005592331
0.012991146
0.007432784
0.003960744
0.00058985516
-0.002731722
-0.0060170775
-0.0092784277
-0.012528178
-0.0047172402
0.0055447606
0.012809019
0.0071986611
0.0037137493
0.00034481506
-0.002972854
-0.0062524574
-0.0094945659
-0.012691801
-0.0047593264
0.0054769534
0.01256915
0.0069215569
0.0034458329
9.6109835e-05
-0.00320648
-0.0064747572
-0.0096982168
-0.012849083
-0.0048006867
0.0053455717
0.012170071
0.006553287
0.0031449698
-0.00015413516
-0.0034305337
-0.0066924023
-0.0099175088
-0.01304791
-0.0048598671
0.0050237225
0.01138005
0.0060558599
0.0028265045
-0.00038291357
-0.0036262691
-0.0068977001
-0.010174148
-0.013377216
-0.0049816824
0.0040746749
0.0096021824
0.0055422554
0.0025788758
-0.00053436312
-0.0037514388
-0.0070485111
-0.010445641
-0.014056255
-0.0053125598
0.0079597485
0.018201649
0.0101569
0.0056632102
0.0015200486
-0.0024109306
-0.0061019297
-0.0094017185
-0.011846535
-0.0042560686
0.0069596639
0.01636648
0.009682565
0.0054351556
0.0013450384
-0.0026208311
-0.0064658667
-0.010231666
-0.014177182
-0.005416725
0.0067363027
0.015795882
0.0092818732
0.0051367205
0.00107778
-0.0029225704
-0.0068793894
-0.010851092
-0.01497952
-0.0057024948
0.0066434405
0.015491453
0.0089614672
0.0048353852
0.00078234903
-0.0032406812
-0.0072502909
-0.011284366
-0.015403575
-0.00583112
0.0065842663
0.015269392
0.0086821028
0.0045416528
0.00048466896
-0.0035475336
-0.0075710221
-0.011604472
-0.015667202
-0.0059027282
0.0065267671
0.015049184
0.0083987778
0.0042422742
0.00018700949
-0.0038411808
-0.0078583665
-0.011868869
-0.015867649
-0.0059543245
0.0064443326
0.014757752
0.0080622526
0.0039166896
-0.00011583057
-0.0041266009
-0.0081311422
-0.012120021
-0.01606258
-0.0060057477
0.0062841424
0.014271725
0.0076143535
0.0035506415
-0.00042106607
-0.0044013009
-0.0084000623
-0.012393537
-0.016312831
-0.0060806132
0.005891034
0.013308379
0.007009553
0.0031633094
-0.00070033315
-0.0046421494
-0.0086558109
-0.012717647
-0.016733196
-0.0062367523
0.0047303775
0.01113874
0.0063879605
0.0028629594
-0.00088513993
-0.0047966788
-0.0088452439
-0.013064154
-0.017607372
-0.0066633972
0.0090859558
0.020736021
0.011494997
0.0063187588
0.0015173122
-0.0030664577
-0.0073984578
-0.011301235
-0.014229743
-0.0051160291
0.0079390623
0.018632789
0.01095244
0.0060566124
0.0013145169
-0.0033112528
-0.0078243211
-0.01227396
-0.016963979
-0.0064779587
0.0076838013
0.01798028
0.010492886
0.0057124069
0.0010043589
-0.003663053
-0.0083075696
-0.012998148
-0.017900051
-0.0068107735
0.0075773573
0.017630678
0.010123573
0.0053635152
0.00066083153
-0.0040341395
-0.0087409688
-0.013504551
-0.018395029
-0.0069607064
0.0075090371
0.017373928
0.0097997888
0.0050221277
0.00031389168
-0.0043926068
-0.00911622
-0.01387928
-0.018703535
-0.0070444585
0.0074421604
0.017117724
0.0094698875
0.004673048
-3.3850478e-05
-0.0047364094
-0.009453337
-0.014189985
-0.018939351
-0.0071051918
0.0073458403
0.016777333
0.0090769022
0.0042925738
-0.0003883782
-0.0050714837
-0.0097746961
-0.014486992
-0.019170683
-0.0071663504
0.0071582515
0.016208613
0.0085532397
0.0038643975
-0.00074621863
-0.0053948855
-0.010093168
-0.01481306
-0.019470785
-0.0072564126
0.0066973569
0.015080421
0.0078463119
0.0034114412
-0.0010738128
-0.0056791954
-0.010397771
-0.015202565
-0.019979207
-0.007445697
0.0053354273
0.012538304
0.0071221903
0.0030609138
-0.0012905409
-0.0058620333
-0.010624602
-0.015621585
-0.021041415
-0.0079645509
0.010131245
0.023072429
0.012698459
0.0068771711
0.0014559824
-0.0037411267
-0.0086741486
-0.013139839
-0.016515039
-0.0059376764
0.0088465316
0.020717778
0.01209224
0.0065832541
0.0012272028
-0.0040187007
-0.0091583244
-0.014247109
-0.019629674
-0.0074893206
0.0085614771
0.019988858
0.011577855
0.0061963358
0.0008768561
-0.004417568
-0.0097072456
-0.015069985
-0.020691593
-0.007866368
0.0084423855
0.019597175
0.011162924
0.005802966
0.00048818836
-0.0048385226
-0.010199568
-0.015645347
-0.0212534
-0.008036366
0.0083655324
0.019308023
0.010797567
0.0054168679
9.4898135e-05
-0.0052456824
-0.010626336
-0.016071719
-0.021604331
-0.0081315947
0.0082898658
0.019018048
0.010423909
0.0050210081
-0.00030010151
-0.0056369355
-0.011010641
-0.016426386
-0.021873748
-0.0082010118
0.0081804831
0.018631582
0.0099777456
0.0045887535
-0.00070351482
-0.0060191196
-0.011378228
-0.016767115
-0.022139834
-0.0082714712
0.007967082
0.017984951
0.0093826658
0.004101918
-0.0011111746
-0.0063888276
-0.011743984
-0.017143436
-0.022487637
-0.0083760753
0.007442303
0.016701435
0.0085795077
0.00358702
-0.0014845535
-0.0067145159
-0.012095278
-0.017595513
-0.023080268
-0.0085970425
0.0058906588
0.013808398
0.0077589395
0.00318918
-0.0017315222
-0.0069243306
-0.012357873
-0.01808387
-0.024322072
-0.0092039442
0.011092338
0.025207842
0.013773619
0.0073490694
0.0013499765
-0.0044177938
-0.0099087125
-0.014895042
-0.018680254
-0.0067139598
0.0096795729
0.022619772
0.013108542
0.0070257934
0.0010971079
-0.004725867
-0.010447254
-0.016127841
-0.022149904
-0.0084426703
0.0093669576
0.021820221
0.012543504
0.0065993349
0.00070943446
-0.0051685727
-0.011057421
-0.017042756
-0.023329056
-0.0088608858
0.0092361885
0.021389656
0.012086356
0.0061647035
0.00027877036
-0.005636029
-0.011604749
-0.017682491
-0.023953203
-0.0090495886
0.0091514403
0.021070486
0.011682414
0.0057370176
-0.00015773571
-0.0060886813
-0.012079706
-0.018157187
-0.024343826
-0.009155553
0.0090676094
0.020749114
0.011268018
0.0052975334
-0.00059689842
-0.0065243735
-0.01250828
-0.018553139
-0.024644821
-0.009233135
0.0089460582
0.020319707
0.010772252
0.004816909
-0.0010460802
-0.0069507797
-0.012919366
-0.018935085
-0.024943714
-0.0093123811
0.0087085818
0.019600406
0.010110524
0.0042752482
-0.0015004295
-0.0073640326
-0.013329723
-0.019358904
-0.025336654
-0.0094307518
0.008124192
0.018171993
0.0092176028
0.0037024784
-0.0019167282
-0.0077286779
-0.013725131
-0.019870198
-0.026009004
-0.0096817122
0.0063954815
0.014951604
0.0083072254
0.0032604777
-0.0021920479
-0.00796392
-0.014021557
-0.020424195
-0.027420781
-0.010371936
0.01196572
0.02713743
0.014723844
0.0077421223
0.0012103424
-0.0050824843
-0.011085707
-0.016548828
-0.020707491
-0.0074391155
0.010435381
0.024335207
0.01400498
0.0073920125
0.00093538042
-0.0054186272
-0.011674376
-0.017897454
-0.024504835
-0.0093312774
0.01009757
0.02347112
0.013393659
0.0069293362
0.0005134033
-0.0059017235
-0.012341032
-0.018897251
-0.025791966
-0.0097873749
0.009956139
0.023005022
0.012897853
0.0064568235
4.4078616e-05
-0.0064120741
-0.012939141
-0.019596408
-0.026473612
-0.0099933179
0.0098641638
0.022658334
0.01245847
0.0059908587
-0.00043229206
-0.0069067664
-0.013458676
-0.020115816
-0.026900956
-0.010109213
0.009772831
0.022308083
0.012006552
0.0055111282
-0.00091227767
-0.0073836159
-0.013928311
-0.0205501
-0.027231292
-0.010194386
0.0096400686
0.021839095
0.011465023
0.0049858157
-0.0014038339
-0.007851065
-0.014379859
-0.020970454
-0.027560802
-0.01028184
0.009380385
0.021052758
0.010741786
0.0043934833
-0.0019014472
-0.0083047982
-0.014831805
-0.021438663
-0.027995988
-0.010413105
0.0087409844
0.019490672
0.0097660696
0.00376725
-0.0023575257
-0.008705703
-0.015268422
-0.022005391
-0.028743029
-0.010692173
0.0068488224
0.015968283
0.008773009
0.0032844934
-0.0026591272
-0.0089646443
-0.015596501
-0.02262089
-0.030314092
-0.01146048
0.012748073
0.028856
0.015550838
0.0080618629
0.0010456992
-0.0057239945
-0.012191854
-0.018086582
-0.022581998
-0.008108328
0.011111269
0.025860013
0.014783509
0.0076875568
0.00075073435
-0.0060856441
-0.012826159
-0.019540736
-0.02667802
-0.010149482
0.010750749
0.024937787
0.014130475
0.0071921377
0.00029763137
-0.0066054848
-0.013544256
-0.020617817
-0.028063325
-0.010639983
0.010599716
0.02443965
0.013599732
0.0066852888
-0.00020683631
-0.0071549051
-0.014188656
-0.021371129
-0.028797324
-0.010861611
0.010501211
0.024068061
0.013128207
0.0061845321
-0.00071952065
-0.0076879598
-0.014748907
-0.021931384
-0.029258208
-0.010986574
0.010403072
0.023691582
0.012642161
0.0056681368
-0.0012367694
-0.0082024494
-0.015256149
-0.02240081
-0.029615466
-0.011078717
0.010260111
0.023186571
0.012058946
0.0051020571
-0.0017670649
-0.0087075126
-0.015744865
-0.022856514
-0.029973203
-0.011173747
0.0099802024
0.022339181
0.011279664
0.0044634852
-0.0023042628
-0.0091984068
-0.016235111
-0.023365707
-0.030447466
-0.011316949
0.0092906749
0.020655336
0.010228554
0.0037884897
-0.0027967459
-0.0096326421
-0.016709761
-0.023983727
-0.031263704
-0.011622068
0.0072495214
0.016857854
0.00916036
0.0032686025
-0.0031224049
-0.0099134022
-0.017067111
-0.024656208
-0.032982412
-0.012462754
0.013436484
0.030358715
0.016255451
0.008312349
0.00086275475
-0.0063333974
-0.013216454
-0.019496401
-0.024291556
-0.0087175629
0.01170486
0.027190325
0.015445196
0.0079165849
0.00054996223
-0.0067178754
-0.013891687
-0.021045276
-0.028655789
-0.010892524
0.011324224
0.026216616
0.014755198
0.0073920387
6.9050699e-05
-0.007270641
-0.014655926
-0.022191667
-0.030128991
-0.011413787
0.01116469
0.025690072
0.014193386
0.0068545502
-0.00046687898
-0.0078551155
-0.015341893
-0.022993595
-0.030909937
-0.011649467
0.011060381
0.025296306
0.013693163
0.0063226501
-0.0010121487
-0.0084226587
-0.015938785
-0.023590614
-0.031401001
-0.011782589
0.010956162
0.024896368
0.013176545
0.0057733508
-0.0015629089
-0.0089710679
-0.016479972
-0.024091793
-0.031782608
-0.011881039
0.010804062
0.024359063
0.012555923
0.0051706323
-0.002128101
-0.0095101041
-0.017002342
-0.024579575
-0.03216601
-0.011982968
0.010506007
0.023456897
0.011726338
0.0044904913
-0.0027009874
-0.010034624
-0.017527371
-0.025126098
-0.032675943
-0.012137079
0.0097714792
0.021663797
0.010607604
0.0037716851
-0.0032262998
-0.010499065
-0.018036647
-0.025790961
-0.033555479
-0.012466039
0.0075965182
0.017619462
0.0094721897
0.0032184813
-0.0035736586
-0.010799633
-0.018420706
-0.026515568
-0.035409341
-0.013372987
0.01402854
0.0316415
0.016838179
0.0084966685
0.00066677308
-0.0069035872
-0.014150907
-0.020768629
-0.025826108
-0.0092634707
0.012214196
0.028322877
0.015990722
0.0080822698
0.00033839963
-0.0073081183
-0.014862179
-0.022400991
-0.030426877
-0.011556451
0.011816124
0.027304563
0.01526866
0.0075323328
-0.00016688352
-0.0078898421
-0.015667054
-0.023608405
-0.031977308
-0.012104699
0.011649225
0.026753358
0.014679778
0.0069680324
-0.00073045363
-0.0085051935
-0.01638967
-0.024453182
-0.032799578
-0.012352734
0.011539858
0.026340228
0.014154423
0.0064087764
-0.0013044285
-0.0091031848
-0.017018947
-0.025082701
-0.033317313
-0.012493065
0.011430309
0.025919701
0.013610924
0.0058304875
-0.0018847857
-0.0096816215
-0.017590238
-0.025612077
-0.033720564
-0.012597126
0.011270171
0.025353973
0.012957348
0.0051954337
-0.0024808564
-0.010250811
-0.018142568
-0.026128488
-0.034126924
-0.012705234
0.010956128
0.024403555
0.012083433
0.0044785941
-0.0030853537
-0.010805242
-0.018698667
-0.026708476
-0.03466892
-0.012869164
0.01018193
0.022514197
0.010905156
0.0037211378
-0.0036397519
-0.011296598
-0.019238966
-0.027415466
-0.035605498
-0.013219624
0.0078889492
0.018252355
0.009710732
0.0031385894
-0.00400634
-0.011614852
-0.019647023
-0.028187051
-0.037581287
-0.014186356
0.014522388
0.032701276
0.017299513
0.0086173139
0.00046195367
-0.007428902
-0.014988351
-0.021895518
-0.027177516
-0.0097433256
0.012637787
0.029255236
0.016420721
0.0081871716
0.00012030356
-0.0078506331
-0.015730627
-0.023599791
-0.031982175
-0.012138053
0.012225028
0.028199369
0.015671616
0.0076156778
-0.00040581673
-0.0084572291
-0.016570463
-0.024859692
-0.033598857
-0.012709403
0.012051926
0.027627339
0.015059765
0.0070285006
-0.00099309057
-0.0090991479
-0.017324651
-0.025741367
-0.034456652
-0.012968043
0.011938267
0.027197732
0.014512945
0.0064457906
-0.0015917655
-0.0097234104
-0.017981911
-0.026398974
-0.034997428
-0.013114598
0.011824159
0.026759569
0.013946371
0.0058425519
-0.0021976711
-0.010327842
-0.018579321
-0.026952853
-0.03541951
-0.013223546
0.011657112
0.026169405
0.013264431
0.0051796093
-0.0028204593
-0.010923219
-0.019157764
-0.027494296
-0.035846
-0.013337082
0.011329308
0.025177457
0.012352347
0.0044311039
-0.0034523412
-0.011503695
-0.019741061
-0.028103706
-0.036416279
-0.013509688
0.01052093
0.023205232
0.011122855
0.003640327
-0.0040319449
-0.012018541
-0.020308617
-0.028847887
-0.037403346
-0.013879192
0.0081262026
0.018756116
0.009877869
0.0030325333
-0.0044151993
-0.012352267
-0.020737829
-0.029661053
-0.039487197
-0.014898922
0.014916761
0.033536095
0.017640156
0.0086764552
0.00025172299
-0.0079048304
-0.015723372
-0.022870983
-0.028339383
-0.010154981
0.01297464
0.029985945
0.016736002
0.0082335095
-0.00010085636
-0.0083408494
-0.016491509
-0.024635337
-0.033314548
-0.012634814
0.012549995
0.028899701
0.015964964
0.007644366
-0.00064420499
-0.0089681402
-0.017360501
-0.025938995
-0.034986272
-0.013225303
0.01237187
0.028310753
0.015334325
0.007038329
-0.001251157
-0.0096322146
-0.018141065
-0.02685148
-0.035873662
-0.013492761
0.012254698
0.027867612
0.014769783
0.0064361552
-0.0018704298
-0.010278465
-0.018821789
-0.027532647
-0.036433753
-0.013644531
0.012136817
0.027414825
0.014184024
0.0058121042
-0.0024977309
-0.010904748
-0.019441221
-0.028107226
-0.036871769
-0.013757618
0.011964018
0.026804302
0.013478418
0.0051258302
-0.0031429629
-0.011522231
-0.020041811
-0.028669986
-0.037315462
-0.013875803
0.011624726
0.025777696
0.012534468
0.0043508169
-0.0037978874
-0.01212477
-0.020648304
-0.029304635
-0.037910104
-0.014055897
0.010787782
0.02373629
0.011262275
0.0035321783
-0.0043987089
-0.012659571
-0.02123922
-0.030080886
-0.038940857
-0.014441899
0.0083079491
0.019130807
0.0099753545
0.0029033357
-0.0047959942
-0.013006479
-0.021686639
-0.03093003
-0.041118382
-0.015507581
0.015210989
0.034145226
0.017861181
0.0086761328
3.8950353e-05
-0.0083277897
-0.016351801
-0.023690423
-0.02930692
-0.010496835
0.013224275
0.030514607
0.016937703
0.0082233553
-0.00032218225
-0.0087751442
-0.017140581
-0.025502848
-0.034418702
-0.01304488
0.012790576
0.029405241
0.016149896
0.0076205175
-0.00087909953
-0.0094188891
-0.018032836
-0.026841406
-0.036134101
-0.013650493
0.012608622
0.028803322
0.0155047
0.0069996933
-0.0015016422
-0.010100635
-0.018834491
-0.027778513
-0.037045065
-0.013924954
0.012488725
0.028349626
0.014926234
0.0063821079
-0.0021373414
-0.010764515
-0.01953408
-0.028478631
-0.037620679
-0.014080912
0.012367867
0.027885272
0.01432524
0.0057414515
-0.0027818093
-0.011408425
-0.020171353
-0.029070027
-0.038071667
-0.014197373
0.012190488
0.027258526
0.013600743
0.0050364825
-0.0034451305
-0.012043847
-0.020790034
-0.029650302
-0.038529564
-0.014319408
0.011842014
0.026204237
0.01263133
0.0042402076
-0.0041186708
-0.012664378
-0.021415623
-0.030305893
-0.03914454
-0.014505771
0.010982205
0.024107544
0.011325078
0.0033992573
-0.0047366449
-0.013215518
-0.022025899
-0.031108952
-0.04021198
-0.014905646
0.0084341598
0.019377056
0.010004966
0.0027536292
-0.0051452729
-0.013573263
-0.022488496
-0.031988309
-0.042468369
-0.01601003
0.015405004
0.034529195
0.017964123
0.0086183918
-0.00017389668
-0.0086949628
-0.016870554
-0.024350583
-0.030076843
-0.010767803
0.013386727
0.03084192
0.017027387
0.0081587667
-0.00054119247
-0.0091506787
-0.017674715
-0.026198972
-0.03529107
-0.013367024
0.012946821
0.029716722
0.016227999
0.0075462131
-0.0011079913
-0.0098066012
-0.01858429
-0.0275635
-0.0370387
-0.013983723
0.012762236
0.029105796
0.015572503
0.0069147045
-0.0017420015
-0.010501494
-0.019401704
-0.028518986
-0.037967167
-0.014263358
0.012640405
0.028644543
0.014983937
0.006285795
-0.0023899143
-0.011178595
-0.020115507
-0.029233396
-0.038554471
-0.014422464
0.012517372
0.028171701
0.014371694
0.0056327815
-0.0030472738
-0.011835857
-0.020766384
-0.029837674
-0.039015428
-0.014541524
0.012336594
0.027532905
0.013633122
0.0049138013
-0.003724278
-0.012484995
-0.021399041
-0.030431599
-0.039484476
-0.014666596
0.011981265
0.026457965
0.012644705
0.0041015644
-0.0044119542
-0.013119391
-0.022039559
-0.031103757
-0.040115677
-0.01485798
0.011104335
0.024319988
0.011313108
0.003243905
-0.0050429662
-0.013683199
-0.022665124
-0.031928254
-0.041212656
-0.015269051
0.0085051133
0.019496109
0.009968608
0.002585793
-0.0054602154
-0.014049396
-0.023139807
-0.032831937
-0.043532787
-0.016404733
0.015499332
0.034689789
0.017951037
0.0085053703
-0.00038464315
-0.0090041795
-0.01727751
-0.024849444
-0.030647291
-0.010967297
0.013462542
0.0309697
0.017007101
0.0080418768
-0.00075571243
-0.0094652797
-0.018091784
-0.026721668
-0.035929729
-0.013600627
0.013019273
0.029835947
0.01620131
0.0074235846
-0.0013287013
-0.010129095
-0.019012724
-0.028103223
-0.037698137
-0.01422437
0.012833251
0.029219973
0.015539768
0.0067854981
-0.0019700468
-0.010832594
-0.019840548
-0.029070831
-0.038638026
-0.014507348
0.012710277
0.028754161
0.014944932
0.0061493615
-0.0026259465
-0.011518494
-0.020563896
-0.029794854
-0.039233172
-0.01466856
0.012585872
0.028275915
0.014325434
0.0054882529
-0.0032919038
-0.01218481
-0.021224116
-0.030408054
-0.039701074
-0.014789438
0.012402877
0.027629246
0.013577617
0.0047599624
-0.0039781627
-0.012843415
-0.021866601
-0.031011729
-0.040178189
-0.014916723
0.012043023
0.026540701
0.012576669
0.0039370811
-0.0046754715
-0.013487516
-0.022517841
-0.031696032
-0.040821456
-0.015111867
0.011154728
0.024375466
0.011228455
0.0030683315
-0.005315386
-0.01406029
-0.02315458
-0.032536532
-0.041940732
-0.015531418
0.008521397
0.019489855
0.0098683729
0.0024020464
-0.0057385203
-0.014432533
-0.023638223
-0.033458575
-0.04430927
-0.016690892
0.015495081
0.034630055
0.017824532
0.0083393564
-0.00059133151
-0.0092538307
-0.01757143
-0.025186142
-0.031017751
-0.011095199
0.013452769
0.030900871
0.016879406
0.0078749508
-0.0009637991
-0.0097173524
-0.018390571
-0.027070128
-0.036334316
-0.013745645
0.013008958
0.029765782
0.01607235
0.0072548714
-0.001539305
-0.010384793
-0.019316947
-0.028459809
-0.038112114
-0.014372419
0.012822685
0.02914869
0.015408989
0.0066142923
-0.0021838704
-0.011092376
-0.020149851
-0.029433304
-0.03905737
-0.014656917
0.012699354
0.028681297
0.014811692
0.0059750093
-0.0028435426
-0.011782661
-0.020878083
-0.030162274
-0.03965652
-0.014819196
0.012574374
0.028200716
0.014188917
0.0053100547
-0.0035138127
-0.012453739
-0.021543387
-0.030780436
-0.040128344
-0.014941109
0.01239034
0.027550334
0.013436668
0.0045771419
-0.0042049049
-0.01311756
-0.022191549
-0.031389954
-0.040610433
-0.015069781
0.012028279
0.026455199
0.012429637
0.0037489181
-0.0049073491
-0.013767204
-0.022849294
-0.032081962
-0.041261583
-0.015267415
0.011134349
0.024276667
0.011073492
0.0028746773
-0.0055520362
-0.01434524
-0.023493075
-0.032932997
-0.042395867
-0.015692713
0.0084839028
0.019360837
0.0097065832
0.0022045121
-0.0059783234
-0.014721118
-0.023982534
-0.033867395
-0.044797371
-0.016868418
0.015393926
0.034354267
0.017587774
0.0081228215
-0.0007921699
-0.0094428041
-0.017751879
-0.025360898
-0.031188996
-0.011151846
0.013358943
0.030639441
0.016647389
0.00766042
-0.0011636891
-0.0099058172
-0.018570699
-0.027244699
-0.036505958
-0.013802591
0.012917375
0.029510138
0.015844135
0.0070424556
-0.0017380796
-0.010572661
-0.019496641
-0.0286337
-0.038281891
-0.014428431
0.01273202
0.028895802
0.015183127
0.0064034232
-0.0023817909
-0.011279847
-0.020329347
-0.029606912
-0.039226525
-0.014712648
0.012609107
0.028429772
0.014587138
0.0057650335
-0.0030410599
-0.01197014
-0.021057843
-0.0303362
-0.039825875
-0.014874962
0.01248434
0.027949892
0.013965025
0.0051004428
-0.0037113935
-0.012641719
-0.021724002
-0.030955391
-0.040298615
-0.014997134
0.012300432
0.027299915
0.013213108
0.0043675539
-0.004402932
-0.013306536
-0.02237371
-0.031566862
-0.040782597
-0.01512637
0.01193846
0.02620513
0.012206377
0.0035392408
-0.0051060485
-0.013957587
-0.023033761
-0.032262143
-0.041437453
-0.015325224
0.011044565
0.024027113
0.010850895
0.002665054
-0.0057514102
-0.014537197
-0.023680463
-0.033118254
-0.042579454
-0.015753534
0.0083938193
0.019112236
0.0094858098
0.0019952568
-0.0061781392
-0.014914309
-0.024172599
-0.034059
-0.044998475
-0.016937905
0.015198087
0.03386789
0.01724449
0.0078584388
-0.00098549598
-0.0095704352
-0.017819173
-0.025374953
-0.031163025
-0.011138009
0.013183069
0.030190472
0.016314658
0.0074009008
-0.0013537623
-0.010030059
-0.018632568
-0.027246819
-0.036447205
-0.013772511
0.012746475
0.029073934
0.015520172
0.0067888816
-0.0019234666
-0.010692151
-0.019552304
-0.028626482
-0.038210215
-0.014393523
0.012563182
0.028466153
0.014865614
0.0061553655
-0.0025623158
-0.01139453
-0.020379615
-0.029593339
-0.039148338
-0.014675688
0.012441449
0.028004377
0.014274637
0.0055218438
-0.0032170697
-0.012080521
-0.021103821
-0.030318386
-0.039744141
-0.014837024
0.012317671
0.027528183
0.013657061
0.0048617624
-0.0038832786
-0.012748398
-0.021766661
-0.030934721
-0.04021483
-0.014958686
0.012135034
0.026882661
0.012910165
0.0041334738
-0.0045709371
-0.013410042
-0.022413834
-0.031544296
-0.040697652
-0.01508767
0.011775407
0.025795051
0.011910013
0.003310245
-0.0052703243
-0.014058411
-0.023072032
-0.03223846
-0.04135207
-0.015286485
0.010887123
0.023631133
0.010563645
0.00244157
-0.0059123194
-0.014635953
-0.023717574
-0.033094225
-0.042494543
-0.015715087
0.008252621
0.018747861
0.0092088798
0.0017763192
-0.006336817
-0.015011922
-0.024209272
-0.034035351
-0.044915721
-0.016900604
0.014910309
0.033177532
0.016798949
0.0075490932
-0.0011697491
-0.0096364644
-0.017774323
-0.02523051
-0.030942996
-0.011054871
0.012927603
0.029560033
0.015885336
0.0070992049
-0.0015325131
-0.010089883
-0.018577304
-0.027078954
-0.036161957
-0.013656957
0.012498643
0.028463062
0.015104454
0.0064968671
-0.002094043
-0.010743163
-0.01948519
-0.028440816
-0.037901249
-0.014269343
0.012318527
0.027865538
0.014460342
0.0058727443
-0.0027241114
-0.011436421
-0.020302024
-0.02939538
-0.038827104
-0.014547726
0.012198717
0.027410836
0.013877994
0.0052479768
-0.0033703255
-0.012113886
-0.021017479
-0.030111721
-0.039415693
-0.014707089
0.012076684
0.026941244
0.013268744
0.0045964617
-0.0040283074
-0.012773941
-0.021672906
-0.030721391
-0.039881418
-0.01482749
0.011896438
0.026304137
0.012531456
0.0038772535
-0.0047078462
-0.013428324
-0.022313535
-0.031325285
-0.040360077
-0.014955418
0.011541363
0.025230376
0.011544025
0.0030641727
-0.0053991896
-0.014069997
-0.022965791
-0.032014006
-0.041009968
-0.01515295
0.010664142
0.023093831
0.01021503
0.0022063486
-0.0060338575
-0.014641888
-0.02360615
-0.032864075
-0.042145758
-0.015579159
0.008062056
0.018272124
0.0088788772
0.0015497288
-0.0064535041
-0.015014381
-0.02409434
-0.033799687
-0.044553916
-0.016758388
0.01453383
0.032290891
0.016255949
0.0071978867
-0.0013434452
-0.0096409967
-0.017618984
-0.02493067
-0.030533167
-0.010904009
0.012595424
0.028755159
0.015364038
0.0067583455
-0.0016985257
-0.010085478
-0.018406706
-0.026744533
-0.035655392
-0.013457963
0.012176676
0.027684337
0.014601444
0.0061693105
-0.0022484951
-0.010725999
-0.019297259
-0.028080375
-0.037360489
-0.014058039
0.012000817
0.027100654
0.013971649
0.0055583435
-0.002865975
-0.01140594