/*--------------------------------*- C++ -*----------------------------------*\
| =========                 |                                                 |
| \\      /  F ield         | OpenFOAM: The Open Source CFD Toolbox           |
|  \\    /   O peration     | Version:  v2106                                 |
|   \\  /    A nd           | Website:  www.openfoam.com                      |
|    \\/     M anipulation  |                                                 |
\*---------------------------------------------------------------------------*/
FoamFile
{
    version     2.0;
    format      ascii;
    arch        "LSB;label=32;scalar=64";
    class       volVectorField;
    location    "60";
    object      gradT;
}
// * * * * * * * * * * * * * * * * * * * * * * * * * * * * * * * * * * * * * //

dimensions      [0 -1 0 1 0 0 0];

internalField   nonuniform List<vector> 
4000
(
(0.00058011481 0.00058011481 573.64189)
(0.0012787434 0.00051463979 573.64616)
(0.00065282088 0.00049954083 573.64824)
(0.00036344166 0.000493761 573.64951)
(0.00012982594 0.00049043716 573.65013)
(-7.4944781e-05 0.00048741065 573.65018)
(-0.00025163656 0.00048322619 573.64972)
(-0.00038304108 0.00047539441 573.64884)
(-0.00041524471 0.00045757959 573.64767)
(-0.0001321743 0.00041409456 573.64655)
(0.00051463978 0.0012787434 573.64616)
(0.0011578824 0.0011578824 573.64992)
(0.0006215027 0.001120183 573.65189)
(0.00034978615 0.0011018335 573.65311)
(0.00012030042 0.001089524 573.6537)
(-8.576123e-05 0.0010779253 573.65373)
(-0.00026966093 0.001063011 573.65324)
(-0.00042151098 0.0010387726 573.65229)
(-0.00050719448 0.00099311724 573.65097)
(-0.00017565933 0.00090425565 573.64945)
(0.00049954083 0.00065282087 573.64824)
(0.001120183 0.0006215027 573.65189)
(0.00059677195 0.00059677194 573.65378)
(0.00033278269 0.00057844174 573.65495)
(0.00010591776 0.00056327602 573.6555)
(-0.00010145784 0.00054839508 573.65549)
(-0.00029078933 0.00053104733 573.65496)
(-0.00045293481 0.0005081822 573.65394)
(-0.00054976163 0.00047733673 573.65253)
(-0.00019141536 0.00044339936 573.65088)
(0.000493761 0.00036344166 573.64951)
(0.0011018335 0.00034978615 573.65311)
(0.00057844174 0.00033278269 573.65495)
(0.00031629023 0.00031629022 573.65607)
(9.0253764e-05 0.00030066908 573.65658)
(-0.00011798992 0.00028506106 573.65653)
(-0.00030987381 0.00026829599 573.65595)
(-0.00047522158 0.00024955191 573.65488)
(-0.00057197732 0.00022965949 573.6534)
(-0.00019828425 0.00021382286 573.65171)
(0.00049043716 0.00012982594 573.65013)
(0.001089524 0.00012030042 573.6537)
(0.00056327603 0.00010591776 573.6555)
(0.00030066908 9.0253762e-05 573.65658)
(7.4688594e-05 7.4688591e-05 573.65706)
(-0.00013383092 5.9321638e-05 573.65696)
(-0.00032629848 4.3858205e-05 573.65634)
(-0.00049157131 2.8401623e-05 573.65523)
(-0.00058549068 1.432216e-05 573.65371)
(-0.00020197311 4.9990072e-06 573.65198)
(0.00048741065 -7.4944781e-05 573.65018)
(0.0010779253 -8.5761228e-05 573.65373)
(0.00054839508 -0.00010145783 573.65549)
(0.00028506106 -0.00011798993 573.65653)
(5.9321641e-05 -0.00013383092 573.65696)
(-0.0001488203 -0.00014882031 573.65683)
(-0.00034079383 -0.00016316476 573.65617)
(-0.00050475763 -0.00017669592 573.65502)
(-0.00059537994 -0.00018826019 573.65347)
(-0.00020449968 -0.00019544066 573.65172)
(0.00048322619 -0.00025163656 573.64972)
(0.001063011 -0.00026966093 573.65324)
(0.00053104733 -0.00029078933 573.65496)
(0.00026829599 -0.00030987382 573.65595)
(4.3858208e-05 -0.00032629847 573.65634)
(-0.00016316476 -0.00034079382 573.65617)
(-0.00035417408 -0.00035417409 573.65547)
(-0.00051666674 -0.00036676274 573.65429)
(-0.00060423543 -0.00037787348 573.6527)
(-0.00020676009 -0.00038521837 573.65094)
(0.00047539441 -0.00038304108 573.64884)
(0.0010387726 -0.00042151098 573.65229)
(0.00050818219 -0.00045293482 573.65394)
(0.00024955192 -0.00047522157 573.65488)
(2.8401636e-05 -0.00049157131 573.65523)
(-0.00017669592 -0.00050475762 573.65502)
(-0.00036676274 -0.00051666674 573.65429)
(-0.00052845703 -0.00052845702 573.65307)
(-0.00061383557 -0.00054027976 573.65146)
(-0.00020939627 -0.00054979682 573.64967)
(0.00045757959 -0.00041524471 573.64767)
(0.00099311723 -0.00050719448 573.65097)
(0.00047733674 -0.00054976163 573.65253)
(0.0002296595 -0.00057197731 573.6534)
(1.4322162e-05 -0.00058549068 573.65371)
(-0.00018826019 -0.00059537994 573.65347)
(-0.00037787348 -0.00060423543 573.6527)
(-0.00054027976 -0.00061383557 573.65146)
(-0.00062557523 -0.00062557523 573.64981)
(-0.0002131048 -0.00063851179 573.64799)
(0.00041409456 -0.0001321743 573.64655)
(0.00090425565 -0.00017565933 573.64945)
(0.00044339936 -0.00019141536 573.65088)
(0.00021382287 -0.00019828425 573.65171)
(4.9990035e-06 -0.00020197311 573.65198)
(-0.00019544067 -0.00020449969 573.65172)
(-0.00038521837 -0.00020676009 573.65094)
(-0.00054979682 -0.00020939628 573.64967)
(-0.00063851179 -0.0002131048 573.64799)
(-0.00021802065 -0.00021802065 573.64613)
(0.0025319536 0.0025319536 847.61836)
(0.0056947852 0.0022150005 847.62362)
(0.0030601241 0.0021451214 847.62639)
(0.0017329426 0.00211797 847.62813)
(0.00061298134 0.0021019142 847.62898)
(-0.0003847352 0.0020871323 847.62901)
(-0.0012571923 0.0020665709 847.62829)
(-0.0019316634 0.002027429 847.6269)
(-0.0021841872 0.0019333454 847.62499)
(-0.00072111529 0.0016615478 847.62285)
(0.0022150005 0.0056947852 847.62362)
(0.0051145369 0.0051145369 847.62821)
(0.0029145784 0.0049396819 847.63083)
(0.0016681319 0.0048526819 847.63251)
(0.00056672472 0.0047931108 847.63332)
(-0.00043775016 0.0047365348 847.63332)
(-0.0013467473 0.0046634662 847.63255)
(-0.0021315016 0.0045434631 847.63107)
(-0.002733009 0.0043089317 847.62893)
(-0.00099291296 0.0037884081 847.6261)
(0.0021451214 0.0030601241 847.62639)
(0.0049396819 0.0029145783 847.63083)
(0.0027982691 0.0027982691 847.63336)
(0.0015863714 0.0027101665 847.63497)
(0.00049683419 0.0026365464 847.63572)
(-0.00051437976 0.0025640016 847.63566)
(-0.001450264 0.0024792412 847.63482)
(-0.0022861979 0.0023672444 847.63325)
(-0.0029392422 0.0022156082 847.63096)
(-0.001068131 0.0020527636 847.62796)
(0.00211797 0.0017329426 847.62813)
(0.0048526819 0.0016681319 847.63251)
(0.0027101665 0.0015863714 847.63497)
(0.0015064091 0.0015064091 847.63651)
(0.00042055983 0.0014303667 847.63721)
(-0.00059505535 0.0013542291 847.63709)
(-0.0015435046 0.0012723513 847.63618)
(-0.0023951346 0.0011807433 847.63453)
(-0.0030474898 0.0010835142 847.63215)
(-0.001101476 0.0010064597 847.62907)
(0.0021019142 0.00061298135 847.62898)
(0.0047931108 0.00056672473 847.63332)
(0.0026365464 0.0004968342 847.63572)
(0.0014303667 0.00042055984 847.63721)
(0.00034465412 0.00034465412 847.63784)
(-0.00067239519 0.00026962967 847.63766)
(-0.0016237497 0.00019406421 847.6367)
(-0.002475035 0.00011847488 847.63498)
(-0.0031135259 4.9581141e-05 847.63254)
(-0.0011195007 3.9184636e-06 847.62941)
(0.0020871323 -0.00038473519 847.62901)
(0.0047365347 -0.00043775015 847.63332)
(0.0025640016 -0.00051437976 847.63566)
(0.001354229 -0.00059505535 847.63709)
(0.00026962966 -0.0006723952 847.63766)
(-0.00074564525 -0.00074564526 847.63742)
(-0.0016946594 -0.00081584085 847.6364)
(-0.0025396177 -0.00088219356 847.63463)
(-0.0031620462 -0.0009390846 847.63214)
(-0.0011319178 -0.00097461251 847.62899)
(0.0020665709 -0.0012571923 847.62829)
(0.0046634662 -0.0013467473 847.63255)
(0.0024792412 -0.001450264 847.63482)
(0.0012723513 -0.0015435046 847.63618)
(0.00019406421 -0.0016237497 847.6367)
(-0.00081584084 -0.0016946594 847.6364)
(-0.001760298 -0.001760298 847.63533)
(-0.0025982788 -0.0018224022 847.6335)
(-0.0032059448 -0.0018778287 847.63097)
(-0.001143186 -0.00191525 847.62779)
(0.002027429 -0.0019316634 847.6269)
(0.0045434631 -0.0021315016 847.63107)
(0.0023672444 -0.0022861979 847.63325)
(0.0011807433 -0.0023951346 847.63453)
(0.00011847489 -0.002475035 847.63498)
(-0.00088219356 -0.0025396177 847.63463)
(-0.0018224022 -0.0025982788 847.6335)
(-0.0026571484 -0.0026571484 847.63163)
(-0.003254894 -0.0027180244 847.62905)
(-0.0011568654 -0.0027704265 847.62583)
(0.0019333454 -0.0021841872 847.62499)
(0.0043089317 -0.002733009 847.62893)
(0.0022156082 -0.0029392422 847.63096)
(0.0010835142 -0.0030474898 847.63215)
(4.9581145e-05 -0.0031135259 847.63254)
(-0.00093908461 -0.0031620462 847.63214)
(-0.0018778287 -0.0032059448 847.63097)
(-0.0027180244 -0.003254894 847.62905)
(-0.003319223 -0.0033192229 847.62641)
(-0.0011781207 -0.0034053954 847.62311)
(0.0016615478 -0.00072111529 847.62285)
(0.0037884081 -0.00099291296 847.6261)
(0.0020527635 -0.001068131 847.62796)
(0.0010064597 -0.0011014761 847.62907)
(3.9184767e-06 -0.0011195007 847.62941)
(-0.00097461251 -0.0011319178 847.62899)
(-0.00191525 -0.001143186 847.62779)
(-0.0027704265 -0.0011568654 847.62583)
(-0.0034053954 -0.0011781207 847.62311)
(-0.0012143137 -0.0012143137 847.61963)
(0.004084614 0.004084614 841.99396)
(0.0093113101 0.0035740189 841.99836)
(0.005168745 0.0034596535 842.00078)
(0.0029495597 0.0034137071 842.00232)
(0.0010042412 0.0033857433 842.00305)
(-0.00076726309 0.0033595639 842.00299)
(-0.0023568086 0.0033228296 842.00219)
(-0.0036749094 0.0032523365 842.0007)
(-0.0044688123 0.0030810517 841.99858)
(-0.0015629407 0.0025797822 841.99597)
(0.0035740189 0.0093113101 841.99836)
(0.0083738693 0.0083738693 842.00222)
(0.0049282773 0.0080846158 842.00451)
(0.0028386944 0.0079359917 842.006)
(0.00092302635 0.0078318536 842.00669)
(-0.00086163354 0.0077316709 842.0066)
(-0.0025176497 0.0076014015 842.00575)
(-0.0040375763 0.0073862657 842.00417)
(-0.0054776437 0.0069628021 842.00182)
(-0.0020642102 0.0060147711 841.99852)
(0.0034596535 0.005168745 842.00078)
(0.0080846158 0.0049282773 842.00451)
(0.0047308674 0.0047308674 842.00672)
(0.0026967976 0.0045781058 842.00814)
(0.00079992035 0.0044486889 842.00878)
(-0.00099771521 0.0043201489 842.00864)
(-0.0027022138 0.0041693313 842.00773)
(-0.0043135089 0.0039696515 842.00604)
(-0.0058403069 0.0036996316 842.00355)
(-0.0021949614 0.0034156921 842.00009)
(0.0034137071 0.0029495597 842.00232)
(0.0079359916 0.0028386944 842.006)
(0.0045781058 0.0026967976 842.00814)
(0.002556516 0.002556516 842.00951)
(0.00066506951 0.0024221657 842.01009)
(-0.0011409912 0.0022870471 842.00989)
(-0.0028681471 0.0021413603 842.00891)
(-0.004507276 0.0019781851 842.00715)
(-0.0060316032 0.0018052221 842.00457)
(-0.0022535033 0.0016693733 842.00103)
(0.0033857433 0.0010042412 842.00305)
(0.0078318536 0.00092302634 842.00669)
(0.0044486889 0.00079992036 842.00878)
(0.0024221657 0.00066506951 842.01009)
(0.00053045152 0.00053045152 842.01061)
(-0.0012785206 0.00039704324 842.01035)
(-0.0030110759 0.00026236807 842.00932)
(-0.004649647 0.00012740673 842.00749)
(-0.0061491186 4.2744705e-06 842.00485)
(-0.0022855272 -7.7317268e-05 842.00127)
(0.0033595639 -0.00076726309 842.00299)
(0.0077316709 -0.00086163353 842.0066)
(0.0043201489 -0.00099771522 842.00864)
(0.0022870471 -0.0011409912 842.00989)
(0.00039704324 -0.0012785206 842.01035)
(-0.0014090746 -0.0014090746 842.01004)
(-0.0031377836 -0.0015346099 842.00894)
(-0.0047653696 -0.0016538602 842.00707)
(-0.0062363272 -0.0017568524 842.00438)
(-0.0023078978 -0.0018218733 842.00077)
(0.0033228296 -0.0023568086 842.00219)
(0.0076014015 -0.0025176497 842.00575)
(0.0041693313 -0.0027022138 842.00773)
(0.0021413603 -0.0028681471 842.00891)
(0.00026236807 -0.0030110759 842.00932)
(-0.0015346099 -0.0031377836 842.00894)
(-0.0032558615 -0.0032558615 842.0078)
(-0.0048718895 -0.0033690373 842.00587)
(-0.0063171317 -0.0034725426 842.00313)
(-0.0023288745 -0.0035455931 841.9995)
(0.0032523365 -0.0036749094 842.0007)
(0.0073862657 -0.0040375763 842.00417)
(0.0039696515 -0.0043135089 842.00604)
(0.0019781851 -0.004507276 842.00715)
(0.00012740673 -0.004649647 842.00749)
(-0.0016538602 -0.0047653696 842.00707)
(-0.0033690373 -0.0048718895 842.00587)
(-0.0049820507 -0.0049820507 842.00388)
(-0.0064128829 -0.0051035542 842.0011)
(-0.0023565981 -0.0052231235 841.99742)
(0.0030810517 -0.0044688123 841.99858)
(0.0069628021 -0.0054776437 842.00182)
(0.0036996316 -0.0058403069 842.00355)
(0.0018052221 -0.0060316032 842.00457)
(4.2744688e-06 -0.0061491186 842.00485)
(-0.0017568524 -0.0062363272 842.00438)
(-0.0034725426 -0.0063171317 842.00313)
(-0.0051035542 -0.0064128829 842.0011)
(-0.0065582045 -0.0065582045 841.99823)
(-0.0024085873 -0.0068326336 841.99445)
(0.0025797822 -0.0015629407 841.99597)
(0.0060147711 -0.0020642102 841.99852)
(0.0034156921 -0.0021949614 842.00009)
(0.0016693733 -0.0022535033 842.00103)
(-7.731726e-05 -0.0022855272 842.00127)
(-0.0018218733 -0.0023078978 842.00077)
(-0.0035455931 -0.0023288745 841.9995)
(-0.0052231235 -0.0023565981 841.99742)
(-0.0068326336 -0.0024085873 841.99445)
(-0.0025395508 -0.0025395508 841.99038)
(0.0054682849 0.0054682849 836.43035)
(0.012519468 0.0047859166 836.43435)
(0.0070216556 0.0046325703 836.4365)
(0.00399866 0.0045697654 836.43786)
(0.001280842 0.0045307183 836.43845)
(-0.0012402511 0.0044935968 836.4383)
(-0.0035501685 0.004441063 836.43742)
(-0.0055439301 0.0043396806 836.43585)
(-0.0069133626 0.0040920333 836.43363)
(-0.0024617021 0.0033634993 836.43092)
(0.0047859166 0.012519468 836.43435)
(0.011265897 0.011265897 836.43786)
(0.0066974287 0.010875735 836.43989)
(0.0038458819 0.010671241 836.4412)
(0.0011665892 0.010525348 836.44176)
(-0.0013747341 0.010383265 836.44158)
(-0.0037810429 0.010197244 836.44065)
(-0.0060674747 0.009888733 836.43899)
(-0.0083776344 0.0092792504 836.43654)
(-0.0031902361 0.0079098241 836.43316)
(0.0046325703 0.0070216556 836.4365)
(0.010875735 0.0066974287 836.43989)
(0.0064270005 0.0064270005 836.44185)
(0.0036482729 0.0062144791 836.4431)
(0.00099286589 0.0060322405 836.44361)
(-0.0015683552 0.0058497687 836.44338)
(-0.0040447007 0.0056346955 836.44239)
(-0.0064619234 0.0053493723 836.44063)
(-0.0088922715 0.0049638191 836.43804)
(-0.003374653 0.0045629787 836.43451)
(0.0045697654 0.00399866 836.43786)
(0.010671241 0.0038458819 836.4412)
(0.0062144791 0.0036482729 836.4431)
(0.003451122 0.003451122 836.44428)
(0.00080187881 0.003260987 836.44474)
(-0.0017722791 0.0030688244 836.44446)
(-0.0042814392 0.0028609987 836.44341)
(-0.0067383511 0.0026279203 836.44157)
(-0.0091640281 0.002381077 836.4389)
(-0.003457463 0.0021883752 836.43529)
(0.0045307183 0.001280842 836.43845)
(0.010525348 0.0011665892 836.44176)
(0.0060322405 0.00099286589 836.44361)
(0.003260987 0.00080187881 836.44474)
(0.00061056834 0.00061056834 836.44515)
(-0.0019683435 0.00042038217 836.4448)
(-0.0044856048 0.00022786784 836.44369)
(-0.0069418451 3.4542934e-05 836.4418)
(-0.0093318166 -0.00014202906 836.43907)
(-0.0035031209 -0.00025897073 836.43542)
(0.0044935968 -0.0012402511 836.4383)
(0.010383265 -0.0013747341 836.44158)
(0.0058497687 -0.0015683552 836.44338)
(0.0030688244 -0.0017722791 836.44446)
(0.00042038217 -0.0019683435 836.4448)
(-0.0021549796 -0.0021549796 836.4444)
(-0.0046672785 -0.0023351413 836.44324)
(-0.007108248 -0.0025071615 836.44129)
(-0.0094575417 -0.0026567 836.43851)
(-0.0035354241 -0.002751847 836.43483)
(0.004441063 -0.0035501685 836.43742)
(0.010197244 -0.0037810429 836.44065)
(0.0056346955 -0.0040447007 836.44239)
(0.0028609987 -0.0042814393 836.44341)
(0.00022786785 -0.0044856048 836.44369)
(-0.0023351413 -0.0046672785 836.44324)
(-0.0048377868 -0.0048377868 836.44202)
(-0.0072634037 -0.0050031814 836.44002)
(-0.0095765021 -0.0051572825 836.4372)
(-0.0035665522 -0.0052688977 836.43349)
(0.0043396806 -0.0055439301 836.43585)
(0.009888733 -0.0060674747 836.43899)
(0.0053493723 -0.0064619234 836.44063)
(0.0026279203 -0.0067383511 836.44157)
(3.4542936e-05 -0.0069418451 836.4418)
(-0.0025071615 -0.007108248 836.44129)
(-0.0050031814 -0.0072634038 836.44002)
(-0.0074277438 -0.0074277438 836.43797)
(-0.009723258 -0.0076160595 836.43508)
(-0.0036098343 -0.007811109 836.43133)
(0.0040920333 -0.0069133626 836.43363)
(0.0092792504 -0.0083776344 836.43654)
(0.0049638191 -0.0088922715 836.43804)
(0.002381077 -0.0091640281 836.4389)
(-0.00014202907 -0.0093318166 836.43907)
(-0.0026567 -0.0094575417 836.43851)
(-0.0051572825 -0.0095765021 836.4372)
(-0.0076160595 -0.009723258 836.43508)
(-0.0099598672 -0.0099598672 836.43213)
(-0.0036965852 -0.010438174 836.42827)
(0.0033634993 -0.0024617021 836.43092)
(0.0079098241 -0.0031902361 836.43316)
(0.0045629787 -0.003374653 836.43451)
(0.0021883752 -0.003457463 836.43529)
(-0.00025897073 -0.0035031209 836.43542)
(-0.002751847 -0.0035354241 836.43483)
(-0.0052688977 -0.0035665522 836.43349)
(-0.007811109 -0.0036098343 836.43133)
(-0.010438174 -0.0036965852 836.42827)
(-0.0039287057 -0.0039287057 836.42411)
(0.0067546019 0.0067546019 830.92733)
(0.015467474 0.005909531 830.93106)
(0.0086726312 0.0057201017 830.93301)
(0.004896081 0.0056417555 830.9342)
(0.0014473881 0.005592331 830.93467)
(-0.0017948152 0.0055447606 830.93444)
(-0.0048093497 0.0054769534 830.9335)
(-0.007469999 0.0053455717 830.93189)
(-0.0093941962 0.0050237225 830.92965)
(-0.0033669094 0.0040746749 830.92695)
(0.005909531 0.015467474 830.93106)
(0.013915723 0.013915723 830.93432)
(0.0082709679 0.01343243 830.93616)
(0.0047044249 0.013176275 830.93731)
(0.0013018957 0.012991146 830.93775)
(-0.0019678816 0.012809019 830.93749)
(-0.005108133 0.01256915 830.93651)
(-0.0081498454 0.012170071 830.9348)
(-0.011300541 0.01138005 830.93234)
(-0.004315957 0.0096021824 830.929)
(0.0057201017 0.0086726312 830.93301)
(0.01343243 0.0082709679 830.93616)
(0.0079331831 0.0079331831 830.93793)
(0.0044547972 0.0076649684 830.93902)
(0.0010801317 0.007432784 830.93942)
(-0.0022168109 0.0071986611 830.9391)
(-0.0054482979 0.006921557 830.93806)
(-0.0086590992 0.006553287 830.93627)
(-0.011962084 0.0060558599 830.93367)
(-0.0045521545 0.0055422554 830.93018)
(0.0056417555 0.004896081 830.9342)
(0.013176275 0.0047044249 830.93731)
(0.0076649684 0.0044547972 830.93902)
(0.0042040258 0.0042040258 830.94006)
(0.00083558849 0.003960744 830.9404)
(-0.0024791086 0.0037137493 830.94004)
(-0.0057535072 0.0034458329 830.93894)
(-0.0090155425 0.0031449697 830.93707)
(-0.012311573 0.0028265045 830.93439)
(-0.00465836 0.0025788758 830.93083)
(0.005592331 0.0014473881 830.93467)
(0.012991146 0.0013018957 830.93775)
(0.007432784 0.0010801317 830.93942)
(0.003960744 0.00083558849 830.9404)
(0.00058985516 0.00058985516 830.9407)
(-0.002731722 0.00034481506 830.94028)
(-0.0060170775 9.6109827e-05 830.93912)
(-0.0092784277 -0.00015413517 830.93719)
(-0.012528178 -0.00038291357 830.93446)
(-0.0047172402 -0.00053436312 830.93086)
(0.0055447606 -0.0017948152 830.93444)
(0.012809019 -0.0019678816 830.93749)
(0.0071986611 -0.0022168109 830.9391)
(0.0037137493 -0.0024791086 830.94004)
(0.00034481506 -0.002731722 830.94028)
(-0.002972854 -0.002972854 830.9398)
(-0.0062524574 -0.00320648 830.93859)
(-0.0094945659 -0.0034305337 830.93661)
(-0.012691801 -0.0036262691 830.93383)
(-0.0047593264 -0.0037514388 830.9302)
(0.0054769534 -0.0048093497 830.9335)
(0.01256915 -0.005108133 830.93651)
(0.0069215569 -0.0054482979 830.93806)
(0.0034458329 -0.0057535072 830.93894)
(9.6109835e-05 -0.0060170775 830.93912)
(-0.00320648 -0.0062524574 830.93859)
(-0.0064747572 -0.0064747572 830.93733)
(-0.0096982168 -0.0066924023 830.9353)
(-0.012849083 -0.0068977001 830.93247)
(-0.0048006867 -0.0070485111 830.92881)
(0.0053455717 -0.007469999 830.93189)
(0.012170071 -0.0081498455 830.9348)
(0.006553287 -0.0086590992 830.93627)
(0.0031449698 -0.0090155425 830.93707)
(-0.00015413516 -0.0092784277 830.93719)
(-0.0034305337 -0.0094945659 830.93661)
(-0.0066924023 -0.0096982168 830.9353)
(-0.0099175088 -0.0099175088 830.93322)
(-0.01304791 -0.010174148 830.93033)
(-0.0048598671 -0.010445641 830.92663)
(0.0050237225 -0.0093941962 830.92965)
(0.01138005 -0.011300541 830.93234)
(0.0060558599 -0.011962084 830.93367)
(0.0028265045 -0.012311573 830.93439)
(-0.00038291357 -0.012528178 830.93446)
(-0.0036262691 -0.012691801 830.93383)
(-0.0068977001 -0.012849083 830.93247)
(-0.010174148 -0.01304791 830.93033)
(-0.013377216 -0.013377216 830.92737)
(-0.0049816824 -0.014056255 830.92356)
(0.0040746749 -0.0033669094 830.92695)
(0.0096021824 -0.004315957 830.929)
(0.0055422554 -0.0045521544 830.93018)
(0.0025788758 -0.00465836 830.93083)
(-0.00053436312 -0.0047172402 830.93086)
(-0.0037514388 -0.0047593264 830.9302)
(-0.0070485111 -0.0048006867 830.92881)
(-0.010445641 -0.0048598671 830.92663)
(-0.014056255 -0.0049816824 830.92356)
(-0.0053125598 -0.0053125598 830.91946)
(0.0079597485 0.0079597485 825.48449)
(0.018201649 0.0069596639 825.48799)
(0.0101569 0.0067363027 825.48976)
(0.0056632102 0.0066434405 825.49081)
(0.0015200486 0.0065842663 825.49118)
(-0.0024109306 0.0065267671 825.49088)
(-0.0061019297 0.0064443326 825.48991)
(-0.0094017185 0.0062841424 825.48829)
(-0.011846535 0.005891034 825.48608)
(-0.0042560686 0.0047303775 825.48346)
(0.0069596639 0.018201649 825.48799)
(0.01636648 0.01636648 825.49103)
(0.009682565 0.015795882 825.49271)
(0.0054351556 0.015491453 825.49372)
(0.0013450384 0.015269392 825.49406)
(-0.0026208311 0.015049184 825.49373)
(-0.0064658667 0.014757752 825.49272)
(-0.010231666 0.014271725 825.49101)
(-0.014177182 0.013308379 825.48859)
(-0.005416725 0.01113874 825.48535)
(0.0067363027 0.0101569 825.48976)
(0.015795882 0.009682565 825.49271)
(0.0092818732 0.0092818732 825.49431)
(0.0051367205 0.0089614672 825.49527)
(0.00107778 0.0086821028 825.49557)
(-0.0029225704 0.0083987778 825.49519)
(-0.0068793894 0.0080622526 825.49412)
(-0.010851092 0.0076143535 825.49233)
(-0.01497952 0.007009553 825.48978)
(-0.0057024948 0.0063879605 825.48639)
(0.0066434405 0.0056632102 825.49081)
(0.015491453 0.0054351556 825.49372)
(0.0089614672 0.0051367205 825.49527)
(0.0048353852 0.0048353852 825.49617)
(0.00078234903 0.0045416528 825.49643)
(-0.0032406812 0.0042422742 825.496)
(-0.0072502909 0.0039166896 825.49487)
(-0.011284366 0.0035506415 825.49301)
(-0.015403575 0.0031633094 825.49038)
(-0.00583112 0.0028629594 825.48693)
(0.0065842663 0.0015200486 825.49118)
(0.015269392 0.0013450385 825.49406)
(0.0086821028 0.00107778 825.49557)
(0.0045416528 0.00078234903 825.49643)
(0.00048466896 0.00048466898 825.49663)
(-0.0035475336 0.00018700948 825.49615)
(-0.0075710221 -0.00011583057 825.49497)
(-0.011604472 -0.00042106607 825.49305)
(-0.015667202 -0.00070033316 825.49037)
(-0.0059027282 -0.00088513993 825.48688)
(0.0065267671 -0.0024109306 825.49088)
(0.015049184 -0.0026208311 825.49373)
(0.0083987778 -0.0029225704 825.49519)
(0.0042422742 -0.0032406812 825.496)
(0.00018700949 -0.0035475336 825.49615)
(-0.0038411808 -0.0038411807 825.49562)
(-0.0078583665 -0.0041266009 825.49439)
(-0.011868869 -0.0044013009 825.49242)
(-0.015867649 -0.0046421494 825.48969)
(-0.0059543245 -0.0047966788 825.48617)
(0.0064443326 -0.0061019297 825.48991)
(0.014757752 -0.0064658667 825.49272)
(0.0080622526 -0.0068793893 825.49412)
(0.0039166896 -0.0072502909 825.49487)
(-0.00011583057 -0.0075710221 825.49497)
(-0.0041266009 -0.0078583665 825.49439)
(-0.0081311422 -0.0081311422 825.4931)
(-0.012120021 -0.0084000623 825.49109)
(-0.01606258 -0.0086558109 825.48831)
(-0.0060057477 -0.0088452439 825.48477)
(0.0062841424 -0.0094017185 825.48829)
(0.014271725 -0.010231666 825.49101)
(0.0076143535 -0.010851092 825.49233)
(0.0035506415 -0.011284366 825.49301)
(-0.00042106607 -0.011604472 825.49305)
(-0.0044013009 -0.011868869 825.49242)
(-0.0084000623 -0.012120021 825.49109)
(-0.012393537 -0.012393537 825.48902)
(-0.016312831 -0.012717647 825.48619)
(-0.0060806132 -0.013064154 825.4826)
(0.005891034 -0.011846535 825.48608)
(0.013308379 -0.014177182 825.48859)
(0.007009553 -0.01497952 825.48978)
(0.0031633094 -0.015403575 825.49038)
(-0.00070033315 -0.015667202 825.49037)
(-0.0046421494 -0.015867649 825.48969)
(-0.0086558109 -0.01606258 825.48831)
(-0.012717647 -0.016312831 825.48619)
(-0.016733196 -0.016733196 825.48329)
(-0.0062367523 -0.017607372 825.47959)
(0.0047303775 -0.0042560686 825.48346)
(0.01113874 -0.005416725 825.48535)
(0.0063879605 -0.0057024948 825.48639)
(0.0028629594 -0.00583112 825.48693)
(-0.00088513993 -0.0059027282 825.48688)
(-0.0047966788 -0.0059543245 825.48617)
(-0.0088452439 -0.0060057478 825.48477)
(-0.013064154 -0.0060806132 825.4826)
(-0.017607372 -0.0062367523 825.47959)
(-0.0066633972 -0.0066633972 825.47561)
(0.0090859558 0.0090859558 820.10161)
(0.020736021 0.0079390623 820.10487)
(0.011494997 0.0076838013 820.10648)
(0.0063187588 0.0075773573 820.10741)
(0.0015173122 0.0075090371 820.1077)
(-0.0030664577 0.0074421604 820.10735)
(-0.0073984578 0.0073458403 820.10637)
(-0.011301235 0.0071582515 820.10477)
(-0.014229743 0.0066973569 820.10263)
(-0.0051160291 0.0053354273 820.1001)
(0.0079390623 0.020736021 820.10487)
(0.018632789 0.018632789 820.1077)
(0.01095244 0.01798028 820.10922)
(0.0060566124 0.017630678 820.11011)
(0.0013145169 0.017373928 820.11037)
(-0.0033112528 0.017117724 820.10999)
(-0.0078243211 0.016777333 820.10897)
(-0.01227396 0.016208613 820.1073)
(-0.016963979 0.015080421 820.10495)
(-0.0064779587 0.012538304 820.10185)
(0.0076838013 0.011494997 820.10648)
(0.01798028 0.01095244 820.10922)
(0.010492886 0.010492886 820.11067)
(0.0057124069 0.010123573 820.11152)
(0.0010043589 0.0097997888 820.11173)
(-0.003663053 0.0094698875 820.11131)
(-0.0083075696 0.0090769022 820.11024)
(-0.012998148 0.0085532397 820.10849)
(-0.017900051 0.0078463119 820.10602)
(-0.0068107735 0.0071221903 820.10277)
(0.0075773573 0.0063187588 820.10741)
(0.017630678 0.0060566124 820.11011)
(0.010123573 0.0057124069 820.11152)
(0.0053635152 0.0053635152 820.11231)
(0.00066083153 0.0050221277 820.11248)
(-0.0040341395 0.004673048 820.11202)
(-0.0087409688 0.0042925738 820.11089)
(-0.013504551 0.0038643975 820.10907)
(-0.018395029 0.0034114412 820.10652)
(-0.0069607064 0.0030609138 820.10322)
(0.0075090371 0.0015173122 820.1077)
(0.017373928 0.0013145169 820.11037)
(0.0097997888 0.0010043589 820.11173)
(0.0050221277 0.00066083153 820.11248)
(0.00031389168 0.00031389169 820.11261)
(-0.0043926068 -3.385048e-05 820.11209)
(-0.00911622 -0.0003883782 820.11091)
(-0.01387928 -0.00074621865 820.10904)
(-0.018703535 -0.0010738128 820.10644)
(-0.0070444585 -0.0012905409 820.1031)
(0.0074421604 -0.0030664577 820.10735)
(0.017117724 -0.0033112528 820.10999)
(0.0094698875 -0.003663053 820.11131)
(0.004673048 -0.0040341395 820.11202)
(-3.3850478e-05 -0.0043926068 820.11209)
(-0.0047364094 -0.0047364094 820.11153)
(-0.009453337 -0.0050714837 820.1103)
(-0.014189985 -0.0053948855 820.10838)
(-0.018939351 -0.0056791954 820.10574)
(-0.0071051918 -0.0058620333 820.10237)
(0.0073458403 -0.0073984578 820.10637)
(0.016777333 -0.0078243211 820.10897)
(0.0090769022 -0.0083075696 820.11024)
(0.0042925738 -0.0087409688 820.11089)
(-0.0003883782 -0.00911622 820.11091)
(-0.0050714837 -0.009453337 820.1103)
(-0.0097746961 -0.0097746961 820.10902)
(-0.014486992 -0.010093168 820.10705)
(-0.019170683 -0.010397771 820.10437)
(-0.0071663504 -0.010624602 820.10097)
(0.0071582515 -0.011301235 820.10477)
(0.016208613 -0.01227396 820.1073)
(0.0085532397 -0.012998148 820.10849)
(0.0038643975 -0.013504551 820.10907)
(-0.00074621863 -0.01387928 820.10904)
(-0.0053948855 -0.014189985 820.10838)
(-0.010093168 -0.014486992 820.10705)
(-0.01481306 -0.01481306 820.10503)
(-0.019470785 -0.015202565 820.1023)
(-0.0072564126 -0.015621585 820.09886)
(0.0066973569 -0.014229743 820.10263)
(0.015080421 -0.016963979 820.10495)
(0.0078463119 -0.017900051 820.10602)
(0.0034114412 -0.018395029 820.10652)
(-0.0010738128 -0.018703535 820.10644)
(-0.0056791954 -0.018939351 820.10574)
(-0.010397771 -0.019170683 820.10437)
(-0.015202565 -0.019470785 820.1023)
(-0.019979207 -0.019979207 820.09949)
(-0.007445697 -0.021041415 820.09595)
(0.0053354273 -0.0051160291 820.1001)
(0.012538304 -0.0064779587 820.10185)
(0.0071221903 -0.0068107735 820.10277)
(0.0030609138 -0.0069607064 820.10322)
(-0.0012905409 -0.0070444585 820.1031)
(-0.0058620333 -0.0071051919 820.10237)
(-0.010624602 -0.0071663504 820.10097)
(-0.015621585 -0.0072564126 820.09886)
(-0.021041415 -0.007445697 820.09595)
(-0.0079645509 -0.0079645509 820.09214)
(0.010131245 0.010131245 814.77869)
(0.023072429 0.0088465316 814.7817)
(0.012698459 0.0085614771 814.78316)
(0.0068771711 0.0084423856 814.78398)
(0.0014559824 0.0083655324 814.78419)
(-0.0037411267 0.0082898658 814.78381)
(-0.0086741486 0.0081804831 814.78284)
(-0.013139839 0.007967082 814.7813)
(-0.016515039 0.007442303 814.77925)
(-0.0059376764 0.0058906588 814.77685)
(0.0088465316 0.023072429 814.7817)
(0.020717778 0.020717778 814.78431)
(0.01209224 0.019988858 814.78569)
(0.0065832541 0.019597175 814.78647)
(0.0012272028 0.019308023 814.78666)
(-0.0040187007 0.019018048 814.78625)
(-0.0091583244 0.018631582 814.78524)
(-0.014247109 0.017984951 814.78363)
(-0.019629674 0.016701435 814.78139)
(-0.0074893206 0.013808398 814.77844)
(0.0085614771 0.012698459 814.78316)
(0.019988858 0.01209224 814.78569)
(0.011577855 0.011577855 814.787)
(0.0061963358 0.011162924 814.78774)
(0.0008768561 0.010797567 814.78789)
(-0.004417568 0.010423909 814.78744)
(-0.0097072456 0.0099777456 814.78639)
(-0.015069985 0.0093826658 814.78469)
(-0.020691593 0.0085795077 814.78234)
(-0.007866368 0.0077589395 814.77927)
(0.0084423855 0.0068771711 814.78398)
(0.019597175 0.0065832541 814.78647)
(0.011162924 0.0061963358 814.78774)
(0.005802966 0.005802966 814.78843)
(0.00048818836 0.0054168679 814.78854)
(-0.0048385226 0.0050210081 814.78805)
(-0.010199568 0.0045887535 814.78694)
(-0.015645347 0.004101918 814.78519)
(-0.0212534 0.00358702 814.78276)
(-0.008036366 0.00318918 814.77963)
(0.0083655324 0.0014559824 814.78419)
(0.019308023 0.0012272028 814.78666)
(0.010797567 0.00087685609 814.78789)
(0.0054168679 0.00048818837 814.78854)
(9.4898135e-05 9.4898137e-05 814.78861)
(-0.0052456824 -0.00030010151 814.78807)
(-0.010626336 -0.00070351482 814.78691)
(-0.016071719 -0.0011111746 814.78511)
(-0.021604331 -0.0014845535 814.78263)
(-0.0081315947 -0.0017315222 814.77947)
(0.0082898658 -0.0037411267 814.78381)