/*--------------------------------*- C++ -*----------------------------------*\
| =========                 |                                                 |
| \\      /  F ield         | OpenFOAM: The Open Source CFD Toolbox           |
|  \\    /   O peration     | Version:  v2106                                 |
|   \\  /    A nd           | Website:  www.openfoam.com                      |
|    \\/     M anipulation  |                                                 |
\*---------------------------------------------------------------------------*/
FoamFile
{
    version     2.0;
    format      ascii;
    arch        "LSB;label=32;scalar=64";
    class       volScalarField;
    location    "60";
    object      gradTy;
}
// * * * * * * * * * * * * * * * * * * * * * * * * * * * * * * * * * * * * * //

dimensions      [0 -1 0 1 0 0 0];

internalField   nonuniform List<scalar> 
4000
(
-0.00056046172
-0.00036106545
-0.0003587371
-0.00035541053
-0.00035431644
-0.00035456388
-0.00035592027
-0.00035802559
-0.00035595313
-0.00032468158
-0.00087314499
-0.00057055805
-0.0005573715
-0.00054738433
-0.00054411875
-0.00054514663
-0.00055006483
-0.00055957155
-0.00056998801
-0.00054759525
-7.5189539e-05
-6.6707162e-05
-5.2015822e-05
-4.4216165e-05
-4.1780926e-05
-4.3243729e-05
-4.8417095e-05
-5.8558351e-05
-7.7169728e-05
-0.00010644923
-5.4030886e-05
-4.7399906e-05
-4.0778156e-05
-3.716501e-05
-3.6439891e-05
-3.8122968e-05
-4.1999832e-05
-4.7994448e-05
-5.5563368e-05
-6.2159274e-05
5.6577883e-06
6.9277746e-06
7.8954977e-06
7.9002129e-06
6.9375395e-06
5.2008886e-06
2.8232136e-06
-5.5417439e-08
-3.0452668e-06
-5.1393093e-06
6.2065358e-05
5.9659613e-05
5.6119298e-05
5.3023444e-05
5.0559353e-05
4.8909118e-05
4.8137156e-05
4.8269317e-05
4.9138364e-05
5.0112512e-05
0.00012210451
0.00011691192
0.00010767957
0.00010159731
9.7808097e-05
9.6341002e-05
9.716829e-05
0.0001003238
0.00010533499
0.00011002379
0.00018964214
0.00018959286
0.00016971896
0.00016084023
0.00015615542
0.00015497175
0.00015715663
0.00016313845
0.00017303963
0.00018376198
0.00024112918
0.00029114521
0.00025310549
0.00024325433
0.00023894066
0.00023817044
0.00024078386
0.00024787043
0.0002614074
0.0002804562
8.565182e-05
0.00011692337
0.00010058033
9.7403703e-05
9.6183056e-05
9.6007673e-05
9.6832489e-05
9.9133534e-05
0.00010398073
0.00011183274
-0.0043973957
-0.0030371711
-0.0029572125
-0.0029236658
-0.0029133615
-0.0029159593
-0.0029296231
-0.0029516737
-0.0029288791
-0.0024857167
-0.0072109849
-0.0050507101
-0.0048369439
-0.0047397256
-0.0047090347
-0.004719561
-0.0047683801
-0.0048641679
-0.004964515
-0.0045012828
-0.0010190629
-0.00084880487
-0.0007080784
-0.00063472914
-0.00061195524
-0.00062659387
-0.00067730942
-0.00077725861
-0.00096347511
-0.0012149216
-0.00050836382
-0.00044258733
-0.00038045463
-0.00034646418
-0.00033995352
-0.00035659449
-0.00039445909
-0.00045307311
-0.00052890688
-0.00059676697
6.0321658e-05
7.1881316e-05
8.0486262e-05
8.0016594e-05
7.0355954e-05
5.3308163e-05
3.0133858e-05
2.2137094e-06
-2.6786338e-05
-4.7134358e-05
0.00059928471
0.00057489238
0.00053993924
0.00050953821
0.00048543367
0.00046931611
0.00046183063
0.00046327449
0.00047207502
0.00048203691
0.0011793406
0.001125769
0.0010347337
0.0009751043
0.00093825503
0.00092400985
0.00093221342
0.000963396
0.0010133241
0.001060897
0.0018536422
0.0018547582
0.0016575073
0.0015685925
0.0015230595
0.0015116723
0.0015333039
0.001592783
0.0016930988
0.001806823
0.0024638414
0.0031627769
0.0028267266
0.0027251139
0.0026830327
0.0026757658
0.0027017951
0.0027732668
0.0029158351
0.003142252
0.00090317928
0.0013463417
0.0012120008
0.0011787107
0.0011667608
0.0011651454
0.001173402
0.0011968606
0.0012492181
0.0013478053
-0.0066490789
-0.0046383383
-0.0044956221
-0.004438623
-0.0044217549
-0.0044281529
-0.0044579586
-0.0045196647
-0.0045584211
-0.0038285288
-0.011046356
-0.0078161712
-0.0074434182
-0.0072789216
-0.0072290901
-0.0072530346
-0.0073520142
-0.0075631661
-0.0078749076
-0.0071185051
-0.0017360943
-0.0014365213
-0.0011988446
-0.001075767
-0.001040065
-0.0010709847
-0.0011682259
-0.0013576463
-0.0017101807
-0.0021412021
-0.00082006576
-0.00070926494
-0.00060573769
-0.0005504853
-0.00054303305
-0.00057674144
-0.00064914262
-0.00076011571
-0.00090428134
-0.0010301664
0.00014541155
0.00016111676
0.00017129862
0.00016589908
0.00014504248
0.00011164001
6.7661006e-05
1.551689e-05
-3.8179577e-05
-7.5305381e-05
0.0010741891
0.0010198836
0.00095126498
0.00089172271
0.00084515542
0.00081434123
0.00080047699
0.0008044306
0.00082362308
0.00084568567
0.0021084736
0.0019712059
0.001798342
0.0016845442
0.0016149678
0.0015884211
0.0016050571
0.0016674508
0.0017705489
0.0018750878
0.0034631274
0.0033124336
0.002940234
0.0027704788
0.0026850952
0.0026646382
0.0027082413
0.00283013
0.0030505772
0.0033416628
0.005464985
0.0065016889
0.005909646
0.0057181331
0.0056395954
0.0056273108
0.0056808504
0.0058349478
0.0061923832
0.0070234586
0.0022255088
0.0029554011
0.0027297772
0.0026680535
0.0026458538
0.002643303
0.0026605622
0.0027129955
0.0028546193
0.0032670458
-0.0083248357
-0.0057965044
-0.0056162642
-0.0055438038
-0.0055233651
-0.0055349425
-0.0055820592
-0.0056863978
-0.0057999312
-0.0048081868
-0.013741416
-0.0096785588
-0.0092065499
-0.0089975092
-0.0089381776
-0.0089802676
-0.0091329978
-0.0094658373
-0.010010753
-0.0089858191
-0.002038819
-0.001659768
-0.0013577693
-0.0012026537
-0.001163154
-0.001215219
-0.0013621263
-0.0016437209
-0.0021651406
-0.0027608078
-0.00094048662
-0.00080113786
-0.0006721143
-0.0006065225
-0.00060470163
-0.00065921611
-0.0007682919
-0.00093281639
-0.0011459548
-0.0013270985
0.00027265088
0.00028594283
0.00028989249
0.00027337759
0.00023719888
0.00018496892
0.00011888819
4.2130269e-05
-3.5974138e-05
-8.8936559e-05
0.0014665642
0.001378523
0.0012717441
0.0011795507
0.0011081538
0.00106124
0.0010404651
0.0010473619
0.0010783617
0.0011141754
0.0028266852
0.0025995023
0.0023411154
0.0021710003
0.0020675152
0.0020281617
0.002053637
0.0021493187
0.0023102359
0.002477795
0.0047051877
0.0043783797
0.0038274326
0.0035753654
0.0034497697
0.0034205031
0.0034876664
0.003677102
0.004031486
0.0045305496
0.0080294296
0.0093467461
0.0085094478
0.0082296592
0.0081151658
0.0080985924
0.0081819793
0.0084270687
0.009035427
0.010693611
0.0034085626
0.004400307
0.0040918517
0.0040031955
0.0039710893
0.0039678872
0.0039949651
0.0040795933
0.0043276742
0.0051850492
-0.0096420889
-0.0066562984
-0.0064539835
-0.0063720146
-0.006350559
-0.006368648
-0.0064342549
-0.0065835759
-0.0067809241
-0.0055691854
-0.015665019
-0.010882861
-0.0103508
-0.010114991
-0.010054658
-0.010119485
-0.010329486
-0.010789087
-0.011582315
-0.010350793
-0.0019786921
-0.0015522663
-0.0012108221
-0.0010387376
-0.00100399
-0.0010821558
-0.0012820029
-0.0016583796
-0.0023510889
-0.0031102384
-0.00088109663
-0.0007259599
-0.00058495508
-0.0005191278
-0.00052957341
-0.00060908434
-0.00075755695
-0.00097745903
-0.00126085
-0.0014969418
0.00043549765
0.00044054746
0.00043100297
0.00039712924
0.00034104644
0.00026684623
0.00017655318
7.3823065e-05
-2.9475547e-05
-9.8379824e-05
0.001766611
0.0016410671
0.0014917834
0.0013630542
0.0012637999
0.001198561
0.0011692966
0.0011781124
0.0012203666
0.0012697033
0.0033238507
0.0030014588
0.0026542489
0.002425235
0.0022858743
0.0022322118
0.0022654257
0.0023937196
0.0026120892
0.0028420211
0.0055805507
0.0050605469
0.0043277212
0.0039914608
0.0038244282
0.0037854321
0.0038754982
0.0041320956
0.0046197946
0.0053247908
0.010071264
0.01159285
0.010509558
0.010140991
0.0099900754
0.0099687882
0.010081666
0.01041709
0.011274362
0.013788581
0.0043918271
0.0056035658
0.0052128419
0.0050974661
0.0050554473
0.0050515299
0.0050883384
0.0052048179
0.0055583359
0.0068809644
-0.010668794
-0.0072743715
-0.0070601907
-0.0069729662
-0.0069524634
-0.0069781038
-0.0070630069
-0.0072588657
-0.007547153
-0.0061614104
-0.016972692
-0.011559787
-0.010994321
-0.010744858
-0.010690272
-0.010781564
-0.011051379
-0.011640925
-0.012693475
-0.011326312
-0.0016331709
-0.0011810629
-0.00081824164
-0.00064096261
-0.00061809485
-0.00072665781
-0.00098216743
-0.0014551082
-0.0023201142
-0.0032452366
-0.00067682251
-0.00051523156
-0.00037277288
-0.00031508476
-0.00034364781
-0.00045207764
-0.00064261693
-0.00091975771
-0.0012747563
-0.0015666794
0.00061752074
0.0006098143
0.00058081433
0.00052411911
0.00044382146
0.0003444059
0.00022741632
9.6752207e-05
-3.3278032e-05
-0.0001190232
0.0019669389
0.0018011237
0.0016058312
0.0014370511
0.0013068621
0.001220646
0.0011804744
0.0011888523
0.0012400756
0.0013012344
0.0036002738
0.0031791309
0.0027409127
0.0024506806
0.0022732326
0.0022030269
0.0022414389
0.002399133
0.0026708168
0.0029588413
0.0061030434
0.0053768241
0.004460948
0.0040388774
0.0038288087
0.003778183
0.0038884099
0.0042075609
0.0048202682
0.0057181996
0.011606787
0.01325297
0.011921401
0.011462842
0.011274479
0.011247066
0.011386861
0.011806775
0.0128975
0.016236988
0.0051785013
0.006564244
0.0060899434
0.0059474957
0.005895328
0.0058903323
0.0059361005
0.0060823486
0.0065347215
0.0083086742
-0.011445119
-0.0076887006
-0.0074703694
-0.0073811073
-0.0073630627
-0.0073969968
-0.007501596
-0.007744617
-0.0081285007
-0.0066113668
-0.017769206
-0.011807082
-0.011228346
-0.010975236
-0.010931622
-0.011052138
-0.011383163
-0.012103573
-0.013421044
-0.011982956
-0.0010719759
-0.00061058603
-0.00024013044
-6.681221e-05
-6.1483524e-05
-0.00020380936
-0.0005168248
-0.0010868666
-0.0021229709
-0.0032152371
-0.00036581533
-0.00020485536
-6.9091845e-05
-2.620844e-05
-7.7690424e-05
-0.00021832691
-0.00045314056
-0.00078893439
-0.0012163535
-0.0015648826
0.00080116042
0.00077732612
0.00072425904
0.00064032896
0.00053214058
0.00040454802
0.00025840453
9.7687763e-05
-6.0862396e-05
-0.00016464343
0.0020651608
0.0018573609
0.0016136201
0.0014020197
0.00123817
0.0011282836
0.0010743568
0.0010791258
0.0011359671
0.0012063615
0.0036675929
0.0031461626
0.0026161572
0.0022631054
0.0020455497
0.0019562451
0.0019963919
0.0021786107
0.0024971558
0.0028369371
0.0063001883
0.0053598311
0.0042623075
0.003753685
0.0034990946
0.0034344181
0.0035607048
0.003935182
0.0046604438
0.005733735
0.012675342
0.014375217
0.012795959
0.012246847
0.012020011
0.011984516
0.012147247
0.012642842
0.0139458
0.01806042
0.0057827423
0.0072998762
0.0067414672
0.0065716987
0.0065091144
0.0065025114
0.006556044
0.0067290323
0.0072715715
0.0094721126
-0.01200214
-0.0079295863
-0.0077133491
-0.0076246114
-0.0076101806
-0.0076528811
-0.0077771864
-0.0080670943
-0.008548822
-0.0069381328
-0.01813761
-0.011704424
-0.011128627
-0.010879809
-0.01085118
-0.011002748
-0.011395205
-0.012245108
-0.013827662
-0.012373976
-0.00035406849
0.00010339385
0.00047054643
0.00063269089
0.00061611614
0.00043765083
6.6321902e-05
-0.00059988452
-0.0018033672
-0.0030611292
1.7565732e-05
0.00017231845
0.00029501299
0.00031788816
0.00023975167
6.4419071e-05
-0.00021616609
-0.00061125467
-0.0011109666
-0.0015161279
0.00097165162
0.00092924705
0.00084871197
0.000734207
0.00059524287
0.00043703973
0.00025962825
6.6974349e-05
-0.00012169864
-0.00024461315
0.0020636399
0.0018131312
0.0015196154
0.0012633369
0.0010636976
0.00092772229
0.00085717477
0.00085490191
0.00091361102
0.0009903219
0.0035449187
0.0029235989
0.0023025594
0.0018860635
0.0016268857
0.0015159982
0.0015540653
0.0017551725
0.0021130895
0.0024974265
0.0062084443
0.0050509909
0.0037759869
0.0031813017
0.0028811864
0.0027999749
0.0029376226
0.003358999
0.0041826054
0.0054118994
0.013326025
0.015019467
0.013197156
0.012558222
0.012292283
0.012246635
0.012427703
0.012988889
0.014480603
0.019312309
0.0062221843
0.0078328735
0.0071913081
0.0069943655
0.0069212006
0.0069124225
0.0069723412
0.0071686472
0.0077918705
0.010389784
-0.012366486
-0.0080229247
-0.0078139328
-0.0077278065
-0.0077178689
-0.0077695685
-0.0079132285
-0.0082489226
-0.008828559
-0.0071574566
-0.018148184
-0.011319354
-0.01075984
-0.01052172
-0.010511105
-0.010694705
-0.011147688
-0.012123551
-0.013966362
-0.012543103
0.00047110088
0.00091377812
0.0012687354
0.0014139998
0.001372277
0.0011562573
0.00072687761
-3.3045407e-05
-0.0013977147
-0.0028163659
0.00044447448
0.00058857041
0.00069320955
0.00069211206
0.00058459342
0.00037292907
4.5909346e-05
-0.00040817979
-0.000978951
-0.0014398217
0.0011181454
0.0010555024
0.00094516044
0.00079775999
0.00062597746
0.00043539759
0.00022515774
-8.1809901e-07
-0.00022075263
-0.00036358114
0.0019685497
0.0016755102
0.0013319663
0.0010301108
0.00079328225
0.0006292911
0.00053955215
0.00052695489
0.00058384503
0.00066397537
0.0032554244
0.0025363931
0.0018265786
0.0013470904
0.0010454697
0.00091087471
0.00094313355
0.0011573695
0.0015469406
0.0019684572
0.0058678582
0.0044948624
0.0030491837
0.0023702701
0.0020243234
0.0019243598
0.0020686162
0.0025281668
0.0034354707
0.0048009501
0.013610278
0.015247477
0.013190725
0.012464156
0.012159083
0.012101393
0.012296104
0.012912481
0.014568887
0.020055577
0.0065150142
0.0081861166
0.0074638536
0.0072403491
0.0071566064
0.0071451301
0.0072100266
0.0074261412
0.0081203462
0.011083934
-0.012561792
-0.0079914247
-0.0077939053
-0.0077120921
-0.0077072963
-0.0077680153
-0.0079303543
-0.0083100066
-0.0089857025
-0.0072830032
-0.017861908
-0.010710078
-0.010177804
-0.0099555499
-0.0099651395
-0.010180985
-0.010692561
-0.011788918
-0.013882778
-0.012527473
0.0013621179
0.0017811167
0.0021166459
0.0022405714
0.0021714388
0.0019173498
0.0014312099
0.00058144228
-0.00093598639
-0.0025082429
0.00089146551
0.0010213789
0.0011041304
0.0010761719
0.00093747824
0.00068869636
0.00031544671
-0.00019637354
-0.00083585615
-0.0013505677
0.0012335345
0.0011496497
0.0010080992
0.00082642804
0.0006206237
0.00039663083
0.00015266918
-0.00010737061
-0.00035910241
-0.00052221328
0.0017887746
0.0014541876
0.0010613531
0.00071395869
0.00043932156
0.00024600417
0.00013499426
0.00010919599
0.00016091486
0.00024178338
0.0028240333
0.0020110464
0.0012161007
0.0006751389
0.00033103078
0.00017113746
0.00019422263
0.00041609187
0.00082982282
0.0012813268
0.0053188229
0.0037358007
0.0021286057
0.0013686044
0.00097730278
0.00085683277
0.0010032234
0.001492433
0.0024690251
0.0039510576
0.013578412
0.015118917
0.012839858
0.012029232
0.011685663
0.01161439
0.011818251
0.012479624
0.014276875
0.020354125
0.0066788367
0.008381536
0.0075823739
0.007333365
0.0072392328
0.0072246244
0.0072931452
0.007525627
0.0082811669
0.011577127
-0.01260932
-0.0078551977
-0.0076725544
-0.0075964226
-0.0075972175
-0.0076667893
-0.0078468489
-0.0082680063
-0.009036265
-0.0073268524
-0.017332225
-0.0099270769
-0.0094309057
-0.0092286106
-0.0092598667
-0.0095074888
-0.010074812
-0.011284527
-0.013616476
-0.012359043
0.0022843621
0.0026725247
0.0029828285
0.0030820384
0.0029841088
0.0026922591
0.0021515926
0.0012171249
-0.00044270662
-0.0021589871
0.0013398329
0.0014528382
0.0015108719
0.0014541185
0.0012833163
0.00099744199
0.00057900941
1.1664072e-05
-0.00069314497
-0.0012589675
0.0013138277
0.0012082776
0.0010349495
0.0008184983
0.00057827293
0.00032056859
4.2697178e-05
-0.00025145442
-0.00053487359
-0.00071820077
0.0015349111
0.001160464
0.00071996557
0.00032794784
1.5658669e-05
-0.00020762792
-0.00034139734
-0.00038273328
-0.00033906578
-0.00025983068
0.002275928
0.0013741025
0.00049889007
-0.00010103169
-0.00048688786
-0.00067305469
-0.00066199321
-0.00043750969
-6.6526348e-06
0.00046801154
0.004600316
0.0028161918
0.0010586523
0.00022189263
-0.00021350212
-0.00035567811
-0.00021117055
0.00029966247
0.0013317152
0.0029111936
0.01327806
0.01468979
0.012203543
0.011313678
0.010932911
0.010846932
0.011055814
0.011752453
0.013667345
0.020269461
0.0067302417
0.0084396544
0.0075685301
0.0072954674
0.0071913151
0.0071732493
0.0072441385
0.0074896921
0.0082971242
0.011891102
-0.0125283
-0.0076321297
-0.0074670197
-0.0073976407
-0.0074042985
-0.0074823935
-0.0076789737
-0.0081386574
-0.008994581
-0.0072997721
-0.016606163
-0.0090142426
-0.0085611432
-0.0083819487
-0.0084356862
-0.0087140146
-0.0093334537
-0.010647981
-0.013201904
-0.012065498
0.0032089795
0.003560713
0.0038412734
0.003913352
0.0037860201
0.003457459
0.002865337
0.0018524119
6.2147301e-05
-0.0017866574
0.0017748545
0.0018689364
0.0019003114
0.0018136831
0.0016106214
0.0012884305
0.00082664376
0.00020683452
-0.00055899548
-0.0011724499
0.0013574553
0.0012303261
0.0010253894
0.00077443314
0.00050013686
0.00020913169
-0.00010214401
-0.00042976941
-0.00074413535
-0.00094719488
0.0012184669
0.00080645415
0.0003206995
-0.00011422897
-0.00046327818
-0.00071650985
-0.00087390427
-0.00093252226
-0.00089925867
-0.0008236819
0.0016356202
0.00065122434
-0.00029834613
-0.00095382273
-0.0013799421
-0.0015927238
-0.0015959546
-0.0013732972
-0.00093177089
-0.00044031978
0.0037489975
0.0017755864
-0.00011945309
-0.0010276033
-0.0015050923
-0.0016695946
-0.0015304467
-0.0010054109
6.9033783e-05
0.0017275713
0.012753537
0.014011865
0.01133602
0.010372796
0.0099567355
0.0098553704
0.010065576
0.010788348
0.012798558
0.019859346
0.0066846576
0.0083794665
0.0074422616
0.00714693
0.0070332919
0.007011557
0.0070836764
0.0073391911
0.0081893681
0.012046383
-0.012336181
-0.0073381589
-0.0071925606
-0.0071307385
-0.007143375
-0.0072295226
-0.007441221
-0.0079360178
-0.0088735303
-0.0072114095
-0.015725184
-0.0080097535
-0.0076049803
-0.0074511723
-0.0075276324
-0.0078350731
-0.0085023307
-0.0099119649
-0.012669136
-0.011670909
0.0041120258
0.0044231564
0.0046706069
0.0047139984
0.0045573571
0.0041937886
0.0035540081
0.0024697888
0.00056237372
-0.0014058883
0.0021850947
0.0022588732
0.0022624426
0.0021456234
0.001910856
0.0015538032
0.0010511932
0.00038273511
-0.00043902009
-0.0010959951
0.0013646515
0.0012164753
0.00098075071
0.00069626541
0.00038893053
6.5692828e-05
-0.00027783143
-0.00063764993
-0.00098163749
-0.0012035629
0.00085126415
0.00040449517
-0.00012343417
-0.0005988538
-0.00098309697
-0.0012656158
-0.0014468888
-0.0015239386
-0.0015028965
-0.0014326502
0.00092639234
-0.00013335043
-0.0011504994
-0.0018573502
-0.0023215675
-0.002560693
-0.0025798903
-0.002362884
-0.0019165195
-0.0014141598
0.002798786
0.000650322
-0.0013680193
-0.0023413124
-0.0028582326
-0.0030451184
-0.0029142403
-0.0023817477
-0.0012771298
0.0004429199
0.012045653
0.013132565
0.010286709
0.0092568879
0.0088079787
0.0086909749
0.008899267
0.0096396991
0.011723935
0.019177322
0.0065563265
0.0082184474
0.0072218115
0.0069062727
0.0067838282
0.0067583224
0.006830659
0.0070932289
0.0079773588
0.012062154
-0.012048826
-0.0069874997
-0.0068627757
-0.0068090735
-0.0068276664
-0.0069212757
-0.0071465239
-0.0076726692
-0.0086847168
-0.0070704377
-0.014725873
-0.0069467974
-0.0065940504
-0.006467146
-0.0065660622
-0.0069005713
-0.0076108003
-0.0091049013
-0.012044472
-0.011196263
0.0049737502
0.0052413895
0.0054534017
0.0054673202
0.0052820795
0.0048857783
0.0042027508
0.0030551522
0.0010449055
-0.0010284967
0.0025618091
0.002614473
0.0025897973
0.0024431509
0.0021778579
0.0017879989
0.0012477114
0.00053506536
-0.00033685973
-0.0010327238
0.0013369494
0.0011686462
0.00090352409
0.00058710438
0.00024837205
-0.00010543644
-0.00047946369
-0.00086961345
-0.001241374
-0.0014809597
0.00044501463
-3.327165e-05
-0.00059972349
-0.0011126004
-0.00152987
-0.0018404361
-0.0020452664
-0.0021413292
-0.0021338102
-0.0020702249
0.00016997687
-0.00095711339
-0.0020343531
-0.0027877395
-0.0032872866
-0.0035519165
-0.0035881796
-0.0033800343
-0.0029340257
-0.0024261266
0.0017806999
-0.00052658938
-0.002652972
-0.0036844347
-0.0042375431
-0.0044463451
-0.0043260869
-0.0037921911
-0.0026687271
-0.00090379635
0.011191714
0.012095061
0.0091003517
0.0080114122
0.0075325626
0.007400066
0.0076036669
0.0083539736
0.010492062
0.01827261
0.0063583337
0.0079726128
0.0069238063
0.0065903447
0.006459897
0.006430621
0.0065022872
0.0067692204
0.0076789077
0.011956252
-0.011680675
-0.0065928306
-0.0064897865
-0.0064445513
-0.0064689566
-0.0065693354
-0.0068064325
-0.007359885
-0.0084386163
-0.0068846767
-0.013640507
-0.0058541741
-0.0055557496
-0.0054565767
-0.0055772373
-0.0059363902
-0.0066842998
-0.0082514987
-0.011350939
-0.0106599
0.005777999
0.006000418
0.0061755964
0.0061599411
0.005947353
0.0055210819
0.0047997269
0.0035972581
0.0014992851
-0.00066397312
0.0028984534
0.0029296983
0.0028769657
0.0027014549
0.0024073652
0.0019872779
0.0014129841
0.00066115014
-0.0002546547
-0.00098436025
0.0012767878
0.0010896117
0.0007969743
0.0004507525
8.2797266e-05
-0.00029939698
-0.00070166037
-0.001119768
-0.0015169964
-0.0017727432
1.1028002e-05
-0.00049518591
-0.0010960345
-0.001642812
-0.0020904157
-0.0024272697
-0.0026548107
-0.0027699415
-0.0027767643
-0.0027208479
-0.00061361111
-0.0017994355
-0.0029287196
-0.0037232592
-0.0042548474
-0.0045436303
-0.0045975192
-0.0044008514
-0.0039597656
-0.0034511883
0.00072284492
-0.0017254307
-0.0039437939
-0.0050258726
-0.0056114327
-0.0058412086
-0.0057333863
-0.005203455
-0.0040715661
-0.002277422
0.010225645
0.010938457
0.0078172436
0.0066772257
0.0061717332
0.0060242506
0.0062208267
0.0069739136
0.0091468598
0.017190196
0.0061026589
0.0076565984
0.0065633515
0.0062144263
0.0060768811
0.0060439284
0.0061141587
0.00638298
0.0073102548
0.011745204
-0.011244879
-0.0061654526
-0.0060843939
-0.0060477791
-0.0060777467
-0.0061841198
-0.0064312622
-0.0070077715
-0.0081446988
-0.0066611915
-0.012497532
-0.0047568034
-0.0045137371
-0.0044425097
-0.0045838155
-0.0049648716
-0.0057448248
-0.0073732093
-0.010608698
-0.010077855
0.0065117175
0.0066882278
0.0068260113
0.006781287
0.0065430726
0.0060900047
0.0053356501
0.0040872708
0.0019172385
-0.00031987824
0.0031902855
0.0032002561
0.0031202071
0.0029173175
0.0025966341
0.0021493409
0.0015451502
0.0007595653
-0.00019341028
-0.0009515891
0.0011872104
0.00098269927
0.00066484841
0.0002914169
-0.00010312812
-0.00051107128
-0.00093885371
-0.001382106
-0.0018021075
-0.002072268
-0.00043998155
-0.00097025467
-0.0016009909
-0.0021776772
-0.0026524749
-0.0030134028
-0.0032623401
-0.0033961164
-0.0034176567
-0.0033701186
-0.0014061428
-0.0026416204
-0.0038144805
-0.0046443542
-0.0052042561
-0.0055153889
-0.0055869697
-0.0054038359
-0.0049716349
-0.0044667425
-0.00034951818
-0.0029196732
-0.005213391
-0.0063380848
-0.0069519515
-0.0072013386
-0.007107268
-0.0065860038
-0.0054552091
-0.0036465279
0.0091781435
0.0096980135
0.0064734978
0.0052908645
0.0047623434
0.0046007024
0.0047883412
0.0055377958
0.007727817
0.015971007
0.005800237
0.0072837443
0.0061541321
0.0057923332
0.0056486796
0.0056122261
0.0056803716
0.005948821
0.0068861591
0.011444281
-0.010753422
-0.0057154248
-0.0056562101
-0.0056281973
-0.0056633862
-0.005774911
-0.00603022
-0.0066253871
-0.0078115326
-0.0064063749
-0.011321974
-0.0036761567
-0.0034883585
-0.0034447468
-0.0036052661
-0.0040052287
-0.0048113314
-0.0064886113
-0.0098353911
-0.0094641585
0.0071645356
0.0072953768
0.0073959455
0.0073231882
0.0070614695
0.0065851144
0.0058034044
0.0045183942
0.0022923308
-2.159882e-06
0.003434046
0.0034232819
0.0033171384
0.0030888058
0.0027441343
0.0022730281
0.0016434052
0.00082984782
-0.00015327708
-0.00093432618
0.0010716412
0.00085157065
0.00051115932
0.00011349691
-0.00030461839
-0.00073529194
-0.0011854962
-0.0016507103
-0.0020904658
-0.0023730875
-0.00089801665
-0.0014482674
-0.002104082
-0.0027063325
-0.003204811
-0.0035872103
-0.0038558198
-0.004007394
-0.0040436267
-0.0040049032
-0.0021911819
-0.0034668959
-0.0046745645
-0.0055336162
-0.0061177448
-0.0064490345
-0.0065379286
-0.0063698642
-0.0059499337
-0.005452607
-0.0014138606
-0.0040858295
-0.0064379203
-0.0075969031
-0.0082346026
-0.0085018727
-0.0084224095
-0.0079138779
-0.0067928099
-0.0049832629
0.0080768643
0.0084053826
0.0051013172
0.0038848285
0.0033371432
0.0031624513
0.003339634
0.0040797084
0.006270249
0.01465211
0.0054610214
0.0068661791
0.0057085098
0.0053365187
0.0051878104
0.0051481042
0.0052136261
0.0054796553
0.0064199908
0.011067563
-0.010217215
-0.0052516812
-0.0052137734
-0.0051941925
-0.0052341835
-0.0053499657
-0.0056115124
-0.0062208436
-0.0074468707
-0.0061260162
-0.010135787
-0.0026306239
-0.0024970057
-0.0024802027
-0.0026582216
-0.0030738931
-0.0039000745
-0.0056137318
-0.0090464258
-0.0088310716
0.0077284216
0.0078146547
0.0078788428
0.0077795488
0.0074967847
0.0070009209
0.0061977307
0.0048855716
0.0026196865
0.00028459173
0.0036277019
0.0035970868
0.003466486
0.0032150286
0.0028493094
0.0023580833
0.0017077712
0.00087227284
-0.00013376433
-0.00093192353
0.00093371833
0.00070005854
0.00034002784
-7.856932e-05
-0.00051691745
-0.00096698832
-0.0014362042
-0.0019198949
-0.0023761229
-0.0026690878
-0.0013538662
-0.0019198596
-0.0025957191
-0.0032189136
-0.0037372573
-0.0041382004
-0.0044244063
-0.0045925577
-0.0046431002
-0.0046133802
-0.0029540501
-0.004260367
-0.0054938887
-0.0063757163
-0.0069796992
-0.0073286229
-0.0074340565
-0.0072821177
-0.0068773001
-0.0063909568
-0.0024502502
-0.0052032877
-0.0075966016
-0.0087813318
-0.0094381371
-0.0097212504
-0.009656831
-0.009164494
-0.0080609214
-0.0062631714
0.0069465997
0.0070888408
0.0037292599
0.0024878609
0.0019250635
0.001738668
0.001904241
0.002629829
0.0048055636
0.013266935
0.0050940452
0.0064148997
0.0052376147
0.0048581699
0.0047055086
0.0046628599
0.0047253219
0.0049870887
0.0059238219
0.010628003
-0.0096461894
-0.0047821319
-0.004764646
-0.0047531941
-0.0047975031
-0.0049166099
-0.0051824376
-0.0058013936
-0.0070577256
-0.0058253591
-0.0089581432
-0.0016358282
-0.001554425
-0.0015632079
-0.0017567781
-0.0021848109
-0.0030248962
-0.0047623181
-0.0082552143
-0.0081892875
0.0081973922
0.008240799
0.0082700125
0.0081460729
0.0078449995
0.0073336108
0.0065149698
0.00518524
0.0028957636
0.00053693886
0.0037702421
0.0037209564
0.003567889
0.0032959435
0.0029123888
0.0024049709
0.0017389183
0.00088768311
-0.00013390137
-0.00094332291
0.00077717296
0.00053204927
0.00015556996
-0.0002804128
-0.00073540256
-0.0012012865
-0.0016858547
-0.0021842976
-0.0026535109
-0.0029545735
-0.001799138
-0.0023765396
-0.0030672561
-0.0037065693
-0.0042407265
-0.0046570215
-0.004958452
-0.0051416374
-0.0052057917
-0.0051850424
-0.0036817675
-0.0050089432
-0.0062592747
-0.007157314
-0.0077765625
-0.0081403251
-0.0082611785
-0.0081259848
-0.007738613
-0.0072662291
-0.0034412056
-0.0062541377
-0.0086715237
-0.0098733439
-0.010544343
-0.010841
-0.010791683
-0.010318435
-0.0092392903
-0.0074649976
0.0058094627
0.0057735145
0.0023824932
0.0011252134
0.0005514872
0.00035493752
0.00050808221
0.0012146932
0.0033615193
0.011845493
0.0047074807
0.0059398472
0.0047514318
0.0043672973
0.0042118175
0.004166589
0.0042256503
0.0044815116
0.0054085121
0.010137494
-0.0090493666
-0.0043137508
-0.0043154995
-0.0043117587
-0.0043598482
-0.004481321
-0.004749465
-0.0053735052
-0.0066504327
-0.0055091506
-0.0078056983
-0.00070489757
-0.00067298082
-0.00070576963
-0.00091275177
-0.0013496945
-0.002197471
-0.0039460701
-0.0074733774
-0.0075480988
0.0085672682
0.0085702563
0.0085663961
0.0084200353
0.0081036107
0.0075808282
0.0067528496
0.0054151284
0.0031181686
0.00075243091
0.0038615135
0.0037949903
0.0036217425
0.0033322049
0.0029342402
0.002414733
0.0017380287
0.00087735936
-0.00015235879
-0.00096716988
0.00060574349
0.00035140009
-3.8181352e-05
-0.00048780708
-0.00095565329
-0.0014335739
-0.001929645
-0.0024389354
-0.0029174952
-0.0032243161
-0.0022262634
-0.0028106887
-0.0035109826
-0.0041614498
-0.0047071941
-0.0051354416
-0.005449482
-0.0056458847
-0.0057226777
-0.0057106694
-0.0043629756
-0.0057012519
-0.0069593512
-0.0078669516
-0.0084967249
-0.0088723131
-0.009007168
-0.0088889441
-0.0085208777
-0.00806501
-0.0043715452
-0.0072229966
-0.0096474517
-0.010857678
-0.011537839
-0.011845528
-0.011811035
-0.011359237
-0.01031065
-0.0085704839
0.0046850628
0.0044815947
0.0010830341
-0.00018110285
-0.00076149513
-0.00096648356
-0.00082627979
-0.00014254943
0.0019624737
0.010414588
0.004308695
0.005449977
0.0042588807
0.0038728186
0.0037156733
0.0036682713
0.0037236788
0.003972183
0.0048837899
0.009606926
-0.0084349281
-0.003852653
-0.0038721895
-0.0038756437
-0.0039269334
-0.0040497992
-0.0043183055
-0.0049429267
-0.006230705
-0.0051816829
-0.0066928079
0.00015130005
0.00013711519
8.2204093e-05
-0.0001359004
-0.00057824017
-0.0014275164
-0.0031748386
-0.0067109176
-0.0069155376
0.0088354677
0.0088009818
0.0087663718
0.0086000904
0.0082714431
0.007741492
0.006910309
0.0055740917
0.0032855059
0.00092947051
0.0039020903
0.0038199745
0.0036290747
0.0033250458
0.0029162551
0.0023888796
0.0017066914
0.00084292252
-0.00018753836
-0.0010018972
0.00042311714
0.00016188376
-0.00023732713
-0.00069671466
-0.0011734934
-0.0016595369
-0.0021631268
-0.0026792341
-0.0031633983
-0.0034735764
-0.0026284836
-0.0032155418
-0.0039200996
-0.0045766759
-0.0051296634
-0.0055663093
-0.0058901518
-0.0060977273
-0.0061859497
-0.0061822793
-0.0049878498
-0.0063275411
-0.0075844482
-0.0084949414
-0.0091304053
-0.0095146385
-0.0096618233
-0.0095604403
-0.0092131
-0.0087759096
-0.0052282369
-0.0080968362
-0.010511638
-0.011721639
-0.012405868
-0.012721911
-0.012701666
-0.012273187
-0.011260517
-0.0095641717
0.003590674
0.0032325397
-0.00015002498
-0.0014120814
-0.0019948447
-0.0022064238
-0.0020793967
-0.0014218931
0.00062961909
0.0089980268
0.0039043033
0.0049533254
0.00376789
0.0033826351
0.0032249841
0.0031758497
0.003227431
0.00346731
0.0043583281
0.0090462485
-0.0078102715
-0.003404163
-0.0034398214
-0.0034498712
-0.0035037483
-0.0036270303
-0.0038939713
-0.0045147439
-0.0058036808
-0.0048468288
-0.0056317234
0.00092395173
0.00086760595
0.00079270923
0.00056588493
0.00012168373
-0.00072297547
-0.0024567954
-0.0059763655
-0.0062984937
0.0090008316
0.0089322692
0.0088695891
0.0086861106
0.0083484927
0.0078156436
0.0069873519
0.0056619727
0.0033972544
0.0010672057
0.0038931713
0.0037972809
0.0035914503
0.0032761845
0.0028602608
0.002329305
0.0016468245
0.00078626159
-0.00023763803
-0.0010457839
0.00023289334
-3.2845273e-05
-0.00043813216
-0.0009033123
-0.0013850117
-0.0018751778
-0.0023822183
-0.0029010362
-0.0033870051
-0.0036981059
-0.002999819
-0.0035851535
-0.0042886794
-0.0049462943