/*--------------------------------*- C++ -*----------------------------------*\
| =========                 |                                                 |
| \\      /  F ield         | OpenFOAM: The Open Source CFD Toolbox           |
|  \\    /   O peration     | Version:  v2106                                 |
|   \\  /    A nd           | Website:  www.openfoam.com                      |
|    \\/     M anipulation  |                                                 |
\*---------------------------------------------------------------------------*/
FoamFile
{
    version     2.0;
    format      ascii;
    arch        "LSB;label=32;scalar=64";
    class       volScalarField;
    location    "60";
    object      laplacianT;
}
// * * * * * * * * * * * * * * * * * * * * * * * * * * * * * * * * * * * * * //

dimensions      [0 -2 0 1 0 0 0];

internalField   nonuniform List<scalar> 
4000
(
41520.927
41520.879
41521.068
41521.16
41521.205
41521.209
41521.176
41521.114
41521.032
41520.958
41520.879
41520.864
41521.039
41521.128
41521.171
41521.173
41521.138
41521.071
41520.979
41520.905
41521.068
41521.039
41521.209
41521.294
41521.334
41521.333
41521.295
41521.224
41521.125
41521.042
41521.16
41521.128
41521.294
41521.376
41521.413
41521.409
41521.368
41521.292
41521.189
41521.102
41521.205
41521.171
41521.334
41521.413
41521.447
41521.44
41521.396
41521.317
41521.211
41521.122
41521.209
41521.173
41521.333
41521.409
41521.44
41521.431
41521.384
41521.303
41521.194
41521.103
41521.176
41521.138
41521.295
41521.368
41521.396
41521.384
41521.334
41521.25
41521.14
41521.048
41521.114
41521.071
41521.224
41521.292
41521.317
41521.303
41521.25
41521.164
41521.051
41520.958
41521.032
41520.979
41521.125
41521.189
41521.211
41521.194
41521.14
41521.051
41520.936
41520.841
41520.958
41520.905
41521.042
41521.102
41521.122
41521.103
41521.048
41520.958
41520.841
41520.743
-563.95933
-565.31397
-565.14159
-565.14132
-565.14368
-565.1445
-565.14378
-565.14163
-565.13828
-565.08352
-565.31397
-566.31284
-566.17076
-566.17217
-566.17469
-566.17554
-566.1747
-566.17224
-566.16824
-565.83846
-565.14159
-566.17076
-566.03161
-566.03299
-566.03541
-566.03617
-566.03524
-566.03262
-566.02832
-565.71732
-565.14132
-566.17217
-566.03299
-566.03428
-566.03663
-566.03732
-566.0363
-566.03356
-566.02909
-565.71731
-565.14368
-566.17469
-566.03541
-566.03663
-566.03892
-566.03955
-566.03847
-566.03565
-566.03108
-565.7191
-565.1445
-566.17554
-566.03617
-566.03732
-566.03955
-566.04014
-566.03901
-566.03613
-566.0315
-565.71941
-565.14378
-566.1747
-566.03524
-566.0363
-566.03847
-566.03901
-566.03783
-566.0349
-566.03021
-565.71804
-565.14163
-566.17224
-566.03262
-566.03356
-566.03565
-566.03613
-566.0349
-566.0319
-566.02714
-565.71489
-565.13828
-566.16824
-566.02832
-566.02909
-566.03108
-566.0315
-566.03021
-566.02714
-566.02227
-565.70993
-565.08352
-565.83846
-565.71732
-565.71731
-565.7191
-565.71941
-565.71804
-565.71489
-565.70993
-565.38595
-556.95115
-558.96892
-558.68571
-558.68348
-558.68661
-558.68789
-558.68718
-558.68452
-558.68003
-558.33461
-558.96892
-560.43603
-560.20443
-560.20513
-560.20853
-560.20985
-560.20898
-560.20587
-560.20043
-559.34343
-558.68571
-560.20443
-559.97812
-559.97886
-559.98215
-559.98339
-559.98242
-559.97913
-559.97331
-559.1601
-558.68348
-560.20513
-559.97886
-559.97951
-559.98274
-559.98393
-559.98288
-559.97945
-559.97343
-559.15922
-558.68661
-560.20853
-559.98215
-559.98274
-559.98594
-559.98709
-559.986
-559.98249
-559.97636
-559.16179
-558.68789
-560.20985
-559.98339
-559.98393
-559.98709
-559.98822
-559.9871
-559.98354
-559.97736
-559.16256
-558.68718
-560.20898
-559.98242
-559.98288
-559.986
-559.9871
-559.98595
-559.98234
-559.9761
-559.16116
-558.68452
-560.20587
-559.97913
-559.97945
-559.98249
-559.98354
-559.98234
-559.97868
-559.97234
-559.1573
-558.68003
-560.20043
-559.97331
-559.97343
-559.97636
-559.97736
-559.9761
-559.97234
-559.96583
-559.1507
-558.33461
-559.34343
-559.1601
-559.15922
-559.16179
-559.16256
-559.16116
-559.1573
-559.1507
-558.21152
-550.03927
-552.69075
-552.30498
-552.30102
-552.30484
-552.30653
-552.30582
-552.30264
-552.29707
-551.6847
-552.69075
-554.61267
-554.2976
-554.29765
-554.30185
-554.3036
-554.30268
-554.29892
-554.2921
-552.93309
-552.30498
-554.2976
-553.98986
-553.99001
-553.99409
-553.99576
-553.99474
-553.99077
-553.98351
-552.69364
-552.30102
-554.29765
-553.99001
-553.99009
-553.99412
-553.99576
-553.99466
-553.99055
-553.98305
-552.69207
-552.30484
-554.30185
-553.99409
-553.99412
-553.99814
-553.99976
-553.99864
-553.99445
-553.98684
-552.69535
-552.30653
-554.3036
-553.99576
-553.99576
-553.99976
-554.00139
-554.00025
-553.99602
-553.98835
-552.69654
-552.30582
-554.30268
-553.99474
-553.99466
-553.99864
-554.00025
-553.9991
-553.99483
-553.98709
-552.69508
-552.30264
-554.29892
-553.99077
-553.99055
-553.99445
-553.99602
-553.99483
-553.99049
-553.98263
-552.69051
-552.29707
-554.2921
-553.98351
-553.98305
-553.98684
-553.98835
-553.98709
-553.98263
-553.97456
-552.68235
-551.6847
-552.93309
-552.69364
-552.69207
-552.69535
-552.69654
-552.69508
-552.69051
-552.68235
-551.16292
-543.23099
-546.49451
-546.01019
-546.00453
-546.00901
-546.0111
-546.0104
-546.00676
-546.00021
-545.12873
-546.49451
-548.8553
-548.45987
-548.45927
-548.46422
-548.4664
-548.46545
-548.4611
-548.45302
-546.60743
-546.01019
-548.45987
-548.07371
-548.07328
-548.07812
-548.08022
-548.07916
-548.07459
-548.066
-546.31433
-546.00453
-548.45927
-548.07328
-548.07278
-548.07759
-548.07966
-548.07854
-548.07381
-548.06496
-546.31211
-546.00901
-548.46422
-548.07812
-548.07759
-548.0824
-548.08448
-548.08335
-548.07854
-548.06957
-546.31606
-546.0111
-548.4664
-548.08022
-548.07966
-548.08448
-548.08659
-548.08546
-548.08062
-548.07159
-546.31766
-546.0104
-548.46545
-548.07916
-548.07854
-548.08335
-548.08546
-548.08433
-548.07945
-548.07033
-546.31616
-546.00676
-548.4611
-548.07459
-548.07381
-548.07854
-548.08062
-548.07945
-548.07449
-548.06523
-546.31094
-546.00021
-548.45302
-548.066
-548.06496
-548.06957
-548.07159
-548.07033
-548.06523
-548.05571
-546.30135
-545.12873
-546.60743
-546.31433
-546.31211
-546.31606
-546.31766
-546.31616
-546.31094
-546.30135
-544.22213
-536.50716
-540.35431
-539.77551
-539.7682
-539.77333
-539.77585
-539.7752
-539.77118
-539.76375
-538.64204
-540.35431
-543.13292
-542.66047
-542.65923
-542.66494
-542.66757
-542.66664
-542.66178
-542.65257
-540.33863
-539.77551
-542.66047
-542.19918
-542.19818
-542.20376
-542.20631
-542.20527
-542.20018
-542.1904
-539.9943
-539.7682
-542.65923
-542.19818
-542.19712
-542.20269
-542.20523
-542.20413
-542.19886
-542.1888
-539.99145
-539.77333
-542.66494
-542.20376
-542.20269
-542.20828
-542.21085
-542.20975
-542.20442
-542.19422
-539.99607
-539.77585
-542.66757
-542.20631
-542.20523
-542.21085
-542.21346
-542.21238
-542.20702
-542.19675
-539.9981
-539.7752
-542.66664
-542.20527
-542.20413
-542.20975
-542.21238
-542.21131
-542.20591
-542.19556
-539.9966
-539.77118
-542.66178
-542.20018
-542.19886
-542.20442
-542.20702
-542.20591
-542.20042
-542.18989
-539.99081
-539.76375
-542.65257
-542.1904
-542.1888
-542.19422
-542.19675
-542.19556
-542.18989
-542.17906
-539.97994
-538.64204
-540.33863
-539.9943
-539.99145
-539.99607
-539.9981
-539.9966
-539.99081
-539.97994
-537.36146
-529.8419
-534.2404
-533.57176
-533.56288
-533.56866
-533.57162
-533.57109
-533.56678
-533.5586
-532.1972
-534.2404
-537.41308
-536.86742
-536.86559
-536.87205
-536.87516
-536.87432
-536.86906
-536.85886
-534.09779
-533.57176
-536.86742
-536.33473
-536.3332
-536.33954
-536.34256
-536.34162
-536.33611
-536.32529
-533.70493
-533.56288
-536.86559
-536.3332
-536.33163
-536.33796
-536.34099
-536.33999
-536.3343
-536.32316
-533.7015
-533.56866
-536.87205
-536.33954
-536.33796
-536.34434
-536.34742
-536.34643
-536.34066
-536.32939
-533.7068
-533.57162
-536.87516
-536.34256
-536.34099
-536.34742
-536.35056
-536.34961
-536.34382
-536.33247
-533.70928
-533.57109
-536.87432
-536.34162
-536.33999
-536.34643
-536.34961
-536.34867
-536.34284
-536.33139
-533.70783
-533.56678
-536.86906
-536.33611
-536.3343
-536.34066
-536.34382
-536.34284
-536.33691
-536.32526
-533.70158
-533.5586
-536.85886
-536.32529
-536.32316
-536.32939
-536.33247
-536.33139
-536.32526
-536.31327
-533.68957
-532.1972
-534.09779
-533.70493
-533.7015
-533.7068
-533.70928
-533.70783
-533.70158
-533.68957
-530.55557
-523.21151
-528.12582
-527.37255
-527.36219
-527.36862
-527.37206
-527.37171
-527.36721
-527.35839
-525.76937
-528.12582
-531.66657
-531.05198
-531.0496
-531.05681
-531.06044
-531.05976
-531.0542
-531.04315
-527.85891
-527.37255
-531.05198
-530.45207
-530.45005
-530.45714
-530.46069
-530.45991
-530.45408
-530.44237
-527.42052
-527.36219
-531.0496
-530.45005
-530.44801
-530.45511
-530.45867
-530.45784
-530.45182
-530.43977
-527.41655
-527.36862
-531.05681
-530.45714
-530.45511
-530.46227
-530.4659
-530.46509
-530.459
-530.4468
-527.42253
-527.37206
-531.06044
-530.46069
-530.45867
-530.4659
-530.46961
-530.46884
-530.46274
-530.45045
-527.42549
-527.37171
-531.05976
-530.45991
-530.45784
-530.46509
-530.46884
-530.4681
-530.46195
-530.44955
-527.42417
-527.36721
-531.0542
-530.45408
-530.45182
-530.459
-530.46274
-530.46195
-530.45569
-530.44307
-527.41754
-527.35839
-531.04315
-530.44237
-530.43977
-530.4468
-530.45045
-530.44955
-530.44307
-530.43006
-527.40455
-525.76937
-527.85891
-527.42052
-527.41655
-527.42253
-527.42549
-527.42417
-527.41754
-527.40455
-523.78192
-516.59509
-521.98676
-521.15458
-521.14283
-521.14991
-521.15387
-521.15376
-521.14914
-521.13981
-519.33657
-521.98676
-525.86755
-525.1887
-525.18582
-525.19379
-525.19797
-525.19752
-525.19177
-525.18001
-521.59902
-521.15458
-525.1887
-524.52617
-524.52371
-524.53155
-524.53565
-524.5351
-524.52907
-524.5166
-521.11835
-521.14283
-525.18582
-524.52371
-524.52124
-524.5291
-524.53323
-524.53263
-524.52641
-524.51357
-521.11392
-521.14991
-525.19379
-524.53155
-524.5291
-524.53705
-524.54126
-524.54069
-524.53439
-524.5214
-521.12056
-521.15387
-525.19797
-524.53565
-524.53323
-524.54126
-524.54556
-524.54505
-524.53873
-524.52565
-521.12403
-521.15376
-525.19752
-524.5351
-524.53263
-524.54069
-524.54505
-524.54456
-524.5382
-524.52499
-521.1229
-521.14914
-525.19177
-524.52907
-524.52641
-524.53439
-524.53873
-524.5382
-524.53171
-524.51827
-521.116
-521.13981
-525.18001
-524.5166
-524.51357
-524.5214
-524.52565
-524.52499
-524.51827
-524.50438
-521.10216
-519.33657
-521.59902
-521.11835
-521.11392
-521.12056
-521.12403
-521.1229
-521.116
-521.10216
-517.02067
-509.97438
-515.80245
-514.89752
-514.8845
-514.89221
-514.8967
-514.89688
-514.89224
-514.88251
-512.87967
-515.80245
-519.99347
-519.25542
-519.25209
-519.2608
-519.26555
-519.26539
-519.25955
-519.24722
-515.2981
-514.89752
-519.25542
-518.53521
-518.53236
-518.54094
-518.54561
-518.54535
-518.53921
-518.52613
-514.77868
-514.8845
-519.25209
-518.53236
-518.5295
-518.53812
-518.54284
-518.54253
-518.53619
-518.52273
-514.77382
-514.89221
-519.2608
-518.54094
-518.53812
-518.54683
-518.55164
-518.55137
-518.54496
-518.53134
-514.78113
-514.8967
-519.26555
-518.54561
-518.54284
-518.55164
-518.55656
-518.55635
-518.54992
-518.5362
-514.78512
-514.89688
-519.26539
-518.54535
-518.54253
-518.55137
-518.55635
-518.55618
-518.5497
-518.53583
-514.78422
-514.89224
-519.25955
-518.53921
-518.53619
-518.54496
-518.54992
-518.5497
-518.54307
-518.52895
-514.77714
-514.88251
-519.24722
-518.52613
-518.52273
-518.53134
-518.5362
-518.53583
-518.52895
-518.51435
-514.7626
-512.87967
-515.2981
-514.77868
-514.77382
-514.78113
-514.78512
-514.78422
-514.77714
-514.7626
-510.25462
-503.33375
-509.55504
-508.58392
-508.56974
-508.57807
-508.5831
-508.58362
-508.57902
-508.569
-506.38225
-509.55504
-514.02498
-513.23311
-513.22938
-513.2388
-513.24414
-513.24431
-513.23846
-513.22569
-508.93902
-508.58392
-513.23311
-512.46047
-512.45727
-512.46657
-512.47183
-512.47189
-512.46574
-512.45219
-508.38456
-508.56974
-513.22938
-512.45727
-512.45408
-512.46343
-512.46874
-512.46877
-512.4624
-512.44845
-508.37934
-508.57807
-513.2388
-512.46657
-512.46343
-512.47288
-512.4783
-512.47837
-512.47193
-512.45781
-508.38728
-508.5831
-513.24414
-512.47183
-512.46874
-512.4783
-512.48383
-512.48398
-512.47752
-512.46328
-508.3918
-508.58362
-513.24431
-512.47189
-512.46877
-512.47837
-512.48398
-512.48415
-512.47764
-512.46325
-508.39117
-508.57902
-513.23846
-512.46574
-512.4624
-512.47193
-512.47752
-512.47764
-512.47097
-512.4563
-508.384
-508.569
-513.22569
-512.45219
-512.44845
-512.45781
-512.46328
-512.46325
-512.4563
-512.44113
-508.3689
-506.38225
-508.93902
-508.38456
-508.37934
-508.38728
-508.3918
-508.39117
-508.384
-508.3689
-503.46909
-496.66001
-503.22949
-502.19912
-502.18389
-502.19281
-502.19837
-502.19924
-502.19476
-502.18454
-499.83053
-503.22949
-507.94578
-507.10574
-507.10166
-507.11177
-507.11769
-507.11822
-507.11244
-507.09935
-502.50739
-502.19912
-507.10574
-506.28621
-506.28271
-506.29268
-506.29852
-506.29895
-506.29285
-506.27895
-501.9218
-502.18389
-507.10166
-506.28271
-506.27923
-506.28926
-506.29516
-506.29556
-506.28924
-506.27493
-501.91625
-502.19281
-507.11177
-506.29268
-506.28926
-506.29942
-506.30543
-506.30588
-506.29949
-506.285
-501.9248
-502.19837
-507.11769
-506.29852
-506.29516
-506.30543
-506.31157
-506.31209
-506.30568
-506.29107
-501.92983
-502.19924
-507.11822
-506.29895
-506.29556
-506.30588
-506.31209
-506.31265
-506.30618
-506.29141
-501.9295
-502.19476
-507.11244
-506.29285
-506.28924
-506.29949
-506.30568
-506.30618
-506.29954
-506.28446
-501.92232
-502.18454
-507.09935
-506.27895
-506.27493
-506.285
-506.29107
-506.29141
-506.28446
-506.26885
-501.90679
-499.83053
-502.50739
-501.9218
-501.91625
-501.9248
-501.92983
-501.9295
-501.92232
-501.90679
-496.65183
-489.94234
-496.81349
-495.73107
-495.7149
-495.72436
-495.73043
-495.73168
-495.72737
-495.71704
-493.21321
-496.81349
-501.74253
-500.86021
-500.85582
-500.86656
-500.87304
-500.87396
-500.8683
-500.855
-495.99146
-495.73107
-500.86021
-499.99953
-499.99576
-500.00637
-500.01277
-500.01358
-500.0076
-499.99348
-495.37878
-495.7149
-500.85582
-499.99576
-499.99203
-500.00271
-500.00917
-500.00996
-500.00375
-499.9892
-495.37296
-495.72436
-500.86656
-500.00637
-500.00271
-500.01351
-500.0201
-500.02094
-500.01466
-499.99992
-495.38206
-495.73043
-500.87304
-500.01277
-500.00917
-500.0201
-500.02683
-500.02774
-500.02144
-500.00658
-495.38759
-495.73168
-500.87396
-500.01358
-500.00996
-500.02094
-500.02774
-500.02869
-500.02232
-500.00729
-495.38758
-495.72737
-500.8683
-500.0076
-500.00375
-500.01466
-500.02144
-500.02232
-500.01578
-500.00042
-495.38045
-495.71704
-500.855
-499.99348
-499.9892
-499.99992
-500.00658
-500.00729
-500.00042
-499.9845
-495.36461
-493.21321
-495.99146
-495.37878
-495.37296
-495.38206
-495.38759
-495.38758
-495.38045
-495.36461
-489.79289
-483.17212
-490.29724
-489.17021
-489.15322
-489.16317
-489.16973
-489.17136
-489.16725
-489.1569
-486.52137
-490.29724
-495.40467
-494.48615
-494.48148
-494.4928
-494.4998
-494.50112
-494.49564
-494.48224
-489.38196
-489.17021
-494.48615
-493.59026
-493.58626
-493.59744
-493.60436
-493.60557
-493.59976
-493.58551
-488.74637
-489.15322
-494.48148
-493.58626
-493.5823
-493.59356
-493.60056
-493.60174
-493.5957
-493.58102
-488.74031
-489.16317
-494.4928
-493.59744
-493.59356
-493.60495
-493.61209
-493.61332
-493.60721
-493.59233
-488.74992
-489.16973
-494.4998
-493.60436
-493.60056
-493.61209
-493.61936
-493.62067
-493.61454
-493.59953
-488.75591
-489.17136
-494.50112
-493.60557
-493.60174
-493.61332
-493.62067
-493.62202
-493.61581
-493.60062
-488.75623
-489.16725
-494.49564
-493.59976
-493.5957
-493.60721
-493.61454
-493.61581
-493.60942
-493.59389
-488.7492
-489.1569
-494.48224
-493.58551
-493.58102
-493.59233
-493.59953
-493.60062
-493.59389
-493.57777
-488.73318
-486.52137
-489.38196
-488.74637
-488.74031
-488.74992
-488.75591
-488.75623
-488.7492
-488.73318
-482.8845
-476.34285
-483.67339
-482.50939
-482.4917
-482.50208
-482.50909
-482.51109
-482.50721
-482.49691
-479.74832
-483.67339
-488.9243
-487.97581
-487.97091
-487.98272
-487.99022
-487.99193
-487.98666
-487.97326
-482.67202
-482.50939
-487.97581
-487.05078
-487.04658
-487.05826
-487.06568
-487.06727
-487.06168
-487.04742
-482.01778
-482.4917
-487.97091
-487.04658
-487.04244
-487.0542
-487.0617
-487.06327
-487.05745
-487.04274
-482.01152
-482.50208
-487.98272
-487.05826
-487.0542
-487.06611
-487.07375
-487.07538
-487.06948
-487.05457
-482.02157
-482.50909
-487.99022
-487.06568
-487.0617
-487.07375
-487.08152
-487.08323
-487.07731
-487.06226
-482.028
-482.51109
-487.99193
-487.06727
-487.06327
-487.07538
-487.08323
-487.08497
-487.07897
-487.06373
-482.02864
-482.50721
-487.98666
-487.06168
-487.05745
-487.06948
-487.07731
-487.07897
-487.07277
-487.05718
-482.02177
-482.49691
-487.97326
-487.04742
-487.04274
-487.05457
-487.06226
-487.06373
-487.05718
-487.04099
-482.00566
-479.74832
-482.67202
-482.01778
-482.01152
-482.02157
-482.028
-482.02864
-482.02177
-482.00566
-475.92095
-469.44998
-476.9369
-475.74369
-475.72541
-475.73616
-475.74357
-475.74593
-475.74231
-475.73213
-472.88951
-476.9369
-482.29608
-481.32394
-481.31884
-481.33108
-481.33901
-481.3411
-481.33609
-481.32276
-475.85701
-475.74369
-481.32394
-480.37596
-480.37159
-480.3837
-480.39155
-480.39352
-480.38818
-480.37399
-475.18843
-475.72541
-481.31884
-480.37159
-480.36728
-480.37948
-480.38742
-480.38937
-480.3838
-480.36916
-475.18203
-475.73616
-481.33108
-480.3837
-480.37948
-480.39183
-480.39991
-480.40192
-480.39627
-480.38143
-475.19245
-475.74357
-481.33901
-480.39155
-480.38742
-480.39991
-480.40814
-480.41023
-480.40455
-480.38956
-475.19925
-475.74593
-481.3411
-480.39352
-480.38937
-480.40192
-480.41023
-480.41234
-480.40658
-480.3914
-475.20022
-475.74231
-481.33609
-480.38818
-480.3838
-480.39627
-480.40455
-480.40658
-480.40061
-480.38507
-475.19354
-475.73213
-481.32276
-480.37399
-480.36916
-480.38143
-480.38956
-480.3914
-480.38507
-480.3689
-475.17746
-472.88951
-475.85701
-475.18843
-475.18203
-475.19245
-475.19925
-475.20022
-475.19354
-475.17746
-468.89847
-462.49083
-470.08489
-468.87031
-468.85157
-468.86261
-468.87037
-468.87306
-468.86973
-468.85973
-465.9424
-470.08489
-475.51704
-474.52765
-474.52238
-474.53496
-474.54329
-474.54573
-474.541
-474.52784
-468.93441
-468.87031
-474.52765
-473.56295
-473.55844
-473.57089
-473.57913
-473.58146
-473.5764
-473.56237
-468.25587
-468.85157
-474.52238
-473.55844
-473.554
-473.56655
-473.57488
-473.57718
-473.57189
-473.55742
-468.24935
-468.86261
-474.53496
-473.57089
-473.56655
-473.57925
-473.58772
-473.59009
-473.58473
-473.57004
-468.26007
-468.87037
-474.54329
-473.57913
-473.57488
-473.58772
-473.59634
-473.59879
-473.59339
-473.57856
-468.26721
-468.87306
-474.54573
-473.58146
-473.57718
-473.59009
-473.59879
-473.60126
-473.59578
-473.58074
-468.26848
-468.86973
-474.541
-473.5764
-473.57189
-473.58473
-473.59339
-473.59578
-473.59008
-473.57467
-468.26204
-468.85973
-474.52784
-473.56237
-473.55742
-473.57004
-473.57856
-473.58074
-473.57467
-473.55863
-468.24609
-465.9424
-468.93441
-468.25587
-468.24935
-468.26007
-468.26721
-468.26848
-468.26204
-468.24609
-461.81512
-455.46448
-463.11653
-461.88847
-461.86938
-461.88064
-461.88869
-461.8917
-461.88866
-461.8789
-458.90631
-463.11653
-468.5865
-467.58628
-467.58088
-467.59372
-467.60237
-467.60515
-467.60072
-467.5878
-461.90373
-461.88847
-467.58628
-466.61113
-466.6065
-466.61921
-466.62778
-466.63044
-466.62568
-466.6119
-461.21959
-461.86938
-467.58088
-466.6065
-466.60196
-466.61477
-466.62342
-466.62607
-466.62108
-466.60686
-461.21299
-461.88064
-467.59372
-466.61921
-466.61477
-466.62774
-466.63654
-466.63925
-466.63419
-466.61975
-461.22394
-461.88869
-467.60237
-466.62778
-466.62342
-466.63654
-466.64549
-466.64827
-466.64318
-466.62859
-461.23136
-461.8917
-467.60515
-466.63044
-466.62607
-466.63925
-466.64827
-466.65108
-466.64589
-466.63109
-461.23291
-461.88866
-467.60072
-466.62568
-466.62109
-466.63419
-466.64318
-466.64589
-466.64048
-466.62531
-461.22674
-461.8789
-467.5878
-466.6119
-466.60686
-466.61975
-466.62859
-466.63109
-466.62531
-466.60949
-461.21101
-458.90631
-461.90373
-461.21959
-461.21299
-461.22394
-461.23136
-461.23291
-461.22674
-461.21101
-454.67063
-448.37161
-456.03294
-454.79925
-454.77995
-454.79134
-454.79963
-454.80293
-454.80019
-454.79072
-451.78235
-456.03294
-461.50592
-460.50128
-460.49577
-460.50879
-460.5177
-460.52079
-460.51668
-460.50408
-454.76633
-454.79925
-460.50128
-459.5219
-459.5172
-459.53008
-459.53891
-459.54188
-459.53745
-459.52399
-454.08094
-454.77995
-460.49577
-459.5172
-459.51257
-459.52557
-459.53448
-459.53744
-459.53278
-459.51888
-454.07431
-454.79134
-460.50879
-459.53008
-459.52557
-459.53872
-459.54778
-459.5508
-459.54607
-459.53195
-454.08541
-454.79963
-460.5177
-459.53891
-459.53448
-459.54778
-459.55699
-459.56009
-459.55531
-459.54105
-454.09305
-454.80293
-460.52079
-459.54188
-459.53744
-459.5508
-459.56009
-459.5632
-459.55833
-459.54385
-454.09488
-454.80019
-460.51668
-459.53745
-459.53278
-459.54607
-459.55531
-459.55833
-459.55324
-459.53838
-454.089
-454.79072
-460.50408
-459.52399
-459.51888
-459.53195
-459.54105
-459.54385
-459.53838
-459.52287
-454.07358
-451.78235
-454.76633
-454.08094
-454.07431
-454.08541
-454.09305
-454.09488
-454.089
-454.07358
-447.46635
-441.21446
-448.83704
-447.60552
-447.58612
-447.59758
-447.60605
-447.6096
-447.60717
-447.59804
-444.57325
-448.83704
-454.27879
-453.27606
-453.27049
-453.2836
-453.29271
-453.29607
-453.2923
-453.28007
-447.52535
-447.60552
-453.27606
-452.29865
-452.2939
-452.30687
-452.31589
-452.31914
-452.31506
-452.30199
-446.84302
-447.58612
-453.27049
-452.2939
-452.28922
-452.30231
-452.31143
-452.31466
-452.31035
-452.29685
-446.83639
-447.59758
-453.2836
-452.30687
-452.30231
-452.31555
-452.32482
-452.32811
-452.32372
-452.31001
-446.84756
-447.60605
-453.29271
-452.31589
-452.31143
-452.32482
-452.33423
-452.3376
-452.33317
-452.31929
-446.85537
-447.6096
-453.29607
-452.31914
-452.31466
-452.32811
-452.3376
-452.34098
-452.33645
-452.32236
-446.85745
-447.60717
-453.2923
-452.31506
-452.31035
-452.32372
-452.33317
-452.33645
-452.3317
-452.31723
-446.85189
-447.59804
-453.28007
-452.30199
-452.29685
-452.31001
-452.31929
-452.32236
-452.31723
-452.30212
-446.83686
-444.57325
-447.52535
-446.84302
-446.83639
-446.84756
-446.85537
-446.85745
-446.85189
-446.83686
-440.2051
-433.99666
-441.53345
-440.31177
-440.2924
-440.30385
-440.31244
-440.31621
-440.3141
-440.30535
-437.2833
-441.53345
-446.91047
-445.9159
-445.91031
-445.92342
-445.93266
-445.93627
-445.93285
-445.92106
-440.18555
-440.31177
-445.9159
-444.94655
-444.94177
-444.95475
-444.96391
-444.96741
-444.96367
-444.95107
-439.5105
-440.2924
-445.91031
-444.94177
-444.93708
-444.95017
-444.95943
-444.96291
-444.95896
-444.94593
-439.50393
-440.30385
-445.92342
-444.95475
-444.95017
-444.96342
-444.97282
-444.97637
-444.97234
-444.95909
-439.5151
-440.31244
-445.93266
-444.96391
-444.95943
-444.97282
-444.98236
-444.98598
-444.9819
-444.9685
-439.52302
-440.31621
-445.93627
-444.96741
-444.96291
-444.97637
-444.98598
-444.9896
-444.98543
-444.97181
-439.52532
-440.3141
-445.93285
-444.96367
-444.95896
-444.97234
-444.9819
-444.98543
-444.98103
-444.96703
-439.52011
-440.30535
-445.92106
-444.95107
-444.94593
-444.95909
-444.9685
-444.97181
-444.96703
-444.95239
-439.50555
-437.2833
-440.18555
-439.5105
-439.50393
-439.5151
-439.52302
-439.52532
-439.52011
-439.50555
-432.89102
-426.72315
-434.12834
-432.92404
-432.90481
-432.91618
-432.92483
-432.9288
-432.92699
-432.91866
-429.91819
-434.12834
-439.40807
-438.42779
-438.4222
-438.43523
-438.44454
-438.44836
-438.4453
-438.43401
-432.7532
-432.92404
-438.42779
-437.47246
-437.46769
-437.48059
-437.48981
-437.49353
-437.49016
-437.47808
-432.08958
-432.90481
-438.4222
-437.46769
-437.46301
-437.47603
-437.48535
-437.48905
-437.48547
-437.47297
-432.08309
-432.91618
-438.43523
-437.48059
-437.47603
-437.48919
-437.49866
-437.50242
-437.49876
-437.48606
-432.0942
-432.92483
-438.44454
-437.48981
-437.48535
-437.49866
-437.50826
-437.51209
-437.50839
-437.49553
-432.10218
-432.9288
-438.44836
-437.49353
-437.48905
-437.50242
-437.51209
-437.51593
-437.51213
-437.49904
-432.10468
-432.92699
-438.4453
-437.49016
-437.48547
-437.49876
-437.50839
-437.51213
-437.50809
-437.49464
-432.09983
-432.91866
-438.43401
-437.47808
-437.47297
-437.48606
-437.49553
-437.49904
-437.49464
-437.48055
-432.08582
-429.91819
-432.7532
-432.08958
-432.08309
-432.0942
-432.10218
-432.10468
-432.09983
-432.08582
-425.52955
-419.40006
-426.62935
-425.44973
-425.43078
-425.442
-425.45065
-425.45477
-425.45328
-425.44542
-422.48489
-426.62935
-431.78033
-430.82029
-430.81476
-430.82762
-430.83693
-430.84094
-430.83823
-430.82749
-425.23596
-425.44973
-430.82029
-429.88478
-429.88006
-429.89279
-429.90203
-429.90593
-429.90293
-429.89142
-424.58779
-425.43078
-430.81476
-429.88006
-429.87543
-429.88828
-429.89761
-429.9015
-429.89829
-429.88639
-424.58144
-425.442
-430.82762
-429.89279
-429.88828
-429.90128
-429.91075
-429.9147
-429.91142
-429.89931
-424.5924
-425.45065
-430.83693
-429.90203
-429.89761
-429.91075
-429.92036
-429.92437
-429.92104
-429.90878
-424.60038
-425.45477
-430.84094
-429.90593
-429.9015
-429.9147
-429.92437
-429.92838
-429.92495
-429.91247
-424.60306
-425.45328
-430.83823
-429.90293
-429.89829
-429.91142
-429.92104
-429.92495
-429.9213
-429.90845
-424.59859
-425.44542
-430.82749
-429.89142
-429.88639
-429.89931
-429.90878
-429.91247
-429.90845
-429.89498
-424.5852
-422.48489
-425.23596
-424.58779
-424.58144
-424.5924
-424.60038
-424.60306
-424.59859
-424.5852
-418.12721
-412.03462
-419.04542
-417.89758
-417.87903
-417.89002
-417.8986
-417.90285
-417.90167
-417.8943
-414.99158
-419.04542
-424.03748
-423.10344
-423.09799
-423.11061
-423.11986
-423.12402
-423.12167
-423.11154
-417.64276
-417.89758
-423.10344
-422.19336
-422.18871
-422.2012
-422.21038
-422.21443
-422.21181
-422.20094
-417.01392
-417.87903
-423.09799
-422.18871
-422.18416
-422.19677
-422.20604
-422.21008
-422.20726
-422.196
-417.00774
-417.89002
-423.11061
-422.2012
-422.19677
-422.20953
-422.21894
-422.22303
-422.22014
-422.20868
-417.0185
-417.8986
-423.11986
-422.21038
-422.20604
-422.21894
-422.22847
-422.23263
-422.22969
-422.21808
-417.02643
-417.90285
-423.12402
-422.21443
-422.21008
-422.22303
-422.23263
-422.23679
-422.23374
-422.22192
-417.02926
-417.90167
-423.12167
-422.21181
-422.20726
-422.22014
-422.22969
-422.23374
-422.23048
-422.2183
-417.02518
-417.8943
-423.11154
-422.20094
-422.196
-422.20868
-422.21808
-422.22192
-422.21829
-422.20551
-417.01247
-414.99158
-417.64276
-417.01392
-417.00774
-417.0185
-417.02643
-417.02926
-417.02518
-417.01247
-410.69158
-404.63502
-411.3867
-410.27743
-410.2594
-410.2701
-410.27857
-410.2829
-410.28202
-410.27517
-407.44748
-411.3867
-416.19109
-415.28859
-415.28326
-415.29555
-415.30468
-415.30895
-415.30697
-415.29747
-409.98366
-410.27743
-415.28859
-414.40931
-414.40476
-414.41694
-414.426
-414.43016
-414.42791
-414.41772
-409.37787
-410.2594
-415.28326
-414.40476
-414.40032
-414.41261
-414.42177
-414.42592
-414.42349
-414.41293
-409.37191
-410.2701
-415.29555
-414.41694
-414.41261
-414.42505
-414.43434
-414.43855
-414.43604
-414.42529
-409.38239
-410.27857
-415.30468
-414.426
-414.42177
-414.43434
-414.44375
-414.44801
-414.44546
-414.43456
-409.39022
-410.2829
-415.30895
-414.43016
-414.42592
-414.43855
-414.44801
-414.45227
-414.44962
-414.43851
-409.39318
-410.28202
-415.30697
-414.42791
-414.42349
-414.43604
-414.44546
-414.44962
-414.44675
-414.43529
-409.3895
-410.27517
-415.29747
-414.41772
-414.41293
-414.42529
-414.43456
-414.43851
-414.43529
-414.42324
-409.37753
-407.44748
-409.98366
-409.37787
-409.37191
-409.38239
-409.39022
-409.39318
-409.3895
-409.37753
-403.23113
-397.21033
-403.6644
-402.6002
-402.58279
-402.59314
-402.60143
-402.60582
-402.60523
-402.59893
-399.86275
-403.6644
-408.25395
-407.38824
-407.38308
-407.39497
-407.40392
-407.40825
-407.40663
-407.39782
-402.26975
-402.6002
-407.38824
-406.5449
-406.54049
-406.55228
-406.56116
-406.5654
-406.56352
-406.55405
-401.69054
-402.58279
-407.38308
-406.54049
-406.5362
-406.54809
-406.55706
-406.5613
-406.55925
-406.54943
-401.68484
-402.59314
-407.39497
-406.55228
-406.54809
-406.56013
-406.56923
-406.57352
-406.5714
-406.56139
-401.69498
-402.60143
-407.40392
-406.56116
-406.55706
-406.56923
-406.57844
-406.58278
-406.58062
-406.57047
-401.70266
-402.60582
-407.40825
-406.5654
-406.5613
-406.57352
-406.58278
-406.58712
-406.58485
-406.5745
-401.70571
-402.60523
-407.40663
-406.56352
-406.55925
-406.5714
-406.58062
-406.58485
-406.58237
-406.57168
-401.70245
-402.59893
-407.39782
-406.55405
-406.54943
-406.56139
-406.57047
-406.5745
-406.57168
-406.56043
-401.69126
-399.86275
-402.26975
-401.69054
-401.68484
-401.69498
-401.70266
-401.70571
-401.70245
-401.69126
-395.75513
-389.77038
-395.89068
-394.87768
-394.86101
-394.87094
-394.879
-394.8834
-394.8831
-394.87736
-392.24839
-395.89068
-400.23992
-399.41599
-399.41102
-399.42243
-399.43114
-399.4355
-399.43423
-399.42613
-394.51299
-394.87768
-399.41599
-398.61342
-398.60919
-398.6205
-398.62914
-398.63342
-398.63191
-398.62319
-393.96369
-394.86101
-399.41102
-398.60919
-398.60506
-398.61648
-398.62521
-398.62949
-398.62782
-398.61877
-393.95829
-394.87094
-399.42243
-398.6205
-398.61648
-398.62805
-398.6369
-398.64122
-398.63949
-398.63027
-393.96804
-394.879
-399.43114
-398.62914
-398.62521
-398.6369
-398.64586
-398.65023
-398.64845
-398.63909
-393.9755
-394.8834
-399.4355
-398.63342
-398.62949
-398.64122
-398.65023
-398.6546
-398.65272
-398.64316
-393.97862
-394.8831
-399.43423
-398.63191
-398.62782
-398.63949
-398.64845
-398.65272
-398.65063
-398.64075
-393.97577
-394.87736
-399.42613
-398.62319
-398.61877
-398.63027
-398.63909