/*--------------------------------*- C++ -*----------------------------------*\
| =========                 |                                                 |
| \\      /  F ield         | OpenFOAM: The Open Source CFD Toolbox           |
|  \\    /   O peration     | Version:  v2106                                 |
|   \\  /    A nd           | Website:  www.openfoam.com                      |
|    \\/     M anipulation  |                                                 |
\*---------------------------------------------------------------------------*/
FoamFile
{
    version     2.0;
    format      ascii;
    arch        "LSB;label=32;scalar=64";
    class       volScalarField;
    location    "60";
    object      laplacianT;
}
// * * * * * * * * * * * * * * * * * * * * * * * * * * * * * * * * * * * * * //

dimensions      [0 -2 0 1 0 0 0];

internalField   nonuniform List<scalar> 
4000
(
94581.068
94580.643
94580.377
94580.331
94580.316
94580.339
94580.399
94580.502
94580.653
94580.827
94580.643
94580.209
94580.024
94579.983
94579.971
94579.993
94580.051
94580.15
94580.31
94580.547
94580.377
94580.024
94579.848
94579.813
94579.803
94579.824
94579.878
94579.97
94580.114
94580.352
94580.331
94579.983
94579.813
94579.783
94579.773
94579.794
94579.844
94579.93
94580.067
94580.295
94580.316
94579.971
94579.803
94579.773
94579.764
94579.783
94579.832
94579.915
94580.048
94580.273
94580.339
94579.993
94579.824
94579.794
94579.783
94579.801
94579.849
94579.931
94580.064
94580.288
94580.399
94580.051
94579.878
94579.844
94579.832
94579.849
94579.896
94579.979
94580.114
94580.34
94580.502
94580.15
94579.97
94579.93
94579.915
94579.931
94579.979
94580.066
94580.205
94580.436
94580.653
94580.31
94580.114
94580.067
94580.048
94580.064
94580.114
94580.205
94580.353
94580.594
94580.827
94580.547
94580.352
94580.295
94580.273
94580.288
94580.34
94580.436
94580.594
94580.851
-5056.4919
-5053.0928
-5054.198
-5054.1497
-5054.1447
-5054.1472
-5054.1539
-5054.1647
-5054.1774
-5054.2131
-5053.0928
-5051.4311
-5052.1998
-5052.1573
-5052.1532
-5052.1553
-5052.1598
-5052.1599
-5052.1252
-5052.7637
-5054.198
-5052.1998
-5052.9807
-5052.9405
-5052.9368
-5052.939
-5052.9433
-5052.9398
-5052.8534
-5053.2266
-5054.1497
-5052.1573
-5052.9405
-5052.9009
-5052.8973
-5052.8993
-5052.9037
-5052.902
-5052.8236
-5053.2106
-5054.1447
-5052.1532
-5052.9368
-5052.8973
-5052.8937
-5052.8956
-5052.8996
-5052.8974
-5052.8187
-5053.2065
-5054.1472
-5052.1553
-5052.939
-5052.8993
-5052.8956
-5052.8973
-5052.9012
-5052.8989
-5052.82
-5053.2078
-5054.1539
-5052.1598
-5052.9433
-5052.9037
-5052.8996
-5052.9012
-5052.9051
-5052.9029
-5052.8242
-5053.2122
-5054.1647
-5052.1599
-5052.9398
-5052.902
-5052.8974
-5052.8989
-5052.9029
-5052.9011
-5052.8229
-5053.2113
-5054.1774
-5052.1252
-5052.8534
-5052.8236
-5052.8187
-5052.82
-5052.8242
-5052.8229
-5052.7455
-5053.1347
-5054.2131
-5052.7637
-5053.2266
-5053.2106
-5053.2065
-5053.2078
-5053.2122
-5053.2113
-5053.1347
-5053.5439
-4540.2017
-4535.6508
-4537.251
-4537.1869
-4537.1807
-4537.1827
-4537.187
-4537.1882
-4537.1612
-4537.8939
-4535.6508
-4533.4671
-4534.594
-4534.537
-4534.5319
-4534.5333
-4534.5335
-4534.5059
-4534.2866
-4535.982
-4537.251
-4534.594
-4535.7351
-4535.6809
-4535.6762
-4535.6778
-4535.6791
-4535.6512
-4535.3522
-4536.6246
-4537.1869
-4534.537
-4535.6809
-4535.6272
-4535.6226
-4535.6241
-4535.6255
-4535.6012
-4535.3157
-4536.6077
-4537.1807
-4534.5319
-4535.6762
-4535.6226
-4535.6179
-4535.6192
-4535.6202
-4535.5954
-4535.3098
-4536.6034
-4537.1827
-4534.5333
-4535.6778
-4535.6241
-4535.6192
-4535.6204
-4535.6212
-4535.5962
-4535.3105
-4536.6041
-4537.187
-4534.5335
-4535.6791
-4535.6255
-4535.6202
-4535.6212
-4535.622
-4535.5972
-4535.3115
-4536.6052
-4537.1882
-4534.5059
-4535.6512
-4535.6012
-4535.5954
-4535.5962
-4535.5972
-4535.5726
-4535.2871
-4536.5799
-4537.1612
-4534.2866
-4535.3522
-4535.3157
-4535.3098
-4535.3105
-4535.3115
-4535.2871
-4535.0004
-4536.2895
-4537.8939
-4535.982
-4536.6246
-4536.6077
-4536.6034
-4536.6041
-4536.6052
-4536.5799
-4536.2895
-4537.9493
-4112.4369
-4106.8268
-4108.8787
-4108.7993
-4108.7919
-4108.7934
-4108.7948
-4108.7793
-4108.6443
-4109.8686
-4106.8268
-4104.1606
-4105.6129
-4105.5419
-4105.5358
-4105.5367
-4105.5331
-4105.4766
-4105.0168
-4107.5703
-4108.8787
-4105.6129
-4107.0814
-4107.0137
-4107.0081
-4107.0093
-4107.0077
-4106.9542
-4106.3862
-4108.3734
-4108.7993
-4105.5419
-4107.0137
-4106.9466
-4106.941
-4106.942
-4106.9406
-4106.8926
-4106.3431
-4108.3554
-4108.7919
-4105.5358
-4107.0081
-4106.941
-4106.9353
-4106.9361
-4106.9342
-4106.8855
-4106.3363
-4108.3508
-4108.7934
-4105.5367
-4107.0093
-4106.942
-4106.9361
-4106.9367
-4106.9346
-4106.8858
-4106.3364
-4108.3509
-4108.7948
-4105.5331
-4107.0077
-4106.9406
-4106.9342
-4106.9346
-4106.9326
-4106.8838
-4106.3344
-4108.3485
-4108.7793
-4105.4766
-4106.9542
-4106.8926
-4106.8855
-4106.8858
-4106.8838
-4106.835
-4106.2847
-4108.2943
-4108.6443
-4105.0168
-4106.3862
-4106.3431
-4106.3363
-4106.3364
-4106.3344
-4106.2847
-4105.7274
-4107.7052
-4109.8686
-4107.5703
-4108.3734
-4108.3554
-4108.3508
-4108.3509
-4108.3485
-4108.2943
-4107.7052
-4110.5568
-3752.5634
-3746.0356
-3748.5062
-3748.411
-3748.4023
-3748.4033
-3748.4022
-3748.372
-3748.1299
-3749.7638
-3746.0356
-3742.9841
-3744.7344
-3744.6492
-3744.6421
-3744.6424
-3744.6353
-3744.5524
-3743.8564
-3747.1346
-3748.5062
-3744.7344
-3746.5033
-3746.4219
-3746.4153
-3746.4161
-3746.4121
-3746.3356
-3745.5045
-3748.0847
-3748.411
-3744.6492
-3746.4219
-3746.3412
-3746.3345
-3746.3351
-3746.3313
-3746.2621
-3745.4545
-3748.0653
-3748.4023
-3744.6421
-3746.4153
-3746.3345
-3746.3277
-3746.328
-3746.3236
-3746.2537
-3745.4466
-3748.0604
-3748.4033
-3744.6424
-3746.4161
-3746.3351
-3746.328
-3746.328
-3746.3234
-3746.2533
-3745.446
-3748.0599
-3748.4022
-3744.6353
-3746.4121
-3746.3313
-3746.3236
-3746.3234
-3746.3188
-3746.2488
-3745.4413
-3748.0542
-3748.372
-3744.5524
-3746.3356
-3746.2621
-3746.2537
-3746.2533
-3746.2488
-3746.1786
-3745.3691
-3747.9732
-3748.1299
-3743.8564
-3745.5045
-3745.4545
-3745.4466
-3745.446
-3745.4413
-3745.3691
-3744.546
-3747.0792
-3749.7638
-3747.1346
-3748.0847
-3748.0653
-3748.0604
-3748.0599
-3748.0542
-3747.9732
-3747.0792
-3750.9916
-3445.806
-3438.5052
-3441.3594
-3441.2483
-3441.2381
-3441.2385
-3441.2349
-3441.1906
-3440.845
-3442.8233
-3438.5052
-3435.1632
-3437.1834
-3437.0837
-3437.0754
-3437.0751
-3437.0647
-3436.9567
-3436.0336
-3439.9164
-3441.3594
-3437.1834
-3439.2247
-3439.1295
-3439.1217
-3439.122
-3439.1156
-3439.0177
-3437.9352
-3440.9999
-3441.2483
-3437.0837
-3439.1295
-3439.035
-3439.0271
-3439.0271
-3439.021
-3438.9322
-3437.878
-3440.9789
-3441.2381
-3437.0754
-3439.1217
-3439.0271
-3439.0191
-3439.0187
-3439.0119
-3438.9224
-3437.8689
-3440.9734
-3441.2385
-3437.0751
-3439.122
-3439.0271
-3439.0187
-3439.0181
-3439.0112
-3438.9214
-3437.8675
-3440.9722
-3441.2349
-3437.0647
-3439.1156
-3439.021
-3439.0119
-3439.0112
-3439.0041
-3438.9143
-3437.8602
-3440.9635
-3441.1906
-3436.9567
-3439.0177
-3438.9322
-3438.9224
-3438.9214
-3438.9143
-3438.8241
-3437.767
-3440.8572
-3440.845
-3436.0336
-3437.9352
-3437.878
-3437.8689
-3437.8675
-3437.8602
-3437.767
-3436.6896
-3439.6668
-3442.8233
-3439.9164
-3440.9999
-3440.9789
-3440.9734
-3440.9722
-3440.9635
-3440.8572
-3439.6668
-3444.5086
-3181.2547
-3173.3152
-3176.5169
-3176.3898
-3176.378
-3176.3778
-3176.3719
-3176.314
-3175.8692
-3178.1329
-3173.3152
-3169.7662
-3172.0278
-3171.9138
-3171.9042
-3171.9032
-3171.8897
-3171.7579
-3170.6191
-3174.9974
-3176.5169
-3172.0278
-3174.313
-3174.2041
-3174.1951
-3174.1949
-3174.1864
-3174.0685
-3172.7486
-3176.2007
-3176.3898
-3171.9138
-3174.2041
-3174.0959
-3174.0868
-3174.0862
-3174.0781
-3173.9711
-3172.6842
-3176.1776
-3176.378
-3171.9042
-3174.1951
-3174.0868
-3174.0774
-3174.0764
-3174.0675
-3173.9598
-3172.6737
-3176.1716
-3176.3778
-3171.9032
-3174.1949
-3174.0862
-3174.0764
-3174.0752
-3174.066
-3173.958
-3172.6716
-3176.1696
-3176.3719
-3171.8897
-3174.1864
-3174.0781
-3174.0675
-3174.066
-3174.0567
-3173.9486
-3172.6617
-3176.158
-3176.314
-3171.7579
-3174.0685
-3173.9711
-3173.9598
-3173.958
-3173.9486
-3173.8399
-3172.549
-3176.0278
-3175.8692
-3170.6191
-3172.7486
-3172.6842
-3172.6737
-3172.6716
-3172.6617
-3172.549
-3171.2313
-3174.5541
-3178.1329
-3174.9974
-3176.2007
-3176.1776
-3176.1716
-3176.1696
-3176.158
-3176.0278
-3174.5541
-3180.2009
-2950.6888
-2942.2349
-2945.747
-2945.6043
-2945.5909
-2945.59
-2945.5818
-2945.5112
-2944.9723
-2947.4678
-2942.2349
-2938.5517
-2941.0263
-2940.8983
-2940.8873
-2940.8857
-2940.8692
-2940.7152
-2939.374
-2944.1493
-2945.747
-2941.0263
-2943.5271
-2943.4047
-2943.3944
-2943.3937
-2943.3832
-2943.2471
-2941.7057
-2945.4583
-2945.6043
-2940.8983
-2943.4047
-2943.2831
-2943.2727
-2943.2715
-2943.2615
-2943.138
-2941.634
-2945.4332
-2945.5909
-2940.8873
-2943.3944
-2943.2727
-2943.2619
-2943.2604
-2943.2495
-2943.1251
-2941.6221
-2945.4264
-2945.59
-2940.8857
-2943.3937
-2943.2715
-2943.2604
-2943.2586
-2943.2474
-2943.1226
-2941.6193
-2945.4237
-2945.5818
-2940.8692
-2943.3832
-2943.2615
-2943.2495
-2943.2474
-2943.236
-2943.1111
-2941.6072
-2945.4094
-2945.5112
-2940.7152
-2943.2471
-2943.138
-2943.1251
-2943.1226
-2943.1111
-2942.9854
-2941.4764
-2945.257
-2944.9723
-2939.374
-2941.7057
-2941.634
-2941.6221
-2941.6193
-2941.6072
-2941.4764
-2939.9342
-2943.5159
-2947.4678
-2944.1493
-2945.4583
-2945.4332
-2945.4264
-2945.4237
-2945.4094
-2945.257
-2943.5159
-2949.8507
-2747.8143
-2738.9603
-2742.7456
-2742.5878
-2742.5727
-2742.5712
-2742.561
-2742.4783
-2741.8513
-2744.5301
-2738.9603
-2735.2065
-2737.8657
-2737.7243
-2737.7119
-2737.7096
-2737.6905
-2737.5159
-2735.9868
-2741.0702
-2742.7456
-2737.8657
-2740.5537
-2740.4185
-2740.4069
-2740.4057
-2740.3935
-2740.2409
-2738.4952
-2742.4711
-2742.5878
-2737.7243
-2740.4185
-2740.2842
-2740.2723
-2740.2707
-2740.259
-2740.1205
-2738.4164
-2742.4438
-2742.5727
-2737.7119
-2740.4069
-2740.2723
-2740.2603
-2740.2581
-2740.2454
-2740.106
-2738.4031
-2742.4364
-2742.5712
-2737.7096
-2740.4057
-2740.2707
-2740.2581
-2740.2558
-2740.2427
-2740.1029
-2738.3996
-2742.4329
-2742.561
-2737.6905
-2740.3935
-2740.259
-2740.2454
-2740.2427
-2740.2295
-2740.0895
-2738.3854
-2742.4162
-2742.4783
-2737.5159
-2740.2409
-2740.1205
-2740.106
-2740.1029
-2740.0895
-2739.9485
-2738.2383
-2742.2433
-2741.8513
-2735.9868
-2738.4952
-2738.4164
-2738.4031
-2738.3996
-2738.3854
-2738.2383
-2736.4886
-2740.2526
-2744.5301
-2741.0702
-2742.4711
-2742.4438
-2742.4364
-2742.4329
-2742.4162
-2742.2433
-2740.2526
-2747.1664
-2567.743
-2558.5944
-2562.6153
-2562.4433
-2562.4265
-2562.4244
-2562.4123
-2562.3185
-2561.6098
-2564.428
-2558.5944
-2554.8245
-2557.6407
-2557.4866
-2557.4728
-2557.47
-2557.4485
-2557.2551
-2555.5537
-2560.8651
-2562.6153
-2557.6407
-2560.4881
-2560.3408
-2560.3278
-2560.3262
-2560.3126
-2560.1452
-2558.2132
-2562.3441
-2562.4433
-2557.4866
-2560.3408
-2560.1943
-2560.1812
-2560.179
-2560.1659
-2560.0141
-2558.1277
-2562.3147
-2562.4265
-2557.4728
-2560.3278
-2560.1812
-2560.1678
-2560.1651
-2560.1509
-2559.9981
-2558.113
-2562.3065
-2562.4244
-2557.47
-2560.3262
-2560.179
-2560.1651
-2560.1622
-2560.1476
-2559.9944
-2558.1088
-2562.3024
-2562.4123
-2557.4485
-2560.3126
-2560.1659
-2560.1509
-2560.1476
-2560.1328
-2559.9793
-2558.0928
-2562.2835
-2562.3185
-2557.2551
-2560.1452
-2560.0141
-2559.9981
-2559.9944
-2559.9793
-2559.8246
-2557.9311
-2562.0919
-2561.6098
-2555.5537
-2558.2132
-2558.1277
-2558.113
-2558.1088
-2558.0928
-2557.9311
-2555.9922
-2559.8712
-2564.428
-2560.8651
-2562.3441
-2562.3147
-2562.3065
-2562.3024
-2562.2835
-2562.0919
-2559.8712
-2567.2623
-2406.631
-2397.2843
-2401.5038
-2401.3184
-2401.3001
-2401.2974
-2401.2835
-2401.1796
-2400.3963
-2403.3141
-2397.2843
-2393.5454
-2396.4913
-2396.3255
-2396.3104
-2396.307
-2396.2834
-2396.0732
-2394.2159
-2399.6833
-2401.5038
-2396.4913
-2399.4708
-2399.3122
-2399.298
-2399.296
-2399.2811
-2399.1007
-2397.0016
-2401.2268
-2401.3184
-2396.3255
-2399.3122
-2399.1547
-2399.1403
-2399.1376
-2399.1232
-2398.9598
-2396.9098
-2401.1955
-2401.3001
-2396.3104
-2399.298
-2399.1403
-2399.1256
-2399.1224
-2399.1068
-2398.9423
-2396.8937
-2401.1865
-2401.2974
-2396.307
-2399.296
-2399.1376
-2399.1224
-2399.119
-2399.103
-2398.9381
-2396.8889
-2401.1819
-2401.2835
-2396.2834
-2399.2811
-2399.1232
-2399.1068
-2399.103
-2399.0869
-2398.9216
-2396.8713
-2401.1609
-2401.1796
-2396.0732
-2399.1007
-2398.9598
-2398.9423
-2398.9381
-2398.9216
-2398.7549
-2396.6967
-2400.9527
-2400.3963
-2394.2159
-2397.0016
-2396.9098
-2396.8937
-2396.8889
-2396.8713
-2396.6967
-2394.5875
-2398.5226
-2403.3141
-2399.6833
-2401.2268
-2401.1955
-2401.1865
-2401.1819
-2401.1609
-2400.9527
-2398.5226
-2406.2965
-2261.4214
-2251.965
-2256.3463
-2256.1488
-2256.1291
-2256.1258
-2256.1104
-2255.9973
-2255.1466
-2258.1285
-2251.965
-2248.297
-2251.3462
-2251.1697
-2251.1534
-2251.1495
-2251.124
-2250.8989
-2248.9028
-2254.4618
-2256.3463
-2251.3462
-2254.4312
-2254.2624
-2254.247
-2254.2446
-2254.2287
-2254.0372
-2251.7901
-2256.0566
-2256.1488
-2251.1697
-2254.2624
-2254.0947
-2254.0791
-2254.0761
-2254.0606
-2253.8872
-2251.6925
-2256.0233
-2256.1291
-2251.1534
-2254.247
-2254.0791
-2254.0633
-2254.0597
-2254.0429
-2253.8684
-2251.6753
-2256.0137
-2256.1258
-2251.1495
-2254.2446
-2254.0761
-2254.0597
-2254.0558
-2254.0387
-2253.8637
-2251.6699
-2256.0085
-2256.1104
-2251.124
-2254.2287
-2254.0606
-2254.0429
-2254.0387
-2254.0213
-2253.846
-2251.651
-2255.9859
-2255.9973
-2250.8989
-2254.0372
-2253.8872
-2253.8684
-2253.8637
-2253.846
-2253.6689
-2251.4652
-2255.763
-2255.1466
-2248.9028
-2251.7901
-2251.6925
-2251.6753
-2251.6699
-2251.651
-2251.4652
-2249.2051
-2253.145
-2258.1285
-2254.4618
-2256.0566
-2256.0233
-2256.0137
-2256.0085
-2255.9859
-2255.763
-2253.145
-2261.2139
-2129.659
-2120.1735
-2124.6806
-2124.4724
-2124.4513
-2124.4476
-2124.4308
-2124.3095
-2123.3991
-2126.413
-2120.1735
-2116.6099
-2119.7369
-2119.5509
-2119.5334
-2119.5291
-2119.502
-2119.2641
-2117.1466
-2122.7397
-2124.6806
-2119.7369
-2122.9015
-2122.7237
-2122.7073
-2122.7045
-2122.6878
-2122.4869
-2120.1116
-2124.3728
-2124.4724
-2119.5509
-2122.7237
-2122.547
-2122.5304
-2122.527
-2122.5107
-2122.3289
-2120.0089
-2124.3378
-2124.4513
-2119.5334
-2122.7073
-2122.5304
-2122.5135
-2122.5095
-2122.4918
-2122.3089
-2119.9905
-2124.3276
-2124.4476
-2119.5291
-2122.7045
-2122.527
-2122.5095
-2122.5052
-2122.4871
-2122.3037
-2119.9846
-2124.3219
-2124.4308
-2119.502
-2122.6878
-2122.5107
-2122.4918
-2122.4871
-2122.4688
-2122.285
-2119.9645
-2124.2978
-2124.3095
-2119.2641
-2122.4869
-2122.3289
-2122.3089
-2122.3037
-2122.285
-2122.0994
-2119.7694
-2124.0623
-2123.3991
-2117.1466
-2120.1116
-2120.0089
-2119.9905
-2119.9846
-2119.9645
-2119.7694
-2117.3782
-2121.2788
-2126.413
-2122.7397
-2124.3728
-2124.3378
-2124.3276
-2124.3219
-2124.2978
-2124.0623
-2121.2788
-2129.5612
-2009.3545
-1999.9131
-2004.5111
-2004.2934
-2004.2711
-2004.267
-2004.2489
-2004.1207
-2003.1583
-2006.1755
-1999.9131
-1996.4815
-1999.6617
-1999.4675
-1999.449
-1999.4443
-1999.4159
-1999.1672
-1996.9459
-2002.5222
-2004.5111
-1999.6617
-2002.8813
-2002.6957
-2002.6782
-2002.6752
-2002.6578
-2002.4493
-1999.9656
-2004.1811
-2004.2934
-1999.4675
-2002.6957
-2002.5112
-2002.4936
-2002.4898
-2002.4729
-2002.2844
-1999.8584
-2004.1445
-2004.2711
-1999.449
-2002.6782
-2002.4936
-2002.4757
-2002.4714
-2002.453
-2002.2633
-1999.8389
-2004.1337
-2004.267
-1999.4443
-2002.6752
-2002.4898
-2002.4714
-2002.4668
-2002.4479
-2002.2578
-1999.8327
-2004.1276
-2004.2489
-1999.4159
-2002.6578
-2002.4729
-2002.453
-2002.4479
-2002.4289
-2002.2383
-1999.8117
-2004.1024
-2004.1207
-1999.1672
-2002.4493
-2002.2844
-2002.2633
-2002.2578
-2002.2383
-2002.0456
-1999.6088
-2003.8562
-2003.1583
-1996.9459
-1999.9656
-1999.8584
-1999.8389
-1999.8327
-1999.8117
-1999.6088
-1997.1065
-2000.9299
-2006.1755
-2002.5222
-2004.1811
-2004.1445
-2004.1337
-2004.1276
-2004.1024
-2003.8562
-2000.9299
-2009.3508
-1898.8832
-1889.552
-1894.2068
-1893.9813
-1893.958
-1893.9534
-1893.9344
-1893.8002
-1892.7937
-1895.7888
-1889.552
-1886.275
-1889.4848
-1889.2837
-1889.2644
-1889.2593
-1889.2298
-1888.9723
-1886.6649
-1892.1794
-1894.2068
-1889.4848
-1892.7354
-1892.5433
-1892.5251
-1892.5217
-1892.5039
-1892.2895
-1889.7172
-1893.8521
-1893.9813
-1889.2837
-1892.5433
-1892.3524
-1892.3339
-1892.3299
-1892.3124
-1892.1188
-1889.6061
-1893.8141
-1893.958
-1889.2644
-1892.5251
-1892.3339
-1892.3152
-1892.3106
-1892.2916
-1892.0968
-1889.5858
-1893.8029
-1893.9534
-1889.2593
-1892.5217
-1892.3299
-1892.3106
-1892.3057
-1892.2863
-1892.0909
-1889.5792
-1893.7964
-1893.9344
-1889.2298
-1892.5039
-1892.3124
-1892.2916
-1892.2863
-1892.2666
-1892.0708
-1889.5575
-1893.7702
-1893.8002
-1888.9723
-1892.2895
-1892.1188
-1892.0968
-1892.0909
-1892.0708
-1891.8728
-1889.3487
-1893.5154
-1892.7937
-1886.6649
-1889.7172
-1889.6061
-1889.5858
-1889.5792
-1889.5575
-1889.3487
-1886.7552
-1890.4694
-1895.7888
-1892.1794
-1893.8521
-1893.8141
-1893.8029
-1893.7964
-1893.7702
-1893.5154
-1890.4694
-1898.9595
-1796.9088
-1787.7473
-1792.4262
-1792.1944
-1792.1702
-1792.1653
-1792.1454
-1792.0063
-1790.9636
-1793.9142
-1787.7473
-1784.6425
-1787.8595
-1787.653
-1787.6329
-1787.6276
-1787.5973
-1787.333
-1784.9572
-1790.3703
-1792.4262
-1787.8595
-1791.1185
-1790.9212
-1790.9023
-1790.8987
-1790.8806
-1790.6621
-1788.0206
-1792.0452
-1792.1944
-1787.653
-1790.9212
-1790.7251
-1790.706
-1790.7017
-1790.6839
-1790.4868
-1787.9065
-1792.0061
-1792.1702
-1787.6329
-1790.9023
-1790.706
-1790.6866
-1790.6817
-1790.6624
-1790.464
-1787.8855
-1791.9945
-1792.1653
-1787.6276
-1790.8987
-1790.7017
-1790.6817
-1790.6766
-1790.6568
-1790.4578
-1787.8786
-1791.9878
-1792.1454
-1787.5973
-1790.8806
-1790.6839
-1790.6624
-1790.6568
-1790.6368
-1790.4373
-1787.8564
-1791.9609
-1792.0063
-1787.333
-1790.6621
-1790.4868
-1790.464
-1790.4578
-1790.4373
-1790.2355
-1787.6433
-1791.6995
-1790.9636
-1784.9572
-1788.0206
-1787.9065
-1787.8855
-1787.8786
-1787.8564
-1787.6433
-1784.9783
-1788.5566
-1793.9142
-1790.3703
-1792.0452
-1792.0061
-1791.9945
-1791.9878
-1791.9609
-1791.6995
-1788.5566
-1797.0525
-1702.3253
-1693.3868
-1698.0583
-1697.8218
-1697.7969
-1697.7917
-1697.7712
-1697.6283
-1696.5573
-1699.4436
-1693.3868
-1690.4676
-1693.6705
-1693.46
-1693.4393
-1693.4337
-1693.4029
-1693.1338
-1690.7072
-1695.9846
-1698.0583
-1693.6705
-1696.9163
-1696.7152
-1696.6957
-1696.692
-1696.6737
-1696.4527
-1693.7614
-1697.6507
-1697.8218
-1693.46
-1696.7152
-1696.5153
-1696.4957
-1696.4912
-1696.4732
-1696.2739
-1693.6451
-1697.6107
-1697.7969
-1693.4393
-1696.6957
-1696.4957
-1696.4757
-1696.4706
-1696.4511
-1696.2505
-1693.6234
-1697.5988
-1697.7917
-1693.4337
-1696.692
-1696.4912
-1696.4706
-1696.4653
-1696.4453
-1696.2442
-1693.6163
-1697.5919
-1697.7712
-1693.4029
-1696.6737
-1696.4732
-1696.4511
-1696.4453
-1696.425
-1696.2234
-1693.5938
-1697.5644
-1697.6283
-1693.1338
-1696.4527
-1696.2739
-1696.2505
-1696.2442
-1696.2234
-1696.0194
-1693.3779
-1697.2984
-1696.5573
-1690.7072
-1693.7614
-1693.6451
-1693.6234
-1693.6163
-1693.5938
-1693.3779
-1690.661
-1694.0818
-1699.4436
-1695.9846
-1697.6507
-1697.6107
-1697.5988
-1697.5919
-1697.5644
-1697.2984
-1694.0818
-1702.5253
-1614.2123
-1605.5439
-1610.1782
-1609.9386
-1609.9132
-1609.9078
-1609.8868
-1609.7412
-1608.6497
-1611.4546
-1605.5439
-1602.82
-1605.9887
-1605.7756
-1605.7545
-1605.7488
-1605.7176
-1605.4457
-1602.9854
-1608.0976
-1610.1782
-1605.9887
-1609.2008
-1608.9973
-1608.9774
-1608.9736
-1608.9553
-1608.7334
-1606.0112
-1609.7444
-1609.9386
-1605.7756
-1608.9973
-1608.7952
-1608.7751
-1608.7704
-1608.7524
-1608.5525
-1605.8934
-1609.7039
-1609.9132
-1605.7545
-1608.9774
-1608.7751
-1608.7547
-1608.7495
-1608.7298
-1608.5286
-1605.8713
-1609.6917
-1609.9078
-1605.7488
-1608.9736
-1608.7704
-1608.7495
-1608.744
-1608.7239
-1608.5221
-1605.864
-1609.6846
-1609.8868
-1605.7176
-1608.9553
-1608.7524
-1608.7298
-1608.7239
-1608.7036
-1608.5013
-1605.8413
-1609.6569
-1609.7412
-1605.4457
-1608.7334
-1608.5525
-1608.5286
-1608.5221
-1608.5013
-1608.2965
-1605.6244
-1609.3882
-1608.6497
-1602.9854
-1606.0112
-1605.8934
-1605.8713
-1605.864
-1605.8413
-1605.6244
-1602.8745
-1606.1204
-1611.4546
-1608.0976
-1609.7444
-1609.7039
-1609.6917
-1609.6846
-1609.6569
-1609.3882
-1606.1204
-1614.4587
-1531.8002
-1523.4433
-1528.0118
-1527.7709
-1527.7451
-1527.7396
-1527.7183
-1527.5711
-1526.4667
-1529.1755
-1523.4433
-1520.9208
-1524.0364
-1523.8223
-1523.8009
-1523.795
-1523.7638
-1523.491
-1521.0137
-1525.9356
-1528.0118
-1524.0364
-1527.1957
-1526.9913
-1526.9711
-1526.9671
-1526.9491
-1526.7276
-1523.9929
-1527.5533
-1527.7709
-1523.8223
-1526.9913
-1526.7881
-1526.7678
-1526.763
-1526.7451
-1526.5459
-1523.8745
-1527.5125
-1527.7451
-1523.8009
-1526.9711
-1526.7678
-1526.7471
-1526.7418
-1526.7222
-1526.5217
-1523.8521
-1527.5001
-1527.7396
-1523.795
-1526.9671
-1526.763
-1526.7418
-1526.7362
-1526.7163
-1526.5152
-1523.8447
-1527.493
-1527.7183
-1523.7638
-1526.9491
-1526.7451
-1526.7222
-1526.7163
-1526.696
-1526.4944
-1523.8221
-1527.4652
-1527.5711
-1523.491
-1526.7276
-1526.5459
-1526.5217
-1526.5152
-1526.4944
-1526.2902
-1523.6055
-1527.1957
-1526.4667
-1521.0137
-1523.9929
-1523.8745
-1523.8521
-1523.8447
-1523.8221
-1523.6055
-1520.8413
-1523.8989
-1529.1755
-1525.9356
-1527.5533
-1527.5125
-1527.5001
-1527.493
-1527.4652
-1527.1957
-1523.8989
-1532.0843
-1454.4422
-1446.4329
-1450.909
-1450.6684
-1450.6425
-1450.6368
-1450.6153
-1450.4675
-1449.3578
-1451.958
-1446.4329
-1444.1149
-1447.1598
-1446.9461
-1446.9246
-1446.9187
-1446.8876
-1446.6157
-1444.1379
-1448.8483
-1450.909
-1447.1598
-1450.2484
-1450.0444
-1450.024
-1450.02
-1450.0023
-1449.7829
-1447.0533
-1450.4278
-1450.6684
-1446.9461
-1450.0444
-1449.8417
-1449.8212
-1449.8163
-1449.7987
-1449.6015
-1446.9351
-1450.3869
-1450.6425
-1446.9246
-1450.024
-1449.8212
-1449.8004
-1449.795
-1449.7757
-1449.5772
-1446.9126
-1450.3745
-1450.6368
-1446.9187
-1450.02
-1449.8163
-1449.795
-1449.7894
-1449.7697
-1449.5706
-1446.9052
-1450.3673
-1450.6153
-1446.8876
-1450.0023
-1449.7987
-1449.7757
-1449.7697
-1449.7497
-1449.55
-1446.8828
-1450.3397
-1450.4675
-1446.6157
-1449.7829
-1449.6015
-1449.5772
-1449.5706
-1449.55
-1449.3478
-1446.6679
-1450.0711
-1449.3578
-1444.1379
-1447.0533
-1446.9351
-1446.9126
-1446.9052
-1446.8828
-1446.6679
-1443.9076
-1446.7672
-1451.958
-1448.8483
-1450.4278
-1450.3869
-1450.3745
-1450.3673
-1450.3397
-1450.0711
-1446.7672
-1454.7565
-1381.5933
-1373.9627
-1378.3211
-1378.0825
-1378.0566
-1378.0508
-1378.0294
-1377.882
-1376.7743
-1379.2552
-1373.9627
-1371.8494
-1374.8072
-1374.5954
-1374.5739
-1374.5679
-1374.5373
-1374.268
-1371.8056
-1376.2873
-1378.3211
-1374.8072
-1377.8084
-1377.6062
-1377.5859
-1377.5818
-1377.5645
-1377.3485
-1374.6413
-1377.8198
-1378.0825
-1374.5954
-1377.6062
-1377.4053
-1377.3848
-1377.38
-1377.3626
-1377.1687
-1374.5241
-1377.7792
-1378.0566
-1374.5739
-1377.5859
-1377.3848
-1377.3641
-1377.3587
-1377.3397
-1377.1445
-1374.5016
-1377.7668
-1378.0508
-1374.5679
-1377.5818
-1377.38
-1377.3587
-1377.3531
-1377.3337
-1377.1379
-1374.4942
-1377.7597
-1378.0294
-1374.5373
-1377.5645
-1377.3626
-1377.3397
-1377.3337
-1377.3141
-1377.1177
-1374.4721
-1377.7324
-1377.882
-1374.268
-1377.3485
-1377.1687
-1377.1445
-1377.1379
-1377.1177
-1376.9187
-1374.2604
-1377.4665
-1376.7743
-1371.8056
-1374.6413
-1374.5241
-1374.5016
-1374.4942
-1374.4721
-1374.2604
-1371.5212
-1374.1766
-1379.2552
-1376.2873
-1377.8198
-1377.7792
-1377.7668
-1377.7597
-1377.7324
-1377.4665
-1374.1766
-1381.9313
-1312.7924
-1305.5666
-1309.7839
-1309.5489
-1309.5231
-1309.5173
-1309.4961
-1309.3501
-1308.2514
-1310.6046
-1305.5666
-1303.6557
-1306.5114
-1306.303
-1306.2816
-1306.2757
-1306.2456
-1305.9807
-1303.5489
-1307.7881
-1309.7839
-1306.5114
-1309.4099
-1309.2108
-1309.1906
-1309.1866
-1309.1698
-1308.9585
-1306.2901
-1309.2657
-1309.5489
-1306.303
-1309.2108
-1309.0131
-1308.9928
-1308.9879
-1308.9711
-1308.7815
-1306.1747
-1309.2257
-1309.5231
-1306.2816
-1309.1906
-1308.9928
-1308.9722
-1308.9669
-1308.9484
-1308.7575
-1306.1524
-1309.2134
-1309.5173
-1306.2757
-1309.1866
-1308.9879
-1308.9669
-1308.9613
-1308.9424
-1308.751
-1306.145
-1309.2063
-1309.4961
-1306.2456
-1309.1698
-1308.9711
-1308.9484
-1308.9424
-1308.9233
-1308.7313
-1306.1235
-1309.1795
-1309.3501
-1305.9807
-1308.9585
-1308.7815
-1308.7575
-1308.751
-1308.7313
-1308.5367
-1305.9162
-1308.9181
-1308.2514
-1303.5489
-1306.2901
-1306.1747
-1306.1524
-1306.145
-1306.1235
-1305.9162
-1303.2148
-1305.6625
-1310.6046
-1307.7881
-1309.2657
-1309.2257
-1309.2134
-1309.2063
-1309.1795
-1308.9181
-1305.6625
-1313.1485
-1247.6481
-1240.8488
-1244.9033
-1244.6735
-1244.6482
-1244.6424
-1244.6214
-1244.4778
-1243.395
-1245.6136
-1240.8488
-1239.1361
-1241.8759
-1241.6722
-1241.6511
-1241.6452
-1241.6159
-1241.357
-1238.9703
-1242.9564
-1244.9033
-1241.8759
-1244.6575
-1244.4629
-1244.443
-1244.439
-1244.4228
-1244.2175
-1241.6034
-1244.3719
-1244.6735
-1241.6722
-1244.4629
-1244.2697
-1244.2497
-1244.2448
-1244.2286
-1244.0445
-1241.4906
-1244.3328
-1244.6482
-1241.6511
-1244.443
-1244.2497
-1244.2294
-1244.2241
-1244.2062
-1244.0209
-1241.4687
-1244.3206
-1244.6424
-1241.6452
-1244.439
-1244.2448
-1244.2241
-1244.2186
-1244.2003
-1244.0145
-1241.4614
-1244.3137
-1244.6214
-1241.6159
-1244.4228
-1244.2286
-1244.2062
-1244.2003
-1244.1818
-1243.9954
-1241.4405
-1244.2876
-1244.4778
-1241.357
-1244.2175
-1244.0445
-1244.0209
-1244.0145
-1243.9954
-1243.8063
-1241.2389
-1244.0322
-1243.395
-1238.9703
-1241.6034
-1241.4906
-1241.4687
-1241.4614
-1241.4405
-1241.2389
-1238.5911
-1240.8305
-1245.6136
-1242.9564
-1244.3719
-1244.3328
-1244.3206
-1244.3137
-1244.2876
-1244.0322
-1240.8305
-1248.0177
-1185.828
-1179.4725
-1183.3442
-1183.1212
-1183.0964
-1183.0907
-1183.0702
-1182.9298
-1181.8693
-1183.9482
-1179.4725
-1177.9516
-1180.5631
-1180.3654
-1180.3448
-1180.339
-1180.3107
-1180.0593
-1177.7314
-1181.4569
-1183.3442
-1180.5631
-1183.2149
-1183.0262
-1183.0067
-1183.0027
-1182.9873
-1182.789
-1180.244
-1182.8036
-1183.1212
-1180.3654
-1183.0262
-1182.8387
-1182.8191
-1182.8143
-1182.7987
-1182.6212
-1180.1346
-1182.7656
-1183.0964
-1180.3448
-1183.0067
-1182.8191
-1182.7993
-1182.7941
-1182.7769
-1182.5981
-1180.1132
-1182.7538
-1183.0907
-1180.339
-1183.0027
-1182.8143
-1182.7941
-1182.7887
-1182.7711
-1182.5918
-1180.1061
-1182.747
-1183.0702
-1180.3107
-1182.9873
-1182.7987
-1182.7769
-1182.7711
-1182.7534
-1182.5735
-1180.0859
-1182.7218
-1182.9298
-1180.0593
-1182.789
-1182.6212
-1182.5981
-1182.5918
-1182.5735
-1182.391
-1179.8911
-1182.4738
-1181.8693
-1177.7314
-1180.244
-1180.1346
-1180.1132
-1180.1061
-1180.0859
-1179.8911
-1177.312
-1179.3447
-1183.9482
-1181.4569
-1182.8036
-1182.7656
-1182.7538
-1182.747
-1182.7218
-1182.4738
-1179.3447
-1186.2071
-1127.0484
-1121.15
-1124.821
-1124.6062
-1124.5821
-1124.5764
-1124.5566
-1124.4203
-1123.3883
-1125.3238
-1121.15
-1119.8131
-1122.2851
-1122.0947
-1122.0746
-1122.069
-1122.0419
-1121.7995
-1119.5436
-1123.0035
-1124.821
-1122.2851
-1124.7956
-1124.6139
-1124.5949
-1124.5911
-1124.5764
-1124.3863
-1121.9243
-1124.2753
-1124.6062
-1122.0947
-1124.6139
-1124.4334
-1124.4143
-1124.4097
-1124.3949
-1124.2247
-1121.8191
-1124.2387
-1124.5821
-1122.0746
-1124.5949
-1124.4143
-1124.3951
-1124.39
-1124.3736
-1124.2023
-1121.7983
-1124.2273
-1124.5764
-1122.069
-1124.5911
-1124.4097
-1124.39
-1124.3848
-1124.3681
-1124.1962
-1121.7914
-1124.2207
-1124.5566
-1122.0419
-1124.5764
-1124.3949
-1124.3736
-1124.3681
-1124.3511
-1124.1787
-1121.7721
-1124.1965
-1124.4203
-1121.7995
-1124.3863
-1124.2247
-1124.2023
-1124.1962
-1124.1787
-1124.0038
-1121.5851
-1123.9574
-1123.3883
-1119.5436
-1121.9243
-1121.8191
-1121.7983
-1121.7914
-1121.7721
-1121.5851
-1119.0888
-1120.9186
-1125.3238
-1123.0035
-1124.2753
-1124.2387
-1124.2273
-1124.2207
-1124.1965
-1123.9574
-1120.9186
-1127.4339
-1071.0674
-1065.6358
-1069.0895
-1068.8844
-1068.8611
-1068.8557
-1068.8366
-1068.7052
-1067.7074
-1069.4972
-1065.6358
-1064.4735
-1066.7959
-1066.6141
-1066.5948
-1066.5894
-1066.5635
-1066.3314
-1064.1597
-1067.3517
-1069.0895
-1066.7959
-1069.1549
-1068.9814
-1068.9631
-1068.9594
-1068.9456
-1068.7645
-1066.3986
-1068.5433
-1068.8844
-1066.6141
-1068.9814
-1068.8091
-1068.7907
-1068.7862
-1068.7722
-1068.6103
-1066.2982
-1068.5085
-1068.8611
-1066.5948
-1068.9631
-1068.7907
-1068.7721
-1068.7672
-1068.7518
-1068.5887
-1066.2782
-1068.4974
-1068.8557
-1066.5894
-1068.9594
-1068.7862
-1068.7672
-1068.7622
-1068.7464
-1068.5829
-1066.2716
-1068.4912
-1068.8366
-1066.5635
-1068.9456
-1068.7722
-1068.7518
-1068.7464
-1068.7304
-1068.5664
-1066.2533
-1068.4681
-1068.7052
-1066.3314
-1068.7645
-1068.6103
-1068.5887
-1068.5829
-1068.5664
-1068.3999
-1066.0751
-1068.2392
-1067.7074
-1064.1597
-1066.3986
-1066.2982
-1066.2782
-1066.2716
-1066.2533
-1066.0751
-1063.6748
-1065.3074
-1069.4972
-1067.3517
-1068.5433
-1068.5085
-1068.4974
-1068.4912
-1068.4681
-1068.2392
-1065.3074
-1071.4569
-1017.6781
-1012.7192
-1015.9412
-1015.7471
-1015.7249
-1015.7196
-1015.7014
-1015.5757
-1014.6177
-1016.2608
-1012.7192
-1011.721
-1013.8853
-1013.7132
-1013.6947
-1013.6895
-1013.6651
-1013.4446
-1011.3685
-1014.2923
-1015.9412
-1013.8853
-1016.0838
-1015.9195
-1015.902
-1015.8985
-1015.8856
-1015.7145
-1013.4566
-1015.3992
-1015.7471
-1013.7132
-1015.9195
-1015.7565
-1015.7389
-1015.7346
-1015.7215
-1015.5686
-1013.3618
-1015.3663
-1015.7249
-1013.6947
-1015.902
-1015.7389
-1015.7211
-1015.7165
-1015.7019
-1015.548
-1013.3427
-1015.3558
-1015.7196
-1013.6895
-1015.8985
-1015.7346
-1015.7165
-1015.7117
-1015.6969
-1015.5425
-1013.3364
-1015.3498
-1015.7014
-1013.6651
-1015.8856
-1015.7215
-1015.7019
-1015.6969
-1015.6818
-1015.527
-1013.3192
-1015.3281
-1015.5757
-1013.4446
-1015.7145
-1015.5686
-1015.548
-1015.5425