/*--------------------------------*- C++ -*----------------------------------*\
| =========                 |                                                 |
| \\      /  F ield         | OpenFOAM: The Open Source CFD Toolbox           |
|  \\    /   O peration     | Version:  v2106                                 |
|   \\  /    A nd           | Website:  www.openfoam.com                      |
|    \\/     M anipulation  |                                                 |
\*---------------------------------------------------------------------------*/
FoamFile
{
    version     2.0;
    format      ascii;
    arch        "LSB;label=32;scalar=64";
    class       volScalarField;
    location    "60";
    object      T;
}
// * * * * * * * * * * * * * * * * * * * * * * * * * * * * * * * * * * * * * //

dimensions      [0 0 0 1 0 0 0];

internalField   nonuniform List<scalar> 
4000
(
275.1762
275.17622
275.17623
275.17623
275.17623
275.17623
275.17623
275.17623
275.17622
275.17622
275.17622
275.17623
275.17624
275.17625
275.17625
275.17625
275.17625
275.17624
275.17624
275.17623
275.17623
275.17624
275.17625
275.17625
275.17625
275.17625
275.17625
275.17625
275.17624
275.17624
275.17623
275.17625
275.17625
275.17626
275.17626
275.17626
275.17626
275.17625
275.17625
275.17624
275.17623
275.17625
275.17625
275.17626
275.17626
275.17626
275.17626
275.17625
275.17625
275.17624
275.17623
275.17625
275.17625
275.17626
275.17626
275.17626
275.17626
275.17625
275.17625
275.17624
275.17623
275.17625
275.17625
275.17626
275.17626
275.17626
275.17625
275.17625
275.17624
275.17624
275.17623
275.17624
275.17625
275.17625
275.17625
275.17625
275.17625
275.17625
275.17624
275.17623
275.17622
275.17624
275.17624
275.17625
275.17625
275.17625
275.17624
275.17624
275.17623
275.17623
275.17622
275.17623
275.17624
275.17624
275.17624
275.17624
275.17624
275.17623
275.17623
275.17622
283.68066
283.68073
283.68077
283.68079
283.68081
283.68081
283.6808
283.68078
283.68076
283.68074
283.68073
283.6808
283.68084
283.68086
283.68087
283.68087
283.68086
283.68084
283.68082
283.68079
283.68077
283.68084
283.68087
283.68089
283.6809
283.6809
283.68089
283.68087
283.68085
283.68081
283.68079
283.68086
283.68089
283.68091
283.68092
283.68092
283.68091
283.68089
283.68086
283.68083
283.68081
283.68087
283.6809
283.68092
283.68093
283.68093
283.68092
283.6809
283.68087
283.68083
283.68081
283.68087
283.6809
283.68092
283.68093
283.68093
283.68091
283.68089
283.68086
283.68083
283.6808
283.68086
283.68089
283.68091
283.68092
283.68091
283.6809
283.68088
283.68085
283.68081
283.68078
283.68084
283.68087
283.68089
283.6809
283.68089
283.68088
283.68086
283.68083
283.68079
283.68076
283.68082
283.68085
283.68086
283.68087
283.68086
283.68085
283.68083
283.68079
283.68076
283.68074
283.68079
283.68081
283.68083
283.68083
283.68083
283.68081
283.68079
283.68076
283.68072
292.12857
292.12869
292.12875
292.12879
292.12881
292.12881
292.1288
292.12877
292.12872
292.12868
292.12869
292.1288
292.12886
292.1289
292.12891
292.12891
292.1289
292.12886
292.12882
292.12875
292.12875
292.12886
292.12891
292.12895
292.12897
292.12897
292.12895
292.12891
292.12886
292.1288
292.12879
292.1289
292.12895
292.12899
292.129
292.129
292.12898
292.12894
292.12889
292.12882
292.12881
292.12891
292.12897
292.129
292.12902
292.12901
292.12899
292.12895
292.1289
292.12883
292.12881
292.12891
292.12897
292.129
292.12901
292.12901
292.12899
292.12895
292.12889
292.12882
292.1288
292.1289
292.12895
292.12898
292.12899
292.12899
292.12896
292.12892
292.12886
292.12879
292.12877
292.12886
292.12891
292.12894
292.12895
292.12895
292.12892
292.12888
292.12882
292.12875
292.12872
292.12882
292.12886
292.12889
292.1289
292.12889
292.12886
292.12882
292.12876
292.12869
292.12868
292.12875
292.1288
292.12882
292.12883
292.12882
292.12879
292.12875
292.12869
292.12861
300.52054
300.5207
300.52079
300.52084
300.52087
300.52087
300.52084
300.5208
300.52073
300.52066
300.5207
300.52084
300.52093
300.52098
300.521
300.521
300.52098
300.52093
300.52085
300.52076
300.52079
300.52093
300.521
300.52105
300.52108
300.52107
300.52105
300.52099
300.52092
300.52082
300.52084
300.52098
300.52105
300.5211
300.52112
300.52112
300.52109
300.52103
300.52095
300.52085
300.52087
300.521
300.52108
300.52112
300.52114
300.52114
300.5211
300.52105
300.52096
300.52086
300.52087
300.521
300.52107
300.52112
300.52114
300.52113
300.52109
300.52103
300.52095
300.52084
300.52084
300.52098
300.52105
300.52109
300.5211
300.52109
300.52106
300.521
300.52091
300.5208
300.5208
300.52093
300.52099
300.52103
300.52105
300.52103
300.521
300.52093
300.52085
300.52074
300.52073
300.52085
300.52092
300.52095
300.52096
300.52095
300.52091
300.52085
300.52076
300.52065
300.52066
300.52076
300.52082
300.52085
300.52086
300.52084
300.5208
300.52074
300.52065
300.52053
308.85717
308.85738
308.85748
308.85755
308.85758
308.85758
308.85755
308.85748
308.8574
308.85729
308.85738
308.85755
308.85765
308.85772
308.85775
308.85775
308.85771
308.85764
308.85755
308.85742
308.85748
308.85765
308.85775
308.85781
308.85784
308.85784
308.8578
308.85773
308.85762
308.85749
308.85755
308.85772
308.85781
308.85787
308.8579
308.85789
308.85785
308.85777
308.85767
308.85753
308.85758
308.85775
308.85784
308.8579
308.85792
308.85791
308.85787
308.85779
308.85768
308.85754
308.85758
308.85775
308.85784
308.85789
308.85791
308.8579
308.85785
308.85777
308.85766
308.85752
308.85755
308.85771
308.8578
308.85785
308.85787
308.85785
308.8578
308.85772
308.85761
308.85746
308.85748
308.85764
308.85773
308.85777
308.85779
308.85777
308.85772
308.85764
308.85752
308.85738
308.8574
308.85755
308.85762
308.85767
308.85768
308.85766
308.85761
308.85752
308.8574
308.85725
308.85729
308.85742
308.85749
308.85753
308.85754
308.85752
308.85746
308.85738
308.85725
308.8571
317.13908
317.13932
317.13945
317.13952
317.13956
317.13956
317.13951
317.13943
317.13932
317.1392
317.13932
317.13953
317.13965
317.13972
317.13976
317.13975
317.13971
317.13962
317.1395
317.13934
317.13945
317.13965
317.13976
317.13983
317.13987
317.13986
317.13981
317.13972
317.13959
317.13942
317.13952
317.13972
317.13983
317.1399
317.13993
317.13992
317.13987
317.13977
317.13964
317.13947
317.13956
317.13976
317.13987
317.13993
317.13996
317.13994
317.13989
317.13979
317.13965
317.13948
317.13956
317.13975
317.13986
317.13992
317.13994
317.13992
317.13986
317.13977
317.13963
317.13945
317.13951
317.13971
317.13981
317.13987
317.13989
317.13986
317.1398
317.1397
317.13956
317.13938
317.13943
317.13962
317.13972
317.13977
317.13979
317.13977
317.1397
317.1396
317.13945
317.13927
317.13932
317.1395
317.13959
317.13964
317.13965
317.13963
317.13956
317.13945
317.13931
317.13912
317.1392
317.13934
317.13942
317.13947
317.13948
317.13945
317.13938
317.13927
317.13912
317.13892
325.36686
325.36714
325.36728
325.36737
325.3674
325.3674
325.36734
325.36725
325.36712
325.36696
325.36714
325.36737
325.36751
325.36759
325.36763
325.36762
325.36756
325.36746
325.36732
325.36712
325.36728
325.36751
325.36764
325.36772
325.36775
325.36774
325.36768
325.36757
325.36742
325.36721
325.36737
325.36759
325.36772
325.3678
325.36783
325.36781
325.36775
325.36763
325.36748
325.36727
325.3674
325.36763
325.36775
325.36783
325.36785
325.36783
325.36776
325.36765
325.36749
325.36728
325.3674
325.36762
325.36774
325.36781
325.36783
325.36781
325.36774
325.36762
325.36745
325.36724
325.36734
325.36756
325.36768
325.36775
325.36776
325.36774
325.36766
325.36754
325.36737
325.36716
325.36725
325.36746
325.36757
325.36763
325.36765
325.36762
325.36754
325.36742
325.36725
325.36703
325.36712
325.36732
325.36742
325.36748
325.36749
325.36745
325.36737
325.36725
325.36707
325.36685
325.36696
325.36712
325.36721
325.36727
325.36728
325.36724
325.36716
325.36703
325.36685
325.36661
333.54112
333.54142
333.54158
333.54167
333.54171
333.5417
333.54164
333.54153
333.54138
333.5412
333.54142
333.54168
333.54183
333.54193
333.54197
333.54195
333.54188
333.54177
333.5416
333.54138
333.54158
333.54183
333.54198
333.54207
333.5421
333.54208
333.54201
333.54189
333.54171
333.54147
333.54167
333.54193
333.54207
333.54215
333.54218
333.54216
333.54208
333.54196
333.54177
333.54153
333.54171
333.54197
333.5421
333.54218
333.54221
333.54218
333.5421
333.54197
333.54178
333.54154
333.5417
333.54195
333.54208
333.54216
333.54218
333.54215
333.54207
333.54193
333.54174
333.5415
333.54164
333.54188
333.54201
333.54208
333.5421
333.54207
333.54198
333.54184
333.54165
333.5414
333.54153
333.54177
333.54189
333.54196
333.54197
333.54193
333.54184
333.5417
333.5415
333.54125
333.54138
333.5416
333.54171
333.54177
333.54178
333.54174
333.54165
333.5415
333.5413
333.54104
333.5412
333.54138
333.54147
333.54153
333.54154
333.5415
333.5414
333.54125
333.54104
333.54076
341.66244
341.66277
341.66294
341.66305
341.66309
341.66307
341.663
341.66287
341.6627
341.6625
341.66277
341.66306
341.66322
341.66332
341.66336
341.66334
341.66327
341.66314
341.66295
341.66269
341.66294
341.66322
341.66338
341.66347
341.66351
341.66349
341.66341
341.66327
341.66307
341.6628
341.66305
341.66332
341.66347
341.66356
341.6636
341.66357
341.66348
341.66334
341.66313
341.66286
341.66309
341.66336
341.66351
341.6636
341.66362
341.66359
341.6635
341.66335
341.66314
341.66287
341.66307
341.66334
341.66349
341.66357
341.66359
341.66356
341.66346
341.66331
341.66309
341.66282
341.663
341.66327
341.66341
341.66348
341.6635
341.66346
341.66336
341.6632
341.66299
341.66271
341.66287
341.66314
341.66327
341.66334
341.66335
341.66331
341.6632
341.66304
341.66282
341.66253
341.6627
341.66295
341.66307
341.66313
341.66314
341.66309
341.66299
341.66282
341.66259
341.6623
341.6625
341.66269
341.6628
341.66286
341.66287
341.66282
341.66271
341.66253
341.6623
341.66199
349.73144
349.73179
349.73198
349.73209
349.73213
349.73211
349.73203
349.73189
349.7317
349.73148
349.73179
349.73211
349.73228
349.73239
349.73243
349.73241
349.73232
349.73217
349.73196
349.73168
349.73198
349.73228
349.73245
349.73255
349.73259
349.73256
349.73247
349.73231
349.73209
349.7318
349.73209
349.73239
349.73255
349.73265
349.73268
349.73265
349.73255
349.73239
349.73216
349.73186
349.73213
349.73243
349.73259
349.73268
349.73271
349.73267
349.73257
349.7324
349.73217
349.73186
349.73211
349.73241
349.73256
349.73265
349.73267
349.73263
349.73252
349.73235
349.73211
349.7318
349.73203
349.73232
349.73247
349.73255
349.73257
349.73252
349.73241
349.73223
349.73199
349.73168
349.73189
349.73217
349.73231
349.73239
349.7324
349.73235
349.73223
349.73205
349.7318
349.73149
349.7317
349.73196
349.73209
349.73216
349.73217
349.73211
349.73199
349.7318
349.73155
349.73123
349.73148
349.73168
349.7318
349.73186
349.73186
349.7318
349.73168
349.73149
349.73123
349.73089
357.74872
357.7491
357.74929
357.74941
357.74946
357.74943
357.74934
357.74919
357.74898
357.74874
357.7491
357.74943
357.74962
357.74973
357.74977
357.74974
357.74965
357.74949
357.74926
357.74895
357.74929
357.74962
357.74979
357.7499
357.74994
357.74991
357.7498
357.74963
357.74939
357.74907
357.74941
357.74973
357.7499
357.75
357.75003
357.75
357.74989
357.74971
357.74946
357.74914
357.74946
357.74977
357.74994
357.75003
357.75006
357.75002
357.74991
357.74972
357.74947
357.74914
357.74943
357.74974
357.74991
357.75
357.75002
357.74997
357.74985
357.74967
357.74941
357.74907
357.74934
357.74965
357.7498
357.74989
357.74991
357.74985
357.74973
357.74954
357.74928
357.74894
357.74919
357.74949
357.74963
357.74971
357.74972
357.74967
357.74954
357.74934
357.74907
357.74873
357.74898
357.74926
357.74939
357.74946
357.74947
357.74941
357.74928
357.74907
357.7488
357.74845
357.74874
357.74895
357.74907
357.74914
357.74914
357.74907
357.74894
357.74873
357.74845
357.74807
365.7149
365.7153
365.71551
365.71563
365.71567
365.71565
365.71555
365.71538
365.71516
365.7149
365.7153
365.71565
365.71585
365.71596
365.71601
365.71597
365.71587
365.7157
365.71545
365.71512
365.71551
365.71585
365.71603
365.71614
365.71618
365.71614
365.71603
365.71585
365.71559
365.71525
365.71563
365.71596
365.71614
365.71625
365.71628
365.71624
365.71612
365.71593
365.71566
365.71531
365.71567
365.71601
365.71618
365.71628
365.71631
365.71626
365.71614
365.71594
365.71567
365.71531
365.71565
365.71597
365.71614
365.71624
365.71626
365.71621
365.71608
365.71588
365.7156
365.71524
365.71555
365.71587
365.71603
365.71612
365.71614
365.71608
365.71595
365.71574
365.71546
365.7151
365.71538
365.7157
365.71585
365.71593
365.71594
365.71588
365.71574
365.71553
365.71524
365.71487
365.71516
365.71545
365.71559
365.71566
365.71567
365.7156
365.71546
365.71524
365.71494
365.71457
365.7149
365.71512
365.71525
365.71531
365.71531
365.71524
365.7151
365.71487
365.71457
365.71417
373.63061
373.63103
373.63125
373.63137
373.63141
373.63138
373.63128
373.6311
373.63086
373.63058
373.63103
373.6314
373.6316
373.63172
373.63176
373.63173
373.63162
373.63143
373.63117
373.63082
373.63125
373.6316
373.63179
373.6319
373.63194
373.6319
373.63178
373.63159
373.63131
373.63095
373.63137
373.63172
373.6319
373.63201
373.63204
373.632
373.63187
373.63167
373.63139
373.63101
373.63141
373.63176
373.63194
373.63204
373.63207
373.63202
373.63189
373.63168
373.63139
373.63101
373.63138
373.63173
373.6319
373.632
373.63202
373.63196
373.63182
373.63161
373.63131
373.63093
373.63128
373.63162
373.63178
373.63187
373.63189
373.63182
373.63168
373.63146
373.63116
373.63078
373.6311
373.63143
373.63159
373.63167
373.63168
373.63161
373.63146
373.63123
373.63093
373.63054
373.63086
373.63117
373.63131
373.63139
373.63139
373.63131
373.63116
373.63093
373.63061
373.63022
373.63058
373.63082
373.63095
373.63101
373.63101
373.63093
373.63078
373.63054
373.63022
373.62979
381.49649
381.49692
381.49714
381.49727
381.49731
381.49728
381.49717
381.49698
381.49673
381.49644
381.49692
381.4973
381.49751
381.49763
381.49767
381.49763
381.49752
381.49732
381.49704
381.49668
381.49714
381.49751
381.49771
381.49782
381.49786
381.49781
381.49769
381.49748
381.49719
381.49681
381.49727
381.49763
381.49782
381.49793
381.49796
381.49791
381.49778
381.49757
381.49727
381.49688
381.49731
381.49767
381.49786
381.49796
381.49799
381.49793
381.49779
381.49757
381.49726
381.49687
381.49728
381.49763
381.49781
381.49791
381.49793
381.49787
381.49772
381.4975
381.49719
381.49679
381.49717
381.49752
381.49769
381.49778
381.49779
381.49772
381.49757
381.49734
381.49702
381.49662
381.49698
381.49732
381.49748
381.49757
381.49757
381.4975
381.49734
381.4971
381.49678
381.49637
381.49673
381.49704
381.49719
381.49727
381.49726
381.49719
381.49702
381.49678
381.49645
381.49603
381.49644
381.49668
381.49681
381.49688
381.49687
381.49679
381.49662
381.49637
381.49603
381.49558
389.31317
389.31362
389.31385
389.31398
389.31402
389.31398
389.31386
389.31367
389.3134
389.3131
389.31362
389.31401
389.31422
389.31435
389.31439
389.31434
389.31422
389.31401
389.31373
389.31335
389.31385
389.31422
389.31442
389.31454
389.31458
389.31453
389.3144
389.31418
389.31388
389.31348
389.31398
389.31435
389.31454
389.31465
389.31468
389.31463
389.31449
389.31427
389.31395
389.31355
389.31402
389.31439
389.31458
389.31468
389.31471
389.31464
389.3145
389.31427
389.31395
389.31354
389.31398
389.31434
389.31453
389.31463
389.31464
389.31458
389.31443
389.31419
389.31386
389.31345
389.31386
389.31422
389.3144
389.31449
389.3145
389.31443
389.31427
389.31403
389.3137
389.31328
389.31367
389.31401
389.31418
389.31427
389.31427
389.31419
389.31403
389.31378
389.31344
389.31302
389.3134
389.31373
389.31388
389.31395
389.31395
389.31386
389.3137
389.31344
389.31309
389.31266
389.3131
389.31335
389.31348
389.31355
389.31354
389.31345
389.31328
389.31302
389.31266
389.3122
397.08133
397.08179
397.08202
397.08215
397.08219
397.08215
397.08202
397.08182
397.08155
397.08123
397.08179
397.08219
397.0824
397.08252
397.08256
397.08252
397.08239
397.08218
397.08188
397.08149
397.08202
397.0824
397.0826
397.08272
397.08276
397.0827
397.08257
397.08234
397.08203
397.08162
397.08215
397.08252
397.08272
397.08283
397.08286
397.0828
397.08266
397.08243
397.0821
397.08169
397.08219
397.08256
397.08276
397.08286
397.08288
397.08282
397.08267
397.08243
397.0821
397.08168
397.08215
397.08252
397.0827
397.0828
397.08282
397.08275
397.08259
397.08235
397.08201
397.08158
397.08202
397.08239
397.08257
397.08266
397.08267
397.08259
397.08243
397.08218
397.08183
397.0814
397.08182
397.08218
397.08234
397.08243
397.08243
397.08235
397.08218
397.08192
397.08157
397.08113
397.08155
397.08188
397.08203
397.0821
397.0821
397.08201
397.08183
397.08157
397.08121
397.08077
397.08123
397.08149
397.08162
397.08169
397.08168
397.08158
397.0814
397.08113
397.08077
397.08028
404.80163
404.80209
404.80232
404.80245
404.8025
404.80245
404.80232
404.80211
404.80183
404.80151
404.80209
404.8025
404.80271
404.80284
404.80287
404.80283
404.80269
404.80247
404.80217
404.80177
404.80232
404.80271
404.80292
404.80304
404.80307
404.80301
404.80287
404.80264
404.80232
404.8019
404.80245
404.80284
404.80304
404.80315
404.80317
404.80311
404.80296
404.80273
404.80239
404.80197
404.8025
404.80287
404.80307
404.80317
404.80319
404.80313
404.80297
404.80272
404.80239
404.80195
404.80245
404.80283
404.80301
404.80311
404.80313
404.80305
404.80289
404.80264
404.80229
404.80186
404.80232
404.80269
404.80287
404.80296
404.80297
404.80289
404.80272
404.80246
404.80211
404.80167
404.80211
404.80247
404.80264
404.80273
404.80272
404.80264
404.80246
404.8022
404.80184
404.80139
404.80183
404.80217
404.80232
404.80239
404.80239
404.80229
404.80211
404.80184
404.80147
404.80102
404.80151
404.80177
404.8019
404.80197
404.80195
404.80186
404.80167
404.80139
404.80102
404.80052
412.47476
412.47522
412.47545
412.47558
412.47562
412.47558
412.47544
412.47523
412.47495
412.47462
412.47522
412.47563
412.47584
412.47597
412.476
412.47595
412.47582
412.47559
412.47528
412.47487
412.47545
412.47584
412.47605
412.47617
412.4762
412.47614
412.476
412.47576
412.47543
412.47501
412.47558
412.47597
412.47617
412.47628
412.4763
412.47624
412.47609
412.47584
412.47551
412.47507
412.47562
412.476
412.4762
412.4763
412.47632
412.47625
412.47609
412.47584
412.4755
412.47506
412.47558
412.47595
412.47614
412.47624
412.47625
412.47617
412.47601
412.47575
412.4754
412.47496
412.47544
412.47582
412.476
412.47609
412.47609
412.47601
412.47583
412.47557
412.47521
412.47477
412.47523
412.47559
412.47576
412.47584
412.47584
412.47575
412.47557
412.4753
412.47494
412.47448
412.47495
412.47528
412.47543
412.47551
412.4755
412.4754
412.47521
412.47494
412.47456
412.4741
412.47462
412.47487
412.47501
412.47507
412.47506
412.47496
412.47477
412.47448
412.4741
412.4736
420.10141
420.10187
420.1021
420.10223
420.10227
420.10222
420.10208
420.10187
420.10158
420.10125
420.10187
420.10228
420.10249
420.10262
420.10265
420.1026
420.10246
420.10223
420.10191
420.1015
420.1021
420.10249
420.1027
420.10281
420.10284
420.10278
420.10263
420.1024
420.10207
420.10163
420.10223
420.10262
420.10281
420.10292
420.10295
420.10288
420.10272
420.10248
420.10214
420.1017
420.10227
420.10265
420.10284
420.10295
420.10296
420.10289
420.10273
420.10247
420.10212
420.10168
420.10222
420.1026
420.10278
420.10288
420.10289
420.10281
420.10264
420.10238
420.10202
420.10158
420.10208
420.10246
420.10263
420.10272
420.10273
420.10264
420.10246
420.1022
420.10184
420.10138
420.10187
420.10223
420.1024
420.10248
420.10247
420.10238
420.1022
420.10192
420.10155
420.1011
420.10158
420.10191
420.10207
420.10214
420.10212
420.10202
420.10184
420.10155
420.10118
420.10071
420.10125
420.1015
420.10163
420.1017
420.10168
420.10158
420.10138
420.1011
420.10071
420.1002
427.68229
427.68275
427.68298
427.68311
427.68314
427.68309
427.68295
427.68274
427.68245
427.68211
427.68275
427.68316
427.68337
427.68349
427.68352
427.68347
427.68332
427.68309
427.68278
427.68236
427.68298
427.68337
427.68357
427.68368
427.68371
427.68365
427.6835
427.68326
427.68293
427.68249
427.68311
427.68349
427.68368
427.68379
427.68381
427.68374
427.68359
427.68334
427.68299
427.68255
427.68314
427.68352
427.68371
427.68381
427.68383
427.68375
427.68359
427.68333
427.68298
427.68253
427.68309
427.68347
427.68365
427.68374
427.68375
427.68367
427.6835
427.68324
427.68288
427.68243
427.68295
427.68332
427.6835
427.68359
427.68359
427.6835
427.68332
427.68305
427.68269
427.68224
427.68274
427.68309
427.68326
427.68334
427.68333
427.68324
427.68305
427.68278
427.68241
427.68195
427.68245
427.68278
427.68293
427.68299
427.68298
427.68288
427.68269
427.68241
427.68203
427.68155
427.68211
427.68236
427.68249
427.68255
427.68253
427.68243
427.68224
427.68195
427.68155
427.68105
435.21813
435.21859
435.21881
435.21893
435.21897
435.21891
435.21877
435.21856
435.21827
435.21793
435.21859
435.21898
435.21919
435.21931
435.21934
435.21928
435.21914
435.21891
435.21859
435.21818
435.21881
435.21919
435.21939
435.2195
435.21953
435.21946
435.21931
435.21907
435.21874
435.21831
435.21893
435.21931
435.2195
435.21961
435.21962
435.21956
435.2194
435.21915
435.2188
435.21836
435.21897
435.21934
435.21953
435.21962
435.21964
435.21956
435.21939
435.21914
435.21879
435.21834
435.21891
435.21928
435.21946
435.21956
435.21956
435.21948
435.21931
435.21904
435.21869
435.21824
435.21877
435.21914
435.21931
435.2194
435.21939
435.21931
435.21913
435.21886
435.2185
435.21804
435.21856
435.21891
435.21907
435.21915
435.21914
435.21904
435.21886
435.21858
435.21821
435.21775
435.21827
435.21859
435.21874
435.2188
435.21879
435.21869
435.2185
435.21821
435.21783
435.21736
435.21793
435.21818
435.21831
435.21836
435.21834
435.21824
435.21804
435.21775
435.21736
435.21686
442.70966
442.71011
442.71032
442.71044
442.71047
442.71042
442.71028
442.71006
442.70978
442.70944
442.71011
442.71049
442.7107
442.71081
442.71084
442.71078
442.71064
442.71041
442.7101
442.70969
442.71032
442.7107
442.71089
442.711
442.71102
442.71096
442.71081
442.71057
442.71024
442.70981
442.71044
442.71081
442.711
442.7111
442.71112
442.71105
442.71089
442.71064
442.7103
442.70986
442.71047
442.71084
442.71102
442.71112
442.71113
442.71105
442.71088
442.71063
442.71028
442.70984
442.71042
442.71078
442.71096
442.71105
442.71105
442.71097
442.71079
442.71053
442.71018
442.70973
442.71028
442.71064
442.71081
442.71089
442.71088
442.71079
442.71062
442.71035
442.70999
442.70954
442.71006
442.71041
442.71057
442.71064
442.71063
442.71053
442.71035
442.71007
442.70971
442.70925
442.70978
442.7101
442.71024
442.7103
442.71028
442.71018
442.70999
442.70971
442.70933
442.70886
442.70944
442.70969
442.70981
442.70986
442.70984
442.70973
442.70954
442.70925
442.70886
442.70836
450.15762
450.15805
450.15826
450.15838
450.15841
450.15835
450.15822
450.158
450.15772
450.15739
450.15805
450.15843
450.15863
450.15874
450.15876
450.15871
450.15856
450.15834
450.15803
450.15762
450.15826
450.15863
450.15882
450.15892
450.15894
450.15888
450.15873
450.15849
450.15816
450.15774
450.15838
450.15874
450.15892
450.15902
450.15903
450.15896
450.1588
450.15856
450.15822
450.15779
450.15841
450.15876
450.15894
450.15903
450.15904
450.15896
450.1588
450.15855
450.1582
450.15777
450.15835
450.15871
450.15888
450.15896
450.15896
450.15888
450.15871
450.15845
450.1581
450.15766
450.15822
450.15856
450.15873
450.1588
450.1588
450.15871
450.15853
450.15827
450.15791
450.15747
450.158
450.15834
450.15849
450.15856
450.15855
450.15845
450.15827
450.158
450.15763
450.15719
450.15772
450.15803
450.15816
450.15822
450.1582
450.1581
450.15791
450.15763
450.15726
450.1568
450.15739
450.15762
450.15774
450.15779
450.15777
450.15766
450.15747
450.15719
450.1568
450.15631
457.56277
457.56319
457.56339
457.5635
457.56353
457.56347
457.56333
457.56312
457.56285
457.56252
457.56319
457.56355
457.56374
457.56385
457.56387
457.56381
457.56367
457.56345
457.56315
457.56275
457.56339
457.56374
457.56393
457.56402
457.56404
457.56398
457.56383
457.5636
457.56328
457.56286
457.5635
457.56385
457.56402
457.56412
457.56413
457.56406
457.5639
457.56366
457.56333
457.56291
457.56353
457.56387
457.56404
457.56413
457.56413
457.56406
457.56389
457.56365
457.56331
457.56289
457.56347
457.56381
457.56398
457.56406
457.56406
457.56397
457.5638
457.56355
457.56321
457.56278
457.56333
457.56367
457.56383
457.5639
457.56389
457.5638
457.56363
457.56337
457.56302
457.56259
457.56312
457.56345
457.5636
457.56366
457.56365
457.56355
457.56337
457.5631
457.56275
457.56231
457.56285
457.56315
457.56328
457.56333
457.56331
457.56321
457.56302
457.56275
457.56239
457.56194
457.56252
457.56275
457.56286
457.56291
457.56289
457.56278
457.56259
457.56231
457.56194
457.56145
464.92587
464.92627
464.92647
464.92657
464.92659
464.92654
464.9264
464.9262
464.92593
464.92561
464.92627
464.92662
464.9268
464.9269
464.92692
464.92686
464.92673
464.92651
464.92621
464.92583
464.92647
464.9268
464.92698
464.92707
464.92709
464.92702
464.92688
464.92665
464.92634
464.92594
464.92657
464.9269
464.92707
464.92716
464.92717
464.9271
464.92695
464.92671
464.92639
464.92598
464.92659
464.92692
464.92709
464.92717
464.92717
464.9271
464.92694
464.9267
464.92637
464.92596
464.92654
464.92686
464.92702
464.9271
464.9271
464.92701
464.92685
464.9266
464.92627
464.92585
464.9264
464.92673
464.92688
464.92695
464.92694
464.92685
464.92668
464.92642
464.92609
464.92567
464.9262
464.92651
464.92665
464.92671
464.9267
464.9266
464.92642
464.92616
464.92582
464.92539
464.92593
464.92621
464.92634
464.92639
464.92637
464.92627
464.92609
464.92582
464.92547
464.92503
464.92561
464.92583
464.92594
464.92598
464.92596
464.92585
464.92567
464.92539
464.92503
464.92456
472.24769
472.24808
472.24826
472.24836
472.24838
472.24832
472.24819
472.24799
472.24773
472.24743
472.24808
472.24841
472.24859
472.24868
472.2487
472.24864
472.2485
472.24829
472.24801
472.24763
472.24826
472.24859
472.24875
472.24884
472.24885
472.24879
472.24864
472.24843
472.24812
472.24774
472.24836
472.24868
472.24884
472.24892
472.24893
472.24886
472.24871
472.24848
472.24817
472.24778
472.24838
472.2487
472.24885
472.24893
472.24893
472.24885
472.2487
472.24846
472.24815
472.24775
472.24832
472.24864
472.24879
472.24886
472.24885
472.24877
472.24861
472.24837
472.24805
472.24765
472.24819
472.2485
472.24864
472.24871
472.2487
472.24861
472.24844
472.2482
472.24787
472.24747
472.24799
472.24829
472.24843
472.24848
472.24846
472.24837
472.2482
472.24795
472.24762
472.2472
472.24773
472.24801
472.24812
472.24817
472.24815
472.24805
472.24787
472.24762
472.24727
472.24685
472.24743
472.24763
472.24774
472.24778
472.24775
472.24765
472.24747
472.2472
472.24685
472.24639
479.52902
479.52939
479.52956
479.52965
479.52967
479.52961
479.52949
479.52929
479.52904
479.52875
479.52939
479.5297
479.52987
479.52995
479.52997
479.52991
479.52978
479.52958
479.5293
479.52894
479.52956
479.52987
479.53002
479.5301
479.53011
479.53005
479.52991
479.5297
479.52941
479.52904
479.52965
479.52995
479.5301
479.53018
479.53018
479.53011
479.52997
479.52975
479.52946
479.52908
479.52967
479.52997
479.53011
479.53018
479.53018
479.53011
479.52996
479.52973
479.52943
479.52905
479.52961
479.52991
479.53005
479.53011
479.53011
479.53003
479.52987
479.52964
479.52933
479.52895
479.52949
479.52978
479.52991
479.52997
479.52996
479.52987
479.52971
479.52948
479.52916
479.52877
479.52929
479.52958
479.5297
479.52975
479.52973
479.52964
479.52948
479.52923
479.52892
479.52852
479.52904
479.5293
479.52941
479.52946
479.52943
479.52933
479.52916
479.52892
479.52859
479.52818
479.52875
479.52894
479.52904
479.52908
479.52905
479.52895
479.52877
479.52852
479.52818
479.52774
486.77064
486.77098
486.77114
486.77123
486.77124
486.77119
486.77107
486.77088
486.77064
486.77037
486.77098
486.77128
486.77143
486.77151
486.77152
486.77147
486.77134
486.77115
486.77088
486.77055
486.77114
486.77143
486.77157
486.77165
486.77166
486.7716
486.77146
486.77126
486.77099
486.77063
486.77123
486.77151
486.77165
486.77172
486.77172
486.77166
486.77152
486.77131
486.77103
486.77067
486.77124
486.77152
486.77166
486.77172
486.77172
486.77165
486.7715
486.77129
486.771
486.77064
486.77119
486.77147
486.7716
486.77166
486.77165
486.77157
486.77142
486.7712
486.77091
486.77054
486.77107
486.77134
486.77146
486.77152
486.7715
486.77142
486.77127
486.77104
486.77074
486.77037
486.77088
486.77115
486.77126
486.77131
486.77129
486.7712
486.77104
486.77081
486.77051
486.77013
486.77064
486.77088
486.77099
486.77103
486.771
486.77091
486.77074
486.77051
486.77019
486.76981
486.77037
486.77055
486.77063
486.77067
486.77064
486.77054
486.77037
486.77013
486.76981
486.76939
493.97334
493.97366
493.9738
493.97388
493.97389
493.97384
493.97372
493.97355
493.97332
493.97306
493.97366
493.97393
493.97407
493.97414
493.97415
493.9741
493.97398
493.97379
493.97355
493.97323
493.9738
493.97407
493.9742
493.97427
493.97428
493.97422
493.97409
493.9739
493.97364
493.97331
493.97388
493.97414
493.97427
493.97434
493.97434
493.97427
493.97414
493.97394
493.97368
493.97333
493.97389
493.97415
493.97428
493.97434
493.97433
493.97426
493.97413
493.97392
493.97365
493.97331
493.97384
493.9741
493.97422
493.97427
493.97426
493.97419
493.97405
493.97384
493.97356
493.97321
493.97372
493.97398
493.97409
493.97414
493.97413
493.97405
493.9739
493.97369
493.9734
493.97306
493.97355
493.97379
493.9739
493.97394
493.97392
493.97384
493.97369
493.97347
493.97318
493.97283
493.97332
493.97355
493.97364
493.97368
493.97365
493.97356
493.9734
493.97318
493.97289
493.97252
493.97306
493.97323
493.97331
493.97333
493.97331
493.97321
493.97306
493.97283
493.97252
493.97213
501.13791
501.1382
501.13834
501.1384
501.13841
501.13836
501.13825
501.13809
501.13788
501.13763
501.1382
501.13845
501.13858
501.13865
501.13865
501.1386
501.13849
501.13831
501.13808
501.13778
501.13834
501.13858
501.1387
501.13876
501.13876
501.13871
501.13859
501.13841
501.13817
501.13785
501.1384
501.13865
501.13876
501.13882
501.13882
501.13876
501.13863
501.13845
501.1382
501.13788
501.13841
501.13865
501.13876
501.13882