/*--------------------------------*- C++ -*----------------------------------*\
| =========                 |                                                 |
| \\      /  F ield         | OpenFOAM: The Open Source CFD Toolbox           |
|  \\    /   O peration     | Version:  v2106                                 |
|   \\  /    A nd           | Website:  www.openfoam.com                      |
|    \\/     M anipulation  |                                                 |
\*---------------------------------------------------------------------------*/
FoamFile
{
    version     2.0;
    format      ascii;
    arch        "LSB;label=32;scalar=64";
    class       volVectorField;
    location    "0";
    object      U;
}
// * * * * * * * * * * * * * * * * * * * * * * * * * * * * * * * * * * * * * //

dimensions      [0 1 -1 0 0 0 0];

internalField   uniform (0 0 1);

boundaryField
{
    fixedWalls
    {
        type            noSlip;
    }
    inlet
    {
        type            fixedValue;
        value           nonuniform List<vector> 
256
(
(-0.000877 -0.000877 -0.564344)
(0.000320469 -0.000528973 -0.815183)
(0.00144744 0.00331758 -0.7595)
(0.0019718 0.00416131 -0.699386)
(0.0022546 0.00359425 -0.656941)
(0.00244172 0.00263762 -0.627737)
(0.00256157 0.00158183 -0.609362)
(0.00262096 0.00052494 -0.600478)
(0.00262127 -0.000524611 -0.600481)
(0.00256249 -0.00158155 -0.609368)
(0.00244315 -0.00263769 -0.627748)
(0.00225641 -0.00359455 -0.656956)
(0.00197368 -0.00416175 -0.699404)
(0.00144885 -0.00331806 -0.759522)
(0.000321369 0.000528624 -0.815209)
(-0.000876928 0.000876748 -0.564364)
(-0.000528973 0.000320469 -0.815183)
(0.00329915 0.00329915 -1.09478)
(0.00634656 0.0116151 -0.91093)
(0.00773536 0.0133676 -0.74489)
(0.00842962 0.011707 -0.626646)
(0.00885299 0.00877313 -0.545214)
(0.00911274 0.00535316 -0.494056)
(0.00923944 0.00179157 -0.469361)
(0.00924038 -0.00179625 -0.469363)
(0.00911547 -0.00535781 -0.494062)
(0.0088572 -0.00877795 -0.545224)
(0.00843488 -0.0117118 -0.626658)
(0.0077409 -0.0133725 -0.744906)
(0.00635102 -0.0116192 -0.910951)
(0.00330166 -0.00330132 -1.09481)
(-0.000529027 -0.000321329 -0.815208)
(0.00331758 0.00144744 -0.7595)
(0.0116151 0.00634656 -0.91093)
(0.0173041 0.0173041 -0.610079)
(0.0203781 0.0200455 -0.353743)
(0.0221326 0.0179743 -0.168764)
(0.0232003 0.0137273 -0.0406779)
(0.0238308 0.00848494 0.0399618)
(0.0241279 0.00285791 0.0789154)
(0.0241295 -0.00286641 0.0789145)
(0.0238353 -0.00849326 0.0399589)
(0.0232072 -0.0137355 -0.0406822)
(0.0221412 -0.0179821 -0.168769)
(0.0203872 -0.0200529 -0.35375)
(0.0173123 -0.0173103 -0.610091)
(0.0116198 -0.00635008 -0.91095)
(0.00331801 -0.0014487 -0.75952)
(0.00416131 0.0019718 -0.699386)
(0.0133676 0.00773536 -0.74489)
(0.0200455 0.0203781 -0.353743)
(0.0240844 0.0240844 -0.0240976)
(0.0265527 0.0220355 0.216769)
(0.0280883 0.0170875 0.384699)
(0.0289977 0.0106701 0.490805)
(0.0294248 0.00361266 0.542148)
(0.0294269 -0.00362151 0.542148)
(0.0290036 -0.0106788 0.490804)
(0.0280973 -0.017096 0.384697)
(0.0265639 -0.0220434 0.216768)
(0.024096 -0.0240917 -0.0240995)
(0.0200557 -0.0203842 -0.353748)
(0.0133735 -0.00773891 -0.744903)
(0.00416183 -0.00197289 -0.699401)
(0.00359425 0.0022546 -0.656941)
(0.011707 0.00842962 -0.626646)
(0.0179743 0.0221326 -0.168764)
(0.0220355 0.0265527 0.216769)
(0.0246377 0.0246377 0.501303)
(0.0262958 0.0193123 0.700906)
(0.0272876 0.0121474 0.827483)
(0.0277552 0.00412899 0.888845)
(0.0277576 -0.00413526 0.888844)
(0.0272947 -0.0121537 0.827481)
(0.0263068 -0.0193185 0.700906)
(0.0246512 -0.0246435 0.501303)
(0.0220495 -0.0265581 0.216769)
(0.0179863 -0.0221372 -0.168766)
(0.0117139 -0.0084324 -0.626653)
(0.00359468 -0.00225549 -0.656952)
(0.00263762 0.00244172 -0.627737)
(0.00877313 0.00885299 -0.545214)
(0.0137273 0.0232003 -0.0406779)
(0.0170875 0.0280883 0.384699)
(0.0193123 0.0262958 0.700906)
(0.0207579 0.0207579 0.923787)
(0.0216319 0.0131206 1.06554)
(0.0220463 0.00447227 1.13437)
(0.0220491 -0.00447394 1.13437)
(0.02164 -0.0131222 1.06554)
(0.0207708 -0.0207596 0.923786)
(0.0193281 -0.0262977 0.700906)
(0.0171038 -0.0280903 0.3847)
(0.0137412 -0.0232022 -0.0406779)
(0.00878087 -0.00885425 -0.545218)
(0.00263837 -0.00244219 -0.627743)
(0.00158183 0.00256157 -0.609362)
(0.00535316 0.00911274 -0.494056)
(0.00848494 0.0238308 0.0399618)
(0.0106701 0.0289977 0.490805)
(0.0121474 0.0272876 0.827483)
(0.0131206 0.0216319 1.06554)
(0.013714 0.013714 1.21726)
(0.0139972 0.00468355 1.291)
(0.0140005 -0.00467912 1.291)
(0.0137233 -0.0137095 1.21725)
(0.0131351 -0.0216278 1.06554)
(0.0121652 -0.0272843 0.827482)
(0.0106885 -0.0289953 0.490806)
(0.00850047 -0.0238294 0.0399631)
(0.00536155 -0.00911187 -0.494055)
(0.0015822 -0.00256113 -0.609363)
(0.00052494 0.00262096 -0.600478)
(0.00179157 0.00923944 -0.469361)
(0.00285791 0.0241279 0.0789154)
(0.00361266 0.0294248 0.542148)
(0.00412899 0.0277552 0.888845)
(0.00447227 0.0220463 1.13437)
(0.00468355 0.0139972 1.291)
(0.00478603 0.00478603 1.36718)
(0.00478982 -0.00477441 1.36718)
(0.00469415 -0.0139858 1.291)
(0.0044885 -0.0220356 1.13437)
(0.00414883 -0.027746 0.888843)
(0.00363323 -0.0294173 0.542149)
(0.00287515 -0.0241226 0.0789186)
(0.0018011 -0.00923637 -0.469355)
(0.00052514 -0.0026199 -0.600474)
(-0.000524611 0.00262127 -0.600481)
(-0.00179625 0.00924038 -0.469363)
(-0.00286641 0.0241295 0.0789145)
(-0.00362151 0.0294269 0.542148)
(-0.00413526 0.0277576 0.888844)
(-0.00447394 0.0220491 1.13437)
(-0.00467912 0.0140005 1.291)
(-0.00477441 0.00478982 1.36718)
(-0.00477037 -0.00477037 1.36718)
(-0.00466777 -0.0139818 1.291)
(-0.00445663 -0.0220316 1.13437)
(-0.00411398 -0.0277422 0.888842)
(-0.00359941 -0.0294141 0.542149)
(-0.00284769 -0.0241199 0.0789207)
(-0.00178607 -0.00923458 -0.46935)
(-0.000524372 -0.00261933 -0.600469)
(-0.00158155 0.00256249 -0.609368)
(-0.00535781 0.00911547 -0.494062)
(-0.00849326 0.0238353 0.0399589)
(-0.0106788 0.0290036 0.490804)
(-0.0121537 0.0272947 0.827481)
(-0.0131222 0.02164 1.06554)
(-0.0137095 0.0137233 1.21725)
(-0.0139858 0.00469415 1.291)
(-0.0139818 -0.00466777 1.291)
(-0.013698 -0.013698 1.21725)
(-0.0131044 -0.0216163 1.06554)
(-0.0121316 -0.0272735 0.827481)
(-0.0106558 -0.0289856 0.490808)
(-0.00847374 -0.0238217 0.0399699)
(-0.00534691 -0.00910711 -0.494041)
(-0.00158136 -0.00255951 -0.609348)
(-0.00263769 0.00244315 -0.627748)
(-0.00877795 0.0088572 -0.545224)
(-0.0137355 0.0232072 -0.0406822)
(-0.017096 0.0280973 0.384697)
(-0.0193185 0.0263068 0.700906)
(-0.0207596 0.0207708 0.923786)
(-0.0216278 0.0131351 1.06554)
(-0.0220356 0.0044885 1.13437)
(-0.0220316 -0.00445663 1.13437)
(-0.0216163 -0.0131044 1.06554)
(-0.0207417 -0.0207417 0.923785)
(-0.0192963 -0.0262808 0.700907)
(-0.0170727 -0.0280754 0.384705)
(-0.0137156 -0.02319 -0.0406655)
(-0.00876636 -0.00884653 -0.545194)
(-0.0026368 -0.00243956 -0.627719)
(-0.00359455 0.00225641 -0.656956)
(-0.0117118 0.00843488 -0.626658)
(-0.0179821 0.0221412 -0.168769)
(-0.0220434 0.0265639 0.216768)
(-0.0246435 0.0246512 0.501303)
(-0.0262977 0.0193281 0.700906)
(-0.0272843 0.0121652 0.827482)
(-0.027746 0.00414883 0.888843)
(-0.0277422 -0.00411398 0.888842)
(-0.0272735 -0.0121316 0.827481)
(-0.0262808 -0.0192963 0.700907)
(-0.0246226 -0.0246226 0.501308)
(-0.0220217 -0.0265395 0.21678)
(-0.0179628 -0.022122 -0.168746)
(-0.0117004 -0.00842261 -0.626619)
(-0.00359299 -0.00225205 -0.65692)
(-0.00416175 0.00197368 -0.699404)
(-0.0133725 0.0077409 -0.744906)
(-0.0200529 0.0203872 -0.35375)
(-0.0240917 0.024096 -0.0240995)
(-0.0265581 0.0220495 0.216769)
(-0.0280903 0.0171038 0.3847)
(-0.0289953 0.0106885 0.490806)
(-0.0294173 0.00363323 0.542149)
(-0.0294141 -0.00359941 0.542149)
(-0.0289856 -0.0106558 0.490808)
(-0.0280754 -0.0170727 0.384705)
(-0.0265395 -0.0220217 0.21678)
(-0.0240718 -0.0240718 -0.0240801)
(-0.0200352 -0.0203677 -0.353719)
(-0.0133606 -0.00772857 -0.744859)
(-0.00415899 -0.00196924 -0.699362)
(-0.00331806 0.00144885 -0.759522)
(-0.0116192 0.00635102 -0.910951)
(-0.0173103 0.0173123 -0.610091)
(-0.0203842 0.0200557 -0.353748)
(-0.0221372 0.0179863 -0.168766)
(-0.0232022 0.0137412 -0.0406779)
(-0.0238294 0.00850047 0.0399631)
(-0.0241226 0.00287515 0.0789186)
(-0.0241199 -0.00284769 0.0789207)
(-0.0238217 -0.00847374 0.0399699)
(-0.02319 -0.0137156 -0.0406655)
(-0.022122 -0.0179628 -0.168746)
(-0.0203677 -0.0200352 -0.353719)
(-0.0172951 -0.0172951 -0.61005)
(-0.0116087 -0.00633973 -0.910896)
(-0.00331441 -0.00144504 -0.759475)
(0.000528624 0.000321369 -0.815209)
(-0.00330132 0.00330166 -1.09481)
(-0.00635008 0.0116198 -0.91095)
(-0.00773891 0.0133735 -0.744903)
(-0.0084324 0.0117139 -0.626653)
(-0.00885425 0.00878087 -0.545218)
(-0.00911187 0.00536155 -0.494055)
(-0.00923637 0.0018011 -0.469355)
(-0.00923458 -0.00178607 -0.46935)
(-0.00910711 -0.00534691 -0.494041)
(-0.00884653 -0.00876636 -0.545194)
(-0.00842261 -0.0117004 -0.626619)
(-0.00772857 -0.0133606 -0.744859)
(-0.00633973 -0.0116087 -0.910896)
(-0.003294 -0.003294 -1.09474)
(0.000530971 -0.00031828 -0.815159)
(0.000876748 -0.000876928 -0.564364)
(-0.000321329 -0.000529027 -0.815208)
(-0.0014487 0.00331801 -0.75952)
(-0.00197289 0.00416183 -0.699401)
(-0.00225549 0.00359468 -0.656952)
(-0.00244219 0.00263837 -0.627743)
(-0.00256113 0.0015822 -0.609363)
(-0.0026199 0.00052514 -0.600474)
(-0.00261933 -0.000524372 -0.600469)
(-0.00255951 -0.00158136 -0.609348)
(-0.00243956 -0.0026368 -0.627719)
(-0.00225205 -0.00359299 -0.65692)
(-0.00196924 -0.00415899 -0.699362)
(-0.00144504 -0.00331441 -0.759475)
(-0.00031828 0.000530971 -0.815159)
(0.000877443 0.000877443 -0.564327)
)
;
    }
    outlet
    {
        type            zeroGradient;
    }
}


// ************************************************************************* //
