/*--------------------------------*- C++ -*----------------------------------*\
| =========                 |                                                 |
| \\      /  F ield         | OpenFOAM: The Open Source CFD Toolbox           |
|  \\    /   O peration     | Version:  v2106                                 |
|   \\  /    A nd           | Website:  www.openfoam.com                      |
|    \\/     M anipulation  |                                                 |
\*---------------------------------------------------------------------------*/
FoamFile
{
    version     2.0;
    format      ascii;
    arch        "LSB;label=32;scalar=64";
    class       volScalarField;
    location    "2";
    object      gradTy;
}
// * * * * * * * * * * * * * * * * * * * * * * * * * * * * * * * * * * * * * //

dimensions      [0 -1 0 1 0 0 0];

internalField   nonuniform List<scalar> 
5712
(
10765.9
6205.73
17472.9
11433.9
19024.5
14064.3
29774.8
36877.9
39089.3
47836.3
25332
21999.5
16110.4
12758.3
8092.44
5471.03
18119.7
18676.6
15561.8
18388.2
24397
21969.6
28079.7
22872.5
7628.16
5539.37
4276.31
3181.3
9146.93
7493.55
5529.24
4470.09
16564.6
17270.4
16976.5
14452.2
13339
10332.6
10306.5
11707.3
16687.5
16590.2
34797.4
35994.9
24754.7
25476.9
14117.7
11906.3
15411.2
10994.3
7170.84
7353.86
5799.97
7898.78
3029.1
3592.72
7975.09
10672.8
4732.71
5465.68
8894.95
14604.6
6140.2
9943.6
2349.26
5941.4
1956.36
4450.34
16651.3
20665.8
17061.4
20492.7
20336.6
20699.4
20563.2
20339.8
14474.1
19682.3
14978.1
19498.6
16750.6
20305.2
16718
20238.5
20650.9
20025.4
20543.7
19814.4
13342.8
19737.6
12868
19797.1
16138.7
18735.9
20446.1
28196
17087.3
21486
20249.1
30420.9
15311.6
16564.5
20544.9
27212.7
15155.1
15535.8
20776.7
27058.8
4582.96
5915.5
11618.4
19931.4
5757.35
6485.12
15130.8
22949.9
7284.97
7344.78
19420.5
26070.8
23129.5
25008.9
19301.5
18363.3
25926.5
25332.2
23796.2
19791.7
16948.4
29390.9
22954.2
22573.3
19902.2
19414.9
33976.1
1820.98
2174.75
3831.38
8404.76
2609.01
2916.92
5394.66
9620.82
3955.8
3344.03
7457.5
11307.9
25389.6
25657.7
22787.7
22912
19219.5
18037.5
14408.7
12957.7
9937.57
13509.9
22962.2
22662.3
23018.3
23069.7
19784.4
18844.8
16125.4
14612
10644.4
13798.9
22623
25742.6
22504.4
26300.3
21975.2
23117.6
21390.5
23178.8
20352.9
20824.8
20207.4
20253.5
22304.1
26382.9
22180.4
26331
20729.5
23407.6
20538.3
23327.8
20430.4
20784.5
20412.5
20761.5
16964.2
16176.3
10880.3
12033.3
16829.8
15723.1
10696.2
11989.1
17219.3
16152.5
11129.5
12128.3
17292.5
15997.9
11481
12157.6
1537.8
1091.8
784.001
920.001
670.102
632.203
2121.34
1355.22
1062.41
1841.54
1534.92
1362.7
2546.24
2260.96
2329.31
3266.91
2771.6
2539.78
25312
23644.9
22339.9
23064.7
22036.6
21057.1
16415
15707.4
15330.6
10951.1
9870.53
9434.94
4957.74
3830.42
3323.62
22718.4
21809.2
20812.1
23051.8
21738.7
20558.8
16867.1
15062.2
14004
10872
9092.72
8380.61
5285.07
3827.23
3151.78
24698.9
24466.5
26753.3
24206
27711.3
24423.7
33341.9
25557.9
18934.1
19254
18600.5
17086.5
21384
20131.4
20818.4
17575.3
20380.2
20455.3
19154.9
20856.1
25680.1
22618.3
25406.8
25760.4
27661.9
28579.7
20681.1
21531.4
18830.6
18320.3
22520
23038.9
14431.4
6429.03
13203.8
7297.2
14677.3
6459.48
13100
7168.88
14720.1
6508.26
13316.9
7587.53
12878.6
8033.96
13010
7954.09
19674.3
16941.9
19322.3
16813.6
21843.5
19896.3
21865.9
19594.5
18717.6
13770.3
19821.5
13682.5
19619.9
16673.8
19812.6
16468.7
22315.9
19372.1
22284.7
19104.8
18367.5
13758.3
18233.3
13659.4
11645.9
6418.68
10341.8
4942.25
10887.8
5528.18
9954.42
4414.33
11887.3
6976.87
10483.2
5174.41
11866.5
7346.8
10429.9
5213.66
1824.45
667.038
2467.54
93.7639
1978.71
965.24
2657.1
500.794
2578.74
1799.18
3105.98
1406.34
12073.3
19296.7
8242.54
7638.18
3915.64
19045.9
12979
7038.31
6981.52
2758.27
19722
15379.9
11968.5
8725.28
3507.11
88.7853
-22.3076
-1016.95
-1338.43
432.222
144.536
-472.438
-782.581
1238.77
1052.94
425.329
-57.4912
19693.2
19701.7
13230.4
13340.9
8224.52
9071.89
6652.5
6781.32
1911.88
1214.44
18350.9
17252.2
14186.3
13078
10876.4
10376.8
7689.98
7670.66
2858.55
3632.58
14467.1
12349.6
14526.1
11973.8
17357.3
14906.3
17261.8
14577.2
12096.4
10513.6
11711.8
10610.5
14515.4
11740
14425.2
11722.9
17177.1
14788.2
16999.9
14730.4
12337.1
10325.5
12325.3
10506.8
8864.49
8192.8
4054.37
5489.47
8508.01
8040.35
3698.53
5174.54
9324.81
8419.81
4225.31
6038.86
9636.09
8509
4536.02
6198.43
2488.06
2218.55
1825.75
12401.8
6145.99
4871.01
2288.29
2353.98
2085.57
12950.4
7034.17
5823.8
3080.59
3564.31
3649.69
13570.1
8482.54
7448.41
19422.9
18918.6
18378.8
13683.9
13954.7
14007.4
10357.9
10819.8
11050.7
9563.66
9633.87
9508.59
14789.7
10214
9166.21
16469.5
15919
15418.6
12744.7
12558.5
12357.2
11165.4
10970.8
10708.4
11630.3
10661.5
9954.2
17874
11443.6
10240.6
2007.12
408.001
-4.78849
-144.914
2687.8
712.832
97.3602
-106.421
1983.98
382.835
4.47563
-129.334
2777.18
769.664
145.459
-72.4496
1880.8
305.861
14.267
-103.845
2834.26
782.356
190.822
-33.4328
3268.93
997.703
248.992
-3.44347
3440.52
1135.15
328.096
61.2242
2145.86
473.956
93.7371
-59.8901
803.119
-86.2786
-71.8049
-89.049
1390.1
121.309
-37.4935
-110.097
390.805
-255.224
-127.314
-110.512
2631.93
735.066
193.085
-6.54164
1036.93
41.1953
-20.824
-58.1192
2892.25
906.006
277.297
53.085
1119.26
129.188
29.8281
-11.9973
634.344
-110.598
-162.883
-195.923
-1066.94
-768.393
-366.054
-260.708
574.366
-147.97
-160.984
-183.566
-1011.57
-750.481
-351.54
-250.409
565.117
-186.161
-153.333
-167.422
-719.473
-662.759
-313.885
-225.865
339.061
-316.705
-194.013
-166.963
-496.374
-615.324
-266.976
-177.552
-174.871
-459.777
-209.644
-142.572
-3070.8
-1326.61
-472.775
-90.7647
-5662.07
-1677.37
-570.398
-139.21
-2797.04
-1241.31
-448.505
-88.4536
-5247.24
-1576.54
-544.879
-133.98
-2291.24
-1092.51
-396.297
-71.0016
-4572.83
-1411.31
-493.356
-119.904
-1706.05
-929.293
-357.94
-67.327
-3927.41
-1243.99
-441.946
-107.6
-1396.53
-802.98
-316.161
-71.3446
-3974.38
-1143.51
-394.896
-96.7995
-1348.05
-695.141
-252.819
-62.5642
-4725.12
-1098.57
-329.36
-78.2641
-1369.93
-743.429
-287.264
-67.7019
-4719.26
-1122.76
-355.566
-85.6919
-1375.18
-659.504
-205.867
-44.4115
-4865.54
-1071.97
-293.389
-65.1584
-1331.28
-612.471
-156.983
-24.1958
-4731.75
-1024.02
-255.279
-50.5376
-176.726
-114.86
-66.9627
-34.3061
-10.5069
-152.609
-107.404
-64.0413
-33.0334
-10.1355
-164.554
-104.731
-61.007
-31.2553
-9.57352
-132.251
-93.3872
-55.8036
-28.8087
-8.84224
-152.341
-92.8238
-53.6626
-27.4455
-8.4042
-109.208
-77.1456
-46.1178
-23.8176
-7.3123
-69.5861
-52.33
-31.9076
-16.5892
-5.10391
-14.6763
-17.5587
-11.6919
-6.23932
-1.93486
-110.383
-71.3252
-41.4801
-21.2653
-6.51748
-126.348
-66.1537
-36.8196
-18.68
-5.712
-149.597
-86.0839
-48.9412
-24.9331
-7.62857
-162.045
-79.533
-43.936
-22.2374
-6.7946
-69.2084
-48.2651
-28.5266
-14.7063
-4.51539
-87.1582
-45.2303
-25.1488
-12.7811
-3.91169
-18.3353
-15.7588
-9.74896
-5.10562
-1.57639
-40.2146
-16.7371
-8.89312
-4.49319
-1.37576
-215.514
-124.098
-69.9953
-35.5312
-10.8564
-268.482
-131.446
-71.9724
-36.2901
-11.0705
-207.639
-116.78
-65.6805
-33.3246
-10.1818
-260.334
-125.537
-68.6135
-34.5889
-10.5517
-196.877
-105.403
-58.8868
-29.8462
-9.11818
-244.442
-114.517
-62.4364
-31.4751
-9.60318
-193.377
-95.2078
-52.4236
-26.4982
-8.09151
-227.963
-101.112
-55.1099
-27.7965
-8.48282
-193.81
-88.2631
-48.406
-24.455
-7.46807
8237.53
12558.2
8715.68
12904.3
9441.79
13387.9
10005.1
13771.2
9742.56
13409.3
9227.14
10362.3
9167.54
10732.2
9320.95
10343.1
9504.34
10504
7234.88
1233.4
262.01
58.4126
10.2933
8029.45
2277.03
550.136
124.118
21.8669
7355.53
1230.17
259.213
57.5371
10.1084
8155.21
2279.64
548.205
123.028
21.4812
7508.81
1236.98
258.125
56.9969
9.98721
8303.04
2291.95
547.55
122.325
21.3159
7545.39
1215.26
251.061
55.2515
9.66997
8312.49
2270.26
539.872
120.316
20.934
7262.41
1140.34
234.968
51.8391
9.08969
7973.77
2180.56
519.96
116.157
20.2342
6623.59
1081.96
230.223
51.6111
9.11708
6772.85
1940.56
474.692
107.74
18.9396
6794.31
1091.64
229.479
51.1164
9.00031
7092.61
2027.65
491.625
110.708
19.3603
6571.62
1084.19
231.871
52.1196
9.2171
6687.65
1906.7
467.031
106.36
18.7508
6568.12
1079.54
230.788
51.9147
9.17484
6721.6
1903.85
465.346
106.262
18.7071
30562.3
43490.4
42474.9
29642.4
17316
18202.6
25648.9
26735.9
20060.5
22499.1
32108.8
43763.6
40521.9
53680.1
26366.7
30060.1
20690.3
22079.9
11191
12265.6
4896.01
3346.26
1116.74
912.08
1007.92
906.697
1057.06
4888.92
4973.09
3093.29
4385.4
4304.9
1966.07
2610.8
2438.53
1680.15
1907.32
1607.67
4383.93
2561.15
1778.79
1597.85
1941.13
1715.52
1402.69
1353.49
1304.07
1170.42
1502.39
1374.94
4535.37
2886.99
3260.15
2206.75
1885.01
2517.54
1432.46
1188.6
1550.72
10126.2
10597.2
11331.5
13627.9
25193.6
7554.12
9000.82
10319
12235.6
14971.5
2959.38
4282.34
5332.68
6078.35
6475.01
2429.78
3540.1
4426.17
5047.55
5370.16
2681.31
3896.79
4858.14
5525.62
5869.22
2416.32
3521.19
4400.58
5013.58
5329.56
2808.06
4074.28
5076.6
5777.54
6142.15
10448.1
11123.4
11502.6
13055.7
23021.5
10604.4
11118.8
11307
12249.8
14782.8
7233.25
8864
9969.62
11133.5
12437.7
9658.12
10490.4
10637.8
10982.8
11582.6
9461.72
10335.8
10385.4
10449
10661.1
4967.6
6724.82
7963.62
8841.08
9358.64
6305.36
8029.84
9130.57
9973.5
10585.3
5954.8
7671.37
8718.16
9394.76
9779.74
4329.5
6014.41
7239.26
8075.16
8524.06
4833.43
6556.64
7742.17
8528.46
8949.05
4163.74
5820.58
7028.94
7840.01
8261.75
9565.24
10552
11240.9
13069.9
23265.3
6200.1
7989.28
9327.5
10634.5
11940.3
4559.95
6302.74
7593.91
8534.51
9095.39
4140.11
5811.1
7088.2
8023.92
8571.41
4913.46
6698.31
8048.51
9131.97
9895.5
4416.22
6157.6
7511.16
8563.43
9232.77
3672.44
5234.89
6470.16
7385.91
7912.74
3556.94
5087.71
6283.21
7137.84
7604.23
3435.39
4921.76
6063.64
6847.4
7252.82
3098.34
4471.3
5543.7
6286.72
6671.75
3916.79
5533.21
6753.05
7601.63
8058.43
3608.54
5148.28
6336.56
7172.77
7622.53
9630.39
10385
11159.8
13294.2
24285.5
6737.88
8367.89
9759
11478.9
13613.5
7720.11
9378.32
10566.4
12415
16044.1
5476.55
7323.81
8810.38
10214.5
11418.5
4796.45
6601.67
8026.49
9219.09
10066
6107.61
7919.63
9338.93
10795.9
12277.3
3747.01
5331.15
6572.55
7483.15
8001.91
3143.02
4531.7
5621.94
6387.8
6792
4029.72
5682.36
6963.01
7912.09
8469.46
16900.9
11193.3
17438.6
12414.3
22567.7
32110.4
23548.6
31923.9
17969.3
19103.6
15358.4
18377.3
20402.9
19520.9
25836.9
21299.8
13014.9
12111.8
6368.92
5416.89
14209.9
12938
7327.28
5964.21
17578
19045.2
18056.7
16541.9
18372
12090.7
10113.9
11668.6
16576.2
16550.9
34277.3
35875.9
24047.5
25280.6
14639.4
12015.1
16004.7
11095
7749.72
7492.31
12670.2
13971.5
5305.56
5769.37
13974.7
15879.2
6632.74
7302.84
13379.3
18600
7772.08
11941.3
2723.43
6625.4
2030.65
4583.73
16903.9
19447.3
16813.2
19780.6
18474.4
18859.6
19377.3
19305.7
15286.9
19454.2
17345.4
19181.5
16522.4
19923.6
16632.1
20114.8
20036.7
19494.4
20361.5
19649.2
13562.7
19590.6
12895.5
19742.5
16931.8
19918.2
20632.6
28554.7
18432.6
23522.3
20674.3
31202.7
15666
17123.8
20605.1
27363.2
15244.1
15689.2
20783.8
27097.3
17368.3
18794.3
21674.8
32057.6
17520.6
17972.2
23231.6
32523
17338
17078.2
25063.9
32365.4
17167.2
18066.7
18198.2
19217.2
28593.1
17425.4
16197.4
19463.8
17621.6
32616.3
18163.5
18891.2
18607.6
19969.3
35382.2
10622.6
9792.95
9738.74
12501.8
11625.3
10732.8
10106
12875.6
12790.5
11186.2
10597.1
13205
17026.9
16612.8
15887.7
15637.4
18167.3
17168.8
14923.3
13540.6
11128.3
13816.6
18000.9
18071.8
18979.7
19326
18061.9
17146.9
16240.6
14505.2
10985.4
13401.1
20659.1
23471.9
21499.4
25077.6
19624.7
20774.5
20249.5
22018.7
19776.6
20093.2
19227.4
19066.4
21809.3
25786.3
22029.4
26152.6
20192
22842.9
20378.2
23162.3
20117.4
20407.9
20313.2
20648
16784.9
15870
10886.5
11945.1
16664.5
15361.7
10828.8
11932.8
17093.4
15971.5
11107.3
12062.3
17247.7
15939.5
11468.5
12132.2
9023.07
9168.3
3852.82
3563.46
10072.3
9775.62
4321.87
4150.46
9838.22
9273.11
4937.62
4785.1
16615.7
16298.7
16026.8
16231.2
15801.2
15442.2
11777.1
10634.5
5817.27
4842
18680.4
18132.6
19716.4
19125
15457.4
14474.7
10992.7
9552.54
5367.02
4092.98
20203.4
19359.8
24630
21654.2
22605
20284.7
30793
23352.3
18165.5
14642.4
19710
15294.9
18101.9
15011.2
19814.5
15568.2
18333.6
16360.7
16934.3
15927.4
18989.8
19990.1
24117.7
25366.7
26578.1
28262.3
19392.9
21073.3
17835.9
18034.5
21027.3
22538.7
11430
7426.6
11763.3
7649.04
11773.9
7339.46
11938.9
7472.67
12021.2
7247.02
12192.8
7712.07
12238.6
8032.17
12804.5
7947.48
15933
15661.5
17463.3
16018.6
18440.1
17813
20055.6
18429.6
16947.5
13478.6
16243.6
13413.1
18696.3
16249.2
19537.3
16339.5
21428.9
18781.9
22026.2
18925.6
17493.6
13573.3
17979.3
13601.5
11242.9
6794.79
10543.2
5300.3
10833.7
6533.23
10551.5
5183.59
11573.8
7108.52
10545.2
5339.26
11755.9
7376.38
10445.4
5267.28
11164.9
11864.3
6786.17
5968.14
11434.3
12065.5
6638.73
5903.35
11594.2
11634.4
6425.34
5836.35
14248.5
16961.1
14817.7
10522.1
6211.38
15788.5
14767.2
16344
10812.6
5906.75
17434.5
15418.4
13519.2
10804.6
5073.96
13248.7
15529.8
6181.66
7404.68
13075.3
14959.5
6079.35
7213.42
12111.8
13479.3
5659.73
6139.83
15826.4
15329.6
14392
14319.9
14873.4
16074.4
11313.8
12971.8
5343.33
5444.11
16031.8
15065.1
14511.9
13780.4
12992.4
13152.8
10490.5
11387.2
4650.39
6043.25
14158.1
12691.4
14217.3
12083.8
15946.3
13936.1
16452.7
14078.7
12263.2
11079.7
12334
11896.6
14320.1
11787.7
14364.2
11735.8
16770.5
14544.5
16878.2
14661
12356.3
10572.1
12317.2
10569.1
9364.43
8999.33
4529.76
6221.7
9649.54
9731.59
4646.56
6658.9
9523.9
8779.7
4444.42
6431.51
9692.81
8614.56
4610.98
6322.42
20306.9
20406.7
31076.8
25192.7
19175.4
19531.1
29625.5
23913.5
16660.5
17753.6
26939.5
22064.1
15195.9
14924.7
14347.3
14454.9
17070.1
18003.5
16600.9
16999.2
24564
20187.6
14513
14104.8
13794.8
13990
14640.9
15433.6
16578.9
16475
24443.4
18700.4
3376.6
1353.59
588.817
302.993
3694.06
1522.04
647.792
313.504
3229.25
1262.91
545.536
278.583
3619.64
1470.83
618.974
290.365
2950.99
1081.14
481.952
247.056
3490.23
1347.23
584.728
269.007
3650.21
1352.07
520.683
216.694
3568.02
1258.18
419.299
137.724
2707.7
919.13
416.828
210.435
1178.55
227.894
150.408
112.67
2280.14
756.445
377.564
214.309
1008.05
232.492
164.695
124.639
2940.46
999.749
397.085
167.943
1238.42
217.093
120.169
81.3936
2987.24
994.531
347.772
114.443
1182.51
186.286
78.2594
35.9872
2697.92
1030.42
484.311
280.228
1507.76
543.263
333.942
245.404
2494.83
934.108
443.921
259.487
1365.12
490.946
313.899
233.984
2206.2
779.842
385.905
232.077
1264.5
428.054
283.39
210.336
1606.24
494.423
264.854
180.021
1047.47
317.044
231.9
169.287
745.822
203.47
151.237
116.173
-334.179
48.6928
173.475
55.5457
-3283.39
-297.996
86.256
47.9159
-261.008
53.6398
165.478
53.9338
-3008.07
-282.729
81.4238
45.8887
-141.196
42.8364
145.513
44.0973
-2628.78
-280.551
67.5582
39.6283
-146.244
-10.6763
119.116
40.8809
-2522.61
-324.843
40.6386
31.5845
-461.186
-138.965
67.9182
37.9569
-3231.16
-457.166
-2.55801
21.7439
-1074.22
-419.65
-11.6153
28.9468
-4618.06
-807.214
-120.553
-4.82573
-854.772
-300.063
34.4736
36.6706
-4405.88
-658.027
-60.9789
8.96946
-1242.22
-510.045
-57.9485
15.4405
-4839.39
-914.805
-170.312
-19.448
-1293.89
-565.06
-107.996
-3.78225
-4731.2
-975.084
-215.386
-35.4011
194.489
116.767
66.7283
34.0293
10.4124
185.947
112.475
64.4055
32.8678
10.0588
180.745
106.723
60.8599
31.0244
9.4925
166.91
98.7419
56.2984
28.7042
8.78303
163.405
93.9604
53.454
27.2419
8.335
143.312
82.2288
46.6613
23.7638
7.26932
104.517
58.3912
32.7923
16.6454
5.08689
49.3341
24.2094
12.8343
6.38139
1.93696
122.132
72.9425
41.4997
21.1532
6.47231
96.4035
62.4589
36.127
18.4849
5.65964
146.613
85.1639
48.4737
24.7135
7.56175
125.692
74.8689
43.0146
21.9739
6.72407
84.4651
50.8322
28.8584
14.6938
4.49463
57.0446
42.0358
24.6789
12.6691
3.88358
34.9517
18.6001
10.2463
5.15781
1.5704
9.30935
13.6766
8.55132
4.43338
1.36002
206.412
121.288
68.9438
35.1119
10.7405
222.032
124.551
70.3295
35.7741
10.9404
196.38
113.942
64.6908
32.9409
10.0767
213.608
118.829
67.054
34.1072
10.4314
180.399
102.135
57.9328
29.5071
9.02793
197.109
108.121
61.0211
31.0528
9.49993
161.825
90.294
51.3433
26.1765
8.01118
177.12
95.0346
53.8477
27.4415
8.40128
146.303
82.7848
47.3215
24.146
7.38647
10454.7
13732.5
10521.9
13755.7
10666.8
13785.9
10527
13654.5
9881.66
13027
9238.41
10328.9
9236.23
10692
9315.26
10315.5
9500.11
10493.1
7990.04
1324.79
277.188
61.3155
10.7607
8604.31
2423.15
581.045
130.32
22.8724
7966.05
1304.58
271.908
60.0283
10.5163
8577.45
2395.9
573.944
128.34
22.3528
7883.06
1284.26
266.846
58.8269
10.2993
8498.39
2363.48
565.406
126.285
21.9932
7686.54
1235.63
255.629
56.3488
9.87123
8308.57
2299.56
549.786
122.836
21.3959
7279.82
1144.58
236.575
52.3355
9.19194
7888.12
2185.66
524.327
117.53
20.5107
6618.92
1081.19
230.22
51.6631
9.13403
6758.94
1938.62
474.834
107.918
18.9906
6799.35
1091.95
229.85
51.2917
9.04341
7072.83
2027.31
492.951
111.275
19.4913
6565.27
1083.32
231.782
52.1276
9.22277
6676.46
1904.73
466.836
106.388
18.7664
6565.35
1079.16
230.741
51.913
9.17588
6717.1
1903.05
465.238
106.26
18.7099
30132.4
43204.1
41491
28355.9
22128.1
26289.2
21418.2
26204.3
24962.6
39494.9
26427.6
40409.8
398.566
417.626
459.867
527.638
624.949
756.02
414.525
433.95
476.803
544.901
640.719
766.87
386.425
380.42
406.789
402.895
452.03
452.992
525.175
535.404
629.007
651.164
762.319
788.301
925.043
1135.68
1401.96
1746.56
2139.11
2420.7
925.391
1116.82
1340.92
1587.88
1821.3
1971.93
1067.48
1567.18
1971.02
2254.59
2400.78
1118.39
1641.61
2064.27
2360.95
2513.88
1231.21
1806.55
2270.94
2596.77
2764.71
1412.03
2070.52
2601.35
2973.62
3165.49
1671.1
2447.59
3072.36
3510.38
3736.36
2018.56
2950.45
3698.27
4223.11
4494.81
1110.15
1629.67
2049.45
2344.19
2496.13
1161.98
1705.36
2144.18
2452.18
2610.96
1276.33
1872.32
2353.21
2690.63
2864.57
1457.82
2136.86
2684.07
3067.96
3265.99
1712.54
2506.96
3146.04
3594.63
3826.5
2046.43
2989.33
3746.26
4278.88
4555.59
1035
1519.59
1911.28
2186.33
2328.13
1018.93
1496.05
1881.71
2152.54
2292.17
1089.43
1599.23
2011.12
2300.26
2449.3
1079.02
1584
1992.01
2278.44
2426.07
1210.32
1776.1
2232.84
2553.3
2718.44
1212.91
1779.93
2237.68
2558.81
2724.29
1405.58
2061.35
2590.02
2960.67
3151.64
1432.93
2101.36
2640.13
3017.72
3212.22
1682.17
2464.15
3093.17
3533.75
3760.78
1741.23
2550.13
3200.28
3655.24
3889.48
2035.86
2976.29
3730.19
4257.9
4530.24
2104.95
3076.3
3853.63
4396.44
4675.9
2462.82
3586.35
4485.01
5119.12
5450.9
3007.36
4349.72
5420.4
6188.48
6602.12
3674.34
5248.03
6502.04
7438.24
7977.7
4489.74
6267.28
7690.63
8846.16
9611.17
5340.83
7202.86
8713.04
10100.5
11217.4
5922.49
7796.68
9339.37
10887.8
12283.6
2462.76
3584.97
4483.84
5120.53
5455.18
2958.98
4283.37
5342.32
6103.33
6513.01
3527.63
5062.59
6289.21
7194.98
7704.4
4134.45
5860.5
7242.04
8307.23
8949.02
4685.18
6546.54
8041.86
9255.85
10049.2
5032.09
6965.49
8525.27
9837.28
10739.9
401.66
427.047
476.028
551.204
656.765
797.002
417.683
443.533
493.123
568.39
671.713
805.227
389.578
383.7
416.425
412.953
468.682
470.49
549.754
561.531
662.501
686.364
806.978
836.323
974.415
1189.18
1452.38
1784.09
2158.89
2426.24
969.623
1163.41
1384.54
1622.47
1842.7
1979.03
1075.8
1579.51
1986.67
2272.62
2420.05
1143.76
1679.22
2112.04
2416.03
2572.8
1274.8
1871.3
2353.37
2691.99
2866.66
1475.75
2165.54
2722.81
3114.39
3316.5
1757.48
2577.26
3239.2
3704.78
3945.5
2130.55
3120.27
3918.95
4482.26
4774.81
1118.66
1642.29
2065.5
2362.7
2515.95
1187.83
1743.74
2193.02
2508.6
2671.35
1320.41
1937.92
2436.91
2787.48
2968.39
1521.41
2231.9
2805.8
3209.28
3417.73
1796.77
2633.6
3309.22
3785
4031.44
2151.25
3148.29
3952.85
4521.51
4817.78
1043.48
1532.14
1927.17
2204.62
2347.67
1027.76
1509.09
1898.22
2171.53
2312.45
1115.36
1637.62
2059.81
2356.35
2509.26
1106.08
1624.04
2042.77
2336.87
2488.53
1255.21
1842.69
2317.52
2651.03
2823.03
1260.07
1849.89
2326.6
2661.42
2834.09
1472.01
2160.34
2716.46
3107.12
3308.69
1503.58
2206.7
2774.76
3173.76
3379.59
1773.15
2600.8
3269.11
3738.84
3981.49
1837.05
2694.54
3386.83
3873.27
4124.45
2158.07
3162.04
3972.1
4542.45
4837.94
2236.79
3277.72
4117.28
4707.79
5013.32
2599.15
3796.37
4762.03
5448.17
5808.68
3157.57
4586.75
5739.83
6574.11
7025.2
3820.3
5487.74
6835.79
7850.95
8436.87
4605.26
6470.05
7986.37
9224.6
10041.9
5409.16
7334.18
8913.8
10366.8
11529.9
5944.13
7841.46
9409.95
10983.7
12398.5
2584.62
3772.05
4729.84
5412.11
5771.86
3088.84
4486.21
5613.26
6428.35
6868.4
3651.36
5260.53
6559.15
7523.92
8067.4
4235.1
6026.69
7474.37
8595.76
9271.22
4749.47
6656.36
8199.01
9454.57
10274
5053.94
7003.69
8580.73
9908.2
10820.9
4876.62
3344.82
1179.91
967.161
1081.04
967.467
1126.36
4525.63
4429.6
3000.29
3749.03
2007.04
2545.27
1744.62
1901.67
1655.95
4223.31
2568.82
1845.95
1672.99
1999.33
1780.23
1464.81
1428.74
1395.3
1258.04
1583.91
1456.92
4478.28
2891.94
3223.77
2237.36
1936.17
2534.83
1501.91
1264.03
1623.12
10123.3
10652.3
11438.9
13804
25517.7
7568.32
9050.93
10409.1
12369.6
15147.3
3137.83
4566.38
5718.24
6546
6989.19
2582.27
3775.92
4738.32
5419.24
5774.78
2885.96
4218.59
5290.85
6047.13
6440.67
2584.82
3782.5
4747.42
5427.5
5780.69
3003.14
4383.35
5494.47
6282.79
6696.53
10178.6
11739.2
12974.6
15349.8
26637.3
10197.3
12034.3
13515.6
15618.3
19054.9
7284.7
9496.68
11299.9
13108.2
14847.3
9157.61
11445.5
12986.8
14627.5
16054.9
5199.77
7319.7
8991.14
10258.8
11012.7
6404.01
8692.35
10476.6
11941.6
12933.8
4582.28
6559.36
8125.16
9265.74
9897.48
4967.39
7060.19
8707.19
9917.26
10598.8
4367.64
6284.18
7804.07
8897.09
9488.98
9455.79
10931.5
12163.6
14526.1
25682
6357.72
8493.33
10250.9
11952.6
13533.2
4812.58
6831.71
8442.32
9668.23
10401.7
4385.22
6269.13
7782.05
8924.85
9596.67
5140.94
7185.84
8838.29
10196.2
11133.3
4628.4
6555.84
8116.59
9353.32
10136.2
3856.11
5544.49
6909.64
7935.95
8528.24
3780.43
5466.85
6823.79
7815.1
8361.14
3706.96
5384.43
6726.56
7681.39
8187
3349.43
4879.06
6106.93
6978.44
7437.2
4181.09
6024.94
7496.34
8564.36
9150.82
3856.84
5579.09
6960.19
7960.9
8506.66
9622.38
10556.9
11500.9
13842.9
25290.5
6792.75
8520.98
10023.7
11860
14096.3
7761.93
9682.65
11178.2
13346.5
17308.6
5596.17
7576.47
9216.77
10768.2
12076.2
4970
6936.44
8543.43
9902.44
10856.4
6246.48
8312.03
10040.9
11797.1
13495.2
3955.92
5690.61
7090.12
8136.19
8735.1
3360.5
4887.42
6115.4
6994.93
7464.14
4257.26
6092.54
7571.68
8693.89
9355.07
11600.5
10820.3
9505.07
7766.02
5542.43
2146.45
17263.3
17620.7
19985.2
20566.7
17021.2
18144.6
19197
18710.9
14150.4
17298.7
14795.1
17852.5
17042.2
15395
23649.5
16661.2
16892.3
18950
19312
16182.2
17289.7
18442.3
18137.8
14132.8
20910.6
14704.3
20865
17257.2
18705.2
25420
16021.9
16137.3
17669
17808.8
15615.3
17098.4
17463.3
17616.1
16271.8
18614.8
17018.6
18669.1
18807.8
20652.2
23021.4
15482.3
15616.7
16606
16602
15385.9
17110.9
16554.8
16966.7
15384.1
16401.2
16113.7
16039.1
17360.5
18773.2
20091.6
14904
15070
15946.1
15866.4
15275.7
17163.7
16028.5
16615.2
14695.9
13673.4
15456.1
13186.3
16125.4
16041.7
16785.7
14705.1
14909.8
15539.3
15432.1
15051.5
16640.5
15724.1
16225.3
14140.3
11871.6
14725.3
11682.7
15133
14274.6
15337.4
19720.2
19008.6
20830.7
21821.6
18481.7
18603.1
19515.4
18770.1
17307.1
12270.4
17358.9
12451
15373.4
14193.4
16405.5
18754.4
18261.4
19363.3
19995.1
18020
18292.5
18523.6
17908.1
16267
11962.7
16334.7
12147.5
14254.9
12700.6
15295.2
17559.5
17298.1
17660.7
17938.7
17224.5
17494.8
17289.3
16958.7
15728.6
12154.3
15588
11972.9
13923.6
11654.8
15548
16582
16461.7
16510.7
16606
16449.2
16658
16445.2
16201.8
15383.2
13367.1
15323.9
13117.8
13906.8
12232.1
16782.1
16290.5
16230.8
16006.3
16025.1
16036.3
16231.1
16059.4
15939.8
15751.7
15387.7
15713.7
15328.6
14560.2
13339.8
18333.8
16082
16020
15784.5
15781.4
15845.7
16215.8
15797.7
15795.5
16049
16662.1
16078
16619.9
15047.5
14290.6
19604.2
10590.4
6007.47
17465.9
11440.2
19043.8
14052.5
29800
36890
39134.9
47858.5
25377
21999.6
16117.2
12781.9
7849.86
5221.69
18122.3
18678.6
15560.4
18389
24408.7
21974.6
28087
22876.3
7471.61
5430.08
4132.32
3085.69
9121.72
7484.67
5527.92
4482.54
16560.2
17266
16975
14452.5
13335
10335.4
10307.3
11708.6
16688.9
16591.6
34803.5
35999.1
24757.6
25479
14118.4
11907.6
15412.5
10995.5
7171.86
7354.84
5696.34
7772
2947.98
3503.5
7976.65
10683.8
4745.74
5480.82
8895.99
14610.1
6145.8
9950.65
2350.5
5944.13
1956.79
4451.38
16652.2
20666.7
17062.6
20493.7
20339.1
20700.7
20565.3
20340.8
14475.8
19683.3
14978.2
19499.4
16751.7
20306
16718.9
20239.3
20652.5
20026.1
20544.7
19814.9
13344
19738.6
12869
19798.1
16140.4
18739.2
20447.6
28198.2
17088.6
21489.5
20250.6
30423.4
15313.2
16566.9
20546.3
27214.7
15156.6
15537.7
20778.2
27060.8
4507.06
5840.57
11458.3
19756.1
5762.41
6488.68
15144.8
22966.6
7287.22
7346.67
19426.7
26077.1
23129.5
25009.6
19301.2
18364.3
25930
25332.7
23796.1
19790.8
16949
29394.7
22955
22573.8
19902.6
19416.3
33979.1
1782.58
2144.73
3751.79
8321.36
2613.08
2920.72
5404.92
9629.36
3957.63
3345.13
7460.88
11310
25389.8
25657.8
22787.5
22911.9
19218.9
18037.2
14409.4
12958.4
9939.28
13511.1
22962.6
22662.4
23018.5
23069.9
19784.7
18845.2
16126.4
14612.8
10645.5
13799.6
22623.5
25742.7
22504.9
26300.5
21975.7
23117.7
21390.9
23178.8
20353.5
20825.3
20208
20254
22304.6
26383.1
22180.8
26331.2
20729.8
23407.7
20538.4
23327.8
20431.1
20785
20413.2
20761.9
16965
16176.9
10881
12033.9
16830.7
15723.8
10697.1
11989.8
17220
16153
11130.2
12128.9
17293.2
15998.4
11481.6
12158.1
1516.2
1074.65
769.633
915.238
664.639
625.713
2127.1
1358.36
1063.98
1847.2
1538.66
1365.05
2546.83
2261.73
2330.16
3267.96
2773.01
2541.21
25312.1
23645.2
22340.3
23064.9
22037.1
21057.8
16415.4
15708.1
15331.4
10951.7
9871.34
9435.85
4958.4
3831.19
3324.36
22718.5
21809.5
20812.5
23052.1
21739.3
20559.5
16867.5
15062.8
14004.7
10872.6
9093.34
8381.28
5285.53
3827.68
3152.19
24703
24467.7
26756.1
24207.2
27724
24428.7
33353
25562.3
18770.7
19203.8
18409.9
17027.9
21356.7
20106.1
20787.5
17550.4
20375.3
20451.4
19154.8
20854.6
25665.1
22604.8
25407.7
25760.6
27665.1
28581.5
20679.4
21530.5
18829.8
18319.4
22513.4
23035.7
14436.4
6436.82
13203.7
7306.52
14660.3
6454.93
13085.5
7165.55
14709.1
6504.07
13307.3
7583.27
12873.2
8030.74
13007.2
7952.1
19672.8
16941.6
19321.4
16813.3
21845.3
19897.1
21867.5
19595
18712.9
13769.1
19815.4
13681.1
19619.4
16673.5
19812.1
16468.4
22317
19372.4
22285.2
19104.8
18364.7
13757.4
18231.6
13658.6
11643.1
6416.48
10340.3
4941.11
10884.8
5525.99
9952.67
4413.07
11885.2
6975.02
10482
5173.44
11865
7345.41
10428.9
5212.85
1815.7
655.014
2458.24
80.2353
1979.03
966.121
2656.77
501.272
2577.92
1799.04
3104.51
1405.66
12074
19297.8
8242.25
7636.84
3914.27
19046.7
12979.4
7038.32
6980.59
2757.34
19722.8
15379.9
11967.6
8723.91
3506
72.7858
-42.8811
-1029.3
-1333.53
433.505
144.132
-472.747
-783.906
1239.04
1053.71
425.148
-56.9973
19693.5
19701.7
13230.3
13340.7
8224.3
9071.51
6651.97
6781.17
1911.36
1214.39
18351.3
17252.3
14186.2
13077.8
10875.9
10376.4
7689.21
7670.27
2857.83
3632.15
14466.9
12349.3
14525.8
11973.5
17357.6
14906.3
17262
14577.2
12095.8
10513.1
11711.1
10610
14515.2
11739.7
14424.8
11722.6
17177.2
14788.1
16999.8
14730.3
12336.6
10325.1
12324.7
10506.3
8863.68
8192.26
4053.66
5488.86
8507.11
8039.8
3697.76
5173.93
9324.1
8419.3
4224.69
6038.28
9635.45
8508.53
4535.46
6197.9
2444.93
2182.94
1797.61
12345.1
6095.1
4822.1
2284.17
2352.11
2085.55
12944.2
7033.77
5824.11
3081.53
3565
3650.24
13570.3
8483.29
7449.3
19422.8
18918.6
18378.8
13683.5
13954.3
14007
10357.3
10819.2
11050.2
9563.61
9633.74
9508.45
14789.4
10214.3
9166.58
16469.4
15919
15418.6
12744.5
12558.3
12357.1
11165.2
10970.6
10708.3
11630
10661.4
9954.15
17873.3
11443.4
10240.7
2009.89
408.67
-5.07923
-145.386
2688.51
711.862
96.3026
-107.328
1982.93
382.443
4.30217
-129.418
2776.74
769.534
145.389
-72.492
1879.64
305.461
14.0856
-103.944
2833.16
782.016
190.668
-33.5174
3267.81
997.333
248.83
-3.53513
3439.65
1134.83
327.954
61.1417
2144.94
473.566
93.5569
-59.9921
802.494
-86.6142
-71.983
-89.1605
1389.19
120.918
-37.6828
-110.205
390.146
-255.571
-127.498
-110.625
2631.07
734.694
192.909
-6.64429
1036.36
40.884
-20.9918
-58.228
2891.54
905.685
277.145
52.9946
1118.77
128.911
29.6782
-12.0951
636.525
-109.454
-162.711
-196.066
-1065.75
-768.114
-366.069
-260.717
573.526
-148.326
-161.154
-183.662
-1012.4
-750.717
-351.646
-250.504
564.267
-186.52
-153.511
-167.524
-720.164
-663.043
-314.032
-225.965
338.308
-317.056
-194.199
-167.079
-497.03
-615.631
-267.141
-177.657
-175.503
-460.112
-209.826
-142.691
-3066.16
-1326.18
-472.639
-90.7267
-5654.5
-1678.09
-570.759
-139.266
-2797.95
-1241.36
-448.608
-88.5083
-5248.47
-1576.33
-544.852
-133.987
-2291.82
-1092.7
-396.403
-71.0328
-4573.34
-1411.43
-493.419
-119.927
-1706.56
-929.56
-358.076
-67.3639
-3927.75
-1244.21
-442.058
-107.635
-1397
-803.279
-316.32
-71.3904
-3974.65
-1143.77
-395.033
-96.8406
-1348.44
-695.423
-252.974
-62.6068
-4725.3
-1098.82
-329.507
-78.309
-1370.37
-743.728
-287.422
-67.7449
-4719.46
-1123.02
-355.714
-85.736
-1375.53
-659.761
-206.01
-44.4482
-4865.68
-1072.2
-293.526
-65.2
-1331.58
-612.7
-157.11
-24.2272
-4731.88
-1024.23
-255.401
-50.5744
-177.037
-115.223
-67.2124
-34.4404
-10.5485
-153.292
-107.967
-64.4045
-33.2258
-10.1949
-164.62
-104.758
-61.024
-31.2652
-9.57671
-132.283
-93.4037
-55.8158
-28.8161
-8.84465
-152.412
-92.857
-53.6815
-27.4558
-8.40744
-109.265
-77.1746
-46.135
-23.8269
-7.31525
-69.6483
-52.3655
-31.9274
-16.5994
-5.10707
-14.7343
-17.5932
-11.711
-6.24891
-1.93777
-110.459
-71.3633
-41.5009
-21.276
-6.5208
-126.441
-66.1978
-36.8426
-18.6914
-5.71544
-149.678
-86.1222
-48.962
-24.9439
-7.63191
-162.14
-79.5765
-43.9586
-22.2487
-6.79794
-69.2824
-48.3052
-28.5482
-14.7172
-4.51876
-87.2496
-45.2743
-25.1717
-12.7925
-3.91518
-18.4019
-15.7961
-9.76911
-5.11558
-1.5794
-40.2977
-16.7775
-8.91416
-4.50351
-1.3789
-215.603
-124.36
-70.185
-35.6338
-10.8881
-268.501
-131.672
-72.1321
-36.3756
-11.0969
-207.719
-116.808
-65.6978
-33.3349
-10.1851
-260.408
-125.554
-68.6283
-34.5984
-10.5548
-196.957
-105.438
-58.9063
-29.8568
-9.12157
-244.523
-114.55
-62.4552
-31.4857
-9.60657
-193.465
-95.248
-52.4449
-26.5093
-8.09499
-228.053
-101.151
-55.1309
-27.8077
-8.48645
-193.906