/*--------------------------------*- C++ -*----------------------------------*\
| =========                 |                                                 |
| \\      /  F ield         | OpenFOAM: The Open Source CFD Toolbox           |
|  \\    /   O peration     | Version:  v2106                                 |
|   \\  /    A nd           | Website:  www.openfoam.com                      |
|    \\/     M anipulation  |                                                 |
\*---------------------------------------------------------------------------*/
FoamFile
{
    version     2.0;
    format      ascii;
    arch        "LSB;label=32;scalar=64";
    class       volScalarField;
    location    "2";
    object      gradTx;
}
// * * * * * * * * * * * * * * * * * * * * * * * * * * * * * * * * * * * * * //

dimensions      [0 -1 0 1 0 0 0];

internalField   nonuniform List<scalar> 
5712
(
-6083.12
-7763.14
-14474.8
-21083.3
-21614.1
-37168.5
-16724.6
-42215.6
-13541.5
-29601.6
-20170.4
-30622.7
-18082.6
-23675.8
-7949.98
-9078.47
-13704.1
-15769.8
-17629.2
-17592.5
-14119.5
-17623
-20555
-18680.1
-4932.29
-3682.28
-6130.09
-4103.18
-11446
-9092.68
-19523.6
-14086
-15217.9
-15831.8
-16904.1
-16072.8
-5827.61
-4602.86
-36007
-48224.4
-23393.8
-28688.6
-48486.1
-62911.3
-25356
-28966.1
-26662.1
-37689.8
-23316.5
-30902.5
-13539.5
-21899.6
-2573.47
-865.034
-2710.65
-974.648
-7785.4
-3128.63
-10691.7
-3919.95
-7627.84
-2923.75
-8161.55
-2608.62
-13912
-4417.47
-17962.1
-6047.12
-22518.5
-11227
-20553.1
-12315.4
-21444.3
-13997.7
-18787.8
-14340.8
-16007.1
-9561.9
-16015.8
-8155.36
-21145.2
-13719.9
-21171.1
-13860.9
-19740.6
-15174.6
-19949.2
-15258.8
-17268.6
-11071.6
-17879.1
-11355.6
-16226.1
-6978.24
-7492.55
-9014.19
-16316.2
-7613.34
-6494.26
-9065.6
-17183.8
-6962.23
-8523.44
-9124.4
-18039.1
-7139.17
-9288.93
-9559.46
-3339.87
-3642.84
-1113.97
-2134.42
-9827.52
-10387
-3748.61
-6534.57
-12599.1
-14075.5
-5937.84
-10040.7
-11829.8
-1105.37
-12829.3
-15581.7
-8322.4
-774.367
-7297.57
-11427.4
-18276.7
-12258.8
-9492.79
-11233
-9610.84
-8128.54
-12627
-3262.48
-2729.61
-1850.48
-1845.87
-9246.29
-7931.37
-5469.45
-5231.07
-11613.4
-10052.6
-7149.94
-6459.15
-5749.22
-7365.83
-11808.7
-12263.4
-13318.3
-12193.7
-14973.7
-13183.9
-9830.8
-8278.04
-8836.38
-9471.06
-11475.1
-9334.59
-10323.9
-7780.18
-8826.66
-6306.01
-10069.2
-6703.23
-9922.39
-4960.94
-8523.7
-9344.85
-12326.2
-16275.8
-13598.8
-19842.2
-6672.82
-7544.88
-8696.56
-3157.27
-7609.11
-14611.6
-7222.66
-15607.8
-13474.9
-24412.5
-13711.6
-25831.4
-5633.3
-12390
-5106.19
-13149.4
-7642.66
-5940.63
-10491.8
-4293.36
-7964.29
-1970.46
-9204.71
-1077.99
-7311.64
-8758.71
-10977.7
-5144.12
-6027.46
-10276.2
-9688.02
-6711.56
-2224.34
-1996.17
-1838.24
-1587.67
-1482.15
-1356.34
-6640.53
-5626.95
-4997.09
-4190.72
-3496.94
-3115.44
-8301.25
-7366.19
-6899.38
-5072.77
-4299.42
-4134.92
-6633.6
-6049.99
-5975.2
-10885
-8609.25
-7399.77
-10036.3
-7735.05
-6441.48
-10557.9
-8636.62
-7651.14
-6275.84
-4317.91
-3461.06
-15761.7
-14021.6
-12398.2
-9901.19
-8535.45
-7317.1
-8574.09
-6945.82
-5767.14
-7023.89
-5301.88
-4263.58
-6953.09
-4012.64
-2387.19
-10163.5
-13910.6
-7962.75
-10423.8
-10734.1
-15881.6
-9499.82
-13917.6
-212.34
-884.04
322.102
-227.488
-3182.88
-3614.74
-1435.34
-902.984
-1171.83
-3007.11
-9485.75
-13891.1
-6640.2
-3530.51
-9614.8
-9505.94
-14469.2
-15851.2
247.613
3437.9
-7573.1
-7101.06
-6411.84
-4941.65
-1157.45
-661.405
-707.635
-284.947
-2513.94
-734.481
-130.98
427.78
-9331.09
-2887.56
-6228.17
-1997.73
-8331.06
-2669.93
-9924.9
-3303.33
-9316.82
-12114.6
-8524.88
-11861.4
-13975.3
-14726.5
-13225.1
-13984.8
-6311.46
-10074.6
-7255.72
-9959.72
-8877.16
-11473.5
-9647.63
-11608.9
-13667.6
-13754.5
-14248.9
-13830.6
-6264.72
-9820.02
-6682.53
-10021.5
-1225.86
-2563.64
-8484.22
-6328.7
-751.935
-2178.31
-7872.78
-5695.16
-1499.01
-2654.43
-8703.74
-6801
-1852.37
-2841.52
-8813.79
-7097.87
315.207
402.342
-350.374
-260.374
1862.89
1922.85
-363.206
-327.607
-615.097
690.403
-2658.81
-2231.77
9599.63
9181.63
4646.98
2876.46
-630.792
10151.3
10436.5
3605.4
4950.49
-482.408
-10123.3
-8454.84
-8041.44
-7938.75
-5832.51
522.51
582.662
-220.145
-432.038
1705.45
2025.69
-743.393
-1187.85
1603.94
2610.7
-1858.32
-2547.6
4954.97
2298.33
7830.23
4946.99
2830.78
2164.28
2875.21
2674.68
-2039.63
-3411.15
-3905.05
-2530.48
-1581.51
629.862
-1989.52
5.29272
-3198.8
-1796.81
-4187.24
-4911.83
-5873.39
-5507.51
-10571.1
-6790.26
-8284.58
-8470.48
-12450.8
-10284.9
-9056.99
-6033.35
-5113.33
-5198.72
-12284.2
-6042.42
-13449.7
-6699.01
-13825.7
-10532.8
-14732.4
-11246.5
-10673.9
-5276.08
-11840.8
-5931.79
-8334.3
-7450.27
-7800.81
-11491.9
-5969.26
-6882.22
-6878.52
-10640.4
-9327.87
-7580.98
-8667.68
-13073.2
-10760.8
-8218.29
-10053.8
-13545.4
775.284
953.815
1136.16
-183.539
304.314
382.184
2990.9
3558.85
3689.6
-251.188
906.855
992.74
3703.21
4665.11
4969.58
-1607.64
797.059
1288.16
1353.08
1250.48
972.333
3913.74
4308.64
4142.32
3033.68
3928.05
4034.2
3756.38
4651.73
4753.5
-2850.37
156.539
508.993
-3559.04
-1911.55
-889.94
829.764
2436.27
3284.52
536.187
2720.33
3668.85
-310.105
2193.79
2937.5
-4249.02
382.998
999.293
-44.5405
7.49002
25.4033
24.8043
230.026
142.276
98.9475
67.7964
-189.391
-10.6906
46.7996
45.8918
319.781
240.343
190.666
136.696
-561.421
-118.777
23.1688
30.4177
-93.7146
122.96
188.774
176.327
-115.938
73.371
116.603
99.8924
-356.902
-75.1952
24.0587
37.203
-1478.75
-434.529
-66.4918
41.4421
-2201.1
-621.081
-167.936
-69.6734
-1166.74
-293.195
-10.8323
66.6664
-1869.88
-503.858
-136.144
-78.1316
-1501.53
-462.43
-90.4432
2.22995
-2416.84
-706.836
-192.659
-69.1162
-1601.07
-536.293
-142.815
-35.3666
-2561.99
-777.975
-230.72
-87.5699
-67.3357
-8.97698
7.79332
5.42718
-29.5893
8.22477
13.2878
3.72816
-116.614
2.20848
33.3781
25.4014
7.31975
53.7976
48.7205
17.4485
-815.62
-217.125
-43.735
-21.9588
-551.189
-106.971
6.71971
-7.11468
-469.708
-23.9657
68.7737
56.3249
-335.991
-11.8307
31.5942
-31.7491
-1705.33
-433.512
-115.693
-102.613
43.8238
31.4364
18.091
8.48285
159.839
63.4677
29.1756
18.3199
45.1338
65.035
48.488
26.1005
394.642
165.985
81.7054
51.7763
-138.511
42.9245
54.9207
28.9624
447.668
223.919
117.849
75.5082
-468.213
-3.78463
52.3588
20.84
222.612
223.172
134.294
87.6879
-1067.63
-136.884
29.5332
30.9109
-177.888
169.049
137.177
99.6517
-1951.65
-328.831
-19.6042
16.4613
-732.538
-18.9159
65.3401
63.4867
-1625.14
-225.199
22.0266
35.8288
-591.848
58.4501
103.126
88.1068
-2242.78
-448.712
-84.5918
-22.8935
-869.934
-94.2566
14.6754
25.2296
-2447.58
-567.297
-157.145
-63.729
-1002.65
-182.207
-43.2722
-13.3377
24.8735
17.3933
11.2794
7.66698
6.04615
46.8529
29.9836
19.0353
12.8728
10.1401
57.19
40.059
25.9694
17.6495
13.9178
103.378
66.6434
42.3946
28.6864
22.6003
68.6396
49.1874
31.9542
21.7232
17.1317
136.686
87.9553
55.8914
37.8098
29.7882
68.9705
44.5267
28.3422
19.191
15.1258
32.8173
22.4013
14.4924
9.85717
7.77707
75.7131
51.6169
33.2133
22.5341
17.7646
26.4066
19.3713
12.6264
8.59127
6.77753
100.897
65.1804
41.3422
27.9437
22.0106
29.3585
20.5228
13.2265
8.97208
7.07268
39.8599
29.5301
19.3566
13.1957
10.414
22.2598
16.5446
10.8132
7.36432
5.81053
12.2452
12.5427
8.7045
6.0122
4.75587
3.43744
5.03476
3.598
2.4977
1.97715
17.2352
12.7157
8.28821
5.63586
4.44408
16.9339
11.156
7.07991
4.78147
3.76409
48.1924
33.6049
21.6098
14.6438
11.5371
47.7763
30.4834
19.195
12.938
10.1795
51.8638
38.9293
25.3214
17.203
13.5611
69.0663
43.1951
27.0869
18.2455
14.3542
82.8807
52.1655
32.8006
22.118
17.4129
58.0254
34.6277
21.521
14.4708
11.381
48.3949
29.4612
18.4119
12.4004
9.76279
-370.431
-470.832
-862.001
-1161.99
-966.331
-1472.74
-519.571
-1248.84
86.1775
-403.217
-785.331
-1224.63
-27.8364
-92.712
-1109.66
-1712.52
-1359.77
-1924.75
-540.761
-124.297
-27.795
-6.09785
-1.51838
-200.906
-84.0427
-12.1256
-3.12614
-1.31137
-1662.04
-380.552
-85.3946
-18.6431
-4.64811
-486.136
-126.47
-30.0086
-6.24762
-1.6463
-2804.12
-643.599
-144.788
-31.7064
-7.88678
-761.608
-211.574
-50.294
-11.4664
-2.84105
-3788.36
-872.324
-197.012
-43.2623
-10.7715
-882.452
-264.946
-65.0745
-15.0272
-3.72139
-4771.97
-1110
-252.401
-55.6928
-13.9214
-966.448
-319.37
-80.8996
-18.9555
-4.75226
-5740.93
-1377.76
-317.66
-70.6717
-17.7384
-1436.23
-435.411
-106.711
-24.3195
-6.04031
-5310.52
-1268.92
-291.224
-64.5232
-16.1464
-1142.82
-373.214
-93.912
-21.783
-5.41309
-5949.2
-1430.99
-330.661
-73.6875
-18.5236
-1610.69
-474.452
-114.745
-25.8122
-6.39797
-6217.11
-1483.62
-343.41
-76.5095
-19.2247
-1663.46
-492.353
-120.23
-25.1274
-6.59469
-691.738
-6558.63
-6019.14
-2318.88
1365.17
2430.99
6853.95
10154.7
1045.36
7226.95
-1834.61
2104.07
2107.8
4371.3
8238.55
11825.5
12675.6
15964.2
5151.61
6702.45
-19596.3
-14322
-5132.96
-4118.2
-2967.3
-4272.89
-3908.35
-12188.7
-11923.8
-10171.6
-11172.6
-9378.49
-6767.67
-8672.04
-5861.06
-5007.56
-6115.66
-4215.56
-19720.9
-10540.9
-3880.44
-6587.37
-8749
-6184.74
-6846.77
-5126.39
-3168.36
-4508.03
-4700.54
-5080.72
-19327.4
-12872.3
-12289.9
-8988.55
-9062.45
-9390.37
-4233.48
-5644.8
-6990.21
-14551.6
-13256.1
-12039
-12322.6
-12041.2
-9604.8
-6932.03
-5836.38
-4955.91
-2829.2
-4570.34
-3833.69
-2913.36
-1840.66
-636.048
-3696.38
-3115.01
-2361.81
-1477.88
-504.22
-2647.62
-2214.43
-1665.17
-1034.46
-351.333
-3835.2
-3227.84
-2439.71
-1519.92
-516.544
-3489.19
-2924.02
-2207.31
-1378.23
-470.094
-8174.21
-6670.19
-5765.69
-6033.22
-7343.26
-6759.86
-5273.14
-4118.44
-3746.67
-2798.45
-6498.13
-4075.19
-3071.54
-2379.16
-1268.38
-5869.55
-4133.66
-2946.72
-2322.18
-1442.15
-4421.61
-2834.91
-1855.45
-1380.32
-707.76
-5421.36
-4124.23
-2926.12
-1805.14
-639.077
-5971.84
-3907.44
-2664.13
-1690.34
-670.932
-3861.95
-2306.69
-1403.82
-782.88
-273.731
-4164.27
-3257.75
-2336.46
-1426.56
-489.339
-4917.01
-3708.95
-2566.77
-1521.16
-512.376
-3536.47
-2780.68
-1990.54
-1203.52
-406.639
-13564.2
-10962.6
-9665.19
-9637.19
-10404.2
-7949.49
-5979.24
-4642.78
-3408.75
-1680.71
-3265.52
-2597.57
-1903.19
-1190.95
-419.911
-5651.11
-4599.71
-3454.35
-2212.83
-797.166
-7303.53
-5896.64
-4517.14
-3050.34
-1214.34
-5339.62
-4392.88
-3348.77
-2181.36
-796.834
-5999.07
-4983.77
-3798.48
-2444.07
-871.14
-4505.17
-3734.3
-2818.57
-1782.14
-620.368
-2750.19
-2236.5
-1644.87
-1010.25
-342.7
-3993.38
-3318.54
-2486.94
-1545.95
-526.719
-4034.5
-3256.05
-2394.73
-1483.95
-511.053
-4440.73
-3655.08
-2736.72
-1717.43
-594.864
-13990.1
-12229.5
-11047.4
-10959.5
-10930.7
-9209.95
-6909.52
-5718.98
-4648.08
-2619.12
-9358.87
-7752.16
-6338.73
-5133.35
-2754.03
-7236.74
-5688.06
-4516.89
-3288.58
-1448.08
-7699
-6324.72
-4906.44
-3330.67
-1310.8
-7498.45
-5844.99
-4614.3
-3349.7
-1460.81
-3677.79
-3025.09
-2284.46
-1460.84
-519.411
-5012.56
-4184.85
-3159.01
-1980.59
-679.47
-6090.92
-5030.46
-3816.62
-2449.06
-870.866
-5140.59
-10401.4
-10949.5
-29720.5
-10851.5
-39821.1
-5881.6
-14153.5
-10901.3
-8519.17
-17901.4
-15045.7
-10972.2
-10491.7
-20151.8
-16182.4
-3778.23
-2801.53
-7265.29
-4983.65
-8487.26
-6386.85
-22593.9
-16666.3
-13981.8
-10694.2
-14415.2
-8648.07
-1141.53
-3448.23
-37139.6
-48680.6
-22602.2
-28546.9
-49135.6
-63169.8
-24469.6
-28749.8
-27654.7
-38197.7
-22608.7
-30845.2
-14889.7
-22535.3
-1797.44
-473.524
-3139.95
-1070.31
-6114.37
-2717.27
-12348.5
-4452.37
-2741.83
-1533.9
-6760.16
-2119.88
-13942.5
-4373.4
-18128
-6094.41
-15574.7
-8143.67
-17815.9
-10728
-14423.9
-10432.2
-16043
-12626.8
-14104.2
-8319.93
-11219.4
-5819.32
-20082.7
-13000.4
-20904.3
-13663.4
-18645.2
-14428.2
-19655.8
-15055.1
-16564.2
-10493.6
-17711.5
-11195.5
-15317.2
-6730.97
-6690.09
-8731.13
-13736.5
-6876.06
-5002.12
-8550.68
-16938.2
-6901.9
-8148.68
-8984.63
-18009.2
-7135.19
-9182.96
-9518.31
-1041.08
-933.508
-250.068
-1082.08
-4219.02
-4350.71
-2611.9
-5141.77
-2375.69
-2955.49
-4041.33
-7612.23
-11605.3
-9509.28
-8832.01
-10871.3
-7081.48
-7479.8
-7897.34
-6470.41
-12563.2
-10719.1
-11233.8
-9196.87
-6265.85
-5278.13
-11495.6
-1004.72
-758.297
-555.674
-622.43
-3929.53
-3139.99
-3291.38
-2904.37
-590.567
464.608
-3887.09
-3056.79
-10015.3
-10705.6
-9256.08
-8523.29
-6749.16
-4936.47
-8706.71
-6972.6
-7633.26
-5990.39
-11389
-11658.3
-9571.28
-7600.96
-6975.68
-4829.27
-6050.39
-3900.62
-8883.79
-5451.72
-9036.66
-5079.82
-8082.53
-9207.58
-12863.6
-17176.5
-13594.5
-19802.3
-6080.13
-7254.19
-7376.69
-2904.48
-7454.27
-14454.1
-7187.28
-15549.9
-13428.1
-24499.4
-13692.4
-25809.3
-5414.23
-12193.8
-5055.18
-13090.4
-7191.69
-5733.13
-10298
-4227.23
-6959.23
-1822.45
-8869.36
-1247.39
-7133.04
-8627.32
-10890.7
-5105.54
-5981.19
-10234.7
-9665.46
-6695.02
-750.804
-700.007
-501.889
-580.138
-2404.72
-1764.04
-2149.86
-1957.8
1005.87
564.262
-2525.88
-2816.6
-10650.4
-10148.5
-7565.02
-6594.35
-3935.71
-3353.45
-5481.28
-4553.28
-5039.35
-3699.72
-18115.7
-15979.8
-7751.88
-6708.48
-5767.09
-4491.1
-4687.64
-3097.46
-4916.07
-2207.77
-5615.62
-9116.03
-4878.54
-9145.56
-8034.68
-10140.1
-8887.56
-12214.1
-1026.57
-789.059
-796.214
-690.363
-3643.94
-2683.89
-2949.21
-1758.09
-1707.06
-2085.49
-8350.03
-9019.03
-4514.6
-3980.06
-9083.76
-9386.02
-13661.6
-15627.1
41.4288
3255.4
-7344.78
-7111
-6297.51
-4986.71
-1125.34
-1044.25
-1142
-945.667
-2124.06
-1646.7
-997.014
-905.674
-8046.84
-4173.54
-6786.11
-3486.68
-8573.3
-3573.43
-10040.5
-3677.29
-5922.21
-10480.5
-7374.61
-10995.7
-8732.77
-11541.7
-11204.1
-12504.7
-5867
-9862.59
-5411.59
-9746.96
-8414
-11120.1
-9512.77
-11515.9
-12820.2
-13137.4
-14007.7
-13663.6
-6159.63
-9761.09
-6666.56
-10015.4
-1757.42
-3370.54
-8881.05
-6978.13
-1749.92
-3454.48
-8710.25
-6648.82
-1918.5
-3229.67
-8929.27
-7202.16
-2030.8
-3075.43
-8882.02
-7237.11
-1156.76
-1305.58
-1107.97
-1256.75
-2475.97
-2616.53
-1894.3
-2154.93
-8596.64
-8162.32
-4713.69
-4988.13
-4260.16
-5430.51
-4703.07
-1364.3
-2803.48
-1570.2
-1726.35
-4011.07
1576.13
-2098.54
-13664.7
-12042.1
-11313.7
-10262.4
-7419.98
-1332.83
-1247.98
-1452.5
-1931.27
-2669.96
-2177.35
-2793.99
-3730.91
-8551.02
-8624.24
-5461
-7260.19
-5255.71
-6909.41
-3578.55
-5531.72
-5472.9
-5926.39
-2188.71
-2480.94
-4441.45
-6363.78
-9815.04
-8149.62
-8153.16
-6114.85
-7577.37
-5600.71
-7311.64
-5751.5
-6373.53
-7231.93
-8981.02
-8990.2
-11868.1
-8047.89
-10614.1
-11485.1
-13211.6
-11291.7
-10611.7
-7249.44
-8094
-8233.71
-12800.1
-6829.12
-13584.4
-6890.88
-14043.5
-11187.1
-14777.3
-11387.7
-11396.6
-6045.39
-12045.8
-6137.35
-9816.3
-8556.88
-9129.46
-12751.4
-8499.13
-9320.36
-8774.51
-12643.4
-10109.7
-8311.83
-9428.56
-13884.2
-11006.2
-8449.14
-10301.1
-13778.5
-1078.2
-914.857
-1422.64
-981.74
-1799.58
-1987.14
-2287.14
-1527.69
-8584.55
-7521.37
-5070.53
-2232.09
-8078.49
-7669.5
-6597.95
-5897.4
-5742.94
-4847.95
-2599.55
-2455.67
-6076.94
-2616.55
-8874.26
-7560.47
-5380.22
-4100.2
-4536.15
-2621.77
-3794.41
-1472.12
-6476.65
-328.682
-307.043
-149.514
-75.6558
-43.279
-267.169
-170.342
-104.716
-70.0191
-833.469
-392.364
-176.594
-91.8906
-709.471
-419.692
-229.732
-148.047
-1374.48
-592.643
-244.437
-108.273
-1303.82
-666.714
-351.763
-223.043
-880.101
-444.583
-240.873
-139.386
-693.989
-311.018
-140.046
-76.2056
-2083.63
-807.253
-325.49
-161.47
-2555.54
-809.444
-278.172
-95.5079
-1998.31
-762.91
-315.413
-163.256
-2318.55
-723.249
-254.611
-77.5619
-1944.2
-749.931
-281.259
-118.318
-2657.23
-843.09
-281.602
-107.989
-1783.8
-659.021
-225.746
-89.2184
-2650.34
-830.28
-265.387
-102.382
-290.448
-126.438
-58.5317
-28.178
-252.045
-95.8887
-47.7271
-23.1043
-744.941
-325.801
-149.742
-75.449
-626.925
-247.261
-127.333
-65.1099
-1508.71
-570.528
-228.156
-91.5102
-1369.03
-490.452
-211.796
-87.7149
-1630.47
-637.004
-288.738
-139.718
-1249.16
-450.23
-201.795
-65.6727
-2336.67
-716.578
-260.643
-59.8728
-176.697
-68.9443
-36.2244
-20.5756
-68.5165
-43.5236
-28.0994
-19.9041
-537.861
-201.099
-103.321
-58.2314
-237.242
-131.352
-80.8082
-56.0288
-966.833
-338.442
-166.039
-89.7539
-514.379
-234.125
-132.221
-88.2459
-1481.11
-488.595
-229.105
-116.963
-943.828
-351.164
-179.034
-113.192
-1979.39
-598.259
-259.653
-138.555
-1305.08
-430.218
-207.431
-131.152
-2688.46
-786.346
-313.966
-153.762
-1339.44
-415.747
-191.124
-113.69
-2566.97
-761.004
-315.069
-159.38
-1461.91
-455.322
-212.363
-131.469
-2692.1
-742.218
-276.902
-131.001
-1225.58
-345.227
-149.292
-82.893
-2595.49
-666.7
-222.987
-100.81
-1114.63
-264.215
-97.3862
-48.6821
-28.2141
-17.7975
-11.2577
-7.61776
-6.00799
-47.7157
-29.9134
-18.901
-12.7911
-10.0895
-66.0804
-41.2082
-25.975
-17.5618
-13.8481
-107.34
-66.869
-42.2046
-28.5589
-22.5285
-82.638
-50.966
-32.0173
-21.6307
-17.0523
-143.707
-88.4765
-55.6939
-37.667
-29.7104
-74.4178
-45.1338
-28.3219
-19.1423
-15.0978
-40.7208
-23.638
-14.628
-9.85204
-7.76459
-89.8989
-53.3738
-33.3062
-22.4789
-17.7199
-35.6634
-20.5525
-12.7347
-8.58054
-6.75971
-109.604
-65.8669
-41.2066
-27.8265
-21.9293
-36.5729
-21.3471
-13.2725
-8.95009
-7.04718
-55.8224
-31.7718
-19.6014
-13.1927
-10.3995
-31.7687
-17.8106
-10.9534
-7.36828
-5.80869
-31.3859
-15.4554
-9.10571
-6.0579
-4.76687
-14.6138
-6.61211
-3.81067
-2.52263
-1.98466
-20.6169
-13.0828
-8.27079
-5.59348
-4.41095
-17.9017
-11.1417
-7.01005
-4.7353
-3.73375
-54.9006
-34.2396
-21.5422
-14.5544
-11.477
-49.3752
-30.3275
-19.0179
-12.8388
-10.1246
-65.8277
-40.4798
-25.369
-17.125
-13.5032
-71.1199
-42.9604
-26.8469
-18.1127
-14.2898
-87.5061
-52.1994
-32.5865
-21.992
-17.3184
-57.3184
-34.1445
-21.2897
-14.3587
-11.3309
-49.9655
-29.3399
-18.2827
-12.3379
-9.70029
-73.1314
-199.144
-148.796
-511.094
-123.409
-710.564
124.769
-657.714
366.845
-163.288
-762.739
-1209.3
17.6688
-131.019
-1102.89
-1702.38
-1358.48
-1921.62
-532.731
-125.205
-28.2064
-6.20913
-1.54886
-145.897
-78.1345
-10.9265
-2.97293
-1.31512
-1646.98
-383.865
-86.6947
-18.9809
-4.74014
-352.376
-105.941
-26.8975
-5.76475
-1.57091
-2780.66
-647.657
-146.572
-32.1918
-8.02158
-607.756
-187.46
-46.5418
-10.9014
-2.74729
-3758.22
-874.817
-198.585
-43.7326
-10.9093
-764.67
-244.845
-61.7367
-14.4922
-3.62668
-4749.65
-1111.28
-253.552
-56.0733
-14.0408
-912.999
-307.441
-78.6128
-18.5556
-4.67738
-5734.22
-1377.46
-317.905
-70.7958
-17.7868
-1431.63
-433.685
-106.259
-24.2241
-6.01903
-5301.75
-1269.21
-291.814
-64.755
-16.2276
-1129.22
-367.771
-92.6303
-21.5304
-5.36134
-5943.81
-1430.4
-330.694
-73.7366
-18.5465
-1608.98
-473.948
-114.614
-25.7858
-6.39227
-6215.17
-1483.38
-343.409
-76.5229
-19.2316
-1663.16
-492.283
-120.213
-25.124
-6.59389
-702.615
-6481.8
-5755.58
-2240.36
-1549.51
-948.128
-3682.05
-2691.71
-6102.99
-5664.63
-2879.47
-2177.19
-454.457
-691.953
-1177.37
-1891.8
-2799.01
-3798.61
-326.771
-697.494
-1438.81
-2479.15
-3685.89
-4873.16
-347.079
-160.409
-592.854
-407.511
-1083.19
-903.741
-1789.23
-1668.87
-2539.34
-2454.67
-3271.11
-2974.13
-4624.19
-5124.98
-5461.64
-7932.57
-8709.64
-9487.84
-5813.84
-6285.92
-6151.48
-5518.57
-4641.84
-4000.76
-411.038
-348.744
-265.31
-165.865
-56.4221
-625.62
-530.6
-403.526
-252.222
-85.7912
-1064.09
-902.126
-685.891
-428.672
-145.81
-1708.79
-1447.93
-1100.53
-687.804
-233.976
-2525.83
-2138.51
-1624.89
-1015.73
-345.66
-3422.04
-2893.51
-2198.01
-1375.18
-468.529
-295.492
-250.655
-190.654
-119.178
-40.5391
-630.472
-534.581
-406.48
-254.05
-86.4127
-1300.07
-1101.98
-837.777
-523.625
-178.122
-2238.81
-1896.76
-1441.76
-901.262
-306.659
-3325.43
-2815.35
-2139.71
-1338.2
-455.597
-4389.9
-3712.68
-2821.9
-1766.92
-602.376
-313.94
-266.379
-202.658
-126.696
-43.0972
-145.09
-123.104
-93.6506
-58.5441
-19.9137
-536.085
-454.712
-345.83
-216.157
-73.5217
-368.503
-312.572
-237.722
-148.579
-50.5342
-979.126
-830.202
-631.227
-394.481
-134.169
-816.957
-692.706
-526.657
-329.099
-111.923
-1616.38
-1369.71
-1040.96
-650.409
-221.207
-1507.54
-1277.26
-970.443
-606.161
-206.113
-2291.7
-1940.05
-1473.45
-920.464
-313.079
-2214.67
-1873.92
-1422.19
-887.748
-301.786
-2946.16
-2489.59
-1889.08
-1180.3
-401.708
-2676.89
-2259.34
-1711.31
-1067.13
-362.675
-4152.81
-3504.18
-2662.65
-1670.42
-571.049
-4574.44
-3846.31
-2927.39
-1849.65
-638.304
-4814.54
-4023.06
-3077.15
-1978.45
-700.435
-6810.89
-5634.61
-4375.04
-2938.68
-1119.57
-7106.85
-5776.67
-4595.98
-3320.26
-1457.46
-7431.94
-5964.48
-4828.26
-3668.16
-1759.42
-5224.37
-4411.78
-3355.13
-2106.22
-720.168
-5625.41
-4739.84
-3609.9
-2277.89
-783.722
-5466.03
-4589.48
-3506.4
-2234.97
-779.211
-4838.15
-4038.81
-3107.09
-2022.14
-727.085
-3954.17
-3262.85
-2545.57
-1729.03
-668.232
-3297.23
-2685.52
-2127.06
-1511.59
-628.352
-477.18
-761.133
-1295.8
-2063.64
-3031.67
-4078.9
-359.032
-795.306
-1603.87
-2709.35
-3966.28
-5164.87
-369.062
-179.592
-660.089
-467.02
-1199.41
-1009.6
-1961.31
-1829.56
-2786.49
-2730.21
-3586.83
-3389.95
-4912.21
-5389.35
-5702.19
-8074.8
-8770.56
-9506.43
-6058.31
-6427.71
-6170.43
-5438.93
-4533.98
-3952.01
-431.693
-366.377
-278.812
-174.35
-59.3171
-688.555
-584.382
-444.751
-278.154
-94.6427
-1172.01
-994.551
-756.9
-473.423
-161.101
-1865.87
-1582.95
-1204.68
-753.653
-256.518
-2739.47
-2323.18
-1768.14
-1106.72
-376.891
-3681.49
-3119.91
-2375.33
-1488.7
-507.669
-324.806
-275.668
-209.796
-131.204
-44.6408
-719.427
-610.569
-464.703
-290.662
-98.9073
-1450.47
-1230.75
-936.686
-585.947
-199.416
-2449.2
-2077.58
-1581.2
-989.409
-336.831
-3582.89
-3037.88
-2312.32
-1447.84
-493.232
-4659.81
-3948.09
-3006.22
-1884.91
-643.054
-333.906
-283.407
-215.682
-134.874
-45.886
-162.499
-137.935
-104.982
-65.6526
-22.3364
-597.204
-506.892
-385.788
-241.271
-82.0899
-422.561
-358.685
-273.001
-170.735
-58.0901
-1084.98
-920.791
-700.769
-438.279
-149.129
-913.346
-775.172
-589.947
-368.95
-125.533
-1773.69
-1504.93
-1145.26
-716.349
-243.778
-1654.66
-1403.98
-1068.38
-668.178
-227.361
-2518.65
-2136.23
-1625.63
-1017.13
-346.255
-2468.04
-2093.3
-1592.68
-996.196
-339.037
-3238.62
-2744.99
-2089.25
-1308.49
-445.909
-3061.55
-2594.75
-1973.82
-1235.07
-420.544
-4423.21
-3743.95
-2853.47
-1794.18
-614.054
-4828.97
-4078.17
-3116.74
-1975.08
-682.496
-5055.75
-4251.43
-3270.29
-2110.26
-747.976
-6979.52
-5814.87
-4543.55
-3064.25
-1168.98
-7203.67
-5892.02
-4713.41
-3416.58
-1500.94
-7467.95
-6008.94
-4875.06
-3708.3
-1778.57
-5453.88
-4615.35
-3517.23
-2211.42
-756.738
-5763.92
-4868.03
-3716.18
-2349.14
-808.99
-5494.43
-4624.97
-3542.84
-2263.16
-790.102
-4777.48
-3998.24
-3085.43
-2014.41
-726.179
-3866.15
-3196.22
-2501.99
-1707.11
-662.924
-3257.03
-2654.39
-2106.12
-1500.79
-625.702
-19531.4
-14375.6
-5504.95
-4525.68
-3426.98
-4858.66
-4393.09
-12919
-14632.1
-11678.8
-13432.2
-8209.52
-11544.3
-6336.79
-6596.67
-4858.2
-20365
-11510.9
-4559.39
-7471.63
-9589.88
-6680.02
-7495.93
-5695.01
-3518.07
-5152.39
-5601.06
-5774.29
-19202.3
-13063.4
-12924.3
-9373.11
-9492.79
-9906.31
-4897.08
-6277.97
-7609.64
-14566.5
-13333.2
-12158.4
-12487.2
-12198.5
-9699.68
-7031.64
-5933.87
-5038.11
-2865.51
-4930.75
-4163.99
-3184.4
-2020.79
-699.632
-4078.33
-3453.09
-2630.29
-1651.64
-564.506
-3084.8
-2607.62
-1982.16
-1241.97
-423.762
-4383.05
-3711.67
-2823.18
-1767.7
-602.406
-3951.15
-3340.11
-2542.95
-1597.92
-546.758
-9874.02
-8661.75
-7696.29
-7668.57
-8544.43
-11307.9
-10169.1
-8663.87
-7342.73
-4670.29
-8625.59
-6275.44
-4996.24
-3736.66
-1766.08
-10310.6
-8835.26
-7220.35
-5543.28
-2801.06
-7039.54
-5752.1
-4344.75
-2781.62
-989.034
-9215.72
-7020.49
-5295.67
-3487.55
-1322.51
-5553.77
-4603.48
-3483.37
-2207.73
-768.734
-5762.01
-4764.75
-3603.02
-2286.29
-797.848
-4289.37
-3571.91
-2702.08
-1703.64
-588.091
-14927.8
-12611.2
-11321.1
-11078.5
-11434.7
-9170.84
-7268.16
-5808.75
-4255.55
-2020.76
-3990.99
-3313.53
-2522.11
-1616.13
-572.769
-6569.93
-5491.38
-4218.43
-2736.66
-986.447
-8240.05
-6846.11
-5357.88
-3645.8
-1439.79
-5862.58
-4907.64
-3796.01
-2492.31
-910.844
-6643.59
-5587.63
-4303.65
-2785.44
-993.445
-5072.18
-4267.68
-3265.32
-2083.18
-727.478
-3135.43
-2629.92
-1994.59
-1254.57
-430.972
-4621.78
-3898.18
-2964.69
-1863.84
-638.736
-4957.99
-4142.75
-3147.31
-1994.77
-693.204
-5138.75
-4316.51
-3293.35
-2093.31
-728.615
-14126.9
-12526.5
-11447.7
-11424
-11405
-9501.64
-7218.9
-6016.45
-4889.65
-2729.53
-10289.2
-8755.68
-7297.08
-5888.13
-3099.84
-7695.4
-6169.93
-4959.71
-3618.43
-1577.47
-8190.48
-6835.61
-5370.7
-3668.13
-1441.76
-8126.68
-6496.63
-5213.85
-3793.98
-1638
-4335.22
-3639.18
-2795.84
-1804.43
-641.771
-5626.97
-4748.6
-3621.5
-2287.32
-787.384
-6728.27
-5646.19
-4343.79
-2810.72
-1001.43
-553.118
-1541.29
-2389.57
-3151.53
-3856.88
-4508.5
-2455.82
-6615.07
-6353.9
-2427.7
-8466.31
-7171.3
-8575.7
-9608.49
-2213.17
-1430.89
-5154.7
-3008.47
-9849.42
-7014.87
151.747
-2006.01
-5550.85
-5271.79
-1973.79
-7256.79
-5911.83
-7263.24
-8271.01
-1839.82
-858.847
-4442.16
-1614.34
-8229.87
-4265.77
1346.67
-1486.06
-4278.28
-4069.16
-1473.39
-5812.38
-3665.25
-5989.63
-6720.16
-1402.38
-783.822
-3187.33
-1676.3
-6653.1
-1823.1
1477.04
-1115.36
-3367.77
-3281.47
-1150.06
-4531.85
-2329.47
-5067.46
-6018.88
-1070.3
-822.24
-2367.04
-1691.52
-5925.51
-497.109
1104.93
-916.222
-2895.86
-2870.93
-986.346
-3704.61
-1966.21
-4601.56
-5877.9
-859.794
-892.6
-1736.31
-1625.81
-5218.92
-279.963
69.5445
-818.251
-2612.69
-2660.6
-902.788
-3458.74
-2206.18
-4294.55
-5638.46
-675.577
-704.341
-1461.62
-1600.03
-5146.56
-1010.92
-479.729
-1396.05
-3462.16
-4818.68
-1852.8
-5597.57
-9604.74
-7118.08
-10299.5
-1068
-796.674
-3970.87
-2546.43
-1678.64
-9441.48
-4746.66
-1314.42
-3267.86
-4286.12
-1629.74
-5237.29
-8766.75
-6495.8
-8870.47
-1111.49
-727.372
-4185.66
-2458.31
-847.158
-9297.21
-3658.95
-1182.15
-2948.17
-3591.82
-1340.29
-4860.51
-7963.45
-5640.97
-7935.77
-1021.29
-844.416
-3698.42
-2643.2
-988.402
-7661.93
-3596.64
-1049.88
-2715.36
-3058.24
-1119.18
-4611.44
-7377.86
-5124.39
-7330.95
-966.188
-904.309
-3526.52
-2882.32
-705.898
-7239.91
-3812.38
-966.061
-2479.33
-2763.45
-998.57
-4242.61
-6896.79
-4743.96
-7049.9
-921.501
-985.903
-3267.71
-3170.87
-765.344
-7090.68
-4071.53
-905.428
-2229.32
-2586.94
-929.295
-3942.34
-6864.92
-4443.82
-6856.26
-950.064
-1103.05
-2927.03
-3014.87
-984.9
-7345.08
-4560.22
5531.55
6973.62
14507.3
21152.4
21642.2
37154.8
16732.4
42218.1
13553.3
29606.6
20211.1
30624.5
18095.4
23749.9
6835.37
7741.46
13715.5
15772.5
17624.6
17590.2
14121
17621.1
20552.5
18677.4
4548.97
3428.11
5577.87
3746.85
11447.1
9066.99
19567.9
14105.5
15196.8
15835.9
16896.9
16073.6
5826.42
4583.85
36011.8
48230.4
23394.3
28690.4
48492
62918.1
25355.8
28966.9
26665.7
37695
23316
30904.9
13544.5
21904.3
2428.71
829.833
2492.38
906.3
7759.18
3116.53
10695.3
3920.65
7623.05
2920.91
8150.24
2604.25
13912.7
4417.47
17964.6
6047.94
22518.2
11226.2
20551.7
12314.3
21442
13995.8
18785.6
14339
16004.9
9560.81
16015.2
8154.42
21144.7
13719
21171.1
13860.1
19739.3
15173.3
19948.4
15257.7
17268.2
11071
17879.4
11355.1
16222.8
6977.14
7491.45
9014.05
16313.8
7612.27
6493
9065.3
17183.7
6962.24
8522.94
9124.5
18040.2
7139.62
9288.7
9559.69
3138.62
3386.08
1068.94
2005.93
9783.54
10348.9
3728.66
6505.56
12591.4
14067.4
5934.36
10035.1
11829.9
1106.15
12828.5
15578.7
8321.06
775.208
7297.82
11426.8
18273.2
12256.7
9491.59
11232.1
9609.68
8126.66
12626.3
2981.64
2469.6
1674.51
1691.49
9264.17
7947
5513.49
5258.14
11607.1
10050
7147.53
6458.66
5749.39
7365.77
11808.6
12263.2
13317.4
12192.9
14970.6
13182.2
9829.81
8277.94
8835.83
9470.82
11474.6
9334.41
10323.1
7779.83
8825.43
6305.5
10069
6703.34
9921.87
4960.89
8522.97
9344.65
12325.3
16275.2
13597.7
19841.5
6672.29
7544.83
8696.05
3157.27
7608.43
14611.4
7222.01
15607.6
13473.9
24411.8
13710.7
25830.7
5632.86
12390.1
5105.77
13149.4
7642.43
5940.71
10492.1
4293.55
7963.84
1970.52
9204.89
1078.25
7311.57
8758.87
10978.1
5144.32
6027.36
10276.4
9688.37
6711.8
1983.25
1792.03
1674.16
1454.87
1366.68
1261.55
6661.7
5634.11
4996.16
4214.93
3507.87
3118.34
8301.19
7366.85
6900.05
5073.85
4301.71
4137.33
6633.62
6050.16
5975.4
10884.9
8609.44
7400.04
10036.1
7735.28
6441.85
10557.6
8637.17
7651.88
6276.32
4319
3462.31
15761.6
14021.8
12398.6
9901.07
8535.52
7317.32
8573.95
6945.93
5767.42
7023.74
5302.04
4263.92
6953.18
4012.93
2387.63
10140.7
13896.2
7937.94
10411.3
10723.5
15873.6
9487.05
13910.4
233.074
780.506
-259.888
176.499
3182.29
3680.8
1437.19
975.548
1149.58
2984.24
9471.36
13873.1
6624.56
3519.34
9608.45
9503.14
14465.4
15849.5
-252.802
-3439.54
7564.84
7097.24
6407.03
4939.82
1023.66
604.992
604.975
246.512
2563.02
743.519
186.238
-410.871
9321.25
2886.26
6222.74
1998.27
8325.16
2668.62
9921.82
3302.39
9308.08
12110.1
8518.03
11857.9
13969.3
14723
13220.5
13982
6305.25
10071.3
7248.03
9955.73
8872.99
11471
9645.36
11607.2
13664.7
13752.5
14247.2
13829.2
6260.86
9817.68
6680.52
10019.9
1222.63
2563.35
8481.87
6327.85
747.991
2177.7
7870.16
5694.25
1496.54
2653.9
8701.92
6800.23
1851.07
2841.16
8812.55
7097.28
-304.449
-387.972
324.277
231.874
-1843.66
-1899.19
365.099
338.217
616.068
-689.52
2658.33
2231.28
-9599.62
-9180.91
-4647.31
-2876.78
630.573
-10150.3
-10435.5
-3605.4
-4949.67
482.297
10121.5
8452.12
8038.74
7936.57
5831.59
-516.706
-569.751
173.089
372.062
-1671.44
-1993.15
773.594
1216.14
-1603.03
-2608.49
1857.74
2546.47
-4954.79
-2298.36
-7830.02
-4946.98
-2831.14
-2164.43
-2875.01
-2674.09
2039.19
3410.46
3904.19
2530.16
1580.27
-630.23
1988.4
-5.594
3198.01
1796.61
4186.71
4911.32
5871.49
5506.61
10569.1
6789.25
8283.08
8469.71
12449.1
10284
9055.17
6032.45
5111.64
5197.89
12282.6
6041.55
13448.5
6698.3
13824.3
10532
14731.3
11245.7
10672.4
5275.33
11839.7
5931.19
8332.96
7449.49
7800.04
11491.2
5967.98
6881.46
6877.75
10639.7
9326.75
7580.28
8666.98
13072.5
10759.8
8217.71
10053.2
13544.7
-756.34
-895.344
-1059.71
132.023
-306.521
-373.559
-2951.9
-3537.99
-3675.77
289.892
-887.327
-979.905
-3699.89
-4661.85
-4967.3
1605.55
-796.463
-1287.68
-1353.05
-1250.36
-972.209
-3913.7
-4308.43
-4142.09
-3033.53
-3927.65
-4033.8
-3755.33
-4650.28
-4752.21
2849.41
-156.542
-508.786
3558.84
1911.64
890.137
-829.895
-2436.1
-3284.25
-536.242
-2720.05
-3668.49
310.166
-2193.36
-2937
4248.47
-383.059
-999.214
42.7128
-5.85309
-23.303
-23.4731
-216.258
-132.87
-92.1329
-62.9855
189.722
10.7214
-46.2911
-44.9788