/*--------------------------------*- C++ -*----------------------------------*\
| =========                 |                                                 |
| \\      /  F ield         | OpenFOAM: The Open Source CFD Toolbox           |
|  \\    /   O peration     | Version:  v2106                                 |
|   \\  /    A nd           | Website:  www.openfoam.com                      |
|    \\/     M anipulation  |                                                 |
\*---------------------------------------------------------------------------*/
FoamFile
{
    version     2.0;
    format      ascii;
    arch        "LSB;label=32;scalar=64";
    class       volVectorField;
    location    "100";
    object      U;
}
// * * * * * * * * * * * * * * * * * * * * * * * * * * * * * * * * * * * * * //

dimensions      [0 1 -1 0 0 0 0];

internalField   nonuniform List<vector> 
4000
(
(0 0 166.849)
(0 0 228.415)
(0 0 242.042)
(0 0 245.739)
(0 0 246.819)
(0 0 246.819)
(0 0 245.739)
(0 0 242.042)
(0 0 228.415)
(0 0 166.849)
(0 0 228.415)
(0 0 335.914)
(0 0 364.808)
(0 0 373.783)
(0 0 376.606)
(0 0 376.606)
(0 0 373.783)
(0 0 364.808)
(0 0 335.914)
(0 0 228.415)
(0 0 242.042)
(0 0 364.808)
(0 0 400.668)
(0 0 412.653)
(0 0 416.605)
(0 0 416.605)
(0 0 412.653)
(0 0 400.668)
(0 0 364.808)
(0 0 242.042)
(0 0 245.739)
(0 0 373.783)
(0 0 412.653)
(0 0 426.168)
(0 0 430.752)
(0 0 430.752)
(0 0 426.168)
(0 0 412.653)
(0 0 373.783)
(0 0 245.739)
(0 0 246.819)
(0 0 376.606)
(0 0 416.605)
(0 0 430.752)
(0 0 435.614)
(0 0 435.614)
(0 0 430.752)
(0 0 416.605)
(0 0 376.606)
(0 0 246.819)
(0 0 246.819)
(0 0 376.606)
(0 0 416.605)
(0 0 430.752)
(0 0 435.614)
(0 0 435.614)
(0 0 430.752)
(0 0 416.605)
(0 0 376.606)
(0 0 246.819)
(0 0 245.739)
(0 0 373.783)
(0 0 412.653)
(0 0 426.168)
(0 0 430.752)
(0 0 430.752)
(0 0 426.168)
(0 0 412.653)
(0 0 373.783)
(0 0 245.739)
(0 0 242.042)
(0 0 364.808)
(0 0 400.668)
(0 0 412.653)
(0 0 416.605)
(0 0 416.605)
(0 0 412.653)
(0 0 400.668)
(0 0 364.808)
(0 0 242.042)
(0 0 228.415)
(0 0 335.914)
(0 0 364.808)
(0 0 373.783)
(0 0 376.606)
(0 0 376.606)
(0 0 373.783)
(0 0 364.808)
(0 0 335.914)
(0 0 228.415)
(0 0 166.849)
(0 0 228.415)
(0 0 242.042)
(0 0 245.739)
(0 0 246.819)
(0 0 246.819)
(0 0 245.739)
(0 0 242.042)
(0 0 228.415)
(0 0 166.849)
(0 0 42.8276)
(0 0 80.5506)
(0 0 95.4314)
(0 0 101.345)
(0 0 103.472)
(0 0 103.472)
(0 0 101.345)
(0 0 95.4314)
(0 0 80.5505)
(0 0 42.8276)
(0 0 80.5506)
(0 0 163.063)
(0 0 199.415)
(0 0 214.892)
(0 0 220.663)
(0 0 220.663)
(0 0 214.892)
(0 0 199.415)
(0 0 163.063)
(0 0 80.5505)
(0 0 95.4314)
(0 0 199.415)
(0 0 248.018)
(0 0 269.68)
(0 0 277.987)
(0 0 277.987)
(0 0 269.68)
(0 0 248.018)
(0 0 199.415)
(0 0 95.4313)
(0 0 101.345)
(0 0 214.892)
(0 0 269.68)
(0 0 294.785)
(0 0 304.592)
(0 0 304.592)
(0 0 294.785)
(0 0 269.68)
(0 0 214.892)
(0 0 101.345)
(0 0 103.472)
(0 0 220.663)
(0 0 277.987)
(0 0 304.592)
(0 0 315.079)
(0 0 315.079)
(0 0 304.592)
(0 0 277.987)
(0 0 220.663)
(0 0 103.472)
(0 0 103.472)
(0 0 220.663)
(0 0 277.987)
(0 0 304.592)
(0 0 315.079)
(0 0 315.079)
(0 0 304.592)
(0 0 277.987)
(0 0 220.663)
(0 0 103.472)
(0 0 101.345)
(0 0 214.892)
(0 0 269.68)
(0 0 294.785)
(0 0 304.592)
(0 0 304.592)
(0 0 294.785)
(0 0 269.68)
(0 0 214.892)
(0 0 101.345)
(0 0 95.4314)
(0 0 199.415)
(0 0 248.018)
(0 0 269.68)
(0 0 277.987)
(0 0 277.987)
(0 0 269.68)
(0 0 248.018)
(0 0 199.415)
(0 0 95.4314)
(0 0 80.5505)
(0 0 163.063)
(0 0 199.415)
(0 0 214.892)
(0 0 220.663)
(0 0 220.663)
(0 0 214.892)
(0 0 199.415)
(0 0 163.063)
(0 0 80.5505)
(0 0 42.8276)
(0 0 80.5505)
(0 0 95.4313)
(0 0 101.345)
(0 0 103.472)
(0 0 103.472)
(0 0 101.345)
(0 0 95.4314)
(0 0 80.5505)
(0 0 42.8276)
(0 0 14.707)
(0 0 34.2238)
(0 0 44.8337)
(0 0 50.0891)
(0 0 52.2352)
(0 0 52.2352)
(0 0 50.0891)
(0 0 44.8336)
(0 0 34.2238)
(0 0 14.707)
(0 0 34.2238)
(0 0 82.8444)
(0 0 110.761)
(0 0 125.077)
(0 0 131.032)
(0 0 131.032)
(0 0 125.077)
(0 0 110.761)
(0 0 82.8444)
(0 0 34.2238)
(0 0 44.8337)
(0 0 110.761)
(0 0 150.002)
(0 0 170.691)
(0 0 179.445)
(0 0 179.445)
(0 0 170.691)
(0 0 150.002)
(0 0 110.761)
(0 0 44.8336)
(0 0 50.0891)
(0 0 125.077)
(0 0 170.691)
(0 0 195.189)
(0 0 205.68)
(0 0 205.68)
(0 0 195.189)
(0 0 170.691)
(0 0 125.077)
(0 0 50.0891)
(0 0 52.2352)
(0 0 131.032)
(0 0 179.445)
(0 0 205.68)
(0 0 216.985)
(0 0 216.985)
(0 0 205.68)
(0 0 179.445)
(0 0 131.032)
(0 0 52.2352)
(0 0 52.2352)
(0 0 131.032)
(0 0 179.445)
(0 0 205.68)
(0 0 216.985)
(0 0 216.985)
(0 0 205.68)
(0 0 179.445)
(0 0 131.032)
(0 0 52.2352)
(0 0 50.0891)
(0 0 125.077)
(0 0 170.691)
(0 0 195.189)
(0 0 205.68)
(0 0 205.68)
(0 0 195.189)
(0 0 170.691)
(0 0 125.077)
(0 0 50.0891)
(0 0 44.8336)
(0 0 110.761)
(0 0 150.002)
(0 0 170.691)
(0 0 179.445)
(0 0 179.445)
(0 0 170.691)
(0 0 150.002)
(0 0 110.761)
(0 0 44.8336)
(0 0 34.2238)
(0 0 82.8444)
(0 0 110.761)
(0 0 125.077)
(0 0 131.032)
(0 0 131.032)
(0 0 125.077)
(0 0 110.761)
(0 0 82.8444)
(0 0 34.2238)
(0 0 14.707)
(0 0 34.2238)
(0 0 44.8336)
(0 0 50.0891)
(0 0 52.2352)
(0 0 52.2352)
(0 0 50.0891)
(0 0 44.8336)
(0 0 34.2238)
(0 0 14.707)
(0 0 6.43625)
(0 0 16.7914)
(0 0 23.5804)
(0 0 27.4482)
(0 0 29.1681)
(0 0 29.1681)
(0 0 27.4482)
(0 0 23.5803)
(0 0 16.7914)
(0 0 6.43624)
(0 0 16.7914)
(0 0 44.4996)
(0 0 63.1193)
(0 0 73.9081)
(0 0 78.751)
(0 0 78.751)
(0 0 73.9081)
(0 0 63.1193)
(0 0 44.4996)
(0 0 16.7914)
(0 0 23.5804)
(0 0 63.1193)
(0 0 90.2212)
(0 0 106.178)
(0 0 113.412)
(0 0 113.412)
(0 0 106.178)
(0 0 90.2211)
(0 0 63.1193)
(0 0 23.5803)
(0 0 27.4482)
(0 0 73.9081)
(0 0 106.178)
(0 0 125.397)
(0 0 134.178)
(0 0 134.178)
(0 0 125.397)
(0 0 106.178)
(0 0 73.9081)
(0 0 27.4482)
(0 0 29.1681)
(0 0 78.751)
(0 0 113.412)
(0 0 134.178)
(0 0 143.702)
(0 0 143.702)
(0 0 134.178)
(0 0 113.412)
(0 0 78.751)
(0 0 29.1681)
(0 0 29.1681)
(0 0 78.751)
(0 0 113.412)
(0 0 134.178)
(0 0 143.702)
(0 0 143.702)
(0 0 134.178)
(0 0 113.412)
(0 0 78.751)
(0 0 29.1681)
(0 0 27.4482)
(0 0 73.9081)
(0 0 106.178)
(0 0 125.397)
(0 0 134.178)
(0 0 134.178)
(0 0 125.397)
(0 0 106.178)
(0 0 73.9081)
(0 0 27.4482)
(0 0 23.5803)
(0 0 63.1193)
(0 0 90.2211)
(0 0 106.178)
(0 0 113.412)
(0 0 113.412)
(0 0 106.178)
(0 0 90.2211)
(0 0 63.1193)
(0 0 23.5803)
(0 0 16.7914)
(0 0 44.4996)
(0 0 63.1193)
(0 0 73.9081)
(0 0 78.751)
(0 0 78.751)
(0 0 73.9081)
(0 0 63.1193)
(0 0 44.4996)
(0 0 16.7914)
(0 0 6.43624)
(0 0 16.7914)
(0 0 23.5803)
(0 0 27.4482)
(0 0 29.1681)
(0 0 29.1681)
(0 0 27.4482)
(0 0 23.5803)
(0 0 16.7914)
(0 0 6.43625)
(0 0 3.26655)
(0 0 8.99191)
(0 0 13.1694)
(0 0 15.7691)
(0 0 16.9923)
(0 0 16.9923)
(0 0 15.769)
(0 0 13.1694)
(0 0 8.99189)
(0 0 3.26654)
(0 0 8.99191)
(0 0 24.8902)
(0 0 36.6149)
(0 0 43.9706)
(0 0 47.4485)
(0 0 47.4485)
(0 0 43.9706)
(0 0 36.6149)
(0 0 24.8902)
(0 0 8.99189)
(0 0 13.1694)
(0 0 36.6149)
(0 0 54.0839)
(0 0 65.1406)
(0 0 70.3983)
(0 0 70.3983)
(0 0 65.1406)
(0 0 54.0839)
(0 0 36.6149)
(0 0 13.1694)
(0 0 15.7691)
(0 0 43.9706)
(0 0 65.1406)
(0 0 78.632)
(0 0 85.0769)
(0 0 85.0769)
(0 0 78.632)
(0 0 65.1406)
(0 0 43.9706)
(0 0 15.769)
(0 0 16.9923)
(0 0 47.4485)
(0 0 70.3983)
(0 0 85.0769)
(0 0 92.1064)
(0 0 92.1064)
(0 0 85.0769)
(0 0 70.3983)
(0 0 47.4485)
(0 0 16.9923)
(0 0 16.9923)
(0 0 47.4485)
(0 0 70.3983)
(0 0 85.0769)
(0 0 92.1064)
(0 0 92.1064)
(0 0 85.0769)
(0 0 70.3983)
(0 0 47.4485)
(0 0 16.9923)
(0 0 15.769)
(0 0 43.9706)
(0 0 65.1406)
(0 0 78.632)
(0 0 85.0769)
(0 0 85.0769)
(0 0 78.632)
(0 0 65.1407)
(0 0 43.9707)
(0 0 15.7691)
(0 0 13.1694)
(0 0 36.6149)
(0 0 54.0839)
(0 0 65.1406)
(0 0 70.3983)
(0 0 70.3983)
(0 0 65.1407)
(0 0 54.0839)
(0 0 36.6149)
(0 0 13.1694)
(0 0 8.99189)
(0 0 24.8902)
(0 0 36.6149)
(0 0 43.9706)
(0 0 47.4485)
(0 0 47.4485)
(0 0 43.9707)
(0 0 36.6149)
(0 0 24.8902)
(0 0 8.99191)
(0 0 3.26654)
(0 0 8.99189)
(0 0 13.1694)
(0 0 15.769)
(0 0 16.9923)
(0 0 16.9923)
(0 0 15.7691)
(0 0 13.1694)
(0 0 8.99191)
(0 0 3.26655)
(0 0 1.78165)
(0 0 5.0269)
(0 0 7.54283)
(0 0 9.19726)
(0 0 10.0052)
(0 0 10.0052)
(0 0 9.19726)
(0 0 7.54283)
(0 0 5.02689)
(0 0 1.78165)
(0 0 5.0269)
(0 0 14.2113)
(0 0 21.3647)
(0 0 26.0871)
(0 0 28.3989)
(0 0 28.3989)
(0 0 26.0871)
(0 0 21.3646)
(0 0 14.2112)
(0 0 5.02689)
(0 0 7.54283)
(0 0 21.3647)
(0 0 32.1856)
(0 0 39.3634)
(0 0 42.8885)
(0 0 42.8885)
(0 0 39.3634)
(0 0 32.1856)
(0 0 21.3646)
(0 0 7.54283)
(0 0 9.19726)
(0 0 26.0871)
(0 0 39.3634)
(0 0 48.2044)
(0 0 52.5581)
(0 0 52.5581)
(0 0 48.2044)
(0 0 39.3634)
(0 0 26.0871)
(0 0 9.19726)
(0 0 10.0052)
(0 0 28.3989)
(0 0 42.8885)
(0 0 52.5581)
(0 0 57.3268)
(0 0 57.3268)
(0 0 52.5581)
(0 0 42.8885)
(0 0 28.3989)
(0 0 10.0052)
(0 0 10.0052)
(0 0 28.3989)
(0 0 42.8885)
(0 0 52.5581)
(0 0 57.3268)
(0 0 57.3268)
(0 0 52.5581)
(0 0 42.8885)
(0 0 28.3989)
(0 0 10.0052)
(0 0 9.19726)
(0 0 26.0871)
(0 0 39.3634)
(0 0 48.2044)
(0 0 52.5581)
(0 0 52.5581)
(0 0 48.2045)
(0 0 39.3634)
(0 0 26.0871)
(0 0 9.19727)
(0 0 7.54283)
(0 0 21.3646)
(0 0 32.1856)
(0 0 39.3634)
(0 0 42.8885)
(0 0 42.8885)
(0 0 39.3634)
(0 0 32.1856)
(0 0 21.3647)
(0 0 7.54284)
(0 0 5.02689)
(0 0 14.2112)
(0 0 21.3646)
(0 0 26.0871)
(0 0 28.3989)
(0 0 28.3989)
(0 0 26.0871)
(0 0 21.3647)
(0 0 14.2113)
(0 0 5.0269)
(0 0 1.78165)
(0 0 5.02689)
(0 0 7.54283)
(0 0 9.19726)
(0 0 10.0052)
(0 0 10.0052)
(0 0 9.19727)
(0 0 7.54284)
(0 0 5.0269)
(0 0 1.78165)
(0 0 0.998337)
(0 0 2.85059)
(0 0 4.33741)
(0 0 5.34933)
(0 0 5.85557)
(0 0 5.85557)
(0 0 5.34932)
(0 0 4.3374)
(0 0 2.85059)
(0 0 0.998333)
(0 0 2.85059)
(0 0 8.14547)
(0 0 12.4045)
(0 0 15.3088)
(0 0 16.7636)
(0 0 16.7636)
(0 0 15.3088)
(0 0 12.4045)
(0 0 8.14546)
(0 0 2.85059)
(0 0 4.33741)
(0 0 12.4045)
(0 0 18.9101)
(0 0 23.3577)
(0 0 25.5895)
(0 0 25.5895)
(0 0 23.3577)
(0 0 18.9101)
(0 0 12.4045)
(0 0 4.3374)
(0 0 5.34933)
(0 0 15.3088)
(0 0 23.3577)
(0 0 28.8724)
(0 0 31.6441)
(0 0 31.6441)
(0 0 28.8724)
(0 0 23.3577)
(0 0 15.3088)
(0 0 5.34933)
(0 0 5.85557)
(0 0 16.7636)
(0 0 25.5895)
(0 0 31.6441)
(0 0 34.6897)
(0 0 34.6897)
(0 0 31.6441)
(0 0 25.5896)
(0 0 16.7636)
(0 0 5.85558)
(0 0 5.85557)
(0 0 16.7636)
(0 0 25.5895)
(0 0 31.6441)
(0 0 34.6897)
(0 0 34.6897)
(0 0 31.6441)
(0 0 25.5896)
(0 0 16.7636)
(0 0 5.85558)
(0 0 5.34932)
(0 0 15.3088)
(0 0 23.3577)
(0 0 28.8724)
(0 0 31.6441)
(0 0 31.6441)
(0 0 28.8725)
(0 0 23.3577)
(0 0 15.3088)
(0 0 5.34934)
(0 0 4.3374)
(0 0 12.4045)
(0 0 18.9101)
(0 0 23.3577)
(0 0 25.5896)
(0 0 25.5896)
(0 0 23.3577)
(0 0 18.9102)
(0 0 12.4045)
(0 0 4.33742)
(0 0 2.85059)
(0 0 8.14546)
(0 0 12.4045)
(0 0 15.3088)
(0 0 16.7636)
(0 0 16.7636)
(0 0 15.3088)
(0 0 12.4045)
(0 0 8.1455)
(0 0 2.8506)
(0 0 0.998333)
(0 0 2.85059)
(0 0 4.3374)
(0 0 5.34933)
(0 0 5.85558)
(0 0 5.85558)
(0 0 5.34934)
(0 0 4.33742)
(0 0 2.8506)
(0 0 0.99834)
(0 0 0.560756)
(0 0 1.61113)
(0 0 2.47166)
(0 0 3.07011)
(0 0 3.37425)
(0 0 3.37425)
(0 0 3.07011)
(0 0 2.47166)
(0 0 1.61113)
(0 0 0.560753)
(0 0 1.61113)
(0 0 4.63042)
(0 0 7.1064)
(0 0 8.82998)
(0 0 9.70652)
(0 0 9.70652)
(0 0 8.82998)
(0 0 7.1064)
(0 0 4.63042)
(0 0 1.61113)
(0 0 2.47166)
(0 0 7.1064)
(0 0 10.9121)
(0 0 13.5649)
(0 0 14.9153)
(0 0 14.9154)
(0 0 13.5649)
(0 0 10.9121)
(0 0 7.1064)
(0 0 2.47166)
(0 0 3.07011)
(0 0 8.82998)
(0 0 13.5649)
(0 0 16.8695)
(0 0 18.5532)
(0 0 18.5532)
(0 0 16.8695)
(0 0 13.5649)
(0 0 8.82999)
(0 0 3.07012)
(0 0 3.37425)
(0 0 9.70652)
(0 0 14.9153)
(0 0 18.5532)
(0 0 20.4077)
(0 0 20.4077)
(0 0 18.5532)
(0 0 14.9154)
(0 0 9.70654)
(0 0 3.37426)
(0 0 3.37425)
(0 0 9.70652)
(0 0 14.9154)
(0 0 18.5532)
(0 0 20.4077)
(0 0 20.4077)
(0 0 18.5533)
(0 0 14.9154)
(0 0 9.70655)
(0 0 3.37427)
(0 0 3.07011)
(0 0 8.82998)
(0 0 13.5649)
(0 0 16.8695)
(0 0 18.5532)
(0 0 18.5533)
(0 0 16.8696)
(0 0 13.565)
(0 0 8.83002)
(0 0 3.07013)
(0 0 2.47166)
(0 0 7.1064)
(0 0 10.9121)
(0 0 13.5649)
(0 0 14.9154)
(0 0 14.9154)
(0 0 13.565)
(0 0 10.9121)
(0 0 7.10644)
(0 0 2.47168)
(0 0 1.61113)
(0 0 4.63042)
(0 0 7.1064)
(0 0 8.82999)
(0 0 9.70654)
(0 0 9.70655)
(0 0 8.83002)
(0 0 7.10644)
(0 0 4.63045)
(0 0 1.61114)
(0 0 0.560753)
(0 0 1.61113)
(0 0 2.47166)
(0 0 3.07012)
(0 0 3.37426)
(0 0 3.37427)
(0 0 3.07013)
(0 0 2.47168)
(0 0 1.61114)
(0 0 0.560759)
(0 0 0.311411)
(0 0 0.897844)
(0 0 1.38425)
(0 0 1.72718)
(0 0 1.90326)
(0 0 1.90326)
(0 0 1.72718)
(0 0 1.38425)
(0 0 0.897842)
(0 0 0.311409)
(0 0 0.897844)
(0 0 2.58898)
(0 0 3.99232)
(0 0 4.98221)
(0 0 5.49067)
(0 0 5.49067)
(0 0 4.98222)
(0 0 3.99232)
(0 0 2.58898)
(0 0 0.897843)
(0 0 1.38425)
(0 0 3.99232)
(0 0 6.15801)
(0 0 7.68678)
(0 0 8.47246)
(0 0 8.47246)
(0 0 7.68679)
(0 0 6.15802)
(0 0 3.99232)
(0 0 1.38425)
(0 0 1.72718)
(0 0 4.98221)
(0 0 7.68678)
(0 0 9.59725)
(0 0 10.5796)
(0 0 10.5796)
(0 0 9.59727)
(0 0 7.6868)
(0 0 4.98223)
(0 0 1.72719)
(0 0 1.90326)
(0 0 5.49067)
(0 0 8.47246)
(0 0 10.5796)
(0 0 11.6633)
(0 0 11.6634)
(0 0 10.5796)
(0 0 8.47249)
(0 0 5.4907)
(0 0 1.90327)
(0 0 1.90326)
(0 0 5.49067)
(0 0 8.47246)
(0 0 10.5796)
(0 0 11.6634)
(0 0 11.6634)
(0 0 10.5796)
(0 0 8.4725)
(0 0 5.4907)
(0 0 1.90328)
(0 0 1.72718)
(0 0 4.98222)
(0 0 7.68679)
(0 0 9.59727)
(0 0 10.5796)
(0 0 10.5796)
(0 0 9.5973)
(0 0 7.68683)
(0 0 4.98225)
(0 0 1.7272)
(0 0 1.38425)
(0 0 3.99232)
(0 0 6.15802)
(0 0 7.6868)
(0 0 8.47249)
(0 0 8.4725)
(0 0 7.68683)
(0 0 6.15805)
(0 0 3.99235)
(0 0 1.38426)
(0 0 0.897842)
(0 0 2.58898)
(0 0 3.99232)
(0 0 4.98223)
(0 0 5.4907)
(0 0 5.4907)
(0 0 4.98225)
(0 0 3.99235)
(0 0 2.589)
(0 0 0.897854)
(0 0 0.311409)
(0 0 0.897843)
(0 0 1.38425)
(0 0 1.72719)
(0 0 1.90327)
(0 0 1.90328)
(0 0 1.7272)
(0 0 1.38426)
(0 0 0.897854)
(0 0 0.311415)
(0 0 0.1696)
(0 0 0.489994)
(0 0 0.757788)
(0 0 0.948265)
(0 0 1.04673)
(0 0 1.04673)
(0 0 0.948265)
(0 0 0.757788)
(0 0 0.489994)
(0 0 0.1696)
(0 0 0.489994)
(0 0 1.41574)
(0 0 2.18969)
(0 0 2.74034)
(0 0 3.02505)
(0 0 3.02505)
(0 0 2.74034)
(0 0 2.1897)
(0 0 1.41574)
(0 0 0.489994)
(0 0 0.757788)
(0 0 2.18969)
(0 0 3.38723)
(0 0 4.2396)
(0 0 4.68045)
(0 0 4.68045)
(0 0 4.23961)
(0 0 3.38724)
(0 0 2.1897)
(0 0 0.75779)
(0 0 0.948265)
(0 0 2.74034)
(0 0 4.2396)
(0 0 5.30712)
(0 0 5.85941)
(0 0 5.85942)
(0 0 5.30714)
(0 0 4.23962)
(0 0 2.74036)
(0 0 0.948271)
(0 0 1.04673)
(0 0 3.02505)
(0 0 4.68045)
(0 0 5.85941)
(0 0 6.46946)
(0 0 6.46946)
(0 0 5.85943)
(0 0 4.68047)
(0 0 3.02507)
(0 0 1.04674)
(0 0 1.04673)
(0 0 3.02505)
(0 0 4.68045)
(0 0 5.85942)
(0 0 6.46946)
(0 0 6.46947)
(0 0 5.85944)
(0 0 4.68048)
(0 0 3.02508)
(0 0 1.04674)
(0 0 0.948265)
(0 0 2.74034)
(0 0 4.23961)
(0 0 5.30714)
(0 0 5.85943)
(0 0 5.85944)
(0 0 5.30716)
(0 0 4.23964)
(0 0 2.74037)
(0 0 0.948278)
(0 0 0.757788)
(0 0 2.1897)
(0 0 3.38724)
(0 0 4.23962)
(0 0 4.68047)
(0 0 4.68048)
(0 0 4.23964)
(0 0 3.38728)
(0 0 2.18972)
(0 0 0.7578)
(0 0 0.489994)
(0 0 1.41574)
(0 0 2.1897)
(0 0 2.74036)
(0 0 3.02507)
(0 0 3.02508)
(0 0 2.74037)
(0 0 2.18972)
(0 0 1.41577)
(0 0 0.490003)
(0 0 0.1696)
(0 0 0.489994)
(0 0 0.75779)
(0 0 0.948271)
(0 0 1.04674)
(0 0 1.04674)
(0 0 0.948278)
(0 0 0.7578)
(0 0 0.490003)
(0 0 0.169604)
(0 0 0.0901292)
(0 0 0.260728)
(0 0 0.404023)
(0 0 0.506539)
(0 0 0.559774)
(0 0 0.559774)
(0 0 0.506539)
(0 0 0.404024)
(0 0 0.260728)
(0 0 0.0901288)
(0 0 0.260728)
(0 0 0.754269)
(0 0 1.16887)
(0 0 1.46553)
(0 0 1.6196)
(0 0 1.6196)
(0 0 1.46553)
(0 0 1.16888)
(0 0 0.754272)
(0 0 0.260729)
(0 0 0.404023)
(0 0 1.16887)
(0 0 1.81152)
(0 0 2.27145)
(0 0 2.51035)
(0 0 2.51036)
(0 0 2.27146)
(0 0 1.81153)
(0 0 1.16888)
(0 0 0.404026)
(0 0 0.506539)
(0 0 1.46553)
(0 0 2.27145)
(0 0 2.84836)
(0 0 3.14808)
(0 0 3.14808)
(0 0 2.84837)
(0 0 2.27146)
(0 0 1.46554)
(0 0 0.506544)
(0 0 0.559774)
(0 0 1.6196)
(0 0 2.51035)
(0 0 3.14808)
(0 0 3.47942)
(0 0 3.47943)
(0 0 3.14809)
(0 0 2.51037)
(0 0 1.61962)
(0 0 0.559781)
(0 0 0.559774)
(0 0 1.6196)
(0 0 2.51036)
(0 0 3.14808)
(0 0 3.47943)
(0 0 3.47943)
(0 0 3.1481)
(0 0 2.51038)
(0 0 1.61962)
(0 0 0.559783)
(0 0 0.506539)
(0 0 1.46553)
(0 0 2.27146)
(0 0 2.84837)
(0 0 3.14809)
(0 0 3.1481)
(0 0 2.84839)
(0 0 2.27148)
(0 0 1.46556)
(0 0 0.506549)
(0 0 0.404024)
(0 0 1.16888)
(0 0 1.81153)
(0 0 2.27146)
(0 0 2.51037)
(0 0 2.51038)
(0 0 2.27148)
(0 0 1.81155)
(0 0 1.1689)
(0 0 0.404032)
(0 0 0.260728)
(0 0 0.754272)
(0 0 1.16888)
(0 0 1.46554)
(0 0 1.61962)
(0 0 1.61962)
(0 0 1.46556)
(0 0 1.1689)
(0 0 0.754288)
(0 0 0.260735)
(0 0 0.0901288)
(0 0 0.260729)
(0 0 0.404026)
(0 0 0.506544)
(0 0 0.559781)
(0 0 0.559783)
(0 0 0.506549)
(0 0 0.404032)
(0 0 0.260735)
(0 0 0.0901317)
(0 0 0.0465858)
(0 0 0.134877)
(0 0 0.209278)
(0 0 0.262714)
(0 0 0.290547)
(0 0 0.290547)
(0 0 0.262714)
(0 0 0.209279)
(0 0 0.134877)
(0 0 0.0465856)
(0 0 0.134877)
(0 0 0.39051)
(0 0 0.605942)
(0 0 0.760679)
(0 0 0.841283)
(0 0 0.841284)
(0 0 0.760681)
(0 0 0.605945)
(0 0 0.390512)
(0 0 0.134878)
(0 0 0.209278)
(0 0 0.605942)
(0 0 0.940263)
(0 0 1.18043)
(0 0 1.30554)
(0 0 1.30554)
(0 0 1.18043)
(0 0 0.94027)
(0 0 0.605948)
(0 0 0.209281)
(0 0 0.262714)
(0 0 0.760679)
(0 0 1.18043)
(0 0 1.48199)
(0 0 1.63911)
(0 0 1.63912)
(0 0 1.482)
(0 0 1.18044)
(0 0 0.760688)
(0 0 0.262718)
(0 0 0.290547)
(0 0 0.841283)
(0 0 1.30554)
(0 0 1.63911)
(0 0 1.81292)
(0 0 1.81292)
(0 0 1.63912)
(0 0 1.30556)
(0 0 0.841296)
(0 0 0.290552)
(0 0 0.290547)
(0 0 0.841284)
(0 0 1.30554)
(0 0 1.63912)
(0 0 1.81292)
(0 0 1.81293)
(0 0 1.63913)
(0 0 1.30556)
(0 0 0.841299)
(0 0 0.290553)
(0 0 0.262714)
(0 0 0.760681)
(0 0 1.18043)
(0 0 1.482)
(0 0 1.63912)
(0 0 1.63913)
(0 0 1.48201)
(0 0 1.18045)
(0 0 0.760697)
(0 0 0.262721)
(0 0 0.209279)
(0 0 0.605945)
(0 0 0.94027)
(0 0 1.18044)
(0 0 1.30556)
(0 0 1.30556)
(0 0 1.18045)
(0 0 0.940286)
(0 0 0.605959)
(0 0 0.209285)
(0 0 0.134877)
(0 0 0.390512)
(0 0 0.605948)
(0 0 0.760688)
(0 0 0.841296)
(0 0 0.841299)
(0 0 0.760697)
(0 0 0.605959)
(0 0 0.390523)
(0 0 0.134882)
(0 0 0.0465856)
(0 0 0.134878)
(0 0 0.209281)
(0 0 0.262718)
(0 0 0.290552)
(0 0 0.290553)
(0 0 0.262721)
(0 0 0.209285)
(0 0 0.134882)
(0 0 0.0465876)
(0 0 0.0233719)
(0 0 0.067705)
(0 0 0.105146)
(0 0 0.132107)
(0 0 0.146181)
(0 0 0.146181)
(0 0 0.132108)
(0 0 0.105146)
(0 0 0.0677053)
(0 0 0.0233718)
(0 0 0.067705)
(0 0 0.196134)
(0 0 0.304601)
(0 0 0.382714)
(0 0 0.423489)
(0 0 0.42349)
(0 0 0.382716)
(0 0 0.304604)
(0 0 0.196136)
(0 0 0.0677056)
(0 0 0.105146)
(0 0 0.304601)
(0 0 0.473066)
(0 0 0.594395)
(0 0 0.657733)
(0 0 0.657735)
(0 0 0.594399)
(0 0 0.473071)
(0 0 0.304606)
(0 0 0.105147)
(0 0 0.132107)
(0 0 0.382714)
(0 0 0.594395)
(0 0 0.746861)
(0 0 0.826459)
(0 0 0.826461)
(0 0 0.746867)
(0 0 0.594403)
(0 0 0.382721)
(0 0 0.13211)
(0 0 0.146181)
(0 0 0.423489)
(0 0 0.657733)
(0 0 0.826459)
(0 0 0.914548)
(0 0 0.91455)
(0 0 0.826466)
(0 0 0.657743)
(0 0 0.423498)
(0 0 0.146184)
(0 0 0.146181)
(0 0 0.42349)
(0 0 0.657735)
(0 0 0.826461)
(0 0 0.91455)
(0 0 0.914554)
(0 0 0.826469)
(0 0 0.657746)
(0 0 0.4235)
(0 0 0.146185)
(0 0 0.132108)
(0 0 0.382716)
(0 0 0.594399)
(0 0 0.746867)
(0 0 0.826466)
(0 0 0.826469)
(0 0 0.746876)
(0 0 0.594411)
(0 0 0.382726)
(0 0 0.132112)
(0 0 0.105146)
(0 0 0.304604)
(0 0 0.473071)
(0 0 0.594403)
(0 0 0.657743)
(0 0 0.657746)
(0 0 0.594411)
(0 0 0.473081)
(0 0 0.304613)
(0 0 0.10515)
(0 0 0.0677053)
(0 0 0.196136)
(0 0 0.304606)
(0 0 0.382721)
(0 0 0.423498)
(0 0 0.4235)
(0 0 0.382726)
(0 0 0.304613)
(0 0 0.196143)
(0 0 0.0677083)
(0 0 0.0233718)
(0 0 0.0677056)
(0 0 0.105147)
(0 0 0.13211)
(0 0 0.146184)
(0 0 0.146185)
(0 0 0.132112)
(0 0 0.10515)
(0 0 0.0677083)
(0 0 0.0233731)
(0 0 0.0113662)
(0 0 0.0329391)
(0 0 0.0511858)
(0 0 0.06435)
(0 0 0.0712317)
(0 0 0.0712318)
(0 0 0.0643503)
(0 0 0.0511862)
(0 0 0.0329394)
(0 0 0.0113663)
(0 0 0.0329391)
(0 0 0.0954576)
(0 0 0.148338)
(0 0 0.18649)
(0 0 0.206435)
(0 0 0.206436)
(0 0 0.186492)
(0 0 0.14834)
(0 0 0.0954589)
(0 0 0.0329396)
(0 0 0.0511858)
(0 0 0.148338)
(0 0 0.230517)
(0 0 0.28981)
(0 0 0.320808)
(0 0 0.320809)
(0 0 0.289812)
(0 0 0.23052)
(0 0 0.148341)
(0 0 0.051187)
(0 0 0.06435)
(0 0 0.18649)
(0 0 0.28981)
(0 0 0.364359)
(0 0 0.403335)
(0 0 0.403336)
(0 0 0.364363)
(0 0 0.289815)
(0 0 0.186495)
(0 0 0.0643518)
(0 0 0.0712317)
(0 0 0.206435)
(0 0 0.320808)
(0 0 0.403335)
(0 0 0.446482)
(0 0 0.446484)
(0 0 0.40334)
(0 0 0.320814)
(0 0 0.206441)
(0 0 0.0712341)
(0 0 0.0712318)
(0 0 0.206436)
(0 0 0.320809)
(0 0 0.403336)
(0 0 0.446484)
(0 0 0.446486)
(0 0 0.403342)
(0 0 0.320816)
(0 0 0.206442)
(0 0 0.0712345)
(0 0 0.0643503)
(0 0 0.186492)
(0 0 0.289812)
(0 0 0.364363)
(0 0 0.40334)
(0 0 0.403342)
(0 0 0.364369)
(0 0 0.28982)
(0 0 0.186498)
(0 0 0.0643531)
(0 0 0.0511862)
(0 0 0.14834)
(0 0 0.23052)
(0 0 0.289815)
(0 0 0.320814)
(0 0 0.320816)
(0 0 0.28982)
(0 0 0.230527)
(0 0 0.148346)
(0 0 0.0511887)
(0 0 0.0329394)
(0 0 0.0954589)
(0 0 0.148341)
(0 0 0.186495)
(0 0 0.206441)
(0 0 0.206442)
(0 0 0.186498)
(0 0 0.148346)
(0 0 0.0954632)
(0 0 0.0329413)
(0 0 0.0113663)
(0 0 0.0329396)
(0 0 0.051187)
(0 0 0.0643518)
(0 0 0.0712341)
(0 0 0.0712345)
(0 0 0.0643531)
(0 0 0.0511887)
(0 0 0.0329413)
(0 0 0.0113671)
(0 0 0.0053541)
(0 0 0.0155203)
(0 0 0.0241284)
(0 0 0.0303469)
(0 0 0.0336012)
(0 0 0.0336013)
(0 0 0.0303471)
(0 0 0.0241286)
(0 0 0.0155205)
(0 0 0.00535414)
(0 0 0.0155203)
(0 0 0.04499)
(0 0 0.0699435)
(0 0 0.0879705)
(0 0 0.0974046)
(0 0 0.0974049)
(0 0 0.0879713)
(0 0 0.0699445)
(0 0 0.0449909)
(0 0 0.0155206)
(0 0 0.0241284)
(0 0 0.0699435)
(0 0 0.108738)
(0 0 0.136766)
(0 0 0.151434)
(0 0 0.151434)
(0 0 0.136767)
(0 0 0.10874)
(0 0 0.0699453)
(0 0 0.0241291)
(0 0 0.0303469)
(0 0 0.0879705)
(0 0 0.136766)
(0 0 0.172019)
(0 0 0.190469)
(0 0 0.19047)
(0 0 0.172021)
(0 0 0.136769)
(0 0 0.0879732)
(0 0 0.030348)
(0 0 0.0336012)
(0 0 0.0974046)
(0 0 0.151434)
(0 0 0.190469)
(0 0 0.210898)
(0 0 0.210899)
(0 0 0.190472)
(0 0 0.151437)
(0 0 0.097408)
(0 0 0.0336027)
(0 0 0.0336013)
(0 0 0.0974049)
(0 0 0.151434)
(0 0 0.19047)
(0 0 0.210899)
(0 0 0.210901)
(0 0 0.190473)
(0 0 0.151438)
(0 0 0.0974087)
(0 0 0.0336029)
(0 0 0.0303471)
(0 0 0.0879713)
(0 0 0.136767)
(0 0 0.172021)
(0 0 0.190472)
(0 0 0.190473)
(0 0 0.172024)
(0 0 0.136772)
(0 0 0.0879752)
(0 0 0.0303488)
(0 0 0.0241286)
(0 0 0.0699445)
(0 0 0.10874)
(0 0 0.136769)
(0 0 0.151437)
(0 0 0.151438)
(0 0 0.136772)
(0 0 0.108744)
(0 0 0.0699479)
(0 0 0.0241301)
(0 0 0.0155205)
(0 0 0.0449909)
(0 0 0.0699453)
(0 0 0.0879732)
(0 0 0.097408)
(0 0 0.0974087)
(0 0 0.0879752)
(0 0 0.0699479)
(0 0 0.0449934)
(0 0 0.0155216)
(0 0 0.00535414)
(0 0 0.0155206)
(0 0 0.0241291)
(0 0 0.030348)
(0 0 0.0336027)
(0 0 0.0336029)
(0 0 0.0303488)
(0 0 0.0241301)
(0 0 0.0155216)
(0 0 0.00535459)
(0 0 0.00244189)
(0 0 0.00707987)
(0 0 0.0110101)
(0 0 0.0138521)
(0 0 0.0153405)
(0 0 0.0153406)
(0 0 0.0138522)
(0 0 0.0110103)
(0 0 0.00708)
(0 0 0.00244192)
(0 0 0.00707987)
(0 0 0.0205271)
(0 0 0.0319224)
(0 0 0.0401626)
(0 0 0.0444783)
(0 0 0.0444784)
(0 0 0.0401631)
(0 0 0.031923)
(0 0 0.0205276)
(0 0 0.00708007)
(0 0 0.0110101)
(0 0 0.0319224)
(0 0 0.049644)
(0 0 0.0624591)
(0 0 0.069171)
(0 0 0.0691713)
(0 0 0.06246)
(0 0 0.0496452)
(0 0 0.0319234)
(0 0 0.0110105)
(0 0 0.0138521)
(0 0 0.0401626)
(0 0 0.0624591)
(0 0 0.0785829)
(0 0 0.0870278)
(0 0 0.0870283)
(0 0 0.0785842)
(0 0 0.0624609)
(0 0 0.0401641)
(0 0 0.0138527)
(0 0 0.0153405)
(0 0 0.0444783)
(0 0 0.069171)
(0 0 0.0870278)
(0 0 0.0963806)
(0 0 0.0963812)
(0 0 0.0870295)
(0 0 0.0691732)
(0 0 0.0444802)
(0 0 0.0153414)
(0 0 0.0153406)
(0 0 0.0444784)
(0 0 0.0691713)
(0 0 0.0870283)
(0 0 0.0963812)
(0 0 0.0963818)
(0 0 0.0870301)
(0 0 0.0691738)
(0 0 0.0444806)
(0 0 0.0153415)
(0 0 0.0138522)
(0 0 0.0401631)
(0 0 0.06246)
(0 0 0.0785842)
(0 0 0.0870295)
(0 0 0.0870301)
(0 0 0.078586)
(0 0 0.0624624)
(0 0 0.0401652)
(0 0 0.0138532)
(0 0 0.0110103)
(0 0 0.031923)
(0 0 0.0496452)
(0 0 0.0624609)
(0 0 0.0691732)
(0 0 0.0691738)
(0 0 0.0624624)
(0 0 0.0496473)
(0 0 0.0319249)
(0 0 0.0110111)
(0 0 0.00708)
(0 0 0.0205276)
(0 0 0.0319234)
(0 0 0.0401641)
(0 0 0.0444802)
(0 0 0.0444806)
(0 0 0.0401652)
(0 0 0.0319249)
(0 0 0.020529)
(0 0 0.00708061)
(0 0 0.00244192)
(0 0 0.00708007)
(0 0 0.0110105)
(0 0 0.0138527)
(0 0 0.0153414)
(0 0 0.0153415)
(0 0 0.0138532)
(0 0 0.0110111)
(0 0 0.00708061)
(0 0 0.00244217)
(0 0 0.00107815)
(0 0 0.00312637)
(0 0 0.00486305)
(0 0 0.00611977)
(0 0 0.00677833)
(0 0 0.00677836)
(0 0 0.00611985)
(0 0 0.00486315)
(0 0 0.00312645)
(0 0 0.00107817)
(0 0 0.00312637)
(0 0 0.0090658)
(0 0 0.0141018)
(0 0 0.0177461)
(0 0 0.0196559)
(0 0 0.019656)
(0 0 0.0177464)
(0 0 0.0141022)
(0 0 0.0090661)
(0 0 0.00312649)
(0 0 0.00486305)
(0 0 0.0141018)
(0 0 0.0219355)
(0 0 0.0276044)
(0 0 0.0305752)
(0 0 0.0305754)
(0 0 0.0276049)
(0 0 0.0219362)
(0 0 0.0141024)
(0 0 0.00486329)
(0 0 0.00611977)
(0 0 0.0177461)
(0 0 0.0276044)
(0 0 0.0347385)
(0 0 0.0384771)
(0 0 0.0384774)
(0 0 0.0347392)
(0 0 0.0276054)
(0 0 0.017747)
(0 0 0.00612013)
(0 0 0.00677833)
(0 0 0.0196559)
(0 0 0.0305752)
(0 0 0.0384771)
(0 0 0.0426182)
(0 0 0.0426185)
(0 0 0.038478)
(0 0 0.0305764)
(0 0 0.019657)
(0 0 0.00677878)
(0 0 0.00677836)
(0 0 0.019656)
(0 0 0.0305754)
(0 0 0.0384774)
(0 0 0.0426185)
(0 0 0.0426189)
(0 0 0.0384784)
(0 0 0.0305767)
(0 0 0.0196572)
(0 0 0.00677887)
(0 0 0.00611985)
(0 0 0.0177464)
(0 0 0.0276049)
(0 0 0.0347392)
(0 0 0.038478)
(0 0 0.0384784)
(0 0 0.0347402)
(0 0 0.0276062)
(0 0 0.0177476)
(0 0 0.00612035)
(0 0 0.00486315)
(0 0 0.0141022)
(0 0 0.0219362)
(0 0 0.0276054)
(0 0 0.0305764)
(0 0 0.0305767)
(0 0 0.0276062)
(0 0 0.0219373)
(0 0 0.0141032)
(0 0 0.00486359)
(0 0 0.00312645)
(0 0 0.0090661)
(0 0 0.0141024)
(0 0 0.017747)
(0 0 0.019657)
(0 0 0.0196572)
(0 0 0.0177476)
(0 0 0.0141032)
(0 0 0.00906683)
(0 0 0.00312677)
(0 0 0.00107817)
(0 0 0.00312649)
(0 0 0.00486329)
(0 0 0.00612013)
(0 0 0.00677878)
(0 0 0.00677887)
(0 0 0.00612035)
(0 0 0.00486359)
(0 0 0.00312677)
(0 0 0.0010783)
(0 0 0.000460861)
(0 0 0.00133654)
(0 0 0.00207935)
(0 0 0.00261716)
(0 0 0.00289912)
(0 0 0.00289914)
(0 0 0.0026172)
(0 0 0.0020794)
(0 0 0.00133658)
(0 0 0.000460874)
(0 0 0.00133654)
(0 0 0.0038761)
(0 0 0.00603035)
(0 0 0.0075901)
(0 0 0.00840783)
(0 0 0.00840789)
(0 0 0.00759025)
(0 0 0.00603054)
(0 0 0.00387626)
(0 0 0.0013366)
(0 0 0.00207935)
(0 0 0.00603035)
(0 0 0.00938192)
(0 0 0.0118086)
(0 0 0.0130809)
(0 0 0.013081)
(0 0 0.0118089)
(0 0 0.00938227)
(0 0 0.00603066)
(0 0 0.00207947)
(0 0 0.00261716)
(0 0 0.0075901)
(0 0 0.0118086)
(0 0 0.014863)
(0 0 0.0164644)
(0 0 0.0164645)
(0 0 0.0148634)
(0 0 0.0118091)
(0 0 0.00759054)
(0 0 0.00261735)
(0 0 0.00289912)
(0 0 0.00840783)
(0 0 0.0130809)
(0 0 0.0164644)
(0 0 0.0182383)
(0 0 0.0182385)
(0 0 0.0164648)
(0 0 0.0130815)
(0 0 0.00840838)
(0 0 0.00289936)
(0 0 0.00289914)
(0 0 0.00840789)
(0 0 0.013081)
(0 0 0.0164645)
(0 0 0.0182385)
(0 0 0.0182387)
(0 0 0.016465)
(0 0 0.0130816)
(0 0 0.00840849)
(0 0 0.0028994)
(0 0 0.0026172)
(0 0 0.00759025)
(0 0 0.0118089)
(0 0 0.0148634)
(0 0 0.0164648)
(0 0 0.016465)
(0 0 0.0148639)
(0 0 0.0118095)
(0 0 0.00759084)
(0 0 0.00261746)
(0 0 0.0020794)
(0 0 0.00603054)
(0 0 0.00938227)
(0 0 0.0118091)
(0 0 0.0130815)
(0 0 0.0130816)
(0 0 0.0118095)
(0 0 0.00938284)
(0 0 0.00603106)
(0 0 0.00207963)
(0 0 0.00133658)
(0 0 0.00387626)
(0 0 0.00603066)
(0 0 0.00759054)
(0 0 0.00840838)
(0 0 0.00840849)
(0 0 0.00759084)
(0 0 0.00603106)
(0 0 0.00387663)
(0 0 0.00133674)
(0 0 0.000460874)
(0 0 0.0013366)
(0 0 0.00207947)
(0 0 0.00261735)
(0 0 0.00289936)
(0 0 0.0028994)
(0 0 0.00261746)
(0 0 0.00207963)
(0 0 0.00133674)
(0 0 0.000460939)
(0 0 0.000190764)
(0 0 0.00055328)
(0 0 0.000860896)
(0 0 0.00108371)
(0 0 0.00120057)
(0 0 0.00120058)
(0 0 0.00108373)
(0 0 0.000860923)
(0 0 0.000553302)
(0 0 0.000190771)
(0 0 0.00055328)
(0 0 0.00160471)
(0 0 0.00249691)
(0 0 0.00314317)
(0 0 0.0034821)
(0 0 0.00348213)
(0 0 0.00314325)
(0 0 0.00249701)
(0 0 0.00160479)
(0 0 0.000553313)
(0 0 0.000860896)
(0 0 0.00249691)
(0 0 0.00388519)
(0 0 0.00489078)
(0 0 0.00541817)
(0 0 0.00541822)
(0 0 0.00489091)
(0 0 0.00388536)
(0 0 0.00249707)
(0 0 0.00086096)
(0 0 0.00108371)
(0 0 0.00314317)
(0 0 0.00489078)
(0 0 0.00615666)
(0 0 0.00682057)
(0 0 0.00682064)
(0 0 0.00615685)
(0 0 0.00489103)
(0 0 0.00314339)
(0 0 0.00108381)
(0 0 0.00120057)
(0 0 0.0034821)
(0 0 0.00541817)
(0 0 0.00682057)
(0 0 0.00755609)
(0 0 0.00755618)
(0 0 0.0068208)
(0 0 0.00541847)
(0 0 0.00348238)
(0 0 0.00120068)
(0 0 0.00120058)
(0 0 0.00348213)
(0 0 0.00541822)
(0 0 0.00682064)
(0 0 0.00755618)
(0 0 0.00755627)
(0 0 0.00682089)
(0 0 0.00541855)
(0 0 0.00348243)
(0 0 0.0012007)
(0 0 0.00108373)
(0 0 0.00314325)
(0 0 0.00489091)
(0 0 0.00615685)
(0 0 0.0068208)
(0 0 0.00682089)
(0 0 0.00615709)
(0 0 0.00489123)
(0 0 0.00314354)
(0 0 0.00108386)
(0 0 0.000860923)
(0 0 0.00249701)
(0 0 0.00388536)
(0 0 0.00489103)
(0 0 0.00541847)
(0 0 0.00541855)
(0 0 0.00489123)
(0 0 0.00388564)
(0 0 0.00249726)
(0 0 0.000861033)
(0 0 0.000553302)
(0 0 0.00160479)
(0 0 0.00249707)
(0 0 0.00314339)
(0 0 0.00348238)
(0 0 0.00348243)
(0 0 0.00314354)
(0 0 0.00249726)
(0 0 0.00160497)
(0 0 0.000553381)
(0 0 0.000190771)
(0 0 0.000553313)
(0 0 0.00086096)
(0 0 0.00108381)
(0 0 0.00120068)
(0 0 0.0012007)
(0 0 0.00108386)
(0 0 0.000861033)
(0 0 0.000553381)
(0 0 0.000190802)
(0 0 7.64886e-05)
(0 0 0.000221858)
(0 0 0.000345245)
(0 0 0.000434649)
(0 0 0.000481549)
(0 0 0.000481553)
(0 0 0.000434659)
(0 0 0.000345259)
(0 0 0.000221869)
(0 0 7.64923e-05)
(0 0 0.000221858)
(0 0 0.000643511)
(0 0 0.00100141)
(0 0 0.00126073)
(0 0 0.00139677)
(0 0 0.00139678)
(0 0 0.00126076)
(0 0 0.00100145)
(0 0 0.000643552)
(0 0 0.000221874)
(0 0 0.000345245)
(0 0 0.00100141)
(0 0 0.00155835)
(0 0 0.00196191)
(0 0 0.00217361)
(0 0 0.00217364)
(0 0 0.00196197)
(0 0 0.00155844)
(0 0 0.00100148)
(0 0 0.000345276)
(0 0 0.000434649)
(0 0 0.00126073)
(0 0 0.00196191)
(0 0 0.00246997)
(0 0 0.00273651)
(0 0 0.00273654)
(0 0 0.00247006)
(0 0 0.00196202)
(0 0 0.00126083)
(0 0 0.000434693)
(0 0 0.000481549)
(0 0 0.00139677)
(0 0 0.00217361)
(0 0 0.00273651)
(0 0 0.00303181)
(0 0 0.00303185)
(0 0 0.00273662)
(0 0 0.00217376)
(0 0 0.0013969)
(0 0 0.000481604)
(0 0 0.000481553)
(0 0 0.00139678)
(0 0 0.00217364)
(0 0 0.00273654)
(0 0 0.00303185)
(0 0 0.0030319)
(0 0 0.00273666)
(0 0 0.00217379)
(0 0 0.00139692)
(0 0 0.000481613)
(0 0 0.000434659)
(0 0 0.00126076)