/*--------------------------------*- C++ -*----------------------------------*\
| =========                 |                                                 |
| \\      /  F ield         | OpenFOAM: The Open Source CFD Toolbox           |
|  \\    /   O peration     | Version:  v2106                                 |
|   \\  /    A nd           | Website:  www.openfoam.com                      |
|    \\/     M anipulation  |                                                 |
\*---------------------------------------------------------------------------*/
FoamFile
{
    version     2.0;
    format      ascii;
    arch        "LSB;label=32;scalar=64";
    class       volVectorField;
    location    "27.5";
    object      flux;
}
// * * * * * * * * * * * * * * * * * * * * * * * * * * * * * * * * * * * * * //

dimensions      [0 1 -1 1 0 0 0];

internalField   nonuniform List<vector> 
4000
(
(-3.1302435e-07 -3.1302435e-07 0.58780495)
(8.5257556e-07 5.7319546e-07 0.58780332)
(1.1779372e-06 2.0361288e-07 0.58780913)
(-3.2574136e-07 1.5803109e-07 0.58780855)
(-3.0372821e-07 1.6027801e-07 0.58780767)
(-2.2487332e-07 1.6665383e-07 0.58780704)
(-2.1508219e-07 1.7270124e-07 0.5878065)
(-2.3703486e-07 1.6761148e-07 0.58780591)
(-2.1005867e-07 1.27933e-07 0.58780524)
(-5.6929636e-08 6.2844966e-08 0.58780486)
(5.7319546e-07 8.5257557e-07 0.58780332)
(1.6275314e-06 1.6275314e-06 0.58780674)
(5.5519061e-07 9.831304e-07 0.58781032)
(-3.9074367e-07 9.0581159e-07 0.58780943)
(-2.907941e-07 9.1411177e-07 0.58780857)
(-2.0623849e-07 9.3590087e-07 0.58780799)
(-2.1364572e-07 9.6466698e-07 0.5878075)
(-3.041872e-07 9.746904e-07 0.58780685)
(-3.6720844e-07 8.8714955e-07 0.58780584)
(-1.2201768e-07 6.4661373e-07 0.58780504)
(2.0361288e-07 1.1779372e-06 0.58780913)
(9.8313039e-07 5.5519061e-07 0.58781032)
(4.5621735e-07 4.5621735e-07 0.58781345)
(-3.9475998e-07 4.4821686e-07 0.5878125)
(-2.7363893e-07 4.5949137e-07 0.58781165)
(-1.7431812e-07 4.8431804e-07 0.58781114)
(-1.7629266e-07 5.2570005e-07 0.58781075)
(-3.1455228e-07 5.7883335e-07 0.5878102)
(-5.3813534e-07 6.0227334e-07 0.58780901)
(-2.1728685e-07 5.1589249e-07 0.58780749)
(1.5803109e-07 -3.2574136e-07 0.58780855)
(9.0581159e-07 -3.9074367e-07 0.58780943)
(4.4821686e-07 -3.9475999e-07 0.5878125)
(-3.8746965e-07 -3.8746964e-07 0.58781155)
(-2.5469292e-07 -3.7254576e-07 0.58781074)
(-1.4002981e-07 -3.4844701e-07 0.58781029)
(-1.1913042e-07 -3.1139746e-07 0.58781002)
(-2.2761391e-07 -2.5529326e-07 0.58780965)
(-4.3014929e-07 -1.7778063e-07 0.58780871)
(-1.7960491e-07 -9.5136691e-08 0.58780744)
(1.6027801e-07 -3.0372822e-07 0.58780767)
(9.1411177e-07 -2.907941e-07 0.58780857)
(4.5949138e-07 -2.7363893e-07 0.58781165)
(-3.7254576e-07 -2.5469292e-07 0.58781074)
(-2.3461629e-07 -2.3461629e-07 0.58780996)
(-1.1316982e-07 -2.1228629e-07 0.58780958)
(-8.3138916e-08 -1.8637539e-07 0.58780939)
(-1.8093546e-07 -1.553789e-07 0.58780913)
(-3.7797877e-07 -1.1957375e-07 0.58780833)
(-1.621909e-07 -8.6172142e-08 0.58780719)
(1.6665384e-07 -2.2487333e-07 0.58780704)
(9.3590088e-07 -2.0623849e-07 0.58780799)
(4.8431804e-07 -1.7431811e-07 0.58781114)
(-3.4844701e-07 -1.4002981e-07 0.58781029)
(-2.1228629e-07 -1.1316982e-07 0.58780958)
(-9.1788906e-08 -9.1788907e-08 0.58780925)
(-6.2223023e-08 -7.4247252e-08 0.58780911)
(-1.6081227e-07 -6.0136297e-08 0.58780891)
(-3.6094254e-07 -4.9589413e-08 0.58780816)
(-1.5733717e-07 -4.3544771e-08 0.58780706)
(1.7270123e-07 -2.1508219e-07 0.5878065)
(9.6466698e-07 -2.1364574e-07 0.5878075)
(5.2570006e-07 -1.7629267e-07 0.58781075)
(-3.1139746e-07 -1.1913042e-07 0.58781002)
(-1.8637539e-07 -8.3138921e-08 0.58780939)
(-7.4247252e-08 -6.222302e-08 0.58780911)
(-5.1486307e-08 -5.1486309e-08 0.58780902)
(-1.5627762e-07 -4.9650937e-08 0.58780883)
(-3.6138725e-07 -5.5422779e-08 0.58780808)
(-1.5816113e-07 -6.4949305e-08 0.58780698)
(1.6761147e-07 -2.3703485e-07 0.58780591)
(9.746904e-07 -3.0418719e-07 0.58780685)
(5.7883336e-07 -3.1455228e-07 0.5878102)
(-2.5529326e-07 -2.2761391e-07 0.58780965)
(-1.553789e-07 -1.8093545e-07 0.58780913)
(-6.0136293e-08 -1.6081227e-07 0.58780891)
(-4.965094e-08 -1.5627762e-07 0.58780883)
(-1.6474874e-07 -1.6474874e-07 0.58780863)
(-3.762409e-07 -1.839295e-07 0.58780785)
(-1.6368819e-07 -2.0653191e-07 0.58780669)
(1.2793301e-07 -2.1005867e-07 0.58780524)
(8.8714956e-07 -3.6720842e-07 0.58780584)
(6.0227334e-07 -5.3813533e-07 0.58780901)
(-1.7778063e-07 -4.301493e-07 0.58780871)
(-1.1957375e-07 -3.7797877e-07 0.58780833)
(-4.9589421e-08 -3.6094254e-07 0.58780816)
(-5.5422782e-08 -3.6138724e-07 0.58780808)
(-1.839295e-07 -3.762409e-07 0.58780785)
(-4.0317042e-07 -4.0317042e-07 0.58780699)
(-1.7322941e-07 -4.3046561e-07 0.58780576)
(6.2844967e-08 -5.6929637e-08 0.58780486)
(6.4661373e-07 -1.2201768e-07 0.58780504)
(5.1589249e-07 -2.1728685e-07 0.58780749)
(-9.5136697e-08 -1.7960491e-07 0.58780744)
(-8.6172143e-08 -1.621909e-07 0.58780719)
(-4.3544766e-08 -1.5733717e-07 0.58780706)
(-6.4949297e-08 -1.5816113e-07 0.58780698)
(-2.0653192e-07 -1.6368818e-07 0.58780669)
(-4.3046561e-07 -1.7322941e-07 0.58780576)
(-1.8188498e-07 -1.8188498e-07 0.58780448)
(-6.8971988e-07 -6.8971989e-07 0.87530718)
(3.7122814e-06 1.6972356e-06 0.87530676)
(4.3100804e-06 5.8117138e-07 0.87531203)
(-1.2123605e-06 4.1467671e-07 0.87531143)
(-1.3526914e-06 4.1891675e-07 0.87531034)
(-1.0760835e-06 4.480902e-07 0.8753095)
(-1.0581203e-06 4.7797204e-07 0.87530875)
(-1.1860895e-06 4.4483526e-07 0.87530783)
(-9.4624785e-07 2.147257e-07 0.87530668)
(-2.1287149e-07 -6.4532653e-09 0.87530652)
(1.6972356e-06 3.7122814e-06 0.87530676)
(5.6186184e-06 5.6186184e-06 0.87530975)
(2.3862421e-06 3.5435436e-06 0.87531334)
(-1.4557424e-06 3.2223136e-06 0.87531246)
(-1.3025711e-06 3.2443961e-06 0.87531139)
(-9.8750053e-07 3.3478331e-06 0.87531062)
(-1.0630028e-06 3.4906735e-06 0.87530996)
(-1.580959e-06 3.5231417e-06 0.87530896)
(-1.6231806e-06 3.0008886e-06 0.87530702)
(-4.3405046e-07 2.0062718e-06 0.87530611)
(5.8117137e-07 4.3100805e-06 0.87531203)
(3.5435436e-06 2.386242e-06 0.87531334)
(1.9137755e-06 1.9137755e-06 0.87531644)
(-1.511508e-06 1.834489e-06 0.87531545)
(-1.2271718e-06 1.87903e-06 0.8753144)
(-8.2980602e-07 2.0010607e-06 0.87531373)
(-8.8281173e-07 2.206484e-06 0.87531325)
(-1.6758744e-06 2.4597116e-06 0.87531242)
(-2.4631178e-06 2.50514e-06 0.87531025)
(-8.7594937e-07 2.0546495e-06 0.87530844)
(4.1467671e-07 -1.2123605e-06 0.87531143)
(3.2223136e-06 -1.4557424e-06 0.87531246)
(1.834489e-06 -1.511508e-06 0.87531545)
(-1.4904879e-06 -1.4904879e-06 0.87531445)
(-1.1359994e-06 -1.4195616e-06 0.87531345)
(-6.6004655e-07 -1.3002653e-06 0.87531288)
(-6.0435196e-07 -1.1165975e-06 0.87531257)
(-1.282303e-06 -8.4324254e-07 0.87531201)
(-2.0282426e-06 -4.9511496e-07 0.87531016)
(-7.3437741e-07 -1.5784001e-07 0.87530862)
(4.1891675e-07 -1.3526914e-06 0.87531034)
(3.2443961e-06 -1.3025711e-06 0.87531139)
(1.87903e-06 -1.2271718e-06 0.8753144)
(-1.4195616e-06 -1.1359994e-06 0.87531345)
(-1.0369492e-06 -1.0369492e-06 0.87531251)
(-5.2684194e-07 -9.2655578e-07 0.87531203)
(-4.2578895e-07 -7.9829261e-07 0.87531184)
(-1.0543919e-06 -6.4454384e-07 0.87531145)
(-1.7777153e-06 -4.7029081e-07 0.87530978)
(-6.510994e-07 -3.0708632e-07 0.87530843)
(4.480902e-07 -1.0760835e-06 0.8753095)
(3.3478331e-06 -9.8750052e-07 0.87531062)
(2.0010607e-06 -8.2980603e-07 0.87531373)
(-1.3002653e-06 -6.6004656e-07 0.87531288)
(-9.2655578e-07 -5.2684194e-07 0.87531203)
(-4.2138997e-07 -4.2138997e-07 0.87531164)
(-3.2234002e-07 -3.3555522e-07 0.87531153)
(-9.5430115e-07 -2.6678367e-07 0.87531121)
(-1.6907851e-06 -2.1595021e-07 0.87530963)
(-6.2557442e-07 -1.8590437e-07 0.87530833)
(4.7797204e-07 -1.0581203e-06 0.87530875)
(3.4906735e-06 -1.0630028e-06 0.87530996)
(2.206484e-06 -8.8281172e-07 0.87531325)
(-1.1165975e-06 -6.0435196e-07 0.87531257)
(-7.9829262e-07 -4.2578896e-07 0.87531184)
(-3.3555521e-07 -3.2234002e-07 0.87531153)
(-2.7118266e-07 -2.7118266e-07 0.87531147)
(-9.3478685e-07 -2.6600449e-07 0.87531118)
(-1.696836e-06 -3.0100319e-07 0.87530958)
(-6.3106884e-07 -3.5846787e-07 0.87530826)
(4.4483526e-07 -1.1860895e-06 0.87530783)
(3.5231418e-06 -1.580959e-06 0.87530896)
(2.4597116e-06 -1.6758744e-06 0.87531242)
(-8.4324254e-07 -1.282303e-06 0.87531201)
(-6.4454384e-07 -1.0543919e-06 0.87531145)
(-2.6678367e-07 -9.5430114e-07 0.87531121)
(-2.6600449e-07 -9.3478684e-07 0.87531118)
(-9.8412169e-07 -9.8412168e-07 0.87531085)
(-1.7832485e-06 -1.0909573e-06 0.87530917)
(-6.638842e-07 -1.2188864e-06 0.87530773)
(2.147257e-07 -9.4624785e-07 0.87530668)
(3.0008886e-06 -1.6231806e-06 0.87530702)
(2.50514e-06 -2.4631178e-06 0.87531025)
(-4.9511496e-07 -2.0282426e-06 0.87531016)
(-4.702908e-07 -1.7777153e-06 0.87530978)
(-2.159502e-07 -1.6907851e-06 0.87530963)
(-3.0100319e-07 -1.696836e-06 0.87530958)
(-1.0909573e-06 -1.7832485e-06 0.87530917)
(-1.9316007e-06 -1.9316007e-06 0.87530734)
(-7.1635491e-07 -2.030622e-06 0.87530575)
(-6.4532685e-09 -2.1287149e-07 0.87530652)
(2.0062718e-06 -4.3405046e-07 0.87530611)
(2.0546496e-06 -8.7594937e-07 0.87530844)
(-1.5784001e-07 -7.3437742e-07 0.87530862)
(-3.0708631e-07 -6.5109941e-07 0.87530843)
(-1.8590436e-07 -6.2557442e-07 0.87530833)
(-3.5846786e-07 -6.3106885e-07 0.87530826)
(-1.2188864e-06 -6.638842e-07 0.87530773)
(-2.030622e-06 -7.163549e-07 0.87530575)
(-7.2989839e-07 -7.2989838e-07 0.87530458)
(-5.8969661e-07 -5.8969661e-07 0.87777617)
(5.7040655e-06 2.5666757e-06 0.87777623)
(5.8438361e-06 1.0770904e-06 0.87777954)
(-2.0139711e-06 8.4602676e-07 0.87777889)
(-2.2357117e-06 8.5624758e-07 0.87777796)
(-1.819071e-06 9.1381971e-07 0.87777725)
(-1.8840305e-06 9.8196176e-07 0.87777661)
(-2.3078769e-06 9.2159685e-07 0.87777567)
(-1.5214941e-06 3.5776986e-07 0.87777411)
(-1.6339471e-07 -2.1179012e-07 0.87777398)
(2.5666757e-06 5.7040655e-06 0.87777623)
(8.2042463e-06 8.2042463e-06 0.87777842)
(3.2628626e-06 5.3838048e-06 0.87778069)
(-2.3452354e-06 4.9226968e-06 0.87777988)
(-2.1340222e-06 4.9674643e-06 0.87777897)
(-1.6304997e-06 5.1655578e-06 0.87777836)
(-1.8723648e-06 5.4608255e-06 0.87777786)
(-3.2441647e-06 5.5624185e-06 0.8777769)
(-3.2215746e-06 4.4536199e-06 0.87777441)
(-7.3295468e-07 2.5622238e-06 0.87777339)
(1.0770904e-06 5.8438361e-06 0.87777954)
(5.3838048e-06 3.2628626e-06 0.87778069)
(2.5622865e-06 2.5622865e-06 0.87778265)
(-2.4303116e-06 2.4354562e-06 0.87778177)
(-1.9928506e-06 2.5175628e-06 0.8777809)
(-1.3257098e-06 2.7420753e-06 0.87778039)
(-1.4871698e-06 3.1285797e-06 0.87778008)
(-3.3150825e-06 3.6251589e-06 0.87777935)
(-4.5216889e-06 3.7332179e-06 0.87777668)
(-1.4243255e-06 3.0255561e-06 0.87777494)
(8.4602676e-07 -2.0139711e-06 0.87777889)
(4.9226968e-06 -2.3452354e-06 0.87777988)
(2.4354562e-06 -2.4303116e-06 0.87778177)
(-2.3899591e-06 -2.3899591e-06 0.8777809)
(-1.8274032e-06 -2.260774e-06 0.87778007)
(-1.0194828e-06 -2.045439e-06 0.87777966)
(-9.8928117e-07 -1.7156906e-06 0.87777954)
(-2.6395265e-06 -1.2301592e-06 0.87777907)
(-3.8211773e-06 -6.4344531e-07 0.87777668)
(-1.2047292e-06 -1.0496434e-07 0.87777515)
(8.5624757e-07 -2.2357117e-06 0.87777796)
(4.9674643e-06 -2.1340222e-06 0.87777897)
(2.5175628e-06 -1.9928506e-06 0.8777809)
(-2.260774e-06 -1.8274032e-06 0.87778007)
(-1.6483305e-06 -1.6483305e-06 0.87777932)
(-7.8062638e-07 -1.4500072e-06 0.877779)
(-6.7188996e-07 -1.2214734e-06 0.87777899)
(-2.2428372e-06 -9.5029064e-07 0.87777868)
(-3.3964941e-06 -6.5159406e-07 0.87777646)
(-1.0653382e-06 -3.7791069e-07 0.87777509)
(9.1381971e-07 -1.819071e-06 0.87777725)
(5.1655578e-06 -1.6304997e-06 0.87777836)
(2.7420753e-06 -1.3257098e-06 0.87778039)
(-2.045439e-06 -1.0194828e-06 0.87777966)
(-1.4500072e-06 -7.8062637e-07 0.877779)
(-5.9262567e-07 -5.9262567e-07 0.87777877)
(-4.8956458e-07 -4.4253225e-07 0.87777884)
(-2.0696472e-06 -3.2701144e-07 0.8777786)
(-3.2487974e-06 -2.494213e-07 0.87777645)
(-1.0222736e-06 -2.1204691e-07 0.87777512)
(9.8196176e-07 -1.8840305e-06 0.87777661)
(5.4608255e-06 -1.8723648e-06 0.87777786)
(3.1285797e-06 -1.4871698e-06 0.87778008)
(-1.7156906e-06 -9.8928116e-07 0.87777954)
(-1.2214734e-06 -6.7188995e-07 0.87777899)
(-4.4253226e-07 -4.8956458e-07 0.87777884)
(-4.0627573e-07 -4.0627572e-07 0.87777895)
(-2.0497262e-06 -4.1525369e-07 0.87777872)
(-3.2815295e-06 -5.1058823e-07 0.87777654)
(-1.0404219e-06 -6.6204955e-07 0.87777516)
(9.2159685e-07 -2.3078769e-06 0.87777567)
(5.5624185e-06 -3.2441647e-06 0.8777769)
(3.6251589e-06 -3.3150825e-06 0.87777935)
(-1.2301592e-06 -2.6395266e-06 0.87777907)
(-9.5029065e-07 -2.2428372e-06 0.87777868)
(-3.2701144e-07 -2.0696472e-06 0.8777786)
(-4.1525369e-07 -2.0497262e-06 0.87777872)
(-2.1739598e-06 -2.1739598e-06 0.87777843)
(-3.4955932e-06 -2.4266376e-06 0.87777612)
(-1.1232478e-06 -2.7190479e-06 0.87777454)
(3.5776986e-07 -1.5214941e-06 0.87777411)
(4.4536199e-06 -3.2215746e-06 0.87777441)
(3.7332179e-06 -4.5216889e-06 0.87777668)
(-6.434453e-07 -3.8211773e-06 0.87777668)
(-6.5159406e-07 -3.3964941e-06 0.87777646)
(-2.494213e-07 -3.2487974e-06 0.87777645)
(-5.1058823e-07 -3.2815295e-06 0.87777654)
(-2.4266376e-06 -3.4955932e-06 0.87777612)
(-3.8266177e-06 -3.8266177e-06 0.87777355)
(-1.2353621e-06 -3.5818631e-06 0.87777171)
(-2.1179012e-07 -1.6339471e-07 0.87777398)
(2.5622238e-06 -7.3295468e-07 0.87777339)
(3.0255561e-06 -1.4243255e-06 0.87777494)
(-1.0496434e-07 -1.2047292e-06 0.87777515)
(-3.7791069e-07 -1.0653382e-06 0.87777509)
(-2.120469e-07 -1.0222736e-06 0.87777512)
(-6.6204955e-07 -1.0404219e-06 0.87777516)
(-2.7190479e-06 -1.1232478e-06 0.87777454)
(-3.5818631e-06 -1.2353621e-06 0.87777171)
(-9.6007808e-07 -9.6007808e-07 0.87777126)
(-6.4601243e-07 -6.4601243e-07 0.88161063)
(7.0802553e-06 3.1523308e-06 0.8816104)
(6.9690048e-06 1.3505324e-06 0.88161319)
(-2.791282e-06 1.0735281e-06 0.8816125)
(-2.998908e-06 1.0946908e-06 0.88161166)
(-2.4248038e-06 1.1863647e-06 0.88161108)
(-2.6398502e-06 1.3101994e-06 0.88161061)
(-3.6894345e-06 1.265067e-06 0.88160978)
(-2.6309133e-06 4.1539319e-07 0.881608)
(-2.9628078e-07 -3.9887729e-07 0.88160755)
(3.1523308e-06 7.0802553e-06 0.8816104)
(1.0075073e-05 1.0075073e-05 0.88161203)
(3.8508004e-06 6.6516641e-06 0.8816139)
(-3.1750444e-06 6.0975577e-06 0.88161308)
(-2.8296531e-06 6.1790177e-06 0.88161228)
(-2.1015409e-06 6.4839353e-06 0.88161181)
(-2.5217968e-06 6.9631677e-06 0.88161151)
(-5.0316439e-06 7.2057266e-06 0.88161073)
(-5.1268297e-06 5.5754691e-06 0.88160812)
(-1.1105512e-06 2.9649008e-06 0.881607)
(1.3505324e-06 6.9690047e-06 0.88161319)
(6.651664e-06 3.8508004e-06 0.8816139)
(2.9914894e-06 2.9914894e-06 0.88161551)
(-3.2639283e-06 2.8454072e-06 0.88161466)
(-2.6125304e-06 2.9758107e-06 0.8816139)
(-1.6406538e-06 3.3082244e-06 0.88161354)
(-1.9180588e-06 3.8817655e-06 0.88161345)
(-5.0771332e-06 4.6272238e-06 0.88161291)
(-6.8717392e-06 4.7741198e-06 0.88161011)
(-2.0366597e-06 3.8053259e-06 0.8816083)
(1.0735281e-06 -2.791282e-06 0.8816125)
(6.0975577e-06 -3.1750444e-06 0.88161308)
(2.8454072e-06 -3.2639283e-06 0.88161466)
(-3.1907231e-06 -3.1907231e-06 0.88161383)
(-2.3668359e-06 -2.9969554e-06 0.88161313)
(-1.1955861e-06 -2.6831176e-06 0.88161288)
(-1.2027974e-06 -2.2073368e-06 0.88161295)
(-4.1392897e-06 -1.5149247e-06 0.88161268)
(-5.9487275e-06 -7.1482248e-07 0.88161013)
(-1.7564138e-06 -1.3684258e-08 0.88160849)
(1.0946908e-06 -2.998908e-06 0.88161166)
(6.1790177e-06 -2.8296531e-06 0.88161228)
(2.9758107e-06 -2.6125304e-06 0.8816139)
(-2.9969554e-06 -2.3668359e-06 0.88161313)
(-2.104925e-06 -2.104925e-06 0.8816125)
(-8.5103517e-07 -1.8185391e-06 0.88161234)
(-7.4986594e-07 -1.4921881e-06 0.88161254)
(-3.5846188e-06 -1.1097352e-06 0.88161241)
(-5.3704987e-06 -7.0041682e-07 0.88161002)
(-1.5692342e-06 -3.3484848e-07 0.88160852)
(1.1863647e-06 -2.4248038e-06 0.88161108)
(6.4839353e-06 -2.1015409e-06 0.88161181)
(3.3082244e-06 -1.6406538e-06 0.88161354)
(-2.6831176e-06 -1.1955861e-06 0.88161288)
(-1.8185391e-06 -8.5103516e-07 0.88161234)
(-5.8284919e-07 -5.8284919e-07 0.88161227)
(-4.9399354e-07 -3.7418682e-07 0.88161254)
(-3.3475184e-06 -2.2252238e-07 0.88161248)
(-5.1738408e-06 -1.3540844e-07 0.88161014)
(-1.5127015e-06 -1.1052377e-07 0.88160867)
(1.3101994e-06 -2.6398502e-06 0.88161061)
(6.9631677e-06 -2.5217968e-06 0.88161151)
(3.8817655e-06 -1.9180588e-06 0.88161345)
(-2.2073368e-06 -1.2027974e-06 0.88161295)
(-1.4921881e-06 -7.4986594e-07 0.88161254)
(-3.7418682e-07 -4.9399354e-07 0.88161254)
(-3.8953913e-07 -3.8953914e-07 0.88161284)
(-3.3458405e-06 -4.3542656e-07 0.88161278)
(-5.2585001e-06 -6.3353594e-07 0.8816104)
(-1.5526444e-06 -9.3948936e-07 0.88160886)
(1.265067e-06 -3.6894345e-06 0.88160978)
(7.2057266e-06 -5.0316439e-06 0.88161073)
(4.6272238e-06 -5.0771332e-06 0.88161291)
(-1.5149247e-06 -4.1392897e-06 0.88161268)
(-1.1097352e-06 -3.5846189e-06 0.88161241)
(-2.2252239e-07 -3.3475184e-06 0.88161248)
(-4.3542655e-07 -3.3458405e-06 0.88161278)
(-3.5915152e-06 -3.5915152e-06 0.88161264)
(-5.6779036e-06 -4.0889532e-06 0.88161006)
(-1.7166705e-06 -4.6769666e-06 0.88160825)
(4.1539319e-07 -2.6309133e-06 0.881608)
(5.5754691e-06 -5.1268297e-06 0.88160812)
(4.7741198e-06 -6.8717392e-06 0.88161011)
(-7.1482249e-07 -5.9487275e-06 0.88161013)
(-7.0041682e-07 -5.3704987e-06 0.88161002)
(-1.3540843e-07 -5.1738408e-06 0.88161014)
(-6.3353594e-07 -5.2585001e-06 0.8816104)
(-4.0889532e-06 -5.6779036e-06 0.88161006)
(-6.3439515e-06 -6.3439515e-06 0.88160712)
(-1.9446533e-06 -5.3113145e-06 0.88160487)
(-3.9887729e-07 -2.9628078e-07 0.88160755)
(2.9649008e-06 -1.1105512e-06 0.881607)
(3.8053259e-06 -2.0366597e-06 0.8816083)
(-1.3684262e-08 -1.7564138e-06 0.88160849)
(-3.3484848e-07 -1.5692342e-06 0.88160852)
(-1.1052377e-07 -1.5127015e-06 0.88160867)
(-9.3948935e-07 -1.5526444e-06 0.88160886)
(-4.6769666e-06 -1.7166705e-06 0.88160825)
(-5.3113145e-06 -1.9446533e-06 0.88160487)
(-1.0282459e-06 -1.0282459e-06 0.88160469)
(-7.4300625e-07 -7.4300625e-07 0.88677033)
(8.2569432e-06 3.6488845e-06 0.88677002)
(7.9440597e-06 1.5502461e-06 0.88677256)
(-3.5413655e-06 1.2336951e-06 0.88677186)
(-3.6549902e-06 1.2681947e-06 0.88677108)
(-2.8657478e-06 1.3956578e-06 0.88677064)
(-3.1883387e-06 1.5792641e-06 0.88677035)
(-4.9164847e-06 1.5595651e-06 0.88676973)
(-3.7504083e-06 4.3665998e-07 0.8867681)
(-4.6502217e-07 -5.7902627e-07 0.88676762)
(3.6488845e-06 8.2569432e-06 0.88677002)
(1.1696822e-05 1.1696822e-05 0.88677143)
(4.3212751e-06 7.7111441e-06 0.8867731)
(-3.9644425e-06 7.0834722e-06 0.88677229)
(-3.4120463e-06 7.2099136e-06 0.88677156)
(-2.3991438e-06 7.62656e-06 0.88677122)
(-2.9424777e-06 8.2978102e-06 0.88677111)
(-6.6303909e-06 8.6979345e-06 0.88677058)
(-6.9582953e-06 6.5596127e-06 0.88676814)
(-1.4807084e-06 3.3113961e-06 0.88676707)
(1.5502461e-06 7.9440597e-06 0.88677256)
(7.7111441e-06 4.3212752e-06 0.8867731)
(3.3307094e-06 3.3307094e-06 0.88677454)
(-4.0425959e-06 3.1818572e-06 0.88677371)
(-3.1119024e-06 3.3688636e-06 0.88677303)
(-1.7778511e-06 3.8131865e-06 0.88677281)
(-2.1169641e-06 4.5759802e-06 0.88677291)
(-6.6546822e-06 5.569422e-06 0.88677261)
(-9.1369469e-06 5.7399191e-06 0.88676998)
(-2.6305e-06 4.5160096e-06 0.88676826)
(1.2336951e-06 -3.5413655e-06 0.88677186)
(7.0834722e-06 -3.9644426e-06 0.88677229)
(3.1818572e-06 -4.0425959e-06 0.88677371)
(-3.9262884e-06 -3.9262884e-06 0.8867729)
(-2.7807169e-06 -3.6623292e-06 0.88677228)
(-1.1920272e-06 -3.2477926e-06 0.88677217)
(-1.1862423e-06 -2.6263875e-06 0.88677244)
(-5.466452e-06 -1.7316507e-06 0.88677241)
(-8.0117076e-06 -7.335238e-07 0.88677001)
(-2.296648e-06 1.1249967e-07 0.88676845)
(1.2681947e-06 -3.6549902e-06 0.88677108)
(7.2099136e-06 -3.4120463e-06 0.88677156)
(3.3688636e-06 -3.1119025e-06 0.88677303)
(-3.6623292e-06 -2.7807169e-06 0.88677228)
(-2.4334066e-06 -2.4334066e-06 0.88677175)
(-7.4190943e-07 -2.0589953e-06 0.88677173)
(-6.0082219e-07 -1.6372985e-06 0.88677212)
(-4.7618184e-06 -1.148993e-06 0.88677223)
(-7.2927965e-06 -6.3909216e-07 0.88676998)
(-2.0664843e-06 -1.9301815e-07 0.88676855)
(1.3956578e-06 -2.8657478e-06 0.88677064)
(7.62656e-06 -2.3991438e-06 0.88677122)
(3.8131866e-06 -1.7778512e-06 0.88677281)
(-3.2477925e-06 -1.1920272e-06 0.88677217)
(-2.0589953e-06 -7.4190942e-07 0.88677173)
(-3.9591912e-07 -3.9591913e-07 0.8867718)
(-2.7624003e-07 -1.3371451e-07 0.88677225)
(-4.4682456e-06 4.578944e-08 0.88677243)
(-7.0557328e-06 1.3046927e-07 0.88677023)
(-1.9992653e-06 1.3050096e-07 0.88676882)
(1.5792641e-06 -3.1883387e-06 0.88677035)
(8.2978102e-06 -2.9424777e-06 0.88677111)
(4.5759802e-06 -2.1169641e-06 0.88677291)
(-2.6263875e-06 -1.1862423e-06 0.88677244)
(-1.6372985e-06 -6.0082219e-07 0.88677212)
(-1.3371452e-07 -2.7624003e-07 0.88677225)
(-1.5911362e-07 -1.5911363e-07 0.88677275)
(-4.4976346e-06 -2.5741246e-07 0.88677291)
(-7.208085e-06 -5.8569161e-07 0.88677065)
(-2.0664632e-06 -1.0861722e-06 0.88676916)
(1.5595651e-06 -4.9164847e-06 0.88676973)
(8.6979345e-06 -6.6303909e-06 0.88677058)
(5.569422e-06 -6.6546822e-06 0.88677261)
(-1.7316507e-06 -5.466452e-06 0.88677241)
(-1.148993e-06 -4.7618185e-06 0.88677223)
(4.578943e-08 -4.4682456e-06 0.88677243)
(-2.5741245e-07 -4.4976347e-06 0.88677291)
(-4.8948236e-06 -4.8948236e-06 0.88677297)
(-7.8844925e-06 -5.7066856e-06 0.88677049)
(-2.332919e-06 -6.7109761e-06 0.88676868)
(4.3665998e-07 -3.7504083e-06 0.8867681)
(6.5596127e-06 -6.9582953e-06 0.88676814)
(5.7399191e-06 -9.1369469e-06 0.88676998)
(-7.3352381e-07 -8.0117076e-06 0.88677001)
(-6.3909216e-07 -7.2927965e-06 0.88676998)
(1.3046928e-07 -7.0557328e-06 0.88677023)
(-5.856916e-07 -7.208085e-06 0.88677065)
(-5.7066856e-06 -7.8844925e-06 0.88677049)
(-9.0242374e-06 -9.0242374e-06 0.88676757)
(-2.7359902e-06 -7.1403044e-06 0.88676519)
(-5.7902627e-07 -4.6502217e-07 0.88676762)
(3.311396e-06 -1.4807084e-06 0.88676707)
(4.5160096e-06 -2.6305e-06 0.88676826)
(1.1249967e-07 -2.296648e-06 0.88676845)
(-1.9301814e-07 -2.0664843e-06 0.88676855)
(1.3050096e-07 -1.9992653e-06 0.88676882)
(-1.0861722e-06 -2.0664632e-06 0.88676916)
(-6.7109761e-06 -2.332919e-06 0.88676868)
(-7.1403044e-06 -2.7359902e-06 0.88676519)
(-1.0769638e-06 -1.0769638e-06 0.88676505)
(-8.5090292e-07 -8.5090292e-07 0.89320807)
(9.3113361e-06 4.0953867e-06 0.89320773)
(8.8061103e-06 1.7125104e-06 0.89321005)
(-4.2657341e-06 1.360178e-06 0.89320934)
(-4.2180641e-06 1.4092988e-06 0.89320863)
(-3.1596708e-06 1.5731351e-06 0.89320829)
(-3.5413821e-06 1.8177082e-06 0.89320817)
(-5.9379355e-06 1.8277311e-06 0.89320776)
(-4.7496921e-06 4.4147693e-07 0.89320632)
(-6.182531e-07 -7.5963824e-07 0.89320591)
(4.0953867e-06 9.3113361e-06 0.89320773)
(1.3156457e-05 1.3156457e-05 0.89320899)
(4.7032967e-06 8.6371236e-06 0.89321049)
(-4.7205514e-06 7.9469876e-06 0.89320967)
(-3.8986285e-06 8.1232359e-06 0.893209)
(-2.5470568e-06 8.6538914e-06 0.89320878)
(-3.1594882e-06 9.5197906e-06 0.89320884)
(-8.0022825e-06 1.0085169e-05 0.89320853)
(-8.6307461e-06 7.4572381e-06 0.89320632)
(-1.8193682e-06 3.6126233e-06 0.89320536)
(1.7125104e-06 8.8061103e-06 0.89321005)
(8.6371236e-06 4.7032968e-06 0.89321049)
(3.5966409e-06 3.5966409e-06 0.89321177)
(-4.7796217e-06 3.4545652e-06 0.89321094)
(-3.5111603e-06 3.7034901e-06 0.89321033)
(-1.7631161e-06 4.2621411e-06 0.89321023)
(-2.1101046e-06 5.2148902e-06 0.89321049)
(-8.0004881e-06 6.4558731e-06 0.89321042)
(-1.1222238e-05 6.6490141e-06 0.89320804)
(-3.1813296e-06 5.1834949e-06 0.89320646)
(1.360178e-06 -4.2657341e-06 0.89320934)
(7.9469876e-06 -4.7205514e-06 0.89320967)
(3.4545652e-06 -4.7796217e-06 0.89321094)
(-4.6137022e-06 -4.6137022e-06 0.89321014)
(-3.0910527e-06 -4.2757722e-06 0.8932096)
(-1.0356568e-06 -3.7592614e-06 0.89320961)
(-9.6575619e-07 -2.99313e-06 0.89321005)
(-6.5681586e-06 -1.8996927e-06 0.89321023)
(-9.9031242e-06 -7.1168471e-07 0.89320808)
(-2.796381e-06 2.7165309e-07 0.89320666)
(1.4092988e-06 -4.2180641e-06 0.89320863)
(8.1232359e-06 -3.8986285e-06 0.893209)
(3.7034901e-06 -3.5111603e-06 0.89321033)
(-4.2757722e-06 -3.0910527e-06 0.8932096)
(-2.6567195e-06 -2.6567195e-06 0.89320915)
(-4.8047384e-07 -2.194646e-06 0.89320925)
(-2.505359e-07 -1.6798739e-06 0.8932098)
(-5.7190428e-06 -1.0899702e-06 0.89321012)
(-9.050892e-06 -4.8595451e-07 0.89320811)
(-2.5257711e-06 3.4491688e-08 0.89320681)
(1.5731351e-06 -3.1596708e-06 0.89320829)
(8.6538914e-06 -2.5470568e-06 0.89320878)
(4.2621411e-06 -1.7631161e-06 0.89321023)
(-3.7592614e-06 -1.0356568e-06 0.89320961)
(-2.194646e-06 -4.8047383e-07 0.89320925)
(-5.8811198e-08 -5.8811198e-08 0.89320943)
(1.3891965e-07 2.5302006e-07 0.89321005)
(-5.3742391e-06 4.5464629e-07 0.89321043)
(-8.7786623e-06 5.2986014e-07 0.89320846)
(-2.4494168e-06 4.9928392e-07 0.89320719)
(1.8177082e-06 -3.5413821e-06 0.89320817)
(9.5197906e-06 -3.1594882e-06 0.89320884)
(5.2148902e-06 -2.1101046e-06 0.89321049)
(-2.99313e-06 -9.6575619e-07 0.89321005)
(-1.6798739e-06 -2.505359e-07 0.8932098)
(2.5302005e-07 1.3891965e-07 0.89321005)
(2.6292159e-07 2.6292158e-07 0.8932107)
(-5.4422027e-06 1.0328611e-07 0.89321106)
(-9.0062544e-06 -3.685975e-07 0.89320903)
(-2.5461553e-06 -1.0804736e-06 0.89320767)
(1.8277311e-06 -5.9379354e-06 0.89320776)
(1.0085169e-05 -8.0022825e-06 0.89320853)
(6.4558731e-06 -8.0004881e-06 0.89321042)
(-1.8996927e-06 -6.5681586e-06 0.89321023)
(-1.0899702e-06 -5.7190428e-06 0.89321012)
(4.5464628e-07 -5.3742391e-06 0.89321043)
(1.0328611e-07 -5.4422027e-06 0.89321106)
(-6.0057582e-06 -6.0057582e-06 0.89321132)
(-9.962422e-06 -7.1642089e-06 0.89320906)
(-2.9240009e-06 -8.6403038e-06 0.89320735)
(4.4147692e-07 -4.7496921e-06 0.89320632)
(7.4572381e-06 -8.6307461e-06 0.89320632)
(6.6490141e-06 -1.1222238e-05 0.89320804)
(-7.1168471e-07 -9.9031242e-06 0.89320808)
(-4.8595451e-07 -9.0508921e-06 0.89320811)
(5.2986014e-07 -8.7786623e-06 0.89320846)
(-3.685975e-07 -9.0062544e-06 0.89320903)
(-7.1642089e-06 -9.962422e-06 0.89320906)
(-1.16408e-05 -1.16408e-05 0.89320632)
(-3.5302184e-06 -8.9373031e-06 0.89320399)
(-7.5963824e-07 -6.1825311e-07 0.89320591)
(3.6126233e-06 -1.8193682e-06 0.89320536)
(5.1834949e-06 -3.1813296e-06 0.89320646)
(2.7165309e-07 -2.796381e-06 0.89320666)
(3.4491692e-08 -2.5257711e-06 0.89320681)
(4.9928392e-07 -2.4494168e-06 0.89320719)
(-1.0804736e-06 -2.5461553e-06 0.89320767)
(-8.6403038e-06 -2.9240009e-06 0.89320735)
(-8.9373031e-06 -3.5302184e-06 0.89320399)
(-1.1216699e-06 -1.1216699e-06 0.89320388)
(-9.7040683e-07 -9.7040684e-07 0.90086788)
(1.0238472e-05 4.4912046e-06 0.9008675)
(9.5517216e-06 1.838518e-06 0.90086959)
(-4.9673e-06 1.4537607e-06 0.90086887)
(-4.6982835e-06 1.5183494e-06 0.90086821)
(-3.3238387e-06 1.7187921e-06 0.90086798)
(-3.7208171e-06 2.0249272e-06 0.900868)
(-6.7595475e-06 2.0684902e-06 0.90086778)
(-5.6019154e-06 4.323803e-07 0.90086655)
(-7.4179462e-07 -9.4238916e-07 0.90086623)
(4.4912046e-06 1.0238472e-05 0.9008675)
(1.445186e-05 1.445186e-05 0.9008686)
(4.995555e-06 9.4288971e-06 0.90086991)
(-5.4475529e-06 8.6851299e-06 0.90086909)
(-4.3007364e-06 8.9142567e-06 0.90086849)
(-2.563972e-06 9.5598974e-06 0.90086837)
(-3.1962698e-06 1.0621422e-05 0.90086857)
(-9.1483681e-06 1.1359118e-05 0.90086846)
(-1.0118234e-05 8.2707459e-06 0.9008665)
(-2.116564e-06 3.8669441e-06 0.90086568)
(1.838518e-06 9.5517216e-06 0.90086959)
(9.4288971e-06 4.995555e-06 0.90086991)
(3.7849913e-06 3.7849913e-06 0.90087104)
(-5.4819404e-06 3.6561621e-06 0.90087021)
(-3.823516e-06 3.970297e-06 0.90086966)
(-1.616673e-06 4.6443144e-06 0.90086966)
(-1.921596e-06 5.7865168e-06 0.90087007)
(-9.1102242e-06 7.2747296e-06 0.9008702)
(-1.309409e-05 7.4971744e-06 0.90086809)
(-3.6776625e-06 5.8081971e-06 0.90086669)
(1.4537607e-06 -4.9673e-06 0.90086887)
(8.6851299e-06 -5.4475529e-06 0.90086909)
(3.6561621e-06 -5.4819404e-06 0.90087021)
(-5.2622472e-06 -5.2622472e-06 0.90086942)
(-3.3125841e-06 -4.84808e-06 0.90086895)
(-7.4775226e-07 -4.2292178e-06 0.90086906)
(-5.6585477e-07 -3.3197706e-06 0.90086964)
(-7.4377106e-06 -2.0309049e-06 0.90087002)
(-1.1584767e-05 -6.5762944e-07 0.90086813)
(-3.2425487e-06 4.5932178e-07 0.90086688)
(1.5183494e-06 -4.6982835e-06 0.90086821)
(8.9142567e-06 -4.3007364e-06 0.90086849)
(3.9702971e-06 -3.823516e-06 0.90086966)
(-4.84808e-06 -3.3125841e-06 0.90086895)
(-2.7904866e-06 -2.7904866e-06 0.90086855)
(-8.836353e-08 -2.2413982e-06 0.90086876)
(2.7671687e-07 -1.6355623e-06 0.90086945)
(-6.4480829e-06 -9.473334e-07 0.90086997)
(-1.0603863e-05 -2.5336609e-07 0.90086822)
(-2.9330284e-06 3.3787072e-07 0.90086709)
(1.7187921e-06 -3.3238387e-06 0.90086798)
(9.5598974e-06 -2.5639719e-06 0.90086837)
(4.6443144e-06 -1.616673e-06 0.90086966)
(-4.2292178e-06 -7.4775226e-07 0.90086906)
(-2.2413982e-06 -8.8363526e-08 0.90086876)
(4.0717206e-07 4.0717207e-07 0.90086904)
(7.2821006e-07 7.658284e-07 0.9008698)
(-6.0555143e-06 9.859837e-07 0.90087038)
(-1.0299563e-05 1.0480047e-06 0.90086867)
(-2.8483909e-06 9.8453564e-07 0.90086756)
(2.0249272e-06 -3.7208171e-06 0.900868)
(1.0621422e-05 -3.1962698e-06 0.90086857)
(5.7865168e-06 -1.921596e-06 0.90087007)
(-3.3197705e-06 -5.6585477e-07 0.90086964)
(-1.6355623e-06 2.7671686e-07 0.90086945)
(7.658284e-07 7.2821005e-07 0.9008698)
(8.5552851e-07 8.5552851e-07 0.90087059)
(-6.1659067e-06 6.3011159e-07 0.90087114)
(-1.0605311e-05 9.3096585e-09 0.90086937)
(-2.9753411e-06 -9.1906312e-07 0.90086817)
(2.0684902e-06 -6.7595475e-06 0.90086778)
(1.1359118e-05 -9.1483681e-06 0.90086846)
(7.2747296e-06 -9.1102242e-06 0.9008702)
(-2.030905e-06 -7.4377106e-06 0.90087002)
(-9.4733341e-07 -6.4480829e-06 0.90086997)
(9.8598371e-07 -6.0555143e-06 0.90087038)
(6.301116e-07 -6.1659067e-06 0.90087114)
(-6.9017332e-06 -6.9017332e-06 0.90087159)
(-1.1848737e-05 -8.4185137e-06 0.90086958)
(-3.467306e-06 -1.038683e-05 0.90086804)
(4.323803e-07 -5.6019154e-06 0.90086655)
(8.2707459e-06 -1.0118234e-05 0.9008665)
(7.4971744e-06 -1.309409e-05 0.90086809)
(-6.5762944e-07 -1.1584767e-05 0.90086813)
(-2.5336609e-07 -1.0603863e-05 0.90086822)
(1.0480047e-06 -1.0299563e-05 0.90086867)
(9.3096573e-09 -1.0605311e-05 0.90086937)
(-8.4185136e-06 -1.1848737e-05 0.90086958)
(-1.4090408e-05 -1.4090408e-05 0.90086708)
(-4.2875518e-06 -1.0613955e-05 0.90086489)
(-9.4238916e-07 -7.4179462e-07 0.90086623)
(3.8669441e-06 -2.116564e-06 0.90086568)