/*--------------------------------*- C++ -*----------------------------------*\
| =========                 |                                                 |
| \\      /  F ield         | OpenFOAM: The Open Source CFD Toolbox           |
|  \\    /   O peration     | Version:  v2106                                 |
|   \\  /    A nd           | Website:  www.openfoam.com                      |
|    \\/     M anipulation  |                                                 |
\*---------------------------------------------------------------------------*/
FoamFile
{
    version     2.0;
    format      ascii;
    arch        "LSB;label=32;scalar=64";
    class       volScalarField;
    location    "27.5";
    object      gradTz;
}
// * * * * * * * * * * * * * * * * * * * * * * * * * * * * * * * * * * * * * //

dimensions      [0 -1 0 1 0 0 0];

internalField   nonuniform List<scalar> 
4000
(
461.1146
461.11333
461.11787
461.11742
461.11673
461.11624
461.11581
461.11535
461.11483
461.11453
461.11333
461.116
461.1188
461.11811
461.11743
461.11698
461.11659
461.11609
461.11529
461.11467
461.11787
461.1188
461.12125
461.12051
461.11985
461.11945
461.11914
461.11871
461.11778
461.11658
461.11742
461.11811
461.12051
461.11977
461.11913
461.11878
461.11857
461.11828
461.11754
461.11655
461.11673
461.11743
461.11985
461.11913
461.11853
461.11822
461.11807
461.11787
461.11724
461.11635
461.11624
461.11698
461.11945
461.11878
461.11822
461.11796
461.11786
461.1177
461.11711
461.11625
461.11581
461.11659
461.11914
461.11857
461.11807
461.11786
461.11778
461.11764
461.11705
461.11619
461.11535
461.11609
461.11871
461.11828
461.11787
461.1177
461.11764
461.11748
461.11687
461.11596
461.11483
461.11529
461.11778
461.11754
461.11724
461.11711
461.11705
461.11687
461.1162
461.11523
461.11453
461.11467
461.11658
461.11655
461.11635
461.11625
461.11619
461.11596
461.11523
461.11423
682.98577
682.98545
682.98953
682.98906
682.98822
682.98756
682.98698
682.98627
682.98538
682.98525
682.98545
682.98776
682.99054
682.98986
682.98903
682.98843
682.98792
682.98715
682.98564
682.98493
682.98953
682.99054
682.99293
682.99217
682.99136
682.99084
682.99046
682.98982
682.98814
682.98673
682.98906
682.98986
682.99217
682.9914
682.99062
682.99018
682.98994
682.9895
682.98807
682.98688
682.98822
682.98903
682.99136
682.99062
682.98989
682.98952
682.98938
682.98907
682.98778
682.98673
682.98756
682.98843
682.99084
682.99018
682.98952
682.98922
682.98914
682.98889
682.98766
682.98665
682.98698
682.98792
682.99046
682.98994
682.98938
682.98914
682.98909
682.98886
682.98762
682.9866
682.98627
682.98715
682.98982
682.9895
682.98907
682.98889
682.98886
682.98861
682.9873
682.98619
682.98538
682.98564
682.98814
682.98807
682.98778
682.98766
682.98762
682.9873
682.98588
682.98465
682.98525
682.98493
682.98673
682.98688
682.98673
682.98665
682.9866
682.98619
682.98465
682.98375
681.28753
681.28759
681.2901
681.28961
681.28889
681.28835
681.28786
681.28713
681.28594
681.28584
681.28759
681.28925
681.29098
681.29037
681.28967
681.2892
681.28882
681.28808
681.28617
681.28539
681.2901
681.29098
681.29247
681.2918
681.29113
681.29074
681.29051
681.28995
681.2879
681.28657
681.28961
681.29037
681.2918
681.29113
681.2905
681.29019
681.29009
681.28973
681.2879
681.28672
681.28889
681.28967
681.29113
681.2905
681.28992
681.28968
681.28968
681.28944
681.28773
681.28668
681.28835
681.2892
681.29074
681.29019
681.28968
681.28951
681.28956
681.28938
681.28772
681.2867
681.28786
681.28882
681.29051
681.29009
681.28968
681.28956
681.28965
681.28947
681.2878
681.28674
681.28713
681.28808
681.28995
681.28973
681.28944
681.28938
681.28947
681.28925
681.28747
681.28626
681.28594
681.28617
681.2879
681.2879
681.28773
681.28772
681.2878
681.28747
681.28549
681.28408
681.28584
681.28539
681.28657
681.28672
681.28668
681.2867
681.28674
681.28626
681.28408
681.28374
680.66743
680.66726
680.66935
680.66883
680.66819
680.66776
680.6674
680.66677
680.66542
680.66507
680.66726
680.66848
680.66988
680.66927
680.66866
680.6683
680.66808
680.6675
680.6655
680.66465
680.66935
680.66988
680.67109
680.67045
680.66987
680.66961
680.66954
680.66913
680.667
680.66563
680.66883
680.66927
680.67045
680.66982
680.66929
680.6691
680.66916
680.66896
680.66702
680.66577
680.66819
680.66866
680.66987
680.66929
680.66882
680.6687
680.66885
680.66876
680.66694
680.66579
680.66776
680.6683
680.66961
680.6691
680.6687
680.66865
680.66886
680.66881
680.66703
680.66592
680.6674
680.66808
680.66954
680.66916
680.66885
680.66886
680.66909
680.66905
680.66723
680.66606
680.66677
680.6675
680.66913
680.66896
680.66876
680.66881
680.66905
680.66894
680.66698
680.6656
680.66542
680.6655
680.667
680.66702
680.66694
680.66703
680.66723
680.66698
680.66473
680.66302
680.66507
680.66465
680.66563
680.66577
680.66579
680.66592
680.66606
680.6656
680.66302
680.66289
681.07214
681.07191
681.07379
681.07326
681.07268
681.07235
681.07214
681.07168
681.07045
681.07009
681.07191
681.07295
681.07419
681.07357
681.07303
681.07278
681.07271
681.07231
681.07048
681.06968
681.07379
681.07419
681.07525
681.07462
681.07412
681.07396
681.07404
681.07383
681.07185
681.07056
681.07326
681.07357
681.07462
681.07402
681.07356
681.07348
681.07369
681.07367
681.07187
681.0707
681.07268
681.07303
681.07412
681.07356
681.07317
681.07316
681.07346
681.07354
681.07185
681.07078
681.07235
681.07278
681.07396
681.07348
681.07316
681.07321
681.07356
681.0737
681.07204
681.07099
681.07214
681.07271
681.07404
681.07369
681.07346
681.07356
681.07394
681.07406
681.07236
681.07124
681.07168
681.07231
681.07383
681.07367
681.07354
681.0737
681.07406
681.07411
681.07225
681.07089
681.07045
681.07048
681.07185
681.07187
681.07185
681.07204
681.07236
681.07225
681.07005
681.06825
681.07009
681.06968
681.07056
681.0707
681.07078
681.07099
681.07124
681.07089
681.06825
681.06816
682.44441
682.44416
682.44585
682.44532
682.44479
682.44455
682.44447
682.44417
682.44311
682.4428
682.44416
682.44507
682.44616
682.44555
682.44506
682.4449
682.44496
682.44473
682.4431
682.44239
682.44585
682.44616
682.44709
682.44648
682.44603
682.44596
682.44617
682.44613
682.44435
682.44319
682.44532
682.44555
682.44648
682.44589
682.44549
682.4455
682.44584
682.44599
682.44438
682.44333
682.44479
682.44506
682.44603
682.44549
682.44516
682.44524
682.44566
682.44591
682.44442
682.44345
682.44455
682.4449
682.44596
682.4455
682.44524
682.44538
682.44585
682.44615
682.44468
682.44374
682.44447
682.44496
682.44617
682.44584
682.44566
682.44585
682.44635
682.44663
682.44511
682.4441
682.44417
682.44473
682.44613
682.44599
682.44591
682.44615
682.44663
682.44682
682.44514
682.44387
682.44311
682.4431
682.44435
682.44438
682.44442
682.44468
682.44511
682.44514
682.4431
682.44136
682.4428
682.44239
682.44319
682.44333
682.44345
682.44374
682.4441
682.44387
682.44136
682.44129
684.72174
684.72146
684.72296
684.72243
684.72195
684.72179
684.72182
684.72167
684.72077
684.72054
684.72146
684.72225
684.72319
684.72259
684.72215
684.72207
684.72223
684.72216
684.72073
684.72013
684.72296
684.72319
684.72399
684.72338
684.72299
684.723
684.72331
684.72342
684.72187
684.72086
684.72243
684.72259
684.72338
684.7228
684.72246
684.72255
684.723
684.72329
684.72191
684.721
684.72195
684.72215
684.72299
684.72246
684.72218
684.72234
684.72287
684.72326
684.72198
684.72116
684.72179
684.72207
684.723
684.72255
684.72234
684.72256
684.72313
684.72357
684.72232
684.72151
684.72182
684.72223
684.72331
684.723
684.72287
684.72313
684.72372
684.72415
684.72284
684.72197
684.72167
684.72216
684.72342
684.72329
684.72326
684.72357
684.72415
684.72448
684.72301
684.72188
684.72077
684.72073
684.72187
684.72191
684.72198
684.72232
684.72284
684.72301
684.72117
684.71956
684.72054
684.72013
684.72086
684.721
684.72116
684.72151
684.72197
684.72188
684.71956
684.71954
687.83741
687.83711
687.83841
687.83787
687.83744
687.83736
687.83748
687.83747
687.83674
687.83658
687.83711
687.83776
687.83854
687.83795
687.83755
687.83755
687.83781
687.83788
687.83666
687.83618
687.83841
687.83854
687.8392
687.83861
687.83826
687.83834
687.83875
687.83901
687.83769
687.83682
687.83787
687.83795
687.83861
687.83805
687.83775
687.83791
687.83845
687.83888
687.83772
687.83696
687.83744
687.83755
687.83826
687.83775
687.83752
687.83775
687.83836
687.83889
687.83783
687.83715
687.83736
687.83755
687.83834
687.83791
687.83775
687.83803
687.83869
687.83926
687.83823
687.83756
687.83748
687.83781
687.83875
687.83845
687.83836
687.83869
687.83937
687.83992
687.83884
687.83811
687.83747
687.83788
687.83901
687.83888
687.83889
687.83926
687.83992
687.84039
687.83914
687.83816
687.83674
687.83666
687.83769
687.83772
687.83783
687.83823
687.83884
687.83914
687.83753
687.83608
687.83658
687.83618
687.83682
687.83696
687.83715
687.83756
687.83811
687.83816
687.83608
687.83612
691.72108
691.72075
691.72185
691.72131
691.72093
691.72091
691.72113
691.72124
691.72067
691.7206
691.72075
691.72127
691.72189
691.72131
691.72096
691.72102
691.72137
691.72157
691.72056
691.7202
691.72185
691.72189
691.72241
691.72183
691.72153
691.72167
691.72217
691.72255
691.72147
691.72076
691.72131
691.72131
691.72183
691.72128
691.72104
691.72126
691.72187
691.72243
691.72149
691.72089
691.72093
691.72096
691.72153
691.72104
691.72085
691.72114
691.72183
691.72248
691.72164
691.72111
691.72091
691.72102
691.72167
691.72126
691.72114
691.72148
691.72222
691.7229
691.72209
691.72158
691.72113
691.72137
691.72217
691.72187
691.72183
691.72222
691.72297
691.72364
691.72278
691.72221
691.72124
691.72157
691.72255
691.72243
691.72248
691.7229
691.72364
691.72423
691.72321
691.72239
691.72067
691.72056
691.72147
691.72149
691.72164
691.72209
691.72278
691.72321
691.72184
691.72056
691.7206
691.7202
691.72076
691.72089
691.72111
691.72158
691.72221
691.72239
691.72056
691.72068
696.29931
696.29895
696.29985
696.29931
696.29898
696.29902
696.29932
696.29955
696.29915
696.29916
696.29895
696.29933
696.29981
696.29923
696.29893
696.29905
696.29948
696.29981
696.29901
696.29876
696.29985
696.29981
696.30019
696.29962
696.29937
696.29957
696.30014
696.30064
696.29978
696.29924
696.29931
696.29923
696.29962
696.29909
696.29889
696.29917
696.29985
696.30052
696.29981
696.29936
696.29898
696.29893
696.29937
696.29889
696.29875
696.29909
696.29985
696.3006
696.29999
696.29961
696.29902
696.29905
696.29957
696.29917
696.29909
696.29948
696.30029
696.30108
696.30048
696.30012
696.29932
696.29948
696.30014
696.29985
696.29985
696.30029
696.30111
696.30188
696.30125
696.30082
696.29955
696.29981
696.30064
696.30052
696.3006
696.30108
696.30188
696.30259
696.30179
696.30114
696.29915
696.29901
696.29978
696.29981
696.29999
696.30048
696.30125
696.30179
696.30067
696.29956
696.29916
696.29876
696.29924
696.29936
696.29961
696.30012
696.30082
696.30114
696.29956
696.29976
701.4961
701.49572
701.49641
701.49589
701.4956
701.4957
701.49608
701.49642
701.49617
701.49626
701.49572
701.49597
701.49629
701.49573
701.49548
701.49565
701.49616
701.4966
701.49601
701.49587
701.49641
701.49629
701.49653
701.49599
701.49578
701.49603
701.49667
701.49728
701.49665
701.49626
701.49589
701.49573
701.49599
701.49548
701.49532
701.49565
701.49639
701.49716
701.49667
701.49638
701.4956
701.49548
701.49578
701.49532
701.49522
701.49561
701.49643
701.49728
701.49688
701.49665
701.4957
701.49565
701.49603
701.49565
701.49561
701.49605
701.49691
701.49779
701.49741
701.4972
701.49608
701.49616
701.49667
701.49639
701.49643
701.49691
701.49778
701.49866
701.49824
701.49797
701.49642
701.4966
701.49728
701.49716
701.49728
701.49779
701.49866
701.49946
701.49889
701.49841
701.49617
701.49601
701.49665
701.49667
701.49688
701.49741
701.49824
701.49889
701.49801
701.49709
701.49626
701.49587
701.49626
701.49638
701.49665
701.4972
701.49797
701.49841
701.49709
701.49736
707.23344
707.23305
707.23353
707.23303
707.23278
707.23294
707.23339
707.23383
707.23374
707.2339
707.23305
707.23316
707.23333
707.2328
707.23259
707.23282
707.23339
707.23393
707.23355
707.23352
707.23353
707.23333
707.23344
707.23293
707.23277
707.23307
707.23376
707.23447
707.23406
707.23382
707.23303
707.2328
707.23293
707.23245
707.23234
707.23271
707.2335
707.23435
707.23408
707.23393
707.23278
707.23259
707.23277
707.23234
707.23228
707.23271
707.23357
707.2345
707.23431
707.23422
707.23294
707.23282
707.23307
707.23271
707.23271
707.23318
707.23409
707.23505
707.23488
707.23481
707.23339
707.23339
707.23376
707.2335
707.23357
707.23409
707.235
707.23596
707.23575
707.23563
707.23383
707.23393
707.23447
707.23435
707.2345
707.23505
707.23596
707.23685
707.2365
707.23618
707.23374
707.23355
707.23406
707.23408
707.23431
707.23488
707.23575
707.2365
707.23586
707.23512
707.2339
707.23352
707.23382
707.23393
707.23422
707.23481
707.23563
707.23618
707.23512
707.23546
713.43189
713.4315
713.43178
713.43129
713.4311
713.43131
713.43182
713.43235
713.4324
713.43263
713.4315
713.43148
713.4315
713.431
713.43085
713.43112
713.43174
713.43238
713.43219
713.43227
713.43178
713.4315
713.43149
713.43101
713.43089
713.43123
713.43197
713.43276
713.43257
713.43248
713.43129
713.431
713.43101
713.43056
713.43049
713.4309
713.43174
713.43266
713.43259
713.43259
713.4311
713.43085
713.43089
713.43049
713.43048
713.43094
713.43184
713.43284
713.43284
713.4329
713.43131
713.43112
713.43123
713.4309
713.43094
713.43145
713.43238
713.43342
713.43344
713.43351
713.43182
713.43174
713.43197
713.43174
713.43184
713.43238
713.43333
713.43436
713.43435
713.43437
713.43235
713.43238
713.43276
713.43266
713.43284
713.43342
713.43436
713.43532
713.43519
713.43502
713.4324
713.43219
713.43257
713.43259
713.43284
713.43344
713.43435
713.43519
713.43478
713.43422
713.43263
713.43227
713.43248
713.43259
713.4329
713.43351
713.43437
713.43502
713.43422
713.43462
720.01117
720.01077
720.01085
720.01039
720.01025
720.01051
720.01107
720.01168
720.01187
720.01216
720.01077
720.01062
720.01051
720.01005
720.00994
720.01026
720.01092
720.01164
720.01164
720.01182
720.01085
720.01051
720.01038
720.00994
720.00987
720.01025
720.01102
720.01189
720.0119
720.01196
720.01039
720.01005
720.00994
720.00953
720.00951
720.00995
720.01081
720.01179
720.01192
720.01205
720.01025
720.00994
720.00987
720.00951
720.00953
720.01003
720.01094
720.012
720.01219
720.01237
720.01051
720.01026
720.01025
720.00995
720.01003
720.01056
720.01151
720.01259
720.01281
720.013
720.01107
720.01092
720.01102
720.01081
720.01094
720.01151
720.01248
720.01356
720.01374
720.01389
720.01168
720.01164
720.01189
720.01179
720.012
720.01259
720.01356
720.01458
720.01465
720.01463
720.01187
720.01164
720.0119
720.01192
720.01219
720.01281
720.01374
720.01465
720.01446
720.01409
720.01216
720.01182
720.01196
720.01205
720.01237
720.013
720.01389
720.01463
720.01409
720.01455
726.8907
726.8903
726.8902
726.88978
726.88969
726.88999
726.89059
726.89128
726.89159
726.89194
726.8903
726.89004
726.88981
726.88939
726.88933
726.88968
726.89038
726.89117
726.89135
726.89162
726.8902
726.88981
726.88956
726.88916
726.88914
726.88956
726.89035
726.89127
726.89148
726.89167
726.88978
726.88939
726.88916
726.8888
726.88883
726.88929
726.89017
726.8912
726.8915
726.89176
726.88969
726.88933
726.88914
726.88883
726.88889
726.88941
726.89033
726.89142
726.89179
726.89209
726.88999
726.88968
726.88956
726.88929
726.88941
726.88996
726.89092
726.89203
726.89242
726.89273
726.89059
726.89038
726.89035
726.89017
726.89033
726.89092
726.89189
726.893
726.89336
726.89364
726.89128
726.89117
726.89127
726.8912
726.89142
726.89203
726.893
726.89406
726.89432
726.89445
726.89159
726.89135
726.89148
726.8915
726.89179
726.89242
726.89336
726.89432
726.89436
726.89415
726.89194
726.89162
726.89167
726.89176
726.89209
726.89273
726.89364
726.89445
726.89415
726.89466
733.99024
733.98985
733.98958
733.98919
733.98916
733.9895
733.99014
733.99088
733.99131
733.9917
733.98985
733.98948
733.98913
733.98876
733.98875
733.98914
733.98987
733.99071
733.99105
733.99141
733.98958
733.98913
733.98878
733.98844
733.98847
733.98891
733.98972
733.99068
733.99107
733.99139
733.98919
733.98876
733.98844
733.98813
733.9882
733.98869
733.98956
733.99062
733.99109
733.99147
733.98916
733.98875
733.98847
733.9882
733.98831
733.98883
733.98976
733.99087
733.99139
733.99181
733.9895
733.98914
733.98891
733.98869
733.98883
733.9894
733.99035
733.99148
733.99202
733.99245
733.99014
733.98987
733.98972
733.98956
733.98976
733.99035
733.99132
733.99245
733.99297
733.99336
733.99088
733.99071
733.99068
733.99062
733.99087
733.99148
733.99245
733.99353
733.99397
733.99423
733.99131
733.99105
733.99107
733.99109
733.99139
733.99202
733.99297
733.99397
733.99421
733.99417
733.9917
733.99141
733.99139
733.99147
733.99181
733.99245
733.99336
733.99423
733.99417
733.99472
741.23043
741.23005
741.22961
741.22928
741.22929
741.22967
741.23033
741.23111
741.23165
741.23208
741.23005
741.22958
741.22913
741.22881
741.22886
741.22927
741.23001
741.23089
741.23139
741.23183
741.22961
741.22913
741.22869
741.2284
741.22848
741.22894
741.22975
741.23074
741.23129
741.23173
741.22928
741.22881
741.2284
741.22815
741.22826
741.22876
741.22963
741.2307
741.23133
741.23181
741.22929
741.22886
741.22848
741.22826
741.22841
741.22894
741.22985
741.23096
741.23163
741.23215
741.22967
741.22927
741.22894
741.22876
741.22894
741.22951
741.23045
741.23158
741.23226
741.23278
741.23033
741.23001
741.22975
741.22963
741.22985
741.23045
741.23139
741.23252
741.23319
741.23369
741.23111
741.23089
741.23074
741.2307
741.23096
741.23158
741.23252
741.23362
741.23421
741.2346
741.23165
741.23139
741.23129
741.23133
741.23163
741.23226
741.23319
741.23421
741.23464
741.23476
741.23208
741.23183
741.23173
741.23181
741.23215
741.23278
741.23369
741.2346
741.23476
741.23534
748.53331
748.53295
748.53236
748.53208
748.53215
748.53255
748.53323
748.53405
748.53468
748.53514
748.53295
748.5324
748.53185
748.5316
748.53169
748.53213
748.53287
748.53378
748.53442
748.53492
748.53236
748.53185
748.53133
748.53111
748.53123
748.53171
748.53251
748.53351
748.53421
748.53476
748.53208
748.5316
748.53111
748.53092
748.53107
748.53158
748.53243
748.53349
748.53425
748.53483
748.53215
748.53169
748.53123
748.53107
748.53126
748.53179
748.53268
748.53377
748.53457
748.53517
748.53255
748.53213
748.53171
748.53158
748.53179
748.53236
748.53326
748.53437
748.53518
748.53579
748.53323
748.53287
748.53251
748.53243
748.53268
748.53326
748.53417
748.53528
748.53608
748.53667
748.53405
748.53378
748.53351
748.53349
748.53377
748.53437
748.53528
748.53637
748.53711
748.53761
748.53468
748.53442
748.53421
748.53425
748.53457
748.53518
748.53608
748.53711
748.53771
748.53798
748.53514
748.53492
748.53476
748.53483
748.53517
748.53579
748.53667
748.53761
748.53798
748.53858
755.8229
755.82257
755.82184
755.82162
755.82175
755.82217
755.82286
755.82369
755.8244
755.82488
755.82257
755.82194
755.82131
755.82113
755.82127
755.82172
755.82246
755.82338
755.82415
755.8247
755.82184
755.82131
755.82073
755.82057
755.82074
755.82122
755.82201
755.823
755.82384
755.82447
755.82162
755.82113
755.82057
755.82045
755.82064
755.82115
755.82197
755.82301
755.82389
755.82455
755.82175
755.82127
755.82074
755.82064
755.82087
755.8214
755.82224
755.8233
755.82421
755.82488
755.82217
755.82172
755.82122
755.82115
755.8214
755.82195
755.82281
755.82388
755.82479
755.82547
755.82286
755.82246
755.82201
755.82197
755.82224
755.82281
755.82367
755.82475
755.82565
755.82632
755.82369
755.82338
755.823
755.82301
755.8233
755.82388
755.82475
755.82581
755.82667
755.82727
755.8244
755.82415
755.82384
755.82389
755.82421
755.82479
755.82565
755.82667
755.82742
755.82783
755.82488
755.8247
755.82447
755.82455
755.82488
755.82547
755.82632
755.82727
755.82783
755.82844
763.02566
763.02537
763.02451
763.02436
763.02454
763.02498
763.02566
763.02649
763.02727
763.02776
763.02537
763.02467
763.02397
763.02386
763.02406
763.02452
763.02523
763.02615
763.02702
763.02762
763.02451
763.02397
763.02333
763.02325
763.02347
763.02395
763.0247
763.02567
763.02662
763.02734
763.02436
763.02386
763.02325
763.02319
763.02343
763.02393
763.0247
763.0257
763.02668
763.02741
763.02454
763.02406
763.02347
763.02343
763.02369
763.0242
763.02499
763.02601
763.027
763.02773
763.02498
763.02452
763.02395
763.02393
763.0242
763.02474
763.02554
763.02656
763.02756
763.02829
763.02566
763.02523
763.0247
763.0247
763.02499
763.02554
763.02634
763.02737
763.02836
763.02909
763.02649
763.02615
763.02567
763.0257
763.02601
763.02656
763.02737
763.02838
763.02935
763.03003
763.02727
763.02702
763.02662
763.02668
763.027
763.02756
763.02836
763.02935
763.03023
763.03076
763.02776
763.02762
763.02734
763.02741
763.02773
763.02829
763.02909
763.03003
763.03076
763.03138
770.07094
770.07069
770.06972
770.06964
770.06987
770.07033
770.07099
770.07181
770.07264
770.07313
770.07069
770.06994
770.06918
770.06915
770.0694
770.06986
770.07055
770.07144
770.07241
770.07304
770.06972
770.06918
770.0685
770.0685
770.06876
770.06924
770.06994
770.07087
770.07192
770.0727
770.06964
770.06915
770.0685
770.06852
770.06879
770.06928
770.06999
770.07093
770.07199
770.07277
770.06987
770.0694
770.06876
770.06879
770.06908
770.06958
770.0703
770.07125
770.0723
770.07308
770.07033
770.06986
770.06924
770.06928
770.06958
770.07008
770.07081
770.07176
770.07282
770.0736
770.07099
770.07055
770.06994
770.06999
770.0703
770.07081
770.07154
770.0725
770.07356
770.07433
770.07181
770.07144
770.07087
770.07093
770.07125
770.07176
770.0725
770.07345
770.0745
770.07524
770.07264
770.07241
770.07192
770.07199
770.0723
770.07282
770.07356
770.0745
770.07549
770.07614
770.07313
770.07304
770.0727
770.07277
770.07308
770.0736
770.07433
770.07524
770.07614
770.07674
776.89143
776.89122
776.89016
776.89016
776.89044
776.8909
776.89153
776.89233
776.89319
776.89368
776.89122
776.89043
776.88964
776.88969
776.88998
776.89044
776.89108
776.89194
776.89298
776.89363
776.89016
776.88964
776.88893
776.889
776.8893
776.88977
776.89042
776.89129
776.89242
776.89325
776.89016
776.88969
776.889
776.8891
776.88941
776.88987
776.89052
776.89139
776.8925
776.89332
776.89044
776.88998
776.8893
776.88941
776.88973
776.89019
776.89084
776.8917
776.89281
776.89361
776.8909
776.89044
776.88977
776.88987
776.89019
776.89067
776.89131
776.89217
776.89328
776.89408
776.89153
776.89108
776.89042
776.89052
776.89084
776.89131
776.89196
776.89282
776.89393
776.89474
776.89233
776.89194
776.89129
776.89139
776.8917
776.89217
776.89282
776.89369
776.8948
776.8956
776.89319
776.89298
776.89242
776.8925
776.89281
776.89328
776.89393
776.8948
776.89589
776.89663
776.89368
776.89363
776.89325
776.89332
776.89361
776.89408
776.89474
776.8956
776.89663
776.89721
783.4235
783.42335
783.42221
783.42228
783.42262
783.42307
783.42367
783.42443
783.4253
783.42577
783.42335
783.42253
783.42171
783.42184
783.42218
783.42263
783.42322
783.42403
783.42512
783.42578
783.42221
783.42171
783.42098
783.42114
783.42148
783.42193
783.42251
783.42331
783.42449
783.42536
783.42228
783.42184
783.42114
783.42131
783.42166
783.4221
783.42266
783.42344
783.42458
783.42543
783.42262
783.42218
783.42148
783.42166
783.422
783.42243
783.42299
783.42375
783.42488
783.4257
783.42307
783.42263
783.42193
783.4221
783.42243
783.42286
783.42341
783.42417
783.42529
783.42611
783.42367
783.42322
783.42251
783.42266
783.42299
783.42341
783.42396
783.42472
783.42585
783.42668
783.42443
783.42403
783.42331
783.42344
783.42375
783.42417
783.42472
783.42549
783.42664
783.42748
783.4253
783.42512
783.42449
783.42458
783.42488
783.42529
783.42585
783.42664
783.4278
783.42862
783.42577
783.42578
783.42536
783.42543
783.4257
783.42611
783.42668
783.42748
783.42862
783.42917
789.60756
789.60748
789.60628
789.60643
789.60681
789.60726
789.60781
789.60852
789.60939
789.60983
789.60748
789.60665
789.60581
789.60603
789.60641
789.60684
789.60737
789.60812
789.60923
789.60989
789.60628
789.60581
789.60508
789.60532
789.6057
789.60612
789.60662
789.60734
789.60855
789.60943
789.60643
789.60603
789.60532
789.60557
789.60595
789.60635
789.60682
789.60749
789.60865
789.6095
789.60681
789.60641
789.6057
789.60595
789.60631
789.6067
789.60715
789.6078
789.60893
789.60975
789.60726
789.60684
789.60612
789.60635
789.6067
789.60708
789.60752
789.60816
789.60928
789.61009
789.60781
789.60737
789.60662
789.60682
789.60715
789.60752
789.60796
789.6086
789.60973
789.61056
789.60852
789.60812
789.60734
789.60749
789.6078
789.60816
789.6086
789.60926
789.61042
789.61128
789.60939
789.60923
789.60855
789.60865
789.60893
789.60928
789.60973
789.61042
789.61163
789.61252
789.60983
789.60989
789.60943
789.6095
789.60975
789.61009
789.61056
789.61128
789.61252
789.61302
795.38835
795.38833
795.38708
795.38732
795.38774
795.38817
795.38866
795.38931
795.39016
795.39056
795.38833
795.3875
795.38666
795.38696
795.38738
795.38779
795.38825
795.38891
795.39004
795.39068
795.38708
795.38666
795.38593
795.38626
795.38667
795.38705
795.38747
795.38808
795.3893
795.39019
795.38732
795.38696
795.38626
795.38659
795.38699
795.38735
795.38772
795.38827
795.38942
795.39026
795.38774
795.38738
795.38667
795.38699
795.38737
795.38771
795.38806
795.38857
795.38968
795.39048
795.38817
795.38779
795.38705
795.38735
795.38771
795.38804
795.38836
795.38886
795.38996
795.39075
795.38866
795.38825
795.38747
795.38772
795.38806
795.38836
795.38868
795.38918
795.39029
795.3911
795.38931
795.38891
795.38808
795.38827
795.38857
795.38886
795.38918
795.38971
795.39086
795.39173
795.39016
795.39004
795.3893
795.38942
795.38968
795.38996
795.39029
795.39086
795.39209
795.39303
795.39056
795.39068
795.39019
795.39026
795.39048
795.39075
795.3911
795.39173
795.39303
795.39348
800.71512
800.71518
800.71389
800.71422
800.71467
800.71508
800.7155
800.71607
800.71689
800.71724
800.71518
800.71436
800.71352
800.71391
800.71436
800.71474
800.71512
800.71568
800.71681
800.71741
800.71389
800.71352
800.71281
800.71322
800.71366
800.714
800.71432
800.71482
800.71603
800.71691
800.71422
800.71391
800.71322
800.71363
800.71405
800.71436
800.71462
800.71504
800.71616
800.71697
800.71467
800.71436
800.71366
800.71405
800.71445
800.71473
800.71495
800.71532
800.71639
800.71715
800.71508
800.71474
800.714
800.71436
800.71473
800.71499
800.71519
800.71554
800.71659
800.71734
800.7155
800.71512
800.71432
800.71462
800.71495
800.71519
800.71537
800.71573
800.7168
800.71757
800.71607
800.71568
800.71482
800.71504
800.71532
800.71554
800.71573
800.71611
800.71723
800.71809
800.71689
800.71681
800.71603
800.71616
800.71639
800.71659
800.7168
800.71723
800.71846
800.71943
800.71724
800.71741
800.71691
800.71697
800.71715
800.71734
800.71757
800.71809
800.71943
800.71982
805.54187
805.54201
805.54071
805.54111
805.5416
805.54198
805.54232
805.54279
805.54356
805.54386
805.54201
805.54121
805.5404
805.54087
805.54135
805.54169
805.54197
805.54243
805.54352
805.54409
805.54071
805.5404
805.53971
805.5402
805.54066
805.54096
805.54116
805.54154
805.54271
805.54356
805.54111
805.54087
805.5402
805.54069
805.54113
805.54138
805.54151
805.54178
805.54285
805.54362
805.5416
805.54135
805.54066
805.54113
805.54153
805.54175
805.54184
805.54205
805.54305
805.54377
805.54198
805.54169
805.54096
805.54138
805.54175
805.54193
805.54199
805.54218
805.54316
805.54386
805.54232
805.54197
805.54116
805.54151
805.54184
805.54199
805.54204
805.54223
805.54323
805.54396
805.54279
805.54243
805.54154
805.54178
805.54205
805.54218
805.54223
805.54245
805.54352
805.54435
805.54356
805.54352
805.54271
805.54285
805.54305
805.54316
805.54323
805.54352
805.54473
805.54572
805.54386
805.54409
805.54356
805.54362
805.54377
805.54386
805.54396
805.54435
805.54572
805.54603
809.82748
809.82769
809.82639
809.82687
809.82739
809.82773
809.82798
809.82834
809.82905
809.82928
809.82769
809.82693
809.82615
809.8267
809.8272
809.82749
809.82767
809.82801
809.82906
809.82957
809.82639
809.82615
809.8255
809.82607
809.82654
809.82678
809.82687
809.82709
809.82822
809.82903
809.82687
809.8267
809.82607
809.82663
809.82707
809.82726
809.82726
809.82737
809.82837
809.82908
809.82739
809.8272
809.82654
809.82707
809.82748
809.82762
809.82757
809.82761
809.82853
809.82918
809.82773
809.82749
809.82678
809.82726
809.82762
809.82772
809.82764
809.82765
809.82855
809.82918
809.82798
809.82767
809.82687
809.82726
809.82757
809.82764
809.82754
809.82755
809.82847
809.82913
809.82834
809.82801
809.82709
809.82737
809.82761
809.82765
809.82755
809.82759
809.8286
809.82938
809.82905
809.82906
809.82822
809.82837
809.82853
809.82855
809.82847
809.8286
809.82977
809.83075
809.82928
809.82957
809.82903
809.82908
809.82918
809.82918
809.82913
809.82938
809.83075
809.83097
813.53576
813.53606
813.53476
813.53532
813.53586
813.53615
813.53631
813.53655
813.53718
813.53733
813.53606
813.53534
813.5346
813.53523
813.53574
813.53598
813.53604
813.53624
813.53723
813.53767
813.53476
813.5346
813.53399
813.53463
813.53511
813.53529
813.53525
813.53532
813.53637
813.53712
813.53532
813.53523
813.53463
813.53526
813.5357
813.53582
813.53568
813.53562
813.53653
813.53717
813.53586
813.53574
813.53511
813.5357
813.5361
813.53617
813.53597
813.53582
813.53665
813.53722
813.53615
813.53598
813.53529
813.53582
813.53617
813.53618
813.53594
813.53576
813.53656
813.53711
813.53631
813.53604
813.53525
813.53568
813.53597
813.53594
813.53568
813.5355
813.53632
813.53691
813.53655
813.53624
813.53532
813.53562
813.53582
813.53576
813.5355
813.53537
813.53628
813.537
813.53718
813.53723
813.53637
813.53653
813.53665
813.53656
813.53632
813.53628
813.53738
813.53835
813.53733
813.53767
813.53712
813.53717
813.53722
813.53711
813.53691
813.537
813.53835
813.53848
816.63556
816.63595
816.63467
816.6353
816.63584
816.63608
816.63612
816.63623
816.63677
816.63684
816.63595
816.63527
816.63458
816.63528
816.6358
816.63597
816.63591
816.63597
816.63687
816.63723
816.63467
816.63458
816.63402
816.63472
816.63521
816.63531
816.63513
816.63503
816.63599
816.63667
816.6353
816.63528
816.63472
816.63541
816.63585
816.63588
816.6356
816.63535