/*--------------------------------*- C++ -*----------------------------------*\
| =========                 |                                                 |
| \\      /  F ield         | OpenFOAM: The Open Source CFD Toolbox           |
|  \\    /   O peration     | Version:  v2106                                 |
|   \\  /    A nd           | Website:  www.openfoam.com                      |
|    \\/     M anipulation  |                                                 |
\*---------------------------------------------------------------------------*/
FoamFile
{
    version     2.0;
    format      ascii;
    arch        "LSB;label=32;scalar=64";
    class       volVectorField;
    location    "27.5";
    object      gradT;
}
// * * * * * * * * * * * * * * * * * * * * * * * * * * * * * * * * * * * * * //

dimensions      [0 -1 0 1 0 0 0];

internalField   nonuniform List<vector> 
4000
(
(-0.00024555781 -0.00024555781 461.1146)
(0.00066881887 0.00044965392 461.11333)
(0.00092405486 0.00015972793 461.11787)
(-0.00025553391 0.00012397045 461.11742)
(-0.00023826528 0.00012573308 461.11673)
(-0.00017640609 0.00013073472 461.11624)
(-0.00016872525 0.00013547872 461.11581)
(-0.00018594643 0.00013148596 461.11535)
(-0.00016478446 0.00010035944 461.11483)
(-4.4659519e-05 4.929991e-05 461.11453)
(0.00044965391 0.00066881887 461.11333)
(0.0012767475 0.0012767475 461.116)
(0.00043552966 0.00077123504 461.1188)
(-0.00030652618 0.00071058086 461.11811)
(-0.00022811887 0.00071709209 461.11743)
(-0.00016178764 0.00073418495 461.11698)
(-0.00016759839 0.00075675107 461.11659)
(-0.00023862534 0.00076461413 461.11609)
(-0.00028806353 0.00069594108 461.11529)
(-9.571905e-05 0.00050724825 461.11467)
(0.00015972793 0.00092405487 461.11787)
(0.00077123503 0.00043552966 461.1188)
(0.00035788824 0.00035788824 461.12125)
(-0.00030967685 0.0003516121 461.12051)
(-0.00021466118 0.0003604566 461.11985)
(-0.00013674711 0.00037993235 461.11945)
(-0.00013829608 0.00041239524 461.11914)
(-0.00024675642 0.00045407665 461.11871)
(-0.00042215034 0.00047246459 461.11778)
(-0.00017045474 0.00040470152 461.11658)
(0.00012397044 -0.00025553391 461.11742)
(0.00071058085 -0.00030652618 461.11811)
(0.0003516121 -0.00030967686 461.12051)
(-0.00030395782 -0.00030395781 461.11977)
(-0.00019979863 -0.00029225049 461.11913)
(-0.000109849 -0.00027334577 461.11878)
(-9.3454087e-05 -0.00024428156 461.11857)
(-0.00017855599 -0.00020026957 461.11828)
(-0.00033743866 -0.00013946334 461.11754)
(-0.00014089443 -7.4631758e-05 461.11655)
(0.00012573308 -0.00023826529 461.11673)
(0.00071709209 -0.00022811887 461.11743)
(0.00036045661 -0.00021466118 461.11985)
(-0.00029225049 -0.00019979863 461.11913)
(-0.00018404914 -0.00018404914 461.11853)
(-8.8778179e-05 -0.00016653196 461.11822)
(-6.5219879e-05 -0.00014620566 461.11807)
(-0.0001419382 -0.00012188988 461.11787)
(-0.00029651252 -9.3801864e-05 461.11724)
(-0.00012723368 -6.759935e-05 461.11635)
(0.00013073472 -0.00017640609 461.11624)
(0.00073418496 -0.00016178764 461.11698)
(0.00037993235 -0.00013674711 461.11945)
(-0.00027334577 -0.00010984901 461.11878)
(-0.00016653196 -8.8778179e-05 461.11822)
(-7.2005525e-05 -7.2005525e-05 461.11796)
(-4.8812015e-05 -5.8244646e-05 461.11786)
(-0.0001261522 -4.7175044e-05 461.1177)
(-0.00028314813 -3.8901343e-05 461.11711)
(-0.00012342609 -3.415951e-05 461.11625)
(0.00013547871 -0.00016872525 461.11581)
(0.00075675107 -0.0001675984 461.11659)
(0.00041239525 -0.00013829608 461.11914)
(-0.00024428156 -9.3454085e-05 461.11857)
(-0.00014620566 -6.5219883e-05 461.11807)
(-5.8244646e-05 -4.8812013e-05 461.11786)
(-4.0389397e-05 -4.0389398e-05 461.11778)
(-0.0001225949 -3.8949607e-05 461.11764)
(-0.00028349699 -4.3477436e-05 461.11705)
(-0.00012407246 -5.0950698e-05 461.11619)
(0.00013148596 -0.00018594643 461.11535)
(0.00076461413 -0.00023862534 461.11609)
(0.00045407666 -0.00024675642 461.11871)
(-0.00020026957 -0.00017855599 461.11828)
(-0.00012188988 -0.0001419382 461.11787)
(-4.717504e-05 -0.00012615219 461.1177)
(-3.8949609e-05 -0.00012259491 461.11764)
(-0.00012924023 -0.00012924023 461.11748)
(-0.00029514922 -0.00014428694 461.11687)
(-0.00012840826 -0.00016201783 461.11596)
(0.00010035944 -0.00016478445 461.11483)
(0.00069594108 -0.00028806352 461.11529)
(0.00047246459 -0.00042215033 461.11778)
(-0.00013946334 -0.00033743867 461.11754)
(-9.3801862e-05 -0.00029651252 461.11724)
(-3.8901349e-05 -0.00028314813 461.11711)
(-4.3477439e-05 -0.00028349699 461.11705)
(-0.00014428694 -0.00029514922 461.11687)
(-0.00031627458 -0.00031627458 461.1162)
(-0.00013589305 -0.0003376868 461.11523)
(4.9299911e-05 -4.465952e-05 461.11453)
(0.00050724825 -9.5719052e-05 461.11467)
(0.00040470152 -0.00017045474 461.11658)
(-7.4631762e-05 -0.00014089443 461.11655)
(-6.759935e-05 -0.00012723369 461.11635)
(-3.4159507e-05 -0.00012342609 461.11625)
(-5.0950692e-05 -0.00012407246 461.11619)
(-0.00016201783 -0.00012840826 461.11596)
(-0.00033768681 -0.00013589305 461.11523)
(-0.00014268308 -0.00014268308 461.11423)
(-0.00053817548 -0.00053817549 682.98577)
(0.0028966236 0.0013243211 682.98545)
(0.0033630748 0.0004534771 682.98953)
(-0.00094598209 0.00032356445 682.98906)
(-0.0010554797 0.00032687287 682.98822)
(-0.00083964771 0.00034963637 682.98756)
(-0.00082563144 0.00037295261 682.98698)
(-0.00092548336 0.0003470966 682.98627)
(-0.00073833944 0.00016754643 682.98538)
(-0.00016609963 -5.0353618e-06 682.98525)
(0.0013243211 0.0028966236 682.98545)
(0.0043841025 0.0043841025 682.98776)
(0.0018619398 0.0027649604 682.99054)
(-0.0011358884 0.0025143107 682.98986)
(-0.0010163718 0.0025315413 682.98903)
(-0.00077052811 0.0026122513 682.98843)
(-0.00082944109 0.002723707 682.98792)
(-0.0012335926 0.0027490413 682.98715)
(-0.0012665374 0.0023415371 682.98564)
(-0.00033868143 0.0015654562 682.98493)
(0.0004534771 0.0033630748 682.98953)
(0.0027649604 0.0018619398 682.99054)
(0.001493283 0.001493283 682.99293)
(-0.0011794012 0.0014314172 682.99217)
(-0.00095753908 0.0014661717 682.99136)
(-0.00064748203 0.0015613901 682.99084)
(-0.00068884139 0.0017216779 682.99046)
(-0.0013076533 0.0019192667 682.98982)
(-0.0019219246 0.0019547137 682.98814)
(-0.00068348684 0.0016032045 682.98673)
(0.00032356444 -0.0009459821 682.98906)
(0.0025143107 -0.0011358884 682.98986)
(0.0014314172 -0.0011794012 682.99217)
(-0.0011629997 -0.0011629997 682.9914)
(-0.00088639895 -0.0011076572 682.99062)
(-0.00051502191 -0.0010145726 682.99018)
(-0.00047156447 -0.00087126006 682.98994)
(-0.0010005569 -0.0006579663 682.9895)
(-0.0015825996 -0.0003863289 682.98807)
(-0.0005730209 -0.00012315959 682.98688)
(0.00032687287 -0.0010554797 682.98822)
(0.0025315413 -0.0010163718 682.98903)
(0.0014661717 -0.00095753909 682.99136)
(-0.0011076572 -0.00088639895 682.99062)
(-0.00080911197 -0.00080911196 682.98989)
(-0.00041108486 -0.00072297406 682.98952)
(-0.00033223512 -0.00062289272 682.98938)
(-0.00082272214 -0.00050292545 682.98907)
(-0.0013871178 -0.00036695908 682.98778)
(-0.00050804064 -0.00023961369 682.98673)
(0.00034963637 -0.00083964771 682.98756)
(0.0026122513 -0.00077052811 682.98843)
(0.0015613901 -0.00064748203 682.99084)
(-0.0010145726 -0.00051502192 682.99018)
(-0.00072297406 -0.00041108486 682.98952)
(-0.00032880267 -0.00032880267 682.98922)
(-0.00025151586 -0.00026182743 682.98914)
(-0.00074462325 -0.00020816629 682.98889)
(-0.0013192878 -0.00016850189 682.98766)
(-0.00048812397 -0.00014505769 682.98665)
(0.00037295261 -0.00082563144 682.98698)
(0.002723707 -0.00082944108 682.98792)
(0.0017216779 -0.00068884138 682.99046)
(-0.00087126006 -0.00047156447 682.98994)
(-0.00062289272 -0.00033223512 682.98938)
(-0.00026182743 -0.00025151586 682.98914)
(-0.00021159873 -0.00021159873 682.98909)
(-0.00072939661 -0.0002075583 682.98886)
(-0.0013240092 -0.00023486714 682.98762)
(-0.00049241117 -0.00027970575 682.9866)
(0.00034709661 -0.00092548336 682.98627)
(0.0027490414 -0.0012335926 682.98715)
(0.0019192667 -0.0013076533 682.98982)
(-0.0006579663 -0.0010005569 682.9895)
(-0.00050292544 -0.00082272215 682.98907)
(-0.00020816628 -0.00074462325 682.98889)
(-0.00020755831 -0.0007293966 682.98886)
(-0.00076789166 -0.00076789165 682.98861)
(-0.0013914353 -0.00085125351 682.9873)
(-0.00051801638 -0.00095107419 682.98619)
(0.00016754644 -0.00073833944 682.98538)
(0.0023415371 -0.0012665374 682.98564)
(0.0019547137 -0.0019219246 682.98814)
(-0.0003863289 -0.0015825996 682.98807)
(-0.00036695908 -0.0013871179 682.98778)
(-0.00016850188 -0.0013192878 682.98766)
(-0.00023486714 -0.0013240093 682.98762)
(-0.00085125352 -0.0013914353 682.9873)
(-0.0015071918 -0.0015071918 682.98588)
(-0.00055895829 -0.0015844562 682.98465)
(-5.0353644e-06 -0.00016609963 682.98525)
(0.0015654562 -0.00033868143 682.98493)
(0.0016032045 -0.00068348684 682.98673)
(-0.00012315959 -0.0005730209 682.98688)
(-0.00023961368 -0.00050804064 682.98673)
(-0.00014505768 -0.00048812398 682.98665)
(-0.00027970574 -0.00049241117 682.9866)
(-0.00095107419 -0.00051801638 682.98619)
(-0.0015844563 -0.00055895829 682.98465)
(-0.00056952602 -0.00056952602 682.98375)
(-0.00045769407 -0.00045769407 681.28753)
(0.0044272206 0.0019921299 681.28759)
(0.0045357035 0.00083598561 681.2901)
(-0.0015631471 0.00065664513 681.28961)
(-0.0017352515 0.00066457805 681.28889)
(-0.0014118751 0.00070926277 681.28835)
(-0.0014622936 0.00076215134 681.28786)
(-0.0017912627 0.00071529902 681.28713)
(-0.0011809104 0.00027768371 681.28594)
(-0.00012681909 -0.00016438128 681.28584)
(0.0019921299 0.0044272206 681.28759)
(0.0063677401 0.0063677401 681.28925)
(0.0025324764 0.0041786493 681.29098)
(-0.0018202585 0.0038207596 681.29037)
(-0.001656325 0.003855506 681.28967)
(-0.0012655152 0.0040092567 681.2892)
(-0.0014532392 0.0042384292 681.28882)
(-0.0025179642 0.0043172809 681.28808)
(-0.0025004308 0.003456685 681.28617)
(-0.00056888408 0.0019886745 681.28539)
(0.0008359856 0.0045357035 681.2901)
(0.0041786493 0.0025324763 681.29098)
(0.0019887229 0.0019887229 681.29247)
(-0.0018862905 0.0018902834 681.2918)
(-0.0015467544 0.0019540106 681.29113)
(-0.0010289519 0.0021282664 681.29074)
(-0.0011542694 0.0024282525 681.29051)
(-0.002573007 0.0028136733 681.28995)
(-0.0035095167 0.0028975436 681.2879)
(-0.0011054927 0.0023482907 681.28657)
(0.00065664513 -0.0015631471 681.28961)
(0.0038207596 -0.0018202585 681.29037)
(0.0018902834 -0.0018862905 681.2918)
(-0.0018549708 -0.0018549708 681.29113)
(-0.0014183421 -0.0017547036 681.2905)
(-0.00079127335 -0.001587571 681.29019)
(-0.00076783228 -0.0013316362 681.29009)
(-0.0020486731 -0.00095479016 681.28973)
(-0.0029658134 -0.00049941119 681.2879)
(-0.00093505266 -8.146826e-05 681.28672)
(0.00066457805 -0.0017352515 681.28889)
(0.003855506 -0.001656325 681.28967)
(0.0019540106 -0.0015467544 681.29113)
(-0.0017547036 -0.0014183421 681.2905)
(-0.0012793546 -0.0012793546 681.28992)
(-0.00060588451 -0.0011254256 681.28968)
(-0.00052148855 -0.00094804865 681.28968)
(-0.0017407819 -0.00073756972 681.28944)
(-0.0026361948 -0.00050573587 681.28773)
(-0.00082686408 -0.00029331605 681.28668)
(0.00070926277 -0.0014118752 681.28835)
(0.0040092567 -0.0012655152 681.2892)
(0.0021282664 -0.0010289519 681.29074)
(-0.001587571 -0.00079127335 681.29019)
(-0.0011254256 -0.0006058845 681.28968)
(-0.00045996744 -0.00045996744 681.28951)
(-0.0003799764 -0.00034347217 681.28956)
(-0.0016063603 -0.00025381049 681.28938)
(-0.0025215597 -0.00019358878 681.28772)
(-0.00079343945 -0.00016458058 681.2867)
(0.00076215135 -0.0014622936 681.28786)
(0.0042384292 -0.0014532392 681.28882)
(0.0024282525 -0.0011542693 681.29051)
(-0.0013316362 -0.00076783227 681.29009)
(-0.00094804865 -0.00052148854 681.28968)
(-0.00034347217 -0.0003799764 681.28956)
(-0.00031533161 -0.0003153316 681.28965)
(-0.0015908985 -0.00032229987 681.28947)
(-0.0025469649 -0.00039629395 681.2878)
(-0.00080752528 -0.00051385093 681.28674)
(0.00071529902 -0.0017912627 681.28713)
(0.0043172809 -0.0025179642 681.28808)
(0.0028136733 -0.002573007 681.28995)
(-0.00095479016 -0.0020486731 681.28973)
(-0.00073756973 -0.0017407819 681.28944)
(-0.0002538105 -0.0016063603 681.28938)
(-0.00032229987 -0.0015908985 681.28947)
(-0.0016873226 -0.0016873226 681.28925)
(-0.0027131108 -0.001883439 681.28747)
(-0.00087181077 -0.0021103938 681.28626)
(0.00027768371 -0.0011809104 681.28594)
(0.003456685 -0.0025004308 681.28617)
(0.0028975436 -0.0035095167 681.2879)
(-0.00049941119 -0.0029658134 681.2879)
(-0.00050573586 -0.0026361948 681.28773)
(-0.00019358878 -0.0025215597 681.28772)
(-0.00039629395 -0.0025469649 681.2878)
(-0.001883439 -0.0027131108 681.28747)
(-0.0029700361 -0.0029700361 681.28549)
(-0.00095882851 -0.0027800694 681.28408)
(-0.00016438128 -0.00012681909 681.28584)
(0.0019886745 -0.00056888409 681.28539)
(0.0023482907 -0.0011054927 681.28657)
(-8.146826e-05 -0.00093505266 681.28672)
(-0.00029331605 -0.00082686409 681.28668)
(-0.00016458058 -0.00079343945 681.2867)
(-0.00051385093 -0.00080752529 681.28674)
(-0.0021103938 -0.00087181077 681.28626)
(-0.0027800694 -0.00095882852 681.28408)
(-0.00074516633 -0.00074516633 681.28374)
(-0.00049876851 -0.00049876851 680.66743)
(0.0054664714 0.0024338283 680.66726)
(0.0053805773 0.001042709 680.66935)
(-0.0021550723 0.0008288416 680.66883)
(-0.0023153747 0.00084518072 680.66819)
(-0.0018721246 0.00091595968 680.66776)
(-0.002038156 0.0010115691 680.6674)
(-0.0028485114 0.00097672358 680.66677)
(-0.0020312562 0.00032071372 680.66542)
(-0.00022875028 -0.00030796224 680.66507)
(0.0024338283 0.0054664714 680.66726)
(0.0077786876 0.0077786876 680.66848)
(0.0029730972 0.0051355672 680.66988)
(-0.0024513647 0.0047077569 680.66927)
(-0.0021846976 0.0047706501 680.66866)
(-0.0016225421 0.0050060686 680.6683)
(-0.0019470102 0.0053760709 680.66808)
(-0.0038847944 0.0055633441 680.6675)
(-0.0039582849 0.0043046671 680.6655)
(-0.00085742625 0.0022891188 680.66465)
(0.001042709 0.0053805773 680.66935)
(0.0051355672 0.0029730972 680.66988)
(0.0023096467 0.0023096467 680.67109)
(-0.0025199893 0.0021968607 680.67045)
(-0.002017063 0.0022975417 680.66987)
(-0.0012667038 0.0025541892 680.66961)
(-0.0014808805 0.0029970046 680.66954)
(-0.0039199152 0.0035725525 680.66913)
(-0.0053054815 0.003685967 680.667)
(-0.0015724492 0.0029379879 680.66563)
(0.00082884161 -0.0021550723 680.66883)
(0.0047077569 -0.0024513647 680.66927)
(0.0021968607 -0.0025199893 680.67045)
(-0.0024634696 -0.0024634696 680.66982)
(-0.001827369 -0.002313867 680.66929)
(-0.00092307919 -0.0020715614 680.6691)
(-0.00092864686 -0.0017042242 680.66916)
(-0.003195832 -0.0011696318 680.66896)
(-0.0045928495 -0.00055189485 680.66702)
(-0.001356079 -1.0565241e-05 680.66577)
(0.00084518073 -0.0023153747 680.66819)
(0.0047706501 -0.0021846976 680.66866)
(0.0022975417 -0.002017063 680.66987)
(-0.002313867 -0.001827369 680.66929)
(-0.0016251548 -0.0016251548 680.66882)
(-0.0006570609 -0.0014040441 680.6687)
(-0.00057895092 -0.0011520775 680.66885)
(-0.0027675859 -0.00085679614 680.66876)
(-0.0041464149 -0.00054077263 680.66694)
(-0.0012115627 -0.00025852734 680.66579)
(0.00091595968 -0.0018721246 680.66776)
(0.0050060686 -0.0016225421 680.6683)
(0.0025541892 -0.0012667037 680.66961)
(-0.0020715614 -0.00092307918 680.6691)
(-0.0014040441 -0.0006570609 680.6687)
(-0.00045000187 -0.00045000187 680.66865)
(-0.00038139886 -0.00028889938 680.66886)
(-0.0025845271 -0.00017180343 680.66881)
(-0.0039945807 -0.00010454514 680.66703)
(-0.0011679154 -8.5332376e-05 680.66592)
(0.0010115691 -0.002038156 680.6674)
(0.0053760709 -0.0019470102 680.66808)
(0.0029970046 -0.0014808805 680.66954)
(-0.0017042242 -0.00092864685 680.66916)
(-0.0011520775 -0.00057895092 680.66885)
(-0.00028889938 -0.00038139886 680.66886)
(-0.00030075248 -0.00030075248 680.66909)
(-0.0025832316 -0.0003361809 680.66905)
(-0.0040599438 -0.00048913574 680.66723)
(-0.0011987542 -0.00072535401 680.66606)
(0.00097672358 -0.0028485114 680.66677)
(0.0055633441 -0.0038847944 680.6675)
(0.0035725525 -0.0039199152 680.66913)
(-0.0011696318 -0.003195832 680.66896)
(-0.00085679614 -0.0027675859 680.66876)
(-0.00017180343 -0.0025845271 680.66881)
(-0.0003361809 -0.0025832316 680.66905)
(-0.0027729104 -0.0027729104 680.66894)
(-0.0043837538 -0.0031569688 680.66698)
(-0.0013253943 -0.0036109579 680.6656)
(0.00032071372 -0.0020312562 680.66542)
(0.0043046671 -0.0039582849 680.6655)
(0.003685967 -0.0053054815 680.667)
(-0.00055189485 -0.0045928495 680.66702)
(-0.00054077263 -0.0041464149 680.66694)
(-0.00010454514 -0.0039945807 680.66703)
(-0.00048913574 -0.0040599438 680.66723)
(-0.0031569688 -0.0043837538 680.66698)
(-0.0048979913 -0.0048979913 680.66473)
(-0.0015014137 -0.0041007207 680.66302)
(-0.00030796224 -0.00022875028 680.66507)
(0.0022891188 -0.00085742625 680.66465)
(0.0029379879 -0.0015724491 680.66563)
(-1.0565244e-05 -0.001356079 680.66577)
(-0.00025852734 -0.0012115627 680.66579)
(-8.5332373e-05 -0.0011679154 680.66592)
(-0.00072535401 -0.0011987542 680.66606)
(-0.0036109579 -0.0013253943 680.6656)
(-0.0041007207 -0.0015014137 680.66302)
(-0.00079388053 -0.00079388054 680.66289)
(-0.00057065606 -0.00057065606 681.07214)
(0.0063416353 0.0028024772 681.07191)
(0.0061013286 0.0011906457 681.07379)
(-0.0027198984 0.00094752303 681.07326)
(-0.0028071664 0.00097402 681.07268)
(-0.0022009994 0.0010719163 681.07235)
(-0.002448761 0.0012129327 681.07214)
(-0.0037760406 0.0011978032 681.07168)
(-0.0028804513 0.00033537089 681.07045)
(-0.0003571541 -0.00044471343 681.07009)
(0.0028024772 0.0063416353 681.07191)
(0.008983588 0.008983588 681.07295)
(0.0033188974 0.0059224408 681.07419)
(-0.003044837 0.0054403659 681.07357)
(-0.0026205765 0.0055374777 681.07303)
(-0.0018426303 0.0058574774 681.07278)
(-0.0022599307 0.0063730223 681.07271)
(-0.0050923833 0.0066803326 681.07231)
(-0.0053442262 0.0050380233 681.07048)
(-0.0011372384 0.0025432738 681.06968)
(0.0011906457 0.0061013286 681.07379)
(0.0059224408 0.0033188974 681.07419)
(0.0025581065 0.0025581065 681.07525)
(-0.0031048615 0.0024437826 681.07462)
(-0.0023900549 0.0025874105 681.07412)
(-0.0013654547 0.0029286668 681.07396)
(-0.0016259059 0.0035145202 681.07404)
(-0.0051110395 0.0042775199 681.07383)
(-0.0070175101 0.0044084682 681.07185)
(-0.0020203205 0.003468461 681.07056)
(0.00094752304 -0.0027198984 681.07326)
(0.0054403659 -0.003044837 681.07357)
(0.0024437826 -0.0031048615 681.07462)
(-0.0030155331 -0.0030155331 681.07402)
(-0.0021356923 -0.0028128029 681.07356)
(-0.00091552055 -0.0024944235 681.07348)
(-0.00091107753 -0.0020171618 681.07369)
(-0.0041984353 -0.0013299711 681.07367)
(-0.0061532851 -0.00056337316 681.07187)
(-0.0017639099 8.6403874e-05 681.0707)
(0.00097402 -0.0028071664 681.07268)
(0.0055374777 -0.0026205765 681.07303)
(0.0025874105 -0.0023900549 681.07412)
(-0.0028128029 -0.0021356923 681.07356)
(-0.0018689454 -0.0018689454 681.07317)
(-0.00056981361 -0.0015813838 681.07316)
(-0.00046145344 -0.0012575052 681.07346)
(-0.0036572509 -0.00088246869 681.07354)
(-0.0056011351 -0.00049084621 681.07185)
(-0.0015871358 -0.00014824502 681.07078)
(0.0010719163 -0.0022009994 681.07235)
(0.0058574774 -0.0018426303 681.07278)
(0.0029286668 -0.0013654547 681.07396)
(-0.0024944235 -0.00091552055 681.07348)
(-0.0015813838 -0.0005698136 681.07316)
(-0.00030408038 -0.00030408039 681.07321)
(-0.00021216245 -0.00010269764 681.07356)
(-0.0034317763 3.5167967e-05 681.0737)
(-0.0054190614 0.00010020519 681.07204)
(-0.0015355091 0.00010022952 681.07099)
(0.0012129327 -0.002448761 681.07214)
(0.0063730223 -0.0022599307 681.07271)
(0.0035145202 -0.0016259059 681.07404)
(-0.0020171617 -0.00091107754 681.07369)
(-0.0012575052 -0.00046145344 681.07346)
(-0.00010269765 -0.00021216246 681.07356)
(-0.00012220509 -0.00012220509 681.07394)
(-0.0034543481 -0.00019770219 681.07406)
(-0.0055360735 -0.00044983262 681.07236)
(-0.0015871196 -0.00083422008 681.07124)
(0.0011978032 -0.0037760406 681.07168)
(0.0066803326 -0.0050923833 681.07231)
(0.0042775199 -0.0051110395 681.07383)
(-0.0013299711 -0.0041984353 681.07367)
(-0.00088246869 -0.0036572509 681.07354)
(3.5167959e-05 -0.0034317763 681.0737)
(-0.00019770219 -0.0034543481 681.07406)
(-0.0037594038 -0.0037594038 681.07411)
(-0.0060555793 -0.0043829438 681.07225)
(-0.0017917674 -0.0051542759 681.07089)
(0.00033537089 -0.0028804513 681.07045)
(0.0050380233 -0.0053442262 681.07048)
(0.0044084682 -0.0070175101 681.07185)
(-0.00056337317 -0.0061532851 681.07187)
(-0.00049084621 -0.0056011351 681.07185)
(0.00010020519 -0.0054190614 681.07204)
(-0.00044983262 -0.0055360735 681.07236)
(-0.0043829438 -0.0060555793 681.07225)
(-0.0069309456 -0.0069309456 681.07005)
(-0.002101341 -0.0054840161 681.06825)
(-0.00044471343 -0.0003571541 681.07009)
(0.0025432738 -0.0011372384 681.06968)
(0.003468461 -0.0020203205 681.07056)
(8.6403872e-05 -0.0017639099 681.0707)
(-0.00014824502 -0.0015871358 681.07078)
(0.00010022952 -0.0015355091 681.07099)
(-0.00083422008 -0.0015871196 681.07124)
(-0.0051542759 -0.0017917674 681.07089)
(-0.0054840161 -0.002101341 681.06825)
(-0.00082714775 -0.00082714775 681.06816)
(-0.00065012169 -0.00065012169 682.44441)
(0.0071142095 0.0031290288 682.44416)
(0.0067281973 0.0013084219 682.44585)
(-0.0032591802 0.0010392268 682.44532)
(-0.0032227587 0.001076757 682.44479)
(-0.0024141067 0.0012019341 682.44455)
(-0.0027057485 0.0013887971 682.44447)
(-0.004536805 0.001396455 682.44417)
(-0.0036289428 0.00033730492 682.44311)
(-0.00047236855 -0.00058039209 682.4428)
(0.0031290288 0.0071142095 682.44416)
(0.010052025 0.010052025 682.44507)
(0.0035934943 0.0065990849 682.44616)
(-0.0036066776 0.0060717954 682.44555)
(-0.0029786979 0.0062064558 682.44506)
(-0.0019460466 0.0066118966 682.4449)
(-0.0024139671 0.0072734761 682.44496)
(-0.0061140432 0.0077054464 682.44473)
(-0.0065942134 0.0056976093 682.4431)
(-0.0013900656 0.0027601797 682.44239)
(0.0013084219 0.0067281973 682.44585)
(0.0065990849 0.0035934943 682.44616)
(0.0027479677 0.0027479677 682.44709)
(-0.0036518093 0.0026394167 682.44648)
(-0.0026826575 0.0028296047 682.44603)
(-0.0013470865 0.0032564349 682.44596)
(-0.0016121987 0.0039843708 682.44617)
(-0.0061126718 0.0049325282 682.44613)
(-0.0085742095 0.0050800955 682.44435)
(-0.002430655 0.0039603842 682.44319)
(0.0010392268 -0.0032591802 682.44532)
(0.0060717954 -0.0036066776 682.44555)
(0.0026394167 -0.0036518093 682.44648)
(-0.0035250406 -0.0035250406 682.44589)
(-0.0023616797 -0.0032668496 682.44549)
(-0.00079128046 -0.0028722161 682.4455)
(-0.0007378738 -0.0022868631 682.44584)
(-0.0050183185 -0.0014514362 682.44599)
(-0.0075663574 -0.00054375374 682.44438)
(-0.0021365398 0.00020755313 682.44333)
(0.001076757 -0.0032227587 682.44479)
(0.0062064559 -0.0029786979 682.44506)
(0.0028296047 -0.0026826575 682.44603)
(-0.0032668496 -0.0023616797 682.44549)
(-0.0020298329 -0.0020298329 682.44516)
(-0.00036709997 -0.0016767916 682.44524)
(-0.00019141879 -0.0012834864 682.44566)
(-0.0043695624 -0.00083277797 682.44591)
(-0.0069152202 -0.00037128743 682.44442)
(-0.0019297837 2.6352942e-05 682.44345)
(0.0012019341 -0.0024141067 682.44455)
(0.0066118966 -0.0019460466 682.4449)
(0.0032564349 -0.0013470865 682.44596)
(-0.0028722161 -0.00079128045 682.4455)
(-0.0016767916 -0.00036709996 682.44524)
(-4.4933953e-05 -4.4933953e-05 682.44538)
(0.00010613981 0.00019331678 682.44585)
(-0.0041061195 0.00034736676 682.44615)
(-0.0067072265 0.00040483297 682.44468)
(-0.0018714462 0.00038147161 682.44374)
(0.0013887971 -0.0027057485 682.44447)
(0.0072734761 -0.0024139671 682.44496)
(0.0039843708 -0.0016121987 682.44617)
(-0.0022868631 -0.0007378738 682.44584)
(-0.0012834864 -0.00019141879 682.44566)
(0.00019331677 0.00010613981 682.44585)
(0.00020088192 0.00020088191 682.44635)
(-0.0041580462 7.8914446e-05 682.44663)
(-0.0068811153 -0.00028162228 682.44511)
(-0.001945358 -0.00082552227 682.4441)
(0.001396455 -0.004536805 682.44417)
(0.0077054464 -0.0061140432 682.44473)
(0.0049325282 -0.0061126718 682.44613)
(-0.0014514362 -0.0050183185 682.44599)
(-0.00083277797 -0.0043695624 682.44591)
(0.00034736675 -0.0041061195 682.44615)
(7.8914446e-05 -0.0041580462 682.44663)
(-0.0045886237 -0.0045886237 682.44682)
(-0.0076116632 -0.0054737237 682.44514)
(-0.0022340462 -0.0066015157 682.44387)
(0.00033730491 -0.0036289428 682.44311)
(0.0056976093 -0.0065942134 682.4431)
(0.0050800955 -0.0085742095 682.44435)
(-0.00054375374 -0.0075663574 682.44438)
(-0.00037128743 -0.0069152202 682.44442)
(0.00040483297 -0.0067072265 682.44468)
(-0.00028162228 -0.0068811153 682.44511)
(-0.0054737237 -0.0076116632 682.44514)
(-0.0088940073 -0.0088940073 682.4431)
(-0.0026972194 -0.0068284349 682.44136)
(-0.00058039209 -0.00047236855 682.4428)
(0.0027601797 -0.0013900656 682.44239)
(0.0039603842 -0.002430655 682.44319)
(0.00020755314 -0.0021365398 682.44333)
(2.6352944e-05 -0.0019297837 682.44345)
(0.00038147161 -0.0018714462 682.44374)
(-0.00082552226 -0.001945358 682.4441)
(-0.0066015157 -0.0022340462 682.44387)
(-0.0068284349 -0.0026972194 682.44136)
(-0.00085699788 -0.00085699788 682.44129)
(-0.00073757615 -0.00073757615 684.72174)
(0.0077819451 0.0034136254 684.72146)
(0.0072599665 0.0013974004 684.72296)
(-0.0037754904 0.0011049583 684.72243)
(-0.0035710194 0.0011540502 684.72195)
(-0.0025263466 0.0013064005 684.72179)
(-0.0028280776 0.0015390843 684.72182)
(-0.0051377225 0.0015721953 684.72167)
(-0.0042578425 0.00032863888 684.72077)
(-0.00056381513 -0.00071628083 684.72054)
(0.0034136254 0.0077819451 684.72146)
(0.01098441 0.01098441 684.72225)
(0.0037969659 0.0071666113 684.72319)
(-0.0041405156 0.0066012972 684.72259)
(-0.0032688561 0.0067754496 684.72215)
(-0.0019487954 0.0072661811 684.72207)
(-0.0024293854 0.0080730134 684.72223)
(-0.0069533907 0.0086337134 684.72216)
(-0.0076905566 0.0062863378 684.72073)
(-0.0016087348 0.0029391445 684.72013)
(0.0013974004 0.0072599665 684.72296)
(0.0071666113 0.0037969659 684.72319)
(0.0028768539 0.0028768539 684.72399)
(-0.0041666521 0.0027789349 684.72338)
(-0.0029061355 0.0030176992 684.72299)
(-0.0012287828 0.0035299989 684.723)
(-0.0014605454 0.0043981514 684.72331)
(-0.006924398 0.0055292957 684.72342)
(-0.0099524113 0.0056983696 684.72187)
(-0.0027952773 0.0044146306 684.72086)
(0.0011049583 -0.0037754904 684.72243)
(0.0066012972 -0.0041405156 684.72259)
(0.0027789349 -0.0041666521 684.72338)
(-0.0039996703 -0.0039996703 684.7228)
(-0.0025177922 -0.0036848748 684.72246)
(-0.00056834324 -0.003214497 684.72255)
(-0.00043008861 -0.0025232544 684.723)
(-0.0056531725 -0.0015436277 684.72329)
(-0.0088052217 -0.00049984372 684.72191)
(-0.0024645608 0.00034911625 684.721)
(0.0011540502 -0.0035710194 684.72195)
(0.0067754496 -0.0032688561 684.72215)
(0.0030176992 -0.0029061355 684.72299)
(-0.0036848748 -0.0025177922 684.72246)
(-0.0021209621 -0.0021209621 684.72218)
(-6.7162372e-05 -0.0017036171 684.72234)
(0.00021032389 -0.00124314 684.72287)
(-0.0049009874 -0.00072003867 684.72326)
(-0.0080596673 -0.0001925757 684.72198)
(-0.002229304 0.00025680507 684.72116)
(0.0013064005 -0.0025263466 684.72179)
(0.0072661811 -0.0019487954 684.72207)
(0.0035299989 -0.0012287828 684.723)
(-0.003214497 -0.00056834324 684.72255)
(-0.0017036171 -6.716237e-05 684.72234)
(0.00030947883 0.00030947883 684.72256)
(0.00055348983 0.00058208236 684.72313)
(-0.0046026082 0.00074941556 684.72357)
(-0.007828378 0.00079655582 684.72232)
(-0.0021649736 0.00074831503 684.72151)
(0.0015390844 -0.0028280776 684.72182)
(0.0080730134 -0.0024293854 684.72223)
(0.0043981514 -0.0014605454 684.72331)
(-0.0025232543 -0.00043008861 684.723)
(-0.0012431401 0.00021032389 684.72287)
(0.00058208236 0.00055348983 684.72313)
(0.00065026062 0.00065026062 684.72372)
(-0.0046865139 0.00047892823 684.72415)
(-0.0080607679 7.0759825e-06 684.72284)
(-0.0022614645 -0.00069855138 684.72197)
(0.0015721953 -0.0051377225 684.72167)
(0.0086337134 -0.0069533907 684.72216)
(0.0055292957 -0.006924398 684.72342)
(-0.0015436277 -0.0056531725 684.72329)
(-0.00072003868 -0.0049009874 684.72326)
(0.00074941557 -0.0046026082 684.72357)
(0.00047892823 -0.0046865139 684.72415)
(-0.0052457928 -0.0052457928 684.72448)
(-0.0090058576 -0.006398651 684.72301)
(-0.0026353919 -0.0078947076 684.72188)
(0.00032863887 -0.0042578425 684.72077)
(0.0062863378 -0.0076905566 684.72073)
(0.0056983696 -0.0099524113 684.72187)
(-0.00049984372 -0.0088052217 684.72191)
(-0.0001925757 -0.0080596673 684.72198)
(0.00079655583 -0.007828378 684.72232)
(7.0759815e-06 -0.0080607679 684.72284)
(-0.006398651 -0.0090058576 684.72301)
(-0.010709683 -0.010709683 684.72117)
(-0.0032588356 -0.008067339 684.71956)
(-0.00071628083 -0.00056381513 684.72054)
(0.0029391445 -0.0016087348 684.72013)
(0.0044146306 -0.0027952773 684.72086)
(0.00034911625 -0.0024645608 684.721)
(0.00025680506 -0.002229304 684.72116)
(0.00074831502 -0.0021649736 684.72151)
(-0.00069855138 -0.0022614645 684.72197)
(-0.0078947076 -0.0026353919 684.72188)
(-0.008067339 -0.0032588356 684.71956)
(-0.00087382942 -0.00087382942 684.71954)
(-0.00083399589 -0.00083399589 687.83741)
(0.0083389097 0.0036541425 687.83711)
(0.0076925838 0.0014567472 687.83841)
(-0.0042700292 0.0011438558 687.83787)
(-0.0038576419 0.0012048283 687.83744)
(-0.0025479179 0.0013840136 687.83736)
(-0.002828162 0.0016621615 687.83748)
(-0.0055852718 0.0017232161 687.83747)
(-0.0047624701 0.00030931378 687.83674)
(-0.00062824992 -0.00085216629 687.83658)
(0.0036541424 0.0083389097 687.83711)
(0.011775024 0.011775024 687.83776)
(0.0039271538 0.0076212139 687.83854)
(-0.0046479077 0.0070245043 687.83795)
(-0.0034974053 0.007239268 687.83755)
(-0.001861918 0.0078143211 687.83755)
(-0.0023193582 0.008764584 687.83781)
(-0.0076145434 0.0094574821 687.83788)
(-0.0086255437 0.0068007977 687.83666)
(-0.00178973 0.0030786641 687.83618)
(0.0014567472 0.0076925838 687.83841)
(0.0076212139 0.0039271538 687.83854)
(0.0029420637 0.0029420637 687.8392)
(-0.0046519751 0.0028585308 687.83861)
(-0.0030678251 0.0031469018 687.83826)
(-0.0010226019 0.0037437213 687.83834)
(-0.001185001 0.0047493413 687.83875)
(-0.0075490581 0.0060607278 687.83901)
(-0.011141288 0.0062582788 687.83769)