/*--------------------------------*- C++ -*----------------------------------*\
| =========                 |                                                 |
| \\      /  F ield         | OpenFOAM: The Open Source CFD Toolbox           |
|  \\    /   O peration     | Version:  v2106                                 |
|   \\  /    A nd           | Website:  www.openfoam.com                      |
|    \\/     M anipulation  |                                                 |
\*---------------------------------------------------------------------------*/
FoamFile
{
    version     2.0;
    format      ascii;
    arch        "LSB;label=32;scalar=64";
    class       volScalarField;
    location    "27.5";
    object      laplacianT;
}
// * * * * * * * * * * * * * * * * * * * * * * * * * * * * * * * * * * * * * //

dimensions      [0 -2 0 1 0 0 0];

internalField   nonuniform List<scalar> 
4000
(
33449.308
33449.931
33449.451
33449.665
33449.645
33449.607
33449.575
33449.539
33449.498
33449.481
33449.931
33449.479
33449.53
33449.692
33449.661
33449.624
33449.592
33449.551
33449.501
33449.507
33449.451
33449.53
33449.442
33449.578
33449.546
33449.512
33449.483
33449.439
33449.371
33449.42
33449.665
33449.692
33449.578
33449.711
33449.681
33449.651
33449.628
33449.589
33449.514
33449.523
33449.645
33449.661
33449.546
33449.681
33449.653
33449.627
33449.609
33449.577
33449.51
33449.524
33449.607
33449.624
33449.512
33449.651
33449.627
33449.604
33449.59
33449.562
33449.498
33449.516
33449.575
33449.592
33449.483
33449.628
33449.609
33449.59
33449.577
33449.55
33449.487
33449.505
33449.539
33449.551
33449.439
33449.589
33449.577
33449.562
33449.55
33449.523
33449.457
33449.473
33449.498
33449.501
33449.371
33449.514
33449.51
33449.498
33449.487
33449.457
33449.389
33449.403
33449.481
33449.507
33449.42
33449.523
33449.524
33449.516
33449.505
33449.473
33449.403
33449.423
-225.36367
-223.62931
-225.85311
-225.13792
-225.03652
-225.03754
-225.04486
-225.05703
-225.07433
-225.07606
-223.62931
-224.82644
-225.45934
-224.84625
-224.77759
-224.78738
-224.80501
-224.81994
-224.74184
-224.73817
-225.85311
-225.45934
-226.3667
-225.80617
-225.74324
-225.75534
-225.78579
-225.83847
-225.74954
-225.3549
-225.13792
-224.84625
-225.80617
-225.25342
-225.19076
-225.2023
-225.23627
-225.31602
-225.31795
-225.11137
-225.03652
-224.77759
-225.74324
-225.19076
-225.12754
-225.13813
-225.17021
-225.24817
-225.25239
-225.06751
-225.03754
-224.78738
-225.75534
-225.2023
-225.13813
-225.1482
-225.17945
-225.25559
-225.25698
-225.07098
-225.04486
-224.80501
-225.78579
-225.23627
-225.17021
-225.17945
-225.21065
-225.28673
-225.2877
-225.09976
-225.05703
-224.81994
-225.83847
-225.31602
-225.24817
-225.25559
-225.28673
-225.36328
-225.3645
-225.17043
-225.07433
-224.74184
-225.74954
-225.31795
-225.25239
-225.25698
-225.2877
-225.3645
-225.36395
-225.14625
-225.07606
-224.73817
-225.3549
-225.11137
-225.06751
-225.07098
-225.09976
-225.17043
-225.14625
-224.87204
-114.88108
-112.88523
-115.5923
-114.5929
-114.45333
-114.45809
-114.47642
-114.49983
-114.47219
-114.76922
-112.88523
-114.55423
-115.26866
-114.41181
-114.31645
-114.33799
-114.38653
-114.4294
-114.05224
-114.08619
-115.5923
-115.26866
-116.34034
-115.55151
-115.46332
-115.48831
-115.56298
-115.70174
-115.36697
-114.8753
-114.5929
-114.41181
-115.55151
-114.77279
-114.68465
-114.708
-114.78695
-114.96979
-114.7773
-114.56529
-114.45333
-114.31645
-115.46332
-114.68465
-114.59556
-114.61715
-114.69254
-114.8725
-114.68421
-114.50946
-114.45809
-114.33799
-115.48831
-114.708
-114.61715
-114.63788
-114.7119
-114.88912
-114.69674
-114.52196
-114.47642
-114.38653
-115.56298
-114.78695
-114.69254
-114.7119
-114.78595
-114.96331
-114.7706
-114.59111
-114.49983
-114.4294
-115.70174
-114.96979
-114.8725
-114.88912
-114.96331
-115.14166
-114.94863
-114.74338
-114.47219
-114.05224
-115.36697
-114.7773
-114.68421
-114.69674
-114.7706
-114.94863
-114.74492
-114.42859
-114.76922
-114.08619
-114.8753
-114.56529
-114.50946
-114.52196
-114.59111
-114.74338
-114.42859
-114.33998
-9.7121172
-7.2993961
-10.542595
-9.2956678
-9.1213642
-9.1311555
-9.167029
-9.2087397
-9.0228196
-9.4197402
-7.2993961
-9.2531338
-10.11838
-9.0470664
-8.9270939
-8.9620785
-9.0557797
-9.1735749
-8.4508402
-8.4940987
-10.542595
-10.11838
-11.413027
-10.423483
-10.31172
-10.350121
-10.47927
-10.741555
-10.085578
-9.446327
-9.2956678
-9.0470664
-10.423483
-9.4461909
-9.3342931
-9.3699082
-9.5039129
-9.8270625
-9.3601357
-9.0758321
-9.1213642
-8.9270939
-10.31172
-9.3342931
-9.2211096
-9.2542355
-9.3832135
-9.7030213
-9.242862
-9.0092615
-9.1311555
-8.9620785
-10.350121
-9.3699082
-9.2542355
-9.2861763
-9.4133235
-9.7297719
-9.2648777
-9.0329511
-9.1670291
-9.0557797
-10.47927
-9.503913
-9.3832135
-9.4133235
-9.5406953
-9.85787
-9.3934934
-9.1544846
-9.2087397
-9.1735749
-10.741555
-9.8270625
-9.7030213
-9.7297719
-9.85787
-10.177276
-9.7117499
-9.4142965
-9.0228196
-8.4508402
-10.085578
-9.3601357
-9.242862
-9.2648777
-9.3934934
-9.7117499
-9.2126065
-8.5930694
-9.4197402
-8.4940987
-9.446327
-9.0758321
-9.0092615
-9.0329511
-9.1544846
-9.4142965
-8.5930694
-8.9063469
90.011404
92.802988
89.031691
90.511541
90.718604
90.702786
90.642645
90.555372
90.857304
90.372584
92.802988
90.569357
89.546162
90.819636
90.963071
90.914711
90.771117
90.552496
91.583962
91.515828
89.031691
89.546162
88.025298
89.204009
89.338309
89.286814
89.099274
88.689785
89.639157
90.407052
90.511541
90.819636
89.204009
90.368422
90.503032
90.455433
90.262377
89.775158
90.491139
90.83467
90.718604
90.963071
89.338309
90.503032
90.639231
90.594831
90.408175
89.92444
90.630886
90.911415
90.702786
90.914711
89.286814
90.455433
90.594831
90.551935
90.367528
89.887575
90.598966
90.875638
90.642645
90.771117
89.099274
90.262377
90.408175
90.367528
90.182571
89.700818
90.409641
90.693961
90.555372
90.552496
88.689785
89.775158
89.92444
89.887575
89.700818
89.21411
89.921681
90.298907
90.857304
91.583962
89.639157
90.491139
90.630886
90.598966
90.409641
89.921681
90.684144
91.665506
90.372584
91.515828
90.407052
90.83467
90.911415
90.875638
90.693961
90.298907
91.665506
90.931903
183.70988
186.84918
182.58139
184.28294
184.52124
184.49967
184.41497
184.27707
184.67928
184.11044
186.84918
184.35094
183.18041
184.64622
184.81212
184.75115
184.55831
184.23444
185.55448
185.46008
182.58139
183.18041
181.44718
182.80588
182.96177
182.89798
182.65299
182.093
183.31735
184.20423
184.28294
184.64622
182.80588
184.14833
184.3047
184.24589
183.99472
183.34046
184.28909
184.68588
184.52124
184.81212
182.96177
184.3047
184.46296
184.40804
184.16459
183.51383
184.4502
184.77237
184.49967
184.75115
182.89798
184.24589
184.40804
184.35494
184.11415
183.46752
184.40888
184.72478
184.41497
184.55831
182.65299
183.99472
184.16459
184.11415
183.87245
183.22277
184.15894
184.48174
184.27707
184.23444
182.093
183.34046
183.51383
183.46752
183.22277
182.56467
183.49517
183.94342
184.67928
185.55448
183.31735
184.28909
184.4502
184.40888
184.15894
183.49517
184.49793
185.84793
184.11044
185.46008
184.20423
184.68588
184.77237
184.72478
184.48174
183.94342
185.84793
184.70538
270.92406
274.38694
269.66034
271.57181
271.83968
271.81261
271.70404
271.51522
272.00949
271.35998
274.38694
271.64811
270.34425
271.99202
272.17915
272.10613
271.86543
271.43657
273.02737
272.90594
269.66034
270.34425
268.4162
269.9452
270.12153
270.04605
269.74537
269.03674
270.5184
271.51391
271.57181
271.99202
269.9452
271.45612
271.63311
271.56367
271.2562
270.43739
271.60309
272.04634
271.83968
272.17915
270.12153
271.63311
271.81226
271.7474
271.44893
270.63362
271.78445
272.14208
271.81261
272.10613
270.04605
271.56367
271.7474
271.68469
271.38928
270.57841
271.73423
272.08312
271.70404
271.86543
269.74537
271.2562
271.44893
271.38928
271.09262
270.27741
271.42526
271.77963
271.51522
271.43657
269.03674
270.43739
270.63362
270.57841
270.27741
269.4501
270.58702
271.09762
272.00949
273.02737
270.5184
271.60309
271.78445
271.73423
271.42526
270.58702
271.81134
273.51946
271.35998
272.90594
271.51391
272.04634
272.14208
272.08312
271.77963
271.09762
273.51946
271.98321
351.26685
355.02901
349.88402
351.99237
352.28787
352.25547
352.12369
351.88448
352.46347
351.73625
355.02901
352.07602
350.65361
352.47188
352.67881
352.5942
352.30712
351.77486
353.61777
353.46758
349.88402
350.65361
348.54946
350.23809
350.43352
350.34686
349.99245
349.13874
350.85904
351.95112
351.99237
352.47188
350.23809
351.90692
352.10318
352.02361
351.6619
350.68292
352.04933
352.53079
352.28787
352.67881
350.43352
352.10318
352.30188
352.22754
351.87608
350.9006
352.2497
352.63514
352.25547
352.5942
350.34686
352.02361
352.22754
352.15566
351.80764
350.83692
352.19099
352.56525
352.12369
352.30712
349.99245
351.6619
351.87608
351.80764
351.45805
350.48172
351.825
352.20302
351.88448
351.77486
349.13874
350.68292
350.9006
350.83692
350.48172
349.48957
350.81633
351.37978
352.46347
353.61777
350.85904
352.04933
352.2497
352.19099
351.825
350.81633
352.24416
354.2931
351.73625
353.46758
351.95112
352.53079
352.63514
352.56525
352.20302
351.37978
354.2931
352.37956
424.4026
428.43844
422.9175
425.20844
425.52946
425.49183
425.33758
425.04893
425.70514
424.90332
428.43844
425.29889
423.773
425.74925
425.97442
425.87869
425.54692
424.91367
426.98895
426.80801
422.9175
423.773
421.51217
423.34874
423.56182
423.46449
423.05862
422.06455
424.00381
425.1795
425.20844
425.74925
423.34874
425.16393
425.37801
425.2888
424.8752
423.74174
425.29171
425.80257
425.52946
425.97442
423.56182
425.37801
425.59479
425.51144
425.10927
423.97931
425.5097
425.91485
425.49183
425.87869
423.46449
425.2888
425.51144
425.43084
425.03249
423.90757
425.44289
425.83448
425.33758
425.54692
423.05862
424.8752
425.10927
425.03249
424.63226
423.5005
425.02225
425.41567
425.04893
424.91367
422.06455
423.74174
423.97931
423.90757
423.5005
422.34923
423.84876
424.4552
425.70514
426.98895
424.00381
425.29171
425.5097
425.44289
425.02225
423.84876
425.46172
427.83093
424.90332
426.80801
425.1795
425.80257
425.91485
425.83448
425.41567
424.4552
427.83093
425.55802
490.04791
494.3306
488.47782
490.93589
491.28015
491.23745
491.06159
490.7248
491.45049
490.57756
494.3306
491.03289
489.41878
491.53947
491.78122
491.67489
491.30044
490.56937
492.85621
492.64261
488.47782
489.41878
487.0212
488.99311
489.22225
489.11486
488.6601
487.53141
489.66902
490.91491
490.93589
491.53947
488.99311
490.94219
491.17252
491.07422
490.61142
489.33024
491.04593
491.57727
491.28015
491.78122
489.22225
491.17252
491.40578
491.31393
490.86369
489.58604
491.28007
491.69673
491.23745
491.67489
489.11486
491.07422
491.31393
491.22511
490.77905
489.50668
491.20558
491.60639
491.06159
491.30044
488.6601
490.61142
490.86369
490.77905
490.33078
489.05038
490.73298
491.13357
490.7248
490.56937
487.53141
489.33024
489.58604
489.50668
489.05038
487.74685
489.40151
490.04098
491.45049
492.85621
489.66902
491.04593
491.28007
491.20558
490.73298
489.40151
491.18069
493.8475
490.57756
492.64261
490.91491
491.57727
491.69673
491.60639
491.13357
490.04098
493.8475
491.23487
547.97433
552.47596
546.33678
548.94547
549.31056
549.26297
549.06652
548.68324
549.47043
548.53031
552.47596
549.04909
547.362
549.61274
549.86931
549.753
549.33815
548.51314
550.98982
550.74181
546.33678
547.362
544.84796
546.94177
547.18533
547.06853
546.56779
545.31118
547.62578
548.92818
548.94547
549.61274
546.94177
549.01147
549.25638
549.14961
548.64062
547.21953
549.08254
549.6255
549.31056
549.86931
547.18533
549.25638
549.50445
549.40468
548.90932
547.49179
549.33123
549.75133
549.26297
549.753
547.06853
549.14961
549.40468
549.3082
548.81733
547.40531
549.24955
549.65159
549.06652
549.33815
546.56779
548.64062
548.90932
548.81733
548.32395
546.90274
548.72802
549.12771
548.68324
548.51314
545.31118
547.21953
547.49179
547.40531
546.90274
545.45488
547.24653
547.90909
549.47043
550.98982
547.62578
549.08254
549.33123
549.24955
548.72802
547.24653
549.17253
552.11249
548.53031
550.74181
548.92818
549.6255
549.75133
549.65159
549.12771
547.90909
552.11249
549.18154
598.01028
602.70207
596.32288
599.06478
599.44816
599.39592
599.18004
598.75226
599.59279
598.58981
602.70207
599.17533
597.43045
599.79604
600.06559
599.93998
599.4873
598.57293
601.21701
600.93307
596.32288
597.43045
594.82041
597.02196
597.2782
597.15271
596.60923
595.23228
597.7019
599.04705
599.06478
599.79604
597.02196
599.19828
599.45603
599.34147
598.7896
597.23739
599.22887
599.77474
599.44816
600.06559
597.2782
599.45603
599.71714
599.61009
599.07284
597.52422
599.49046
599.90611
599.39592
599.93998
597.15271
599.34147
599.61009
599.50656
598.97409
597.43117
599.4021
599.79762
599.18004
599.4873
596.60923
598.7896
599.07284
598.97409
598.43883
596.8856
598.835
599.22595
598.75226
598.57293
595.23228
597.23739
597.52422
597.43117
596.8856
595.30235
597.21251
597.88831
599.59279
601.21701
597.7019
599.22887
599.49046
599.4021
598.835
597.21251
599.26552
602.45272
598.58981
600.93307
599.04705
599.77474
599.90611
599.79762
599.22595
597.88831
602.45272
599.22647
640.04229
644.89476
638.32256
641.17944
641.57849
641.52186
641.28785
640.81791
641.7035
640.64241
644.89476
641.2975
639.50976
641.97435
642.25499
642.12084
641.63315
640.63466
643.42312
643.10201
638.32256
639.50976
636.82424
639.11875
639.38586
639.25248
638.66975
637.18092
639.78318
641.15734
641.17944
641.97435
639.11875
641.38706
641.65585
641.53422
640.94308
639.26943
641.3703
641.91065
641.57849
642.25499
639.38586
641.65585
641.92818
641.81452
641.2389
639.5689
641.64303
642.0467
641.52186
642.12084
639.25248
641.53422
641.81452
641.7046
641.13402
639.46987
641.54857
641.93013
641.28785
641.63315
638.66975
640.94308
641.2389
641.13402
640.56038
638.88485
640.93957
641.31429
640.81791
640.63466
637.18092
639.26943
639.5689
639.46987
638.88485
637.17606
639.18606
639.86549
641.7035
643.42312
639.78318
641.3703
641.64303
641.54857
640.93957
639.18606
641.34608
644.75336
640.64241
643.10201
641.15734
641.91065
642.0467
641.93013
641.31429
639.86549
644.75336
641.25633
674.01551
678.99864
672.28069
675.23366
675.64567
675.58495
675.33424
674.8248
675.74715
674.63307
678.99864
675.35999
673.544
676.09119
676.38096
676.23909
675.71947
674.64273
677.5522
677.19298
672.28069
673.544
670.80337
673.17554
673.45168
673.31125
672.69305
671.10156
673.81388
675.20346
675.23366
676.09119
673.17554
675.52072
675.79869
675.67077
675.04422
673.25968
675.45072
675.9775
675.64567
676.38096
673.45168
675.79869
676.08035
675.96083
675.35061
673.56974
675.73279
676.11732
675.58495
676.23909
673.31125
675.67077
675.96083
675.84521
675.24027
673.46538
675.63285
675.99344
675.33424
675.71947
672.69305
675.04422
675.35061
675.24027
674.632
672.84474
674.98588
675.33734
674.8248
674.64273
671.10156
673.25968
673.56974
673.46538
672.84474
671.02114
673.11226
673.78605
675.74715
677.5522
673.81388
675.45072
675.73279
675.63285
674.98588
673.11226
675.35924
678.95845
674.63307
677.19298
675.20346
675.9775
676.11732
675.99344
675.33734
673.78605
678.95845
675.21646
699.93351
705.01691
698.20038
701.23004
701.65222
701.58776
701.3219
700.77592
701.72674
700.56519
705.01691
701.36555
699.53548
702.14842
702.44533
702.29663
701.74837
700.59984
703.60677
703.20887
698.20038
699.53548
696.75983
699.19395
699.47724
699.33066
698.68099
696.99681
699.79653
701.1883
701.23004
702.14842
699.19395
701.60047
701.88573
701.75236
701.09448
699.21033
701.47243
701.97804
701.65222
702.44533
699.47724
701.88573
702.17481
702.05019
701.40936
699.52893
701.76199
702.12073
701.58776
702.29663
699.33066
701.75236
702.05019
701.92963
701.29428
699.41991
701.6572
701.99032
701.3219
701.74837
698.68099
701.09448
701.40936
701.29428
700.65537
698.76769
700.97647
701.29815
700.77592
700.59984
696.99681
699.21033
699.52893
699.41991
698.76769
696.84081
698.99449
699.65378
701.72674
703.60677
699.79653
701.47243
701.76199
701.6572
700.97647
698.99449
701.30847
705.07072
700.56519
703.20887
701.1883
701.97804
702.12073
701.99032
701.29815
699.65378
705.07072
701.11074
717.85745
723.01055
716.14215
719.22869
719.65825
719.59042
719.31106
718.73179
719.70291
718.49973
723.01055
719.37442
717.54386
720.20541
720.50747
720.35285
719.77945
718.56613
721.64699
721.21024
716.14215
717.54386
714.75288
717.23296
717.52148
717.36969
716.69278
714.92651
717.79114
719.17229
719.22869
720.20541
717.23296
719.68501
719.97563
719.83766
719.15276
717.18098
719.49522
719.97263
719.65825
720.50747
717.52148
719.97563
720.27018
720.14127
719.47403
717.50601
719.79036
720.11727
719.59042
720.35285
717.36969
719.83766
720.14127
720.01655
719.35495
717.39304
719.68143
719.98119
719.31106
719.77945
716.69278
719.15276
719.47403
719.35495
718.68957
716.71349
718.97135
719.25736
718.73179
718.56613
714.92651
717.18098
717.50601
717.39304
716.71349
714.69557
716.89349
717.53
719.70291
721.64699
717.79114
719.49522
719.79036
719.68143
718.97135
716.89349
719.25483
723.15076
718.49973
721.21024
719.17229
719.97263
720.11727
719.98119
719.25736
717.53
723.15076
719.00071
727.9045
733.09667
726.22237
729.34575
729.77984
729.70904
729.41795
728.80889
729.79231
728.55371
733.09667
729.50278
727.6847
730.37751
730.68269
730.52314
729.92827
728.65765
731.78912
731.3138
726.22237
727.6847
724.89748
727.40735
727.69919
727.54317
726.84339
725.00625
727.91362
729.27193
729.34575
730.37751
727.40735
729.88893
730.18299
730.04131
729.33386
727.28703
729.63486
730.07773
729.77984
730.68269
727.69919
730.18299
730.48105
730.34868
729.6594
727.61636
729.93369
730.22339
729.70904
730.52314
727.54317
730.04131
730.34868
730.22061
729.53709
727.50017
729.82132
730.08251
729.41795
729.92827
726.84339
729.33386
729.6594
729.53709
728.84958
726.79773
729.0865
729.33166
728.80889
728.65765
725.00625
727.28703
727.61636
727.50017
726.79773
724.70162
726.92594
727.53201
729.79231
731.78912
727.91362
729.63486
729.93369
729.82132
729.0865
726.92594
729.31544
733.31544
728.55371
731.3138
729.27193
730.07773
730.22339
730.08251
729.33166
727.53201
733.31544
729.00403
730.24567
735.44642
728.61111
731.75115
732.18694
732.11362
731.81264
731.17754
732.16549
730.89798
735.44642
731.92058
730.12719
732.83385
733.14015
732.97669
732.36416
731.04421
734.20333
733.6902
728.61111
730.12719
727.36217
729.88558
730.17883
730.01958
729.30149
727.40516
730.33362
731.65756
731.75115
732.83385
729.88558
732.38063
732.6762
732.53174
731.80634
729.69756
732.06098
732.46367
732.18694
733.14015
730.17883
732.6762
732.97583
732.84087
732.13402
730.02905
732.36156
732.60941
732.11362
732.97669
730.01958
732.53174
732.84087
732.71028
732.00929
729.91042
732.2465
732.46465
731.81264
732.36416
729.30149
731.80634
732.13402
732.00929
731.30414
729.18964
731.49169
731.69161
731.17754
731.04421
727.40516
729.69756
730.02905
729.91042
729.18964
727.02875
729.26217
729.83091
732.16549
734.20333
730.33362
732.06098
732.36156
732.2465
731.49169
729.26217
731.66123
735.73574
730.89798
733.6902
731.65756
732.46367
732.60941
732.46465
731.69161
729.83091
735.73574
731.29228
725.10307
730.28214
723.52934
726.66591
727.10059
727.0252
726.71625
726.05907
727.04409
725.75446
730.28214
726.84878
725.09149
727.79463
728.10007
727.93375
727.30751
725.94655
729.11095
728.56127
723.52934
725.09149
722.36628
724.88704
725.1798
725.01836
724.28661
722.34323
725.27175
726.55065
726.66591
727.79463
724.88704
727.37955
727.67472
727.52843
726.78978
724.63257
726.99421
727.35193
727.10059
728.10007
725.1798
727.67472
727.97397
727.83731
727.1175
724.96409
727.29463
727.49683
727.0252
727.93375
725.01836
727.52843
727.83731
727.70506
726.99116
724.84379
727.17763
727.34914
726.71625
727.30751
724.28661
726.78978
727.1175
726.99116
726.27295
724.10937
726.40773
726.55886
726.05907
725.94655
722.34323
724.63257
724.96409
724.84379
724.10937
721.89752
724.12347
724.64881
727.04409
729.11095
725.27175
726.99421
727.29463
727.17763
726.40773
724.12347
726.51425
730.63398
725.75446
728.56127
726.55065
727.35193
727.49683
727.34914
726.55886
724.64881
730.63398
726.08818
712.74651
717.87409
711.24567
714.35879
714.78959
714.71261
714.39767
713.72256
714.69752
713.39286
717.87409
714.55603
712.84538
715.5278
715.83044
715.66233
715.02642
713.63313
716.78113
716.19672
711.24567
712.84538
710.17668
712.67876
712.96916
712.80659
712.06591
710.08793
712.99633
714.22043
714.35879
715.5278
712.67876
715.15286
715.44575
715.29858
714.55148
712.35968
714.70297
715.0118
714.78959
715.83044
712.96916
715.44575
715.74272
715.60524
714.87714
712.68913
715.00133
715.15496
714.71261
715.66233
712.80659
715.29858
715.60524
715.4722
714.75002
712.56795
714.88317
715.00529
714.39767
715.02642
712.06591
714.55148
714.87714
714.75002
714.02341
711.82464
714.10315
714.20285
713.72256
713.63313
710.08793
712.35968
712.68913
712.56795
711.82464
709.57603
711.77875
712.25554
714.69752
716.78113
712.99633
714.70297
715.00133
714.88317
714.10315
711.77875
714.14428
718.28048
713.39286
716.19672
714.22043
715.0118
715.15496
715.00529
714.20285
712.25554
718.28048
713.66231
693.48983
698.5366
692.07254
695.14253
695.56673
695.48868
695.16977
694.48103
695.43924
694.12686
698.5366
695.35492
693.70051
696.34529
696.64325
696.47444
695.83296
694.4163
697.52708
696.91032
692.07254
693.70051
691.10403
693.57164
693.85787
693.69522
692.9504
690.95055
693.81958
694.98015
695.14253
696.34529
693.57164
696.01174
696.30051
696.15342
695.40269
693.19039
695.49966
695.75664
695.56673
696.64325
693.85787
696.30051
696.59334
696.45595
695.72426
693.5157
695.79409
695.89715
695.48868
696.47444
693.69522
696.15342
696.45595
696.32298
695.5972
693.39444
695.67554
695.74648
695.16977
695.83296
692.9504
695.40269
695.72426
695.5972
694.86688
692.64705
694.89044
694.93703
694.48103
694.4163
690.95055
693.19039
693.5157
693.39444
692.64705
690.37611
692.5408
692.96485
695.43924
697.52708
693.81958
695.49966
695.79409
695.67554
694.89044
692.5408
694.86511
698.98977
694.12686
696.91032
694.98015
695.75664
695.89715
695.74648
694.93703
692.96485
698.98977
694.32924
667.68662
672.62396
666.36211
669.36971
669.78467
669.70606
669.38525
668.68733
669.62253
668.30994
672.62396
669.5978
668.00828
670.5989
670.89032
670.72193
670.07903
668.64815
671.70193
671.05579
666.36211
668.00828
665.49864
667.91637
668.19666
668.035
667.29083
665.28199
668.0935
669.18292
669.36971
670.5989
667.91637
670.30721
670.59009
670.44404
669.69452
667.47593
669.73652
669.93967
669.78467
670.89032
668.19666
670.59009
670.87697
670.74057
670.01
667.79509
670.02518
670.07666
669.70606
670.72193
668.035
670.44404
670.74057
670.60855
669.88383
667.67454
669.90704
669.92598
669.38525
670.07903
667.29083
669.69452
670.01
669.88383
669.15452
666.92789
669.1219
669.11471
668.68733
668.64815
665.28199
667.47593
667.79509
667.67454
666.92789
664.64921
666.76209
667.13026
669.62253
671.70193
668.0935
669.73652
670.02518
669.90704
669.1219
666.76209
669.03033
673.11642
668.30994
671.05579
669.18292
669.93967
670.07666
669.92598
669.11471
667.13026
673.11642
668.44342
635.72581
640.52587
634.50177
637.42826
637.83144
637.7528
637.43218
636.72959
637.63602
636.33095
640.52587
637.67233
636.15535
638.67577
638.95891
638.79204
638.15187
636.71609
639.69421
639.02224
634.50177
636.15535
633.74601
636.09891
636.37158
636.21197
635.47324
633.46837
636.20537
637.2172
637.42826
638.67577
636.09891
638.42572
638.70099
638.55695
637.81344
635.60282
637.80115
637.94951
637.83144
638.95891
636.37158
638.70099
638.98019
638.84567
638.12091
635.91386
638.08227
638.08215
637.7528
638.79204
636.21197
638.55695
638.84567
638.71547
637.99647
635.79484
637.96531
637.93244
637.43218
638.15187
635.47324
637.81344
638.12091
637.99647
637.27284
635.05371
637.18519
637.12455
636.72959
636.71609
633.46837
635.60282
635.91386
635.79484
635.05371
632.78192
634.83034
635.14057
637.63602
639.69421
636.20537
637.80115
638.08227
637.96531
637.18519
634.83034
637.02885
641.05054
636.33095
639.02224
637.2172
637.94951
638.08215
637.93244
637.12455
635.14057
641.05054
636.39469
598.02695
602.66275
596.90944
599.73678
600.12574
600.04762
599.72927
599.02663
599.89905
598.60935
602.66275
599.99679
598.559
600.99378
601.26698
601.10274
600.46944
599.03815
601.92317
601.22954
596.90944
598.559
596.26224
598.53591
598.79934
598.64282
597.91427
595.92631
598.57313
599.50216
599.73678
600.99378
598.53591
600.78445
601.05048
600.90938
600.17664
597.98817
600.11185
600.20552
600.12574
601.26698
598.79934
601.05048
601.32033
601.18858
600.47426
598.28924
600.38372
600.333
600.04762
601.10274
598.64282
600.90938
601.18858
601.06106
600.35236
598.17252
600.26871
600.18522
599.72927
600.46944
597.91427
600.17664
600.47426
600.35236
599.63904
597.44166
599.49859
599.38589
599.02663
599.03815
595.92631
597.98817
598.28924
598.17252
597.44166
595.19134
597.16384
597.41515
599.89905
601.92317
598.57313
600.11185
600.38372
600.26871
599.49859
597.16384
599.28023
603.21304
598.60935
601.22954
599.50216
600.20552
600.333
600.18522
599.38589
597.41515
603.21304
598.6035
555.03535
559.48093
554.0288
556.73972
557.11215
557.03509
556.72109
556.02303
556.85676
555.59042
559.48093
557.01527
555.6623
557.99671
558.25837
558.09786
557.47552
556.05815
558.83396
558.12344
554.0288
555.6623
553.48915
555.66985
555.9225
555.77011
555.05638
553.09818
555.6405
556.4828
556.73972
557.99671
555.66985
557.82652
558.08175
557.94453
557.22721
555.07495
557.11278
557.15289
557.11215
558.25837
555.9225
558.08175
558.34068
558.21256
557.51323
555.36424
557.37378
557.27446
557.03509
558.09786
555.77011
557.94453
558.21256
558.08856
557.39468
555.2506
557.26148
557.12958
556.72109
557.47552
555.05638
557.22721
557.51323
557.39468
556.69621
554.53466
556.50627
556.3439
556.02303
556.05815
553.09818
555.07495
555.36424
555.2506
554.53466
552.32025
554.20661
554.39915
556.85676
558.83396
555.6405
557.11278
557.37378
557.26148
556.50627
554.20661
556.22981
560.05083
555.59042
558.12344
556.4828
557.15289
557.27446
557.12958
556.3439
554.39915
560.05083
555.51615
507.21722
511.4477
506.32438
508.90249
509.25622
509.18077
508.87317
508.18434
508.97526
507.74032
511.4477
509.19278
507.92927
510.14933
510.39799
510.24228
509.63492
508.24083
510.89276
510.17068
506.32438
507.92927
505.88948
507.96419
508.20464
508.05737
507.36302
505.44722
507.87214
508.62508
508.90249
510.14933
507.96419
510.01611
510.2591
510.12665
509.42929
507.32702
509.26911
509.25785
509.25622
510.39799
508.20464
510.2591
510.50563
510.38199
509.70205
507.60286
509.51767
509.37277
509.18077
510.24228
508.05737
510.12665
510.38199
510.26232
509.58764
507.49304
509.40883
509.23174
508.87317
509.63492
507.36302
509.42929
509.70205
509.58764
508.90844
506.79656
508.67334
508.46473
508.18434
508.24083
505.44722
507.32702
507.60286
507.49304
506.79656
504.63226
506.42353
506.55857
508.97526
510.89276
507.87214
509.26911
509.51767
509.40883
508.67334
506.42353
508.34385
512.03184
507.74032
510.17068
508.62508
509.25785
509.37277
509.23174
508.46473
506.55857
512.03184
507.59982
455.05476
459.04645
454.27672
456.70661
457.03961
456.96633
456.66714
455.99214
456.73672
455.54128
459.04645
457.01041
455.83999
457.9326
458.16691
458.01704
457.4286
456.06703
458.58187
457.85413
454.27672
455.83999
453.94208
455.89856
456.12548
455.98431
455.31374
453.45274
455.74882
456.41106
456.70661
457.9326
455.89856
457.83364
458.06304
457.93623
457.26323
455.22441
457.06213
457.0027
457.03961
458.16691
456.12548
458.06304
458.29581
458.17745
457.5212
455.4852
457.29681
457.11031
456.96633
458.01704
455.98431
457.93623
458.17745
458.06291
457.41168
455.37995
457.19214
456.97404
456.66714
457.4286
455.31374
457.26323
457.5212
457.41168
456.75602
454.70732
456.48101
456.23059
455.99214
456.06703
453.45274
455.22441
455.4852
455.37995
454.70732
452.60697
454.29549
454.37541
456.73672
458.58187
455.74882
457.06213
457.29681
457.19214
456.48101
454.29549
456.10465
459.64019
455.54128
457.85413
456.41106
457.0027
457.11031
456.97404
456.23059
454.37541
459.64019
455.33775
399.04143
402.77192
398.37765
400.64494
400.95535
400.88478
400.59599
399.93937
400.63467
399.48681
402.77192
400.96057
399.88596
401.83893
402.05765
401.91465
401.34891
400.02895
402.39498
401.66801
398.37765
399.88596
398.13712
399.96402
400.1762
400.04206
399.3995
397.60532
399.76265
400.33415
400.64494
401.83893
399.96402
401.77104
401.98561
401.86527
401.22085
399.25849
400.98453
400.88114
400.95535
402.05765
400.1762
401.98561
402.20336
402.09107
401.46259
399.50278
401.20398
400.98082
400.88478
401.91465
400.04206
401.86527
402.09107
401.98241
401.3587
399.40278
401.10418
400.85019
400.59599
401.34891
399.3995
401.22085
401.46259
401.3587
400.73069
398.75823
400.42189
400.13501
399.93937
400.02895
397.60532
399.25849
399.50278
399.40278
398.75823
396.73524
398.31468
398.34291
400.63467
402.39498
399.76265
400.98453
401.20398
401.10418
400.42189
398.31468
400.00578
403.37137
399.48681
401.66801
400.33415
400.88114
400.98082
400.85019
400.13501
398.34291
403.37137
399.22439
339.67732
343.12555
339.12564
341.21713
341.50327
341.43594
341.15944
340.52565
341.16932
340.07707
343.12555
341.54243
340.56541
342.36757
342.56957
342.43442
341.89503
340.62552
342.83257
342.11329
339.12564
340.56541
338.97161
340.6585
340.85484
340.72862
340.11811
338.40234
340.41249
340.89448
341.21713
342.36757
340.6585
342.32712
342.52576
342.41268
341.80084
339.92746
341.53582
341.39359
341.50327
342.56957
340.85484
342.52576
342.72734
342.62186
342.02507
340.15391
341.7388
341.4848
341.43594
342.43442
340.72862
342.41268
342.62186
342.5198
341.92749
340.05984
341.64452
341.36066
341.15944
341.89503
340.11811
341.80084
342.02507
341.92749
341.33104
339.44738
340.99536
340.67827
340.52565
340.62552
338.40234
339.92746
340.15391
340.05984
339.44738
337.51466
338.97997
338.96097
341.16932
342.83257
340.41249
341.53582
341.7388
341.64452
340.99536
338.97997
340.54751
343.72765
340.07707
342.11329
340.89448
341.39359
341.4848
341.36066
340.67827
338.96097
343.72765
339.76086
277.46478
280.61113
277.02154
278.9252
279.18554
279.12199
278.85962
278.25299