/*--------------------------------*- C++ -*----------------------------------*\
| =========                 |                                                 |
| \\      /  F ield         | OpenFOAM: The Open Source CFD Toolbox           |
|  \\    /   O peration     | Version:  v2106                                 |
|   \\  /    A nd           | Website:  www.openfoam.com                      |
|    \\/     M anipulation  |                                                 |
\*---------------------------------------------------------------------------*/
FoamFile
{
    version     2.0;
    format      ascii;
    arch        "LSB;label=32;scalar=64";
    class       volScalarField;
    location    "27.5";
    object      T;
}
// * * * * * * * * * * * * * * * * * * * * * * * * * * * * * * * * * * * * * //

dimensions      [0 0 0 1 0 0 0];

internalField   nonuniform List<scalar> 
4000
(
274.74808
274.74807
274.7481
274.74809
274.74809
274.74809
274.74809
274.74809
274.74808
274.74808
274.74807
274.74809
274.7481
274.7481
274.74809
274.74809
274.74809
274.74809
274.74809
274.74808
274.7481
274.7481
274.74811
274.74811
274.7481
274.7481
274.7481
274.7481
274.7481
274.74809
274.74809
274.7481
274.74811
274.7481
274.7481
274.7481
274.7481
274.7481
274.7481
274.74809
274.74809
274.74809
274.7481
274.7481
274.7481
274.7481
274.7481
274.7481
274.74809
274.74809
274.74809
274.74809
274.7481
274.7481
274.7481
274.7481
274.7481
274.7481
274.74809
274.74809
274.74809
274.74809
274.7481
274.7481
274.7481
274.7481
274.7481
274.7481
274.74809
274.74809
274.74809
274.74809
274.7481
274.7481
274.7481
274.7481
274.7481
274.74809
274.74809
274.74809
274.74808
274.74809
274.7481
274.7481
274.74809
274.74809
274.74809
274.74809
274.74809
274.74809
274.74808
274.74808
274.74809
274.74809
274.74809
274.74809
274.74809
274.74809
274.74809
274.74808
281.58919
281.58918
281.58925
281.58924
281.58923
281.58922
281.58921
281.58921
281.5892
281.58919
281.58918
281.58922
281.58926
281.58925
281.58924
281.58923
281.58923
281.58922
281.5892
281.58919
281.58925
281.58926
281.58931
281.58929
281.58928
281.58927
281.58927
281.58926
281.58924
281.58922
281.58924
281.58925
281.58929
281.58928
281.58927
281.58926
281.58926
281.58925
281.58924
281.58922
281.58923
281.58924
281.58928
281.58927
281.58926
281.58925
281.58925
281.58925
281.58923
281.58922
281.58922
281.58923
281.58927
281.58926
281.58925
281.58925
281.58925
281.58924
281.58923
281.58922
281.58921
281.58923
281.58927
281.58926
281.58925
281.58925
281.58925
281.58924
281.58923
281.58922
281.58921
281.58922
281.58926
281.58925
281.58925
281.58924
281.58924
281.58924
281.58923
281.58921
281.5892
281.5892
281.58924
281.58924
281.58923
281.58923
281.58923
281.58923
281.58921
281.5892
281.58919
281.58919
281.58922
281.58922
281.58922
281.58922
281.58922
281.58921
281.5892
281.58918
288.4078
288.40778
288.40789
288.40787
288.40785
288.40784
288.40783
288.40781
288.40779
288.40779
288.40778
288.40784
288.40791
288.40789
288.40787
288.40786
288.40785
288.40783
288.4078
288.40778
288.40789
288.40791
288.40797
288.40795
288.40793
288.40792
288.40791
288.4079
288.40786
288.40783
288.40787
288.40789
288.40795
288.40793
288.40791
288.4079
288.4079
288.40789
288.40786
288.40783
288.40785
288.40787
288.40793
288.40791
288.4079
288.40789
288.40788
288.40788
288.40785
288.40782
288.40784
288.40786
288.40792
288.4079
288.40789
288.40788
288.40788
288.40787
288.40785
288.40782
288.40783
288.40785
288.40791
288.4079
288.40788
288.40788
288.40788
288.40787
288.40785
288.40782
288.40781
288.40783
288.4079
288.40789
288.40788
288.40787
288.40787
288.40787
288.40784
288.40781
288.40779
288.4078
288.40786
288.40786
288.40785
288.40785
288.40785
288.40784
288.40781
288.40778
288.40779
288.40778
288.40783
288.40783
288.40782
288.40782
288.40782
288.40781
288.40778
288.40776
295.21494
295.21493
295.21505
295.21504
295.21501
295.21499
295.21497
295.21495
295.21491
295.21491
295.21493
295.215
295.21508
295.21506
295.21503
295.21502
295.215
295.21498
295.21492
295.2149
295.21505
295.21508
295.21515
295.21513
295.2151
295.21509
295.21508
295.21506
295.215
295.21495
295.21504
295.21506
295.21513
295.2151
295.21508
295.21507
295.21506
295.21505
295.215
295.21496
295.21501
295.21503
295.2151
295.21508
295.21506
295.21505
295.21504
295.21504
295.21499
295.21495
295.21499
295.21502
295.21509
295.21507
295.21505
295.21504
295.21504
295.21503
295.21499
295.21495
295.21497
295.215
295.21508
295.21506
295.21504
295.21504
295.21504
295.21503
295.21499
295.21495
295.21495
295.21498
295.21506
295.21505
295.21504
295.21503
295.21503
295.21502
295.21498
295.21494
295.21491
295.21492
295.215
295.215
295.21499
295.21499
295.21499
295.21498
295.21492
295.21488
295.21491
295.2149
295.21495
295.21496
295.21495
295.21495
295.21495
295.21494
295.21488
295.21486
302.02115
302.02113
302.02127
302.02125
302.02122
302.02119
302.02117
302.02115
302.0211
302.02109
302.02113
302.02121
302.02131
302.02128
302.02125
302.02123
302.02121
302.02118
302.02111
302.02107
302.02127
302.02131
302.02139
302.02136
302.02133
302.02131
302.0213
302.02128
302.0212
302.02114
302.02125
302.02128
302.02136
302.02133
302.0213
302.02129
302.02128
302.02127
302.0212
302.02114
302.02122
302.02125
302.02133
302.0213
302.02127
302.02126
302.02126
302.02125
302.02119
302.02114
302.02119
302.02123
302.02131
302.02129
302.02126
302.02125
302.02126
302.02125
302.02119
302.02114
302.02117
302.02121
302.0213
302.02128
302.02126
302.02126
302.02126
302.02125
302.02119
302.02114
302.02115
302.02118
302.02128
302.02127
302.02125
302.02125
302.02125
302.02125
302.02118
302.02112
302.0211
302.02111
302.0212
302.0212
302.02119
302.02119
302.02119
302.02118
302.0211
302.02104
302.02109
302.02107
302.02114
302.02114
302.02114
302.02114
302.02114
302.02112
302.02104
302.02101
308.83639
308.83637
308.83653
308.8365
308.83646
308.83644
308.83641
308.83638
308.83632
308.83631
308.83637
308.83646
308.83657
308.83653
308.83649
308.83647
308.83646
308.83642
308.83633
308.83629
308.83653
308.83657
308.83666
308.83662
308.83659
308.83657
308.83656
308.83654
308.83644
308.83636
308.8365
308.83653
308.83662
308.83658
308.83655
308.83654
308.83654
308.83652
308.83643
308.83637
308.83646
308.83649
308.83659
308.83655
308.83652
308.83651
308.83651
308.83651
308.83643
308.83637
308.83644
308.83647
308.83657
308.83654
308.83651
308.8365
308.83651
308.83651
308.83643
308.83637
308.83641
308.83646
308.83656
308.83654
308.83651
308.83651
308.83652
308.83651
308.83643
308.83638
308.83638
308.83642
308.83654
308.83652
308.83651
308.83651
308.83651
308.83651
308.83642
308.83635
308.83632
308.83633
308.83644
308.83643
308.83643
308.83643
308.83643
308.83642
308.83632
308.83624
308.83631
308.83629
308.83636
308.83637
308.83637
308.83637
308.83638
308.83635
308.83624
308.83622
315.67003
315.67001
315.67019
315.67016
315.67011
315.67009
315.67006
315.67003
315.66996
315.66994
315.67001
315.67011
315.67023
315.67019
315.67015
315.67013
315.67011
315.67008
315.66997
315.66992
315.67019
315.67023
315.67033
315.67029
315.67025
315.67023
315.67023
315.6702
315.67009
315.67
315.67016
315.67019
315.67029
315.67025
315.67021
315.6702
315.6702
315.67019
315.67008
315.67001
315.67011
315.67015
315.67025
315.67021
315.67018
315.67017
315.67017
315.67017
315.67008
315.67001
315.67009
315.67013
315.67023
315.6702
315.67017
315.67016
315.67017
315.67017
315.67008
315.67002
315.67006
315.67011
315.67023
315.6702
315.67017
315.67017
315.67019
315.67019
315.67009
315.67002
315.67003
315.67008
315.6702
315.67019
315.67017
315.67017
315.67019
315.67018
315.67008
315.67
315.66996
315.66997
315.67009
315.67008
315.67008
315.67008
315.67009
315.67008
315.66996
315.66987
315.66994
315.66992
315.67
315.67001
315.67001
315.67002
315.67002
315.67
315.66987
315.66984
322.53082
322.53079
322.53099
322.53095
322.5309
322.53087
322.53085
322.53082
322.53074
322.53072
322.53079
322.5309
322.53103
322.53098
322.53094
322.53091
322.5309
322.53087
322.53075
322.53069
322.53099
322.53103
322.53114
322.53109
322.53105
322.53103
322.53103
322.531
322.53087
322.53078
322.53095
322.53098
322.53109
322.53104
322.531
322.53099
322.531
322.53099
322.53087
322.53079
322.5309
322.53094
322.53105
322.531
322.53096
322.53096
322.53097
322.53097
322.53087
322.53079
322.53087
322.53091
322.53103
322.53099
322.53096
322.53095
322.53097
322.53098
322.53087
322.5308
322.53085
322.5309
322.53103
322.531
322.53097
322.53097
322.53099
322.531
322.53089
322.53082
322.53082
322.53087
322.531
322.53099
322.53097
322.53098
322.531
322.531
322.53088
322.53079
322.53074
322.53075
322.53087
322.53087
322.53087
322.53087
322.53089
322.53088
322.53075
322.53064
322.53072
322.53069
322.53078
322.53079
322.53079
322.5308
322.53082
322.53079
322.53064
322.53061
329.42678
329.42675
329.42696
329.42691
329.42686
329.42683
329.42681
329.42678
329.4267
329.42668
329.42675
329.42687
329.427
329.42695
329.4269
329.42688
329.42687
329.42683
329.4267
329.42665
329.42696
329.427
329.42712
329.42706
329.42702
329.427
329.427
329.42698
329.42684
329.42674
329.42691
329.42695
329.42706
329.42701
329.42696
329.42695
329.42697
329.42696
329.42684
329.42675
329.42686
329.4269
329.42702
329.42696
329.42693
329.42692
329.42694
329.42695
329.42683
329.42675
329.42683
329.42688
329.427
329.42695
329.42692
329.42692
329.42695
329.42696
329.42685
329.42677
329.42681
329.42687
329.427
329.42697
329.42694
329.42695
329.42697
329.42698
329.42687
329.42679
329.42678
329.42683
329.42698
329.42696
329.42695
329.42696
329.42698
329.42699
329.42686
329.42677
329.4267
329.4267
329.42684
329.42684
329.42683
329.42685
329.42687
329.42686
329.42672
329.42659
329.42668
329.42665
329.42674
329.42675
329.42675
329.42677
329.42679
329.42677
329.42659
329.42656
336.36524
336.36521
336.36542
336.36537
336.36532
336.36529
336.36527
336.36524
336.36515
336.36513
336.36521
336.36533
336.36547
336.36541
336.36536
336.36533
336.36533
336.3653
336.36516
336.3651
336.36542
336.36547
336.36559
336.36553
336.36548
336.36546
336.36547
336.36546
336.3653
336.3652
336.36537
336.36541
336.36553
336.36547
336.36542
336.36541
336.36543
336.36544
336.3653
336.36521
336.36532
336.36536
336.36548
336.36542
336.36538
336.36538
336.36541
336.36542
336.3653
336.36521
336.36529
336.36533
336.36546
336.36541
336.36538
336.36538
336.36542
336.36544
336.36532
336.36523
336.36527
336.36533
336.36547
336.36543
336.36541
336.36542
336.36545
336.36547
336.36535
336.36526
336.36524
336.3653
336.36546
336.36544
336.36542
336.36544
336.36547
336.36548
336.36535
336.36524
336.36515
336.36516
336.3653
336.3653
336.3653
336.36532
336.36535
336.36535
336.36519
336.36505
336.36513
336.3651
336.3652
336.36521
336.36521
336.36523
336.36526
336.36524
336.36505
336.36502
343.35277
343.35273
343.35296
343.3529
343.35284
343.35281
343.3528
343.35277
343.35268
343.35266
343.35273
343.35286
343.353
343.35293
343.35288
343.35286
343.35286
343.35283
343.35268
343.35262
343.35296
343.353
343.35312
343.35305
343.353
343.35299
343.353
343.35299
343.35284
343.35272
343.3529
343.35293
343.35305
343.35299
343.35294
343.35294
343.35296
343.35297
343.35284
343.35274
343.35284
343.35288
343.353
343.35294
343.3529
343.3529
343.35294
343.35296
343.35283
343.35275
343.35281
343.35286
343.35299
343.35294
343.3529
343.35291
343.35295
343.35298
343.35286
343.35277
343.3528
343.35286
343.353
343.35296
343.35294
343.35295
343.353
343.35302
343.35289
343.3528
343.35277
343.35283
343.35299
343.35297
343.35296
343.35298
343.35302
343.35304
343.3529
343.35279
343.35268
343.35268
343.35284
343.35284
343.35283
343.35286
343.35289
343.3529
343.35273
343.35258
343.35266
343.35262
343.35272
343.35274
343.35275
343.35277
343.3528
343.35279
343.35258
343.35256
350.39516
350.39512
350.39535
350.39529
350.39523
350.3952
350.39519
350.39517
350.39508
350.39506
350.39512
350.39525
350.39539
350.39532
350.39527
350.39525
350.39525
350.39523
350.39508
350.39502
350.39535
350.39539
350.39552
350.39545
350.39539
350.39538
350.3954
350.3954
350.39524
350.39512
350.39529
350.39532
350.39545
350.39538
350.39533
350.39533
350.39536
350.39538
350.39524
350.39514
350.39523
350.39527
350.39539
350.39533
350.39529
350.39529
350.39534
350.39537
350.39524
350.39515
350.3952
350.39525
350.39538
350.39533
350.39529
350.39531
350.39535
350.39539
350.39526
350.39518
350.39519
350.39525
350.3954
350.39536
350.39534
350.39535
350.39541
350.39544
350.39531
350.39522
350.39517
350.39523
350.3954
350.39538
350.39537
350.39539
350.39544
350.39547
350.39532
350.39521
350.39508
350.39508
350.39524
350.39524
350.39524
350.39526
350.39531
350.39532
350.39515
350.39499
350.39506
350.39502
350.39512
350.39514
350.39515
350.39518
350.39522
350.39521
350.39499
350.39497
357.49744
357.49739
357.49763
357.49756
357.4975
357.49747
357.49747
357.49745
357.49735
357.49734
357.49739
357.49752
357.49767
357.49759
357.49753
357.49751
357.49752
357.49751
357.49736
357.49729
357.49763
357.49767
357.49779
357.49771
357.49766
357.49765
357.49768
357.49768
357.49752
357.4974
357.49756
357.49759
357.49771
357.49764
357.49759
357.49759
357.49763
357.49766
357.49752
357.49742
357.4975
357.49753
357.49766
357.49759
357.49755
357.49756
357.49761
357.49765
357.49752
357.49743
357.49747
357.49751
357.49765
357.49759
357.49756
357.49758
357.49763
357.49768
357.49755
357.49747
357.49747
357.49752
357.49768
357.49763
357.49761
357.49763
357.4977
357.49774
357.49761
357.49752
357.49745
357.49751
357.49768
357.49766
357.49765
357.49768
357.49774
357.49778
357.49763
357.49751
357.49735
357.49736
357.49752
357.49752
357.49752
357.49755
357.49761
357.49763
357.49745
357.49728
357.49734
357.49729
357.4974
357.49742
357.49743
357.49747
357.49752
357.49751
357.49728
357.49727
364.6638
364.66375
364.66399
364.66392
364.66385
364.66383
364.66383
364.66382
364.66372
364.66371
364.66375
364.66388
364.66402
364.66394
364.66388
364.66387
364.66389
364.66388
364.66372
364.66366
364.66399
364.66402
364.66415
364.66407
364.66401
364.66401
364.66404
364.66406
364.66389
364.66377
364.66392
364.66394
364.66407
364.66399
364.66394
364.66394
364.664
364.66403
364.66389
364.66379
364.66385
364.66388
364.66401
364.66394
364.6639
364.66391
364.66397
364.66402
364.66389
364.6638
364.66383
364.66387
364.66401
364.66394
364.66391
364.66393
364.664
364.66406
364.66393
364.66385
364.66383
364.66389
364.66404
364.664
364.66397
364.664
364.66407
364.66413
364.664
364.66391
364.66382
364.66388
364.66406
364.66403
364.66402
364.66406
364.66413
364.66418
364.66403
364.66391
364.66372
364.66372
364.66389
364.66389
364.66389
364.66393
364.664
364.66403
364.66384
364.66367
364.66371
364.66366
364.66377
364.66379
364.6638
364.66385
364.66391
364.66391
364.66367
364.66366
371.89766
371.89761
371.89784
371.89777
371.8977
371.89768
371.89769
371.89768
371.89759
371.89758
371.89761
371.89773
371.89788
371.89779
371.89773
371.89772
371.89774
371.89774
371.89759
371.89753
371.89784
371.89788
371.898
371.89791
371.89786
371.89786
371.8979
371.89792
371.89776
371.89764
371.89777
371.89779
371.89791
371.89783
371.89778
371.89779
371.89785
371.8979
371.89776
371.89766
371.8977
371.89773
371.89786
371.89778
371.89774
371.89776
371.89783
371.89789
371.89776
371.89768
371.89768
371.89772
371.89786
371.89779
371.89776
371.89779
371.89786
371.89793
371.89781
371.89773
371.89769
371.89774
371.8979
371.89785
371.89783
371.89786
371.89795
371.89801
371.89788
371.89779
371.89768
371.89774
371.89792
371.8979
371.89789
371.89793
371.89801
371.89807
371.89792
371.8978
371.89759
371.89759
371.89776
371.89776
371.89776
371.89781
371.89788
371.89792
371.89774
371.89756
371.89758
371.89753
371.89764
371.89766
371.89768
371.89773
371.89779
371.8978
371.89756
371.89756
379.20162
379.20156
379.20179
379.20171
379.20165
379.20163
379.20164
379.20164
379.20156
379.20155
379.20156
379.20168
379.20182
379.20173
379.20167
379.20166
379.20169
379.2017
379.20155
379.20149
379.20179
379.20182
379.20194
379.20185
379.20179
379.2018
379.20185
379.20188
379.20172
379.2016
379.20171
379.20173
379.20185
379.20176
379.20171
379.20173
379.2018
379.20186
379.20172
379.20162
379.20165
379.20167
379.20179
379.20171
379.20167
379.2017
379.20178
379.20185
379.20173
379.20165
379.20163
379.20166
379.2018
379.20173
379.2017
379.20173
379.20182
379.2019
379.20178
379.2017
379.20164
379.20169
379.20185
379.2018
379.20178
379.20182
379.20191
379.20199
379.20187
379.20178
379.20164
379.2017
379.20188
379.20186
379.20185
379.2019
379.20199
379.20206
379.20191
379.2018
379.20156
379.20155
379.20172
379.20172
379.20173
379.20178
379.20187
379.20191
379.20173
379.20156
379.20155
379.20149
379.2016
379.20162
379.20165
379.2017
379.20178
379.2018
379.20156
379.20156
386.57747
386.57741
386.57763
386.57755
386.57749
386.57747
386.57749
386.5775
386.57742
386.57741
386.57741
386.57752
386.57766
386.57757
386.5775
386.5775
386.57754
386.57756
386.57741
386.57736
386.57763
386.57766
386.57777
386.57768
386.57762
386.57763
386.57769
386.57774
386.57758
386.57747
386.57755
386.57757
386.57768
386.57759
386.57754
386.57756
386.57764
386.57771
386.57758
386.57749
386.57749
386.5775
386.57762
386.57754
386.5775
386.57753
386.57762
386.57771
386.57759
386.57751
386.57747
386.5775
386.57763
386.57756
386.57753
386.57757
386.57767
386.57776
386.57765
386.57758
386.57749
386.57754
386.57769
386.57764
386.57762
386.57767
386.57777
386.57786
386.57774
386.57766
386.5775
386.57756
386.57774
386.57771
386.57771
386.57776
386.57786
386.57794
386.5778
386.57769
386.57742
386.57741
386.57758
386.57758
386.57759
386.57765
386.57774
386.5778
386.57762
386.57745
386.57741
386.57736
386.57747
386.57749
386.57751
386.57758
386.57766
386.57769
386.57745
386.57745
394.02622
394.02616
394.02638
394.0263
394.02623
394.02622
394.02625
394.02626
394.02619
394.02619
394.02616
394.02627
394.0264
394.02631
394.02625
394.02625
394.02629
394.02632
394.02618
394.02613
394.02638
394.0264
394.02651
394.02642
394.02636
394.02638
394.02644
394.0265
394.02634
394.02624
394.0263
394.02631
394.02642
394.02633
394.02628
394.02631
394.02639
394.02647
394.02634
394.02626
394.02623
394.02625
394.02636
394.02628
394.02624
394.02628
394.02638
394.02647
394.02636
394.02629
394.02622
394.02625
394.02638
394.02631
394.02628
394.02632
394.02643
394.02653
394.02643
394.02636
394.02625
394.02629
394.02644
394.02639
394.02638
394.02643
394.02654
394.02664
394.02653
394.02645
394.02626
394.02632
394.0265
394.02647
394.02647
394.02653
394.02664
394.02673
394.0266
394.02649
394.02619
394.02618
394.02634
394.02634
394.02636
394.02643
394.02653
394.0266
394.02642
394.02625
394.02619
394.02613
394.02624
394.02626
394.02629
394.02636
394.02645
394.02649
394.02625
394.02626
401.54813
401.54807
401.54828
401.54819
401.54813
401.54812
401.54816
401.54818
401.54811
401.54812
401.54807
401.54817
401.5483
401.5482
401.54814
401.54814
401.5482
401.54823
401.5481
401.54806
401.54828
401.5483
401.5484
401.5483
401.54825
401.54827
401.54834
401.54841
401.54826
401.54816
401.54819
401.5482
401.5483
401.54821
401.54816
401.5482
401.54829
401.54838
401.54826
401.54818
401.54813
401.54814
401.54825
401.54816
401.54813
401.54817
401.54828
401.54838
401.54828
401.54822
401.54812
401.54814
401.54827
401.5482
401.54817
401.54822
401.54834
401.54845
401.54835
401.54829
401.54816
401.5482
401.54834
401.54829
401.54828
401.54834
401.54846
401.54857
401.54847
401.54839
401.54818
401.54823
401.54841
401.54838
401.54838
401.54845
401.54857
401.54867
401.54854
401.54844
401.54811
401.5481
401.54826
401.54826
401.54828
401.54835
401.54847
401.54854
401.54837
401.54821
401.54812
401.54806
401.54816
401.54818
401.54822
401.54829
401.54839
401.54844
401.54821
401.54822
409.14268
409.14261
409.14282
409.14273
409.14267
409.14267
409.14271
409.14274
409.14268
409.14269
409.14261
409.14271
409.14283
409.14273
409.14267
409.14268
409.14274
409.14279
409.14266
409.14262
409.14282
409.14283
409.14293
409.14283
409.14278
409.1428
409.14288
409.14296
409.14282
409.14273
409.14273
409.14273
409.14283
409.14273
409.14269
409.14273
409.14283
409.14293
409.14282
409.14275
409.14267
409.14267
409.14278
409.14269
409.14266
409.14271
409.14282
409.14294
409.14285
409.14279
409.14267
409.14268
409.1428
409.14273
409.14271
409.14276
409.14289
409.14301
409.14292
409.14287
409.14271
409.14274
409.14288
409.14283
409.14282
409.14289
409.14301
409.14314
409.14304
409.14298
409.14274
409.14279
409.14296
409.14293
409.14294
409.14301
409.14314
409.14325
409.14313
409.14304
409.14268
409.14266
409.14282
409.14282
409.14285
409.14292
409.14304
409.14313
409.14297
409.14281
409.14269
409.14262
409.14273
409.14275
409.14279
409.14287
409.14298
409.14304
409.14281
409.14283
416.80864
416.80857
416.80877
416.80868
416.80862
416.80862
416.80867
416.80871
416.80866
416.80867
416.80857
416.80866
416.80877
416.80868
416.80862
416.80863
416.8087
416.80875
416.80864
416.80861
416.80877
416.80877
416.80887
416.80877
416.80872
416.80875
416.80884
416.80892
416.80879
416.80871
416.80868
416.80868
416.80877
416.80867
416.80863
416.80867
416.80878
416.80889
416.8088
416.80873
416.80862
416.80862
416.80872
416.80863
416.8086
416.80865
416.80878
416.8089
416.80882
416.80877
416.80862
416.80863
416.80875
416.80867
416.80865
416.80872
416.80885
416.80898
416.8089
416.80886
416.80867
416.8087
416.80884
416.80878
416.80878
416.80885
416.80898
416.80911
416.80903
416.80898
416.80871
416.80875
416.80892
416.80889
416.8089
416.80898
416.80911
416.80924
416.80913
416.80904
416.80866
416.80864
416.80879
416.8088
416.80882
416.8089
416.80903
416.80913
416.80898
416.80882
416.80867
416.80861
416.80871
416.80873
416.80877
416.80886
416.80898
416.80904
416.80882
416.80885
424.5441
424.54403
424.54421
424.54412
424.54407
424.54407
424.54413
424.54417
424.54413
424.54415
424.54403
424.54411
424.54421
424.54411
424.54406
424.54408
424.54415
424.54422
424.54411
424.54408
424.54421
424.54421
424.5443
424.5442
424.54415
424.54419
424.54428
424.54437
424.54426
424.54418
424.54412
424.54411
424.5442
424.54411
424.54407
424.54411
424.54423
424.54435
424.54426
424.54421
424.54407
424.54406
424.54415
424.54407
424.54404
424.5441
424.54423
424.54436
424.54429
424.54425
424.54407
424.54408
424.54419
424.54411
424.5441
424.54416
424.5443
424.54444
424.54438
424.54434
424.54413
424.54415
424.54428
424.54423
424.54423
424.5443
424.54444
424.54459
424.54451
424.54447
424.54417
424.54422
424.54437
424.54435
424.54436
424.54444
424.54459
424.54472
424.54462
424.54454
424.54413
424.54411
424.54426
424.54426
424.54429
424.54438
424.54451
424.54462
424.54448
424.54433
424.54415
424.54408
424.54418
424.54421
424.54425
424.54434
424.54447
424.54454
424.54433
424.54437
432.34647
432.3464
432.34657
432.34649
432.34643
432.34644
432.3465
432.34656
432.34652
432.34655
432.3464
432.34647
432.34657
432.34647
432.34642
432.34644
432.34652
432.34659
432.3465
432.34648
432.34657
432.34657
432.34664
432.34655
432.3465
432.34654
432.34665
432.34674
432.34664
432.34657
432.34649
432.34647
432.34655
432.34646
432.34642
432.34647
432.34659
432.34672
432.34665
432.3466
432.34643
432.34642
432.3465
432.34642
432.3464
432.34646
432.34659
432.34674
432.34668
432.34664
432.34644
432.34644
432.34654
432.34647
432.34646
432.34653
432.34667
432.34682
432.34677
432.34674
432.3465
432.34652
432.34665
432.34659
432.34659
432.34667
432.34682
432.34697
432.34691
432.34687
432.34656
432.34659
432.34674
432.34672
432.34674
432.34682
432.34697
432.34711
432.34703
432.34695
432.34652
432.3465
432.34664
432.34665
432.34668
432.34677
432.34691
432.34703
432.3469
432.34675
432.34655
432.34648
432.34657
432.3466
432.34664
432.34674
432.34687
432.34695
432.34675
432.3468
440.21257
440.21249
440.21266
440.21257
440.21252
440.21253
440.2126
440.21266
440.21264
440.21267
440.21249
440.21256
440.21265
440.21255
440.2125
440.21253
440.21262
440.2127
440.21261
440.2126
440.21266
440.21265
440.21272
440.21262
440.21258
440.21262
440.21273
440.21284
440.21275
440.21269
440.21257
440.21255
440.21262
440.21253
440.2125
440.21256
440.21268
440.21282
440.21275
440.21271
440.21252
440.2125
440.21258
440.2125
440.21248
440.21255
440.21269
440.21284
440.21279
440.21276
440.21253
440.21253
440.21262
440.21256
440.21255
440.21262
440.21277
440.21293
440.21288
440.21286
440.2126
440.21262
440.21273
440.21268
440.21269
440.21277
440.21292
440.21308
440.21303
440.213
440.21266
440.2127
440.21284
440.21282
440.21284
440.21293
440.21308
440.21323
440.21315
440.21309
440.21264
440.21261
440.21275
440.21275
440.21279
440.21288
440.21303
440.21315
440.21304
440.2129
440.21267
440.2126
440.21269
440.21271
440.21276
440.21286
440.213
440.21309
440.2129
440.21295
448.13862
448.13855
448.1387
448.13861
448.13857
448.13859
448.13866
448.13873
448.13871
448.13874
448.13855
448.1386
448.13868
448.13859
448.13855
448.13858
448.13867
448.13876
448.13868
448.13868
448.1387
448.13868
448.13875
448.13865
448.13862
448.13866
448.13878
448.13889
448.13881
448.13876
448.13861
448.13859
448.13865
448.13857
448.13854
448.1386
448.13873
448.13887
448.13882
448.13879
448.13857
448.13855
448.13862
448.13854
448.13852
448.13859
448.13874
448.13889
448.13886
448.13884
448.13859
448.13858
448.13866
448.1386
448.13859
448.13867
448.13882
448.13899
448.13896
448.13894
448.13866
448.13867
448.13878
448.13873
448.13874
448.13882
448.13898
448.13914
448.13911
448.13908
448.13873
448.13876
448.13889
448.13887
448.13889
448.13899
448.13914
448.1393
448.13924
448.13918
448.13871
448.13868
448.13881
448.13882
448.13886
448.13896
448.13911
448.13924
448.13913
448.13901
448.13874
448.13868
448.13876
448.13879
448.13884
448.13894
448.13908
448.13918
448.13901
448.13906
456.12034
456.12026
456.1204
456.12032
456.12027
456.1203
456.12037
456.12045
456.12044
456.12048
456.12026
456.12031
456.12038
456.12029
456.12025
456.12029
456.12038
456.12047
456.12041
456.12041
456.1204
456.12038
456.12044
456.12035
456.12032
456.12037
456.12048
456.1206
456.12053
456.12049
456.12032
456.12029
456.12035
456.12026
456.12024
456.1203
456.12044
456.12058
456.12054
456.12052
456.12027
456.12025
456.12032
456.12024
456.12023
456.1203
456.12045
456.12061
456.12058
456.12057
456.1203
456.12029
456.12037
456.1203
456.1203
456.12038
456.12054
456.1207
456.12068
456.12068
456.12037
456.12038
456.12048
456.12044
456.12045
456.12054
456.1207
456.12086
456.12084
456.12082
456.12045
456.12047
456.1206
456.12058
456.12061
456.1207
456.12086
456.12102
456.12097
456.12092
456.12044
456.12041
456.12053
456.12054
456.12058
456.12068
456.12084
456.12097
456.12088
456.12076
456.12048
456.12041
456.12049
456.12052
456.12057
456.12068
456.12082
456.12092
456.12076
456.12082
464.15293
464.15285
464.15298
464.1529
464.15286
464.15289
464.15297
464.15305
464.15305
464.15309
464.15285
464.15289
464.15295
464.15287
464.15283
464.15287
464.15297
464.15307
464.15302
464.15303
464.15298
464.15295
464.153
464.15292
464.15289
464.15294
464.15306
464.15319
464.15313
464.1531
464.1529
464.15287
464.15292
464.15284
464.15282
464.15289
464.15302
464.15317
464.15314
464.15313
464.15286
464.15283
464.15289
464.15282
464.15281
464.15289
464.15304
464.1532
464.15318
464.15318
464.15289
464.15287
464.15294
464.15289
464.15289
464.15297
464.15313
464.1533
464.15329
464.15329
464.15297
464.15297
464.15306
464.15302
464.15304
464.15313
464.15329
464.15346
464.15344
464.15343
464.15305
464.15307
464.15319
464.15317
464.1532
464.1533
464.15346
464.15362
464.15358
464.15354
464.15305
464.15302
464.15313
464.15314
464.15318
464.15329
464.15344
464.15358
464.1535
464.15339
464.15309
464.15303
464.1531
464.15313
464.15318
464.15329
464.15343
464.15354
464.15339
464.15345
472.23118
472.2311
472.23121
472.23114
472.23111
472.23114
472.23122
472.2313
472.23131
472.23135
472.2311
472.23113
472.23119
472.23111
472.23108
472.23112
472.23122
472.23132
472.23128
472.2313
472.23121
472.23119
472.23123
472.23115
472.23113
472.23118
472.23131
472.23143
472.23139
472.23137
472.23114
472.23111
472.23115
472.23108
472.23106
472.23113
472.23127
472.23142
472.2314
472.23139
472.23111
472.23108
472.23113
472.23106
472.23106
472.23114
472.23128
472.23145
472.23144
472.23145
472.23114
472.23112
472.23118
472.23113
472.23114
472.23122
472.23138
472.23155
472.23155
472.23155
472.23122
472.23122
472.23131
472.23127
472.23128
472.23138
472.23154
472.23171
472.2317
472.2317
472.2313
472.23132
472.23143
472.23142
472.23145
472.23155
472.23171
472.23187
472.23184
472.23181
472.23131
472.23128
472.23139
472.2314
472.23144
472.23155
472.2317
472.23184
472.23177
472.23168
472.23135
472.2313
472.23137
472.23139
472.23145
472.23155
472.2317
472.23181
472.23168
472.23174
480.34948
480.3494
480.34951
480.34944
480.34941
480.34944
480.34953
480.34961
480.34963
480.34967
480.3494
480.34943
480.34948
480.3494
480.34938
480.34942
480.34953
480.34963
480.3496
480.34962
480.34951
480.34948
480.34951
480.34944
480.34942
480.34948
480.3496
480.34973
480.3497
480.34968
480.34944
480.3494
480.34944
480.34937
480.34936
480.34943
480.34957
480.34972
480.34971
480.34971
480.34941
480.34938
480.34942
480.34936
480.34936
480.34944
480.34959
480.34975
480.34976
480.34977
480.34944
480.34942
480.34948
480.34943
480.34944
480.34953
480.34968
480.34985
480.34986
480.34987
480.34953
480.34953
480.3496
480.34957
480.34959
480.34968
480.34984
480.35001
480.35001
480.35002
480.34961
480.34963
480.34973
480.34972
480.34975
480.34985
480.35001
480.35017
480.35015
480.35013
480.34963
480.3496
480.3497
480.34971
480.34976
480.34986
480.35001
480.35015
480.35009
480.35001
480.34967
480.34962
480.34968
480.34971
480.34977
480.34987
480.35002
480.35013
480.35001
480.35007
488.50189
488.50182
488.50191
488.50185
488.50182
488.50186
488.50195
488.50203
488.50205
488.5021
488.50182
488.50184
488.50188
488.50181
488.50179
488.50184
488.50194
488.50205
488.50203
488.50205
488.50191
488.50188
488.50191
488.50184
488.50183
488.50189
488.50201
488.50214
488.50212
488.50211
488.50185
488.50181
488.50184
488.50178
488.50178
488.50185
488.50198
488.50213
488.50213
488.50214
488.50182
488.50179
488.50183
488.50178
488.50178
488.50186
488.502