/*--------------------------------*- C++ -*----------------------------------*\
| =========                 |                                                 |
| \\      /  F ield         | OpenFOAM: The Open Source CFD Toolbox           |
|  \\    /   O peration     | Version:  v2106                                 |
|   \\  /    A nd           | Website:  www.openfoam.com                      |
|    \\/     M anipulation  |                                                 |
\*---------------------------------------------------------------------------*/
FoamFile
{
    version     2.0;
    format      ascii;
    arch        "LSB;label=32;scalar=64";
    class       volVectorField;
    location    "52.5";
    object      flux;
}
// * * * * * * * * * * * * * * * * * * * * * * * * * * * * * * * * * * * * * //

dimensions      [0 1 -1 1 0 0 0];

internalField   nonuniform List<vector> 
4000
(
(-4.2006083e-07 -4.2006083e-07 0.73750365)
(-2.3831255e-07 -7.7868724e-08 0.73750087)
(5.2420955e-07 -1.1654427e-07 0.73750267)
(2.01549e-07 -1.18423e-07 0.73750337)
(8.7115024e-08 -1.1996638e-07 0.73750373)
(-4.6137832e-09 -1.2289455e-07 0.73750382)
(-6.8615122e-08 -1.2878331e-07 0.73750369)
(-8.5779407e-08 -1.4074569e-07 0.73750344)
(-3.8942266e-08 -1.5985107e-07 0.73750324)
(5.5512004e-10 -1.6434449e-07 0.7375033)
(-7.7868728e-08 -2.3831254e-07 0.73750087)
(2.1696229e-07 2.169623e-07 0.73750024)
(4.6337814e-07 1.539923e-07 0.73750183)
(1.9641584e-07 1.4869481e-07 0.73750251)
(8.040769e-08 1.4253461e-07 0.73750286)
(-1.7839185e-08 1.3230387e-07 0.73750293)
(-9.5391833e-08 1.141281e-07 0.73750275)
(-1.3238104e-07 7.9451401e-08 0.73750241)
(-7.4340454e-08 1.742779e-08 0.73750205)
(-3.9382993e-09 -4.8179443e-08 0.73750215)
(-1.1654427e-07 5.2420955e-07 0.73750267)
(1.5399229e-07 4.6337815e-07 0.73750183)
(4.5594206e-07 4.5594206e-07 0.73750339)
(1.9009131e-07 4.4977643e-07 0.73750406)
(7.0724091e-08 4.4100338e-07 0.73750439)
(-3.3020295e-08 4.2875059e-07 0.73750442)
(-1.214676e-07 4.1102526e-07 0.7375042)
(-1.8247971e-07 3.8370087e-07 0.73750377)
(-1.6657311e-07 3.383934e-07 0.73750323)
(-4.3183035e-08 2.6974702e-07 0.73750303)
(-1.18423e-07 2.01549e-07 0.73750337)
(1.486948e-07 1.9641583e-07 0.73750251)
(4.4977642e-07 1.9009132e-07 0.73750406)
(1.8147716e-07 1.8147716e-07 0.73750471)
(5.938185e-08 1.7092026e-07 0.73750501)
(-4.7817302e-08 1.5819028e-07 0.73750501)
(-1.4044155e-07 1.4262167e-07 0.73750475)
(-2.050129e-07 1.2400331e-07 0.73750426)
(-1.882943e-07 1.0412612e-07 0.73750365)
(-4.9702552e-08 8.9045023e-08 0.7375034)
(-1.1996638e-07 8.7115018e-08 0.73750373)
(1.4253462e-07 8.0407684e-08 0.73750286)
(4.4100338e-07 7.0724094e-08 0.73750439)
(1.7092025e-07 5.9381858e-08 0.73750501)
(4.7437215e-08 4.7437222e-08 0.73750528)
(-6.1318878e-08 3.5144919e-08 0.73750525)
(-1.5565457e-07 2.2289196e-08 0.73750495)
(-2.2097527e-07 9.0013665e-09 0.73750442)
(-2.015314e-07 -3.3341965e-09 0.73750377)
(-5.3237099e-08 -1.1275924e-08 0.73750349)
(-1.2289455e-07 -4.6137791e-09 0.73750382)
(1.3230388e-07 -1.7839168e-08 0.73750293)
(4.287506e-07 -3.3020304e-08 0.73750442)
(1.5819029e-07 -4.7817306e-08 0.73750501)
(3.5144911e-08 -6.1318875e-08 0.73750525)
(-7.2965328e-08 -7.2965318e-08 0.73750519)
(-1.665851e-07 -8.297242e-08 0.73750486)
(-2.306363e-07 -9.1263946e-08 0.7375043)
(-2.085716e-07 -9.7360183e-08 0.73750363)
(-5.4997037e-08 -1.0057256e-07 0.73750333)
(-1.287833e-07 -6.8615118e-08 0.73750369)
(1.1412809e-07 -9.5391833e-08 0.73750275)
(4.1102525e-07 -1.2146759e-07 0.7375042)
(1.4262168e-07 -1.4044157e-07 0.73750475)
(2.2289203e-08 -1.5565457e-07 0.73750495)
(-8.2972423e-08 -1.6658511e-07 0.73750486)
(-1.739532e-07 -1.7395319e-07 0.7375045)
(-2.3536303e-07 -1.7791648e-07 0.73750393)
(-2.1084001e-07 -1.7856144e-07 0.73750325)
(-5.5378683e-08 -1.7719342e-07 0.73750295)
(-1.4074569e-07 -8.577942e-08 0.73750344)
(7.9451403e-08 -1.3238106e-07 0.73750241)
(3.8370086e-07 -1.8247971e-07 0.73750377)
(1.2400331e-07 -2.050129e-07 0.73750426)
(9.0013691e-09 -2.2097527e-07 0.73750442)
(-9.1263945e-08 -2.3063631e-07 0.7375043)
(-1.7791647e-07 -2.3536303e-07 0.73750393)
(-2.3524455e-07 -2.3524454e-07 0.73750334)
(-2.0784854e-07 -2.2989349e-07 0.73750267)
(-5.4085024e-08 -2.215993e-07 0.73750239)
(-1.5985106e-07 -3.8942268e-08 0.73750324)
(1.7427802e-08 -7.4340456e-08 0.73750205)
(3.383934e-07 -1.6657312e-07 0.73750323)
(1.0412612e-07 -1.882943e-07 0.73750365)
(-3.3342011e-09 -2.015314e-07 0.73750377)
(-9.7360183e-08 -2.0857159e-07 0.73750363)
(-1.7856143e-07 -2.1084001e-07 0.73750325)
(-2.2989349e-07 -2.0784854e-07 0.73750267)
(-1.9719477e-07 -1.9719475e-07 0.73750202)
(-4.9849226e-08 -1.7845522e-07 0.73750178)
(-1.6434449e-07 5.5512411e-10 0.7375033)
(-4.8179443e-08 -3.9382993e-09 0.73750215)
(2.6974702e-07 -4.3183039e-08 0.73750303)
(8.9045025e-08 -4.9702552e-08 0.7375034)
(-1.1275929e-08 -5.3237101e-08 0.73750349)
(-1.0057256e-07 -5.4997037e-08 0.73750333)
(-1.7719342e-07 -5.5378684e-08 0.73750295)
(-2.215993e-07 -5.4085026e-08 0.73750239)
(-1.7845523e-07 -4.9849222e-08 0.73750178)
(-4.1592003e-08 -4.1591999e-08 0.73750163)
(-1.5238016e-06 -1.5238016e-06 1.0969661)
(-7.5634675e-07 -4.0054564e-07 1.0969637)
(2.1780627e-06 -4.9371697e-07 1.0969657)
(9.8282709e-07 -5.0172946e-07 1.0969667)
(4.1617542e-07 -5.0949456e-07 1.0969671)
(-3.7183717e-08 -5.2388246e-07 1.0969672)
(-3.5514685e-07 -5.531523e-07 1.096967)
(-4.2696585e-07 -6.1421481e-07 1.0969666)
(-9.1974299e-08 -7.115894e-07 1.0969662)
(6.6055896e-08 -6.6060847e-07 1.0969667)
(-4.0054564e-07 -7.5634674e-07 1.0969637)
(7.8878014e-07 7.8878014e-07 1.0969631)
(2.026287e-06 6.2359398e-07 1.096965)
(9.5916071e-07 5.9751984e-07 1.0969659)
(3.8294591e-07 5.6665838e-07 1.0969664)
(-1.0267032e-07 5.1631137e-07 1.0969665)
(-4.9064537e-07 4.2631202e-07 1.0969662)
(-6.6462151e-07 2.511684e-07 1.0969656)
(-1.6156479e-07 -6.5485737e-08 1.0969649)
(1.1703683e-07 -2.6334223e-07 1.0969655)
(-4.9371696e-07 2.1780627e-06 1.0969657)
(6.2359398e-07 2.026287e-06 1.096965)
(1.9868024e-06 1.9868024e-06 1.0969668)
(9.2589149e-07 1.9540736e-06 1.0969677)
(3.3496694e-07 1.9105494e-06 1.0969682)
(-1.7753008e-07 1.8502545e-06 1.0969682)
(-6.2028983e-07 1.7629618e-06 1.0969678)
(-9.1876362e-07 1.6270296e-06 1.0969671)
(-6.0648493e-07 1.3944371e-06 1.0969662)
(-6.5848432e-08 1.0644585e-06 1.0969663)
(-5.0172945e-07 9.8282709e-07 1.0969667)
(5.9751985e-07 9.5916071e-07 1.0969659)
(1.9540736e-06 9.2589151e-07 1.0969677)
(8.8290768e-07 8.8290768e-07 1.0969686)
(2.7912679e-07 8.3091594e-07 1.0969691)
(-2.5025794e-07 7.6835409e-07 1.096969)
(-7.1387031e-07 6.9191215e-07 1.0969686)
(-1.0331461e-06 6.0038726e-07 1.0969678)
(-7.2413585e-07 4.9989823e-07 1.0969668)
(-1.0294892e-07 4.1887515e-07 1.0969668)
(-5.0949455e-07 4.1617542e-07 1.0969671)
(5.666584e-07 3.8294591e-07 1.0969664)
(1.9105494e-06 3.3496694e-07 1.0969682)
(8.3091592e-07 2.7912679e-07 1.0969691)
(2.2041335e-07 2.2041335e-07 1.0969694)
(-3.1653386e-07 1.6000699e-07 1.0969693)
(-7.8825666e-07 9.6908102e-08 1.0969688)
(-1.1107775e-06 3.1958917e-08 1.096968)
(-7.8799704e-07 -2.7999921e-08 1.0969669)
(-1.1986382e-07 -6.5888802e-08 1.0969669)
(-5.2388246e-07 -3.7183716e-08 1.0969672)
(5.1631137e-07 -1.0267033e-07 1.0969665)
(1.8502545e-06 -1.7753008e-07 1.0969682)
(7.6835409e-07 -2.5025794e-07 1.096969)
(1.6000698e-07 -3.1653386e-07 1.0969693)
(-3.7376319e-07 -3.7376318e-07 1.0969692)
(-8.4191838e-07 -4.2288203e-07 1.0969687)
(-1.1580542e-06 -4.634659e-07 1.0969678)
(-8.2198357e-07 -4.9302503e-07 1.0969666)
(-1.2820817e-07 -5.0794606e-07 1.0969666)
(-5.531523e-07 -3.5514686e-07 1.096967)
(4.2631203e-07 -4.9064537e-07 1.0969662)
(1.7629618e-06 -6.2028983e-07 1.0969678)
(6.9191215e-07 -7.1387031e-07 1.0969686)
(9.6908108e-08 -7.8825666e-07 1.0969688)
(-4.2288204e-07 -8.4191839e-07 1.0969687)
(-8.7795937e-07 -8.7795937e-07 1.0969681)
(-1.1809205e-06 -8.9695233e-07 1.0969672)
(-8.3247719e-07 -8.9885728e-07 1.096966)
(-1.2981116e-07 -8.8977039e-07 1.096966)
(-6.142148e-07 -4.2696586e-07 1.0969666)
(2.511684e-07 -6.6462152e-07 1.0969656)
(1.6270296e-06 -9.1876363e-07 1.0969671)
(6.0038726e-07 -1.0331461e-06 1.0969678)
(3.1958903e-08 -1.1107776e-06 1.096968)
(-4.634659e-07 -1.1580542e-06 1.0969678)
(-8.9695232e-07 -1.1809205e-06 1.0969672)
(-1.1789521e-06 -1.1789521e-06 1.0969662)
(-8.1480163e-07 -1.1477507e-06 1.0969651)
(-1.2215025e-07 -1.0944847e-06 1.0969651)
(-7.115894e-07 -9.19743e-08 1.0969662)
(-6.548573e-08 -1.615648e-07 1.0969649)
(1.3944372e-06 -6.0648492e-07 1.0969662)
(4.9989822e-07 -7.2413585e-07 1.0969668)
(-2.7999923e-08 -7.8799703e-07 1.0969669)
(-4.9302502e-07 -8.2198355e-07 1.0969666)
(-8.9885727e-07 -8.3247718e-07 1.096966)
(-1.1477507e-06 -8.1480163e-07 1.0969651)
(-7.4800986e-07 -7.4800985e-07 1.096964)
(-9.4300494e-08 -5.995478e-07 1.0969642)
(-6.6060847e-07 6.6055898e-08 1.0969667)
(-2.6334221e-07 1.1703683e-07 1.0969655)
(1.0644585e-06 -6.5848425e-08 1.0969663)
(4.1887515e-07 -1.0294891e-07 1.0969668)
(-6.58888e-08 -1.1986381e-07 1.0969669)
(-5.0794606e-07 -1.2820816e-07 1.0969666)
(-8.897704e-07 -1.2981117e-07 1.096966)
(-1.0944847e-06 -1.2215025e-07 1.0969651)
(-5.9954781e-07 -9.430049e-08 1.0969642)
(-2.3175551e-08 -2.3175547e-08 1.0969647)
(-2.0592842e-06 -2.0592842e-06 1.0967456)
(-7.0557502e-07 -4.8182602e-07 1.0967441)
(3.4891111e-06 -5.957575e-07 1.0967457)
(1.6715575e-06 -6.0786586e-07 1.0967466)
(6.8258195e-07 -6.2148639e-07 1.096747)
(-1.3692114e-07 -6.4681836e-07 1.096747)
(-7.3657921e-07 -6.9946459e-07 1.0967467)
(-8.6905888e-07 -8.1806459e-07 1.0967462)
(9.6358275e-08 -1.0428596e-06 1.0967456)
(3.2169566e-07 -1.0016906e-06 1.0967463)
(-4.8182602e-07 -7.0557503e-07 1.0967441)
(1.4897149e-06 1.4897149e-06 1.0967439)
(3.3000514e-06 1.2809353e-06 1.0967454)
(1.6329642e-06 1.2379199e-06 1.0967463)
(6.2415319e-07 1.1830118e-06 1.0967467)
(-2.5388845e-07 1.0935177e-06 1.0967467)
(-9.9344856e-07 9.328328e-07 1.0967463)
(-1.3841514e-06 6.0888102e-07 1.0967456)
(-1.7908073e-07 -2.8541182e-08 1.0967447)
(3.6286467e-07 -4.2467722e-07 1.0967454)
(-5.957575e-07 3.4891111e-06 1.0967457)
(1.2809353e-06 3.3000514e-06 1.0967454)
(3.2373161e-06 3.2373161e-06 1.096747)
(1.5736341e-06 3.1789343e-06 1.0967478)
(5.3817981e-07 3.1008507e-06 1.0967482)
(-3.8710016e-07 2.9927563e-06 1.0967481)
(-1.2212159e-06 2.8368991e-06 1.0967477)
(-1.8304329e-06 2.5962749e-06 1.0967468)
(-9.3719998e-07 2.1818999e-06 1.0967457)
(5.7604964e-08 1.6201781e-06 1.096746)
(-6.0786586e-07 1.6715575e-06 1.0967466)
(1.2379199e-06 1.6329642e-06 1.0967463)
(3.1789343e-06 1.5736341e-06 1.0967478)
(1.4964987e-06 1.4964987e-06 1.0967486)
(4.3797519e-07 1.4033236e-06 1.0967489)
(-5.1784002e-07 1.2911986e-06 1.0967488)
(-1.3899299e-06 1.1540668e-06 1.0967483)
(-2.0391506e-06 9.8972885e-07 1.0967474)
(-1.1551775e-06 8.069321e-07 1.0967461)
(-1.1616517e-08 6.576141e-07 1.0967464)
(-6.2148638e-07 6.8258195e-07 1.096747)
(1.1830118e-06 6.2415319e-07 1.0967467)
(3.1008506e-06 5.3817981e-07 1.0967482)
(1.4033236e-06 4.3797519e-07 1.0967489)
(3.3287969e-07 3.3287969e-07 1.0967492)
(-6.3635693e-07 2.2481253e-07 1.0967491)
(-1.5226857e-06 1.1206328e-07 1.0967485)
(-2.1775676e-06 -3.6753689e-09 1.0967475)
(-1.2693147e-06 -1.1039932e-07 1.0967462)
(-4.1940373e-08 -1.7784174e-07 1.0967464)
(-6.4681836e-07 -1.3692115e-07 1.096747)
(1.0935177e-06 -2.5388846e-07 1.0967467)
(2.9927563e-06 -3.8710016e-07 1.0967481)
(1.2911986e-06 -5.1784002e-07 1.0967488)
(2.2481253e-07 -6.3635692e-07 1.0967491)
(-7.3865642e-07 -7.3865642e-07 1.0967489)
(-1.6184178e-06 -8.2626669e-07 1.0967483)
(-2.2616132e-06 -8.9827279e-07 1.0967472)
(-1.3293439e-06 -9.5004787e-07 1.0967459)
(-5.6578133e-08 -9.7531323e-07 1.0967461)
(-6.9946459e-07 -7.3657922e-07 1.0967467)
(9.3283281e-07 -9.9344856e-07 1.0967463)
(2.8368991e-06 -1.2212159e-06 1.0967477)
(1.1540668e-06 -1.3899299e-06 1.0967483)
(1.1206329e-07 -1.5226857e-06 1.0967485)
(-8.2626669e-07 -1.6184178e-06 1.0967483)
(-1.682302e-06 -1.6823021e-06 1.0967476)
(-2.3013488e-06 -1.7147645e-06 1.0967466)
(-1.3463552e-06 -1.7142925e-06 1.0967452)
(-5.8783946e-08 -1.6910406e-06 1.0967454)
(-8.1806459e-07 -8.6905889e-07 1.0967462)
(6.0888103e-07 -1.3841514e-06 1.0967456)
(2.5962749e-06 -1.8304329e-06 1.0967468)
(9.8972885e-07 -2.0391506e-06 1.0967474)
(-3.675371e-09 -2.1775676e-06 1.0967475)
(-8.982728e-07 -2.2616132e-06 1.0967472)
(-1.7147645e-06 -2.3013488e-06 1.0967466)
(-2.2936036e-06 -2.2936036e-06 1.0967455)
(-1.3056199e-06 -2.2214054e-06 1.0967441)
(-4.107686e-08 -2.0785417e-06 1.0967444)
(-1.0428596e-06 9.6358286e-08 1.0967456)
(-2.8541168e-08 -1.7908072e-07 1.0967447)
(2.1818999e-06 -9.3719998e-07 1.0967457)
(8.0693209e-07 -1.1551775e-06 1.0967461)
(-1.1039931e-07 -1.2693147e-06 1.0967462)
(-9.5004786e-07 -1.3293439e-06 1.0967459)
(-1.7142925e-06 -1.3463552e-06 1.0967452)
(-2.2214054e-06 -1.3056199e-06 1.0967441)
(-1.1312932e-06 -1.1312932e-06 1.0967429)
(3.645856e-08 -5.6516687e-07 1.0967432)
(-1.0016906e-06 3.2169567e-07 1.0967463)
(-4.2467722e-07 3.6286467e-07 1.0967454)
(1.6201781e-06 5.7604963e-08 1.096746)
(6.5761409e-07 -1.1616515e-08 1.0967464)
(-1.7784174e-07 -4.1940373e-08 1.0967464)
(-9.7531321e-07 -5.6578133e-08 1.0967461)
(-1.6910406e-06 -5.878394e-08 1.0967454)
(-2.0785417e-06 -4.1076858e-08 1.0967444)
(-5.6516687e-07 3.6458562e-08 1.0967432)
(3.3634072e-07 3.3634072e-07 1.0967445)
(-2.5103782e-06 -2.5103782e-06 1.0964047)
(-6.1427738e-07 -5.5346264e-07 1.0964034)
(4.6602764e-06 -6.8925464e-07 1.0964049)
(2.2658868e-06 -7.0574918e-07 1.0964057)
(8.7047087e-07 -7.2521845e-07 1.096406)
(-3.2100399e-07 -7.6109213e-07 1.096406)
(-1.238392e-06 -8.3543673e-07 1.0964056)
(-1.5169038e-06 -1.0067821e-06 1.0964049)
(5.3860561e-08 -1.3526498e-06 1.0964042)
(5.1129808e-07 -1.2921794e-06 1.0964047)
(-5.5346264e-07 -6.1427738e-07 1.0964034)
(2.1174078e-06 2.1174078e-06 1.0964032)
(4.4318466e-06 1.8634165e-06 1.0964047)
(2.2119411e-06 1.8029101e-06 1.0964054)
(7.8745643e-07 1.723974e-06 1.0964057)
(-4.8633141e-07 1.5960569e-06 1.0964057)
(-1.606927e-06 1.3674998e-06 1.0964052)
(-2.2927234e-06 9.0313091e-07 1.0964043)
(-3.7423537e-07 -4.3350084e-08 1.0964033)
(5.7176845e-07 -5.7663123e-07 1.0964038)
(-6.8925464e-07 4.6602764e-06 1.0964049)
(1.8634165e-06 4.4318466e-06 1.0964047)
(4.3457788e-06 4.3457788e-06 1.0964061)
(2.1264442e-06 4.2616186e-06 1.0964068)
(6.6361762e-07 4.1491203e-06 1.0964071)
(-6.7747822e-07 3.993638e-06 1.096407)
(-1.931318e-06 3.7699558e-06 1.0964064)
(-2.9277537e-06 3.4265834e-06 1.0964055)
(-1.4259016e-06 2.8330065e-06 1.0964041)
(1.5577731e-07 2.0587392e-06 1.0964044)
(-7.0574917e-07 2.2658868e-06 1.0964057)
(1.8029101e-06 2.2119411e-06 1.0964054)
(4.2616186e-06 2.1264442e-06 1.0964068)
(2.0152825e-06 2.0152825e-06 1.0964075)
(5.1947584e-07 1.8812973e-06 1.0964077)
(-8.6549595e-07 1.7202489e-06 1.0964076)
(-2.1739816e-06 1.5233435e-06 1.096407)
(-3.2296726e-06 1.2876067e-06 1.0964059)
(-1.7420795e-06 1.0235429e-06 1.0964045)
(5.5590228e-08 8.0809722e-07 1.0964046)
(-7.2521845e-07 8.7047087e-07 1.096406)
(1.723974e-06 7.8745643e-07 1.0964057)
(4.1491203e-06 6.6361762e-07 1.0964071)
(1.8812973e-06 5.1947583e-07 1.0964077)
(3.6858395e-07 3.6858395e-07 1.096408)
(-1.035432e-06 2.1360346e-07 1.0964077)
(-2.3639601e-06 5.2142123e-08 1.0964071)
(-3.4275543e-06 -1.1316281e-07 1.096406)
(-1.9054111e-06 -2.654591e-07 1.0964045)
(1.214687e-08 -3.6168099e-07 1.0964046)
(-7.6109213e-07 -3.2100399e-07 1.096406)
(1.5960569e-06 -4.8633141e-07 1.0964057)
(3.993638e-06 -6.7747822e-07 1.096407)
(1.7202489e-06 -8.6549595e-07 1.0964076)
(2.1360347e-07 -1.035432e-06 1.0964077)
(-1.1819378e-06 -1.1819378e-06 1.0964075)
(-2.5007479e-06 -1.3070759e-06 1.0964068)
(-3.5472738e-06 -1.4094193e-06 1.0964056)
(-1.9905977e-06 -1.4824047e-06 1.0964041)
(-8.5576983e-09 -1.5175514e-06 1.0964042)
(-8.3543673e-07 -1.238392e-06 1.0964056)
(1.3674998e-06 -1.606927e-06 1.0964052)
(3.7699558e-06 -1.931318e-06 1.0964064)
(1.5233435e-06 -2.1739816e-06 1.096407)
(5.2142127e-08 -2.3639601e-06 1.0964071)
(-1.3070759e-06 -2.5007479e-06 1.0964068)
(-2.5914417e-06 -2.5914417e-06 1.0964061)
(-3.6028832e-06 -2.6363262e-06 1.0964049)
(-2.0135432e-06 -2.6327011e-06 1.0964034)
(-1.1284259e-08 -2.5954146e-06 1.0964035)
(-1.0067821e-06 -1.5169038e-06 1.0964049)
(9.0313092e-07 -2.2927234e-06 1.0964043)
(3.4265834e-06 -2.9277537e-06 1.0964055)
(1.2876067e-06 -3.2296726e-06 1.0964059)
(-1.1316281e-07 -3.4275543e-06 1.096406)
(-1.4094193e-06 -3.5472738e-06 1.0964056)
(-2.6363262e-06 -3.6028832e-06 1.0964049)
(-3.5885332e-06 -3.5885332e-06 1.0964037)
(-1.9496861e-06 -3.4738763e-06 1.0964022)
(1.6299954e-08 -3.2318927e-06 1.0964023)
(-1.3526498e-06 5.3860566e-08 1.0964042)
(-4.3350082e-08 -3.7423537e-07 1.0964033)
(2.8330065e-06 -1.4259016e-06 1.0964041)
(1.0235429e-06 -1.7420795e-06 1.0964045)
(-2.654591e-07 -1.9054111e-06 1.0964045)
(-1.4824047e-06 -1.9905977e-06 1.0964041)
(-2.6327011e-06 -2.0135432e-06 1.0964034)
(-3.4738763e-06 -1.9496861e-06 1.0964022)
(-1.6569026e-06 -1.6569026e-06 1.0964008)
(1.5003816e-07 -4.8424505e-07 1.096401)
(-1.2921794e-06 5.1129808e-07 1.0964047)
(-5.7663123e-07 5.7176846e-07 1.0964038)
(2.0587392e-06 1.557773e-07 1.0964044)
(8.0809722e-07 5.5590226e-08 1.0964046)
(-3.6168099e-07 1.214687e-08 1.0964046)
(-1.5175514e-06 -8.5576989e-09 1.0964042)
(-2.5954146e-06 -1.1284256e-08 1.0964035)
(-3.2318927e-06 1.6299954e-08 1.0964023)
(-4.8424505e-07 1.5003816e-07 1.096401)
(7.9807168e-07 7.9807168e-07 1.0964024)
(-2.9276664e-06 -2.9276664e-06 1.0959462)
(-5.1569987e-07 -6.1728624e-07 1.095945)
(5.747082e-06 -7.772556e-07 1.0959464)
(2.7814167e-06 -7.9886683e-07 1.0959471)
(9.8338109e-07 -8.2434713e-07 1.0959473)
(-5.8252498e-07 -8.7071e-07 1.0959472)
(-1.8292395e-06 -9.6640882e-07 1.0959468)
(-2.2798028e-06 -1.189069e-06 1.095946)
(-1.2506193e-07 -1.6531563e-06 1.0959451)
(6.5418203e-07 -1.5639712e-06 1.0959455)
(-6.1728624e-07 -5.1569987e-07 1.095945)
(2.7099162e-06 2.7099162e-06 1.0959448)
(5.4747111e-06 2.40542e-06 1.0959461)
(2.7107794e-06 2.3256575e-06 1.0959468)
(8.7561635e-07 2.2223904e-06 1.0959471)
(-7.9561751e-07 2.0564452e-06 1.0959469)
(-2.3067779e-06 1.7612147e-06 1.0959464)
(-3.3099241e-06 1.1600394e-06 1.0959454)
(-6.8741526e-07 -8.8662419e-08 1.0959443)
(7.4336719e-07 -7.3476494e-07 1.0959447)
(-7.7725559e-07 5.747082e-06 1.0959464)
(2.40542e-06 5.4747111e-06 1.0959461)
(5.3628233e-06 5.3628233e-06 1.0959474)
(2.5983872e-06 5.2520044e-06 1.0959481)
(7.1416879e-07 5.1051657e-06 1.0959483)
(-1.0437008e-06 4.9030278e-06 1.0959481)
(-2.7256453e-06 4.6129025e-06 1.0959475)
(-4.12968e-06 4.1693444e-06 1.0959465)
(-2.0198663e-06 3.4002742e-06 1.0959451)
(2.2344701e-07 2.4258886e-06 1.0959452)
(-7.9886683e-07 2.7814167e-06 1.0959471)
(2.3256575e-06 2.7107794e-06 1.0959468)
(5.2520044e-06 2.5983872e-06 1.0959481)
(2.4531218e-06 2.4531218e-06 1.0959487)
(5.266397e-07 2.2787668e-06 1.0959489)
(-1.2878807e-06 2.0696792e-06 1.0959487)
(-3.0404613e-06 1.8143342e-06 1.095948)
(-4.5225523e-06 1.5091334e-06 1.0959469)
(-2.4308709e-06 1.1657955e-06 1.0959453)
(9.377684e-08 8.8716499e-07 1.0959454)
(-8.2434713e-07 9.8338109e-07 1.0959473)
(2.2223904e-06 8.7561634e-07 1.0959471)
(5.1051657e-06 7.1416879e-07 1.0959483)
(2.2787668e-06 5.266397e-07 1.0959489)
(3.3072621e-07 3.3072621e-07 1.095949)
(-1.5081334e-06 1.2982226e-07 1.0959488)
(-3.2861912e-06 -7.9129013e-08 1.095948)
(-4.7782187e-06 -2.9249951e-07 1.0959469)
(-2.6418347e-06 -4.8887932e-07 1.0959453)
(3.7693351e-08 -6.1271654e-07 1.0959453)
(-8.7071e-07 -5.8252498e-07 1.0959472)
(2.0564452e-06 -7.9561751e-07 1.0959469)
(4.9030278e-06 -1.0437008e-06 1.0959481)
(2.0696792e-06 -1.2878808e-06 1.0959487)
(1.2982226e-07 -1.5081334e-06 1.0959488)
(-1.697736e-06 -1.697736e-06 1.0959484)
(-3.4627831e-06 -1.8592198e-06 1.0959477)
(-4.9323026e-06 -1.9906064e-06 1.0959465)
(-2.7510879e-06 -2.08356e-06 1.0959448)
(1.1218694e-08 -2.1277782e-06 1.0959449)
(-9.6640882e-07 -1.8292395e-06 1.0959468)
(1.7612147e-06 -2.3067779e-06 1.0959464)
(4.6129025e-06 -2.7256453e-06 1.0959475)
(1.8143342e-06 -3.0404613e-06 1.095948)
(-7.9129006e-08 -3.2861912e-06 1.095948)
(-1.8592198e-06 -3.4627831e-06 1.0959477)
(-3.5790616e-06 -3.5790616e-06 1.0959469)
(-5.0025589e-06 -3.6350913e-06 1.0959456)
(-2.7790065e-06 -3.6273095e-06 1.095944)
(8.2145486e-09 -3.5761297e-06 1.095944)
(-1.1890689e-06 -2.2798028e-06 1.095946)
(1.1600394e-06 -3.3099241e-06 1.0959454)
(4.1693444e-06 -4.12968e-06 1.0959465)
(1.5091334e-06 -4.5225523e-06 1.0959469)
(-2.9249952e-07 -4.7782187e-06 1.0959469)
(-1.9906064e-06 -4.9323027e-06 1.0959465)
(-3.6350913e-06 -5.0025589e-06 1.0959456)
(-4.9805506e-06 -4.9805506e-06 1.0959444)
(-2.6921263e-06 -4.8239891e-06 1.0959428)
(4.5338596e-08 -4.4872133e-06 1.0959428)
(-1.6531564e-06 -1.2506193e-07 1.0959451)
(-8.8662431e-08 -6.8741526e-07 1.0959443)
(3.4002742e-06 -2.0198663e-06 1.0959451)
(1.1657955e-06 -2.4308709e-06 1.0959453)
(-4.8887932e-07 -2.6418347e-06 1.0959453)
(-2.08356e-06 -2.7510879e-06 1.0959448)
(-3.6273095e-06 -2.7790065e-06 1.095944)
(-4.8239891e-06 -2.6921263e-06 1.0959428)
(-2.2856692e-06 -2.2856692e-06 1.0959413)
(2.3273171e-07 -4.6057868e-07 1.0959415)
(-1.5639712e-06 6.5418203e-07 1.0959455)
(-7.3476495e-07 7.4336719e-07 1.0959447)
(2.4258886e-06 2.23447e-07 1.0959452)
(8.8716499e-07 9.3776842e-08 1.0959454)
(-6.1271654e-07 3.7693349e-08 1.0959453)
(-2.1277782e-06 1.1218696e-08 1.0959449)
(-3.5761297e-06 8.2145486e-09 1.095944)
(-4.4872133e-06 4.5338593e-08 1.0959428)
(-4.6057868e-07 2.3273172e-07 1.0959415)
(1.2620657e-06 1.2620657e-06 1.0959428)
(-3.3118141e-06 -3.3118141e-06 1.0953743)
(-4.0125796e-07 -6.676576e-07 1.0953732)
(6.7672137e-06 -8.5264647e-07 1.0953746)
(3.2312999e-06 -8.7985012e-07 1.0953752)
(1.0307261e-06 -9.1141131e-07 1.0953754)
(-9.1065974e-07 -9.6807015e-07 1.0953753)
(-2.4902115e-06 -1.0846013e-06 1.0953747)
(-3.120107e-06 -1.3572729e-06 1.0953739)
(-3.954282e-07 -1.9373303e-06 1.095373)
(7.6353599e-07 -1.8204499e-06 1.0953733)
(-6.676576e-07 -4.0125796e-07 1.0953732)
(3.2874932e-06 3.2874932e-06 1.0953731)
(6.4489249e-06 2.9299606e-06 1.0953744)
(3.1431526e-06 2.8296856e-06 1.095375)
(8.9839608e-07 2.7019987e-06 1.0953752)
(-1.1704448e-06 2.4987648e-06 1.095375)
(-3.0740155e-06 2.1385874e-06 1.0953744)
(-4.3992004e-06 1.4044033e-06 1.0953734)
(-1.0901938e-06 -1.3973464e-07 1.0953722)
(8.8041634e-07 -8.9349405e-07 1.0953725)
(-8.5264647e-07 6.7672137e-06 1.0953746)
(2.9299606e-06 6.4489249e-06 1.0953744)
(6.3094061e-06 6.3094061e-06 1.0953756)
(3.003338e-06 6.1712396e-06 1.0953762)
(6.9980539e-07 5.9902892e-06 1.0953764)
(-1.474071e-06 5.7424768e-06 1.0953761)
(-3.5845731e-06 5.3877162e-06 1.0953755)
(-5.3984292e-06 4.847083e-06 1.0953744)
(-2.6933256e-06 3.9074178e-06 1.0953729)
(2.6102971e-07 2.7414735e-06 1.095373)
(-8.7985012e-07 3.2312999e-06 1.0953752)
(2.8296856e-06 3.1431526e-06 1.095375)
(6.1712396e-06 3.003338e-06 1.0953762)
(2.8240358e-06 2.8240358e-06 1.0953768)
(4.6963329e-07 2.6099239e-06 1.0953769)
(-1.7730178e-06 2.353904e-06 1.0953766)
(-3.9694094e-06 2.0417345e-06 1.0953759)
(-5.8794987e-06 1.6692685e-06 1.0953747)
(-3.1958031e-06 1.2490837e-06 1.0953731)
(1.0312019e-07 9.0987712e-07 1.0953731)
(-9.114113e-07 1.0307261e-06 1.0953754)
(2.7019987e-06 8.9839608e-07 1.0953752)
(5.9902892e-06 6.998054e-07 1.0953764)
(2.6099239e-06 4.6963329e-07 1.0953769)
(2.2967366e-07 2.2967367e-07 1.095377)
(-2.0422604e-06 -1.5969149e-08 1.0953767)
(-4.2692086e-06 -2.7101306e-07 1.0953759)
(-6.1910799e-06 -5.3084452e-07 1.0953747)
(-3.4527169e-06 -7.6975418e-07 1.095373)
(3.4891968e-08 -9.2005466e-07 1.095373)
(-9.6807015e-07 -9.1065974e-07 1.0953753)
(2.4987648e-06 -1.1704448e-06 1.095375)
(5.7424768e-06 -1.474071e-06 1.0953761)
(2.353904e-06 -1.7730178e-06 1.0953766)
(-1.5969147e-08 -2.0422604e-06 1.0953767)
(-2.2737046e-06 -2.2737046e-06 1.0953763)
(-4.4842848e-06 -2.4703137e-06 1.0953755)
(-6.3782399e-06 -2.629549e-06 1.0953742)
(-3.5850132e-06 -2.7414131e-06 1.0953725)
(2.9198709e-09 -2.7939782e-06 1.0953725)
(-1.0846013e-06 -2.4902115e-06 1.0953747)
(2.1385874e-06 -3.0740155e-06 1.0953744)
(5.3877161e-06 -3.5845731e-06 1.0953755)
(2.0417345e-06 -3.9694094e-06 1.0953759)
(-2.7101305e-07 -4.2692086e-06 1.0953759)
(-2.4703137e-06 -4.4842848e-06 1.0953755)
(-4.625053e-06 -4.625053e-06 1.0953746)
(-6.4621794e-06 -4.6912815e-06 1.0953733)
(-3.6171461e-06 -4.6786221e-06 1.0953717)
(-1.5145174e-10 -4.6132736e-06 1.0953716)
(-1.3572729e-06 -3.120107e-06 1.0953739)
(1.4044033e-06 -4.3992004e-06 1.0953734)
(4.847083e-06 -5.3984292e-06 1.0953744)
(1.6692685e-06 -5.8794988e-06 1.0953747)
(-5.3084452e-07 -6.19108e-06 1.0953747)
(-2.629549e-06 -6.3782399e-06 1.0953742)
(-4.6912815e-06 -6.4621794e-06 1.0953733)
(-6.431809e-06 -6.431809e-06 1.095372)
(-3.5070053e-06 -6.2337112e-06 1.0953704)
(4.6485587e-08 -5.8060542e-06 1.0953704)
(-1.9373303e-06 -3.9542821e-07 1.095373)
(-1.3973464e-07 -1.0901938e-06 1.0953722)
(3.9074178e-06 -2.6933256e-06 1.0953729)
(1.2490837e-06 -3.1958031e-06 1.0953731)
(-7.6975416e-07 -3.4527169e-06 1.095373)
(-2.7414131e-06 -3.5850132e-06 1.0953725)
(-4.6786222e-06 -3.6171461e-06 1.0953717)
(-6.2337112e-06 -3.5070053e-06 1.0953704)
(-2.9913914e-06 -2.9913914e-06 1.0953688)
(2.8495321e-07 -5.1389933e-07 1.0953689)
(-1.8204499e-06 7.63536e-07 1.0953733)
(-8.9349405e-07 8.8041634e-07 1.0953725)
(2.7414735e-06 2.6102971e-07 1.095373)
(9.0987712e-07 1.031202e-07 1.0953731)
(-9.2005466e-07 3.489197e-08 1.095373)
(-2.7939782e-06 2.919867e-09 1.0953725)
(-4.6132736e-06 -1.5144925e-10 1.0953716)
(-5.8060542e-06 4.6485585e-08 1.0953704)
(-5.1389933e-07 2.8495321e-07 1.0953689)
(1.698147e-06 1.698147e-06 1.0953702)
(-3.6601474e-06 -3.6601474e-06 1.0946945)
(-2.6510201e-07 -7.0234619e-07 1.0946935)
(7.7272415e-06 -9.1237645e-07 1.0946948)
(3.6252982e-06 -9.4542197e-07 1.0946953)
(1.0233521e-06 -9.8304814e-07 1.0946955)
(-1.2918732e-06 -1.0497294e-06 1.0946953)
(-3.2031731e-06 -1.1864162e-06 1.0946947)
(-4.0141547e-06 -1.5075144e-06 1.0946938)
(-7.3605106e-07 -2.2006559e-06 1.0946929)
(8.4465348e-07 -2.0598219e-06 1.0946931)
(-7.0234619e-07 -2.6510201e-07 1.0946935)
(3.8565541e-06 3.8565541e-06 1.0946934)
(7.3626278e-06 3.4452948e-06 1.0946946)
(3.5192907e-06 3.3238537e-06 1.0946952)
(8.6689102e-07 3.1719301e-06 1.0946953)
(-1.5969253e-06 2.9323945e-06 1.0946951)
(-3.8898506e-06 2.5093993e-06 1.0946944)
(-5.5355142e-06 1.6466852e-06 1.0946934)
(-1.5645122e-06 -1.8440276e-07 1.0946921)
(9.8548749e-07 -1.0454572e-06 1.0946924)
(-9.1237646e-07 7.7272415e-06 1.0946948)
(3.4452948e-06 7.3626278e-06 1.0946946)
(7.194541e-06 7.194541e-06 1.0946958)
(3.3519335e-06 7.0287732e-06 1.0946963)
(6.3189293e-07 6.8142133e-06 1.0946964)
(-1.954404e-06 6.5219602e-06 1.0946961)
(-4.4888824e-06 6.1046809e-06 1.0946954)
(-6.7079569e-06 5.4704703e-06 1.0946943)
(-3.4281935e-06 4.3660807e-06 1.0946928)
(2.7061716e-07 3.0162398e-06 1.0946928)
(-9.4542197e-07 3.6252982e-06 1.0946953)
(3.3238537e-06 3.5192907e-06 1.0946952)
(7.0287732e-06 3.3519335e-06 1.0946963)
(3.1389629e-06 3.1389629e-06 1.0946968)
(3.6007806e-07 2.8859533e-06 1.0946969)
(-2.3064577e-06 2.5843411e-06 1.0946966)
(-4.9413405e-06 2.2172019e-06 1.0946958)
(-7.2741144e-06 1.7798725e-06 1.0946946)
(-4.0187427e-06 1.2855639e-06 1.094693)
(8.5593568e-08 8.8819415e-07 1.0946929)
(-9.8304814e-07 1.0233522e-06 1.0946955)
(3.1719301e-06 8.6689102e-07 1.0946953)
(6.8142133e-06 6.3189293e-07 1.0946964)
(2.8859533e-06 3.6007807e-07 1.0946969)
(7.7271035e-08 7.7271045e-08 1.0946969)
(-2.6231554e-06 -2.1174003e-07 1.0946966)
(-5.293351e-06 -5.1133557e-07 1.0946957)
(-7.639595e-06 -8.1595524e-07 1.0946945)
(-4.3198718e-06 -1.0958218e-06 1.0946928)
(5.7040191e-09 -1.2715242e-06 1.0946927)
(-1.0497294e-06 -1.2918732e-06 1.0946953)
(2.9323945e-06 -1.5969254e-06 1.0946951)
(6.5219602e-06 -1.954404e-06 1.0946961)
(2.5843411e-06 -2.3064578e-06 1.0946966)
(-2.1174003e-07 -2.6231554e-06 1.0946966)
(-2.8950644e-06 -2.8950644e-06 1.0946961)
(-5.5455557e-06 -3.1255714e-06 1.0946953)
(-7.8586006e-06 -3.3116095e-06 1.094694)
(-4.4743116e-06 -3.441621e-06 1.0946923)
(-3.1541367e-08 -3.5021358e-06 1.0946922)
(-1.1864162e-06 -3.2031731e-06 1.0946947)
(2.5093993e-06 -3.8898506e-06 1.0946944)
(6.1046809e-06 -4.4888824e-06 1.0946954)
(2.2172019e-06 -4.9413405e-06 1.0946958)
(-5.1133556e-07 -5.293351e-06 1.0946957)
(-3.1255714e-06 -5.5455557e-06 1.0946953)
(-5.7098961e-06 -5.7098961e-06 1.0946944)
(-7.9556446e-06 -5.7858629e-06 1.0946931)
(-4.5103981e-06 -5.7683846e-06 1.0946914)
(-3.4639168e-08 -5.6892571e-06 1.0946913)
(-1.5075144e-06 -4.0141547e-06 1.0946938)
(1.6466852e-06 -5.5355142e-06 1.0946934)
(5.4704703e-06 -6.7079569e-06 1.0946943)
(1.7798725e-06 -7.2741144e-06 1.0946946)
(-8.1595525e-07 -7.639595e-06 1.0946945)
(-3.3116095e-06 -7.8586006e-06 1.094694)
(-5.7858629e-06 -7.9556446e-06 1.0946931)
(-7.9170891e-06 -7.9170891e-06 1.0946918)
(-4.3777058e-06 -7.6789945e-06 1.0946901)
(2.1210297e-08 -7.1646626e-06 1.09469)
(-2.2006559e-06 -7.3605107e-07 1.0946929)
(-1.8440276e-07 -1.5645122e-06 1.0946921)
(4.3660807e-06 -3.4281935e-06 1.0946928)
(1.2855639e-06 -4.0187427e-06 1.094693)
(-1.0958218e-06 -4.3198718e-06 1.0946928)
(-3.441621e-06 -4.4743116e-06 1.0946923)
(-5.7683846e-06 -4.5103981e-06 1.0946914)
(-7.6789945e-06 -4.3777058e-06 1.0946901)
(-3.7579717e-06 -3.7579717e-06 1.0946885)
(3.0824878e-07 -6.4342201e-07 1.0946885)
(-2.0598219e-06 8.4465348e-07 1.0946931)
(-1.0454572e-06 9.8548749e-07 1.0946924)
(3.0162398e-06 2.7061715e-07 1.0946928)
(8.8819416e-07 8.559357e-08 1.0946929)
(-1.2715242e-06 5.7040206e-09 1.0946927)
(-3.5021358e-06 -3.154137e-08 1.0946922)
(-5.6892571e-06 -3.4639164e-08 1.0946913)
(-7.1646626e-06 2.1210293e-08 1.09469)
(-6.4342201e-07 3.0824878e-07 1.0946885)
(2.0975768e-06 2.0975768e-06 1.0946897)
(-3.9702932e-06 -3.9702932e-06 1.0939123)
(-1.0453134e-07 -7.2054898e-07 1.0939114)
(8.6289858e-06 -9.5520612e-07 1.0939126)
(3.9703065e-06 -9.942004e-07 1.0939131)
(9.7109448e-07 -1.0378026e-06 1.0939133)
(-1.7132278e-06 -1.1141648e-06 1.093913)
(-3.9518404e-06 -1.2702092e-06 1.0939124)
(-4.9434941e-06 -1.6378605e-06 1.0939115)
(-1.1331553e-06 -2.4404469e-06 1.0939105)