/*--------------------------------*- C++ -*----------------------------------*\
| =========                 |                                                 |
| \\      /  F ield         | OpenFOAM: The Open Source CFD Toolbox           |
|  \\    /   O peration     | Version:  v2106                                 |
|   \\  /    A nd           | Website:  www.openfoam.com                      |
|    \\/     M anipulation  |                                                 |
\*---------------------------------------------------------------------------*/
FoamFile
{
    version     2.0;
    format      ascii;
    arch        "LSB;label=32;scalar=64";
    class       volVectorField;
    location    "52.5";
    object      gradT;
}
// * * * * * * * * * * * * * * * * * * * * * * * * * * * * * * * * * * * * * //

dimensions      [0 -1 0 1 0 0 0];

internalField   nonuniform List<vector> 
4000
(
(-0.00032940932 -0.00032940932 578.34619)
(-0.00018688335 -6.1064213e-05 578.34401)
(0.00041108216 -9.1393355e-05 578.34542)
(0.00015805358 -9.2866643e-05 578.34596)
(6.8315109e-05 -9.4076952e-05 578.34625)
(-3.6181027e-06 -9.6373212e-05 578.34632)
(-5.380759e-05 -0.00010099114 578.34622)
(-6.7267725e-05 -0.00011037198 578.34603)
(-3.0538305e-05 -0.0001253543 578.34586)
(4.35322e-07 -0.00012887802 578.34592)
(-6.1064216e-05 -0.00018688335 578.34401)
(0.0001701406 0.00017014061 578.34352)
(0.00036337852 0.00012075989 578.34476)
(0.00015402819 0.00011660563 578.3453)
(6.3055256e-05 0.00011177483 578.34557)
(-1.3989388e-05 0.00010375195 578.34562)
(-7.4805736e-05 8.9498607e-05 578.34549)
(-0.00010381246 6.2305339e-05 578.34522)
(-5.8297363e-05 1.3666774e-05 578.34493)
(-3.088392e-06 -3.7782047e-05 578.34502)
(-9.1393355e-05 0.00041108216 578.34542)
(0.00012075988 0.00036337852 578.34476)
(0.00035754718 0.00035754718 578.34599)
(0.00014906853 0.00035271213 578.34651)
(5.5461432e-05 0.00034583235 578.34676)
(-2.5894328e-05 0.00033622378 578.34679)
(-9.5254201e-05 0.00032232368 578.34662)
(-0.00014309956 0.00030089605 578.34628)
(-0.00013062569 0.00026536619 578.34586)
(-3.3863892e-05 0.00021153409 578.3457)
(-9.2866643e-05 0.00015805358 578.34596)
(0.00011660562 0.00015402818 578.3453)
(0.00035271213 0.00014906854 578.34651)
(0.00014231336 0.00014231336 578.34702)
(4.656691e-05 0.0001340347 578.34725)
(-3.7498057e-05 0.00012405192 578.34725)
(-0.00011013347 0.00011184311 578.34705)
(-0.00016076996 9.7242692e-05 578.34666)
(-0.00014765933 8.1655114e-05 578.34619)
(-3.897646e-05 6.9828603e-05 578.34599)
(-9.4076954e-05 6.8315104e-05 578.34625)
(0.00011177484 6.3055251e-05 578.34557)
(0.00034583236 5.5461434e-05 578.34676)
(0.00013403469 4.6566917e-05 578.34725)
(3.7199995e-05 3.7200001e-05 578.34746)
(-4.8085917e-05 2.7560446e-05 578.34744)
(-0.00012206343 1.7479061e-05 578.3472)
(-0.00017328755 7.0588206e-06 578.34679)
(-0.00015803978 -2.614658e-06 578.34628)
(-4.1748232e-05 -8.842516e-06 578.34606)
(-9.6373212e-05 -3.6180994e-06 578.34632)
(0.00010375195 -1.3989375e-05 578.34562)
(0.00033622379 -2.5894336e-05 578.34679)
(0.00012405193 -3.7498061e-05 578.34725)
(2.756044e-05 -4.8085914e-05 578.34744)
(-5.7218997e-05 -5.7218989e-05 578.34739)
(-0.0001306351 -6.5066501e-05 578.34713)
(-0.00018086368 -7.156867e-05 578.34669)
(-0.00016356066 -7.6349304e-05 578.34617)
(-4.3128365e-05 -7.8868431e-05 578.34594)
(-0.00010099114 -5.3807587e-05 578.34622)
(8.9498604e-05 -7.4805735e-05 578.34549)
(0.00032232367 -9.5254197e-05 578.34662)
(0.00011184311 -0.00011013348 578.34705)
(1.7479067e-05 -0.00012206343 578.3472)
(-6.5066504e-05 -0.0001306351 578.34713)
(-0.00013641311 -0.0001364131 578.34685)
(-0.00018457036 -0.00013952109 578.3464)
(-0.00016533954 -0.00014002687 578.34587)
(-4.342765e-05 -0.00013895408 578.34564)
(-0.00011037198 -6.7267736e-05 578.34603)
(6.2305341e-05 -0.00010381248 578.34522)
(0.00030089605 -0.00014309956 578.34628)
(9.7242691e-05 -0.00016076996 578.34666)
(7.0588227e-06 -0.00017328755 578.34679)
(-7.1568669e-05 -0.00018086369 578.34669)
(-0.00013952109 -0.00018457035 578.3464)
(-0.00018447745 -0.00018447744 578.34595)
(-0.00016299365 -0.00018028117 578.34542)
(-4.241317e-05 -0.00017377692 578.3452)
(-0.0001253543 -3.0538306e-05 578.34586)
(1.3666784e-05 -5.8297365e-05 578.34493)
(0.00026536619 -0.00013062569 578.34586)
(8.1655112e-05 -0.00014765932 578.34619)
(-2.6146616e-06 -0.00015803978 578.34628)
(-7.6349305e-05 -0.00016356066 578.34617)
(-0.00014002687 -0.00016533954 578.34587)
(-0.00018028117 -0.00016299365 578.34542)
(-0.00015463902 -0.00015463901 578.34491)
(-3.9091481e-05 -0.00013994358 578.34472)
(-0.00012887802 4.3532519e-07 578.34592)
(-3.7782047e-05 -3.0883921e-06 578.34502)
(0.00021153409 -3.3863895e-05 578.3457)
(6.9828604e-05 -3.897646e-05 578.34599)
(-8.8425196e-06 -4.1748233e-05 578.34606)
(-7.886843e-05 -4.3128365e-05 578.34594)
(-0.00013895408 -4.3427651e-05 578.34564)
(-0.00017377691 -4.2413171e-05 578.3452)
(-0.00013994358 -3.9091478e-05 578.34472)
(-3.2616214e-05 -3.2616211e-05 578.34461)
(-0.0011869758 -0.0011869758 854.48936)
(-0.00058916154 -0.0003120078 854.48746)
(0.001696617 -0.00038458425 854.489)
(0.00076557995 -0.00039082563 854.48975)
(0.00032418271 -0.0003968743 854.49013)
(-2.8964513e-05 -0.00040808186 854.49021)
(-0.00027664409 -0.0004308818 854.49003)
(-0.000332588 -0.00047844687 854.48969)
(-7.1644016e-05 -0.00055429748 854.48943)
(5.1454697e-05 -0.00051458553 854.4898)
(-0.0003120078 -0.00058916154 854.48746)
(0.00061442576 0.00061442576 854.48699)
(0.0015783903 0.00048575285 854.48844)
(0.00074714487 0.00046544221 854.48918)
(0.00029829837 0.00044140247 854.48955)
(-7.9975758e-05 0.00040218431 854.4896)
(-0.0003821916 0.0003320787 854.48937)
(-0.00051771152 0.00019564936 854.48891)
(-0.00012585201 -5.1010568e-05 854.4884)
(9.1166648e-05 -0.00020513225 854.48883)
(-0.00038458424 0.001696617 854.489)
(0.00048575285 0.0015783903 854.48844)
(0.0015476335 0.0015476335 854.48987)
(0.00072122957 0.0015221392 854.49059)
(0.00026092481 0.0014882356 854.49094)
(-0.00013828828 0.0014412685 854.49095)
(-0.00048317904 0.0013732712 854.49066)
(-0.00071567726 0.0012673859 854.4901)
(-0.00047242563 0.0010862064 854.48939)
(-5.1293091e-05 0.00082916732 854.48951)
(-0.00039082562 0.00076557995 854.48975)
(0.00046544222 0.00074714487 854.48918)
(0.0015221392 0.00072122958 854.49059)
(0.00068774702 0.00068774703 854.49129)
(0.00021742774 0.0006472477 854.49161)
(-0.00019494015 0.00059851472 854.49158)
(-0.0005560742 0.00053896974 854.49124)
(-0.00080477631 0.0004676758 854.49062)
(-0.00056407062 0.00038939918 854.48983)
(-8.019277e-05 0.00032628569 854.48987)
(-0.0003968743 0.00032418272 854.49013)
(0.00044140248 0.00029829836 854.48955)
(0.0014882356 0.00026092481 854.49094)
(0.00064724769 0.00021742774 854.49161)
(0.0001716925 0.0001716925 854.49189)
(-0.00024656623 0.00012463854 854.49183)
(-0.00061401796 7.5487234e-05 854.49145)
(-0.00086524783 2.4894619e-05 854.49077)
(-0.00061381574 -2.1810732e-05 854.48993)
(-9.3368748e-05 -5.1324537e-05 854.48995)
(-0.00040808186 -2.8964512e-05 854.49021)
(0.00040218431 -7.9975763e-05 854.4896)
(0.0014412685 -0.00013828828 854.49095)
(0.00059851471 -0.00019494015 854.49158)
(0.00012463854 -0.00024656623 854.49183)
(-0.00029114541 -0.00029114541 854.49173)
(-0.00065581813 -0.00032940687 854.49131)
(-0.00090207428 -0.00036101996 854.49061)
(-0.00064028978 -0.00038404526 854.48974)
(-9.986864e-05 -0.00039566809 854.48974)
(-0.0004308818 -0.0002766441 854.49003)
(0.0003320787 -0.0003821916 854.48937)
(0.0013732712 -0.00048317905 854.49066)
(0.00053896974 -0.0005560742 854.49124)
(7.5487239e-05 -0.00061401796 854.49145)
(-0.00032940688 -0.00065581814 854.49131)
(-0.00068389251 -0.00068389251 854.49087)
(-0.00091988621 -0.00069868721 854.49015)
(-0.00064846386 -0.00070017109 854.48928)
(-0.0001011173 -0.0006930928 854.48927)
(-0.00047844686 -0.000332588 854.48969)
(0.00019564936 -0.00051771153 854.48891)
(0.0012673859 -0.00071567727 854.4901)
(0.0004676758 -0.00080477631 854.49062)
(2.4894608e-05 -0.00086524784 854.49077)
(-0.00036101996 -0.00090207428 854.49061)
(-0.0006986872 -0.00091988621 854.49015)
(-0.00091835285 -0.00091835285 854.48942)
(-0.00063469537 -0.00089404837 854.48856)
(-9.514978e-05 -0.00085255645 854.48857)
(-0.00055429748 -7.1644017e-05 854.48943)
(-5.1010562e-05 -0.00012585202 854.4884)
(0.0010862065 -0.00047242562 854.48939)
(0.00038939917 -0.00056407062 854.48983)
(-2.1810733e-05 -0.00061381573 854.48993)
(-0.00038404524 -0.00064028976 854.48974)
(-0.00070017108 -0.00064846386 854.48928)
(-0.00089404837 -0.00063469536 854.48856)
(-0.00058266746 -0.00058266745 854.48774)
(-7.3456023e-05 -0.00046702191 854.48784)
(-0.00051458553 5.1454698e-05 854.4898)
(-0.00020513224 9.1166651e-05 854.48883)
(0.00082916733 -5.1293086e-05 854.48951)
(0.00032628569 -8.0192766e-05 854.48987)
(-5.1324536e-05 -9.3368739e-05 854.48995)
(-0.00039566809 -9.9868635e-05 854.48974)
(-0.0006930928 -0.0001011173 854.48927)
(-0.00085255645 -9.514978e-05 854.48857)
(-0.00046702191 -7.345602e-05 854.48784)
(-1.8052756e-05 -1.8052753e-05 854.48828)
(-0.001593523 -0.001593523 848.68781)
(-0.00054599075 -0.00037284845 848.6867)
(0.0026999572 -0.00046101132 848.68793)
(0.0012934909 -0.00047038105 848.68858)
(0.00052819814 -0.00048092093 848.6889)
(-0.00010595283 -0.00050052342 848.68893)
(-0.0005699825 -0.00054126233 848.68869)
(-0.00067249842 -0.00063303783 848.68825)
(7.4564324e-05 -0.00080698955 848.68785)
(0.00024893575 -0.000775132 848.68836)
(-0.00037284845 -0.00054599075 848.6867)
(0.0011527768 0.0011527768 848.68653)
(0.0025536583 0.00099121817 848.68771)
(0.0012636265 0.00095793183 848.68835)
(0.00048298458 0.00091544267 848.68866)
(-0.00019646492 0.00084619002 848.68866)
(-0.00076875411 0.0007218482 848.68837)
(-0.0010710893 0.00047116661 848.68781)
(-0.00013857693 -2.2085846e-05 848.68712)
(0.00028079331 -0.00032862533 848.68765)
(-0.00046101132 0.0026999572 848.68793)
(0.00099121817 0.0025536583 848.68771)
(0.0025051122 0.0025051122 848.68887)
(0.0012177154 0.0024599349 848.6895)
(0.00041645632 0.0023995119 848.68979)
(-0.0002995473 0.0023158659 848.68975)
(-0.00094500591 0.0021952599 848.6894)
(-0.0014164325 0.0020090592 848.68875)
(-0.00072522762 0.001688406 848.68787)
(4.457609e-05 0.0012537324 848.68813)
(-0.00047038105 0.001293491 848.68858)
(0.00095793183 0.0012636265 848.68835)
(0.0024599349 0.0012177154 848.6895)
(0.0011580262 0.0011580262 848.69011)
(0.0003389156 0.0010859251 848.69036)
(-0.0004007169 0.00099916013 848.69029)
(-0.0010755608 0.0008930443 848.68989)
(-0.0015779432 0.0007658757 848.68917)
(-0.00089390382 0.00062442324 848.68822)
(-8.9891368e-06 0.00050887742 848.6884)
(-0.00048092093 0.00052819813 848.6889)
(0.00091544267 0.00048298458 848.68866)
(0.0023995119 0.00041645632 848.68979)
(0.0010859251 0.0003389156 848.69036)
(0.0002575902 0.0002575902 848.69059)
(-0.0004924281 0.00017396528 848.69048)
(-0.0011782903 8.671723e-05 848.69004)
(-0.0016850535 -2.8440877e-06 848.68927)
(-0.00098222591 -8.5429614e-05 848.68827)
(-3.2454457e-05 -0.00013761817 848.68842)
(-0.00050052342 -0.00010595284 848.68893)
(0.00084619002 -0.00019646493 848.68866)
(0.0023158659 -0.0002995473 848.68975)
(0.00099916013 -0.00040071691 848.69029)
(0.00017396527 -0.00049242809 848.69048)
(-0.00057158988 -0.00057158988 848.69033)
(-0.0012523701 -0.00063938478 848.68986)
(-0.00175009 -0.00069510482 848.68906)
(-0.0010286779 -0.00073516962 848.68803)
(-4.3781504e-05 -0.00075472056 848.68817)
(-0.00054126233 -0.0005699825 848.68869)
(0.00072184821 -0.00076875412 848.68837)
(0.0021952599 -0.0009450059 848.6894)
(0.0008930443 -0.0010755608 848.68989)
(8.6717233e-05 -0.0011782903 848.69004)
(-0.00063938479 -0.0012523701 848.68986)
(-0.0013018053 -0.0013018053 848.68936)
(-0.0017808384 -0.0013269256 848.68855)
(-0.0010418416 -0.0013265603 848.68751)
(-4.5488415e-05 -0.0013085674 848.68765)
(-0.00063303782 -0.00067249843 848.68825)
(0.00047116662 -0.0010710893 848.68781)
(0.0020090592 -0.0014164325 848.68875)
(0.0007658757 -0.0015779432 848.68917)
(-2.8440894e-06 -0.0016850535 848.68927)
(-0.00069510483 -0.00175009 848.68906)
(-0.0013269256 -0.0017808384 848.68855)
(-0.001774845 -0.001774845 848.68773)
(-0.0010103197 -0.0017189763 848.68671)
(-3.1786252e-05 -0.001608425 848.68687)
(-0.00080698955 7.4564332e-05 848.68785)
(-2.2085834e-05 -0.00013857692 848.68712)
(0.001688406 -0.00072522762 848.68787)
(0.00062442323 -0.00089390381 848.68822)
(-8.5429613e-05 -0.00098222591 848.68827)
(-0.00073516962 -0.0010286779 848.68803)
(-0.0013265603 -0.0010418416 848.68751)
(-0.0017189763 -0.0010103197 848.68671)
(-0.00087542162 -0.00087542162 848.68573)
(2.8212501e-05 -0.00043733957 848.68602)
(-0.00077513199 0.00024893576 848.68836)
(-0.00032862533 0.00028079331 848.68765)
(0.0012537323 4.457609e-05 848.68813)
(0.00050887741 -8.9891357e-06 848.6884)
(-0.00013761817 -3.2454457e-05 848.68842)
(-0.00075472055 -4.3781504e-05 848.68817)
(-0.0013085674 -4.5488411e-05 848.68765)
(-0.001608425 -3.178625e-05 848.68687)
(-0.00043733957 2.8212503e-05 848.68602)
(0.00026026845 0.00026026845 848.68697)
(-0.0019299588 -0.0019299588 842.90727)
(-0.0004722516 -0.00042549771 842.90631)
(0.0035827836 -0.00052989351 842.90743)
(0.0017419958 -0.00054257437 842.908)
(0.00066921109 -0.00055754218 842.90826)
(-0.00024678532 -0.00058512159 842.90822)
(-0.00095206591 -0.00064227713 842.90792)
(-0.0011661836 -0.00077400612 842.9074)
(4.1407573e-05 -0.0010399065 842.90685)
(0.00039308191 -0.0009934173 842.90723)
(-0.00042549771 -0.0004722516 842.90631)
(0.0016278464 0.0016278464 842.90616)
(0.0034071686 0.0014325799 842.90723)
(0.0017005228 0.001386063 842.90779)
(0.00060539026 0.0013253775 842.90803)
(-0.00037388773 0.0012270359 842.90798)
(-0.0012353927 0.001051323 842.90762)
(-0.0017626276 0.0006943199 842.90698)
(-0.0002877092 -3.3327202e-05 842.90617)
(0.00043957106 -0.00044330953 842.9066)
(-0.00052989351 0.0035827836 842.90743)
(0.0014325799 0.0034071686 842.90723)
(0.0033410002 0.0033410002 842.90827)
(0.0016347934 0.0032762985 842.90882)
(0.00051018395 0.0031898107 842.90904)
(-0.00052083986 0.0030702772 842.90895)
(-0.0014847819 0.002898312 842.90854)
(-0.0022508338 0.0026343301 842.90781)
(-0.0010962219 0.002177993 842.9068)
(0.00011976036 0.0015827424 842.90699)
(-0.00054257437 0.0017419958 842.908)
(0.001386063 0.0017005228 842.90779)
(0.0032762985 0.0016347934 842.90882)
(0.0015493332 0.0015493332 842.90934)
(0.00039936889 0.0014463264 842.90953)
(-0.00066538639 0.0013225136 842.90941)
(-0.0016713398 0.0011711344 842.90895)
(-0.0024829466 0.00098990179 842.90816)
(-0.0013392969 0.00078689164 842.90708)
(4.2737327e-05 0.00062125873 842.9072)
(-0.00055754218 0.00066921109 842.90826)
(0.0013253775 0.00060539026 842.90803)
(0.0031898107 0.00051018394 842.90904)
(0.0014463264 0.00039936888 842.90953)
(0.0002833644 0.0002833644 842.90969)
(-0.0007960319 0.00016421664 842.90953)
(-0.0018173937 4.0086449e-05 842.90904)
(-0.0026350765 -8.6998667e-05 842.9082)
(-0.0014648649 -0.00020408285 842.90707)
(9.3384176e-06 -0.00027805748 842.90716)
(-0.00058512159 -0.00024678532 842.90822)
(0.0012270359 -0.00037388773 842.90798)
(0.0030702771 -0.00052083986 842.90895)
(0.0013225136 -0.00066538639 842.90941)
(0.00016421664 -0.0007960319 842.90953)
(-0.00090866434 -0.00090866434 842.90933)
(-0.0019225551 -0.0010048695 842.9088)
(-0.0027271159 -0.0010835504 842.90794)
(-0.0015303557 -0.001139661 842.90679)
(-6.5790906e-06 -0.0011666815 842.90687)
(-0.00064227713 -0.00095206591 842.90792)
(0.001051323 -0.0012353927 842.90762)
(0.002898312 -0.0014847819 842.90854)
(0.0011711344 -0.0016713398 842.90895)
(4.0086452e-05 -0.0018173937 842.90904)
(-0.0010048695 -0.0019225551 842.9088)
(-0.0019922798 -0.0019922798 842.90825)
(-0.002769868 -0.0020267867 842.90737)
(-0.001547996 -0.0020239997 842.90621)
(-8.6752493e-06 -0.0019953342 842.90629)
(-0.00077400612 -0.0011661836 842.9074)
(0.0006943199 -0.0017626276 842.90698)
(0.0026343301 -0.0022508338 842.90781)
(0.00098990179 -0.0024829466 842.90816)
(-8.699867e-05 -0.0026350765 842.9082)
(-0.0010835504 -0.0027271159 842.90794)
(-0.0020267867 -0.002769868 842.90737)
(-0.0027588359 -0.0027588359 842.90649)
(-0.0014989032 -0.0026706886 842.90534)
(1.2531276e-05 -0.0024846535 842.90544)
(-0.0010399065 4.1407576e-05 842.90685)
(-3.33272e-05 -0.00028770919 842.90617)
(0.002177993 -0.0010962219 842.9068)
(0.00078689164 -0.0013392969 842.90708)
(-0.00020408285 -0.0014648649 842.90707)
(-0.001139661 -0.0015303557 842.90679)
(-0.0020239997 -0.001547996 842.90621)
(-0.0026706886 -0.0014989032 842.90534)
(-0.0012738137 -0.0012738137 842.90425)
(0.00011534815 -0.00037228377 842.90447)
(-0.0009934173 0.00039308191 842.90723)
(-0.00044330953 0.00043957106 842.9066)
(0.0015827424 0.00011976036 842.90699)
(0.00062125873 4.2737325e-05 842.9072)
(-0.00027805747 9.3384172e-06 842.90716)
(-0.0011666815 -6.5790911e-06 842.90687)
(-0.0019953342 -8.6752463e-06 842.90629)
(-0.0024846535 1.2531276e-05 842.90544)
(-0.00037228377 0.00011534816 842.90447)
(0.0006135512 0.0006135512 842.90553)
(-0.0022363245 -0.0022363245 837.1484)
(-0.00039392204 -0.00047151971 837.14752)
(0.0043899607 -0.00059371373 837.14857)
(0.0021246103 -0.00061022165 837.14908)
(0.00075116453 -0.000629685 837.14928)
(-0.00044496697 -0.0006650997 837.14919)
(-0.0013972811 -0.00073820011 837.14883)
(-0.001741448 -0.00090828108 837.14825)
(-9.5529691e-05 -0.0012627785 837.14763)
(0.00049970286 -0.0011946535 837.14791)
(-0.00047151971 -0.00039392204 837.14752)
(0.0020699942 0.0020699942 837.1474)
(0.0041819077 0.0018374019 837.14839)
(0.0020706534 0.0017764745 837.14889)
(0.00066884747 0.001697593 837.14907)
(-0.00060773963 0.0015708343 837.14896)
(-0.0017620532 0.0013453198 837.14856)
(-0.0025283155 0.00088610665 837.14787)
(-0.00052508839 -6.7725594e-05 837.14698)
(0.00056782777 -0.00056125686 837.14733)
(-0.00059371372 0.0043899607 837.14857)
(0.0018374019 0.0041819077 837.14839)
(0.004096441 0.004096441 837.14936)
(0.0019848015 0.0040117909 837.14984)
(0.00054552427 0.0038996268 837.15)
(-0.00079724024 0.003745222 837.14986)
(-0.0020820087 0.0035236072 837.1494)
(-0.0031544934 0.0031847914 837.14862)
(-0.0015428932 0.0025973302 837.14756)
(0.00017068202 0.001853037 837.14767)
(-0.00061022165 0.0021246103 837.14908)
(0.0017764745 0.0020706534 837.14889)
(0.0040117909 0.0019848015 837.14984)
(0.0018738392 0.0018738392 837.1503)
(0.00040227847 0.0017406566 837.15043)
(-0.0009837593 0.0015809431 837.15025)
(-0.0023224838 0.0013858955 837.14975)
(-0.0034545924 0.0011527651 837.14891)
(-0.0018568427 0.00089050342 837.14777)
(7.1632288e-05 0.000677669 837.14782)
(-0.000629685 0.00075116453 837.14928)
(0.001697593 0.00066884746 837.14907)
(0.0038996268 0.00054552427 837.15)
(0.0017406566 0.00040227847 837.15043)
(0.00025262819 0.00025262819 837.15054)
(-0.0011520012 9.91659e-05 837.15032)
(-0.0025101867 -6.0443409e-05 837.14978)
(-0.0036498855 -0.00022342839 837.1489)
(-0.0020179893 -0.00037343489 837.14772)
(2.8792407e-05 -0.00046802907 837.14774)
(-0.0006650997 -0.00044496697 837.14919)
(0.0015708343 -0.00060773963 837.14896)
(0.003745222 -0.00079724023 837.14986)
(0.0015809431 -0.00098375931 837.15025)
(9.9165899e-05 -0.0011520012 837.15032)
(-0.0012968309 -0.0012968309 837.15008)
(-0.0026450781 -0.0014201818 837.14951)
(-0.0037675839 -0.0015205427 837.14859)
(-0.0021014434 -0.0015915462 837.14739)
(8.5695008e-06 -0.0016253227 837.1474)
(-0.00073820011 -0.0013972811 837.14883)
(0.0013453198 -0.0017620532 837.14856)
(0.0035236072 -0.0020820087 837.1494)
(0.0013858956 -0.0023224838 837.14975)
(-6.0443404e-05 -0.0025101867 837.14978)
(-0.0014201818 -0.0026450781 837.14951)
(-0.0027338985 -0.0027338985 837.14891)
(-0.0038212499 -0.0027766974 837.14799)
(-0.0021227693 -0.0027707533 837.14678)
(6.2747574e-06 -0.0027316591 837.14679)
(-0.00090828108 -0.001741448 837.14825)
(0.00088610665 -0.0025283155 837.14787)
(0.0031847914 -0.0031544934 837.14862)
(0.0011527651 -0.0034545924 837.14891)
(-0.00022342839 -0.0036498855 837.1489)
(-0.0015205427 -0.0037675839 837.14859)
(-0.0027766974 -0.0038212499 837.14799)
(-0.0038044387 -0.0038044387 837.14706)
(-0.0020564052 -0.0036848479 837.14586)
(3.4632298e-05 -0.0034275987 837.1459)
(-0.0012627785 -9.5529687e-05 837.14763)
(-6.7725603e-05 -0.00052508839 837.14698)
(0.0025973302 -0.0015428932 837.14756)
(0.00089050342 -0.0018568428 837.14777)
(-0.00037343489 -0.0020179893 837.14772)
(-0.0015915462 -0.0021014434 837.14739)
(-0.0027707533 -0.0021227693 837.14678)
(-0.0036848479 -0.0020564052 837.14586)
(-0.0017459293 -0.0017459293 837.14472)
(0.00017777424 -0.00035181722 837.14487)
(-0.0011946535 0.00049970286 837.14791)
(-0.00056125687 0.00056782777 837.14733)
(0.001853037 0.00017068201 837.14767)
(0.00067766901 7.163229e-05 837.14782)
(-0.00046802907 2.8792405e-05 837.14774)
(-0.0016253227 8.5695027e-06 837.1474)
(-0.0027316591 6.2747574e-06 837.14679)
(-0.0034275987 3.4632296e-05 837.1459)
(-0.00035181722 0.00017777424 837.14487)
(0.00096404033 0.00096404033 837.14588)
(-0.0025137399 -0.0025137399 831.41328)
(-0.00030456365 -0.00050676687 831.41249)
(0.0051364644 -0.00064717747 831.41347)
(0.0024526278 -0.00066782563 831.41393)
(0.00078234383 -0.00069178125 831.41408)
(-0.00069121079 -0.00073478656 831.41395)
(-0.0018901254 -0.00082323632 831.41355)
(-0.00236823 -0.0010302 831.41293)
(-0.00030013873 -0.0014704764 831.41227)
(0.00057954065 -0.0013817616 831.41247)
(-0.00050676687 -0.00030456365 831.41249)
(0.00249528 0.00249528 831.41241)
(0.0048948763 0.0022239047 831.41333)
(0.0023857221 0.0021477937 831.41378)
(0.00068190242 0.0020508765 831.41392)
(-0.00088839339 0.0018966176 831.41376)
(-0.0023332456 0.001623235 831.41332)
(-0.0033390901 0.0010659731 831.41259)
(-0.00082748115 -0.00010606168 831.41167)
(0.00066825543 -0.0006781817 831.41194)
(-0.00064717747 0.0051364644 831.41347)
(0.0022239047 0.0048948763 831.41333)
(0.0047889782 0.0047889782 831.41424)
(0.0022795996 0.0046841067 831.41466)
(0.00053116769 0.0045467613 831.41478)
(-0.0011188523 0.0043586663 831.41459)
(-0.0027207699 0.0040893952 831.4141)
(-0.0040975267 0.0036790428 831.41329)
(-0.0020442935 0.0029658163 831.4122)
(0.0001981273 0.0020808389 831.41225)
(-0.00066782562 0.0024526278 831.41393)
(0.0021477937 0.0023857221 831.41378)
(0.0046841067 0.0022795996 831.41466)
(0.0021435052 0.0021435052 831.41507)
(0.00035646199 0.0019809896 831.41516)
(-0.0013457595 0.0017866649 831.41494)
(-0.0030128691 0.0015497214 831.4144)
(-0.004462669 0.0012670115 831.41353)
(-0.002425685 0.00094808209 831.41237)
(7.8270496e-05 0.0006906168 831.41236)
(-0.00069178125 0.00078234383 831.41408)
(0.0020508765 0.00068190242 831.41392)
(0.0045467613 0.00053116769 831.41478)
(0.0019809896 0.00035646199 831.41516)
(0.00017432736 0.00017432736 831.41522)
(-0.0015501205 -1.2120935e-05 831.41496)
(-0.0032404232 -0.00020570487 831.41439)
(-0.004699166 -0.00040292268 831.41348)
(-0.0026206882 -0.0005842604 831.41228)
(2.6483773e-05 -0.00069834177 831.41224)
(-0.00073478656 -0.0006912108 831.41395)
(0.0018966176 -0.00088839339 831.41376)
(0.0043586663 -0.0011188523 831.41459)
(0.0017866649 -0.0013457595 831.41494)
(-1.2120934e-05 -0.0015501205 831.41496)
(-0.0017257918 -0.0017257918 831.41468)
(-0.0034036708 -0.0018750224 831.41408)
(-0.0048412245 -0.0019958856 831.41314)
(-0.0027211041 -0.002080793 831.41192)
(2.2162464e-06 -0.0021206911 831.41187)
(-0.00082323632 -0.0018901254 831.41355)
(0.001623235 -0.0023332456 831.41332)
(0.0040893951 -0.0027207698 831.4141)
(0.0015497214 -0.0030128691 831.4144)
(-0.00020570487 -0.0032404233 831.41439)
(-0.0018750224 -0.0034036708 831.41408)
(-0.0035105171 -0.0035105171 831.41345)
(-0.0049049366 -0.003560786 831.4125)
(-0.0027454938 -0.0035511775 831.41127)
(-1.1495522e-07 -0.0035015765 831.41122)
(-0.0010302 -0.00236823 831.41293)
(0.0010659731 -0.0033390902 831.41259)
(0.0036790428 -0.0040975267 831.41329)
(0.0012670115 -0.004462669 831.41353)
(-0.00040292268 -0.004699166 831.41348)
(-0.0019958856 -0.0048412245 831.41314)
(-0.003560786 -0.0049049366 831.4125)
(-0.004881885 -0.0048818849 831.41155)
(-0.0026618945 -0.0047315246 831.41034)
(3.5283587e-05 -0.0044069235 831.41031)
(-0.0014704764 -0.00030013873 831.41227)
(-0.00010606168 -0.00082748115 831.41167)
(0.0029658163 -0.0020442935 831.4122)
(0.00094808209 -0.002425685 831.41237)
(-0.00058426038 -0.0026206882 831.41228)
(-0.002080793 -0.0027211041 831.41192)
(-0.0035511775 -0.0027454938 831.41127)
(-0.0047315246 -0.0026618945 831.41034)
(-0.0022705323 -0.0022705323 831.40916)
(0.00021628579 -0.00039006096 831.40925)
(-0.0013817616 0.00057954066 831.41247)
(-0.00067818171 0.00066825543 831.41194)
(0.0020808389 0.00019812731 831.41225)
(0.00069061679 7.8270505e-05 831.41236)
(-0.00069834177 2.6483774e-05 831.41224)
(-0.0021206911 2.2162434e-06 831.41187)
(-0.0035015765 -1.1495332e-07 831.41122)
(-0.0044069235 3.5283586e-05 831.41031)
(-0.00039006096 0.00021628579 831.40925)
(0.0012889311 0.0012889311 831.41017)
(-0.0027607704 -0.0027607704 825.70447)
(-0.00019996075 -0.00052976464 825.70377)
(0.0058284919 -0.00068818592 825.70469)
(0.0027344843 -0.00071311142 825.70511)
(0.00077189246 -0.00074149202 825.70522)
(-0.00097443211 -0.00079178825 825.70505)
(-0.0024160844 -0.0008948882 825.70462)
(-0.0030277905 -0.0011370856 825.70398)
(-0.00055518748 -0.0016599074 825.70329)
(0.00063710394 -0.0015536793 825.70343)
(-0.00052976464 -0.00019996075 825.70377)
(0.0029089159 0.0029089159 825.70372)
(0.0055534717 0.0025987117 825.70459)
(0.0026545252 0.0025071112 825.70499)
(0.00065387722 0.0023925185 825.70509)
(-0.0012045264 0.002211842 825.7049)
(-0.0029340305 0.0018927859 825.70443)
(-0.0041753193 0.0012420592 825.70368)
(-0.001180078 -0.00013909104 825.70275)
(0.00074333203 -0.0007885659 825.70294)
(-0.00068818592 0.0058284919 825.70469)
(0.0025987117 0.0055534717 825.70459)
(0.0054266872 0.0054266872 825.70543)
(0.0025282911 0.005301652 825.70582)
(0.0004766232 0.005139814 825.70589)
(-0.0014741648 0.0049193739 825.70567)
(-0.0033858672 0.0046046291 825.70516)
(-0.0050596674 0.0041262579 825.70433)
(-0.0025858126 0.0032932407 825.70323)
(0.0002041207 0.0022750848 825.70322)
(-0.00071311142 0.0027344843 825.70511)
(0.0025071112 0.0026545252 825.70499)
(0.005301652 0.0025282911 825.70582)
(0.002367652 0.002367652 825.70617)
(0.0002715991 0.0021768122 825.70622)
(-0.0017397113 0.0019493126 825.70597)
(-0.0037271465 0.0016723875 825.70542)
(-0.0054867077 0.0013425194 825.70454)
(-0.0030312511 0.00096967315 825.70337)
(6.4561386e-05 0.00066994573 825.7033)
(-0.00074149202 0.00077189247 825.70522)
(0.0023925185 0.00065387722 825.70509)
(0.005139814 0.0004766232 825.70589)
(0.0021768122 0.00027159911 825.70622)
(5.8283872e-05 5.8283879e-05 825.70625)
(-0.0019785895 -0.00015971093 825.70596)
(-0.0039926604 -0.00038568938 825.70537)
(-0.0057623818 -0.00061545745 825.70445)
(-0.0032583863 -0.00082655479 825.70325)
(4.3024189e-06 -0.00095908333 825.70315)
(-0.00079178825 -0.00097443211 825.70505)
(0.002211842 -0.0012045264 825.7049)
(0.0049193739 -0.0014741648 825.70567)
(0.0019493126 -0.0017397113 825.70597)
(-0.00015971093 -0.0019785895 825.70596)
(-0.0021836845 -0.0021836845 825.70565)
(-0.004182893 -0.0023575511 825.70503)
(-0.0059275731 -0.0024978757 825.70409)
(-0.003374877 -0.0025959407 825.70286)
(-2.3790974e-05 -0.0026415857 825.70276)
(-0.00089488821 -0.0024160844 825.70462)
(0.0018927859 -0.0029340305 825.70443)
(0.0046046291 -0.0033858672 825.70516)
(0.0016723875 -0.0037271465 825.70542)
(-0.00038568938 -0.0039926604 825.70537)
(-0.0023575511 -0.004182893 825.70503)
(-0.0043068515 -0.0043068515 825.70439)
(-0.0060007714 -0.0043641518 825.70343)
(-0.0034020964 -0.0043509685 825.7022)
(-2.612758e-05 -0.0042912843 825.7021)
(-0.0011370857 -0.0030277905 825.70398)
(0.0012420592 -0.0041753193 825.70368)
(0.0041262579 -0.0050596674 825.70433)
(0.0013425194 -0.0054867077 825.70454)
(-0.00061545745 -0.0057623818 825.70445)
(-0.0024978757 -0.0059275731 825.70409)
(-0.0043641518 -0.0060007714 825.70343)
(-0.0059716901 -0.0059716901 825.70247)
(-0.0033020095 -0.0057921008 825.70125)
(1.5998471e-05 -0.0054041512 825.70117)
(-0.0016599074 -0.00055518749 825.70329)
(-0.00013909104 -0.001180078 825.70275)
(0.0032932407 -0.0025858126 825.70323)
(0.00096967315 -0.0030312511 825.70337)
(-0.00082655479 -0.0032583863 825.70325)
(-0.0025959407 -0.003374877 825.70286)
(-0.0043509685 -0.0034020964 825.7022)
(-0.0057921008 -0.0033020095 825.70125)
(-0.0028345575 -0.0028345575 825.70008)
(0.00023250545 -0.00048531944 825.7001)
(-0.0015536793 0.00063710394 825.70343)
(-0.00078856591 0.00074333203 825.70294)
(0.0022750848 0.0002041207 825.70322)
(0.00066994574 6.4561388e-05 825.7033)
(-0.00095908333 4.30242e-06 825.70315)
(-0.0026415857 -2.3790977e-05 825.70276)
(-0.0042912843 -2.6127577e-05 825.7021)
(-0.0054041512 1.5998468e-05 825.70117)
(-0.00048531943 0.00023250545 825.7001)
(0.0015821572 0.0015821572 825.70093)
(-0.0029762343 -0.0029762343 820.02488)
(-7.8359396e-05 -0.00054014215 820.02429)
(0.0064685105 -0.00071604717 820.02514)
(0.0029762442 -0.00074527827 820.02551)
(0.00072795746 -0.00077796357 820.02559)
(-0.0012842798 -0.00083520667 820.0254)
(-0.0029624015 -0.00095218157 820.02495)
(-0.0037057708 -0.0012277825 820.0243)
(-0.00084944253 -0.001829422 820.02359)
(0.0006749588 -0.0017091232 820.02368)
(-0.00054014215 -7.8359403e-05 820.02429)
(0.0033119213 0.0033119213 820.02427)
(0.0061608064 0.0029636224 820.02508)
(0.0028833696 0.0028565557 820.02544)
(0.00059306486 0.002724831 820.0255)
(-0.0015456068 0.0025189727 820.02529)
(-0.0035512653 0.002156653 820.0248)
(-0.0050216315 0.0014174719 820.02405)
(-0.0015714536 -0.00016252857 820.02311)
(0.00079525759 -0.00088847381 820.02324)
(-0.00071604717 0.0064685105 820.02514)
(0.0029636224 0.0061608063 820.02508)
(0.006013145 0.0060131449 820.02586)
(0.0027374528 0.0058682953 820.0262)
(0.00039037437 0.0056828537 820.02625)
(-0.0018524578 0.0054315848 820.02601)
(-0.0040639023 0.0050737363 820.02548)
(-0.0060249524 0.0045310999 820.02465)