/*--------------------------------*- C++ -*----------------------------------*\
| =========                 |                                                 |
| \\      /  F ield         | OpenFOAM: The Open Source CFD Toolbox           |
|  \\    /   O peration     | Version:  v2106                                 |
|   \\  /    A nd           | Website:  www.openfoam.com                      |
|    \\/     M anipulation  |                                                 |
\*---------------------------------------------------------------------------*/
FoamFile
{
    version     2.0;
    format      ascii;
    arch        "LSB;label=32;scalar=64";
    class       volScalarField;
    location    "52.5";
    object      gradTz;
}
// * * * * * * * * * * * * * * * * * * * * * * * * * * * * * * * * * * * * * //

dimensions      [0 -1 0 1 0 0 0];

internalField   nonuniform List<scalar> 
4000
(
578.34619
578.34401
578.34542
578.34596
578.34625
578.34632
578.34622
578.34603
578.34586
578.34592
578.34401
578.34352
578.34476
578.3453
578.34557
578.34562
578.34549
578.34522
578.34493
578.34502
578.34542
578.34476
578.34599
578.34651
578.34676
578.34679
578.34662
578.34628
578.34586
578.3457
578.34596
578.3453
578.34651
578.34702
578.34725
578.34725
578.34705
578.34666
578.34619
578.34599
578.34625
578.34557
578.34676
578.34725
578.34746
578.34744
578.3472
578.34679
578.34628
578.34606
578.34632
578.34562
578.34679
578.34725
578.34744
578.34739
578.34713
578.34669
578.34617
578.34594
578.34622
578.34549
578.34662
578.34705
578.3472
578.34713
578.34685
578.3464
578.34587
578.34564
578.34603
578.34522
578.34628
578.34666
578.34679
578.34669
578.3464
578.34595
578.34542
578.3452
578.34586
578.34493
578.34586
578.34619
578.34628
578.34617
578.34587
578.34542
578.34491
578.34472
578.34592
578.34502
578.3457
578.34599
578.34606
578.34594
578.34564
578.3452
578.34472
578.34461
854.48936
854.48746
854.489
854.48975
854.49013
854.49021
854.49003
854.48969
854.48943
854.4898
854.48746
854.48699
854.48844
854.48918
854.48955
854.4896
854.48937
854.48891
854.4884
854.48883
854.489
854.48844
854.48987
854.49059
854.49094
854.49095
854.49066
854.4901
854.48939
854.48951
854.48975
854.48918
854.49059
854.49129
854.49161
854.49158
854.49124
854.49062
854.48983
854.48987
854.49013
854.48955
854.49094
854.49161
854.49189
854.49183
854.49145
854.49077
854.48993
854.48995
854.49021
854.4896
854.49095
854.49158
854.49183
854.49173
854.49131
854.49061
854.48974
854.48974
854.49003
854.48937
854.49066
854.49124
854.49145
854.49131
854.49087
854.49015
854.48928
854.48927
854.48969
854.48891
854.4901
854.49062
854.49077
854.49061
854.49015
854.48942
854.48856
854.48857
854.48943
854.4884
854.48939
854.48983
854.48993
854.48974
854.48928
854.48856
854.48774
854.48784
854.4898
854.48883
854.48951
854.48987
854.48995
854.48974
854.48927
854.48857
854.48784
854.48828
848.68781
848.6867
848.68793
848.68858
848.6889
848.68893
848.68869
848.68825
848.68785
848.68836
848.6867
848.68653
848.68771
848.68835
848.68866
848.68866
848.68837
848.68781
848.68712
848.68765
848.68793
848.68771
848.68887
848.6895
848.68979
848.68975
848.6894
848.68875
848.68787
848.68813
848.68858
848.68835
848.6895
848.69011
848.69036
848.69029
848.68989
848.68917
848.68822
848.6884
848.6889
848.68866
848.68979
848.69036
848.69059
848.69048
848.69004
848.68927
848.68827
848.68842
848.68893
848.68866
848.68975
848.69029
848.69048
848.69033
848.68986
848.68906
848.68803
848.68817
848.68869
848.68837
848.6894
848.68989
848.69004
848.68986
848.68936
848.68855
848.68751
848.68765
848.68825
848.68781
848.68875
848.68917
848.68927
848.68906
848.68855
848.68773
848.68671
848.68687
848.68785
848.68712
848.68787
848.68822
848.68827
848.68803
848.68751
848.68671
848.68573
848.68602
848.68836
848.68765
848.68813
848.6884
848.68842
848.68817
848.68765
848.68687
848.68602
848.68697
842.90727
842.90631
842.90743
842.908
842.90826
842.90822
842.90792
842.9074
842.90685
842.90723
842.90631
842.90616
842.90723
842.90779
842.90803
842.90798
842.90762
842.90698
842.90617
842.9066
842.90743
842.90723
842.90827
842.90882
842.90904
842.90895
842.90854
842.90781
842.9068
842.90699
842.908
842.90779
842.90882
842.90934
842.90953
842.90941
842.90895
842.90816
842.90708
842.9072
842.90826
842.90803
842.90904
842.90953
842.90969
842.90953
842.90904
842.9082
842.90707
842.90716
842.90822
842.90798
842.90895
842.90941
842.90953
842.90933
842.9088
842.90794
842.90679
842.90687
842.90792
842.90762
842.90854
842.90895
842.90904
842.9088
842.90825
842.90737
842.90621
842.90629
842.9074
842.90698
842.90781
842.90816
842.9082
842.90794
842.90737
842.90649
842.90534
842.90544
842.90685
842.90617
842.9068
842.90708
842.90707
842.90679
842.90621
842.90534
842.90425
842.90447
842.90723
842.9066
842.90699
842.9072
842.90716
842.90687
842.90629
842.90544
842.90447
842.90553
837.1484
837.14752
837.14857
837.14908
837.14928
837.14919
837.14883
837.14825
837.14763
837.14791
837.14752
837.1474
837.14839
837.14889
837.14907
837.14896
837.14856
837.14787
837.14698
837.14733
837.14857
837.14839
837.14936
837.14984
837.15
837.14986
837.1494
837.14862
837.14756
837.14767
837.14908
837.14889
837.14984
837.1503
837.15043
837.15025
837.14975
837.14891
837.14777
837.14782
837.14928
837.14907
837.15
837.15043
837.15054
837.15032
837.14978
837.1489
837.14772
837.14774
837.14919
837.14896
837.14986
837.15025
837.15032
837.15008
837.14951
837.14859
837.14739
837.1474
837.14883
837.14856
837.1494
837.14975
837.14978
837.14951
837.14891
837.14799
837.14678
837.14679
837.14825
837.14787
837.14862
837.14891
837.1489
837.14859
837.14799
837.14706
837.14586
837.1459
837.14763
837.14698
837.14756
837.14777
837.14772
837.14739
837.14678
837.14586
837.14472
837.14487
837.14791
837.14733
837.14767
837.14782
837.14774
837.1474
837.14679
837.1459
837.14487
837.14588
831.41328
831.41249
831.41347
831.41393
831.41408
831.41395
831.41355
831.41293
831.41227
831.41247
831.41249
831.41241
831.41333
831.41378
831.41392
831.41376
831.41332
831.41259
831.41167
831.41194
831.41347
831.41333
831.41424
831.41466
831.41478
831.41459
831.4141
831.41329
831.4122
831.41225
831.41393
831.41378
831.41466
831.41507
831.41516
831.41494
831.4144
831.41353
831.41237
831.41236
831.41408
831.41392
831.41478
831.41516
831.41522
831.41496
831.41439
831.41348
831.41228
831.41224
831.41395
831.41376
831.41459
831.41494
831.41496
831.41468
831.41408
831.41314
831.41192
831.41187
831.41355
831.41332
831.4141
831.4144
831.41439
831.41408
831.41345
831.4125
831.41127
831.41122
831.41293
831.41259
831.41329
831.41353
831.41348
831.41314
831.4125
831.41155
831.41034
831.41031
831.41227
831.41167
831.4122
831.41237
831.41228
831.41192
831.41127
831.41034
831.40916
831.40925
831.41247
831.41194
831.41225
831.41236
831.41224
831.41187
831.41122
831.41031
831.40925
831.41017
825.70447
825.70377
825.70469
825.70511
825.70522
825.70505
825.70462
825.70398
825.70329
825.70343
825.70377
825.70372
825.70459
825.70499
825.70509
825.7049
825.70443
825.70368
825.70275
825.70294
825.70469
825.70459
825.70543
825.70582
825.70589
825.70567
825.70516
825.70433
825.70323
825.70322
825.70511
825.70499
825.70582
825.70617
825.70622
825.70597
825.70542
825.70454
825.70337
825.7033
825.70522
825.70509
825.70589
825.70622
825.70625
825.70596
825.70537
825.70445
825.70325
825.70315
825.70505
825.7049
825.70567
825.70597
825.70596
825.70565
825.70503
825.70409
825.70286
825.70276
825.70462
825.70443
825.70516
825.70542
825.70537
825.70503
825.70439
825.70343
825.7022
825.7021
825.70398
825.70368
825.70433
825.70454
825.70445
825.70409
825.70343
825.70247
825.70125
825.70117
825.70329
825.70275
825.70323
825.70337
825.70325
825.70286
825.7022
825.70125
825.70008
825.7001
825.70343
825.70294
825.70322
825.7033
825.70315
825.70276
825.7021
825.70117
825.7001
825.70093
820.02488
820.02429
820.02514
820.02551
820.02559
820.0254
820.02495
820.0243
820.02359
820.02368
820.02429
820.02427
820.02508
820.02544
820.0255
820.02529
820.0248
820.02405
820.02311
820.02324
820.02514
820.02508
820.02586
820.0262
820.02625
820.02601
820.02548
820.02465
820.02356
820.02349
820.02551
820.02544
820.0262
820.02652
820.02654
820.02627
820.0257
820.02482
820.02366
820.02355
820.02559
820.0255
820.02625
820.02654
820.02653
820.02623
820.02563
820.02471
820.02352
820.02338
820.0254
820.02529
820.02601
820.02627
820.02623
820.0259
820.02527
820.02433
820.02312
820.02297
820.02495
820.0248
820.02548
820.0257
820.02563
820.02527
820.02462
820.02367
820.02245
820.0223
820.0243
820.02405
820.02465
820.02482
820.02471
820.02433
820.02367
820.02272
820.02151
820.02138
820.02359
820.02311
820.02356
820.02366
820.02352
820.02312
820.02245
820.02151
820.02035
820.02031
820.02368
820.02324
820.02349
820.02355
820.02338
820.02297
820.0223
820.02138
820.02031
820.02104
814.37779
814.37729
814.37809
814.37842
814.37846
814.37825
814.3778
814.37714
814.37643
814.37647
814.37729
814.37731
814.37806
814.37838
814.37841
814.37818
814.37769
814.37694
814.37602
814.37608
814.37809
814.37806
814.37878
814.37908
814.3791
814.37884
814.37831
814.37749
814.37642
814.37631
814.37842
814.37838
814.37908
814.37936
814.37936
814.37907
814.3785
814.37763
814.3765
814.37634
814.37846
814.37841
814.3791
814.37936
814.37932
814.37901
814.37841
814.37751
814.37634
814.37616
814.37825
814.37818
814.37884
814.37907
814.37901
814.37867
814.37804
814.37712
814.37594
814.37574
814.3778
814.37769
814.37831
814.3785
814.37841
814.37804
814.3774
814.37646
814.37528
814.37508
814.37714
814.37694
814.37749
814.37763
814.37751
814.37712
814.37646
814.37553
814.37435
814.37417
814.37643
814.37602
814.37642
814.3765
814.37634
814.37594
814.37528
814.37435
814.37321
814.37312
814.37647
814.37608
814.37631
814.37634
814.37616
814.37574
814.37508
814.37417
814.37312
814.37375
808.76675
808.76635
808.76707
808.76737
808.76739
808.76717
808.76671
808.76606
808.76536
808.76535
808.76635
808.76641
808.76709
808.76737
808.76738
808.76714
808.76665
808.76591
808.76501
808.76502
808.76707
808.76709
808.76774
808.76801
808.768
808.76773
808.76721
808.76641
808.76537
808.76522
808.76737
808.76737
808.76801
808.76825
808.76822
808.76793
808.76737
808.76653
808.76543
808.76523
808.76739
808.76738
808.768
808.76822
808.76817
808.76785
808.76726
808.76638
808.76526
808.76504
808.76717
808.76714
808.76773
808.76793
808.76785
808.7675
808.76689
808.766
808.76486
808.76463
808.76671
808.76665
808.76721
808.76737
808.76726
808.76689
808.76626
808.76535
808.76421
808.76398
808.76606
808.76591
808.76641
808.76653
808.76638
808.766
808.76535
808.76445
808.76331
808.76309
808.76536
808.76501
808.76537
808.76543
808.76526
808.76486
808.76421
808.76331
808.76221
808.76207
808.76535
808.76502
808.76522
808.76523
808.76504
808.76463
808.76398
808.76309
808.76207
808.76261
803.19557
803.19526
803.19592
803.19617
803.19617
803.19594
803.19549
803.19486
803.19418
803.19412
803.19526
803.19535
803.19596
803.1962
803.19619
803.19595
803.19547
803.19476
803.19389
803.19384
803.19592
803.19596
803.19655
803.19678
803.19675
803.19648
803.19597
803.1952
803.19421
803.19402
803.19617
803.1962
803.19678
803.19699
803.19694
803.19664
803.1961
803.19529
803.19425
803.19402
803.19617
803.19619
803.19675
803.19694
803.19687
803.19655
803.19598
803.19514
803.19407
803.19382
803.19594
803.19595
803.19648
803.19664
803.19655
803.19621
803.19561
803.19476
803.19367
803.19341
803.19549
803.19547
803.19597
803.1961
803.19598
803.19561
803.195
803.19414
803.19304
803.19279
803.19486
803.19476
803.1952
803.19529
803.19514
803.19476
803.19414
803.19327
803.19218
803.19194
803.19418
803.19389
803.19421
803.19425
803.19407
803.19367
803.19304
803.19218
803.19113
803.19095
803.19412
803.19384
803.19402
803.19402
803.19382
803.19341
803.19279
803.19194
803.19095
803.1914
797.66825
797.66804
797.66862
797.66883
797.66881
797.66858
797.66814
797.66754
797.66688
797.66679
797.66804
797.66815
797.66869
797.6689
797.66887
797.66862
797.66816
797.66748
797.66665
797.66656
797.66862
797.66869
797.66922
797.66941
797.66936
797.66909
797.6686
797.66787
797.66693
797.66671
797.66883
797.6689
797.66941
797.66958
797.66952
797.66922
797.6687
797.66793
797.66695
797.66669
797.66881
797.66887
797.66936
797.66952
797.66943
797.66912
797.66857
797.66778
797.66677
797.66649
797.66858
797.66862
797.66909
797.66922
797.66912
797.66878
797.66821
797.6674
797.66638
797.6661
797.66814
797.66816
797.6686
797.6687
797.66857
797.66821
797.66763
797.66681
797.66578
797.6655
797.66754
797.66748
797.66787
797.66793
797.66778
797.6674
797.66681
797.66599
797.66497
797.6647
797.66688
797.66665
797.66693
797.66695
797.66677
797.66638
797.66578
797.66497
797.66397
797.66376
797.66679
797.66656
797.66671
797.66669
797.66649
797.6661
797.6655
797.6647
797.66376
797.66411
792.18896
792.18883
792.18934
792.18952
792.18948
792.18925
792.18883
792.18825
792.18762
792.1875
792.18883
792.18897
792.18944
792.18961
792.18956
792.18932
792.18887
792.18824
792.18746
792.18733
792.18934
792.18944
792.18989
792.19005
792.18999
792.18972
792.18925
792.18857
792.18769
792.18745
792.18952
792.18961
792.19005
792.19018
792.19011
792.18982
792.18932
792.18861
792.18769
792.18742
792.18948
792.18956
792.18999
792.19011
792.19001
792.18971
792.18919
792.18845
792.18751
792.18722
792.18925
792.18932
792.18972
792.18982
792.18971
792.18938
792.18885
792.18809
792.18714
792.18684
792.18883
792.18887
792.18925
792.18932
792.18919
792.18885
792.1883
792.18753
792.18658
792.18628
792.18825
792.18824
792.18857
792.18861
792.18845
792.18809
792.18753
792.18677
792.18582
792.18553
792.18762
792.18746
792.18769
792.18769
792.18751
792.18714
792.18658
792.18582
792.18488
792.18464
792.1875
792.18733
792.18745
792.18742
792.18722
792.18684
792.18628
792.18553
792.18464
792.18491
786.76197
786.76193
786.76235
786.76249
786.76244
786.76221
786.76181
786.76127
786.76068
786.76053
786.76193
786.76209
786.76248
786.76261
786.76255
786.76231
786.76189
786.7613
786.76058
786.76041
786.76235
786.76248
786.76286
786.76297
786.7629
786.76264
786.7622
786.76157
786.76076
786.7605
786.76249
786.76261
786.76297
786.76308
786.76299
786.76271
786.76225
786.76159
786.76075
786.76046
786.76244
786.76255
786.7629
786.76299
786.76288
786.76259
786.76211
786.76143
786.76057
786.76027
786.76221
786.76231
786.76264
786.76271
786.76259
786.76228
786.76178
786.76109
786.76022
786.75991
786.76181
786.76189
786.7622
786.76225
786.76211
786.76178
786.76127
786.76057
786.7597
786.75939
786.76127
786.7613
786.76157
786.76159
786.76143
786.76109
786.76057
786.75987
786.759
786.7587
786.76068
786.76058
786.76076
786.76075
786.76057
786.76022
786.7597
786.759
786.75814
786.75788
786.76053
786.76041
786.7605
786.76046
786.76027
786.75991
786.75939
786.7587
786.75788
786.75807
781.39163
781.39167
781.39201
781.39211
781.39204
781.39181
781.39144
781.39095
781.3904
781.39022
781.39167
781.39184
781.39215
781.39224
781.39217
781.39194
781.39155
781.39101
781.39035
781.39015
781.39201
781.39215
781.39245
781.39253
781.39245
781.3922
781.39179
781.39122
781.39049
781.39022
781.39211
781.39224
781.39253
781.3926
781.3925
781.39224
781.39181
781.39122
781.39046
781.39017
781.39204
781.39217
781.39245
781.3925
781.39239
781.39211
781.39167
781.39106
781.39028
781.38998
781.39181
781.39194
781.3922
781.39224
781.39211
781.39182
781.39137
781.39074
781.38996
781.38965
781.39144
781.39155
781.39179
781.39181
781.39167
781.39137
781.3909
781.39027
781.38948
781.38917
781.39095
781.39101
781.39122
781.39122
781.39106
781.39074
781.39027
781.38964
781.38885
781.38854
781.3904
781.39035
781.39049
781.39046
781.39028
781.38996
781.38948
781.38885
781.38808
781.3878
781.39022
781.39015
781.39022
781.39017
781.38998
781.38965
781.38917
781.38854
781.3878
781.38791
776.0823
776.08241
776.08267
776.08273
776.08264
776.08243
776.08209
776.08164
776.08115
776.08095
776.08241
776.0826
776.08283
776.08288
776.08279
776.08257
776.08222
776.08174
776.08115
776.08093
776.08267
776.08283
776.08305
776.08309
776.083
776.08276
776.08239
776.08189
776.08124
776.08096
776.08273
776.08288
776.08309
776.08313
776.08302
776.08277
776.08239
776.08186
776.0812
776.0809
776.08264
776.08279
776.083
776.08302
776.0829
776.08264
776.08225
776.08171
776.08102
776.08072
776.08243
776.08257
776.08276
776.08277
776.08264
776.08237
776.08197
776.08142
776.08073
776.08042
776.08209
776.08222
776.08239
776.08239
776.08225
776.08197
776.08155
776.081
776.0803
776.07999
776.08164
776.08174
776.08189
776.08186
776.08171
776.08142
776.081
776.08044
776.07974
776.07943
776.08115
776.08115
776.08124
776.0812
776.08102
776.08073
776.0803
776.07974
776.07906
776.07877
776.08095
776.08093
776.08096
776.0809
776.08072
776.08042
776.07999
776.07943
776.07877
776.07881
770.83834
770.83853
770.8387
770.83872
770.83862
770.83842
770.83812
770.83772
770.83728
770.83706
770.83853
770.83872
770.83887
770.83889
770.83879
770.83858
770.83826
770.83784
770.83733
770.83709
770.8387
770.83887
770.83901
770.83902
770.83891
770.8387
770.83837
770.83793
770.83737
770.83709
770.83872
770.83889
770.83902
770.83902
770.8389
770.83868
770.83834
770.83788
770.83731
770.83702
770.83862
770.83879
770.83891
770.8389
770.83878
770.83854
770.8382
770.83773
770.83715
770.83685
770.83842
770.83858
770.8387
770.83868
770.83854
770.8383
770.83794
770.83747
770.83688
770.83658
770.83812
770.83826
770.83837
770.83834
770.8382
770.83794
770.83758
770.8371
770.83651
770.83621
770.83772
770.83784
770.83793
770.83788
770.83773
770.83747
770.8371
770.83662
770.83603
770.83573
770.83728
770.83733
770.83737
770.83731
770.83715
770.83688
770.83651
770.83603
770.83544
770.83515
770.83706
770.83709
770.83709
770.83702
770.83685
770.83658
770.83621
770.83573
770.83515
770.83512
765.66408
765.66433
765.66441
765.66439
765.66429
765.6641
765.66383
765.66349
765.6631
765.66288
765.66433
765.66452
765.66459
765.66457
765.66446
765.66427
765.664
765.66364
765.6632
765.66295
765.66441
765.66459
765.66465
765.66462
765.66451
765.66431
765.66403
765.66366
765.6632
765.66293
765.66439
765.66457
765.66462
765.66459
765.66447
765.66426
765.66397
765.6636
765.66313
765.66284
765.66429
765.66446
765.66451
765.66447
765.66434
765.66413
765.66383
765.66345
765.66297
765.66268
765.6641
765.66427
765.66431
765.66426
765.66413
765.66391
765.66361
765.66322
765.66274
765.66245
765.66383
765.664
765.66403
765.66397
765.66383
765.66361
765.6633
765.66291
765.66243
765.66213
765.66349
765.66364
765.66366
765.6636
765.66345
765.66322
765.66291
765.66251
765.66203
765.66173
765.6631
765.6632
765.6632
765.66313
765.66297
765.66274
765.66243
765.66203
765.66154
765.66125
765.66288
765.66295
765.66293
765.66284
765.66268
765.66245
765.66213
765.66173
765.66125
765.66116
760.56373
760.56405
760.56404
760.56398
760.56386
760.56369
760.56346
760.56318
760.56286
760.56263
760.56405
760.56424
760.56423
760.56416
760.56405
760.56387
760.56364
760.56335
760.563
760.56274
760.56404
760.56423
760.56421
760.56414
760.56402
760.56384
760.56361
760.56331
760.56295
760.56269
760.56398
760.56416
760.56414
760.56407
760.56394
760.56376
760.56353
760.56323
760.56286
760.56259
760.56386
760.56405
760.56402
760.56394
760.56382
760.56363
760.56339
760.56309
760.56272
760.56245
760.56369
760.56387
760.56384
760.56376
760.56363
760.56344
760.5632
760.56289
760.56252
760.56225
760.56346
760.56364
760.56361
760.56353
760.56339
760.5632
760.56295
760.56264
760.56227
760.56199
760.56318
760.56335
760.56331
760.56323
760.56309
760.56289
760.56264
760.56233
760.56196
760.56168
760.56286
760.563
760.56295
760.56286
760.56272
760.56252
760.56227
760.56196
760.56157
760.5613
760.56263
760.56274
760.56269
760.56259
760.56245
760.56225
760.56199
760.56168
760.5613
760.56114
755.54142
755.54179
755.54169
755.5416
755.54147
755.54132
755.54113
755.54091
755.54066
755.54042
755.54179
755.54198
755.54188
755.54178
755.54166
755.5415
755.54132
755.5411
755.54084
755.54057
755.54169
755.54188
755.54178
755.54168
755.54155
755.5414
755.54121
755.541
755.54074
755.54049
755.5416
755.54178
755.54168
755.54158
755.54145
755.54129
755.54111
755.54089
755.54064
755.54038
755.54147
755.54166
755.54155
755.54145
755.54132
755.54116
755.54098
755.54076
755.5405
755.54025
755.54132
755.5415
755.5414
755.54129
755.54116
755.541
755.54082
755.5406
755.54035
755.54009
755.54113
755.54132
755.54121
755.54111
755.54098
755.54082
755.54063
755.54042
755.54016
755.5399
755.54091
755.5411
755.541
755.54089
755.54076
755.5406
755.54042
755.5402
755.53993
755.53968
755.54066
755.54084
755.54074
755.54064
755.5405
755.54035
755.54016
755.53993
755.53966
755.5394
755.54042
755.54057
755.54049
755.54038
755.54025
755.54009
755.5399
755.53968
755.5394
755.53919
750.60111
750.60153
750.60134
750.60121
750.60108
750.60094
750.6008
750.60064
750.60046
750.60022
750.60153
750.60171
750.60153
750.60139
750.60126
750.60113
750.60099
750.60085
750.60067
750.60041
750.60134
750.60153
750.60135
750.60121
750.60108
750.60095
750.60082
750.60068
750.60053
750.60029
750.60121
750.60139
750.60121
750.60108
750.60095
750.60082
750.60069
750.60056
750.60041
750.60018
750.60108
750.60126
750.60108
750.60095
750.60082
750.60069
750.60056
750.60044
750.60029
750.60007
750.60094
750.60113
750.60095
750.60082
750.60069
750.60056
750.60044
750.60032
750.60017
750.59995
750.6008
750.60099
750.60082
750.60069
750.60056
750.60044
750.60032
750.60019
750.60005
750.59982
750.60064
750.60085
750.60068
750.60056
750.60044
750.60032
750.60019
750.60007
750.59992
750.59969
750.60046
750.60067
750.60053
750.60041
750.60029
750.60017
750.60005
750.59992
750.59976
750.59951
750.60022
750.60041
750.60029
750.60018
750.60007
750.59995
750.59982
750.59969
750.59951
750.59926
745.74659
745.74705
745.74678
745.74661
745.74647
745.74635
745.74626
745.74617
745.74605
745.74582
745.74705
745.74721
745.74696
745.74679
745.74665
745.74654
745.74645
745.74638
745.7463
745.74604
745.74678
745.74696
745.7467
745.74653
745.74639
745.74629
745.74621
745.74615
745.74611
745.7459
745.74661
745.74679
745.74653
745.74636
745.74623
745.74613
745.74606
745.74601
745.74598
745.74578
745.74647
745.74665
745.74639
745.74623
745.7461
745.74601
745.74594
745.7459
745.74588
745.74568
745.74635
745.74654
745.74629
745.74613
745.74601
745.74592
745.74585
745.74582
745.7458
745.7456
745.74626
745.74645
745.74621
745.74606
745.74594
745.74585
745.7458
745.74576
745.74574
745.74554
745.74617
745.74638
745.74615
745.74601
745.7459
745.74582
745.74576
745.74573
745.7457
745.7455
745.74605
745.7463
745.74611
745.74598
745.74588
745.7458
745.74574
745.7457
745.74566
745.74543
745.74582
745.74604
745.7459
745.74578
745.74568
745.7456
745.74554
745.7455
745.74543
745.74514
740.98144
740.98194
740.98158
740.98137
740.98123
740.98114
740.98109
740.98107
740.98102
740.98081
740.98194
740.98209
740.98175
740.98155
740.9814
740.98132
740.98128
740.98129
740.9813
740.98105
740.98158
740.98175
740.98142
740.98122
740.98108
740.981
740.98097
740.981
740.98106
740.98088
740.98137
740.98155
740.98122
740.98102
740.98089
740.98082
740.9808
740.98085
740.98092
740.98076
740.98123
740.9814
740.98108
740.98089
740.98076
740.9807
740.98069
740.98075
740.98084
740.98068
740.98114
740.98132
740.981
740.98082
740.9807
740.98064
740.98064
740.9807
740.9808
740.98064
740.98109
740.98128
740.98097
740.9808
740.98069
740.98064
740.98065
740.98071
740.98081
740.98065
740.98107
740.98129
740.981
740.98085
740.98075
740.9807
740.98071
740.98078
740.98086
740.9807
740.98102
740.9813
740.98106
740.98092
740.98084
740.9808
740.98081
740.98086
740.98094
740.98074
740.98081
740.98105
740.98088
740.98076
740.98068
740.98064
740.98065
740.9807
740.98074
740.98041
736.30902
736.30955
736.30911
736.30887
736.30872
736.30865
736.30865
736.3087
736.30873
736.30853
736.30955
736.30968
736.30927
736.30903
736.30889
736.30883
736.30884
736.30892
736.30903
736.30879
736.30911
736.30927
736.30886
736.30863
736.30849
736.30844
736.30847
736.30858
736.30875
736.3086
736.30887
736.30903
736.30863
736.30841
736.30828
736.30824
736.30828
736.30841
736.3086
736.30847
736.30872
736.30889
736.30849
736.30828
736.30816
736.30813
736.30818
736.30833
736.30853
736.30841
736.30865
736.30883
736.30844
736.30824
736.30813
736.3081
736.30817
736.30832
736.30854
736.30842
736.30865
736.30884
736.30847
736.30828
736.30818
736.30817
736.30824
736.3084
736.30861
736.30849
736.3087
736.30892
736.30858
736.30841
736.30833
736.30832
736.3084
736.30856
736.30876
736.30864
736.30873
736.30903
736.30875
736.3086
736.30853
736.30854
736.30861
736.30876
736.30895
736.30879
736.30853
736.30879
736.3086
736.30847
736.30841
736.30842
736.30849
736.30864
736.30879
736.30843
731.73244
731.73299
731.73248
731.73221
731.73206
731.73201
731.73206
731.73217
731.73228
731.73209
731.73299
731.73311
731.73262
731.73236
731.73221
731.73217
731.73224
731.7324
731.7326
731.73238
731.73248
731.73262
731.73214
731.73188
731.73175
731.73172
731.73181
731.732
731.73228
731.73216
731.73221
731.73236
731.73188
731.73163
731.73151
731.7315
731.7316
731.73182
731.73213
731.73203
731.73206
731.73221
731.73175
731.73151
731.73139
731.7314
731.73151
731.73175
731.73207
731.73199
731.73201
731.73217
731.73172
731.7315
731.7314
731.73141
731.73154
731.73179
731.73212
731.73204
731.73206
731.73224
731.73181
731.7316
731.73151
731.73154
731.73168
731.73193
731.73226
731.73218
731.73217
731.7324
731.732
731.73182
731.73175
731.73179
731.73193
731.73218
731.73251
731.73242
731.73228
731.7326
731.73228
731.73213
731.73207
731.73212
731.73226
731.73251
731.73281
731.73268
731.73209
731.73238
731.73216
731.73203
731.73199
731.73204
731.73218
731.73242
731.73268
731.7323
727.25454
727.25511
727.25452
727.25422
727.25407
727.25404
727.25414
727.25433
727.25451
727.25434
727.25511
727.2552
727.25464
727.25435
727.2542
727.25419
727.25431
727.25455
727.25485
727.25465
727.25452
727.25464
727.2541
727.25381
727.25368
727.25368
727.25382
727.2541
727.25449
727.2544
727.25422
727.25435
727.25381
727.25354
727.25342
727.25344
727.2536
727.25391
727.25432
727.25427
727.25407
727.2542
727.25368
727.25342
727.25331
727.25335
727.25353
727.25385
727.25429
727.25425
727.25404
727.25419
727.25368
727.25344
727.25335
727.2534
727.25359
727.25393
727.25438
727.25434
727.25414
727.25431
727.25382
727.2536
727.25353
727.25359
727.2538
727.25414
727.25459
727.25456
727.25433
727.25455
727.2541
727.25391
727.25385
727.25393
727.25414
727.25449
727.25493
727.25489
727.25451
727.25485
727.25449
727.25432
727.25429
727.25438
727.25459
727.25493
727.25535
727.25526
727.25434
727.25465
727.2544
727.25427
727.25425
727.25434
727.25456
727.25489
727.25526
727.25486
722.87785
722.87844
722.87777
722.87745
722.8773
722.8773
722.87745
722.8777
722.87796
722.87781
722.87844
722.8785
722.87788
722.87756
722.87742
722.87744
722.87761
722.87792
722.87831
722.87814
722.87777
722.87788
722.87727
722.87697
722.87684
722.87687
722.87707
722.87743
722.87792
722.87787
722.87745
722.87756
722.87697
722.87667
722.87655
722.87661
722.87683
722.87722
722.87775
722.87774
722.8773
722.87742
722.87684
722.87655
722.87646
722.87653
722.87677
722.87719
722.87773
722.87774
722.8773
722.87744
722.87687
722.87661
722.87653
722.87662
722.87688
722.87731
722.87787
722.87788
722.87745
722.87761
722.87707
722.87683
722.87677
722.87688
722.87715
722.87759
722.87815
722.87816
722.8777
722.87792
722.87743
722.87722
722.87719
722.87731
722.87759
722.87802
722.87858
722.87858
722.87796
722.87831
722.87792
722.87775
722.87773
722.87787
722.87815
722.87858
722.87911
722.87906
722.87781
722.87814
722.87787
722.87774
722.87774
722.87788
722.87816
722.87858
722.87906
722.87865
718.60463
718.60522
718.60449
718.60415
718.604
718.60403
718.60423
718.60455
718.60488
718.60475
718.60522
718.60527
718.60458
718.60424
718.6041
718.60415
718.60437
718.60476
718.60525
718.6051
718.60449
718.60458
718.60392
718.60359
718.60346
718.60353
718.60378
718.60422
718.60481
718.60481
718.60415
718.60424
718.60359
718.60327
718.60317
718.60325
718.60353
718.60401
718.60464
718.60468
718.604
718.6041
718.60346
718.60317
718.60308
718.60319
718.60349
718.60399
718.60465
718.6047
718.60403
718.60415
718.60353
718.60325
718.60319
718.60331
718.60364
718.60415
718.60483
718.60488
718.60423
718.60437
718.60378
718.60353
718.60349
718.60364
718.60397
718.6045
718.60518
718.60523
718.60455
718.60476
718.60422
718.60401
718.60399
718.60415
718.6045
718.60503
718.6057
718.60575
718.60488
718.60525
718.60481
718.60464
718.60465
718.60483
718.60518
718.6057
718.60634
718.60633
718.60475
718.6051
718.60481
718.60468
718.6047
718.60488
718.60523
718.60575
718.60633
718.60591
714.43679
714.43739
714.4366
714.43623
714.43609
714.43615
714.4364
714.43679
714.4372
714.4371
714.43739
714.43741
714.43667
714.43631
714.43618
714.43626
714.43653
714.437
714.43757
714.43745
714.4366
714.43667
714.43595
714.43561
714.43549
714.43559
714.4359
714.43642
714.43711
714.43715
714.43623
714.43631
714.43561
714.43528
714.43518
714.4353
714.43564
714.4362
714.43694
714.43702
714.43609
714.43618
714.43549
714.43518
714.4351
714.43525
714.43561
714.4362
714.43697
714.43706
714.43615
714.43626
714.43559
714.4353
714.43525
714.43541
714.4358
714.43641
714.43719
714.43729
714.4364
714.43653
714.4359
714.43564
714.43561
714.4358
714.4362
714.43682
714.4376
714.43771
714.43679
714.437
714.43642
714.4362
714.4362
714.43641
714.43682
714.43743
714.43821
714.43831
714.4372
714.43757
714.43711
714.43694
714.43697
714.43719
714.4376
714.43821
714.43897
714.439
714.4371
714.43745
714.43715
714.43702
714.43706
714.43729
714.43771
714.43831
714.439
714.43858
710.37594
710.37654
710.3757
710.37531
710.37518
710.37527
710.37557
710.37602
710.37651
710.37643
710.37654
710.37653
710.37574
710.37537
710.37525
710.37536
710.37569
710.37622
710.37688
710.3768
710.3757
710.37574
710.37498
710.37462
710.37451
710.37464
710.37501
710.37561
710.3764
710.37648
710.37531
710.37537
710.37462
710.37428
710.37419
710.37435
710.37475
710.37539
710.37623
710.37635
710.37518
710.37525
710.37451
710.37419
710.37413
710.37431
710.37474