/*--------------------------------*- C++ -*----------------------------------*\
| =========                 |                                                 |
| \\      /  F ield         | OpenFOAM: The Open Source CFD Toolbox           |
|  \\    /   O peration     | Version:  v2106                                 |
|   \\  /    A nd           | Website:  www.openfoam.com                      |
|    \\/     M anipulation  |                                                 |
\*---------------------------------------------------------------------------*/
FoamFile
{
    version     2.0;
    format      ascii;
    arch        "LSB;label=32;scalar=64";
    class       volScalarField;
    location    "52.5";
    object      gradTy;
}
// * * * * * * * * * * * * * * * * * * * * * * * * * * * * * * * * * * * * * //

dimensions      [0 -1 0 1 0 0 0];

internalField   nonuniform List<scalar> 
4000
(
-0.00032940932
-6.1064213e-05
-9.1393355e-05
-9.2866643e-05
-9.4076952e-05
-9.6373212e-05
-0.00010099114
-0.00011037198
-0.0001253543
-0.00012887802
-0.00018688335
0.00017014061
0.00012075989
0.00011660563
0.00011177483
0.00010375195
8.9498607e-05
6.2305339e-05
1.3666774e-05
-3.7782047e-05
0.00041108216
0.00036337852
0.00035754718
0.00035271213
0.00034583235
0.00033622378
0.00032232368
0.00030089605
0.00026536619
0.00021153409
0.00015805358
0.00015402818
0.00014906854
0.00014231336
0.0001340347
0.00012405192
0.00011184311
9.7242692e-05
8.1655114e-05
6.9828603e-05
6.8315104e-05
6.3055251e-05
5.5461434e-05
4.6566917e-05
3.7200001e-05
2.7560446e-05
1.7479061e-05
7.0588206e-06
-2.614658e-06
-8.842516e-06
-3.6180994e-06
-1.3989375e-05
-2.5894336e-05
-3.7498061e-05
-4.8085914e-05
-5.7218989e-05
-6.5066501e-05
-7.156867e-05
-7.6349304e-05
-7.8868431e-05
-5.3807587e-05
-7.4805735e-05
-9.5254197e-05
-0.00011013348
-0.00012206343
-0.0001306351
-0.0001364131
-0.00013952109
-0.00014002687
-0.00013895408
-6.7267736e-05
-0.00010381248
-0.00014309956
-0.00016076996
-0.00017328755
-0.00018086369
-0.00018457035
-0.00018447744
-0.00018028117
-0.00017377692
-3.0538306e-05
-5.8297365e-05
-0.00013062569
-0.00014765932
-0.00015803978
-0.00016356066
-0.00016533954
-0.00016299365
-0.00015463901
-0.00013994358
4.3532519e-07
-3.0883921e-06
-3.3863895e-05
-3.897646e-05
-4.1748233e-05
-4.3128365e-05
-4.3427651e-05
-4.2413171e-05
-3.9091478e-05
-3.2616211e-05
-0.0011869758
-0.0003120078
-0.00038458425
-0.00039082563
-0.0003968743
-0.00040808186
-0.0004308818
-0.00047844687
-0.00055429748
-0.00051458553
-0.00058916154
0.00061442576
0.00048575285
0.00046544221
0.00044140247
0.00040218431
0.0003320787
0.00019564936
-5.1010568e-05
-0.00020513225
0.001696617
0.0015783903
0.0015476335
0.0015221392
0.0014882356
0.0014412685
0.0013732712
0.0012673859
0.0010862064
0.00082916732
0.00076557995
0.00074714487
0.00072122958
0.00068774703
0.0006472477
0.00059851472
0.00053896974
0.0004676758
0.00038939918
0.00032628569
0.00032418272
0.00029829836
0.00026092481
0.00021742774
0.0001716925
0.00012463854
7.5487234e-05
2.4894619e-05
-2.1810732e-05
-5.1324537e-05
-2.8964512e-05
-7.9975763e-05
-0.00013828828
-0.00019494015
-0.00024656623
-0.00029114541
-0.00032940687
-0.00036101996
-0.00038404526
-0.00039566809
-0.0002766441
-0.0003821916
-0.00048317905
-0.0005560742
-0.00061401796
-0.00065581814
-0.00068389251
-0.00069868721
-0.00070017109
-0.0006930928
-0.000332588
-0.00051771153
-0.00071567727
-0.00080477631
-0.00086524784
-0.00090207428
-0.00091988621
-0.00091835285
-0.00089404837
-0.00085255645
-7.1644017e-05
-0.00012585202
-0.00047242562
-0.00056407062
-0.00061381573
-0.00064028976
-0.00064846386
-0.00063469536
-0.00058266745
-0.00046702191
5.1454698e-05
9.1166651e-05
-5.1293086e-05
-8.0192766e-05
-9.3368739e-05
-9.9868635e-05
-0.0001011173
-9.514978e-05
-7.345602e-05
-1.8052753e-05
-0.001593523
-0.00037284845
-0.00046101132
-0.00047038105
-0.00048092093
-0.00050052342
-0.00054126233
-0.00063303783
-0.00080698955
-0.000775132
-0.00054599075
0.0011527768
0.00099121817
0.00095793183
0.00091544267
0.00084619002
0.0007218482
0.00047116661
-2.2085846e-05
-0.00032862533
0.0026999572
0.0025536583
0.0025051122
0.0024599349
0.0023995119
0.0023158659
0.0021952599
0.0020090592
0.001688406
0.0012537324
0.001293491
0.0012636265
0.0012177154
0.0011580262
0.0010859251
0.00099916013
0.0008930443
0.0007658757
0.00062442324
0.00050887742
0.00052819813
0.00048298458
0.00041645632
0.0003389156
0.0002575902
0.00017396528
8.671723e-05
-2.8440877e-06
-8.5429614e-05
-0.00013761817
-0.00010595284
-0.00019646493
-0.0002995473
-0.00040071691
-0.00049242809
-0.00057158988
-0.00063938478
-0.00069510482
-0.00073516962
-0.00075472056
-0.0005699825
-0.00076875412
-0.0009450059
-0.0010755608
-0.0011782903
-0.0012523701
-0.0013018053
-0.0013269256
-0.0013265603
-0.0013085674
-0.00067249843
-0.0010710893
-0.0014164325
-0.0015779432
-0.0016850535
-0.00175009
-0.0017808384
-0.001774845
-0.0017189763
-0.001608425
7.4564332e-05
-0.00013857692
-0.00072522762
-0.00089390381
-0.00098222591
-0.0010286779
-0.0010418416
-0.0010103197
-0.00087542162
-0.00043733957
0.00024893576
0.00028079331
4.457609e-05
-8.9891357e-06
-3.2454457e-05
-4.3781504e-05
-4.5488411e-05
-3.178625e-05
2.8212503e-05
0.00026026845
-0.0019299588
-0.00042549771
-0.00052989351
-0.00054257437
-0.00055754218
-0.00058512159
-0.00064227713
-0.00077400612
-0.0010399065
-0.0009934173
-0.0004722516
0.0016278464
0.0014325799
0.001386063
0.0013253775
0.0012270359
0.001051323
0.0006943199
-3.3327202e-05
-0.00044330953
0.0035827836
0.0034071686
0.0033410002
0.0032762985
0.0031898107
0.0030702772
0.002898312
0.0026343301
0.002177993
0.0015827424
0.0017419958
0.0017005228
0.0016347934
0.0015493332
0.0014463264
0.0013225136
0.0011711344
0.00098990179
0.00078689164
0.00062125873
0.00066921109
0.00060539026
0.00051018394
0.00039936888
0.0002833644
0.00016421664
4.0086449e-05
-8.6998667e-05
-0.00020408285
-0.00027805748
-0.00024678532
-0.00037388773
-0.00052083986
-0.00066538639
-0.0007960319
-0.00090866434
-0.0010048695
-0.0010835504
-0.001139661
-0.0011666815
-0.00095206591
-0.0012353927
-0.0014847819
-0.0016713398
-0.0018173937
-0.0019225551
-0.0019922798
-0.0020267867
-0.0020239997
-0.0019953342
-0.0011661836
-0.0017626276
-0.0022508338
-0.0024829466
-0.0026350765
-0.0027271159
-0.002769868
-0.0027588359
-0.0026706886
-0.0024846535
4.1407576e-05
-0.00028770919
-0.0010962219
-0.0013392969
-0.0014648649
-0.0015303557
-0.001547996
-0.0014989032
-0.0012738137
-0.00037228377
0.00039308191
0.00043957106
0.00011976036
4.2737325e-05
9.3384172e-06
-6.5790911e-06
-8.6752463e-06
1.2531276e-05
0.00011534816
0.0006135512
-0.0022363245
-0.00047151971
-0.00059371373
-0.00061022165
-0.000629685
-0.0006650997
-0.00073820011
-0.00090828108
-0.0012627785
-0.0011946535
-0.00039392204
0.0020699942
0.0018374019
0.0017764745
0.001697593
0.0015708343
0.0013453198
0.00088610665
-6.7725594e-05
-0.00056125686
0.0043899607
0.0041819077
0.004096441
0.0040117909
0.0038996268
0.003745222
0.0035236072
0.0031847914
0.0025973302
0.001853037
0.0021246103
0.0020706534
0.0019848015
0.0018738392
0.0017406566
0.0015809431
0.0013858955
0.0011527651
0.00089050342
0.000677669
0.00075116453
0.00066884746
0.00054552427
0.00040227847
0.00025262819
9.91659e-05
-6.0443409e-05
-0.00022342839
-0.00037343489
-0.00046802907
-0.00044496697
-0.00060773963
-0.00079724023
-0.00098375931
-0.0011520012
-0.0012968309
-0.0014201818
-0.0015205427
-0.0015915462
-0.0016253227
-0.0013972811
-0.0017620532
-0.0020820087
-0.0023224838
-0.0025101867
-0.0026450781
-0.0027338985
-0.0027766974
-0.0027707533
-0.0027316591
-0.001741448
-0.0025283155
-0.0031544934
-0.0034545924
-0.0036498855
-0.0037675839
-0.0038212499
-0.0038044387
-0.0036848479
-0.0034275987
-9.5529687e-05
-0.00052508839
-0.0015428932
-0.0018568428
-0.0020179893
-0.0021014434
-0.0021227693
-0.0020564052
-0.0017459293
-0.00035181722
0.00049970286
0.00056782777
0.00017068201
7.163229e-05
2.8792405e-05
8.5695027e-06
6.2747574e-06
3.4632296e-05
0.00017777424
0.00096404033
-0.0025137399
-0.00050676687
-0.00064717747
-0.00066782563
-0.00069178125
-0.00073478656
-0.00082323632
-0.0010302
-0.0014704764
-0.0013817616
-0.00030456365
0.00249528
0.0022239047
0.0021477937
0.0020508765
0.0018966176
0.001623235
0.0010659731
-0.00010606168
-0.0006781817
0.0051364644
0.0048948763
0.0047889782
0.0046841067
0.0045467613
0.0043586663
0.0040893952
0.0036790428
0.0029658163
0.0020808389
0.0024526278
0.0023857221
0.0022795996
0.0021435052
0.0019809896
0.0017866649
0.0015497214
0.0012670115
0.00094808209
0.0006906168
0.00078234383
0.00068190242
0.00053116769
0.00035646199
0.00017432736
-1.2120935e-05
-0.00020570487
-0.00040292268
-0.0005842604
-0.00069834177
-0.0006912108
-0.00088839339
-0.0011188523
-0.0013457595
-0.0015501205
-0.0017257918
-0.0018750224
-0.0019958856
-0.002080793
-0.0021206911
-0.0018901254
-0.0023332456
-0.0027207698
-0.0030128691
-0.0032404233
-0.0034036708
-0.0035105171
-0.003560786
-0.0035511775
-0.0035015765
-0.00236823
-0.0033390902
-0.0040975267
-0.004462669
-0.004699166
-0.0048412245
-0.0049049366
-0.0048818849
-0.0047315246
-0.0044069235
-0.00030013873
-0.00082748115
-0.0020442935
-0.002425685
-0.0026206882
-0.0027211041
-0.0027454938
-0.0026618945
-0.0022705323
-0.00039006096
0.00057954066
0.00066825543
0.00019812731
7.8270505e-05
2.6483774e-05
2.2162434e-06
-1.1495332e-07
3.5283586e-05
0.00021628579
0.0012889311
-0.0027607704
-0.00052976464
-0.00068818592
-0.00071311142
-0.00074149202
-0.00079178825
-0.0008948882
-0.0011370856
-0.0016599074
-0.0015536793
-0.00019996075
0.0029089159
0.0025987117
0.0025071112
0.0023925185
0.002211842
0.0018927859
0.0012420592
-0.00013909104
-0.0007885659
0.0058284919
0.0055534717
0.0054266872
0.005301652
0.005139814
0.0049193739
0.0046046291
0.0041262579
0.0032932407
0.0022750848
0.0027344843
0.0026545252
0.0025282911
0.002367652
0.0021768122
0.0019493126
0.0016723875
0.0013425194
0.00096967315
0.00066994573
0.00077189247
0.00065387722
0.0004766232
0.00027159911
5.8283879e-05
-0.00015971093
-0.00038568938
-0.00061545745
-0.00082655479
-0.00095908333
-0.00097443211
-0.0012045264
-0.0014741648
-0.0017397113
-0.0019785895
-0.0021836845
-0.0023575511
-0.0024978757
-0.0025959407
-0.0026415857
-0.0024160844
-0.0029340305
-0.0033858672
-0.0037271465
-0.0039926604
-0.004182893
-0.0043068515
-0.0043641518
-0.0043509685
-0.0042912843
-0.0030277905
-0.0041753193
-0.0050596674
-0.0054867077
-0.0057623818
-0.0059275731
-0.0060007714
-0.0059716901
-0.0057921008
-0.0054041512
-0.00055518749
-0.001180078
-0.0025858126
-0.0030312511
-0.0032583863
-0.003374877
-0.0034020964
-0.0033020095
-0.0028345575
-0.00048531944
0.00063710394
0.00074333203
0.0002041207
6.4561388e-05
4.30242e-06
-2.3790977e-05
-2.6127577e-05
1.5998468e-05
0.00023250545
0.0015821572
-0.0029762343
-0.00054014215
-0.00071604717
-0.00074527827
-0.00077796357
-0.00083520667
-0.00095218157
-0.0012277825
-0.001829422
-0.0017091232
-7.8359403e-05
0.0033119213
0.0029636224
0.0028565557
0.002724831
0.0025189727
0.002156653
0.0014174719
-0.00016252857
-0.00088847381
0.0064685105
0.0061608063
0.0060131449
0.0058682953
0.0056828537
0.0054315848
0.0050737363
0.0045310999
0.0035848324
0.0024412096
0.0029762442
0.0028833696
0.0027374528
0.0025530783
0.0023351008
0.0020760157
0.0017611688
0.0013866909
0.00096284978
0.00062323715
0.00072795747
0.00059306487
0.00039037438
0.00015635437
-8.668829e-05
-0.00033467506
-0.00059138506
-0.00085197819
-0.001091242
-0.0012412051
-0.0012842798
-0.0015456068
-0.0018524578
-0.0021547242
-0.0024263898
-0.0026594209
-0.002856676
-0.0030154929
-0.0031261023
-0.003177265
-0.0029624015
-0.0035512653
-0.0040639023
-0.0044517502
-0.0047532271
-0.0049690533
-0.005109299
-0.0051734219
-0.0051571285
-0.0050881835
-0.0037057708
-0.0050216315
-0.0060249524
-0.0065105354
-0.0068232714
-0.0070103924
-0.0070926978
-0.0070582219
-0.0068516157
-0.0064047744
-0.00084944253
-0.0015714536
-0.0031553883
-0.003661344
-0.003918842
-0.0040505709
-0.0040806142
-0.0039653326
-0.0034271667
-0.00063167517
0.00067495881
0.00079525759
0.00019099531
3.2842373e-05
-3.5413113e-05
-6.7132992e-05
-6.9521565e-05
-2.1169676e-05
0.00022837265
0.0018424913
-0.0031595284
-0.00053815474
-0.00073080561
-0.00076429949
-0.00080112646
-0.00086492991
-0.0009949309
-0.0013019223
-0.0019781645
-0.0018471907
6.0151939e-05
0.003703236
0.0033180885
0.0031958091
0.0030476512
0.0028179965
0.0024150412
0.0015928637
-0.00017456504
-0.00097556785
0.0070569775
0.0067177604
0.0065495505
0.0063854663
0.0061774922
0.0058970824
0.0054987
0.0048958271
0.0038434156
0.0025825897
0.0031821798
0.0030766985
0.0029117425
0.0027046402
0.0024608827
0.0021719582
0.0018214083
0.0014050314
0.00093331757
0.0005563197
0.00065731923
0.0005063736
0.00027950666
1.7989674e-05
-0.00025317531
-0.00052947539
-0.0008151528
-0.0011047678
-0.0013705409
-0.0015369007
-0.0016117651
-0.0019024718
-0.0022443751
-0.002581264
-0.0028838495
-0.0031432415
-0.0033626009
-0.0035389537
-0.0036615418
-0.0037180471
-0.0035181657
-0.0041736542
-0.0047432984
-0.0051749095
-0.0055102253
-0.0057502019
-0.0059059375
-0.0059767855
-0.0059580314
-0.0058808498
-0.0043903669
-0.0058652172
-0.0069799731
-0.0075205016
-0.0078680639
-0.0080758897
-0.0081670048
-0.0081279836
-0.0078969415
-0.0073960493
-0.001174181
-0.0019920837
-0.0037426126
-0.004305321
-0.0045913242
-0.0047374539
-0.0047704176
-0.0046415182
-0.0040384833
-0.0008223094
0.00069497184
0.00082594558
0.00016096997
-1.4604986e-05
-9.0361948e-05
-0.0001255115
-0.00012803216
-7.405709e-05
0.00020589593
0.0020700588
-0.0033105596
-0.00052445839
-0.00073294634
-0.00077060613
-0.00081137575
-0.00088131274
-0.0010234191
-0.0013596091
-0.0021057726
-0.0019673578
0.00021422417
0.004080644
0.0036602994
0.0035232398
0.0033594819
0.0031075596
0.0026668138
0.0017675465
-0.00017478037
-0.0010486856
0.0075931822
0.0072239606
0.007035778
0.0068532291
0.0066239578
0.0063162625
0.0058801216
0.0052213345
0.0040704428
0.002701301
0.0033552486
0.0032376044
0.0030544311
0.0028257842
0.0025577675
0.002240908
0.0018570431
0.0014016642
0.00088542051
0.00047370537
0.00056549089
0.00039943097
0.00014981067
-0.00013753562
-0.00043506553
-0.00073786733
-0.0010506285
-0.0013673541
-0.0016578824
-0.0018395451
-0.0019492301
-0.0022672951
-0.0026418982
-0.0030111312
-0.0033426225
-0.0036266942
-0.0038668054
-0.0040597029
-0.0041936937
-0.0042553712
-0.0040739995
-0.0047914441
-0.0054140126
-0.0058863721
-0.0062532564
-0.0065158589
-0.0066862651
-0.0067637728
-0.0067432818
-0.0066589745
-0.0050714401
-0.0066949704
-0.0079130343
-0.0085046493
-0.0088846569
-0.0091119032
-0.0092115452
-0.0091689199
-0.0089162085
-0.0083663793
-0.001521916
-0.002433539
-0.0043381481
-0.0049535725
-0.0052661069
-0.0054257635
-0.0054617752
-0.0053209652
-0.0046592347
-0.0010503419
0.00069874386
0.00083715866
0.00011614035
-7.5602528e-05
-0.00015833642
-0.00019671097
-0.00019945473
-0.00014050614
0.00016709806
0.0022654224
-0.0034296465
-0.00049997754
-0.00072324152
-0.00076492388
-0.00080940509
-0.00088501121
-0.001038234
-0.0014012634
-0.0022122315
-0.0020694026
0.00038166449
0.0044412719
0.0039877385
0.0038364862
0.0036580819
0.0033855559
0.002910073
0.0019400489
-0.00016361222
-0.0011074812
0.0080757515
0.007678332
0.0074709657
0.0072708885
0.0070217062
0.0066887418
0.0062178203
0.0055077314
0.0042665513
0.0027985812
0.0034974716
0.0033682263
0.003167815
0.0029189668
0.0026283657
0.0022856322
0.0018710131
0.0013797241
0.00082251899
0.00037893214
0.00045694606
0.00027681506
6.0157635e-06
-0.00030533161
-0.00062731883
-0.00095467272
-0.0012925025
-0.0016343009
-0.0019477142
-0.0021435145
-0.0022901479
-0.0026333913
-0.0030381567
-0.0034372772
-0.0037955093
-0.0041024609
-0.00436188
-0.0045702631
-0.0047150349
-0.0047816915
-0.0046217456
-0.0053961239
-0.0060672526
-0.0065771343
-0.0069731606
-0.0072567625
-0.0074409628
-0.0075250456
-0.0075035526
-0.0074132585
-0.0057400341
-0.0075010303
-0.0088137194
-0.0094522993
-0.0098622134
-0.010107511
-0.010215368
-0.010170101
-0.0098985718
-0.0093051054
-0.0018858623
-0.0028880712
-0.0049333924
-0.0055972214
-0.0059341844
-0.006106435
-0.0061456128
-0.0059946478
-0.0052806174
-0.0013090037
0.00068777719
0.00083060605
5.8531218e-05
-0.00014804068
-0.00023719335
-0.00027857419
-0.00028163111
-0.0002183781
0.00011401316
0.0024293643
-0.0035174417
-0.00046582143
-0.00070266055
-0.00074817952
-0.00079611197
-0.00087688804
-0.0010401762
-0.0014275327
-0.0022977908
-0.0021533419
0.00055971932
0.0047818911
0.0042975048
0.0041327882
0.003940802
0.003649462
0.0031424887
0.0021084317
-0.00014205932
-0.0011521778
0.0085029796
0.0080794425
0.0078538768
0.0076373599
0.0073697931
0.0070137277
0.0065111956
0.0057546902
0.0044318961
0.002875131
0.0036102265
0.0034700493
0.0032535237
0.0029859657
0.0026746013
0.0023082056
0.0018655619
0.0013416463
0.00074726582
0.0002748236
0.00033535251
0.00014228972
-0.00014797371
-0.00048134239
-0.00082573376
-0.0011755522
-0.0015362998
-0.0019009994
-0.0022353044
-0.0024440003
-0.0026289077
-0.002995004
-0.003427221
-0.0038536016
-0.0042362604
-0.0045641676
-0.0048413464
-0.0050640692
-0.0052189333
-0.0052903391
-0.0051542222
-0.0059801892
-0.0066952525
-0.0072392268
-0.0076618119
-0.0079646739
-0.0081617135
-0.0082522358
-0.0082304499
-0.0081353028
-0.0063880999
-0.0082745218
-0.0096726479
-0.010353821
-0.010790944
-0.011052826
-0.011168531
-0.011121562
-0.010834092
-0.010202409
-0.0022596951
-0.0033484088
-0.0055203045
-0.006227968
-0.0065871272
-0.0067709689
-0.0068133971
-0.0066540359
-0.0058942439
-0.0015916607
0.00066354275
0.00080799166
-9.8695777e-06
-0.00022985176
-0.00032483106
-0.00036898234
-0.00037243492
-0.00030555095
4.8687046e-05
0.0025628378
-0.0035748747
-0.00042322669
-0.00067231128
-0.00072144098
-0.00077253722
-0.00085795252
-0.001030199
-0.0014392354
-0.0023629118
-0.0022193852
0.00074527162
0.0050991167
0.004586517
0.0044091966
0.0042047956
0.0038965461
0.0033615031
0.0022704842
-0.00011149558
-0.001183401
0.008873056
0.0084257345
0.0081831359
0.0079514096
0.0076671147
0.0072902573
0.0067594609
0.005961671
0.0045663648
0.0029313167
0.0036944681
0.0035441291
0.0033127467
0.003028108
0.0026979378
0.0023102342
0.0018424549
0.0012893753
0.00066180654
0.00016368118
0.00020377056
-9.9674312e-07
-0.00030888
-0.00066214903
-0.0010267537
-0.001396816
-0.0017781975
-0.0021634941
-0.0025165761
-0.00273685
-0.0029606328
-0.0033471255
-0.0038039253
-0.0042547793
-0.0046594082
-0.0050062231
-0.0052995044
-0.0055353258
-0.0056995166
-0.0057753969
-0.0056650453
-0.0065369697
-0.0072911073
-0.007865556
-0.0083119662
-0.0086322341
-0.0088410689
-0.0089378261
-0.0089164075
-0.0088175167
-0.007008334
-0.0090074032
-0.010481333
-0.011200499
-0.011661981
-0.011938878
-0.012061993
-0.012014216
-0.011713666
-0.011049256
-0.0026374362
-0.0038076608
-0.0060913214
-0.0068380152
-0.0072170155
-0.007411371
-0.0074570865
-0.0072910616
-0.0064921258
-0.0018918166
0.00062750678
0.00077103338
-8.7096833e-05
-0.00031899874
-0.00041918041
-0.000465848
-0.00046976726
-0.00039992079
-2.6827014e-05
0.002666952
-0.0036031066
-0.00037351498
-0.00063339778
-0.0006858747
-0.00073982237
-0.0008293181
-0.0010093677
-0.00143732
-0.0024082297
-0.002267902
0.00093498533
0.0053895486
0.0048516548
0.0046627149
0.00444716
0.0041240086
0.0035644691
0.0024238584
-7.3542992e-05
-0.0012020614
0.0091842251
0.0087156855
0.0084573914
0.0082118177
0.0079125701
0.0075173571
0.0069618002
0.0061280731
0.0046697233
0.0029673101
0.0037508929
0.003591256
0.0033463981
0.0030464347
0.0026995417
0.0022930152
0.0018031346
0.0012245159
0.0005679245
4.74252e-05
6.4808211e-05
-0.00015035689
-0.00047389807
-0.00084481747
-0.0012273176
-0.0016152786
-0.0020148848
-0.0024183495
-0.0027879796
-0.0030184432
-0.0032810384
-0.0036853564
-0.0041637294
-0.0046361263
-0.0050601365
-0.0054236936
-0.0057313133
-0.0059788952
-0.0061515668
-0.0062315991
-0.0061485042
-0.007060507
-0.0078486544
-0.008449791
-0.0089171538
-0.009252862
-0.0094723554
-0.0095750645
-0.0095546102
-0.0094530465
-0.0075940816
-0.0096923746
-0.011232094
-0.011984452
-0.012467304
-0.012757546
-0.012887557
-0.012839801
-0.012528986
-0.011837361
-0.0030134014
-0.0042592744
-0.0066393211
-0.0074200374
-0.0078164119
-0.0080201311
-0.0080691158
-0.0078981131
-0.0070666755
-0.0022031206
0.00058113978
0.00072146743
-0.00017120583
-0.00041347468
-0.00051820537
-0.00056711707
-0.00057156028
-0.00049940792
-0.00011047656
0.002742962
-0.0036034938
-0.00031805959
-0.00058718746
-0.00064271296
-0.00069917709
-0.00079217012
-0.00097882696
-0.001422834
-0.0024345239
-0.0022993961
0.0011254156
0.0056498751
0.0050898618
0.0048904017
0.0046650392
0.0043290834
0.0037487491
0.0025661657
-2.997881e-05
-0.0012092696
0.0094349022
0.0089479222
0.0086754289
0.0084174909
0.0081051738
0.0076941538
0.0071174759
0.0062533399
0.0047417173
0.0029831881
0.0037800601
0.0036120756
0.0033552375
0.0030418205
0.0026804006
0.0022576527
0.0017488333
0.0011484413
0.00046714578
-7.2302512e-05
-7.9262418e-05
-0.00030344816
-0.00064058072
-0.0010267853
-0.0014247486
-0.0018281509
-0.0022434589
-0.0026625497
-0.0030463965
-0.003285598
-0.0035863273
-0.0040058021
-0.0045026174
-0.0049935
-0.0054341847
-0.0058122104
-0.0061323037
-0.0063902147
-0.0065704419
-0.0066542558
-0.006599475
-0.0075454708
-0.0083623927
-0.0089862848
-0.0094716041
-0.0098206836
-0.010049608
-0.010157903
-0.010138938
-0.010035724
-0.0081392782
-0.010322824
-0.011918006
-0.012698582
-0.013199694
-0.01350152
-0.013637832
-0.01359085
-0.013272518
-0.012559171
-0.0033821788
-0.0046970219
-0.0071576141
-0.0079671737
-0.0083783579
-0.0085902221
-0.008642399
-0.0084680428
-0.0076107204
-0.0025193843
0.00052591683
0.00066104468
-0.00026027702
-0.00051130812
-0.00061990922
-0.00067077581
-0.00067578516
-0.00060196622
-0.00020022097
0.0027922578
-0.0035775553
-0.00025825804
-0.00053498438
-0.00059322732
-0.00065185277
-0.00074773958
-0.00093977536
-0.0013968986
-0.0024426938
-0.0023144842
0.0013130962
0.0058769526
0.0052982236
0.0050894487
0.0048557002
0.0045091136
0.0039117906
0.0026950503
1.733529e-05
-0.0012062711
0.0096237569
0.0091213029
0.0088362529
0.0085675439
0.0082441349
0.0078199527
0.0072259053
0.0063370336
0.0047821455
0.0029790035
0.0037824796
0.003607177
0.0033399562
0.003015059
0.0026414071
0.0022051395
0.001680653
0.0010623709
0.00036081496
-0.00019406414
-0.00022641976
-0.00045818813
-0.00080675485
-0.0012057793
-0.0016166743
-0.0020329622
-0.00246135
-0.0028934259
-0.0032890687
-0.0035355017
-0.0038731146
-0.0043049985
-0.0048170241
-0.005323228
-0.0057777782
-0.0061679037
-0.0064985142
-0.0067652362
-0.0069520184
-0.0070391964
-0.0070133629
-0.0079871015
-0.0088274262
-0.0094700206
-0.0099701949
-0.010330484
-0.010567527
-0.010680959
-0.010663931
-0.010560032
-0.0086384163
-0.010892794
-0.012532872
-0.013336554
-0.01385271
-0.014164273
-0.014306214
-0.014260676
-0.013937484
-0.013207856
-0.0037386267
-0.0051150051
-0.0076399481
-0.0084730353
-0.0088963831
-0.0091151111
-0.0091703434
-0.0089941837
-0.0081175235
-0.0028346054
0.00046331306
0.00059152263
-0.00035242454
-0.00061057204
-0.00072234394
-0.0007748607
-0.00078046262
-0.00070559461
-0.00029404414
0.0028163508
-0.0035269452
-0.00019550898
-0.00047810663
-0.00053870632
-0.00059912041
-0.00069728115
-0.00089344338
-0.0013606869
-0.0024337375
-0.0023138791
0.0014946102
0.0060678681
0.0054740288
0.0052572399
0.0050165925
0.0046616099
0.0040511833
0.0028082462
6.6509216e-05
-0.0011943958
0.0097497726
0.0092349766
0.0089391444
0.0086613552
0.0083289132
0.0078942921
0.0072867146
0.0063788879
0.0047909112
0.0029548368
0.0037586763
0.0035771556
0.0033012401
0.0029669245
0.0025834191
0.002136417
0.0015996228
0.00096742633
0.00025014999
-0.00031657172
-0.00037483117
-0.00061269342
-0.00097046113
-0.0013797565
-0.0018009686
-0.0022275041
-0.0026662661
-0.0031086042
-0.0035135487
-0.0037656615
-0.0041383744
-0.0045798589
-0.0051037837
-0.0056220575
-0.00608758
-0.0064873551
-0.0068264468
-0.0071003834
-0.0072926507
-0.007382731
-0.0073860634
-0.008381172
-0.009239427
-0.0098965762
-0.010408418
-0.010777676
-0.011021446
-0.011139484
-0.011124759
-0.011021078
-0.0090865271
-0.011396968
-0.013071201
-0.013892772
-0.014420674
-0.014740054
-0.014886878
-0.014843367
-0.014517867
-0.013777307
-0.0040778804
-0.0055076688
-0.0080805224
-0.0089317199
-0.0093645205
-0.0095887771
-0.0096468681
-0.009470371
-0.008580808
-0.0031429957
0.00039479657
0.00051465497
-0.00044580676
-0.00070939462
-0.00082362123
-0.00087746981
-0.00088367474
-0.00080834948
-0.00038996817
0.0028168587
-0.0034534265
-0.00013119217
-0.00041786691
-0.00048043623
-0.00054225148
-0.0006420542
-0.00084107446
-0.001315405
-0.0024087335
-0.0022983734
0.0016666487
0.0062199881
0.0056148162
0.0053913993
0.0051453948
0.0047842973
0.0041647053
0.0029036231
0.00011566994
-0.0011750165
0.0098122905
0.0092884244
0.0089837016
0.0086986081
0.0083592588
0.0079169823
0.0072997767
0.0063788454
0.0047680601
0.0029108341
0.0037092358
0.003522659
0.0032398144
0.0028982162
0.0025073035
0.0020524169
0.0015067406
0.00086467231
0.00013628192
-0.00043864773
-0.00052280872
-0.00076523569
-0.0011299106
-0.0015468615
-0.0019757099
-0.0024097899
-0.0028561551
-0.0033059674
-0.0037176614
-0.0039738673
-0.0043794027
-0.0048276372
-0.0053600922
-0.0058871193
-0.0063606551
-0.0067675644
-0.0071130345
-0.0073925217
-0.0075891416
-0.0076816211
-0.007713936
-0.0087239623
-0.0095946103
-0.010262099
-0.010782355
-0.011158277
-0.011407312
-0.011529349
-0.011517209
-0.011414583
-0.0094791716
-0.01183066
-0.013528207
-0.014362377
-0.014898666
-0.015223883
-0.015374773
-0.01533378
-0.015008403
-0.014262138
-0.004395366
-0.0058698186
-0.0084740055
-0.0093378299
-0.0097773256
-0.01000573
-0.010066425
-0.0098909643
-0.0089947829
-0.0034390125
0.00032181988
0.00043217994
-0.00053863771
-0.00080597073
-0.00092192415
-0.00097677467
-0.00098357717
-0.00090835745
-0.00048606725
0.0027954895
-0.0033588476
-6.6651086e-05
-0.00035555551
-0.00041968423
-0.00048250121
-0.00058330606
-0.00078390832
-0.0012622753
-0.0023688235
-0.0022688261
0.0018260599
0.006330998
0.0057184136
0.0054898281
0.0052400517
0.0048751516
0.0042503601
0.0029792234
0.00016299922
-0.0011495151
0.009811039
0.0092814893
0.008969869
0.0086793182
0.0083352389
0.0078881324
0.007265238
0.0063370843
0.004713807
0.0028472344
0.0036348382
0.0034444196
0.0031564762
0.0028097896
0.0024139668
0.0019540915
0.0014030026
0.00075514557
2.0284151e-05
-0.00055919587
-0.00066877712
-0.00091420988
-0.0012834536
-0.0017053957
-0.0021391517
-0.0025780255
-0.0030291749
-0.0034836272
-0.0038994777
-0.0041581655
-0.0045937902
-0.0050459009
-0.0055834818
-0.0061159019
-0.0065944459
-0.0070059252
-0.0073556176
-0.007638935
-0.0078387207
-0.0079330592
-0.0079937877
-0.0090122416
-0.009889716
-0.01056329
-0.011088662
-0.011468891
-0.011721672
-0.011847026
-0.011837673
-0.011736867
-0.0098124371
-0.01218981
-0.013899798
-0.014741241
-0.015282516
-0.015611544
-0.01576562
-0.015727545
-0.015404588
-0.014657694
-0.0046868159
-0.0061966419
-0.0088155543
-0.0096864919
-0.010129896
-0.01036103
-0.01042402
-0.010250871
-0.0093541691
-0.003717389
0.00024581073
0.00034580814
-0.0006291988
-0.00089857356
-0.0010155188
-0.0010710321
-0.0010784112
-0.0010038279
-0.00058048144
0.0027540255
-0.0032451203
-3.177585e-06
-0.00029242515
-0.00035768343
-0.00042109371
-0.00052225719
-0.00072316602
-0.0012025212
-0.002315197
-0.0022261493
0.0019698908
0.0063989335
0.0057829682
0.0055507349
0.0052988038
0.0049324292
0.004306406
0.0030332927
0.00020676549
-0.0011192539
0.0097461543
0.0092143955
0.0088979557
0.0086038518
0.0082572565
0.0078081683
0.0071835358
0.0062540369
0.0046285553
0.0027643908
0.0035362818
0.0033432789
0.0030521174
0.0027025798
0.0023043778
0.0018424366
0.0012894258
0.00063987699
-9.6805638e-05
-0.00067717897
-0.00081125003
-0.0010581107
-0.0014295558
-0.0018537941
-0.002289699
-0.0027305871
-0.0031836727
-0.0036399027
-0.004057293
-0.0043168378
-0.0047794026
-0.005232511
-0.0057718004
-0.0063062317
-0.0067867524
-0.0072002054
-0.0075519261
-0.0078373089
-0.0080390278
-0.0081346523
-0.0082228593
-0.0092432554
-0.010121996
-0.010797387
-0.011324555
-0.011706702
-0.011961659
-0.012089584
-0.012083136
-0.01198484
-0.010082935
-0.012470982
-0.014182576
-0.015025962
-0.015568807
-0.015899583
-0.016055909
-0.016021059
-0.015702678
-0.01496005
-0.0049482854
-0.0064837275
-0.0091008319
-0.0099733736
-0.010417888
-0.010650309
-0.010715231
-0.010545565
-0.0096542221
-0.0039731656
0.00016816283
0.00025721056
-0.00071585007
-0.0009855658
-0.0011027656
-0.0011585956
-0.0011665152
-0.0010930652
-0.00067142979
0.0026943058
-0.0031141989
5.8001797e-05
-0.00022967758
-0.00029561959
-0.00035920867
-0.00046008786
-0.00066003651
-0.0011373532
-0.002249077
-0.0021712969
0.0020954235
0.0064222055
0.0058069708
0.0055726598
0.0053202119
0.0049546909
0.0043313807
0.0030643056
0.00024535135
-0.0010855501
0.0096181943
0.0090877622
0.0087686485
0.0084729383
0.0081260621
0.0076778449
0.0070554115
0.0061304019
0.0045129115
0.0026627859
0.0034145016
0.0032202049
0.0029277426
0.0025776185
0.0021795849
0.0017185079
0.0011670643
0.0005199087
-0.00021396793
-0.00079160104
-0.00094881135
-0.0011955138
-0.0015667803
-0.0019906071
-0.0024258909
-0.0028660026
-0.0033181663
-0.003773303
-0.00418961
-0.0044483834
-0.0049343637
-0.0053856054
-0.0059231948
-0.006456256
-0.0069357155
-0.0073485315
-0.0077000629
-0.0079857143
-0.0081880977
-0.0082844066
-0.0083988148
-0.0094147127
-0.0102892
-0.010962156
-0.011487799
-0.011869456
-0.012124982
-0.012254672
-0.012251167
-0.012155997
-0.0102878
-0.012671361
-0.01437383
-0.015213861
-0.015754862
-0.016085305
-0.016242896
-0.016211489
-0.015899685
-0.015166016
-0.0051761682
-0.0067270838
-0.0093260239
-0.0101947
-0.010637534
-0.01086978
-0.010936226
-0.010771105
-0.0098907528
-0.0042017176
9.0226822e-05
0.000168007
-0.00079704083
-0.0010654101
-0.0011821296
-0.0012379257
-0.0012463355
-0.0011744791
-0.0007572226
0.002618211
-0.0029680607
0.00011573802
-0.00016845133
-0.00023461897
-0.00029796928
-0.00039792603
-0.00059566429
-0.001067956
-0.0021717059