/*--------------------------------*- C++ -*----------------------------------*\
| =========                 |                                                 |
| \\      /  F ield         | OpenFOAM: The Open Source CFD Toolbox           |
|  \\    /   O peration     | Version:  v2106                                 |
|   \\  /    A nd           | Website:  www.openfoam.com                      |
|    \\/     M anipulation  |                                                 |
\*---------------------------------------------------------------------------*/
FoamFile
{
    version     2.0;
    format      ascii;
    arch        "LSB;label=32;scalar=64";
    class       volScalarField;
    location    "52.5";
    object      laplacianT;
}
// * * * * * * * * * * * * * * * * * * * * * * * * * * * * * * * * * * * * * //

dimensions      [0 -2 0 1 0 0 0];

internalField   nonuniform List<scalar> 
4000
(
41857.193
41857.473
41857.317
41857.386
41857.407
41857.412
41857.405
41857.392
41857.382
41857.389
41857.473
41857.434
41857.399
41857.459
41857.479
41857.483
41857.474
41857.458
41857.448
41857.461
41857.317
41857.399
41857.346
41857.405
41857.424
41857.426
41857.414
41857.392
41857.373
41857.4
41857.386
41857.459
41857.405
41857.462
41857.48
41857.48
41857.466
41857.44
41857.415
41857.432
41857.407
41857.479
41857.424
41857.48
41857.495
41857.494
41857.477
41857.449
41857.423
41857.439
41857.412
41857.483
41857.426
41857.48
41857.494
41857.491
41857.472
41857.443
41857.415
41857.43
41857.405
41857.474
41857.414
41857.466
41857.477
41857.472
41857.453
41857.423
41857.394
41857.409
41857.392
41857.458
41857.392
41857.44
41857.449
41857.443
41857.423
41857.392
41857.364
41857.38
41857.382
41857.448
41857.373
41857.415
41857.423
41857.415
41857.394
41857.364
41857.337
41857.355
41857.389
41857.461
41857.4
41857.432
41857.439
41857.43
41857.409
41857.38
41857.355
41857.379
-581.93181
-580.58357
-581.38311
-581.30702
-581.30479
-581.30491
-581.30423
-581.30178
-581.29279
-581.29758
-580.58357
-580.40711
-580.8549
-580.79661
-580.79525
-580.7949
-580.7916
-580.77649
-580.71658
-580.84984
-581.38311
-580.8549
-581.33349
-581.27803
-581.27692
-581.27702
-581.2755
-581.2637
-581.18421
-581.16447
-581.30702
-580.79661
-581.27803
-581.22283
-581.22165
-581.22156
-581.22006
-581.2108
-581.14229
-581.14449
-581.30479
-580.79525
-581.27692
-581.22165
-581.22039
-581.22017
-581.21829
-581.20816
-581.1386
-581.14157
-581.30491
-580.7949
-581.27702
-581.22156
-581.22017
-581.21992
-581.21799
-581.20776
-581.13794
-581.14069
-581.30423
-580.7916
-581.2755
-581.22006
-581.21829
-581.21799
-581.21601
-581.20572
-581.13578
-581.13831
-581.30178
-580.77649
-581.2637
-581.2108
-581.20816
-581.20776
-581.20572
-581.19531
-581.12503
-581.12678
-581.29279
-580.71658
-581.18421
-581.14229
-581.1386
-581.13794
-581.13578
-581.12503
-581.05353
-581.05303
-581.29758
-580.84984
-581.16447
-581.14449
-581.14157
-581.14069
-581.13831
-581.12678
-581.05303
-581.06768
-580.04609
-578.33388
-579.41989
-579.31772
-579.31351
-579.31314
-579.31036
-579.29834
-579.25091
-579.46649
-578.33388
-578.15795
-578.78083
-578.70094
-578.69808
-578.69742
-578.69135
-578.65494
-578.46136
-578.83147
-579.41989
-578.78083
-579.44082
-579.36474
-579.36223
-579.36225
-579.35975
-579.33389
-579.11719
-579.25376
-579.31772
-578.70094
-579.36474
-579.28906
-579.28645
-579.28612
-579.28338
-579.26132
-579.06159
-579.22909
-579.31351
-578.69808
-579.36223
-579.28645
-579.28377
-579.28328
-579.27998
-579.25669
-579.05569
-579.22502
-579.31314
-578.69742
-579.36225
-579.28612
-579.28328
-579.28274
-579.27937
-579.25592
-579.05449
-579.2236
-579.31036
-578.69135
-579.35975
-579.28338
-579.27998
-579.27937
-579.27593
-579.25234
-579.05059
-579.21904
-579.29834
-578.65494
-579.33389
-579.26132
-579.25669
-579.25592
-579.25234
-579.22837
-579.02538
-579.19066
-579.25091
-578.46136
-579.11719
-579.06159
-579.05569
-579.05449
-579.05059
-579.02538
-578.81782
-578.97103
-579.46649
-578.83147
-579.25376
-579.22909
-579.22502
-579.2236
-579.21904
-579.19066
-578.97103
-579.33987
-578.17509
-576.07221
-577.42768
-577.30163
-577.29555
-577.29485
-577.2903
-577.26591
-577.14156
-577.48436
-576.07221
-575.84437
-576.63523
-576.53542
-576.53113
-576.53032
-576.52283
-576.46868
-576.11558
-576.68778
-577.42768
-576.63523
-577.46904
-577.37395
-577.37008
-577.37003
-577.3672
-577.32938
-576.9457
-577.20717
-577.30163
-576.53542
-577.37395
-577.2794
-577.27542
-577.2749
-577.27162
-577.239
-576.8779
-577.17798
-577.29555
-576.53113
-577.37008
-577.27542
-577.27135
-577.27063
-577.26661
-577.23246
-576.86997
-577.17281
-577.29485
-576.53032
-577.37003
-577.2749
-577.27063
-577.26987
-577.26577
-577.23139
-576.86834
-577.17096
-577.2903
-576.52283
-577.3672
-577.27162
-577.26661
-577.26577
-577.26156
-577.22699
-576.86339
-577.16474
-577.26591
-576.46868
-577.32938
-577.239
-577.23246
-577.23139
-577.22699
-577.1917
-576.82549
-577.11873
-577.14156
-576.11558
-576.9457
-576.8779
-576.86997
-576.86834
-576.86339
-576.82549
-576.44758
-576.69496
-577.48436
-576.68778
-577.20717
-577.17798
-577.17281
-577.17096
-577.16474
-577.11873
-576.69496
-577.47191
-576.10015
-573.62811
-575.2405
-575.09171
-575.08383
-575.08286
-575.07723
-575.04371
-574.84689
-575.30333
-573.62811
-573.35262
-574.30386
-574.18509
-574.17936
-574.17832
-574.16961
-574.10066
-573.5926
-574.35659
-575.2405
-574.30386
-575.30361
-575.19041
-575.18521
-575.18504
-575.18205
-575.13499
-574.58789
-574.9677
-575.09171
-574.18509
-575.19041
-575.07788
-575.07255
-575.0718
-575.06816
-575.02777
-574.50851
-574.93416
-575.08383
-574.17936
-575.18521
-575.07255
-575.06712
-575.06614
-575.06158
-575.01937
-574.49864
-574.92789
-575.08286
-574.17832
-575.18504
-575.0718
-575.06614
-575.06512
-575.06046
-575.01797
-574.49656
-574.92563
-575.07723
-574.16961
-575.18205
-575.06816
-575.06158
-575.06046
-575.05568
-575.01298
-574.49088
-574.91829
-575.04371
-574.10066
-575.13499
-575.02777
-575.01937
-575.01797
-575.01298
-574.96938
-574.44364
-574.85809
-574.84689
-573.5926
-574.58789
-574.50851
-574.49864
-574.49656
-574.49088
-574.44364
-573.89925
-574.22267
-575.30333
-574.35659
-574.9677
-574.93416
-574.92789
-574.92563
-574.91829
-574.85809
-574.22267
-575.40423
-573.77325
-570.96059
-572.81523
-572.64477
-572.63514
-572.63384
-572.62704
-572.58493
-572.31853
-572.88021
-570.96059
-570.64598
-571.74833
-571.61147
-571.60436
-571.60304
-571.59302
-571.51004
-570.85214
-571.79432
-572.81523
-571.74833
-572.90444
-572.77398
-572.76747
-572.76713
-572.76388
-572.70828
-572.00304
-572.49157
-572.64477
-571.61147
-572.77398
-572.6443
-572.63766
-572.63663
-572.63251
-572.58504
-571.91262
-572.45389
-572.63514
-571.60436
-572.76747
-572.63766
-572.63091
-572.62962
-572.62441
-572.57485
-571.90087
-572.44655
-572.63384
-571.60304
-572.76713
-572.63663
-572.62962
-572.6283
-572.62296
-572.57308
-571.8983
-572.44383
-572.62704
-571.59302
-572.76388
-572.63251
-572.62441
-572.62296
-572.61751
-572.56738
-571.89182
-572.43538
-572.58493
-571.51004
-572.70828
-572.58504
-572.57485
-572.57308
-572.56738
-572.5162
-571.83617
-572.3626
-572.31853
-570.85214
-572.00304
-571.91262
-571.90087
-571.8983
-571.89182
-571.83617
-571.13148
-571.51944
-572.88021
-571.79432
-572.49157
-572.45389
-572.44655
-572.44383
-572.43538
-572.3626
-571.51944
-573.08878
-571.15395
-568.03047
-570.11132
-569.92037
-569.90905
-569.90742
-569.89946
-569.84909
-569.51578
-570.17426
-568.03047
-567.68494
-568.92822
-568.77425
-568.7658
-568.7642
-568.75292
-568.65663
-567.855
-568.96059
-570.11132
-568.92822
-570.23018
-570.08339
-570.07562
-570.07511
-570.07158
-570.00801
-569.15122
-569.73793
-569.92037
-568.77425
-570.08339
-569.9375
-569.92959
-569.92828
-569.92369
-569.86962
-569.05037
-569.69634
-569.90905
-568.7658
-570.07562
-569.92959
-569.92157
-569.91998
-569.91411
-569.85772
-569.03681
-569.68797
-569.90742
-568.7642
-570.07511
-569.92828
-569.91998
-569.91835
-569.91235
-569.85557
-569.03377
-569.6848
-569.89946
-568.75292
-570.07158
-569.92369
-569.91411
-569.91235
-569.90621
-569.84916
-569.02646
-569.67524
-569.84909
-568.65663
-570.00801
-569.86962
-569.85772
-569.85557
-569.84916
-569.79091
-568.96296
-569.59081
-569.51578
-567.855
-569.15122
-569.05037
-569.03681
-569.03377
-569.02646
-568.96296
-568.10484
-568.54717
-570.17426
-568.96059
-569.73793
-569.69634
-569.68797
-569.6848
-569.67524
-569.59081
-568.54717
-570.48293
-568.20511
-564.80169
-567.09149
-566.88137
-566.86844
-566.86648
-566.85741
-566.79919
-566.40196
-567.14858
-564.80169
-564.43307
-565.80639
-565.6364
-565.62668
-565.62481
-565.61234
-565.50353
-564.56518
-565.81894
-567.09149
-565.80639
-567.24297
-567.08088
-567.07191
-567.07123
-567.06744
-566.99646
-565.99572
-566.66993
-566.88137
-565.6364
-567.08088
-566.9198
-566.91068
-566.9091
-566.90405
-566.84389
-565.88512
-566.62469
-566.86844
-565.62668
-567.07191
-566.91068
-566.90144
-566.89955
-566.89308
-566.83035
-565.86984
-566.61534
-566.86648
-565.62481
-567.07123
-566.9091
-566.89955
-566.89763
-566.89099
-566.82785
-565.86633
-566.61174
-566.85741
-565.61234
-567.06744
-566.90405
-566.89308
-566.89099
-566.88421
-566.82076
-565.85824
-566.6011
-566.79919
-565.50353
-566.99646
-566.84389
-566.83035
-566.82785
-566.82076
-566.75596
-565.78744
-566.50582
-566.40196
-564.56518
-565.99572
-565.88512
-565.86984
-565.86633
-565.85824
-565.78744
-564.78357
-565.27066
-567.14858
-565.81894
-566.66993
-566.62469
-566.61534
-566.61174
-566.6011
-566.50582
-565.27066
-567.54931
-564.8946
-561.24291
-563.7234
-563.49553
-563.48108
-563.4788
-563.46868
-563.40307
-562.94527
-563.77116
-561.24291
-560.85861
-562.35052
-562.16568
-562.15475
-562.15262
-562.13905
-562.01861
-560.95133
-562.33772
-563.7234
-562.35052
-563.90984
-563.73359
-563.72348
-563.72261
-563.7186
-563.64082
-562.50456
-563.25558
-563.49553
-562.16568
-563.73359
-563.55844
-563.54817
-563.54632
-563.54085
-563.47511
-562.38494
-563.20698
-563.48108
-562.15475
-563.72348
-563.54817
-563.53778
-563.5356
-563.52854
-563.46003
-562.36804
-563.1967
-563.4788
-562.15262
-563.72261
-563.54632
-563.5356
-563.53338
-563.52616
-563.45718
-562.36409
-563.19268
-563.46868
-562.13905
-563.7186
-563.54085
-563.52854
-563.52616
-563.51878
-563.44946
-562.35526
-563.18104
-563.40307
-562.01861
-563.64082
-563.47511
-563.46003
-563.45718
-563.44946
-563.37866
-562.27776
-563.07569
-562.94527
-560.95133
-562.50456
-562.38494
-562.36804
-562.36409
-562.35526
-562.27776
-561.13661
-561.65925
-563.77116
-562.33772
-563.25558
-563.20698
-563.1967
-563.19268
-563.18104
-563.07569
-561.65925
-564.25567
-561.19534
-557.32757
-559.9796
-559.73552
-559.71966
-559.71707
-559.70597
-559.63348
-559.11879
-560.01494
-557.32757
-556.93457
-558.53308
-558.33467
-558.32261
-558.32022
-558.30566
-558.1745
-556.98683
-558.49014
-559.9796
-558.53308
-560.20274
-560.01353
-560.00235
-560.00131
-559.99711
-559.91316
-558.65056
-559.46777
-559.73552
-558.33467
-560.01353
-559.82552
-559.81417
-559.81206
-559.80621
-559.73544
-558.52272
-559.41612
-559.71966
-558.32261
-560.00235
-559.81417
-559.80271
-559.80024
-559.79266
-559.71892
-558.50431
-559.40499
-559.71707
-558.32022
-560.00131
-559.81206
-559.80024
-559.79775
-559.78998
-559.71573
-558.49994
-559.40057
-559.70597
-558.30566
-559.99711
-559.80621
-559.79266
-559.78998
-559.78205
-559.70744
-558.49044
-559.38801
-559.63348
-558.1745
-559.91316
-559.73544
-559.71892
-559.71573
-559.70744
-559.63121
-558.40685
-559.27342
-559.11879
-556.98683
-558.65056
-558.52272
-558.50431
-558.49994
-558.49044
-558.40685
-557.13766
-557.68696
-560.01494
-558.49014
-559.46777
-559.41612
-559.40499
-559.40057
-559.38801
-559.27342
-557.68696
-560.57484
-557.08513
-553.03383
-555.83749
-555.57885
-555.56169
-555.5588
-555.5468
-555.46796
-554.90041
-555.85771
-553.03383
-552.63857
-554.33129
-554.12064
-554.10755
-554.10492
-554.08946
-553.94858
-552.64971
-554.25416
-555.83749
-554.33129
-556.09845
-555.89757
-555.8854
-555.88419
-555.87982
-555.79037
-554.41129
-555.28423
-555.57885
-554.12064
-555.89757
-555.69797
-555.68563
-555.68327
-555.67707
-555.60183
-554.27606
-555.22985
-555.56169
-554.10755
-555.8854
-555.68563
-555.67317
-555.67044
-555.66238
-555.58398
-554.25627
-555.21794
-555.5588
-554.10492
-555.88419
-555.68327
-555.67044
-555.66768
-555.65942
-555.58049
-554.25151
-555.21314
-555.5468
-554.08946
-555.87982
-555.67707
-555.66238
-555.65942
-555.65099
-555.57167
-554.2414
-555.19975
-555.46796
-553.94858
-555.79037
-555.60183
-555.58398
-555.58049
-555.57167
-555.49061
-554.15237
-555.07681
-554.90041
-552.64971
-554.41129
-554.27606
-554.25627
-554.25151
-554.2414
-554.15237
-552.76505
-553.33257
-555.85771
-554.25416
-555.28423
-555.22985
-555.21794
-555.21314
-555.19975
-555.07681
-553.33257
-556.48454
-552.54659
-548.34435
-551.27918
-551.00769
-550.98934
-550.98618
-550.97336
-550.88876
-550.27263
-551.28196
-548.34435
-547.95274
-549.72696
-549.5055
-549.49145
-549.4886
-549.47235
-549.32279
-547.92248
-549.61235
-551.27918
-549.72696
-551.57842
-551.36722
-551.35415
-551.35278
-551.34827
-551.254
-549.76888
-550.68735
-551.00769
-549.5055
-551.36722
-551.15739
-551.14414
-551.14154
-551.13504
-551.0559
-549.62717
-550.6306
-550.98934
-549.49145
-551.35415
-551.14414
-551.13077
-551.12778
-551.1193
-551.03685
-549.60612
-550.61797
-550.98618
-549.4886
-551.35278
-551.14154
-551.12778
-551.12477
-551.11608
-551.03307
-549.60099
-550.61283
-550.97336
-549.47235
-551.34827
-551.13504
-551.1193
-551.11608
-551.10721
-551.02379
-549.59035
-550.59869
-550.88876
-549.32279
-551.254
-551.0559
-551.03685
-551.03307
-551.02379
-550.93852
-549.49656
-550.46832
-550.27263
-547.92248
-549.76888
-549.62717
-549.60612
-549.60099
-549.59035
-549.49656
-548.00162
-548.57937
-551.28196
-549.61235
-550.68735
-550.6306
-550.61797
-550.61283
-550.59869
-550.46832
-548.57937
-551.96731
-547.56694
-543.24624
-546.2913
-546.00876
-545.98935
-545.98593
-545.97238
-545.88262
-545.22246
-546.27475
-543.24624
-542.8636
-544.70636
-544.47557
-544.46066
-544.4576
-544.44069
-544.28352
-542.79204
-544.55178
-546.2913
-544.70636
-546.62869
-546.40858
-546.3947
-546.39317
-546.38856
-546.29018
-544.70997
-545.66405
-546.00876
-544.47557
-546.40858
-546.18991
-546.17584
-546.17303
-546.16626
-546.08383
-544.56269
-545.60528
-545.98935
-544.46066
-546.3947
-546.17584
-546.16166
-546.15844
-546.14959
-546.06371
-544.54053
-545.59202
-545.98593
-544.4576
-546.39317
-546.17303
-546.15844
-546.1552
-546.14613
-546.05965
-544.53507
-545.58658
-545.97238
-544.44069
-546.38856
-546.16626
-546.14959
-546.14613
-546.13688
-546.04998
-544.52396
-545.57179
-545.88262
-544.28352
-546.29018
-546.08383
-546.06371
-546.05965
-546.04998
-545.96113
-544.4261
-545.43494
-545.22246
-542.79204
-544.70997
-544.56269
-544.54053
-544.53507
-544.52396
-544.4261
-542.83457
-543.41509
-546.27475
-544.55178
-545.66405
-545.60528
-545.59202
-545.58658
-545.57179
-545.43494
-543.41509
-547.01027
-542.13786
-537.73084
-540.86489
-540.57316
-540.55282
-540.54917
-540.53498
-540.44069
-539.74128
-540.82754
-537.73084
-537.36188
-539.26009
-539.02149
-539.00583
-539.00259
-538.98511
-538.82145
-537.2495
-539.06383
-540.86489
-539.26009
-541.23969
-541.01213
-540.99753
-540.99585
-540.99117
-540.88939
-539.22549
-540.20563
-540.57316
-539.02149
-541.01213
-540.78607
-540.77128
-540.76826
-540.76128
-540.67615
-539.0736
-540.14523
-540.55282
-539.00583
-540.99753
-540.77128
-540.75637
-540.75294
-540.74378
-540.65509
-539.05047
-540.13142
-540.54917
-539.00259
-540.99585
-540.76826
-540.75294
-540.74949
-540.74011
-540.65079
-539.04471
-540.1257
-540.53498
-538.98511
-540.99117
-540.76128
-540.74378
-540.74011
-540.73054
-540.64078
-539.0332
-540.11037
-540.44069
-538.82145
-540.88939
-540.67615
-540.65509
-540.65079
-540.64078
-540.54899
-538.93198
-539.96802
-539.74128
-537.2495
-539.22549
-539.0736
-539.05047
-539.04471
-539.0332
-538.93198
-537.25534
-537.83172
-540.82754
-539.06383
-540.20563
-540.14523
-540.13142
-540.1257
-540.11037
-539.96802
-537.83172
-541.60506
-536.25533
-531.79358
-534.99523
-534.6962
-534.67507
-534.67121
-534.65648
-534.55832
-533.8246
-534.93603
-531.79358
-531.44241
-533.38291
-533.13807
-533.12176
-533.11835
-533.10044
-532.93141
-531.29004
-533.14405
-534.99523
-533.38291
-535.4061
-535.17259
-535.15736
-535.15555
-535.15083
-535.04637
-533.3105
-534.30761
-534.6962
-533.13807
-535.17259
-534.94062
-534.92521
-534.922
-534.91485
-534.82763
-533.15499
-534.24594
-534.67507
-533.12176
-535.15736
-534.92521
-534.90968
-534.90605
-534.89665
-534.80577
-533.13103
-534.23169
-534.67121
-533.11835
-535.15555
-534.922
-534.90605
-534.90242
-534.89278
-534.80126
-533.12501
-534.22573
-534.65648
-533.10044
-535.15083
-534.91485
-534.89665
-534.89278
-534.88295
-534.79097
-533.11318
-534.20994
-534.55832
-532.93141
-535.04637
-534.82763
-534.80577
-534.80126
-534.79097
-534.6969
-533.00931
-534.06309
-533.8246
-531.29004
-533.3105
-533.15499
-533.13103
-533.12501
-533.11318
-533.00931
-531.25939
-531.82534
-534.93603
-533.14405
-534.30761
-534.24594
-534.23169
-534.22573
-534.20994
-534.06309
-531.82534
-535.74755
-529.91942
-525.43381
-528.68163
-528.37725
-528.35546
-528.35142
-528.33624
-528.23489
-527.47195
-528.59996
-525.43381
-525.10391
-527.07355
-526.82406
-526.80721
-526.80367
-526.78543
-526.61219
-524.91272
-526.79194
-528.68163
-527.07355
-529.12669
-528.88874
-528.87299
-528.87105
-528.86633
-528.7599
-526.96407
-527.9695
-528.37725
-526.82406
-528.88874
-528.65237
-528.63643
-528.63306
-528.62579
-528.53709
-526.80593
-527.90697
-528.35546
-526.80721
-528.87299
-528.63643
-528.62039
-528.61659
-528.607
-528.51456
-526.78131
-527.89235
-528.35142
-526.80367
-528.87105
-528.63306
-528.61659
-528.61279
-528.60297
-528.50987
-526.77506
-527.88619
-528.33624
-526.78543
-528.86633
-528.62579
-528.607
-528.60297
-528.59294
-528.49938
-526.76299
-527.87006
-528.23489
-526.61219
-528.7599
-528.53709
-528.51456
-528.50987
-528.49938
-528.40367
-526.65718
-527.71972
-527.47195
-524.91272
-526.96407
-526.80593
-526.78131
-526.77506
-526.76299
-526.65718
-524.84608
-525.39593
-528.59996
-526.79194
-527.9695
-527.90697
-527.89235
-527.88619
-527.87006
-527.71972
-525.39593
-529.43776
-523.13408
-518.6546
-521.92729
-521.61951
-521.59721
-521.593
-521.57749
-521.47362
-520.68666
-521.82293
-518.6546
-518.34881
-520.33458
-520.08205
-520.06476
-520.0611
-520.04266
-519.86637
-518.12031
-520.01081
-521.92729
-520.33458
-522.4041
-522.16325
-522.14708
-522.14502
-522.14033
-522.03267
-520.18904
-521.19469
-521.61951
-520.08205
-522.16325
-521.924
-521.90765
-521.90413
-521.89679
-521.8072
-520.02928
-521.13169
-521.59721
-520.06476
-522.14708
-521.90765
-521.89119
-521.88725
-521.87754
-521.78416
-520.00416
-521.1168
-521.593
-520.0611
-522.14502
-521.90413
-521.88725
-521.88331
-521.87336
-521.77931
-519.99772
-521.11047
-521.57749
-520.04266
-522.14033
-521.89679
-521.87754
-521.87336
-521.8632
-521.76869
-519.98549
-521.09411
-521.47362
-519.86637
-522.03267
-521.8072
-521.78416
-521.77931
-521.76869
-521.67198
-519.87846
-520.94128
-520.68666
-518.12031
-520.18904
-520.02928
-520.00416
-519.99772
-519.98549
-519.87846
-518.01848
-518.54719
-521.82293
-520.01081
-521.19469
-521.13169
-521.1168
-521.11047
-521.09411
-520.94128
-518.54719
-522.67957
-515.90697
-511.46257
-514.73906
-514.42984
-514.40716
-514.40283
-514.38707
-514.28137
-513.47568
-514.6122
-511.46257
-511.1831
-513.17216
-512.91819
-512.90059
-512.89683
-512.87832
-512.70013
-510.91911
-512.80756
-514.73906
-513.17216
-515.24469
-515.00247
-514.98599
-514.98383
-514.97919
-514.871
-512.99187
-513.99017
-514.42984
-512.91819
-515.00247
-514.76187
-514.74521
-514.74157
-514.7342
-514.64432
-512.83151
-513.9271
-514.40716
-512.90059
-514.98599
-514.74521
-514.72844
-514.72439
-514.71461
-514.62091
-512.80604
-513.91203
-514.40283
-512.89683
-514.98383
-514.74157
-514.72439
-514.72033
-514.71032
-514.61594
-512.79946
-513.90558
-514.38707
-512.87832
-514.97919
-514.7342
-514.71461
-514.71032
-514.70009
-514.60525
-512.78715
-513.88908
-514.28137
-512.70013
-514.871
-514.64432
-514.62091
-514.61594
-514.60525
-514.50819
-512.67959
-513.73478
-513.47568
-510.91911
-512.99187
-512.83151
-512.80604
-512.79946
-512.78715
-512.67959
-510.78314
-511.28635
-514.6122
-512.80756
-513.99017
-513.9271
-513.91203
-513.90558
-513.88908
-513.73478
-511.28635
-515.48059
-508.24924
-503.86767
-507.12724
-506.81854
-506.79564
-506.79121
-506.77531
-506.66847
-505.84937
-506.97846
-503.86767
-503.61613
-505.59588
-505.34209
-505.32428
-505.32045
-505.30197
-505.12304
-503.31875
-505.19248
-507.12724
-505.59588
-507.65831
-507.41625
-507.39957
-507.39732
-507.39276
-507.28475
-505.38243
-506.3664
-506.81854
-505.34209
-507.41625
-507.17583
-507.15897
-507.15523
-507.14788
-507.05829
-505.22248
-506.30365
-506.79564
-505.32428
-507.39957
-507.15897
-507.142
-507.13785
-507.12807
-507.03467
-505.19682
-506.2885
-506.79121
-505.32045
-507.39732
-507.15523
-507.13785
-507.13371
-507.12369
-507.0296
-505.19014
-506.28197
-506.77531
-505.30197
-507.39276
-507.14788
-507.12807
-507.12369
-507.11347
-507.01891
-505.17782
-506.26544
-506.66847
-505.12304
-507.28475
-507.05829
-507.03467
-507.0296
-507.01891
-506.92212
-505.07044
-506.11067
-505.84937
-503.31875
-505.38243
-505.22248
-505.19682
-505.19014
-505.17782
-505.07044
-503.14994
-503.62395
-506.97846
-505.19248
-506.3664
-506.30365
-506.2885
-506.28197
-506.26544
-506.11067
-503.62395
-507.85188
-500.1753
-495.88297
-499.10541
-498.79917
-498.77619
-498.77168
-498.75574
-498.64846
-497.82128
-498.93565
-495.88297
-495.66037
-497.61855
-497.36653
-497.34863
-497.34475
-497.32643
-497.1479
-495.33198
-497.17903
-499.10541
-497.61855
-499.6581
-499.41773
-499.40094
-499.39863
-499.39418
-499.28702
-497.37377
-498.33703
-498.79917
-497.36653
-499.41773
-499.179
-499.16203
-499.15822
-499.15093
-499.0622
-497.21523
-498.27499
-498.77619
-497.34863
-499.40094
-499.16203
-499.14497
-499.14075
-499.13104
-499.03851
-497.18955
-498.25986
-498.77168
-497.34475
-499.39863
-499.15822
-499.14075
-499.13655
-499.12659
-499.03338
-497.18281
-498.25329
-498.75574
-497.32643
-499.39418
-499.15093
-499.13104
-499.12659
-499.11643
-499.02276
-497.17055
-498.23684
-498.64846
-497.1479
-499.28702
-499.0622
-499.03851
-499.03338
-499.02276
-498.92685
-497.06404
-498.08259
-497.82128
-495.33198
-497.37377
-497.21523
-497.18955
-497.18281
-497.17055
-497.06404
-495.13189
-495.57367
-498.93565
-497.17903
-498.33703
-498.27499
-498.25986
-498.25329
-498.23684
-498.08259
-495.57367
-499.80781
-491.70258
-487.5245
-490.69017
-490.38829
-490.36538
-490.36083
-490.34495
-490.2379
-489.40794
-490.50074
-487.5245
-487.33125
-489.256
-489.00732
-488.98943
-488.98553
-488.96748
-488.79048
-486.97448
-488.78366
-490.69017
-489.256
-491.26028
-491.0231
-491.00632
-491.00394
-490.99963
-490.89399
-488.98195
-489.91874
-490.38829
-489.00732
-491.0231
-490.78754
-490.77058
-490.76673
-490.75954
-490.67222
-488.82581
-489.85781
-490.36538
-488.98943
-491.00632
-490.77058
-490.75354
-490.74928
-490.73969
-490.64861
-488.80026
-489.84278
-490.36083
-488.98553
-491.00394
-490.76673
-490.74928
-490.74504
-490.73521
-490.64345
-488.79351
-489.83622
-490.34495
-488.96748
-490.99963
-490.75954
-490.73969
-490.73521
-490.72517
-490.63296
-488.7814
-489.81994
-490.2379
-488.79048
-490.89399
-490.67222
-490.64861
-490.64345
-490.63296
-490.53853
-488.67641
-489.66719
-489.40794
-486.97448
-488.98195
-488.82581
-488.80026
-488.79351
-488.7814
-488.67641
-486.74487
-487.15204
-490.50074
-488.78366
-489.91874
-489.85781
-489.84278
-489.83622
-489.81994
-489.66719
-487.15204
-491.36575
-482.85136
-478.81095
-481.90093
-481.60529
-481.58259
-481.57802
-481.56231
-481.45617
-480.62867
-481.69347
-478.81095
-478.64694
-480.52684
-480.28303
-480.26527
-480.26138
-480.2437
-480.06932
-478.26462
-480.02555
-481.90093
-480.52684
-482.48395
-482.25142
-482.23474
-482.23232
-482.22817
-482.1247
-480.22579
-481.13098
-481.60529
-480.28303
-482.25142
-482.02048
-482.00364
-481.99976
-481.99273
-481.90733
-480.07302
-481.07154
-481.58259
-480.26527
-482.23474
-482.00364
-481.98671
-481.98244
-481.97303
-481.88396
-480.04777
-481.05672
-481.57802
-480.26138
-482.23232
-481.99976
-481.98244
-481.9782
-481.96854
-481.8788
-480.04104
-481.0502
-481.56231
-480.2437
-482.22817
-481.99273
-481.97303
-481.96854
-481.9587
-481.8685
-480.02915
-481.0342
-481.45617
-480.06932
-482.1247
-481.90733
-481.88396
-481.8788
-481.8685
-481.77613
-479.92633
-480.88388
-480.62867
-478.26462
-480.22579
-480.07302
-480.04777
-480.04104
-480.02915
-479.92633
-478.00748
-478.37832
-481.69347
-480.02555
-481.13098
-481.07154
-481.05672
-481.0502
-481.0342
-480.88388
-478.37832
-482.5459
-473.64446
-469.76355
-472.7597
-472.47213
-472.44976
-472.44521
-472.42976
-472.32518
-471.5053
-472.53615
-469.76355
-469.62812
-471.45226
-471.21482
-471.1973
-471.19344
-471.17625
-471.00555
-469.22328
-470.92642
-472.7597
-471.45226
-473.35082
-473.12436
-473.10789
-473.10545
-473.10149
-473.00079
-471.1267
-471.99579
-472.47213
-471.21482
-473.12436
-472.89947
-472.88284
-472.87896
-472.87212
-472.78917
-470.97823
-471.9382
-472.44976
-471.1973
-473.10789
-472.88284
-472.86614
-472.86188
-472.8527
-472.76617
-470.95344
-471.92368
-472.44521
-471.19344
-473.10545
-472.87896
-472.86188
-472.85766
-472.84824
-472.76105
-470.94678
-471.91724
-472.42976
-471.17625
-473.10149
-472.87212
-472.8527
-472.84824
-472.83864
-472.75101
-470.93518
-471.90162
-472.32518
-471.00555
-473.00079
-472.78917
-472.76617
-472.76105
-472.75101
-472.66124
-470.83513
-471.75465
-471.5053
-469.22328
-471.1267
-470.97823
-470.95344
-470.94678
-470.93518
-470.83513
-468.94078
-469.27418
-472.53615
-470.92642
-471.99579
-471.9382
-471.92368
-471.91724
-471.90162
-471.75465
-469.27418
-473.37103
-464.10709
-460.40577
-463.29086
-463.0131
-462.99121
-462.9867
-462.97161
-462.86924
-462.06201
-463.05343
-460.40577
-460.29777
-462.05583
-461.8262
-461.80902
-461.80521
-461.78861
-461.62261
-459.87362
-461.51027
-463.29086
-462.05583
-463.88504
-463.66602
-463.64986
-463.64741
-463.64365
-463.54632
-461.70838
-462.53751
-463.0131
-461.8262
-463.66602
-463.44853
-463.43223
-463.42837
-463.42177
-463.34174
-461.56513
-462.48213
-462.99121
-461.80902
-463.64986
-463.43223
-463.41585
-463.41163
-463.40274
-463.31924
-461.54094
-462.46799
-462.9867
-461.80521
-463.64741
-463.42837
-463.41163
-463.40745
-463.39833
-463.31419
-461.53439
-462.46168
-462.97161
-461.78861
-463.64365
-463.42177
-463.40274
-463.39833
-463.38903
-463.30447
-461.52315
-462.44653
-462.86924
-461.62261
-463.54632
-463.34174
-463.31924
-463.31419
-463.30447
-463.21783
-461.42647
-462.30378
-462.06201
-459.87362
-461.70838
-461.56513
-461.54094
-461.53439
-461.52315
-461.42647
-459.5681
-459.86357
-463.05343
-461.51027
-462.53751
-462.48213
-462.46799
-462.46168
-462.44653
-462.30378
-459.86357
-463.86628
-454.26652
-450.76313
-453.5209
-453.25463
-453.23336
-453.22892
-453.21428
-453.11473
-452.32504
-453.27205
-450.76313
-450.68097
-452.36322
-452.14278
-452.12605
-452.12231
-452.1064
-451.94609
-450.24086
-451.8032
-453.5209
-452.36322
-454.11291
-453.90265
-453.8869
-453.88446
-453.88092
-453.78751
-451.99667
-452.78259
-453.25463
-452.14278
-453.90265
-453.69388
-453.67799
-453.67419
-453.66785
-453.5912
-451.85951
-452.72977
-453.23336
-452.12605
-453.8869
-453.67799
-453.66204
-453.65789
-453.64934
-453.56935
-451.83607
-452.7161
-453.22892
-452.12231
-453.88446
-453.67419
-453.65789
-453.65378
-453.64501
-453.56441
-451.82967
-452.70996
-453.21428
-452.1064
-453.88092
-453.66785
-453.64934
-453.64501
-453.63607
-453.55506
-451.81886
-452.69537
-453.11473
-451.94609
-453.78751
-453.5912
-453.56935
-453.56441
-453.55506
-453.47204
-451.7261
-452.55768
-452.32504
-450.24086
-451.99667
-451.85951
-451.83607
-451.82967
-451.81886
-451.7261
-449.91479
-450.17242
-453.27205
-451.8032
-452.78259
-452.72977
-452.7161
-452.70996
-452.69537
-452.55768
-450.17242
-454.05887
-444.15195
-440.86298
-443.47822
-443.22505
-443.20452
-443.20018
-443.18608
-443.08994
-442.32249
-443.22064
-440.86298
-440.80464
-442.40202
-442.19208
-442.1759
-442.17226
-442.15714
-442.00344
-440.35203
-441.83313
-443.47822
-442.40202
-444.06271
-443.86247
-443.84722
-443.8448
-443.84151
-443.75254
-442.01929
-442.75937
-443.22505
-442.19208
-443.86247
-443.66365
-443.64828
-443.64455
-443.63853
-443.56567
-441.88904
-442.70943
-443.20452
-442.1759
-443.84722
-443.64828
-443.63284
-443.62879
-443.62063
-443.5446
-441.8665
-442.69632
-443.20018
-442.17226
-443.8448
-443.64455
-443.62879
-443.62478
-443.61641
-443.53979
-441.86029
-442.69038
-443.18608
-442.15714
-443.84151
-443.63853
-443.62063
-443.61641
-443.60788
-443.53087
-441.84997
-442.67644
-443.08994
-442.00344
-443.75254
-443.56567
-443.5446
-443.53979
-443.53087
-443.45193
-441.76165
-442.54461
-442.32249
-440.35203
-442.01929
-441.88904
-441.8665
-441.86029
-441.84997
-441.76165
-440.00803
-440.22845
-443.22064
-441.83313
-442.75937
-442.70943
-442.69632
-442.69038
-442.67644
-442.54461
-440.22845
-443.97791
-433.79417
-430.73426
-433.19289
-432.95433
-432.93465
-432.93045
-432.91697
-432.82481
-432.08412
-432.92945
-430.73426
-430.69737
-432.2015
-432.00331
-431.98777
-431.98426
-431.97
-431.8238
-430.2358
-431.62963
-433.19289
-432.2015
-433.76443
-433.57539
-433.56073
-433.55835
-433.55532
-433.47126
-431.8056
-432.4978
-432.95433
-432.00331
-433.57539
-433.3877
-433.37293
-433.3693
-433.36362
-433.29496
-431.68305
-432.45105
-432.93465
-431.98777
-433.56073
-433.37293
-433.3581
-433.35417
-433.34646
-433.27479
-431.66154
-432.43859
-432.93045
-431.98426
-433.55835
-433.3693
-433.35417
-433.35029
-433.34237
-433.27014
-431.65557
-432.43289
-432.91697
-431.97
-433.55532
-433.36362
-433.34646
-433.34237
-433.3343
-433.2617
-431.6458
-432.41968
-432.82481
-431.8238
-433.47126
-433.29496
-433.27479
-433.27014
-433.2617
-433.18727
-431.5624
-432.29445