/*--------------------------------*- C++ -*----------------------------------*\
| =========                 |                                                 |
| \\      /  F ield         | OpenFOAM: The Open Source CFD Toolbox           |
|  \\    /   O peration     | Version:  v2106                                 |
|   \\  /    A nd           | Website:  www.openfoam.com                      |
|    \\/     M anipulation  |                                                 |
\*---------------------------------------------------------------------------*/
FoamFile
{
    version     2.0;
    format      ascii;
    arch        "LSB;label=32;scalar=64";
    class       volScalarField;
    location    "52.5";
    object      T;
}
// * * * * * * * * * * * * * * * * * * * * * * * * * * * * * * * * * * * * * //

dimensions      [0 0 0 1 0 0 0];

internalField   nonuniform List<scalar> 
4000
(
275.19411
275.1941
275.1941
275.19411
275.19411
275.19411
275.19411
275.19411
275.19411
275.19411
275.1941
275.1941
275.1941
275.1941
275.1941
275.1941
275.1941
275.1941
275.1941
275.1941
275.1941
275.1941
275.19411
275.19411
275.19411
275.19411
275.19411
275.19411
275.19411
275.19411
275.19411
275.1941
275.19411
275.19411
275.19411
275.19411
275.19411
275.19411
275.19411
275.19411
275.19411
275.1941
275.19411
275.19411
275.19411
275.19411
275.19411
275.19411
275.19411
275.19411
275.19411
275.1941
275.19411
275.19411
275.19411
275.19411
275.19411
275.19411
275.19411
275.19411
275.19411
275.1941
275.19411
275.19411
275.19411
275.19411
275.19411
275.19411
275.19411
275.1941
275.19411
275.1941
275.19411
275.19411
275.19411
275.19411
275.19411
275.19411
275.1941
275.1941
275.19411
275.1941
275.19411
275.19411
275.19411
275.19411
275.19411
275.1941
275.1941
275.1941
275.19411
275.1941
275.19411
275.19411
275.19411
275.19411
275.1941
275.1941
275.1941
275.1941
283.76806
283.76803
283.76805
283.76806
283.76807
283.76807
283.76807
283.76806
283.76806
283.76806
283.76803
283.76802
283.76804
283.76805
283.76805
283.76805
283.76805
283.76805
283.76804
283.76804
283.76805
283.76804
283.76806
283.76807
283.76807
283.76808
283.76807
283.76807
283.76806
283.76806
283.76806
283.76805
283.76807
283.76808
283.76808
283.76808
283.76808
283.76807
283.76806
283.76806
283.76807
283.76805
283.76807
283.76808
283.76809
283.76809
283.76808
283.76807
283.76807
283.76806
283.76807
283.76805
283.76808
283.76808
283.76809
283.76809
283.76808
283.76807
283.76806
283.76806
283.76807
283.76805
283.76807
283.76808
283.76808
283.76808
283.76808
283.76807
283.76806
283.76805
283.76806
283.76805
283.76807
283.76807
283.76807
283.76807
283.76807
283.76806
283.76805
283.76805
283.76806
283.76804
283.76806
283.76806
283.76807
283.76806
283.76806
283.76805
283.76804
283.76804
283.76806
283.76804
283.76806
283.76806
283.76806
283.76806
283.76805
283.76805
283.76804
283.76804
292.28389
292.28385
292.28388
292.2839
292.28391
292.28391
292.28391
292.2839
292.28389
292.2839
292.28385
292.28384
292.28387
292.28389
292.2839
292.2839
292.28389
292.28388
292.28387
292.28388
292.28388
292.28387
292.2839
292.28392
292.28393
292.28393
292.28392
292.28391
292.28389
292.2839
292.2839
292.28389
292.28392
292.28394
292.28394
292.28394
292.28394
292.28392
292.2839
292.2839
292.28391
292.2839
292.28393
292.28394
292.28395
292.28395
292.28394
292.28393
292.28391
292.28391
292.28391
292.2839
292.28393
292.28394
292.28395
292.28395
292.28394
292.28392
292.2839
292.2839
292.28391
292.28389
292.28392
292.28394
292.28394
292.28394
292.28393
292.28391
292.28389
292.28389
292.2839
292.28388
292.28391
292.28392
292.28393
292.28392
292.28391
292.28389
292.28388
292.28387
292.28389
292.28387
292.28389
292.2839
292.28391
292.2839
292.28389
292.28388
292.28386
292.28386
292.2839
292.28388
292.2839
292.2839
292.28391
292.2839
292.28389
292.28387
292.28386
292.28387
300.74182
300.74176
300.74181
300.74183
300.74184
300.74185
300.74184
300.74183
300.74182
300.74183
300.74176
300.74175
300.74179
300.74182
300.74183
300.74183
300.74182
300.7418
300.74178
300.7418
300.74181
300.74179
300.74184
300.74186
300.74187
300.74187
300.74186
300.74184
300.74181
300.74182
300.74183
300.74182
300.74186
300.74188
300.74189
300.74189
300.74188
300.74186
300.74183
300.74183
300.74184
300.74183
300.74187
300.74189
300.7419
300.7419
300.74188
300.74186
300.74183
300.74183
300.74185
300.74183
300.74187
300.74189
300.7419
300.74189
300.74188
300.74185
300.74182
300.74182
300.74184
300.74182
300.74186
300.74188
300.74188
300.74188
300.74186
300.74184
300.74181
300.74181
300.74183
300.7418
300.74184
300.74186
300.74186
300.74185
300.74184
300.74181
300.74178
300.74178
300.74182
300.74178
300.74181
300.74183
300.74183
300.74182
300.74181
300.74178
300.74175
300.74176
300.74183
300.7418
300.74182
300.74183
300.74183
300.74182
300.74181
300.74178
300.74176
300.74178
309.14204
309.14197
309.14203
309.14206
309.14208
309.14208
309.14207
309.14205
309.14203
309.14205
309.14197
309.14196
309.14201
309.14204
309.14206
309.14206
309.14204
309.14202
309.14199
309.14201
309.14203
309.14201
309.14207
309.1421
309.14211
309.14211
309.14209
309.14207
309.14203
309.14204
309.14206
309.14204
309.1421
309.14212
309.14213
309.14213
309.14211
309.14208
309.14205
309.14205
309.14208
309.14206
309.14211
309.14213
309.14214
309.14214
309.14212
309.14209
309.14205
309.14205
309.14208
309.14206
309.14211
309.14213
309.14214
309.14213
309.14211
309.14208
309.14204
309.14204
309.14207
309.14204
309.14209
309.14211
309.14212
309.14211
309.14209
309.14206
309.14202
309.14202
309.14205
309.14202
309.14207
309.14208
309.14209
309.14208
309.14206
309.14202
309.14198
309.14198
309.14203
309.14199
309.14203
309.14205
309.14205
309.14204
309.14202
309.14198
309.14194
309.14195
309.14205
309.14201
309.14204
309.14205
309.14205
309.14204
309.14202
309.14198
309.14195
309.14198
317.48479
317.48471
317.48478
317.48481
317.48483
317.48483
317.48482
317.48479
317.48477
317.48479
317.48471
317.4847
317.48476
317.48479
317.48481
317.48481
317.48479
317.48476
317.48472
317.48474
317.48478
317.48476
317.48482
317.48486
317.48487
317.48487
317.48485
317.48481
317.48477
317.48477
317.48481
317.48479
317.48486
317.48489
317.4849
317.48489
317.48487
317.48483
317.48478
317.48479
317.48483
317.48481
317.48487
317.4849
317.48491
317.4849
317.48488
317.48484
317.48479
317.48479
317.48483
317.48481
317.48487
317.48489
317.4849
317.48489
317.48487
317.48483
317.48477
317.48477
317.48482
317.48479
317.48485
317.48487
317.48488
317.48487
317.48484
317.4848
317.48474
317.48474
317.48479
317.48476
317.48481
317.48483
317.48484
317.48483
317.4848
317.48476
317.4847
317.4847
317.48477
317.48472
317.48477
317.48478
317.48479
317.48477
317.48474
317.4847
317.48465
317.48466
317.48479
317.48474
317.48477
317.48479
317.48479
317.48477
317.48474
317.4847
317.48466
317.48469
325.77031
325.77022
325.7703
325.77034
325.77036
325.77036
325.77034
325.77031
325.77028
325.7703
325.77022
325.77021
325.77028
325.77032
325.77033
325.77033
325.77031
325.77027
325.77023
325.77025
325.7703
325.77028
325.77035
325.77039
325.7704
325.7704
325.77038
325.77033
325.77027
325.77028
325.77034
325.77032
325.77039
325.77042
325.77044
325.77043
325.7704
325.77036
325.77029
325.77029
325.77036
325.77033
325.7704
325.77044
325.77045
325.77044
325.77041
325.77036
325.77029
325.77029
325.77036
325.77033
325.7704
325.77043
325.77044
325.77043
325.77039
325.77034
325.77028
325.77028
325.77034
325.77031
325.77038
325.7704
325.77041
325.77039
325.77036
325.77031
325.77024
325.77024
325.77031
325.77027
325.77033
325.77036
325.77036
325.77034
325.77031
325.77026
325.77019
325.77019
325.77028
325.77023
325.77027
325.77029
325.77029
325.77028
325.77024
325.77019
325.77013
325.77013
325.7703
325.77025
325.77028
325.77029
325.77029
325.77028
325.77024
325.77019
325.77013
325.77018
333.99888
333.99879
333.99887
333.99892
333.99893
333.99893
333.99891
333.99887
333.99883
333.99885
333.99879
333.99877
333.99885
333.99889
333.99891
333.99891
333.99888
333.99883
333.99878
333.9988
333.99887
333.99885
333.99893
333.99897
333.99899
333.99898
333.99895
333.9989
333.99883
333.99884
333.99892
333.99889
333.99897
333.99901
333.99902
333.99901
333.99898
333.99893
333.99885
333.99885
333.99893
333.99891
333.99899
333.99902
333.99903
333.99902
333.99899
333.99893
333.99885
333.99885
333.99893
333.99891
333.99898
333.99901
333.99902
333.99901
333.99897
333.99891
333.99883
333.99883
333.99891
333.99888
333.99895
333.99898
333.99899
333.99897
333.99893
333.99887
333.99879
333.99879
333.99887
333.99883
333.9989
333.99893
333.99893
333.99891
333.99887
333.9988
333.99873
333.99873
333.99883
333.99878
333.99883
333.99885
333.99885
333.99883
333.99879
333.99873
333.99865
333.99866
333.99885
333.9988
333.99884
333.99885
333.99885
333.99883
333.99879
333.99873
333.99866
333.99871
342.1708
342.17071
342.1708
342.17085
342.17087
342.17086
342.17084
342.17079
342.17075
342.17077
342.17071
342.17069
342.17078
342.17083
342.17084
342.17084
342.17081
342.17075
342.17069
342.17071
342.1708
342.17078
342.17087
342.17091
342.17093
342.17092
342.17088
342.17082
342.17075
342.17075
342.17085
342.17083
342.17091
342.17095
342.17097
342.17096
342.17092
342.17085
342.17077
342.17077
342.17087
342.17084
342.17093
342.17097
342.17098
342.17096
342.17092
342.17085
342.17076
342.17076
342.17086
342.17084
342.17092
342.17096
342.17096
342.17094
342.1709
342.17083
342.17074
342.17073
342.17084
342.17081
342.17088
342.17092
342.17092
342.1709
342.17085
342.17078
342.17069
342.17069
342.17079
342.17075
342.17082
342.17085
342.17085
342.17083
342.17078
342.17071
342.17062
342.17062
342.17075
342.17069
342.17075
342.17077
342.17076
342.17074
342.17069
342.17062
342.17053
342.17054
342.17077
342.17071
342.17075
342.17077
342.17076
342.17073
342.17069
342.17062
342.17054
342.1706
350.28643
350.28633
350.28644
350.28648
350.2865
350.2865
350.28646
350.28641
350.28636
350.28638
350.28633
350.28632
350.28641
350.28646
350.28648
350.28647
350.28643
350.28637
350.2863
350.28632
350.28644
350.28641
350.28651
350.28655
350.28657
350.28656
350.28652
350.28645
350.28636
350.28636
350.28648
350.28646
350.28655
350.2866
350.28661
350.2866
350.28655
350.28648
350.28638
350.28638
350.2865
350.28648
350.28657
350.28661
350.28662
350.2866
350.28655
350.28648
350.28638
350.28637
350.2865
350.28647
350.28656
350.2866
350.2866
350.28658
350.28653
350.28645
350.28635
350.28634
350.28646
350.28643
350.28652
350.28655
350.28655
350.28653
350.28648
350.2864
350.28629
350.28629
350.28641
350.28637
350.28645
350.28648
350.28648
350.28645
350.2864
350.28632
350.28621
350.28621
350.28636
350.2863
350.28636
350.28638
350.28638
350.28635
350.28629
350.28621
350.28611
350.28612
350.28638
350.28632
350.28636
350.28638
350.28637
350.28634
350.28629
350.28621
350.28612
350.28619
358.34614
358.34604
358.34615
358.3462
358.34622
358.34621
358.34617
358.34611
358.34606
358.34608
358.34604
358.34602
358.34612
358.34617
358.34619
358.34618
358.34614
358.34607
358.34599
358.34601
358.34615
358.34612
358.34623
358.34627
358.34629
358.34627
358.34623
358.34615
358.34605
358.34605
358.3462
358.34617
358.34627
358.34632
358.34633
358.34631
358.34626
358.34618
358.34607
358.34607
358.34622
358.34619
358.34629
358.34633
358.34634
358.34632
358.34627
358.34618
358.34607
358.34606
358.34621
358.34618
358.34627
358.34631
358.34632
358.34629
358.34624
358.34615
358.34604
358.34603
358.34617
358.34614
358.34623
358.34626
358.34627
358.34624
358.34618
358.34609
358.34597
358.34597
358.34611
358.34607
358.34615
358.34618
358.34618
358.34615
358.34609
358.346
358.34589
358.34588
358.34606
358.34599
358.34605
358.34607
358.34607
358.34604
358.34597
358.34589
358.34578
358.34578
358.34608
358.34601
358.34605
358.34607
358.34606
358.34603
358.34597
358.34588
358.34578
358.34585
366.35034
366.35024
366.35035
366.35041
366.35043
366.35041
366.35037
366.35031
366.35025
366.35027
366.35024
366.35022
366.35033
366.35039
366.3504
366.35039
366.35034
366.35027
366.35018
366.3502
366.35035
366.35033
366.35044
366.35049
366.35051
366.35049
366.35044
366.35035
366.35024
366.35024
366.35041
366.35039
366.35049
366.35054
366.35055
366.35053
366.35047
366.35038
366.35027
366.35026
366.35043
366.3504
366.35051
366.35055
366.35056
366.35053
366.35047
366.35038
366.35026
366.35025
366.35041
366.35039
366.35049
366.35053
366.35053
366.3505
366.35044
366.35035
366.35022
366.35021
366.35037
366.35034
366.35044
366.35047
366.35047
366.35044
366.35038
366.35028
366.35015
366.35014
366.35031
366.35027
366.35035
366.35038
366.35038
366.35035
366.35028
366.35018
366.35006
366.35005
366.35025
366.35018
366.35024
366.35027
366.35026
366.35022
366.35015
366.35006
366.34994
366.34994
366.35027
366.3502
366.35024
366.35026
366.35025
366.35021
366.35014
366.35005
366.34994
366.35002
374.2995
374.2994
374.29952
374.29957
374.29959
374.29958
374.29953
374.29946
374.29939
374.29941
374.2994
374.29938
374.2995
374.29955
374.29957
374.29955
374.2995
374.29942
374.29932
374.29935
374.29952
374.2995
374.29961
374.29966
374.29968
374.29966
374.2996
374.29951
374.29939
374.29939
374.29957
374.29955
374.29966
374.29971
374.29972
374.2997
374.29964
374.29954
374.29941
374.2994
374.29959
374.29957
374.29968
374.29972
374.29973
374.2997
374.29964
374.29954
374.2994
374.29939
374.29958
374.29955
374.29966
374.2997
374.2997
374.29967
374.2996
374.2995
374.29936
374.29935
374.29953
374.2995
374.2996
374.29964
374.29964
374.2996
374.29953
374.29943
374.29929
374.29928
374.29946
374.29942
374.29951
374.29954
374.29954
374.2995
374.29943
374.29932
374.29919
374.29917
374.29939
374.29932
374.29939
374.29941
374.2994
374.29936
374.29929
374.29919
374.29906
374.29906
374.29941
374.29935
374.29939
374.2994
374.29939
374.29935
374.29928
374.29917
374.29906
374.29914
382.19412
382.19401
382.19414
382.1942
382.19422
382.1942
382.19415
382.19408
382.194
382.19402
382.19401
382.194
382.19412
382.19418
382.19419
382.19417
382.19412
382.19403
382.19393
382.19395
382.19414
382.19412
382.19424
382.19429
382.19431
382.19428
382.19422
382.19412
382.194
382.19399
382.1942
382.19418
382.19429
382.19434
382.19435
382.19432
382.19426
382.19416
382.19402
382.19401
382.19422
382.19419
382.19431
382.19435
382.19436
382.19433
382.19426
382.19415
382.19401
382.19399
382.1942
382.19417
382.19428
382.19432
382.19433
382.19429
382.19422
382.19411
382.19396
382.19395
382.19415
382.19412
382.19422
382.19426
382.19426
382.19422
382.19414
382.19403
382.19389
382.19387
382.19408
382.19403
382.19412
382.19416
382.19415
382.19411
382.19403
382.19392
382.19377
382.19376
382.194
382.19393
382.194
382.19402
382.19401
382.19396
382.19389
382.19377
382.19363
382.19363
382.19402
382.19395
382.19399
382.19401
382.19399
382.19395
382.19387
382.19376
382.19363
382.19371
390.03474
390.03464
390.03477
390.03482
390.03484
390.03482
390.03477
390.03469
390.03461
390.03462
390.03464
390.03463
390.03475
390.0348
390.03482
390.0348
390.03474
390.03465
390.03453
390.03455
390.03477
390.03475
390.03487
390.03492
390.03493
390.03491
390.03484
390.03474
390.03461
390.0346
390.03482
390.0348
390.03492
390.03497
390.03498
390.03495
390.03488
390.03477
390.03463
390.03461
390.03484
390.03482
390.03493
390.03498
390.03499
390.03495
390.03488
390.03476
390.03462
390.0346
390.03482
390.0348
390.03491
390.03495
390.03495
390.03492
390.03484
390.03472
390.03457
390.03455
390.03477
390.03474
390.03484
390.03488
390.03488
390.03484
390.03476
390.03464
390.03448
390.03446
390.03469
390.03465
390.03474
390.03477
390.03476
390.03472
390.03464
390.03452
390.03437
390.03435
390.03461
390.03453
390.03461
390.03463
390.03462
390.03457
390.03448
390.03437
390.03422
390.03421
390.03462
390.03455
390.0346
390.03461
390.0346
390.03455
390.03446
390.03435
390.03421
390.0343
397.82195
397.82185
397.82198
397.82204
397.82206
397.82204
397.82198
397.8219
397.82181
397.82182
397.82185
397.82184
397.82197
397.82202
397.82204
397.82201
397.82195
397.82185
397.82173
397.82175
397.82198
397.82197
397.82209
397.82214
397.82215
397.82213
397.82206
397.82195
397.82181
397.8218
397.82204
397.82202
397.82214
397.82219
397.8222
397.82217
397.8221
397.82198
397.82183
397.82181
397.82206
397.82204
397.82215
397.8222
397.82221
397.82217
397.82209
397.82197
397.82181
397.82179
397.82204
397.82201
397.82213
397.82217
397.82217
397.82213
397.82205
397.82192
397.82176
397.82174
397.82198
397.82195
397.82206
397.8221
397.82209
397.82205
397.82196
397.82184
397.82168
397.82165
397.8219
397.82185
397.82195
397.82198
397.82197
397.82192
397.82184
397.82171
397.82155
397.82153
397.82181
397.82173
397.82181
397.82183
397.82181
397.82176
397.82168
397.82155
397.8214
397.82139
397.82182
397.82175
397.8218
397.82181
397.82179
397.82174
397.82165
397.82153
397.82139
397.82147
405.55639
405.55628
405.55642
405.55648
405.55649
405.55647
405.55641
405.55632
405.55623
405.55624
405.55628
405.55628
405.5564
405.55646
405.55648
405.55645
405.55638
405.55628
405.55616
405.55617
405.55642
405.5564
405.55653
405.55658
405.55659
405.55656
405.55649
405.55638
405.55623
405.55622
405.55648
405.55646
405.55658
405.55664
405.55664
405.55661
405.55653
405.55641
405.55625
405.55623
405.55649
405.55648
405.55659
405.55664
405.55665
405.55661
405.55652
405.5564
405.55624
405.55621
405.55647
405.55645
405.55656
405.55661
405.55661
405.55656
405.55648
405.55635
405.55618
405.55616
405.55641
405.55638
405.55649
405.55653
405.55652
405.55648
405.55639
405.55626
405.55609
405.55606
405.55632
405.55628
405.55638
405.55641
405.5564
405.55635
405.55626
405.55613
405.55596
405.55594
405.55623
405.55616
405.55623
405.55625
405.55624
405.55618
405.55609
405.55596
405.5558
405.55579
405.55624
405.55617
405.55622
405.55623
405.55621
405.55616
405.55606
405.55594
405.55579
405.55587
413.23872
413.23862
413.23876
413.23881
413.23883
413.2388
413.23874
413.23865
413.23855
413.23856
413.23862
413.23861
413.23874
413.2388
413.23881
413.23878
413.23872
413.23861
413.23848
413.23849
413.23876
413.23874
413.23887
413.23892
413.23893
413.2389
413.23882
413.23871
413.23855
413.23854
413.23881
413.2388
413.23892
413.23897
413.23898
413.23894
413.23886
413.23874
413.23858
413.23855
413.23883
413.23881
413.23893
413.23898
413.23898
413.23894
413.23886
413.23873
413.23856
413.23853
413.2388
413.23878
413.2389
413.23894
413.23894
413.23889
413.23881
413.23867
413.2385
413.23847
413.23874
413.23872
413.23882
413.23886
413.23886
413.23881
413.23871
413.23858
413.23841
413.23838
413.23865
413.23861
413.23871
413.23874
413.23873
413.23867
413.23858
413.23844
413.23827
413.23824
413.23855
413.23848
413.23855
413.23858
413.23856
413.2385
413.23841
413.23827
413.23811
413.23809
413.23856
413.23849
413.23854
413.23855
413.23853
413.23847
413.23838
413.23824
413.23809
413.23817
420.86967
420.86957
420.86971
420.86977
420.86978
420.86975
420.86969
420.86959
420.86949
420.8695
420.86957
420.86957
420.8697
420.86975
420.86977
420.86974
420.86966
420.86956
420.86942
420.86943
420.86971
420.8697
420.86982
420.86988
420.86988
420.86985
420.86977
420.86965
420.8695
420.86948
420.86977
420.86975
420.86988
420.86993
420.86993
420.86989
420.86981
420.86968
420.86952
420.86949
420.86978
420.86977
420.86988
420.86993
420.86993
420.86989
420.8698
420.86967
420.8695
420.86947
420.86975
420.86974
420.86985
420.86989
420.86989
420.86984
420.86975
420.86961
420.86944
420.8694
420.86969
420.86966
420.86977
420.86981
420.8698
420.86975
420.86965
420.86951
420.86934
420.86931
420.86959
420.86956
420.86965
420.86968
420.86967
420.86961
420.86951
420.86938
420.8692
420.86917
420.86949
420.86942
420.8695
420.86952
420.8695
420.86944
420.86934
420.8692
420.86903
420.86901
420.8695
420.86943
420.86948
420.86949
420.86947
420.8694
420.86931
420.86917
420.86901
420.8691
428.45
428.4499
428.45004
428.45009
428.45011
428.45008
428.45001
428.44991
428.44981
428.44981
428.4499
428.4499
428.45003
428.45008
428.45009
428.45006
428.44999
428.44988
428.44974
428.44975
428.45004
428.45003
428.45015
428.45021
428.45021
428.45018
428.4501
428.44997
428.44981
428.44979
428.45009
428.45008
428.45021
428.45026
428.45026
428.45022
428.45013
428.45
428.44983
428.4498
428.45011
428.45009
428.45021
428.45026
428.45026
428.45021
428.45012
428.44999
428.44981
428.44978
428.45008
428.45006
428.45018
428.45022
428.45021
428.45016
428.45007
428.44993
428.44975
428.44972
428.45001
428.44999
428.4501
428.45013
428.45012
428.45007
428.44997
428.44983
428.44965
428.44962
428.44991
428.44988
428.44997
428.45
428.44999
428.44993
428.44983
428.44969
428.44951
428.44948
428.44981
428.44974
428.44981
428.44983
428.44981
428.44975
428.44965
428.44951
428.44934
428.44932
428.44981
428.44975
428.44979
428.4498
428.44978
428.44972
428.44962
428.44948
428.44932
428.4494
435.9805
435.98041
435.98054
435.9806
435.98061
435.98058
435.98051
435.98041
435.98031
435.98031
435.98041
435.98041
435.98053
435.98059
435.9806
435.98057
435.98049
435.98038
435.98024
435.98024
435.98054
435.98053
435.98066
435.98071
435.98072
435.98068
435.9806
435.98047
435.98031
435.98029
435.9806
435.98059
435.98071
435.98076
435.98076
435.98072
435.98063
435.9805
435.98033
435.9803
435.98061
435.9806
435.98072
435.98076
435.98076
435.98071
435.98062
435.98048
435.98031
435.98027
435.98058
435.98057
435.98068
435.98072
435.98071
435.98066
435.98057
435.98042
435.98024
435.98021
435.98051
435.98049
435.9806
435.98063
435.98062
435.98057
435.98047
435.98032
435.98014
435.9801
435.98041
435.98038
435.98047
435.9805
435.98048
435.98042
435.98032
435.98018
435.98
435.97996
435.98031
435.98024
435.98031
435.98033
435.98031
435.98024
435.98014
435.98
435.97982
435.9798
435.98031
435.98024
435.98029
435.9803
435.98027
435.98021
435.9801
435.97996
435.9798
435.97988
443.46202
443.46193
443.46206
443.46212
443.46213
443.4621
443.46203
443.46193
443.46182
443.46182
443.46193
443.46193
443.46206
443.46211
443.46212
443.46208
443.46201
443.46189
443.46175
443.46176
443.46206
443.46206
443.46218
443.46223
443.46223
443.4622
443.46211
443.46199
443.46182
443.4618
443.46212
443.46211
443.46223
443.46228
443.46228
443.46223
443.46215
443.46201
443.46184
443.46181
443.46213
443.46212
443.46223
443.46228
443.46227
443.46223
443.46213
443.462
443.46182
443.46178
443.4621
443.46208
443.4622
443.46223
443.46223
443.46217
443.46208
443.46194
443.46175
443.46172
443.46203
443.46201
443.46211
443.46215
443.46213
443.46208
443.46198
443.46183
443.46165
443.46161
443.46193
443.46189
443.46199
443.46201
443.462
443.46194
443.46183
443.46169
443.46151
443.46147
443.46182
443.46175
443.46182
443.46184
443.46182
443.46175
443.46165
443.46151
443.46133
443.46131
443.46182
443.46176
443.4618
443.46181
443.46178
443.46172
443.46161
443.46147
443.46131
443.46138
450.89543
450.89535
450.89548
450.89553
450.89554
450.89551
450.89544
450.89533
450.89523
450.89522
450.89535
450.89535
450.89547
450.89553
450.89553
450.8955
450.89542
450.8953
450.89516
450.89516
450.89548
450.89547
450.89559
450.89564
450.89564
450.8956
450.89552
450.8954
450.89523
450.8952
450.89553
450.89553
450.89564
450.89569
450.89569
450.89564
450.89555
450.89542
450.89525
450.89521
450.89554
450.89553
450.89564
450.89569
450.89568
450.89563
450.89554
450.8954
450.89522
450.89518
450.89551
450.8955
450.8956
450.89564
450.89563
450.89558
450.89548
450.89534
450.89516
450.89512
450.89544
450.89542
450.89552
450.89555
450.89554
450.89548
450.89538
450.89524
450.89506
450.89502
450.89533
450.8953
450.8954
450.89542
450.8954
450.89534
450.89524
450.89509
450.89491
450.89487
450.89523
450.89516
450.89523
450.89525
450.89522
450.89516
450.89506
450.89491
450.89474
450.89471
450.89522
450.89516
450.8952
450.89521
450.89518
450.89512
450.89502
450.89487
450.89471
450.89478
458.28165
458.28157
458.28169
458.28175
458.28175
458.28172
458.28165
458.28155
458.28144
458.28143
458.28157
458.28157
458.28169
458.28174
458.28175
458.28171
458.28163
458.28152
458.28138
458.28138
458.28169
458.28169
458.28181
458.28185
458.28186
458.28182
458.28173
458.28161
458.28145
458.28142
458.28175
458.28174
458.28185
458.2819
458.2819
458.28185
458.28176
458.28163
458.28146
458.28142
458.28175
458.28175
458.28186
458.2819
458.28189
458.28184
458.28175
458.28161
458.28143
458.28139
458.28172
458.28171
458.28182
458.28185
458.28184
458.28179
458.28169
458.28155
458.28137
458.28133
458.28165
458.28163
458.28173
458.28176
458.28175
458.28169
458.28159
458.28145
458.28127
458.28123
458.28155
458.28152
458.28161
458.28163
458.28161
458.28155
458.28145
458.2813
458.28113
458.28108
458.28144
458.28138
458.28145
458.28146
458.28143
458.28137
458.28127
458.28113
458.28095
458.28092
458.28143
458.28138
458.28142
458.28142
458.28139
458.28133
458.28123
458.28108
458.28092
458.28099
465.62161
465.62154
465.62166
465.62171
465.62171
465.62168
465.62161
465.62151
465.6214
465.62139
465.62154
465.62155
465.62166
465.62171
465.62171
465.62167
465.6216
465.62148
465.62134
465.62134
465.62166
465.62166
465.62177
465.62181
465.62181
465.62177
465.62169
465.62157
465.62141
465.62138
465.62171
465.62171
465.62181
465.62185
465.62185
465.62181
465.62172
465.62159
465.62142
465.62138
465.62171
465.62171
465.62181
465.62185
465.62184
465.6218
465.6217
465.62157
465.62139
465.62135
465.62168
465.62167
465.62177
465.62181
465.6218
465.62174
465.62165
465.62151
465.62133
465.62129
465.62161
465.6216
465.62169
465.62172
465.6217
465.62165
465.62155
465.62141
465.62123
465.62119
465.62151
465.62148
465.62157
465.62159
465.62157
465.62151
465.62141
465.62126
465.62109
465.62105
465.6214
465.62134
465.62141
465.62142
465.62139
465.62133
465.62123
465.62109
465.62092
465.62089
465.62139
465.62134
465.62138
465.62138
465.62135
465.62129
465.62119
465.62105
465.62089
465.62095
472.9163
472.91623
472.91634
472.91639
472.91639
472.91636
472.91629
472.91619
472.91608
472.91608
472.91623
472.91624
472.91635
472.91639
472.91639
472.91635
472.91628
472.91617
472.91603
472.91602
472.91634
472.91635
472.91645
472.91649
472.91649
472.91645
472.91637
472.91625
472.91609
472.91606
472.91639
472.91639
472.91649
472.91653
472.91653
472.91648
472.91639
472.91627
472.9161
472.91606
472.91639
472.91639
472.91649
472.91653
472.91652
472.91647
472.91638
472.91625
472.91608
472.91603
472.91636
472.91635
472.91645
472.91648
472.91647
472.91642
472.91632
472.91619
472.91601
472.91597
472.91629
472.91628
472.91637
472.91639
472.91638
472.91632
472.91622
472.91609
472.91591
472.91587
472.91619
472.91617
472.91625
472.91627
472.91625
472.91619
472.91609
472.91595
472.91578
472.91573
472.91608
472.91603
472.91609
472.9161
472.91608
472.91601
472.91591
472.91578
472.91561
472.91558
472.91608
472.91602
472.91606
472.91606
472.91603
472.91597
472.91587
472.91573
472.91558
472.91564
480.1667
480.16664
480.16675
480.16679
480.16679
480.16676
480.16669
480.1666
480.16649
480.16648
480.16664
480.16665
480.16675
480.16679
480.16679
480.16676
480.16668
480.16657
480.16644
480.16643
480.16675
480.16675
480.16685
480.16689
480.16689
480.16685
480.16677
480.16665
480.1665
480.16646
480.16679
480.16679
480.16689
480.16692
480.16692
480.16688
480.16679
480.16667
480.16651
480.16647
480.16679
480.16679
480.16689
480.16692
480.16691
480.16686
480.16677
480.16664
480.16648
480.16644
480.16676
480.16676
480.16685
480.16688
480.16686
480.16681
480.16672
480.16659
480.16642
480.16637
480.16669
480.16668
480.16677
480.16679
480.16677
480.16672
480.16662
480.16649
480.16632
480.16628
480.1666
480.16657
480.16665
480.16667
480.16664
480.16659
480.16649
480.16635
480.16619
480.16614
480.16649
480.16644
480.1665
480.16651
480.16648
480.16642
480.16632
480.16619
480.16602
480.16599
480.16648
480.16643
480.16646
480.16647
480.16644
480.16637
480.16628
480.16614
480.16599
480.16605
487.37385
487.3738
487.3739
487.37394
487.37394
487.37391
487.37384
487.37375
487.37364
487.37363
487.3738
487.37381
487.3739
487.37394
487.37394
487.3739
487.37383
487.37373
487.3736
487.37359
487.3739
487.3739
487.374
487.37403
487.37403
487.37399
487.37391
487.3738
487.37365
487.37362
487.37394
487.37394
487.37403
487.37406
487.37406
487.37401
487.37393
487.37381
487.37366
487.37362
487.37394
487.37394
487.37403
487.37406
487.37405
487.374
487.37391
487.37379
487.37363
487.37359
487.37391
487.3739
487.37399
487.37401
487.374
487.37395
487.37386
487.37373
487.37357
487.37353
487.37384
487.37383
487.37391
487.37393
487.37391
487.37386
487.37377
487.37364
487.37348
487.37343
487.37375
487.37373
487.3738
487.37381
487.37379
487.37373
487.37364
487.37351
487.37335
487.3733
487.37364
487.3736
487.37365
487.37366
487.37363
487.37357
487.37348
487.37335
487.37319
487.37316
487.37363
487.37359
487.37362
487.37362
487.37359
487.37353
487.37343
487.3733
487.37316
487.37321
494.53879
494.53874
494.53884
494.53888
494.53887
494.53884
494.53878
494.53869
494.53859
494.53858
494.53874
494.53875
494.53884
494.53888
494.53888
494.53884
494.53877
494.53867
494.53855
494.53853
494.53884
494.53884
494.53893
494.53896
494.53896
494.53892
494.53884
494.53873
494.53859
494.53856
494.53888
494.53888
494.53896
494.53899
494.53898
494.53894
494.53886
494.53875
494.5386
494.53856
494.53887
494.53888
494.53896
494.53898
494.53897
494.53893
494.53884
494.53872
494.53857
494.53853
494.53884
494.53884
494.53892
494.53894
494.53893
494.53888
494.53879
494.53867
494.53851
494.53847
494.53878
494.53877
494.53884
494.53886
494.53884
494.53879
494.5387
494.53858
494.53842
494.53838
494.53869
494.53867
494.53873
494.53875
494.53872
494.53867
494.53858
494.53846
494.5383
494.53826
494.53859
494.53855
494.53859
494.5386
494.53857
494.53851
494.53842
494.5383
494.53815
494.53812
494.53858
494.53853
494.53856
494.53856
494.53853
494.53847
494.53838
494.53826
494.53812
494.53817
501.66259
501.66254
501.66263
501.66266
501.66266
501.66263
501.66257
501.66248
501.66239
501.66237
501.66254
501.66256
501.66264
501.66267
501.66266
501.66263
501.66256
501.66247
501.66235
501.66234
501.66263
501.66264
501.66271
501.66274
501.66274
501.6627
501.66263
501.66252
501.66239
501.66236
501.66266
501.66267
501.66274
501.66277
501.66276
501.66272
501.66264
501.66254
501.6624
501.66236