   cellZoneTest1   cellZoneTest2   cellZoneTest3        -16.8107         -9.0814         -9.0814
        -16.8107         -9.0814         -9.0814
        -16.8108         -9.0814         -9.0814
        -16.8107         -9.0813         -9.0813
        -15.9041        -15.9041        -17.8638
        -15.9041    4.79244e-322        -17.8638
         -15.904    6.92163e-310        -17.8638
        -15.9041               0        -17.8637
