         1.01546        0.822617        0.822617
         1.01546        0.822617        0.822617
         1.01546        0.822617        0.822617
         1.01546        0.822617        0.822617
         1.00402         1.00402        0.970317
         1.00402    3.21143e-322        0.970318
         1.00402    4.68168e-310        0.970318
         1.00402    4.94066e-324        0.970318
