   cellZoneTest1   cellZoneTest2   cellZoneTest3
     2.45362e-07     -4.2122e-08     -4.2122e-08
     3.09569e-07     2.37578e-08     2.37578e-08
     2.45362e-07     -4.2122e-08     -4.2122e-08
      3.0957e-07     2.37577e-08     2.37577e-08
     6.26981e-08               0     2.12565e-07
     5.00287e-08    8.74496e-322      3.2214e-07
     6.26982e-08    4.67701e-310     2.12566e-07
     5.00288e-08    4.67701e-310     3.22141e-07
