/*--------------------------------*- C++ -*----------------------------------*\
| =========                 |                                                 |
| \\      /  F ield         | OpenFOAM: The Open Source CFD Toolbox           |
|  \\    /   O peration     | Version:  v2106                                 |
|   \\  /    A nd           | Website:  www.openfoam.com                      |
|    \\/     M anipulation  |                                                 |
\*---------------------------------------------------------------------------*/
FoamFile
{
    version     2.0;
    format      ascii;
    arch        "LSB;label=32;scalar=64";
    class       volVectorField;
    location    "40";
    object      flux;
}
// * * * * * * * * * * * * * * * * * * * * * * * * * * * * * * * * * * * * * //

dimensions      [0 1 -1 1 0 0 0];

internalField   nonuniform List<vector> 
500
(
(-1.9877757e-06 -1.9877757e-06 1.8669077)
(-3.9960906e-06 -1.7517014e-06 1.8668966)
(-1.1437529e-06 -1.6627247e-06 1.8668927)
(2.1495935e-07 -1.5604216e-06 1.8668924)
(2.2952344e-07 -1.3362063e-06 1.8668941)
(-1.7517014e-06 -3.9960906e-06 1.8668966)
(-3.5085142e-06 -3.5085142e-06 1.8668868)
(-8.5683319e-07 -3.2462328e-06 1.8668835)
(7.0473702e-07 -2.9647842e-06 1.8668838)
(4.5373875e-07 -2.5042142e-06 1.8668869)
(-1.6627247e-06 -1.1437529e-06 1.8668927)
(-3.2462327e-06 -8.568332e-07 1.8668835)
(-6.0002294e-07 -6.0002295e-07 1.8668807)
(9.5697792e-07 -3.6982081e-07 1.8668815)
(5.3657012e-07 -1.7230534e-07 1.8668851)
(-1.5604216e-06 2.1495935e-07 1.8668924)
(-2.9647842e-06 7.0473702e-07 1.8668838)
(-3.6982081e-07 9.5697792e-07 1.8668815)
(1.1324546e-06 1.1324546e-06 1.8668827)
(5.8541574e-07 1.2581637e-06 1.8668866)
(-1.3362063e-06 2.2952344e-07 1.8668941)
(-2.5042142e-06 4.5373875e-07 1.8668869)
(-1.7230533e-07 5.3657012e-07 1.8668851)
(1.2581637e-06 5.8541574e-07 1.8668866)
(6.2037617e-07 6.2037617e-07 1.8668908)
(-5.1312745e-06 -5.1312745e-06 1.8671187)
(-1.0390214e-05 -4.4900013e-06 1.8671103)
(-2.8255441e-06 -4.2329477e-06 1.8671075)
(1.3749177e-06 -3.9165714e-06 1.8671079)
(1.004773e-06 -3.1593315e-06 1.8671109)
(-4.4900013e-06 -1.0390214e-05 1.8671103)
(-9.0427239e-06 -9.0427239e-06 1.867103)
(-1.9653992e-06 -8.2777124e-06 1.8671007)
(2.985342e-06 -7.4193807e-06 1.8671017)
(1.7620129e-06 -5.9146242e-06 1.8671063)
(-4.2329477e-06 -2.8255441e-06 1.8671075)
(-8.2777124e-06 -1.9653993e-06 1.8671007)
(-1.2022008e-06 -1.2022009e-06 1.8670988)
(3.738006e-06 -5.0831973e-07 1.8671003)
(2.007944e-06 9.1537342e-08 1.8671054)
(-3.9165714e-06 1.3749177e-06 1.8671079)
(-7.4193807e-06 2.985342e-06 1.8671017)
(-5.0831972e-07 3.7380059e-06 1.8671003)
(4.2790802e-06 4.2790802e-06 1.8671023)
(2.1619176e-06 4.7293791e-06 1.8671077)
(-3.1593315e-06 1.004773e-06 1.8671109)
(-5.9146242e-06 1.7620129e-06 1.8671063)
(9.1537344e-08 2.007944e-06 1.8671054)
(4.7293791e-06 2.1619176e-06 1.8671077)
(2.3081433e-06 2.3081433e-06 1.8671135)
(-7.5813167e-06 -7.5813167e-06 1.8675077)
(-1.5245289e-05 -6.6183689e-06 1.8675009)
(-3.579757e-06 -6.2103219e-06 1.8674989)
(3.649232e-06 -5.6879105e-06 1.8675001)
(2.2371164e-06 -4.4214683e-06 1.8675039)
(-6.6183689e-06 -1.5245289e-05 1.8675009)
(-1.3188797e-05 -1.3188797e-05 1.867495)
(-2.1840695e-06 -1.1961464e-05 1.8674935)
(6.3325124e-06 -1.0546058e-05 1.8674952)
(3.5035587e-06 -8.0403811e-06 1.8675006)
(-6.2103219e-06 -3.579757e-06 1.8674989)
(-1.1961464e-05 -2.1840695e-06 1.8674935)
(-9.3701748e-07 -9.370175e-07 1.8674924)
(7.5703148e-06 2.156942e-07 1.8674946)
(3.9075675e-06 1.2291793e-06 1.8675005)
(-5.6879105e-06 3.649232e-06 1.8675001)
(-1.0546058e-05 6.3325124e-06 1.8674952)
(2.1569421e-07 7.5703148e-06 1.8674946)
(8.4987092e-06 8.4987092e-06 1.8674973)
(4.1792154e-06 9.4033724e-06 1.8675034)
(-4.4214683e-06 2.2371164e-06 1.8675039)
(-8.040381e-06 3.5035587e-06 1.8675006)
(1.2291793e-06 3.9075675e-06 1.8675005)
(9.4033724e-06 4.1792154e-06 1.8675034)
(4.5106763e-06 4.5106763e-06 1.8675101)
(-9.6401923e-06 -9.6401923e-06 1.8680833)
(-1.9120732e-05 -8.3935222e-06 1.8680776)
(-3.6602985e-06 -7.8487275e-06 1.8680763)
(6.3720785e-06 -7.1334866e-06 1.8680779)
(3.5812893e-06 -5.3872674e-06 1.8680819)
(-8.3935222e-06 -1.9120732e-05 1.8680776)
(-1.6433534e-05 -1.6433534e-05 1.8680727)
(-1.7702451e-06 -1.4783262e-05 1.8680718)
(1.0064269e-05 -1.2845322e-05 1.8680739)
(5.3275084e-06 -9.3959424e-06 1.8680793)
(-7.8487275e-06 -3.6602985e-06 1.8680763)
(-1.4783262e-05 -1.7702451e-06 1.8680718)
(-7.2086248e-08 -7.2086262e-08 1.8680713)
(1.1759398e-05 1.5164216e-06 1.8680739)
(5.8808758e-06 2.9271258e-06 1.8680797)
(-7.1334866e-06 6.3720786e-06 1.8680779)
(-1.2845322e-05 1.0064269e-05 1.8680739)
(1.5164216e-06 1.1759398e-05 1.8680739)
(1.3063481e-05 1.3063481e-05 1.8680768)
(6.2679779e-06 1.4415059e-05 1.868083)
(-5.3872674e-06 3.5812893e-06 1.8680819)
(-9.3959424e-06 5.3275084e-06 1.8680793)
(2.9271258e-06 5.8808758e-06 1.8680797)
(1.4415059e-05 6.2679779e-06 1.868083)
(6.7819282e-06 6.7819282e-06 1.8680897)
(-1.137142e-05 -1.137142e-05 1.86883)
(-2.2213134e-05 -9.8742991e-06 1.8688253)
(-3.3015363e-06 -9.207458e-06 1.8688246)
(9.2323185e-06 -8.3171682e-06 1.8688263)
(4.9185673e-06 -6.1337524e-06 1.8688302)
(-9.8742991e-06 -2.2213134e-05 1.8688253)
(-1.8967191e-05 -1.8967191e-05 1.8688213)
(-9.6583992e-07 -1.6937643e-05 1.8688209)
(1.3842877e-05 -1.4524869e-05 1.8688231)
(7.1019831e-06 -1.0215417e-05 1.8688283)
(-9.207458e-06 -3.3015363e-06 1.8688246)
(-1.6937643e-05 -9.6583993e-07 1.8688209)
(1.1407851e-06 1.1407851e-06 1.8688208)
(1.5954545e-05 3.1276787e-06 1.8688235)
(7.7915359e-06 4.9030925e-06 1.868829)
(-8.3171682e-06 9.2323186e-06 1.8688263)
(-1.4524869e-05 1.3842877e-05 1.8688231)
(3.1276787e-06 1.5954545e-05 1.8688235)
(1.7605184e-05 1.7605184e-05 1.8688265)
(8.2855923e-06 1.9372365e-05 1.8688323)
(-6.1337524e-06 4.9185674e-06 1.8688302)
(-1.0215417e-05 7.1019831e-06 1.8688283)
(4.9030925e-06 7.7915359e-06 1.868829)
(1.9372365e-05 8.2855923e-06 1.8688323)
(8.9696566e-06 8.9696566e-06 1.8688386)
(-1.2777346e-05 -1.2777346e-05 1.8697291)
(-2.4590304e-05 -1.1067159e-05 1.8697254)
(-2.6624901e-06 -1.0295052e-05 1.8697251)
(1.2028209e-05 -9.2517034e-06 1.8697269)
(6.1776085e-06 -6.6847872e-06 1.8697305)
(-1.1067159e-05 -2.4590304e-05 1.8697254)
(-2.0866864e-05 -2.0866864e-05 1.8697223)
(6.069267e-08 -1.8508926e-05 1.8697222)
(1.7443606e-05 -1.5680774e-05 1.8697245)
(8.7445246e-06 -1.061709e-05 1.8697291)
(-1.0295052e-05 -2.6624901e-06 1.8697251)
(-1.8508926e-05 6.0692656e-08 1.8697222)
(2.5235997e-06 2.5235997e-06 1.8697225)
(1.9920046e-05 4.8603992e-06 1.869725)
(9.5533981e-06 6.9573168e-06 1.86973)
(-9.2517034e-06 1.2028209e-05 1.8697269)
(-1.5680774e-05 1.7443606e-05 1.8697245)
(4.8603992e-06 1.9920045e-05 1.869725)
(2.1877323e-05 2.1877323e-05 1.8697279)
(1.014247e-05 2.4016989e-05 1.8697331)
(-6.6847872e-06 6.1776085e-06 1.8697305)
(-1.061709e-05 8.7445246e-06 1.8697291)
(6.9573168e-06 9.5533981e-06 1.86973)
(2.4016989e-05 1.014247e-05 1.8697331)
(1.0979842e-05 1.0979842e-05 1.8697388)
(-1.3844705e-05 -1.3844705e-05 1.8707583)
(-2.627017e-05 -1.1963668e-05 1.8707556)
(-1.8466619e-06 -1.1105402e-05 1.8707556)
(1.4618139e-05 -9.9347103e-06 1.8707573)
(7.3077926e-06 -7.0474951e-06 1.8707605)
(-1.1963668e-05 -2.627017e-05 1.8707556)
(-2.2161216e-05 -2.2161216e-05 1.8707534)
(1.1967739e-06 -1.9533211e-05 1.8707536)
(2.0705e-05 -1.6359358e-05 1.8707557)
(1.0195008e-05 -1.0666099e-05 1.8707597)
(-1.1105402e-05 -1.8466619e-06 1.8707556)
(-1.9533211e-05 1.1967739e-06 1.8707536)
(3.9551956e-06 3.9551956e-06 1.8707541)
(2.3485252e-05 6.5844399e-06 1.8707564)
(1.1103299e-05 8.9512997e-06 1.8707607)
(-9.9347103e-06 1.4618139e-05 1.8707573)
(-1.6359358e-05 2.0705e-05 1.8707557)
(6.58444e-06 2.3485252e-05 1.8707564)
(2.5701104e-05 2.5701104e-05 1.870759)
(1.1772914e-05 2.8160601e-05 1.8707635)
(-7.0474951e-06 7.3077926e-06 1.8707605)
(-1.0666099e-05 1.0195008e-05 1.8707597)
(8.9512997e-06 1.1103299e-05 1.8707607)
(2.8160601e-05 1.1772914e-05 1.8707635)
(1.2742963e-05 1.2742963e-05 1.8707683)
(-1.4558296e-05 -1.4558296e-05 1.8718919)
(-2.7253154e-05 -1.2552742e-05 1.8718904)
(-9.2409508e-07 -1.1629475e-05 1.8718907)
(1.6897676e-05 -1.0360275e-05 1.8718923)
(8.2707076e-06 -7.2238575e-06 1.8718948)
(-1.2552742e-05 -2.7253154e-05 1.8718904)
(-2.2859922e-05 -2.2859922e-05 1.8718891)
(2.3646063e-06 -2.0026635e-05 1.8718895)
(2.3506102e-05 -1.6585259e-05 1.8718914)
(1.1407125e-05 -1.0402632e-05 1.8718946)
(-1.1629475e-05 -9.2409509e-07 1.8718907)
(-2.0026635e-05 2.3646063e-06 1.8718895)
(5.3505675e-06 5.3505675e-06 1.8718902)
(2.652168e-05 8.2075058e-06 1.8718922)
(1.2392459e-05 1.0786004e-05 1.8718957)
(-1.0360275e-05 1.6897676e-05 1.8718923)
(-1.6585259e-05 2.3506102e-05 1.8718914)
(8.2075058e-06 2.652168e-05 1.8718922)
(2.8941538e-05 2.8941538e-05 1.8718944)
(1.3126123e-05 3.166026e-05 1.871898)
(-7.2238575e-06 8.2707076e-06 1.8718948)
(-1.0402632e-05 1.1407125e-05 1.8718946)
(1.0786004e-05 1.2392459e-05 1.8718957)
(3.166026e-05 1.3126123e-05 1.871898)
(1.4204941e-05 1.4204941e-05 1.8719019)
(-1.4906609e-05 -1.4906609e-05 1.8731022)
(-2.7538448e-05 -1.2825921e-05 1.8731018)
(5.4009078e-08 -1.1860391e-05 1.8731024)
(1.8787637e-05 -1.0523938e-05 1.8731037)
(9.0367288e-06 -7.2155517e-06 1.8731057)
(-1.2825921e-05 -2.7538448e-05 1.8731018)
(-2.2969121e-05 -2.2969121e-05 1.8731014)
(3.5069835e-06 -2.0000341e-05 1.8731021)
(2.5754896e-05 -1.6376198e-05 1.8731036)
(1.2345116e-05 -9.8564583e-06 1.873106)
(-1.1860391e-05 5.4009085e-08 1.8731024)
(-2.0000341e-05 3.5069835e-06 1.8731021)
(6.6469326e-06 6.6469326e-06 1.8731029)
(2.893152e-05 9.6611942e-06 1.8731046)
(1.3383222e-05 1.2387806e-05 1.873107)
(-1.0523938e-05 1.8787637e-05 1.8731037)
(-1.6376198e-05 2.5754896e-05 1.8731036)
(9.6611942e-06 2.893152e-05 1.8731046)
(3.149577e-05 3.149577e-05 1.8731063)
(1.4162857e-05 3.4406729e-05 1.8731089)
(-7.2155517e-06 9.0367288e-06 1.8731057)
(-9.8564583e-06 1.2345116e-05 1.873106)
(1.2387806e-05 1.3383222e-05 1.873107)
(3.4406729e-05 1.4162857e-05 1.8731089)
(1.5323862e-05 1.5323862e-05 1.8731117)
(-1.4884586e-05 -1.4884586e-05 1.8743593)
(-2.7132757e-05 -1.2779996e-05 1.8743599)
(1.0467074e-06 -1.179598e-05 1.8743608)
(2.0227862e-05 -1.0425185e-05 1.8743619)
(9.5835178e-06 -7.0262942e-06 1.8743632)
(-1.2779996e-05 -2.7132757e-05 1.8743599)
(-2.2499848e-05 -2.2499848e-05 1.8743605)
(4.5789243e-06 -1.9468687e-05 1.8743614)
(2.7382391e-05 -1.5751027e-05 1.8743626)
(1.2982409e-05 -9.0547267e-06 1.874364)
(-1.179598e-05 1.0467074e-06 1.8743608)
(-1.9468687e-05 4.5789243e-06 1.8743614)
(7.7955281e-06 7.7955281e-06 1.8743623)
(3.0641823e-05 1.0892872e-05 1.8743635)
(1.4047718e-05 1.3700436e-05 1.874365)
(-1.0425185e-05 2.0227862e-05 1.8743619)
(-1.5751027e-05 2.7382391e-05 1.8743626)
(1.0892872e-05 3.0641823e-05 1.8743635)
(3.3287299e-05 3.3287299e-05 1.8743648)
(1.4854118e-05 3.6318789e-05 1.8743663)
(-7.0262942e-06 9.5835178e-06 1.8743632)
(-9.0547267e-06 1.2982409e-05 1.874364)
(1.3700436e-05 1.4047718e-05 1.874365)
(3.6318789e-05 1.4854118e-05 1.8743663)
(1.6068712e-05 1.6068712e-05 1.8743679)
(-1.4495083e-05 -1.4495083e-05 1.8756322)
(-2.6055141e-05 -1.2418415e-05 1.8756339)
(2.0183718e-06 -1.1440145e-05 1.875635)
(2.1173851e-05 -1.0068765e-05 1.8756358)
(9.8953091e-06 -6.6630629e-06 1.8756363)
(-1.2418415e-05 -2.6055141e-05 1.8756339)
(-2.1472734e-05 -2.1472734e-05 1.8756354)
(5.5428467e-06 -1.8453841e-05 1.8756365)
(2.8339475e-05 -1.4734219e-05 1.8756372)
(1.3301011e-05 -8.0262506e-06 1.8756377)
(-1.1440145e-05 2.0183718e-06 1.875635)
(-1.8453841e-05 5.5428467e-06 1.8756365)
(8.7568867e-06 8.7568867e-06 1.8756375)
(3.1601442e-05 1.186103e-05 1.8756382)
(1.4367288e-05 1.4680399e-05 1.8756386)
(-1.0068765e-05 2.1173851e-05 1.8756358)
(-1.4734219e-05 2.8339475e-05 1.8756372)
(1.186103e-05 3.1601442e-05 1.8756382)
(3.4262987e-05 3.4262987e-05 1.8756389)
(1.518059e-05 3.7340346e-05 1.8756393)
(-6.6630629e-06 9.8953091e-06 1.8756363)
(-8.0262506e-06 1.3301011e-05 1.8756377)
(1.4680399e-05 1.4367288e-05 1.8756386)
(3.7340346e-05 1.518059e-05 1.8756393)
(1.641886e-05 1.641886e-05 1.8756397)
(-1.3749651e-05 -1.3749651e-05 1.8768895)
(-2.4339823e-05 -1.1752044e-05 1.8768923)
(2.9355854e-06 -1.0803615e-05 1.8768935)
(2.1594644e-05 -9.4654229e-06 1.876894)
(9.9624742e-06 -6.1367709e-06 1.8768938)
(-1.1752044e-05 -2.4339823e-05 1.8768923)
(-1.992077e-05 -1.992077e-05 1.8768947)
(6.3655163e-06 -1.6988501e-05 1.8768958)
(2.859491e-05 -1.3358523e-05 1.8768962)
(1.3291126e-05 -6.8040678e-06 1.8768956)
(-1.0803615e-05 2.9355854e-06 1.8768935)
(-1.6988501e-05 6.3655163e-06 1.8768958)
(9.4978321e-06 9.4978321e-06 1.8768969)
(3.1779077e-05 1.2532321e-05 1.8768971)
(1.4332111e-05 1.5294061e-05 1.8768964)
(-9.4654229e-06 2.1594644e-05 1.876894)
(-1.3358523e-05 2.859491e-05 1.8768962)
(1.2532321e-05 3.1779077e-05 1.8768971)
(3.4391139e-05 3.4391139e-05 1.8768972)
(1.5132286e-05 3.7438583e-05 1.8768965)
(-6.1367709e-06 9.9624742e-06 1.8768938)
(-6.8040678e-06 1.3291126e-05 1.8768956)
(1.5294061e-05 1.4332111e-05 1.8768964)
(3.7438583e-05 1.5132286e-05 1.8768965)
(1.636374e-05 1.636374e-05 1.8768957)
(-1.266896e-05 -1.266896e-05 1.8781004)
(-2.2038119e-05 -1.0799614e-05 1.8781041)
(3.7645812e-06 -9.9043921e-06 1.8781055)
(2.1470856e-05 -8.632349e-06 1.8781056)
(9.7810636e-06 -5.462713e-06 1.8781047)
(-1.0799614e-05 -2.2038119e-05 1.8781041)
(-1.7891267e-05 -1.7891267e-05 1.8781073)
(7.015478e-06 -1.511786e-05 1.8781086)
(2.8133374e-05 -1.1666942e-05 1.8781084)
(1.29507e-05 -5.427406e-06 1.8781069)
(-9.9043921e-06 3.7645813e-06 1.8781055)
(-1.511786e-05 7.015478e-06 1.8781086)
(9.9889072e-06 9.9889072e-06 1.8781096)
(3.116131e-05 1.287899e-05 1.8781093)
(1.3940754e-05 1.5515081e-05 1.8781076)
(-8.632349e-06 2.1470856e-05 1.8781056)
(-1.1666942e-05 2.8133374e-05 1.8781084)
(1.287899e-05 3.116131e-05 1.8781093)
(3.3659548e-05 3.3659548e-05 1.8781088)
(1.4708094e-05 3.6602029e-05 1.8781069)
(-5.462713e-06 9.7810636e-06 1.8781047)
(-5.427406e-06 1.29507e-05 1.8781069)
(1.5515081e-05 1.3940754e-05 1.8781076)
(3.6602029e-05 1.4708094e-05 1.8781069)
(1.5902408e-05 1.5902408e-05 1.878105)
(-1.1283153e-05 -1.1283153e-05 1.879235)
(-1.9220468e-05 -9.5881186e-06 1.8792395)
(4.4680977e-06 -8.7681669e-06 1.879241)
(2.0791974e-05 -7.5936152e-06 1.8792408)
(9.3520915e-06 -4.6610528e-06 1.8792391)
(-9.5881186e-06 -1.9220468e-05 1.8792395)
(-1.5447989e-05 -1.5447989e-05 1.8792435)
(7.4598527e-06 -1.2901793e-05 1.8792447)
(2.6952645e-05 -9.7149719e-06 1.8792441)
(1.2284654e-05 -3.9440314e-06 1.8792417)
(-8.7681669e-06 4.4680977e-06 1.879241)
(-1.2901793e-05 7.4598527e-06 1.8792447)
(1.0201115e-05 1.0201115e-05 1.8792457)
(2.9749736e-05 1.2875557e-05 1.8792449)
(1.3199385e-05 1.5321049e-05 1.8792421)
(-7.5936152e-06 2.0791974e-05 1.8792408)
(-9.7149719e-06 2.6952645e-05 1.8792441)
(1.2875557e-05 2.9749736e-05 1.8792449)
(3.2072579e-05 3.2072579e-05 1.8792438)
(1.3914982e-05 3.4837615e-05 1.8792408)
(-4.6610529e-06 9.3520915e-06 1.8792391)
(-3.9440314e-06 1.2284654e-05 1.8792417)
(1.5321049e-05 1.3199385e-05 1.8792421)
(3.4837615e-05 1.3914982e-05 1.8792408)
(1.5042743e-05 1.5042743e-05 1.8792377)
(-9.6324786e-06 -9.6324786e-06 1.8802654)
(-1.5979797e-05 -8.1535165e-06 1.8802707)
(5.0003615e-06 -7.4290474e-06 1.8802722)
(1.9551872e-05 -6.3809474e-06 1.8802715)
(8.6802876e-06 -3.7576988e-06 1.8802692)
(-8.1535165e-06 -1.5979797e-05 1.8802707)
(-1.267465e-05 -1.267465e-05 1.8802753)
(7.6592152e-06 -1.0418439e-05 1.8802765)
(2.5058895e-05 -7.5743175e-06 1.8802754)
(1.1303536e-05 -2.414176e-06 1.880272)
(-7.4290474e-06 5.0003615e-06 1.8802722)
(-1.0418439e-05 7.6592152e-06 1.8802765)
(1.0100694e-05 1.0100694e-05 1.8802773)
(2.7556136e-05 1.2493477e-05 1.8802759)
(1.2120382e-05 1.4688031e-05 1.8802722)
(-6.3809474e-06 1.9551872e-05 1.8802715)
(-7.5743175e-06 2.5058895e-05 1.8802754)
(1.2493477e-05 2.7556136e-05 1.8802759)
(2.9646231e-05 2.9646231e-05 1.8802742)
(1.2766572e-05 3.2165638e-05 1.8802702)
(-3.7576988e-06 8.6802877e-06 1.8802692)
(-2.414176e-06 1.1303536e-05 1.880272)
(1.4688031e-05 1.2120382e-05 1.8802722)
(3.2165638e-05 1.2766572e-05 1.8802702)
(1.3799987e-05 1.3799987e-05 1.880266)
(-7.768912e-06 -7.768912e-06 1.8811665)
(-1.2438229e-05 -6.542408e-06 1.8811723)
(5.2984269e-06 -5.9312501e-06 1.8811737)
(1.7741102e-05 -5.0354849e-06 1.8811725)
(7.7718764e-06 -2.7862387e-06 1.8811695)
(-6.542408e-06 -1.2438229e-05 1.8811723)
(-9.681736e-06 -9.681736e-06 1.8811773)
(7.5588116e-06 -7.7710792e-06 1.8811783)
(2.2458619e-05 -5.339961e-06 1.8811767)
(1.0021123e-05 -9.1798912e-07 1.8811724)
(-5.9312501e-06 5.2984269e-06 1.8811737)
(-7.7710792e-06 7.5588116e-06 1.8811783)
(9.6402019e-06 9.6402019e-06 1.881179)
(2.4594192e-05 1.1692005e-05 1.881177)
(1.0719858e-05 1.3581217e-05 1.8811723)
(-5.0354849e-06 1.7741102e-05 1.8811725)
(-5.339961e-06 2.2458619e-05 1.8811767)
(1.1692005e-05 2.4594192e-05 1.881177)
(2.6399635e-05 2.6399635e-05 1.8811746)
(1.1280597e-05 2.8611024e-05 1.8811697)
(-2.7862387e-06 7.7718765e-06 1.8811695)
(-9.1798912e-07 1.0021123e-05 1.8811724)
(1.3581217e-05 1.0719858e-05 1.8811723)
(2.8611024e-05 1.1280597e-05 1.8811697)
(1.2194117e-05 1.2194117e-05 1.8811643)
(-5.7605806e-06 -5.7605806e-06 1.8819161)
(-8.7612234e-06 -4.8163549e-06 1.8819222)
(5.2675774e-06 -4.3333453e-06 1.8819233)
(1.5333608e-05 -3.6121309e-06 1.8819217)
(6.6304521e-06 -1.792618e-06 1.8819179)
(-4.8163549e-06 -8.7612234e-06 1.8819222)
(-6.6203706e-06 -6.6203706e-06 1.8819274)
(7.0739135e-06 -5.1018642e-06 1.8819282)
(1.9144699e-05 -3.1441928e-06 1.8819259)
(8.449965e-06 4.2972263e-07 1.8819208)
(-4.3333453e-06 5.2675774e-06 1.8819233)
(-5.1018642e-06 7.0739135e-06 1.8819282)
(8.7437552e-06 8.7437552e-06 1.8819285)
(2.0865195e-05 1.0403084e-05 1.8819258)
(9.0130624e-06 1.1939333e-05 1.8819202)
(-3.6121309e-06 1.5333608e-05 1.8819217)
(-3.1441928e-06 1.9144699e-05 1.8819259)
(1.0403084e-05 2.0865195e-05 1.8819258)
(2.2340277e-05 2.2340277e-05 1.8819227)
(9.4741307e-06 2.4187984e-05 1.8819168)
(-1.792618e-06 6.6304521e-06 1.8819179)
(4.2972264e-07 8.449965e-06 1.8819208)
(1.1939333e-05 9.0130624e-06 1.8819202)
(2.4187984e-05 9.4741307e-06 1.8819168)
(1.0244868e-05 1.0244868e-05 1.8819105)
(-3.7047404e-06 -3.7047405e-06 1.8824963)
(-5.1886168e-06 -3.0638527e-06 1.8825023)
(4.7597728e-06 -2.7198298e-06 1.8825029)
(1.2263856e-05 -2.1913326e-06 1.8825006)
(5.248385e-06 -8.478277e-07 1.882496)
(-3.0638527e-06 -5.1886168e-06 1.8825023)
(-3.7112509e-06 -3.7112509e-06 1.8825073)
(6.0685529e-06 -2.6198807e-06 1.8825076)
(1.507186e-05 -1.1851563e-06 1.8825046)
(6.5918899e-06 1.4491748e-06 1.8824985)
(-2.7198298e-06 4.7597727e-06 1.8825029)
(-2.6198807e-06 6.0685529e-06 1.8825076)
(7.2858673e-06 7.2858673e-06 1.8825074)
(1.6332912e-05 8.509574e-06 1.8825039)
(7.0046057e-06 9.6518153e-06 1.8824974)
(-2.1913326e-06 1.2263856e-05 1.8825006)
(-1.1851563e-06 1.507186e-05 1.8825046)
(8.509574e-06 1.6332912e-05 1.8825039)
(1.7437808e-05 1.7437808e-05 1.8825)
(7.3533841e-06 1.8872094e-05 1.8824931)
(-8.4782771e-07 5.248385e-06 1.882496)
(1.4491748e-06 6.5918899e-06 1.8824985)
(9.6518153e-06 7.0046057e-06 1.8824974)
(1.8872094e-05 7.3533841e-06 1.8824931)
(7.9607964e-06 7.9607964e-06 1.8824857)
(-1.7704892e-06 -1.7704892e-06 1.8828936)
(-2.1079105e-06 -1.4373658e-06 1.8828986)
(3.5566274e-06 -1.2368699e-06 1.8828986)
(8.3863211e-06 -9.1533077e-07 1.8828953)
(3.5850113e-06 -8.8018587e-08 1.8828897)
(-1.4373658e-06 -2.1079106e-06 1.8828986)
(-1.3074816e-06 -1.3074816e-06 1.8829028)
(4.3396799e-06 -6.6132586e-07 1.8829023)
(1.0109598e-05 2.1221486e-07 1.8828984)
(4.4123235e-06 1.8286879e-06 1.8828912)
(-1.2368699e-06 3.5566274e-06 1.8828986)
(-6.6132585e-07 4.3396799e-06 1.8829023)
(5.0763239e-06 5.0763239e-06 1.8829013)
(1.0876335e-05 5.8294092e-06 1.882897)
(4.66266e-06 6.5411399e-06 1.8828892)
(-9.1533077e-07 8.3863211e-06 1.8828953)
(2.1221487e-07 1.0109598e-05 1.8828984)
(5.8294092e-06 1.0876335e-05 1.882897)
(1.1574414e-05 1.1574414e-05 1.8828921)
(4.8868107e-06 1.2544343e-05 1.8828839)
(-8.8018586e-08 3.5850113e-06 1.8828897)
(1.8286879e-06 4.4123235e-06 1.8828912)
(6.5411399e-06 4.66266e-06 1.8828892)
(1.2544343e-05 4.8868107e-06 1.8828839)
(5.3092793e-06 5.3092793e-06 1.8828752)
(-3.5786381e-07 -3.578638e-07 1.883119)
(-2.4736406e-07 -2.8121426e-07 1.8831219)
(1.4365983e-06 -2.1864115e-07 1.8831209)
(3.3946741e-06 -1.1474016e-07 1.8831166)
(1.4983383e-06 1.3825694e-07 1.8831085)
(-2.8121427e-07 -2.4736407e-07 1.8831219)
(-3.8530082e-08 -3.8530082e-08 1.8831241)
(1.6863094e-06 1.6902418e-07 1.8831228)
(3.9300213e-06 4.5547544e-07 1.8831179)
(1.7513354e-06 9.5960358e-07 1.8831082)
(-2.1864115e-07 1.4365983e-06 1.8831209)
(1.6902419e-07 1.6863095e-06 1.8831228)
(1.9306038e-06 1.9306038e-06 1.883121)
(4.1852535e-06 2.1865495e-06 1.8831156)
(1.8344238e-06 2.436715e-06 1.8831054)
(-1.1474015e-07 3.3946742e-06 1.8831166)
(4.5547544e-07 3.9300213e-06 1.8831179)
(2.1865494e-06 4.1852536e-06 1.8831156)
(4.4361325e-06 4.4361325e-06 1.8831096)
(1.9181125e-06 4.8555643e-06 1.883099)
(1.3825694e-07 1.4983383e-06 1.8831085)
(9.596036e-07 1.7513354e-06 1.8831082)
(2.436715e-06 1.8344238e-06 1.8831054)
(4.8555642e-06 1.9181125e-06 1.883099)
(2.114045e-06 2.114045e-06 1.8830873)
)
;

boundaryField
{
    wall_minX
    {
        type            calculated;
        value           nonuniform List<vector> 
100
(
(0 -1.9877757e-06 1.8669077)
(0 -3.9960906e-06 1.8668966)
(0 -1.1437529e-06 1.8668927)
(0 2.1495935e-07 1.8668924)
(0 2.2952344e-07 1.8668941)
(0 -5.1312745e-06 1.8671187)
(0 -1.0390214e-05 1.8671103)
(0 -2.8255441e-06 1.8671075)
(0 1.3749177e-06 1.8671079)
(0 1.004773e-06 1.8671109)
(0 -7.5813167e-06 1.8675077)
(0 -1.5245289e-05 1.8675009)
(0 -3.579757e-06 1.8674989)
(0 3.649232e-06 1.8675001)
(0 2.2371164e-06 1.8675039)
(0 -9.6401923e-06 1.8680833)
(0 -1.9120732e-05 1.8680776)
(0 -3.6602985e-06 1.8680763)
(0 6.3720786e-06 1.8680779)
(0 3.5812893e-06 1.8680819)
(0 -1.137142e-05 1.86883)
(0 -2.2213134e-05 1.8688253)
(0 -3.3015363e-06 1.8688246)
(0 9.2323186e-06 1.8688263)
(0 4.9185674e-06 1.8688302)
(0 -1.2777346e-05 1.8697291)
(0 -2.4590304e-05 1.8697254)
(0 -2.6624901e-06 1.8697251)
(0 1.2028209e-05 1.8697269)
(0 6.1776085e-06 1.8697305)
(0 -1.3844705e-05 1.8707583)
(0 -2.627017e-05 1.8707556)
(0 -1.8466619e-06 1.8707556)
(0 1.4618139e-05 1.8707573)
(0 7.3077926e-06 1.8707605)
(0 -1.4558296e-05 1.8718919)
(0 -2.7253154e-05 1.8718904)
(0 -9.2409509e-07 1.8718907)
(0 1.6897676e-05 1.8718923)
(0 8.2707076e-06 1.8718948)
(0 -1.4906609e-05 1.8731022)
(0 -2.7538448e-05 1.8731018)
(0 5.4009085e-08 1.8731024)
(0 1.8787637e-05 1.8731037)
(0 9.0367288e-06 1.8731057)
(0 -1.4884586e-05 1.8743593)
(0 -2.7132757e-05 1.8743599)
(0 1.0467074e-06 1.8743608)
(0 2.0227862e-05 1.8743619)
(0 9.5835178e-06 1.8743632)
(0 -1.4495083e-05 1.8756322)
(0 -2.6055141e-05 1.8756339)
(0 2.0183718e-06 1.875635)
(0 2.1173851e-05 1.8756358)
(0 9.8953091e-06 1.8756363)
(0 -1.3749651e-05 1.8768895)
(0 -2.4339823e-05 1.8768923)
(0 2.9355854e-06 1.8768935)
(0 2.1594644e-05 1.876894)
(0 9.9624742e-06 1.8768938)
(0 -1.266896e-05 1.8781004)
(0 -2.2038119e-05 1.8781041)
(0 3.7645813e-06 1.8781055)
(0 2.1470856e-05 1.8781056)
(0 9.7810636e-06 1.8781047)
(0 -1.1283153e-05 1.879235)
(0 -1.9220468e-05 1.8792395)
(0 4.4680977e-06 1.879241)
(0 2.0791974e-05 1.8792408)
(0 9.3520915e-06 1.8792391)
(0 -9.6324786e-06 1.8802654)
(0 -1.5979797e-05 1.8802707)
(0 5.0003615e-06 1.8802722)
(0 1.9551872e-05 1.8802715)
(0 8.6802877e-06 1.8802692)
(0 -7.768912e-06 1.8811665)
(0 -1.2438229e-05 1.8811723)
(0 5.2984269e-06 1.8811737)
(0 1.7741102e-05 1.8811725)
(0 7.7718765e-06 1.8811695)
(0 -5.7605806e-06 1.8819161)
(0 -8.7612234e-06 1.8819222)
(0 5.2675774e-06 1.8819233)
(0 1.5333608e-05 1.8819217)
(0 6.6304521e-06 1.8819179)
(0 -3.7047405e-06 1.8824963)
(0 -5.1886168e-06 1.8825023)
(0 4.7597727e-06 1.8825029)
(0 1.2263856e-05 1.8825006)
(0 5.248385e-06 1.882496)
(0 -1.7704892e-06 1.8828936)
(0 -2.1079106e-06 1.8828986)
(0 3.5566274e-06 1.8828986)
(0 8.3863211e-06 1.8828953)
(0 3.5850113e-06 1.8828897)
(0 -3.578638e-07 1.883119)
(0 -2.4736407e-07 1.8831219)
(0 1.4365983e-06 1.8831209)
(0 3.3946742e-06 1.8831166)
(0 1.4983383e-06 1.8831085)
)
;
    }
    wall_maxX
    {
        type            calculated;
        value           nonuniform List<vector> 
100
(
(0 -1.3362063e-06 1.8668941)
(0 -2.5042142e-06 1.8668869)
(0 -1.7230534e-07 1.8668851)
(0 1.2581637e-06 1.8668866)
(0 6.2037617e-07 1.8668908)
(0 -3.1593315e-06 1.8671109)
(0 -5.9146242e-06 1.8671063)
(0 9.1537342e-08 1.8671054)
(0 4.7293791e-06 1.8671077)
(0 2.3081433e-06 1.8671135)
(0 -4.4214683e-06 1.8675039)
(0 -8.0403811e-06 1.8675006)
(0 1.2291793e-06 1.8675005)
(0 9.4033724e-06 1.8675034)
(0 4.5106763e-06 1.8675101)
(0 -5.3872674e-06 1.8680819)
(0 -9.3959424e-06 1.8680793)
(0 2.9271258e-06 1.8680797)
(0 1.4415059e-05 1.868083)
(0 6.7819282e-06 1.8680897)
(0 -6.1337524e-06 1.8688302)
(0 -1.0215417e-05 1.8688283)
(0 4.9030925e-06 1.868829)
(0 1.9372365e-05 1.8688323)
(0 8.9696566e-06 1.8688386)
(0 -6.6847872e-06 1.8697305)
(0 -1.061709e-05 1.8697291)
(0 6.9573168e-06 1.86973)
(0 2.4016989e-05 1.8697331)
(0 1.0979842e-05 1.8697388)
(0 -7.0474951e-06 1.8707605)
(0 -1.0666099e-05 1.8707597)
(0 8.9512997e-06 1.8707607)
(0 2.8160601e-05 1.8707635)
(0 1.2742963e-05 1.8707683)
(0 -7.2238575e-06 1.8718948)
(0 -1.0402632e-05 1.8718946)
(0 1.0786004e-05 1.8718957)
(0 3.166026e-05 1.871898)
(0 1.4204941e-05 1.8719019)
(0 -7.2155517e-06 1.8731057)
(0 -9.8564583e-06 1.873106)
(0 1.2387806e-05 1.873107)
(0 3.4406729e-05 1.8731089)
(0 1.5323862e-05 1.8731117)
(0 -7.0262942e-06 1.8743632)
(0 -9.0547267e-06 1.874364)
(0 1.3700436e-05 1.874365)
(0 3.6318789e-05 1.8743663)
(0 1.6068712e-05 1.8743679)
(0 -6.6630629e-06 1.8756363)
(0 -8.0262506e-06 1.8756377)
(0 1.4680399e-05 1.8756386)
(0 3.7340346e-05 1.8756393)
(0 1.641886e-05 1.8756397)
(0 -6.1367709e-06 1.8768938)
(0 -6.8040678e-06 1.8768956)
(0 1.5294061e-05 1.8768964)
(0 3.7438583e-05 1.8768965)
(0 1.636374e-05 1.8768957)
(0 -5.462713e-06 1.8781047)
(0 -5.427406e-06 1.8781069)
(0 1.5515081e-05 1.8781076)
(0 3.6602029e-05 1.8781069)
(0 1.5902408e-05 1.878105)
(0 -4.6610528e-06 1.8792391)
(0 -3.9440314e-06 1.8792417)
(0 1.5321049e-05 1.8792421)
(0 3.4837615e-05 1.8792408)
(0 1.5042743e-05 1.8792377)
(0 -3.7576988e-06 1.8802692)
(0 -2.414176e-06 1.880272)
(0 1.4688031e-05 1.8802722)
(0 3.2165638e-05 1.8802702)
(0 1.3799987e-05 1.880266)
(0 -2.7862387e-06 1.8811695)
(0 -9.1798912e-07 1.8811724)
(0 1.3581217e-05 1.8811723)
(0 2.8611024e-05 1.8811697)
(0 1.2194117e-05 1.8811643)
(0 -1.792618e-06 1.8819179)
(0 4.2972263e-07 1.8819208)
(0 1.1939333e-05 1.8819202)
(0 2.4187984e-05 1.8819168)
(0 1.0244868e-05 1.8819105)
(0 -8.478277e-07 1.882496)
(0 1.4491748e-06 1.8824985)
(0 9.6518153e-06 1.8824974)
(0 1.8872094e-05 1.8824931)
(0 7.9607964e-06 1.8824857)
(0 -8.8018587e-08 1.8828897)
(0 1.8286879e-06 1.8828912)
(0 6.5411399e-06 1.8828892)
(0 1.2544343e-05 1.8828839)
(0 5.3092793e-06 1.8828752)
(0 1.3825694e-07 1.8831085)
(0 9.5960358e-07 1.8831082)
(0 2.436715e-06 1.8831054)
(0 4.8555643e-06 1.883099)
(0 2.114045e-06 1.8830873)
)
;
    }
    wall_minY
    {
        type            calculated;
        value           nonuniform List<vector> 
100
(
(-1.9877757e-06 0 1.8669077)
(-5.1312745e-06 0 1.8671187)
(-7.5813167e-06 0 1.8675077)
(-9.6401923e-06 0 1.8680833)
(-1.137142e-05 0 1.86883)
(-1.2777346e-05 0 1.8697291)
(-1.3844705e-05 0 1.8707583)
(-1.4558296e-05 0 1.8718919)
(-1.4906609e-05 0 1.8731022)
(-1.4884586e-05 0 1.8743593)
(-1.4495083e-05 0 1.8756322)
(-1.3749651e-05 0 1.8768895)
(-1.266896e-05 0 1.8781004)
(-1.1283153e-05 0 1.879235)
(-9.6324786e-06 0 1.8802654)
(-7.768912e-06 0 1.8811665)
(-5.7605806e-06 0 1.8819161)
(-3.7047404e-06 0 1.8824963)
(-1.7704892e-06 0 1.8828936)
(-3.5786381e-07 0 1.883119)
(-3.9960906e-06 0 1.8668966)
(-1.0390214e-05 0 1.8671103)
(-1.5245289e-05 0 1.8675009)
(-1.9120732e-05 0 1.8680776)
(-2.2213134e-05 0 1.8688253)
(-2.4590304e-05 0 1.8697254)
(-2.627017e-05 0 1.8707556)
(-2.7253154e-05 0 1.8718904)
(-2.7538448e-05 0 1.8731018)
(-2.7132757e-05 0 1.8743599)
(-2.6055141e-05 0 1.8756339)
(-2.4339823e-05 0 1.8768923)
(-2.2038119e-05 0 1.8781041)
(-1.9220468e-05 0 1.8792395)
(-1.5979797e-05 0 1.8802707)
(-1.2438229e-05 0 1.8811723)
(-8.7612234e-06 0 1.8819222)
(-5.1886168e-06 0 1.8825023)
(-2.1079105e-06 0 1.8828986)
(-2.4736406e-07 0 1.8831219)
(-1.1437529e-06 0 1.8668927)
(-2.8255441e-06 0 1.8671075)
(-3.579757e-06 0 1.8674989)
(-3.6602985e-06 0 1.8680763)
(-3.3015363e-06 0 1.8688246)
(-2.6624901e-06 0 1.8697251)
(-1.8466619e-06 0 1.8707556)
(-9.2409508e-07 0 1.8718907)
(5.4009078e-08 0 1.8731024)
(1.0467074e-06 0 1.8743608)
(2.0183718e-06 0 1.875635)
(2.9355854e-06 0 1.8768935)
(3.7645812e-06 0 1.8781055)
(4.4680977e-06 0 1.879241)
(5.0003615e-06 0 1.8802722)
(5.2984269e-06 0 1.8811737)
(5.2675774e-06 0 1.8819233)
(4.7597728e-06 0 1.8825029)
(3.5566274e-06 0 1.8828986)
(1.4365983e-06 0 1.8831209)
(2.1495935e-07 0 1.8668924)
(1.3749177e-06 0 1.8671079)
(3.649232e-06 0 1.8675001)
(6.3720785e-06 0 1.8680779)
(9.2323185e-06 0 1.8688263)
(1.2028209e-05 0 1.8697269)
(1.4618139e-05 0 1.8707573)
(1.6897676e-05 0 1.8718923)
(1.8787637e-05 0 1.8731037)
(2.0227862e-05 0 1.8743619)
(2.1173851e-05 0 1.8756358)
(2.1594644e-05 0 1.876894)
(2.1470856e-05 0 1.8781056)
(2.0791974e-05 0 1.8792408)
(1.9551872e-05 0 1.8802715)
(1.7741102e-05 0 1.8811725)
(1.5333608e-05 0 1.8819217)
(1.2263856e-05 0 1.8825006)
(8.3863211e-06 0 1.8828953)
(3.3946741e-06 0 1.8831166)
(2.2952344e-07 0 1.8668941)
(1.004773e-06 0 1.8671109)
(2.2371164e-06 0 1.8675039)
(3.5812893e-06 0 1.8680819)
(4.9185673e-06 0 1.8688302)
(6.1776085e-06 0 1.8697305)
(7.3077926e-06 0 1.8707605)
(8.2707076e-06 0 1.8718948)
(9.0367288e-06 0 1.8731057)
(9.5835178e-06 0 1.8743632)
(9.8953091e-06 0 1.8756363)
(9.9624742e-06 0 1.8768938)
(9.7810636e-06 0 1.8781047)
(9.3520915e-06 0 1.8792391)
(8.6802876e-06 0 1.8802692)
(7.7718764e-06 0 1.8811695)
(6.6304521e-06 0 1.8819179)
(5.248385e-06 0 1.882496)
(3.5850113e-06 0 1.8828897)