/*--------------------------------*- C++ -*----------------------------------*\
| =========                 |                                                 |
| \\      /  F ield         | OpenFOAM: The Open Source CFD Toolbox           |
|  \\    /   O peration     | Version:  v2106                                 |
|   \\  /    A nd           | Website:  www.openfoam.com                      |
|    \\/     M anipulation  |                                                 |
\*---------------------------------------------------------------------------*/
FoamFile
{
    version     2.0;
    format      ascii;
    arch        "LSB;label=32;scalar=64";
    class       volVectorField;
    location    "40";
    object      flux;
}
// * * * * * * * * * * * * * * * * * * * * * * * * * * * * * * * * * * * * * //

dimensions      [0 1 -1 1 0 0 0];

internalField   nonuniform List<vector> 
500
(
(-2.98166e-06 -2.98166e-06 1.86692)
(-3.99609e-06 -2.62755e-06 1.86691)
(-1.14375e-06 -2.49409e-06 1.86691)
(2.14959e-07 -2.34063e-06 1.86691)
(3.44285e-07 -2.00431e-06 1.86691)
(-2.62755e-06 -3.99609e-06 1.86691)
(-3.50851e-06 -3.50851e-06 1.8669)
(-8.56833e-07 -3.24623e-06 1.8669)
(7.04737e-07 -2.96478e-06 1.8669)
(6.80608e-07 -2.50421e-06 1.8669)
(-2.49409e-06 -1.14375e-06 1.86691)
(-3.24623e-06 -8.56833e-07 1.8669)
(-6.00023e-07 -6.00023e-07 1.8669)
(9.56978e-07 -3.69821e-07 1.8669)
(8.04855e-07 -1.72305e-07 1.8669)
(-2.34063e-06 2.14959e-07 1.86691)
(-2.96478e-06 7.04737e-07 1.8669)
(-3.69821e-07 9.56978e-07 1.8669)
(1.13245e-06 1.13245e-06 1.8669)
(8.78124e-07 1.25816e-06 1.8669)
(-2.00431e-06 3.44285e-07 1.86691)
(-2.50421e-06 6.80608e-07 1.8669)
(-1.72305e-07 8.04855e-07 1.8669)
(1.25816e-06 8.78124e-07 1.8669)
(9.30564e-07 9.30564e-07 1.86691)
(-7.69691e-06 -7.69691e-06 1.86712)
(-1.03902e-05 -6.735e-06 1.86711)
(-2.82554e-06 -6.34942e-06 1.86711)
(1.37492e-06 -5.87486e-06 1.86711)
(1.50716e-06 -4.739e-06 1.86711)
(-6.735e-06 -1.03902e-05 1.86711)
(-9.04272e-06 -9.04272e-06 1.8671)
(-1.9654e-06 -8.27771e-06 1.8671)
(2.98534e-06 -7.41938e-06 1.8671)
(2.64302e-06 -5.91462e-06 1.86711)
(-6.34942e-06 -2.82554e-06 1.86711)
(-8.27771e-06 -1.9654e-06 1.8671)
(-1.2022e-06 -1.2022e-06 1.8671)
(3.73801e-06 -5.0832e-07 1.8671)
(3.01192e-06 9.15373e-08 1.86711)
(-5.87486e-06 1.37492e-06 1.86711)
(-7.41938e-06 2.98534e-06 1.8671)
(-5.0832e-07 3.73801e-06 1.8671)
(4.27908e-06 4.27908e-06 1.8671)
(3.24288e-06 4.72938e-06 1.86711)
(-4.739e-06 1.50716e-06 1.86711)
(-5.91462e-06 2.64302e-06 1.86711)
(9.15373e-08 3.01192e-06 1.86711)
(4.72938e-06 3.24288e-06 1.86711)
(3.46221e-06 3.46221e-06 1.86711)
(-1.1372e-05 -1.1372e-05 1.86751)
(-1.52453e-05 -9.92755e-06 1.8675)
(-3.57976e-06 -9.31548e-06 1.8675)
(3.64923e-06 -8.53187e-06 1.8675)
(3.35567e-06 -6.6322e-06 1.8675)
(-9.92755e-06 -1.52453e-05 1.8675)
(-1.31888e-05 -1.31888e-05 1.8675)
(-2.18407e-06 -1.19615e-05 1.86749)
(6.33251e-06 -1.05461e-05 1.8675)
(5.25534e-06 -8.04038e-06 1.8675)
(-9.31548e-06 -3.57976e-06 1.8675)
(-1.19615e-05 -2.18407e-06 1.86749)
(-9.37017e-07 -9.37017e-07 1.86749)
(7.57031e-06 2.15694e-07 1.86749)
(5.86135e-06 1.22918e-06 1.8675)
(-8.53187e-06 3.64923e-06 1.8675)
(-1.05461e-05 6.33251e-06 1.8675)
(2.15694e-07 7.57031e-06 1.86749)
(8.49871e-06 8.49871e-06 1.8675)
(6.26882e-06 9.40337e-06 1.8675)
(-6.6322e-06 3.35567e-06 1.8675)
(-8.04038e-06 5.25534e-06 1.8675)
(1.22918e-06 5.86135e-06 1.8675)
(9.40337e-06 6.26882e-06 1.8675)
(6.76601e-06 6.76601e-06 1.86751)
(-1.44603e-05 -1.44603e-05 1.86808)
(-1.91207e-05 -1.25903e-05 1.86808)
(-3.6603e-06 -1.17731e-05 1.86808)
(6.37208e-06 -1.07002e-05 1.86808)
(5.37193e-06 -8.0809e-06 1.86808)
(-1.25903e-05 -1.91207e-05 1.86808)
(-1.64335e-05 -1.64335e-05 1.86807)
(-1.77025e-06 -1.47833e-05 1.86807)
(1.00643e-05 -1.28453e-05 1.86807)
(7.99126e-06 -9.39594e-06 1.86808)
(-1.17731e-05 -3.6603e-06 1.86808)
(-1.47833e-05 -1.77025e-06 1.86807)
(-7.20863e-08 -7.20863e-08 1.86807)
(1.17594e-05 1.51642e-06 1.86807)
(8.82131e-06 2.92713e-06 1.86808)
(-1.07002e-05 6.37208e-06 1.86808)
(-1.28453e-05 1.00643e-05 1.86807)
(1.51642e-06 1.17594e-05 1.86807)
(1.30635e-05 1.30635e-05 1.86808)
(9.40197e-06 1.44151e-05 1.86808)
(-8.0809e-06 5.37193e-06 1.86808)
(-9.39594e-06 7.99126e-06 1.86808)
(2.92713e-06 8.82131e-06 1.86808)
(1.44151e-05 9.40197e-06 1.86808)
(1.01729e-05 1.01729e-05 1.86809)
(-1.70571e-05 -1.70571e-05 1.86883)
(-2.22131e-05 -1.48114e-05 1.86883)
(-3.30154e-06 -1.38112e-05 1.86882)
(9.23232e-06 -1.24758e-05 1.86883)
(7.37785e-06 -9.20063e-06 1.86883)
(-1.48114e-05 -2.22131e-05 1.86883)
(-1.89672e-05 -1.89672e-05 1.86882)
(-9.6584e-07 -1.69376e-05 1.86882)
(1.38429e-05 -1.45249e-05 1.86882)
(1.0653e-05 -1.02154e-05 1.86883)
(-1.38112e-05 -3.30154e-06 1.86882)
(-1.69376e-05 -9.6584e-07 1.86882)
(1.14079e-06 1.14079e-06 1.86882)
(1.59545e-05 3.12768e-06 1.86882)
(1.16873e-05 4.90309e-06 1.86883)
(-1.24758e-05 9.23232e-06 1.86883)
(-1.45249e-05 1.38429e-05 1.86882)
(3.12768e-06 1.59545e-05 1.86882)
(1.76052e-05 1.76052e-05 1.86883)
(1.24284e-05 1.93724e-05 1.86883)
(-9.20063e-06 7.37785e-06 1.86883)
(-1.02154e-05 1.0653e-05 1.86883)
(4.90309e-06 1.16873e-05 1.86883)
(1.93724e-05 1.24284e-05 1.86883)
(1.34545e-05 1.34545e-05 1.86884)
(-1.9166e-05 -1.9166e-05 1.86973)
(-2.45903e-05 -1.66007e-05 1.86973)
(-2.66249e-06 -1.54426e-05 1.86973)
(1.20282e-05 -1.38776e-05 1.86973)
(9.26641e-06 -1.00272e-05 1.86973)
(-1.66007e-05 -2.45903e-05 1.86973)
(-2.08669e-05 -2.08669e-05 1.86972)
(6.06927e-08 -1.85089e-05 1.86972)
(1.74436e-05 -1.56808e-05 1.86972)
(1.31168e-05 -1.06171e-05 1.86973)
(-1.54426e-05 -2.66249e-06 1.86973)
(-1.85089e-05 6.06927e-08 1.86972)
(2.5236e-06 2.5236e-06 1.86972)
(1.992e-05 4.8604e-06 1.86973)
(1.43301e-05 6.95732e-06 1.86973)
(-1.38776e-05 1.20282e-05 1.86973)
(-1.56808e-05 1.74436e-05 1.86972)
(4.8604e-06 1.992e-05 1.86973)
(2.18773e-05 2.18773e-05 1.86973)
(1.52137e-05 2.4017e-05 1.86973)
(-1.00272e-05 9.26641e-06 1.86973)
(-1.06171e-05 1.31168e-05 1.86973)
(6.95732e-06 1.43301e-05 1.86973)
(2.4017e-05 1.52137e-05 1.86973)
(1.64698e-05 1.64698e-05 1.86974)
(-2.07671e-05 -2.07671e-05 1.87076)
(-2.62702e-05 -1.79455e-05 1.87076)
(-1.84666e-06 -1.66581e-05 1.87076)
(1.46181e-05 -1.49021e-05 1.87076)
(1.09617e-05 -1.05712e-05 1.87076)
(-1.79455e-05 -2.62702e-05 1.87076)
(-2.21612e-05 -2.21612e-05 1.87075)
(1.19677e-06 -1.95332e-05 1.87075)
(2.0705e-05 -1.63594e-05 1.87076)
(1.52925e-05 -1.06661e-05 1.87076)
(-1.66581e-05 -1.84666e-06 1.87076)
(-1.95332e-05 1.19677e-06 1.87075)
(3.9552e-06 3.9552e-06 1.87075)
(2.34853e-05 6.58444e-06 1.87076)
(1.66549e-05 8.9513e-06 1.87076)
(-1.49021e-05 1.46181e-05 1.87076)
(-1.63594e-05 2.0705e-05 1.87076)
(6.58444e-06 2.34853e-05 1.87076)
(2.57011e-05 2.57011e-05 1.87076)
(1.76594e-05 2.81606e-05 1.87076)
(-1.05712e-05 1.09617e-05 1.87076)
(-1.06661e-05 1.52925e-05 1.87076)
(8.9513e-06 1.66549e-05 1.87076)
(2.81606e-05 1.76594e-05 1.87076)
(1.91144e-05 1.91144e-05 1.87077)
(-2.18374e-05 -2.18374e-05 1.87189)
(-2.72532e-05 -1.88291e-05 1.87189)
(-9.24095e-07 -1.74442e-05 1.87189)
(1.68977e-05 -1.55404e-05 1.87189)
(1.24061e-05 -1.08358e-05 1.87189)
(-1.88291e-05 -2.72532e-05 1.87189)
(-2.28599e-05 -2.28599e-05 1.87189)
(2.36461e-06 -2.00266e-05 1.87189)
(2.35061e-05 -1.65853e-05 1.87189)
(1.71107e-05 -1.04026e-05 1.87189)
(-1.74442e-05 -9.24095e-07 1.87189)
(-2.00266e-05 2.36461e-06 1.87189)
(5.35057e-06 5.35057e-06 1.87189)
(2.65217e-05 8.20751e-06 1.87189)
(1.85887e-05 1.0786e-05 1.8719)
(-1.55404e-05 1.68977e-05 1.87189)
(-1.65853e-05 2.35061e-05 1.87189)
(8.20751e-06 2.65217e-05 1.87189)
(2.89415e-05 2.89415e-05 1.87189)
(1.96892e-05 3.16603e-05 1.8719)
(-1.08358e-05 1.24061e-05 1.87189)
(-1.04026e-05 1.71107e-05 1.87189)
(1.0786e-05 1.85887e-05 1.8719)
(3.16603e-05 1.96892e-05 1.8719)
(2.13074e-05 2.13074e-05 1.8719)
(-2.23599e-05 -2.23599e-05 1.8731)
(-2.75384e-05 -1.92389e-05 1.8731)
(5.40091e-08 -1.77906e-05 1.8731)
(1.87876e-05 -1.57859e-05 1.8731)
(1.35551e-05 -1.08233e-05 1.87311)
(-1.92389e-05 -2.75384e-05 1.8731)
(-2.29691e-05 -2.29691e-05 1.8731)
(3.50698e-06 -2.00003e-05 1.8731)
(2.57549e-05 -1.63762e-05 1.8731)
(1.85177e-05 -9.85646e-06 1.87311)
(-1.77906e-05 5.40091e-08 1.8731)
(-2.00003e-05 3.50698e-06 1.8731)
(6.64693e-06 6.64693e-06 1.8731)
(2.89315e-05 9.66119e-06 1.8731)
(2.00748e-05 1.23878e-05 1.87311)
(-1.57859e-05 1.87876e-05 1.8731)
(-1.63762e-05 2.57549e-05 1.8731)
(9.66119e-06 2.89315e-05 1.8731)
(3.14958e-05 3.14958e-05 1.87311)
(2.12443e-05 3.44067e-05 1.87311)
(-1.08233e-05 1.35551e-05 1.87311)
(-9.85646e-06 1.85177e-05 1.87311)
(1.23878e-05 2.00748e-05 1.87311)
(3.44067e-05 2.12443e-05 1.87311)
(2.29858e-05 2.29858e-05 1.87311)
(-2.23269e-05 -2.23269e-05 1.87436)
(-2.71328e-05 -1.917e-05 1.87436)
(1.04671e-06 -1.7694e-05 1.87436)
(2.02279e-05 -1.56378e-05 1.87436)
(1.43753e-05 -1.05394e-05 1.87436)
(-1.917e-05 -2.71328e-05 1.87436)
(-2.24998e-05 -2.24998e-05 1.87436)
(4.57892e-06 -1.94687e-05 1.87436)
(2.73824e-05 -1.5751e-05 1.87436)
(1.94736e-05 -9.05473e-06 1.87436)
(-1.7694e-05 1.04671e-06 1.87436)
(-1.94687e-05 4.57892e-06 1.87436)
(7.79553e-06 7.79553e-06 1.87436)
(3.06418e-05 1.08929e-05 1.87436)
(2.10716e-05 1.37004e-05 1.87437)
(-1.56378e-05 2.02279e-05 1.87436)
(-1.5751e-05 2.73824e-05 1.87436)
(1.08929e-05 3.06418e-05 1.87436)
(3.32873e-05 3.32873e-05 1.87436)
(2.22812e-05 3.63188e-05 1.87437)
(-1.05394e-05 1.43753e-05 1.87436)
(-9.05473e-06 1.94736e-05 1.87436)
(1.37004e-05 2.10716e-05 1.87437)
(3.63188e-05 2.22812e-05 1.87437)
(2.41031e-05 2.41031e-05 1.87437)
(-2.17426e-05 -2.17426e-05 1.87563)
(-2.60551e-05 -1.86276e-05 1.87563)
(2.01837e-06 -1.71602e-05 1.87563)
(2.11739e-05 -1.51031e-05 1.87564)
(1.4843e-05 -9.99459e-06 1.87564)
(-1.86276e-05 -2.60551e-05 1.87563)
(-2.14727e-05 -2.14727e-05 1.87564)
(5.54285e-06 -1.84538e-05 1.87564)
(2.83395e-05 -1.47342e-05 1.87564)
(1.99515e-05 -8.02625e-06 1.87564)
(-1.71602e-05 2.01837e-06 1.87563)
(-1.84538e-05 5.54285e-06 1.87564)
(8.75689e-06 8.75689e-06 1.87564)
(3.16014e-05 1.1861e-05 1.87564)
(2.15509e-05 1.46804e-05 1.87564)
(-1.51031e-05 2.11739e-05 1.87564)
(-1.47342e-05 2.83395e-05 1.87564)
(1.1861e-05 3.16014e-05 1.87564)
(3.4263e-05 3.4263e-05 1.87564)
(2.27709e-05 3.73403e-05 1.87564)
(-9.99459e-06 1.4843e-05 1.87564)
(-8.02625e-06 1.99515e-05 1.87564)
(1.46804e-05 2.15509e-05 1.87564)
(3.73403e-05 2.27709e-05 1.87564)
(2.46283e-05 2.46283e-05 1.87564)
(-2.06245e-05 -2.06245e-05 1.87689)
(-2.43398e-05 -1.76281e-05 1.87689)
(2.93559e-06 -1.62054e-05 1.87689)
(2.15946e-05 -1.41981e-05 1.87689)
(1.49437e-05 -9.20516e-06 1.87689)
(-1.76281e-05 -2.43398e-05 1.87689)
(-1.99208e-05 -1.99208e-05 1.87689)
(6.36552e-06 -1.69885e-05 1.8769)
(2.85949e-05 -1.33585e-05 1.8769)
(1.99367e-05 -6.80407e-06 1.8769)
(-1.62054e-05 2.93559e-06 1.87689)
(-1.69885e-05 6.36552e-06 1.8769)
(9.49783e-06 9.49783e-06 1.8769)
(3.17791e-05 1.25323e-05 1.8769)
(2.14982e-05 1.52941e-05 1.8769)
(-1.41981e-05 2.15946e-05 1.87689)
(-1.33585e-05 2.85949e-05 1.8769)
(1.25323e-05 3.17791e-05 1.8769)
(3.43911e-05 3.43911e-05 1.8769)
(2.26984e-05 3.74386e-05 1.8769)
(-9.20516e-06 1.49437e-05 1.87689)
(-6.80407e-06 1.99367e-05 1.8769)
(1.52941e-05 2.14982e-05 1.8769)
(3.74386e-05 2.26984e-05 1.8769)
(2.45456e-05 2.45456e-05 1.8769)
(-1.90034e-05 -1.90034e-05 1.8781)
(-2.20381e-05 -1.61994e-05 1.8781)
(3.76458e-06 -1.48566e-05 1.87811)
(2.14709e-05 -1.29485e-05 1.87811)
(1.46716e-05 -8.19407e-06 1.8781)
(-1.61994e-05 -2.20381e-05 1.8781)
(-1.78913e-05 -1.78913e-05 1.87811)
(7.01548e-06 -1.51179e-05 1.87811)
(2.81334e-05 -1.16669e-05 1.87811)
(1.9426e-05 -5.42741e-06 1.87811)
(-1.48566e-05 3.76458e-06 1.87811)
(-1.51179e-05 7.01548e-06 1.87811)
(9.98891e-06 9.98891e-06 1.87811)
(3.11613e-05 1.2879e-05 1.87811)
(2.09111e-05 1.55151e-05 1.87811)
(-1.29485e-05 2.14709e-05 1.87811)
(-1.16669e-05 2.81334e-05 1.87811)
(1.2879e-05 3.11613e-05 1.87811)
(3.36595e-05 3.36595e-05 1.87811)
(2.20621e-05 3.6602e-05 1.87811)
(-8.19407e-06 1.46716e-05 1.8781)
(-5.42741e-06 1.9426e-05 1.87811)
(1.55151e-05 2.09111e-05 1.87811)
(3.6602e-05 2.20621e-05 1.87811)
(2.38536e-05 2.38536e-05 1.8781)
(-1.69247e-05 -1.69247e-05 1.87923)
(-1.92205e-05 -1.43822e-05 1.87924)
(4.4681e-06 -1.31523e-05 1.87924)
(2.0792e-05 -1.13904e-05 1.87924)
(1.40281e-05 -6.99158e-06 1.87924)
(-1.43822e-05 -1.92205e-05 1.87924)
(-1.5448e-05 -1.5448e-05 1.87924)
(7.45985e-06 -1.29018e-05 1.87924)
(2.69526e-05 -9.71497e-06 1.87924)
(1.8427e-05 -3.94403e-06 1.87924)
(-1.31523e-05 4.4681e-06 1.87924)
(-1.29018e-05 7.45985e-06 1.87924)
(1.02011e-05 1.02011e-05 1.87925)
(2.97497e-05 1.28756e-05 1.87924)
(1.97991e-05 1.5321e-05 1.87924)
(-1.13904e-05 2.0792e-05 1.87924)
(-9.71497e-06 2.69526e-05 1.87924)
(1.28756e-05 2.97497e-05 1.87924)
(3.20726e-05 3.20726e-05 1.87924)
(2.08725e-05 3.48376e-05 1.87924)
(-6.99158e-06 1.40281e-05 1.87924)
(-3.94403e-06 1.8427e-05 1.87924)
(1.5321e-05 1.97991e-05 1.87924)
(3.48376e-05 2.08725e-05 1.87924)
(2.25641e-05 2.25641e-05 1.87924)
(-1.44487e-05 -1.44487e-05 1.88027)
(-1.59798e-05 -1.22303e-05 1.88027)
(5.00036e-06 -1.11436e-05 1.88027)
(1.95519e-05 -9.57142e-06 1.88027)
(1.30204e-05 -5.63655e-06 1.88027)
(-1.22303e-05 -1.59798e-05 1.88027)
(-1.26747e-05 -1.26747e-05 1.88028)
(7.65922e-06 -1.04184e-05 1.88028)
(2.50589e-05 -7.57432e-06 1.88028)
(1.69553e-05 -2.41418e-06 1.88027)
(-1.11436e-05 5.00036e-06 1.88027)
(-1.04184e-05 7.65922e-06 1.88028)
(1.01007e-05 1.01007e-05 1.88028)
(2.75561e-05 1.24935e-05 1.88028)
(1.81806e-05 1.4688e-05 1.88027)
(-9.57142e-06 1.95519e-05 1.88027)
(-7.57432e-06 2.50589e-05 1.88028)
(1.24935e-05 2.75561e-05 1.88028)
(2.96462e-05 2.96462e-05 1.88027)
(1.91499e-05 3.21656e-05 1.88027)
(-5.63655e-06 1.30204e-05 1.88027)
(-2.41418e-06 1.69553e-05 1.88027)
(1.4688e-05 1.81806e-05 1.88027)
(3.21656e-05 1.91499e-05 1.88027)
(2.07e-05 2.07e-05 1.88027)
(-1.16534e-05 -1.16534e-05 1.88117)
(-1.24382e-05 -9.81361e-06 1.88117)
(5.29843e-06 -8.89688e-06 1.88117)
(1.77411e-05 -7.55323e-06 1.88117)
(1.16578e-05 -4.17936e-06 1.88117)
(-9.81361e-06 -1.24382e-05 1.88117)
(-9.68174e-06 -9.68174e-06 1.88118)
(7.55881e-06 -7.77108e-06 1.88118)
(2.24586e-05 -5.33996e-06 1.88118)
(1.50317e-05 -9.17989e-07 1.88117)
(-8.89688e-06 5.29843e-06 1.88117)
(-7.77108e-06 7.55881e-06 1.88118)
(9.6402e-06 9.6402e-06 1.88118)
(2.45942e-05 1.1692e-05 1.88118)
(1.60798e-05 1.35812e-05 1.88117)
(-7.55323e-06 1.77411e-05 1.88117)
(-5.33996e-06 2.24586e-05 1.88118)
(1.1692e-05 2.45942e-05 1.88118)
(2.63996e-05 2.63996e-05 1.88117)
(1.69209e-05 2.8611e-05 1.88117)
(-4.17936e-06 1.16578e-05 1.88117)
(-9.17989e-07 1.50317e-05 1.88117)
(1.35812e-05 1.60798e-05 1.88117)
(2.8611e-05 1.69209e-05 1.88117)
(1.82912e-05 1.82912e-05 1.88116)
(-8.64087e-06 -8.64087e-06 1.88192)
(-8.76122e-06 -7.22453e-06 1.88192)
(5.26758e-06 -6.50002e-06 1.88192)
(1.53336e-05 -5.4182e-06 1.88192)
(9.94568e-06 -2.68893e-06 1.88192)
(-7.22453e-06 -8.76122e-06 1.88192)
(-6.62037e-06 -6.62037e-06 1.88193)
(7.07391e-06 -5.10186e-06 1.88193)
(1.91447e-05 -3.14419e-06 1.88193)
(1.26749e-05 4.29723e-07 1.88192)
(-6.50002e-06 5.26758e-06 1.88192)
(-5.10186e-06 7.07391e-06 1.88193)
(8.74376e-06 8.74376e-06 1.88193)
(2.08652e-05 1.04031e-05 1.88193)
(1.35196e-05 1.19393e-05 1.88192)
(-5.4182e-06 1.53336e-05 1.88192)
(-3.14419e-06 1.91447e-05 1.88193)
(1.04031e-05 2.08652e-05 1.88193)
(2.23403e-05 2.23403e-05 1.88192)
(1.42112e-05 2.4188e-05 1.88192)
(-2.68893e-06 9.94568e-06 1.88192)
(4.29723e-07 1.26749e-05 1.88192)
(1.19393e-05 1.35196e-05 1.88192)
(2.4188e-05 1.42112e-05 1.88192)
(1.53673e-05 1.53673e-05 1.88191)
(-5.55711e-06 -5.55711e-06 1.8825)
(-5.18862e-06 -4.59578e-06 1.8825)
(4.75977e-06 -4.07974e-06 1.8825)
(1.22639e-05 -3.287e-06 1.8825)
(7.87258e-06 -1.27174e-06 1.8825)
(-4.59578e-06 -5.18862e-06 1.8825)
(-3.71125e-06 -3.71125e-06 1.88251)
(6.06855e-06 -2.61988e-06 1.88251)
(1.50719e-05 -1.18516e-06 1.8825)
(9.88783e-06 1.44917e-06 1.8825)
(-4.07974e-06 4.75977e-06 1.8825)
(-2.61988e-06 6.06855e-06 1.88251)
(7.28587e-06 7.28587e-06 1.88251)
(1.63329e-05 8.50957e-06 1.8825)
(1.05069e-05 9.65182e-06 1.8825)
(-3.287e-06 1.22639e-05 1.8825)
(-1.18516e-06 1.50719e-05 1.8825)
(8.50957e-06 1.63329e-05 1.8825)
(1.74378e-05 1.74378e-05 1.8825)
(1.10301e-05 1.88721e-05 1.88249)
(-1.27174e-06 7.87258e-06 1.8825)
(1.44917e-06 9.88783e-06 1.8825)
(9.65182e-06 1.05069e-05 1.8825)
(1.88721e-05 1.10301e-05 1.88249)
(1.19412e-05 1.19412e-05 1.88249)
(-2.65573e-06 -2.65573e-06 1.88289)
(-2.10791e-06 -2.15605e-06 1.8829)
(3.55663e-06 -1.8553e-06 1.8829)
(8.38632e-06 -1.373e-06 1.8829)
(5.37752e-06 -1.32028e-07 1.88289)
(-2.15605e-06 -2.10791e-06 1.8829)
(-1.30748e-06 -1.30748e-06 1.8829)
(4.33968e-06 -6.61326e-07 1.8829)
(1.01096e-05 2.12215e-07 1.8829)
(6.61849e-06 1.82869e-06 1.88289)
(-1.8553e-06 3.55663e-06 1.8829)
(-6.61326e-07 4.33968e-06 1.8829)
(5.07632e-06 5.07632e-06 1.8829)
(1.08763e-05 5.82941e-06 1.8829)
(6.99399e-06 6.54114e-06 1.88289)
(-1.373e-06 8.38632e-06 1.8829)
(2.12215e-07 1.01096e-05 1.8829)
(5.82941e-06 1.08763e-05 1.8829)
(1.15744e-05 1.15744e-05 1.88289)
(7.33022e-06 1.25443e-05 1.88288)
(-1.32028e-07 5.37752e-06 1.88289)
(1.82869e-06 6.61849e-06 1.88289)
(6.54114e-06 6.99399e-06 1.88289)
(1.25443e-05 7.33022e-06 1.88288)
(7.96392e-06 7.96392e-06 1.88288)
(-5.36796e-07 -5.36796e-07 1.8831)
(-2.47364e-07 -4.21821e-07 1.8831)
(1.4366e-06 -3.27962e-07 1.8831)
(3.39467e-06 -1.7211e-07 1.8831)
(2.24751e-06 2.07385e-07 1.88309)
(-4.21821e-07 -2.47364e-07 1.8831)
(-3.85301e-08 -3.85301e-08 1.88311)
(1.68631e-06 1.69024e-07 1.88311)
(3.93002e-06 4.55475e-07 1.8831)
(2.627e-06 9.59604e-07 1.88309)
(-3.27962e-07 1.4366e-06 1.8831)
(1.69024e-07 1.68631e-06 1.88311)
(1.9306e-06 1.9306e-06 1.8831)
(4.18525e-06 2.18655e-06 1.8831)
(2.75164e-06 2.43671e-06 1.88309)
(-1.7211e-07 3.39467e-06 1.8831)
(4.55475e-07 3.93002e-06 1.8831)
(2.18655e-06 4.18525e-06 1.8831)
(4.43613e-06 4.43613e-06 1.88309)
(2.87717e-06 4.85556e-06 1.88308)
(2.07385e-07 2.24751e-06 1.88309)
(9.59604e-07 2.627e-06 1.88309)
(2.43671e-06 2.75164e-06 1.88309)
(4.85556e-06 2.87717e-06 1.88308)
(3.17107e-06 3.17107e-06 1.88307)
)
;

boundaryField
{
    wall_minX
    {
        type            calculated;
        value           nonuniform List<vector> 
100
(
(0 -2.98166e-06 1.86692)
(0 -3.99609e-06 1.86691)
(0 -1.14375e-06 1.86691)
(0 2.14959e-07 1.86691)
(0 3.44285e-07 1.86691)
(0 -7.69691e-06 1.86712)
(0 -1.03902e-05 1.86711)
(0 -2.82554e-06 1.86711)
(0 1.37492e-06 1.86711)
(0 1.50716e-06 1.86711)
(0 -1.1372e-05 1.86751)
(0 -1.52453e-05 1.8675)
(0 -3.57976e-06 1.8675)
(0 3.64923e-06 1.8675)
(0 3.35567e-06 1.8675)
(0 -1.44603e-05 1.86808)
(0 -1.91207e-05 1.86808)
(0 -3.6603e-06 1.86808)
(0 6.37208e-06 1.86808)
(0 5.37193e-06 1.86808)
(0 -1.70571e-05 1.86883)
(0 -2.22131e-05 1.86883)
(0 -3.30154e-06 1.86882)
(0 9.23232e-06 1.86883)
(0 7.37785e-06 1.86883)
(0 -1.9166e-05 1.86973)
(0 -2.45903e-05 1.86973)
(0 -2.66249e-06 1.86973)
(0 1.20282e-05 1.86973)
(0 9.26641e-06 1.86973)
(0 -2.07671e-05 1.87076)
(0 -2.62702e-05 1.87076)
(0 -1.84666e-06 1.87076)
(0 1.46181e-05 1.87076)
(0 1.09617e-05 1.87076)
(0 -2.18374e-05 1.87189)
(0 -2.72532e-05 1.87189)
(0 -9.24095e-07 1.87189)
(0 1.68977e-05 1.87189)
(0 1.24061e-05 1.87189)
(0 -2.23599e-05 1.8731)
(0 -2.75384e-05 1.8731)
(0 5.40091e-08 1.8731)
(0 1.87876e-05 1.8731)
(0 1.35551e-05 1.87311)
(0 -2.23269e-05 1.87436)
(0 -2.71328e-05 1.87436)
(0 1.04671e-06 1.87436)
(0 2.02279e-05 1.87436)
(0 1.43753e-05 1.87436)
(0 -2.17426e-05 1.87563)
(0 -2.60551e-05 1.87563)
(0 2.01837e-06 1.87563)
(0 2.11739e-05 1.87564)
(0 1.4843e-05 1.87564)
(0 -2.06245e-05 1.87689)
(0 -2.43398e-05 1.87689)
(0 2.93559e-06 1.87689)
(0 2.15946e-05 1.87689)
(0 1.49437e-05 1.87689)
(0 -1.90034e-05 1.8781)
(0 -2.20381e-05 1.8781)
(0 3.76458e-06 1.87811)
(0 2.14709e-05 1.87811)
(0 1.46716e-05 1.8781)
(0 -1.69247e-05 1.87923)
(0 -1.92205e-05 1.87924)
(0 4.4681e-06 1.87924)
(0 2.0792e-05 1.87924)
(0 1.40281e-05 1.87924)
(0 -1.44487e-05 1.88027)
(0 -1.59798e-05 1.88027)
(0 5.00036e-06 1.88027)
(0 1.95519e-05 1.88027)
(0 1.30204e-05 1.88027)
(0 -1.16534e-05 1.88117)
(0 -1.24382e-05 1.88117)
(0 5.29843e-06 1.88117)
(0 1.77411e-05 1.88117)
(0 1.16578e-05 1.88117)
(0 -8.64087e-06 1.88192)
(0 -8.76122e-06 1.88192)
(0 5.26758e-06 1.88192)
(0 1.53336e-05 1.88192)
(0 9.94568e-06 1.88192)
(0 -5.55711e-06 1.8825)
(0 -5.18862e-06 1.8825)
(0 4.75977e-06 1.8825)
(0 1.22639e-05 1.8825)
(0 7.87258e-06 1.8825)
(0 -2.65573e-06 1.88289)
(0 -2.10791e-06 1.8829)
(0 3.55663e-06 1.8829)
(0 8.38632e-06 1.8829)
(0 5.37752e-06 1.88289)
(0 -5.36796e-07 1.8831)
(0 -2.47364e-07 1.8831)
(0 1.4366e-06 1.8831)
(0 3.39467e-06 1.8831)
(0 2.24751e-06 1.88309)
)
;
    }
    wall_maxX
    {
        type            calculated;
        value           nonuniform List<vector> 
100
(
(0 -2.00431e-06 1.86691)
(0 -2.50421e-06 1.8669)
(0 -1.72305e-07 1.8669)
(0 1.25816e-06 1.8669)
(0 9.30564e-07 1.86691)
(0 -4.739e-06 1.86711)
(0 -5.91462e-06 1.86711)
(0 9.15373e-08 1.86711)
(0 4.72938e-06 1.86711)
(0 3.46221e-06 1.86711)
(0 -6.6322e-06 1.8675)
(0 -8.04038e-06 1.8675)
(0 1.22918e-06 1.8675)
(0 9.40337e-06 1.8675)
(0 6.76601e-06 1.86751)
(0 -8.0809e-06 1.86808)
(0 -9.39594e-06 1.86808)
(0 2.92713e-06 1.86808)
(0 1.44151e-05 1.86808)
(0 1.01729e-05 1.86809)
(0 -9.20063e-06 1.86883)
(0 -1.02154e-05 1.86883)
(0 4.90309e-06 1.86883)
(0 1.93724e-05 1.86883)
(0 1.34545e-05 1.86884)
(0 -1.00272e-05 1.86973)
(0 -1.06171e-05 1.86973)
(0 6.95732e-06 1.86973)
(0 2.4017e-05 1.86973)
(0 1.64698e-05 1.86974)
(0 -1.05712e-05 1.87076)
(0 -1.06661e-05 1.87076)
(0 8.9513e-06 1.87076)
(0 2.81606e-05 1.87076)
(0 1.91144e-05 1.87077)
(0 -1.08358e-05 1.87189)
(0 -1.04026e-05 1.87189)
(0 1.0786e-05 1.8719)
(0 3.16603e-05 1.8719)
(0 2.13074e-05 1.8719)
(0 -1.08233e-05 1.87311)
(0 -9.85646e-06 1.87311)
(0 1.23878e-05 1.87311)
(0 3.44067e-05 1.87311)
(0 2.29858e-05 1.87311)
(0 -1.05394e-05 1.87436)
(0 -9.05473e-06 1.87436)
(0 1.37004e-05 1.87437)
(0 3.63188e-05 1.87437)
(0 2.41031e-05 1.87437)
(0 -9.99459e-06 1.87564)
(0 -8.02625e-06 1.87564)
(0 1.46804e-05 1.87564)
(0 3.73403e-05 1.87564)
(0 2.46283e-05 1.87564)
(0 -9.20516e-06 1.87689)
(0 -6.80407e-06 1.8769)
(0 1.52941e-05 1.8769)
(0 3.74386e-05 1.8769)
(0 2.45456e-05 1.8769)
(0 -8.19407e-06 1.8781)
(0 -5.42741e-06 1.87811)
(0 1.55151e-05 1.87811)
(0 3.6602e-05 1.87811)
(0 2.38536e-05 1.8781)
(0 -6.99158e-06 1.87924)
(0 -3.94403e-06 1.87924)
(0 1.5321e-05 1.87924)
(0 3.48376e-05 1.87924)
(0 2.25641e-05 1.87924)
(0 -5.63655e-06 1.88027)
(0 -2.41418e-06 1.88027)
(0 1.4688e-05 1.88027)
(0 3.21656e-05 1.88027)
(0 2.07e-05 1.88027)
(0 -4.17936e-06 1.88117)
(0 -9.17989e-07 1.88117)
(0 1.35812e-05 1.88117)
(0 2.8611e-05 1.88117)
(0 1.82912e-05 1.88116)
(0 -2.68893e-06 1.88192)
(0 4.29723e-07 1.88192)
(0 1.19393e-05 1.88192)
(0 2.4188e-05 1.88192)
(0 1.53673e-05 1.88191)
(0 -1.27174e-06 1.8825)
(0 1.44917e-06 1.8825)
(0 9.65182e-06 1.8825)
(0 1.88721e-05 1.88249)
(0 1.19412e-05 1.88249)
(0 -1.32028e-07 1.88289)
(0 1.82869e-06 1.88289)
(0 6.54114e-06 1.88289)
(0 1.25443e-05 1.88288)
(0 7.96392e-06 1.88288)
(0 2.07385e-07 1.88309)
(0 9.59604e-07 1.88309)
(0 2.43671e-06 1.88309)
(0 4.85556e-06 1.88308)
(0 3.17107e-06 1.88307)
)
;
    }
    wall_minY
    {
        type            calculated;
        value           nonuniform List<vector> 
100
(
(-2.98166e-06 0 1.86692)
(-7.69691e-06 0 1.86712)
(-1.1372e-05 0 1.86751)
(-1.44603e-05 0 1.86808)
(-1.70571e-05 0 1.86883)
(-1.9166e-05 0 1.86973)
(-2.07671e-05 0 1.87076)
(-2.18374e-05 0 1.87189)
(-2.23599e-05 0 1.8731)
(-2.23269e-05 0 1.87436)
(-2.17426e-05 0 1.87563)
(-2.06245e-05 0 1.87689)
(-1.90034e-05 0 1.8781)
(-1.69247e-05 0 1.87923)
(-1.44487e-05 0 1.88027)
(-1.16534e-05 0 1.88117)
(-8.64087e-06 0 1.88192)
(-5.55711e-06 0 1.8825)
(-2.65573e-06 0 1.88289)
(-5.36796e-07 0 1.8831)
(-3.99609e-06 0 1.86691)
(-1.03902e-05 0 1.86711)
(-1.52453e-05 0 1.8675)
(-1.91207e-05 0 1.86808)
(-2.22131e-05 0 1.86883)
(-2.45903e-05 0 1.86973)
(-2.62702e-05 0 1.87076)
(-2.72532e-05 0 1.87189)
(-2.75384e-05 0 1.8731)
(-2.71328e-05 0 1.87436)
(-2.60551e-05 0 1.87563)
(-2.43398e-05 0 1.87689)
(-2.20381e-05 0 1.8781)
(-1.92205e-05 0 1.87924)
(-1.59798e-05 0 1.88027)
(-1.24382e-05 0 1.88117)
(-8.76122e-06 0 1.88192)
(-5.18862e-06 0 1.8825)
(-2.10791e-06 0 1.8829)
(-2.47364e-07 0 1.8831)
(-1.14375e-06 0 1.86691)
(-2.82554e-06 0 1.86711)
(-3.57976e-06 0 1.8675)
(-3.6603e-06 0 1.86808)
(-3.30154e-06 0 1.86882)
(-2.66249e-06 0 1.86973)
(-1.84666e-06 0 1.87076)
(-9.24095e-07 0 1.87189)
(5.40091e-08 0 1.8731)
(1.04671e-06 0 1.87436)
(2.01837e-06 0 1.87563)
(2.93559e-06 0 1.87689)
(3.76458e-06 0 1.87811)
(4.4681e-06 0 1.87924)
(5.00036e-06 0 1.88027)
(5.29843e-06 0 1.88117)
(5.26758e-06 0 1.88192)
(4.75977e-06 0 1.8825)
(3.55663e-06 0 1.8829)
(1.4366e-06 0 1.8831)
(2.14959e-07 0 1.86691)
(1.37492e-06 0 1.86711)
(3.64923e-06 0 1.8675)
(6.37208e-06 0 1.86808)
(9.23232e-06 0 1.86883)
(1.20282e-05 0 1.86973)
(1.46181e-05 0 1.87076)
(1.68977e-05 0 1.87189)
(1.87876e-05 0 1.8731)
(2.02279e-05 0 1.87436)
(2.11739e-05 0 1.87564)
(2.15946e-05 0 1.87689)
(2.14709e-05 0 1.87811)
(2.0792e-05 0 1.87924)
(1.95519e-05 0 1.88027)
(1.77411e-05 0 1.88117)
(1.53336e-05 0 1.88192)
(1.22639e-05 0 1.8825)
(8.38632e-06 0 1.8829)
(3.39467e-06 0 1.8831)
(3.44285e-07 0 1.86691)
(1.50716e-06 0 1.86711)
(3.35567e-06 0 1.8675)
(5.37193e-06 0 1.86808)
(7.37785e-06 0 1.86883)
(9.26641e-06 0 1.86973)
(1.09617e-05 0 1.87076)
(1.24061e-05 0 1.87189)
(1.35551e-05 0 1.87311)
(1.43753e-05 0 1.87436)
(1.4843e-05 0 1.87564)
(1.49437e-05 0 1.87689)
(1.46716e-05 0 1.8781)
(1.40281e-05 0 1.87924)
(1.30204e-05 0 1.88027)
(1.16578e-05 0 1.88117)
(9.94568e-06 0 1.88192)
(7.87258e-06 0 1.8825)
(5.37752e-06 0 1.88289)
(2.24751e-06 0 1.88309)
)
;
    }
    wall_maxY
    {
        type            calculated;
        value           nonuniform List<vector> 
100
(
(-2.00431e-06 0 1.86691)
(-4.739e-06 0 1.86711)
(-6.6322e-06 0 1.8675)
(-8.0809e-06 0 1.86808)
(-9.20063e-06 0 1.86883)
(-1.00272e-05 0 1.86973)
(-1.05712e-05 0 1.87076)
(-1.08358e-05 0 1.87189)
(-1.08233e-05 0 1.87311)
(-1.05394e-05 0 1.87436)
(-9.99459e-06 0 1.87564)
(-9.20516e-06 0 1.87689)
(-8.19407e-06 0 1.8781)
(-6.99158e-06 0 1.87924)
(-5.63655e-06 0 1.88027)
(-4.17936e-06 0 1.88117)
(-2.68893e-06 0 1.88192)
(-1.27174e-06 0 1.8825)
(-1.32028e-07 0 1.88289)
(2.07385e-07 0 1.88309)
(-2.50421e-06 0 1.8669)
(-5.91462e-06 0 1.86711)
(-8.04038e-06 0 1.8675)
(-9.39594e-06 0 1.86808)
(-1.02154e-05 0 1.86883)
(-1.06171e-05 0 1.86973)
(-1.06661e-05 0 1.87076)
(-1.04026e-05 0 1.87189)
(-9.85646e-06 0 1.87311)
(-9.05473e-06 0 1.87436)
(-8.02625e-06 0 1.87564)
(-6.80407e-06 0 1.8769)
(-5.42741e-06 0 1.87811)
(-3.94403e-06 0 1.87924)
(-2.41418e-06 0 1.88027)
(-9.17989e-07 0 1.88117)
(4.29723e-07 0 1.88192)
(1.44917e-06 0 1.8825)
(1.82869e-06 0 1.88289)
(9.59604e-07 0 1.88309)
(-1.72305e-07 0 1.8669)
(9.15373e-08 0 1.86711)
(1.22918e-06 0 1.8675)
(2.92713e-06 0 1.86808)
(4.90309e-06 0 1.86883)
(6.95732e-06 0 1.86973)
(8.9513e-06 0 1.87076)
(1.0786e-05 0 1.8719)
(1.23878e-05 0 1.87311)
(1.37004e-05 0 1.87437)
(1.46804e-05 0 1.87564)
(1.52941e-05 0 1.8769)
(1.55151e-05 0 1.87811)
(1.5321e-05 0 1.87924)
(1.4688e-05 0 1.88027)
(1.35812e-05 0 1.88117)
(1.19393e-05 0 1.88192)
(9.65182e-06 0 1.8825)
(6.54114e-06 0 1.88289)
(2.43671e-06 0 1.88309)
(1.25816e-06 0 1.8669)
(4.72938e-06 0 1.86711)
(9.40337e-06 0 1.8675)
(1.44151e-05 0 1.86808)
(1.93724e-05 0 1.86883)
(2.4017e-05 0 1.86973)
(2.81606e-05 0 1.87076)
(3.16603e-05 0 1.8719)
(3.44067e-05 0 1.87311)
(3.63188e-05 0 1.87437)
(3.73403e-05 0 1.87564)
(3.74386e-05 0 1.8769)
(3.6602e-05 0 1.87811)
(3.48376e-05 0 1.87924)
(3.21656e-05 0 1.88027)
(2.8611e-05 0 1.88117)
(2.4188e-05 0 1.88192)
(1.88721e-05 0 1.88249)
(1.25443e-05 0 1.88288)
(4.85556e-06 0 1.88308)
(9.30564e-07 0 1.86691)
(3.46221e-06 0 1.86711)
(6.76601e-06 0 1.86751)
(1.01729e-05 0 1.86809)
(1.34545e-05 0 1.86884)
(1.64698e-05 0 1.86974)
(1.91144e-05 0 1.87077)
(2.13074e-05 0 1.8719)
(2.29858e-05 0 1.87311)
(2.41031e-05 0 1.87437)
(2.46283e-05 0 1.87564)
(2.45456e-05 0 1.8769)
(2.38536e-05 0 1.8781)
(2.25641e-05 0 1.87924)
(2.07e-05 0 1.88027)
(1.82912e-05 0 1.88116)
(1.53673e-05 0 1.88191)
(1.19412e-05 0 1.88249)
(7.96392e-06 0 1.88288)
(3.17107e-06 0 1.88307)
)
;
    }
    inlet_minZ
    {
        type            calculated;
        value           nonuniform List<vector> 
25
(
(-2.98166e-06 -2.98166e-06 1.86688)
(-2.62755e-06 -3.99609e-06 1.86686)
(-2.49409e-06 -1.14375e-06 1.86686)
(-2.34063e-06 2.14959e-07 1.86686)
(-2.00431e-06 3.44285e-07 1.86686)
(-3.99609e-06 -2.62755e-06 1.86686)
(-3.50851e-06 -3.50851e-06 1.86685)
(-3.24623e-06 -8.56833e-07 1.86685)
(-2.96478e-06 7.04737e-07 1.86685)
(-2.50421e-06 6.80608e-07 1.86685)
(-1.14375e-06 -2.49409e-06 1.86686)
(-8.56833e-07 -3.24623e-06 1.86685)
(-6.00023e-07 -6.00023e-07 1.86685)
(-3.69821e-07 9.56978e-07 1.86685)
(-1.72305e-07 8.04855e-07 1.86685)
(2.14959e-07 -2.34063e-06 1.86686)
(7.04737e-07 -2.96478e-06 1.86685)
(9.56978e-07 -3.69821e-07 1.86685)
(1.13245e-06 1.13245e-06 1.86685)
(1.25816e-06 8.78124e-07 1.86685)
(3.44285e-07 -2.00431e-06 1.86686)
(6.80608e-07 -2.50421e-06 1.86685)
(8.04855e-07 -1.72305e-07 1.86685)
(8.78124e-07 1.25816e-06 1.86685)
(9.30564e-07 9.30564e-07 1.86686)
)
;
    }
    outlet_maxZ
    {
        type            calculated;
        value           nonuniform List<vector> 
25
(
(-5.36796e-07 -5.36796e-07 1.88316)
(-4.21821e-07 -2.47364e-07 1.88316)
(-3.27962e-07 1.4366e-06 1.88316)
(-1.7211e-07 3.39467e-06 1.88315)
(2.07385e-07 2.24751e-06 1.88314)
(-2.47364e-07 -4.21821e-07 1.88316)
(-3.85301e-08 -3.85301e-08 1.88316)
(1.69024e-07 1.68631e-06 1.88316)
(4.55475e-07 3.93002e-06 1.88315)
(9.59604e-07 2.627e-06 1.88314)
(1.4366e-06 -3.27962e-07 1.88316)
(1.68631e-06 1.69024e-07 1.88316)
(1.9306e-06 1.9306e-06 1.88316)
(2.18655e-06 4.18525e-06 1.88315)
(2.43671e-06 2.75164e-06 1.88314)
(3.39467e-06 -1.7211e-07 1.88315)
(3.93002e-06 4.55475e-07 1.88315)
(4.18525e-06 2.18655e-06 1.88315)
(4.43613e-06 4.43613e-06 1.88314)