/*--------------------------------*- C++ -*----------------------------------*\
| =========                 |                                                 |
| \\      /  F ield         | OpenFOAM: The Open Source CFD Toolbox           |
|  \\    /   O peration     | Version:  v2106                                 |
|   \\  /    A nd           | Website:  www.openfoam.com                      |
|    \\/     M anipulation  |                                                 |
\*---------------------------------------------------------------------------*/
FoamFile
{
    version     2.0;
    format      ascii;
    arch        "LSB;label=32;scalar=64";
    class       volScalarField;
    location    "40";
    object      laplacianT;
}
// * * * * * * * * * * * * * * * * * * * * * * * * * * * * * * * * * * * * * //

dimensions      [0 -2 0 1 0 0 0];

internalField   nonuniform List<scalar> 
500
(
1.71217
1.97421
1.95026
1.95017
1.94988
1.97421
2.18626
2.16582
2.16565
2.12773
1.95026
2.16582
2.1454
2.1451
2.10865
1.95017
2.16565
2.1451
2.14468
2.10811
1.94988
2.12773
2.10865
2.10811
2.0715
5.22609
5.81419
5.75187
5.75113
5.69813
5.81419
6.27422
6.22182
6.22088
6.01845
5.75187
6.22182
6.16966
6.16833
5.9766
5.75113
6.22088
6.16833
6.16667
5.97467
5.69813
6.01845
5.9766
5.97467
5.77049
8.80601
9.64209
9.54901
9.5474
9.37338
9.64209
10.2937
10.2156
10.2136
9.78943
9.54901
10.2156
10.1378
10.1351
9.73107
9.5474
10.2136
10.1351
10.1319
9.72748
9.37338
9.78943
9.73107
9.72748
9.27593
12.1516
13.2164
13.0952
13.0925
12.8071
13.2164
14.0455
13.9436
13.9403
13.3093
13.0952
13.9436
13.8423
13.838
13.2361
13.0925
13.9403
13.838
13.833
13.2306
12.8071
13.3093
13.2361
13.2306
12.5506
15.1973
16.465
16.3184
16.3145
15.9248
16.465
17.4511
17.328
17.3231
16.5009
16.3184
17.328
17.2053
17.1994
16.4144
16.3145
17.3231
17.1994
17.1925
16.4071
15.9248
16.5009
16.4144
16.4071
15.5157
17.8691
19.3083
19.14
19.1349
18.6503
19.3083
20.4272
20.2857
20.2794
19.2862
19.14
20.2857
20.1447
20.1371
19.1884
19.1349
20.2794
20.1371
20.1285
19.1793
18.6503
19.2862
19.1884
19.1793
18.0985
20.1011
21.6764
21.4904
21.4841
20.9166
21.6764
22.9005
22.744
22.7364
21.5965
21.4904
22.744
22.588
22.579
21.4899
21.4841
22.7364
22.579
22.5688
21.4791
20.9166
21.5965
21.4899
21.4791
20.2355
21.8382
23.5109
23.3117
23.3043
22.6679
23.5109
24.81
24.6423
24.6335
23.375
23.3117
24.6423
24.4752
24.4649
23.2621
23.3043
24.6335
24.4649
24.4533
23.2499
22.6679
23.375
23.2621
23.2499
21.8742
23.0377
24.7664
24.559
24.5508
23.861
24.7664
26.1086
25.9338
25.9241
24.5779
24.559
25.9338
25.7597
25.7484
24.4616
24.5508
25.9241
25.7484
25.7356
24.4483
23.861
24.5779
24.4616
24.4483
22.9741
23.67
25.4122
25.2016
25.1927
24.4666
25.4122
26.7643
26.5868
26.5764
25.1757
25.2016
26.5868
26.4099
26.3978
25.0587
25.1927
26.5764
26.3978
26.3843
25.0446
24.4666
25.1757
25.0587
25.0446
23.5084
23.7194
25.4323
25.2237
25.2144
24.4698
25.4323
26.7611
26.5852
26.5742
25.1536
25.2237
26.5852
26.4099
26.3973
25.0388
25.2144
26.5742
26.3973
26.3832
25.0243
24.4698
25.1536
25.0388
25.0243
23.4639
23.1848
24.8261
24.6247
24.6152
23.8705
24.8261
26.0989
25.9289
25.9178
24.5121
24.6247
25.9289
25.7596
25.7468
24.4024
24.6152
25.9178
25.7468
25.7326
24.3878
23.8705
24.5121
24.4024
24.3878
22.8416
22.0793
23.6087
23.4194
23.4099
22.6834
23.6087
24.7941
24.6343
24.6232
23.2671
23.4194
24.6343
24.475
24.4624
23.1651
23.4099
24.6232
24.4624
24.4484
23.1508
22.6834
23.2671
23.1651
23.1508
21.6569
20.4302
21.8099
21.6374
21.6281
20.9378
21.8099
22.8787
22.733
22.7223
21.4492
21.6374
22.733
22.5878
22.5757
21.3576
21.6281
22.7223
22.5757
22.5623
21.3439
20.9378
21.4492
21.3576
21.3439
19.939
18.2779
19.474
19.3226
19.3139
18.6767
19.474
20.4
20.272
20.262
19.1032
19.3226
20.272
20.1444
20.1331
19.0241
19.3139
20.262
20.1331
20.1206
19.0115
18.6767
19.1032
19.0241
19.0115
17.7303
15.6754
16.6585
16.5319
16.524
15.9557
16.6585
17.4189
17.3118
17.3027
16.2869
16.5319
17.3118
17.205
17.1949
16.2224
16.524
17.3027
17.1949
17.1837
16.2111
15.9557
16.2869
16.2224
16.2111
15.0852
12.6866
13.4326
13.334
13.3272
12.8418
13.4326
14.0086
13.9252
13.9174
13.0696
13.334
13.9252
13.842
13.8334
13.0214
13.3272
13.9174
13.8334
13.8239
13.0119
12.8418
13.0696
13.0214
13.0119
12.069
9.38496
9.87543
9.80757
9.80219
9.41177
9.87543
10.2531
10.1956
10.1894
9.53063
9.80757
10.1956
10.1382
10.1314
9.50007
9.80219
10.1894
10.1314
10.1241
9.49272
9.41177
9.53063
9.50007
9.49272
8.75617
5.85119
6.07425
6.03907
6.03551
5.7499
6.07425
6.2445
6.21463
6.21058
5.75724
6.03907
6.21463
6.18479
6.18034
5.74536
6.03551
6.21058
6.18034
6.17553
5.74065
5.7499
5.75724
5.74536
5.74065
5.22878
2.17132
2.18863
2.18082
2.17945
2.00612
2.18863
2.20124
2.19456
2.193
1.97427
2.18082
2.19456
2.18783
2.18613
1.97294
2.17945
2.193
2.18613
2.1843
1.97117
2.00612
1.97427
1.97294
1.97117
1.71114
)
;

boundaryField
{
    wall_minX
    {
        type            extrapolatedCalculated;
        value           nonuniform List<scalar> 
100
(
1.71217
1.97421
1.95026
1.95017
1.94988
5.22609
5.81419
5.75187
5.75113
5.69813
8.80601
9.64209
9.54901
9.5474
9.37338
12.1516
13.2164
13.0952
13.0925
12.8071
15.1973
16.465
16.3184
16.3145
15.9248
17.8691
19.3083
19.14
19.1349
18.6503
20.1011
21.6764
21.4904
21.4841
20.9166
21.8382
23.5109
23.3117
23.3043
22.6679
23.0377
24.7664
24.559
24.5508
23.861
23.67
25.4122
25.2016
25.1927
24.4666
23.7194
25.4323
25.2237
25.2144
24.4698
23.1848
24.8261
24.6247
24.6152
23.8705
22.0793
23.6087
23.4194
23.4099
22.6834
20.4302
21.8099
21.6374
21.6281
20.9378
18.2779
19.474
19.3226
19.3139
18.6767
15.6754
16.6585
16.5319
16.524
15.9557
12.6866
13.4326
13.334
13.3272
12.8418
9.38496
9.87543
9.80757
9.80219
9.41177
5.85119
6.07425
6.03907
6.03551
5.7499
2.17132
2.18863
2.18082
2.17945
2.00612
)
;
    }
    wall_maxX
    {
        type            extrapolatedCalculated;
        value           nonuniform List<scalar> 
100
(
1.94988
2.12773
2.10865
2.10811
2.0715
5.69813
6.01845
5.9766
5.97467
5.77049
9.37338
9.78943
9.73107
9.72748
9.27593
12.8071
13.3093
13.2361
13.2306
12.5506
15.9248
16.5009
16.4144
16.4071
15.5157
18.6503
19.2862
19.1884
19.1793
18.0985
20.9166
21.5965
21.4899
21.4791
20.2355
22.6679
23.375
23.2621
23.2499
21.8742
23.861
24.5779
24.4616
24.4483
22.9741
24.4666
25.1757
25.0587
25.0446
23.5084
24.4698
25.1536
25.0388
25.0243
23.4639
23.8705
24.5121
24.4024
24.3878
22.8416
22.6834
23.2671
23.1651
23.1508
21.6569
20.9378
21.4492
21.3576
21.3439
19.939
18.6767
19.1032
19.0241
19.0115
17.7303
15.9557
16.2869
16.2224
16.2111
15.0852
12.8418
13.0696
13.0214
13.0119
12.069
9.41177
9.53063
9.50007
9.49272
8.75617
5.7499
5.75724
5.74536
5.74065
5.22878
2.00612
1.97427
1.97294
1.97117
1.71114
)
;
    }
    wall_minY
    {
        type            extrapolatedCalculated;
        value           nonuniform List<scalar> 
100
(
1.71217
5.22609
8.80601
12.1516
15.1973
17.8691
20.1011
21.8382
23.0377
23.67
23.7194
23.1848
22.0793
20.4302
18.2779
15.6754
12.6866
9.38496
5.85119
2.17132
1.97421
5.81419
9.64209
13.2164
16.465
19.3083
21.6764
23.5109
24.7664
25.4122
25.4323
24.8261
23.6087
21.8099
19.474
16.6585
13.4326
9.87543
6.07425
2.18863
1.95026
5.75187
9.54901
13.0952
16.3184
19.14
21.4904
23.3117
24.559
25.2016
25.2237
24.6247
23.4194
21.6374
19.3226
16.5319
13.334
9.80757
6.03907
2.18082
1.95017
5.75113
9.5474
13.0925
16.3145
19.1349
21.4841
23.3043
24.5508
25.1927
25.2144
24.6152
23.4099
21.6281
19.3139
16.524
13.3272
9.80219
6.03551
2.17945
1.94988
5.69813
9.37338
12.8071
15.9248
18.6503
20.9166
22.6679
23.861
24.4666
24.4698
23.8705
22.6834
20.9378
18.6767
15.9557
12.8418
9.41177
5.7499
2.00612
)
;
    }
    wall_maxY
    {
        type            extrapolatedCalculated;
        value           nonuniform List<scalar> 
100
(
1.94988
5.69813
9.37338
12.8071
15.9248
18.6503
20.9166
22.6679
23.861
24.4666
24.4698
23.8705
22.6834
20.9378
18.6767
15.9557
12.8418
9.41177
5.7499
2.00612
2.12773
6.01845
9.78943
13.3093
16.5009
19.2862
21.5965
23.375
24.5779
25.1757
25.1536
24.5121
23.2671
21.4492
19.1032
16.2869
13.0696
9.53063
5.75724
1.97427
2.10865
5.9766
9.73107
13.2361
16.4144
19.1884
21.4899
23.2621
24.4616
25.0587
25.0388
24.4024
23.1651
21.3576
19.0241
16.2224
13.0214
9.50007
5.74536
1.97294
2.10811
5.97467
9.72748
13.2306
16.4071
19.1793
21.4791
23.2499
24.4483
25.0446
25.0243
24.3878
23.1508
21.3439
19.0115
16.2111
13.0119
9.49272
5.74065
1.97117
2.0715
5.77049
9.27593
12.5506
15.5157
18.0985
20.2355
21.8742
22.9741
23.5084
23.4639
22.8416
21.6569
19.939
17.7303
15.0852
12.069
8.75617
5.22878
1.71114
)
;
    }
    inlet_minZ
    {
        type            extrapolatedCalculated;
        value           nonuniform List<scalar> 
25
(
1.71217
1.97421
1.95026
1.95017
1.94988
1.97421
2.18626
2.16582
2.16565
2.12773
1.95026
2.16582
2.1454
2.1451
2.10865
1.95017
2.16565
2.1451
2.14468
2.10811
1.94988
2.12773
2.10865
2.10811
2.0715
)
;
    }
    outlet_maxZ
    {
        type            extrapolatedCalculated;
        value           nonuniform List<scalar> 
25
(
2.17132
2.18863
2.18082
2.17945
2.00612
2.18863
2.20124
2.19456
2.193
1.97427
2.18082
2.19456
2.18783
2.18613
1.97294
2.17945
2.193
2.18613
2.1843
1.97117
2.00612
1.97427
1.97294
1.97117
1.71114
)
;
    }
}


// ************************************************************************* //
