/*--------------------------------*- C++ -*----------------------------------*\
| =========                 |                                                 |
| \\      /  F ield         | OpenFOAM: The Open Source CFD Toolbox           |
|  \\    /   O peration     | Version:  v2106                                 |
|   \\  /    A nd           | Website:  www.openfoam.com                      |
|    \\/     M anipulation  |                                                 |
\*---------------------------------------------------------------------------*/
FoamFile
{
    version     2.0;
    format      ascii;
    arch        "LSB;label=32;scalar=64";
    class       volVectorField;
    location    "30";
    object      flux;
}
// * * * * * * * * * * * * * * * * * * * * * * * * * * * * * * * * * * * * * //

dimensions      [0 1 -1 1 0 0 0];

internalField   nonuniform List<vector> 
4000
(
(-3.7134688e-07 -3.7134684e-07 1.8375991)
(7.0852556e-07 7.69572e-07 1.837598)
(5.492107e-07 7.9105273e-08 1.8376012)
(-9.2814908e-07 1.1977572e-09 1.8375993)
(-5.1580488e-07 3.5579135e-08 1.8375978)
(-8.1799003e-08 6.7433472e-08 1.8375974)
(1.3111002e-07 9.8961629e-08 1.8375976)
(1.7553445e-07 1.1910052e-07 1.837598)
(1.2434206e-07 8.1625505e-08 1.8375983)
(4.339913e-08 -8.9141455e-09 1.8375986)
(7.6957198e-07 7.0852556e-07 1.837598)
(1.1589777e-06 1.1589777e-06 1.8376)
(-2.1916352e-07 3.676262e-07 1.8376012)
(-9.7167521e-07 3.0998436e-07 1.8375991)
(-4.4956919e-07 3.7203286e-07 1.8375977)
(-1.841651e-08 4.3420939e-07 1.8375974)
(1.8277706e-07 5.1037868e-07 1.8375977)
(1.5819833e-07 5.8710022e-07 1.8375982)
(-3.6726091e-09 5.7006124e-07 1.8375983)
(-4.7140521e-08 3.7712716e-07 1.8375982)
(7.9105273e-08 5.492107e-07 1.8376012)
(3.676262e-07 -2.1916352e-07 1.8376012)
(-2.9978262e-07 -2.9978262e-07 1.837602)
(-9.2374241e-07 -2.5414305e-07 1.8375999)
(-3.9157986e-07 -2.0374335e-07 1.8375987)
(5.6546781e-08 -1.4694132e-07 1.8375985)
(2.8400085e-07 -6.2716672e-08 1.837599)
(2.3521701e-07 5.6855935e-08 1.8375997)
(-8.5630973e-08 1.6628221e-07 1.8375998)
(-1.4953494e-07 1.5960783e-07 1.8375994)
(1.1977572e-09 -9.2814909e-07 1.8375993)
(3.0998437e-07 -9.716752e-07 1.8375991)
(-2.5414304e-07 -9.2374242e-07 1.8375999)
(-8.7563596e-07 -8.7563594e-07 1.8375979)
(-3.4236745e-07 -8.3207081e-07 1.8375968)
(1.2261018e-07 -7.834337e-07 1.8375967)
(3.8657432e-07 -7.1722064e-07 1.8375973)
(3.8719721e-07 -6.1957097e-07 1.8375983)
(9.9079269e-08 -4.8711171e-07 1.8375988)
(-5.3814913e-08 -3.4742692e-07 1.8375986)
(3.5579161e-08 -5.158049e-07 1.8375978)
(3.7203287e-07 -4.4956918e-07 1.8375977)
(-2.0374339e-07 -3.9157988e-07 1.8375987)
(-8.3207081e-07 -3.4236747e-07 1.8375968)
(-2.993776e-07 -2.9937761e-07 1.8375957)
(1.7139698e-07 -2.5738547e-07 1.8375957)
(4.4786358e-07 -2.1219195e-07 1.8375965)
(4.6532593e-07 -1.6031189e-07 1.8375975)
(1.8651306e-07 -1.017269e-07 1.8375982)
(-9.8501415e-09 -4.7235237e-08 1.8375983)
(6.7433489e-08 -8.1798995e-08 1.8375974)
(4.3420937e-07 -1.8416527e-08 1.8375974)
(-1.4694133e-07 5.6546807e-08 1.8375985)
(-7.834337e-07 1.2261019e-07 1.8375967)
(-2.5738547e-07 1.7139694e-07 1.8375957)
(2.0979584e-07 2.0979582e-07 1.8375958)
(4.8364792e-07 2.4216555e-07 1.8375966)
(4.9766225e-07 2.6810249e-07 1.8375978)
(2.1215595e-07 2.8622514e-07 1.8375985)
(6.7673298e-10 2.9496954e-07 1.8375986)
(9.8961629e-08 1.3111003e-07 1.8375976)
(5.1037868e-07 1.8277706e-07 1.8375977)
(-6.2716681e-08 2.8400086e-07 1.837599)
(-7.1722064e-07 3.8657433e-07 1.8375973)
(-2.1219197e-07 4.478636e-07 1.8375965)
(2.4216556e-07 4.836479e-07 1.8375966)
(5.0617025e-07 5.0617024e-07 1.8375975)
(5.0938553e-07 5.1576719e-07 1.8375987)
(2.133801e-07 5.1131759e-07 1.8375994)
(-1.1057648e-09 4.9691328e-07 1.8375995)
(1.1910051e-07 1.7553444e-07 1.837598)
(5.8710021e-07 1.5819832e-07 1.8375982)
(5.6855944e-08 2.3521699e-07 1.8375997)
(-6.1957096e-07 3.8719722e-07 1.8375983)
(-1.6031189e-07 4.6532594e-07 1.8375975)
(2.6810248e-07 4.9766227e-07 1.8375978)
(5.157672e-07 5.0938553e-07 1.8375987)
(5.028096e-07 5.028096e-07 1.8375998)
(1.9330204e-07 4.7621821e-07 1.8376006)
(-1.3727535e-08 4.3746838e-07 1.8376006)
(8.1625496e-08 1.2434206e-07 1.8375983)
(5.7006121e-07 -3.6725917e-09 1.8375983)
(1.6628222e-07 -8.563099e-08 1.8375998)
(-4.8711169e-07 9.9079269e-08 1.8375988)
(-1.017269e-07 1.8651306e-07 1.8375982)
(2.8622516e-07 2.1215592e-07 1.8375985)
(5.1131757e-07 2.1338012e-07 1.8375994)
(4.7621821e-07 1.9330204e-07 1.8376006)
(1.4803888e-07 1.4803891e-07 1.8376012)
(-3.985561e-08 9.048453e-08 1.8376011)
(-8.9141628e-09 4.3399138e-08 1.8375986)
(3.7712715e-07 -4.7140538e-08 1.8375982)
(1.5960782e-07 -1.4953494e-07 1.8375994)
(-3.474269e-07 -5.381493e-08 1.8375986)
(-4.7235263e-08 -9.8501502e-09 1.8375983)
(2.9496955e-07 6.7673298e-10 1.8375986)
(4.9691332e-07 -1.1057648e-09 1.8375995)
(4.3746839e-07 -1.3727535e-08 1.8376006)
(9.0484521e-08 -3.9855593e-08 1.8376011)
(-7.1281921e-08 -7.1281904e-08 1.8376009)
(-7.2665682e-07 -7.266568e-07 1.8378304)
(1.427334e-06 1.314813e-06 1.8378298)
(7.7731265e-07 -6.4169945e-08 1.8378312)
(-2.426723e-06 -2.2137257e-07 1.8378297)
(-1.3668118e-06 -1.4109702e-07 1.8378285)
(-1.8773753e-07 -5.3480059e-08 1.8378282)
(4.2382244e-07 4.355313e-08 1.8378284)
(5.3495873e-07 9.6500334e-08 1.8378288)
(4.6925779e-07 -7.6997384e-08 1.8378291)
(2.2909203e-07 -3.4180968e-07 1.8378296)
(1.314813e-06 1.427334e-06 1.8378298)
(2.0898208e-06 2.0898208e-06 1.8378306)
(-7.5887295e-07 4.6190133e-07 1.837831)
(-2.50365e-06 3.3592317e-07 1.8378293)
(-1.1989193e-06 4.8621247e-07 1.8378283)
(-3.0873654e-09 6.631523e-07 1.837828)
(5.7380282e-07 8.9590596e-07 1.8378284)
(4.1440822e-07 1.1197267e-06 1.837829)
(3.094777e-08 9.9086801e-07 1.8378288)
(-3.5720264e-08 4.3962714e-07 1.8378289)
(-6.4169945e-08 7.7731265e-07 1.8378312)
(4.6190132e-07 -7.5887293e-07 1.837831)
(-9.7658501e-07 -9.7658501e-07 1.8378312)
(-2.4024118e-06 -8.8580089e-07 1.8378295)
(-1.0395827e-06 -7.5168984e-07 1.8378285)
(2.2195599e-07 -5.8306309e-07 1.8378284)
(8.803968e-07 -3.2811536e-07 1.837829)
(6.2992076e-07 2.9750369e-08 1.8378298)
(-2.1084173e-07 3.2320839e-07 1.8378297)
(-3.2214884e-07 2.8660819e-07 1.8378294)
(-2.2137258e-07 -2.4267229e-06 1.8378297)
(3.3592319e-07 -2.50365e-06 1.8378293)
(-8.8580089e-07 -2.4024118e-06 1.8378295)
(-2.2787549e-06 -2.2787549e-06 1.8378279)
(-8.9618145e-07 -2.1526191e-06 1.837827)
(4.2048711e-07 -2.0065536e-06 1.837827)
(1.1866163e-06 -1.8068518e-06 1.8378277)
(1.0657319e-06 -1.5150708e-06 1.8378287)
(2.8780559e-07 -1.1374735e-06 1.837829)
(-7.2320457e-08 -7.5759297e-07 1.837829)
(-1.41097e-07 -1.3668118e-06 1.8378285)
(4.8621248e-07 -1.1989193e-06 1.8378283)
(-7.5168986e-07 -1.0395827e-06 1.8378285)
(-2.1526191e-06 -8.9618145e-07 1.837827)
(-7.6738144e-07 -7.6738143e-07 1.8378261)
(5.677233e-07 -6.4086553e-07 1.8378263)
(1.3718796e-06 -5.0433094e-07 1.8378271)
(1.2992991e-06 -3.4669862e-07 1.8378282)
(5.4663609e-07 -1.7067291e-07 1.8378287)
(5.7731658e-08 -5.3352895e-09 1.8378288)
(-5.3480068e-08 -1.8773752e-07 1.8378282)
(6.6315231e-07 -3.0873915e-09 1.837828)
(-5.8306309e-07 2.2195597e-07 1.8378284)
(-2.0065536e-06 4.2048711e-07 1.837827)
(-6.4086554e-07 5.6772331e-07 1.8378263)
(6.8353761e-07 6.8353762e-07 1.8378264)
(1.4807832e-06 7.8059381e-07 1.8378274)
(1.39939e-06 8.5867908e-07 1.8378286)
(6.2916894e-07 9.1333058e-07 1.8378291)
(9.3017174e-08 9.4058409e-07 1.8378293)
(4.3553113e-08 4.2382242e-07 1.8378284)
(8.9590597e-07 5.7380284e-07 1.8378284)
(-3.2811536e-07 8.8039681e-07 1.837829)
(-1.8068518e-06 1.1866163e-06 1.8378277)
(-5.0433092e-07 1.3718796e-06 1.8378271)
(7.8059379e-07 1.4807832e-06 1.8378274)
(1.5470211e-06 1.5470211e-06 1.8378283)
(1.4320358e-06 1.5714126e-06 1.8378296)
(6.2854112e-07 1.5490799e-06 1.8378301)
(8.4985161e-08 1.4890786e-06 1.8378302)
(9.6500342e-08 5.3495873e-07 1.8378288)
(1.1197267e-06 4.1440822e-07 1.837829)
(2.9750369e-08 6.2992078e-07 1.8378298)
(-1.5150708e-06 1.065732e-06 1.8378287)
(-3.4669862e-07 1.299299e-06 1.8378282)
(8.5867906e-07 1.3993899e-06 1.8378286)
(1.5714126e-06 1.4320358e-06 1.8378296)
(1.4014488e-06 1.4014488e-06 1.8378308)
(5.4683492e-07 1.2995798e-06 1.8378312)
(3.3015882e-08 1.1467404e-06 1.8378313)
(-7.6997384e-08 4.6925778e-07 1.8378291)
(9.9086803e-07 3.0947788e-08 1.8378288)
(3.2320838e-07 -2.1084174e-07 1.8378297)
(-1.1374735e-06 2.8780559e-07 1.837829)
(-1.7067293e-07 5.466361e-07 1.8378287)
(9.1333057e-07 6.2916891e-07 1.8378291)
(1.5490799e-06 6.2854112e-07 1.8378301)
(1.2995798e-06 5.4683492e-07 1.8378312)
(3.7383276e-07 3.7383278e-07 1.8378315)
(-6.7854168e-08 2.0792422e-07 1.8378314)
(-3.4180971e-07 2.2909205e-07 1.8378296)
(4.3962715e-07 -3.5720281e-08 1.8378289)
(2.8660819e-07 -3.2214885e-07 1.8378294)
(-7.5759298e-07 -7.2320474e-08 1.837829)
(-5.3352808e-09 5.7731649e-08 1.8378288)
(9.4058409e-07 9.3017174e-08 1.8378293)
(1.4890786e-06 8.4985196e-08 1.8378302)
(1.1467404e-06 3.3015882e-08 1.8378313)
(2.0792421e-07 -6.785416e-08 1.8378314)
(-1.3289268e-07 -1.3289268e-07 1.8378315)
(-9.8012263e-07 -9.8012262e-07 1.8382902)
(1.554445e-06 1.6200611e-06 1.8382896)
(4.1483714e-07 -1.2746027e-07 1.8382903)
(-3.6835124e-06 -3.1918725e-07 1.8382889)
(-1.9969889e-06 -2.0202026e-07 1.838288)
(-1.4860127e-07 -5.8912094e-08 1.8382878)
(8.0465602e-07 1.1879941e-07 1.8382882)
(8.4628123e-07 2.2088361e-07 1.8382887)
(8.6684198e-07 -1.6672591e-07 1.8382888)
(5.4061118e-07 -7.302412e-07 1.8382893)
(1.620061e-06 1.554445e-06 1.8382896)
(2.4071073e-06 2.4071074e-06 1.83829)
(-1.5244112e-06 3.3190677e-07 1.83829)
(-3.7580724e-06 1.8390976e-07 1.8382886)
(-1.7367137e-06 4.0788036e-07 1.8382877)
(1.7221839e-07 6.9729098e-07 1.8382877)
(1.0844517e-06 1.1065244e-06 1.8382883)
(5.6075592e-07 1.511456e-06 1.8382889)
(-8.4282815e-08 1.2146372e-06 1.8382886)
(-2.2904118e-08 2.2941191e-07 1.8382886)
(-1.2746027e-07 4.1483713e-07 1.8382903)
(3.3190676e-07 -1.5244112e-06 1.83829)
(-1.8083604e-06 -1.8083604e-06 1.8382899)
(-3.6075389e-06 -1.6755574e-06 1.8382885)
(-1.4836076e-06 -1.4664157e-06 1.8382877)
(5.5004277e-07 -1.1901622e-06 1.8382878)
(1.618821e-06 -7.6202288e-07 1.8382885)
(9.5439405e-07 -1.5236714e-07 1.8382894)
(-4.1520207e-07 3.3093472e-07 1.8382892)
(-4.4461413e-07 2.8654216e-07 1.8382889)
(-3.1918724e-07 -3.6835124e-06 1.8382889)
(1.8390977e-07 -3.7580724e-06 1.8382886)
(-1.6755574e-06 -3.6075389e-06 1.8382885)
(-3.4161277e-06 -3.4161277e-06 1.8382871)
(-1.2513185e-06 -3.2118933e-06 1.8382864)
(8.7661121e-07 -2.9715462e-06 1.8382866)
(2.1222468e-06 -2.6419726e-06 1.8382875)
(1.6537135e-06 -2.162727e-06 1.8382886)
(3.5462648e-07 -1.5627048e-06 1.8382887)
(-6.729668e-08 -9.7859311e-07 1.8382886)
(-2.0202026e-07 -1.9969889e-06 1.838288)
(4.0788034e-07 -1.7367137e-06 1.8382877)
(-1.4664157e-06 -1.4836076e-06 1.8382877)
(-3.2118933e-06 -1.2513185e-06 1.8382864)
(-1.0390262e-06 -1.0390261e-06 1.8382858)
(1.1199635e-06 -8.2933139e-07 1.8382861)
(2.4276403e-06 -6.0322978e-07 1.8382871)
(2.0336619e-06 -3.4283393e-07 1.8382883)
(7.6893177e-07 -5.711466e-08 1.8382885)
(1.3949757e-07 2.0903484e-07 1.8382886)
(-5.8912111e-08 -1.486013e-07 1.8382878)
(6.97291e-07 1.7221838e-07 1.8382877)
(-1.1901622e-06 5.5004276e-07 1.8382878)
(-2.9715462e-06 8.7661121e-07 1.8382866)
(-8.2933138e-07 1.1199635e-06 1.8382861)
(1.3124076e-06 1.3124076e-06 1.8382864)
(2.6087443e-06 1.4727479e-06 1.8382875)
(2.1998286e-06 1.6000958e-06 1.8382888)
(9.0649525e-07 1.6853136e-06 1.8382891)
(1.9885282e-07 1.7233113e-06 1.8382892)
(1.1879941e-07 8.0465601e-07 1.8382882)
(1.1065244e-06 1.0844517e-06 1.8382883)
(-7.6202287e-07 1.618821e-06 1.8382885)
(-2.6419726e-06 2.1222468e-06 1.8382875)
(-6.0322978e-07 2.4276403e-06 1.8382871)
(1.4727479e-06 2.6087443e-06 1.8382875)
(2.7153285e-06 2.7153285e-06 1.8382886)
(2.2462275e-06 2.7444402e-06 1.83829)
(8.9214724e-07 2.6820194e-06 1.8382902)
(1.7749528e-07 2.5385063e-06 1.8382903)
(2.2088364e-07 8.4628124e-07 1.8382887)
(1.511456e-06 5.6075594e-07 1.8382889)
(-1.5236715e-07 9.5439406e-07 1.8382894)
(-2.162727e-06 1.6537135e-06 1.8382886)
(-3.4283394e-07 2.0336618e-06 1.8382883)
(1.6000958e-06 2.1998286e-06 1.8382888)
(2.7444402e-06 2.2462275e-06 1.83829)
(2.1665195e-06 2.1665195e-06 1.8382913)
(7.0056136e-07 1.9349054e-06 1.8382915)
(5.5339665e-08 1.5931166e-06 1.8382914)
(-1.667259e-07 8.66842e-07 1.8382888)
(1.2146372e-06 -8.428285e-08 1.8382886)
(3.3093468e-07 -4.1520209e-07 1.8382892)
(-1.5627048e-06 3.5462648e-07 1.8382887)
(-5.7114669e-08 7.6893177e-07 1.8382885)
(1.6853136e-06 9.0649523e-07 1.8382891)
(2.6820194e-06 8.9214724e-07 1.8382902)
(1.9349054e-06 7.0056136e-07 1.8382915)
(3.1874435e-07 3.1874433e-07 1.8382914)
(-1.6429355e-07 2.7261401e-07 1.838291)
(-7.3024121e-07 5.4061118e-07 1.8382893)
(2.2941188e-07 -2.2904127e-08 1.8382886)
(2.8654216e-07 -4.4461415e-07 1.8382889)
(-9.7859307e-07 -6.7296672e-08 1.8382886)
(2.090348e-07 1.3949757e-07 1.8382886)
(1.7233113e-06 1.9885283e-07 1.8382892)
(2.5385063e-06 1.7749528e-07 1.8382903)
(1.5931166e-06 5.5339682e-08 1.8382914)
(2.7261401e-07 -1.6429357e-07 1.838291)
(9.2093607e-09 9.2093607e-09 1.8382913)
(-1.3427117e-06 -1.3427117e-06 1.8389756)
(1.5091681e-06 1.7688484e-06 1.8389749)
(8.7929837e-08 -2.9560742e-07 1.8389756)
(-4.7416906e-06 -5.1243123e-07 1.8389744)
(-2.4449951e-06 -3.6016442e-07 1.8389737)
(5.2256897e-08 -1.6120018e-07 1.8389737)
(1.3172875e-06 1.0770209e-07 1.8389742)
(1.1323031e-06 2.8925003e-07 1.8389748)
(1.0580772e-06 -2.7332764e-07 1.8389749)
(7.2355013e-07 -1.0505634e-06 1.8389753)
(1.7688483e-06 1.5091682e-06 1.8389749)
(2.5562724e-06 2.5562724e-06 1.8389752)
(-2.1933498e-06 1.0668985e-07 1.8389753)
(-4.8062476e-06 -4.9810581e-08 1.838974)
(-2.0937641e-06 2.4490339e-07 1.8389734)
(5.2012341e-07 6.4512702e-07 1.8389735)
(1.7677377e-06 1.2396827e-06 1.8389742)
(7.5127343e-07 1.8530308e-06 1.838975)
(-2.8173617e-07 1.4123797e-06 1.8389747)
(-5.3685606e-08 7.4409342e-08 1.8389747)
(-2.9560745e-07 8.792982e-08 1.8389756)
(1.0668984e-07 -2.1933497e-06 1.8389753)
(-2.5181532e-06 -2.5181532e-06 1.8389752)
(-4.6034771e-06 -2.338886e-06 1.838974)
(-1.7500575e-06 -2.0568755e-06 1.8389734)
(1.0470363e-06 -1.6766579e-06 1.8389736)
(2.5251912e-06 -1.0793349e-06 1.8389745)
(1.3050002e-06 -2.2604759e-07 1.8389756)
(-7.2054423e-07 4.1689228e-07 1.8389754)
(-6.1442026e-07 3.3805929e-07 1.838975)
(-5.1243123e-07 -4.7416906e-06 1.8389744)
(-4.9810581e-08 -4.8062476e-06 1.838974)
(-2.338886e-06 -4.6034771e-06 1.838974)
(-4.3449699e-06 -4.3449699e-06 1.8389729)
(-1.431536e-06 -4.064587e-06 1.8389723)
(1.497664e-06 -3.7326826e-06 1.8389726)
(3.218348e-06 -3.2768492e-06 1.8389737)
(2.2475006e-06 -2.6173989e-06 1.838975)
(2.8237072e-07 -1.8155637e-06 1.838975)
(-1.3251858e-07 -1.0587497e-06 1.8389749)
(-3.6016442e-07 -2.4449951e-06 1.8389737)
(2.4490336e-07 -2.0937641e-06 1.8389734)
(-2.0568754e-06 -1.7500575e-06 1.8389734)
(-4.064587e-06 -1.431536e-06 1.8389723)
(-1.1377702e-06 -1.1377702e-06 1.8389719)
(1.834774e-06 -8.4702786e-07 1.8389723)
(3.6404749e-06 -5.3374443e-07 1.8389734)
(2.7662856e-06 -1.7394025e-07 1.8389748)
(8.3810505e-07 2.142316e-07 1.838975)
(1.4239383e-07 5.7091105e-07 1.838975)
(-1.6120019e-07 5.2256923e-08 1.8389737)
(6.4512701e-07 5.2012341e-07 1.8389735)
(-1.6766579e-06 1.0470363e-06 1.8389736)
(-3.7326825e-06 1.497664e-06 1.8389726)
(-8.4702788e-07 1.834774e-06 1.8389723)
(2.1016898e-06 2.1016898e-06 1.8389727)
(3.8914356e-06 2.3225916e-06 1.838974)
(2.9954766e-06 2.4951705e-06 1.8389754)
(1.027222e-06 2.6040757e-06 1.8389757)
(2.2416084e-07 2.6444228e-06 1.8389757)
(1.0770206e-07 1.3172875e-06 1.8389742)
(1.2396827e-06 1.7677377e-06 1.8389742)
(-1.0793348e-06 2.5251912e-06 1.8389745)
(-3.2768492e-06 3.218348e-06 1.8389737)
(-5.3374445e-07 3.6404748e-06 1.8389734)
(2.3225915e-06 3.8914356e-06 1.838974)
(4.0339556e-06 4.0339556e-06 1.8389753)
(3.0477697e-06 4.0568989e-06 1.8389767)
(9.8735734e-07 3.9297372e-06 1.8389769)
(1.8274091e-07 3.6612448e-06 1.838977)
(2.8925004e-07 1.1323031e-06 1.8389748)
(1.8530308e-06 7.5127342e-07 1.838975)
(-2.2604763e-07 1.3050001e-06 1.8389756)
(-2.6173989e-06 2.2475005e-06 1.838975)
(-1.7394025e-07 2.7662856e-06 1.8389748)
(2.4951705e-06 2.9954766e-06 1.8389754)
(4.056899e-06 3.0477697e-06 1.8389767)
(2.8912582e-06 2.8912582e-06 1.8389782)
(6.3156784e-07 2.4590297e-06 1.8389783)
(-4.4331578e-08 1.8165286e-06 1.838978)
(-2.7332765e-07 1.0580772e-06 1.8389749)
(1.4123797e-06 -2.8173618e-07 1.8389747)
(4.1689228e-07 -7.2054424e-07 1.8389754)
(-1.8155637e-06 2.8237073e-07 1.838975)
(2.1423162e-07 8.3810505e-07 1.838975)
(2.6040757e-06 1.027222e-06 1.8389757)
(3.9297372e-06 9.8735731e-07 1.8389769)
(2.4590298e-06 6.3156783e-07 1.8389783)
(-8.7372288e-08 -8.7372306e-08 1.838978)
(-4.597602e-07 1.6408171e-07 1.8389774)
(-1.0505634e-06 7.2355014e-07 1.8389753)
(7.4409316e-08 -5.3685606e-08 1.8389747)
(3.3805929e-07 -6.1442024e-07 1.838975)
(-1.0587497e-06 -1.325186e-07 1.8389749)
(5.7091104e-07 1.4239383e-07 1.838975)
(2.6444228e-06 2.2416084e-07 1.8389757)
(3.6612448e-06 1.8274092e-07 1.838977)
(1.8165286e-06 -4.4331587e-08 1.838978)
(1.6408171e-07 -4.597602e-07 1.8389774)
(2.0712243e-07 2.0712241e-07 1.8389777)
(-1.6696017e-06 -1.6696017e-06 1.8398828)
(1.532436e-06 1.9229813e-06 1.8398822)
(-1.1940168e-07 -4.4440833e-07 1.8398829)
(-5.6312039e-06 -6.8464311e-07 1.8398819)
(-2.7374772e-06 -4.9907396e-07 1.8398813)
(4.0439045e-07 -2.4649395e-07 1.8398814)
(1.9906091e-06 1.1259794e-07 1.8398821)
(1.5496222e-06 3.7559534e-07 1.8398829)
(1.281537e-06 -3.5940597e-07 1.839883)
(8.9042084e-07 -1.3199772e-06 1.8398834)
(1.9229813e-06 1.5324361e-06 1.8398822)
(2.7576294e-06 2.7576294e-06 1.8398825)
(-2.7270261e-06 -4.6750668e-08 1.8398827)
(-5.6858696e-06 -2.0899078e-07 1.8398816)
(-2.2993281e-06 1.5374418e-07 1.839881)
(1.0160624e-06 6.604872e-07 1.8398813)
(2.6126984e-06 1.4362112e-06 1.8398821)
(1.0776183e-06 2.254126e-06 1.8398831)
(-4.1403557e-07 1.6596512e-06 1.8398829)
(-7.0150422e-08 -1.1461145e-09 1.8398829)
(-4.4440835e-07 -1.1940166e-07 1.8398829)
(-4.6750668e-08 -2.7270261e-06 1.8398827)
(-3.0860218e-06 -3.0860218e-06 1.8398827)
(-5.4307091e-06 -2.8591837e-06 1.8398816)
(-1.8679992e-06 -2.5060593e-06 1.8398812)
(1.6868575e-06 -2.0254654e-06 1.8398815)
(3.584248e-06 -1.2644953e-06 1.8398826)
(1.7730621e-06 -1.7810959e-07 1.8398837)
(-9.7373514e-07 6.0146097e-07 1.8398836)
(-7.7037646e-07 4.7565042e-07 1.8398833)
(-6.8464312e-07 -5.6312039e-06 1.8398819)
(-2.0899078e-07 -5.6858696e-06 1.8398816)
(-2.8591837e-06 -5.4307091e-06 1.8398816)
(-5.105907e-06 -5.105907e-06 1.8398806)
(-1.4656097e-06 -4.7512578e-06 1.8398803)
(2.2576263e-06 -4.3306886e-06 1.8398807)
(4.4600542e-06 -3.7526133e-06 1.8398819)
(2.9435746e-06 -2.9200232e-06 1.8398833)
(2.3972445e-07 -1.931237e-06 1.8398833)
(-1.9596098e-07 -1.0195478e-06 1.8398832)
(-4.9907395e-07 -2.7374772e-06 1.8398813)
(1.5374417e-07 -2.2993281e-06 1.839881)
(-2.5060593e-06 -1.8679992e-06 1.8398812)
(-4.7512578e-06 -1.4656097e-06 1.8398803)
(-1.0927808e-06 -1.0927808e-06 1.8398799)
(2.685502e-06 -7.2378404e-07 1.8398805)
(4.9949134e-06 -3.2640221e-07 1.8398817)
(3.5944385e-06 1.2903735e-07 1.8398833)
(9.2674027e-07 6.1376797e-07 1.8398835)
(1.4131273e-07 1.0541029e-06 1.8398835)
(-2.4649395e-07 4.0439044e-07 1.8398814)
(6.6048724e-07 1.0160623e-06 1.8398813)
(-2.0254654e-06 1.6868575e-06 1.8398815)
(-4.3306887e-06 2.2576263e-06 1.8398807)
(-7.2378405e-07 2.685502e-06 1.8398805)
(3.0240049e-06 3.0240049e-06 1.839881)
(5.3128756e-06 3.3025631e-06 1.8398824)
(3.8837447e-06 3.5173632e-06 1.839884)
(1.16479e-06 3.6462848e-06 1.8398842)
(2.4437393e-07 3.6852922e-06 1.8398843)
(1.1259794e-07 1.9906091e-06 1.8398821)
(1.4362112e-06 2.6126984e-06 1.8398821)
(-1.2644953e-06 3.584248e-06 1.8398826)
(-3.7526133e-06 4.4600542e-06 1.8398819)
(-3.2640221e-07 4.9949134e-06 1.8398817)
(3.302563e-06 5.3128756e-06 1.8398824)
(5.4882716e-06 5.4882716e-06 1.8398838)
(3.9381602e-06 5.4997392e-06 1.8398854)
(1.0946693e-06 5.2958678e-06 1.8398856)
(1.8032012e-07 4.8798527e-06 1.8398856)
(3.7559533e-07 1.5496222e-06 1.8398829)
(2.254126e-06 1.0776183e-06 1.8398831)
(-1.7810958e-07 1.7730621e-06 1.8398837)
(-2.9200232e-06 2.9435745e-06 1.8398833)
(1.2903733e-07 3.5944385e-06 1.8398833)
(3.5173632e-06 3.8837447e-06 1.839884)
(5.4997392e-06 3.9381602e-06 1.8398854)
(3.691341e-06 3.691341e-06 1.8398869)
(5.449035e-07 3.0176485e-06 1.839887)
(-1.7164116e-07 1.9957432e-06 1.8398868)
(-3.5940599e-07 1.281537e-06 1.839883)
(1.6596512e-06 -4.1403556e-07 1.8398829)
(6.0146097e-07 -9.7373516e-07 1.8398836)
(-1.931237e-06 2.3972445e-07 1.8398833)
(6.1376797e-07 9.2674027e-07 1.8398835)
(3.6462848e-06 1.1647899e-06 1.8398842)
(5.2958678e-06 1.0946693e-06 1.8398856)
(3.0176486e-06 5.4490348e-07 1.839887)
(-6.0092846e-07 -6.009285e-07 1.8398868)
(-8.415852e-07 -4.2961546e-08 1.839886)
(-1.3199772e-06 8.9042084e-07 1.8398834)
(-1.1461058e-09 -7.0150405e-08 1.8398829)
(4.756504e-07 -7.7037644e-07 1.8398833)
(-1.0195478e-06 -1.9596096e-07 1.8398832)
(1.0541028e-06 1.4131271e-07 1.8398835)
(3.6852922e-06 2.4437392e-07 1.8398843)
(4.8798527e-06 1.8032012e-07 1.8398856)
(1.9957432e-06 -1.7164117e-07 1.8398868)
(-4.2961502e-08 -8.4158523e-07 1.839886)
(3.863258e-07 3.8632578e-07 1.8398863)
(-1.9491097e-06 -1.9491097e-06 1.8410068)
(1.6283176e-06 2.096664e-06 1.8410062)
(-2.2965071e-07 -5.6037622e-07 1.841007)
(-6.3814886e-06 -8.2291476e-07 1.8410061)
(-2.9048823e-06 -6.0570693e-07 1.8410056)
(8.6925198e-07 -3.0202178e-07 1.8410058)
(2.7755324e-06 1.4406054e-07 1.8410066)
(2.0691842e-06 4.8587467e-07 1.8410075)
(1.5569711e-06 -4.2099857e-07 1.8410077)
(1.0635957e-06 -1.5553353e-06 1.8410081)
(2.096664e-06 1.6283176e-06 1.8410062)
(3.017051e-06 3.017051e-06 1.8410066)
(-3.1492294e-06 -1.2594261e-07 1.8410068)
(-6.4268193e-06 -2.9297363e-07 1.8410058)
(-2.3839893e-06 1.3500052e-07 1.8410054)
(1.6190194e-06 7.4379456e-07 1.8410057)
(3.5634288e-06 1.6942716e-06 1.8410067)
(1.5041251e-06 2.7090026e-06 1.8410077)
(-4.8423895e-07 1.95502e-06 1.8410076)
(-7.0741121e-08 -1.6790146e-08 1.8410076)
(-5.6037622e-07 -2.2965069e-07 1.841007)
(-1.2594261e-07 -3.1492294e-06 1.8410068)
(-3.5396753e-06 -3.5396753e-06 1.8410069)
(-6.1205454e-06 -3.2660826e-06 1.841006)
(-1.8681141e-06 -2.8440813e-06 1.8410056)
(2.428523e-06 -2.2667648e-06 1.8410061)
(4.7407404e-06 -1.3479574e-06 1.8410072)
(2.3299327e-06 -3.8027931e-08 1.8410084)
(-1.1688217e-06 8.6461437e-07 1.8410083)
(-9.0821448e-07 6.8699033e-07 1.8410081)
(-8.2291476e-07 -6.3814885e-06 1.8410061)
(-2.9297363e-07 -6.4268192e-06 1.8410058)
(-3.2660826e-06 -6.1205454e-06 1.841006)
(-5.7312253e-06 -5.7312253e-06 1.8410051)
(-1.3846715e-06 -5.3047653e-06 1.8410048)
(3.1151434e-06 -4.7988649e-06 1.8410053)
(5.7921657e-06 -4.1031188e-06 1.8410066)
(3.7166968e-06 -3.1044432e-06 1.8410081)
(2.4077932e-07 -1.9397224e-06 1.8410082)
(-2.4836517e-07 -8.8415327e-07 1.8410081)
(-6.0570691e-07 -2.9048823e-06 1.8410056)
(1.3500053e-07 -2.3839893e-06 1.8410054)
(-2.8440814e-06 -1.8681141e-06 1.8410056)
(-5.3047653e-06 -1.3846715e-06 1.8410048)
(-9.3575375e-07 -9.3575375e-07 1.8410046)
(3.6301696e-06 -4.9184642e-07 1.8410052)
(6.4351621e-06 -1.4055094e-08 1.8410066)
(4.493329e-06 5.3279433e-07 1.8410081)
(1.0514683e-06 1.1089892e-06 1.8410084)
(1.4735466e-07 1.6283404e-06 1.8410084)
(-3.0202172e-07 8.6925196e-07 1.8410058)
(7.4379457e-07 1.6190194e-06 1.8410057)
(-2.2667649e-06 2.428523e-06 1.8410061)
(-4.7988649e-06 3.1151435e-06 1.8410053)
(-4.9184644e-07 3.6301696e-06 1.8410052)
(4.0368421e-06 4.0368421e-06 1.8410059)
(6.8168065e-06 4.3698592e-06 1.8410073)
(4.8397411e-06 4.6241524e-06 1.8410089)
(1.3363254e-06 4.771009e-06 1.8410092)
(2.7098603e-07 4.8079434e-06 1.8410093)
(1.4406056e-07 2.7755324e-06 1.8410066)
(1.6942715e-06 3.5634288e-06 1.8410067)
(-1.3479573e-06 4.7407404e-06 1.8410072)
(-4.1031188e-06 5.7921658e-06 1.8410066)
(-1.4055111e-08 6.4351621e-06 1.8410066)
(4.3698591e-06 6.8168065e-06 1.8410073)
(7.0224723e-06 7.0224724e-06 1.8410087)
(4.8944788e-06 7.020096e-06 1.8410104)
(1.2352594e-06 6.735768e-06 1.8410107)
(1.8428909e-07 6.1652893e-06 1.8410107)
(4.8587469e-07 2.0691842e-06 1.8410075)
(2.7090026e-06 1.5041251e-06 1.8410077)
(-3.8027914e-08 2.3299326e-06 1.8410084)
(-3.1044432e-06 3.7166968e-06 1.8410081)
(5.3279435e-07 4.493329e-06 1.8410081)
(4.6241523e-06 4.8397411e-06 1.8410089)
(7.020096e-06 4.8944788e-06 1.8410104)
(4.5530367e-06 4.5530367e-06 1.841012)
(4.8151864e-07 3.6227066e-06 1.8410122)
(-2.994927e-07 2.190378e-06 1.8410119)
(-4.2099855e-07 1.5569711e-06 1.8410077)
(1.95502e-06 -4.8423895e-07 1.8410076)
(8.6461439e-07 -1.1688217e-06 1.8410083)
(-1.9397224e-06 2.4077932e-07 1.8410082)
(1.1089892e-06 1.0514683e-06 1.8410084)
(4.771009e-06 1.3363254e-06 1.8410092)
(6.735768e-06 1.2352594e-06 1.8410107)
(3.6227066e-06 4.8151861e-07 1.8410122)
(-1.1273993e-06 -1.1273993e-06 1.8410119)
(-1.2480395e-06 -2.8219736e-07 1.8410111)
(-1.5553353e-06 1.0635957e-06 1.8410081)
(-1.6790111e-08 -7.0741104e-08 1.8410076)
(6.8699033e-07 -9.0821446e-07 1.8410081)
(-8.8415327e-07 -2.4836518e-07 1.8410081)
(1.6283404e-06 1.4735465e-07 1.8410084)
(4.8079434e-06 2.7098599e-07 1.8410093)
(6.1652893e-06 1.8428908e-07 1.8410107)
(2.1903781e-06 -2.9949272e-07 1.8410119)
(-2.8219734e-07 -1.2480395e-06 1.8410111)
(5.4570928e-07 5.4570928e-07 1.8410114)
(-2.1953561e-06 -2.1953561e-06 1.8423405)
(1.7659856e-06 2.2769651e-06 1.84234)
(-2.709249e-07 -6.5384217e-07 1.8423408)
(-7.0153992e-06 -9.3719459e-07 1.84234)
(-2.9728623e-06 -6.8983146e-07 1.8423396)
(1.4127005e-06 -3.3726985e-07 1.84234)
(3.6273646e-06 1.9258171e-07 1.8423408)
(2.6493519e-06 6.1056108e-07 1.8423417)
(1.8664633e-06 -4.6418702e-07 1.842342)
(1.2420458e-06 -1.7652635e-06 1.8423423)
(2.2769651e-06 1.7659856e-06 1.84234)
(3.3074994e-06 3.3074994e-06 1.8423404)
(-3.4850846e-06 -1.5530414e-07 1.8423406)
(-7.0513884e-06 -3.2618843e-07 1.8423398)
(-2.3729375e-06 1.6418969e-07 1.8423395)
(2.2951137e-06 8.7072098e-07 1.8423399)
(4.5751955e-06 1.9893008e-06 1.8423409)
(1.9925832e-06 3.1933278e-06 1.842342)
(-5.0936129e-07 2.2809189e-06 1.8423419)
(-5.9030697e-08 9.3308868e-09 1.8423419)
(-6.5384217e-07 -2.709249e-07 1.8423408)
(-1.5530414e-07 -3.4850846e-06 1.8423406)
(-3.9046127e-06 -3.9046127e-06 1.8423408)
(-6.6959054e-06 -3.5859055e-06 1.84234)
(-1.7759529e-06 -3.0978061e-06 1.8423397)
(3.2378116e-06 -2.4278028e-06 1.8423402)
(5.9499714e-06 -1.3575128e-06 1.8423414)
(2.9409701e-06 1.6650535e-07 1.8423427)
(-1.3175335e-06 1.1832284e-06 1.8423426)
(-1.0295422e-06 9.5258386e-07 1.8423424)
(-9.3719459e-07 -7.0153991e-06 1.84234)
(-3.2618843e-07 -7.0513884e-06 1.8423398)
(-3.5859056e-06 -6.6959054e-06 1.84234)
(-6.2445818e-06 -6.2445818e-06 1.8423392)
(-1.2148347e-06 -5.7493392e-06 1.842339)
(4.035407e-06 -5.1619266e-06 1.8423396)
(7.1695036e-06 -4.3536889e-06 1.8423409)
(4.5333243e-06 -3.1963764e-06 1.8423424)
(2.7671721e-07 -1.8652509e-06 1.8423426)
(-2.8967521e-07 -6.7448864e-07 1.8423425)
(-6.8983146e-07 -2.9728623e-06 1.8423396)
(1.6418966e-07 -2.3729375e-06 1.8423395)
(-3.0978062e-06 -1.7759529e-06 1.8423397)
(-5.7493392e-06 -1.2148347e-06 1.842339)
(-6.9329764e-07 -6.9329762e-07 1.8423389)
(4.6334619e-06 -1.7823647e-07 1.8423396)
(7.9155216e-06 3.7581924e-07 1.842341)
(5.4294081e-06 1.0094192e-06 1.8423426)
(1.2043542e-06 1.6721341e-06 1.8423429)
(1.6122003e-07 2.2664499e-06 1.8423429)
(-3.3726983e-07 1.4127005e-06 1.84234)
(8.7072096e-07 2.2951137e-06 1.8423399)
(-2.4278028e-06 3.2378116e-06 1.8423402)
(-5.1619266e-06 4.0354071e-06 1.8423396)
(-1.7823645e-07 4.6334619e-06 1.8423396)
(5.1045239e-06 5.1045239e-06 1.8423403)
(8.3571593e-06 5.4885222e-06 1.8423418)
(5.8296392e-06 5.7794539e-06 1.8423434)
(1.5337478e-06 5.9425223e-06 1.8423438)
(3.0464057e-07 5.9774151e-06 1.8423438)
(1.9258171e-07 3.6273645e-06 1.8423408)
(1.9893007e-06 4.5751955e-06 1.8423409)
(-1.3575128e-06 5.9499714e-06 1.8423414)
(-4.3536889e-06 7.1695036e-06 1.8423409)
(3.7581922e-07 7.9155216e-06 1.842341)
(5.4885222e-06 8.3571594e-06 1.8423418)
(8.5904515e-06 8.5904515e-06 1.8423432)
(5.8834082e-06 8.5728971e-06 1.8423449)
(1.4023154e-06 8.2080627e-06 1.8423452)
(1.9611292e-07 7.4837293e-06 1.8423453)
(6.1056112e-07 2.6493519e-06 1.8423417)
(3.1933278e-06 1.9925832e-06 1.842342)
(1.6650537e-07 2.9409701e-06 1.8423427)
(-3.1963763e-06 4.5333243e-06 1.8423424)
(1.0094192e-06 5.4294081e-06 1.8423426)
(5.7794539e-06 5.8296392e-06 1.8423434)
(8.572897e-06 5.8834082e-06 1.8423449)
(5.4472503e-06 5.4472503e-06 1.8423465)
(4.4457996e-07 4.2586225e-06 1.8423467)
(-4.1969284e-07 2.4104249e-06 1.8423465)
(-4.64187e-07 1.8664633e-06 1.842342)
(2.280919e-06 -5.093613e-07 1.8423419)
(1.1832284e-06 -1.3175336e-06 1.8423426)
(-1.8652509e-06 2.7671717e-07 1.8423426)
(1.6721341e-06 1.2043542e-06 1.8423429)
(5.9425223e-06 1.5337478e-06 1.8423438)
(8.2080626e-06 1.4023155e-06 1.8423452)
(4.2586225e-06 4.4457998e-07 1.8423467)
(-1.63451e-06 -1.63451e-06 1.8423465)
(-1.6520847e-06 -5.1883926e-07 1.8423457)
(-1.7652635e-06 1.2420458e-06 1.8423423)
(9.3309215e-09 -5.9030697e-08 1.8423419)
(9.5258386e-07 -1.0295422e-06 1.8423424)
(-6.7448862e-07 -2.8967523e-07 1.8423425)
(2.2664499e-06 1.6122005e-07 1.8423429)
(5.9774151e-06 3.0464055e-07 1.8423438)
(7.4837292e-06 1.9611292e-07 1.8423453)
(2.4104249e-06 -4.1969286e-07 1.8423465)
(-5.1883928e-07 -1.6520847e-06 1.8423457)
(6.9597784e-07 6.9597784e-07 1.842346)
(-2.415967e-06 -2.415967e-06 1.8438758)
(1.9257361e-06 2.4550318e-06 1.8438754)
(-2.6278042e-07 -7.3158537e-07 1.8438761)
(-7.5489996e-06 -1.0340312e-06 1.8438754)
(-2.9610085e-06 -7.5807126e-07 1.8438751)
(2.0095906e-06 -3.589219e-07 1.8438755)
(4.5159431e-06 2.5126018e-07 1.8438764)
(3.2628659e-06 7.4263793e-07 1.8438773)
(2.1955014e-06 -4.9382871e-07 1.8438776)
(1.4224956e-06 -1.9537955e-06 1.843878)
(2.4550318e-06 1.9257361e-06 1.8438754)
(3.6101177e-06 3.6101177e-06 1.8438757)
(-3.7518433e-06 -1.513136e-07 1.843876)
(-7.5754855e-06 -3.250621e-07 1.8438752)
(-2.2858992e-06 2.2458219e-07 1.843875)
(3.0189221e-06 1.0242266e-06 1.8438755)
(5.617503e-06 2.3036351e-06 1.8438765)
(2.517777e-06 3.6890102e-06 1.8438776)
(-5.0093204e-07 2.6226344e-06 1.8438776)