/*--------------------------------*- C++ -*----------------------------------*\
| =========                 |                                                 |
| \\      /  F ield         | OpenFOAM: The Open Source CFD Toolbox           |
|  \\    /   O peration     | Version:  v2106                                 |
|   \\  /    A nd           | Website:  www.openfoam.com                      |
|    \\/     M anipulation  |                                                 |
\*---------------------------------------------------------------------------*/
FoamFile
{
    version     2.0;
    format      ascii;
    arch        "LSB;label=32;scalar=64";
    class       volVectorField;
    location    "30";
    object      flux;
}
// * * * * * * * * * * * * * * * * * * * * * * * * * * * * * * * * * * * * * //

dimensions      [0 1 -1 1 0 0 0];

internalField   nonuniform List<vector> 
4000
(
(-2.3507758e-06 -2.3507758e-06 1.8999266)
(7.6824408e-07 6.6855289e-07 1.8999193)
(3.9078587e-06 -3.32757e-08 1.8999301)
(1.214441e-06 -2.7536185e-08 1.8999333)
(4.2987175e-07 -5.1672234e-08 1.899935)
(-3.3578166e-07 -7.9789318e-08 1.899935)
(-9.1672096e-07 -1.3400506e-07 1.8999335)
(-1.1850635e-06 -2.5564373e-07 1.8999312)
(-9.2984594e-07 -4.8507308e-07 1.8999287)
(-3.2145215e-07 -6.4020096e-07 1.8999278)
(6.6855289e-07 7.6824408e-07 1.8999193)
(3.0857442e-06 3.0857442e-06 1.8999213)
(3.2117696e-06 2.3301852e-06 1.8999301)
(1.1960445e-06 2.3039754e-06 1.8999333)
(3.7761863e-07 2.2485102e-06 1.8999348)
(-4.1811449e-07 2.1861968e-06 1.8999347)
(-1.0925753e-06 2.0880329e-06 1.8999331)
(-1.5361316e-06 1.8934258e-06 1.8999302)
(-1.3144032e-06 1.4966783e-06 1.8999267)
(-4.7658001e-07 9.8950856e-07 1.8999254)
(-3.3275717e-08 3.9078587e-06 1.8999301)
(2.3301852e-06 3.2117696e-06 1.8999301)
(3.1260899e-06 3.1260899e-06 1.8999386)
(1.132766e-06 3.0588003e-06 1.8999417)
(3.1209316e-07 2.9906968e-06 1.8999431)
(-4.9625895e-07 2.9155095e-06 1.8999428)
(-1.209492e-06 2.8238627e-06 1.899941)
(-1.7764182e-06 2.700319e-06 1.8999378)
(-1.8337632e-06 2.4940595e-06 1.8999337)
(-8.2862187e-07 2.1314937e-06 1.8999309)
(-2.7536194e-08 1.214441e-06 1.8999333)
(2.3039754e-06 1.1960445e-06 1.8999333)
(3.0588003e-06 1.132766e-06 1.8999417)
(1.0606515e-06 1.0606515e-06 1.8999446)
(2.3432784e-07 9.8590284e-07 1.8999459)
(-5.8494863e-07 9.0496829e-07 1.8999454)
(-1.3077659e-06 8.1309637e-07 1.8999434)
(-1.8659348e-06 7.1319338e-07 1.89994)
(-1.8832285e-06 6.2587844e-07 1.8999357)
(-8.391458e-07 5.8580268e-07 1.8999329)
(-5.1672226e-08 4.2987176e-07 1.899935)
(2.2485102e-06 3.7761864e-07 1.8999348)
(2.9906968e-06 3.1209315e-07 1.8999431)
(9.8590284e-07 2.3432783e-07 1.8999459)
(1.5641e-07 1.5640997e-07 1.899947)
(-6.6906543e-07 7.8957084e-08 1.8999464)
(-1.4012669e-06 -1.1342576e-09 1.8999442)
(-1.9636361e-06 -8.4112274e-08 1.8999406)
(-1.9611539e-06 -1.6150336e-07 1.8999361)
(-8.686976e-07 -2.0932378e-07 1.8999332)
(-7.9789309e-08 -3.3578168e-07 1.899935)
(2.1861968e-06 -4.1811451e-07 1.8999347)
(2.9155095e-06 -4.9625896e-07 1.8999428)
(9.0496828e-07 -5.8494863e-07 1.8999454)
(7.8957084e-08 -6.6906541e-07 1.8999464)
(-7.4249283e-07 -7.4249287e-07 1.8999456)
(-1.4708352e-06 -8.0922386e-07 1.8999433)
(-2.0263039e-06 -8.6801374e-07 1.8999396)
(-2.00844e-06 -9.1521984e-07 1.899935)
(-8.8696624e-07 -9.4328623e-07 1.899932)
(-1.3400506e-07 -9.1672094e-07 1.8999335)
(2.0880329e-06 -1.0925754e-06 1.8999331)
(2.8238627e-06 -1.209492e-06 1.899941)
(8.1309637e-07 -1.3077659e-06 1.8999434)
(-1.1342576e-09 -1.4012669e-06 1.8999442)
(-8.0922386e-07 -1.4708352e-06 1.8999433)
(-1.5267878e-06 -1.5267878e-06 1.8999409)
(-2.0696321e-06 -1.5692276e-06 1.8999371)
(-2.0364263e-06 -1.5960211e-06 1.8999324)
(-8.9676399e-07 -1.6069601e-06 1.8999293)
(-2.5564372e-07 -1.1850636e-06 1.8999312)
(1.8934258e-06 -1.5361316e-06 1.8999302)
(2.700319e-06 -1.7764182e-06 1.8999378)
(7.1319338e-07 -1.8659348e-06 1.89994)
(-8.4112257e-08 -1.9636361e-06 1.8999406)
(-8.6801378e-07 -2.0263039e-06 1.8999396)
(-1.5692276e-06 -2.0696321e-06 1.8999371)
(-2.0955373e-06 -2.0955373e-06 1.8999332)
(-2.0461725e-06 -2.099616e-06 1.8999284)
(-8.9790522e-07 -2.0830818e-06 1.8999254)
(-4.850731e-07 -9.2984594e-07 1.8999287)
(1.4966783e-06 -1.3144032e-06 1.8999267)
(2.4940595e-06 -1.8337632e-06 1.8999337)
(6.2587843e-07 -1.8832285e-06 1.8999357)
(-1.6150334e-07 -1.9611539e-06 1.8999361)
(-9.1521986e-07 -2.00844e-06 1.899935)
(-1.5960211e-06 -2.0364263e-06 1.8999324)
(-2.0996159e-06 -2.0461725e-06 1.8999284)
(-2.0239708e-06 -2.0239708e-06 1.8999237)
(-8.8022983e-07 -1.9522875e-06 1.8999208)
(-6.4020097e-07 -3.2145214e-07 1.8999278)
(9.8950855e-07 -4.7658001e-07 1.8999254)
(2.1314937e-06 -8.2862185e-07 1.8999309)
(5.8580267e-07 -8.3914581e-07 1.8999329)
(-2.093238e-07 -8.6869761e-07 1.8999332)
(-9.4328622e-07 -8.8696625e-07 1.899932)
(-1.6069601e-06 -8.96764e-07 1.8999293)
(-2.0830818e-06 -8.9790521e-07 1.8999254)
(-1.9522875e-06 -8.8022982e-07 1.8999208)
(-8.2622196e-07 -8.2622194e-07 1.8999184)
(-4.9779652e-06 -4.9779652e-06 1.8997737)
(2.7139207e-06 1.3351309e-06 1.89977)
(1.0126512e-05 6.0938234e-10 1.8997781)
(3.6426046e-06 -2.8394691e-08 1.8997812)
(1.1766357e-06 -9.5403425e-08 1.8997826)
(-1.103277e-06 -1.7743443e-07 1.8997824)
(-2.8758816e-06 -3.3827335e-07 1.8997808)
(-3.6619834e-06 -7.2151381e-07 1.8997782)
(-2.3927871e-06 -1.5029986e-06 1.8997754)
(-5.3475128e-07 -1.8392233e-06 1.8997754)
(1.3351309e-06 2.7139207e-06 1.89977)
(7.6924953e-06 7.6924953e-06 1.8997718)
(8.7629861e-06 6.1432376e-06 1.8997788)
(3.5465918e-06 6.0103651e-06 1.8997819)
(1.027596e-06 5.8492626e-06 1.8997832)
(-1.346147e-06 5.6642091e-06 1.8997829)
(-3.4199609e-06 5.3709965e-06 1.8997811)
(-4.8267086e-06 4.7676599e-06 1.8997779)
(-3.5104966e-06 3.4597697e-06 1.8997738)
(-8.7097604e-07 2.0878119e-06 1.8997733)
(6.0937366e-10 1.0126512e-05 1.8997781)
(6.1432376e-06 8.7629862e-06 1.8997788)
(8.4443815e-06 8.4443815e-06 1.8997856)
(3.3486296e-06 8.2345102e-06 1.8997885)
(8.304797e-07 8.0309996e-06 1.8997897)
(-1.5815432e-06 7.8056903e-06 1.8997893)
(-3.7724307e-06 7.5305813e-06 1.8997873)
(-5.5732102e-06 7.1581205e-06 1.8997838)
(-5.0726351e-06 6.4998017e-06 1.8997791)
(-1.9067091e-06 5.3883139e-06 1.8997772)
(-2.83947e-08 3.6426046e-06 1.8997812)
(6.0103651e-06 3.5465918e-06 1.8997819)
(8.2345102e-06 3.3486296e-06 1.8997885)
(3.1332099e-06 3.1332099e-06 1.8997912)
(5.9877598e-07 2.9104777e-06 1.8997923)
(-1.8465653e-06 2.6688304e-06 1.8997917)
(-4.0675307e-06 2.3944736e-06 1.8997896)
(-5.8574882e-06 2.0973897e-06 1.8997859)
(-5.2803032e-06 1.8277699e-06 1.8997809)
(-1.9824638e-06 1.6740511e-06 1.8997789)
(-9.5403407e-08 1.1766357e-06 1.8997826)
(5.8492626e-06 1.0275959e-06 1.8997832)
(8.0309996e-06 8.3047969e-07 1.8997897)
(2.9104777e-06 5.9877599e-07 1.8997923)
(3.6610021e-07 3.6610021e-07 1.8997933)
(-2.0975473e-06 1.34234e-07 1.8997925)
(-4.3438714e-06 -1.0537219e-07 1.8997902)
(-6.1399138e-06 -3.517418e-07 1.8997863)
(-5.4959737e-06 -5.7671556e-07 1.8997812)
(-2.0604279e-06 -7.0665336e-07 1.8997791)
(-1.7743444e-07 -1.1032771e-06 1.8997824)
(5.6642091e-06 -1.346147e-06 1.8997829)
(7.8056903e-06 -1.5815432e-06 1.8997893)
(2.6688304e-06 -1.8465653e-06 1.8997917)
(1.34234e-07 -2.0975473e-06 1.8997925)
(-2.3180377e-06 -2.3180377e-06 1.8997916)
(-4.5535065e-06 -2.5183766e-06 1.8997892)
(-6.3288316e-06 -2.6957124e-06 1.8997852)
(-5.6352148e-06 -2.8379927e-06 1.8997799)
(-2.1124016e-06 -2.9189284e-06 1.8997777)
(-3.3827335e-07 -2.8758815e-06 1.8997808)
(5.3709965e-06 -3.4199609e-06 1.8997811)
(7.5305813e-06 -3.7724307e-06 1.8997873)
(2.3944736e-06 -4.0675307e-06 1.8997896)
(-1.053722e-07 -4.3438714e-06 1.8997902)
(-2.5183766e-06 -4.5535065e-06 1.8997892)
(-4.7215461e-06 -4.7215461e-06 1.8997866)
(-6.4595299e-06 -4.849303e-06 1.8997825)
(-5.7191897e-06 -4.9287435e-06 1.8997771)
(-2.1413636e-06 -4.955875e-06 1.8997749)
(-7.2151381e-07 -3.6619834e-06 1.8997782)
(4.7676599e-06 -4.8267086e-06 1.8997779)
(7.1581205e-06 -5.5732101e-06 1.8997838)
(2.0973897e-06 -5.8574882e-06 1.8997859)
(-3.5174181e-07 -6.1399139e-06 1.8997863)
(-2.6957124e-06 -6.3288316e-06 1.8997852)
(-4.849303e-06 -6.4595299e-06 1.8997825)
(-6.536029e-06 -6.536029e-06 1.8997783)
(-5.7417868e-06 -6.5341775e-06 1.8997729)
(-2.1395331e-06 -6.4330483e-06 1.8997707)
(-1.5029986e-06 -2.3927871e-06 1.8997754)
(3.4597697e-06 -3.5104966e-06 1.8997738)
(6.4998017e-06 -5.0726351e-06 1.8997791)
(1.8277698e-06 -5.2803033e-06 1.8997809)
(-5.7671556e-07 -5.4959738e-06 1.8997812)
(-2.8379927e-06 -5.6352148e-06 1.8997799)
(-4.9287435e-06 -5.7191897e-06 1.8997771)
(-6.5341775e-06 -5.7417868e-06 1.8997729)
(-5.616209e-06 -5.616209e-06 1.8997676)
(-2.0402344e-06 -5.0984202e-06 1.8997656)
(-1.8392233e-06 -5.3475128e-07 1.8997754)
(2.0878119e-06 -8.7097604e-07 1.8997733)
(5.3883139e-06 -1.9067091e-06 1.8997772)
(1.6740511e-06 -1.9824638e-06 1.8997789)
(-7.0665335e-07 -2.0604279e-06 1.8997791)
(-2.9189283e-06 -2.1124016e-06 1.8997777)
(-4.955875e-06 -2.1413636e-06 1.8997749)
(-6.4330483e-06 -2.1395331e-06 1.8997707)
(-5.0984203e-06 -2.0402344e-06 1.8997656)
(-1.6217444e-06 -1.6217444e-06 1.8997652)
(-6.0306658e-06 -6.0306657e-06 1.8994692)
(5.1182964e-06 2.3964798e-06 1.8994671)
(1.505644e-05 7.0668416e-07 1.8994736)
(5.7592477e-06 6.4117671e-07 1.8994764)
(1.6773237e-06 5.3717942e-07 1.8994775)
(-2.1081535e-06 4.0781502e-07 1.8994771)
(-5.1855037e-06 1.5504205e-07 1.8994752)
(-6.6662603e-06 -4.8868978e-07 1.8994721)
(-3.6831704e-06 -1.9947957e-06 1.8994686)
(-2.6870643e-07 -2.7746857e-06 1.8994688)
(2.3964798e-06 5.1182964e-06 1.8994671)
(1.1855646e-05 1.1855646e-05 1.899469)
(1.3301137e-05 9.8301491e-06 1.8994748)
(5.589743e-06 9.5949556e-06 1.8994775)
(1.443962e-06 9.3361438e-06 1.8994785)
(-2.4902908e-06 9.034461e-06 1.899478)
(-6.0820085e-06 8.561874e-06 1.899476)
(-8.816098e-06 7.567831e-06 1.8994724)
(-5.9691663e-06 5.2058159e-06 1.8994676)
(-1.0485964e-06 2.7876986e-06 1.899467)
(7.0668415e-07 1.505644e-05 1.8994736)
(9.8301491e-06 1.3301137e-05 1.8994748)
(1.2795749e-05 1.2795749e-05 1.8994804)
(5.2652424e-06 1.2452994e-05 1.899483)
(1.116829e-06 1.2118394e-05 1.8994839)
(-2.8824232e-06 1.1743557e-05 1.8994833)
(-6.6521337e-06 1.1284751e-05 1.8994811)
(-1.0022318e-05 1.0676845e-05 1.8994772)
(-8.4633027e-06 9.5831183e-06 1.8994717)
(-2.6868237e-06 7.7787366e-06 1.89947)
(6.4117673e-07 5.7592477e-06 1.8994764)
(9.5949556e-06 5.589743e-06 1.8994775)
(1.2452994e-05 5.2652424e-06 1.899483)
(4.9123874e-06 4.9123875e-06 1.8994854)
(7.3452487e-07 4.5456541e-06 1.8994862)
(-3.3239341e-06 4.1458005e-06 1.8994854)
(-7.1487201e-06 3.6894274e-06 1.899483)
(-1.051773e-05 3.1947222e-06 1.899479)
(-8.8672751e-06 2.7335469e-06 1.8994732)
(-2.8529781e-06 2.4421724e-06 1.8994713)
(5.3717942e-07 1.6773237e-06 1.8994775)
(9.3361437e-06 1.443962e-06 1.8994785)
(1.2118394e-05 1.116829e-06 1.8994839)
(4.5456541e-06 7.3452489e-07 1.8994862)
(3.50242e-07 3.5024201e-07 1.8994868)
(-3.7386499e-06 -3.3951349e-08 1.8994859)
(-7.6032119e-06 -4.3103002e-07 1.8994833)
(-1.0978199e-05 -8.3764331e-07 1.8994791)
(-9.2158526e-06 -1.2061023e-06 1.8994732)
(-2.9781983e-06 -1.4157012e-06 1.8994712)
(4.0781501e-07 -2.1081535e-06 1.8994771)
(9.034461e-06 -2.4902908e-06 1.899478)
(1.1743557e-05 -2.8824232e-06 1.8994833)
(4.1458004e-06 -3.3239341e-06 1.8994854)
(-3.3951366e-08 -3.7386499e-06 1.8994859)
(-4.1052062e-06 -4.1052062e-06 1.8994848)
(-7.9524121e-06 -4.4387868e-06 1.8994821)
(-1.1292803e-05 -4.735369e-06 1.8994777)
(-9.4453329e-06 -4.9739935e-06 1.8994717)
(-3.062577e-06 -5.1079565e-06 1.8994697)
(1.5504203e-07 -5.1855038e-06 1.8994752)
(8.561874e-06 -6.0820085e-06 1.899476)
(1.1284751e-05 -6.6521337e-06 1.8994811)
(3.6894274e-06 -7.1487201e-06 1.899483)
(-4.3103004e-07 -7.603212e-06 1.8994833)
(-4.4387868e-06 -7.9524121e-06 1.8994821)
(-8.2333748e-06 -8.2333748e-06 1.8994793)
(-1.1513406e-05 -8.449807e-06 1.8994748)
(-9.5884401e-06 -8.5867476e-06 1.8994687)
(-3.1121614e-06 -8.6314029e-06 1.8994666)
(-4.8868978e-07 -6.6662603e-06 1.8994721)
(7.567831e-06 -8.816098e-06 1.8994724)
(1.0676845e-05 -1.0022318e-05 1.8994772)
(3.1947222e-06 -1.051773e-05 1.899479)
(-8.3764333e-07 -1.0978199e-05 1.8994791)
(-4.735369e-06 -1.1292803e-05 1.8994777)
(-8.449807e-06 -1.1513406e-05 1.8994748)
(-1.1646175e-05 -1.1646175e-05 1.8994703)
(-9.6269288e-06 -1.163196e-05 1.8994641)
(-3.1072324e-06 -1.1366959e-05 1.899462)
(-1.9947957e-06 -3.6831704e-06 1.8994686)
(5.2058159e-06 -5.9691663e-06 1.8994676)
(9.5831182e-06 -8.4633028e-06 1.8994717)
(2.7335469e-06 -8.8672751e-06 1.8994732)
(-1.2061023e-06 -9.2158526e-06 1.8994732)
(-4.9739935e-06 -9.4453329e-06 1.8994717)
(-8.5867476e-06 -9.5884401e-06 1.8994687)
(-1.163196e-05 -9.6269288e-06 1.8994641)
(-9.3092238e-06 -9.3092239e-06 1.899458)
(-2.8471604e-06 -7.4205526e-06 1.8994562)
(-2.7746857e-06 -2.6870643e-07 1.8994688)
(2.7876986e-06 -1.0485965e-06 1.899467)
(7.7787366e-06 -2.6868237e-06 1.89947)
(2.4421724e-06 -2.8529781e-06 1.8994713)
(-1.4157012e-06 -2.9781983e-06 1.8994712)
(-5.1079565e-06 -3.062577e-06 1.8994697)
(-8.6314029e-06 -3.1121614e-06 1.8994666)
(-1.1366959e-05 -3.1072324e-06 1.899462)
(-7.4205526e-06 -2.8471604e-06 1.8994562)
(-1.2185611e-06 -1.2185612e-06 1.8994573)
(-7.0489358e-06 -7.0489358e-06 1.8990149)
(7.1581709e-06 3.1945712e-06 1.8990128)
(1.9378824e-05 1.1858385e-06 1.8990187)
(7.5157736e-06 1.0867077e-06 1.8990211)
(1.9044072e-06 9.4774216e-07 1.8990219)
(-3.3602644e-06 7.7289136e-07 1.8990213)
(-7.8098757e-06 4.3845008e-07 1.8990192)
(-1.0245709e-05 -4.2464556e-07 1.8990158)
(-5.7081471e-06 -2.5893547e-06 1.8990118)
(-3.5169869e-07 -3.6346957e-06 1.8990115)
(3.1945712e-06 7.1581709e-06 1.8990128)
(1.5392945e-05 1.5392945e-05 1.8990143)
(1.727096e-05 1.2945062e-05 1.8990196)
(7.2776772e-06 1.2616404e-05 1.8990219)
(1.5905908e-06 1.2264753e-05 1.8990226)
(-3.8695565e-06 1.1849012e-05 1.8990219)
(-9.0074126e-06 1.1205381e-05 1.8990197)
(-1.3273514e-05 9.8611661e-06 1.8990159)
(-8.9181973e-06 6.5087275e-06 1.8990106)
(-1.3970396e-06 3.2626683e-06 1.8990098)
(1.1858385e-06 1.9378824e-05 1.8990187)
(1.2945062e-05 1.727096e-05 1.8990196)
(1.6602283e-05 1.6602283e-05 1.8990246)
(6.8354651e-06 1.6136505e-05 1.8990268)
(1.1370146e-06 1.5676368e-05 1.8990275)
(-4.4196368e-06 1.5154976e-05 1.8990266)
(-9.7977211e-06 1.4512267e-05 1.8990242)
(-1.4942362e-05 1.3670635e-05 1.8990201)
(-1.2306645e-05 1.2137452e-05 1.8990141)
(-3.5977579e-06 9.6755566e-06 1.8990123)
(1.0867077e-06 7.5157736e-06 1.8990211)
(1.2616404e-05 7.2776772e-06 1.8990219)
(1.6136505e-05 6.8354651e-06 1.8990268)
(6.3517626e-06 6.3517626e-06 1.8990288)
(6.0906157e-07 5.8457686e-06 1.8990294)
(-5.0336576e-06 5.2917121e-06 1.8990283)
(-1.0491753e-05 4.6566096e-06 1.8990257)
(-1.5648329e-05 3.9687932e-06 1.8990215)
(-1.2913275e-05 3.316521e-06 1.8990153)
(-3.8589353e-06 2.8826452e-06 1.8990133)
(9.4774218e-07 1.9044072e-06 1.8990219)
(1.2264753e-05 1.5905908e-06 1.8990226)
(1.5676368e-05 1.1370146e-06 1.8990275)
(5.8457686e-06 6.090616e-07 1.8990294)
(7.6964077e-08 7.6964086e-08 1.8990298)
(-5.6087957e-06 -4.56344e-07 1.8990286)
(-1.112064e-05 -1.0081985e-06 1.8990258)
(-1.6282451e-05 -1.571895e-06 1.8990214)
(-1.3392793e-05 -2.0807858e-06 1.899015)
(-4.0316337e-06 -2.3698078e-06 1.8990129)
(7.7289135e-07 -3.3602643e-06 1.8990213)
(1.1849012e-05 -3.8695565e-06 1.8990219)
(1.5154976e-05 -4.4196368e-06 1.8990266)
(5.2917121e-06 -5.0336576e-06 1.8990283)
(-4.5634402e-07 -5.6087958e-06 1.8990286)
(-6.1188202e-06 -6.1188202e-06 1.8990273)
(-1.1607304e-05 -6.5837588e-06 1.8990244)
(-1.6720916e-05 -6.9986994e-06 1.8990198)
(-1.3711188e-05 -7.3342713e-06 1.8990133)
(-4.1479573e-06 -7.5231715e-06 1.8990111)
(4.3845006e-07 -7.8098757e-06 1.8990192)
(1.1205381e-05 -9.0074126e-06 1.8990197)
(1.4512267e-05 -9.7977211e-06 1.8990242)
(4.6566096e-06 -1.0491753e-05 1.8990257)
(-1.0081985e-06 -1.112064e-05 1.8990258)
(-6.5837588e-06 -1.1607304e-05 1.8990244)
(-1.2000519e-05 -1.2000519e-05 1.8990213)
(-1.7032963e-05 -1.2308515e-05 1.8990167)
(-1.3917265e-05 -1.2513699e-05 1.8990101)
(-4.2205339e-06 -1.2594485e-05 1.8990079)
(-4.2464556e-07 -1.0245709e-05 1.8990158)
(9.8611661e-06 -1.3273514e-05 1.8990159)
(1.3670635e-05 -1.4942362e-05 1.8990201)
(3.9687931e-06 -1.5648329e-05 1.8990215)
(-1.571895e-06 -1.6282451e-05 1.8990214)
(-6.9986994e-06 -1.6720916e-05 1.8990198)
(-1.2308515e-05 -1.7032964e-05 1.8990167)
(-1.7234096e-05 -1.7234096e-05 1.8990119)
(-1.3997158e-05 -1.7245814e-05 1.8990053)
(-4.2287424e-06 -1.6868765e-05 1.899003)
(-2.5893548e-06 -5.7081472e-06 1.8990118)
(6.5087275e-06 -8.9181973e-06 1.8990106)
(1.2137452e-05 -1.2306645e-05 1.8990141)
(3.316521e-06 -1.2913275e-05 1.8990153)
(-2.0807858e-06 -1.3392793e-05 1.899015)
(-7.3342713e-06 -1.3711188e-05 1.8990133)
(-1.2513699e-05 -1.3917265e-05 1.8990101)
(-1.7245814e-05 -1.3997158e-05 1.8990053)
(-1.3551934e-05 -1.3551935e-05 1.8989987)
(-3.8434858e-06 -9.7691935e-06 1.8989966)
(-3.6346957e-06 -3.5169869e-07 1.8990115)
(3.2626683e-06 -1.3970396e-06 1.8990098)
(9.6755566e-06 -3.5977579e-06 1.8990123)
(2.8826452e-06 -3.8589353e-06 1.8990133)
(-2.3698078e-06 -4.0316337e-06 1.8990129)
(-7.5231715e-06 -4.1479572e-06 1.8990111)
(-1.2594485e-05 -4.2205339e-06 1.8990079)
(-1.6868765e-05 -4.2287424e-06 1.899003)
(-9.7691935e-06 -3.8434858e-06 1.8989966)
(-4.4600137e-07 -4.4600138e-07 1.8989983)
(-8.0657207e-06 -8.0657207e-06 1.8984114)
(8.9670327e-06 3.8775745e-06 1.8984093)
(2.3299664e-05 1.558188e-06 1.8984148)
(8.9651772e-06 1.4257664e-06 1.8984168)
(1.8798476e-06 1.252846e-06 1.8984174)
(-4.8238527e-06 1.0323683e-06 1.8984166)
(-1.0621862e-05 6.1486075e-07 1.8984143)
(-1.4036359e-05 -4.6231382e-07 1.8984108)
(-8.0073143e-06 -3.2658675e-06 1.8984067)
(-5.8738347e-07 -4.4980688e-06 1.8984061)
(3.8775745e-06 8.9670327e-06 1.8984093)
(1.8590941e-05 1.8590941e-05 1.8984106)
(2.0847856e-05 1.5733279e-05 1.8984155)
(8.6598352e-06 1.5314409e-05 1.8984175)
(1.4864495e-06 1.4873418e-05 1.898418)
(-5.4618379e-06 1.4345775e-05 1.898417)
(-1.2116544e-05 1.3531358e-05 1.8984146)
(-1.7917088e-05 1.1844462e-05 1.8984107)
(-1.2043069e-05 7.5228607e-06 1.8984053)
(-1.8195848e-06 3.5584712e-06 1.8984044)
(1.558188e-06 2.3299664e-05 1.8984148)
(1.5733279e-05 2.0847856e-05 1.8984155)
(2.0023132e-05 2.0023132e-05 1.8984201)
(8.1053156e-06 1.9440014e-05 1.898422)
(9.112132e-07 1.8859303e-05 1.8984224)
(-6.1659121e-06 1.8196138e-05 1.8984213)
(-1.3123175e-05 1.737375e-05 1.8984188)
(-2.0044857e-05 1.6303843e-05 1.8984146)
(-1.6293305e-05 1.4333487e-05 1.8984085)
(-4.551773e-06 1.12472e-05 1.8984066)
(1.4257664e-06 8.9651772e-06 1.8984168)
(1.5314409e-05 8.6598352e-06 1.8984175)
(1.9440014e-05 8.1053156e-06 1.898422)
(7.496007e-06 7.496007e-06 1.8984238)
(2.4257327e-07 6.8555029e-06 1.898424)
(-6.9473915e-06 6.1519071e-06 1.8984228)
(-1.4008838e-05 5.3427965e-06 1.8984201)
(-2.0957351e-05 4.467752e-06 1.8984157)
(-1.7099712e-05 3.6274265e-06 1.8984094)
(-4.9058711e-06 3.0539469e-06 1.8984073)
(1.252846e-06 1.8798476e-06 1.8984174)
(1.4873418e-05 1.4864495e-06 1.898418)
(1.8859303e-05 9.1121321e-07 1.8984224)
(6.8555029e-06 2.4257328e-07 1.898424)
(-4.3288668e-07 -4.3288666e-07 1.8984242)
(-7.6786184e-06 -1.1111759e-06 1.8984228)
(-1.480733e-05 -1.8138955e-06 1.8984199)
(-2.1760227e-05 -2.5302804e-06 1.8984154)
(-1.7707111e-05 -3.1756192e-06 1.8984089)
(-5.1252526e-06 -3.5421801e-06 1.8984067)
(1.0323683e-06 -4.8238527e-06 1.8984166)
(1.4345775e-05 -5.4618379e-06 1.898417)
(1.8196138e-05 -6.165912e-06 1.8984213)
(6.1519071e-06 -6.9473915e-06 1.8984228)
(-1.1111759e-06 -7.6786185e-06 1.8984228)
(-8.3284004e-06 -8.3284004e-06 1.8984213)
(-1.5427943e-05 -8.9213787e-06 1.8984183)
(-2.2319075e-05 -9.4513525e-06 1.8984136)
(-1.8111612e-05 -9.8805049e-06 1.898407)
(-5.272432e-06 -1.0121608e-05 1.8984048)
(6.1486074e-07 -1.0621862e-05 1.8984143)
(1.3531358e-05 -1.2116544e-05 1.8984146)
(1.737375e-05 -1.3123175e-05 1.8984188)
(5.3427965e-06 -1.4008838e-05 1.8984201)
(-1.8138955e-06 -1.480733e-05 1.8984199)
(-8.9213787e-06 -1.5427943e-05 1.8984183)
(-1.5930282e-05 -1.5930282e-05 1.8984151)
(-2.2719353e-05 -1.6326596e-05 1.8984103)
(-1.8377366e-05 -1.6597909e-05 1.8984037)
(-5.3663555e-06 -1.6716049e-05 1.8984014)
(-4.6231381e-07 -1.4036359e-05 1.8984108)
(1.1844462e-05 -1.7917088e-05 1.8984107)
(1.6303843e-05 -2.0044857e-05 1.8984146)
(4.467752e-06 -2.0957351e-05 1.8984157)
(-2.5302805e-06 -2.1760227e-05 1.8984154)
(-9.4513525e-06 -2.2319075e-05 1.8984136)
(-1.6326596e-05 -2.2719353e-05 1.8984103)
(-2.2986702e-05 -2.2986702e-05 1.8984055)
(-1.8501065e-05 -2.3036683e-05 1.8983988)
(-5.3905721e-06 -2.2599668e-05 1.8983964)
(-3.2658675e-06 -8.0073142e-06 1.8984067)
(7.5228607e-06 -1.2043069e-05 1.8984053)
(1.4333487e-05 -1.6293305e-05 1.8984085)
(3.6274265e-06 -1.7099712e-05 1.8984094)
(-3.1756192e-06 -1.7707111e-05 1.8984089)
(-9.8805049e-06 -1.8111612e-05 1.898407)
(-1.6597909e-05 -1.8377366e-05 1.8984037)
(-2.3036683e-05 -1.8501065e-05 1.8983988)
(-1.7990332e-05 -1.7990332e-05 1.8983921)
(-4.9293406e-06 -1.2208834e-05 1.8983899)
(-4.4980688e-06 -5.8738345e-07 1.8984061)
(3.5584712e-06 -1.8195848e-06 1.8984044)
(1.12472e-05 -4.551773e-06 1.8984066)
(3.0539469e-06 -4.9058711e-06 1.8984073)
(-3.5421801e-06 -5.1252526e-06 1.8984067)
(-1.0121608e-05 -5.272432e-06 1.8984048)
(-1.6716049e-05 -5.3663555e-06 1.8984014)
(-2.2599668e-05 -5.3905722e-06 1.8983964)
(-1.2208834e-05 -4.9293406e-06 1.8983899)
(3.909261e-07 3.9092609e-07 1.8983915)
(-9.0755717e-06 -9.0755717e-06 1.897663)
(1.0591168e-05 4.4839274e-06 1.897661)
(2.6891152e-05 1.8657624e-06 1.8976661)
(1.0160173e-05 1.7005159e-06 1.8976679)
(1.6439117e-06 1.4950194e-06 1.8976683)
(-6.4578371e-06 1.2306809e-06 1.8976673)
(-1.3565592e-05 7.3238278e-07 1.8976649)
(-1.7926922e-05 -5.5263608e-07 1.8976613)
(-1.0420527e-05 -3.9784845e-06 1.8976571)
(-8.9321047e-07 -5.3702057e-06 1.8976564)
(4.4839274e-06 1.0591168e-05 1.897661)
(2.1532503e-05 2.1532503e-05 1.8976622)
(2.410774e-05 1.8279788e-05 1.8976667)
(9.7894299e-06 1.7773187e-05 1.8976684)
(1.1740767e-06 1.7246327e-05 1.8976687)
(-7.2204738e-06 1.6610989e-05 1.8976676)
(-1.5348909e-05 1.5630982e-05 1.8976651)
(-2.2637789e-05 1.3612024e-05 1.8976611)
(-1.5238097e-05 8.344952e-06 1.8976556)
(-2.2849317e-06 3.7136722e-06 1.8976547)
(1.8657624e-06 2.6891152e-05 1.8976661)
(1.8279788e-05 2.410774e-05 1.8976667)
(2.3131837e-05 2.3131837e-05 1.897671)
(9.1267118e-06 2.2435717e-05 1.8976726)
(4.8171319e-07 2.1738943e-05 1.8976728)
(-8.0731818e-06 2.0939102e-05 1.8976716)
(-1.6564558e-05 1.994301e-05 1.8976689)
(-2.5212952e-05 1.865292e-05 1.8976647)
(-2.0318879e-05 1.6254907e-05 1.8976586)
(-5.5244903e-06 1.2571686e-05 1.8976566)
(1.7005159e-06 1.0160173e-05 1.8976679)
(1.7773188e-05 9.7894299e-06 1.8976684)
(2.2435717e-05 9.1267118e-06 1.8976726)
(8.3965367e-06 8.3965366e-06 1.8976741)
(-3.2253812e-07 7.6264066e-06 1.8976742)
(-9.016407e-06 6.7784519e-06 1.8976728)
(-1.7635092e-05 5.8010327e-06 1.89767)
(-2.6325892e-05 4.7455074e-06 1.8976655)
(-2.1319331e-05 3.7221131e-06 1.8976593)
(-5.9681524e-06 3.0138488e-06 1.8976571)
(1.4950194e-06 1.6439117e-06 1.8976683)
(1.7246327e-05 1.1740767e-06 1.8976687)
(2.1738943e-05 4.8171319e-07 1.8976728)
(7.6264066e-06 -3.2253812e-07 1.8976742)
(-1.1363715e-06 -1.1363715e-06 1.8976742)
(-9.8985557e-06 -1.9547824e-06 1.8976726)
(-1.8597502e-05 -2.8035652e-06 1.8976696)
(-2.7291871e-05 -3.6675305e-06 1.897665)
(-2.2050537e-05 -4.4448879e-06 1.8976586)
(-6.2327547e-06 -4.8864746e-06 1.8976564)
(1.230681e-06 -6.4578371e-06 1.8976673)
(1.6610989e-05 -7.2204738e-06 1.8976676)
(2.0939102e-05 -8.0731818e-06 1.8976716)
(6.778452e-06 -9.016407e-06 1.8976728)
(-1.9547824e-06 -9.8985558e-06 1.8976726)
(-1.0683601e-05 -1.0683601e-05 1.897671)
(-1.934784e-05 -1.1400656e-05 1.8976679)
(-2.7967215e-05 -1.2041973e-05 1.8976631)
(-2.2538275e-05 -1.2561193e-05 1.8976566)
(-6.4097391e-06 -1.2851608e-05 1.8976543)
(7.323828e-07 -1.3565592e-05 1.8976649)
(1.5630982e-05 -1.5348909e-05 1.8976651)
(1.994301e-05 -1.6564558e-05 1.8976689)
(5.8010327e-06 -1.7635092e-05 1.89767)
(-2.8035652e-06 -1.8597502e-05 1.8976696)
(-1.1400656e-05 -1.934784e-05 1.8976679)
(-1.9955874e-05 -1.9955874e-05 1.8976646)
(-2.8452408e-05 -2.0436989e-05 1.8976598)
(-2.2860173e-05 -2.0769793e-05 1.8976532)
(-6.5231702e-06 -2.0918921e-05 1.8976509)
(-5.5263604e-07 -1.7926922e-05 1.8976613)
(1.3612024e-05 -2.2637789e-05 1.8976611)
(1.865292e-05 -2.5212952e-05 1.8976647)
(4.7455074e-06 -2.6325892e-05 1.8976655)
(-3.6675305e-06 -2.7291871e-05 1.897665)
(-1.2041973e-05 -2.7967215e-05 1.8976631)
(-2.0436989e-05 -2.8452408e-05 1.8976598)
(-2.8781133e-05 -2.8781133e-05 1.8976549)
(-2.3020207e-05 -2.8865639e-05 1.8976482)
(-6.5588673e-06 -2.8385447e-05 1.8976459)
(-3.9784845e-06 -1.0420527e-05 1.8976571)
(8.344952e-06 -1.5238097e-05 1.8976556)
(1.6254907e-05 -2.0318879e-05 1.8976586)
(3.7221131e-06 -2.1319331e-05 1.8976593)
(-4.4448879e-06 -2.2050537e-05 1.8976586)
(-1.2561193e-05 -2.2538275e-05 1.8976566)
(-2.0769793e-05 -2.2860173e-05 1.8976532)
(-2.8865639e-05 -2.3020207e-05 1.8976482)
(-2.2464487e-05 -2.2464487e-05 1.8976416)
(-6.0429782e-06 -1.4692468e-05 1.8976393)
(-5.3702057e-06 -8.9321047e-07 1.8976564)
(3.7136722e-06 -2.2849317e-06 1.8976547)
(1.2571686e-05 -5.5244903e-06 1.8976566)
(3.0138488e-06 -5.9681524e-06 1.8976571)
(-4.8864746e-06 -6.2327547e-06 1.8976564)
(-1.2851608e-05 -6.4097391e-06 1.8976543)
(-2.0918921e-05 -6.5231702e-06 1.8976509)
(-2.8385447e-05 -6.5588673e-06 1.8976459)
(-1.4692468e-05 -6.0429782e-06 1.8976393)
(1.2131513e-06 1.2131513e-06 1.8976409)
(-1.0061204e-05 -1.0061204e-05 1.8967746)
(1.2060204e-05 5.0291642e-06 1.8967726)
(3.0186876e-05 2.1276183e-06 1.8967774)
(1.1143266e-05 1.9303868e-06 1.8967789)
(1.24172e-06 1.6936497e-06 1.8967791)
(-8.2087111e-06 1.3872975e-06 1.896778)
(-1.6576105e-05 8.1145148e-07 1.8967756)
(-2.1838816e-05 -6.7334157e-07 1.896772)
(-1.2869209e-05 -4.700726e-06 1.8967678)
(-1.2338644e-06 -6.2386538e-06 1.8967671)
(5.0291642e-06 1.2060204e-05 1.8967726)
(2.4249026e-05 2.4249026e-05 1.8967737)
(2.7088099e-05 2.0620266e-05 1.8967778)
(1.0709297e-05 2.0028913e-05 1.8967794)
(6.9863075e-07 1.9419676e-05 1.8967795)
(-9.0909093e-06 1.8681044e-05 1.8967783)
(-1.8636744e-05 1.7541996e-05 1.8967757)
(-2.7350994e-05 1.5204171e-05 1.8967717)
(-1.8434521e-05 9.0231939e-06 1.8967663)
(-2.7717922e-06 3.7607457e-06 1.8967654)
(2.1276183e-06 3.0186876e-05 1.8967774)
(2.0620266e-05 2.7088099e-05 1.8967778)
(2.5966763e-05 2.5966763e-05 1.8967818)
(9.9426761e-06 2.5162177e-05 1.8967833)
(-1.0614856e-07 2.4354079e-05 1.8967833)
(-1.0086391e-05 2.3423051e-05 1.896782)
(-2.0052979e-05 2.2260029e-05 1.8967792)
(-3.0357619e-05 2.0758883e-05 1.896775)
(-2.4312634e-05 1.7947462e-05 1.896769)
(-6.4963126e-06 1.3693146e-05 1.8967671)
(1.9303868e-06 1.1143266e-05 1.8967789)
(2.0028913e-05 1.0709297e-05 1.8967794)
(2.5162177e-05 9.9426761e-06 1.8967833)
(9.0966133e-06 9.0966133e-06 1.8967846)
(-1.0404954e-06 8.2021664e-06 1.8967845)
(-1.118496e-05 7.2156565e-06 1.896783)
(-2.1300912e-05 6.0765025e-06 1.8967801)
(-3.1663561e-05 4.8479464e-06 1.8967757)
(-2.5500259e-05 3.6480057e-06 1.8967695)
(-7.0261081e-06 2.8101982e-06 1.8967674)
(1.6936497e-06 1.24172e-06 1.8967791)
(1.9419676e-05 6.9863075e-07 1.8967795)
(2.4354079e-05 -1.0614856e-07 1.8967833)
(8.2021664e-06 -1.0404954e-06 1.8967845)
(-1.9871054e-06 -1.9871054e-06 1.8967843)
(-1.2212055e-05 -2.9400402e-06 1.8967827)
(-2.2420689e-05 -3.9291868e-06 1.8967796)
(-3.2786116e-05 -4.9348225e-06 1.8967751)
(-2.6350382e-05 -5.8390563e-06 1.8967687)
(-7.33412e-06 -6.3527623e-06 1.8967666)
(1.3872975e-06 -8.2087111e-06 1.896778)
(1.8681044e-05 -9.0909093e-06 1.8967783)
(2.3423051e-05 -1.0086391e-05 1.896782)
(7.2156564e-06 -1.118496e-05 1.896783)
(-2.9400402e-06 -1.2212055e-05 1.8967827)
(-1.3127041e-05 -1.3127041e-05 1.8967809)
(-2.3295695e-05 -1.396338e-05 1.8967778)
(-3.3573431e-05 -1.4711773e-05 1.8967731)
(-2.6918198e-05 -1.5317611e-05 1.8967667)
(-7.5398141e-06 -1.5655394e-05 1.8967644)
(8.1145148e-07 -1.6576105e-05 1.8967756)
(1.7541996e-05 -1.8636744e-05 1.8967757)
(2.2260029e-05 -2.0052979e-05 1.8967792)
(6.0765025e-06 -2.1300912e-05 1.8967801)
(-3.9291868e-06 -2.2420689e-05 1.8967796)
(-1.396338e-05 -2.3295695e-05 1.8967778)
(-2.4005421e-05 -2.4005421e-05 1.8967745)
(-3.4140347e-05 -2.4568115e-05 1.8967697)
(-2.7294003e-05 -2.4959431e-05 1.8967632)
(-7.6719025e-06 -2.5135599e-05 1.8967609)
(-6.7334157e-07 -2.1838816e-05 1.896772)
(1.5204171e-05 -2.7350994e-05 1.8967717)
(2.0758883e-05 -3.0357619e-05 1.896775)
(4.8479465e-06 -3.1663561e-05 1.8967757)
(-4.9348225e-06 -3.2786116e-05 1.8967751)
(-1.4711773e-05 -3.3573431e-05 1.8967731)
(-2.4568115e-05 -3.4140347e-05 1.8967697)
(-3.452744e-05 -3.452744e-05 1.8967649)
(-2.7485682e-05 -3.4643246e-05 1.8967583)
(-7.7159827e-06 -3.4125254e-05 1.896756)
(-4.700726e-06 -1.2869209e-05 1.8967678)
(9.0231939e-06 -1.8434521e-05 1.8967663)
(1.7947462e-05 -2.4312634e-05 1.896769)
(3.6480056e-06 -2.5500259e-05 1.8967695)
(-5.8390563e-06 -2.6350382e-05 1.8967687)
(-1.5317611e-05 -2.6918198e-05 1.8967667)
(-2.4959431e-05 -2.7294003e-05 1.8967632)
(-3.4643246e-05 -2.7485682e-05 1.8967583)
(-2.6891817e-05 -2.6891817e-05 1.8967518)
(-7.1539099e-06 -1.717129e-05 1.8967496)
(-6.2386538e-06 -1.2338644e-06 1.8967671)
(3.7607457e-06 -2.7717922e-06 1.8967654)
(1.3693146e-05 -6.4963126e-06 1.8967671)
(2.8101982e-06 -7.0261081e-06 1.8967674)
(-6.3527623e-06 -7.33412e-06 1.8967666)
(-1.5655394e-05 -7.5398142e-06 1.8967644)
(-2.5135599e-05 -7.6719025e-06 1.8967609)
(-3.4125254e-05 -7.7159827e-06 1.896756)
(-1.717129e-05 -7.1539099e-06 1.8967496)
(2.0045444e-06 2.0045444e-06 1.8967511)
(-1.1007057e-05 -1.1007057e-05 1.8957516)
(1.3392046e-05 5.5208539e-06 1.8957498)
(3.3203368e-05 2.3536262e-06 1.8957541)
(1.1946427e-05 2.1255806e-06 1.8957555)
(7.1260777e-07 1.8590985e-06 1.8957556)
(-1.0028514e-05 1.5127203e-06 1.8957544)
(-1.9596493e-05 8.6300625e-07 1.8957519)
(-2.5710359e-05 -8.1225096e-07 1.8957484)
(-1.5304333e-05 -5.4163671e-06 1.8957443)
(-1.5915069e-06 -7.0899545e-06 1.8957435)
(5.5208539e-06 1.3392046e-05 1.8957498)