/*--------------------------------*- C++ -*----------------------------------*\
| =========                 |                                                 |
| \\      /  F ield         | OpenFOAM: The Open Source CFD Toolbox           |
|  \\    /   O peration     | Version:  v2106                                 |
|   \\  /    A nd           | Website:  www.openfoam.com                      |
|    \\/     M anipulation  |                                                 |
\*---------------------------------------------------------------------------*/
FoamFile
{
    version     2.0;
    format      ascii;
    arch        "LSB;label=32;scalar=64";
    class       volScalarField;
    location    "30";
    object      gradTy;
}
// * * * * * * * * * * * * * * * * * * * * * * * * * * * * * * * * * * * * * //

dimensions      [0 -1 0 1 0 0 0];

internalField   nonuniform List<scalar> 
4000
(
-0.00014853874
0.0003078288
3.1642109e-05
4.7910287e-07
1.4231654e-05
2.6973389e-05
3.9584652e-05
4.7640208e-05
3.2650202e-05
-3.5656582e-06
0.00028341022
0.00046359108
0.00014705048
0.00012399375
0.00014881315
0.00017368375
0.00020415147
0.00023484009
0.0002280245
0.00015085086
0.00021968428
-8.766541e-05
-0.00011991305
-0.00010165722
-8.149734e-05
-5.8776529e-05
-2.5086669e-05
2.2742374e-05
6.6512882e-05
6.3843132e-05
-0.00037125963
-0.00038867008
-0.00036949697
-0.00035025438
-0.00033282832
-0.00031337348
-0.00028688826
-0.00024782839
-0.00019484468
-0.00013897077
-0.00020632196
-0.00017982767
-0.00015663195
-0.00013694699
-0.00011975105
-0.00010295419
-8.4876779e-05
-6.4124758e-05
-4.069076e-05
-1.8894095e-05
-3.2719598e-05
-7.3666108e-06
2.2618723e-05
4.9044074e-05
6.8558777e-05
8.3918327e-05
9.686622e-05
0.000107241
0.00011449006
0.00011798782
5.2444011e-05
7.3110823e-05
0.00011360034
0.00015462973
0.00017914544
0.00019345916
0.0002024681
0.00020630687
0.00020452703
0.00019876531
7.0213776e-05
6.3279326e-05
9.4086797e-05
0.00015487889
0.00018613038
0.00019906491
0.00020375421
0.00020112384
0.00019048728
0.00017498735
4.9736826e-05
-1.4690367e-06
-3.4252396e-05
3.9631708e-05
7.4605225e-05
8.4862367e-05
8.5352048e-05
7.7320816e-05
5.9215563e-05
3.6193812e-05
1.7359655e-05
-1.8856215e-05
-5.9813977e-05
-2.1525972e-05
-3.9400601e-06
2.7069319e-07
-4.4230591e-07
-5.4910139e-06
-1.5942237e-05
-2.8512762e-05
-0.00029066272
0.0005259252
-2.5667978e-05
-8.8549029e-05
-5.6438808e-05
-2.1392024e-05
1.7421252e-05
3.8600134e-05
-3.0798954e-05
-0.00013672387
0.00057093359
0.00083592833
0.00018476053
0.00013436927
0.00019448499
0.00026526092
0.00035836238
0.00044789068
0.00039634721
0.00017585085
0.00031092506
-0.00030354917
-0.000390634
-0.00035432035
-0.00030067594
-0.00023322523
-0.00013124614
1.1900148e-05
0.00012928335
0.00011464327
-0.00097068917
-0.00100146
-0.00096096472
-0.00091150195
-0.00086104763
-0.00080262145
-0.00072274071
-0.00060602834
-0.00045498939
-0.00030303719
-0.00054672472
-0.00047956771
-0.00041583307
-0.00035847258
-0.00030695257
-0.00025634621
-0.00020173238
-0.00013867945
-6.8269165e-05
-2.1341158e-06
-7.5095007e-05
-1.2349566e-06
8.8782388e-05
0.00016819484
0.00022708932
0.00027341505
0.00031223752
0.00034347163
0.00036533223
0.00037623364
0.00016952897
0.00022952113
0.00035215873
0.00047464652
0.00054875184
0.00059231329
0.00061880842
0.00062856504
0.00061963195
0.00059563144
0.00021398349
0.00016576329
0.00025196831
0.00042629279
0.00051971961
0.00055975598
0.00057281433
0.00056057951
0.00051983191
0.00045869617
0.00018770311
1.2379115e-05
-8.4336697e-05
0.00011512223
0.00021865444
0.00025166757
0.00025141645
0.00021873397
0.00014953311
8.3169686e-05
9.163682e-05
-1.4288112e-05
-0.00012885954
-2.892819e-05
2.309266e-05
3.720687e-05
3.3994078e-05
1.3206353e-05
-2.7141664e-05
-5.3157072e-05
-0.00039204905
0.00064802442
-5.0984109e-05
-0.0001276749
-8.0808103e-05
-2.3564838e-05
4.7519762e-05
8.8353443e-05
-6.6690365e-05
-0.00029209648
0.00062177799
0.00096284294
0.00013276271
7.3563905e-05
0.00016315214
0.00027891639
0.00044260976
0.00060458239
0.00048585488
9.1764762e-05
0.00016593485
-0.00060976446
-0.00072334417
-0.00067022296
-0.00058656629
-0.0004760649
-0.00030480915
-6.0946855e-05
0.00013237389
0.00011461686
-0.001473405
-0.001503229
-0.0014430155
-0.0013664511
-0.0012847573
-0.0011886185
-0.001056789
-0.00086509078
-0.00062508192
-0.00039143724
-0.00079879554
-0.00069468549
-0.00059344304
-0.00050052741
-0.00041561046
-0.00033173255
-0.00024129191
-0.00013713357
-2.2845864e-05
8.3613935e-05
-5.9440522e-05
6.8887351e-05
0.00022001711
0.00035064448
0.0004479854
0.00052496304
0.00058909917
0.00064003833
0.00067412544
0.00068932452
0.0003218624
0.0004337807
0.0006475284
0.00084889873
0.0009710561
0.0010434977
0.0010861314
0.0010977761
0.0010728078
0.0010154025
0.0003385125
0.00022430238
0.00038175762
0.00066148539
0.00081346474
0.00087993143
0.00089849101
0.0008666078
0.00077396218
0.00063724664
0.0003467368
-3.371314e-05
-0.00016608084
0.00014185059
0.00030757271
0.00036259809
0.0003568589
0.00028022454
0.00012749773
0.00010904561
0.00021624447
-9.1616506e-06
-0.00017784566
-2.6918669e-05
5.5799029e-05
7.9541131e-05
7.099811e-05
2.2135873e-05
-6.5717428e-05
3.6837443e-06
-0.00053708468
0.00070753935
-0.00011824297
-0.00020497249
-0.00014406577
-6.4480071e-05
4.3080838e-05
0.00011570001
-0.00010933105
-0.00042022535
0.00060366727
0.001022509
4.2675939e-05
-1.9924232e-05
9.7961358e-05
0.00025805081
0.00049587309
0.00074121231
0.00056495189
2.9763737e-05
3.5171928e-05
-0.0008773399
-0.0010072613
-0.0009355544
-0.00082275018
-0.00067066316
-0.00043173394
-9.0419037e-05
0.00016675691
0.00013522372
-0.0018966763
-0.0019224991
-0.0018413909
-0.001737988
-0.0016258348
-0.001493073
-0.0013107397
-0.0010469596
-0.00072622549
-0.00042349986
-0.00097799805
-0.00083750564
-0.00070002301
-0.0005726144
-0.00045510808
-0.00033881114
-0.00021349777
-6.9576098e-05
8.569264e-05
0.00022836442
2.0902769e-05
0.00020804936
0.00041881451
0.00059906561
0.00073390961
0.00084067591
0.00092903662
0.0009980682
0.0010416303
0.0010577691
0.00052691498
0.00070709508
0.0010100765
0.0012873392
0.0014561899
0.0015565742
0.0016135822
0.0016227596
0.0015718949
0.0014644979
0.00045292125
0.00030050937
0.00052200005
0.00089900021
0.0011065142
0.0011981906
0.0012191079
0.0011565033
0.00098361188
0.00072661143
0.00042323089
-0.00011269447
-0.0002882177
0.00011294829
0.00033524202
0.00041088881
0.00039494292
0.00025262713
-3.4948922e-05
6.5632683e-05
0.00028942006
-2.1474243e-05
-0.0002457681
-5.3007439e-05
5.6957532e-05
8.9664335e-05
7.3096369e-05
-1.7732635e-05
-0.00018390408
8.2848964e-05
-0.00066784066
0.00076919252
-0.00017776333
-0.00027385724
-0.00019962958
-9.8597581e-05
4.5039177e-05
0.00015023813
-0.00014376239
-0.00052799089
0.00061297442
0.0011030518
-1.8700267e-05
-8.3596314e-05
6.1497672e-05
0.00026419488
0.00057448448
0.00090165041
0.00066386047
-4.5844578e-07
-4.7760663e-05
-0.0010908104
-0.0012344087
-0.0011436735
-0.0010024237
-0.00081018614
-0.00050579814
-7.1243837e-05
0.00024058439
0.00019026017
-0.0022524816
-0.0022743478
-0.0021722836
-0.0020423628
-0.0019005031
-0.0017322754
-0.0015010453
-0.0011680093
-0.00077249479
-0.00040781912
-0.0010949909
-0.00091973122
-0.00074719969
-0.00058624387
-0.00043711233
-0.00028951362
-0.00013056089
5.1614941e-05
0.00024550719
0.00042164115
0.00016175618
0.00040642494
0.00067474299
0.00090305053
0.0010742008
0.001209602
0.0013210252
0.0014069453
0.0014585139
0.0014741169
0.00079624365
0.0010450794
0.0014336992
0.0017840217
0.0019979653
0.0021251502
0.0021953086
0.0021998957
0.0021183471
0.0019519411
0.00061984887
0.0004310473
0.00070922485
0.0011774298
0.0014377754
0.0015534979
0.0015752641
0.0014765364
0.0012070594
0.00079829728
0.00051261479
-0.00016561422
-0.00038949407
9.5889779e-05
0.00037069611
0.00046591598
0.00043786771
0.00021796139
-0.0002403714
-1.7184618e-05
0.00035616833
-2.8060162e-05
-0.00030815058
-7.8384386e-05
5.6525083e-05
9.7749569e-05
7.2128047e-05
-6.8656469e-05
-0.00033663409
0.00015453031
-0.00077964387
0.0008386656
-0.00022415049
-0.0003291659
-0.00024228277
-0.00012080871
5.7624218e-05
0.00019434987
-0.00016839943
-0.00062213413
0.00065132702
0.0012068204
-5.0377043e-05
-0.00011718945
5.4000207e-05
0.00029751782
0.00067770863
0.001083601
0.00078200801
-6.7160583e-06
-9.1860276e-05
-0.0012596918
-0.0014158701
-0.0013064331
-0.0011376325
-0.00090670594
-0.00053918294
-1.5211173e-05
0.00034584575
0.00027479613
-0.0025525954
-0.0025707277
-0.0024482182
-0.0022924901
-0.0021219061
-0.001919546
-0.0016412475
-0.0012417773
-0.00077588896
-0.00035366131
-0.0011619529
-0.00095359572
-0.00074724564
-0.00055386861
-0.0003743015
-0.00019673857
-5.6220376e-06
0.00021311773
0.00044359569
0.00065133617
0.00034770078
0.00064760776
0.00097140921
0.0012460574
0.0014520678
0.0016147368
0.0017479437
0.0018496609
0.0019084036
0.0019231774
0.001110213
0.0014253715
0.0018962962
0.0023168663
0.0025740648
0.0027267226
0.0028089889
0.0028080384
0.0026943072
0.0024661157
0.00082767367
0.00060165004
0.00093197305
0.0014866787
0.0017973316
0.0019358964
0.0019577915
0.0018212147
0.0014490827
0.00087615121
0.00062278842
-0.00019369558
-0.00046752866
9.6311729e-05
0.00042058732
0.00053453014
0.00049410374
0.00019260744
-0.00045095973
-0.00011287894
0.00042543826
-2.8296442e-05
-0.00036328578
-9.9346073e-05
5.8941858e-05
0.0001083944
7.3715631e-05
-0.00011979709
-0.00049921581
0.00021828371
-0.00087814243
0.00091078604
-0.00026153687
-0.00037487784
-0.00027593258
-0.00013490794
7.7032686e-05
0.00024422443
-0.00018567481
-0.00070610541
0.00070639422
0.0013229998
-6.2121655e-05
-0.00013047537
6.5675874e-05
0.00034828839
0.00079572031
0.0012773311
0.00091236758
3.7323547e-06
-0.00010836996
-0.0013940338
-0.0015618451
-0.0014343622
-0.0012391225
-0.0009711211
-0.00054300511
6.660214e-05
0.00047329136
0.00038103354
-0.0028061597
-0.0028205554
-0.0026783621
-0.0024978327
-0.0022997357
-0.0020647706
-0.0017414755
-0.0012785506
-0.00074610034
-0.00026979546
-0.0011891449
-0.000949175
-0.00071038115
-0.0004859339
-0.00027731905
-7.1294588e-05
0.00015032769
0.0004037677
0.00066885363
0.00090657995
0.0005650802
0.00091804547
0.0012951246
0.0016141628
0.0018533848
0.0020418096
0.0021954089
0.0023117816
0.0023770089
0.0023909661
0.0014509458
0.0018300782
0.0023799886
0.0028678015
0.0031662086
0.0033428637
0.0034361806
0.0034291588
0.0032832251
0.0029934917
0.0010597408
0.00079703327
0.001176388
0.0018133297
0.0021717632
0.0023318557
0.0023533633
0.0021789001
0.001703449
0.00096416995
0.00074658533
-0.00020374452
-0.00052701343
0.00011068687
0.00048174167
0.00061349912
0.00056092618
0.00017783199
-0.00065380399
-0.0002075357
0.00049681834
-2.3612279e-05
-0.00041181689
-0.00011587009
6.4488019e-05
0.00012185622
7.8445167e-05
-0.00016787714
-0.00066083388
0.00027839114
-0.00096638678
0.0009820127
-0.00029263415
-0.00041361247
-0.0003032285
-0.00014356876
0.00010050407
0.00029705517
-0.00019753148
-0.00078151822
0.00077029444
0.0014440471
-6.0525439e-05
-0.00013002484
8.9832877e-05
0.00040969065
0.00092145406
0.0014756041
0.0010490538
2.5879222e-05
-0.00010511216
-0.0015007373
-0.0016791841
-0.0015344879
-0.0013141077
-0.001010843
-0.0005249777
0.00016620811
0.00061548535
0.00050221006
-0.0030195998
-0.0030301942
-0.0028692415
-0.0026651178
-0.0024408953
-0.0021750175
-0.0018090151
-0.0012858503
-0.00069060026
-0.00016354368
-0.0011844034
-0.0009143597
-0.00064468791
-0.00039071481
-0.0001545876
7.8288341e-05
0.0003286489
0.00061480272
0.00091246309
0.0011784932
0.00080383625
0.0012075688
0.0016354574
0.0019966988
0.0022673376
0.0024799353
0.0026524977
0.002782352
0.0028533609
0.0028664471
0.0018063772
0.0022470012
0.0028722906
0.0034240523
0.0037614578
0.0039605667
0.0040638745
0.0040503948
0.0038728084
0.0035230036
0.0013051464
0.0010071108
0.0014327461
0.0021475738
0.0025511609
0.002731388
0.0027520241
0.002540322
0.001963403
0.0010603364
0.00087820057
-0.00020037283
-0.00057152427
0.00013562912
0.0005507824
0.00069931963
0.0006348775
0.00017192837
-0.00084510805
-0.00029570682
0.00056899824
-1.4988497e-05
-0.00045417629
-0.0001282638
7.2880292e-05
0.00013776636
8.5966533e-05
-0.00021203844
-0.00081710005
0.00033736278
-0.001045492
0.001050358
-0.00031876581
-0.00044664356
-0.00032551314
-0.00014822765
0.00012643697
0.00035109894
-0.00020518513
-0.00084916118
0.00083854194
0.0015652681
-4.9508023e-05
-0.00011975523
0.00012240682
0.00047746166
0.0010503035
0.0016734629
0.0011877868
5.6277982e-05
-8.7405957e-05
-0.0015844076
-0.0017724293
-0.0016114726
-0.001367404
-0.0010308767
-0.00049041415
0.00027790407
0.00076676243
0.00063300221
-0.0031974906
-0.0032042379
-0.0030255757
-0.0027992126
-0.0025503904
-0.0022554305
-0.0018492022
-0.0012692712
-0.00061515652
-4.0792633e-05
-0.0011538774
-0.00085546153
-0.00055666054
-0.00027486564
-1.2878455e-05
0.00024515825
0.0005224166
0.0008392102
0.0011673323
0.0014598686
0.0010561805
0.0015081306
0.0019840772
0.0023851204
0.0026852655
0.0029204155
0.0031105203
0.0032527056
0.0033288035
0.0033408894
0.0021678354
0.002667162
0.0033638366
0.0039759428
0.004349996
0.0045699947
0.0046822861
0.0046620955
0.0044537162
0.0040458886
0.0015565787
0.0012249566
0.001694062
0.0024821332
0.0029281076
0.0031270489
0.0031463908
0.0028984789
0.0022232275
0.0011612782
0.0010134227
-0.00018683748
-0.00060376228
0.00016826066
0.00062471625
0.0007889191
0.00071290005
0.00017271215
-0.0010243007
-0.00037611703
0.00064067212
-3.3039405e-06
-0.00049083673
-0.00013706419
8.3527157e-05
0.00015547217
9.561308e-05
-0.00025235541
-0.00096633627
0.0003958283
-0.0011158827
0.0011144962
-0.00034067126
-0.00047466964
-0.00034355273
-0.00014975396
0.00015378448
0.00040514769
-0.00020943006
-0.00090944075
0.00090817072
0.0016833821
-3.1664497e-05
-0.00010225782
0.00016067175
0.00054867499
0.0011789927
0.0018672457
0.0013253601
9.2444684e-05
-5.9080511e-05
-0.0016482463
-0.0018447204
-0.0016685513
-0.0014023769
-0.0010347624
-0.00044314943
0.00039744358
0.00092274759
0.00076924698
-0.0033431403
-0.0033460218
-0.0031508041
-0.0029036782
-0.0026319022
-0.0023098194
-0.001866029
-0.0012330722
-0.00052428037
9.3744908e-05
-0.0011024648
-0.00077754907
-0.00045153196
-0.00014376017
0.00014232687
0.00042375371
0.00072599656
0.0010712688
0.0014276487
0.0017447801
0.001315801
0.0018131382
0.0023341219
0.0027723656
0.0030999951
0.0033560354
0.0035622696
0.0037156701
0.0037962026
0.0038071441
0.0025285223
0.0030834239
0.003847093
0.0045156298
0.0049238401
0.0051631449
0.0052834749
0.0052564616
0.005018407
0.0045550081
0.0018085922
0.0014453777
0.0019549596
0.0028112747
0.0032967083
0.0035129268
0.0035306413
0.003247859
0.0024782462
0.0012637416
0.0011489759
-0.00016561253
-0.00062582507
0.00020619088
0.00070099208
0.00087970223
0.0007924661
0.00017824874
-0.0011916513
-0.00044904078
0.00071064667
1.0635978e-05
-0.00052226872
-0.00014286462
9.5756542e-05
0.00017426682
0.00010669809
-0.00028913211
-0.0011078065
0.00045347837
-0.0011777404
0.0011734142
-0.0003588317
-0.0004981334
-0.00035784996
-0.00014874758
0.00018177596
0.00045827374
-0.00021082339
-0.00096256135
0.00097697986
0.0017958885
-8.8734714e-06
-7.9404497e-05
0.00020263591
0.00062115084
0.0013050081
0.0020540619
0.0014592641
0.00013251785
-2.3000955e-05
-0.0016945486
-0.001898294
-0.0017080433
-0.001421464
-0.0010251017
-0.00038606627
0.00052153953
0.001079981
0.00090764398
-0.0034589373
-0.0034579555
-0.0032474279
-0.0029811256
-0.0026881538
-0.0023410333
-0.001862526
-0.0011805533
-0.00042154659
0.00023627131
-0.0010340566
-0.00068467079
-0.0003335013
-1.7291862e-06
0.00030659097
0.00060954979
0.00093477857
0.001306267
0.0016885947
0.0020282981
0.0015775113
0.0021171372
0.0026798835
0.0031525349
0.0035055113
0.0037807225
0.0040016591
0.0041651761
0.0042495249
0.0042591964
0.0028828798
0.0034899011
0.0043157909
0.0050365423
0.0054762709
0.0057332595
0.0058607244
0.0058269017
0.0055605272
0.0050443675
0.0020568758
0.0016642765
0.0022111318
0.0031303237
0.0036521112
0.0038841399
0.003899977
0.0035839426
0.0027246111
0.0013649591
0.0012822425
-0.00013859259
-0.0006393016
0.00024751186
0.00077752298
0.00096954302
0.00087154335
0.00018700883
-0.0013474401
-0.00051510726
0.00077789464
2.6156695e-05
-0.0005488516
-0.00014618033
0.0001089663
0.00019352308
0.00011863785
-0.00032263656
-0.0012410141
0.00050969631
-0.0012311283
0.0012263044
-0.00037357836
-0.0005173315
-0.00036875533
-0.00014564919
0.00020980995
0.0005097264
-0.00020977411
-0.0010086097
0.0010432638
0.0019008137
1.7448674e-05
-5.2605857e-05
0.00024677985
0.0006931945
0.0014263409
0.0022315447
0.001587475
0.00017506282
1.8643913e-05
-0.001724992
-0.0019347757
-0.0017316502
-0.0014264764
-0.0010038614
-0.00032139823
0.00064757254
0.0012356661
0.0010455309
-0.0035466046
-0.0035417816
-0.0033172734
-0.0030334823
-0.00272118
-0.0023512308
-0.0018410299
-0.0011143155
-0.00030983013
0.00038369113
-0.00095174957
-0.00058006723
-0.0002059492
0.00014772149
0.00047630232
0.0007988421
0.0011449631
0.0015402926
0.0019461418
0.0023062818
0.0018370199
0.0024155852
0.0030165809
0.0035206634
0.003896731
0.0041893242
0.0044235018
0.0045960319
0.004683601
0.0046919027
0.0032262712
0.0038816468
0.0047646214
0.0055330808
0.0060015368
0.0062745312
0.0064082444
0.0063677254
0.0060746013
0.00550883
0.002297908
0.0018783239
0.0024590422
0.0034353883
0.0039902419
0.004236567
0.0042503411
0.0039029238
0.0029591119
0.0014626599
0.0014111059
-0.00010723016
-0.00064537595
0.00029072823
0.00085263065
0.0010567175
0.00094850151
0.00019782204
-0.0014917624
-0.00057488361
0.00084155612
4.2720535e-05
-0.00057085611
-0.00014741468
0.00012266515
0.00021272535
0.0001309669
-0.00035304593
-0.001365485
0.00056383283
-0.0012760416
0.0012725168
-0.00038514272
-0.00053246613
-0.00037651966
-0.0001407927
0.00023740267
0.00055888135
-0.00020659237
-0.0010476037
0.001105678
0.0019965769
4.6209675e-05
-2.295155e-05
0.00029191462
0.0007634547
0.001541347
0.0023977151
0.0017083277
0.00021894822
6.4153946e-05
-0.001740829
-0.0019553745
-0.0017406509
-0.0014187951
-0.0009725684
-0.00025092196
0.00077340565
0.0013874989
0.0011807231
-0.0036074039
-0.0035987808
-0.0033616989
-0.0030622014
-0.002732535
-0.002342085
-0.0018033847
-0.0010364541
-0.00019148536
0.0005334435
-0.00085803794
-0.00046636451
-7.1631701e-05
0.00030171797
0.00064848465
0.00098856112
0.0013533826
0.0017700619
0.0021968879
0.0025752196
0.0020907391
0.0027046614
0.0033401715
0.0038725345
0.0042693218
0.0045774325
0.0048233442
0.0050037645
0.0050939675
0.0051008227
0.0035547731
0.0042544472
0.0051890335
0.0060004212
0.0064946644
0.006781922
0.0069209964
0.0068739724
0.0065558613
0.0059439442
0.0025287518
0.0020847568
0.0026957325
0.0037231777
0.0043076319
0.004566683
0.0045782552
0.0042015478
0.0031790381
0.0015549934
0.0015338306
-7.2654396e-05
-0.00064493624
0.00033466301
0.00092496137
0.0011398207
0.0010220196
0.00020979252
-0.0016245348
-0.0006287811
0.00090091302
5.9901716e-05
-0.00058846644
-0.00014687417
0.00013646242
0.00023145761
0.00014331761
-0.00038045947
-0.001480727
0.00061529428
-0.0013124408
0.0013115295
-0.00039368947
-0.00054367846
-0.00038132766
-0.00013443827
0.00026415643
0.00060521054
-0.0002015207
-0.0010795247
0.0011631513
0.0020819026
7.6550141e-05
8.697959e-06
0.00033709004
0.00083083334
0.0016486603
0.0025508988
0.0018204332
0.00026326315
0.0001121853
-0.0017430227
-0.0019610194
-0.0017360386
-0.0013995064
-0.00093244331
-0.00017608738
0.00089725943
0.0015335493
0.0013113984
-0.0036422929
-0.0036299311
-0.0033817531
-0.0030684182
-0.0027234486
-0.0023149366
-0.0017510904
-0.00094870127
-6.8480936e-05
0.00068337382
-0.00075497244
-0.00034573226
6.7162928e-05
0.00045786305
0.00082064454
0.0011761239
0.0015573589
0.0019927848
0.0024379295
0.0028321057
0.0023356315
0.0029811156
0.0036472017
0.0042045346
0.0046195599
0.0049412489
0.0051973383
0.0053844995
0.0054767517
0.0054821023
0.0038650266
0.0046046754
0.0055850921
0.0064343781
0.0069513274
0.007251039
0.0073945779
0.0073413029
0.0070001387
0.0063458342
0.0027469194
0.0022812422
0.0029186923
0.0039908789
0.0046013017
0.0048714495
0.0048807151
0.0044770102
0.0033820846
0.0016404488
0.0016489721
-3.5763087e-05
-0.00063866354
0.00037837584
0.00099341155
0.0012176967
0.0010910144
0.00022222807
-0.0017455471
-0.00067706633
0.00095536156
7.7357606e-05
-0.00060180847
-0.0001447933
0.00015004629
0.00024938285
0.00015539693
-0.00040492162
-0.0015862389
0.00066355915
-0.0013402765
0.0013429274
-0.00039933973
-0.0005510721
-0.00038332099
-0.00012679477
0.00028973832
0.00064826208
-0.00019475536
-0.0011043401
0.0012148224
0.0021557591
0.00010777968
4.1647456e-05
0.00038153168
0.00089442399
0.0017471332
0.0026896705
0.0019226232
0.00030725925
0.00016165509
-0.0017323444
-0.0019524566
-0.0017186176
-0.0013694984
-0.00088449464
-9.8108646e-05
0.0010176253
0.0016721778
0.0014360155
-0.0036520449
-0.0036360262
-0.0033782929
-0.003053068
-0.002694941
-0.0022709067
-0.0016854122
-0.00085253046
5.7500331e-05
0.00083163789
-0.00064428195
-0.00022000465
0.00020849457
0.00061411835
0.00099065586
0.0013593221
0.0017545955
0.0022060614
0.0026667637
0.003074345
0.0025690938
0.0032421531
0.0039346953
0.0045135429
0.0049442241
0.0052774825
0.0055421448
0.0057348696
0.0058285846
0.005832388
0.0041541307
0.0049291875
0.0059493772
0.0068313075
0.0073677534
0.0076780468
0.0078251406
0.0077659207
0.0074037901
0.0067111233
0.002950279
0.0024657853
0.003125769
0.0042360717
0.0048686815
0.00514824
0.0051551214
0.0047268895
0.0035662849
0.0017177888
0.0017553141
2.711914e-06
-0.00062709713
0.00042110219
0.0010570712
0.0012893858
0.0011545896
0.00023458838
-0.0018545111
-0.0007198958
0.0010043912
9.4806447e-05
-0.00061097276
-0.00014135577
0.0001631648
0.00026622547
0.00016696823
-0.00042644131
-0.0016815278
0.00070817394
-0.0013595071
0.0013663871
-0.0004021878
-0.0005547298
-0.0003826147
-0.00011803553
0.00031386565
0.00068764656
-0.00018646117
-0.0011220197
0.0012599959
0.0022173151
0.00013933145
7.5321867e-05
0.00042459658
0.00095346902
0.0018357966
0.0028128156
0.0020139112
0.00035031012
0.00021167262
-0.0017094443
-0.0019303206
-0.0016890732
-0.0013295292
-0.00082958569
-1.8028648e-05
0.0011332041
0.0018019766
0.0015532553
-0.0036373363
-0.0036177632
-0.0033520712
-0.0030169718
-0.002647908
-0.0022109798
-0.0016074605
-0.00074923338
0.00018498811
0.00097663076
-0.0005274646
-9.0770329e-05
0.00035068255
0.00076871713
0.0011566746
0.0015362386
0.0019430975
0.0024078059
0.002881215
0.0032996828
0.0027888711
0.0034853514
0.0042000711
0.004796852
0.0052405186
0.0055832749
0.0058548617
0.0060519474
0.0061465362
0.0061487631
0.0044195668
0.0052252489
0.0062789133
0.0071880387
0.0077406597
0.008059606
0.0082093322
0.0081445186
0.0077636437
0.0070368797
0.0031369919
0.0026366652
0.0033151065
0.0044566704
0.0051075552
0.0053947879
0.0053992297
0.0049490995
0.0037299632
0.0017859992
0.0018518247
4.2158443e-05
-0.00061068075
0.00046220969
0.0011151834
0.0013540866
0.0012119991
0.0002464477
-0.0019511012
-0.00075734981
0.0010475698
0.00011201133
-0.00061603122
-0.00013670996
0.00017561144
0.00028175785
0.00017783828
-0.00044500624
-0.0017661257
0.0007487452
-0.0013701115
0.0013816666
-0.00040231318
-0.00055472547
-0.00037930895
-0.00010830953
0.0003362954
0.00072302771
-0.00017678214
-0.0011325469
0.0012981101
0.0022659084
0.00017072954
0.00010923384
0.00046574155
0.001007329
0.0019138307
0.0029193039
0.002093465
0.0003918819
0.00026148898
-0.0016749031
-0.0018951856
-0.0016480224
-0.0012802769
-0.00076848301
6.3234605e-05
0.0012428623
0.0019217271
0.0016619778
-0.0035988121
-0.0035758079
-0.0033038001
-0.0029608991
-0.0025831824
-0.0021360631
-0.001518249
-0.00063997566
0.0003126709
0.0011169348
-0.00040585463
4.056129e-05
0.0004922405
0.00092010067
0.0013170765
0.0017051877
0.0021211135
0.0025961902
0.0030793807
0.0035061515
0.0029929944
0.0037085988
0.0044410836
0.0050521102
0.0055060169
0.0058561472
0.0061329735
0.0063331954
0.0064280682
0.006428701
0.0046591443
0.0054904816
0.0065711192
0.0075018269
0.0080672067
0.0083928294
0.0085442549
0.0084742385
0.0080769612
0.0073205772
0.003305467
0.0027923895
0.0034851014
0.004650882
0.0053160213
0.0056091492
0.0056111159
0.0051418555
0.0038716987
0.0018442493
0.0019376261
8.2051504e-05
-0.0005897958
0.000501167
0.0011671147
0.0014111283
0.0012626202
0.00025746697
-0.0020349861
-0.0007894602
0.0010845339
0.00012876908
-0.00061704924
-0.00013098028
0.00018721468
0.00029579052
0.00018784749
-0.00046059354
-0.0018396019
0.00078493238
-0.001372099
0.0013885971
-0.00039978925
-0.00055113294
-0.00037349739
-9.7749531e-05
0.00035681706
0.0007541156
-0.00016584943
-0.0011359282
0.0013287137
0.0023010234
0.00020156514
0.00014296023
0.00050450029
0.0010554607
0.0019805448
0.0030082707
0.002160587
0.00043151172
0.00031046009
-0.00162927
-0.0018476031
-0.0015960515
-0.0012223759
-0.00070189166
0.00014485421
0.0013456002
0.002030369
0.0017611914
-0.0035371341
-0.0035108422
-0.0032341989
-0.002885615
-0.0025015795
-0.0020470317
-0.0014187376
-0.00052583789
0.00043935664
0.0012512813
-0.00028067187
0.00017271153
0.00063182862
0.0010668713
0.0014704119
0.0018646708
0.0022870925
0.0027696028
0.0032595914
0.0036920318
0.0031797355
0.0039100499
0.00465578
0.0052772801
0.0057386219
0.0060939606
0.006374313
0.0065764308
0.0066709981
0.0066700306
0.0048709624
0.0057228275
0.0068237723
0.0077703193
0.0083449662
0.0086752513
0.0088274363
0.0087526432
0.0083414089
0.0075600661
0.0034543291
0.0029316626
0.0036343713
0.0048171773
0.0054924655
0.0057896763
0.0057891506
0.0053036489
0.0039902992
0.0018918627
0.0020119735
0.00012192963
-0.00056478552
0.00053752091
0.0012123337
0.0014599499
0.0013059335
0.00026737278
-0.0021058526
-0.00081623248
0.0011149809
0.00014490208
-0.00061409444
-0.00012427544
0.00019783022
0.00030816494
0.00019686279
-0.00047317786
-0.0019015737
0.0008164423
-0.0013655161
0.0013870773
-0.00039468998
-0.00054403248
-0.00036527367
-8.6478068e-05
0.00037524703
0.00078066179
-0.00015378694
-0.0011321992
0.0013514475
0.0023222736
0.0002314787
0.0001761245
0.00054046616
0.0010974009
0.0020353622
0.003079003
0.0022146996
0.0004687917
0.00035801887
-0.0015730909
-0.0017881302
-0.0015337433
-0.0011564442
-0.00063048138
0.00022606947
0.0014405283
0.0021269774
0.0018500303
-0.0034530163
-0.0034236
-0.0031440289
-0.002791914
-0.0024039309
-0.0019447607
-0.0013098638
-0.00040784592
0.00056394357
0.001378522
-0.00015305807
0.00030449635
0.00076821841
0.0012077582
0.0016153717
0.0020133434
0.0024396525
0.002926618
0.0034203812
0.0038558237
0.0033475729
0.0040880936
0.004842469
0.0054706073
0.0059365361
0.0062948881
0.0065770338
0.0067797978
0.006873474
0.0068709108
0.0050533812
0.0059205211
0.0070349833
0.0079915307
0.0085718981
0.0089048054
0.0090568078
0.0089776958
0.0085550374
0.0077535518
0.0035823955
0.0030533615
0.0037617328
0.0049542695
0.0056355402
0.0059349982
0.0059319804
0.0054332278
0.0040847807
0.0019282936
0.0020742382
0.00016137726
-0.00053597307
0.00057087932
0.0012503948
0.001500085
0.0013415079
0.00027594094
-0.0021634263
-0.00083766348
0.0011386646
0.00016025241
-0.00060724328
-0.00011669469
0.00020733515
0.00031874776
0.00020477203
-0.0004827378
-0.001951715
0.00084302497
-0.0013504515
0.0013770683
-0.00038709493
-0.00053351573
-0.00035473613
-7.4612018e-05
0.00039142456
0.00080245571
-0.00014071577
-0.0011214293
0.0013660313
0.0023293879
0.00026014627
0.0002083832
0.00057327921
0.0011327536
0.0020778082
0.0031309285
0.0022553334
0.00050335667
0.00040365388
-0.0015069302
-0.0017173508
-0.0014616982
-0.0010831034
-0.00055490646
0.00030616683
0.0015268495
0.0022107457
0.001927736
-0.0033472523
-0.0033148935
-0.0030341194
-0.0026806461
-0.0022911095
-0.00183015
-0.0011925668
-0.00028699379
0.00068539791
0.0014976072
-2.4104541e-05
0.00043479919
0.00090026582
0.0013415909
0.0017507619
0.0021499903
0.0025775562
0.0030659726
0.0035604646
0.0039962237
0.0034951676
0.0042413282
0.0049996965
0.0056305984
0.0060982392
0.0064573927
0.0067395897
0.0069417477
0.0070339537
0.0070298099
0.0052050017
0.0060820694
0.0072031766
0.0081638253
0.0087463328
0.0090798076
0.0092306879
0.0091477429
0.0087162647
0.0078995771
0.0036886588
0.0031565184
0.003866184
0.0050610974
0.0057441487
0.0060440058
0.0060385127
0.0055295827
0.0041543506
0.0019531079
0.0021238966
0.0002000116
-0.00050367522
0.0006008981
0.0012809258
0.0015311493
0.001368988
0.00028298346
-0.0022074867
-0.00085375546
0.0011553908
0.00017467732
-0.00059658591
-0.00010833245
0.00021562344
0.00032742666
0.0002114796
-0.00048926101
-0.0019897631
0.00086447026
-0.0013270407
0.0013585895
-0.00037709311
-0.00051968965
-0.00034199166
-6.2266269e-05
0.00040520835
0.00081932161
-0.0001267578
-0.0011037262
0.0013722519
0.0023221994
0.00028726847
0.00023941529
0.00060261543
0.0011611795
0.0021075003
0.003163607
0.0022821182
0.00053487398
0.00044689207
-0.0014313871
-0.0016358921
-0.0013805508
-0.001002995
-0.00047582137
0.00038446475
0.0016038447
0.0022809711
0.0019936433
-0.0032207355
-0.0031856341
-0.0029053886
-0.002552737
-0.0021640495
-0.0017041437
-0.0010678061
-0.00016426195
0.00080273622
0.0016075686
0.00010512612
0.00056254953
0.0010268903
0.0014672789
0.0018754837
0.0022735062
0.0026996916
0.0031865466
0.0036787182
0.0041121069
0.0036213419
0.0043685419
0.0051262268
0.0057560017
0.0062224702
0.0065802096
0.0068607172
0.0070610218
0.0071511884
0.0071454891
0.0053246476
0.0062062355
0.0073270751
0.0082859015
0.0088669568
0.009198942
0.0093477689
0.0092615014
0.0088238631
0.0079970082
0.0037722724
0.0032403063
0.0039468903
0.0051368126
0.0058174326
0.0061158392
0.0061079038
0.0055919334
0.0041983946
0.0019659675
0.0021605196
0.00023747175
-0.00046821339
0.00062727036
0.0013036172
0.0015528306
0.0013880845
0.00028833747
-0.0022378814
-0.00086452803
0.0011650141
0.00018804561
-0.00058223018
-9.9282228e-05
0.0002226022
0.00033410653
0.00021690288
-0.0004927484
-0.0020155243
0.00088060497
-0.0012954684
0.0013317141
-0.00036478665
-0.00050267977
-0.00032715897
-4.9556893e-05
0.00041647359
0.00083111582
-0.00011203862
-0.0010792387
0.0013699534
0.0023006351
0.00031256087