/*--------------------------------*- C++ -*----------------------------------*\
| =========                 |                                                 |
| \\      /  F ield         | OpenFOAM: The Open Source CFD Toolbox           |
|  \\    /   O peration     | Version:  v2106                                 |
|   \\  /    A nd           | Website:  www.openfoam.com                      |
|    \\/     M anipulation  |                                                 |
\*---------------------------------------------------------------------------*/
FoamFile
{
    version     2.0;
    format      ascii;
    arch        "LSB;label=32;scalar=64";
    class       volScalarField;
    location    "30";
    object      gradTx;
}
// * * * * * * * * * * * * * * * * * * * * * * * * * * * * * * * * * * * * * //

dimensions      [0 -1 0 1 0 0 0];

internalField   nonuniform List<scalar> 
4000
(
-0.00094031033
0.00030729763
0.0015631435
0.00048577641
0.0001719487
-0.00013431267
-0.00036668838
-0.00047402542
-0.00037193838
-0.00012858086
0.00026742115
0.0012342977
0.0012847078
0.00047841779
0.00015104745
-0.0001672458
-0.00043703014
-0.00061445265
-0.00052576127
-0.000190632
-1.3310287e-05
0.00093207407
0.001250436
0.00045310641
0.00012483727
-0.00019850358
-0.00048379679
-0.00071056727
-0.00073350526
-0.00033144875
-1.1014478e-05
0.00092159015
0.0012235201
0.00042426059
9.3731137e-05
-0.00023397945
-0.00052310635
-0.00074637393
-0.00075329139
-0.00033565832
-2.066889e-05
0.00089940407
0.0011962787
0.00039436113
6.2563999e-05
-0.00026762617
-0.00056050675
-0.00078545444
-0.00078446155
-0.00034747904
-3.1915724e-05
0.00087447871
0.0011662038
0.00036198731
3.1582834e-05
-0.00029699713
-0.00058833409
-0.00081052158
-0.00080337599
-0.0003547865
-5.3602026e-05
0.00083521315
0.0011295451
0.00032523855
-4.5370305e-07
-0.00032368954
-0.00061071511
-0.00082785283
-0.00081457053
-0.0003587056
-0.00010225749
0.00075737031
0.0010801276
0.00028527735
-3.3644903e-05
-0.00034720551
-0.00062769105
-0.00083821491
-0.00081846898
-0.00035916209
-0.00019402924
0.00059867131
0.0009976238
0.00025035137
-6.4601335e-05
-0.00036608794
-0.00063840845
-0.00083984638
-0.00080958832
-0.00035209193
-0.00025608039
0.00039580342
0.00085259748
0.00023432107
-8.372952e-05
-0.00037731449
-0.00064278403
-0.00083323271
-0.00078091501
-0.00033048878
-0.0019911861
0.0010855683
0.0040506047
0.0014570419
0.00047065428
-0.00044131082
-0.0011503526
-0.0014647934
-0.00095711483
-0.00021390051
0.00053405236
0.0030769981
0.0035051945
0.0014186367
0.00041103838
-0.00053845879
-0.0013679844
-0.0019306835
-0.0014041986
-0.00034839042
2.4374947e-07
0.002457295
0.0033777526
0.0013394518
0.00033219188
-0.00063261726
-0.0015089723
-0.0022292841
-0.002029054
-0.00076268365
-1.135788e-05
0.002404146
0.0032938041
0.001253284
0.00023951039
-0.0007386261
-0.0016270123
-0.0023429953
-0.0021121213
-0.00079298552
-3.8161363e-05
0.002339705
0.0032123998
0.0011641911
0.00014644008
-0.00083901892
-0.0017375486
-0.0024559655
-0.0021983895
-0.00082417117
-7.0973775e-05
0.0022656836
0.0031222761
0.0010675322
5.3693598e-05
-0.00092721506
-0.0018214026
-0.0025315326
-0.0022540859
-0.00084496065
-0.00013530934
0.0021483986
0.0030122325
0.00095778943
-4.2148878e-05
-0.0010073506
-0.0018886184
-0.002583812
-0.0022876759
-0.00085654543
-0.00028860552
0.001907064
0.0028632482
0.00083895589
-0.00014069673
-0.0010782849
-0.0019397212
-0.0026144116
-0.0022967147
-0.00085581325
-0.00060119944
0.0013839079
0.0025999207
0.00073110794
-0.00023068622
-0.0011351971
-0.0019714974
-0.002613671
-0.0022464836
-0.00081609376
-0.00073568934
0.00083512474
0.0021553256
0.00066962043
-0.00028266134
-0.0011675713
-0.00198235
-0.0025732193
-0.0020393681
-0.00064869775
-0.0024122663
0.0020473185
0.006022576
0.0023036991
0.00067092948
-0.00084326138
-0.0020742015
-0.0026665041
-0.0014732682
-0.00010748257
0.0009585919
0.0047422585
0.0053204548
0.0022358972
0.0005775848
-0.00099611633
-0.0024328034
-0.0035264392
-0.0023876665
-0.00041943858
0.00028267366
0.0039320596
0.0051182998
0.002106097
0.0004467316
-0.0011529693
-0.0026608535
-0.0040089274
-0.0033853211
-0.0010747295
0.00025647069
0.0038379823
0.0049811976
0.001964955
0.00029380995
-0.0013295736
-0.0028594881
-0.0042070922
-0.00354691
-0.0011411912
0.00021487177
0.0037344575
0.0048473576
0.0018182616
0.0001400968
-0.0014954599
-0.0030412848
-0.0043912796
-0.003686341
-0.0011912793
0.00016312601
0.0036137844
0.0046974228
0.0016583202
-1.3580546e-05
-0.0016420825
-0.0031809648
-0.004517121
-0.0037781332
-0.0012250308
6.2016812e-05
0.0034247496
0.0045139003
0.001475771
-0.00017241202
-0.0017755147
-0.0032933499
-0.0046053622
-0.0038353761
-0.0012448645
-0.00019547591
0.0030271324
0.0042707381
0.0012778889
-0.00033505733
-0.0018941476
-0.0033799228
-0.0046584702
-0.0038507715
-0.001242893
-0.00079791827
0.0020823264
0.0038332473
0.0010934188
-0.00048244091
-0.0019895974
-0.003434699
-0.0046527841
-0.0037236895
-0.0011388641
-0.0011098743
0.0011150794
0.0031114946
0.00097686895
-0.00056628047
-0.0020431826
-0.0034525612
-0.0045467837
-0.0029682211
-0.00048742445
-0.0028195743
0.0028632683
0.0077515295
0.0030063094
0.00076176286
-0.0013441058
-0.0031239503
-0.0040982836
-0.0022832589
-0.00014067948
0.0012778285
0.0061571781
0.0069083841
0.0029110709
0.00063623631
-0.0015478226
-0.003602965
-0.0053094056
-0.0035672789
-0.00055881585
0.00047433542
0.0051780246
0.0066409131
0.0027341861
0.00045480582
-0.0017678547
-0.0039190884
-0.0059769449
-0.004922658
-0.0014391032
0.0004346831
0.0050465617
0.0064546019
0.002540705
0.00024362463
-0.002013463
-0.0041967014
-0.0062593314
-0.0051653102
-0.0015435741
0.00037909687
0.0049059013
0.0062705472
0.0023383074
3.0785631e-05
-0.0022435183
-0.004448256
-0.0065129804
-0.0053571172
-0.0016126535
0.00030915654
0.0047396046
0.0060619903
0.0021166848
-0.00018253761
-0.0024475281
-0.0046429218
-0.0066883664
-0.0054844753
-0.0016591829
0.00017538002
0.0044821523
0.0058049068
0.0018626438
-0.0004032794
-0.0026335035
-0.0048002077
-0.0068131854
-0.0055669061
-0.0016882136
-0.00016985822
0.0039444665
0.0054682539
0.0015875173
-0.00062875799
-0.0027994798
-0.004923406
-0.0068936385
-0.0055988631
-0.0016914969
-0.0010357419
0.002603491
0.0048549809
0.0013266084
-0.00083231432
-0.0029337085
-0.0050054798
-0.0068983254
-0.0054207738
-0.0015373943
-0.0014538783
0.0013050673
0.0038702227
0.0011530581
-0.0009479231
-0.0030092686
-0.0050377938
-0.0067475062
-0.0039076774
-0.00017840055
-0.0032262883
0.0035868131
0.0093198655
0.0035860709
0.00075193904
-0.0019295411
-0.0042487448
-0.0056145438
-0.0032029257
-0.00023495339
0.0015510298
0.0074363766
0.0083391422
0.0034639341
0.0005945798
-0.0021847352
-0.0048466176
-0.0071668351
-0.0048172277
-0.00072783391
0.0006232752
0.0062933118
0.0080092527
0.0032421262
0.00036448528
-0.0024663648
-0.0052492698
-0.0080179428
-0.0065173222
-0.0018207092
0.00057030656
0.0061257638
0.0077760055
0.0029984028
9.7029308e-05
-0.0027789566
-0.0056035353
-0.0083829404
-0.0068398849
-0.0019623484
0.00050113839
0.0059493671
0.0075437214
0.0027422012
-0.00017315467
-0.0030714474
-0.0059229319
-0.0087040908
-0.0070828442
-0.002050101
0.00041294732
0.00573831
0.007278455
0.0024607628
-0.00044447037
-0.0033313601
-0.0061711772
-0.0089276298
-0.0072446447
-0.0021089728
0.0002459443
0.0054125434
0.0069494999
0.0021371186
-0.00072555821
-0.0035685515
-0.0063721127
-0.0090877413
-0.0073509464
-0.0021465422
-0.00018492552
0.004737785
0.0065215373
0.0017871008
-0.0010121122
-0.003780541
-0.0065306384
-0.0091946808
-0.007400426
-0.0021562289
-0.001306347
0.0030091443
0.0057333946
0.0014509706
-0.0012702477
-0.003952202
-0.0066391636
-0.0092146732
-0.0071961328
-0.0019717362
-0.0017992275
0.0014233885
0.0044988801
0.0012215788
-0.0014168721
-0.0040486431
-0.0066864197
-0.0090398672
-0.0048835335
0.00015637044
-0.0036302287
0.0042364674
0.010756461
0.0040640692
0.00065756467
-0.0025831349
-0.0054262369
-0.0071707686
-0.0041682109
-0.00035728419
0.001793571
0.008613001
0.0096430961
0.003915772
0.00046963067
-0.0028881895
-0.0061395637
-0.0090551156
-0.0060952387
-0.00091397268
0.00074630496
0.0073119152
0.0092527346
0.0036506847
0.00019268528
-0.0032292727
-0.006625823
-0.010085181
-0.0081275515
-0.0022097961
0.00068020638
0.007109275
0.0089742869
0.0033586147
-0.00012901525
-0.0036065628
-0.0070540367
-0.010530357
-0.0085277323
-0.002387261
0.00059800776
0.0068985308
0.0086955773
0.0030505626
-0.00045454859
-0.0039594223
-0.0074390009
-0.010916749
-0.0088202149
-0.0024931019
0.00049227239
0.0066443956
0.008375641
0.0027113808
-0.00078191296
-0.0042734403
-0.0077391359
-0.011186886
-0.0090153099
-0.0025638956
0.00029295312
0.0062523929
0.007977204
0.0023204131
-0.0011214261
-0.0045602624
-0.0079823497
-0.011380963
-0.009144069
-0.0026092681
-0.00022105442
0.0054448095
0.0074611681
0.001898203
-0.0014670122
-0.0048167892
-0.0081747957
-0.011512453
-0.0092080826
-0.0026235469
-0.0015913938
0.0033379808
0.0065019628
0.0014888453
-0.0017779551
-0.005024477
-0.0083079172
-0.011546256
-0.0089857947
-0.0024171913
-0.0021480823
0.0014854689
0.0050286745
0.0012055395
-0.0019545898
-0.0051406432
-0.0083675684
-0.011354179
-0.0058769873
0.00048526053
-0.0040244816
0.0048240814
0.01207475
0.0044573062
0.000496688
-0.0032834844
-0.0066304421
-0.0087355265
-0.0051476837
-0.00049354577
0.0020116657
0.0096996104
0.010835239
0.0042837188
0.0002794523
-0.0036363637
-0.0074546977
-0.010940397
-0.0073738086
-0.0011087169
0.00085104732
0.0082481063
0.010386705
0.0039770704
-4.2459425e-05
-0.0040345563
-0.0080211915
-0.012143048
-0.0097250537
-0.002598525
0.00077215471
0.0080115651
0.010064871
0.0036386453
-0.00041619817
-0.0044739838
-0.0085203649
-0.012665424
-0.010200103
-0.0028104432
0.00067745988
0.0077678705
0.0097416316
0.0032808666
-0.00079484215
-0.0048848219
-0.0089682756
-0.013114446
-0.010540153
-0.002933648
0.00055491901
0.0074724176
0.0093692203
0.0028862626
-0.0011760161
-0.0052508164
-0.0093182779
-0.013429372
-0.010767279
-0.0030159257
0.00032458059
0.0070167986
0.0089040116
0.002430601
-0.0015716747
-0.0055853521
-0.0096021684
-0.013656139
-0.010917601
-0.003068761
-0.00026933663
0.0060816682
0.0083035531
0.0019391786
-0.001973929
-0.0058847092
-0.0098272461
-0.013810976
-0.010994273
-0.0030863931
-0.0018802904
0.0036092776
0.0071789846
0.0014592023
-0.0023356225
-0.0061270446
-0.0099837723
-0.013857299
-0.010756727
-0.002861564
-0.0024954615
0.0015042983
0.0054772583
0.0011240793
-0.0025411049
-0.0062621575
-0.01005424
-0.013650101
-0.0068685158
0.00080181774
-0.0044028227
0.0053568184
0.013281347
0.0047785707
0.00028504311
-0.0040114055
-0.0078385972
-0.010284144
-0.0061217332
-0.00063660276
0.0022083416
0.010701092
0.011923238
0.0045807597
3.9898994e-05
-0.0044098424
-0.0087685858
-0.012795893
-0.0086328146
-0.0013060377
0.00094145048
0.0091080008
0.011419264
0.0042344896
-0.00032489553
-0.0048625532
-0.009411607
-0.014163588
-0.011288214
-0.0029803512
0.00085023223
0.0088390083
0.011056082
0.003851906
-0.00074822752
-0.0053612537
-0.0099784512
-0.014759765
-0.011835028
-0.0032252891
0.00074363941
0.0085639196
0.01069041
0.0034467488
-0.001177488
-0.0058273768
-0.010486366
-0.015268473
-0.012220415
-0.0033650372
0.00060508813
0.0082290697
0.010267955
0.0029993135
-0.0016099556
-0.0062429288
-0.010883915
-0.015626095
-0.012478078
-0.0034582642
0.00034520248
0.0077127719
0.0097389989
0.0024819252
-0.0020591631
-0.0066229602
-0.011206587
-0.015884045
-0.012649031
-0.0035182716
-0.00032490039
0.0066560599
0.0090580896
0.0019245549
-0.002515419
-0.0069631504
-0.011462795
-0.016061145
-0.012737348
-0.0035386924
-0.0021665468
0.003833328
0.0077751273
0.0013770393
-0.0029254935
-0.007238532
-0.011641637
-0.016119269
-0.012486171
-0.0032972868
-0.0028359818
0.0014895795
0.0058558759
0.00099235326
-0.0031584685
-0.0073917663
-0.011722065
-0.015898284
-0.00784204
0.0011054386
-0.0047602898
0.0058386682
0.014379072
0.0050373863
3.5749237e-05
-0.0047505426
-0.0090316036
-0.01179661
-0.007076296
-0.00078227009
0.0023851135
0.0116187
0.012910719
0.0048165824
-0.00023575807
-0.0051920282
-0.010061524
-0.014599697
-0.0098567371
-0.0015017447
0.0010197424
0.0098938175
0.012354414
0.0044328628
-0.00064112255
-0.0056963832
-0.010776992
-0.016123906
-0.012799803
-0.0033501521
0.00091676038
0.0095940425
0.011952162
0.0040085508
-0.0011113447
-0.0062511779
-0.011407886
-0.01679009
-0.013414912
-0.0036265451
0.00079893856
0.009289294
0.011546382
0.0035586074
-0.0015884656
-0.0067695979
-0.01197255
-0.017355233
-0.013843172
-0.0037819371
0.00064525305
0.0089171708
0.011076576
0.0030612078
-0.002069443
-0.0072320266
-0.012415075
-0.017753231
-0.014129695
-0.0038855057
0.00035745297
0.0083434534
0.010487233
0.0024853928
-0.0025693142
-0.0076550915
-0.01277442
-0.018040668
-0.014320195
-0.0039523296
-0.0003846671
0.0071717821
0.0097302139
0.0018656498
-0.0030766321
-0.0080338958
-0.013060066
-0.018238848
-0.014419421
-0.00397526
-0.0024456336
0.0040161574
0.0082968389
0.0012540657
-0.0035324543
-0.0083405259
-0.013260037
-0.018308246
-0.014156129
-0.0037188665
-0.0031651082
0.0014482754
0.0061720385
0.00082228064
-0.003791415
-0.0085109185
-0.013349791
-0.018074783
-0.0087846187
0.0013962504
-0.0050928921
0.0062716564
0.015368457
0.0052407597
-0.00024051787
-0.0054871742
-0.010193412
-0.013256174
-0.0080002493
-0.00092768094
0.0025426955
0.012451808
0.013798914
0.0049983371
-0.00053669174
-0.0059689552
-0.011316876
-0.01633328
-0.011032867
-0.0016927342
0.0010872592
0.010605765
0.013193719
0.0045795621
-0.00098008418
-0.006521792
-0.012100316
-0.018004547
-0.014245399
-0.003703809
0.00097315187
0.010277069
0.012754909
0.0041161865
-0.0014942348
-0.0071291899
-0.01279129
-0.018736557
-0.014924956
-0.0040099281
0.00084483658
0.0099445671
0.012311568
0.0036242948
-0.0020161992
-0.0076966307
-0.013409142
-0.019354574
-0.015393392
-0.0041799845
0.00067697799
0.0095375029
0.011797366
0.0030800715
-0.0025426387
-0.0082030005
-0.01389383
-0.019790416
-0.01570695
-0.0042932327
0.00036305552
0.0089099493
0.011151334
0.0024494561
-0.0030900098
-0.0086664066
-0.014287547
-0.02010549
-0.015915781
-0.0043664581
-0.00044648607
0.007630599
0.010322951
0.0017712455
-0.0036451786
-0.0090814061
-0.014600789
-0.020323462
-0.016025227
-0.0043917055
-0.0027140502
0.0041615772
0.0087480565
0.0010994285
-0.0041438685
-0.0094173222
-0.014820593
-0.020403625
-0.015751401
-0.0041219144
-0.0034791035
0.0013854491
0.0064308626
0.000623253
-0.0044271731
-0.0096037958
-0.014919066
-0.020159081
-0.0096856143
0.0016740808
-0.0053973373
0.0066566308
0.016248678
0.0053938336
-0.00053512905
-0.0062098185
-0.011310412
-0.014648493
-0.0088842914
-0.0010706445
0.0026813601
0.0131988
0.014587625
0.0051312973
-0.00085412815
-0.0067289053
-0.012520471
-0.017980625
-0.01215037
-0.0018765511
0.0011448324
0.011242983
0.013937283
0.0046800698
-0.0013327861
-0.0073267812
-0.013367014
-0.019788608
-0.015612534
-0.0040378816
0.0010203071
0.010887405
0.013464642
0.0041805211
-0.001887653
-0.0079829906
-0.014113761
-0.020581887
-0.016352314
-0.0043718264
0.00088229603
0.010529219
0.012986507
0.0036497571
-0.0024511917
-0.0085958988
-0.014780934
-0.021248918
-0.016858004
-0.0045554863
0.00070130803
0.010089748
0.012431118
0.0030621154
-0.0030197911
-0.0091430293
-0.015304742
-0.021719867
-0.017196626
-0.0046777013
0.00036320919
0.0094122563
0.011732421
0.0023806395
-0.0036112304
-0.009643861
-0.015730347
-0.022060582
-0.01742247
-0.0047568692
-0.00050875153
0.008033146
0.010837828
0.0016481951
-0.0042107725
-0.010092442
-0.016069198
-0.022296956
-0.017541421
-0.0047842586
-0.0029689231
0.0042721408
0.0091311594
0.00092032968
-0.0047492098
-0.010455525
-0.016307437
-0.022387346
-0.017258719
-0.0045027278
-0.0037748296
0.0013049037
0.006635884
0.00040272501
-0.0050550847
-0.010656908
-0.016413994
-0.022133205
-0.010536055
0.0019384049
-0.0056708657
0.0069937423
0.017018152
0.005500408
-0.0008410769
-0.0069088211
-0.012370947
-0.015961098
-0.009720411
-0.0012093792
0.0028011348
0.013857598
0.015275835
0.0052193842
-0.0011809242
-0.0074620012
-0.013660129
-0.019527701
-0.013199803
-0.0020511666
0.0011929902
0.011804069
0.014584365
0.0047385012
-0.0016918771
-0.0081012079
-0.014564532
-0.021461232
-0.016890237
-0.004349421
0.0010588178
0.011423811
0.014080824
0.0042058824
-0.0022840111
-0.0088021519
-0.015362415
-0.02231086
-0.01768566
-0.0047091252
0.0009119664
0.011042162
0.013570863
0.003639548
-0.002885615
-0.0094567119
-0.016074761
-0.02302276
-0.018225464
-0.0049052485
0.0007189705
0.010573011
0.012977738
0.0030121444
-0.0034928306
-0.01004119
-0.01663442
-0.023525878
-0.018587038
-0.0050356679
0.00035878634
0.0098497751
0.012230713
0.002284044
-0.004124653
-0.01057632
-0.01708925
-0.023890101
-0.018828481
-0.0051202837
-0.00057021098
0.008379426
0.011275452
0.001501915
-0.0047648358
-0.011055679
-0.017451587
-0.024143389
-0.018956182
-0.0051496373
-0.0032078161
0.0043496413
0.0094475539
0.00072251607
-0.0053396713
-0.011443661
-0.017706762
-0.024243422
-0.018666327
-0.0048580968
-0.0040496035
0.0012095996
0.0067895953
0.00016668859
-0.005666214
-0.011658696
-0.017820731
-0.023981235
-0.011328237
0.0021884524
-0.0059111532
0.0072827472
0.017674959
0.0055633399
-0.0011526069
-0.007576
-0.013364953
-0.017183058
-0.010501602
-0.0013423855
0.0029019183
0.014425973
0.015862123
0.0052655666
-0.0015112002
-0.0081598549
-0.0147253
-0.020962133
-0.014172851
-0.0022148617
0.0012320727
0.012287396
0.015133795
0.0047580034
-0.0020512849
-0.008836437
-0.015681973
-0.023009278
-0.018068792
-0.0046358665
0.0010890826
0.011884809
0.01460247
0.0041956141
-0.0026770163
-0.0095777734
-0.016526052
-0.023909998
-0.01891494
-0.0050191079
0.00093429944
0.01148206
0.014063842
0.0035972207
-0.0033129532
-0.010269925
-0.017279156
-0.024662358
-0.019485516
-0.0052264804
0.00073048932
0.010986131
0.013436654
0.0029339458
-0.0039550157
-0.01088812
-0.017871189
-0.025194521
-0.019867797
-0.0053642948
0.00035044455
0.010221623
0.012645924
0.0021637328
-0.0046233001
-0.011454222
-0.018352416
-0.025579984
-0.020123335
-0.005453832
-0.00062985769
0.0086691114
0.011635902
0.0013367627
-0.0053001528
-0.01196138
-0.018735981
-0.025848604
-0.020258985
-0.005484964
-0.0034286309
0.0043954021
0.0096980591
0.00051065304
-0.0059078231
-0.012371849
-0.019006499
-0.025957646
-0.019963753
-0.0051852072
-0.0043011071
0.0011019211
0.006893813
-7.9960871e-05
-0.0062530101
-0.0125992
-0.019127168
-0.025689021
-0.012055482
0.0024233064
-0.0061162525
0.0075232082
0.018217127
0.0055848451
-0.0014649232
-0.0082043643
-0.01428369
-0.018304748
-0.011221695
-0.0014683747
0.0029835542
0.014901765
0.016344952
0.0052721619
-0.0018400471
-0.0088152893
-0.01570681
-0.022272992
-0.015062163
-0.0023661594
0.001262304
0.012691328
0.015584261
0.0047410549
-0.002405925
-0.0095250658
-0.016709845
-0.024421121
-0.019139585
-0.0048949858
0.0011113793
0.012268899
0.015028436
0.0041523732
-0.0030613832
-0.01030221
-0.017594904
-0.025367369
-0.020031233
-0.0052993986
0.00094962074
0.011847538
0.014464473
0.0035256233
-0.003727717
-0.01102767
-0.018384106
-0.026155536
-0.020629054
-0.0055167387
0.00073625538
0.011327897
0.0138071
0.0028305812
-0.0044006508
-0.011675754
-0.019004847
-0.026713449
-0.021029676
-0.0056610951
0.00033869572
0.010526837
0.012977552
0.0020230192
-0.0051012601
-0.01226932
-0.019509487
-0.027117761
-0.021297724
-0.0057549984
-0.000686865
0.0089017421
0.011919006
0.0011563205
-0.0058105942
-0.012801134
-0.019911899
-0.027400043
-0.021440477
-0.0057877138
-0.0036295485
0.0044104634
0.0098831755
0.00028860466
-0.0064473402
-0.013231545
-0.020196081
-0.027517412
-0.021141681
-0.0054815862
-0.0045273332
0.0009838523
0.0069499362
-0.00033314825
-0.0068090366
-0.013469805
-0.0203227
-0.027244
-0.01271199
0.0026419771
-0.0062845564
0.0077146345
0.018642853
0.0055667229
-0.0017739627
-0.0087879011
-0.015119559
-0.019317711
-0.011875256
-0.001586226
0.0030458818
0.015283031
0.016722884
0.00524106
-0.0021633016
-0.0094221264
-0.016596675
-0.023450655
-0.015861263
-0.0025037833
0.0012838396
0.013014365
0.015934524
0.0046896886
-0.002751478
-0.010160715
-0.017639882
-0.025686519
-0.020095022
-0.0051248387
0.0011259121
0.012574701
0.01535763
0.0040783511
-0.0034326135
-0.010968868
-0.018560455
-0.026672452
-0.021026669
-0.0055479277
0.00095817675
0.012137331
0.014771815
0.0034271179
-0.0041252256
-0.011723152
-0.019380879
-0.027491558
-0.021648042
-0.0057738933
0.00073657323
0.011597186
0.014088318
0.0027046035
-0.0048248709
-0.012397116
-0.02002649
-0.028071772
-0.022064528
-0.0059238993
0.00032395146
0.010764517
0.013225074
0.0018646813
-0.0055534743
-0.013014477
-0.02055142
-0.028492431
-0.022343428
-0.0060215877
-0.00074054319
0.009076863
0.012124539
0.00096360638
-0.0062909064
-0.013567658
-0.02097019
-0.028786627
-0.022492398
-0.006055683
-0.0038089927
0.0043957094
0.010003277
5.9641431e-05
-0.0069527942
-0.014015349
-0.021266276
-0.028911592
-0.022191875
-0.0057450704
-0.00472655
0.0008570968
0.0069591326
-0.00058941326
-0.0073287658
-0.014263043
-0.021398059
-0.028635075
-0.013292738
0.002843454
-0.0064147733
0.0078565822
0.018950657
0.0055105246
-0.0020762263
-0.0093214186
-0.015865965
-0.020214554
-0.012457517
-0.0016949583
0.0030887707
0.015568156
0.016994731
0.0051738915
-0.0024773777
-0.0099750318
-0.017387968
-0.024486715
-0.016564486
-0.0026266305
0.0012968008
0.013255251
0.016183566
0.0046056583
-0.0030842226
-0.010737875
-0.018464911
-0.026796525
-0.020928478
-0.005323754
0.0011328446
0.012801064
0.015589164
0.0039754389
-0.0037868303
-0.011572047
-0.019415317
-0.027816061
-0.021894376
-0.0057629097
0.00096016761
0.012350384
0.014985113
0.0033037432
-0.004501444
-0.012350498
-0.020261898
-0.028661051
-0.022535466
-0.0059961063
0.00073169322
0.011793068
0.014279711
0.0025582175
-0.0052234797
-0.013046181
-0.020928392
-0.029259981
-0.022965245
-0.0061508356
0.00030655432
0.010933928
0.013388098
0.0016911199
-0.005975578
-0.013683521
-0.021470369
-0.029694388
-0.023253272
-0.0062517054
-0.00079031016
0.0091941224
0.012252363
0.00076123013
-0.0067365549
-0.014254652
-0.021902907
-0.029998679
-0.023407538
-0.0062869691
-0.0039656066
0.0043519576
0.010058753
-0.00017340605
-0.0074194985
-0.014716858
-0.022209067
-0.030130465
-0.023107138
-0.0059737854
-0.0048972788
0.00072316182
0.0069224733
-0.0008457583
-0.0078074244
-0.014972457
-0.0223452
-0.029852545
-0.013793423
0.003026746
-0.00650591
0.007948728
0.0191395
0.0054176775
-0.002368653
-0.0098004296
-0.016517225
-0.02098889
-0.012964336
-0.0017937104
0.0031121466
0.015755935
0.017159678
0.0050721506
-0.0027791425
-0.0104694
-0.018074731
-0.025373927
-0.017166945
-0.0027337532
0.0013012974
0.01341305
0.016330709
0.0044905613
-0.0034009118
-0.011251791
-0.019178767
-0.027743439
-0.021634262
-0.0054903155
0.001132324
0.012947144
0.015722466
0.0038453487
-0.0041206564
-0.012106836
-0.020153142
-0.028790289
-0.022628453
-0.0059428294
0.00095577051
0.012485934
0.015103907
0.0031573355
-0.0048528613
-0.012904651
-0.021020658
-0.029655949
-0.023285307
-0.0061818183
0.00072183454
0.011914885
0.014380952
0.0023933991
-0.0055928312
-0.013617758
-0.02170392
-0.0302699
-0.023725725
-0.0063403161
0.00028680039
0.011034572
0.01346647
0.0015044762
-0.0063637827
-0.014271143
-0.022259598
-0.030715372
-0.024021101
-0.0064437445
-0.00083567075
0.0092533436
0.012302541
0.00055150838
-0.0071436086
-0.014856698
-0.022703235
-0.031027879
-0.02417971
-0.0064799584
-0.0040982365
0.0042800231
0.010050108
-0.00040803367
-0.0078433941
-0.015330566
-0.023017577
-0.031165671
-0.023881282
-0.0061661337
-0.0050382793
0.00058341804
0.006841032
-0.0010995365
-0.0082408808
-0.015592493
-0.023157219
-0.03088806
-0.014210413
0.0031909111
-0.0065572599
0.007990924
0.019208872
0.005289578
-0.0026485269
-0.010221068
-0.017068501
-0.021635289
-0.013392168
-0.0018817286
0.0031160103
0.01584563
0.01721736
0.0049372884
-0.0030658228
-0.01090127
-0.018651905
-0.026106165
-0.017664505
-0.0028243461
0.0012974465
0.013487211
0.0163757
0.00434593
-0.0036986814
-0.011698384
-0.019776226
-0.02852077
-0.022207603
-0.0056233514
0.0011244979
0.013012458
0.015757367
0.0036897041
-0.0044311231
-0.012569028
-0.020768562
-0.029588478
-0.023223958
-0.0060864332
0.00094515686
0.012543563
0.015128115
0.0029896178
-0.0051764022
-0.013381284
-0.021651659
-0.030469469
-0.023892523
-0.0063297404
0.00070720203
0.011962303
0.014392067
0.0022119833
-0.0059297411
-0.014107416
-0.022347475
-0.031094653
-0.024340864
-0.006491029
0.00026495518
0.011066247
0.013460357
0.0013067182
-0.0067147897
-0.014772815
-0.022913425
-0.031548441
-0.024641766
-0.0065963777
-0.00087620174
0.0092545782
0.01227541
0.00033655005
-0.0075086541
-0.015369181
-0.023365422
-0.031867234
-0.024803738
-0.0066333181
-0.0042059214
0.0041807654
0.0099780446
-0.0006419801
-0.0082209649
-0.015851788
-0.023686007
-0.032010181
-0.024509122
-0.0063207868
-0.0051485389
0.00043914258
0.0067159575
-0.0013483692
-0.0086255607
-0.016118425
-0.023828296
-0.03173459
-0.014540723
0.0033350808
-0.0065683935
0.0079832388
0.019158857
0.005127661
-0.0029134075
-0.010580026
-0.017515748
-0.022149254
-0.013738046
-0.0019583569
0.0031004512
0.015837017
0.017167934
0.004770781
-0.0033349366
-0.011267265
-0.019115287
-0.026678406
-0.018053771
-0.0028977374
0.0012853851
0.013477605
0.016318772
0.0041733004
-0.0039749818
-0.012074187
-0.020252961
-0.029123215
-0.02264464
-0.0057219286
0.0011095278
0.012996932
0.015694164
0.0035101083
-0.0047156034
-0.01295506
-0.021257137
-0.030205196
-0.02367689
-0.0061927229
0.00092850506
0.012523244
0.0150581
0.0028022667
-0.0054693601
-0.013776748
-0.022150371
-0.031096085
-0.024353043
-0.0064388481
0.00068799869
0.011935358
0.014313497
0.0020157301
-0.0062314216
-0.014511425
-0.022854448
-0.031728646
-0.024806543
-0.0066019325
0.000241266
0.011029083
0.013370304
0.0010997057
-0.0070257253
-0.015184735
-0.02342718
-0.032187952
-0.025111115
-0.0067085517
-0.00091154078
0.0091981449
0.012171648
0.00011832008
-0.0078287321
-0.015788234
-0.023884749
-0.032511065
-0.02527545
-0.0067459905
-0.0042878852
0.0040551223
0.0098435136
-0.00087316408
-0.0085491754
-0.016276602
-0.024209598
-0.032658284
-0.024986462
-0.0064366791
-0.0052272656
0.00029155067
0.0065485281
-0.0015900835
-0.008958385
-0.016546306
-0.024353656
-0.032386411
-0.014781993
0.0034584784
-0.0065391494
0.007925989
0.018990184
0.0049334526
-0.0031610769
-0.010874504
-0.017855681
-0.022527199
-0.013999569
-0.0020230303
0.0030656579
0.015730418
0.017012124
0.0045741828
-0.00358424
-0.011564543
-0.019461494
-0.027086701
-0.018332073
-0.0029533821
0.00126528
0.013384559
0.016160697
0.0039742642
-0.004227525
-0.012376297
-0.020605505
-0.029546641
-0.022942408
-0.0057853469
0.0010875983
0.012900932
0.015533664
0.0033081955
-0.0049717595
-0.013261969
-0.02161533
-0.030636225
-0.02398419
-0.0062609508
0.00090601017
0.012425371
0.01489471
0.0025969635
-0.0057293456
-0.014088021
-0.022513192
-0.031531518
-0.024663762
-0.0065083763
0.00066443521
0.011834483
0.014146145
0.0018063749
-0.0064954303
-0.014826714
-0.023221189
-0.032167555
-0.025119623
-0.006672251
0.00021597111
0.010923578
0.013197284
0.00088523979
-0.0072940911
-0.015503781
-0.02379717
-0.032629546
-0.025425987
-0.0067794831
-0.00094137791
0.009084659
0.011992309
-0.00010131193
-0.0081012886
-0.016110691
-0.02425749
-0.032954986
-0.025591672
-0.0068171892
-0.0043435304
0.0039041358
0.0096477606
-0.0010996366
-0.0088254218
-0.016601809
-0.0245846
-0.033105569
-0.025310092
-0.0065130047
-0.0052738822
0.00014181914
0.0063401918
-0.001822666
-0.009236722
-0.016872916
-0.024729538
-0.03283909
-0.014932468
0.003560435
-0.0064696273
0.0078197629
0.018704258
0.0047086122
-0.0033894962
-0.011102177
-0.018085744
-0.022766427
-0.014174889
-0.0020752688
0.003011926
0.015526726
0.016751258
0.0043491677
-0.0038116842
-0.011790762
-0.01968793
-0.027328168
-0.018497461
-0.0029908561
0.0012373363
0.013208884
0.015902815
0.00375051
-0.0044542428
-0.012602343
-0.020831225
-0.029788073
-0.023098839
-0.0058131344
0.0010589258
0.012725283
0.015277223
0.0030856716
-0.0051975014
-0.013487351
-0.021840473
-0.03087854
-0.024143728
-0.0062906157
0.00087789177
0.012250782
0.014639319
0.0023754345
-0.0059542458
-0.014312675
-0.022737427
-0.031772718
-0.02482253
-0.0065378158
0.0006367377
0.011660536
0.013891406
0.0015856686
-0.00671963
-0.015050828
-0.023444977
-0.03240831
-0.025277941
-0.0067014703
0.00018930719
0.010750616
0.012942729
0.00066510218
-0.0075177234
-0.015727479
-0.024020656
-0.032870137
-0.025584208
-0.0068086541
-0.00096544857
0.0089150544
0.011738863
-0.00032053288
-0.0083241346
-0.016334058
-0.024480888
-0.033195897
-0.02575022
-0.0068463951
-0.0043724337
0.0037289704
0.0093923566
-0.0013195428
-0.009047493
-0.016824897
-0.024808243
-0.033348915
-0.025477785
-0.0065492128
-0.0052880209
-8.8950722e-06
0.006092597
-0.0020442243
-0.0094583477
-0.017095736
-0.024953167
-0.033089474
-0.014990988
0.0036404025
-0.0063601785
0.0076654399
0.018303194
0.0044549666
-0.0035967689
-0.011261152
-0.018204077
-0.022865114
-0.014262702
-0.0021146734
0.0029396641
0.015227422
0.016387294
0.0040975636
-0.004015379
-0.011944037
-0.019792758
-0.027400969
-0.018548692
-0.0030098512
0.0012018035
0.012951887
0.015547065
0.0035038577
-0.0046532495
-0.012750441
-0.020928289
-0.029845673
-0.023112742
-0.0058050427
0.0010237641
0.012471293
0.014926772
0.0028443484
-0.0053909498
-0.01362933
-0.021930737
-0.030930302
-0.024154297
-0.0062814575
0.00084440045
0.012000778
0.01429385
0.002139485
-0.006142187
-0.014448838
-0.022821253
-0.03181785
-0.024828144
-0.0065269083
0.00060515407
0.011414813
0.013551201
0.001355411
-0.006902152
-0.015181901
-0.023523995
-0.032449079
-0.025280297
-0.0066893336
0.0001615157
0.010511488
0.012608557
0.00044108878
-0.0076947575
-0.015853962
-0.024095823
-0.032907894
-0.025584579
-0.0067958083
-0.00098352734
0.0086906004
0.011413223
-0.00053755289
-0.0084954107
-0.016456471
-0.024553129
-0.033231966
-0.025749896
-0.0068333515
-0.0043743398
0.0035309297
0.0090792244
-0.0015310888
-0.0092135346
-0.016944006