/*--------------------------------*- C++ -*----------------------------------*\
| =========                 |                                                 |
| \\      /  F ield         | OpenFOAM: The Open Source CFD Toolbox           |
|  \\    /   O peration     | Version:  v2106                                 |
|   \\  /    A nd           | Website:  www.openfoam.com                      |
|    \\/     M anipulation  |                                                 |
\*---------------------------------------------------------------------------*/
FoamFile
{
    version     2.0;
    format      ascii;
    arch        "LSB;label=32;scalar=64";
    class       volVectorField;
    location    "30";
    object      gradT;
}
// * * * * * * * * * * * * * * * * * * * * * * * * * * * * * * * * * * * * * //

dimensions      [0 -1 0 1 0 0 0];

internalField   nonuniform List<vector> 
4000
(
(-0.00014853875 -0.00014853874 735.03962)
(0.00028341023 0.0003078288 735.03918)
(0.00021968428 3.1642109e-05 735.04048)
(-0.00037125963 4.7910287e-07 735.03971)
(-0.00020632195 1.4231654e-05 735.03914)
(-3.2719601e-05 2.6973389e-05 735.03896)
(5.2444007e-05 3.9584652e-05 735.03903)
(7.0213779e-05 4.7640208e-05 735.03918)
(4.9736826e-05 3.2650202e-05 735.03931)
(1.7359652e-05 -3.5656582e-06 735.03942)
(0.00030782879 0.00028341022 735.03918)
(0.00046359108 0.00046359108 735.04002)
(-8.766541e-05 0.00014705048 735.04048)
(-0.00038867008 0.00012399375 735.03963)
(-0.00017982768 0.00014881315 735.03909)
(-7.3666039e-06 0.00017368375 735.03897)
(7.3110823e-05 0.00020415147 735.03908)
(6.3279333e-05 0.00023484009 735.03927)
(-1.4690436e-06 0.0002280245 735.03931)
(-1.8856208e-05 0.00015085086 735.03928)
(3.1642109e-05 0.00021968428 735.04048)
(0.00014705048 -8.766541e-05 735.04048)
(-0.00011991305 -0.00011991305 735.04081)
(-0.00036949696 -0.00010165722 735.03997)
(-0.00015663194 -8.149734e-05 735.03948)
(2.2618712e-05 -5.8776529e-05 735.0394)
(0.00011360034 -2.5086669e-05 735.03959)
(9.4086804e-05 2.2742374e-05 735.03987)
(-3.4252389e-05 6.6512882e-05 735.03994)
(-5.9813977e-05 6.3843132e-05 735.03975)
(4.7910287e-07 -0.00037125963 735.03971)
(0.00012399375 -0.00038867008 735.03963)
(-0.00010165722 -0.00036949697 735.03997)
(-0.00035025438 -0.00035025438 735.03917)
(-0.00013694698 -0.00033282832 735.03871)
(4.9044071e-05 -0.00031337348 735.03868)
(0.00015462973 -0.00028688826 735.03893)
(0.00015487888 -0.00024782839 735.0393)
(3.9631708e-05 -0.00019484468 735.03951)
(-2.1525965e-05 -0.00013897077 735.03946)
(1.4231664e-05 -0.00020632196 735.03914)
(0.00014881315 -0.00017982767 735.03909)
(-8.1497354e-05 -0.00015663195 735.03948)
(-0.00033282832 -0.00013694699 735.03871)
(-0.00011975104 -0.00011975105 735.03828)
(6.8558791e-05 -0.00010295419 735.03828)
(0.00017914543 -8.4876779e-05 735.03858)
(0.00018613037 -6.4124758e-05 735.03901)
(7.4605222e-05 -4.069076e-05 735.03929)
(-3.9400566e-06 -1.8894095e-05 735.03931)
(2.6973396e-05 -3.2719598e-05 735.03896)
(0.00017368375 -7.3666108e-06 735.03897)
(-5.8776532e-05 2.2618723e-05 735.0394)
(-0.00031337348 4.9044074e-05 735.03868)
(-0.00010295419 6.8558777e-05 735.03828)
(8.3918338e-05 8.3918327e-05 735.03832)
(0.00019345917 9.686622e-05 735.03864)
(0.0001990649 0.000107241 735.0391)
(8.4862381e-05 0.00011449006 735.0394)
(2.7069319e-07 0.00011798782 735.03944)
(3.9584652e-05 5.2444011e-05 735.03903)
(0.00020415147 7.3110823e-05 735.03908)
(-2.5086672e-05 0.00011360034 735.03959)
(-0.00028688826 0.00015462973 735.03893)
(-8.4876786e-05 0.00017914544 735.03858)
(9.6866223e-05 0.00019345916 735.03864)
(0.0002024681 0.0002024681 735.03899)
(0.00020375421 0.00020630687 735.03946)
(8.5352041e-05 0.00020452703 735.03977)
(-4.4230591e-07 0.00019876531 735.0398)
(4.7640204e-05 7.0213776e-05 735.03918)
(0.00023484008 6.3279326e-05 735.03927)
(2.2742377e-05 9.4086797e-05 735.03987)
(-0.00024782838 0.00015487889 735.0393)
(-6.4124758e-05 0.00018613038 735.03901)
(0.00010724099 0.00019906491 735.0391)
(0.00020630688 0.00020375421 735.03946)
(0.00020112384 0.00020112384 735.03994)
(7.7320816e-05 0.00019048728 735.04022)
(-5.4910139e-06 0.00017498735 735.04023)
(3.2650199e-05 4.9736826e-05 735.03931)
(0.00022802448 -1.4690367e-06 735.03931)
(6.6512889e-05 -3.4252396e-05 735.03994)
(-0.00019484468 3.9631708e-05 735.03951)
(-4.069076e-05 7.4605225e-05 735.03929)
(0.00011449006 8.4862367e-05 735.0394)
(0.00020452703 8.5352048e-05 735.03977)
(0.00019048729 7.7320816e-05 735.04022)
(5.9215553e-05 5.9215563e-05 735.04048)
(-1.5942244e-05 3.6193812e-05 735.04043)
(-3.5656651e-06 1.7359655e-05 735.03942)
(0.00015085086 -1.8856215e-05 735.03928)
(6.3843129e-05 -5.9813977e-05 735.03975)
(-0.00013897076 -2.1525972e-05 735.03946)
(-1.8894105e-05 -3.9400601e-06 735.03931)
(0.00011798782 2.7069319e-07 735.03944)
(0.00019876533 -4.4230591e-07 735.0398)
(0.00017498735 -5.4910139e-06 735.04023)
(3.6193808e-05 -1.5942237e-05 735.04043)
(-2.8512769e-05 -2.8512762e-05 735.04035)
(-0.00029066273 -0.00029066272 735.13216)
(0.00057093359 0.0005259252 735.13192)
(0.00031092506 -2.5667978e-05 735.1325)
(-0.00097068918 -8.8549029e-05 735.13186)
(-0.00054672471 -5.6438808e-05 735.1314)
(-7.5095014e-05 -2.1392024e-05 735.13127)
(0.00016952898 1.7421252e-05 735.13137)
(0.00021398349 3.8600134e-05 735.13154)
(0.00018770312 -3.0798954e-05 735.13164)
(9.1636813e-05 -0.00013672387 735.13184)
(0.0005259252 0.00057093359 735.13192)
(0.00083592834 0.00083592833 735.13226)
(-0.00030354918 0.00018476053 735.13242)
(-0.00100146 0.00013436927 735.13173)
(-0.00047956771 0.00019448499 735.1313)
(-1.2349462e-06 0.00026526092 735.13122)
(0.00022952113 0.00035836238 735.13138)
(0.00016576329 0.00044789068 735.13158)
(1.2379108e-05 0.00039634721 735.13154)
(-1.4288105e-05 0.00017585085 735.13155)
(-2.5667978e-05 0.00031092506 735.1325)
(0.00018476053 -0.00030354917 735.13242)
(-0.000390634 -0.000390634 735.13248)
(-0.00096096472 -0.00035432035 735.13181)
(-0.00041583306 -0.00030067594 735.13141)
(8.8782395e-05 -0.00023322523 735.13138)
(0.00035215872 -0.00013124614 735.13161)
(0.0002519683 1.1900148e-05 735.13191)
(-8.433669e-05 0.00012928335 735.1319)
(-0.00012885953 0.00011464327 735.13178)
(-8.8549033e-05 -0.00097068917 735.13186)
(0.00013436928 -0.00100146 735.13173)
(-0.00035432036 -0.00096096472 735.13181)
(-0.00091150195 -0.00091150195 735.13117)
(-0.00035847258 -0.00086104763 735.1308)
(0.00016819484 -0.00080262145 735.1308)
(0.00047464652 -0.00072274071 735.1311)
(0.00042629278 -0.00060602834 735.1315)
(0.00011512223 -0.00045498939 735.1316)
(-2.8928183e-05 -0.00030303719 735.1316)
(-5.6438802e-05 -0.00054672472 735.1314)
(0.00019448499 -0.00047956771 735.1313)
(-0.00030067594 -0.00041583307 735.13141)
(-0.00086104764 -0.00035847258 735.1308)
(-0.00030695258 -0.00030695257 735.13046)
(0.00022708932 -0.00025634621 735.1305)
(0.00054875184 -0.00020173238 735.13084)
(0.00051971963 -0.00013867945 735.13129)
(0.00021865444 -6.8269165e-05 735.13147)
(2.3092663e-05 -2.1341158e-06 735.13153)
(-2.1392027e-05 -7.5095007e-05 735.13127)
(0.00026526092 -1.2349566e-06 735.13122)
(-0.00023322523 8.8782388e-05 735.13138)
(-0.00080262145 0.00016819484 735.1308)
(-0.00025634622 0.00022708932 735.1305)
(0.00027341504 0.00027341505 735.13057)
(0.00059231329 0.00031223752 735.13094)
(0.00055975598 0.00034347163 735.13142)
(0.00025166758 0.00036533223 735.13162)
(3.720687e-05 0.00037623364 735.1317)
(1.7421245e-05 0.00016952897 735.13137)
(0.00035836239 0.00022952113 735.13138)
(-0.00013124615 0.00035215873 735.13161)
(-0.0007227407 0.00047464652 735.1311)
(-0.00020173237 0.00054875184 735.13084)
(0.00031223752 0.00059231329 735.13094)
(0.00061880842 0.00061880842 735.13133)
(0.00057281434 0.00062856504 735.13183)
(0.00025141645 0.00061963195 735.13203)
(3.3994065e-05 0.00059563144 735.1321)
(3.8600137e-05 0.00021398349 735.13154)
(0.00044789068 0.00016576329 735.13158)
(1.1900148e-05 0.00025196831 735.13191)
(-0.00060602833 0.00042629279 735.1315)
(-0.00013867945 0.00051971961 735.13129)
(0.00034347162 0.00055975598 735.13142)
(0.00062856503 0.00057281433 735.13183)
(0.00056057952 0.00056057951 735.13232)
(0.00021873397 0.00051983191 735.13249)
(1.3206353e-05 0.00045869617 735.13252)
(-3.0798954e-05 0.00018770311 735.13164)
(0.00039634721 1.2379115e-05 735.13154)
(0.00012928335 -8.4336697e-05 735.1319)
(-0.00045498939 0.00011512223 735.1316)
(-6.8269172e-05 0.00021865444 735.13147)
(0.00036533223 0.00025166757 735.13162)
(0.00061963195 0.00025141645 735.13203)
(0.00051983192 0.00021873397 735.13249)
(0.0001495331 0.00014953311 735.13261)
(-2.7141667e-05 8.3169686e-05 735.13256)
(-0.00013672388 9.163682e-05 735.13184)
(0.00017585086 -1.4288112e-05 735.13155)
(0.00011464327 -0.00012885954 735.13178)
(-0.00030303719 -2.892819e-05 735.1316)
(-2.1341123e-06 2.309266e-05 735.13153)
(0.00037623364 3.720687e-05 735.1317)
(0.00059563144 3.3994078e-05 735.1321)
(0.00045869618 1.3206353e-05 735.13252)
(8.3169683e-05 -2.7141664e-05 735.13256)
(-5.3157072e-05 -5.3157072e-05 735.13259)
(-0.00039204905 -0.00039204905 735.31608)
(0.00062177799 0.00064802442 735.31583)
(0.00016593486 -5.0984109e-05 735.31611)
(-0.001473405 -0.0001276749 735.31555)
(-0.00079879554 -8.0808103e-05 735.31518)
(-5.9440508e-05 -2.3564838e-05 735.31512)
(0.00032186241 4.7519762e-05 735.31528)
(0.00033851249 8.8353443e-05 735.31548)
(0.00034673679 -6.6690365e-05 735.31552)
(0.00021624447 -0.00029209648 735.31572)
(0.00064802442 0.00062177799 735.31583)
(0.00096284292 0.00096284294 735.31601)
(-0.00060976446 0.00013276271 735.31602)
(-0.001503229 7.3563905e-05 735.31544)
(-0.00069468548 0.00016315214 735.3151)
(6.8887358e-05 0.00027891639 735.31508)
(0.00043378068 0.00044260976 735.3153)
(0.00022430237 0.00060458239 735.31556)
(-3.3713126e-05 0.00048585488 735.31544)
(-9.1616471e-06 9.1764762e-05 735.31543)
(-5.0984109e-05 0.00016593485 735.31611)
(0.0001327627 -0.00060976446 735.31602)
(-0.00072334417 -0.00072334417 735.31597)
(-0.0014430155 -0.00067022296 735.3154)
(-0.00059344305 -0.00058656629 735.31509)
(0.00022001711 -0.0004760649 735.31512)
(0.0006475284 -0.00030480915 735.31542)
(0.00038175762 -6.0946855e-05 735.31577)
(-0.00016608083 0.00013237389 735.31569)
(-0.00017784565 0.00011461686 735.31557)
(-0.00012767489 -0.001473405 735.31555)
(7.3563908e-05 -0.001503229 735.31544)
(-0.00067022297 -0.0014430155 735.3154)
(-0.0013664511 -0.0013664511 735.31486)
(-0.00050052741 -0.0012847573 735.31457)
(0.00035064448 -0.0011886185 735.31464)
(0.00084889873 -0.001056789 735.315)
(0.0006614854 -0.00086509078 735.31546)
(0.00014185059 -0.00062508192 735.31548)
(-2.6918672e-05 -0.00039143724 735.31545)
(-8.0808103e-05 -0.00079879554 735.31518)
(0.00016315213 -0.00069468549 735.3151)
(-0.00058656629 -0.00059344304 735.31509)
(-0.0012847573 -0.00050052741 735.31457)
(-0.00041561047 -0.00041561046 735.31432)
(0.00044798539 -0.00033173255 735.31443)
(0.00097105611 -0.00024129191 735.31483)
(0.00081346474 -0.00013713357 735.31533)
(0.00030757271 -2.2845864e-05 735.31542)
(5.5799029e-05 8.3613935e-05 735.31545)
(-2.3564845e-05 -5.9440522e-05 735.31512)
(0.0002789164 6.8887351e-05 735.31508)
(-0.0004760649 0.00022001711 735.31512)
(-0.0011886185 0.00035064448 735.31464)
(-0.00033173255 0.0004479854 735.31443)
(0.00052496302 0.00052496304 735.31456)
(0.0010434977 0.00058909917 735.31499)
(0.00087993145 0.00064003833 735.31552)
(0.0003625981 0.00067412544 735.31563)
(7.9541127e-05 0.00068932452 735.31568)
(4.7519762e-05 0.0003218624 735.31528)
(0.00044260976 0.0004337807 735.3153)
(-0.00030480915 0.0006475284 735.31542)
(-0.001056789 0.00084889873 735.315)
(-0.00024129191 0.0009710561 735.31483)
(0.00058909915 0.0010434977 735.31499)
(0.0010861314 0.0010861314 735.31545)
(0.00089849101 0.0010977761 735.31599)
(0.0003568589 0.0010728078 735.31609)
(7.0998114e-05 0.0010154025 735.31613)
(8.8353456e-05 0.0003385125 735.31548)
(0.00060458238 0.00022430238 735.31556)
(-6.0946859e-05 0.00038175762 735.31577)
(-0.00086509079 0.00066148539 735.31546)
(-0.00013713358 0.00081346474 735.31533)
(0.00064003833 0.00087993143 735.31552)
(0.0010977761 0.00089849101 735.31599)
(0.00086660781 0.0008666078 735.31652)
(0.00028022454 0.00077396218 735.31658)
(2.2135866e-05 0.00063724664 735.31655)
(-6.6690358e-05 0.0003467368 735.31552)
(0.00048585488 -3.371314e-05 735.31544)
(0.00013237387 -0.00016608084 735.31569)
(-0.00062508192 0.00014185059 735.31548)
(-2.2845868e-05 0.00030757271 735.31542)
(0.00067412543 0.00036259809 735.31563)
(0.0010728078 0.0003568589 735.31609)
(0.00077396218 0.00028022454 735.31658)
(0.00012749774 0.00012749773 735.31656)
(-6.5717421e-05 0.00010904561 735.3164)
(-0.00029209649 0.00021624447 735.31572)
(9.1764752e-05 -9.1616506e-06 735.31543)
(0.00011461686 -0.00017784566 735.31557)
(-0.00039143723 -2.6918669e-05 735.31545)
(8.3613921e-05 5.5799029e-05 735.31545)
(0.00068932452 7.9541131e-05 735.31568)
(0.0010154025 7.099811e-05 735.31613)
(0.00063724664 2.2135873e-05 735.31655)
(0.00010904561 -6.5717428e-05 735.3164)
(3.6837443e-06 3.6837443e-06 735.31653)
(-0.00053708469 -0.00053708468 735.59025)
(0.00060366725 0.00070753935 735.58997)
(3.5171935e-05 -0.00011824297 735.59024)
(-0.0018966763 -0.00020497249 735.58976)
(-0.00097799805 -0.00014406577 735.58946)
(2.0902759e-05 -6.4480071e-05 735.58946)
(0.00052691499 4.3080838e-05 735.58968)
(0.00045292126 0.00011570001 735.58994)
(0.00042323089 -0.00010933105 735.58996)
(0.00028942005 -0.00042022535 735.5901)
(0.00070753934 0.00060366727 735.58997)
(0.001022509 0.001022509 735.5901)
(-0.00087733991 4.2675939e-05 735.59011)
(-0.001922499 -1.9924232e-05 735.58961)
(-0.00083750564 9.7961358e-05 735.58934)
(0.00020804936 0.00025805081 735.58939)
(0.00070709507 0.00049587309 735.58968)
(0.00030050937 0.00074121231 735.59)
(-0.00011269447 0.00056495189 735.58989)
(-2.1474243e-05 2.9763737e-05 735.58987)
(-0.00011824298 3.5171928e-05 735.59024)
(4.2675936e-05 -0.0008773399 735.59011)
(-0.0010072613 -0.0010072613 735.59009)
(-0.0018413909 -0.0009355544 735.5896)
(-0.00070002301 -0.00082275018 735.58936)
(0.0004188145 -0.00067066316 735.58945)
(0.0010100765 -0.00043173394 735.58981)
(0.00052200006 -9.0419037e-05 735.59024)
(-0.00028821769 0.00016675691 735.59014)
(-0.0002457681 0.00013522372 735.59001)
(-0.00020497249 -0.0018966763 735.58976)
(-1.9924232e-05 -0.0019224991 735.58961)
(-0.00093555441 -0.0018413909 735.5896)
(-0.001737988 -0.001737988 735.58914)
(-0.0005726144 -0.0016258348 735.58893)
(0.0005990656 -0.001493073 735.58905)
(0.0012873392 -0.0013107397 735.58948)
(0.00089900022 -0.0010469596 735.58999)
(0.00011294829 -0.00072622549 735.59)
(-5.3007432e-05 -0.00042349986 735.58994)
(-0.00014406577 -0.00097799805 735.58946)
(9.7961344e-05 -0.00083750564 735.58934)
(-0.00082275017 -0.00070002301 735.58936)
(-0.0016258348 -0.0005726144 735.58893)
(-0.00045510809 -0.00045510808 735.58874)
(0.00073390961 -0.00033881114 735.58891)
(0.0014561899 -0.00021349777 735.58937)
(0.0011065142 -6.9576098e-05 735.58993)
(0.00033524202 8.569264e-05 735.58999)
(5.6957532e-05 0.00022836442 735.59)
(-6.4480074e-05 2.0902769e-05 735.58946)
(0.0002580508 0.00020804936 735.58939)
(-0.00067066317 0.00041881451 735.58945)
(-0.001493073 0.00059906561 735.58905)
(-0.00033881115 0.00073390961 735.58891)
(0.0008406759 0.00084067591 735.5891)
(0.0015565743 0.00092903662 735.58959)
(0.0011981906 0.0009980682 735.59018)
(0.00041088882 0.0010416303 735.59026)
(8.9664335e-05 0.0010577691 735.59028)
(4.3080824e-05 0.00052691498 735.58968)
(0.00049587309 0.00070709508 735.58968)
(-0.00043173393 0.0010100765 735.58981)
(-0.0013107397 0.0012873392 735.58948)
(-0.00021349778 0.0014561899 735.58937)
(0.00092903661 0.0015565742 735.58959)
(0.0016135822 0.0016135822 735.5901)
(0.0012191079 0.0016227596 735.5907)
(0.00039494294 0.0015718949 735.59078)
(7.3096366e-05 0.0014644979 735.59078)
(0.00011570002 0.00045292125 735.58994)
(0.00074121232 0.00030050937 735.59)
(-9.0419051e-05 0.00052200005 735.59024)
(-0.0010469596 0.00089900021 735.58999)
(-6.9576098e-05 0.0011065142 735.58993)
(0.00099806819 0.0011981906 735.59018)
(0.0016227596 0.0012191079 735.5907)
(0.0011565033 0.0011565033 735.59128)
(0.00025262713 0.00098361188 735.59131)
(-1.7732631e-05 0.00072661143 735.59122)
(-0.00010933106 0.00042323089 735.58996)
(0.00056495188 -0.00011269447 735.58989)
(0.00016675691 -0.0002882177 735.59014)
(-0.00072622549 0.00011294829 735.59)
(8.5692647e-05 0.00033524202 735.58999)
(0.0010416303 0.00041088881 735.59026)
(0.0015718949 0.00039494292 735.59078)
(0.0009836119 0.00025262713 735.59131)
(-3.4948915e-05 -3.4948922e-05 735.59121)
(-0.00018390408 6.5632683e-05 735.59094)
(-0.00042022535 0.00028942006 735.5901)
(2.9763726e-05 -2.1474243e-05 735.58987)
(0.00013522372 -0.0002457681 735.59001)
(-0.00042349986 -5.3007439e-05 735.58994)
(0.00022836442 5.6957532e-05 735.59)
(0.0010577691 8.9664335e-05 735.59028)
(0.0014644979 7.3096369e-05 735.59078)
(0.00072661144 -1.7732635e-05 735.59122)
(6.5632683e-05 -0.00018390408 735.59094)
(8.2848971e-05 8.2848964e-05 735.59109)
(-0.00066784067 -0.00066784066 735.95312)
(0.00061297442 0.00076919252 735.95288)
(-4.776067e-05 -0.00017776333 735.95317)
(-0.0022524816 -0.00027385724 735.95275)
(-0.0010949909 -0.00019962958 735.95251)
(0.00016175618 -9.8597581e-05 735.95257)
(0.00079624365 4.5039177e-05 735.95284)
(0.00061984887 0.00015023813 735.95315)
(0.0005126148 -0.00014376239 735.95322)
(0.00035616833 -0.00052799089 735.95335)
(0.00076919252 0.00061297442 735.95288)
(0.0011030518 0.0011030518 735.95301)
(-0.0010908104 -1.8700267e-05 735.95306)
(-0.0022743478 -8.3596314e-05 735.95263)
(-0.00091973123 6.1497672e-05 735.95242)
(0.00040642494 0.00026419488 735.95251)
(0.0010450794 0.00057448448 735.95286)
(0.00043104731 0.00090165041 735.95323)
(-0.00016561423 0.00066386047 735.95316)
(-2.8060169e-05 -4.5844578e-07 735.95315)
(-0.00017776334 -4.7760663e-05 735.95317)
(-1.8700267e-05 -0.0010908104 735.95306)
(-0.0012344087 -0.0012344087 735.95308)
(-0.0021722836 -0.0011436735 735.95266)
(-0.00074719969 -0.0010024237 735.95247)
(0.00067474299 -0.00081018614 735.95261)
(0.0014336992 -0.00050579814 735.95302)
(0.00070922486 -7.1243837e-05 735.9535)
(-0.00038949406 0.00024058439 735.95343)
(-0.00030815058 0.00019026017 735.95332)
(-0.00027385725 -0.0022524816 735.95275)
(-8.3596314e-05 -0.0022743478 735.95263)
(-0.0011436735 -0.0021722836 735.95266)
(-0.0020423628 -0.0020423628 735.95226)
(-0.00058624387 -0.0019005031 735.9521)
(0.00090305052 -0.0017322754 735.95228)
(0.0017840217 -0.0015010453 735.95275)
(0.0011774298 -0.0011680093 735.95331)
(9.5889779e-05 -0.00077249479 735.95334)
(-7.8384393e-05 -0.00040781912 735.95329)
(-0.00019962958 -0.0010949909 735.95251)
(6.1497668e-05 -0.00091973122 735.95242)
(-0.0010024237 -0.00074719969 735.95247)
(-0.0019005031 -0.00058624387 735.9521)
(-0.00043711233 -0.00043711233 735.95197)
(0.0010742008 -0.00028951362 735.95218)
(0.0019979653 -0.00013056089 735.95269)
(0.0014377754 5.1614941e-05 735.9533)
(0.00037069611 0.00024550719 735.95338)
(5.652509e-05 0.00042164115 735.95339)
(-9.8597578e-05 0.00016175618 735.95257)
(0.0002641949 0.00040642494 735.95251)
(-0.00081018615 0.00067474299 735.95261)
(-0.0017322755 0.00090305053 735.95228)
(-0.00028951362 0.0010742008 735.95218)
(0.001209602 0.001209602 735.95242)
(0.0021251502 0.0013210252 735.95296)
(0.0015534979 0.0014069453 735.95359)
(0.00046591599 0.0014585139 735.95369)
(9.7749572e-05 0.0014741169 735.95371)
(4.5039177e-05 0.00079624365 735.95284)
(0.00057448449 0.0010450794 735.95286)
(-0.00050579814 0.0014336992 735.95302)
(-0.0015010453 0.0017840217 735.95275)
(-0.00013056089 0.0019979653 735.95269)
(0.0013210252 0.0021251502 735.95296)
(0.0021953086 0.0021953086 735.95351)
(0.0015752641 0.0021998957 735.95415)
(0.00043786773 0.0021183471 735.95425)
(7.2128047e-05 0.0019519411 735.95425)
(0.00015023813 0.00061984887 735.95315)
(0.00090165042 0.0004310473 735.95323)
(-7.1243834e-05 0.00070922485 735.9535)
(-0.0011680093 0.0011774298 735.95331)
(5.1614931e-05 0.0014377754 735.9533)
(0.0014069453 0.0015534979 735.95359)
(0.0021998957 0.0015752641 735.95415)
(0.0014765364 0.0014765364 735.95477)
(0.0002179614 0.0012070594 735.95482)
(-6.8656462e-05 0.00079829728 735.95471)
(-0.00014376239 0.00051261479 735.95322)
(0.00066386047 -0.00016561422 735.95316)
(0.00024058439 -0.00038949407 735.95343)
(-0.00077249478 9.5889779e-05 735.95334)
(0.00024550719 0.00037069611 735.95338)
(0.0014585139 0.00046591598 735.95369)
(0.0021183471 0.00043786771 735.95425)
(0.0012070594 0.00021796139 735.95482)
(-0.00024037139 -0.0002403714 735.95472)
(-0.00033663408 -1.7184618e-05 735.9544)
(-0.00052799088 0.00035616833 735.95335)
(-4.5844231e-07 -2.8060162e-05 735.95315)
(0.00019026016 -0.00030815058 735.95332)
(-0.00040781912 -7.8384386e-05 735.95329)
(0.00042164114 5.6525083e-05 735.95339)
(0.0014741169 9.7749569e-05 735.95371)
(0.0019519411 7.2128047e-05 735.95425)
(0.00079829728 -6.8656469e-05 735.95471)
(-1.7184601e-05 -0.00033663409 735.9544)
(0.00015453032 0.00015453031 735.95454)
(-0.00077964386 -0.00077964387 736.4027)
(0.00065132702 0.0008386656 736.40249)
(-9.1860283e-05 -0.00022415049 736.40279)
(-0.0025525954 -0.0003291659 736.40243)
(-0.0011619529 -0.00024228277 736.40224)
(0.00034770079 -0.00012080871 736.40234)
(0.001110213 5.7624218e-05 736.40264)
(0.00082767367 0.00019434987 736.40299)
(0.00062278843 -0.00016839943 736.40308)
(0.00042543826 -0.00062213413 736.40322)
(0.0008386656 0.00065132702 736.40249)
(0.0012068204 0.0012068204 736.40263)
(-0.0012596918 -5.0377043e-05 736.40271)
(-0.0025707277 -0.00011718945 736.40233)
(-0.00095359572 5.4000207e-05 736.40216)
(0.00064760778 0.00029751782 736.4023)
(0.0014253715 0.00067770863 736.40268)
(0.00060165004 0.001083601 736.40308)
(-0.00019369558 0.00078200801 736.40304)
(-2.8296449e-05 -6.7160583e-06 736.40305)
(-0.00022415049 -9.1860276e-05 736.40279)
(-5.0377043e-05 -0.0012596918 736.40271)
(-0.0014158701 -0.0014158701 736.40275)
(-0.0024482182 -0.0013064331 736.40238)
(-0.00074724565 -0.0011376325 736.40225)
(0.00097140922 -0.00090670594 736.40242)
(0.0018962962 -0.00053918294 736.40287)
(0.00093197306 -1.5211173e-05 736.40337)
(-0.00046752866 0.00034584575 736.40333)
(-0.00036328579 0.00027479613 736.40323)
(-0.0003291659 -0.0025525954 736.40243)
(-0.00011718945 -0.0025707277 736.40233)
(-0.0013064331 -0.0024482182 736.40238)
(-0.0022924901 -0.0022924901 736.40204)
(-0.00055386862 -0.0021219061 736.40193)
(0.0012460574 -0.001919546 736.40214)
(0.0023168663 -0.0016412475 736.40264)
(0.0014866787 -0.0012417773 736.40322)
(9.6311729e-05 -0.00077588896 736.40327)
(-9.9346066e-05 -0.00035366131 736.40324)
(-0.00024228276 -0.0011619529 736.40224)
(5.4000211e-05 -0.00095359572 736.40216)
(-0.0011376326 -0.00074724564 736.40225)
(-0.0021219061 -0.00055386861 736.40193)
(-0.0003743015 -0.0003743015 736.40185)
(0.0014520678 -0.00019673857 736.40209)
(0.0025740648 -5.6220376e-06 736.40263)
(0.0017973316 0.00021311773 736.40326)
(0.00042058733 0.00044359569 736.40336)
(5.8941865e-05 0.00065133617 736.40337)
(-0.00012080869 0.00034770078 736.40234)
(0.00029751783 0.00064760776 736.4023)
(-0.00090670595 0.00097140921 736.40242)
(-0.001919546 0.0012460574 736.40214)
(-0.00019673858 0.0014520678 736.40209)
(0.0016147368 0.0016147368 736.40236)
(0.0027267226 0.0017479437 736.40292)
(0.0019358964 0.0018496609 736.40357)
(0.00053453016 0.0019084036 736.4037)
(0.00010839441 0.0019231774 736.40372)
(5.7624225e-05 0.001110213 736.40264)
(0.00067770862 0.0014253715 736.40268)
(-0.00053918292 0.0018962962 736.40287)
(-0.0016412475 0.0023168663 736.40264)
(-5.6220445e-06 0.0025740648 736.40263)
(0.0017479437 0.0027267226 736.40292)
(0.0028089889 0.0028089889 736.4035)
(0.0019577915 0.0028080384 736.40416)
(0.00049410375 0.0026943072 736.40428)
(7.3715638e-05 0.0024661157 736.40428)
(0.00019434988 0.00082767367 736.40299)
(0.001083601 0.00060165004 736.40308)
(-1.5211166e-05 0.00093197305 736.40337)
(-0.0012417773 0.0014866787 736.40322)
(0.00021311774 0.0017973316 736.40326)
(0.0018496609 0.0019358964 736.40357)
(0.0028080384 0.0019577915 736.40416)
(0.0018212147 0.0018212147 736.4048)
(0.00019260746 0.0014490827 736.40486)
(-0.00011979708 0.00087615121 736.40476)
(-0.00016839942 0.00062278842 736.40308)
(0.00078200801 -0.00019369558 736.40304)
(0.00034584575 -0.00046752866 736.40333)
(-0.00077588895 9.6311729e-05 736.40327)
(0.00044359569 0.00042058732 736.40336)
(0.0019084036 0.00053453014 736.4037)
(0.0026943072 0.00049410374 736.40428)
(0.0014490827 0.00019260744 736.40486)
(-0.00045095972 -0.00045095973 736.40477)
(-0.00049921581 -0.00011287894 736.40445)
(-0.00062213412 0.00042543826 736.40322)
(-6.7160444e-06 -2.8296442e-05 736.40305)
(0.00027479613 -0.00036328578 736.40323)
(-0.00035366131 -9.9346073e-05 736.40324)
(0.00065133616 5.8941858e-05 736.40337)
(0.0019231774 0.0001083944 736.40372)
(0.0024661157 7.3715631e-05 736.40428)
(0.00087615122 -0.00011979709 736.40476)
(-0.00011287894 -0.00049921581 736.40445)
(0.00021828371 0.00021828371 736.40457)
(-0.00087814244 -0.00087814243 736.93621)
(0.00070639422 0.00091078604 736.93602)
(-0.00010836996 -0.00026153687 736.93632)
(-0.0028061597 -0.00037487784 736.93601)
(-0.0011891449 -0.00027593258 736.93586)
(0.00056508021 -0.00013490794 736.93598)
(0.0014509458 7.7032686e-05 736.93631)
(0.0010597408 0.00024422443 736.93668)
(0.00074658534 -0.00018567481 736.93679)
(0.00049681834 -0.00070610541 736.93693)
(0.00091078604 0.00070639422 736.93602)
(0.0013229998 0.0013229998 736.93616)
(-0.0013940338 -6.2121655e-05 736.93626)
(-0.0028205554 -0.00013047537 736.93592)
(-0.000949175 6.5675874e-05 736.9358)
(0.00091804547 0.00034828839 736.93596)
(0.0018300782 0.00079572031 736.93636)
(0.00079703327 0.0012773311 736.93678)
(-0.00020374451 0.00091236758 736.93676)
(-2.3612279e-05 3.7323547e-06 736.93678)
(-0.00026153687 -0.00010836996 736.93632)
(-6.2121655e-05 -0.0013940338 736.93626)
(-0.0015618451 -0.0015618451 736.93631)
(-0.0026783621 -0.0014343622 736.93599)
(-0.00071038115 -0.0012391225 736.93589)
(0.0012951246 -0.0009711211 736.9361)
(0.0023799885 -0.00054300511 736.93656)
(0.001176388 6.660214e-05 736.93707)
(-0.00052701342 0.00047329136 736.93706)
(-0.00041181689 0.00038103354 736.93697)
(-0.00037487784 -0.0028061597 736.93601)
(-0.00013047537 -0.0028205554 736.93592)
(-0.0014343622 -0.0026783621 736.93599)
(-0.0024978327 -0.0024978327 736.93569)
(-0.00048593389 -0.0022997357 736.93562)
(0.0016141628 -0.0020647706 736.93586)
(0.0028678014 -0.0017414755 736.93637)
(0.0018133297 -0.0012785506 736.93696)
(0.00011068688 -0.00074610034 736.93703)
(-0.00011587008 -0.00026979546 736.937)
(-0.00027593258 -0.0011891449 736.93586)
(6.5675864e-05 -0.000949175 736.9358)
(-0.0012391225 -0.00071038115 736.93589)
(-0.0022997357 -0.0004859339 736.93562)
(-0.00027731906 -0.00027731905 736.93557)
(0.0018533848 -7.1294588e-05 736.93584)
(0.0031662086 0.00015032769 736.93639)
(0.0021717632 0.0004037677 736.93703)
(0.00048174168 0.00066885363 736.93714)
(6.4488012e-05 0.00090657995 736.93716)
(-0.00013490793 0.0005650802 736.93598)
(0.00034828838 0.00091804547 736.93596)
(-0.00097112111 0.0012951246 736.9361)
(-0.0020647706 0.0016141628 736.93586)
(-7.1294581e-05 0.0018533848 736.93584)
(0.0020418096 0.0020418096 736.93613)
(0.0033428637 0.0021954089 736.9367)
(0.0023318557 0.0023117816 736.93736)
(0.00061349913 0.0023770089 736.9375)
(0.00012185623 0.0023909661 736.93753)
(7.7032686e-05 0.0014509458 736.93631)
(0.0007957203 0.0018300782 736.93636)
(-0.00054300511 0.0023799886 736.93656)
(-0.0017414755 0.0028678015 736.93637)
(0.00015032769 0.0031662086 736.93639)
(0.0021954089 0.0033428637 736.9367)
(0.0034361806 0.0034361806 736.93729)
(0.0023533633 0.0034291588 736.93796)
(0.00056092617 0.0032832251 736.93809)
(7.8445167e-05 0.0029934917 736.9381)
(0.00024422445 0.0010597408 736.93668)
(0.0012773311 0.00079703327 736.93678)
(6.6602147e-05 0.001176388 736.93707)
(-0.0012785505 0.0018133297 736.93696)
(0.0004037677 0.0021717632 736.93703)
(0.0023117816 0.0023318557 736.93736)
(0.0034291588 0.0023533633 736.93796)
(0.0021789001 0.0021789001 736.93861)
(0.00017783199 0.001703449 736.93868)
(-0.00016787714 0.00096416995 736.93859)
(-0.0001856748 0.00074658533 736.93679)
(0.00091236759 -0.00020374452 736.93676)
(0.00047329136 -0.00052701343 736.93706)
(-0.00074610034 0.00011068687 736.93703)
(0.00066885363 0.00048174167 736.93714)
(0.0023770089 0.00061349912 736.9375)
(0.0032832251 0.00056092618 736.93809)
(0.001703449 0.00017783199 736.93868)
(-0.00065380399 -0.00065380399 736.9386)
(-0.00066083387 -0.0002075357 736.93828)
(-0.00070610542 0.00049681834 736.93693)
(3.7323686e-06 -2.3612279e-05 736.93678)
(0.00038103354 -0.00041181689 736.93697)
(-0.00026979545 -0.00011587009 736.937)
(0.00090657995 6.4488019e-05 736.93716)
(0.0023909661 0.00012185622 736.93753)
(0.0029934917 7.8445167e-05 736.9381)
(0.00096416995 -0.00016787714 736.93859)
(-0.00020753571 -0.00066083388 736.93828)
(0.00027839114 0.00027839114 736.9384)
(-0.00096638679 -0.00096638678 737.55031)
(0.00077029443 0.0009820127 737.55014)
(-0.00010511217 -0.00029263415 737.55044)
(-0.0030195998 -0.00041361247 737.55016)
(-0.0011844034 -0.0003032285 737.55005)
(0.00080383625 -0.00014356876 737.5502)
(0.0018063773 0.00010050407 737.55054)
(0.0013051464 0.00029705517 737.55092)
(0.00087820057 -0.00019753148 737.55104)
(0.00056899824 -0.00078151822 737.55118)
(0.0009820127 0.00077029444 737.55014)
(0.0014440471 0.0014440471 737.55028)
(-0.0015007373 -6.0525439e-05 737.55039)
(-0.0030301942 -0.00013002484 737.55009)
(-0.0009143597 8.9832877e-05 737.55)
(0.0012075688 0.00040969065 737.55019)
(0.0022470012 0.00092145406 737.55059)
(0.0010071108 0.0014756041 737.55102)
(-0.00020037282 0.0010490538 737.55102)
(-1.498849e-05 2.5879222e-05 737.55104)
(-0.00029263415 -0.00010511216 737.55044)
(-6.0525446e-05 -0.0015007373 737.55039)
(-0.0016791841 -0.0016791841 737.55046)
(-0.0028692415 -0.0015344879 737.55018)
(-0.00064468791 -0.0013141077 737.55011)
(0.0016354574 -0.001010843 737.55033)