/*--------------------------------*- C++ -*----------------------------------*\
| =========                 |                                                 |
| \\      /  F ield         | OpenFOAM: The Open Source CFD Toolbox           |
|  \\    /   O peration     | Version:  v2106                                 |
|   \\  /    A nd           | Website:  www.openfoam.com                      |
|    \\/     M anipulation  |                                                 |
\*---------------------------------------------------------------------------*/
FoamFile
{
    version     2.0;
    format      ascii;
    arch        "LSB;label=32;scalar=64";
    class       volScalarField;
    location    "30";
    object      laplacianT;
}
// * * * * * * * * * * * * * * * * * * * * * * * * * * * * * * * * * * * * * //

dimensions      [0 -2 0 1 0 0 0];

internalField   nonuniform List<scalar> 
4000
(
-3.3925368
-2.3593958
-3.1727541
-3.0094907
-3.0215755
-3.021196
-3.0210595
-3.0203141
-3.0158036
-2.9910845
-2.3593958
-2.6243238
-2.9137128
-2.8166169
-2.8248427
-2.824284
-2.8221502
-2.8124754
-2.77753
-2.739355
-3.1727541
-2.9137128
-3.3075961
-3.2100909
-3.2184644
-3.2185484
-3.2191198
-3.2168688
-3.1858082
-3.059986
-3.0094907
-2.8166169
-3.2100909
-3.1122711
-3.1204552
-3.1200562
-3.1197102
-3.1180411
-3.0978696
-3.0058572
-3.0215755
-2.8248427
-3.2184644
-3.1204552
-3.1287137
-3.128347
-3.1276247
-3.1240514
-3.0995543
-3.0034034
-3.021196
-2.824284
-3.2185484
-3.1200562
-3.128347
-3.1281133
-3.1276074
-3.1244742
-3.1001872
-3.003433
-3.0210595
-2.8221502
-3.2191198
-3.1197102
-3.1276247
-3.1276074
-3.1270037
-3.1238434
-3.0995766
-3.0026605
-3.0203141
-2.8124754
-3.2168689
-3.1180411
-3.1240514
-3.1244742
-3.1238434
-3.1205598
-3.0959967
-2.9983533
-3.0158036
-2.77753
-3.1858082
-3.0978696
-3.0995543
-3.1001872
-3.0995766
-3.0959967
-3.0704147
-2.9701342
-2.9910845
-2.739355
-3.059986
-3.0058572
-3.0034034
-3.003433
-3.0026605
-2.9983533
-2.9701342
-2.8637909
-10.014391
-7.9715591
-9.6017529
-9.295459
-9.3129205
-9.3121838
-9.3107559
-9.3048268
-9.2816987
-9.3333318
-7.9715591
-8.2568187
-8.9522236
-8.757221
-8.7691794
-8.7681358
-8.761876
-8.7262147
-8.5664864
-8.6769105
-9.6017529
-8.9522236
-9.8058521
-9.6126305
-9.6249806
-9.6254703
-9.6269075
-9.6150132
-9.4580066
-9.3055711
-9.295459
-8.757221
-9.6126305
-9.4193259
-9.4313366
-9.4305722
-9.4295235
-9.4203048
-9.293499
-9.2184844
-9.3129205
-8.7691794
-9.6249806
-9.4313366
-9.4435542
-9.4428573
-9.4407386
-9.4268372
-9.29102
-9.2121991
-9.3121838
-8.7681358
-9.6254703
-9.4305722
-9.4428574
-9.4424824
-9.4408309
-9.427642
-9.2915735
-9.2115525
-9.3107559
-8.7618761
-9.6269075
-9.4295235
-9.4407386
-9.4408309
-9.4390122
-9.4257591
-9.2895285
-9.2087689
-9.3048268
-8.7262147
-9.6150132
-9.4203048
-9.4268372
-9.427642
-9.4257591
-9.4120618
-9.2745859
-9.1907292
-9.2816987
-8.5664864
-9.4580066
-9.293499
-9.29102
-9.2915735
-9.2895285
-9.2745859
-9.1327718
-9.0386307
-9.3333318
-8.6769105
-9.3055711
-9.2184844
-9.2121991
-9.2115525
-9.2087689
-9.1907292
-9.0386307
-8.9948684
-16.110544
-13.576794
-15.697582
-15.304649
-15.32273
-15.321491
-15.316429
-15.290664
-15.177322
-15.497801
-13.576794
-14.033914
-14.968984
-14.711937
-14.724552
-14.724096
-14.716759
-14.650444
-14.23223
-14.540433
-15.697582
-14.968984
-16.092746
-15.839249
-15.852158
-15.853023
-15.856652
-15.836449
-15.443126
-15.368052
-15.304649
-14.711937
-15.839249
-15.585975
-15.598524
-15.597477
-15.596275
-15.578595
-15.229551
-15.261779
-15.32273
-14.724552
-15.852158
-15.598524
-15.611427
-15.610589
-15.607951
-15.583647
-15.222573
-15.252659
-15.321491
-14.724096
-15.853023
-15.597477
-15.610589
-15.610165
-15.608143
-15.58464
-15.222725
-15.251366
-15.316429
-14.716759
-15.856652
-15.596275
-15.607951
-15.608143
-15.605903
-15.582241
-15.219731
-15.246532
-15.290664
-14.650444
-15.836449
-15.578595
-15.583647
-15.58464
-15.582241
-15.557491
-15.191455
-15.207767
-15.177322
-14.23223
-15.443126
-15.229551
-15.222573
-15.222725
-15.219731
-15.191455
-14.811518
-14.778607
-15.497801
-14.540433
-15.368052
-15.261779
-15.252659
-15.251366
-15.246532
-15.207767
-14.778607
-15.180534
-22.327045
-19.243047
-21.84566
-21.370496
-21.389143
-21.387997
-21.381599
-21.337707
-21.082848
-21.550935
-19.243047
-19.767695
-20.950433
-20.633698
-20.646728
-20.646785
-20.641249
-20.559165
-19.857712
-20.334236
-21.84566
-20.950433
-22.350418
-22.038978
-22.052297
-22.053264
-22.059852
-22.041275
-21.374989
-21.344342
-21.370496
-20.633698
-22.038978
-21.728034
-21.741009
-21.739649
-21.739449
-21.72424
-21.116645
-21.219763
-21.389143
-20.646728
-22.052297
-21.741009
-21.754429
-21.753388
-21.751281
-21.727548
-21.105393
-21.207929
-21.387997
-20.646785
-22.053264
-21.739649
-21.753388
-21.752882
-21.751539
-21.728676
-21.105162
-21.206175
-21.381599
-20.641249
-22.059852
-21.739449
-21.751281
-21.751539
-21.749989
-21.726986
-21.102611
-21.20091
-21.337707
-20.559165
-22.041275
-21.72424
-21.727548
-21.728676
-21.726986
-21.702462
-21.072006
-21.148629
-21.082848
-19.857712
-21.374989
-21.116645
-21.105393
-21.105162
-21.102611
-21.072006
-20.411591
-20.339494
-21.550935
-20.334236
-21.344342
-21.219763
-21.207929
-21.206175
-21.20091
-21.148629
-20.339494
-21.280638
-28.37151
-24.762356
-27.832385
-27.278218
-27.297232
-27.296069
-27.289447
-27.235503
-26.852415
-27.456216
-24.762356
-25.352845
-26.777912
-26.403634
-26.416881
-26.416831
-26.41199
-26.319313
-25.343958
-25.994127
-27.832385
-26.777912
-28.447437
-28.080169
-28.0938
-28.094579
-28.103283
-28.09133
-27.15745
-27.179738
-27.278218
-26.403634
-28.080169
-27.713634
-27.726916
-27.724992
-27.725037
-27.717717
-26.856537
-27.037555
-27.297232
-26.416881
-28.0938
-27.726916
-27.740721
-27.73922
-27.736852
-27.719204
-26.841159
-27.023001
-27.296069
-26.416831
-28.094579
-27.724992
-27.73922
-27.73838
-27.736911
-27.720186
-26.840337
-27.020648
-27.289447
-26.41199
-28.103283
-27.725037
-27.736852
-27.736911
-27.735258
-27.718509
-26.837872
-27.015439
-27.235503
-26.319313
-28.09133
-27.717717
-27.719204
-27.720186
-27.718509
-27.70036
-26.812806
-26.960835
-26.852415
-25.343958
-27.15745
-26.856537
-26.841159
-26.840337
-26.837872
-26.812806
-25.88315
-25.752834
-27.456216
-25.994127
-27.179738
-27.037555
-27.023001
-27.020648
-27.015439
-26.960835
-25.752834
-27.250161
-34.239922
-30.127794
-33.646364
-33.016605
-33.035798
-33.034331
-33.026641
-32.962625
-32.455799
-33.189194
-30.127794
-30.780439
-32.439188
-32.009684
-32.023087
-32.022868
-32.017948
-31.914727
-30.671406
-31.491618
-33.646364
-32.439188
-34.368115
-33.947281
-33.961136
-33.961693
-33.971771
-33.966408
-32.769522
-32.845411
-33.016605
-32.009684
-33.947281
-33.527413
-33.540905
-33.53839
-33.537967
-33.538675
-32.427952
-32.686471
-33.035798
-32.023087
-33.961136
-33.540905
-33.554993
-33.553004
-33.549651
-33.538313
-32.408552
-32.669233
-33.034331
-32.022868
-33.961693
-33.53839
-33.553004
-33.551799
-33.549458
-33.539062
-32.407027
-32.666088
-33.026641
-32.017948
-33.971771
-33.537967
-33.549651
-33.549458
-33.546918
-33.536526
-32.403689
-32.660077
-32.962625
-31.914727
-33.966408
-33.538675
-33.538313
-33.539062
-33.536526
-33.524786
-32.384733
-32.6072
-32.455799
-30.671406
-32.769522
-32.427952
-32.408552
-32.407027
-32.403689
-32.384733
-31.194646
-31.002054
-33.189194
-31.491618
-32.845411
-32.686471
-32.669233
-32.666088
-32.660077
-32.6072
-31.002054
-33.051565
-39.897608
-35.307691
-39.253056
-38.551554
-38.570803
-38.569066
-38.56025
-38.486332
-37.859411
-38.717213
-35.307691
-36.018405
-37.900586
-37.418469
-37.431929
-37.431589
-37.426556
-37.31326
-35.809697
-36.794671
-39.253056
-37.900586
-40.077015
-39.605175
-39.619143
-39.619512
-39.63084
-39.632102
-38.17935
-38.308287
-38.551554
-37.418469
-39.605175
-39.13453
-39.148123
-39.145069
-39.144094
-39.152904
-37.799202
-38.133547
-38.570803
-37.431929
-39.619143
-39.148123
-39.162381
-39.159954
-39.155538
-39.150679
-37.775892
-38.113717
-38.569066
-37.431589
-39.619512
-39.145069
-39.159954
-39.158438
-39.155142
-39.151241
-37.77372
-38.109794
-38.56025
-37.426556
-39.63084
-39.144094
-39.155538
-39.155142
-39.151634
-39.14773
-37.769292
-38.102519
-38.486332
-37.31326
-39.632102
-39.152904
-39.150679
-39.151241
-39.14773
-39.142389
-37.75627
-38.052687
-37.859411
-35.809697
-38.17935
-37.799202
-37.775892
-37.77372
-37.769292
-37.75627
-36.313955
-36.058921
-38.717213
-36.794671
-38.308287
-38.133547
-38.113717
-38.109794
-38.102519
-38.052687
-36.058921
-38.648978
-45.309547
-40.270082
-44.617892
-43.84894
-43.868095
-43.866082
-43.856174
-43.772721
-43.029702
-44.006496
-40.270082
-41.034461
-43.12845
-42.596662
-42.610062
-42.609589
-42.604459
-42.481718
-40.727232
-41.870826
-44.617892
-43.12845
-45.538946
-45.018981
-45.03294
-45.033101
-45.045583
-45.053445
-43.353765
-43.534917
-43.84894
-42.596662
-45.018981
-44.500436
-44.514011
-44.510417
-44.50886
-44.525724
-42.937354
-43.34543
-43.868095
-42.610062
-45.03294
-44.514011
-44.528315
-44.525449
-44.519954
-44.521618
-42.91025
-43.323108
-43.866082
-42.609589
-45.033101
-44.510417
-44.525449
-44.523616
-44.519344
-44.521984
-42.907453
-43.318447
-43.856174
-42.604459
-45.045583
-44.50886
-44.519954
-44.519344
-44.514856
-44.5175
-42.901935
-43.30977
-43.772721
-42.481718
-45.053445
-44.525724
-44.521618
-44.521984
-44.5175
-44.518596
-42.894783
-43.263526
-43.029702
-40.727232
-43.353765
-42.937354
-42.91025
-42.907453
-42.901935
-42.894783
-41.209368
-40.893138
-44.006496
-41.870825
-43.534917
-43.34543
-43.323108
-43.318447
-43.30977
-43.263526
-40.893138
-44.007916
-50.442273
-44.984312
-49.70775
-48.876068
-48.894989
-48.892695
-48.881739
-48.789228
-47.934712
-49.024452
-44.984312
-45.797633
-48.090509
-47.512311
-47.525546
-47.524924
-47.519714
-47.388251
-45.393668
-46.688811
-49.70775
-48.090509
-50.720198
-50.155297
-50.169138
-50.16907
-50.182611
-50.197004
-48.260867
-48.493105
-48.876068
-47.512311
-50.155297
-49.59203
-49.605481
-49.601352
-49.599199
-49.623999
-47.810742
-48.290023
-48.894989
-47.525546
-50.169138
-49.605481
-49.619723
-49.616416
-49.609851
-49.618015
-47.779989
-48.265326
-48.892695
-47.524924
-50.16907
-49.601352
-49.616416
-49.614259
-49.609011
-49.618163
-47.776571
-48.259955
-48.881739
-47.519714
-50.182611
-49.599199
-49.609851
-49.609011
-49.603546
-49.612715
-47.76999
-48.249866
-48.789228
-47.388251
-50.197004
-49.623999
-49.618015
-49.618163
-49.612715
-49.620241
-47.768698
-48.207537
-47.934712
-45.393668
-48.260867
-47.810742
-47.779989
-47.776571
-47.76999
-47.768698
-45.850633
-45.475088
-49.024452
-46.688811
-48.493105
-48.290023
-48.265326
-48.259955
-48.249866
-48.207537
-45.475088
-49.095382
-55.26409
-49.421274
-54.491212
-53.601916
-53.620472
-53.617895
-53.605947
-53.504931
-52.544181
-53.740144
-49.421274
-50.278518
-52.756137
-52.135082
-52.148057
-52.147273
-52.142004
-52.002614
-49.780225
-51.218928
-54.491212
-52.756137
-55.588798
-54.982431
-54.996055
-54.995743
-55.010246
-55.031066
-52.870404
-53.15229
-53.601916
-52.135082
-54.982431
-54.377903
-54.391134
-54.386478
-54.383729
-54.4163
-52.389329
-52.936854
-53.620472
-52.148057
-54.996055
-54.391134
-54.40521
-54.401468
-54.393859
-54.40846
-52.355101
-52.909918
-53.617895
-52.147273
-54.995743
-54.386478
-54.401468
-54.398986
-54.39278
-54.408374
-52.351069
-52.903863
-53.605947
-52.142004
-55.010246
-54.383729
-54.393859
-54.39278
-54.386354
-54.40198
-52.343458
-52.8924
-53.504931
-52.002614
-55.031066
-54.4163
-54.40846
-54.408374
-54.40198
-54.415882
-52.348012
-52.854248
-52.544181
-49.780225
-52.870404
-52.389329
-52.355101
-52.351069
-52.343458
-52.348012
-50.209133
-49.776577
-53.740144
-51.218928
-53.15229
-52.936854
-52.909918
-52.903863
-52.8924
-52.854248
-49.776577
-53.880049
-59.745239
-53.553588
-58.938762
-57.997326
-58.015393
-58.012538
-57.999663
-57.890755
-56.82969
-58.124497
-53.553588
-54.449467
-57.096548
-56.436455
-56.44908
-56.448129
-56.442825
-56.296356
-53.859859
-55.433247
-58.938762
-57.096548
-60.114711
-59.470606
-59.483919
-59.483354
-59.49872
-59.525831
-57.153958
-57.483752
-57.997326
-56.436455
-59.470606
-58.828536
-58.841454
-58.836291
-58.832953
-58.873085
-56.644892
-57.257282
-58.015393
-56.44908
-59.483919
-58.841454
-58.855268
-58.851104
-58.842487
-58.863428
-56.607391
-57.228263
-58.012538
-56.448129
-59.483354
-58.836291
-58.851104
-58.848303
-58.841166
-58.863098
-56.602758
-57.221553
-57.999663
-56.442825
-59.49872
-58.832953
-58.842487
-58.841166
-58.833809
-58.855786
-56.594156
-57.208774
-57.890755
-56.296356
-59.525831
-58.873085
-58.863428
-58.863098
-58.855786
-58.875972
-56.604518
-57.175028
-56.82969
-53.859859
-57.153958
-56.644892
-56.607391
-56.602758
-56.594156
-56.604518
-54.258014
-53.771111
-58.124497
-55.433247
-57.483752
-57.257282
-57.228263
-57.221553
-57.208774
-57.175028
-53.771111
-58.332447
-63.858073
-57.355757
-63.022962
-62.035184
-62.052644
-62.049522
-62.035791
-61.919657
-60.764815
-62.150481
-57.355757
-58.284745
-61.084963
-60.389898
-60.402088
-60.400969
-60.395655
-60.243005
-57.607418
-59.305788
-63.022962
-61.084963
-64.270016
-63.59214
-63.605052
-63.60423
-63.620359
-63.653586
-61.085123
-61.460789
-62.035184
-60.389898
-63.59214
-62.91648
-62.928999
-62.923353
-62.919439
-62.966879
-60.551198
-61.224675
-62.052644
-60.402088
-63.605052
-62.928999
-62.942459
-62.937891
-62.928313
-62.955457
-60.510649
-61.193746
-62.049522
-60.400969
-63.60423
-62.923353
-62.937891
-62.934781
-62.92675
-62.954879
-60.505438
-61.186416
-62.035791
-60.395655
-63.620359
-62.919439
-62.928313
-62.92675
-62.918501
-62.946688
-60.495892
-61.172393
-61.919657
-60.243005
-63.653586
-62.966879
-62.955457
-62.954879
-62.946688
-62.973026
-60.511991
-61.143256
-60.764815
-57.607418
-61.085123
-60.551198
-60.510649
-60.505438
-60.495892
-60.511991
-57.972327
-57.434081
-62.150481
-59.305788
-61.460789
-61.224675
-61.193746
-61.186416
-61.172392
-61.143256
-57.434081
-62.425148
-67.577219
-60.804326
-66.71862
-65.690586
-65.707326
-65.703951
-65.689446
-65.566797
-64.325295
-65.793276
-60.804326
-61.760695
-64.696784
-63.971026
-63.982701
-63.981416
-63.976121
-63.818227
-60.999797
-62.812677
-66.71862
-64.696784
-68.029086
-67.321614
-67.334041
-67.332962
-67.349748
-67.388884
-64.639664
-65.058885
-65.690586
-63.971026
-67.321614
-66.616526
-66.628564
-66.622465
-66.617994
-66.672446
-64.084168
-64.814579
-65.707326
-63.982701
-67.334041
-66.628564
-66.641582
-66.636634
-66.626149
-66.659325
-64.040816
-64.781925
-65.703951
-63.981416
-67.332962
-66.622465
-66.636634
-66.633228
-66.624349
-66.658497
-64.035054
-64.774016
-65.689446
-63.976121
-67.349748
-66.617994
-66.626149
-66.624349
-66.615253
-66.649472
-64.02462
-64.75883
-65.566797
-63.818227
-67.388884
-66.672446
-66.659325
-66.658497
-66.649472
-66.681797
-64.046353
-64.734478
-64.325295
-60.999797
-64.639664
-64.084168
-64.040816
-64.035054
-64.02462
-64.046353
-61.329187
-60.742915
-65.793276
-62.812677
-65.058885
-64.814579
-64.781925
-64.774016
-64.75883
-64.734478
-60.742915
-66.132935
-70.879738
-63.878024
-70.002942
-68.940988
-68.956901
-68.953292
-68.938098
-68.809689
-67.489179
-69.030422
-63.878024
-64.855877
-67.909732
-67.157755
-67.16884
-67.167394
-67.162147
-66.99998
-64.016082
-65.932293
-70.002942
-67.909732
-71.368738
-70.636028
-70.647891
-70.646559
-70.663896
-70.708696
-67.795668
-68.255858
-68.940988
-67.157755
-70.636028
-69.905857
-69.917337
-69.910819
-69.905817
-69.966942
-67.222024
-68.004864
-68.956901
-67.16884
-70.647891
-69.917337
-69.929829
-69.924528
-69.913198
-69.9522
-67.176133
-67.970683
-68.953292
-67.167394
-70.646559
-69.910819
-69.924528
-69.920845
-69.911169
-69.951123
-67.169853
-67.962242
-68.938098
-67.162147
-70.663896
-69.905817
-69.913198
-69.911169
-69.901281
-69.941318
-67.158591
-67.945984
-68.809689
-66.99998
-70.708696
-69.966942
-69.9522
-69.951123
-69.941318
-69.979427
-67.185822
-67.926564
-67.489179
-64.016082
-67.795668
-67.222024
-67.176133
-67.169853
-67.158591
-67.185822
-64.307905
-63.677223
-69.030422
-65.932293
-68.255858
-68.004864
-67.970683
-67.962242
-67.945984
-67.926564
-63.677224
-69.432959
-73.745262
-66.557896
-72.855673
-71.766345
-71.781332
-71.777508
-71.761717
-71.628337
-70.236961
-71.841964
-66.557896
-67.551203
-70.703996
-69.930433
-69.940858
-69.939258
-69.93409
-69.768648
-66.637678
-68.645405
-72.855673
-70.703996
-74.268377
-73.514946
-73.526169
-73.52459
-73.54237
-73.592556
-70.533679
-71.031999
-71.766345
-69.930433
-73.514946
-72.764191
-72.77504
-72.768142
-72.762637
-72.830056
-69.945421
-70.775864
-71.781332
-69.940858
-73.526169
-72.77504
-72.786928
-72.781305
-72.769198
-72.813782
-69.897274
-70.740366
-71.777508
-69.939258
-73.52459
-72.768142
-72.781305
-72.777365
-72.76695
-72.812462
-69.890512
-70.731441
-71.761717
-69.93409
-73.54237
-72.762637
-72.769198
-72.76695
-72.756328
-72.801935
-69.87849
-70.71421
-71.628337
-69.768648
-73.592556
-72.830056
-72.813782
-72.812462
-72.801935
-72.845592
-69.911048
-70.69984
-70.236961
-66.637678
-70.533679
-69.945421
-69.897274
-69.890512
-69.87849
-69.911048
-66.890125
-66.218922
-71.841964
-68.645405
-71.031999
-70.775864
-70.740366
-70.731441
-70.71421
-70.69984
-66.218922
-72.304884
-76.156121
-68.827416
-75.259223
-74.149235
-74.163203
-74.159186
-74.142895
-74.005366
-72.5517
-74.210567
-68.827416
-69.830052
-73.062343
-72.271964
-72.281663
-72.279917
-72.274858
-72.107161
-68.848423
-70.935287
-75.259223
-73.062343
-76.710123
-75.940615
-75.951128
-75.94931
-75.967422
-76.022684
-72.836817
-73.370196
-74.149235
-72.271964
-75.940615
-75.173905
-75.184054
-75.176817
-75.170843
-75.24414
-72.237571
-73.110497
-74.163203
-72.281663
-75.951128
-75.184054
-75.195264
-75.189352
-75.176541
-75.226433
-72.187463
-73.073899
-74.159186
-72.279917
-75.94931
-75.176817
-75.189352
-75.185179
-75.174088
-75.224877
-72.18026
-73.064544
-74.142895
-72.274858
-75.967422
-75.170843
-75.176541
-75.174088
-75.162796
-75.21369
-72.167551
-73.046445
-74.005366
-72.107161
-76.022684
-75.24414
-75.226433
-75.224877
-75.21369
-75.262626
-72.205236
-73.037213
-72.5517
-68.848423
-72.836817
-72.237571
-72.187463
-72.18026
-72.167551
-72.205236
-69.059931
-68.352345
-74.210567
-70.935287
-73.370196
-73.110497
-73.073899
-73.064544
-73.046445
-73.037213
-68.352345
-74.731008
-78.097449
-70.672588
-77.19877
-76.074966
-76.087828
-76.083643
-76.066951
-75.92612
-74.419127
-76.12163
-70.672588
-71.678373
-74.970233
-74.167909
-74.176823
-74.174941
-74.170022
-74.001102
-70.634687
-72.787822
-77.19877
-74.970233
-78.678921
-77.898079
-77.907818
-77.905772
-77.924103
-77.9841
-74.690884
-75.256032
-76.074966
-74.167909
-77.898079
-77.12014
-77.129528
-77.121995
-77.115587
-77.19431
-74.084345
-74.99437
-76.087828
-74.176823
-77.907818
-77.129528
-77.139989
-77.133824
-77.120388
-77.175279
-74.032583
-74.956898
-76.083643
-74.174941
-77.905772
-77.121995
-77.133824
-77.129443
-77.117743
-77.173495
-74.024983
-74.947171
-76.066951
-74.170022
-77.924103
-77.115587
-77.120388
-77.117743
-77.10585
-77.161718
-74.011665
-74.928315
-75.92612
-74.001102
-77.9841
-77.19431
-77.175279
-77.173495
-77.161718
-77.215629
-74.054244
-74.924277
-74.419127
-70.634687
-74.690884
-74.084345
-74.032583
-74.024983
-74.011665
-74.054244
-70.803949
-70.064342
-76.12163
-72.787822
-75.256032
-74.99437
-74.956898
-74.947171
-74.928315
-74.924277
-70.064342
-76.69638
-79.557275
-72.082037
-78.662357
-77.531665
-77.543341
-77.539013
-77.522023
-77.378759
-75.82773
-77.563372
-72.082037
-73.084768
-76.415902
-75.60658
-75.614652
-75.612646
-75.607898
-75.438796
-71.985459
-74.19159
-78.662357
-76.415902
-80.162632
-79.375271
-79.384174
-79.381912
-79.400349
-79.464711
-76.084451
-76.677884
-77.531665
-75.60658
-79.375271
-78.590899
-78.599466
-78.591685
-78.584882
-78.668545
-75.474358
-76.415872
-77.543341
-75.614652
-79.384174
-78.599466
-78.609115
-78.602734
-78.588755
-78.648306
-75.421262
-76.377755
-77.539013
-75.612646
-79.381912
-78.591685
-78.602734
-78.598171
-78.585935
-78.646306
-75.413311
-76.367716
-77.522023
-75.607898
-79.400349
-78.584882
-78.588755
-78.585935
-78.573515
-78.634011
-75.399466
-76.348219
-77.378759
-75.438796
-79.464711
-78.668545
-78.648306
-78.646306
-78.634011
-78.692565
-75.446675
-76.3494
-75.82773
-71.985459
-76.084451
-75.474358
-75.421262
-75.413311
-75.399466
-75.446675
-72.11143
-71.344363
-77.563372
-74.19159
-76.677884
-76.415872
-76.377755
-76.367716
-76.348219
-76.3494
-71.344363
-78.188884
-80.5266
-73.047072
-79.64096
-78.510351
-78.520769
-78.516325
-78.499142
-78.354327
-76.768825
-78.526905
-73.047072
-74.040568
-77.390437
-76.579106
-76.586288
-76.58417
-76.579621
-76.41138
-72.892413
-75.137937
-79.64096
-77.390437
-81.15211
-80.363084
-80.371096
-80.368632
-80.387062
-80.455391
-77.008926
-77.626986
-78.510351
-76.579106
-80.363084
-79.577114
-79.584808
-79.576826
-79.569671
-79.657757
-76.399041
-77.366239
-78.520769
-76.586288
-80.371096
-79.584808
-79.593584
-79.587027
-79.572591
-79.636436
-76.344938
-77.327714
-78.516325
-76.58417
-80.368632
-79.576826
-79.587027
-79.58231
-79.569613
-79.63423
-76.336685
-77.317424
-78.499142
-76.579621
-80.387062
-79.569671
-79.572591
-79.569613
-79.556741
-79.621493
-76.322398
-77.297405
-78.354327
-76.41138
-80.455391
-79.657757
-79.636436
-79.63423
-79.621493
-79.684329
-76.373946
-77.303797
-76.768825
-72.892413
-77.008926
-76.399041
-76.344938
-76.336685
-76.322398
-76.373946
-72.974314
-72.184516
-78.526905
-75.137937
-77.626986
-77.366239
-77.327714
-77.317424
-77.297405
-77.303797
-72.184516
-79.199322
-80.999448
-73.561744
-80.128546
-79.004991
-79.014087
-79.009554
-78.992283
-78.84681
-77.23661
-79.006289
-73.561744
-74.53988
-77.887831
-77.079494
-77.08574
-77.083523
-77.079201
-76.912859
-73.349956
-75.62103
-80.128546
-77.887831
-81.641255
-80.855428
-80.8625
-80.859849
-80.878157
-80.950032
-77.458613
-78.097488
-79.004991
-77.079494
-80.855428
-80.072707
-80.07948
-80.071345
-80.063881
-80.155849
-76.852695
-77.839614
-79.014087
-77.08574
-80.8625
-80.07948
-80.087329
-80.080636
-80.065832
-80.133576
-76.797918
-77.800917
-79.009554
-77.083523
-80.859849
-80.071345
-80.080636
-80.075794
-80.062714
-80.131179
-76.789414
-77.790439
-78.992283
-77.079201
-80.878157
-80.063881
-80.065832
-80.062714
-80.04947
-80.118078
-76.774773
-77.770023
-78.84681
-76.912859
-80.950032
-80.155849
-80.133576
-80.131179
-80.118078
-80.184808
-76.830343
-77.781587
-77.23661
-73.349956
-77.458613
-76.852695
-76.797918
-76.789414
-76.774773
-76.830343
-73.387284
-72.579625
-79.006289
-75.62103
-78.097488
-77.839614
-77.800917
-77.790439
-77.770023
-77.781587
-72.579625
-79.721465
-80.972906
-73.622881
-80.122112
-79.012537
-79.020254
-79.01566
-78.998409
-78.853175
-77.228204
-78.998571
-73.622881
-74.579626
-77.905019
-77.104659
-77.109931
-77.107628
-77.10356
-76.940142
-73.355271
-75.637892
-80.122112
-77.905019
-81.627051
-80.849269
-80.855357
-80.852536
-80.870609
-80.945588
-77.430739
-78.086491
-79.012537
-77.104659
-80.849269
-80.074622
-80.080432
-80.072196
-80.064469
-80.159751
-76.832524
-77.83308
-79.020254
-77.109931
-80.855357
-80.080432
-80.087306
-80.080518
-80.065438
-80.136664
-76.777412
-77.79445
-79.01566
-77.107628
-80.852536
-80.072196
-80.080518
-80.075582
-80.062199
-80.13409
-76.768709
-77.783849
-78.998409
-77.10356
-80.870609
-80.064469
-80.065438
-80.062199
-80.048665
-80.120707
-76.753804
-77.763161
-78.853175
-76.940142
-80.945588
-80.159751
-80.136664
-80.13409
-80.120707
-80.190919
-76.813053
-77.779825
-77.228204
-73.355271
-77.430739
-76.832524
-76.777412
-76.768709
-76.753804
-76.813053
-73.347794
-72.527253
-78.998571
-75.637892
-78.086491
-77.83308
-77.79445
-77.783849
-77.763161
-77.779825
-72.527253
-79.752097
-80.447138
-73.230108
-79.621696
-78.532944
-78.539235
-78.534608
-78.517482
-78.373383
-76.74366
-78.5038
-73.230108
-74.159563
-77.441895
-76.654447
-76.658713
-76.656338
-76.652549
-76.493063
-72.908325
-75.188421
-79.621696
-77.441895
-81.109589
-80.344646
-80.349713
-80.346739
-80.364467
-80.442086
-76.925479
-77.594064
-78.532944
-76.654447
-80.344646
-79.58285
-79.587662
-79.579374
-79.571433
-79.66944
-76.338655
-77.346678
-78.539235
-76.658713
-80.349713
-79.587662
-79.593517
-79.586677
-79.571413
-79.645682
-76.283546
-77.308353
-78.534608
-76.656338
-80.346739
-79.579374
-79.586677
-79.581676
-79.568074
-79.642948
-76.274698
-77.297695
-78.517482
-76.652549
-80.364467
-79.571433
-79.571413
-79.568074
-79.554333
-79.629363
-76.259621
-77.276862
-78.373383
-76.493063
-80.442086
-79.66944
-79.645682
-79.642948
-79.629363
-79.702626
-76.322184
-77.298524
-76.74366
-72.908325
-76.925479
-76.338655
-76.283546
-76.274698
-76.259621
-76.322184
-72.856091
-72.027727
-78.5038
-75.188421
-77.594064
-77.346678
-77.308353
-77.297695
-77.276862
-77.298524
-72.027727
-79.291029
-79.425387
-72.385847
-78.630388
-77.569169
-77.573995
-77.569365
-77.552469
-77.410393
-75.785967
-77.525028
-72.385847
-73.282282
-76.501316
-75.731635
-75.734869
-75.732438
-75.728951
-75.57438
-72.011877
-74.275388
-78.630388
-76.501316
-80.09206
-79.344673
-79.348687
-79.345579
-79.362852
-79.442633
-75.945948
-76.623245
-77.569169
-75.731635
-79.344673
-78.600423
-78.604207
-78.59592
-78.587813
-78.687942
-75.374134
-76.383409
-77.573995
-75.734869
-79.348687
-78.604207
-78.609009
-78.602159
-78.586805
-78.663659
-75.319369
-76.345626
-77.569365
-75.732438
-79.345579
-78.59592
-78.602159
-78.597124
-78.583386
-78.660781
-75.31043
-76.334976
-77.552469
-75.728951
-79.362852
-78.587813
-78.586805
-78.583386
-78.569523
-78.64708
-75.295274
-76.314127
-77.410393
-75.57438
-79.442633
-78.687942
-78.663659
-78.660781
-78.64708
-78.722941
-75.360765
-76.340654
-75.785967
-72.011877
-75.945948
-75.374134
-75.319369
-75.31043
-75.295274
-75.360765
-71.915206
-71.084127
-77.525028
-74.275388
-76.623245
-76.383409
-76.345626
-76.334976
-76.314127
-76.340654
-71.084127
-78.341107
-77.913955
-71.095305
-77.154298
-76.127157
-76.130489
-76.125883
-76.109323
-75.970146
-74.36103
-76.068292
-71.095305
-71.953194
-75.089084
-74.341915
-74.344096
-74.341623
-74.338461
-74.189758
-70.671454
-72.904426
-77.154298
-75.089084
-78.58074
-77.855516
-77.858453
-77.855229
-77.871941
-77.953393
-74.498189
-75.180021
-76.127157
-74.341915
-77.855516
-77.133402
-77.136135
-77.127898
-77.119675
-77.22131
-73.944909
-74.949214
-76.130489
-74.344096
-77.858453
-77.136135
-77.139854
-77.133035
-77.117687
-77.196651
-73.890825
-74.912205
-76.125883
-74.341623
-77.855229
-77.127898
-77.133035
-77.127998
-77.114209
-77.193648
-73.881851
-74.90163
-76.109323
-74.338461
-77.871941
-77.119675
-77.117687
-77.114209
-77.100309
-77.179914
-73.866711
-74.880894
-75.970146
-74.189758
-77.953393
-77.22131
-77.196651
-77.193648
-77.179914
-77.257906
-73.934726
-74.912121
-74.36103
-70.671454
-74.498189
-73.944909
-73.890825
-73.881851
-73.866711
-73.934726
-70.530945
-69.702274
-76.068292
-72.904426
-75.180021
-74.949214
-74.912205
-74.90163
-74.880894
-74.912121
-69.702274
-76.90819
-75.92216
-69.366439
-75.20253
-74.215799
-74.217616
-74.213064
-74.196941
-74.061522
-72.477638
-74.142574
-69.366439
-70.180492
-73.213905
-72.493855
-72.494971
-72.492472
-72.489654
-72.347735
-68.895322
-71.083989
-75.20253
-73.213905
-76.584946
-75.886357
-75.8882
-75.884881
-75.900928
-75.98355
-72.591128
-73.273293
-74.215799
-72.493855
-75.886357
-75.190831
-75.192496
-75.184362
-75.176075
-75.278588
-72.059794
-73.052938
-74.217616
-72.494971
-75.8882
-75.192496
-75.195109
-75.188365
-75.173117
-75.253706
-72.006726
-73.016932
-74.213064
-72.492472
-75.884881
-75.184362
-75.188365
-75.183357
-75.169602
-75.250596
-71.997773
-73.006496
-74.196941
-72.489654
-75.900928
-75.176075
-75.173117
-75.169602
-75.155752
-75.236915
-71.98274
-72.986001
-74.061522
-72.347735
-75.98355
-75.278588
-75.253706
-75.250596
-75.236915
-75.316557
-72.052861
-73.021737
-72.477638
-68.895322
-72.591128
-72.059794
-72.006726
-71.997773
-71.98274
-72.052861
-68.711843
-67.89069
-74.142574
-71.083989
-73.273293
-73.052938
-73.016932
-73.006496
-72.986001
-73.021737
-67.89069
-75.001115
-73.462282
-67.209909
-72.787117
-71.84688
-71.847172
-71.842701
-71.827117
-71.69629
-70.147404
-71.759749
-67.209909
-67.975107
-70.887342
-70.19885
-70.198894
-70.196386
-70.19393
-70.059672
-66.694434
-68.825302
-72.787117
-70.887342
-74.116984
-73.449338
-73.450076
-73.446683
-73.461968
-73.545249
-70.236527
-70.914818
-71.84688
-70.19885
-73.449338
-72.784689
-72.785277
-72.777296
-72.768996
-72.871756
-69.730415
-70.706274
-71.847172
-70.198894
-73.450076
-72.785277
-72.786769
-72.780141
-72.765088
-72.846805
-69.67869
-70.671494
-71.842701
-70.196386
-73.446683
-72.777296
-72.780141
-72.775194
-72.761559
-72.843608
-69.669813
-70.661263
-71.827117
-70.19393
-73.461968
-72.768996
-72.765088
-72.761559
-72.747844
-72.830065
-69.654982
-70.641136
-71.69629
-70.059672
-73.545249
-72.871756
-72.846805
-72.843608
-72.830065
-72.910867
-69.726776
-70.68116
-70.147404
-66.694434
-70.236527
-69.730415
-69.67869
-69.669813
-69.654982
-69.726776
-66.469121
-65.660548
-71.759749
-68.825302
-70.914818
-70.706274
-70.671494
-70.661263
-70.641136
-70.68116
-65.660548
-72.631645
-70.549487
-64.639009
-69.92295
-69.035004
-69.033771
-69.029411
-69.014462
-68.889035
-67.384697
-68.934511
-64.639009
-65.350635
-68.123738
-67.47105
-67.470023
-67.467522
-67.465444
-67.339675
-64.082362
-66.142294
-69.92295
-68.123738
-71.192071
-70.559485
-70.559114
-70.555669
-70.570099
-70.653528
-67.448904
-68.11914
-69.035004
-67.47105
-70.559485
-69.929811
-69.929319
-69.921542
-69.913281
-70.015656
-66.971136
-67.923694
-69.033771
-67.470023
-70.559114
-69.929319
-69.929682
-69.923212
-69.908449
-69.990791
-66.921074
-67.890355
-69.029411
-67.467522
-70.555669
-69.921542
-69.923212
-69.918358
-69.904928
-69.987528
-66.912329
-67.880393
-69.014462
-67.465444
-70.570099
-69.913281
-69.908449
-69.904928
-69.891435
-69.974208
-66.897793
-67.860759
-68.889035
-67.339675