/*--------------------------------*- C++ -*----------------------------------*\
| =========                 |                                                 |
| \\      /  F ield         | OpenFOAM: The Open Source CFD Toolbox           |
|  \\    /   O peration     | Version:  v2106                                 |
|   \\  /    A nd           | Website:  www.openfoam.com                      |
|    \\/     M anipulation  |                                                 |
\*---------------------------------------------------------------------------*/
FoamFile
{
    version     2.0;
    format      ascii;
    arch        "LSB;label=32;scalar=64";
    class       volScalarField;
    location    "30";
    object      T;
}
// * * * * * * * * * * * * * * * * * * * * * * * * * * * * * * * * * * * * * //

dimensions      [0 0 0 1 0 0 0];

internalField   nonuniform List<scalar> 
4000
(
276.79993
276.79991
276.79993
276.79994
276.79994
276.79994
276.79994
276.79994
276.79993
276.79993
276.79991
276.79992
276.79993
276.79994
276.79994
276.79994
276.79994
276.79994
276.79993
276.79992
276.79993
276.79993
276.79995
276.79996
276.79996
276.79996
276.79996
276.79995
276.79994
276.79994
276.79994
276.79994
276.79996
276.79997
276.79997
276.79997
276.79996
276.79996
276.79995
276.79994
276.79994
276.79994
276.79996
276.79997
276.79997
276.79997
276.79997
276.79996
276.79995
276.79994
276.79994
276.79994
276.79996
276.79997
276.79997
276.79997
276.79996
276.79996
276.79995
276.79994
276.79994
276.79994
276.79996
276.79996
276.79997
276.79996
276.79996
276.79995
276.79994
276.79993
276.79994
276.79994
276.79995
276.79996
276.79996
276.79996
276.79995
276.79994
276.79993
276.79993
276.79993
276.79993
276.79994
276.79995
276.79995
276.79995
276.79994
276.79993
276.79993
276.79992
276.79993
276.79992
276.79994
276.79994
276.79994
276.79994
276.79993
276.79993
276.79992
276.79991
284.39948
284.39944
284.39951
284.39953
284.39954
284.39954
284.39953
284.39951
284.3995
284.39949
284.39944
284.39946
284.39951
284.39953
284.39953
284.39953
284.39952
284.39951
284.39949
284.39948
284.39951
284.39951
284.39956
284.39957
284.39958
284.39958
284.39957
284.39955
284.39952
284.39951
284.39953
284.39953
284.39957
284.39959
284.3996
284.3996
284.39958
284.39956
284.39954
284.39952
284.39954
284.39953
284.39958
284.3996
284.39961
284.3996
284.39959
284.39957
284.39954
284.39952
284.39954
284.39953
284.39958
284.3996
284.3996
284.3996
284.39958
284.39956
284.39953
284.39952
284.39953
284.39952
284.39957
284.39958
284.39959
284.39958
284.39957
284.39955
284.39952
284.3995
284.39951
284.39951
284.39955
284.39956
284.39957
284.39956
284.39955
284.39952
284.39949
284.39948
284.3995
284.39949
284.39952
284.39954
284.39954
284.39953
284.39952
284.39949
284.39946
284.39945
284.39949
284.39948
284.39951
284.39952
284.39952
284.39952
284.3995
284.39948
284.39945
284.39944
291.99812
291.99807
291.99816
291.99819
291.99821
291.9982
291.99819
291.99816
291.99814
291.99813
291.99807
291.99809
291.99817
291.9982
291.99821
291.99821
291.99819
291.99816
291.99812
291.99811
291.99816
291.99817
291.99824
291.99827
291.99828
291.99828
291.99826
291.99822
291.99818
291.99816
291.99819
291.9982
291.99827
291.9983
291.99831
291.9983
291.99828
291.99824
291.9982
291.99817
291.99821
291.99821
291.99828
291.99831
291.99832
291.99831
291.99829
291.99825
291.9982
291.99817
291.9982
291.99821
291.99828
291.9983
291.99831
291.9983
291.99828
291.99824
291.99819
291.99816
291.99819
291.99819
291.99826
291.99828
291.99829
291.99828
291.99825
291.99821
291.99816
291.99813
291.99816
291.99816
291.99822
291.99824
291.99825
291.99824
291.99821
291.99817
291.99812
291.99809
291.99814
291.99812
291.99818
291.9982
291.9982
291.99819
291.99816
291.99812
291.99807
291.99804
291.99813
291.99811
291.99816
291.99817
291.99817
291.99816
291.99813
291.99809
291.99804
291.99803
299.59524
299.59518
299.5953
299.59534
299.59536
299.59535
299.59533
299.59529
299.59525
299.59524
299.59518
299.59521
299.5953
299.59535
299.59536
299.59536
299.59533
299.59529
299.59523
299.59521
299.5953
299.5953
299.5954
299.59544
299.59545
299.59545
299.59542
299.59537
299.5953
299.59527
299.59534
299.59535
299.59544
299.59547
299.59549
299.59548
299.59545
299.5954
299.59532
299.59529
299.59536
299.59536
299.59545
299.59549
299.5955
299.59549
299.59546
299.5954
299.59532
299.59529
299.59535
299.59536
299.59545
299.59548
299.59549
299.59548
299.59544
299.59538
299.59531
299.59527
299.59533
299.59533
299.59542
299.59545
299.59546
299.59544
299.5954
299.59534
299.59527
299.59523
299.59529
299.59529
299.59537
299.5954
299.5954
299.59538
299.59534
299.59528
299.59521
299.59517
299.59525
299.59523
299.5953
299.59532
299.59532
299.59531
299.59527
299.59521
299.59513
299.5951
299.59524
299.59521
299.59527
299.59529
299.59529
299.59527
299.59523
299.59517
299.5951
299.59509
307.19024
307.19017
307.19031
307.19036
307.19038
307.19037
307.19034
307.19029
307.19023
307.19023
307.19017
307.1902
307.19032
307.19037
307.19039
307.19038
307.19035
307.19029
307.1902
307.19019
307.19031
307.19032
307.19043
307.19048
307.1905
307.19049
307.19045
307.19038
307.19029
307.19025
307.19036
307.19037
307.19048
307.19053
307.19054
307.19053
307.19049
307.19042
307.19032
307.19028
307.19038
307.19039
307.1905
307.19054
307.19055
307.19054
307.19049
307.19042
307.19032
307.19028
307.19037
307.19038
307.19049
307.19053
307.19054
307.19052
307.19047
307.1904
307.19029
307.19025
307.19034
307.19035
307.19045
307.19049
307.19049
307.19047
307.19042
307.19034
307.19024
307.1902
307.19029
307.19029
307.19038
307.19042
307.19042
307.1904
307.19034
307.19027
307.19016
307.19012
307.19023
307.1902
307.19029
307.19032
307.19032
307.19029
307.19024
307.19016
307.19006
307.19002
307.19023
307.19019
307.19025
307.19028
307.19028
307.19025
307.1902
307.19012
307.19002
307.19002
314.78253
314.78246
314.78261
314.78267
314.78269
314.78268
314.78264
314.78258
314.7825
314.78249
314.78246
314.78249
314.78263
314.78268
314.78271
314.78269
314.78265
314.78257
314.78247
314.78245
314.78261
314.78263
314.78276
314.78281
314.78283
314.78282
314.78277
314.78268
314.78257
314.78252
314.78267
314.78268
314.78281
314.78286
314.78288
314.78286
314.78281
314.78272
314.7826
314.78255
314.78269
314.78271
314.78283
314.78288
314.78289
314.78287
314.78281
314.78272
314.7826
314.78255
314.78268
314.78269
314.78282
314.78286
314.78287
314.78285
314.78279
314.78269
314.78256
314.78251
314.78264
314.78265
314.78277
314.78281
314.78281
314.78279
314.78272
314.78263
314.7825
314.78244
314.78258
314.78257
314.78268
314.78272
314.78272
314.78269
314.78263
314.78253
314.7824
314.78234
314.7825
314.78247
314.78257
314.7826
314.7826
314.78256
314.7825
314.7824
314.78226
314.78222
314.78249
314.78245
314.78252
314.78255
314.78255
314.78251
314.78244
314.78234
314.78222
314.78223
322.37154
322.37146
322.37164
322.3717
322.37173
322.37171
322.37166
322.37158
322.37149
322.37148
322.37146
322.3715
322.37165
322.37172
322.37174
322.37172
322.37167
322.37157
322.37145
322.37143
322.37164
322.37165
322.3718
322.37186
322.37188
322.37186
322.3718
322.3717
322.37156
322.37151
322.3717
322.37172
322.37186
322.37192
322.37194
322.37191
322.37185
322.37174
322.37159
322.37154
322.37173
322.37174
322.37188
322.37194
322.37195
322.37192
322.37185
322.37174
322.37159
322.37153
322.37171
322.37172
322.37186
322.37191
322.37192
322.37189
322.37181
322.3717
322.37155
322.37149
322.37166
322.37167
322.3718
322.37185
322.37185
322.37181
322.37174
322.37162
322.37147
322.3714
322.37158
322.37157
322.3717
322.37174
322.37174
322.3717
322.37162
322.3715
322.37135
322.37128
322.37149
322.37145
322.37156
322.37159
322.37159
322.37155
322.37147
322.37135
322.37119
322.37113
322.37148
322.37143
322.37151
322.37154
322.37153
322.37149
322.3714
322.37128
322.37113
322.37115
329.95673
329.95664
329.95683
329.9569
329.95693
329.95691
329.95685
329.95675
329.95664
329.95663
329.95664
329.95668
329.95685
329.95692
329.95694
329.95692
329.95685
329.95675
329.9566
329.95657
329.95683
329.95685
329.95701
329.95708
329.9571
329.95707
329.957
329.95688
329.95672
329.95666
329.9569
329.95692
329.95708
329.95714
329.95716
329.95713
329.95705
329.95693
329.95675
329.95669
329.95693
329.95694
329.9571
329.95716
329.95717
329.95713
329.95705
329.95692
329.95675
329.95668
329.95691
329.95692
329.95707
329.95713
329.95713
329.95709
329.95701
329.95688
329.9567
329.95663
329.95685
329.95685
329.957
329.95705
329.95705
329.95701
329.95692
329.95678
329.9566
329.95653
329.95675
329.95675
329.95688
329.95693
329.95692
329.95688
329.95678
329.95665
329.95646
329.95639
329.95664
329.9566
329.95672
329.95675
329.95675
329.9567
329.9566
329.95646
329.95628
329.95621
329.95663
329.95657
329.95666
329.95669
329.95668
329.95663
329.95653
329.95639
329.95621
329.95624
337.53755
337.53746
337.53767
337.53775
337.53777
337.53775
337.53768
337.53757
337.53744
337.53742
337.53746
337.53751
337.53769
337.53776
337.53779
337.53776
337.53768
337.53756
337.53739
337.53736
337.53767
337.53769
337.53787
337.53794
337.53796
337.53793
337.53784
337.53771
337.53752
337.53745
337.53775
337.53776
337.53794
337.538
337.53802
337.53798
337.53789
337.53775
337.53756
337.53749
337.53777
337.53779
337.53796
337.53802
337.53803
337.53799
337.53789
337.53775
337.53755
337.53747
337.53775
337.53776
337.53793
337.53798
337.53799
337.53794
337.53784
337.53769
337.53749
337.53741
337.53768
337.53768
337.53784
337.53789
337.53789
337.53784
337.53774
337.53759
337.53738
337.5373
337.53757
337.53756
337.53771
337.53775
337.53775
337.53769
337.53759
337.53743
337.53722
337.53714
337.53744
337.53739
337.53752
337.53756
337.53755
337.53749
337.53738
337.53722
337.53701
337.53694
337.53742
337.53736
337.53745
337.53749
337.53747
337.53741
337.5373
337.53714
337.53694
337.53697
345.11353
345.11343
345.11365
345.11373
345.11376
345.11373
345.11365
345.11353
345.11338
345.11337
345.11343
345.11348
345.11368
345.11375
345.11378
345.11374
345.11366
345.11352
345.11333
345.1133
345.11365
345.11368
345.11387
345.11394
345.11396
345.11392
345.11383
345.11368
345.11347
345.11339
345.11373
345.11375
345.11394
345.11401
345.11402
345.11398
345.11388
345.11372
345.11351
345.11343
345.11376
345.11378
345.11396
345.11402
345.11403
345.11398
345.11388
345.11371
345.11349
345.11341
345.11373
345.11374
345.11392
345.11398
345.11398
345.11393
345.11382
345.11365
345.11342
345.11334
345.11365
345.11366
345.11383
345.11388
345.11388
345.11382
345.1137
345.11353
345.1133
345.11321
345.11353
345.11352
345.11368
345.11372
345.11371
345.11365
345.11353
345.11336
345.11313
345.11304
345.11338
345.11333
345.11347
345.11351
345.11349
345.11342
345.1133
345.11313
345.11289
345.11281
345.11337
345.1133
345.11339
345.11343
345.11341
345.11334
345.11321
345.11304
345.11281
345.11284
352.68418
352.68407
352.68431
352.6844
352.68442
352.68439
352.6843
352.68416
352.68401
352.68398
352.68407
352.68413
352.68434
352.68442
352.68444
352.6844
352.68431
352.68415
352.68395
352.68391
352.68431
352.68434
352.68454
352.68462
352.68463
352.68459
352.68449
352.68432
352.68409
352.68401
352.6844
352.68442
352.68462
352.68469
352.6847
352.68465
352.68454
352.68437
352.68413
352.68404
352.68442
352.68444
352.68463
352.6847
352.68471
352.68465
352.68453
352.68436
352.68411
352.68402
352.68439
352.6844
352.68459
352.68465
352.68465
352.68459
352.68447
352.68428
352.68403
352.68394
352.6843
352.68431
352.68449
352.68454
352.68453
352.68447
352.68434
352.68415
352.6839
352.68381
352.68416
352.68415
352.68432
352.68437
352.68436
352.68428
352.68415
352.68396
352.68371
352.68361
352.68401
352.68395
352.68409
352.68413
352.68411
352.68403
352.6839
352.68371
352.68345
352.68336
352.68398
352.68391
352.68401
352.68404
352.68402
352.68394
352.68381
352.68361
352.68336
352.6834
360.24908
360.24896
360.24922
360.2493
360.24933
360.24929
360.24919
360.24904
360.24887
360.24884
360.24896
360.24902
360.24924
360.24932
360.24934
360.2493
360.24919
360.24903
360.2488
360.24876
360.24922
360.24924
360.24945
360.24953
360.24955
360.2495
360.24938
360.24921
360.24895
360.24887
360.2493
360.24932
360.24953
360.24961
360.24962
360.24956
360.24944
360.24925
360.24899
360.2489
360.24933
360.24934
360.24955
360.24962
360.24962
360.24956
360.24943
360.24924
360.24897
360.24887
360.24929
360.2493
360.2495
360.24956
360.24956
360.24949
360.24936
360.24916
360.24889
360.24879
360.24919
360.24919
360.24938
360.24944
360.24943
360.24936
360.24922
360.24901
360.24874
360.24864
360.24904
360.24903
360.24921
360.24925
360.24924
360.24916
360.24901
360.24881
360.24853
360.24843
360.24887
360.2488
360.24895
360.24899
360.24897
360.24889
360.24874
360.24853
360.24826
360.24816
360.24884
360.24876
360.24887
360.2489
360.24887
360.24879
360.24864
360.24843
360.24816
360.2482
367.80781
367.80769
367.80796
367.80805
367.80807
367.80802
367.80792
367.80776
367.80757
367.80755
367.80769
367.80775
367.80798
367.80807
367.80809
367.80804
367.80792
367.80774
367.8075
367.80746
367.80796
367.80798
367.8082
367.80828
367.8083
367.80824
367.80812
367.80793
367.80766
367.80757
367.80805
367.80807
367.80828
367.80836
367.80837
367.80831
367.80818
367.80798
367.8077
367.8076
367.80807
367.80809
367.8083
367.80837
367.80837
367.8083
367.80816
367.80796
367.80767
367.80757
367.80802
367.80804
367.80824
367.80831
367.8083
367.80823
367.80808
367.80787
367.80758
367.80747
367.80792
367.80792
367.80812
367.80818
367.80816
367.80808
367.80793
367.80772
367.80742
367.80731
367.80776
367.80774
367.80793
367.80798
367.80796
367.80787
367.80772
367.80749
367.8072
367.80709
367.80757
367.8075
367.80766
367.8077
367.80767
367.80758
367.80742
367.8072
367.8069
367.8068
367.80755
367.80746
367.80757
367.8076
367.80757
367.80747
367.80731
367.80709
367.8068
367.80685
375.36002
375.3599
375.36017
375.36027
375.36029
375.36024
375.36012
375.35995
375.35976
375.35973
375.3599
375.35996
375.3602
375.36029
375.36031
375.36025
375.36013
375.35994
375.35968
375.35964
375.36017
375.3602
375.36043
375.36051
375.36052
375.36046
375.36033
375.36013
375.35984
375.35975
375.36027
375.36029
375.36051
375.36059
375.36059
375.36053
375.36039
375.36018
375.35988
375.35978
375.36029
375.36031
375.36052
375.36059
375.36059
375.36052
375.36037
375.36015
375.35985
375.35974
375.36024
375.36025
375.36046
375.36053
375.36052
375.36044
375.36029
375.36006
375.35975
375.35964
375.36012
375.36013
375.36033
375.36039
375.36037
375.36029
375.36013
375.3599
375.35959
375.35947
375.35995
375.35994
375.36013
375.36018
375.36015
375.36006
375.3599
375.35966
375.35935
375.35923
375.35976
375.35968
375.35984
375.35988
375.35985
375.35975
375.35959
375.35935
375.35903
375.35893
375.35973
375.35964
375.35975
375.35978
375.35974
375.35964
375.35947
375.35923
375.35893
375.35898
382.90539
382.90527
382.90555
382.90564
382.90566
382.90561
382.90548
382.9053
382.9051
382.90507
382.90527
382.90533
382.90557
382.90566
382.90568
382.90562
382.90549
382.90529
382.90502
382.90497
382.90555
382.90557
382.90581
382.90589
382.9059
382.90584
382.9057
382.90549
382.90519
382.90508
382.90564
382.90566
382.90589
382.90597
382.90597
382.9059
382.90576
382.90553
382.90522
382.90511
382.90566
382.90568
382.9059
382.90597
382.90597
382.90589
382.90574
382.9055
382.90519
382.90507
382.90561
382.90562
382.90584
382.9059
382.90589
382.90581
382.90564
382.90541
382.90508
382.90496
382.90548
382.90549
382.9057
382.90576
382.90574
382.90564
382.90548
382.90523
382.90491
382.90479
382.9053
382.90529
382.90549
382.90553
382.9055
382.90541
382.90523
382.90499
382.90466
382.90454
382.9051
382.90502
382.90519
382.90522
382.90519
382.90508
382.90491
382.90466
382.90433
382.90421
382.90507
382.90497
382.90508
382.90511
382.90507
382.90496
382.90479
382.90454
382.90421
382.90427
390.44364
390.44351
390.4438
390.44389
390.44391
390.44385
390.44372
390.44353
390.44332
390.44328
390.44351
390.44357
390.44382
390.44391
390.44393
390.44387
390.44373
390.44352
390.44324
390.44319
390.4438
390.44382
390.44406
390.44415
390.44416
390.44409
390.44394
390.44372
390.4434
390.4433
390.44389
390.44391
390.44415
390.44423
390.44423
390.44415
390.444
390.44376
390.44344
390.44332
390.44391
390.44393
390.44416
390.44423
390.44422
390.44414
390.44397
390.44373
390.4434
390.44328
390.44385
390.44387
390.44409
390.44415
390.44414
390.44405
390.44388
390.44363
390.44329
390.44317
390.44372
390.44373
390.44394
390.444
390.44397
390.44388
390.4437
390.44345
390.44311
390.44298
390.44353
390.44352
390.44372
390.44376
390.44373
390.44363
390.44345
390.44319
390.44285
390.44272
390.44332
390.44324
390.4434
390.44344
390.4434
390.44329
390.44311
390.44285
390.4425
390.44239
390.44328
390.44319
390.4433
390.44332
390.44328
390.44317
390.44298
390.44272
390.44239
390.44245
397.97453
397.9744
397.97469
397.97478
397.9748
397.97473
397.9746
397.9744
397.97418
397.97415
397.9744
397.97446
397.97471
397.9748
397.97482
397.97475
397.97461
397.97439
397.9741
397.97404
397.97469
397.97471
397.97496
397.97504
397.97505
397.97497
397.97482
397.97459
397.97427
397.97416
397.97478
397.9748
397.97504
397.97512
397.97512
397.97504
397.97488
397.97463
397.9743
397.97418
397.9748
397.97482
397.97505
397.97512
397.97511
397.97502
397.97485
397.9746
397.97426
397.97413
397.97473
397.97475
397.97497
397.97504
397.97502
397.97492
397.97475
397.97449
397.97414
397.97402
397.9746
397.97461
397.97482
397.97488
397.97485
397.97475
397.97457
397.9743
397.97395
397.97382
397.9744
397.97439
397.97459
397.97463
397.9746
397.97449
397.9743
397.97404
397.97368
397.97355
397.97418
397.9741
397.97427
397.9743
397.97426
397.97414
397.97395
397.97368
397.97333
397.97321
397.97415
397.97404
397.97416
397.97418
397.97413
397.97402
397.97382
397.97355
397.97321
397.97327
405.49787
405.49774
405.49803
405.49812
405.49813
405.49807
405.49793
405.49773
405.4975
405.49746
405.49774
405.4978
405.49805
405.49814
405.49815
405.49808
405.49793
405.49771
405.49741
405.49736
405.49803
405.49805
405.4983
405.49838
405.49838
405.49831
405.49815
405.49791
405.49758
405.49747
405.49812
405.49814
405.49838
405.49846
405.49846
405.49837
405.4982
405.49795
405.49761
405.49749
405.49813
405.49815
405.49838
405.49846
405.49844
405.49835
405.49818
405.49792
405.49757
405.49744
405.49807
405.49808
405.49831
405.49837
405.49835
405.49825
405.49807
405.4978
405.49745
405.49732
405.49793
405.49793
405.49815
405.4982
405.49818
405.49807
405.49788
405.49761
405.49725
405.49712
405.49773
405.49771
405.49791
405.49795
405.49792
405.4978
405.49761
405.49734
405.49697
405.49684
405.4975
405.49741
405.49758
405.49761
405.49757
405.49745
405.49725
405.49697
405.49661
405.49648
405.49746
405.49736
405.49747
405.49749
405.49744
405.49732
405.49712
405.49684
405.49648
405.49655
413.01351
413.01338
413.01367
413.01376
413.01378
413.01371
413.01356
413.01336
413.01312
413.01308
413.01338
413.01344
413.0137
413.01379
413.01379
413.01372
413.01357
413.01334
413.01304
413.01298
413.01367
413.0137
413.01394
413.01402
413.01403
413.01395
413.01378
413.01354
413.0132
413.01309
413.01376
413.01379
413.01402
413.0141
413.0141
413.01401
413.01384
413.01358
413.01323
413.01311
413.01378
413.01379
413.01403
413.0141
413.01408
413.01399
413.01381
413.01354
413.01318
413.01306
413.01371
413.01372
413.01395
413.01401
413.01399
413.01388
413.0137
413.01343
413.01306
413.01293
413.01356
413.01357
413.01378
413.01384
413.01381
413.0137
413.0135
413.01323
413.01286
413.01272
413.01336
413.01334
413.01354
413.01358
413.01354
413.01343
413.01323
413.01295
413.01258
413.01244
413.01312
413.01304
413.0132
413.01323
413.01318
413.01306
413.01286
413.01258
413.01221
413.01208
413.01308
413.01298
413.01309
413.01311
413.01306
413.01293
413.01272
413.01244
413.01208
413.01215
420.52137
420.52124
420.52153
420.52162
420.52163
420.52155
420.52141
420.5212
420.52096
420.52092
420.52124
420.5213
420.52155
420.52164
420.52164
420.52157
420.52141
420.52118
420.52087
420.52081
420.52153
420.52155
420.52179
420.52188
420.52187
420.52179
420.52163
420.52138
420.52104
420.52092
420.52162
420.52164
420.52188
420.52195
420.52194
420.52185
420.52168
420.52142
420.52106
420.52094
420.52163
420.52164
420.52187
420.52194
420.52193
420.52183
420.52164
420.52138
420.52101
420.52088
420.52155
420.52157
420.52179
420.52185
420.52183
420.52172
420.52153
420.52126
420.52089
420.52075
420.52141
420.52141
420.52163
420.52168
420.52164
420.52153
420.52133
420.52105
420.52068
420.52055
420.5212
420.52118
420.52138
420.52142
420.52138
420.52126
420.52105
420.52077
420.5204
420.52026
420.52096
420.52087
420.52104
420.52106
420.52101
420.52089
420.52068
420.5204
420.52002
420.51989
420.52092
420.52081
420.52092
420.52094
420.52088
420.52075
420.52055
420.52026
420.51989
420.51996
428.02139
428.02126
428.02154
428.02163
428.02164
428.02156
428.02141
428.0212
428.02096
428.02092
428.02126
428.02132
428.02157
428.02165
428.02165
428.02157
428.02142
428.02118
428.02087
428.02081
428.02154
428.02157
428.02181
428.02188
428.02188
428.0218
428.02163
428.02138
428.02103
428.02092
428.02163
428.02165
428.02188
428.02196
428.02195
428.02185
428.02168
428.02142
428.02106
428.02093
428.02164
428.02165
428.02188
428.02195
428.02193
428.02183
428.02164
428.02137
428.02101
428.02088
428.02156
428.02157
428.0218
428.02185
428.02183
428.02172
428.02153
428.02125
428.02088
428.02074
428.02141
428.02142
428.02163
428.02168
428.02164
428.02153
428.02133
428.02105
428.02067
428.02053
428.0212
428.02118
428.02138
428.02142
428.02137
428.02125
428.02105
428.02076
428.02038
428.02024
428.02096
428.02087
428.02103
428.02106
428.02101
428.02088
428.02067
428.02038
428.02
428.01987
428.02092
428.02081
428.02092
428.02093
428.02088
428.02074
428.02053
428.02024
428.01987
428.01994
435.51356
435.51344
435.51372
435.5138
435.51381
435.51373
435.51358
435.51337
435.51312
435.51308
435.51344
435.5135
435.51374
435.51382
435.51382
435.51374
435.51358
435.51335
435.51304
435.51298
435.51372
435.51374
435.51398
435.51405
435.51405
435.51396
435.51379
435.51354
435.51319
435.51308
435.5138
435.51382
435.51405
435.51412
435.51411
435.51401
435.51384
435.51358
435.51322
435.51309
435.51381
435.51382
435.51405
435.51411
435.51409
435.51399
435.5138
435.51353
435.51316
435.51303
435.51373
435.51374
435.51396
435.51401
435.51399
435.51388
435.51368
435.51341
435.51303
435.5129
435.51358
435.51358
435.51379
435.51384
435.5138
435.51368
435.51348
435.5132
435.51282
435.51269
435.51337
435.51335
435.51354
435.51358
435.51353
435.51341
435.5132
435.51291
435.51254
435.5124
435.51312
435.51304
435.51319
435.51322
435.51316
435.51303
435.51282
435.51254
435.51216
435.51203
435.51308
435.51298
435.51308
435.51309
435.51303
435.5129
435.51269
435.5124
435.51203
435.5121
442.99795
442.99783
442.9981
442.99818
442.99818
442.99811
442.99796
442.99774
442.9975
442.99746
442.99783
442.99788
442.99812
442.9982
442.9982
442.99812
442.99796
442.99772
442.99741
442.99735
442.9981
442.99812
442.99835
442.99843
442.99842
442.99833
442.99816
442.99791
442.99757
442.99745
442.99818
442.9982
442.99843
442.99849
442.99848
442.99838
442.9982
442.99794
442.99759
442.99746
442.99818
442.9982
442.99842
442.99848
442.99846
442.99835
442.99817
442.9979
442.99753
442.9974
442.99811
442.99812
442.99833
442.99838
442.99835
442.99824
442.99805
442.99777
442.9974
442.99727
442.99796
442.99796
442.99816
442.9982
442.99817
442.99805
442.99785
442.99757
442.99719
442.99706
442.99774
442.99772
442.99791
442.99794
442.9979
442.99777
442.99757
442.99728
442.99691
442.99677
442.9975
442.99741
442.99757
442.99759
442.99753
442.9974
442.99719
442.99691
442.99653
442.9964
442.99746
442.99735
442.99745
442.99746
442.9974
442.99727
442.99706
442.99677
442.9964
442.99647
450.47465
450.47453
450.47479
450.47487
450.47487
450.47479
450.47464
450.47443
450.47419
450.47414
450.47453
450.47458
450.47481
450.47489
450.47488
450.4748
450.47464
450.47441
450.4741
450.47404
450.47479
450.47481
450.47503
450.4751
450.47509
450.475
450.47484
450.47459
450.47425
450.47414
450.47487
450.47489
450.4751
450.47517
450.47515
450.47505
450.47488
450.47462
450.47427
450.47414
450.47487
450.47488
450.47509
450.47515
450.47513
450.47502
450.47484
450.47457
450.47421
450.47408
450.47479
450.4748
450.475
450.47505
450.47502
450.47491
450.47472
450.47445
450.47408
450.47395
450.47464
450.47464
450.47484
450.47488
450.47484
450.47472
450.47452
450.47424
450.47387
450.47374
450.47443
450.47441
450.47459
450.47462
450.47457
450.47445
450.47424
450.47396
450.47359
450.47345
450.47419
450.4741
450.47425
450.47427
450.47421
450.47408
450.47387
450.47359
450.47322
450.47309
450.47414
450.47404
450.47414
450.47414
450.47408
450.47395
450.47374
450.47345
450.47309
450.47316
457.94379
457.94367
457.94393
457.944
457.944
457.94392
457.94377
457.94356
457.94333
457.94328
457.94367
457.94373
457.94395
457.94402
457.94401
457.94393
457.94377
457.94354
457.94324
457.94318
457.94393
457.94395
457.94416
457.94423
457.94421
457.94413
457.94396
457.94372
457.94338
457.94327
457.944
457.94402
457.94423
457.94429
457.94427
457.94417
457.944
457.94374
457.9434
457.94328
457.944
457.94401
457.94421
457.94427
457.94424
457.94414
457.94396
457.94369
457.94334
457.94322
457.94392
457.94393
457.94413
457.94417
457.94414
457.94403
457.94384
457.94357
457.94321
457.94308
457.94377
457.94377
457.94396
457.944
457.94396
457.94384
457.94364
457.94337
457.94301
457.94288
457.94356
457.94354
457.94372
457.94374
457.94369
457.94357
457.94337
457.94309
457.94273
457.9426
457.94333
457.94324
457.94338
457.9434
457.94334
457.94321
457.94301
457.94273
457.94236
457.94224
457.94328
457.94318
457.94327
457.94328
457.94322
457.94308
457.94288
457.9426
457.94224
457.94231
465.40557
465.40546
465.4057
465.40577
465.40577
465.40569
465.40554
465.40534
465.40511
465.40506
465.40546
465.40551
465.40572
465.40579
465.40578
465.4057
465.40555
465.40532
465.40503
465.40497
465.4057
465.40572
465.40593
465.40599
465.40597
465.40589
465.40572
465.40549
465.40516
465.40505
465.40577
465.40579
465.40599
465.40604
465.40602
465.40593
465.40576
465.40551
465.40517
465.40505
465.40577
465.40578
465.40597
465.40602
465.406
465.40589
465.40571
465.40546
465.40511
465.40499
465.40569
465.4057
465.40589
465.40593
465.40589
465.40578
465.4056
465.40534
465.40499
465.40486
465.40554
465.40555
465.40572
465.40576
465.40571
465.4056
465.40541
465.40514
465.40479
465.40466
465.40534
465.40532
465.40549
465.40551
465.40546
465.40534
465.40514
465.40487
465.40451
465.40439
465.40511
465.40503
465.40516
465.40517
465.40511
465.40499
465.40479
465.40451
465.40416
465.40403
465.40506
465.40497
465.40505
465.40505
465.40499
465.40486
465.40466
465.40439
465.40403
465.40411
472.86023
472.86013
472.86036
472.86042
472.86041
472.86033
472.86019
472.85999
472.85977
472.85973
472.86013
472.86017
472.86037
472.86044
472.86042
472.86034
472.86019
472.85997
472.85969
472.85963
472.86036
472.86037
472.86057
472.86062
472.86061
472.86052
472.86036
472.86013
472.85981
472.85971
472.86042
472.86044
472.86062
472.86067
472.86065
472.86056
472.86039
472.86015
472.85982
472.85971
472.86041
472.86042
472.86061
472.86065
472.86062
472.86052
472.86035
472.8601
472.85976
472.85965
472.86033
472.86034
472.86052
472.86056
472.86052
472.86041
472.86023
472.85998
472.85964
472.85952
472.86019
472.86019
472.86036
472.86039
472.86035
472.86023
472.86005
472.85979
472.85945
472.85932
472.85999
472.85997
472.86013
472.86015
472.8601
472.85998
472.85979
472.85953
472.85918
472.85906
472.85977
472.85969
472.85981
472.85982
472.85976
472.85964
472.85945
472.85918
472.85884
472.85872
472.85973
472.85963
472.85971
472.85971
472.85965
472.85952
472.85932
472.85906
472.85872
472.85879
480.30804
480.30795
480.30816
480.30822
480.30821
480.30813
480.308
480.3078
480.30759
480.30754
480.30795
480.30799
480.30818
480.30823
480.30822
480.30814
480.308
480.30778
480.30751
480.30745
480.30816
480.30818
480.30836
480.30841
480.30839
480.30831
480.30815
480.30793
480.30762
480.30752
480.30822
480.30823
480.30841
480.30845
480.30843
480.30834
480.30818
480.30795
480.30763
480.30752
480.30821
480.30822
480.30839
480.30843
480.3084
480.3083
480.30813
480.3079
480.30757
480.30746
480.30813
480.30814
480.30831
480.30834
480.3083
480.3082
480.30802
480.30778
480.30745
480.30734
480.308
480.308
480.30815
480.30818
480.30813
480.30802
480.30784
480.30759
480.30727
480.30715
480.3078
480.30778
480.30793
480.30795
480.3079
480.30778
480.30759
480.30734
480.30701
480.30689
480.30759
480.30751
480.30762
480.30763
480.30757
480.30745
480.30727
480.30701
480.30668
480.30656
480.30754
480.30745
480.30752
480.30752
480.30746
480.30734
480.30715
480.30689
480.30656
480.30664
487.74933
487.74924
487.74944
487.7495
487.74948
487.74941
487.74928
487.74909
487.74888
487.74884
487.74924
487.74928
487.74946
487.74951
487.74949
487.74942
487.74928
487.74907
487.74881
487.74876
487.74944
487.74946
487.74962
487.74967
487.74965
487.74957
487.74942
487.74921
487.74892
487.74882
487.7495
487.74951
487.74967
487.74971
487.74969
487.7496
487.74944
487.74922
487.74892
487.74882
487.74948
487.74949
487.74965
487.74969
487.74966
487.74956
487.7494
487.74917
487.74886
487.74876
487.74941
487.74942
487.74957
487.7496
487.74956
487.74946
487.74929
487.74906
487.74875
487.74864
487.74928
487.74928
487.74942
487.74944
487.7494
487.74929
487.74912
487.74888
487.74857
487.74846
487.74909
487.74907
487.74921
487.74922
487.74917
487.74906
487.74888
487.74864
487.74832
487.74821
487.74888
487.74881
487.74892
487.74892
487.74886
487.74875
487.74857
487.74832
487.74801
487.7479
487.74884
487.74876
487.74882
487.74882
487.74876
487.74864
487.74846
487.74821
487.7479
487.74797
495.18446
495.18438
495.18456
495.18461
495.18459
495.18452
495.1844
495.18422
495.18402
495.18398
495.18438
495.18441
495.18457
495.18462
495.1846
495.18453
495.18439
495.1842
495.18395
495.1839
495.18456
495.18457
495.18473
495.18477
495.18475
495.18467
495.18453
495.18432
495.18405
495.18396
495.18461
495.18462
495.18477
495.1848
495.18478
495.18469
495.18454
495.18433
495.18405
495.18395
495.18459