/*--------------------------------*- C++ -*----------------------------------*\
| =========                 |                                                 |
| \\      /  F ield         | OpenFOAM: The Open Source CFD Toolbox           |
|  \\    /   O peration     | Version:  v2106                                 |
|   \\  /    A nd           | Website:  www.openfoam.com                      |
|    \\/     M anipulation  |                                                 |
\*---------------------------------------------------------------------------*/
FoamFile
{
    version     2.0;
    format      ascii;
    arch        "LSB;label=32;scalar=64";
    class       volScalarField;
    location    "37.5";
    object      gradTy;
}
// * * * * * * * * * * * * * * * * * * * * * * * * * * * * * * * * * * * * * //

dimensions      [0 -1 0 1 0 0 0];

internalField   nonuniform List<scalar> 
4000
(
-0.0012924039
-0.00024273328
-0.0003606564
-0.00036553092
-0.00036933808
-0.00037739354
-0.00039457842
-0.00043047181
-0.00048835175
-0.00050140107
-0.00074016316
0.00065745814
0.0004668981
0.00045411633
0.00043917362
0.00041195646
0.0003602568
0.00025753132
7.0289453e-05
-0.0001286442
0.0016081267
0.0014239302
0.0014047849
0.0013909772
0.0013701385
0.0013390559
0.0012910204
0.0012127814
0.0010780875
0.00087003089
0.00063425989
0.00062123736
0.0006065354
0.00058659096
0.00056182922
0.00053082641
0.00049078872
0.00044033839
0.00038431463
0.00034073178
0.00030181851
0.00028402457
0.00025965863
0.00023210332
0.00020389408
0.00017499204
0.00014390237
0.00011024493
7.7592222e-05
5.5983478e-05
3.7014531e-05
-8.4597987e-07
-4.1902298e-05
-7.9964048e-05
-0.00011294279
-0.00013995576
-0.00016248877
-0.00018105187
-0.00019478404
-0.00020200567
-0.00015020345
-0.00022982085
-0.00030462858
-0.00035609533
-0.00039511661
-0.00042084245
-0.00043621272
-0.00044234618
-0.00044000388
-0.00043351266
-0.00020538194
-0.00034604194
-0.00049534928
-0.00055897484
-0.00060182337
-0.00062528499
-0.00063411863
-0.00062907615
-0.00060932417
-0.00058209561
-7.7115565e-05
-0.00018350946
-0.00046329109
-0.00052626002
-0.0005628977
-0.00058052147
-0.0005838515
-0.00057168796
-0.00053687095
-0.00047820702
1.2193976e-05
-8.5534383e-07
-0.00012042846
-0.00013955975
-0.00014948369
-0.00015396558
-0.00015429812
-0.0001496381
-0.00013614574
-0.00011052881
-0.0046566714
-0.0012348336
-0.0015152424
-0.0015354416
-0.0015545814
-0.0015938479
-0.0016786541
-0.0018606823
-0.0021537052
-0.0019946633
-0.0023400306
0.0023721129
0.0018815709
0.0018189408
0.0017442488
0.0016112637
0.0013569582
0.00084130162
-0.00010847388
-0.00069962688
0.0066396905
0.0061887785
0.0060865184
0.006011794
0.0059088868
0.0057569519
0.0055219412
0.0051350784
0.0044475025
0.0034545719
0.0030754664
0.0030164578
0.0029381443
0.0028388261
0.0027176404
0.0025663339
0.0023711546
0.002124881
0.0018429466
0.0016091456
0.0014400639
0.0013524545
0.0012323868
0.0010976123
0.00095989456
0.00081883834
0.00066733686
0.00050414064
0.00034680445
0.00024481263
0.00014005892
-4.6050087e-05
-0.00024723172
-0.00043299569
-0.00059371751
-0.00072555339
-0.00083537073
-0.00092550165
-0.00099132306
-0.001023855
-0.00078423368
-0.0011844853
-0.0015541957
-0.0018063588
-0.0019956486
-0.0021210565
-0.0021955968
-0.0022241083
-0.0022088594
-0.0021698068
-0.0010157829
-0.0017283595
-0.0024812149
-0.0028027981
-0.0030094229
-0.0031233305
-0.0031653753
-0.0031365932
-0.0030252841
-0.0028540381
-7.0950598e-05
-0.00027192212
-0.0016118791
-0.0019524286
-0.0021276145
-0.0022117566
-0.0022259679
-0.0021574551
-0.0019434128
-0.001484839
0.00025323418
0.00041227606
-0.00014086782
-0.0002496777
-0.00029673515
-0.00031767224
-0.00031842312
-0.00029163713
-0.00020425908
1.4078712e-05
-0.0062468981
-0.0014756271
-0.0018145299
-0.0018438889
-0.0018771194
-0.0019456029
-0.0020970377
-0.0024486615
-0.0031223276
-0.002991646
-0.0021754312
0.0044731211
0.0038635176
0.0037628944
0.003630998
0.003396462
0.0029456679
0.0019974741
9.5460976e-05
-0.0010832505
0.010582774
0.010030381
0.0098725474
0.009740196
0.0095565677
0.0092857591
0.0088689534
0.0081892147
0.0069727977
0.0052950271
0.0052212391
0.0051273548
0.0049887195
0.0048113751
0.0045953633
0.0043256881
0.0039775273
0.0035379415
0.0030277187
0.0025988921
0.0023906858
0.0022381147
0.0020242533
0.0017836778
0.0015385664
0.001287662
0.0010185981
0.00072974505
0.00045161812
0.00027130853
5.4472639e-05
-0.00027540477
-0.00063085751
-0.00096301908
-0.0012486935
-0.0014829874
-0.0016776338
-0.0018362852
-0.0019501644
-0.0020036387
-0.0016832247
-0.0024378126
-0.0030822125
-0.003534357
-0.0038699591
-0.0040922739
-0.0042232569
-0.0042696767
-0.0042311552
-0.0041404412
-0.0021099948
-0.0036479296
-0.0049602017
-0.0055440853
-0.0059100103
-0.0061110653
-0.0061825409
-0.0061189637
-0.0058719334
-0.0054233739
0.00067301889
-0.00014145779
-0.0024077058
-0.0030356454
-0.0033467552
-0.003494082
-0.0035141087
-0.0033648464
-0.0028185189
-0.0010929652
0.0010684141
0.0011990958
0.00028260644
8.0582018e-05
-3.2779258e-06
-3.9624372e-05
-3.8927443e-05
2.0851675e-05
0.00026011221
0.0011712208
-0.007553098
-0.001676844
-0.0020769301
-0.0021163553
-0.002163599
-0.0022598065
-0.0024720021
-0.0029765398
-0.0040066343
-0.0038171479
-0.0018668249
0.0063474269
0.0056150752
0.0054748865
0.0052861961
0.0049532521
0.0043167324
0.0029668748
0.0001606386
-0.0014149857
0.014076864
0.013417597
0.013204324
0.013014276
0.012750904
0.012363466
0.011768953
0.010805656
0.0090750456
0.0067793104
0.0070825795
0.0069525762
0.0067537004
0.0064991565
0.0061899889
0.0058046638
0.0053075445
0.0046808054
0.0039479831
0.0033329801
0.0031213843
0.0029062076
0.0025997498
0.0022553983
0.0019052571
0.0015473077
0.0011641679
0.00075420251
0.00035984556
0.00010421871
-0.00025659401
-0.00071919859
-0.0012260577
-0.0017011496
-0.0021085021
-0.0024422388
-0.0027186335
-0.0029424969
-0.0031014888
-0.0031746418
-0.0029093695
-0.0039844695
-0.0048957468
-0.0055422801
-0.0060196051
-0.0063353853
-0.0065198632
-0.0065816629
-0.0065186074
-0.0063777418
-0.0037916677
-0.0060936161
-0.0079477615
-0.0087875235
-0.0093073228
-0.0095918458
-0.0096901781
-0.00959059
-0.009206072
-0.0084558634
0.00072062406
-0.00054028808
-0.0036612364
-0.0045666336
-0.0050090617
-0.0052166174
-0.0052412067
-0.0050126963
-0.00410648
-0.00056405647
0.0016749087
0.0018643951
0.00062449248
0.00033390495
0.00021449047
0.00016348706
0.00016572177
0.00025739743
0.00066586088
0.0026190131
-0.0087319829
-0.0018446408
-0.0023121535
-0.0023638476
-0.0024255554
-0.0025491055
-0.0028203435
-0.0034715391
-0.0048447861
-0.0045698413
-0.0015145294
0.0081152148
0.0072455246
0.0070605297
0.0068143665
0.0063849659
0.0055682893
0.0038325917
0.00015456426
-0.0017409506
0.017301568
0.016522758
0.016246883
0.015996644
0.01565407
0.015152946
0.014386446
0.013150389
0.010923187
0.0080548353
0.00871832
0.008548217
0.0082871619
0.007955404
0.0075546599
0.0070568106
0.0064156656
0.0056091436
0.0046619879
0.0038718041
0.0036541855
0.0033762987
0.0029786217
0.0025326003
0.0020800282
0.0016182103
0.0011249801
0.00059895119
9.3565199e-05
-0.00023326786
-0.00076140733
-0.0013535895
-0.0020074846
-0.0026212142
-0.0031464789
-0.0035762623
-0.0039310065
-0.0042164388
-0.0044170871
-0.0045076572
-0.0043571046
-0.0057407551
-0.0069094788
-0.0077433112
-0.0083571458
-0.0087625703
-0.0089973223
-0.0090715327
-0.008982143
-0.0087926971
-0.005774536
-0.0088111998
-0.011188261
-0.012274459
-0.012941939
-0.013305874
-0.013428019
-0.013290694
-0.012773083
-0.011738919
0.00036923046
-0.0012782229
-0.0052043118
-0.0063737771
-0.0069416513
-0.0072059961
-0.0072328697
-0.0069271605
-0.0056810941
-0.00021039695
0.0021347054
0.0024096501
0.00087102882
0.00049741585
0.00034423962
0.00027952714
0.00028385952
0.00040582435
0.00097330229
0.0040529558
-0.0097885149
-0.0019632
-0.0024998748
-0.0025652461
-0.0026415997
-0.0027917191
-0.003119807
-0.0039119241
-0.0056170938
-0.0052614389
-0.0010938943
0.0098390659
0.0088259203
0.0085924328
0.0082886778
0.0077656547
0.0067757453
0.0046701802
0.00015195477
-0.0020446965
0.020316693
0.019413624
0.01907006
0.018757625
0.018336677
0.017725316
0.016793534
0.015296783
0.01259366
0.0091856243
0.010174677
0.0099620893
0.0096374342
0.0092287071
0.0087382462
0.0081313855
0.0073516841
0.0063732134
0.0052209848
0.0042653595
0.0040238345
0.0036841249
0.0031970564
0.0026518156
0.0020997348
0.0015375115
0.00093840336
0.00030138692
-0.00030987083
-0.00070396185
-0.0014214209
-0.0021387319
-0.0029343535
-0.0036818755
-0.0043209156
-0.0048432069
-0.0052730618
-0.0056169599
-0.0058565449
-0.0059626092
-0.0059639358
-0.0076442433
-0.0090594103
-0.010072776
-0.010817582
-0.0113089
-0.011591335
-0.011676174
-0.011559621
-0.01132193
-0.0079395966
-0.011685527
-0.014563387
-0.015885401
-0.016694086
-0.017133675
-0.017277569
-0.017101961
-0.016455065
-0.01515305
-0.00023903359
-0.0022633058
-0.0069539103
-0.0083744646
-0.0090617642
-0.0093798134
-0.0094074135
-0.009025569
-0.0074585026
-8.670283e-05
0.0024900138
0.0028456686
0.0010255796
0.00057364513
0.00038849608
0.00031091778
0.00031778651
0.00046937856
0.0011857966
0.0053839118
-0.010718125
-0.0020275381
-0.0026326516
-0.0027124163
-0.0028033508
-0.0029790576
-0.0033614039
-0.004288005
-0.0063122142
-0.005888445
-0.00059062888
0.011537582
0.010380402
0.01009654
0.0097358083
0.0091225899
0.0079673393
0.0055094922
0.00018700003
-0.0023064827
0.023145184
0.022117867
0.021704142
0.021328728
0.020830896
0.020113284
0.019023568
0.017278966
0.014122947
0.010204789
0.011483299
0.01122725
0.010838706
0.010354004
0.0097762153
0.0090643066
0.0081519592
0.0070096824
0.0056622261
0.0045500693
0.0042646738
0.0038647118
0.0032907239
0.0026492677
0.0020010267
0.0013421641
0.00064156748
-0.0001013958
-0.00081351401
-0.0012713164
-0.0021947253
-0.0030318049
-0.0039631943
-0.0048391328
-0.0055874504
-0.006198592
-0.0067005157
-0.0071003987
-0.0073772114
-0.0074978989
-0.0076743958
-0.0096378168
-0.011287493
-0.012472135
-0.013342118
-0.013915695
-0.014243924
-0.014339177
-0.014197012
-0.013913398
-0.010214424
-0.01464064
-0.017994763
-0.01954126
-0.020484496
-0.020996342
-0.021161192
-0.02094943
-0.020180465
-0.018627242
-0.0010369755
-0.0034376355
-0.0088529504
-0.010511813
-0.011312563
-0.011681733
-0.011710064
-0.011255954
-0.0093878759
-0.00018673713
0.0027585187
0.0031822879
0.001096197
0.00057018239
0.00035475906
0.00026498077
0.00027430075
0.00045405681
0.0013097829
0.0065881493
-0.011517583
-0.0020372836
-0.0027088437
-0.0028032885
-0.0029085332
-0.003108676
-0.0035423973
-0.0045963432
-0.0069247685
-0.006446808
-1.3358573e-06
0.013211774
0.011913045
0.011578196
0.011161786
0.010462355
0.0091504525
0.006359529
0.00027328553
-0.0025139757
0.025793495
0.024644487
0.024159917
0.023721823
0.023149302
0.022330016
0.021090368
0.019111609
0.015527868
0.011129888
0.012663976
0.012364442
0.011912717
0.011353827
0.010691703
0.0098792153
0.008840617
0.0075431032
0.0060108812
0.0047510905
0.0044042403
0.003946159
0.0032883988
0.0025543521
0.0018137871
0.0010624062
0.00026495185
-0.00057881565
-0.001386744
-0.001904857
-0.0030451725
-0.0039959687
-0.0050565057
-0.0060549033
-0.0069075913
-0.0076037386
-0.0081747472
-0.0086284668
-0.0089413507
-0.0090763897
-0.0094424488
-0.01167395
-0.013545275
-0.014892356
-0.015881387
-0.016533578
-0.016906115
-0.0170125
-0.016847752
-0.016522112
-0.012545674
-0.01761923
-0.021422841
-0.02318173
-0.024252576
-0.024833426
-0.02501918
-0.024775063
-0.023893854
-0.022107809
-0.001981921
-0.0047576181
-0.010855426
-0.012739339
-0.013647438
-0.01406538
-0.014095361
-0.013574992
-0.011428107
-0.00048865447
0.0029501304
0.0034280909
0.0010919562
0.00049610434
0.00025209579
0.00015069565
0.00016206981
0.00036778962
0.0013527665
0.0076607577
-0.012186127
-0.0019946906
-0.0027298713
-0.0028390016
-0.0029581198
-0.0031813849
-0.003663317
-0.0048367664
-0.0074526885
-0.006934165
0.00066939952
0.014853783
0.013417999
0.013032438
0.012562224
0.011781112
0.010322057
0.0072189577
0.00041393604
-0.0026618791
0.02825899
0.026992523
0.026437645
0.025938024
0.025293663
0.024377882
0.02299702
0.020798808
0.016814656
0.011969229
0.013727801
0.013385428
0.012872025
0.012241446
0.011498578
0.010590523
0.0094326248
0.0079890231
0.0062832355
0.0048851457
0.0044627976
0.0039492227
0.0032114716
0.0023890807
0.0015605484
0.00072118537
-0.0001681602
-0.0011073288
-0.0020057953
-0.0025807536
-0.0039438912
-0.005001687
-0.0061840581
-0.0072983297
-0.008250011
-0.0090270383
-0.0096640515
-0.010169538
-0.010517533
-0.010666887
-0.01123104
-0.013714113
-0.015793195
-0.017293186
-0.018394695
-0.019121701
-0.019537194
-0.019655872
-0.019472283
-0.019109303
-0.014891387
-0.020575444
-0.024799507
-0.026757808
-0.027948897
-0.028595443
-0.028802378
-0.028530531
-0.027548297
-0.02554927
-0.0030418101
-0.006187908
-0.012922647
-0.015017488
-0.016026524
-0.016490912
-0.016523874
-0.015944343
-0.013542612
-0.00096773626
0.0030718824
0.003590406
0.001021339
0.00036012094
8.9279148e-05
-2.3184621e-05
-1.0290049e-05
0.00021880196
0.0013223947
0.0086020527
-0.012725067
-0.0019036417
-0.0026989445
-0.0028225523
-0.0029549681
-0.0031998886
-0.0037265948
-0.005011027
-0.0078959314
-0.0073497275
0.0014117398
0.016450924
0.014884163
0.014448852
0.013927208
0.013069475
0.011473571
0.0080808853
0.00060628896
-0.0027498596
0.030533883
0.029155517
0.028531811
0.027972522
0.027259759
0.026253263
0.024740653
0.022338775
0.017983617
0.01272545
0.014679859
0.014295823
0.013722904
0.013023771
0.01220433
0.01120628
0.0099366425
0.0083567839
0.0064894537
0.0049630132
0.0044546394
0.0038886349
0.0030752621
0.0021693767
0.0012577709
0.00033542742
-0.00064042027
-0.0016691967
-0.0026525697
-0.003280717
-0.0048682607
-0.0060257006
-0.0073218969
-0.0085448067
-0.0095895848
-0.010442998
-0.0111427
-0.011697762
-0.01207987
-0.012243535
-0.013010088
-0.015726796
-0.017998677
-0.019641284
-0.020848173
-0.021645908
-0.022102937
-0.02223519
-0.022036763
-0.021641465
-0.017216925
-0.02347093
-0.028084208
-0.030227967
-0.031531397
-0.032240116
-0.032468567
-0.032173942
-0.031102567
-0.028911396
-0.0041898935
-0.0076979441
-0.015020638
-0.01731127
-0.018414409
-0.01892279
-0.018960182
-0.018329065
-0.015697636
-0.0015993792
0.0031296852
0.0036758892
0.00089225285
0.00017044467
-0.00012537412
-0.00024832019
-0.00023448432
1.5212057e-05
0.0012262966
0.0094140497
-0.013137296
-0.0017690399
-0.0026203711
-0.0027580658
-0.0029030806
-0.0031680476
-0.0037358357
-0.0051220987
-0.0082558114
-0.0076938911
0.0022125872
0.017987975
0.016297704
0.015814197
0.015243946
0.014315146
0.012593472
0.0089353793
0.00084431898
-0.0027808007
0.032607716
0.031124177
0.030433938
0.029817456
0.029040278
0.027949429
0.026315273
0.023726588
0.019031794
0.013397831
0.015521373
0.015097308
0.014467614
0.013703649
0.012812363
0.011730452
0.010357265
0.0086517
0.0066356935
0.0049915036
0.0043897192
0.0037747465
0.0028906688
0.0019067189
0.00091747252
-8.2353877e-05
-0.0011388365
-0.0022509581
-0.0033131667
-0.0039905899
-0.0058003931
-0.0070495257
-0.0084508669
-0.0097745313
-0.010905965
-0.01183084
-0.01258958
-0.013191769
-0.013606804
-0.013784699
-0.014754597
-0.017685674
-0.020134364
-0.021908514
-0.023213117
-0.024077118
-0.024574046
-0.024721065
-0.024511817
-0.024089313
-0.019492579
-0.026272542
-0.031241732
-0.033556021
-0.034963303
-0.035730351
-0.035980527
-0.035668122
-0.034519747
-0.032157912
-0.0054023591
-0.0092600477
-0.017118539
-0.019588806
-0.020778735
-0.021328437
-0.021371665
-0.020696685
-0.017861454
-0.0023595184
0.0031290313
0.0036909516
0.00071228483
-6.5024041e-05
-0.00038384177
-0.00051663951
-0.00050243829
-0.00023497058
0.0010721187
0.010099653
-0.013426914
-0.0015964181
-0.002499141
-0.0026503657
-0.002807169
-0.0030904436
-0.0036953896
-0.0051737629
-0.0085346082
-0.0079679225
0.0030569423
0.019448601
0.017643555
0.017113945
0.016498321
0.015504473
0.013668814
0.0097709414
0.0011200463
-0.0027595917
0.034469005
0.032888083
0.032134348
0.031463718
0.030626623
0.029458331
0.027713535
0.024955905
0.019954628
0.013983822
0.016251307
0.015789265
0.015106074
0.014281539
0.013323666
0.012164582
0.010696653
0.0088766417
0.0067256373
0.0049749266
0.0042750871
0.0036149702
0.0026656151
0.0016095828
0.00054865766
-0.00052265122
-0.0016534011
-0.0028421038
-0.0039766078
-0.0046991124
-0.0067257673
-0.0080580981
-0.0095552746
-0.010971186
-0.012182288
-0.013173245
-0.013986981
-0.014633514
-0.015080018
-0.015271918
-0.016443233
-0.019568212
-0.022176765
-0.024070638
-0.025464705
-0.02639009
-0.026924973
-0.027087735
-0.026871542
-0.026426907
-0.021692117
-0.028950945
-0.034240885
-0.036709851
-0.038211901
-0.039033058
-0.039304937
-0.038979626
-0.03776641
-0.035255768
-0.0066571814
-0.010848421
-0.019187715
-0.021820503
-0.02308943
-0.023677512
-0.023727834
-0.023016683
-0.020003976
-0.0032245427
0.0030752945
0.0036419802
0.00048886915
-0.00033855704
-0.00067827128
-0.00082022679
-0.00080620513
-0.00052380359
0.00086755641
0.010662485
-0.013598955
-0.001391675
-0.0023406569
-0.0025046995
-0.0026723781
-0.0029721041
-0.003610079
-0.0051703446
-0.0087353154
-0.0081737394
0.0039288274
0.020816275
0.018906355
0.01833324
0.01767586
0.016623401
0.014686181
0.010575424
0.0014244172
-0.0026923219
0.036106335
0.034436798
0.033623301
0.032902095
0.032010057
0.030771748
0.028927862
0.026020048
0.020747005
0.014480055
0.016867516
0.016369934
0.015637021
0.01475669
0.01373799
0.012508938
0.010955665
0.0090331309
0.0067615529
0.0049161212
0.0041159853
0.0034148784
0.0024061462
0.0012845311
0.00015839417
-0.00097790595
-0.0021760603
-0.0034340809
-0.0046338763
-0.0053969872
-0.0076321882
-0.0090387397
-0.010621868
-0.012120935
-0.013404192
-0.014455389
-0.015319668
-0.016007387
-0.016483591
-0.0166891
-0.018057325
-0.021354685
-0.024105302
-0.026106386
-0.027581109
-0.028562561
-0.029133107
-0.029312298
-0.029092808
-0.028630993
-0.023791921
-0.031479776
-0.037053685
-0.039660633
-0.041247797
-0.042118449
-0.042411721
-0.04207815
-0.040812112
-0.038174687
-0.0079335458
-0.012438638
-0.021201292
-0.023978631
-0.025318301
-0.025941537
-0.026000014
-0.025260232
-0.022096551
-0.0041712035
0.0029738558
0.0035354318
0.00022936301
-0.00064253474
-0.0010009248
-0.0011512753
-0.0011379306
-0.00084339906
0.00062035324
0.011106833
-0.013659191
-0.0011608904
-0.002150549
-0.0023265518
-0.002504098
-0.0028183158
-0.0034850148
-0.0051165315
-0.0088614661
-0.0083137569
0.004811925
0.022074888
0.020071067
0.019457518
0.018762348
0.017658095
0.015632288
0.011336625
0.0017478789
-0.0025857459
0.037509086
0.035760594
0.034891717
0.034124004
0.033182439
0.031882005
0.029951152
0.026912697
0.021403924
0.014882988
0.017367518
0.016837194
0.016058798
0.015127917
0.014054613
0.012763284
0.011134601
0.0091220664
0.006744999
0.0048171446
0.0039166137
0.0031789678
0.0021171901
0.0009369683
-0.00024744255
-0.0014417797
-0.0027000057
-0.0040196086
-0.0052772559
-0.0060762334
-0.0085090691
-0.0099804443
-0.011639129
-0.013211731
-0.014559141
-0.015664294
-0.016574251
-0.01729962
-0.01780343
-0.018021958
-0.019580227
-0.023027551
-0.025901697
-0.027996859
-0.029542915
-0.030574688
-0.031178241
-0.031374221
-0.031154798
-0.030680578
-0.025770483
-0.03383516
-0.039654892
-0.042382389
-0.044044494
-0.044959639
-0.045273673
-0.044936196
-0.043629103
-0.040886904
-0.0092115777
-0.014007416
-0.023133949
-0.026037124
-0.02743887
-0.028093749
-0.028161208
-0.027400106
-0.024111917
-0.0051766046
0.0028301455
0.0033778547
-5.8937727e-05
-0.00096943593
-0.001344174
-0.0015020876
-0.0014898597
-0.0011859412
0.00033827252
0.0114376
-0.01361397
-0.00091018874
-0.0019345405
-0.0021215104
-0.0023078307
-0.0026344911
-0.0033254637
-0.0050172438
-0.0089170067
-0.0083907783
0.0056900264
0.02320917
0.021123393
0.02047292
0.019744244
0.018595343
0.016494389
0.012042683
0.0020807656
-0.0024469268
0.038667894
0.036850911
0.035931643
0.035121951
0.034136675
0.032782422
0.030777222
0.027628318
0.021920925
0.015189327
0.017749003
0.017189068
0.016369855
0.0153941
0.014272839
0.012927358
0.011233675
0.0091441851
0.006677274
0.0046797132
0.0036806288
0.0029111578
0.0018030521
0.00057162912
-0.00066369002
-0.0019086862
-0.0032192205
-0.004592239
-0.0058999047
-0.0067297707
-0.009346972
-0.010873421
-0.012596827
-0.014232875
-0.015635992
-0.016788405
-0.017738786
-0.018497899
-0.019026896
-0.019257662
-0.020996933
-0.024571062
-0.027549593
-0.029725166
-0.031332765
-0.032408719
-0.033042258
-0.033255042
-0.033038733
-0.032556665
-0.027608131
-0.035995445
-0.042021754
-0.044851741
-0.046578155
-0.047532426
-0.047866265
-0.0475289
-0.046192174
-0.043367044
-0.010472243
-0.015532545
-0.024961853
-0.027971535
-0.029426325
-0.030109067
-0.030186089
-0.02941069
-0.026024232
-0.0062182663
0.0026496436
0.003175872
-0.00036881806
-0.0013118601
-0.0017005253
-0.001865104
-0.0018543696
-0.0015437252
2.9050462e-05
0.011660252
-0.013470096
-0.00064563569
-0.0016983462
-0.001895165
-0.0020890895
-0.0024260682
-0.0031367496
-0.0048775354
-0.0089062003
-0.0084079129
0.006547355
0.02420498
0.022050053
0.021366571
0.020608962
0.019422837
0.017260547
0.012682346
0.0024135633
-0.0022829939
0.039574946
0.037700652
0.036736537
0.035889809
0.034866997
0.033467589
0.031401068
0.028162425
0.022294342
0.015396277
0.018010148
0.017424033
0.016569057
0.015554493
0.014392298
0.013001169
0.011253306
0.009100341
0.0065596885
0.0045054705
0.0034114504
0.0026150956
0.0014677167
0.00019287534
-0.0010856078
-0.0023735085
-0.0037282054
-0.0051460934
-0.0064956011
-0.0073511699
-0.010137335
-0.011708825
-0.01348575
-0.015174753
-0.016624742
-0.017817351
-0.01880254
-0.019591141
-0.0201426
-0.020384632
-0.022293855
-0.025971056
-0.029034346
-0.03127622
-0.032935174
-0.034048805
-0.034708964
-0.034938218
-0.034727731
-0.034242122
-0.029286903
-0.037941079
-0.044133886
-0.047047806
-0.048827504
-0.049815201
-0.050167564
-0.049833968
-0.048478614
-0.045592082
-0.011697348
-0.016992914
-0.026662688
-0.029759062
-0.031257559
-0.031964139
-0.032051049
-0.031268043
-0.027809164
-0.0072742408
0.0024378553
0.0029361427
-0.00069318282
-0.0016625674
-0.0020626615
-0.0022329466
-0.002224016
-0.0019092075
-0.00029966097
0.011780741
-0.013234724
-0.00037315659
-0.0014475932
-0.001653029
-0.0018533204
-0.0021984336
-0.0029241751
-0.0047025162
-0.0088335493
-0.008368512
0.0073688049
0.025049501
0.022838986
0.022126777
0.021345055
0.020129359
0.01791982
0.013245161
0.0027370973
-0.0021009738
0.040224151
0.038304342
0.037301427
0.036422985
0.035369122
0.033933518
0.031819028
0.028511729
0.022521452
0.01550169
0.018149799
0.017541208
0.016655868
0.015608903
0.014413119
0.012985169
0.01119428
0.0089916654
0.0063937225
0.0042961426
0.003112439
0.002294332
0.0011150204
-0.00019513501
-0.0015087133
-0.0028314403
-0.0042218269
-0.0056757158
-0.0070586011
-0.0079345143
-0.010872321
-0.012478603
-0.014297556
-0.016028697
-0.017516395
-0.018741811
-0.01975587
-0.020569386
-0.021140292
-0.021392434
-0.023458729
-0.027214853
-0.030342927
-0.032636642
-0.034336431
-0.035480917
-0.036164006
-0.036409052
-0.036206743
-0.035721631
-0.030790512
-0.039654573
-0.045973235
-0.04895215
-0.050773793
-0.051788924
-0.052158215
-0.051831661
-0.050468209
-0.047541364
-0.012869591
-0.018368585
-0.028215726
-0.031378624
-0.032911249
-0.033637423
-0.033734296
-0.032950001
-0.029443999
-0.0083232544
0.0022002754
0.0026653127
-0.0010251053
-0.0020145281
-0.0024234919
-0.0025984702
-0.002591586
-0.0022750619
-0.00064035572
0.011805434
-0.012915265
-9.8470741e-05
-0.001187756
-0.0014004753
-0.0016058395
-0.0019568587
-0.0026929591
-0.0044972887
-0.0087037313
-0.008276117
0.0081401215
0.025731386
0.023479482
0.022743156
0.021942351
0.02070491
0.018462396
0.0137216
0.0030426672
-0.0019076704
0.04061124
0.038658234
0.037623011
0.036718506
0.035640337
0.034177732
0.032028855
0.028674224
0.022600561
0.01550416
0.018167578
0.017540453
0.016630447
0.015557779
0.014336025
0.01288034
0.011057839
0.008819652
0.0061811086
0.0040536202
0.0027869883
0.0019524132
0.00074874183
-0.00058836012
-0.0019286976
-0.0032779051
-0.0046952396
-0.0061759999
-0.0075835692
-0.0084743321
-0.011544752
-0.013175431
-0.015024707
-0.016786914
-0.018302893
-0.019553456
-0.020590167
-0.021423741
-0.022010816
-0.022271739
-0.024480568
-0.028291213
-0.031463878
-0.033794722
-0.035524566
-0.036692817
-0.037394851
-0.037654679
-0.037462547
-0.036981677
-0.032104351
-0.04112051
-0.04752408
-0.050548803
-0.052400811
-0.053437133
-0.05382146
-0.053504829
-0.052143279
-0.049196653
-0.013972647
-0.019640889
-0.029601917
-0.032810953
-0.034367949
-0.035109285
-0.035215947
-0.034436283
-0.030907771
-0.0093448614
0.0019423461
0.0023699604
-0.001357879
-0.0023609739
-0.0027762047
-0.0029548158
-0.002950153
-0.0026342361
-0.00098573563
0.011741037
-0.012519313
0.00017296293
-0.00092410385
-0.0011426845
-0.0013517803
-0.0017064477
-0.0024481839
-0.004266894
-0.0085215436
-0.0081344148
0.0088480409
0.026240855
0.023962282
0.023206733
0.022392049
0.021140807
0.018879681
0.014103164
0.0033221482
-0.0017095764
0.040733812
0.038760341
0.03769969
0.036775054
0.035679538
0.034199295
0.032029754
0.028649214
0.022531045
0.015403057
0.018063931
0.017422417
0.016493698
0.015402264
0.014162372
0.012688234
0.010845718
0.0085861947
0.0059238706
0.0037799981
0.0024385678
0.001592923
0.0003726423
-0.00098283561
-0.0023413882
-0.0037085224
-0.0051438554
-0.0066421594
-0.0080655498
-0.0089655692
-0.012148073
-0.013792679
-0.015660441
-0.017442462
-0.018977095
-0.02024493
-0.021297841
-0.022146367
-0.022746098
-0.023014315
-0.025349665
-0.029190334
-0.032387308
-0.034740416
-0.036489347
-0.037674053
-0.038390784
-0.038664071
-0.038483755
-0.038010571
-0.033215526
-0.042325565
-0.048773058
-0.051824274
-0.053694906
-0.054745969
-0.055143162
-0.054838939
-0.053488718
-0.050542181
-0.014991251
-0.020792532
-0.030803991
-0.034038689
-0.035610188
-0.036362098
-0.036478136
-0.035708599
-0.032181378
-0.010319596
0.0016694144
0.0020565432
-0.0016850687
-0.0026954487
-0.0031143171
-0.0032954617
-0.0032931285
-0.0029800062
-0.00132877
0.011594515
-0.012054566
0.00043599114
-0.00066165589
-0.00088460008
-0.0010960499
-0.0014520939
-0.0021947512
-0.004016266
-0.0082918545
-0.0079471991
0.0094803997
0.026569765
0.024279642
0.023510002
0.022686775
0.021429744
0.019164367
0.014382444
0.0035680685
-0.0015128047
0.040591341
0.038610455
0.037531579
0.036592976
0.035487228
0.033998817
0.031822388
0.028437325
0.022313354
0.015198552
0.017840147
0.017188556
0.016247281
0.015144206
0.013894166
0.012410988
0.010560156
0.0082935988
0.0056243353
0.0034775882
0.0020707364
0.0012194958
-9.521645e-06
-0.001374663
-0.0027427396
-0.0041190985
-0.0055633354
-0.0070697223
-0.0084999622
-0.0094035841
-0.012676358
-0.01432441
-0.016198766
-0.01798925
-0.019532776
-0.020809845
-0.021872319
-0.022730485
-0.023339153
-0.023613034
-0.026057599
-0.029903857
-0.0331049
-0.035465349
-0.037222288
-0.038415973
-0.039142928
-0.03942805
-0.039260836
-0.03879847
-0.034112888
-0.043258543
-0.049709186
-0.052767576
-0.054645006
-0.055704203
-0.056111841
-0.055822111
-0.054492041
-0.051564701
-0.015911293
-0.021807692
-0.031806541
-0.035046466
-0.036622552
-0.037380328
-0.037505101
-0.036750748
-0.03324769
-0.011229115
0.0013866902
0.0017313457
-0.0020005587
-0.0030118562
-0.0034317234
-0.0036142708
-0.0036143106
-0.0033060267
-0.0016627506
0.011373023
-0.011528764
0.00068580446
-0.00040514307
-0.00063089112
-0.00084329181
-0.0011984415
-0.0019373431
-0.0037501913
-0.0080195597
-0.0077183349
0.010026223
0.026711655
0.024425376
0.023646976
0.022820632
0.021565835
0.019310474
0.014553174
0.0037736694
-0.0013230349
0.040185168
0.038210125
0.037120489
0.036174264
0.035065507
0.033578437
0.031408859
0.028040493
0.021949014
0.014891613
0.017498357
0.016841134
0.015893613
0.014786152
0.013534054
0.012051316
0.010203895
0.0079445779
0.0052851312
0.00314892
0.001687141
0.00083581539
-0.00039399971
-0.0017600118
-0.0031288352
-0.0045056296
-0.0059495938
-0.0074545344
-0.0088826048
-0.0097841529
-0.013124308
-0.014765385
-0.016634466
-0.018422032
-0.019964625
-0.021242791
-0.02230805
-0.023170382
-0.023784095
-0.024061882
-0.026597255
-0.030424879
-0.033609916
-0.035962824
-0.037716654
-0.038911728
-0.039644245
-0.039939307
-0.039786134
-0.039337397
-0.034787068
-0.043910393
-0.050323873
-0.053370239
-0.055242637
-0.05630325
-0.056718682
-0.056445139
-0.055143402
-0.052253523
-0.016719893
-0.022672109
-0.032596102
-0.035820988
-0.03739176
-0.038150606
-0.03828326
-0.037548696
-0.034091644
-0.012056329
0.0010992074
0.0014004322
-0.0022985955
-0.0033045014
-0.0037227363
-0.0039055334
-0.0039079274
-0.0036063752
-0.0019813415
0.011083835
-0.010949631
0.00091796934
-0.00015897591
-0.00038592009
-0.00059785324
-0.00094985405
-0.0016803896
-0.0034732735
-0.007709542
-0.007451727
0.010475793
0.026661775
0.024394891
0.023613206
0.022789224
0.021544642
0.019313386
0.014610269
0.0039329537
-0.0011454695
0.03951847
0.037562636
0.036469901
0.035522529
0.034418037
0.032941796
0.030792684
0.027461934
0.021440604
0.014484005
0.01704152
0.016383204
0.015435853
0.01433134
0.013085318
0.011612501
0.0097801633
0.0075422436
0.0049091809
0.0027967347
0.0012915099
0.000445609
-0.00077705375
-0.0021351247
-0.0034958933
-0.0048643083
-0.0062988043
-0.0077927658
-0.0092096606
-0.010103474
-0.013487262
-0.015111067
-0.016963101
-0.01873642
-0.020268255
-0.021539331
-0.022600514
-0.023461414
-0.024076141
-0.024355965
-0.026962828
-0.030747957
-0.033897201
-0.036227819
-0.037967459
-0.039156276
-0.039889541
-0.040192399
-0.040053868
-0.03962125
-0.0352305
-0.044274228
-0.050610932
-0.053626308
-0.055481914
-0.056537165
-0.056957541
-0.056701492
-0.055435614
-0.052600537
-0.017405472
-0.023373152
-0.03316121
-0.036351081
-0.037906719
-0.038661789
-0.03880127
-0.03809064
-0.034700315
-0.012785507
0.0008117889
0.0010696039
-0.0025738266
-0.0035681283
-0.0039821241
-0.0041640035
-0.0041686735
-0.0038755912
-0.0022786222
0.01073428
-0.010324812
0.0011284553
7.2783246e-05
-0.00015371524
-0.00036375806
-0.0007103857
-0.0014280392
-0.003189902
-0.0073666346