/*--------------------------------*- C++ -*----------------------------------*\
| =========                 |                                                 |
| \\      /  F ield         | OpenFOAM: The Open Source CFD Toolbox           |
|  \\    /   O peration     | Version:  v2106                                 |
|   \\  /    A nd           | Website:  www.openfoam.com                      |
|    \\/     M anipulation  |                                                 |
\*---------------------------------------------------------------------------*/
FoamFile
{
    version     2.0;
    format      ascii;
    arch        "LSB;label=32;scalar=64";
    class       volScalarField;
    location    "37.5";
    object      gradTz;
}
// * * * * * * * * * * * * * * * * * * * * * * * * * * * * * * * * * * * * * //

dimensions      [0 -1 0 1 0 0 0];

internalField   nonuniform List<scalar> 
4000
(
605.66057
605.65203
605.65752
605.65967
605.66084
605.66124
605.66101
605.66041
605.65992
605.66021
605.65203
605.65007
605.65493
605.65704
605.65818
605.65851
605.65815
605.65726
605.6563
605.65671
605.65752
605.65493
605.65971
605.66179
605.66288
605.66314
605.66264
605.66149
605.65999
605.65949
605.65967
605.65704
605.66179
605.66383
605.66486
605.66503
605.66441
605.66311
605.66143
605.66076
605.66084
605.65818
605.66288
605.66486
605.66582
605.66591
605.6652
605.66379
605.66199
605.66124
605.66124
605.65851
605.66314
605.66503
605.66591
605.66592
605.66514
605.66367
605.66181
605.66103
605.66101
605.65815
605.66264
605.66441
605.6652
605.66514
605.66432
605.66281
605.66094
605.66016
605.66041
605.65726
605.66149
605.66311
605.66379
605.66367
605.66281
605.6613
605.65946
605.65872
605.65992
605.6563
605.65999
605.66143
605.66199
605.66181
605.66094
605.65946
605.6577
605.65709
605.66021
605.65671
605.65949
605.66076
605.66124
605.66103
605.66016
605.65872
605.65709
605.65677
894.38656
894.37913
894.38512
894.3881
894.38971
894.39019
894.38973
894.38866
894.38782
894.38941
894.37913
894.37728
894.38294
894.38588
894.38745
894.38784
894.38718
894.38563
894.38387
894.38567
894.38512
894.38294
894.38852
894.39141
894.3929
894.39318
894.39231
894.3904
894.38785
894.38845
894.3881
894.38588
894.39141
894.39423
894.39564
894.39579
894.39475
894.39261
894.38977
894.3901
894.38971
894.38745
894.3929
894.39564
894.39694
894.39697
894.3958
894.3935
894.39049
894.39071
894.39019
894.38784
894.39318
894.39579
894.39697
894.3969
894.39563
894.39323
894.39014
894.39031
894.38973
894.38718
894.39231
894.39475
894.3958
894.39563
894.39429
894.39184
894.38874
894.38891
894.38866
894.38563
894.3904
894.39261
894.3935
894.39323
894.39184
894.3894
894.38635
894.38661
894.38782
894.38387
894.38785
894.38977
894.39049
894.39014
894.38874
894.38635
894.38347
894.38407
894.38941
894.38567
894.38845
894.3901
894.39071
894.39031
894.38891
894.38661
894.38407
894.38599
887.5609
887.55656
887.56138
887.564
887.56538
887.56568
887.56499
887.56355
887.56221
887.56434
887.55656
887.5559
887.56053
887.56312
887.56447
887.56468
887.5638
887.56188
887.55943
887.56161
887.56138
887.56053
887.56511
887.56765
887.56893
887.56902
887.56795
887.56568
887.56248
887.56363
887.564
887.56312
887.56765
887.57013
887.57131
887.57128
887.57004
887.56755
887.56406
887.56493
887.56538
887.56447
887.56893
887.57131
887.5724
887.57226
887.57088
887.56823
887.56459
887.56535
887.56568
887.56468
887.56902
887.57128
887.57226
887.57201
887.57054
887.5678
887.56407
887.56479
887.56499
887.5638
887.56795
887.57004
887.57088
887.57054
887.569
887.56622
887.56248
887.5632
887.56355
887.56188
887.56568
887.56755
887.56823
887.5678
887.56622
887.56344
887.55976
887.56059
887.56221
887.55943
887.56248
887.56406
887.56459
887.56407
887.56248
887.55976
887.55629
887.5576
887.56434
887.56161
887.56363
887.56493
887.56535
887.56479
887.5632
887.56059
887.5576
887.56151
880.51619
880.51246
880.51685
880.51918
880.52034
880.52044
880.51953
880.51777
880.51586
880.51746
880.51246
880.5119
880.5161
880.5184
880.51952
880.51954
880.51844
880.51623
880.51328
880.5151
880.51685
880.5161
880.52023
880.52247
880.52353
880.52343
880.52215
880.5196
880.51592
880.51681
880.51918
880.5184
880.52247
880.52465
880.52562
880.5254
880.52396
880.52119
880.51723
880.51786
880.52034
880.51952
880.52353
880.52562
880.52649
880.52616
880.52459
880.52167
880.51756
880.51808
880.52044
880.51954
880.52343
880.5254
880.52616
880.52573
880.52407
880.52106
880.51687
880.51735
880.51953
880.51844
880.52215
880.52396
880.52459
880.52407
880.52234
880.51929
880.51509
880.51557
880.51777
880.51623
880.5196
880.52119
880.52167
880.52106
880.51929
880.51626
880.51212
880.5127
880.51586
880.51328
880.51592
880.51723
880.51756
880.51687
880.51509
880.51212
880.50819
880.50926
880.51746
880.5151
880.51681
880.51786
880.51808
880.51735
880.51557
880.5127
880.50926
880.51358
873.26519
873.26184
873.26597
873.26808
873.26906
873.26898
873.26789
873.26593
873.26375
873.26497
873.26184
873.26141
873.26533
873.26741
873.26834
873.26818
873.26692
873.26452
873.26133
873.2628
873.26597
873.26533
873.26918
873.2712
873.27206
873.27179
873.27035
873.26763
873.26374
873.26434
873.26808
873.26741
873.2712
873.27315
873.27393
873.27355
873.27195
873.26902
873.26485
873.26521
873.26906
873.26834
873.27206
873.27393
873.27461
873.27412
873.2724
873.26932
873.26501
873.26527
873.26898
873.26818
873.27179
873.27355
873.27412
873.27354
873.27172
873.26856
873.26418
873.2644
873.26789
873.26692
873.27035
873.27195
873.2724
873.27172
873.26984
873.26665
873.26225
873.26248
873.26593
873.26452
873.26763
873.26902
873.26932
873.26856
873.26665
873.26347
873.25914
873.25946
873.26375
873.26133
873.26374
873.26485
873.26501
873.26418
873.26225
873.25914
873.25501
873.25579
873.26497
873.2628
873.26434
873.26521
873.26527
873.2644
873.26248
873.25946
873.25579
873.25993
865.82593
865.82296
865.82686
865.8288
865.82962
865.82941
865.82819
865.82609
865.82375
865.82469
865.82296
865.82268
865.82638
865.82828
865.82906
865.82876
865.82738
865.82487
865.82155
865.82271
865.82686
865.82638
865.82999
865.83184
865.83255
865.83215
865.83059
865.82777
865.82378
865.82412
865.8288
865.82828
865.83184
865.83361
865.83423
865.83373
865.83202
865.829
865.82475
865.82486
865.82962
865.82906
865.83255
865.83423
865.83477
865.83415
865.83233
865.82917
865.82478
865.8248
865.82941
865.82876
865.83215
865.83373
865.83415
865.83345
865.83153
865.8283
865.82384
865.82382
865.82819
865.82738
865.83059
865.83202
865.83233
865.83153
865.82956
865.82629
865.82182
865.82181
865.82609
865.82487
865.82777
865.829
865.82917
865.8283
865.82629
865.82303
865.81863
865.8187
865.82375
865.82155
865.82378
865.82475
865.82478
865.82384
865.82182
865.81863
865.81442
865.81492
865.82469
865.82271
865.82412
865.82486
865.8248
865.82382
865.82181
865.8187
865.81492
865.81872
858.21767
858.21507
858.21876
858.22055
858.22125
858.22093
858.21963
858.21745
858.21502
858.21571
858.21507
858.21496
858.21845
858.22019
858.22085
858.22046
858.21899
858.21643
858.21306
858.21393
858.21876
858.21845
858.22185
858.22354
858.22412
858.22363
858.222
858.21914
858.21514
858.21524
858.22055
858.22019
858.22354
858.22516
858.22566
858.22506
858.22329
858.22024
858.21599
858.21588
858.22125
858.22085
858.22412
858.22566
858.22608
858.22538
858.22349
858.22031
858.21593
858.21573
858.22093
858.22046
858.22363
858.22506
858.22538
858.22459
858.22262
858.21936
858.21492
858.21468
858.21963
858.21899
858.222
858.22329
858.22349
858.22262
858.22059
858.2173
858.21285
858.21261
858.21745
858.21643
858.21914
858.22024
858.22031
858.21936
858.2173
858.21402
858.20963
858.20948
858.21502
858.21306
858.21514
858.21599
858.21593
858.21492
858.21285
858.20963
858.20541
858.20566
858.21571
858.21393
858.21524
858.21588
858.21573
858.21468
858.21261
858.20948
858.20566
858.20907
850.46065
850.45845
850.46191
850.46356
850.46416
850.46376
850.46241
850.46021
850.45773
850.4582
850.45845
850.4585
850.46177
850.46337
850.46392
850.46346
850.46195
850.45938
850.45602
850.45663
850.46191
850.46177
850.46495
850.4665
850.46698
850.46642
850.46476
850.46191
850.45796
850.45785
850.46356
850.46337
850.4665
850.46798
850.46839
850.46772
850.46593
850.4629
850.45871
850.4584
850.46416
850.46392
850.46698
850.46839
850.46871
850.46795
850.46604
850.46289
850.45858
850.45818
850.46376
850.46346
850.46642
850.46772
850.46795
850.4671
850.46512
850.4619
850.45752
850.45709
850.46241
850.46195
850.46476
850.46593
850.46604
850.46512
850.46308
850.45983
850.45544
850.45501
850.46021
850.45938
850.46191
850.4629
850.46289
850.4619
850.45983
850.45658
850.45224
850.45189
850.45773
850.45602
850.45796
850.45871
850.45858
850.45752
850.45544
850.45224
850.44807
850.44809
850.4582
850.45663
850.45785
850.4584
850.45818
850.45709
850.45501
850.45189
850.44809
850.45111
842.576
842.57419
842.57742
842.57893
842.57943
842.57898
842.57761
842.57542
842.57294
842.57321
842.57419
842.57439
842.57743
842.5789
842.57936
842.57885
842.57733
842.57479
842.57148
842.57185
842.57742
842.57743
842.58039
842.5818
842.5822
842.58159
842.57993
842.57714
842.57327
842.57297
842.57893
842.5789
842.5818
842.58315
842.58347
842.58277
842.58098
842.57802
842.57394
842.57345
842.57943
842.57936
842.5822
842.58347
842.58371
842.58292
842.58103
842.57795
842.57375
842.57318
842.57898
842.57885
842.58159
842.58277
842.58292
842.58204
842.58008
842.57693
842.57267
842.57207
842.57761
842.57733
842.57993
842.58098
842.58103
842.58008
842.57806
842.57488
842.57061
842.57002
842.57542
842.57479
842.57714
842.57802
842.57795
842.57693
842.57488
842.57171
842.56748
842.56695
842.57294
842.57148
842.57327
842.57394
842.57375
842.57267
842.57061
842.56748
842.5634
842.56321
842.57321
842.57185
842.57297
842.57345
842.57318
842.57207
842.57002
842.56695
842.56321
842.56584
834.58552
834.58409
834.58706
834.58844
834.58886
834.58837
834.587
834.58485
834.5824
834.58249
834.58409
834.58443
834.58723
834.58857
834.58894
834.58839
834.58689
834.58442
834.5812
834.58135
834.58706
834.58723
834.58994
834.59123
834.59154
834.5909
834.58927
834.58656
834.58283
834.58237
834.58844
834.58857
834.59123
834.59244
834.59269
834.59196
834.59021
834.58735
834.58341
834.58278
834.58886
834.58894
834.59154
834.59269
834.59285
834.59204
834.5902
834.58723
834.58318
834.58247
834.58837
834.58839
834.5909
834.59196
834.59204
834.59116
834.58924
834.5862
834.58211
834.58137
834.587
834.58689
834.58927
834.59021
834.5902
834.58924
834.58727
834.5842
834.58009
834.57936
834.58485
834.58442
834.58656
834.58735
834.58723
834.5862
834.5842
834.58114
834.57707
834.57639
834.5824
834.5812
834.58283
834.58341
834.58318
834.58211
834.58009
834.57707
834.57312
834.57275
834.58249
834.58135
834.58237
834.58278
834.58247
834.58137
834.57936
834.57639
834.57275
834.57499
826.51152
826.51047
826.51317
826.5144
826.51474
826.51422
826.51288
826.51079
826.5084
826.50832
826.51047
826.51093
826.51347
826.51466
826.51496
826.51439
826.51293
826.51055
826.50745
826.5074
826.51317
826.51347
826.51592
826.51707
826.51731
826.51666
826.51507
826.51248
826.50892
826.50831
826.5144
826.51466
826.51707
826.51815
826.51833
826.51759
826.5159
826.51316
826.50942
826.50865
826.51474
826.51496
826.51731
826.51833
826.51843
826.51762
826.51583
826.513
826.50915
826.50832
826.51422
826.51439
826.51666
826.51759
826.51762
826.51673
826.51489
826.51199
826.50809
826.50724
826.51288
826.51293
826.51507
826.5159
826.51583
826.51489
826.51299
826.51006
826.50615
826.5053
826.51079
826.51055
826.51248
826.51316
826.513
826.51199
826.51006
826.50714
826.50326
826.50245
826.5084
826.50745
826.50892
826.50942
826.50915
826.50809
826.50615
826.50326
826.49949
826.49895
826.50832
826.5074
826.50831
826.50865
826.50832
826.50724
826.5053
826.50245
826.49895
826.50082
818.37667
818.37597
818.37838
818.37947
818.37973
818.3792
818.3779
818.3759
818.3736
818.37336
818.37597
818.37654
818.3788
818.37985
818.38007
818.37949
818.37809
818.37582
818.37288
818.37264
818.37838
818.3788
818.38099
818.38199
818.38216
818.38151
818.37999
818.37754
818.37418
818.37345
818.37947
818.37985
818.38199
818.38294
818.38304
818.38231
818.3807
818.37812
818.37459
818.37373
818.37973
818.38007
818.38216
818.38304
818.38309
818.38229
818.38059
818.37792
818.3743
818.37338
818.3792
818.37949
818.38151
818.38231
818.38229
818.38142
818.37966
818.37693
818.37327
818.37232
818.3779
818.37809
818.37999
818.3807
818.38059
818.37966
818.37786
818.3751
818.37143
818.37047
818.3759
818.37582
818.37754
818.37812
818.37792
818.37693
818.3751
818.37234
818.36869
818.36778
818.3736
818.37288
818.37418
818.37459
818.3743
818.37327
818.37143
818.36869
818.36513
818.36446
818.37336
818.37264
818.37345
818.37373
818.37338
818.37232
818.37047
818.36778
818.36446
818.36597
810.20382
810.20348
810.20558
810.20652
810.2067
810.20616
810.20491
810.20302
810.20083
810.20047
810.20348
810.20413
810.2061
810.207
810.20715
810.20657
810.20523
810.20311
810.20034
810.19995
810.20558
810.2061
810.20801
810.20886
810.20896
810.20831
810.20688
810.20459
810.20146
810.20064
810.20652
810.207
810.20886
810.20966
810.20971
810.20899
810.20747
810.20506
810.20179
810.20085
810.2067
810.20715
810.20896
810.20971
810.20969
810.20891
810.20731
810.20483
810.20148
810.20048
810.20616
810.20657
810.20831
810.20899
810.20891
810.20807
810.20642
810.20389
810.20049
810.19947
810.20491
810.20523
810.20688
810.20747
810.20731
810.20642
810.20473
810.20217
810.19876
810.19773
810.20302
810.20311
810.20459
810.20506
810.20483
810.20389
810.20217
810.1996
810.19621
810.19522
810.20083
810.20034
810.20146
810.20179
810.20148
810.20049
810.19876
810.19621
810.1929
810.1921
810.20047
810.19995
810.20064
810.20085
810.20048
810.19947
810.19773
810.19522
810.1921
810.19326
802.01591
802.01589
802.01767
802.01845
802.01856
802.01802
802.01684
802.01508
802.01302
802.01254
802.01589
802.01661
802.01828
802.01903
802.0191
802.01852
802.01727
802.01531
802.01275
802.01221
802.01767
802.01828
802.01989
802.02059
802.02062
802.01999
802.01865
802.01654
802.01368
802.01278
802.01845
802.01903
802.02059
802.02125
802.02123
802.02053
802.01912
802.01691
802.01393
802.01292
802.01856
802.0191
802.02062
802.02123
802.02116
802.02041
802.01893
802.01665
802.0136
802.01255
802.01802
802.01852
802.01999
802.02053
802.02041
802.0196
802.01807
802.01576
802.01266
802.01159
802.01684
802.01727
802.01865
802.01912
802.01893
802.01807
802.01651
802.01416
802.01105
802.00998
802.01508
802.01531
802.01654
802.01691
802.01665
802.01576
802.01416
802.01181
802.00871
802.00766
802.01302
802.01275
802.01368
802.01393
802.0136
802.01266
802.01105
802.00871
802.00567
802.00479
802.01254
802.01221
802.01278
802.01292
802.01255
802.01159
802.00998
802.00766
802.00479
802.00562
793.83576
793.83604
793.83749
793.83811
793.83813
793.8376
793.83651
793.83489
793.83299
793.8324
793.83604
793.83681
793.83817
793.83875
793.83876
793.83819
793.83703
793.83525
793.83292
793.83226
793.83749
793.83817
793.83947
793.84001
793.83998
793.83937
793.83813
793.83623
793.83366
793.8327
793.83811
793.83875
793.84001
793.84052
793.84044
793.83977
793.83848
793.83649
793.83381
793.83277
793.83813
793.83876
793.83998
793.84044
793.84032
793.8396
793.83825
793.83621
793.83347
793.83239
793.8376
793.83819
793.83937
793.83977
793.8396
793.83884
793.83745
793.83537
793.83259
793.8315
793.83651
793.83703
793.83813
793.83848
793.83825
793.83745
793.83602
793.83392
793.83113
793.83003
793.83489
793.83525
793.83623
793.83649
793.83621
793.83537
793.83392
793.8318
793.82902
793.82794
793.83299
793.83292
793.83366
793.83381
793.83347
793.83259
793.83113
793.82902
793.82628
793.82532
793.8324
793.83226
793.8327
793.83277
793.83239
793.8315
793.83003
793.82794
793.82532
793.82584
785.68596
785.68653
785.68764
785.68808
785.68804
785.68752
785.68651
785.68505
785.68333
785.68266
785.68653
785.68733
785.68837
785.68879
785.68872
785.68817
785.68712
785.68553
785.68346
785.68269
785.68764
785.68837
785.68935
785.68974
785.68964
785.68905
785.68794
785.68626
785.68399
785.683
785.68808
785.68879
785.68974
785.69009
785.68995
785.68932
785.68816
785.68641
785.68406
785.683
785.68804
785.68872
785.68964
785.68995
785.68978
785.68911
785.6879
785.6861
785.6837
785.68262
785.68752
785.68817
785.68905
785.68932
785.68911
785.6884
785.68715
785.68533
785.6829
785.6818
785.68651
785.68712
785.68794
785.68816
785.6879
785.68715
785.68588
785.68403
785.68159
785.68048
785.68505
785.68553
785.68626
785.68641
785.6861
785.68533
785.68403
785.68217
785.67973
785.67863
785.68333
785.68346
785.68399
785.68406
785.6837
785.6829
785.68159
785.67973
785.67731
785.67631
785.68266
785.68269
785.683
785.683
785.68262
785.6818
785.68048
785.67863
785.67631
785.67653
777.58878
777.58961
777.59037
777.59065
777.59053
777.59002
777.58912
777.58783
777.5863
777.58556
777.58961
777.59043
777.59114
777.59139
777.59125
777.59072
777.58979
777.5884
777.58661
777.58576
777.59037
777.59114
777.5918
777.59202
777.59186
777.5913
777.59032
777.58887
777.58693
777.58593
777.59065
777.59139
777.59202
777.59222
777.59202
777.59143
777.59041
777.58892
777.58691
777.58586
777.59053
777.59125
777.59186
777.59202
777.5918
777.59118
777.59013
777.58859
777.58655
777.58548
777.59002
777.59072
777.5913
777.59143
777.59118
777.59053
777.58945
777.58789
777.58582
777.58474
777.58912
777.58979
777.59032
777.59041
777.59013
777.58945
777.58834
777.58676
777.58468
777.5836
777.58783
777.5884
777.58887
777.58892
777.58859
777.58789
777.58676
777.58517
777.58309
777.582
777.5863
777.58661
777.58693
777.58691
777.58655
777.58582
777.58468
777.58309
777.58102
777.57999
777.58556
777.58576
777.58593
777.58586
777.58548
777.58474
777.5836
777.582
777.57999
777.57993
769.56599
769.56707
769.56747
769.56758
769.56739
769.5669
769.56611
769.56501
769.56369
769.56289
769.56707
769.56789
769.56826
769.56834
769.56814
769.56764
769.56683
769.56567
769.56415
769.56324
769.56747
769.56826
769.5686
769.56866
769.56843
769.56791
769.56707
769.56587
769.56427
769.56328
769.56758
769.56834
769.56866
769.56869
769.56845
769.56791
769.56704
769.5658
769.56416
769.56314
769.56739
769.56814
769.56843
769.56845
769.56818
769.56762
769.56672
769.56546
769.5638
769.56277
769.5669
769.56764
769.56791
769.56791
769.56762
769.56703
769.56611
769.56484
769.56316
769.56211
769.56611
769.56683
769.56707
769.56704
769.56672
769.56611
769.56518
769.56389
769.5622
769.56114
769.56501
769.56567
769.56587
769.5658
769.56546
769.56484
769.56389
769.56258
769.56088
769.55982
769.56369
769.56415
769.56427
769.56416
769.5638
769.56316
769.5622
769.56088
769.55918
769.55814
769.56289
769.56324
769.56328
769.56314
769.56277
769.56211
769.56114
769.55982
769.55814
769.55783
761.63882
761.64011
761.64016
761.64009
761.63983
761.63937
761.6387
761.6378
761.63669
761.63586
761.64011
761.64091
761.64095
761.64086
761.6406
761.64013
761.63945
761.63852
761.63731
761.63635
761.64016
761.64095
761.64096
761.64086
761.64058
761.6401
761.6394
761.63846
761.63722
761.63625
761.64009
761.64086
761.64086
761.64074
761.64044
761.63995
761.63924
761.63828
761.63702
761.63605
761.63983
761.6406
761.64058
761.64044
761.64013
761.63963
761.6389
761.63793
761.63666
761.63568
761.63937
761.64013
761.6401
761.63995
761.63963
761.63911
761.63837
761.63739
761.63611
761.63512
761.6387
761.63945
761.6394
761.63924
761.6389
761.63837
761.63762
761.63662
761.63533
761.63434
761.6378
761.63852
761.63846
761.63828
761.63793
761.63739
761.63662
761.63561
761.63431
761.6333
761.63669
761.63731
761.63722
761.63702
761.63666
761.63611
761.63533
761.63431
761.63298
761.63197
761.63586
761.63635
761.63625
761.63605
761.63568
761.63512
761.63434
761.6333
761.63197
761.63142
753.82777
753.82926
753.82895
753.82871
753.82838
753.82795
753.82741
753.82671
753.82583
753.82498
753.82926
753.83002
753.82973
753.82947
753.82914
753.82872
753.82817
753.82748
753.82659
753.8256
753.82895
753.82973
753.82941
753.82915
753.82881
753.82838
753.82784
753.82716
753.82629
753.82537
753.82871
753.82947
753.82915
753.82887
753.82853
753.8281
753.82755
753.82687
753.82601
753.82509
753.82838
753.82914
753.82881
753.82853
753.82818
753.82774
753.82719
753.82652
753.82565
753.82473
753.82795
753.82872
753.82838
753.8281
753.82774
753.8273
753.82675
753.82606
753.82519
753.82427
753.82741
753.82817
753.82784
753.82755
753.82719
753.82675
753.82618
753.82549
753.82461
753.82369
753.82671
753.82748
753.82716
753.82687
753.82652
753.82606
753.82549
753.82479
753.82389
753.82295
753.82583
753.82659
753.82629
753.82601
753.82565
753.82519
753.82461
753.82389
753.82295
753.82198
753.82498
753.8256
753.82537
753.82509
753.82473
753.82427
753.82369
753.82295
753.82198
753.82121
746.15258
746.15424
746.15358
746.15317
746.15278
746.15239
746.15197
746.15148
746.15085
746.14999
746.15424
746.15497
746.15433
746.15392
746.15353
746.15314
746.15274
746.1523
746.15173
746.15073
746.15358
746.15433
746.1537
746.15327
746.15288
746.1525
746.15212
746.15171
746.15122
746.15036
746.15317
746.15392
746.15327
746.15285
746.15246
746.15209
746.15171
746.15132
746.15085
746.15002
746.15278
746.15353
746.15288
746.15246
746.15208
746.15171
746.15134
746.15096
746.1505
746.14968
746.15239
746.15314
746.1525
746.15209
746.15171
746.15134
746.15098
746.1506
746.15014
746.14932
746.15197
746.15274
746.15212
746.15171
746.15134
746.15098
746.15061
746.15023
746.14977
746.14893
746.15148
746.1523
746.15171
746.15132
746.15096
746.1506
746.15023
746.14984
746.14935
746.1485
746.15085
746.15173
746.15122
746.15085
746.1505
746.15014
746.14977
746.14935
746.14882
746.1479
746.14999
746.15073
746.15036
746.15002
746.14968
746.14932
746.14893
746.1485
746.1479
746.14694
738.63213
738.63393
738.63292
738.63235
738.6319
738.63155
738.63126
738.63099
738.63061
738.62976
738.63393
738.6346
738.63364
738.63306
738.63262
738.63228
738.63202
738.63183
738.63159
738.63061
738.63292
738.63364
738.63268
738.6321
738.63167
738.63134
738.63112
738.63099
738.63088
738.63009
738.63235
738.63306
738.6321
738.63153
738.6311
738.63079
738.63059
738.6305
738.63043
738.62969
738.6319
738.63262
738.63167
738.6311
738.63068
738.63039
738.63021
738.63014
738.63009
738.62937
738.63155
738.63228
738.63134
738.63079
738.63039
738.63011
738.62994
738.62987
738.62984
738.62912
738.63126
738.63202
738.63112
738.63059
738.63021
738.62994
738.62977
738.62971
738.62966
738.62894
738.63099
738.63183
738.63099
738.6305
738.63014
738.62987
738.62971
738.62963
738.62956
738.62881
738.63061
738.63159
738.63088
738.63043
738.63009
738.62984
738.62966
738.62956
738.62944
738.62859
738.62976
738.63061
738.63009
738.62969
738.62937
738.62912
738.62894
738.62881
738.62859
738.62746
731.28431
731.28624
731.28488
731.28414
731.28364
731.28333
731.28319
731.28314
731.28301
731.28218
731.28624
731.28683
731.28555
731.28482
731.28432
731.28403
731.28393
731.28399
731.28408
731.28312
731.28488
731.28555
731.28428
731.28356
731.28307
731.28281
731.28275
731.2829
731.28317
731.28248
731.28414
731.28482
731.28356
731.28284
731.28237
731.28213
731.28211
731.28231
731.28265
731.28202
731.28364
731.28432
731.28307
731.28237
731.28193
731.28171
731.28172
731.28195
731.28232
731.28172
731.28333
731.28403
731.28281
731.28213
731.28171
731.28151
731.28154
731.28179
731.28218
731.28158
731.28319
731.28393
731.28275
731.28211
731.28172
731.28154
731.28157
731.28183
731.28221
731.28161
731.28314
731.28399
731.2829
731.28231
731.28195
731.28179
731.28183
731.28207
731.28243
731.28179
731.28301
731.28408
731.28317
731.28265
731.28232
731.28218
731.28221
731.28243
731.28272
731.28196
731.28218
731.28312
731.28248
731.28202
731.28172
731.28158
731.28161
731.28179
731.28196
731.28068
724.12599
724.12803
724.12634
724.12544
724.12489
724.12463
724.12462
724.1248
724.12493
724.12413
724.12803
724.12854
724.12695
724.12606
724.12552
724.12528
724.12534
724.12566
724.12608
724.12516
724.12634
724.12695
724.12538
724.1245
724.12398
724.12378
724.12389
724.12432
724.12498
724.12438
724.12544
724.12606
724.1245
724.12365
724.12315
724.12298
724.12314
724.12364
724.12438
724.12387
724.12489
724.12552
724.12398
724.12315
724.12268
724.12254
724.12274
724.12328
724.12407
724.12359
724.12463
724.12528
724.12378
724.12298
724.12254
724.12244
724.12266
724.12322
724.12403
724.12356
724.12462
724.12534
724.12389
724.12314
724.12274
724.12266
724.1229
724.12347
724.12428
724.1238
724.1248
724.12566
724.12432
724.12364
724.12328
724.12322
724.12347
724.12403
724.12481
724.1243
724.12493
724.12608
724.12498
724.12438
724.12407
724.12403
724.12428
724.12481
724.12552
724.12486
724.12413
724.12516
724.12438
724.12387
724.12359
724.12356
724.1238
724.1243
724.12486
724.12345
717.17295
717.17507
717.17306
717.17202
717.17142
717.1712
717.17134
717.17174
717.17214
717.17138
717.17507
717.17549
717.1736
717.17257
717.17199
717.17181
717.17201
717.17259
717.17335
717.17248
717.17306
717.1736
717.17174
717.17073
717.17017
717.17003
717.17031
717.17102
717.17206
717.17158
717.17202
717.17257
717.17073
717.16974
717.16921
717.16912
717.16946
717.17025
717.1714
717.17101
717.17142
717.17199
717.17017
717.16921
717.16872
717.16867
717.16906
717.1699
717.17111
717.17076
717.1712
717.17181
717.17003
717.16912
717.16867
717.16865
717.16907
717.16995
717.17118
717.17085
717.17134
717.17201
717.17031
717.16946
717.16906
717.16907
717.16952
717.1704
717.17164
717.1713
717.17174
717.17259
717.17102
717.17025
717.1699
717.16995
717.1704
717.17128
717.17248
717.17211
717.17214
717.17335
717.17206
717.1714
717.17111
717.17118
717.17164
717.17248
717.1736
717.17306
717.17138
717.17248
717.17158
717.17101
717.17076
717.17085
717.1713
717.17211
717.17306
717.17155
710.43979
710.44197
710.43966
710.43847
710.43783
710.43767
710.43795
710.43858
710.43923
710.43853
710.44197
710.4423
710.44012
710.43895
710.43833
710.43821
710.43857
710.4394
710.44049
710.43969
710.43966
710.44012
710.43798
710.43684
710.43625
710.43618
710.43663
710.43761
710.43903
710.43867
710.43847
710.43895
710.43684
710.43572
710.43518
710.43516
710.43568
710.43676
710.4383
710.43806
710.43783
710.43833
710.43625
710.43518
710.43467
710.4347
710.43528
710.43642
710.43803
710.43784
710.43767
710.43821
710.43618
710.43516
710.4347
710.43478
710.43539
710.43658
710.43822
710.43804
710.43795
710.43857
710.43663
710.43568
710.43528
710.43539
710.43604
710.43724
710.43889
710.4387
710.43858
710.4394
710.43761
710.43676
710.43642
710.43658
710.43724
710.43843
710.44005
710.43982
710.43923
710.44049
710.43903
710.4383
710.43803
710.43822
710.43889
710.44005
710.44157
710.44115
710.43853
710.43969
710.43867
710.43806
710.43784
710.43804
710.4387
710.43982
710.44115
710.43956
703.93989
703.94211
703.9395
703.93818
703.93751
703.9374
703.93783
703.93868
703.93959
703.93895
703.94211
703.94233
703.93988
703.93859
703.93793
703.93788
703.93839
703.93948
703.94089
703.94017
703.9395
703.93988
703.93749
703.93622
703.93561
703.9356
703.93622
703.93747
703.93926
703.93904
703.93818
703.93859
703.93622
703.93499
703.93442
703.93448
703.93518
703.93655
703.93848
703.93838
703.93751
703.93793
703.93561
703.93442
703.93391
703.93403
703.93479
703.93623
703.93824
703.9382
703.9374
703.93788
703.9356
703.93448
703.93403
703.93419
703.93501
703.93649
703.93854
703.93852
703.93783
703.93839
703.93622
703.93518
703.93479
703.93501
703.93586
703.93736
703.93941
703.93939
703.93868
703.93948
703.93747
703.93655
703.93623
703.93649
703.93736
703.93886
703.94088
703.94081
703.93959
703.94089
703.93926
703.93848
703.93824
703.93854
703.93941
703.94088
703.9428
703.94252
703.93895
703.94017
703.93904
703.93838
703.9382
703.93852
703.93939
703.94081
703.94252
703.94086
697.68536
697.6876
697.68472
697.68328
697.68257
697.68253
697.6831
697.68417
697.68534
697.68478
697.6876
697.68771
697.68501
697.6836
697.68292
697.68293
697.6836
697.68493
697.68667
697.68603
697.68472
697.68501
697.68237
697.68099
697.68036
697.68043
697.68121
697.68273
697.68488
697.6848
697.68328
697.6836
697.68099
697.67966
697.67908
697.67922
697.6801
697.68174
697.68405
697.6841
697.68257
697.68292
697.68036
697.67908
697.67856
697.67877
697.67972
697.68144
697.68384
697.68396
697.68253
697.68293
697.68043
697.67922
697.67877
697.67903
697.68004
697.68182
697.68425
697.6844
697.6831
697.6836
697.68121
697.6801
697.67972
697.68004
697.68108
697.68289
697.68533
697.68547
697.68417
697.68493
697.68273
697.68174
697.68144
697.68182
697.68289
697.68469
697.6871
697.68719
697.68534
697.68667
697.68488
697.68405
697.68384
697.68425
697.68533
697.6871
697.68941
697.68927
697.68478
697.68603
697.6848
697.6841
697.68396
697.6844
697.68547
697.68719
697.68927
697.68757
691.68699
691.68924
691.68611
691.68456
691.68383
691.68385
691.68457
691.68586
691.68727
691.68679
691.68924
691.68925
691.68631
691.68479
691.6841
691.68417
691.685
691.68657
691.68862
691.68808
691.68611
691.68631
691.68344
691.68196
691.68132
691.68147
691.68241
691.68419
691.68669
691.68675
691.68456
691.68479
691.68196
691.68054
691.67995
691.68018
691.68123
691.68314
691.68581
691.68603
691.68383
691.6841
691.68132
691.67995
691.67943
691.67973
691.68087
691.68287
691.68564
691.68592
691.68385
691.68417
691.68147
691.68018
691.67973
691.6801
691.68129
691.68336
691.68617
691.68648
691.68457
691.685
691.68241
691.68123
691.68087
691.68129
691.68253
691.68463
691.68745
691.68776
691.68586
691.68657
691.68419
691.68314
691.68287
691.68336
691.68463
691.68672
691.68951
691.68977
691.68727
691.68862
691.68669
691.68581
691.68564
691.68617
691.68745
691.68951
691.6922
691.69221
691.68679
691.68808
691.68675
691.68603
691.68592
691.68648
691.68776
691.68977
691.69221
691.69048
685.95425
685.95648
685.95313
685.95148
685.95074
685.95083
685.95169
685.95319
685.95486
685.95447
685.95648
685.95638
685.95323
685.95162
685.95092
685.95107
685.95205
685.95386
685.95621
685.95578
685.95313
685.95323
685.95016
685.9486
685.94795
685.94818
685.94929
685.95132
685.95415
685.95437
685.95148
685.95162
685.9486
685.94709
685.94651
685.94682
685.94805
685.95022
685.95325
685.95362
685.95074
685.95092