/*--------------------------------*- C++ -*----------------------------------*\
| =========                 |                                                 |
| \\      /  F ield         | OpenFOAM: The Open Source CFD Toolbox           |
|  \\    /   O peration     | Version:  v2106                                 |
|   \\  /    A nd           | Website:  www.openfoam.com                      |
|    \\/     M anipulation  |                                                 |
\*---------------------------------------------------------------------------*/
FoamFile
{
    version     2.0;
    format      ascii;
    arch        "LSB;label=32;scalar=64";
    class       volVectorField;
    location    "37.5";
    object      gradT;
}
// * * * * * * * * * * * * * * * * * * * * * * * * * * * * * * * * * * * * * //

dimensions      [0 -1 0 1 0 0 0];

internalField   nonuniform List<vector> 
4000
(
(-0.0012924039 -0.0012924039 605.66057)
(-0.00074016316 -0.00024273328 605.65203)
(0.0016081267 -0.0003606564 605.65752)
(0.00063425988 -0.00036553092 605.65967)
(0.0003018185 -0.00036933808 605.66084)
(3.7014528e-05 -0.00037739354 605.66124)
(-0.00015020344 -0.00039457842 605.66101)
(-0.00020538193 -0.00043047181 605.66041)
(-7.7115569e-05 -0.00048835175 605.65992)
(1.2193974e-05 -0.00050140107 605.66021)
(-0.00024273328 -0.00074016316 605.65203)
(0.00065745814 0.00065745814 605.65007)
(0.0014239302 0.0004668981 605.65493)
(0.00062123736 0.00045411633 605.65704)
(0.00028402457 0.00043917362 605.65818)
(-8.4597871e-07 0.00041195646 605.65851)
(-0.00022982084 0.0003602568 605.65815)
(-0.00034604193 0.00025753132 605.65726)
(-0.00018350946 7.0289453e-05 605.6563)
(-8.5534377e-07 -0.0001286442 605.65671)
(-0.0003606564 0.0016081267 605.65752)
(0.00046689811 0.0014239302 605.65493)
(0.0014047849 0.0014047849 605.65971)
(0.0006065354 0.0013909772 605.66179)
(0.00025965863 0.0013701385 605.66288)
(-4.1902299e-05 0.0013390559 605.66314)
(-0.00030462858 0.0012910204 605.66264)
(-0.00049534928 0.0012127814 605.66149)
(-0.00046329109 0.0010780875 605.65999)
(-0.00012042846 0.00087003089 605.65949)
(-0.00036553092 0.00063425989 605.65967)
(0.00045411633 0.00062123736 605.65704)
(0.0013909772 0.0006065354 605.66179)
(0.00058659096 0.00058659096 605.66383)
(0.00023210333 0.00056182922 605.66486)
(-7.9964045e-05 0.00053082641 605.66503)
(-0.00035609534 0.00049078872 605.66441)
(-0.00055897484 0.00044033839 605.66311)
(-0.00052626002 0.00038431463 605.66143)
(-0.00013955975 0.00034073178 605.66076)
(-0.00036933808 0.00030181851 605.66084)
(0.00043917362 0.00028402457 605.65818)
(0.0013701385 0.00025965863 605.66288)
(0.00056182922 0.00023210332 605.66486)
(0.00020389408 0.00020389408 605.66582)
(-0.00011294279 0.00017499204 605.66591)
(-0.00039511661 0.00014390237 605.6652)
(-0.00060182337 0.00011024493 605.66379)
(-0.0005628977 7.7592222e-05 605.66199)
(-0.00014948369 5.5983478e-05 605.66124)
(-0.00037739354 3.7014531e-05 605.66124)
(0.00041195645 -8.4597987e-07 605.65851)
(0.0013390559 -4.1902298e-05 605.66314)
(0.00053082642 -7.9964048e-05 605.66503)
(0.00017499204 -0.00011294279 605.66591)
(-0.00013995576 -0.00013995576 605.66592)
(-0.00042084245 -0.00016248877 605.66514)
(-0.00062528499 -0.00018105187 605.66367)
(-0.00058052147 -0.00019478404 605.66181)
(-0.00015396558 -0.00020200567 605.66103)
(-0.00039457842 -0.00015020345 605.66101)
(0.00036025679 -0.00022982085 605.65815)
(0.0012910204 -0.00030462858 605.66264)
(0.00049078872 -0.00035609533 605.66441)
(0.00014390237 -0.00039511661 605.6652)
(-0.00016248877 -0.00042084245 605.66514)
(-0.00043621271 -0.00043621272 605.66432)
(-0.00063411864 -0.00044234618 605.66281)
(-0.0005838515 -0.00044000388 605.66094)
(-0.00015429812 -0.00043351266 605.66016)
(-0.00043047181 -0.00020538194 605.66041)
(0.00025753132 -0.00034604194 605.65726)
(0.0012127815 -0.00049534928 605.66149)
(0.00044033839 -0.00055897484 605.66311)
(0.00011024492 -0.00060182337 605.66379)
(-0.00018105187 -0.00062528499 605.66367)
(-0.00044234617 -0.00063411863 605.66281)
(-0.00062907616 -0.00062907615 605.6613)
(-0.00057168796 -0.00060932417 605.65946)
(-0.0001496381 -0.00058209561 605.65872)
(-0.00048835176 -7.7115565e-05 605.65992)
(7.0289454e-05 -0.00018350946 605.6563)
(0.0010780875 -0.00046329109 605.65999)
(0.00038431463 -0.00052626002 605.66143)
(7.7592218e-05 -0.0005628977 605.66199)
(-0.00019478403 -0.00058052147 605.66181)
(-0.00044000388 -0.0005838515 605.66094)
(-0.00060932417 -0.00057168796 605.65946)
(-0.00053687096 -0.00053687095 605.6577)
(-0.00013614575 -0.00047820702 605.65709)
(-0.00050140108 1.2193976e-05 605.66021)
(-0.0001286442 -8.5534383e-07 605.65671)
(0.00087003089 -0.00012042846 605.65949)
(0.00034073178 -0.00013955975 605.66076)
(5.5983477e-05 -0.00014948369 605.66124)
(-0.00020200567 -0.00015396558 605.66103)
(-0.00043351266 -0.00015429812 605.66016)
(-0.00058209561 -0.0001496381 605.65872)
(-0.00047820702 -0.00013614574 605.65709)
(-0.00011052881 -0.00011052881 605.65677)
(-0.0046566714 -0.0046566714 894.38656)
(-0.0023400306 -0.0012348336 894.37913)
(0.0066396905 -0.0015152424 894.38512)
(0.0030754664 -0.0015354416 894.3881)
(0.0014400639 -0.0015545814 894.38971)
(0.00014005892 -0.0015938479 894.39019)
(-0.00078423367 -0.0016786541 894.38973)
(-0.0010157829 -0.0018606823 894.38866)
(-7.0950597e-05 -0.0021537052 894.38782)
(0.00025323418 -0.0019946633 894.38941)
(-0.0012348336 -0.0023400306 894.37913)
(0.0023721129 0.0023721129 894.37728)
(0.0061887785 0.0018815709 894.38294)
(0.0030164578 0.0018189408 894.38588)
(0.0013524545 0.0017442488 894.38745)
(-4.6050083e-05 0.0016112637 894.38784)
(-0.0011844853 0.0013569582 894.38718)
(-0.0017283595 0.00084130162 894.38563)
(-0.00027192213 -0.00010847388 894.38387)
(0.00041227606 -0.00069962688 894.38567)
(-0.0015152424 0.0066396905 894.38512)
(0.0018815709 0.0061887785 894.38294)
(0.0060865184 0.0060865184 894.38852)
(0.0029381443 0.006011794 894.39141)
(0.0012323868 0.0059088868 894.3929)
(-0.00024723172 0.0057569519 894.39318)
(-0.0015541957 0.0055219412 894.39231)
(-0.0024812149 0.0051350784 894.3904)
(-0.0016118791 0.0044475025 894.38785)
(-0.00014086782 0.0034545719 894.38845)
(-0.0015354416 0.0030754664 894.3881)
(0.0018189408 0.0030164578 894.38588)
(0.006011794 0.0029381443 894.39141)
(0.0028388261 0.0028388261 894.39423)
(0.0010976123 0.0027176404 894.39564)
(-0.00043299568 0.0025663339 894.39579)
(-0.0018063588 0.0023711546 894.39475)
(-0.0028027981 0.002124881 894.39261)
(-0.0019524286 0.0018429466 894.38977)
(-0.0002496777 0.0016091456 894.3901)
(-0.0015545814 0.0014400639 894.38971)
(0.0017442488 0.0013524545 894.38745)
(0.0059088867 0.0012323868 894.3929)
(0.0027176404 0.0010976123 894.39564)
(0.00095989456 0.00095989456 894.39694)
(-0.0005937175 0.00081883834 894.39697)
(-0.0019956486 0.00066733686 894.3958)
(-0.0030094229 0.00050414064 894.3935)
(-0.0021276145 0.00034680445 894.39049)
(-0.00029673514 0.00024481263 894.39071)
(-0.0015938479 0.00014005892 894.39019)
(0.0016112637 -4.6050087e-05 894.38784)
(0.0057569519 -0.00024723172 894.39318)
(0.0025663339 -0.00043299569 894.39579)
(0.00081883834 -0.00059371751 894.39697)
(-0.00072555338 -0.00072555339 894.3969)
(-0.0021210565 -0.00083537073 894.39563)
(-0.0031233305 -0.00092550165 894.39323)
(-0.0022117566 -0.00099132306 894.39014)
(-0.00031767224 -0.001023855 894.39031)
(-0.0016786541 -0.00078423368 894.38973)
(0.0013569582 -0.0011844853 894.38718)
(0.0055219412 -0.0015541957 894.39231)
(0.0023711546 -0.0018063588 894.39475)
(0.00066733686 -0.0019956486 894.3958)
(-0.00083537073 -0.0021210565 894.39563)
(-0.0021955968 -0.0021955968 894.39429)
(-0.0031653753 -0.0022241083 894.39184)
(-0.0022259679 -0.0022088594 894.38874)
(-0.00031842312 -0.0021698068 894.38891)
(-0.0018606823 -0.0010157829 894.38866)
(0.00084130163 -0.0017283595 894.38563)
(0.0051350784 -0.0024812149 894.3904)
(0.002124881 -0.0028027981 894.39261)
(0.00050414064 -0.0030094229 894.3935)
(-0.00092550165 -0.0031233305 894.39323)
(-0.0022241083 -0.0031653753 894.39184)
(-0.0031365932 -0.0031365932 894.3894)
(-0.0021574552 -0.0030252841 894.38635)
(-0.00029163713 -0.0028540381 894.38661)
(-0.0021537052 -7.0950598e-05 894.38782)
(-0.00010847387 -0.00027192212 894.38387)
(0.0044475025 -0.0016118791 894.38785)
(0.0018429466 -0.0019524286 894.38977)
(0.00034680445 -0.0021276145 894.39049)
(-0.00099132306 -0.0022117566 894.39014)
(-0.0022088594 -0.0022259679 894.38874)
(-0.0030252841 -0.0021574551 894.38635)
(-0.0019434128 -0.0019434128 894.38347)
(-0.00020425908 -0.001484839 894.38407)
(-0.0019946633 0.00025323418 894.38941)
(-0.00069962688 0.00041227606 894.38567)
(0.0034545719 -0.00014086782 894.38845)
(0.0016091456 -0.0002496777 894.3901)
(0.00024481263 -0.00029673515 894.39071)
(-0.001023855 -0.00031767224 894.39031)
(-0.0021698068 -0.00031842312 894.38891)
(-0.0028540381 -0.00029163713 894.38661)
(-0.001484839 -0.00020425908 894.38407)
(1.4078711e-05 1.4078712e-05 894.38599)
(-0.0062468981 -0.0062468981 887.5609)
(-0.0021754312 -0.0014756271 887.55656)
(0.010582774 -0.0018145299 887.56138)
(0.0052212391 -0.0018438889 887.564)
(0.0023906858 -0.0018771194 887.56538)
(5.447265e-05 -0.0019456029 887.56568)
(-0.0016832247 -0.0020970377 887.56499)
(-0.0021099948 -0.0024486615 887.56355)
(0.00067301888 -0.0031223276 887.56221)
(0.0010684141 -0.002991646 887.56434)
(-0.0014756271 -0.0021754312 887.55656)
(0.0044731211 0.0044731211 887.5559)
(0.010030381 0.0038635176 887.56053)
(0.0051273548 0.0037628944 887.56312)
(0.0022381147 0.003630998 887.56447)
(-0.00027540476 0.003396462 887.56468)
(-0.0024378126 0.0029456679 887.5638)
(-0.0036479296 0.0019974741 887.56188)
(-0.00014145779 9.5460976e-05 887.55943)
(0.0011990957 -0.0010832505 887.56161)
(-0.0018145299 0.010582774 887.56138)
(0.0038635176 0.010030381 887.56053)
(0.0098725474 0.0098725474 887.56511)
(0.0049887195 0.009740196 887.56765)
(0.0020242533 0.0095565677 887.56893)
(-0.00063085751 0.0092857591 887.56902)
(-0.0030822125 0.0088689534 887.56795)
(-0.0049602017 0.0081892147 887.56568)
(-0.0024077058 0.0069727977 887.56248)
(0.00028260644 0.0052950271 887.56363)
(-0.0018438889 0.0052212391 887.564)
(0.0037628945 0.0051273548 887.56312)
(0.009740196 0.0049887195 887.56765)
(0.004811375 0.0048113751 887.57013)
(0.0017836778 0.0045953633 887.57131)
(-0.00096301908 0.0043256881 887.57128)
(-0.003534357 0.0039775273 887.57004)
(-0.0055440853 0.0035379415 887.56755)
(-0.0030356454 0.0030277187 887.56406)
(8.0582021e-05 0.0025988921 887.56493)
(-0.0018771194 0.0023906858 887.56538)
(0.003630998 0.0022381147 887.56447)
(0.0095565677 0.0020242533 887.56893)
(0.0045953633 0.0017836778 887.57131)
(0.0015385664 0.0015385664 887.5724)
(-0.0012486935 0.001287662 887.57226)
(-0.0038699591 0.0010185981 887.57088)
(-0.0059100103 0.00072974505 887.56823)
(-0.0033467552 0.00045161812 887.56459)
(-3.2779258e-06 0.00027130853 887.56535)
(-0.0019456029 5.4472639e-05 887.56568)
(0.003396462 -0.00027540477 887.56468)
(0.0092857591 -0.00063085751 887.56902)
(0.0043256881 -0.00096301908 887.57128)
(0.0012876619 -0.0012486935 887.57226)
(-0.0014829874 -0.0014829874 887.57201)
(-0.0040922739 -0.0016776338 887.57054)
(-0.0061110653 -0.0018362852 887.5678)
(-0.003494082 -0.0019501644 887.56407)
(-3.9624373e-05 -0.0020036387 887.56479)
(-0.0020970377 -0.0016832247 887.56499)
(0.0029456679 -0.0024378126 887.5638)
(0.0088689534 -0.0030822125 887.56795)
(0.0039775273 -0.003534357 887.57004)
(0.0010185981 -0.0038699591 887.57088)
(-0.0016776338 -0.0040922739 887.57054)
(-0.0042232569 -0.0042232569 887.569)
(-0.0061825409 -0.0042696767 887.56622)
(-0.0035141087 -0.0042311552 887.56248)
(-3.8927444e-05 -0.0041404412 887.5632)
(-0.0024486615 -0.0021099948 887.56355)
(0.0019974741 -0.0036479296 887.56188)
(0.0081892147 -0.0049602017 887.56568)
(0.0035379415 -0.0055440853 887.56755)
(0.00072974505 -0.0059100103 887.56823)
(-0.0018362852 -0.0061110653 887.5678)
(-0.0042696767 -0.0061825409 887.56622)
(-0.0061189637 -0.0061189637 887.56344)
(-0.0033648464 -0.0058719334 887.55976)
(2.0851677e-05 -0.0054233739 887.56059)
(-0.0031223276 0.00067301889 887.56221)
(9.5460984e-05 -0.00014145779 887.55943)
(0.0069727977 -0.0024077058 887.56248)
(0.0030277187 -0.0030356454 887.56406)
(0.00045161811 -0.0033467552 887.56459)
(-0.0019501644 -0.003494082 887.56407)
(-0.0042311552 -0.0035141087 887.56248)
(-0.0058719334 -0.0033648464 887.55976)
(-0.0028185189 -0.0028185189 887.55629)
(0.00026011221 -0.0010929652 887.5576)
(-0.002991646 0.0010684141 887.56434)
(-0.0010832505 0.0011990958 887.56161)
(0.0052950271 0.00028260644 887.56363)
(0.0025988921 8.0582018e-05 887.56493)
(0.00027130852 -3.2779258e-06 887.56535)
(-0.0020036387 -3.9624372e-05 887.56479)
(-0.0041404412 -3.8927443e-05 887.5632)
(-0.0054233739 2.0851675e-05 887.56059)
(-0.0010929652 0.00026011221 887.5576)
(0.0011712208 0.0011712208 887.56151)
(-0.007553098 -0.007553098 880.51619)
(-0.0018668249 -0.001676844 880.51246)
(0.014076864 -0.0020769301 880.51685)
(0.0070825795 -0.0021163553 880.51918)
(0.0031213843 -0.002163599 880.52034)
(-0.00025659401 -0.0022598065 880.52044)
(-0.0029093695 -0.0024720021 880.51953)
(-0.0037916677 -0.0029765398 880.51777)
(0.00072062406 -0.0040066343 880.51586)
(0.0016749087 -0.0038171479 880.51746)
(-0.001676844 -0.0018668249 880.51246)
(0.0063474269 0.0063474269 880.5119)
(0.013417597 0.0056150752 880.5161)
(0.0069525762 0.0054748865 880.5184)
(0.0029062076 0.0052861961 880.51952)
(-0.00071919859 0.0049532521 880.51954)
(-0.0039844695 0.0043167324 880.51844)
(-0.0060936161 0.0029668748 880.51623)
(-0.00054028809 0.0001606386 880.51328)
(0.0018643951 -0.0014149857 880.5151)
(-0.0020769301 0.014076864 880.51685)
(0.0056150752 0.013417597 880.5161)
(0.013204324 0.013204324 880.52023)
(0.0067537004 0.013014276 880.52247)
(0.0025997498 0.012750904 880.52353)
(-0.0012260577 0.012363466 880.52343)
(-0.0048957468 0.011768953 880.52215)
(-0.0079477615 0.010805656 880.5196)
(-0.0036612364 0.0090750456 880.51592)
(0.00062449248 0.0067793104 880.51681)
(-0.0021163553 0.0070825795 880.51918)
(0.0054748865 0.0069525762 880.5184)
(0.013014276 0.0067537004 880.52247)
(0.0064991565 0.0064991565 880.52465)
(0.0022553983 0.0061899889 880.52562)
(-0.0017011496 0.0058046638 880.5254)
(-0.0055422801 0.0053075445 880.52396)
(-0.0087875235 0.0046808054 880.52119)
(-0.0045666336 0.0039479831 880.51723)
(0.00033390495 0.0033329801 880.51786)
(-0.002163599 0.0031213843 880.52034)
(0.0052861961 0.0029062076 880.51952)
(0.012750904 0.0025997498 880.52353)
(0.0061899889 0.0022553983 880.52562)
(0.0019052571 0.0019052571 880.52649)
(-0.0021085021 0.0015473077 880.52616)
(-0.0060196051 0.0011641679 880.52459)
(-0.0093073228 0.00075420251 880.52167)
(-0.0050090617 0.00035984556 880.51756)
(0.00021449047 0.00010421871 880.51808)
(-0.0022598065 -0.00025659401 880.52044)
(0.0049532521 -0.00071919859 880.51954)
(0.012363466 -0.0012260577 880.52343)
(0.0058046638 -0.0017011496 880.5254)
(0.0015473077 -0.0021085021 880.52616)
(-0.0024422388 -0.0024422388 880.52573)
(-0.0063353853 -0.0027186335 880.52407)
(-0.0095918458 -0.0029424969 880.52106)
(-0.0052166174 -0.0031014888 880.51687)
(0.00016348706 -0.0031746418 880.51735)
(-0.0024720021 -0.0029093695 880.51953)
(0.0043167324 -0.0039844695 880.51844)
(0.011768953 -0.0048957468 880.52215)
(0.0053075444 -0.0055422801 880.52396)
(0.0011641679 -0.0060196051 880.52459)
(-0.0027186335 -0.0063353853 880.52407)
(-0.0065198632 -0.0065198632 880.52234)
(-0.0096901781 -0.0065816629 880.51929)
(-0.0052412067 -0.0065186074 880.51509)
(0.00016572177 -0.0063777418 880.51557)
(-0.0029765398 -0.0037916677 880.51777)
(0.0029668748 -0.0060936161 880.51623)
(0.010805656 -0.0079477615 880.5196)
(0.0046808054 -0.0087875235 880.52119)
(0.0007542025 -0.0093073228 880.52167)
(-0.0029424969 -0.0095918458 880.52106)
(-0.0065816629 -0.0096901781 880.51929)
(-0.00959059 -0.00959059 880.51626)
(-0.0050126963 -0.009206072 880.51212)
(0.00025739743 -0.0084558634 880.5127)
(-0.0040066343 0.00072062406 880.51586)
(0.00016063861 -0.00054028808 880.51328)
(0.0090750456 -0.0036612364 880.51592)
(0.0039479831 -0.0045666336 880.51723)
(0.00035984555 -0.0050090617 880.51756)
(-0.0031014888 -0.0052166174 880.51687)
(-0.0065186074 -0.0052412067 880.51509)
(-0.009206072 -0.0050126963 880.51212)
(-0.00410648 -0.00410648 880.50819)
(0.00066586088 -0.00056405647 880.50926)
(-0.0038171479 0.0016749087 880.51746)
(-0.0014149857 0.0018643951 880.5151)
(0.0067793104 0.00062449248 880.51681)
(0.0033329801 0.00033390495 880.51786)
(0.00010421871 0.00021449047 880.51808)
(-0.0031746418 0.00016348706 880.51735)
(-0.0063777418 0.00016572177 880.51557)
(-0.0084558634 0.00025739743 880.5127)
(-0.00056405647 0.00066586088 880.50926)
(0.0026190131 0.0026190131 880.51358)
(-0.0087319829 -0.0087319829 873.26519)
(-0.0015145294 -0.0018446408 873.26184)
(0.017301568 -0.0023121535 873.26597)
(0.00871832 -0.0023638476 873.26808)
(0.0036541855 -0.0024255554 873.26906)
(-0.00076140733 -0.0025491055 873.26898)
(-0.0043571046 -0.0028203435 873.26789)
(-0.005774536 -0.0034715391 873.26593)
(0.00036923046 -0.0048447861 873.26375)
(0.0021347054 -0.0045698413 873.26497)
(-0.0018446408 -0.0015145294 873.26184)
(0.0081152148 0.0081152148 873.26141)
(0.016522758 0.0072455246 873.26533)
(0.008548217 0.0070605297 873.26741)
(0.0033762987 0.0068143665 873.26834)
(-0.0013535895 0.0063849659 873.26818)
(-0.0057407551 0.0055682893 873.26692)
(-0.0088111998 0.0038325917 873.26452)
(-0.0012782229 0.00015456426 873.26133)
(0.0024096501 -0.0017409506 873.2628)
(-0.0023121535 0.017301568 873.26597)
(0.0072455246 0.016522758 873.26533)
(0.016246883 0.016246883 873.26918)
(0.0082871619 0.015996644 873.2712)
(0.0029786217 0.01565407 873.27206)
(-0.0020074846 0.015152946 873.27179)
(-0.0069094788 0.014386446 873.27035)
(-0.011188261 0.013150389 873.26763)
(-0.0052043118 0.010923187 873.26374)
(0.00087102882 0.0080548353 873.26434)
(-0.0023638476 0.00871832 873.26808)
(0.0070605297 0.008548217 873.26741)
(0.015996644 0.0082871619 873.2712)
(0.007955404 0.007955404 873.27315)
(0.0025326003 0.0075546599 873.27393)
(-0.0026212142 0.0070568106 873.27355)
(-0.0077433112 0.0064156656 873.27195)
(-0.012274459 0.0056091436 873.26902)
(-0.0063737771 0.0046619879 873.26485)
(0.00049741585 0.0038718041 873.26521)
(-0.0024255554 0.0036541855 873.26906)
(0.0068143665 0.0033762987 873.26834)
(0.01565407 0.0029786217 873.27206)
(0.0075546599 0.0025326003 873.27393)
(0.0020800282 0.0020800282 873.27461)
(-0.0031464789 0.0016182103 873.27412)
(-0.0083571458 0.0011249801 873.2724)
(-0.012941939 0.00059895119 873.26932)
(-0.0069416513 9.3565199e-05 873.26501)
(0.00034423963 -0.00023326786 873.26527)
(-0.0025491055 -0.00076140733 873.26898)
(0.0063849659 -0.0013535895 873.26818)
(0.015152946 -0.0020074846 873.27179)
(0.0070568106 -0.0026212142 873.27355)
(0.0016182103 -0.0031464789 873.27412)
(-0.0035762623 -0.0035762623 873.27354)
(-0.0087625703 -0.0039310065 873.27172)
(-0.013305874 -0.0042164388 873.26856)
(-0.0072059961 -0.0044170871 873.26418)
(0.00027952714 -0.0045076572 873.2644)
(-0.0028203435 -0.0043571046 873.26789)
(0.0055682893 -0.0057407551 873.26692)
(0.014386446 -0.0069094788 873.27035)
(0.0064156656 -0.0077433112 873.27195)
(0.0011249801 -0.0083571458 873.2724)
(-0.0039310065 -0.0087625703 873.27172)
(-0.0089973223 -0.0089973223 873.26984)
(-0.013428019 -0.0090715327 873.26665)
(-0.0072328697 -0.008982143 873.26225)
(0.00028385952 -0.0087926971 873.26248)
(-0.0034715391 -0.005774536 873.26593)
(0.0038325917 -0.0088111998 873.26452)
(0.013150389 -0.011188261 873.26763)
(0.0056091436 -0.012274459 873.26902)
(0.00059895119 -0.012941939 873.26932)
(-0.0042164388 -0.013305874 873.26856)
(-0.0090715327 -0.013428019 873.26665)
(-0.013290694 -0.013290694 873.26347)
(-0.0069271605 -0.012773083 873.25914)
(0.00040582435 -0.011738919 873.25946)
(-0.0048447861 0.00036923046 873.26375)
(0.00015456427 -0.0012782229 873.26133)
(0.010923187 -0.0052043118 873.26374)
(0.0046619879 -0.0063737771 873.26485)
(9.3565209e-05 -0.0069416513 873.26501)
(-0.0044170871 -0.0072059961 873.26418)
(-0.008982143 -0.0072328697 873.26225)
(-0.012773083 -0.0069271605 873.25914)
(-0.0056810941 -0.0056810941 873.25501)
(0.00097330229 -0.00021039695 873.25579)
(-0.0045698413 0.0021347054 873.26497)
(-0.0017409506 0.0024096501 873.2628)
(0.0080548353 0.00087102882 873.26434)
(0.0038718041 0.00049741585 873.26521)
(-0.00023326785 0.00034423962 873.26527)
(-0.0045076572 0.00027952714 873.2644)
(-0.0087926971 0.00028385952 873.26248)
(-0.011738919 0.00040582435 873.25946)
(-0.00021039695 0.00097330229 873.25579)
(0.0040529558 0.0040529558 873.25993)
(-0.0097885149 -0.0097885149 865.82593)
(-0.0010938943 -0.0019632 865.82296)
(0.020316693 -0.0024998748 865.82686)
(0.010174677 -0.0025652461 865.8288)
(0.0040238345 -0.0026415997 865.82962)
(-0.0014214209 -0.0027917191 865.82941)
(-0.0059639358 -0.003119807 865.82819)
(-0.0079395966 -0.0039119241 865.82609)
(-0.00023903359 -0.0056170938 865.82375)
(0.0024900138 -0.0052614389 865.82469)
(-0.0019632 -0.0010938943 865.82296)
(0.0098390659 0.0098390659 865.82268)
(0.019413624 0.0088259203 865.82638)
(0.0099620893 0.0085924328 865.82828)
(0.0036841249 0.0082886778 865.82906)
(-0.0021387319 0.0077656547 865.82876)
(-0.0076442433 0.0067757453 865.82738)
(-0.011685527 0.0046701802 865.82487)
(-0.0022633058 0.00015195477 865.82155)
(0.0028456686 -0.0020446965 865.82271)
(-0.0024998748 0.020316693 865.82686)
(0.0088259203 0.019413624 865.82638)
(0.01907006 0.01907006 865.82999)
(0.0096374342 0.018757625 865.83184)
(0.0031970564 0.018336677 865.83255)
(-0.0029343535 0.017725316 865.83215)
(-0.0090594103 0.016793534 865.83059)
(-0.014563387 0.015296783 865.82777)
(-0.0069539103 0.01259366 865.82378)
(0.0010255796 0.0091856243 865.82412)
(-0.0025652461 0.010174677 865.8288)
(0.0085924328 0.0099620893 865.82828)
(0.018757625 0.0096374342 865.83184)
(0.0092287071 0.0092287071 865.83361)
(0.0026518156 0.0087382462 865.83423)
(-0.0036818755 0.0081313855 865.83373)
(-0.010072776 0.0073516841 865.83202)
(-0.015885401 0.0063732134 865.829)
(-0.0083744646 0.0052209848 865.82475)
(0.00057364513 0.0042653595 865.82486)
(-0.0026415997 0.0040238345 865.82962)
(0.0082886778 0.0036841249 865.82906)
(0.018336677 0.0031970564 865.83255)
(0.0087382462 0.0026518156 865.83423)
(0.0020997348 0.0020997348 865.83477)
(-0.0043209156 0.0015375115 865.83415)
(-0.010817582 0.00093840336 865.83233)
(-0.016694086 0.00030138692 865.82917)
(-0.0090617642 -0.00030987083 865.82478)
(0.00038849608 -0.00070396185 865.8248)
(-0.0027917191 -0.0014214209 865.82941)
(0.0077656547 -0.0021387319 865.82876)
(0.017725316 -0.0029343535 865.83215)
(0.0081313855 -0.0036818755 865.83373)
(0.0015375115 -0.0043209156 865.83415)
(-0.0048432069 -0.0048432069 865.83345)
(-0.0113089 -0.0052730618 865.83153)
(-0.017133675 -0.0056169599 865.8283)
(-0.0093798133 -0.0058565449 865.82384)
(0.00031091778 -0.0059626092 865.82382)
(-0.003119807 -0.0059639358 865.82819)
(0.0067757453 -0.0076442433 865.82738)
(0.016793534 -0.0090594103 865.83059)
(0.0073516841 -0.010072776 865.83202)
(0.00093840337 -0.010817582 865.83233)
(-0.0052730618 -0.0113089 865.83153)
(-0.011591335 -0.011591335 865.82956)
(-0.017277569 -0.011676174 865.82629)
(-0.0094074135 -0.011559621 865.82182)
(0.00031778651 -0.01132193 865.82181)
(-0.0039119241 -0.0079395966 865.82609)
(0.0046701802 -0.011685527 865.82487)
(0.015296783 -0.014563387 865.82777)
(0.0063732134 -0.015885401 865.829)
(0.00030138692 -0.016694086 865.82917)
(-0.0056169599 -0.017133675 865.8283)
(-0.011676174 -0.017277569 865.82629)
(-0.017101961 -0.017101961 865.82303)
(-0.009025569 -0.016455065 865.81863)
(0.00046937856 -0.01515305 865.8187)
(-0.0056170938 -0.00023903359 865.82375)
(0.00015195477 -0.0022633058 865.82155)
(0.01259366 -0.0069539103 865.82378)
(0.0052209848 -0.0083744646 865.82475)
(-0.00030987082 -0.0090617642 865.82478)
(-0.0058565449 -0.0093798134 865.82384)
(-0.011559621 -0.0094074135 865.82182)
(-0.016455065 -0.009025569 865.81863)
(-0.0074585026 -0.0074585026 865.81442)
(0.0011857966 -8.670283e-05 865.81492)
(-0.0052614389 0.0024900138 865.82469)
(-0.0020446965 0.0028456686 865.82271)
(0.0091856243 0.0010255796 865.82412)
(0.0042653595 0.00057364513 865.82486)
(-0.00070396184 0.00038849608 865.8248)
(-0.0059626092 0.00031091778 865.82382)
(-0.01132193 0.00031778651 865.82181)
(-0.01515305 0.00046937856 865.8187)
(-8.6702826e-05 0.0011857966 865.81492)
(0.0053839118 0.0053839118 865.81872)
(-0.010718125 -0.010718125 858.21767)
(-0.00059062887 -0.0020275381 858.21507)
(0.023145184 -0.0026326516 858.21876)
(0.011483299 -0.0027124163 858.22055)
(0.0042646738 -0.0028033508 858.22125)
(-0.0021947253 -0.0029790576 858.22093)
(-0.0076743958 -0.0033614039 858.21963)
(-0.010214424 -0.004288005 858.21745)
(-0.0010369755 -0.0063122142 858.21502)
(0.0027585187 -0.005888445 858.21571)
(-0.0020275381 -0.00059062888 858.21507)
(0.011537582 0.011537582 858.21496)
(0.022117867 0.010380402 858.21845)
(0.01122725 0.01009654 858.22019)
(0.0038647118 0.0097358083 858.22085)
(-0.0030318049 0.0091225899 858.22046)
(-0.0096378168 0.0079673393 858.21899)
(-0.01464064 0.0055094922 858.21643)
(-0.0034376355 0.00018700003 858.21306)
(0.0031822879 -0.0023064827 858.21393)
(-0.0026326516 0.023145184 858.21876)
(0.010380402 0.022117867 858.21845)
(0.021704142 0.021704142 858.22185)
(0.010838706 0.021328728 858.22354)
(0.0032907239 0.020830896 858.22412)
(-0.0039631943 0.020113284 858.22363)
(-0.011287493 0.019023568 858.222)
(-0.017994763 0.017278966 858.21914)
(-0.0088529503 0.014122947 858.21514)
(0.001096197 0.010204789 858.21524)
(-0.0027124163 0.011483299 858.22055)
(0.01009654 0.01122725 858.22019)
(0.021328728 0.010838706 858.22354)
(0.010354004 0.010354004 858.22516)
(0.0026492677 0.0097762153 858.22566)
(-0.0048391328 0.0090643066 858.22506)
(-0.012472135 0.0081519592 858.22329)
(-0.01954126 0.0070096824 858.22024)
(-0.010511813 0.0056622261 858.21599)
(0.00057018239 0.0045500693 858.21588)
(-0.0028033508 0.0042646738 858.22125)
(0.0097358083 0.0038647118 858.22085)
(0.020830896 0.0032907239 858.22412)
(0.0097762153 0.0026492677 858.22566)
(0.0020010267 0.0020010267 858.22608)
(-0.0055874504 0.0013421641 858.22538)
(-0.013342118 0.00064156748 858.22349)
(-0.020484496 -0.0001013958 858.22031)
(-0.011312563 -0.00081351401 858.21593)
(0.00035475906 -0.0012713164 858.21573)
(-0.0029790576 -0.0021947253 858.22093)
(0.0091225898 -0.0030318049 858.22046)
(0.020113284 -0.0039631943 858.22363)
(0.0090643066 -0.0048391328 858.22506)
(0.0013421641 -0.0055874504 858.22538)
(-0.006198592 -0.006198592 858.22459)
(-0.013915695 -0.0067005157 858.22262)
(-0.020996342 -0.0071003987 858.21936)
(-0.011681733 -0.0073772114 858.21492)
(0.00026498078 -0.0074978989 858.21468)
(-0.0033614039 -0.0076743958 858.21963)
(0.0079673393 -0.0096378168 858.21899)
(0.019023568 -0.011287493 858.222)
(0.0081519592 -0.012472135 858.22329)
(0.00064156749 -0.013342118 858.22349)
(-0.0067005157 -0.013915695 858.22262)
(-0.014243924 -0.014243924 858.22059)
(-0.021161192 -0.014339177 858.2173)
(-0.011710064 -0.014197012 858.21285)
(0.00027430075 -0.013913398 858.21261)
(-0.004288005 -0.010214424 858.21745)
(0.0055094922 -0.01464064 858.21643)
(0.017278966 -0.017994763 858.21914)
(0.0070096824 -0.01954126 858.22024)
(-0.0001013958 -0.020484496 858.22031)
(-0.0071003987 -0.020996342 858.21936)
(-0.014339177 -0.021161192 858.2173)
(-0.02094943 -0.02094943 858.21402)
(-0.011255954 -0.020180465 858.20963)
(0.00045405681 -0.018627242 858.20948)
(-0.0063122142 -0.0010369755 858.21502)
(0.00018700002 -0.0034376355 858.21306)
(0.014122947 -0.0088529504 858.21514)
(0.0056622261 -0.010511813 858.21599)
(-0.000813514 -0.011312563 858.21593)
(-0.0073772114 -0.011681733 858.21492)
(-0.014197012 -0.011710064 858.21285)
(-0.020180465 -0.011255954 858.20963)
(-0.0093878759 -0.0093878759 858.20541)
(0.0013097829 -0.00018673713 858.20566)
(-0.005888445 0.0027585187 858.21571)
(-0.0023064827 0.0031822879 858.21393)
(0.010204789 0.001096197 858.21524)
(0.0045500693 0.00057018239 858.21588)
(-0.0012713164 0.00035475906 858.21573)
(-0.0074978989 0.00026498077 858.21468)
(-0.013913398 0.00027430075 858.21261)
(-0.018627242 0.00045405681 858.20948)
(-0.00018673712 0.0013097829 858.20566)
(0.0065881493 0.0065881493 858.20907)
(-0.011517583 -0.011517583 850.46065)
(-1.3358584e-06 -0.0020372836 850.45845)
(0.025793495 -0.0027088437 850.46191)
(0.012663976 -0.0028032885 850.46356)
(0.0044042403 -0.0029085332 850.46416)
(-0.0030451725 -0.003108676 850.46376)
(-0.0094424489 -0.0035423973 850.46241)
(-0.012545674 -0.0045963432 850.46021)
(-0.001981921 -0.0069247685 850.45773)
(0.0029501304 -0.006446808 850.4582)
(-0.0020372836 -1.3358573e-06 850.45845)
(0.013211774 0.013211774 850.4585)
(0.024644487 0.011913045 850.46177)
(0.012364442 0.011578196 850.46337)
(0.003946159 0.011161786 850.46392)
(-0.0039959687 0.010462355 850.46346)
(-0.01167395 0.0091504525 850.46195)
(-0.01761923 0.006359529 850.45938)
(-0.0047576181 0.00027328553 850.45602)
(0.0034280909 -0.0025139757 850.45663)
(-0.0027088437 0.025793495 850.46191)
(0.011913045 0.024644487 850.46177)
(0.024159917 0.024159917 850.46495)
(0.011912717 0.023721823 850.4665)
(0.0032883988 0.023149302 850.46698)
(-0.0050565057 0.022330016 850.46642)
(-0.013545275 0.021090368 850.46476)
(-0.02142284 0.019111609 850.46191)
(-0.010855426 0.015527868 850.45796)
(0.0010919562 0.011129888 850.45785)
(-0.0028032885 0.012663976 850.46356)
(0.011578196 0.012364442 850.46337)
(0.023721823 0.011912717 850.4665)
(0.011353827 0.011353827 850.46798)
(0.0025543521 0.010691703 850.46839)
(-0.0060549033 0.0098792153 850.46772)
(-0.014892356 0.008840617 850.46593)
(-0.02318173 0.0075431032 850.4629)
(-0.012739339 0.0060108812 850.45871)
(0.00049610433 0.0047510905 850.4584)
(-0.0029085332 0.0044042403 850.46416)
(0.011161786 0.003946159 850.46392)
(0.023149302 0.0032883988 850.46698)
(0.010691703 0.0025543521 850.46839)
(0.0018137871 0.0018137871 850.46871)
(-0.0069075913 0.0010624062 850.46795)