/*--------------------------------*- C++ -*----------------------------------*\
| =========                 |                                                 |
| \\      /  F ield         | OpenFOAM: The Open Source CFD Toolbox           |
|  \\    /   O peration     | Version:  v2106                                 |
|   \\  /    A nd           | Website:  www.openfoam.com                      |
|    \\/     M anipulation  |                                                 |
\*---------------------------------------------------------------------------*/
FoamFile
{
    version     2.0;
    format      ascii;
    arch        "LSB;label=32;scalar=64";
    class       volScalarField;
    location    "37.5";
    object      laplacianT;
}
// * * * * * * * * * * * * * * * * * * * * * * * * * * * * * * * * * * * * * //

dimensions      [0 -2 0 1 0 0 0];

internalField   nonuniform List<scalar> 
4000
(
43811.678
43812.774
43812.164
43812.436
43812.524
43812.553
43812.538
43812.497
43812.466
43812.501
43812.774
43812.622
43812.485
43812.724
43812.809
43812.834
43812.811
43812.758
43812.727
43812.783
43812.164
43812.485
43812.281
43812.514
43812.594
43812.613
43812.578
43812.504
43812.441
43812.553
43812.436
43812.724
43812.514
43812.743
43812.819
43812.831
43812.788
43812.701
43812.614
43812.688
43812.524
43812.809
43812.594
43812.819
43812.889
43812.896
43812.847
43812.752
43812.659
43812.728
43812.553
43812.834
43812.613
43812.831
43812.896
43812.898
43812.843
43812.743
43812.646
43812.713
43812.538
43812.811
43812.578
43812.788
43812.847
43812.843
43812.784
43812.682
43812.584
43812.651
43812.497
43812.758
43812.504
43812.701
43812.752
43812.743
43812.682
43812.581
43812.484
43812.555
43812.466
43812.727
43812.441
43812.614
43812.659
43812.646
43812.584
43812.484
43812.395
43812.475
43812.501
43812.783
43812.553
43812.688
43812.728
43812.713
43812.651
43812.555
43812.475
43812.574
-674.19973
-668.91797
-672.03746
-671.73464
-671.72259
-671.72261
-671.72239
-671.7171
-671.68639
-671.70854
-668.91797
-668.21748
-669.96278
-669.7302
-669.72184
-669.72014
-669.70967
-669.65485
-669.42511
-669.9521
-672.03746
-669.96278
-671.82832
-671.60708
-671.60021
-671.60096
-671.59825
-671.55715
-671.25135
-671.18047
-671.73464
-669.7302
-671.60708
-671.38748
-671.38104
-671.38184
-671.37998
-671.34942
-671.08712
-671.10225
-671.72259
-669.72184
-671.60021
-671.38104
-671.37515
-671.37634
-671.37388
-671.34069
-671.07481
-671.09323
-671.72261
-669.72014
-671.60096
-671.38184
-671.37634
-671.37831
-671.37653
-671.34369
-671.07732
-671.09519
-671.72239
-669.70967
-671.59825
-671.37998
-671.37388
-671.37653
-671.37532
-671.34289
-671.0765
-671.09376
-671.7171
-669.65485
-671.55715
-671.34942
-671.34069
-671.34369
-671.34289
-671.31048
-671.04303
-671.05752
-671.68639
-669.42511
-671.25135
-671.08712
-671.07481
-671.07732
-671.0765
-671.04303
-670.77099
-670.7768
-671.70854
-669.9521
-671.18047
-671.10225
-671.09323
-671.09519
-671.09376
-671.05752
-670.7768
-670.84218
-697.47362
-690.76991
-695.00245
-694.59414
-694.57192
-694.56977
-694.56329
-694.52393
-694.34641
-695.19678
-690.76991
-690.0684
-692.49274
-692.17242
-692.15607
-692.15305
-692.13385
-691.99922
-691.25062
-692.70871
-695.00245
-692.49274
-695.06199
-694.75707
-694.74298
-694.74381
-694.73988
-694.64779
-693.80982
-694.35585
-694.59414
-692.17242
-694.75707
-694.45477
-694.44153
-694.44234
-694.43878
-694.3627
-693.59199
-694.25927
-694.57192
-692.15607
-694.74298
-694.44153
-694.42945
-694.43118
-694.42694
-694.34734
-693.57265
-694.2475
-694.56977
-692.15305
-694.74381
-694.44234
-694.43118
-694.43434
-694.43134
-694.35235
-693.57688
-694.2514
-694.56329
-692.13385
-694.73988
-694.43878
-694.42694
-694.43134
-694.42937
-694.35095
-693.57491
-694.24742
-694.52393
-691.99922
-694.64779
-694.3627
-694.34734
-694.35235
-694.35095
-694.27182
-693.49143
-694.1521
-694.34641
-691.25062
-693.80982
-693.59199
-693.57265
-693.57688
-693.57491
-693.49143
-692.69326
-693.3071
-695.19678
-692.70871
-694.35585
-694.25927
-694.2475
-694.2514
-694.24742
-694.1521
-693.3071
-694.76593
-719.74986
-711.52436
-716.8021
-716.29769
-716.2666
-716.26366
-716.25283
-716.1689
-715.69454
-717.04499
-711.52436
-710.61859
-713.69349
-713.29284
-713.26945
-713.26651
-713.2444
-713.04444
-711.67672
-713.92756
-716.8021
-713.69349
-716.93613
-716.55466
-716.53423
-716.53594
-716.5339
-716.3995
-714.9139
-715.952
-716.29769
-713.29284
-716.55466
-716.17675
-716.15762
-716.15937
-716.15738
-716.04498
-714.64886
-715.83829
-716.2666
-713.26945
-716.53423
-716.15762
-716.14022
-716.14337
-716.1406
-716.02397
-714.62381
-715.82454
-716.26366
-713.26651
-716.53594
-716.15937
-716.14337
-716.1486
-716.14758
-716.03181
-714.63065
-715.83127
-716.25283
-713.2444
-716.5339
-716.15738
-716.1406
-716.14758
-716.14805
-716.03303
-714.63065
-715.82716
-716.1689
-713.04444
-716.3995
-716.04498
-716.02397
-716.03181
-716.03303
-715.91637
-714.50438
-715.66997
-715.69454
-711.67672
-714.9139
-714.64886
-714.62381
-714.63065
-714.63065
-714.50438
-713.04668
-714.03333
-717.04499
-713.92756
-715.952
-715.83829
-715.82454
-715.83127
-715.82716
-715.66997
-714.03333
-717.09336
-740.21984
-730.56106
-736.8337
-736.2386
-736.19977
-736.1971
-736.18527
-736.07
-735.3168
-737.11305
-730.56106
-729.46952
-733.16466
-732.68821
-732.65868
-732.65622
-732.63263
-732.37933
-730.41137
-733.41254
-736.8337
-733.16466
-737.04925
-736.59562
-736.56979
-736.57289
-736.57402
-736.40851
-734.29023
-735.79311
-736.2386
-732.68821
-736.59562
-736.14643
-736.12232
-736.12554
-736.1264
-735.98903
-733.9811
-735.66358
-736.19977
-732.65868
-736.56979
-736.12232
-736.10047
-736.10556
-736.1055
-735.96328
-733.95128
-735.64854
-736.1971
-732.65622
-736.57289
-736.12554
-736.10556
-736.11331
-736.1155
-735.97441
-733.96126
-735.65872
-736.18527
-732.63263
-736.57402
-736.1264
-736.1055
-736.1155
-736.11964
-735.97958
-733.96492
-735.65694
-736.07
-732.37933
-736.40851
-735.98903
-735.96328
-735.97441
-735.97958
-735.83745
-733.80922
-735.4517
-735.3168
-730.41137
-734.29023
-733.9811
-733.95128
-733.96126
-733.96492
-733.80922
-731.70802
-732.99504
-737.11305
-733.41254
-735.79311
-735.66358
-735.64854
-735.65872
-735.65694
-735.4517
-732.99504
-737.63957
-758.74406
-747.76751
-754.9766
-754.29597
-754.25043
-754.24855
-754.236
-754.09197
-753.0719
-755.28006
-747.76751
-746.52514
-750.80366
-750.25579
-750.2211
-750.21968
-750.19488
-749.89183
-747.34472
-751.04103
-754.9766
-750.80366
-755.29217
-754.7706
-754.74034
-754.7454
-754.74984
-754.55645
-751.82723
-753.75577
-754.29597
-750.25579
-754.7706
-754.25429
-754.22615
-754.23137
-754.23521
-754.07598
-751.47682
-753.61186
-754.25043
-750.2211
-754.74034
-754.22615
-754.20076
-754.20828
-754.21103
-754.04637
-751.4431
-753.59622
-754.24855
-750.21968
-754.7454
-754.23137
-754.20828
-754.21904
-754.22448
-754.06117
-751.45659
-753.61024
-754.236
-750.19488
-754.74984
-754.23521
-754.21103
-754.22448
-754.23228
-754.07027
-751.46392
-753.61121
-754.09197
-749.89183
-754.55645
-754.07598
-754.04637
-754.06117
-754.07027
-753.90588
-751.28282
-753.36459
-753.0719
-747.34472
-751.82723
-751.47682
-751.4431
-751.45659
-751.46392
-751.28282
-748.56317
-750.10413
-755.28006
-751.04103
-753.75577
-753.61186
-753.59622
-753.61024
-753.61121
-753.36459
-750.10413
-756.26445
-775.21329
-763.03888
-771.12059
-770.35992
-770.30874
-770.30832
-770.29564
-770.1246
-768.84867
-771.43467
-763.03888
-761.67891
-766.50055
-765.8859
-765.84702
-765.84733
-765.822
-765.47245
-762.37111
-766.7029
-771.12059
-766.50055
-771.55142
-770.96638
-770.93262
-770.94026
-770.9485
-770.72979
-767.41649
-769.7281
-770.35992
-765.8859
-770.96638
-770.38737
-770.35609
-770.36393
-770.37119
-770.1924
-767.02775
-769.57128
-770.30874
-765.84702
-770.93262
-770.35609
-770.32804
-770.33858
-770.34456
-770.15979
-766.99096
-769.55574
-770.30832
-765.84733
-770.94026
-770.36393
-770.33858
-770.35288
-770.36196
-770.17874
-767.00839
-769.574
-770.29564
-765.822
-770.9485
-770.37119
-770.34456
-770.36196
-770.37377
-770.19206
-767.01965
-769.57802
-770.1246
-765.47245
-770.72979
-770.1924
-770.15979
-770.17874
-770.19206
-770.00762
-766.8155
-769.29384
-768.84867
-762.37111
-767.41649
-767.02775
-766.99096
-767.00839
-767.01965
-766.8155
-763.50518
-765.25907
-771.43467
-766.7029
-769.7281
-769.57128
-769.55574
-769.574
-769.57802
-769.29384
-765.25907
-772.84875
-789.53128
-776.28235
-785.16841
-784.33359
-784.27773
-784.27934
-784.26712
-784.07094
-782.55132
-785.4804
-776.28235
-774.8363
-780.15816
-779.48168
-779.43948
-779.44206
-779.41691
-779.02429
-775.39707
-780.30315
-785.16841
-780.15816
-785.72706
-785.08328
-785.04685
-785.05758
-785.07005
-784.82852
-780.96183
-783.6135
-784.33359
-779.48168
-785.08328
-784.44627
-784.41267
-784.4236
-784.4347
-784.2385
-780.53786
-783.44524
-784.27773
-779.43948
-785.04685
-784.41267
-784.38271
-784.39672
-784.40634
-784.20364
-780.49873
-783.43036
-784.27934
-779.44206
-785.05758
-784.4236
-784.39672
-784.41498
-784.42807
-784.22709
-780.52045
-783.4532
-784.26712
-779.41691
-785.07005
-784.4347
-784.40634
-784.42807
-784.44423
-784.24495
-780.53593
-783.4606
-784.07094
-779.02429
-784.82852
-784.2385
-784.20364
-784.22709
-784.24495
-784.04258
-780.31097
-783.14202
-782.55132
-775.39707
-780.96183
-780.53786
-780.49873
-780.52045
-780.53593
-780.31097
-776.4408
-778.36901
-785.4804
-780.30315
-783.6135
-783.44524
-783.43036
-783.4532
-783.4606
-783.14202
-778.36901
-787.29322
-801.62065
-787.42294
-797.04125
-796.13851
-796.07884
-796.08291
-796.07162
-795.85225
-794.10242
-797.3391
-787.42294
-785.92041
-791.69737
-790.96427
-790.91951
-790.92478
-790.90039
-790.46826
-786.34647
-791.76475
-797.04125
-791.69737
-797.7376
-797.04008
-797.00171
-797.01586
-797.03286
-796.77099
-792.38468
-795.3336
-796.13851
-790.96427
-797.04008
-796.34999
-796.31475
-796.32912
-796.34434
-796.13283
-791.92872
-795.15532
-796.07884
-790.91951
-797.00171
-796.31475
-796.28356
-796.30133
-796.31488
-796.09637
-791.88789
-795.14159
-796.08291
-790.92478
-797.01586
-796.32912
-796.30133
-796.3238
-796.34115
-796.12453
-791.91411
-795.16919
-796.07162
-790.90039
-797.03286
-796.34434
-796.31488
-796.34115
-796.36189
-796.14713
-791.934
-795.1802
-795.85225
-790.46826
-796.77099
-796.13283
-796.09637
-796.12453
-796.14713
-795.92893
-791.69047
-794.83029
-794.10242
-786.34647
-792.38468
-791.92872
-791.88789
-791.91411
-791.934
-791.69047
-787.29427
-789.35984
-797.3391
-791.76475
-795.3336
-795.15532
-795.14159
-795.16919
-795.1802
-794.83029
-789.35984
-799.51792
-811.42247
-796.40312
-806.67837
-805.71424
-805.65153
-805.65833
-805.64835
-805.40776
-803.4424
-806.95077
-796.40312
-794.87161
-801.05669
-800.2724
-800.22574
-800.23397
-800.21081
-799.74285
-795.16046
-801.02843
-806.67837
-801.05669
-807.51959
-806.77352
-806.73381
-806.7516
-806.77331
-806.49354
-801.62415
-804.82802
-805.71424
-800.2724
-806.77352
-806.03549
-805.9992
-806.01719
-806.03668
-805.81191
-801.13952
-804.64112
-805.65153
-800.22574
-806.73381
-805.9992
-805.96731
-805.98901
-806.00664
-805.7744
-801.09754
-804.62887
-805.65833
-800.23397
-806.7516
-806.01719
-805.98901
-806.01581
-806.03754
-805.80733
-801.1283
-804.66129
-805.64835
-800.21081
-806.77331
-806.03668
-806.00664
-806.03754
-806.06295
-805.83474
-801.15269
-804.67606
-805.40776
-799.74285
-806.49354
-805.81191
-805.7744
-805.80733
-805.83474
-805.60277
-800.89282
-804.29788
-803.4424
-795.16046
-801.62415
-801.13952
-801.09754
-801.1283
-801.15269
-800.89282
-796.00716
-798.17478
-806.95077
-801.02843
-804.82802
-804.64112
-804.62887
-804.66129
-804.67606
-804.29788
-798.17478
-809.46155
-818.89526
-803.18192
-814.03616
-813.01743
-812.95236
-812.96206
-812.95365
-812.69385
-810.52878
-814.27273
-803.18192
-801.64666
-808.1914
-807.36156
-807.31357
-807.3249
-807.30334
-806.8033
-801.79667
-808.05192
-814.03616
-808.1914
-815.02675
-814.2375
-814.19698
-814.21849
-814.24493
-813.9497
-808.63616
-812.05355
-813.01743
-807.36156
-814.2375
-813.45685
-813.41999
-813.44167
-813.46548
-813.22944
-808.12629
-811.8594
-812.95236
-807.31357
-814.19698
-813.41999
-813.38785
-813.41352
-813.43527
-813.19134
-808.08361
-811.84888
-812.96206
-807.3249
-814.21849
-813.44167
-813.41352
-813.44464
-813.47076
-813.22897
-808.11885
-811.88605
-812.95365
-807.30334
-814.24493
-813.46548
-813.43527
-813.47076
-813.50081
-813.26115
-808.14771
-811.90462
-812.69385
-806.8033
-813.9497
-813.22944
-813.19134
-813.22897
-813.26115
-813.01743
-807.87372
-811.50129
-810.52878
-801.79667
-808.63616
-808.12629
-808.08361
-808.11885
-808.14771
-807.87372
-802.53767
-804.77385
-814.27273
-808.05192
-812.05355
-811.8594
-811.84888
-811.88605
-811.90462
-811.50129
-804.77385
-817.08054
-824.01409
-807.73406
-819.0873
-818.02099
-817.95416
-817.96683
-817.96016
-817.6832
-815.33522
-819.27872
-807.73406
-806.21789
-813.07274
-812.20315
-812.15432
-812.16882
-812.14912
-811.62085
-806.22837
-812.80905
-819.0873
-813.07274
-820.22912
-819.40223
-819.36133
-819.38653
-819.41763
-819.10935
-813.39271
-816.98336
-818.02099
-812.20315
-819.40223
-818.58441
-818.5474
-818.57274
-818.60079
-818.35545
-812.86109
-816.7833
-817.95416
-812.15432
-819.36133
-818.5474
-818.51538
-818.54495
-818.57076
-818.31713
-812.81811
-816.77469
-817.96683
-812.16882
-819.38653
-818.57274
-818.54495
-818.58029
-818.61071
-818.35931
-812.85768
-816.81643
-817.96016
-812.14912
-819.41763
-818.60079
-818.57076
-818.61071
-818.64526
-818.39612
-812.89088
-816.83874
-817.6832
-811.62085
-819.10935
-818.35545
-818.31713
-818.35931
-818.39612
-818.14264
-812.60497
-816.41343
-815.33522
-806.22837
-813.39271
-812.86109
-812.81811
-812.85768
-812.89088
-812.60497
-806.85975
-809.13306
-819.27872
-812.80905
-816.98336
-816.7833
-816.77469
-816.81643
-816.83874
-816.41343
-809.13306
-822.34823
-826.76969
-810.04914
-821.81991
-820.71323
-820.64521
-820.66083
-820.65601
-820.36396
-817.85073
-821.95812
-810.04914
-808.57245
-815.68708
-814.7837
-814.73447
-814.7521
-814.73446
-814.18186
-808.44374
-815.28895
-821.81991
-815.68708
-823.11225
-822.25337
-822.21248
-822.24128
-822.27689
-821.95793
-815.88102
-819.60609
-820.71323
-814.7837
-822.25337
-821.40401
-821.36718
-821.39608
-821.42823
-821.17551
-815.33122
-819.40149
-820.64521
-814.73447
-822.21248
-821.36718
-821.3356
-821.36893
-821.39866
-821.13731
-815.28828
-819.39488
-820.66083
-814.7521
-822.24128
-821.39608
-821.36893
-821.4083
-821.44284
-821.1838
-815.33196
-819.44094
-820.65601
-814.73446
-822.27689
-821.42823
-821.39866
-821.44284
-821.4817
-821.225
-815.3693
-819.46687
-820.36396
-814.18186
-821.95793
-821.17551
-821.13731
-821.1838
-821.225
-820.96372
-815.07366
-819.02276
-817.85073
-808.44374
-815.88102
-815.33122
-815.28828
-815.33196
-815.3693
-815.07366
-808.9623
-811.24358
-821.95812
-815.28895
-819.60609
-819.40149
-819.39488
-819.44094
-819.46687
-819.02276
-811.24358
-825.25398
-827.16764
-810.13085
-822.23675
-821.09709
-821.02839
-821.04689
-821.04396
-820.73894
-818.07888
-822.31505
-810.13085
-808.71149
-816.03518
-815.10408
-815.05484
-815.07552
-815.06009
-814.48712
-808.44501
-815.49524
-822.23675
-816.03518
-823.67642
-822.79136
-822.7508
-822.78303
-822.82292
-822.49565
-816.10278
-819.92511
-821.09709
-815.10408
-822.79136
-821.91616
-821.87982
-821.9121
-821.94814
-821.68993
-815.53842
-819.71728
-821.02839
-815.05484
-822.7508
-821.87982
-821.84893
-821.88582
-821.91928
-821.65213
-815.49584
-819.71274
-821.04689
-815.07552
-822.78303
-821.9121
-821.88582
-821.92898
-821.9674
-821.70262
-815.54333
-819.76282
-821.04396
-815.06009
-822.82292
-821.94814
-821.91928
-821.9674
-822.0103
-821.74795
-815.58455
-819.79218
-820.73894
-814.48712
-822.49565
-821.68993
-821.65213
-821.70262
-821.74795
-821.4808
-815.28134
-819.3325
-818.07888
-808.44501
-816.10278
-815.53842
-815.49584
-815.54333
-815.58455
-815.28134
-808.84844
-811.11088
-822.31505
-815.49524
-819.92511
-819.71728
-819.71274
-819.76282
-819.79218
-819.3325
-811.11088
-825.80227
-825.22754
-807.99623
-820.35449
-819.18933
-819.12044
-819.14171
-819.14069
-818.82482
-816.03696
-820.36761
-807.99623
-806.64951
-814.13145
-813.1788
-813.1299
-813.15351
-813.14039
-812.55104
-806.2478
-813.4452
-820.35449
-814.13145
-821.93595
-821.03055
-820.99063
-821.02607
-821.06998
-820.73673
-814.07336
-817.95764
-819.18933
-813.1788
-821.03055
-820.13531
-820.09973
-820.13518
-820.17485
-819.91299
-813.49812
-817.74793
-819.12044
-813.1299
-820.99063
-820.09973
-820.06977
-820.10996
-820.1469
-819.87586
-813.45617
-817.74547
-819.14171
-813.15351
-821.02607
-820.13518
-820.10996
-820.15661
-820.19864
-819.93001
-813.50714
-817.79921
-819.14069
-813.14039
-821.06998
-820.17485
-820.1469
-820.19864
-820.24527
-819.97913
-813.55194
-817.83179
-818.82482
-812.55104
-820.73673
-819.91299
-819.87586
-819.93001
-819.97913
-819.70801
-813.24332
-817.35977
-816.03696
-806.2478
-814.07336
-813.49812
-813.45617
-813.50714
-813.55194
-813.24332
-806.53465
-808.75396
-820.36761
-813.4452
-817.95764
-817.74793
-817.74547
-817.79921
-817.83179
-817.35977
-808.75396
-824.01185
-820.98226
-803.67492
-816.2029
-815.01982
-814.9512
-814.97508
-814.97597
-814.65141
-811.75525
-816.14704
-803.67492
-802.41362
-810.00324
-809.03526
-808.98703
-809.0134
-809.00266
-808.40093
-801.88032
-809.16904
-816.2029
-810.00324
-817.91837
-816.99855
-816.95954
-816.99794
-817.04556
-816.70862
-809.82107
-813.73403
-815.01982
-809.03526
-816.99855
-816.08912
-816.05454
-816.0929
-816.13592
-815.87222
-809.23866
-813.52375
-814.9512
-808.98703
-816.95954
-816.05454
-816.02569
-816.06891
-816.10906
-815.83599
-809.19759
-813.52337
-814.97508
-809.0134
-816.99794
-816.0929
-816.06891
-816.11872
-816.16405
-815.89342
-809.25168
-813.58039
-814.97597
-809.00266
-817.04556
-816.13592
-816.10906
-816.16405
-816.21407
-815.94597
-809.29973
-813.61594
-814.65141
-808.40093
-816.70862
-815.87222
-815.83599
-815.89342
-815.94597
-815.67273
-808.98781
-813.13482
-811.75525
-801.88032
-809.82107
-809.23866
-809.19759
-809.25168
-809.29973
-808.98781
-802.05006
-804.20453
-816.14704
-809.16904
-813.73403
-813.52375
-813.52337
-813.58039
-813.61594
-813.13482
-804.20453
-819.91491
-814.47716
-797.20845
-809.82416
-808.63078
-808.56285
-808.58917
-808.59193
-808.26086
-805.27624
-809.697
-797.20845
-796.04285
-803.6901
-802.71303
-802.66578
-802.69471
-802.68639
-802.07631
-795.38266
-802.70915
-809.82416
-803.6901
-811.66377
-810.73547
-810.6976
-810.7387
-810.78966
-810.45129
-803.38645
-807.29696
-808.63078
-802.71303
-810.73547
-809.8177
-809.78433
-809.82533
-809.87137
-809.60759
-802.80057
-807.08743
-808.56285
-802.66578
-810.6976
-809.78433
-809.75678
-809.8027
-809.84576
-809.57248
-802.76063
-807.0891
-808.58917
-802.69471
-810.7387
-809.82533
-809.8027
-809.85532
-809.90362
-809.63278
-802.81744
-807.14899
-808.59193
-802.68639
-810.78966
-809.87137
-809.84576
-809.90362
-809.95667
-809.68838
-802.86839
-807.18723
-808.26086
-802.07631
-810.45129
-809.60759
-809.57248
-809.63278
-809.68838
-809.41486
-802.55524
-806.70023
-805.27624
-795.38266
-803.38645
-802.80057
-802.76063
-802.81744
-802.86839
-802.55524
-795.43567
-797.50623
-809.697
-802.70915
-807.29696
-807.08743
-807.0891
-807.14899
-807.18723
-806.70023
-797.50623
-813.55624
-805.76929
-788.64954
-801.27209
-800.076
-800.00919
-800.03774
-800.04232
-799.70691
-796.65392
-801.07278
-788.64954
-787.58744
-795.2431
-794.26316
-794.21719
-794.24846
-794.24258
-793.62811
-786.8061
-794.1193
-801.27209
-795.2431
-803.22403
-802.29316
-802.25666
-802.30016
-802.35411
-802.0165
-794.82149
-798.70069
-800.076
-794.26316
-802.29316
-801.3729
-801.34094
-801.38428
-801.43301
-801.17086
-794.23584
-798.49321
-800.00919
-794.21719
-802.25666
-801.34094
-801.31484
-801.36315
-801.40879
-801.13707
-794.19725
-798.49689
-800.03774
-794.24846
-802.30016
-801.38428
-801.36315
-801.4182
-801.4691
-801.19982
-794.2564
-798.55923
-800.04232
-794.24258
-802.35411
-801.43301
-801.40879
-801.4691
-801.52479
-801.25807
-794.30987
-798.59987
-799.70691
-793.62811
-802.0165
-801.17086
-801.13707
-801.19982
-801.25807
-800.98602
-793.99753
-798.11018
-796.65392
-786.8061
-794.82149
-794.23584
-794.19725
-794.2564
-794.30987
-793.99753
-786.74368
-788.71389
-801.07278
-794.1193
-798.70069
-798.49321
-798.49689
-798.55923
-798.59987
-798.11018
-788.71389
-804.99246
-794.92666
-778.06135
-790.61145
-789.42018
-789.35488
-789.38545
-789.39179
-789.0542
-785.953
-790.34053
-778.06135
-777.10817
-784.72412
-783.74748
-783.70304
-783.73642
-783.73298
-783.11808
-776.2124
-783.46395
-790.61145
-784.72412
-792.66214
-791.73456
-791.69963
-791.74521
-791.80176
-791.46705
-784.18897
-788.01033
-789.42018
-783.74748
-791.73456
-790.81761
-790.78722
-790.8326
-790.88365
-790.62479
-783.60721
-787.80617
-789.35488
-783.70304
-791.69963
-790.78722
-790.76271
-790.81306
-790.86096
-790.5925
-783.57019
-787.81181
-789.38545
-783.73642
-791.74521
-790.8326
-790.81306
-790.87016
-790.9233
-790.65726
-783.63125
-787.87616
-789.39179
-783.73298
-791.80176
-790.88365
-790.86096
-790.9233
-790.98123
-790.71774
-783.68686
-787.9189
-789.0542
-783.11808
-791.46705
-790.62479
-790.5925
-790.65726
-790.71774
-790.44889
-783.37731
-787.42967
-785.953
-776.2124
-784.18897
-783.60721
-783.57019
-783.63125
-783.68686
-783.37731
-776.03672
-777.89277
-790.34053
-783.46395
-788.01033
-787.80617
-787.81181
-787.87616
-787.9189
-787.42967
-777.89277
-794.29123
-782.02749
-765.51681
-777.91718
-776.73816
-776.67474
-776.7071
-776.71512
-776.3775
-773.24824
-777.57655
-765.51681
-764.67568
-772.20513
-771.23788
-771.19521
-771.23046
-771.22943
-770.61796
-763.6731
-770.81753
-777.91718
-772.20513
-780.05145
-779.13292
-779.09976
-779.1471
-779.20584
-778.87609
-771.56171
-775.3011
-776.73816
-771.23788
-779.13292
-778.22499
-778.19633
-778.24342
-778.29644
-778.04245
-770.98745
-775.10152
-776.67474
-771.19521
-779.09976
-778.19633
-778.17353
-778.22556
-778.27537
-778.01184
-770.9522
-775.10904
-776.7071
-771.23046
-779.1471
-778.24342
-778.22556
-778.28432
-778.33933
-778.07816
-771.01476
-775.17496
-776.71512
-771.22943
-779.20584
-778.29644
-778.27537
-778.33933
-778.39909
-778.14046
-771.07212
-775.21949
-776.3775
-770.61796
-778.87609
-778.04245
-778.01184
-778.07816
-778.14046
-777.87645
-770.76727
-774.7338
-773.24824
-763.6731
-771.56171
-770.98745
-770.9522
-771.01476
-771.07212
-770.76727
-763.38716
-765.11786
-777.57655
-770.81753
-775.3011
-775.10152
-775.10904
-775.17496
-775.21949
-774.7338
-765.11786
-781.53044
-767.15943
-751.09793
-763.27368
-762.1142
-762.05302
-762.08692
-762.09653
-761.761
-758.62365
-762.86653
-751.09793
-750.36977
-757.76752
-756.81562
-756.77495
-756.8118
-756.81315
-756.20889
-749.26882
-756.26368
-763.27368
-757.76752
-765.47495
-764.57114
-764.5399
-764.58866
-764.64918
-764.32639
-757.02189
-760.65759
-762.1142
-756.81562
-764.57114
-763.67781
-763.65103
-763.69949
-763.75411
-763.50651
-756.45866
-760.4638
-762.05302
-756.77495
-764.5399
-763.65103
-763.63004
-763.68339
-763.73476
-763.47772
-756.42536
-760.47313
-762.08692
-756.8118
-764.58866
-763.69949
-763.68339
-763.7434
-763.79989
-763.54516
-756.48899
-760.54017
-762.09653
-756.81315
-764.64918
-763.75411
-763.73476
-763.79989
-763.86107
-763.60884
-756.54771
-760.58618
-761.761
-756.20889
-764.32639
-763.50651
-763.47772
-763.54516
-763.60884
-763.35127
-756.24941
-760.10703
-758.62365
-749.26882
-757.02189
-756.45866
-756.42536
-756.48899
-756.54771
-756.24941
-748.87644
-750.47313
-762.86653
-756.26368
-760.65759
-760.4638
-760.47313
-760.54017
-760.58618
-760.10703
-750.47313
-766.79751
-750.41887
-734.89506
-746.77412
-745.64126
-745.58265
-745.61784
-745.62897
-745.29757
-742.17187
-746.30484
-734.89506
-734.27875
-741.50139
-740.57062
-740.53216
-740.57034
-740.57402
-739.98065
-733.0886
-739.89457
-746.77412
-741.50139
-749.02459
-748.141
-748.11184
-748.16168
-748.22356
-747.90962
-740.66032
-744.17306
-745.64126
-740.57062
-748.141
-747.26772
-747.24293
-747.29244
-747.34827
-747.10849
-740.11156
-743.98622
-745.58265
-740.53216
-748.11184
-747.24293
-747.22384
-747.27815
-747.33072
-747.08168
-740.08038
-743.99727
-745.61784
-740.57034
-748.16168
-747.29244
-747.27815
-747.339
-747.39658
-747.14979
-740.14467
-744.06499
-745.62897
-740.57402
-748.22356
-747.34827
-747.33072
-747.39658
-747.45877
-747.21442
-740.20434
-744.11216
-745.29757
-739.98065
-747.90962
-747.10849
-747.08168
-747.14979
-747.21442
-746.96478
-739.91436
-743.64246
-742.17187
-733.0886
-740.66032
-740.11156
-740.08038
-740.14467
-740.20434
-739.91436
-732.59435
-734.05084
-746.30484
-739.89457
-744.17306
-743.98622
-743.99727
-744.06499
-744.11216
-743.64246
-734.05084
-750.18858
-731.91014
-717.00624
-728.51969
-727.42032
-727.36458
-727.40081
-727.41333
-727.0881
-723.99337
-727.99376
-717.00624
-716.4987
-723.50483
-722.60081
-722.56474
-722.60398
-722.60992
-722.03099
-715.22919
-721.81018
-728.51969
-723.50483
-730.80056
-729.94251
-729.91554
-729.96612
-730.02893
-729.72564
-722.57576
-725.94867
-727.42032
-722.60081
-729.94251
-729.09452
-729.07183
-729.12204
-729.1787
-728.94811
-722.04478
-725.76992
-727.36458
-722.56474
-729.91554
-729.07183
-729.05471
-729.10961
-729.16302
-728.92339
-722.0159
-725.78258
-727.40081
-722.60398
-729.96612
-729.12204
-729.10961
-729.1709
-729.22919
-728.99173
-722.08041
-725.85054
-727.41333
-722.60992
-730.02893
-729.1787
-729.16302
-729.22919
-729.29197
-729.05688
-722.14064
-725.89855
-727.0881
-722.03099
-729.72564
-728.94811
-728.92339
-728.99173
-729.05688
-728.81661
-721.86065
-725.44109
-723.99337
-715.22919
-722.57576
-722.04478
-722.0159
-722.08041
-722.14064
-721.86065
-714.63833
-715.95082
-727.99376
-721.81018
-725.94867
-725.76992
-725.78258
-725.85054
-725.89855
-725.44109
-715.95082
-731.80778
-711.74481
-697.53649
-708.61888
-707.55961
-707.50701
-707.54401
-707.55783
-707.2407
-704.1958
-708.04279
-697.53649
-697.13286
-703.88328
-703.01139
-702.97787
-703.01789
-703.026
-702.4649
-695.79438
-702.11757
-708.61888
-703.88328
-710.91053
-710.08312
-710.05846
-710.10944
-710.17275
-709.88179
-702.87422
-706.09282
-707.55961
-703.01139
-710.08312
-709.26548
-709.24497
-709.29554
-709.35265
-709.13251
-702.36421
-705.92321
-707.50701
-702.97787
-710.05846
-709.24497
-709.22987
-709.285
-709.33889
-709.10999
-702.33775
-705.93739
-707.54401
-703.01789
-710.10944
-709.29554
-709.285
-709.34632
-709.40493
-709.17811
-702.40208
-706.00515
-707.55783
-703.026
-710.17275
-709.35265
-709.33889
-709.40493
-709.46789
-709.24337
-702.46248
-706.05368
-707.2407
-702.4649
-709.88179
-709.13251
-709.10999
-709.17811
-709.24337
-709.01379
-702.19406
-705.61115
-704.1958
-695.79438
-702.87422
-702.36421
-702.33775
-702.40208
-702.46248
-702.19406
-695.11282
-696.27976
-708.04279
-702.11757
-706.09282
-705.92321
-705.93739
-706.00515
-706.05368
-705.61115
-696.27976
-711.76652
-690.04095
-676.59713
-687.18681
-686.17391
-686.1247
-686.16222
-686.17721
-685.87005
-682.89323
-686.56793
-676.59713
-676.29091
-682.74876
-681.91413
-681.8833
-681.92381
-681.93401
-681.39398
-674.89432
-680.93022
-687.18681
-682.74876
-689.469
-688.6771
-688.65483
-688.70584
-688.76923
-688.49219
-681.66824
-684.72039
-686.17391
-681.91413
-688.6771
-687.89461
-687.87634
-687.92693
-687.98411
-687.77558
-681.18222
-684.56093
-686.1247
-681.8833
-688.65483
-687.87634
-687.8633
-687.91828
-687.9723
-687.75536
-681.15832
-684.5765
-686.16222
-681.92381
-688.70584
-687.92693
-687.91828
-687.97924
-688.03778
-687.82283
-681.22204
-684.64364
-686.17721
-681.93401
-688.76923
-687.98411
-687.9723
-688.03778
-688.10052
-687.88777
-681.28223
-684.69238
-685.87005
-681.39398
-688.49219
-687.77558
-687.75536
-687.82283
-687.88777
-687.67012
-681.02685
-684.2673
-682.89323
-674.89432
-681.66824
-681.18222
-681.15832
-681.22204
-681.28223
-681.02685
-674.12852
-675.15051
-686.56793
-680.93022
-684.72039
-684.56093
-684.5765
-684.64364
-684.69238
-684.2673
-675.15051
-690.18266
-666.9224
-654.30508
-664.34446
-663.38387
-663.33828
-663.37603
-663.39207
-663.09665
-660.20549
-663.69093
-654.30508
-654.0883
-660.21925
-659.42673
-659.3987
-659.43941
-659.45157
-658.93567
-652.6448
-658.36727
-664.34446
-660.21925
-666.59653
-665.84473
-665.82492
-665.87561
-665.93865
-665.67697
-659.07619
-661.95204
-663.38387
-659.42673
-665.84473
-665.10193
-665.08595
-665.13621
-665.19309
-664.99724
-658.61701
-661.80367
-663.33828
-659.3987
-665.82492
-665.08595
-665.07498
-665.12945
-665.18324
-664.97939
-658.59578
-661.8205
-663.37603
-659.43941
-665.87561
-665.13621
-665.12945
-665.18964
-665.24774
-665.04576
-658.6585
-661.88659
-663.39207
-659.45157
-665.93865
-665.19309
-665.18324
-665.24774
-665.30985
-665.10998
-658.71809
-661.93522
-663.09665
-658.93567
-665.67697
-664.99724
-664.97939
-665.04576
-665.10998
-664.9054
-658.47711
-661.52998
-660.20549
-652.6448
-659.07619
-658.61701
-658.59578
-658.6585
-658.71809
-658.47711
-651.80174
-652.6814
-663.69093
-658.36727
-661.95204
-661.80367
-661.8205
-661.88659
-661.93522
-661.52998
-652.6814
-667.17986
-642.51802
-630.7822
-640.21798
-639.31527
-639.27347
-639.31118
-639.32813
-639.04613
-636.25741
-639.53855
-630.7822
-630.64557
-636.41793
-635.67205
-635.6469
-635.68752
-635.7015
-635.21258
-629.16662
-634.55283
-640.21798
-636.41793
-642.41905
-641.71164
-641.69433
-641.74436
-641.80661
-641.56162
-635.22157
-637.91348
-639.31527
-635.67205
-641.71164
-641.01279
-640.99912
-641.0487
-641.10489
-640.92268
-634.7919
-637.77704
-639.27347
-635.6469
-641.69433
-640.99912
-640.9902
-641.04379
-641.097
-640.90725
-634.77341
-637.79501
-639.31118
-635.68752
-641.74436
-641.0487
-641.04379
-641.10282
-641.16011
-640.97211
-634.83473
-637.85962
-639.32813
-635.7015
-641.80661
-641.10489
-641.097
-641.16011
-641.22119
-641.03518
-634.89334
-637.90783
-639.04613
-635.21258
-641.56162
-640.92268
-640.90725
-640.97211
-641.03518
-640.84469
-634.668
-637.52465
-636.25741
-629.16662
-635.22157
-634.7919
-634.77341
-634.83473