/*--------------------------------*- C++ -*----------------------------------*\
| =========                 |                                                 |
| \\      /  F ield         | OpenFOAM: The Open Source CFD Toolbox           |
|  \\    /   O peration     | Version:  v2106                                 |
|   \\  /    A nd           | Website:  www.openfoam.com                      |
|    \\/     M anipulation  |                                                 |
\*---------------------------------------------------------------------------*/
FoamFile
{
    version     2.0;
    format      ascii;
    arch        "LSB;label=32;scalar=64";
    class       volScalarField;
    location    "37.5";
    object      T;
}
// * * * * * * * * * * * * * * * * * * * * * * * * * * * * * * * * * * * * * //

dimensions      [0 0 0 1 0 0 0];

internalField   nonuniform List<scalar> 
4000
(
275.2981
275.29806
275.29808
275.29809
275.29809
275.29809
275.29809
275.29809
275.29809
275.29809
275.29806
275.29805
275.29807
275.29808
275.29808
275.29808
275.29808
275.29808
275.29808
275.29808
275.29808
275.29807
275.29809
275.2981
275.2981
275.2981
275.2981
275.2981
275.29809
275.29809
275.29809
275.29808
275.2981
275.29811
275.29811
275.29811
275.29811
275.2981
275.2981
275.29809
275.29809
275.29808
275.2981
275.29811
275.29811
275.29811
275.29811
275.29811
275.2981
275.29809
275.29809
275.29808
275.2981
275.29811
275.29811
275.29811
275.29811
275.29811
275.2981
275.29809
275.29809
275.29808
275.2981
275.29811
275.29811
275.29811
275.29811
275.2981
275.29809
275.29809
275.29809
275.29808
275.2981
275.2981
275.29811
275.29811
275.2981
275.2981
275.29809
275.29808
275.29809
275.29808
275.29809
275.2981
275.2981
275.2981
275.29809
275.29809
275.29808
275.29808
275.29809
275.29808
275.29809
275.29809
275.29809
275.29809
275.29809
275.29808
275.29808
275.29808
284.27553
284.27539
284.27548
284.27552
284.27555
284.27555
284.27555
284.27554
284.27553
284.27554
284.27539
284.27535
284.27544
284.27548
284.2755
284.27551
284.2755
284.27548
284.27546
284.27548
284.27548
284.27544
284.27552
284.27556
284.27558
284.27559
284.27558
284.27555
284.27553
284.27552
284.27552
284.27548
284.27556
284.2756
284.27562
284.27562
284.27561
284.27558
284.27555
284.27555
284.27555
284.2755
284.27558
284.27562
284.27564
284.27564
284.27562
284.2756
284.27556
284.27555
284.27555
284.27551
284.27559
284.27562
284.27564
284.27564
284.27562
284.27559
284.27556
284.27555
284.27555
284.2755
284.27558
284.27561
284.27562
284.27562
284.27561
284.27558
284.27554
284.27553
284.27554
284.27548
284.27555
284.27558
284.2756
284.27559
284.27558
284.27555
284.27552
284.27551
284.27553
284.27546
284.27553
284.27555
284.27556
284.27556
284.27554
284.27552
284.27548
284.27548
284.27554
284.27548
284.27552
284.27555
284.27555
284.27555
284.27553
284.27551
284.27548
284.27548
293.18583
293.18564
293.18578
293.18585
293.18589
293.1859
293.18589
293.18586
293.18585
293.18588
293.18564
293.18559
293.18573
293.1858
293.18583
293.18584
293.18583
293.18579
293.18575
293.18579
293.18578
293.18573
293.18586
293.18593
293.18596
293.18597
293.18595
293.1859
293.18585
293.18586
293.18585
293.1858
293.18593
293.18599
293.18602
293.18603
293.186
293.18596
293.18589
293.18589
293.18589
293.18583
293.18596
293.18602
293.18605
293.18605
293.18603
293.18598
293.18591
293.18591
293.1859
293.18584
293.18597
293.18603
293.18605
293.18605
293.18602
293.18597
293.1859
293.1859
293.18589
293.18583
293.18595
293.186
293.18603
293.18602
293.18599
293.18594
293.18587
293.18587
293.18586
293.18579
293.1859
293.18596
293.18598
293.18597
293.18594
293.18588
293.18582
293.18582
293.18585
293.18575
293.18585
293.18589
293.18591
293.1859
293.18587
293.18582
293.18575
293.18576
293.18588
293.18579
293.18586
293.18589
293.18591
293.1859
293.18587
293.18582
293.18576
293.1858
302.02675
302.02652
302.02671
302.0268
302.02685
302.02687
302.02685
302.02681
302.02677
302.02682
302.02652
302.02647
302.02665
302.02674
302.02679
302.0268
302.02677
302.02672
302.02665
302.02671
302.02671
302.02665
302.02682
302.02691
302.02696
302.02697
302.02693
302.02687
302.02678
302.02679
302.0268
302.02674
302.02691
302.027
302.02704
302.02705
302.02701
302.02694
302.02683
302.02684
302.02685
302.02679
302.02696
302.02704
302.02708
302.02708
302.02704
302.02696
302.02685
302.02686
302.02687
302.0268
302.02697
302.02705
302.02708
302.02708
302.02703
302.02695
302.02684
302.02685
302.02685
302.02677
302.02693
302.02701
302.02704
302.02703
302.02699
302.0269
302.02679
302.0268
302.02681
302.02672
302.02687
302.02694
302.02696
302.02695
302.0269
302.02682
302.02671
302.02672
302.02677
302.02665
302.02678
302.02683
302.02685
302.02684
302.02679
302.02671
302.02661
302.02663
302.02682
302.02671
302.02679
302.02684
302.02686
302.02685
302.0268
302.02672
302.02663
302.02671
310.79615
310.79589
310.79612
310.79623
310.79629
310.79631
310.79628
310.79622
310.79616
310.79623
310.79589
310.79583
310.79605
310.79616
310.79622
310.79623
310.79619
310.79612
310.79602
310.79609
310.79612
310.79605
310.79626
310.79638
310.79643
310.79644
310.79639
310.7963
310.79617
310.79619
310.79623
310.79616
310.79638
310.79648
310.79653
310.79653
310.79648
310.79638
310.79624
310.79625
310.79629
310.79622
310.79643
310.79653
310.79658
310.79658
310.79652
310.79641
310.79626
310.79627
310.79631
310.79623
310.79644
310.79653
310.79658
310.79657
310.7965
310.79639
310.79624
310.79625
310.79628
310.79619
310.79639
310.79648
310.79652
310.7965
310.79644
310.79632
310.79617
310.79618
310.79622
310.79612
310.7963
310.79638
310.79641
310.79639
310.79632
310.79621
310.79606
310.79607
310.79616
310.79602
310.79617
310.79624
310.79626
310.79624
310.79617
310.79606
310.79592
310.79595
310.79623
310.79609
310.79619
310.79625
310.79627
310.79625
310.79618
310.79607
310.79595
310.79607
319.49205
319.49176
319.49203
319.49217
319.49223
319.49225
319.49221
319.49213
319.49205
319.49212
319.49176
319.4917
319.49196
319.49209
319.49216
319.49216
319.49211
319.49201
319.49188
319.49196
319.49203
319.49196
319.49221
319.49234
319.4924
319.4924
319.49234
319.49222
319.49205
319.49208
319.49217
319.49209
319.49234
319.49246
319.49252
319.49252
319.49245
319.49232
319.49213
319.49215
319.49223
319.49216
319.4924
319.49252
319.49258
319.49256
319.49249
319.49235
319.49215
319.49217
319.49225
319.49216
319.4924
319.49252
319.49256
319.49255
319.49247
319.49232
319.49212
319.49213
319.49221
319.49211
319.49234
319.49245
319.49249
319.49247
319.49238
319.49224
319.49204
319.49205
319.49213
319.49201
319.49222
319.49232
319.49235
319.49232
319.49224
319.49209
319.49189
319.49191
319.49205
319.49188
319.49205
319.49213
319.49215
319.49212
319.49204
319.49189
319.49171
319.49174
319.49212
319.49196
319.49208
319.49215
319.49217
319.49213
319.49205
319.49191
319.49174
319.49191
328.11267
328.11235
328.11266
328.11281
328.11289
328.1129
328.11284
328.11274
328.11264
328.11272
328.11235
328.11229
328.11258
328.11273
328.1128
328.11281
328.11274
328.11261
328.11245
328.11254
328.11266
328.11258
328.11286
328.11301
328.11308
328.11308
328.113
328.11285
328.11264
328.11268
328.11281
328.11273
328.11301
328.11316
328.11322
328.11321
328.11312
328.11296
328.11273
328.11275
328.11289
328.1128
328.11308
328.11322
328.11328
328.11326
328.11317
328.11299
328.11276
328.11277
328.1129
328.11281
328.11308
328.11321
328.11326
328.11324
328.11314
328.11296
328.11272
328.11272
328.11284
328.11274
328.113
328.11312
328.11317
328.11314
328.11303
328.11285
328.11261
328.11262
328.11274
328.11261
328.11285
328.11296
328.11299
328.11296
328.11285
328.11267
328.11243
328.11245
328.11264
328.11245
328.11264
328.11273
328.11276
328.11272
328.11261
328.11243
328.1122
328.11224
328.11272
328.11254
328.11268
328.11275
328.11277
328.11272
328.11262
328.11245
328.11224
328.11244
336.65641
336.65606
336.65641
336.65658
336.65666
336.65666
336.6566
336.65648
336.65635
336.65644
336.65606
336.656
336.65633
336.65649
336.65657
336.65657
336.65649
336.65634
336.65614
336.65624
336.65641
336.65633
336.65664
336.65681
336.65688
336.65687
336.65678
336.6566
336.65635
336.65639
336.65658
336.65649
336.65681
336.65697
336.65704
336.65702
336.65691
336.65672
336.65645
336.65647
336.65666
336.65657
336.65688
336.65704
336.6571
336.65707
336.65696
336.65675
336.65647
336.65648
336.65666
336.65657
336.65687
336.65702
336.65707
336.65704
336.65692
336.65671
336.65642
336.65643
336.6566
336.65649
336.65678
336.65691
336.65696
336.65692
336.6568
336.65658
336.65629
336.6563
336.65648
336.65634
336.6566
336.65672
336.65675
336.65671
336.65658
336.65637
336.65609
336.6561
336.65635
336.65614
336.65635
336.65645
336.65647
336.65642
336.65629
336.65609
336.65582
336.65586
336.65644
336.65624
336.65639
336.65647
336.65648
336.65643
336.6563
336.6561
336.65586
336.65609
345.12188
345.12152
345.1219
345.12208
345.12217
345.12217
345.12209
345.12195
345.12179
345.12189
345.12152
345.12146
345.12181
345.122
345.12208
345.12208
345.12198
345.1218
345.12157
345.12168
345.1219
345.12181
345.12216
345.12234
345.12242
345.12241
345.1223
345.12209
345.1218
345.12183
345.12208
345.122
345.12234
345.12252
345.12259
345.12256
345.12244
345.12222
345.12191
345.12192
345.12217
345.12208
345.12242
345.12259
345.12265
345.12262
345.12249
345.12225
345.12193
345.12193
345.12217
345.12208
345.12241
345.12256
345.12262
345.12258
345.12244
345.12219
345.12187
345.12187
345.12209
345.12198
345.1223
345.12244
345.12249
345.12244
345.12229
345.12205
345.12172
345.12172
345.12195
345.1218
345.12209
345.12222
345.12225
345.12219
345.12205
345.1218
345.12148
345.12148
345.12179
345.12157
345.1218
345.12191
345.12193
345.12187
345.12172
345.12148
345.12117
345.12121
345.12189
345.12168
345.12183
345.12192
345.12193
345.12187
345.12172
345.12148
345.12121
345.12146
353.50793
353.50754
353.50795
353.50816
353.50825
353.50824
353.50815
353.50798
353.50781
353.5079
353.50754
353.50749
353.50787
353.50807
353.50816
353.50815
353.50804
353.50783
353.50757
353.50768
353.50795
353.50787
353.50825
353.50844
353.50853
353.50851
353.50838
353.50815
353.50782
353.50785
353.50816
353.50807
353.50844
353.50863
353.5087
353.50867
353.50853
353.50828
353.50793
353.50793
353.50825
353.50816
353.50853
353.5087
353.50877
353.50873
353.50858
353.50831
353.50795
353.50794
353.50824
353.50815
353.50851
353.50867
353.50873
353.50868
353.50852
353.50825
353.50788
353.50787
353.50815
353.50804
353.50838
353.50853
353.50858
353.50852
353.50836
353.50808
353.50771
353.5077
353.50798
353.50783
353.50815
353.50828
353.50831
353.50825
353.50808
353.5078
353.50744
353.50744
353.50781
353.50757
353.50782
353.50793
353.50795
353.50788
353.50771
353.50744
353.50708
353.50712
353.5079
353.50768
353.50785
353.50793
353.50794
353.50787
353.5077
353.50744
353.50712
353.5074
361.81359
361.8132
361.81364
361.81385
361.81395
361.81394
361.81383
361.81364
361.81344
361.81354
361.8132
361.81315
361.81356
361.81377
361.81386
361.81384
361.81372
361.81349
361.81319
361.8133
361.81364
361.81356
361.81396
361.81417
361.81425
361.81422
361.81408
361.81382
361.81346
361.81348
361.81385
361.81377
361.81417
361.81436
361.81444
361.8144
361.81425
361.81396
361.81357
361.81357
361.81395
361.81386
361.81425
361.81444
361.81451
361.81446
361.81429
361.81399
361.81359
361.81358
361.81394
361.81384
361.81422
361.8144
361.81446
361.8144
361.81422
361.81392
361.81351
361.81349
361.81383
361.81372
361.81408
361.81425
361.81429
361.81422
361.81404
361.81373
361.81332
361.8133
361.81364
361.81349
361.81382
361.81396
361.81399
361.81392
361.81373
361.81342
361.81302
361.81301
361.81344
361.81319
361.81346
361.81357
361.81359
361.81351
361.81332
361.81302
361.81263
361.81266
361.81354
361.8133
361.81348
361.81357
361.81358
361.81349
361.8133
361.81301
361.81266
361.81296
370.03816
370.03775
370.03822
370.03844
370.03854
370.03853
370.03841
370.0382
370.03797
370.03807
370.03775
370.03771
370.03814
370.03836
370.03846
370.03844
370.0383
370.03804
370.03772
370.03783
370.03822
370.03814
370.03857
370.03879
370.03887
370.03884
370.03868
370.0384
370.038
370.03801
370.03844
370.03836
370.03879
370.03899
370.03907
370.03903
370.03885
370.03854
370.03812
370.03811
370.03854
370.03846
370.03887
370.03907
370.03914
370.03908
370.0389
370.03857
370.03813
370.03811
370.03853
370.03844
370.03884
370.03903
370.03908
370.03901
370.03882
370.03849
370.03804
370.03801
370.03841
370.0383
370.03868
370.03885
370.0389
370.03882
370.03862
370.03828
370.03783
370.03781
370.0382
370.03804
370.0384
370.03854
370.03857
370.03849
370.03828
370.03795
370.0375
370.03749
370.03797
370.03772
370.038
370.03812
370.03813
370.03804
370.03783
370.0375
370.03707
370.0371
370.03807
370.03783
370.03801
370.03811
370.03811
370.03801
370.03781
370.03749
370.0371
370.03742
378.18113
378.18072
378.1812
378.18144
378.18154
378.18152
378.18139
378.18116
378.18091
378.181
378.18072
378.18068
378.18113
378.18136
378.18146
378.18143
378.18128
378.18101
378.18065
378.18076
378.1812
378.18113
378.18158
378.18181
378.1819
378.18185
378.18168
378.18137
378.18094
378.18095
378.18144
378.18136
378.18181
378.18202
378.1821
378.18205
378.18186
378.18153
378.18107
378.18105
378.18154
378.18146
378.1819
378.1821
378.18217
378.1821
378.1819
378.18155
378.18108
378.18105
378.18152
378.18143
378.18185
378.18205
378.1821
378.18203
378.18182
378.18146
378.18097
378.18094
378.18139
378.18128
378.18168
378.18186
378.1819
378.18182
378.1816
378.18123
378.18075
378.18071
378.18116
378.18101
378.18137
378.18153
378.18155
378.18146
378.18123
378.18087
378.18039
378.18037
378.18091
378.18065
378.18094
378.18107
378.18108
378.18097
378.18075
378.18039
378.17993
378.17995
378.181
378.18076
378.18095
378.18105
378.18105
378.18094
378.18071
378.18037
378.17995
378.18028
386.24223
386.24182
386.24233
386.24257
386.24268
386.24265
386.24251
386.24226
386.24199
386.24208
386.24182
386.24179
386.24227
386.2425
386.2426
386.24257
386.2424
386.24211
386.24173
386.24183
386.24233
386.24227
386.24273
386.24296
386.24305
386.24301
386.24282
386.24249
386.24203
386.24202
386.24257
386.2425
386.24296
386.24319
386.24327
386.24321
386.243
386.24265
386.24215
386.24212
386.24268
386.2426
386.24305
386.24327
386.24333
386.24326
386.24304
386.24267
386.24216
386.24212
386.24265
386.24257
386.24301
386.24321
386.24326
386.24318
386.24295
386.24256
386.24205
386.242
386.24251
386.2424
386.24282
386.243
386.24304
386.24295
386.24271
386.24232
386.24181
386.24176
386.24226
386.24211
386.24249
386.24265
386.24267
386.24256
386.24232
386.24194
386.24142
386.24139
386.24199
386.24173
386.24203
386.24215
386.24216
386.24205
386.24181
386.24142
386.24093
386.24094
386.24208
386.24183
386.24202
386.24212
386.24212
386.242
386.24176
386.24139
386.24094
386.24129
394.22144
394.22104
394.22156
394.22181
394.22191
394.22188
394.22173
394.22146
394.22117
394.22125
394.22104
394.22101
394.2215
394.22175
394.22184
394.2218
394.22163
394.22131
394.22091
394.221
394.22156
394.2215
394.22198
394.22222
394.22231
394.22225
394.22206
394.2217
394.22122
394.2212
394.22181
394.22175
394.22222
394.22245
394.22253
394.22246
394.22224
394.22186
394.22134
394.22131
394.22191
394.22184
394.22231
394.22253
394.22259
394.22251
394.22228
394.22189
394.22135
394.2213
394.22188
394.2218
394.22225
394.22246
394.22251
394.22242
394.22218
394.22177
394.22123
394.22117
394.22173
394.22163
394.22206
394.22224
394.22228
394.22218
394.22193
394.22152
394.22097
394.22091
394.22146
394.22131
394.2217
394.22186
394.22189
394.22177
394.22152
394.22111
394.22057
394.22052
394.22117
394.22091
394.22122
394.22134
394.22135
394.22123
394.22097
394.22057
394.22004
394.22005
394.22125
394.221
394.2212
394.22131
394.2213
394.22117
394.22091
394.22052
394.22005
394.2204
402.11895
402.11854
402.11908
402.11934
402.11944
402.1194
402.11924
402.11896
402.11865
402.11872
402.11854
402.11853
402.11903
402.11928
402.11938
402.11933
402.11914
402.11881
402.11838
402.11847
402.11908
402.11903
402.11952
402.11976
402.11985
402.11979
402.11958
402.11921
402.1187
402.11868
402.11934
402.11928
402.11976
402.12
402.12007
402.12
402.11977
402.11938
402.11883
402.11878
402.11944
402.11938
402.11985
402.12007
402.12014
402.12005
402.11981
402.11939
402.11883
402.11877
402.1194
402.11933
402.11979
402.12
402.12005
402.11995
402.1197
402.11927
402.1187
402.11863
402.11924
402.11914
402.11958
402.11977
402.11981
402.1197
402.11943
402.119
402.11843
402.11836
402.11896
402.11881
402.11921
402.11938
402.11939
402.11927
402.119
402.11857
402.11801
402.11795
402.11865
402.11838
402.1187
402.11883
402.11883
402.1187
402.11843
402.11801
402.11746
402.11745
402.11872
402.11847
402.11868
402.11878
402.11877
402.11863
402.11836
402.11795
402.11745
402.1178
409.93516
409.93477
409.93531
409.93557
409.93567
409.93563
409.93546
409.93516
409.93484
409.93491
409.93477
409.93475
409.93527
409.93552
409.93562
409.93557
409.93537
409.93502
409.93458
409.93466
409.93531
409.93527
409.93577
409.93601
409.9361
409.93604
409.93581
409.93543
409.93489
409.93486
409.93557
409.93552
409.93601
409.93625
409.93633
409.93625
409.936
409.93559
409.93503
409.93497
409.93567
409.93562
409.9361
409.93633
409.93639
409.9363
409.93604
409.93561
409.93502
409.93495
409.93563
409.93557
409.93604
409.93625
409.9363
409.93619
409.93592
409.93548
409.93488
409.93481
409.93546
409.93537
409.93581
409.936
409.93604
409.93592
409.93564
409.9352
409.9346
409.93452
409.93516
409.93502
409.93543
409.93559
409.93561
409.93548
409.9352
409.93475
409.93416
409.93409
409.93484
409.93458
409.93489
409.93503
409.93502
409.93488
409.9346
409.93416
409.93359
409.93357
409.93491
409.93466
409.93486
409.93497
409.93495
409.93481
409.93452
409.93409
409.93357
409.93393
417.67072
417.67034
417.67089
417.67115
417.67125
417.6712
417.67102
417.67071
417.67038
417.67044
417.67034
417.67033
417.67085
417.67111
417.6712
417.67115
417.67094
417.67058
417.67012
417.67019
417.67089
417.67085
417.67136
417.6716
417.67169
417.67162
417.67139
417.67099
417.67044
417.6704
417.67115
417.67111
417.6716
417.67184
417.67191
417.67183
417.67158
417.67115
417.67057
417.6705
417.67125
417.6712
417.67169
417.67191
417.67198
417.67188
417.67161
417.67117
417.67056
417.67048
417.6712
417.67115
417.67162
417.67183
417.67188
417.67176
417.67149
417.67103
417.67042
417.67033
417.67102
417.67094
417.67139
417.67158
417.67161
417.67149
417.6712
417.67074
417.67012
417.67003
417.67071
417.67058
417.67099
417.67115
417.67117
417.67103
417.67074
417.67028
417.66967
417.66959
417.67038
417.67012
417.67044
417.67057
417.67056
417.67042
417.67012
417.66967
417.66908
417.66905
417.67044
417.67019
417.6704
417.6705
417.67048
417.67033
417.67003
417.66959
417.66905
417.6694
425.32648
425.32611
425.32666
425.32692
425.32702
425.32697
425.32678
425.32646
425.32611
425.32616
425.32611
425.32611
425.32663
425.32689
425.32698
425.32692
425.3267
425.32634
425.32586
425.32592
425.32666
425.32663
425.32714
425.32739
425.32747
425.32739
425.32716
425.32675
425.32618
425.32613
425.32692
425.32689
425.32739
425.32762
425.32769
425.3276
425.32735
425.32691
425.32631
425.32623
425.32702
425.32698
425.32747
425.32769
425.32775
425.32765
425.32737
425.32692
425.3263
425.32621
425.32697
425.32692
425.32739
425.3276
425.32765
425.32753
425.32724
425.32678
425.32615
425.32605
425.32678
425.3267
425.32716
425.32735
425.32737
425.32724
425.32695
425.32647
425.32584
425.32575
425.32646
425.32634
425.32675
425.32691
425.32692
425.32678
425.32647
425.326
425.32538
425.32529
425.32611
425.32586
425.32618
425.32631
425.3263
425.32615
425.32584
425.32538
425.32477
425.32473
425.32616
425.32592
425.32613
425.32623
425.32621
425.32605
425.32575
425.32529
425.32473
425.32508
432.9035
432.90314
432.90369
432.90395
432.90405
432.90399
432.90379
432.90347
432.90311
432.90315
432.90314
432.90315
432.90367
432.90392
432.90401
432.90395
432.90373
432.90335
432.90286
432.90291
432.90369
432.90367
432.90418
432.90442
432.9045
432.90442
432.90418
432.90376
432.90318
432.90312
432.90395
432.90392
432.90442
432.90466
432.90472
432.90463
432.90436
432.90392
432.90331
432.90322
432.90405
432.90401
432.9045
432.90472
432.90478
432.90467
432.90439
432.90392
432.90329
432.90319
432.90399
432.90395
432.90442
432.90463
432.90467
432.90455
432.90425
432.90378
432.90314
432.90303
432.90379
432.90373
432.90418
432.90436
432.90439
432.90425
432.90395
432.90347
432.90283
432.90272
432.90347
432.90335
432.90376
432.90392
432.90392
432.90378
432.90347
432.90299
432.90235
432.90225
432.90311
432.90286
432.90318
432.90331
432.90329
432.90314
432.90283
432.90235
432.90174
432.90169
432.90315
432.90291
432.90312
432.90322
432.90319
432.90303
432.90272
432.90225
432.90169
432.90203
440.40304
440.40269
440.40324
440.4035
440.40359
440.40353
440.40333
440.403
440.40263
440.40266
440.40269
440.40271
440.40323
440.40348
440.40356
440.40349
440.40327
440.40289
440.40239
440.40243
440.40324
440.40323
440.40373
440.40397
440.40405
440.40396
440.40371
440.40329
440.40271
440.40264
440.4035
440.40348
440.40397
440.4042
440.40426
440.40417
440.4039
440.40345
440.40283
440.40273
440.40359
440.40356
440.40405
440.40426
440.40432
440.4042
440.40392
440.40345
440.40281
440.4027
440.40353
440.40349
440.40396
440.40417
440.4042
440.40408
440.40378
440.4033
440.40265
440.40253
440.40333
440.40327
440.40371
440.4039
440.40392
440.40378
440.40347
440.40298
440.40234
440.40222
440.403
440.40289
440.40329
440.40345
440.40345
440.4033
440.40298
440.4025
440.40186
440.40175
440.40263
440.40239
440.40271
440.40283
440.40281
440.40265
440.40234
440.40186
440.40123
440.40117
440.40266
440.40243
440.40264
440.40273
440.4027
440.40253
440.40222
440.40175
440.40117
440.40151
447.82655
447.82622
447.82676
447.82701
447.8271
447.82704
447.82683
447.8265
447.82613
447.82615
447.82622
447.82625
447.82676
447.827
447.82708
447.82701
447.82678
447.8264
447.8259
447.82593
447.82676
447.82676
447.82725
447.82749
447.82756
447.82747
447.82722
447.82679
447.82621
447.82613
447.82701
447.827
447.82749
447.82771
447.82777
447.82767
447.8274
447.82695
447.82633
447.82622
447.8271
447.82708
447.82756
447.82777
447.82782
447.8277
447.82741
447.82694
447.8263
447.82619
447.82704
447.82701
447.82747
447.82767
447.8277
447.82757
447.82727
447.82679
447.82614
447.82602
447.82683
447.82678
447.82722
447.8274
447.82741
447.82727
447.82696
447.82647
447.82582
447.8257
447.8265
447.8264
447.82679
447.82695
447.82694
447.82679
447.82647
447.82599
447.82534
447.82522
447.82613
447.8259
447.82621
447.82633
447.8263
447.82614
447.82582
447.82534
447.82471
447.82465
447.82615
447.82593
447.82613
447.82622
447.82619
447.82602
447.8257
447.82522
447.82465
447.82497
455.17568
455.17537
455.1759
455.17614
455.17623
455.17616
455.17595
455.17562
455.17524
455.17526
455.17537
455.17541
455.1759
455.17614
455.17622
455.17614
455.17591
455.17552
455.17502
455.17504
455.1759
455.1759
455.17638
455.17661
455.17668
455.17659
455.17633
455.17591
455.17532
455.17524
455.17614
455.17614
455.17661
455.17683
455.17689
455.17678
455.17651
455.17606
455.17544
455.17532
455.17623
455.17622
455.17668
455.17689
455.17693
455.17681
455.17652
455.17605
455.17541
455.17529
455.17616
455.17614
455.17659
455.17678
455.17681
455.17668
455.17638
455.17589
455.17525
455.17512
455.17595
455.17591
455.17633
455.17651
455.17652
455.17638
455.17607
455.17558
455.17493
455.1748
455.17562
455.17552
455.17591
455.17606
455.17605
455.17589
455.17558
455.17509
455.17445
455.17432
455.17524
455.17502
455.17532
455.17544
455.17541
455.17525
455.17493
455.17445
455.17382
455.17375
455.17526
455.17504
455.17524
455.17532
455.17529
455.17512
455.1748
455.17432
455.17375
455.17406
462.45224
462.45195
462.45246
462.4527
462.45278
462.45271
462.4525
462.45216
462.45179
462.4518
462.45195
462.45199
462.45247
462.4527
462.45277
462.45269
462.45246
462.45208
462.45158
462.45159
462.45246
462.45247
462.45294
462.45316
462.45322
462.45313
462.45287
462.45245
462.45187
462.45178
462.4527
462.4527
462.45316
462.45337
462.45342
462.45331
462.45304
462.45259
462.45198
462.45186
462.45278
462.45277
462.45322
462.45342
462.45346
462.45334
462.45305
462.45258
462.45195
462.45182
462.45271
462.45269
462.45313
462.45331
462.45334
462.4532
462.4529
462.45243
462.45178
462.45165
462.4525
462.45246
462.45287
462.45304
462.45305
462.4529
462.45259
462.45211
462.45147
462.45133
462.45216
462.45208
462.45245
462.45259
462.45258
462.45243
462.45211
462.45163
462.45099
462.45086
462.45179
462.45158
462.45187
462.45198
462.45195
462.45178
462.45147
462.45099
462.45037
462.45029
462.4518
462.45159
462.45178
462.45186
462.45182
462.45165
462.45133
462.45086
462.45029
462.45058
469.6582
469.65793
469.65842
469.65865
469.65872
469.65865
469.65844
469.65811
469.65774
469.65774
469.65793
469.65798
469.65844
469.65866
469.65873
469.65865
469.65842
469.65804
469.65754
469.65755
469.65842
469.65844
469.65889
469.6591
469.65916
469.65906
469.65881
469.6584
469.65782
469.65773
469.65865
469.65866
469.6591
469.6593
469.65935
469.65924
469.65897
469.65853
469.65793
469.6578
469.65872
469.65873
469.65916
469.65935
469.65938
469.65926
469.65898
469.65852
469.6579
469.65776
469.65865
469.65865
469.65906
469.65924
469.65926
469.65913
469.65883
469.65836
469.65773
469.65759
469.65844
469.65842
469.65881
469.65897
469.65898
469.65883
469.65852
469.65805
469.65742
469.65727
469.65811
469.65804
469.6584
469.65853
469.65852
469.65836
469.65805
469.65757
469.65694
469.65681
469.65774
469.65754
469.65782
469.65793
469.6579
469.65773
469.65742
469.65694
469.65633
469.65624
469.65774
469.65755
469.65773
469.6578
469.65776
469.65759
469.65727
469.65681
469.65624
469.65652
476.7957
476.79545
476.79592
476.79614
476.7962
476.79613
476.79592
476.7956
476.79523
476.79522
476.79545
476.7955
476.79594
476.79615
476.79621
476.79613
476.7959
476.79553
476.79505
476.79504
476.79592
476.79594
476.79637
476.79657
476.79662
476.79653
476.79628
476.79587
476.79531
476.79521
476.79614
476.79615
476.79657
476.79676
476.7968
476.7967
476.79643
476.796
476.79541
476.79528
476.7962
476.79621
476.79662
476.7968
476.79683
476.79671
476.79643
476.79598
476.79537
476.79524
476.79613
476.79613
476.79653
476.7967
476.79671
476.79658
476.79628
476.79582
476.79521
476.79507
476.79592
476.7959
476.79628
476.79643
476.79643
476.79628
476.79598
476.79552
476.7949
476.79476
476.7956
476.79553
476.79587
476.796
476.79598
476.79582
476.79552
476.79505
476.79444
476.7943
476.79523
476.79505
476.79531
476.79541
476.79537
476.79521
476.7949
476.79444
476.79384
476.79375
476.79522
476.79504
476.79521
476.79528
476.79524
476.79507
476.79476
476.7943
476.79375
476.79401
483.867
483.86677
483.86722
483.86742
483.86748
483.86741
483.8672
483.86689
483.86653
483.86651
483.86677
483.86682
483.86724
483.86744
483.86749
483.86741
483.86719
483.86682
483.86635
483.86634
483.86722
483.86724
483.86765
483.86784
483.86788
483.86779
483.86755
483.86715
483.8666
483.8665
483.86742
483.86744
483.86784
483.86802
483.86805
483.86794
483.86768
483.86726
483.86669
483.86656
483.86748
483.86749
483.86788
483.86805
483.86808
483.86795
483.86768
483.86724
483.86666
483.86652
483.86741
483.86741
483.86779
483.86794
483.86795
483.86782
483.86754
483.86709
483.86649
483.86635
483.8672
483.86719
483.86755
483.86768
483.86768
483.86754
483.86724
483.86679
483.86619
483.86605
483.86689
483.86682
483.86715
483.86726
483.86724
483.86709
483.86679
483.86634
483.86574
483.86561
483.86653
483.86635
483.8666
483.86669
483.86666
483.86649
483.86619
483.86574
483.86516
483.86507
483.86651
483.86634
483.8665
483.86656
483.86652
483.86635
483.86605
483.86561
483.86507
483.86532
490.8745
490.87429
490.87471
490.8749
490.87495
490.87488
490.87468
490.87437
490.87402
490.874
490.87429
490.87434
490.87474
490.87492
490.87497
490.87489
490.87467
490.87432
490.87386
490.87384
490.87471
490.87474
490.87512
490.8753
490.87534
490.87524
490.875
490.87462
490.8741
490.87399
490.8749
490.87492
490.8753
490.87546
490.87549
490.87538
490.87513
490.87473
490.87418
490.87405
490.87495
490.87497
490.87534
490.87549
490.87551
490.87539
490.87513
490.87471
490.87414
490.874
490.87488
490.87489
490.87524
490.87538
490.87539
490.87526
490.87498
490.87455
490.87398
490.87384
490.87468
490.87467
490.875
490.87513
490.87513
490.87498
490.8747
490.87427
490.87369
490.87354
490.87437
490.87432
490.87462
490.87473
490.87471
490.87455
490.87427
490.87383
490.87326
490.87312
490.87402
490.87386
490.8741
490.87418
490.87414
490.87398
490.87369
490.87326
490.8727
490.8726
490.874
490.87384
490.87399
490.87405
490.874
490.87384
490.87354
490.87312
490.8726
490.87283
497.8207
497.82052
497.82091
497.82109
497.82113
497.82106
497.82086
497.82057
497.82023
497.82021
497.82052
497.82058
497.82094
497.82111
497.82115
497.82107
497.82086
497.82052
497.82009
497.82006
497.82091
497.82094
497.8213
497.82146
497.82149
497.8214
497.82117
497.8208
497.8203
497.8202
497.82109
497.82111
497.82146
497.82161
497.82164
497.82153
497.82129
497.8209
497.82037
497.82024
497.82113
497.82115
497.82149
497.82164
497.82165
497.82153
497.82128
497.82087
497.82033
497.8202
497.82106
497.82107
497.8214
497.82153
497.82153
497.8214
497.82114
497.82073
497.82018
497.82004
497.82086
497.82086
497.82117
497.82129
497.82128
497.82114
497.82087
497.82045
497.8199
497.81976
497.82057
497.82052
497.8208
497.8209
497.82087
497.82073
497.82045
497.82003
497.81949
497.81935
497.82023
497.82009
497.8203
497.82037
497.82033
497.82018
497.8199
497.81949
497.81895
497.81885
497.82021
497.82006
497.8202
497.82024
497.8202
497.82004
497.81976
497.81935
497.81885
497.81907
504.70823
504.70808
504.70843
504.70859
504.70863
504.70856
504.70837
504.70809
504.70777
504.70774
504.70808
504.70813
504.70846
504.70862
504.70865
504.70857
504.70837
504.70805
504.70764
504.70761
504.70843
504.70846
504.70879
504.70894
504.70896
504.70887
504.70865
504.7083
504.70783
504.70773
504.70859
504.70862
504.70894
504.70907
504.70909
504.70899
504.70876
504.70839
504.70789
504.70777
504.70863
504.70865
504.70896
504.70909
504.7091
504.70899