/*--------------------------------*- C++ -*----------------------------------*\
| =========                 |                                                 |
| \\      /  F ield         | OpenFOAM: The Open Source CFD Toolbox           |
|  \\    /   O peration     | Version:  v2106                                 |
|   \\  /    A nd           | Website:  www.openfoam.com                      |
|    \\/     M anipulation  |                                                 |
\*---------------------------------------------------------------------------*/
FoamFile
{
    version     2.0;
    format      ascii;
    arch        "LSB;label=32;scalar=64";
    class       volVectorField;
    location    "92.5";
    object      gradT;
}
// * * * * * * * * * * * * * * * * * * * * * * * * * * * * * * * * * * * * * //

dimensions      [0 -1 0 1 0 0 0];

internalField   nonuniform List<vector> 
4000
(
(4.6898783e-05 4.689878e-05 569.19195)
(0.00010304639 4.1581175e-05 569.1923)
(5.1890731e-05 4.0348416e-05 569.19247)
(2.8116766e-05 3.9869656e-05 569.19257)
(8.9878284e-06 3.9588822e-05 569.19261)
(-7.6518481e-06 3.9331787e-05 569.19261)
(-2.185082e-05 3.8981769e-05 569.19257)
(-3.2219324e-05 3.8338328e-05 569.1925)
(-3.4414798e-05 3.688922e-05 569.1924)
(-1.0887245e-05 3.3364096e-05 569.19231)
(4.1581177e-05 0.00010304639 569.1923)
(9.3220841e-05 9.3220828e-05 569.1926)
(4.9323452e-05 9.0135302e-05 569.19276)
(2.6977375e-05 8.8612386e-05 569.19286)
(8.1810263e-06 8.7574878e-05 569.1929)
(-8.5624273e-06 8.6594105e-05 569.1929)
(-2.3341009e-05 8.534779e-05 569.19285)
(-3.5358148e-05 8.3353269e-05 569.19277)
(-4.1876147e-05 7.9634238e-05 569.19266)
(-1.4412368e-05 7.2427099e-05 569.19254)
(4.0348409e-05 5.189074e-05 569.19247)
(9.0135302e-05 4.9323458e-05 569.19276)
(4.7282288e-05 4.7282273e-05 569.19291)
(2.5556342e-05 4.5750986e-05 569.193)
(6.9695473e-06 4.4470615e-05 569.19304)
(-9.8789368e-06 4.3212402e-05 569.19304)
(-2.5091656e-05 4.1758574e-05 569.19299)
(-3.7932875e-05 3.9867021e-05 569.1929)
(-4.5340968e-05 3.7342244e-05 569.19279)
(-1.5692004e-05 3.458222e-05 569.19265)
(3.9869656e-05 2.8116767e-05 569.19257)
(8.8612374e-05 2.6977383e-05 569.19286)
(4.5750979e-05 2.5556337e-05 569.193)
(2.4165718e-05 2.4165711e-05 569.19309)
(5.6424426e-06 2.2839083e-05 569.19313)
(-1.1274469e-05 2.1512579e-05 569.19312)
(-2.668639e-05 2.009759e-05 569.19307)
(-3.9774478e-05 1.8533395e-05 569.19298)
(-4.7160947e-05 1.6891903e-05 569.19285)
(-1.6252384e-05 1.5596966e-05 569.19272)
(3.958882e-05 8.9878235e-06 569.19261)
(8.7574872e-05 8.1810185e-06 569.1929)
(4.4470617e-05 6.9695582e-06 569.19304)
(2.2839088e-05 5.6424406e-06 569.19313)
(4.3164156e-06 4.3164156e-06 569.19316)
(-1.262043e-05 3.005772e-06 569.19315)
(-2.807084e-05 1.693283e-06 569.19309)
(-4.1138562e-05 3.9348926e-07 569.193)
(-4.8277397e-05 -7.7778283e-07 569.19287)
(-1.6555295e-05 -1.5446509e-06 569.19273)
(3.9331786e-05 -7.6518505e-06 569.19261)
(8.6594108e-05 -8.5624286e-06 569.1929)
(4.3212401e-05 -9.8789327e-06 569.19304)
(2.1512575e-05 -1.1274469e-05 569.19312)
(3.0057741e-06 -1.2620427e-05 569.19315)
(-1.3897601e-05 -1.3897596e-05 569.19313)
(-2.9298673e-05 -1.5116291e-05 569.19308)
(-4.2245544e-05 -1.6256953e-05 569.19298)
(-4.9099088e-05 -1.7221687e-05 569.19285)
(-1.6763629e-05 -1.7812972e-05 569.19271)
(3.8981768e-05 -2.1850823e-05 569.19257)
(8.534779e-05 -2.3341014e-05 569.19285)
(4.1758576e-05 -2.5091657e-05 569.19299)
(2.0097594e-05 -2.6686396e-05 569.19307)
(1.6932887e-06 -2.8070844e-05 569.19309)
(-1.5116294e-05 -2.9298668e-05 569.19308)
(-3.0430197e-05 -3.0430193e-05 569.19301)
(-4.3243958e-05 -3.1486577e-05 569.19291)
(-4.9833415e-05 -3.2408627e-05 569.19278)
(-1.6949485e-05 -3.3009969e-05 569.19264)
(3.8338325e-05 -3.2219326e-05 569.1925)
(8.3353274e-05 -3.5358156e-05 569.19277)
(3.9867019e-05 -3.7932882e-05 569.1929)
(1.8533388e-05 -3.9774476e-05 569.19298)
(3.9350267e-07 -4.1138566e-05 569.193)
(-1.625695e-05 -4.2245549e-05 569.19298)
(-3.1486582e-05 -4.3243953e-05 569.19291)
(-4.4223978e-05 -4.4223972e-05 569.19281)
(-5.062248e-05 -4.5195419e-05 569.19268)
(-1.7164524e-05 -4.5968701e-05 569.19253)
(3.6889214e-05 -3.4414794e-05 569.1924)
(7.9634234e-05 -4.1876145e-05 569.19266)
(3.7342255e-05 -4.5340972e-05 569.19279)
(1.689191e-05 -4.7160935e-05 569.19285)
(-7.7778361e-07 -4.8277395e-05 569.19287)
(-1.7221681e-05 -4.9099095e-05 569.19285)
(-3.2408621e-05 -4.9833414e-05 569.19278)
(-4.5195424e-05 -5.062247e-05 569.19268)
(-5.1578144e-05 -5.1578132e-05 569.19254)
(-1.7465007e-05 -5.2624452e-05 569.19239)
(3.3364091e-05 -1.0887242e-05 569.19231)
(7.2427096e-05 -1.4412365e-05 569.19254)
(3.4582229e-05 -1.5692e-05 569.19265)
(1.5596964e-05 -1.6252382e-05 569.19272)
(-1.5446574e-06 -1.6555297e-05 569.19273)
(-1.7812968e-05 -1.6763631e-05 569.19271)
(-3.3009957e-05 -1.6949488e-05 569.19264)
(-4.5968697e-05 -1.7164522e-05 569.19253)
(-5.2624461e-05 -1.7465003e-05 569.19239)
(-1.7862071e-05 -1.7862067e-05 569.19224)
(0.00020466044 0.00020466044 841.11255)
(0.00045871925 0.00017891701 841.11297)
(0.00024307203 0.0001732104 841.11319)
(0.0001339193 0.00017096119 841.11333)
(4.2179245e-05 0.00016960624 841.11339)
(-3.8908411e-05 0.00016835339 841.11339)
(-0.00010903347 0.00016663643 841.11332)
(-0.00016232519 0.00016342382 841.11321)
(-0.00018076087 0.00015577408 841.11305)
(-5.9304906e-05 0.00013374215 841.11287)
(0.00017891701 0.00045871926 841.11297)
(0.0004115442 0.00041154419 841.11334)
(0.00023113831 0.00039722705 841.11355)
(0.00012851305 0.00039000399 841.11368)
(3.8267535e-05 0.00038498507 841.11374)
(-4.336312e-05 0.00038020532 841.11374)
(-0.00011642783 0.00037410457 841.11367)
(-0.00017861872 0.00036423555 841.11354)
(-0.00022528336 0.00034513739 841.11336)
(-8.1336835e-05 0.00030292561 841.11313)
(0.0001732104 0.00024307203 841.11319)
(0.00039722705 0.00023113831 841.11355)
(0.00022153183 0.00022153182 841.11375)
(0.00012167732 0.00021416823 841.11388)
(3.2380573e-05 0.00020795196 841.11393)
(-4.9788915e-05 0.00020181881 841.11392)
(-0.00012500324 0.00019471678 841.11385)
(-0.00019129237 0.00018545312 841.11371)
(-0.00024207081 0.00017304269 841.11353)
(-8.7446093e-05 0.00015979993 841.11328)
(0.00017096119 0.00013391929 841.11333)
(0.00039000399 0.00012851305 841.11368)
(0.00021416823 0.00012167732 841.11388)
(0.0001149332 0.0001149332 841.114)
(2.5918114e-05 0.00010847486 841.11405)
(-5.6598299e-05 0.00010200478 841.11403)
(-0.00013279351 9.5095541e-05 841.11395)
(-0.00020029281 8.7452341e-05 841.11381)
(-0.00025093655 7.9431059e-05 841.11362)
(-9.016534e-05 7.3135092e-05 841.11336)
(0.00016960623 4.2179239e-05 841.11339)
(0.00038498507 3.8267528e-05 841.11374)
(0.00020795197 3.2380575e-05 841.11393)
(0.00010847486 2.5918121e-05 841.11405)
(1.9452156e-05 1.9452154e-05 841.11409)
(-6.3168235e-05 1.3054791e-05 841.11407)
(-0.00013955568 6.6430494e-06 841.11399)
(-0.00020695685 2.889187e-07 841.11384)
(-0.00025638806 -5.4393041e-06 841.11364)
(-9.1643404e-05 -9.1883725e-06 841.11338)
(0.00016835338 -3.890841e-05 841.11339)
(0.00038020532 -4.3363119e-05 841.11374)
(0.00020181882 -4.9788919e-05 841.11392)
(0.00010200477 -5.6598299e-05 841.11403)
(1.3054785e-05 -6.3168237e-05 841.11407)
(-6.9407404e-05 -6.9407406e-05 841.11405)
(-0.00014555939 -7.5368295e-05 841.11396)
(-0.00021237516 -8.0958295e-05 841.11381)
(-0.00026041384 -8.5699957e-05 841.1136)
(-9.2664718e-05 -8.8617392e-05 841.11334)
(0.00016663643 -0.00010903347 841.11332)
(0.00037410456 -0.00011642783 841.11367)
(0.00019471679 -0.00012500324 841.11385)
(9.5095546e-05 -0.00013279352 841.11395)
(6.6430488e-06 -0.00013955568 841.11399)
(-7.5368294e-05 -0.00014555939 841.11396)
(-0.00015110657 -0.00015110656 841.11386)
(-0.00021728851 -0.00015631347 841.11371)
(-0.00026404715 -0.00016090729 841.1135)
(-9.3588361e-05 -0.00016396219 841.11324)
(0.00016342381 -0.0001623252 841.11321)
(0.00036423555 -0.00017861871 841.11354)
(0.00018545313 -0.00019129236 841.11371)
(8.7452339e-05 -0.00020029281 841.11381)
(2.8891688e-07 -0.00020695685 841.11384)
(-8.0958288e-05 -0.00021237516 841.11381)
(-0.00015631347 -0.0002172885 841.11371)
(-0.00022217589 -0.00022217589 841.11355)
(-0.00026806256 -0.00022717068 841.11333)
(-9.4701321e-05 -0.00023142006 841.11307)
(0.00015577409 -0.00018076086 841.11305)
(0.0003451374 -0.00022528336 841.11336)
(0.00017304269 -0.00024207081 841.11353)
(7.9431055e-05 -0.00025093654 841.11362)
(-5.439303e-06 -0.00025638805 841.11364)
(-8.5699945e-05 -0.00026041384 841.1136)
(-0.0001609073 -0.00026404714 841.1135)
(-0.00022717069 -0.00026806256 841.11333)
(-0.00027329132 -0.00027329133 841.11312)
(-9.6421281e-05 -0.00028025642 841.11285)
(0.00013374215 -5.9304901e-05 841.11287)
(0.00030292561 -8.1336838e-05 841.11313)
(0.00015979994 -8.7446097e-05 841.11328)
(7.3135096e-05 -9.0165336e-05 841.11336)
(-9.1883822e-06 -9.1643403e-05 841.11338)
(-8.8617379e-05 -9.2664722e-05 841.11334)
(-0.00016396219 -9.358836e-05 841.11324)
(-0.00023142007 -9.4701317e-05 841.11307)
(-0.00028025642 -9.642128e-05 841.11285)
(-9.9344713e-05 -9.9344712e-05 841.11256)
(0.00033018557 0.00033018558 835.64752)
(0.00074985717 0.00028869316 835.64788)
(0.00041018776 0.00027934589 835.64807)
(0.00022740369 0.00027553601 835.64819)
(6.7939298e-05 0.00027317548 835.64825)
(-7.6088813e-05 0.00027095795 835.64823)
(-0.00020390279 0.0002678925 835.64816)
(-0.00030829035 0.00026210816 835.64804)
(-0.0003689878 0.00024817983 835.64786)
(-0.00012824458 0.00020753502 835.64765)
(0.00028869316 0.00074985717 835.64788)
(0.00067359764 0.00067359764 835.64819)
(0.00039045203 0.00064988985 835.64837)
(0.00021814808 0.00063753704 835.64849)
(6.1072216e-05 0.0006287582 835.64854)
(-8.4013291e-05 0.00062029463 835.64853)
(-0.00021717749 0.00060942032 835.64845)
(-0.00033785935 0.00059172905 835.64832)
(-0.00045084751 0.0005572419 835.64812)
(-0.0001688894 0.00048034204 835.64785)
(0.00027934589 0.00041018776 835.64807)
(0.00064988985 0.00039045203 835.64837)
(0.00037412715 0.00037412715 835.64855)
(0.00020627204 0.00036134503 835.64866)
(5.0696881e-05 0.00035040927 835.64871)
(-9.5426691e-05 0.00033953839 835.64869)
(-0.00023246837 0.0003269 835.64861)
(-0.00036046877 0.00031038252 835.64846)
(-0.00048037482 0.00028828075 835.64826)
(-0.00017951116 0.00026518979 835.64798)
(0.000275536 0.00022740369 835.64819)
(0.00063753703 0.00021814808 835.64849)
(0.00036134503 0.00020627204 835.64866)
(0.0001944302 0.0001944302 835.64876)
(3.9265578e-05 0.00018301326 835.64881)
(-0.00010752256 0.00017152797 835.64878)
(-0.00024633336 0.00015923346 835.6487)
(-0.00037647861 0.00014561962 835.64855)
(-0.00049604025 0.00013135243 835.64833)
(-0.00018428337 0.00012026128 835.64805)
(0.00027317548 6.79393e-05 835.64825)
(0.0006287582 6.1072216e-05 835.64854)
(0.00035040928 5.0696888e-05 835.64871)
(0.00018301326 3.9265588e-05 835.64881)
(2.7794655e-05 2.7794661e-05 835.64884)
(-0.00011920649 1.6418016e-05 835.64881)
(-0.00025837672 4.9924376e-06 835.64872)
(-0.0003883498 -6.3488653e-06 835.64857)
(-0.00050573316 -1.6580215e-05 835.64835)
(-0.00018690526 -2.3264591e-05 835.64806)
(0.00027095795 -7.608881e-05 835.64823)
(0.00062029462 -8.4013288e-05 835.64853)
(0.0003395384 -9.5426693e-05 835.64869)
(0.00017152797 -0.00010752256 835.64878)
(1.6418006e-05 -0.0001192065 835.64881)
(-0.00013032478 -0.00013032479 835.64878)
(-0.00026910024 -0.00014098014 835.64869)
(-0.00039805126 -0.00015101861 835.64853)
(-0.00051295597 -0.00015959115 835.6483)
(-0.00018873962 -0.00016491217 835.64801)
(0.0002678925 -0.00020390281 835.64816)
(0.00060942032 -0.00021717749 835.64845)
(0.00032690001 -0.00023246837 835.64861)
(0.00015923346 -0.00024633337 835.6487)
(4.9924239e-06 -0.00025837673 835.64872)
(-0.00014098014 -0.00026910024 835.64869)
(-0.00027907055 -0.00027907056 835.64859)
(-0.00040696081 -0.00028854624 835.64842)
(-0.00051962671 -0.00029710746 835.6482)
(-0.00019045261 -0.00030305067 835.6479)
(0.00026210816 -0.00030829035 835.64804)
(0.00059172906 -0.00033785936 835.64832)
(0.00031038253 -0.00036046878 835.64846)
(0.00014561962 -0.00037647861 835.64855)
(-6.3488699e-06 -0.0003883498 835.64857)
(-0.00015101862 -0.00039805125 835.64853)
(-0.00028854624 -0.0004069608 835.64842)
(-0.00041608815 -0.00041608816 835.64826)
(-0.00052746039 -0.00042603454 835.64802)
(-0.00019270176 -0.00043571324 835.64772)
(0.00024817982 -0.0003689878 835.64786)
(0.00055724189 -0.00045084751 835.64812)
(0.00028828076 -0.00048037482 835.64826)
(0.00013135243 -0.00049604024 835.64833)
(-1.6580219e-05 -0.00050573315 835.64835)
(-0.00015959114 -0.00051295597 835.6483)
(-0.00029710746 -0.00051962669 835.6482)
(-0.00042603455 -0.00052746039 835.64802)
(-0.0005392518 -0.0005392518 835.64779)
(-0.00019690507 -0.00056143634 835.64748)
(0.00020753502 -0.00012824459 835.64765)
(0.00048034203 -0.00016888939 835.64785)
(0.00026518979 -0.00017951116 835.64798)
(0.00012026129 -0.00018428337 835.64805)
(-2.3264597e-05 -0.00018690525 835.64806)
(-0.00016491216 -0.00018873962 835.64801)
(-0.00030305066 -0.0001904526 835.6479)
(-0.00043571326 -0.00019270176 835.64772)
(-0.00056143635 -0.00019690507 835.64748)
(-0.00020749146 -0.00020749146 835.64715)
(0.00044219904 0.00044219904 830.28363)
(0.0010083067 0.00038670769 830.28396)
(0.00055677908 0.00037416135 830.28413)
(0.00030739617 0.0003689463 830.28423)
(8.4396914e-05 0.00036564662 830.28428)
(-0.00012068802 0.00036250112 830.28426)
(-0.00030651944 0.00035811687 830.28418)
(-0.000464646 0.00034979603 830.28405)
(-0.00057039971 0.00032964971 830.28386)
(-0.00020187563 0.00027054671 830.28364)
(0.00038670769 0.0010083067 830.28396)
(0.00090625016 0.00090625017 830.28424)
(0.00053013699 0.00087423416 830.2844)
(0.00029462406 0.00085721414 830.2845)
(7.4729152e-05 0.00084490227 830.28454)
(-0.00013198264 0.00083289319 830.28452)
(-0.00032557708 0.0008173617 830.28444)
(-0.00050734674 0.0007919854 830.2843)
(-0.00068927368 0.00074232913 830.2841)
(-0.00026097863 0.00063119259 830.28382)
(0.00037416135 0.00055677908 830.28413)
(0.00087423416 0.00053013699 830.2844)
(0.00050774305 0.00050774306 830.28456)
(0.00027806427 0.00048993726 830.28465)
(6.0075961e-05 0.0004745234 830.28469)
(-0.00014822859 0.00045908346 830.28466)
(-0.00034742723 0.00044105561 830.28458)
(-0.00053967857 0.00041744795 830.28443)
(-0.00073119252 0.00038587989 830.28422)
(-0.00027596666 0.00035327176 830.28393)
(0.0003689463 0.00030739617 830.28423)
(0.00085721414 0.00029462406 830.2845)
(0.00048993726 0.00027806427 830.28465)
(0.0002614044 0.0002614044 830.28475)
(4.3875359e-05 0.00024523549 830.28478)
(-0.00016545042 0.00022889546 830.28475)
(-0.0003672126 0.0002113546 830.28465)
(-0.00056252246 0.00019190755 830.2845)
(-0.00075344988 0.00017154573 830.28428)
(-0.00028271738 0.00015581719 830.28398)
(0.00036564661 8.4396908e-05 830.28428)
(0.00084490226 7.4729151e-05 830.28454)
(0.00047452339 6.007596e-05 830.28469)
(0.00024523549 4.3875364e-05 830.28478)
(2.7567019e-05 2.7567024e-05 830.2848)
(-0.00018210947 1.1346664e-05 830.28477)
(-0.00038441515 -4.9837882e-06 830.28467)
(-0.00057948744 -2.1224752e-05 830.28451)
(-0.00076728287 -3.5889257e-05 830.28428)
(-0.00028645235 -4.545739e-05 830.28399)
(0.00036250113 -0.00012068803 830.28426)
(0.0008328932 -0.00013198264 830.28452)
(0.00045908347 -0.00014822858 830.28466)
(0.00022889546 -0.00016545042 830.28475)
(1.134666e-05 -0.00018210947 830.28477)
(-0.00019800123 -0.00019800123 830.28473)
(-0.00039978401 -0.00021328573 830.28463)
(-0.00059342793 -0.00022775478 830.28446)
(-0.00077768251 -0.00024018708 830.28423)
(-0.00028909613 -0.00024795684 830.28393)
(0.00035811687 -0.00030651945 830.28418)
(0.00081736171 -0.00032557709 830.28444)
(0.00044105562 -0.00034742723 830.28458)
(0.0002113546 -0.00036721259 830.28465)
(-4.9837911e-06 -0.00038441515 830.28467)
(-0.00021328573 -0.00039978402 830.28463)
(-0.0004141687 -0.00041416872 830.28452)
(-0.00060638878 -0.00042799818 830.28435)
(-0.00078748492 -0.00044072347 830.28412)
(-0.00029163219 -0.00044978712 830.28381)
(0.00034979603 -0.000464646 830.28405)
(0.00079198541 -0.00050734673 830.2843)
(0.00041744797 -0.00053967857 830.28443)
(0.00019190754 -0.00056252247 830.2845)
(-2.1224761e-05 -0.00057948743 830.28451)
(-0.00022775479 -0.00059342792 830.28446)
(-0.00042799818 -0.00060638878 830.28435)
(-0.00061998269 -0.0006199827 830.28418)
(-0.00079947145 -0.00063537615 830.28394)
(-0.00029513857 -0.00065115494 830.28363)
(0.00032964972 -0.0005703997 830.28386)
(0.00074232914 -0.00068927368 830.2841)
(0.00038587988 -0.00073119252 830.28422)
(0.00017154573 -0.00075344988 830.28428)
(-3.5889246e-05 -0.00076728287 830.28428)
(-0.00024018708 -0.0007776825 830.28423)
(-0.00044072349 -0.0007874849 830.28412)
(-0.00063537615 -0.00079947145 830.28394)
(-0.00081865716 -0.00081865717 830.2837)
(-0.00030215139 -0.00085733395 830.28338)
(0.00027054671 -0.00020187563 830.28364)
(0.00063119259 -0.00026097863 830.28382)
(0.00035327177 -0.00027596666 830.28393)
(0.00015581719 -0.00028271738 830.28398)
(-4.5457386e-05 -0.00028645236 830.28399)
(-0.00024795683 -0.00028909614 830.28393)
(-0.00044978712 -0.00029163219 830.28381)
(-0.00065115496 -0.00029513856 830.28363)
(-0.00085733395 -0.00030215139 830.28338)
(-0.00032092308 -0.00032092309 830.28304)
(0.00054655156 0.00054655156 825.01781)
(0.0012461738 0.00047776677 825.01811)
(0.0006872388 0.00046224971 825.01827)
(0.00037518065 0.00045573374 825.01836)
(9.1895408e-05 0.00045155077 825.01839)
(-0.00017204303 0.00044751621 825.01837)
(-0.00041470243 0.00044185412 825.01829)
(-0.00062592726 0.00043106503 825.01815)
(-0.00077509918 0.00040486509 825.01796)
(-0.00027614947 0.00032781777 825.01774)
(0.00047776677 0.0012461738 825.01811)
(0.001119721 0.001119721 825.01838)
(0.00065418925 0.0010800115 825.01852)
(0.00035913224 0.0010586589 825.01861)
(7.9569111e-05 0.0010430153 825.01864)
(-0.000186588 0.001027609 825.01862)
(-0.0004393792 0.001007571 825.01853)
(-0.00068141081 0.00097472763 825.01839)
(-0.00092997008 0.00091032232 825.01818)
(-0.00035319679 0.00076593819 825.01791)
(0.00046224971 0.0006872388 825.01827)
(0.0010800115 0.00065418926 825.01852)
(0.00062617672 0.00062617672 825.01867)
(0.00033818436 0.00060367305 825.01875)
(6.0845467e-05 0.0005840135 825.01878)
(-0.00020748728 0.00056418984 825.01874)
(-0.00046758379 0.00054095227 825.01865)
(-0.00072317595 0.0005104687 825.0185)
(-0.00098388863 0.00046972049 825.01829)
(-0.00037240556 0.00042791665 825.018)
(0.00045573374 0.00037518065 825.01836)
(0.0010586589 0.00035913223 825.01861)
(0.00060367305 0.00033818436 825.01875)
(0.00031696901 0.00031696902 825.01883)
(4.0085902e-05 0.0002962638 825.01885)
(-0.00022964923 0.00027525152 825.01881)
(-0.00049310034 0.0002526333 825.01872)
(-0.00075264259 0.00022752582 825.01856)
(-0.0010125221 0.00020125094 825.01834)
(-0.00038106602 0.0001810386 825.01805)
(0.00045155077 9.189541e-05 825.01839)
(0.0010430153 7.9569111e-05 825.01864)
(0.00058401351 6.0845476e-05 825.01878)
(0.00029626381 4.0085912e-05 825.01885)
(1.9127968e-05 1.9127978e-05 825.01887)
(-0.00025111778 -1.7746021e-06 825.01883)
(-0.00051530949 -2.2870455e-05 825.01873)
(-0.00077455832 -4.3889128e-05 825.01856)
(-0.0010303759 -6.2883328e-05 825.01834)
(-0.00038588045 -7.5264744e-05 825.01804)
(0.00044751621 -0.00017204303 825.01837)
(0.001027609 -0.00018658799 825.01862)
(0.00056418985 -0.00020748728 825.01874)
(0.00027525152 -0.00022964924 825.01881)
(-1.7746117e-06 -0.00025111778 825.01883)
(-0.00027164766 -0.00027164766 825.01878)
(-0.00053521486 -0.00029145964 825.01868)
(-0.00079265547 -0.00031029273 825.01851)
(-0.0010438977 -0.00032655099 825.01828)
(-0.00038932029 -0.0003367573 825.01798)
(0.00044185413 -0.00041470244 825.01829)
(0.001007571 -0.0004393792 825.01853)
(0.00054095226 -0.00046758379 825.01865)
(0.00025263331 -0.00049310035 825.01872)
(-2.2870453e-05 -0.0005153095 825.01873)
(-0.00029145965 -0.00053521487 825.01868)
(-0.00055395456 -0.00055395456 825.01857)
(-0.00080964966 -0.00057213351 825.01839)
(-0.0010568404 -0.00058906661 825.01816)
(-0.00039268466 -0.00060129901 825.01786)
(0.00043106503 -0.00062592727 825.01815)
(0.00097472764 -0.00068141082 825.01839)
(0.00051046871 -0.00072317595 825.0185)
(0.00022752581 -0.00075264259 825.01856)
(-4.388913e-05 -0.00077455833 825.01856)
(-0.00031029273 -0.00079265548 825.01851)
(-0.00057213351 -0.00080964966 825.01839)
(-0.00082776751 -0.00082776751 825.01822)
(-0.0010730633 -0.00084872847 825.01798)
(-0.00039747523 -0.00087068756 825.01768)
(0.00040486509 -0.00077509918 825.01796)
(0.00091032233 -0.00092997008 825.01818)
(0.00046972049 -0.00098388863 825.01829)
(0.00020125093 -0.0010125221 825.01834)
(-6.2883341e-05 -0.0010303758 825.01834)
(-0.00032655098 -0.0010438977 825.01828)
(-0.0005890666 -0.0010568404 825.01816)
(-0.00084872847 -0.0010730633 825.01798)
(-0.0010997605 -0.0010997605 825.01773)
(-0.00040732405 -0.001154692 825.01742)
(0.00032781777 -0.00027614947 825.01774)
(0.00076593819 -0.00035319679 825.01791)
(0.00042791665 -0.00037240556 825.018)
(0.00018103861 -0.00038106602 825.01805)
(-7.526474e-05 -0.00038588044 825.01804)
(-0.00033675731 -0.00038932028 825.01798)
(-0.00060129902 -0.00039268465 825.01786)
(-0.00087068757 -0.00039747523 825.01768)
(-0.001154692 -0.00040732405 825.01742)
(-0.00043409628 -0.00043409628 825.01709)
(0.00064458379 0.00064458379 819.84711)
(0.0014672732 0.00056309456 819.84739)
(0.00080444451 0.00054477359 819.84754)
(0.00043249109 0.00053703687 819.84762)
(9.1725148e-05 0.00053201984 819.84764)
(-0.00022857159 0.00052713695 819.84761)
(-0.00052588543 0.00052024724 819.84752)
(-0.00078805012 0.00050708151 819.84739)
(-0.0009779342 0.00047505332 819.8472)
(-0.00034927792 0.00038074327 819.84699)
(0.00056309456 0.0014672732 819.84739)
(0.0013175579 0.0013175579 819.84764)
(0.00076535796 0.0012706094 819.84777)
(0.00041336047 0.001245191 819.84785)
(7.6875272e-05 0.0012263986 819.84787)
(-0.0002462305 0.0012077513 819.84784)
(-0.00055596859 0.0011833869 819.84775)
(-0.000855841 0.0011433577 819.84761)
(-0.0011674416 0.0010647583 819.84741)
(-0.00044358797 0.00088840423 819.84714)
(0.00054477358 0.00080444451 819.84754)
(0.0012706094 0.00076535795 819.84777)
(0.00073207764 0.00073207763 819.8479)
(0.00038828025 0.00070515539 819.84798)
(5.4285437e-05 0.00068147317 819.84799)
(-0.00027158329 0.00065746423 819.84796)
(-0.00059027903 0.00062922687 819.84786)
(-0.00090667877 0.00059213008 819.84771)
(-0.0012328877 0.0005425529 819.8475)
(-0.00046684727 0.00049192342 819.84722)
(0.00053703686 0.00043249109 819.84762)
(0.001245191 0.00041336047 819.84785)
(0.00070515539 0.00038828025 819.84798)
(0.000362756 0.000362756 819.84804)
(2.9184119e-05 0.00033773472 819.84806)
(-0.00029847679 0.00031225169 819.84802)
(-0.00062130274 0.00028475489 819.84792)
(-0.00094251497 0.00025419761 819.84776)
(-0.0012676482 0.00022222966 819.84754)
(-0.00047734096 0.00019770829 819.84726)
(0.00053201984 9.1725145e-05 819.84764)
(0.0012263986 7.6875267e-05 819.84787)
(0.00068147317 5.4285433e-05 819.84799)
(0.00033773472 2.9184114e-05 819.84806)
(3.7811265e-06 3.7811236e-06 819.84807)
(-0.00032456313 -2.1617043e-05 819.84802)
(-0.00064833311 -4.7306053e-05 819.84792)
(-0.00096920399 -7.2941857e-05 819.84776)
(-0.001289377 -9.6124323e-05 819.84753)
(-0.00048319485 -0.00011122453 819.84725)
(0.00052713694 -0.00022857159 819.84761)
(0.0012077513 -0.0002462305 819.84784)
(0.00065746424 -0.0002715833 819.84796)
(0.00031225169 -0.0002984768 819.84802)
(-2.1617039e-05 -0.00032456313 819.84802)
(-0.00034956397 -0.00034956398 819.84797)
(-0.00067262755 -0.00037376097 819.84786)
(-0.00099133324 -0.0003968396 819.8477)
(-0.0013059309 -0.00041683175 819.84747)
(-0.00048740776 -0.00042941815 819.84718)
(0.00052024723 -0.00052588544 819.84752)
(0.0011833869 -0.00055596858 819.84775)
(0.00062922688 -0.00059027904 819.84786)
(0.00028475489 -0.00062130274 819.84792)
(-4.7306055e-05 -0.00064833311 819.84792)
(-0.00037376096 -0.00067262756 819.84786)
(-0.00069560873 -0.00069560874 819.84775)
(-0.0010122748 -0.00071805247 819.84758)
(-0.0013219556 -0.00073912965 819.84735)
(-0.00049158578 -0.00075448304 819.84706)
(0.00050708151 -0.00078805014 819.84739)
(0.0011433577 -0.000855841 819.84761)
(0.00059213008 -0.00090667877 819.84771)
(0.00025419762 -0.00094251497 819.84776)
(-7.2941857e-05 -0.00096920399 819.84776)
(-0.0003968396 -0.00099133325 819.8477)
(-0.00071805247 -0.0010122748 819.84758)
(-0.0010348541 -0.0010348541 819.84741)
(-0.0013423615 -0.0010613141 819.84717)
(-0.00049764336 -0.0010893426 819.84688)
(0.00047505332 -0.0009779342 819.8472)
(0.0010647583 -0.0011674416 819.84741)
(0.00054255291 -0.0012328877 819.8475)
(0.00022222968 -0.0012676482 819.84754)
(-9.6124335e-05 -0.001289377 819.84753)
(-0.00041683174 -0.0013059309 819.84747)
(-0.00073912963 -0.0013219556 819.84735)
(-0.0010613142 -0.0013423615 819.84717)
(-0.001376444 -0.001376444 819.84693)
(-0.00051027142 -0.0014472014 819.84663)
(0.00038074327 -0.00034927792 819.84699)
(0.00088840424 -0.00044358797 819.84714)
(0.00049192343 -0.00046684727 819.84722)
(0.0001977083 -0.00047734096 819.84726)
(-0.00011122453 -0.00048319485 819.84725)
(-0.00042941815 -0.00048740776 819.84718)
(-0.00075448304 -0.00049158578 819.84706)
(-0.0010893426 -0.00049764336 819.84688)
(-0.0014472014 -0.00051027142 819.84663)
(-0.00054481495 -0.00054481496 819.8463)
(0.00073649247 0.00073649246 814.76872)
(0.0016727763 0.0006429272 814.76898)
(0.00091007693 0.0006219591 814.76911)
(0.00048085083 0.0006130743 814.76918)
(8.5380433e-05 0.00060727053 814.7692)
(-0.00028849674 0.00060158255 814.76917)
(-0.00063771457 0.000593523 814.76908)
(-0.00094799694 0.00057808951 814.76894)
(-0.0011756776 0.0005404999 814.76876)
(-0.00042021966 0.00042972003 814.76856)
(0.00064292721 0.0016727763 814.76898)
(0.0015009762 0.0015009762 814.76921)
(0.00086529757 0.0014472071 814.76934)
(0.00045881798 0.0014179665 814.7694)
(6.8142822e-05 0.0013962033 814.76942)
(-0.00030911804 0.001374481 814.76938)
(-0.00067295413 0.0013459956 814.76929)
(-0.0010275316 0.0012991119 814.76915)
(-0.0013982318 0.0012069721 814.76895)
(-0.00053099954 0.0010001303 814.7687)
(0.0006219591 0.00091007694 814.76911)
(0.0014472071 0.00086529758 814.76934)
(0.00082706722 0.00082706721 814.76945)
(0.00042984706 0.00079598806 814.76952)
(4.1894976e-05 0.0007685059 814.76953)
(-0.00033870447 0.00074052446 814.76949)
(-0.00071308372 0.00070752527 814.76939)
(-0.0010870204 0.0006641212 814.76924)
(-0.0014746592 0.00060612473 814.76904)
(-0.00055811421 0.00054709303 814.76877)
(0.0006130743 0.00048085083 814.76918)
(0.0014179665 0.00045881798 814.7694)
(0.00079598806 0.00042984705 814.76952)
(0.00040025666 0.00040025665 814.76958)
(1.2679221e-05 0.00037114784 814.76958)
(-0.00037009867 0.00034141468 814.76954)
(-0.0007493574 0.00030926667 814.76944)
(-0.0011289321 0.00027350657 814.76929)
(-0.00151526 0.00023610394 814.76907)
(-0.00057035401 0.00020747473 814.7688)
(0.00060727053 8.5380436e-05 814.7692)
(0.0013962033 6.8142822e-05 814.76942)
(0.00076850589 4.1894972e-05 814.76953)
(0.00037114785 1.2679224e-05 814.76958)
(-1.6947e-05 -1.694701e-05 814.76959)
(-0.00040058565 -4.6629515e-05 814.76954)
(-0.00078099182 -7.6707954e-05 814.76944)
(-0.0011601831 -0.00010676395 814.76928)
(-0.001540691 -0.00013395811 814.76906)
(-0.00057720035 -0.00015166019 814.76878)
(0.00060158256 -0.00028849674 814.76917)
(0.001374481 -0.00030911805 814.76938)
(0.00074052446 -0.00033870448 814.76949)
(0.00034141468 -0.00037009867 814.76954)
(-4.6629518e-05 -0.00040058565 814.76954)
(-0.00042985962 -0.00042985963 814.76949)
(-0.00080949183 -0.00045826143 814.76938)
(-0.0011861823 -0.00048542267 814.76921)
(-0.0015601562 -0.00050901155 814.76899)
(-0.00058215539 -0.00052389084 814.76872)
(0.00059352299 -0.00063771457 814.76908)
(0.0013459956 -0.00067295415 814.76929)
(0.00070752527 -0.00071308373 814.76939)
(0.00030926668 -0.00074935741 814.76944)
(-7.670796e-05 -0.00078099183 814.76944)
(-0.00045826143 -0.00080949184 814.76938)
(-0.00083655487 -0.00083655488 814.76927)
(-0.0012109332 -0.00086311912 814.7691)
(-0.0015791592 -0.00088820908 814.76888)
(-0.00058711988 -0.00090658412 814.76859)
(0.00057808951 -0.00094799695 814.76894)
(0.0012991119 -0.0010275316 814.76915)
(0.0006641212 -0.0010870204 814.76924)
(0.00027350658 -0.0011289321 814.76929)
(-0.00010676395 -0.0011601831 814.76928)
(-0.00048542267 -0.0011861823 814.76921)
(-0.00086311912 -0.0012109332 814.7691)
(-0.0012378365 -0.0012378365 814.76893)
(-0.0016036212 -0.00126963 814.7687)
(-0.00059440542 -0.0013035324 814.76842)
(0.00054049989 -0.0011756776 814.76876)
(0.0012069721 -0.0013982318 814.76895)
(0.00060612474 -0.0014746591 814.76904)
(0.00023610395 -0.00151526 814.76907)
(-0.00013395811 -0.001540691 814.76906)
(-0.00050901155 -0.0015601562 814.76899)
(-0.00088820907 -0.0015791592 814.76888)
(-0.00126963 -0.0016036212 814.7687)
(-0.0016448551 -0.0016448551 814.76847)
(-0.00060972149 -0.0017308925 814.76817)
(0.00042972002 -0.00042021966 814.76856)
(0.0010001303 -0.00053099953 814.7687)
(0.00054709303 -0.0005581142 814.76877)
(0.00020747473 -0.000570354 814.7688)
(-0.00015166019 -0.00057720035 814.76878)
(-0.00052389083 -0.00058215539 814.76872)
(-0.00090658412 -0.00058711987 814.76859)
(-0.0013035324 -0.00059440542 814.76842)
(-0.0017308925 -0.00060972149 814.76817)
(-0.00065176372 -0.00065176371 814.76786)
(0.00082212117 0.00082212118 809.77996)
(0.0018628438 0.00071717134 809.78021)
(0.0010050844 0.000693719 809.78033)
(0.00052144628 0.00068375904 809.78039)
(7.4237535e-05 0.00067721684 809.7804)
(-0.00035016711 0.00067077019 809.78037)
(-0.00074818292 0.00066160522 809.78028)
(-0.0011034568 0.00064402699 809.78015)
(-0.0013660286 0.00060117684 809.77997)
(-0.00048824927 0.00047481675 809.77978)
(0.00071717133 0.0018628437 809.78021)
(0.0016702405 0.0016702405 809.78043)
(0.00095496599 0.0016100782 809.78054)
(0.00049669304 0.0015772589 809.78059)
(5.4754255e-05 0.0015527073 809.7806)
(-0.00037358454 0.0015280879 809.78056)
(-0.00078829771 0.0014957098 809.78048)
(-0.0011940994 0.0014423451 809.78034)