/*--------------------------------*- C++ -*----------------------------------*\
| =========                 |                                                 |
| \\      /  F ield         | OpenFOAM: The Open Source CFD Toolbox           |
|  \\    /   O peration     | Version:  v2106                                 |
|   \\  /    A nd           | Website:  www.openfoam.com                      |
|    \\/     M anipulation  |                                                 |
\*---------------------------------------------------------------------------*/
FoamFile
{
    version     2.0;
    format      ascii;
    arch        "LSB;label=32;scalar=64";
    class       volScalarField;
    location    "10";
    object      gradTx;
}
// * * * * * * * * * * * * * * * * * * * * * * * * * * * * * * * * * * * * * //

dimensions      [0 -1 0 1 0 0 0];

internalField   nonuniform List<scalar> 
10000
(
1.0657952e-05
-0.00026401446
-0.0008421095
-0.00087646436
-0.0011787218
-0.0016233965
-0.00050641708
-0.00088413125
-0.0012340294
-6.48562e-05
-6.9671652e-05
-0.00037563868
-0.00073010409
-0.0012314554
-0.0014253106
-0.0010028798
-0.0010877522
-0.0012523296
0.00021154037
0.00048411291
-6.3758174e-05
-0.00025542374
-0.0011763584
-0.0014115312
-0.00095482861
-0.0017228705
-0.0014615348
-0.00041723982
-9.2374108e-05
1.7554726e-05
4.9986588e-06
-0.0007098877
-0.0013347776
-0.00098544683
-0.0016788098
-0.0021782865
-0.00081978953
-0.00056610671
-0.00080513854
-0.00012752652
-0.00030041885
-0.00079049059
-0.00093034996
-0.0017145202
-0.0022736801
-0.0016725132
-0.00077554532
-0.00095876172
-0.00062019708
5.7256614e-05
-0.00015939393
-0.00048599438
-0.0015882766
-0.0023042983
-0.0018334823
-0.0015999182
-0.0010616451
-0.0004821629
0.00030749118
0.00030491342
0.00011325898
-0.00088996467
-0.0021057566
-0.0016641627
-0.0016953119
-0.0018706188
-0.00087136036
0.00019853368
0.00080607495
0.00035316473
-0.00054695073
-0.0014411121
-0.001320314
-0.001618309
-0.0020753377
-0.0016957332
-0.00049483572
0.00038619993
0.00080479091
0.00030855451
-0.00013220658
-0.00042307323
-0.0014195339
-0.0022056847
-0.001611368
-0.00071332335
-2.997467e-06
0.00043787318
0.00060754709
0.00018636399
0.00041676255
-0.00029945682
-0.0023369931
-0.0021461319
-0.00096270799
-0.00026946131
2.464134e-06
0.0001876721
3.7370683e-05
-7.1563041e-05
-0.00028677385
-0.0010906311
-0.0021150952
-0.0033630982
-0.0031188786
-0.0034538587
-0.0032850429
-0.0024417146
-0.0014356172
-2.3661263e-05
-0.00017085711
-0.0015112791
-0.0024159979
-0.002976544
-0.0036642291
-0.0036959841
-0.0034048139
-0.0023597675
-0.00026654797
0.00035713343
-0.00056720586
-0.0014452418
-0.0023344889
-0.0036578435
-0.0036537283
-0.0041993755
-0.0036910627
-0.0020653229
-0.0011042873
-0.00017772826
-0.00037145884
-0.0017306727
-0.0029484808
-0.003773723
-0.0044608714
-0.0045114351
-0.0030446907
-0.0025010766
-0.0018938347
-0.00025877237
-0.00030950296
-0.0017399869
-0.0031316679
-0.0046675858
-0.0049986153
-0.0038776729
-0.0029179199
-0.0024471582
-0.0010958759
8.271356e-05
-0.00073502595
-0.0022655226
-0.0037451231
-0.00511861
-0.0045944529
-0.0040761958
-0.0031567837
-0.0014445332
0.00028297856
0.00039262776
-0.00047091989
-0.0024855037
-0.0039471188
-0.0043458834
-0.0045633763
-0.0042260504
-0.0024369581
-0.00034674139
0.00090127145
0.0004344115
-0.00081487318
-0.0026715423
-0.0033849999
-0.0043454673
-0.0047065459
-0.0035952341
-0.0017079757
-0.00023814687
0.00054441014
0.00024864632
-0.00041628844
-0.002109112
-0.0040884278
-0.0047277186
-0.003506833
-0.0021256336
-0.0012305719
-0.00070486732
-0.0005482955
-0.00022081952
-3.5493788e-05
-0.0023402127
-0.0050122866
-0.0043370559
-0.0025297326
-0.0015980867
-0.0014465444
-0.0016877138
-0.0021076911
-0.00079095086
-0.00049679795
-0.0024671277
-0.0035734602
-0.0048137886
-0.005203981
-0.0056885684
-0.0054259037
-0.0037043847
-0.002316801
-0.0003943156
-0.00020316314
-0.002411805
-0.0039163886
-0.0045878836
-0.0058453933
-0.0057537406
-0.0052856804
-0.0044468426
-0.0018302253
1.189297e-05
-0.0004599161
-0.0018372373
-0.003665446
-0.0053338723
-0.0052895121
-0.0058753697
-0.0059050207
-0.0042691291
-0.0023438773
-0.00038541456
-0.00043178195
-0.0025037908
-0.0042702125
-0.0050585384
-0.0057066033
-0.0059693432
-0.0050538615
-0.00458157
-0.0032056303
-0.00051382547
-0.00030931276
-0.002357321
-0.0041361011
-0.0056212066
-0.0061085543
-0.0051088262
-0.0045082149
-0.0042356721
-0.0024664551
-0.00024017904
-0.0008593902
-0.0025893218
-0.0041314224
-0.0058775808
-0.0055710534
-0.0051588085
-0.0046714265
-0.0033235391
-0.0011983813
5.8587489e-05
-0.00035276088
-0.0025441221
-0.0043517033
-0.0048546631
-0.0052980198
-0.0052765205
-0.0041923403
-0.0026591523
-0.00086957084
6.2454887e-05
-0.00076590804
-0.0030684386
-0.0038996034
-0.0044807751
-0.0051886184
-0.004842934
-0.0040037176
-0.0032017289
-0.0016797728
-0.0002177984
-0.00084773289
-0.0031088667
-0.0044864308
-0.0048212061
-0.0040399889
-0.0037000007
-0.0040705302
-0.0042701517
-0.0029805951
-0.00063261285
-0.00044152432
-0.0030955153
-0.0052750084
-0.0046033528
-0.0031813696
-0.0032460497
-0.0044851092
-0.0053127532
-0.0034606278
-0.00053782027
-0.00042123611
-0.0028383017
-0.0046898868
-0.0063586743
-0.0071404489
-0.0076017479
-0.0072583155
-0.0057504165
-0.0039342492
-0.00073707611
-0.00032048469
-0.0029909724
-0.0050977009
-0.0059925597
-0.0071149088
-0.0073594315
-0.0076046161
-0.0068451022
-0.0031442995
-0.00016945772
-0.0005230166
-0.0022276376
-0.0043865113
-0.0060498331
-0.0060193594
-0.0072373377
-0.0079936294
-0.0063832689
-0.0037328392
-0.0006791913
-0.00059236083
-0.0026875971
-0.0041980019
-0.005054017
-0.005885821
-0.0066409338
-0.0065516611
-0.0067730256
-0.0050570283
-0.00095031999
-0.00027894017
-0.0019187962
-0.0034479685
-0.0050647982
-0.0056170809
-0.0051392222
-0.0057992362
-0.0066336582
-0.0045843067
-0.00074035179
-0.00057533405
-0.0015665074
-0.0029689139
-0.0046517384
-0.0044359915
-0.0050559212
-0.0063480853
-0.0061548681
-0.0034739832
-0.00044062659
-0.00011739593
-0.0015543861
-0.0027294709
-0.0029666826
-0.0040320681
-0.0056109421
-0.0065774264
-0.0060220569
-0.0032294011
-0.00039359511
-0.00080620125
-0.0023018215
-0.001915959
-0.0024573454
-0.0042324156
-0.0058341112
-0.0070989365
-0.0068544596
-0.0035708045
-0.00038645328
-0.00084718649
-0.0021872387
-0.0026573942
-0.0032170719
-0.0034139106
-0.0049993407
-0.0072770179
-0.0074105529
-0.0033134871
-7.8923545e-05
-0.00027956808
-0.0021004114
-0.0038286877
-0.0033088126
-0.0026493705
-0.0044792058
-0.0071957579
-0.0069385456
-0.0012273449
0.0010043082
-0.00017939916
-0.0029567409
-0.00590899
-0.0079320549
-0.0088122175
-0.0094946417
-0.0094617301
-0.0078711491
-0.0049247475
-0.00074813149
-0.00041530855
-0.0035175068
-0.0059549551
-0.0071201694
-0.008578466
-0.0091005586
-0.0096831017
-0.0088653305
-0.0041007999
-0.00022448012
-0.00055324313
-0.0022549254
-0.004612569
-0.0066821017
-0.0068799272
-0.0084685099
-0.0097525208
-0.0082525847
-0.0049438823
-0.00090709491
-0.00044595185
-0.0022210857
-0.0038107535
-0.0048190757
-0.0058309026
-0.0071086665
-0.0079444353
-0.0087973583
-0.0067284572
-0.0013581934
-1.198608e-05
-0.001004972
-0.0023114752
-0.0038483795
-0.0046311169
-0.0050517785
-0.0071335385
-0.0087926165
-0.0064963136
-0.0012617846
-0.00029011767
-0.00028879557
-0.0010631899
-0.0025702653
-0.0028683085
-0.0050087097
-0.0080521975
-0.0084736512
-0.0053982344
-0.00098379009
0.00025073606
2.1159679e-05
-0.00031958311
-0.00043164792
-0.0025311602
-0.0060312476
-0.0086791352
-0.0082161096
-0.0046526108
-0.0007656932
-0.00043769866
-0.00057958627
0.00067547631
4.8716972e-05
-0.0029760706
-0.0065543064
-0.0091155783
-0.0082622694
-0.003696284
-0.00028103966
-0.0004120515
-0.00036027561
-0.00025161094
-0.00097167987
-0.0022074529
-0.0054547408
-0.0084677535
-0.0072374729
-0.0017371588
0.00049474382
0.00011159978
-0.00059872101
-0.001952181
-0.0015037144
-0.001645848
-0.0047106037
-0.0074136278
-0.0053468172
8.5158405e-05
0.00093383843
-1.7389386e-05
-0.0030349581
-0.006910171
-0.0096559561
-0.010874795
-0.011659728
-0.011544099
-0.0094709999
-0.0055151351
-0.00069909489
-0.00022060141
-0.00355697
-0.0069262917
-0.0087583949
-0.010659351
-0.011204758
-0.011573703
-0.010349056
-0.0048978497
-0.00034594575
-0.00036539738
-0.0020433664
-0.005224017
-0.0079600722
-0.0083873067
-0.010220379
-0.01158327
-0.0097506072
-0.0060392283
-0.0012049953
-0.00023134866
-0.0018708161
-0.0039259255
-0.0052829885
-0.0066806172
-0.0084263333
-0.0095450077
-0.010380346
-0.0082008963
-0.0018259906
0.00023297686
-0.00034748223
-0.0017486106
-0.0035644711
-0.0049170024
-0.006041748
-0.0085857003
-0.010314452
-0.0080779697
-0.0018077763
-8.7718944e-05
0.00061667254
5.2808107e-05
-0.0018126843
-0.0028763932
-0.0060169303
-0.0095069637
-0.009724658
-0.0067534181
-0.0015186302
0.00053629011
0.0010918662
0.0010298142
0.00061416046
-0.0025075995
-0.0070703075
-0.0098294546
-0.0087078119
-0.0052984749
-0.0011527913
-0.00010745498
0.00057750131
0.0020815033
0.0011848857
-0.002838349
-0.0072606847
-0.0093843628
-0.0076272158
-0.003707855
-0.00058982168
-4.9080673e-05
0.00081225866
0.0009985242
5.0315747e-05
-0.0018519115
-0.0054636673
-0.0077320126
-0.0057642965
-0.0022948308
-0.00039230813
0.00030406858
5.3408089e-05
-0.0012215432
-0.00085385588
-0.0013908709
-0.0044811897
-0.0063387997
-0.0046235719
-0.0034994044
-0.0013928707
0.00035588598
-0.0027936882
-0.0079902919
-0.01155448
-0.013132863
-0.013888567
-0.013324998
-0.010663647
-0.0062564801
-0.00084694727
5.0094513e-05
-0.0035706434
-0.008179973
-0.010766151
-0.013072096
-0.013520221
-0.013401419
-0.011744892
-0.0059826664
-0.00063940356
-0.00016208419
-0.0020141432
-0.00633037
-0.0098799209
-0.010627558
-0.01255612
-0.013561645
-0.011194871
-0.0070816704
-0.0014662093
-7.6359526e-05
-0.0019107212
-0.0048303763
-0.0069123994
-0.0088722339
-0.010702782
-0.011316566
-0.011674053
-0.0090931174
-0.0020179184
0.0003634687
-0.0003395838
-0.0024766183
-0.0051260506
-0.0071108712
-0.0081578819
-0.0099987075
-0.011227831
-0.0086343869
-0.001882689
-3.5848814e-05
0.00059458307
-0.00063051371
-0.0033957122
-0.0049983798
-0.0079236806
-0.01049929
-0.010100741
-0.0069514957
-0.0015386012
0.00060903254
0.00099286294
0.0003408212
-0.00072781225
-0.0043317697
-0.0084968663
-0.010098607
-0.008407862
-0.0052429443
-0.001186182
-8.6795958e-05
0.00035793647
0.0014543388
0.00016722484
-0.0041811036
-0.0080235794
-0.008840932
-0.0070454313
-0.0043074917
-0.00097435539
-0.00011179717
0.0004616393
0.00041165998
-0.00076077217
-0.0027584579
-0.0056768972
-0.0070432966
-0.0058808171
-0.004493033
-0.0014626507
9.5746638e-05
-0.00046725378
-0.0016561125
-0.0013854917
-0.002039482
-0.0046321365
-0.0061969278
-0.0062955204
-0.0054507025
-0.0016128016
0.00070216564
-0.0026616382
-0.0089366033
-0.012887964
-0.014647966
-0.015364059
-0.01448284
-0.011616428
-0.0071668997
-0.001100648
0.00021105654
-0.0038115775
-0.009260744
-0.012193917
-0.014812277
-0.015231303
-0.014846598
-0.013056808
-0.0067451141
-0.00070302877
-6.4460684e-05
-0.002221556
-0.0073875076
-0.011532482
-0.012589997
-0.01455766
-0.015184181
-0.012147278
-0.0069353526
-0.0011565021
-5.0373501e-06
-0.0022624822
-0.0060904918
-0.0089096394
-0.011350177
-0.012916364
-0.012604
-0.011890761
-0.0080984415
-0.001447613
0.00039823745
-0.00086607415
-0.0041032305
-0.0077132399
-0.010059557
-0.010282433
-0.010637123
-0.010658837
-0.0070816479
-0.0011757448
-0.00011457822
-0.00020451361
-0.0026283915
-0.0063791992
-0.0079588704
-0.0095448786
-0.010375577
-0.0089858683
-0.0053192103
-0.00089297094
0.00048674142
-5.967533e-05
-0.0017882918
-0.0034380134
-0.0066880719
-0.0092239785
-0.0091660081
-0.0071151525
-0.0039291424
-0.00066972158
-0.0003570835
-0.00090585448
-0.00038579355
-0.0018321413
-0.0057304472
-0.008073764
-0.0076240417
-0.0062111741
-0.0036655523
-0.00061235079
-0.00047351216
-0.00059052599
-0.00062224495
-0.0019495727
-0.003783179
-0.0056802933
-0.0063913139
-0.0056048596
-0.0032724348
-0.00063612627
-7.5892881e-05
-0.00067430716
-0.0017391213
-0.0019784369
-0.0029512159
-0.0049212582
-0.0059703837
-0.0055544668
-0.00046934468
0.0012563761
0.00056501407
-0.0030777276
-0.0089797701
-0.012544308
-0.014269462
-0.015124181
-0.01435878
-0.011659558
-0.0071007379
-0.00097030299
5.1103104e-05
-0.0042166773
-0.0091846903
-0.011788397
-0.014622212
-0.015232358
-0.014925195
-0.013024685
-0.0058201598
-0.00014232366
-0.00019428571
-0.0024287586
-0.0073739584
-0.011619628
-0.012880933
-0.014946489
-0.015293892
-0.011274447
-0.0049024624
-0.00031556745
-8.5510332e-05
-0.0026108656
-0.0066335959
-0.0098164918
-0.012515593
-0.013675334
-0.012307944
-0.0100743
-0.0055448589
-0.00063551014
0.00030965462
-0.0015040788
-0.005402053
-0.0096364234
-0.011973814
-0.011022499
-0.0096551319
-0.0082212464
-0.004587937
-0.00051347098
-0.00032067722
-0.0012223364
-0.0045269761
-0.0089093731
-0.0099173033
-0.0096251456
-0.0086211815
-0.0064121571
-0.0032380172
-0.00041032123
0.00023753637
-0.0013263873
-0.003845029
-0.0057124332
-0.0079236255
-0.0082804025
-0.0067551794
-0.0047086497
-0.0021276221
-0.00017818585
-0.0006982875
-0.0021574488
-0.0019097252
-0.0032706129
-0.0062305405
-0.0067251929
-0.0052116152
-0.0039545317
-0.0014503226
0.0001721011
-0.00067254803
-0.0009412764
-0.00089464464
-0.0026592322
-0.0042614822
-0.0047678058
-0.0042975539
-0.0024678038
0.0008841219
0.00083849155
0.00015543122
4.0826736e-05
-0.0016344244
-0.0029560874
-0.0039236986
-0.0042648781
-0.0034239205
-0.00094278761
0.0028012467
0.0014501842
-1.7184921e-05
-0.0036560677
-0.0074570457
-0.0099142245
-0.0114588
-0.012562094
-0.012044077
-0.0094475802
-0.0049457069
-0.00023429328
-0.00038320333
-0.0043474858
-0.0073189995
-0.0090536952
-0.011966442
-0.012729033
-0.012356951
-0.010220442
-0.0031718441
0.00064107678
-0.00047813034
-0.0022141769
-0.0057159956
-0.0095795324
-0.010777447
-0.0126991
-0.012628025
-0.008033436
-0.0023369728
0.00023373995
-0.00029117243
-0.0026064357
-0.0057774735
-0.008775664
-0.011263113
-0.011748667
-0.0095574059
-0.0068382829
-0.0036050346
-0.00044715701
9.5555911e-05
-0.0018794848
-0.0054379647
-0.0095851425
-0.011313769
-0.0091366437
-0.0067803499
-0.0053348601
-0.0032081954
-0.00044054237
-0.00062960062
-0.0019250831
-0.0050741447
-0.009311986
-0.0092207293
-0.0072692121
-0.0055547116
-0.0039895452
-0.0020140321
-0.00020812814
-1.5736929e-05
-0.0020164909
-0.0044575985
-0.0060226859
-0.0068343134
-0.0053659084
-0.0035265703
-0.0024637766
-0.00055129633
0.00031698526
-0.00083818321
-0.0025090308
-0.0022745994
-0.0034643108
-0.005218035
-0.0040154326
-0.002050611
-0.0013012267
0.0007713742
0.00084056999
-0.00053097803
-0.00060234666
-0.0010754393
-0.0033241099
-0.0039855759
-0.0024948252
-0.00083825176
0.0011850709
0.0027394725
0.00085329955
0.00034439199
9.9703276e-05
-0.0027077899
-0.0043355335
-0.0036270326
-0.0013585335
0.00073479549
0.0019895421
0.00022476786
-0.00083589971
-0.0007358495
-0.0037739747
-0.0043752681
-0.0054462482
-0.0066437841
-0.0077002004
-0.0070936467
-0.0045069278
-0.0012108943
0.00066665577
-0.00077891159
-0.0037322841
-0.0039422108
-0.00455595
-0.0071851232
-0.0075754539
-0.0066449502
-0.004752846
-6.4009754e-05
0.0010745818
-0.00070805572
-0.001309068
-0.002657622
-0.0057399635
-0.0063382798
-0.0075046329
-0.0069048206
-0.0032869999
-0.0004650762
0.00027518811
-0.00049020671
-0.002014638
-0.0034980079
-0.0057081305
-0.0072466364
-0.006665064
-0.0043994729
-0.0033059375
-0.0026141593
-0.00053321107
-0.00011452361
-0.0016027833
-0.0038098025
-0.0069940702
-0.0073675424
-0.0042452622
-0.002385205
-0.0027524684
-0.0022018333
-0.00022772306
-0.00085109936
-0.0017091337
-0.0035595214
-0.0067373932
-0.0052450537
-0.002597618
-0.0018146561
-0.0018653851
-0.00058821863
0.00028362073
-3.1359262e-05
-0.0014072159
-0.0028994127
-0.0037346996
-0.0033000965
-0.0011214299
-0.00016475931
-0.00025866254
0.00098218743
0.00072859191
-0.00055196837
-0.0015203076
-0.0013140442
-0.0022177775
-0.0026602369
-0.00037717257
0.0013508714
0.0011809624
0.0015467795
0.00068647493
-0.00019530476
-0.00018728792
-0.0014525042
-0.003200168
-0.0018595441
0.0013723758
0.0028815881
0.0030912529
0.0013082401
-0.00032756662
0.00021262129
-0.00077448948
-0.0038641935
-0.0039545347
-0.0006342963
0.0028068482
0.0034858693
0.001507015
0.00075980211
0.00032084968
-0.0012129215
-0.002967486
-0.00038762019
-0.00029641748
-0.00085770785
-0.0012710196
-0.00033807757
0.0017485924
0.0025746835
0.0013054842
-0.0008285127
-0.0021779214
0.0001140128
0.00063767444
-0.0011540444
-0.00071432604
0.00074614754
0.001512587
0.002634396
0.001226486
-0.00068654517
0.00031853739
0.0011008415
-0.00091838499
-0.00048412295
-0.00074140664
5.6532426e-05
0.0016234915
0.0010217384
0.00025528952
-0.00049409071
-0.00068945988
-0.00020639309
-0.0013317957
-0.0016602655
-0.00020429138
0.001414656
0.00033133435
-0.0013411521
-0.00042671881
-6.3817102e-05
-0.00030342991
-0.00086862869
-0.0028307882
-0.0018551151
0.0014075261
0.00213596
0.00040847862
-0.00056641317
4.5527206e-05
-0.00069164842
-0.00031587498
-0.00071261423
-0.0027027878
-0.00038371453
0.0018208405
0.0016842756
0.001231451
0.00070194304
0.00014585908
0.00030731187
0.00022618292
-0.00035859406
-0.00068185549
0.00017001687
0.0021685508
0.0029448337
0.002747484
0.00084729905
-0.00026389252
3.1168308e-05
7.8734954e-05
-4.4105832e-05
-0.00062336048
-0.00011409503
0.0026297145
0.0045676059
0.0033588628
-0.00045442621
-0.0009614803
0.00014997499
0.00010108215
-0.0015398468
-0.0018968686
0.0010701334
0.004507556
0.0050722455
0.003373928
-0.00073818768
-0.0013309271
7.0976723e-05
-0.0014742101
-0.0040196539
-0.0022115116
0.0019290002
0.0040434263
0.0034112363
0.001773376
0.0024666737
0.001175094
-0.0010419829
-0.0010405446
0.0034253767
0.0041721283
0.0044664662
0.0050869675
0.0059943117
0.0067024909
0.0050519245
0.0016360417
-0.00039179252
1.9692241e-05
0.0036466969
0.0051204341
0.0046083855
0.0056851138
0.0067365491
0.0060326061
0.00416446
0.0011403709
-0.00033515842
0.0022626223
0.0044047231
0.0036337934
0.0050712711
0.0048973548
0.0051845442
0.005048222
0.0018801161
0.00013061633
-0.00024424579
0.00099903832
0.0031578652
0.0030081354
0.0032634952
0.0046301591
0.0053393372
0.0031685159
-0.00029096318
-0.00046832192
0.0002970455
0.0017242872
0.0022924241
0.00099286584
0.0023616789
0.0047666451
0.0049618585
0.003190114
0.00029829582
-0.00020939107
-0.00014963287
0.0016038435
0.0018129749
0.00029854294
0.0022862758
0.0035473771
0.0038133886
0.0036540959
0.00035689854
-0.00070584726
0.00069580966
0.0015346745
0.0012374693
0.00086215616
0.0012788968
0.0030521082
0.0048436049
0.0041165526
-0.00076949772
-0.0012875357
0.0003451921
0.00079407582
0.00041576291
7.5857315e-05
0.00076032708
0.0034291234
0.0057005143
0.0026749409
-0.0025101998
-0.0013932031
0.00024921974
-0.0001195946
-0.0016266209
-0.00099595178
0.0017644768
0.0039785467
0.0038644497
0.0017384038
-0.00042989128
-0.00043677341
-0.00024645088
-0.0023777324
-0.0040396603
-0.001505963
0.0014081888
0.0023613297
0.0028334159
0.0030145473
-6.3773768e-05
-0.0011491248
-0.00027243688
0.0013021839
0.0058993592
0.0068286418
0.0077848803
0.009305215
0.0096776985
0.0085478968
0.0053419015
0.0015408311
0.00029539721
0.001974455
0.0056264416
0.0076233321
0.0083885248
0.0096211882
0.0092512666
0.0072007356
0.0037888972
0.00071901006
0.00017574382
0.0038190248
0.0061963836
0.0065865327
0.0086589104
0.0076785636
0.0069441302
0.0054971344
0.0013640307
-0.00010278995
0.00011345225
0.0022714794
0.0054587547
0.005793537
0.0057615916
0.0065904262
0.0064083342
0.0035428871
-0.00067975096
-0.00071948125
0.00070553752
0.003576916
0.0043665884
0.0027355893
0.0038955724
0.0055440291
0.0055962904
0.0034627969
-0.00074188272
-0.00076297095
0.0005158819
0.0031455095
0.0028318217
0.0010301991
0.0025299923
0.003554599
0.0041859303
0.0031635855
-0.0012517819
-0.0012160718
0.00091618627
0.0019502644
0.0013358264
0.00060105498
0.0008597452
0.0028009931
0.0044325538
0.0023107129
-0.0015335355
-0.00079610401
0.00023159394
0.00041194118
-1.111087e-05
-0.00031764072
0.00030758869
0.0023908623
0.0034456674
-0.00015447535
-0.0017566358
1.4753169e-06
1.8078821e-05
-0.001100498
-0.0023220221
-0.0014332828
0.00048044342
0.0016489093
0.0011144928
0.00089909707
0.00075008308
2.3926573e-05
-0.00080374228
-0.0035659297
-0.004479759
-0.0024235543
-0.0002644423
0.0015992097
0.0029408134
0.002129143
0.00030383555
-0.00029602301
0.00054753605
0.0028641711
0.0066004486
0.0074566139
0.0082838468
0.010068217
0.0099802523
0.0075014196
0.0039645122
0.0011732946
0.00082934222
0.0030112577
0.0059978078
0.007515061
0.0086718578
0.01006955
0.0085466953
0.0056267427
0.0026308953
0.00057910537
0.00064559373
0.0046481996
0.0058335171
0.0062739182
0.008693627
0.0074483879
0.0060575075
0.0036489937
0.00038808355
-5.2249144e-05
0.00042758159
0.0022443262
0.0049398554
0.0052457803
0.0051528298
0.0063383891
0.0054880906
0.0021580435
-0.001553885
-0.00087885057
0.00068455838
0.0034655039
0.0035642365
0.0015195274
0.0032255078
0.0051427231
0.0047154124
0.0021353384
-0.0015406225
-0.00084781404
0.0006862557
0.0026541065
0.0014208273
-0.00022233897
0.0018126382
0.0032210411
0.0030162222
0.0015029907
-0.0013054989
-0.0007881513
0.00068544688
0.00084567443
-0.00016692477
-0.00078613732
0.00010816001
0.001879029
0.0020096594
0.00071984005
-0.00010790404
0.00014183655
-0.00026944887
-0.0012686383
-0.0016377777
-0.001564434
-0.00065923007
0.00051528801
0.00059206661
0.00020213468
0.00073425338
0.00049385906
-0.00056433758
-0.0030067513
-0.0036356239
-0.0022997928
-0.00054689309
0.00046353071
0.00070880338
0.003585844
0.0016387417
-0.00094953919
-0.0011585269
-0.0048450671
-0.0058225576
-0.0034931401
-0.00041084417
0.0019480066
0.0026318188
0.0019487804
0.0037892287
0.001927517
0.0010094975
0.0031448635
0.0057642647
0.0064736223
0.0065503109
0.00813212
0.008114275
0.0053760417
0.0030428569
0.0012395375
0.00097308769
0.0027622879
0.005111455
0.0058937271
0.0064527383
0.0079459904
0.0062601474
0.0038100283
0.002865482
0.0011582802
0.00075444711
0.0044537914
0.0047882959
0.0044452773
0.0061181552
0.0051535542
0.0038896894
0.0019457832
0.00050278124
0.00028812427
0.00053788123
0.0017863191
0.003560447
0.0031474087
0.0028098676
0.0046239732
0.0038609144
0.0010463595
-0.0011147611
-0.0004538472
0.00036785033
0.0024254463
0.0020419774
-0.00022383665
0.0018495409
0.0039081359
0.003317316
0.0011475843
0.00024841616
0.00050113076
0.00047283277
0.0013541633
-8.2423814e-05
-0.0011212056
0.0010415922
0.0020722873
0.0015344704
0.0010278568
0.0015235332
0.00092887955
0.00024376394
-0.00055311961
-0.0012800399
-0.0014692548
-0.00070214494
0.00030541423
0.00081225127
0.0018626876
0.0028127462
0.0012418208
-0.00076325235
-0.0028704223
-0.0024816567
-0.0016935789
-0.0012848519
-0.00043277753
0.0017343439
0.0034864332
0.0029986655
0.00088797854
-0.00080024497
-0.003983378
-0.0040437088
-0.002267454
-0.00072064773
0.0010205176
0.0032708276
0.0056452569
0.0050293567
0.0012803453
-0.00088150225
-0.0054104979
-0.0064618999
-0.0019479442
0.0013534424
0.0021315526
0.0032094761
0.0057030436
0.0064673752
0.0018466575
0.001019247
0.0025758905
0.004388172
0.0050960153
0.0041575229
0.0051532297
0.0058325022
0.0043403117
0.0037253429
0.0016446423
0.00091172829
0.002356811
0.0039356667
0.0038304532
0.0032439405
0.0048010207
0.0044573274
0.0040687686
0.0042051403
0.0014350758
0.000873194
0.0034587196
0.002967717
0.0026162144
0.0032729057
0.0026462951
0.0028102675
0.0022289117
0.00055314891
-2.4207089e-05
0.00061005793
0.0009363558
0.0020943346
0.0021009464
0.001137701
0.0029697992
0.0035334761
0.0013106696
-0.00094600242
-0.00038878325
2.9486067e-05
0.00097891874
0.0012382101
0.00021577528
0.0012399803
0.0025087458
0.0028352361
0.0015148456
0.0015028253
0.001094797
1.0030239e-06
5.1738718e-05
-1.1904807e-05
6.8020987e-05
0.00056381981
0.00095176307
0.0017308451
0.0025536499
0.0025202779
0.00078624656
-0.00020531996
-0.0015280161
-0.00059301138
7.8226086e-05
-0.00077805587
0.0005287626
0.0029884594
0.0040972715
0.0026516476
0.0005232104
-0.00091578012
-0.0029704959
-0.00093575619
9.29896e-05
-0.0012388112
0.0011049863
0.0053518523
0.0045394173
0.0021114782
0.00076546377
-0.00038634867
-0.003639416
-0.0033511104
-0.0006358402
0.00046492419
0.0031111886
0.004974227
0.0055350654
0.0060386077
0.0021174184
-0.00059591512
-0.00614269
-0.0060868991
0.001042666
0.002227469
0.0022538084
0.0049430527
0.0079263777
0.0068065451
0.001277422
0.00036583899
0.0016306076
0.003301729
0.0031435033
0.0018541058
0.0030423828
0.0049837945
0.00522152
0.0039957926
0.0010974445
0.00087207065
0.0025726507
0.0026601564
0.0013595991
0.00060476685
0.0032333144
0.0052100734
0.0053492473
0.0035547475
0.00054869245
0.00099386775
0.0025568977
0.00071202069
0.0011183331
0.0021630013
0.0024935501
0.0044201222
0.0029577358
0.00074291478
0.00026822922
0.00044435569
-1.7057626e-05
0.0012342788
0.0020158862
0.00086412857
0.0032498134
0.0041984165
0.0017400084
0.0012673657
0.00082804854
-0.00019540168
0.00053172764
0.0013683078
0.0010052347
0.0013428082
0.0025555319
0.0028500703
0.0021226492
0.0023135639
0.00091100274
-0.00038853695
0.00029183781
0.0014936404
0.0011956931
0.00079968441
0.0019319725
0.0028294159
0.0032474116
0.00074979417
-0.00091812372
-6.8113912e-05
-1.7105236e-05
0.0013848065
0.0010672166
2.4967392e-05
0.0026221916
0.0039848074
0.0027449138
0.00084070885
-0.00018939829
-0.0002376845
-0.00027183464
0.00048198368
-0.00037435877
-0.00056931635
0.0030667094
0.0043690897
0.0020663885
0.0027050879
0.0014289424
1.703764e-05
-0.0022808894
-0.0022244323
0.00023213002
0.0015323704
0.0032444561
0.0028037843
0.0068361411
0.00418365
-0.001140606
-0.00053171447
-0.0035247123
-0.0018053982
0.0011962903
-0.0010868879
0.0015938545
0.0063243833
0.0054093296
0.0026179661
0.00038515303
-0.0019242759
-0.0042221847
0.00046404151
0.0027603406
0.0018979969
0.0039910951
0.0062421501
0.0053234569
0.0016684331
-0.00031100007
-0.001616381
0.00041193192
0.005536191
0.0017805177
-0.00045137719
0.0041394854
0.0061035135
0.0046283266
0.0019966841
-0.00013321448
0.0011651352
0.0055662242
0.0037188231
0.0003405134
0.00075772985
0.0030512487
0.0058564526
0.0031126952
0.00069920521
0.0004728215
0.001765052
0.0036667136
0.0019001191
-2.594021e-05
0.00023688236
0.0033718224
0.0046669612
0.0027474266
0.0001802876
-8.5462735e-05
0.00051191999
0.0031463969
0.0019123652
-0.00050960947
0.0016078205
0.0033224803
0.0043350381
0.0028273587
-0.00020604557
-0.00024637876
0.00019880268
0.0025264464
0.0025883785
0.00082415059
0.0014786833
0.0022277804
0.0027487763
0.0015510269
0.00090740977
0.00059469843
0.00061084686
0.0022065503
0.001144702
-0.00023837771
0.00046377863
0.0017211549
0.0025972784
0.00069927822
-0.0015931066
-0.00057312195
0.00010637824
0.0021407489
0.0011518262
-0.00069726395
-0.00043950143
0.00049002088
0.0030802829
0.0014131946
-0.002318211
-0.0011418243
0.00014742676
-4.2113015e-06
-0.00073619811
-0.00052371445
-0.00073262123
-0.00040692547
0.0024594463
0.0012621835
-0.00138408
-0.0003330968
0.00032521236
0.001171521
-0.00066457025
-0.0016025147
0.0002876204
-0.00089704042
-0.00014533776
0.0016222213
-0.00018748389
-0.00034409343
-0.0027865167
-0.01172846
-0.012536768
-0.0061296677
0.0031216046
0.010792002
0.0098560276
0.004970176
0.0028460632
0.00080206867
-0.0029272218
-0.010186065
-0.0038417387
0.00062728373
-0.00023729893
0.0069988316
0.0090892955
0.0066452591
0.0039345495
0.00031244353
-0.0017582532
0.0049219271
0.0086964221
3.6921047e-05
-0.0037450374
0.001199278
0.0074960593
0.0040873954
-0.002094326
-0.0016865223
0.0028694641
0.011047125
0.0088159196
0.00043079754
-0.0031565326
-0.0012686628
0.00041578673
0.00080725852
-0.0019766167
-0.0017425098
0.0027463811
0.011088516
0.0084999361
-0.0011638275
-0.0031249052
-0.00074188382
-2.2442042e-05
0.0035456392
0.0020877438
-0.00077902638
0.000630195
0.0041804824
0.0058966861
0.00105093
-0.0030658965
-0.0032935391
-0.0031671258
0.0038698195
0.0081421314
0.0019622633
0.00021760104
0.0014957921
0.0002324415
-0.0031049892
-0.0051497814
-0.0029149965
-0.0006065635
0.0025621304
0.0070475888
0.0025414334
0.00011904046
0.0018205144
-0.0027768228
-0.0064675714
-0.0066488091
-0.0038776606
0.0014408197
0.0045224726
0.0047706137
0.00064440477
0.0013343232
0.00061301156
-0.0056055591
-0.0036467454
-0.0020872205
-0.0038985053
4.6089615e-05
0.00091332875
-0.00050456824
-8.7242029e-05
0.00084469798
-0.0031198749
-0.008687989
-0.0022855015
0.0034699391
0.0010821845
-0.0019306981
-0.0030296846
0.0039988772
0.0036467017
0.00025744844
0.0058268991
0.0078333119
0.00039778237
-0.0040599218
-0.0034708932
0.0027949146
0.0068345273
-0.00032895351
-0.0019751945
0.0025163448
0.0081307462
0.0022538973
-0.0032878042
1.8593222e-05
0.0009838375
0.0039939527
0.0051591654
-0.0013289404
-0.0015159499
0.0017933465
0.00017118825
-0.0028822705
-0.0027398243
0.0011968864
0.0057996326
0.0051261112
0.0024379407
-0.00049870269
-2.4595406e-05
-0.001203265
-0.0025848363
-0.0021312635
-0.0021600813
0.00050787705
0.0042052219
0.004990107
0.00086896708
0.00014568995
0.0009188278
-0.00066371132
-0.0029664184
-0.0017545476
0.00057972505
-0.00031201142
-0.00019777858
-0.00050266752
-0.0043242044
-0.0026502365
0.00046243081
0.001515745
0.0026719721
-0.0016419797
-0.0036689792
-0.0018535821
0.00046306854
-2.5017613e-05
-0.0076496288
-0.010946951
-0.0026735639
0.0023061093
0.0063041074
0.0014668367
-0.0054176859
-0.0040541646
-0.00048215927
-0.00069964213
-0.0067557437
-0.011866769
-0.0035620622
0.0023151038
0.0050031687
-0.00064582531
-0.0092977581
-0.0068687069
0.00026609411
-0.00094744496
-0.0069500416
-0.0069545265
-0.00064354081
0.0011892013
0.0019075209
-0.0028233615
-0.012179831
-0.012572761
-0.0029136984
-5.4797056e-08
0.0016277345
0.0036662071
0.0010747377
0.001648446
0.0048334196
0.00082880487
-0.011449292
-0.017961348
-0.0089504381
0.0030449798
0.0085829342
0.0023565425
-0.0015166505
-0.0012169344
-0.0016293277
-0.002582773
-0.002958049
-0.0023422621
-0.003993822
0.0024104111
0.0021026968
-0.002289987
-0.0001010071
-0.00098513874
0.00063979195
-0.00043835252
-0.0052145595