/*--------------------------------*- C++ -*----------------------------------*\
| =========                 |                                                 |
| \\      /  F ield         | OpenFOAM: The Open Source CFD Toolbox           |
|  \\    /   O peration     | Version:  v2106                                 |
|   \\  /    A nd           | Website:  www.openfoam.com                      |
|    \\/     M anipulation  |                                                 |
\*---------------------------------------------------------------------------*/
FoamFile
{
    version     2.0;
    format      ascii;
    arch        "LSB;label=32;scalar=64";
    class       volVectorField;
    location    "10";
    object      gradT;
}
// * * * * * * * * * * * * * * * * * * * * * * * * * * * * * * * * * * * * * //

dimensions      [0 -1 0 1 0 0 0];

internalField   nonuniform List<vector> 
10000
(
(1.0657952e-05 1.0657971e-05 2344.9072)
(-0.00026401446 -6.9671633e-05 2344.907)
(-0.0008421095 -6.3758174e-05 2344.906)
(-0.00087646436 4.9986397e-06 2344.9039)
(-0.0011787218 -0.00030041885 2344.902)
(-0.0016233965 -0.00015939391 2344.8994)
(-0.00050641708 0.00011325896 2344.8964)
(-0.00088413125 -0.00054695067 2344.8962)
(-0.0012340294 -0.00013220658 2344.893)
(-6.48562e-05 0.00041676253 2344.8928)
(-6.9671652e-05 -0.00026401443 2344.907)
(-0.00037563868 -0.00037563862 2344.9066)
(-0.00073010409 -0.00025542371 2344.9052)
(-0.0012314554 -0.00070988756 2344.9035)
(-0.0014253106 -0.00079049059 2344.9007)
(-0.0010028798 -0.00048599438 2344.8982)
(-0.0010877522 -0.00088996461 2344.8963)
(-0.0012523296 -0.0014411121 2344.8938)
(0.00021154037 -0.00042307317 2344.8922)
(0.00048411291 -0.00029945679 2344.894)
(-6.3758174e-05 -0.00084210947 2344.906)
(-0.00025542374 -0.00073010401 2344.9052)
(-0.0011763584 -0.0011763585 2344.9045)
(-0.0014115312 -0.0013347775 2344.9013)
(-0.00095482861 -0.00093034996 2344.8992)
(-0.0017228705 -0.0015882767 2344.8969)
(-0.0014615348 -0.0021057567 2344.893)
(-0.00041723982 -0.0013203141 2344.8916)
(-9.2374108e-05 -0.0014195338 2344.8908)
(1.7554726e-05 -0.002336993 2344.8906)
(4.9986588e-06 -0.00087646441 2344.9039)
(-0.0007098877 -0.0012314554 2344.9035)
(-0.0013347776 -0.0014115313 2344.9013)
(-0.00098544683 -0.00098544695 2344.8989)
(-0.0016788098 -0.0017145202 2344.8968)
(-0.0021782865 -0.0023042984 2344.8925)
(-0.00081978953 -0.0016641628 2344.8894)
(-0.00056610671 -0.0016183089 2344.8889)
(-0.00080513854 -0.0022056847 2344.8866)
(-0.00012752652 -0.0021461319 2344.886)
(-0.00030041885 -0.0011787219 2344.902)
(-0.00079049059 -0.0014253108 2344.9007)
(-0.00093034996 -0.00095482855 2344.8992)
(-0.0017145202 -0.0016788098 2344.8968)
(-0.0022736801 -0.0022736801 2344.8927)
(-0.0016725132 -0.0018334822 2344.8889)
(-0.00077554532 -0.0016953117 2344.8867)
(-0.00095876172 -0.0020753377 2344.8854)
(-0.00062019708 -0.0016113679 2344.8832)
(5.7256614e-05 -0.00096270801 2344.8835)
(-0.00015939393 -0.0016233965 2344.8994)
(-0.00048599438 -0.0010028797 2344.8982)
(-0.0015882766 -0.0017228705 2344.8969)
(-0.0023042983 -0.0021782864 2344.8925)
(-0.0018334823 -0.0016725131 2344.8889)
(-0.0015999182 -0.0015999182 2344.8858)
(-0.0010616451 -0.0018706187 2344.883)
(-0.0004821629 -0.0016957332 2344.8816)
(0.00030749118 -0.00071332335 2344.8811)
(0.00030491342 -0.00026946117 2344.8824)
(0.00011325898 -0.000506417 2344.8964)
(-0.00088996467 -0.0010877522 2344.8963)
(-0.0021057566 -0.0014615347 2344.893)
(-0.0016641627 -0.00081978956 2344.8894)
(-0.0016953119 -0.00077554537 2344.8867)
(-0.0018706188 -0.001061645 2344.883)
(-0.00087136036 -0.00087136036 2344.8802)
(0.00019853368 -0.00049483563 2344.8796)
(0.00080607495 -2.997524e-06 2344.8804)
(0.00035316473 2.4641055e-06 2344.8818)
(-0.00054695073 -0.0008841312 2344.8962)
(-0.0014411121 -0.0012523295 2344.8938)
(-0.001320314 -0.00041723976 2344.8916)
(-0.001618309 -0.00056610682 2344.8889)
(-0.0020753377 -0.00095876175 2344.8854)
(-0.0016957332 -0.00048216293 2344.8816)
(-0.00049483572 0.00019853371 2344.8796)
(0.00038619993 0.00038619996 2344.8794)
(0.00080479091 0.00043787321 2344.8802)
(0.00030855451 0.0001876721 2344.8814)
(-0.00013220658 -0.0012340294 2344.893)
(-0.00042307323 0.00021154048 2344.8922)
(-0.0014195339 -9.2374165e-05 2344.8908)
(-0.0022056847 -0.00080513865 2344.8866)
(-0.001611368 -0.00062019703 2344.8832)
(-0.00071332335 0.00030749106 2344.8811)
(-2.997467e-06 0.00080607484 2344.8804)
(0.00043787318 0.00080479091 2344.8802)
(0.00060754709 0.00060754701 2344.8808)
(0.00018636399 3.7370683e-05 2344.8811)
(0.00041676255 -6.4856219e-05 2344.8928)
(-0.00029945682 0.00048411291 2344.894)
(-0.0023369931 1.7554726e-05 2344.8906)
(-0.0021461319 -0.00012752654 2344.886)
(-0.00096270799 5.7256633e-05 2344.8835)
(-0.00026946131 0.00030491344 2344.8824)
(2.464134e-06 0.00035316466 2344.8818)
(0.0001876721 0.00030855451 2344.8814)
(3.7370683e-05 0.00018636393 2344.8811)
(-7.1563041e-05 -7.1563098e-05 2344.8801)
(-0.00028677385 -0.00028677382 2345.5889)
(-0.0010906311 -0.00017085707 2345.5881)
(-0.0021150952 -0.0005672058 2345.5866)
(-0.0033630982 -0.0003714589 2345.5854)
(-0.0031188786 -0.00030950298 2345.5827)
(-0.0034538587 -0.00073502592 2345.5813)
(-0.0032850429 -0.00047091991 2345.5786)
(-0.0024417146 -0.00081487326 2345.5764)
(-0.0014356172 -0.00041628846 2345.5758)
(-2.3661263e-05 -3.549377e-05 2345.5753)
(-0.00017085711 -0.0010906311 2345.5881)
(-0.0015112791 -0.0015112791 2345.5879)
(-0.0024159979 -0.0014452417 2345.5861)
(-0.002976544 -0.0017306729 2345.5847)
(-0.0036642291 -0.001739987 2345.5827)
(-0.0036959841 -0.0022655226 2345.5803)
(-0.0034048139 -0.0024855038 2345.5779)
(-0.0023597675 -0.0026715425 2345.5761)
(-0.00026654797 -0.002109112 2345.5748)
(0.00035713343 -0.0023402125 2345.574)
(-0.00056720586 -0.0021150952 2345.5866)
(-0.0014452418 -0.0024159978 2345.5861)
(-0.0023344889 -0.0023344888 2345.5851)
(-0.0036578435 -0.0029484807 2345.5836)
(-0.0036537283 -0.0031316678 2345.5811)
(-0.0041993755 -0.003745123 2345.5792)
(-0.0036910627 -0.0039471188 2345.577)
(-0.0020653229 -0.0033849998 2345.5748)
(-0.0011042873 -0.0040884279 2345.5731)
(-0.00017772826 -0.0050122866 2345.5725)
(-0.00037145884 -0.0033630983 2345.5854)
(-0.0017306727 -0.002976544 2345.5847)
(-0.0029484808 -0.0036578434 2345.5836)
(-0.003773723 -0.0037737229 2345.5818)
(-0.0044608714 -0.0046675858 2345.5795)
(-0.0045114351 -0.0051186099 2345.5777)
(-0.0030446907 -0.0043458832 2345.5757)
(-0.0025010766 -0.0043454671 2345.5735)
(-0.0018938347 -0.0047277185 2345.5717)
(-0.00025877237 -0.0043370558 2345.5711)
(-0.00030950296 -0.0031188785 2345.5827)
(-0.0017399869 -0.0036642291 2345.5827)
(-0.0031316679 -0.0036537284 2345.5811)
(-0.0046675858 -0.0044608714 2345.5795)
(-0.0049986153 -0.0049986154 2345.5772)
(-0.0038776729 -0.0045944529 2345.5757)
(-0.0029179199 -0.0045633762 2345.5738)
(-0.0024471582 -0.004706546 2345.5719)
(-0.0010958759 -0.0035068329 2345.5705)
(8.271356e-05 -0.0025297327 2345.5701)
(-0.00073502595 -0.0034538586 2345.5813)
(-0.0022655226 -0.003695984 2345.5803)
(-0.0037451231 -0.0041993755 2345.5792)
(-0.00511861 -0.004511435 2345.5777)
(-0.0045944529 -0.003877673 2345.5757)
(-0.0040761958 -0.0040761959 2345.574)
(-0.0031567837 -0.0042260505 2345.5721)
(-0.0014445332 -0.0035952341 2345.5704)
(0.00028297856 -0.0021256337 2345.5693)
(0.00039262776 -0.0015980868 2345.5689)
(-0.00047091989 -0.003285043 2345.5786)
(-0.0024855037 -0.0034048138 2345.5779)
(-0.0039471188 -0.0036910627 2345.577)
(-0.0043458834 -0.0030446906 2345.5757)
(-0.0045633763 -0.00291792 2345.5738)
(-0.0042260504 -0.0031567836 2345.5721)
(-0.0024369581 -0.0024369583 2345.5704)
(-0.00034674139 -0.0017079757 2345.5688)
(0.00090127145 -0.0012305719 2345.5675)
(0.0004344115 -0.0014465441 2345.5671)
(-0.00081487318 -0.0024417146 2345.5764)
(-0.0026715423 -0.0023597674 2345.5761)
(-0.0033849999 -0.0020653229 2345.5748)
(-0.0043454673 -0.0025010764 2345.5735)
(-0.0047065459 -0.0024471582 2345.5719)
(-0.0035952341 -0.0014445331 2345.5704)
(-0.0017079757 -0.00034674139 2345.5688)
(-0.00023814687 -0.0002381469 2345.5669)
(0.00054441014 -0.00070486732 2345.5652)
(0.00024864632 -0.0016877138 2345.5644)
(-0.00041628844 -0.0014356171 2345.5758)
(-0.002109112 -0.00026654797 2345.5748)
(-0.0040884278 -0.0011042874 2345.5731)
(-0.0047277186 -0.0018938347 2345.5717)
(-0.003506833 -0.001095876 2345.5705)
(-0.0021256336 0.00028297865 2345.5693)
(-0.0012305719 0.00090127145 2345.5675)
(-0.00070486732 0.00054440997 2345.5652)
(-0.0005482955 -0.0005482955 2345.5628)
(-0.00022081952 -0.0021076913 2345.5616)
(-3.5493788e-05 -2.3661206e-05 2345.5753)
(-0.0023402127 0.00035713344 2345.574)
(-0.0050122866 -0.00017772832 2345.5725)
(-0.0043370559 -0.00025877241 2345.5711)
(-0.0025297326 8.2713541e-05 2345.5701)
(-0.0015980867 0.00039262788 2345.5689)
(-0.0014465444 0.00043441149 2345.5671)
(-0.0016877138 0.00024864621 2345.5644)
(-0.0021076911 -0.00022081952 2345.5616)
(-0.00079095086 -0.00079095086 2345.5609)
(-0.00049679795 -0.00049679791 2346.8449)
(-0.0024671277 -0.0002031631 2346.8447)
(-0.0035734602 -0.00045991614 2346.8432)
(-0.0048137886 -0.00043178202 2346.8421)
(-0.005203981 -0.0003093128 2346.8402)
(-0.0056885684 -0.0008593902 2346.8381)
(-0.0054259037 -0.00035276092 2346.836)
(-0.0037043847 -0.00076590804 2346.8341)
(-0.002316801 -0.00084773285 2346.8327)
(-0.0003943156 -0.00044152428 2346.8316)
(-0.00020316314 -0.0024671277 2346.8447)
(-0.002411805 -0.0024118049 2346.8445)
(-0.0039163886 -0.0018372373 2346.8432)
(-0.0045878836 -0.0025037907 2346.8418)
(-0.0058453933 -0.0023573211 2346.8402)
(-0.0057537406 -0.0025893218 2346.8383)
(-0.0052856804 -0.0025441223 2346.8365)
(-0.0044468426 -0.0030684388 2346.8341)
(-0.0018302253 -0.0031088667 2346.8321)
(1.189297e-05 -0.0030955151 2346.8313)
(-0.0004599161 -0.0035734602 2346.8432)
(-0.0018372373 -0.0039163884 2346.8432)
(-0.003665446 -0.003665446 2346.8424)
(-0.0053338723 -0.0042702124 2346.8412)
(-0.0052895121 -0.0041361008 2346.84)
(-0.0058753697 -0.0041314224 2346.8388)
(-0.0059050207 -0.0043517034 2346.8369)
(-0.0042691291 -0.0038996034 2346.8345)
(-0.0023438773 -0.0044864308 2346.8326)
(-0.00038541456 -0.0052750084 2346.8319)
(-0.00043178195 -0.0048137885 2346.8421)
(-0.0025037908 -0.0045878835 2346.8418)
(-0.0042702125 -0.0053338722 2346.8412)
(-0.0050585384 -0.0050585386 2346.8405)
(-0.0057066033 -0.0056212065 2346.8399)
(-0.0059693432 -0.0058775808 2346.8391)
(-0.0050538615 -0.004854663 2346.8378)
(-0.00458157 -0.004480775 2346.8356)
(-0.0032056303 -0.004821206 2346.8335)
(-0.00051382547 -0.0046033528 2346.8325)
(-0.00030931276 -0.005203981 2346.8402)
(-0.002357321 -0.0058453934 2346.8402)
(-0.0041361011 -0.0052895119 2346.84)
(-0.0056212066 -0.0057066033 2346.8399)
(-0.0061085543 -0.0061085543 2346.8396)
(-0.0051088262 -0.0055710534 2346.8393)
(-0.0045082149 -0.0052980197 2346.8383)
(-0.0042356721 -0.0051886184 2346.8364)
(-0.0024664551 -0.0040399889 2346.8341)
(-0.00024017904 -0.0031813694 2346.8329)
(-0.0008593902 -0.0056885686 2346.8381)
(-0.0025893218 -0.0057537408 2346.8383)
(-0.0041314224 -0.0058753697 2346.8388)
(-0.0058775808 -0.005969343 2346.8391)
(-0.0055710534 -0.0051088261 2346.8393)
(-0.0051588085 -0.0051588085 2346.8393)
(-0.0046714265 -0.0052765204 2346.8383)
(-0.0033235391 -0.004842934 2346.8361)
(-0.0011983813 -0.0037000006 2346.8336)
(5.8587489e-05 -0.0032460497 2346.8323)
(-0.00035276088 -0.0054259038 2346.836)
(-0.0025441221 -0.0052856806 2346.8365)
(-0.0043517033 -0.0059050207 2346.8369)
(-0.0048546631 -0.0050538615 2346.8378)
(-0.0052980198 -0.0045082149 2346.8383)
(-0.0052765205 -0.0046714265 2346.8383)
(-0.0041923403 -0.0041923404 2346.8369)
(-0.0026591523 -0.0040037176 2346.8342)
(-0.00086957084 -0.0040705303 2346.8313)
(6.2454887e-05 -0.0044851091 2346.83)
(-0.00076590804 -0.0037043845 2346.8341)
(-0.0030684386 -0.0044468425 2346.8341)
(-0.0038996034 -0.0042691291 2346.8345)
(-0.0044807751 -0.00458157 2346.8356)
(-0.0051886184 -0.0042356721 2346.8364)
(-0.004842934 -0.0033235391 2346.8361)
(-0.0040037176 -0.0026591523 2346.8342)
(-0.0032017289 -0.003201729 2346.8307)
(-0.0016797728 -0.0042701517 2346.8275)
(-0.0002177984 -0.0053127533 2346.8266)
(-0.00084773289 -0.0023168008 2346.8327)
(-0.0031088667 -0.0018302252 2346.8321)
(-0.0044864308 -0.0023438774 2346.8326)
(-0.0048212061 -0.0032056302 2346.8335)
(-0.0040399889 -0.0024664551 2346.8341)
(-0.0037000007 -0.0011983813 2346.8336)
(-0.0040705302 -0.00086957081 2346.8313)
(-0.0042701517 -0.0016797729 2346.8275)
(-0.0029805951 -0.0029805951 2346.8246)
(-0.00063261285 -0.0034606279 2346.8248)
(-0.00044152432 -0.00039431556 2346.8316)
(-0.0030955153 1.1893008e-05 2346.8313)
(-0.0052750084 -0.00038541462 2346.8319)
(-0.0046033528 -0.0005138254 2346.8325)
(-0.0031813696 -0.00024017911 2346.8329)
(-0.0032460497 5.8587527e-05 2346.8323)
(-0.0044851092 6.245485e-05 2346.83)
(-0.0053127532 -0.00021779844 2346.8266)
(-0.0034606278 -0.00063261283 2346.8248)
(-0.00053782027 -0.00053782026 2346.8275)
(-0.00042123611 -0.00042123615 2348.7277)
(-0.0028383017 -0.00032048473 2348.7282)
(-0.0046898868 -0.0005230166 2348.7272)
(-0.0063586743 -0.00059236082 2348.7258)
(-0.0071404489 -0.00027894023 2348.7241)
(-0.0076017479 -0.00057533413 2348.7222)
(-0.0072583155 -0.00011739598 2348.7203)
(-0.0057504165 -0.00080620119 2348.7182)
(-0.0039342492 -0.00084718643 2348.7161)
(-0.00073707611 -0.00027956804 2348.7156)
(-0.00032048469 -0.0028383017 2348.7282)
(-0.0029909724 -0.0029909724 2348.7278)
(-0.0050977009 -0.0022276375 2348.7271)
(-0.0059925597 -0.0026875969 2348.7258)
(-0.0071149088 -0.0019187963 2348.7245)
(-0.0073594315 -0.0015665075 2348.7231)
(-0.0076046161 -0.0015543861 2348.7212)
(-0.0068451022 -0.0023018214 2348.7187)
(-0.0031442995 -0.0021872385 2348.7168)
(-0.00016945772 -0.0021004113 2348.7164)
(-0.0005230166 -0.0046898866 2348.7272)
(-0.0022276376 -0.0050977008 2348.7271)
(-0.0043865113 -0.0043865113 2348.7268)
(-0.0060498331 -0.0041980018 2348.7261)
(-0.0060193594 -0.0034479686 2348.7254)
(-0.0072373377 -0.0029689139 2348.7245)
(-0.0079936294 -0.0027294709 2348.7228)
(-0.0063832689 -0.0019159589 2348.7207)
(-0.0037328392 -0.0026573943 2348.7189)
(-0.0006791913 -0.0038286877 2348.7181)
(-0.00059236083 -0.0063586744 2348.7258)
(-0.0026875971 -0.0059925598 2348.7258)
(-0.0041980019 -0.0060498331 2348.7261)
(-0.005054017 -0.005054017 2348.7263)
(-0.005885821 -0.0050647982 2348.7263)
(-0.0066409338 -0.0046517385 2348.7261)
(-0.0065516611 -0.0029666827 2348.7252)
(-0.0067730256 -0.0024573453 2348.7232)
(-0.0050570283 -0.003217072 2348.721)
(-0.00095031999 -0.0033088128 2348.7197)
(-0.00027894017 -0.007140449 2348.7241)
(-0.0019187962 -0.0071149089 2348.7245)
(-0.0034479685 -0.0060193593 2348.7254)
(-0.0050647982 -0.0058858209 2348.7263)
(-0.0056170809 -0.0056170808 2348.7272)
(-0.0051392222 -0.0044359914 2348.7278)
(-0.0057992362 -0.0040320681 2348.7273)
(-0.0066336582 -0.0042324156 2348.7252)
(-0.0045843067 -0.0034139106 2348.7227)
(-0.00074035179 -0.0026493705 2348.7212)
(-0.00057533405 -0.0076017478 2348.7222)
(-0.0015665074 -0.0073594314 2348.7231)
(-0.0029689139 -0.0072373377 2348.7245)
(-0.0046517384 -0.0066409338 2348.7261)
(-0.0044359915 -0.0051392221 2348.7278)
(-0.0050559212 -0.0050559211 2348.7288)
(-0.0063480853 -0.0056109421 2348.728)
(-0.0061548681 -0.0058341113 2348.7255)
(-0.0034739832 -0.0049993408 2348.7228)
(-0.00044062659 -0.0044792058 2348.7213)
(-0.00011739593 -0.0072583153 2348.7203)
(-0.0015543861 -0.0076046161 2348.7212)
(-0.0027294709 -0.0079936294 2348.7228)
(-0.0029666826 -0.0065516613 2348.7252)
(-0.0040320681 -0.0057992364 2348.7273)
(-0.0056109421 -0.0063480854 2348.728)
(-0.0065774264 -0.0065774264 2348.7265)
(-0.0060220569 -0.0070989366 2348.7235)
(-0.0032294011 -0.0072770179 2348.7209)
(-0.00039359511 -0.0071957579 2348.7197)
(-0.00080620125 -0.0057504164 2348.7182)
(-0.0023018215 -0.0068451022 2348.7187)
(-0.001915959 -0.006383269 2348.7207)
(-0.0024573454 -0.0067730256 2348.7232)
(-0.0042324156 -0.0066336583 2348.7252)
(-0.0058341112 -0.0061548681 2348.7255)
(-0.0070989365 -0.0060220569 2348.7235)
(-0.0068544596 -0.0068544596 2348.7203)
(-0.0035708045 -0.0074105529 2348.7184)
(-0.00038645328 -0.0069385455 2348.7183)
(-0.00084718649 -0.0039342494 2348.7161)
(-0.0021872387 -0.0031442996 2348.7168)
(-0.0026573942 -0.0037328392 2348.7189)
(-0.0032170719 -0.0050570283 2348.721)
(-0.0034139106 -0.0045843064 2348.7227)
(-0.0049993407 -0.0034739832 2348.7228)
(-0.0072770179 -0.003229401 2348.7209)
(-0.0074105529 -0.0035708046 2348.7184)
(-0.0033134871 -0.0033134871 2348.718)
(-7.8923545e-05 -0.0012273449 2348.7197)
(-0.00027956808 -0.00073707616 2348.7156)
(-0.0021004114 -0.00016945775 2348.7164)
(-0.0038286877 -0.00067919126 2348.7181)
(-0.0033088126 -0.00095032006 2348.7197)
(-0.0026493705 -0.00074035169 2348.7212)
(-0.0044792058 -0.00044062665 2348.7213)
(-0.0071957579 -0.00039359507 2348.7197)
(-0.0069385456 -0.00038645332 2348.7183)
(-0.0012273449 -7.8923544e-05 2348.7197)
(0.0010043082 0.0010043082 2348.7219)
(-0.00017939916 -0.00017939912 2351.2362)
(-0.0029567409 -0.00041530852 2351.2368)
(-0.00590899 -0.00055324307 2351.236)
(-0.0079320549 -0.00044595191 2351.2346)
(-0.0088122175 -1.1986061e-05 2351.2327)
(-0.0094946417 -0.00029011757 2351.2309)
(-0.0094617301 0.00025073598 2351.2287)
(-0.0078711491 -0.00043769866 2351.2266)
(-0.0049247475 -0.00041205163 2351.2249)
(-0.00074813149 0.00011159974 2351.225)
(-0.00041530855 -0.0029567409 2351.2368)
(-0.0035175068 -0.0035175068 2351.237)
(-0.0059549551 -0.0022549254 2351.2363)
(-0.0071201694 -0.0022210858 2351.2351)
(-0.008578466 -0.0010049721 2351.2335)
(-0.0091005586 -0.00028879552 2351.2316)
(-0.0096831017 2.1159677e-05 2351.2296)
(-0.0088653305 -0.00057958627 2351.2276)
(-0.0041007999 -0.00036027592 2351.2261)
(-0.00022448012 -0.00059872105 2351.2259)
(-0.00055324313 -0.0059089901 2351.236)
(-0.0022549254 -0.0059549551 2351.2363)
(-0.004612569 -0.004612569 2351.2362)
(-0.0066821017 -0.0038107535 2351.2354)
(-0.0068799272 -0.0023114753 2351.2343)
(-0.0084685099 -0.0010631901 2351.233)
(-0.0097525208 -0.00031958316 2351.2313)
(-0.0082525847 0.00067547634 2351.2295)
(-0.0049438823 -0.000251611 2351.2279)
(-0.00090709491 -0.0019521809 2351.2272)
(-0.00044595185 -0.007932055 2351.2346)
(-0.0022210857 -0.0071201695 2351.2351)
(-0.0038107535 -0.0066821017 2351.2354)
(-0.0048190757 -0.0048190757 2351.2354)
(-0.0058309026 -0.0038483794 2351.2352)
(-0.0071086665 -0.0025702654 2351.2346)
(-0.0079444353 -0.00043164809 2351.2334)
(-0.0087973583 4.8716912e-05 2351.2316)
(-0.0067284572 -0.0009716799 2351.2298)
(-0.0013581934 -0.0015037144 2351.2285)
(-1.198608e-05 -0.0088122175 2351.2327)
(-0.001004972 -0.0085784662 2351.2335)
(-0.0023114752 -0.0068799274 2351.2343)
(-0.0038483795 -0.0058309026 2351.2352)
(-0.0046311169 -0.0046311169 2351.2358)
(-0.0050517785 -0.0028683085 2351.2359)
(-0.0071335385 -0.0025311601 2351.2349)
(-0.0087926165 -0.0029760708 2351.2331)
(-0.0064963136 -0.002207453 2351.2312)
(-0.0012617846 -0.001645848 2351.2296)
(-0.00029011767 -0.0094946417 2351.2309)
(-0.00028879557 -0.0091005585 2351.2316)
(-0.0010631899 -0.00846851 2351.233)
(-0.0025702653 -0.0071086664 2351.2346)
(-0.0028683085 -0.0050517785 2351.2359)
(-0.0050087097 -0.0050087097 2351.2362)
(-0.0080521975 -0.0060312476 2351.2349)
(-0.0084736512 -0.0065543065 2351.233)
(-0.0053982344 -0.0054547407 2351.2314)
(-0.00098379009 -0.0047106037 2351.2297)
(0.00025073606 -0.0094617301 2351.2287)
(2.1159679e-05 -0.0096831016 2351.2296)
(-0.00031958311 -0.0097525208 2351.2313)
(-0.00043164792 -0.0079444353 2351.2334)
(-0.0025311602 -0.0071335385 2351.2349)
(-0.0060312476 -0.0080521974 2351.2349)
(-0.0086791352 -0.0086791352 2351.2334)
(-0.0082161096 -0.0091155783 2351.2317)
(-0.0046526108 -0.0084677534 2351.2307)
(-0.0007656932 -0.0074136278 2351.2296)
(-0.00043769866 -0.0078711493 2351.2266)
(-0.00057958627 -0.0088653306 2351.2276)
(0.00067547631 -0.0082525845 2351.2295)
(4.8716972e-05 -0.0087973584 2351.2316)
(-0.0029760706 -0.0087926165 2351.2331)
(-0.0065543064 -0.0084736511 2351.233)
(-0.0091155783 -0.0082161096 2351.2317)
(-0.0082622694 -0.0082622693 2351.2307)
(-0.003696284 -0.0072374728 2351.2309)
(-0.00028103966 -0.0053468173 2351.2306)
(-0.0004120515 -0.0049247475 2351.2249)
(-0.00036027561 -0.0041007999 2351.2261)
(-0.00025161094 -0.0049438823 2351.2279)
(-0.00097167987 -0.0067284572 2351.2298)
(-0.0022074529 -0.0064963136 2351.2312)
(-0.0054547408 -0.0053982346 2351.2314)
(-0.0084677535 -0.004652611 2351.2307)
(-0.0072374729 -0.003696284 2351.2309)
(-0.0017371588 -0.0017371588 2351.2324)
(0.00049474382 8.5158377e-05 2351.2319)
(0.00011159978 -0.00074813136 2351.225)
(-0.00059872101 -0.00022448008 2351.2259)
(-0.001952181 -0.00090709496 2351.2272)
(-0.0015037144 -0.0013581934 2351.2285)
(-0.001645848 -0.0012617846 2351.2296)
(-0.0047106037 -0.00098379015 2351.2297)
(-0.0074136278 -0.00076569326 2351.2296)
(-0.0053468172 -0.00028103968 2351.2306)
(8.5158405e-05 0.00049474384 2351.2319)
(0.00093383843 0.00093383845 2351.2283)
(-1.7389386e-05 -1.7389444e-05 2354.3667)
(-0.0030349581 -0.00022060146 2354.3675)
(-0.006910171 -0.00036539738 2354.3669)
(-0.0096559561 -0.00023134866 2354.3655)
(-0.010874795 0.00023297675 2354.3633)
(-0.011659728 -8.7719003e-05 2354.3611)
(-0.011544099 0.00053629007 2354.3589)
(-0.0094709999 -0.00010745504 2354.3573)
(-0.0055151351 -4.9080637e-05 2354.3561)
(-0.00069909489 0.0003040685 2354.3559)
(-0.00022060141 -0.0030349581 2354.3675)
(-0.00355697 -0.0035569701 2354.3682)
(-0.0069262917 -0.0020433664 2354.3675)
(-0.0087583949 -0.0018708162 2354.366)
(-0.010659351 -0.00034748248 2354.3638)
(-0.011204758 0.00061667237 2354.3615)
(-0.011573703 0.001091866 2354.3594)
(-0.010349056 0.00057750125 2354.3578)
(-0.0048978497 0.00081225869 2354.3565)
(-0.00034594575 5.340803e-05 2354.3559)
(-0.00036539738 -0.0069101709 2354.3669)
(-0.0020433664 -0.0069262918 2354.3675)
(-0.005224017 -0.005224017 2354.3671)
(-0.0079600722 -0.0039259255 2354.3658)
(-0.0083873067 -0.0017486106 2354.3639)
(-0.010220379 5.2808022e-05 2354.362)
(-0.01158327 0.0010298141 2354.3599)
(-0.0097506072 0.0020815035 2354.3582)
(-0.0060392283 0.00099852412 2354.3569)
(-0.0012049953 -0.0012215431 2354.3561)
(-0.00023134866 -0.0096559563 2354.3655)
(-0.0018708161 -0.008758395 2354.366)
(-0.0039259255 -0.0079600722 2354.3658)
(-0.0052829885 -0.0052829886 2354.365)
(-0.0066806172 -0.003564471 2354.3637)
(-0.0084263333 -0.0018126843 2354.362)
(-0.0095450077 0.00061416048 2354.3601)
(-0.010380346 0.0011848856 2354.3586)
(-0.0082008963 5.0315692e-05 2354.3572)
(-0.0018259906 -0.00085385579 2354.3562)
(0.00023297686 -0.010874795 2354.3633)
(-0.00034748223 -0.010659351 2354.3638)
(-0.0017486106 -0.0083873067 2354.3639)
(-0.0035644711 -0.0066806172 2354.3637)
(-0.0049170024 -0.0049170025 2354.3627)
(-0.006041748 -0.0028763932 2354.3612)
(-0.0085857003 -0.0025075995 2354.3596)
(-0.010314452 -0.0028383492 2354.3583)
(-0.0080779697 -0.0018519115 2354.3571)
(-0.0018077763 -0.0013908709 2354.3562)
(-8.7718944e-05 -0.011659728 2354.3611)
(0.00061667254 -0.011204758 2354.3615)
(5.2808107e-05 -0.010220379 2354.362)
(-0.0018126843 -0.0084263332 2354.362)
(-0.0028763932 -0.0060417479 2354.3612)
(-0.0060169303 -0.0060169303 2354.3598)
(-0.0095069637 -0.0070703075 2354.3583)
(-0.009724658 -0.0072606846 2354.3574)
(-0.0067534181 -0.0054636674 2354.3567)
(-0.0015186302 -0.0044811898 2354.3558)
(0.00053629011 -0.011544099 2354.3589)
(0.0010918662 -0.011573703 2354.3594)
(0.0010298142 -0.01158327 2354.3599)
(0.00061416046 -0.0095450079 2354.3601)
(-0.0025075995 -0.0085857002 2354.3596)
(-0.0070703075 -0.0095069637 2354.3583)
(-0.0098294546 -0.0098294547 2354.3571)
(-0.0087078119 -0.0093843629 2354.3569)
(-0.0052984749 -0.0077320125 2354.3569)
(-0.0011527913 -0.0063387998 2354.3563)
(-0.00010745498 -0.0094709998 2354.3573)
(0.00057750131 -0.010349056 2354.3578)
(0.0020815033 -0.0097506073 2354.3582)
(0.0011848857 -0.010380346 2354.3586)
(-0.002838349 -0.010314452 2354.3583)
(-0.0072606847 -0.009724658 2354.3574)
(-0.0093843628 -0.0087078118 2354.3569)
(-0.0076272158 -0.0076272159 2354.3577)
(-0.003707855 -0.0057642964 2354.3581)
(-0.00058982168 -0.0046235718 2354.357)
(-4.9080673e-05 -0.005515135 2354.3561)
(0.00081225866 -0.0048978496 2354.3565)
(0.0009985242 -0.0060392282 2354.3569)
(5.0315747e-05 -0.0082008961 2354.3572)
(-0.0018519115 -0.0080779698 2354.3571)
(-0.0054636673 -0.006753418 2354.3567)
(-0.0077320126 -0.0052984747 2354.3569)
(-0.0057642965 -0.0037078549 2354.3581)
(-0.0022948308 -0.0022948308 2354.3583)
(-0.00039230813 -0.0034994044 2354.3553)
(0.00030406858 -0.00069909487 2354.3559)
(5.3408089e-05 -0.00034594562 2354.3559)
(-0.0012215432 -0.0012049953 2354.3561)
(-0.00085385588 -0.0018259906 2354.3562)
(-0.0013908709 -0.0018077763 2354.3562)
(-0.0044811897 -0.0015186302 2354.3558)
(-0.0063387997 -0.0011527913 2354.3563)
(-0.0046235719 -0.00058982166 2354.357)
(-0.0034994044 -0.00039230817 2354.3553)
(-0.0013928707 -0.0013928707 2354.3515)
(0.00035588598 0.00035588598 2358.1146)
(-0.0027936882 5.0094513e-05 2358.1157)
(-0.0079902919 -0.00016208416 2358.115)
(-0.01155448 -7.6359547e-05 2358.1137)
(-0.013132863 0.00036346868 2358.1118)
(-0.013888567 -3.5848814e-05 2358.1099)
(-0.013324998 0.00060903246 2358.1081)
(-0.010663647 -8.6795882e-05 2358.107)
(-0.0062564801 -0.00011179714 2358.1059)
(-0.00084694727 9.574658e-05 2358.1053)
(5.0094513e-05 -0.0027936881 2358.1157)
(-0.0035706434 -0.0035706434 2358.1164)
(-0.008179973 -0.0020141431 2358.1155)
(-0.010766151 -0.0019107214 2358.114)
(-0.013072096 -0.00033958398 2358.112)
(-0.013520221 0.00059458307 2358.1099)
(-0.013401419 0.00099286291 2358.108)
(-0.011744892 0.0003579365 2358.1066)
(-0.0059826664 0.0004616393 2358.1053)
(-0.00063940356 -0.00046725381 2358.1048)
(-0.00016208419 -0.0079902919 2358.115)
(-0.0020141432 -0.008179973 2358.1155)
(-0.00633037 -0.0063303698 2358.1148)
(-0.0098799209 -0.0048303763 2358.1133)
(-0.010627558 -0.0024766183 2358.1113)
(-0.01255612 -0.00063051382 2358.1091)
(-0.013561645 0.00034082135 2358.1069)
(-0.011194871 0.0014543386 2358.1055)
(-0.0070816704 0.00041165984 2358.1045)
(-0.0014662093 -0.0016561124 2358.1046)
(-7.6359526e-05 -0.01155448 2358.1137)
(-0.0019107212 -0.010766151 2358.114)
(-0.0048303763 -0.0098799208 2358.1133)
(-0.0069123994 -0.0069123992 2358.1119)
(-0.0088722339 -0.0051260505 2358.1097)
(-0.010702782 -0.0033957124 2358.1072)
(-0.011316566 -0.00072781228 2358.1052)
(-0.011674053 0.00016722487 2358.1041)
(-0.0090931174 -0.00076077216 2358.1037)
(-0.0020179184 -0.0013854917 2358.1042)
(0.0003634687 -0.013132863 2358.1118)
(-0.0003395838 -0.013072096 2358.112)
(-0.0024766183 -0.010627558 2358.1113)
(-0.0051260506 -0.0088722338 2358.1097)
(-0.0071108712 -0.007110871 2358.1071)
(-0.0081578819 -0.0049983798 2358.1045)
(-0.0099987075 -0.0043317699 2358.1029)
(-0.011227831 -0.0041811038 2358.1025)
(-0.0086343869 -0.0027584579 2358.1025)
(-0.001882689 -0.0020394821 2358.1035)
(-3.5848814e-05 -0.013888567 2358.1099)
(0.00059458307 -0.013520221 2358.1099)
(-0.00063051371 -0.01255612 2358.1091)
(-0.0033957122 -0.010702782 2358.1072)
(-0.0049983798 -0.0081578819 2358.1045)
(-0.0079236806 -0.0079236803 2358.1021)
(-0.01049929 -0.0084968663 2358.101)
(-0.010100741 -0.0080235793 2358.1012)
(-0.0069514957 -0.0056768973 2358.1017)
(-0.0015386012 -0.0046321367 2358.1027)
(0.00060903254 -0.013324998 2358.1081)
(0.00099286294 -0.013401419 2358.108)
(0.0003408212 -0.013561645 2358.1069)
(-0.00072781225 -0.011316566 2358.1052)
(-0.0043317697 -0.0099987077 2358.1029)
(-0.0084968663 -0.01049929 2358.101)
(-0.010098607 -0.010098607 2358.1007)
(-0.008407862 -0.0088409319 2358.1017)
(-0.0052429443 -0.0070432965 2358.1023)
(-0.001186182 -0.0061969278 2358.103)
(-8.6795958e-05 -0.010663647 2358.107)
(0.00035793647 -0.011744892 2358.1066)
(0.0014543388 -0.011194871 2358.1055)
(0.00016722484 -0.011674053 2358.1041)
(-0.0041811036 -0.011227831 2358.1025)
(-0.0080235794 -0.010100741 2358.1012)
(-0.008840932 -0.0084078619 2358.1017)
(-0.0070454313 -0.0070454315 2358.103)
(-0.0043074917 -0.0058808171 2358.1031)
(-0.00097435539 -0.0062955202 2358.1031)
(-0.00011179717 -0.0062564802 2358.1059)
(0.0004616393 -0.0059826663 2358.1053)
(0.00041165998 -0.0070816704 2358.1045)
(-0.00076077217 -0.0090931175 2358.1037)
(-0.0027584579 -0.008634387 2358.1025)
(-0.0056768972 -0.0069514959 2358.1017)
(-0.0070432966 -0.0052429441 2358.1023)
(-0.0058808171 -0.0043074917 2358.1031)
(-0.004493033 -0.0044930331 2358.1025)
(-0.0014626507 -0.0054507025 2358.1021)
(9.5746638e-05 -0.00084694733 2358.1053)
(-0.00046725378 -0.00063940352 2358.1048)
(-0.0016561125 -0.0014662094 2358.1046)
(-0.0013854917 -0.0020179185 2358.1042)
(-0.002039482 -0.0018826891 2358.1035)
(-0.0046321365 -0.0015386012 2358.1027)
(-0.0061969278 -0.0011861819 2358.103)
(-0.0062955204 -0.00097435535 2358.1031)
(-0.0054507025 -0.0014626508 2358.1021)
(-0.0016128016 -0.0016128017 2358.1061)
(0.00070216564 0.00070216564 2362.4751)
(-0.0026616382 0.00021105654 2362.4754)
(-0.0089366033 -6.4460608e-05 2362.4748)
(-0.012887964 -5.0372723e-06 2362.4745)
(-0.014647966 0.00039823739 2362.4739)
(-0.015364059 -0.00011457816 2362.4733)
(-0.01448284 0.00048674141 2362.4726)
(-0.011616428 -0.00035708344 2362.4723)
(-0.0071668997 -0.00047351225 2362.4716)
(-0.001100648 -7.5893033e-05 2362.4714)
(0.00021105654 -0.0026616381 2362.4754)
(-0.0038115775 -0.0038115776 2362.4754)
(-0.009260744 -0.002221556 2362.4748)
(-0.012193917 -0.0022624819 2362.4744)
(-0.014812277 -0.00086607432 2362.4738)
(-0.015231303 -0.00020451355 2362.4729)
(-0.014846598 -5.967547e-05 2362.4721)
(-0.013056808 -0.00090585445 2362.4714)
(-0.0067451141 -0.0005905261 2362.4708)
(-0.00070302877 -0.0006743073 2362.4715)
(-6.4460684e-05 -0.0089366031 2362.4748)
(-0.002221556 -0.009260744 2362.4748)
(-0.0073875076 -0.0073875078 2362.4744)
(-0.011532482 -0.0060904917 2362.4738)
(-0.012589997 -0.0041032305 2362.4727)
(-0.01455766 -0.0026283917 2362.4715)
(-0.015184181 -0.0017882918 2362.4703)