/*--------------------------------*- C++ -*----------------------------------*\
| =========                 |                                                 |
| \\      /  F ield         | OpenFOAM: The Open Source CFD Toolbox           |
|  \\    /   O peration     | Version:  v2106                                 |
|   \\  /    A nd           | Website:  www.openfoam.com                      |
|    \\/     M anipulation  |                                                 |
\*---------------------------------------------------------------------------*/
FoamFile
{
    version     2.0;
    format      ascii;
    arch        "LSB;label=32;scalar=64";
    class       volScalarField;
    location    "10";
    object      laplacianT;
}
// * * * * * * * * * * * * * * * * * * * * * * * * * * * * * * * * * * * * * //

dimensions      [0 -2 0 1 0 0 0];

internalField   nonuniform List<scalar> 
10000
(
-0.25993137
2.4937753
1.3745536
2.1987883
4.1675043
-0.26136962
-1.3724816
3.034757
-1.380545
-3.3138859
2.4937767
2.2931147
4.5582424
5.2423179
0.16300328
0.048564856
1.7570483
-2.8836751
-3.3999637
0.093503616
1.3745476
4.5582442
4.7519883
1.8643893
0.827711
2.0752815
-2.2864969
-1.9859734
1.2591118
-0.53897088
2.1987903
5.2423191
1.864388
0.70067625
3.5995286
-1.1804886
-3.228836
1.5907021
-0.80309553
-2.4399715
4.1675063
0.16300061
0.82771129
3.5995307
-0.36833342
-2.4370883
0.73837071
-0.40595859
-3.1019986
0.084748198
-0.26137178
0.048565822
2.07528
-1.1804889
-2.4370892
0.38266233
-2.3615848
-2.1757141
1.1037049
1.4217253
-1.3724826
1.7570475
-2.2864938
-3.2288367
0.73837129
-2.361583
-3.0206838
1.100871
0.096103577
-0.88441954
3.0347589
-2.8836747
-1.9859762
1.590705
-0.40595961
-2.1757136
1.1008686
-1.3143443
-3.2697553
0.47122694
-1.3805453
-3.3999632
1.2591153
-0.80309627
-3.1019981
1.1037039
0.096102724
-3.2697548
0.72560328
2.755497
-3.3138863
0.093505831
-0.53897207
-2.4399723
0.084750069
1.4217262
-0.88441755
0.4712275
2.7554989
1.6427828
2.7146043
7.2456815
7.1030745
6.1382321
3.3934114
2.6610244
0.77430383
-1.5239673
-1.1486501
-0.73546693
7.2456792
11.836445
8.1686275
7.62048
5.4209464
-0.84191674
-0.36640296
-0.34260722
-3.0074552
0.1946297
7.1030756
8.1686271
8.416454
6.6621106
1.4806312
0.88211203
0.18782901
-3.5283043
-1.3031672
2.0979428
6.1382321
7.6204802
6.6621098
3.1402653
2.9026971
0.18776626
-2.029906
0.3947094
1.4461537
1.6867046
3.3934115
5.4209459
1.4806324
2.902695
0.55943621
-2.6430289
0.061867813
0.71826776
0.10092146
1.7201746
2.6610234
-0.84191771
0.88211152
0.1877641
-2.6430274
-2.0774885
-0.70049992
-0.39410884
1.3260398
1.9454497
0.77430462
-0.3664017
0.18782816
-2.0299047
0.061867238
-0.70049919
-1.0065526
-0.057068009
0.18684654
1.4779052
-1.5239684
-0.34260654
-3.528302
0.39470717
0.71826952
-0.39411015
-0.057068293
-1.443676
0.47655624
2.4635692
-1.1486493
-3.0074547
-1.3031682
1.4461542
0.10092157
1.3260397
0.18684642
0.47655641
3.8506797
1.691783
-0.73546584
0.19462971
2.0979438
1.6867057
1.7201747
1.9454503
1.4779046
2.4635683
1.6917827
2.5851872
7.0435568
10.385754
9.3613124
9.0455322
5.5204484
2.0531713
1.4003793
0.099984443
-0.71904162
1.3764035
10.385753
13.516014
12.444711
8.0682981
5.0618449
2.0893369
0.83834885
-0.740372
-0.50372478
4.3499813
9.3613111
12.444711
9.6704542
7.5774299
3.9406759
2.7828971
0.59118503
-0.90604851
3.5964603
4.93441
9.0455318
8.0682981
7.5774292
4.6806044
3.6630682
1.3056255
1.2529345
4.3981358
4.6653783
3.2592978
5.5204479
5.0618432
3.9406745
3.6630669
1.2959561
-0.77343929
3.3992808
3.2532105
1.6771496
3.067175
2.0531705
2.0893346
2.782898
1.3056266
-0.77344008
1.1019252
2.2095529
1.1052112
3.1231645
3.4736919
1.4003772
0.83835095
0.59118469
1.2529348
3.399282
2.2095518
0.50645645
1.7102831
3.1990575
1.9118355
0.099986552
-0.74037432
-0.90604755
4.3981357
3.2532122
1.1052113
1.7102826
2.3343475
3.0010614
0.6565561
-0.7190422
-0.50372256
3.5964622
4.6653779
1.6771506
3.1231634
3.1990573
3.0010603
0.55834942
1.0768588
1.3764039
4.3499827
4.9344085
3.2592976
3.0671768
3.4736912
1.9118357
0.65655626
1.0768592
-2.221642
7.5986329
11.4381
9.4016058
8.1083534
6.4448405
4.0258133
1.9525401
3.1376802
3.499864
3.6523304
11.438099
11.204021
10.700592
9.1149903
6.1631261
3.82344
4.3877411
3.6936832
3.2046303
5.9856345
9.4016054
10.700592
9.6341085
8.3530953
5.0624171
5.8655129
5.3338028
2.9282339
5.9258696
5.6790739
8.1083533
9.1149873
8.353097
5.0969365
6.0742158
5.138577
5.0023258
6.91194
5.9999222
3.8517812
6.4448379
6.1631267
5.0624169
6.0742151
3.9494449
3.283535
6.9648301
5.0471048
2.7861973
3.3778662
4.0258114
3.8234389
5.8655117
5.1385774
3.2835337
5.6573526
5.0384093
2.7515983
4.2734995
2.3083511
1.9525414
4.3877406
5.3338039
5.0023247
6.9648312
5.0384098
2.4461344
3.7885991
3.5238086
0.3309761
3.1376787
3.6936855
2.9282356
6.9119394
5.0471048
2.7515961
3.7886005
4.0283418
-0.64948045
-1.347804
3.4998654
3.204631
5.9258652
5.9999231
2.7861974
4.2735019
3.5238078
-0.64948045
-5.3804443
-0.82592235
3.6523308
5.9856358
5.6790735
3.8517838
3.3778632
2.308352
0.33097542
-1.3478056
-0.82592089
-3.30322
8.2050664
7.8302953
8.0481892
7.7904589
6.1762775
5.2470887
5.2942392
6.8407419
5.6015531
4.1779709
7.8302955
9.2237457
8.6982593
8.2259346
7.3628563
6.6807763
8.3608067
5.7268679
3.6175159
5.4401404
8.0481882
8.6982599
8.6453965
8.4568884
6.5034713
8.557188
7.7508785
3.4994642
5.603701
4.8766007
7.7904577
8.225934
8.4568883
6.1519936
8.5148606
7.6850413
6.5542786
7.2737041
5.2790264
2.8089095
6.1762786
7.3628534
6.5034695
8.5148608
6.6439458
5.6160993
8.1771481
4.6057231
1.6892208
1.2547131
5.247086
6.6807756
8.5571865
7.68504
5.6160986
7.3325617
5.0834994
2.1162757
2.7084879
0.2701712
5.2942386
8.3608066
7.750878
6.5542794
8.1771477
5.0835
2.079722
3.5942663
0.71575643
-0.24371077
6.8407404
5.726869
3.4994629
7.2737064
4.6057238
2.1162801
3.5942639
0.44647503
-6.2764049
-0.33870276
5.6015526
3.6175179
5.6037032
5.2790263
1.6892218
2.7084862
0.71575636
-6.2764056
-2.3020715
-3.6635253
4.1779728
5.4401406
4.8766007
2.8089084
1.2547159
0.27016927
-0.24371236
-0.33870157
-3.6635279
6.3401957
6.8901922
5.4040308
6.6906259
7.0062049
6.4735365
6.9419316
7.3304922
7.7692413
5.5485331
3.2647556
5.4040296
7.6893394
7.053138
7.5705552
7.9435543
7.1362486
8.7877243
4.9343614
1.7214882
3.5470443
6.6906281
7.0531362
7.9469549
8.6922447
6.743991
8.6114889
7.4742613
2.0276134
2.8915297
2.9791846
7.0062032
7.5705552
8.6922442
7.0966721
9.0478454
7.3069964
5.4827614
4.8775347
2.5679857
0.74340618
6.473534
7.9435532
6.7439873
9.0478461
6.2487598
4.1172448
6.2481737
2.336991
-0.43746478
-1.1061902
6.9419307
7.136248
8.6114883
7.3069953
4.1172442
5.5607693
3.6401022
0.9868362
0.44006687
-0.094437101
7.3304926
8.7877253
7.4742626
5.4827596
6.2481744
3.6401026
1.1788827
1.1230367
-2.3389412
-0.77579223
7.7692429
4.9343605
2.0276131
4.8775342
2.3369916
0.9868311
1.1230379
-5.1026746
-4.5304862
-0.6646573
5.5485344
1.7214896
2.8915281
2.5679823
-0.43746678
0.44006708
-2.3389414
-4.5304861
0.86927241
1.7347958
3.2647553
3.5470446
2.979186
0.74340677
-1.1061933
-0.09443669
-0.77579289
-0.66466009
1.7347983
5.5578381
5.5687131
4.8493008
6.4363533
7.0655862
6.9378811
7.0218388
7.1656279
7.2066369
4.2736723
1.7775701
4.8493027
7.549635
7.4052302
7.4819917
7.0019428
5.8402879
7.4338275
2.9230705
-1.1443142
1.9848816
6.4363501
7.4052311
7.8271709
8.6348613
5.9036298
7.1552391
5.6981111
-0.84966188
-0.21702759
1.766059
7.0655863
7.4819915
8.6348589
6.5567698
7.2346373
4.6936489
3.0051764
2.1578989
1.0194192
-0.19755009
6.9378814
7.0019405
5.9036318
7.2346345
3.1181899
1.833445
4.8323436
1.5295053
-1.0544146
-0.17294069
7.0218396
5.8402869
7.1552387
4.6936475
1.8334452
4.9074234
2.8186786
0.72123521
-0.31792417
1.3615157
7.1656266
7.4338291
5.6981081
3.0051772
4.8323409
2.8186781
-0.20352898
-0.24038264
-1.9206726
0.48981877
7.2066357
2.9230683
-0.84965979
2.1578958
1.5295034
0.72123537
-0.24038304
-2.4654686
2.2346361
0.65583004
4.2736723
-1.1443143
-0.21702657
1.0194186
-1.0544153
-0.31792348
-1.9206758
2.2346359
-2.2456937
8.5487031
1.777571
1.9848831
1.7660588
-0.19755101
-0.17294019
1.361513
0.48981985
0.65583105
8.5487004
-1.0828348
5.3365958
6.9333702
7.8816865
7.6646663
7.2100889
6.545395
6.2479044
6.2927912
3.4052516
1.0769295
6.9333691
10.055432
8.3559328
7.6649966
6.0360125
4.1307472
6.0304816
1.651423
-2.7238386
1.8280076
7.8816875
8.3559314
7.7557675
7.9763997
4.250424
5.5383912
4.5446665
-2.4176652
-0.8336113
2.3205887
7.6646663
7.6649944
7.9764019
4.8776117
5.0243704
3.4172021
2.4237503
2.3943281
2.1374787
2.101851
7.2100881
6.036011
4.2504233
5.0243702
1.7178213
2.2295029
5.3049621
3.1214909
0.70121736
4.1258035
6.5453925
4.1307466
5.5383913
3.4172025
2.2295009
5.2212675
2.4450702
1.9051316
1.5242561
3.8224256
6.2479037
6.030482
4.5446677
2.4237473
5.3049667
2.445067
0.79604432
2.9458758
2.4615217
3.6644677
6.2927915
1.6514238
-2.4176673
2.3943302
3.1214889
1.9051312
2.9458761
4.9027289
2.2554968
6.3899881
3.405252
-2.7238388
-0.83361077
2.1374779
0.7012158
1.5242553
2.4615231
2.255496
4.1211105
3.9969801
1.0769298
1.8280066
2.3205872
2.1018496
4.1258023
3.8224249
3.6644667
6.3899855
3.9969829
6.6625544
7.732724
9.650981
9.6793674
8.8869433
7.1126992
5.7212297
5.8148462
6.5219179
3.4409704
1.0753261
9.6509816
12.890711
8.7883449
6.9795848
4.7007092
3.1813933
6.0655221
1.5836837
-2.861318
2.8590649
9.6793636
8.7883442
6.8761786
7.0359115
3.0497667
5.5159244
5.3051758
-1.7126416
0.3614296
3.600902
8.8869423
6.9795861
7.0359104
3.6052055
4.7396528
4.7038647
4.0300274
4.3689149
3.796541
4.9494762
7.1126978
4.7007094
3.0497663
4.7396517
3.1388357
3.8550568
6.1646918
3.6456658
2.4959964
6.0503804
5.7212313
3.1813933
5.5159244
4.7038648
3.8550608
4.643819
2.0453765
1.805833
3.5387
4.1057341
5.8148476
6.0655215
5.305176
4.0300289
6.1646874
2.0453776
2.4918485
4.3464315
3.436597
2.8796496
6.5219169
1.5836838
-1.7126446
4.3689166
3.6456645
1.8058343
4.3464296
3.6044106
-1.2520894
6.6342392
3.4409697
-2.8613186
0.36143228
3.7965389
2.4959955
3.5386973
3.4365945
-1.2520899
8.690045
-0.63481509
1.075325
2.859065
3.6009027
4.9494753
6.0503769
4.1057342
2.8796479
6.6342412
-0.63481656
6.5748648
10.222969
11.671714
10.547321
8.9262144
6.1719005
5.4000134
6.254941
6.9128217
3.2468136
1.5285635
11.671713
13.120323
7.9060881
5.4168193
3.7231611
3.3380313
6.684882
1.3777272
-2.5192834
3.7205041
10.547322
7.9060887
5.7459941
6.2167457
3.1389007
6.9961502
6.6635834
-0.77075948
1.8052557
4.5470701
8.9262152
5.4168198
6.2167448
3.5088991
6.4045294
6.6770581
5.6999187
5.8655554
5.4935285
6.7948379
6.1719006
3.72316
3.1389
6.4045299
5.1687556
4.7538048
7.0495842
3.8474928
4.4626475
6.1192577
5.4000127
3.3380335
6.9961524
6.6770575
4.7538048
5.1538829
3.1741664
2.5082334
4.0634634
2.4300864
6.25494
6.6848843
6.6635794
5.6999193
7.0495851
3.1741668
3.09476
3.177501
-0.86494607
2.7364607
6.9128226
1.3777261
-0.77075616
5.8655537
3.8474923
2.5082296
3.1774995
-2.3685581
0.13920291
0.99793516
3.2468173
-2.5192829
1.8052544
5.493528
4.4626433
4.0634631
-0.8649456
0.13920334
-4.2220769
4.994897
1.5285624
3.7205073
4.5470698
6.7948368
6.1192587
2.4300861
2.7364622
0.99793275
4.9949005
-0.13938771
11.841915
11.318925
9.8498753
7.5349389
5.4504532
5.6793566
6.6060465
6.6896311
2.9862059
2.4977253
11.318926
11.339585
5.7828267
4.0226747
3.7663904
4.1390495
7.2203407
0.99566302
-0.37771827
5.3304427
9.8498757
5.7828268
4.4434024
6.1271133
4.5899261
9.0605385
8.0455621
1.599934
5.2138191
7.1316552
7.5349373
4.0226749
6.1271123
4.9925739
9.1098654
8.8029601
8.3218249
9.4257223
8.9351822
9.4445393
5.4504543
3.7663907
4.5899262
9.1098667
7.2290619
7.4158468
10.187342
7.186412
7.7695161
6.5770579
5.679358
4.1390493
9.060536
8.8029614
7.4158458
9.236105
6.3509258
5.5411341
4.8872899
3.1417214
6.6060468
7.220339
8.0455621
8.3218255
10.187342
6.3509245
4.8722218
4.4835486
0.64382917
7.4551942
6.6896362
0.99566183
1.5999343
9.4257211
7.1864102
5.5411352
4.4835489
-1.0081806
4.0295226
3.0182165
2.9862059
-0.37771896
5.2138175
8.9351815
7.769515
4.8872895
0.64382735
4.0295233
1.5610557
8.2007127
2.4977271
5.3304436
7.1316566
9.4445384
6.5770563
3.1417223
7.4551916
3.0182191
8.2007116
10.128182
12.181088
8.510252
7.8704454
6.2310658
5.6500205
6.2998395
6.8005555
6.5505291
4.0886161
4.1018192
8.5102522
8.2061399
3.27488
3.6560403
4.7064114
5.0423844
7.6599743
1.1280215
2.5706025
6.9740977
7.8704443
3.2748806
3.7973672
7.337916
6.7446885
10.893036
7.8677175
4.2032213
7.9762749
9.3473859
6.2310667
3.6560404
7.3379167
7.5626017
11.440609
8.5912125
9.3720798
11.81883
11.054018
10.154761
5.6500224
4.7064092
6.744692
11.44061
6.9368161
8.5793317
11.480208
8.7489921
9.4379347
5.3697244
6.2998372
5.0423847
10.893036
8.5912109
8.5793326
10.612262
7.7312233
8.0925862
7.3928227
7.5163016
6.8005559
7.6599736
7.8677204
9.3720789
11.480208
7.7312249
7.5531303
8.4359516
9.3848606
7.1074091
6.5505292
1.1280216
4.2032194
11.818833
8.7489923
8.0925851
8.4359511
8.0111144
9.21886
12.327619
4.0886145
2.570603
7.976276
11.054017
9.4379336
7.3928219
9.3848607
9.2188593
22.507737
9.9963143
4.1018198
6.974099
9.3473851
10.154762
5.3697266
7.5163016
7.1074104
12.327616
9.9963144
12.729412
10.620045
4.9923565
5.6593152
5.9461516
6.4956915
6.4718988
6.0420112
5.618274
5.3377533
4.6824987
4.9923571
4.5558226
1.9564259
4.273198
4.843371
3.6139021
5.2275254
1.0504448
3.7894161
7.8245963
5.6593141
1.9564252
4.4381521
8.409071
6.2267753
9.5400782
6.3914601
6.3036791
8.6898327
10.074228
5.9461513
4.2731996
8.4090724
7.3816164
10.629783
6.4604831
9.8622577
11.10976
10.295448
7.3239095
6.4956918
4.8433721
6.2267753
10.629781
5.0154059
8.1333831
9.4710862
7.4697517
7.5481116
5.2910193
6.4718981
3.6139009
9.5400776
6.4604836
8.1333819
8.554423
6.6449945
9.9570484
8.468905
9.8048606
6.0420114
5.2275282
6.3914586
9.8622569
9.4710867
6.644994
9.1390963
11.528887
11.802314
6.0474705
5.6182729
1.0504444
6.3036812
11.109759
7.4697527
9.9570463
11.528889
14.362451
17.770909
15.120414
5.3377554
3.7894158
8.689834
10.295448
7.5481109
8.4689074
11.802309
17.77091
16.730592
13.641828
4.682498
7.8245966
10.07423
7.3239097
5.2910191
9.8048618
6.0474684
15.120414
13.641828
3.4095679
8.3588926
2.438063
4.7310261
6.3587199
6.3810602
4.618126
4.6711217
5.8770075
6.9954559
4.6003094
2.4380619
2.9123274
2.0641225
4.3175746
2.8301182
3.2399909
6.0255354
3.8126778
4.5348667
9.0665266
4.7310249
2.0641242
5.017528
8.0080918
7.0298527
10.648641
7.726222
7.1612528
8.1859511
8.5175307
6.3587205
4.3175743
8.0080923
8.2799443
11.177898
5.8414473
8.6225845
8.6397301
8.6754434
6.3091551
6.3810594
2.8301177
7.0298496
11.177899
4.1321992
6.3536444
6.7234604
7.6726281
7.0133252
10.573133
4.6181241
3.2399917
10.648642
5.8414465
6.3536446
6.9131703
6.4235879
10.470298
11.926335
7.8966488
4.6711221
6.0255359
7.726223
8.6225827
6.7234608
6.4235905
9.1007099
11.644768
11.098405
13.041952
5.8770086
3.8126778
7.1612526
8.6397309
7.6726282
10.470301
11.644764
15.821574
20.046279
13.144809
6.995455
4.5348695
8.1859508
8.6754418
7.0133265
11.926332
11.098408
20.046278
11.464049
10.891772
4.6003098
9.0665283
8.5175304
6.3091549
10.573135
7.8966493
13.04195
13.144811
10.891773
7.183811
7.3658634
1.6069484
5.3041097
6.5641653
6.1187666
4.3285096
6.0315298
7.64341
7.8155286
4.4800709
1.6069481
3.5838975
2.3727715
5.5635603
2.2361452
4.0259864
7.132444
4.7922917
3.6998518
8.6066371
5.3041113
2.3727702
7.1725946
7.4002058
6.6416737
9.5191147
8.1357459
6.1621004
8.2319021
8.7862222
6.5641634
5.5635613
7.4002039
7.3628061
8.2920881
6.0376455
7.1729068
9.2418161
10.20752
9.9341783
6.118765
2.2361435
6.6416763
8.2920868
4.7937382
5.6576299
6.3954697
9.4531925
10.023994
10.13479
4.3285107
4.0259847
9.5191115
6.037647
5.6576275
5.7402207
7.4006337
11.367393
14.677641
8.4924862
6.031527
7.1324454
8.1357437
7.1729055
6.3954738
7.4006315
8.4849084
12.767148
12.85935
14.968354
7.6434113
4.7922911
6.1621006
9.2418139
9.4531919
11.367392
12.76715
17.368136
13.778372
13.276566
7.815529
3.6998493
8.2319025
10.207522
10.023997
14.677644
12.85935
13.778372
24.140492
6.6135614
4.4800701
8.6066389
8.7862215
9.9341778
10.134791
8.4924831
14.968356
13.276566
6.6135633
17.708489
7.6800445
1.9422897
6.0675906
6.9907889
5.5329376
3.1680081
6.9576673
7.9502128
6.2530014
4.2075158
1.9422896
4.288787
1.8391902
4.0111579
-0.76321873
5.1662498
6.7958779
3.7692587
4.9763768
11.352384
6.067589
1.8391912
6.0217215
3.9483887
9.2611332
9.2101503
7.9143382
8.3972036
10.02358
10.397595
6.9907905
4.0111588
3.9483908
10.164791
8.8533166
4.3406227
7.5639332
11.959084
8.9411072
8.7695135
5.5329397
-0.76322083
9.2611315
8.8533163
2.5823509
4.074029
8.7479418
10.095418
12.21833
12.13391
3.168004
5.16625
9.2101502
4.3406202
4.0740291
7.2911663
9.3438383
12.624736
13.078249
14.012278
6.9576689
6.7958745
7.9143373
7.5639336
8.7479373
9.3438379
6.0329526
14.813102
14.927065
5.3219954
7.9502106
3.7692586
8.3972012
11.959085
10.095421
12.624735
14.813104
18.360325
15.350646
16.07815
6.2530001
4.9763758
10.023582
8.9411078
12.218327
13.078249
14.927065
15.350646
16.228477
19.654585
4.2075155
11.352383
10.397593
8.769515
12.133911
14.01228
5.3219946
16.078153
19.654586
4.584198
8.4296002
2.5894372
4.6035978
4.5010495
6.3363441
5.5741008
6.1250913
8.547289
7.3104849
5.7131302
2.5894369
1.9749163
-1.6827606
7.4477389
2.6184409
4.1149263
8.2065164
6.9743565
5.0779925
13.571434
4.6036002
-1.6827631
9.9533939
5.6361969
7.0136351
8.0140278
9.6473959
7.6453886
6.9594128
8.7365069
4.5010474
7.4477415
5.6361948
6.3464378
6.0336972
3.4836955
8.155019
9.2695706
8.9372945
7.9108417
6.3363431
2.6184389
7.0136349
6.0336961
0.69450172
6.574948
9.1578306
11.255296
12.466403
9.9553075
5.5741004
4.1149253
8.0140261
3.4836963
6.5749446
7.0238926
6.943362
12.603563
6.9302107
6.7509832
6.1250905
8.2065176
9.6473944
8.1550156
9.1578336
6.943362
10.498521
16.646516
8.0685564
12.612711
8.5472914
6.9743537
7.6453921
9.2695733
11.255293
12.603566
16.646516
11.466062
22.039226
16.509253
7.3104844
5.0779942
6.9594109
8.9372932
12.466406
6.9302107
8.0685571
22.039228
13.741662
12.216583
5.7131283
13.571434
8.7365113
7.9108428
9.9553087
6.7509829
12.612711
16.509253
12.216583
10.068477
8.5469365
3.9431836
5.7142304
6.0266926
4.6851468
7.3352322
7.7142382
8.7934369
6.3928496
7.3150185
3.9431852
5.0159463
-2.4487881
0.24231631
5.0232674
3.0823237
7.3672449
4.9502595
3.3644817
13.795275
5.7142246
-2.4487871
0.92982391
3.7906968
5.6845135
7.6571856
8.7584791
7.3164736
15.012301
7.3453162
6.026694
0.24231389
3.7906958
6.3903294
4.3658493
2.7713225
9.9958631
10.656684
5.527667
9.192758
4.685145
5.0232675
5.6845127
4.3658492
-0.20300888
4.6034699
8.8930203
9.3865473
-0.62622251
10.468213
7.3352326
3.0823216
7.6571863
2.7713211
4.6034702
9.7809143
10.652433
7.9143887
13.292839
2.246031
7.7142378
7.3672453
8.7584792
9.9958635
8.8930231
10.652432
14.934081
9.9666375
7.7912874
17.014316
8.7934372
4.9502596
7.3164712
10.656685
9.3865458
7.9143886
9.966638
16.391255
9.4986173
15.652594
6.3928464
3.3644829
15.012304
5.5276685
-0.62622257
13.29284
7.7912912
9.498616
27.756822
7.8035916
7.3150219
13.795276
7.3453149
9.1927573
10.468216
2.2460276
17.014315
15.652594
7.8035918
12.150062
8.2262918
11.910672
6.9945316
7.1314421
7.5031619
6.7245707
7.7194651
6.2989973
4.6931849
7.8737008
11.91067
8.2696629
4.9178419
3.4259471
4.0630302
5.0424349
9.4614479
3.0347449
6.2737237
10.846682
6.9945322
4.9178421
5.5279948
5.9384578
9.0652022
13.112136
11.129882
8.4825973
8.6284716
17.163799
7.131441
3.4259461
5.9384581
6.2640396
4.4158357
7.036672
4.3381658
5.1955937
1.5530743
10.105394
7.5031636
4.0630298
9.0652017
4.4158377
5.7281367
6.5239281
8.8067112
3.6977855
10.096665
12.152792
6.7245692
5.0424351
13.112138
7.0366717
6.5239307
12.723108
17.542045
9.1407265
5.7878505
20.491354
7.7194662
9.4614493
11.129881
4.3381683
8.8067093
17.542044
6.1869004
10.0374
11.910454
4.482919
6.2989952
3.0347443
8.4825983
5.195593
3.6977853
9.1407282
10.037404
6.5522107
9.9596794
17.775815
4.6931869
6.2737212
8.6284707
1.5530722
10.096665
5.7878512
11.910452
9.9596787
6.3244903
13.713233
7.8736988
10.846681
17.163799
10.105395
12.152788
20.491355
4.4829198
17.775816
13.713233
-0.62280762
21.667873
16.48399
12.969458
13.297862
21.330787
24.540634
31.82406
28.72196
37.036177
40.766019
16.483991
28.126064
18.157456
11.469205
8.0726566
10.979492
6.6109816
9.2552078
18.255593
19.017489
12.96946
18.157455
8.9656536
4.8819626
14.361005
19.063789
-1.8583694
0.38924378
8.2027221
7.9019404
13.297863
11.469207
4.881961
-1.767312
20.177368
19.72308
5.9598014
7.8620228
11.44235
7.7139595
21.330786
8.0726566
14.36101
20.17737
30.925894
25.971681
10.455294
0.21258069
16.944691
26.507185
24.540635
10.979494
19.063792
19.72308
25.97168
16.88876
10.824794
6.6205786
18.844228
23.914655
31.824061
6.6109811
-1.8583703
5.9598003
10.455295
10.824796
16.669625
8.9523504
14.375015
11.143331
28.721958
9.2552084
0.38924426
7.8620236
0.21258264
6.6205778
8.9523489
5.1851691
19.716939
21.977455
37.036179
18.255594
8.2027219
11.442349
16.944691
18.844228
14.375014
19.71694
19.956649
32.651081
40.766019
19.01749
7.9019387
7.7139583
26.507185
23.914655
11.143332
21.977457
32.651082
23.346909
27.291955
41.732968
17.033963
8.5943523
11.586084
10.07106
-4.7098798
-2.7082529
1.3233364
8.3465937
41.732968
19.913909
12.352461
14.519433
24.900799
23.072978
15.612401
11.835118
21.783294
22.311401
17.033962
12.352461
2.4174075
6.1075656
10.057909
0.39350048
1.1878542
-2.0006165
13.899515
19.792852
8.5943525
14.519433
6.1075653
18.818782
13.478234
3.8445019
-7.7979669
-7.8639773
9.7099336
21.89686
11.586088
24.900798
10.057908
13.478234
18.081343
16.833082
10.380251
15.096291
15.418132
14.789846
10.071061
23.072979
0.39350237
3.8445009
16.833084
26.491711
13.866051
10.501334
13.359194
16.629608
-4.7098783
15.612405
1.187855
-7.7979674
10.380251
13.86605
-10.533809
-8.4066722
7.9653313
16.575074
-2.7082514
11.83512
-2.0006138
-7.8639769
15.09629
10.501335
-8.4066747
-3.3753166
8.0250331
13.046835
1.3233373
21.783295
13.899518
9.709935
15.418132
13.359193
7.9653298
8.0250303
27.429153
27.613627
8.3465908
22.311402
19.792854
21.896861
14.789847
16.629608
16.575072
13.046834
27.613626
35.808395
2.5872863
20.597421
23.477431
8.8903495
24.928888
13.980611
8.7963428
24.3977
16.849553
6.8403394
20.597422
13.925569
16.16646
18.435051
2.5339941
11.316976
7.8779707
0.86640335
10.512244
10.633015
23.477432
16.166459
13.630733
14.548041
12.927741
9.296018
5.0614559
8.8559463
11.392387
9.1145461
8.8903496
18.435052
14.548041
5.9353277
25.278767
10.851672
-0.17059894
14.396628
15.275937
11.047024
24.92889
2.5339954
12.927742
25.278768
12.238411
6.6049722
12.195612
14.310314
9.8386035
12.326703
13.98061
11.316977
9.2960204
10.85167
6.6049756
10.021514
2.6155417
9.1893996
15.013303
12.823793
8.7963429
7.8779726
5.0614553
-0.17059647
12.195614
2.6155408
3.8103715
15.594623
11.3505
13.377395
24.397704
0.86640268
8.855944
14.396629
14.310313
9.1893984
15.594624
10.724555
11.132306
15.705208
16.849552
10.512245
11.392389
15.275935
9.8386035
15.013303
11.350497
11.132308
18.131658
20.513486
6.8403402
10.633017
9.114543
11.047023
12.326704
12.823793
13.377397
15.705211
20.513483
15.715637
14.629179
14.895792
20.887772
22.628352
4.6117398
11.855076
8.4259231
5.9707441
12.112387
10.914697
14.895792
39.714636
13.955939
10.874892
20.542556
-6.1107367
7.7638787
17.682192
3.348564
13.081541
20.887772
13.95594
24.889827
15.401458
5.6920564
12.202985
11.429674
2.7021023
8.0857376
16.642349
22.628353
10.874893
15.401459
14.910771
14.02506
7.860967
10.086872
18.024596
16.694366
13.015297
4.6117399
20.542557
5.6920575
14.025059
13.909565
2.0532709
12.699026
16.017547
7.4918871
12.585631
11.855077
-6.1107371
12.202986
7.860969
2.0532679
0.88694088
9.5943895
9.4567395
13.163087
12.537404
8.4259232
7.76388
11.429672
10.08687
12.699028
9.5943871
9.409906
10.570788
12.993718
12.753328
5.9707425
17.682192
2.7021023
18.024598
16.017548
9.4567417
10.570786
14.080271
12.48776
15.365913
12.112389
3.3485633
8.0857359
16.694367
7.4918851
13.163087
12.993719
12.487761
16.935157
11.748037
10.914696
13.08154
16.642349
13.015298
12.585634
12.537404
12.75333
15.365909
11.748037
7.2694008
21.152592
23.648029
24.304942
21.702918
12.626059
11.371215
15.473599
11.176842
14.203693
12.900687
23.648029
26.105329
28.787946
14.861267
10.517098
15.644084
12.111267
9.4534948
8.60969
17.442272
24.30494
28.787945
22.300784
23.077551
15.565777
18.502505
14.577128
10.607141
18.680525
17.18501
21.702918
14.861269
23.07755
14.48209
12.582428
14.142807
18.174253
23.092103
17.972834
11.693439
12.626061
10.517097
15.565776
12.582428
9.8183496
11.21556
19.368011
16.774293
10.043126
11.947378
11.371212
15.644087
18.502503
14.142806
11.215562
13.903455
15.548678
14.571309
15.278842
13.651228
15.473601
12.111266
14.577128
18.174253
19.368008
15.548681
14.341296
18.355141
20.999728
9.9272937
11.176845
9.4534941
10.607138
23.092104
16.774293
14.571308
18.355141
25.72479
8.4764086
9.3614336
14.20369
8.6096891
18.680527
17.972831
10.04313
15.278841
20.999726
8.4764085
2.2953497
8.5979037
12.900689
17.442269
17.185011
11.69344
11.947375
13.651228
9.9272946
9.3614335
8.5979021
5.1211196
15.268412
31.061624
25.859011
12.381379
23.837655
16.436878
9.8537807
20.760951
19.113997
8.7372768
31.061625
26.961539
24.944027
24.80042
15.164361
17.917632
18.99268
13.463964
6.9762725
14.819315
25.859009
24.944028
25.796442
20.595324
17.567388
21.829708
20.772121
12.140813
14.567389
15.150524
12.38138
24.800422
20.595323
6.2170123
20.821272
19.245587
17.959108
20.849819
15.916753
11.921388
23.837655
15.16436
17.567387
20.821272
15.187034
14.305123
21.643586
18.433935
10.92371
8.9598798
16.436879
17.917629
21.829708
19.245586
14.305121
19.661477
20.540688
16.82153
12.492476
10.159697
9.8537797
18.992682
20.772117
17.959108
21.643589
20.540686
17.194456
18.797485
14.099799
11.682626
20.760951
13.46396
12.140816
20.849817
18.433936
16.82153
18.797482
16.696697
2.8257477
11.741821
19.113999
6.9762706
14.567387
15.916754
10.92371
12.492475
14.099801
2.825748
8.5404795
3.1414786
8.7372734
14.819319
15.150521
11.921388
8.9598804
10.159699
11.682626
11.741821
3.1414804
19.773313
28.050726
17.984052
23.43268
27.830689
11.809784
17.292372
17.807316
17.938249
11.404376
7.0840875
17.984051
36.983389
20.270095
15.616289
21.934747
14.944158
18.478665
9.0593817
3.7584907
14.036058
23.432679
20.270095
22.898003
20.178477
15.797249
21.078977
19.949332
8.8903859
11.843963
14.038828
27.830689
15.616287
20.178478
15.634868
20.337827
17.475295
18.114545
18.373071
14.024916
9.135924
11.809783
21.934747
15.797249
20.337829
14.075078
16.231616
20.995347
16.040351
7.1397466
6.3483717
17.292371
14.94416
21.078977
17.475292
16.231617
19.398151
17.380165
11.938855
10.51442
9.9310925
17.807316
18.478665
19.949331
18.114545
20.995344
17.380167
11.816907
15.942102
10.201322
9.7798115
17.938249
9.0593829
8.8903869
18.37307
16.040353
11.938855
15.942101
8.4207273
4.5402208
9.2682728
11.404375
3.7584913
11.843962
14.024919
7.139747
10.51442
10.201323
4.5402211
11.488905
10.719747
7.084088
14.036057
14.03883
9.135925
6.3483705
9.9310914
9.779814
9.2682732
10.719748
17.673724
19.899695
22.891223
22.894009
18.709952
15.427632
16.929858
14.03679
16.669043
11.442869
6.4708437
22.891222
21.233072
25.770902
17.633485
15.053187
11.771182
19.167063
8.9327318
1.782942
12.469061
22.894009
25.770902
25.104676
18.394019
16.075474
19.280551
18.777295
7.3629307
8.209496
11.883286
18.709951
17.633487
18.394018
16.682109
16.91601
15.250734
16.201198
14.569116
12.034753
7.1783042
15.427633
15.053186
16.075477
16.916009
13.131362
12.427829
17.491363
15.569656
6.1848028
7.3231838
16.929857
11.771184
19.280549
15.250734
12.427829
15.410136
16.313155
11.113202
7.8750712
10.852246
14.036791
19.167061
18.777296
16.201198
17.491361
16.313157
8.901041
11.530117
7.3551737
10.230899
16.669044
8.9327319
7.3629316
14.569117
15.569656
11.1132
11.530118
7.8896955
13.421176
9.7203625
11.442867
1.7829432
8.2094974
12.034753
6.1848024
7.8750715
7.3551757
13.421176
4.698622
20.816788
6.470844
12.469062
11.883286
7.1783025
7.3231833
10.852246
10.230897
9.7203656
20.816786
5.7558062
18.052339
25.195131
26.224527
12.436573
19.634054
12.360861
16.175419
18.665872
9.9302991
5.5652584
25.19513
33.183408
21.565619
20.124719
12.283169
12.997665
19.709472
8.2751992
-1.0217795
11.4644
26.224527
21.565619
20.226962
18.32069
15.391652
17.048842
19.492064
4.4262767
5.050691
11.899328
12.436573
20.124717
18.320692
15.575622
14.930281
14.999914
15.035442
13.268829
12.410383
10.973632
19.634053
12.28317
15.39165
14.930279
11.970454
12.386642
18.039595
16.623768
8.2036434
14.288923
12.36086
12.997665
17.048841
14.999914
12.386642
15.952344
14.324181
10.512458
10.220087
13.634752
16.17542
19.709472
19.492064
15.035441
18.039595
14.324182
7.3510367
14.840355
12.618295
14.086604
18.665869
8.275199
4.426275
13.26883
16.62377
10.512459
14.840355
17.785623
12.181267
18.418982
9.9302996
-1.0217801
5.0506909
12.410384
8.2036425
10.220086
12.618296
12.181268
14.061305
13.001297
5.565258
11.464401
11.899329
10.973633
14.288923
13.634753
14.086604
18.418981
13.001297
18.794191
28.485182
23.612508
20.357964
20.904021
15.779307
14.202157
19.220707
18.389838
9.0123776
5.8398134
23.612509
31.96996
16.201335
14.070985
13.015819
13.947788
19.896223
7.5022223
-2.28079
12.279995
20.35796
16.201336
10.916178
17.552534
12.186327
17.261833
19.900093
2.0996521
5.4891623
14.152849
20.904021
14.070985
17.552531
12.961917
14.9045
16.339717
14.632889
15.490095
15.356776
15.581666
15.779306
13.015817
12.186329
14.904501
13.21603
12.960914
19.025821
16.929022
10.389759
16.638891
14.202159
13.947788
17.261834
16.339719
12.960912
14.462416
12.445152
9.0208868
11.993768
13.205231
19.220705
19.896222
19.90009
14.632891
19.025823
12.445153
8.8193122
15.449122
13.094907
12.779309
18.389837
7.502223
2.0996559
15.490092
16.929023
9.0208855
15.449122
14.70987
6.3246603
19.404441
9.0123774
-2.2807912
5.489162
15.356777
10.389761
11.99377
13.094909
6.324661
22.236067
6.138387
5.839814
12.279997
14.152851
15.581665
16.63889
13.20523
12.779311
19.404442
6.1383862
19.8906
23.703411