/*--------------------------------*- C++ -*----------------------------------*\
| =========                 |                                                 |
| \\      /  F ield         | OpenFOAM: The Open Source CFD Toolbox           |
|  \\    /   O peration     | Version:  v2106                                 |
|   \\  /    A nd           | Website:  www.openfoam.com                      |
|    \\/     M anipulation  |                                                 |
\*---------------------------------------------------------------------------*/
FoamFile
{
    version     2.0;
    format      ascii;
    arch        "LSB;label=32;scalar=64";
    class       volVectorField;
    location    "10";
    object      flux;
}
// * * * * * * * * * * * * * * * * * * * * * * * * * * * * * * * * * * * * * //

dimensions      [0 1 -1 1 0 0 0];

internalField   nonuniform List<vector> 
500
(
(3.600775e-08 3.6007752e-08 0.64780181)
(1.5738255e-07 1.661414e-07 0.64780192)
(-4.0488258e-07 -5.8675283e-08 0.64780206)
(-7.2161756e-07 -5.5013339e-08 0.64780022)
(-1.4224271e-07 -4.6558303e-08 0.64779945)
(1.6614139e-07 1.5738255e-07 0.64780192)
(1.5357994e-08 1.5357994e-08 0.64780256)
(-7.3661468e-07 -2.983911e-07 0.64780165)
(-7.0344209e-07 -1.8694952e-07 0.64779985)
(-1.3378767e-07 -1.3039573e-07 0.64779915)
(-5.8675287e-08 -4.0488258e-07 0.64780206)
(-2.983911e-07 -7.3661468e-07 0.64780165)
(-6.0719009e-07 -6.0719009e-07 0.64780088)
(-5.5362219e-07 -3.1446217e-07 0.6477995)
(-1.0454018e-07 -1.3832151e-07 0.64779898)
(-5.5013341e-08 -7.2161757e-07 0.64780022)
(-1.8694952e-07 -7.0344209e-07 0.64779985)
(-3.1446217e-07 -5.5362219e-07 0.6477995)
(-2.3457351e-07 -2.345735e-07 0.64779882)
(-1.6360565e-08 -6.1348964e-08 0.64779876)
(-4.6558299e-08 -1.4224271e-07 0.64779945)
(-1.3039572e-07 -1.3378767e-07 0.64779915)
(-1.3832151e-07 -1.0454018e-07 0.64779898)
(-6.1348967e-08 -1.6360563e-08 0.64779876)
(1.0942845e-08 1.0942847e-08 0.64779881)
(1.9334345e-09 1.9334348e-09 0.66866763)
(-9.0835645e-08 1.4141718e-07 0.66866742)
(-1.3295774e-06 -2.3807938e-07 0.66866692)
(-1.7492405e-06 -2.0666791e-07 0.66866567)
(-3.4226593e-07 -1.6568942e-07 0.66866523)
(1.4141718e-07 -9.0835647e-08 0.66866742)
(-4.5085487e-07 -4.5085487e-07 0.66866727)
(-1.851705e-06 -8.8299119e-07 0.66866649)
(-1.6406556e-06 -5.2365828e-07 0.66866534)
(-3.0128743e-07 -3.2265532e-07 0.66866498)
(-2.3807938e-07 -1.3295774e-06 0.66866692)
(-8.8299118e-07 -1.851705e-06 0.66866649)
(-1.4023808e-06 -1.4023808e-06 0.66866603)
(-1.1889046e-06 -6.0748938e-07 0.6686653)
(-2.0826395e-07 -1.7131194e-07 0.66866512)
(-2.0666791e-07 -1.7492405e-06 0.66866567)
(-5.2365827e-07 -1.6406555e-06 0.66866534)
(-6.0748938e-07 -1.1889046e-06 0.6686653)
(-4.0958668e-07 -4.0958667e-07 0.6686651)
(-1.050247e-08 -6.4564693e-08 0.66866515)
(-1.6568942e-07 -3.4226592e-07 0.66866523)
(-3.2265532e-07 -3.0128743e-07 0.66866498)
(-1.7131194e-07 -2.0826395e-07 0.66866512)
(-6.4564698e-08 -1.0502468e-08 0.66866515)
(2.1750701e-08 2.1750703e-08 0.6686652)
(-1.0382e-07 -1.0382001e-07 0.70686633)
(-5.5425752e-07 6.6634902e-08 0.70686602)
(-2.1544109e-06 -3.421764e-07 0.70686554)
(-2.4033242e-06 -2.7352328e-07 0.70686467)
(-4.3162722e-07 -2.1400032e-07 0.70686447)
(6.6634907e-08 -5.5425752e-07 0.70686602)
(-9.1179212e-07 -9.1179212e-07 0.70686582)
(-2.6646482e-06 -1.1846726e-06 0.70686532)
(-2.2110601e-06 -5.5355994e-07 0.70686459)
(-3.7210426e-07 -2.4628276e-07 0.70686445)
(-3.421764e-07 -2.1544109e-06 0.70686554)
(-1.1846726e-06 -2.6646482e-06 0.70686532)
(-1.7961787e-06 -1.7961787e-06 0.70686525)
(-1.4649344e-06 -5.5946032e-07 0.70686492)
(-2.2677577e-07 2.3610553e-08 0.70686489)
(-2.7352328e-07 -2.4033242e-06 0.70686467)
(-5.5355993e-07 -2.2110601e-06 0.70686459)
(-5.5946032e-07 -1.4649344e-06 0.70686492)
(-3.9127083e-07 -3.9127082e-07 0.70686497)
(1.6609655e-08 2.3386962e-08 0.706865)
(-2.1400032e-07 -4.3162722e-07 0.70686447)
(-2.4628277e-07 -3.7210426e-07 0.70686445)
(2.3610551e-08 -2.2677577e-07 0.70686489)
(2.3386959e-08 1.6609655e-08 0.706865)
(4.9662753e-08 4.9662753e-08 0.70686508)
(-2.0913799e-07 -2.0913798e-07 0.76338055)
(-8.8456786e-07 1.1088061e-08 0.7633803)
(-2.6755947e-06 -3.8305011e-07 0.76338009)
(-2.8161324e-06 -2.6136419e-07 0.76337957)
(-4.7426571e-07 -1.8123566e-07 0.76337952)
(1.1088058e-08 -8.8456786e-07 0.7633803)
(-1.1454361e-06 -1.145436e-06 0.76338021)
(-3.0842731e-06 -1.1780289e-06 0.76338006)
(-2.5134107e-06 -2.7978069e-07 0.76337969)
(-3.9413718e-07 9.5169003e-08 0.7633797)
(-3.8305011e-07 -2.6755947e-06 0.76338009)
(-1.1780289e-06 -3.0842731e-06 0.76338006)
(-1.8099393e-06 -1.8099393e-06 0.76338035)
(-1.5429345e-06 -2.2562972e-07 0.76338032)
(-2.2429925e-07 3.7617602e-07 0.76338037)
(-2.6136419e-07 -2.8161324e-06 0.76337957)
(-2.797807e-07 -2.5134107e-06 0.76337969)
(-2.2562972e-07 -1.5429345e-06 0.76338032)
(-3.2729535e-07 -3.2729535e-07 0.76338057)
(7.0666442e-09 1.2123151e-07 0.76338053)
(-1.8123566e-07 -4.7426571e-07 0.76337952)
(9.5169003e-08 -3.9413718e-07 0.7633797)
(3.7617602e-07 -2.2429925e-07 0.76338037)
(1.2123151e-07 7.0666419e-09 0.76338053)
(7.4718663e-08 7.4718661e-08 0.7633806)
(-2.6665674e-07 -2.6665674e-07 0.83724901)
(-1.0079677e-06 2.8874617e-09 0.83724889)
(-2.8907484e-06 -3.6257094e-07 0.8372489)
(-2.9782338e-06 -1.919505e-07 0.83724867)
(-4.6364527e-07 -9.6073336e-08 0.83724875)
(2.88746e-09 -1.0079677e-06 0.83724889)
(-1.151839e-06 -1.151839e-06 0.83724891)
(-3.1830054e-06 -9.3156882e-07 0.83724902)
(-2.5784874e-06 2.0000948e-07 0.83724893)
(-3.6776811e-07 6.0982397e-07 0.83724905)
(-3.6257094e-07 -2.8907484e-06 0.8372489)
(-9.3156882e-07 -3.1830054e-06 0.83724902)
(-1.5389e-06 -1.5389e-06 0.83724954)
(-1.436841e-06 3.179767e-07 0.83724974)
(-1.904356e-07 8.5804576e-07 0.83724987)
(-1.9195049e-07 -2.9782338e-06 0.83724867)
(2.0000948e-07 -2.5784874e-06 0.83724893)
(3.179767e-07 -1.436841e-06 0.83724974)
(-1.8154162e-07 -1.8154162e-07 0.83725013)
(-7.722065e-09 2.5160768e-07 0.83725009)
(-9.6073336e-08 -4.6364526e-07 0.83724875)
(6.0982397e-07 -3.6776811e-07 0.83724905)
(8.5804575e-07 -1.904356e-07 0.83724987)
(2.5160767e-07 -7.7220672e-09 0.83725009)
(9.8330596e-08 9.8330594e-08 0.83725017)
(-2.8804893e-07 -2.8804893e-07 0.92715987)
(-9.8959862e-07 2.5880102e-08 0.92715984)
(-2.8966009e-06 -3.0190563e-07 0.92716)
(-2.9637296e-06 -8.7863276e-08 0.92715998)
(-4.1643594e-07 1.9237793e-08 0.92716016)
(2.5880104e-08 -9.8959861e-07 0.92715984)
(-1.0103837e-06 -1.0103837e-06 0.92715994)
(-3.067216e-06 -5.3971461e-07 0.92716022)
(-2.4820144e-06 7.9229378e-07 0.92716032)
(-3.0933487e-07 1.2156797e-06 0.92716053)
(-3.0190563e-07 -2.8966009e-06 0.92716)
(-5.3971461e-07 -3.067216e-06 0.92716022)
(-1.0939234e-06 -1.0939234e-06 0.92716087)
(-1.2083353e-06 9.775636e-07 0.92716122)
(-1.3417868e-07 1.4172763e-06 0.92716141)
(-8.7863274e-08 -2.9637296e-06 0.92715998)
(7.9229378e-07 -2.4820144e-06 0.92716032)
(9.7756359e-07 -1.2083353e-06 0.92716122)
(2.9185287e-08 2.918529e-08 0.9271617)
(-1.6193078e-08 4.177799e-07 0.92716168)
(1.9237793e-08 -4.1643594e-07 0.92716016)
(1.2156797e-06 -3.0933487e-07 0.92716053)
(1.4172763e-06 -1.3417867e-07 0.92716141)
(4.177799e-07 -1.6193074e-08 0.92716168)
(1.248844e-07 1.248844e-07 0.92716176)
(-2.8511889e-07 -2.851189e-07 1.031434)
(-8.7978659e-07 6.6471631e-08 1.031434)
(-2.7550287e-06 -2.1521338e-07 1.0314343)
(-2.819213e-06 3.6803942e-08 1.0314344)
(-3.4419501e-07 1.5135525e-07 1.0314347)
(6.6471637e-08 -8.7978659e-07 1.031434)
(-7.7492832e-07 -7.7492832e-07 1.0314342)
(-2.7995302e-06 -6.0971252e-08 1.0314346)
(-2.26936e-06 1.4390539e-06 1.0314348)
(-2.296437e-07 1.8603643e-06 1.0314351)
(-2.1521338e-07 -2.7550287e-06 1.0314343)
(-6.0971252e-08 -2.7995302e-06 1.0314346)
(-5.410465e-07 -5.4104651e-07 1.0314353)
(-8.9787742e-07 1.6924433e-06 1.0314358)
(-6.3321397e-08 2.0099937e-06 1.031436)
(3.6803942e-08 -2.819213e-06 1.0314344)
(1.4390539e-06 -2.26936e-06 1.0314348)
(1.6924433e-06 -8.9787742e-07 1.0314358)
(2.8168014e-07 2.8168013e-07 1.0314363)
(-1.794344e-08 6.0798563e-07 1.0314363)
(1.5135525e-07 -3.4419501e-07 1.0314347)
(1.8603643e-06 -2.296437e-07 1.0314351)
(2.0099937e-06 -6.3321395e-08 1.031436)
(6.0798563e-07 -1.794344e-08 1.0314363)
(1.542156e-07 1.542156e-07 1.0314364)
(-2.6512245e-07 -2.6512245e-07 1.1480148)
(-7.0876592e-07 1.1620603e-07 1.1480149)
(-2.5003101e-06 -1.1101136e-07 1.1480152)
(-2.5702224e-06 1.7321233e-07 1.1480155)
(-2.5399636e-07 2.9177039e-07 1.1480158)
(1.1620603e-07 -7.0876592e-07 1.1480149)
(-4.7759929e-07 -4.7759929e-07 1.1480151)
(-2.4148006e-06 4.6894819e-07 1.1480155)
(-1.9660498e-06 2.1026187e-06 1.1480159)
(-1.3543831e-07 2.5084731e-06 1.1480162)
(-1.1101136e-07 -2.5003101e-06 1.1480152)
(4.6894819e-07 -2.4148006e-06 1.1480155)
(7.99079e-08 7.9907903e-08 1.1480163)
(-5.3069743e-07 2.421912e-06 1.1480168)
(1.6573269e-08 2.6022627e-06 1.1480171)
(1.7321234e-07 -2.5702224e-06 1.1480155)
(2.1026187e-06 -1.9660498e-06 1.1480159)
(2.421912e-06 -5.3069743e-07 1.1480168)
(5.56305e-07 5.56305e-07 1.1480174)
(-1.5204542e-08 8.076369e-07 1.1480174)
(2.9177039e-07 -2.5399636e-07 1.1480158)
(2.5084731e-06 -1.3543831e-07 1.1480162)
(2.6022627e-06 1.6573263e-08 1.1480171)
(8.076369e-07 -1.5204542e-08 1.1480174)
(1.8412787e-07 1.8412787e-07 1.1480175)
(-2.3250434e-07 -2.3250434e-07 1.2744691)
(-4.9531454e-07 1.6963746e-07 1.2744692)
(-2.1527932e-06 4.87773e-09 1.2744696)
(-2.2320363e-06 3.1494592e-07 1.27447)
(-1.505341e-07 4.3417684e-07 1.2744703)
(1.6963746e-07 -4.9531455e-07 1.2744692)
(-1.3924144e-07 -1.3924144e-07 1.2744694)
(-1.9348305e-06 1.0248535e-06 1.2744699)
(-1.5880876e-06 2.7546243e-06 1.2744704)
(-3.1303178e-08 3.1326384e-06 1.2744707)
(4.877732e-09 -2.1527932e-06 1.2744696)
(1.0248535e-06 -1.9348305e-06 1.2744699)
(7.410725e-07 7.4107249e-07 1.2744707)
(-1.2425142e-07 3.1349008e-06 1.2744713)
(1.0147532e-07 3.1667893e-06 1.2744715)
(3.1494592e-07 -2.2320363e-06 1.27447)
(2.7546243e-06 -1.5880877e-06 1.2744704)
(3.1349008e-06 -1.2425143e-07 1.2744713)
(8.3762919e-07 8.3762919e-07 1.2744718)
(-1.0044158e-08 1.0038561e-06 1.2744718)
(4.3417684e-07 -1.505341e-07 1.2744703)
(3.1326384e-06 -3.130318e-08 1.2744707)
(3.1667893e-06 1.0147532e-07 1.2744715)
(1.0038561e-06 -1.0044156e-08 1.2744718)
(2.1229328e-07 2.1229328e-07 1.2744719)
(-1.9037578e-07 -1.9037578e-07 1.408004)
(-2.5288169e-07 2.22808e-07 1.4080041)
(-1.7273105e-06 1.2761745e-07 1.4080045)
(-1.816237e-06 4.5647868e-07 1.408005)
(-3.7496367e-08 5.7311202e-07 1.4080054)
(2.22808e-07 -2.5288169e-07 1.4080041)
(2.2410816e-07 2.2410816e-07 1.4080043)
(-1.3768045e-06 1.5854877e-06 1.4080049)
(-1.1479952e-06 3.3704152e-06 1.4080055)
(7.9136974e-08 3.7089473e-06 1.4080058)
(1.2761746e-07 -1.7273105e-06 1.4080045)
(1.5854877e-06 -1.3768045e-06 1.4080049)
(1.4189966e-06 1.4189966e-06 1.4080056)
(3.0722262e-07 3.8045454e-06 1.4080062)
(1.8819171e-07 3.6799938e-06 1.4080065)
(4.5647868e-07 -1.816237e-06 1.408005)
(3.3704152e-06 -1.1479952e-06 1.4080055)
(3.8045454e-06 3.0722262e-07 1.4080062)
(1.1130021e-06 1.1130021e-06 1.4080067)
(-3.8973819e-09 1.1859138e-06 1.4080068)
(5.7311201e-07 -3.7496367e-08 1.4080054)
(3.7089473e-06 7.913697e-08 1.4080058)
(3.6799938e-06 1.881917e-07 1.4080065)
(1.1859138e-06 -3.8973837e-09 1.4080068)
(2.3679947e-07 2.3679947e-07 1.4080068)
(-1.4140789e-07 -1.414079e-07 1.5455039)
(6.8156282e-09 2.7239663e-07 1.545504)
(-1.2380551e-06 2.5247387e-07 1.5455044)
(-1.3346202e-06 5.9240831e-07 1.5455051)
(8.1574927e-08 7.0327595e-07 1.5455054)
(2.7239663e-07 6.8156282e-09 1.545504)
(5.9763828e-07 5.9763827e-07 1.5455042)
(-7.580376e-07 2.1302033e-06 1.5455048)
(-6.5841707e-07 3.9263676e-06 1.5455054)
(1.9244257e-07 4.2147024e-06 1.5455058)
(2.5247387e-07 -1.2380551e-06 1.5455044)
(2.1302033e-06 -7.580376e-07 1.5455048)
(2.0906742e-06 2.0906742e-06 1.5455055)
(7.4987894e-07 4.4053633e-06 1.5455061)
(2.7379813e-07 4.1200471e-06 1.5455063)
(5.924083e-07 -1.3346202e-06 1.5455051)
(3.9263676e-06 -6.5841707e-07 1.5455054)
(4.4053633e-06 7.4987893e-07 1.5455061)
(1.3709558e-06 1.3709558e-06 1.5455066)
(2.2317901e-09 1.3443862e-06 1.5455066)
(7.0327595e-07 8.1574929e-08 1.5455054)
(4.2147024e-06 1.9244257e-07 1.5455058)
(4.1200471e-06 2.7379813e-07 1.5455063)
(1.3443862e-06 2.2317882e-09 1.5455066)
(2.5608504e-07 2.5608504e-07 1.5455066)
(-8.8373402e-08 -8.83734e-08 1.6835895)
(2.716198e-07 3.1522955e-07 1.6835897)
(-7.0160169e-07 3.7434172e-07 1.6835901)
(-8.0170035e-07 7.1706086e-07 1.6835908)
(2.0272083e-07 8.1916974e-07 1.6835912)
(3.1522955e-07 2.7161981e-07 1.6835897)
(9.6569248e-07 9.6569249e-07 1.6835898)
(-9.8854724e-08 2.6372194e-06 1.6835904)
(-1.3445832e-07 4.3985815e-06 1.6835911)
(3.0482971e-07 4.6272828e-06 1.6835915)
(3.7434172e-07 -7.0160169e-07 1.6835901)
(2.6372193e-06 -9.885473e-08 1.6835904)
(2.7312873e-06 2.7312873e-06 1.683591)
(1.1883631e-06 4.9116763e-06 1.6835916)
(3.5518837e-07 4.4655494e-06 1.6835919)
(7.1706085e-07 -8.0170035e-07 1.6835908)
(4.3985815e-06 -1.3445833e-07 1.6835911)
(4.9116763e-06 1.1883631e-06 1.6835916)
(1.5998038e-06 1.5998037e-06 1.683592)
(7.4117812e-09 1.4700313e-06 1.683592)
(8.1916973e-07 2.0272083e-07 1.6835912)
(4.6272828e-06 3.0482972e-07 1.6835915)
(4.4655494e-06 3.5518837e-07 1.6835919)
(1.4700313e-06 7.4117812e-09 1.683592)
(2.686734e-07 2.686734e-07 1.6835921)
(-3.4528045e-08 -3.4528042e-08 1.8186999)
(5.2736975e-07 3.4792357e-07 1.8187001)
(-1.39138e-07 4.8741923e-07 1.8187004)
(-2.3660584e-07 8.2421515e-07 1.8187012)
(3.2112932e-07 9.1482627e-07 1.8187015)
(3.4792356e-07 5.2736976e-07 1.8187001)
(1.3102907e-06 1.3102907e-06 1.8187002)
(5.7529937e-07 3.0824478e-06 1.8187007)
(4.0450472e-07 4.7620007e-06 1.8187015)
(4.1174045e-07 4.9233032e-06 1.8187018)
(4.8741924e-07 -1.3913799e-07 1.8187004)
(3.0824478e-06 5.7529937e-07 1.8187007)
(3.3125721e-06 3.3125721e-06 1.8187012)
(1.6042496e-06 5.2963989e-06 1.8187018)
(4.286643e-07 4.6943214e-06 1.818702)
(8.2421514e-07 -2.3660583e-07 1.8187012)
(4.7620007e-06 4.045047e-07 1.8187015)
(5.2963989e-06 1.6042496e-06 1.8187018)
(1.786254e-06 1.786254e-06 1.8187021)
(1.0355397e-08 1.5524807e-06 1.8187021)
(9.1482626e-07 3.2112932e-07 1.8187015)
(4.9233032e-06 4.1174044e-07 1.8187018)
(4.6943214e-06 4.286643e-07 1.818702)
(1.5524807e-06 1.0355395e-08 1.8187021)
(2.7281543e-07 2.7281543e-07 1.8187021)
(1.6066784e-08 1.6066778e-08 1.9471949)
(7.5642711e-07 3.6651264e-07 1.9471951)
(4.2129506e-07 5.8482059e-07 1.9471954)
(3.3496077e-07 9.0672769e-07 1.9471962)
(4.3066176e-07 9.8342632e-07 1.9471965)
(3.6651264e-07 7.5642711e-07 1.9471951)
(1.6095578e-06 1.6095578e-06 1.9471951)
(1.2316176e-06 3.4380594e-06 1.9471956)
(9.3286937e-07 4.9891374e-06 1.9471964)
(5.0736039e-07 5.0773199e-06 1.9471966)
(5.8482059e-07 4.2129508e-07 1.9471954)
(3.4380594e-06 1.2316177e-06 1.9471956)
(3.8008746e-06 3.8008746e-06 1.9471959)
(1.9742212e-06 5.5293573e-06 1.9471965)
(4.8945009e-07 4.7816331e-06 1.9471966)
(9.0672769e-07 3.3496078e-07 1.9471962)
(4.9891373e-06 9.3286938e-07 1.9471964)
(5.5293573e-06 1.9742212e-06 1.9471965)
(1.9136278e-06 1.9136278e-06 1.9471966)
(8.8775759e-09 1.5784952e-06 1.9471966)
(9.8342632e-07 4.3066176e-07 1.9471965)
(5.0773198e-06 5.0736039e-07 1.9471966)
(4.7816331e-06 4.8945009e-07 1.9471966)
(1.5784952e-06 8.8775745e-09 1.9471966)
(2.660283e-07 2.660283e-07 1.9471966)
(5.8358752e-08 5.8358751e-08 2.0654753)
(9.3618798e-07 3.660427e-07 2.0654754)
(9.417877e-07 6.5789016e-07 2.0654755)
(8.7783209e-07 9.5578539e-07 2.0654763)
(5.231295e-07 1.0165415e-06 2.0654765)
(3.660427e-07 9.3618798e-07 2.0654754)
(1.8354851e-06 1.8354851e-06 2.0654753)
(1.8264017e-06 3.6697647e-06 2.0654757)
(1.4158091e-06 5.0473438e-06 2.0654764)
(5.8388561e-07 5.0591277e-06 2.0654766)
(6.5789017e-07 9.4178771e-07 2.0654755)
(3.6697647e-06 1.8264017e-06 2.0654757)
(4.1536464e-06 4.1536465e-06 2.0654758)
(2.267195e-06 5.5740322e-06 2.0654762)
(5.3098538e-07 4.6969785e-06 2.0654763)
(9.5578539e-07 8.7783211e-07 2.0654763)
(5.0473439e-06 1.4158091e-06 2.0654764)
(5.5740322e-06 2.267195e-06 2.0654762)
(1.9591412e-06 1.9591412e-06 2.0654762)
(-8.1683517e-10 1.5294606e-06 2.0654762)
(1.0165415e-06 5.231295e-07 2.0654765)
(5.0591277e-06 5.8388563e-07 2.0654766)
(4.6969785e-06 5.3098538e-07 2.0654763)
(1.5294605e-06 -8.1683141e-10 2.0654762)
(2.4453164e-07 2.4453164e-07 2.0654761)
(8.6855781e-08 8.6855785e-08 2.1701134)
(1.0387911e-06 3.4072177e-07 2.1701135)
(1.3701363e-06 6.9505357e-07 2.1701135)
(1.3421367e-06 9.5952139e-07 2.1701142)
(5.8700526e-07 1.0027965e-06 2.1701143)
(3.4072177e-07 1.0387911e-06 2.1701135)
(1.9510878e-06 1.9510878e-06 2.1701134)
(2.2983357e-06 3.7315167e-06 2.1701135)
(1.8037511e-06 4.8933106e-06 2.1701141)
(6.302804e-07 4.8286603e-06 2.1701142)
(6.9505357e-07 1.3701363e-06 2.1701135)
(3.7315167e-06 2.2983357e-06 2.1701135)
(4.312359e-06 4.312359e-06 2.1701134)
(2.4392803e-06 5.3811802e-06 2.1701136)
(5.4390507e-07 4.3984599e-06 2.1701136)
(9.5952139e-07 1.3421367e-06 2.1701142)
(4.8933106e-06 1.8037512e-06 2.1701141)
(5.3811802e-06 2.4392803e-06 2.1701136)
(1.889852e-06 1.889852e-06 2.1701134)
(-2.4866508e-08 1.3783305e-06 2.1701133)
(1.0027965e-06 5.8700527e-07 2.1701143)
(4.8286603e-06 6.3028041e-07 2.1701142)
(4.3984599e-06 5.4390508e-07 2.1701136)
(1.3783304e-06 -2.4866497e-08 2.1701133)
(2.0289069e-07 2.0289071e-07 2.1701131)
(9.8646744e-08 9.8646743e-08 2.2579889)
(1.0371917e-06 2.8767299e-07 2.2579889)
(1.6351356e-06 6.8126084e-07 2.2579888)
(1.6537126e-06 9.0182625e-07 2.2579892)
(6.0519907e-07 9.2702978e-07 2.2579892)
(2.8767299e-07 1.0371917e-06 2.2579889)
(1.9111129e-06 1.9111129e-06 2.2579888)
(2.5563655e-06 3.5585107e-06 2.2579887)
(2.022366e-06 4.4658184e-06 2.2579889)
(6.304026e-07 4.3308266e-06 2.2579888)
(6.8126085e-07 1.6351356e-06 2.2579888)
(3.5585107e-06 2.5563655e-06 2.2579887)
(4.1898411e-06 4.1898411e-06 2.2579881)
(2.4260284e-06 4.8788937e-06 2.257988)
(5.1520454e-07 3.8264537e-06 2.2579878)
(9.0182625e-07 1.6537126e-06 2.2579892)
(4.4658184e-06 2.022366e-06 2.2579889)
(4.8788937e-06 2.4260285e-06 2.257988)
(1.6589787e-06 1.6589787e-06 2.2579875)
(-7.1224046e-08 1.0895959e-06 2.2579873)
(9.2702979e-07 6.0519907e-07 2.2579892)
(4.3308266e-06 6.304026e-07 2.2579888)
(3.8264537e-06 5.1520454e-07 2.2579878)
(1.0895958e-06 -7.1224043e-08 2.2579873)
(1.3561599e-07 1.35616e-07 2.2579871)
(1.0025009e-07 1.0025009e-07 2.3264188)
(9.2843759e-07 2.2308119e-07 2.3264188)
(1.6515231e-06 6.057309e-07 2.3264185)
(1.7018557e-06 7.6892734e-07 2.3264185)
(5.5226333e-07 7.7824954e-07 2.3264182)
(2.2308119e-07 9.2843759e-07 2.3264188)
(1.6866588e-06 1.6866588e-06 2.3264187)
(2.4702924e-06 3.0778039e-06 2.3264182)
(1.9606336e-06 3.6973426e-06 2.326418)
(5.6158553e-07 3.5152666e-06 2.3264177)
(6.057309e-07 1.6515231e-06 2.3264185)
(3.0778039e-06 2.4702924e-06 2.3264182)
(3.6622069e-06 3.662207e-06 2.3264173)
(2.1393184e-06 3.9736173e-06 2.3264167)
(4.3087935e-07 2.9184245e-06 2.3264163)
(7.6892734e-07 1.7018557e-06 2.3264185)
(3.6973426e-06 1.9606336e-06 2.326418)
(3.9736173e-06 2.1393184e-06 2.3264167)
(1.2168512e-06 1.2168512e-06 2.3264158)
(-1.4187632e-07 6.4217374e-07 2.3264156)
(7.7824954e-07 5.5226333e-07 2.3264182)
(3.5152666e-06 5.6158553e-07 2.3264177)
(2.9184245e-06 4.3087934e-07 2.3264163)
(6.4217374e-07 -1.4187631e-07 2.3264156)
(4.7761023e-08 4.7761035e-08 2.3264154)
(1.0290702e-07 1.0290701e-07 2.3732752)
(7.5426907e-07 2.0289099e-07 2.3732751)
(1.3599539e-06 4.9503662e-07 2.3732746)
(1.354593e-06 5.8426214e-07 2.3732741)
(3.9636513e-07 5.8606024e-07 2.3732735)
(2.0289099e-07 7.5426906e-07 2.3732751)
(1.3424635e-06 1.3424635e-06 2.373275)
(1.9320106e-06 2.3094258e-06 2.3732741)
(1.4911285e-06 2.6255624e-06 2.3732734)
(3.9816324e-07 2.4658221e-06 2.3732727)
(4.9503662e-07 1.3599539e-06 2.3732746)
(2.3094258e-06 1.9320106e-06 2.3732741)
(2.6430528e-06 2.6430528e-06 2.3732726)
(1.5109894e-06 2.648311e-06 2.3732715)
(2.8987162e-07 1.747163e-06 2.373271)
(5.8426214e-07 1.354593e-06 2.3732741)
(2.6255624e-06 1.4911285e-06 2.3732734)
(2.648311e-06 1.5109894e-06 2.3732715)
(5.9523869e-07 5.952387e-07 2.3732704)
(-2.0260207e-07 1.4337719e-07 2.3732703)
(5.8606025e-07 3.9636513e-07 2.3732735)
(2.4658222e-06 3.9816323e-07 2.3732727)
(1.747163e-06 2.8987162e-07 2.373271)
(1.4337718e-07 -2.0260207e-07 2.3732703)
(-1.1369382e-08 -1.1369385e-08 2.3732701)
(4.8445504e-08 4.8445507e-08 2.3990819)
(3.6653355e-07 1.164226e-07 2.3990816)
(6.4326663e-07 2.4206479e-07 2.3990807)
(5.3851149e-07 2.5448716e-07 2.3990794)
(1.2607344e-07 2.3817198e-07 2.3990787)
(1.164226e-07 3.6653355e-07 2.3990816)
(6.5696247e-07 6.5696248e-07 2.3990811)
(8.5036347e-07 1.0471904e-06 2.3990794)
(5.3267227e-07 1.1101798e-06 2.3990781)
(1.0975825e-07 1.0000462e-06 2.3990774)
(2.4206479e-07 6.4326661e-07 2.3990807)
(1.0471904e-06 8.5036347e-07 2.3990794)
(1.096484e-06 1.096484e-06 2.399077)
(4.9136728e-07 1.0093459e-06 2.3990755)
(5.2651042e-08 4.9449366e-07 2.399075)
(2.5448717e-07 5.3851149e-07 2.3990794)
(1.1101798e-06 5.3267227e-07 2.3990781)
(1.0093459e-06 4.9136728e-07 2.3990755)
(-6.9318037e-08 -6.9318034e-08 2.3990743)
(-2.3347656e-07 -2.1530714e-07 2.3990752)
(2.3817198e-07 1.2607344e-07 2.3990787)
(1.0000462e-06 1.0975825e-07 2.3990774)
(4.9449366e-07 5.2651042e-08 2.399075)
(-2.1530714e-07 -2.3347656e-07 2.3990752)
(-4.4675027e-08 -4.4675025e-08 2.3990754)
)
;

boundaryField
{
    wall_minX
    {
        type            calculated;
        value           nonuniform List<vector> 
100
(
(0 3.6007752e-08 0.64780181)
(0 1.5738255e-07 0.64780192)
(0 -4.0488258e-07 0.64780206)
(0 -7.2161757e-07 0.64780022)
(0 -1.4224271e-07 0.64779945)
(0 1.9334348e-09 0.66866763)
(0 -9.0835647e-08 0.66866742)
(0 -1.3295774e-06 0.66866692)
(0 -1.7492405e-06 0.66866567)
(0 -3.4226592e-07 0.66866523)
(0 -1.0382001e-07 0.70686633)
(0 -5.5425752e-07 0.70686602)
(0 -2.1544109e-06 0.70686554)
(0 -2.4033242e-06 0.70686467)
(0 -4.3162722e-07 0.70686447)
(0 -2.0913798e-07 0.76338055)
(0 -8.8456786e-07 0.7633803)
(0 -2.6755947e-06 0.76338009)
(0 -2.8161324e-06 0.76337957)
(0 -4.7426571e-07 0.76337952)
(0 -2.6665674e-07 0.83724901)
(0 -1.0079677e-06 0.83724889)
(0 -2.8907484e-06 0.8372489)
(0 -2.9782338e-06 0.83724867)
(0 -4.6364526e-07 0.83724875)
(0 -2.8804893e-07 0.92715987)
(0 -9.8959861e-07 0.92715984)
(0 -2.8966009e-06 0.92716)
(0 -2.9637296e-06 0.92715998)
(0 -4.1643594e-07 0.92716016)
(0 -2.851189e-07 1.031434)
(0 -8.7978659e-07 1.031434)
(0 -2.7550287e-06 1.0314343)
(0 -2.819213e-06 1.0314344)
(0 -3.4419501e-07 1.0314347)
(0 -2.6512245e-07 1.1480148)
(0 -7.0876592e-07 1.1480149)
(0 -2.5003101e-06 1.1480152)
(0 -2.5702224e-06 1.1480155)
(0 -2.5399636e-07 1.1480158)
(0 -2.3250434e-07 1.2744691)
(0 -4.9531455e-07 1.2744692)
(0 -2.1527932e-06 1.2744696)
(0 -2.2320363e-06 1.27447)
(0 -1.505341e-07 1.2744703)
(0 -1.9037578e-07 1.408004)
(0 -2.5288169e-07 1.4080041)
(0 -1.7273105e-06 1.4080045)
(0 -1.816237e-06 1.408005)
(0 -3.7496367e-08 1.4080054)
(0 -1.414079e-07 1.5455039)
(0 6.8156282e-09 1.545504)
(0 -1.2380551e-06 1.5455044)
(0 -1.3346202e-06 1.5455051)
(0 8.1574929e-08 1.5455054)
(0 -8.83734e-08 1.6835895)
(0 2.7161981e-07 1.6835897)
(0 -7.0160169e-07 1.6835901)
(0 -8.0170035e-07 1.6835908)
(0 2.0272083e-07 1.6835912)
(0 -3.4528042e-08 1.8186999)
(0 5.2736976e-07 1.8187001)
(0 -1.3913799e-07 1.8187004)
(0 -2.3660583e-07 1.8187012)
(0 3.2112932e-07 1.8187015)
(0 1.6066778e-08 1.9471949)
(0 7.5642711e-07 1.9471951)
(0 4.2129508e-07 1.9471954)
(0 3.3496078e-07 1.9471962)
(0 4.3066176e-07 1.9471965)
(0 5.8358751e-08 2.0654753)
(0 9.3618798e-07 2.0654754)
(0 9.4178771e-07 2.0654755)
(0 8.7783211e-07 2.0654763)
(0 5.231295e-07 2.0654765)
(0 8.6855785e-08 2.1701134)
(0 1.0387911e-06 2.1701135)
(0 1.3701363e-06 2.1701135)
(0 1.3421367e-06 2.1701142)
(0 5.8700527e-07 2.1701143)
(0 9.8646743e-08 2.2579889)
(0 1.0371917e-06 2.2579889)
(0 1.6351356e-06 2.2579888)
(0 1.6537126e-06 2.2579892)
(0 6.0519907e-07 2.2579892)
(0 1.0025009e-07 2.3264188)
(0 9.2843759e-07 2.3264188)
(0 1.6515231e-06 2.3264185)
(0 1.7018557e-06 2.3264185)
(0 5.5226333e-07 2.3264182)
(0 1.0290701e-07 2.3732752)
(0 7.5426906e-07 2.3732751)
(0 1.3599539e-06 2.3732746)
(0 1.354593e-06 2.3732741)
(0 3.9636513e-07 2.3732735)
(0 4.8445507e-08 2.3990819)
(0 3.6653355e-07 2.3990816)
(0 6.4326661e-07 2.3990807)
(0 5.3851149e-07 2.3990794)
(0 1.2607344e-07 2.3990787)
)
;
    }
    wall_maxX
    {
        type            calculated;
        value           nonuniform List<vector> 
100
(
(0 -4.6558303e-08 0.64779945)
(0 -1.3039573e-07 0.64779915)
(0 -1.3832151e-07 0.64779898)
(0 -6.1348964e-08 0.64779876)
(0 1.0942847e-08 0.64779881)
(0 -1.6568942e-07 0.66866523)
(0 -3.2265532e-07 0.66866498)
(0 -1.7131194e-07 0.66866512)
(0 -6.4564693e-08 0.66866515)
(0 2.1750703e-08 0.6686652)
(0 -2.1400032e-07 0.70686447)
(0 -2.4628276e-07 0.70686445)
(0 2.3610553e-08 0.70686489)
(0 2.3386962e-08 0.706865)
(0 4.9662753e-08 0.70686508)
(0 -1.8123566e-07 0.76337952)
(0 9.5169003e-08 0.7633797)
(0 3.7617602e-07 0.76338037)
(0 1.2123151e-07 0.76338053)
(0 7.4718661e-08 0.7633806)
(0 -9.6073336e-08 0.83724875)
(0 6.0982397e-07 0.83724905)
(0 8.5804576e-07 0.83724987)
(0 2.5160768e-07 0.83725009)
(0 9.8330594e-08 0.83725017)
(0 1.9237793e-08 0.92716016)
(0 1.2156797e-06 0.92716053)
(0 1.4172763e-06 0.92716141)
(0 4.177799e-07 0.92716168)
(0 1.248844e-07 0.92716176)
(0 1.5135525e-07 1.0314347)
(0 1.8603643e-06 1.0314351)
(0 2.0099937e-06 1.031436)
(0 6.0798563e-07 1.0314363)
(0 1.542156e-07 1.0314364)
(0 2.9177039e-07 1.1480158)
(0 2.5084731e-06 1.1480162)
(0 2.6022627e-06 1.1480171)
(0 8.076369e-07 1.1480174)
(0 1.8412787e-07 1.1480175)
(0 4.3417684e-07 1.2744703)
(0 3.1326384e-06 1.2744707)
(0 3.1667893e-06 1.2744715)
(0 1.0038561e-06 1.2744718)
(0 2.1229328e-07 1.2744719)
(0 5.7311202e-07 1.4080054)
(0 3.7089473e-06 1.4080058)
(0 3.6799938e-06 1.4080065)
(0 1.1859138e-06 1.4080068)
(0 2.3679947e-07 1.4080068)
(0 7.0327595e-07 1.5455054)
(0 4.2147024e-06 1.5455058)
(0 4.1200471e-06 1.5455063)
(0 1.3443862e-06 1.5455066)
(0 2.5608504e-07 1.5455066)
(0 8.1916974e-07 1.6835912)
(0 4.6272828e-06 1.6835915)
(0 4.4655494e-06 1.6835919)
(0 1.4700313e-06 1.683592)
(0 2.686734e-07 1.6835921)
(0 9.1482627e-07 1.8187015)
(0 4.9233032e-06 1.8187018)
(0 4.6943214e-06 1.818702)
(0 1.5524807e-06 1.8187021)
(0 2.7281543e-07 1.8187021)
(0 9.8342632e-07 1.9471965)
(0 5.0773199e-06 1.9471966)
(0 4.7816331e-06 1.9471966)
(0 1.5784952e-06 1.9471966)
(0 2.660283e-07 1.9471966)
(0 1.0165415e-06 2.0654765)
(0 5.0591277e-06 2.0654766)
(0 4.6969785e-06 2.0654763)
(0 1.5294606e-06 2.0654762)
(0 2.4453164e-07 2.0654761)
(0 1.0027965e-06 2.1701143)
(0 4.8286603e-06 2.1701142)
(0 4.3984599e-06 2.1701136)
(0 1.3783305e-06 2.1701133)
(0 2.0289071e-07 2.1701131)
(0 9.2702978e-07 2.2579892)
(0 4.3308266e-06 2.2579888)
(0 3.8264537e-06 2.2579878)
(0 1.0895959e-06 2.2579873)
(0 1.35616e-07 2.2579871)
(0 7.7824954e-07 2.3264182)
(0 3.5152666e-06 2.3264177)
(0 2.9184245e-06 2.3264163)
(0 6.4217374e-07 2.3264156)
(0 4.7761035e-08 2.3264154)
(0 5.8606024e-07 2.3732735)
(0 2.4658221e-06 2.3732727)
(0 1.747163e-06 2.373271)
(0 1.4337719e-07 2.3732703)
(0 -1.1369385e-08 2.3732701)
(0 2.3817198e-07 2.3990787)
(0 1.0000462e-06 2.3990774)
(0 4.9449366e-07 2.399075)
(0 -2.1530714e-07 2.3990752)
(0 -4.4675025e-08 2.3990754)
)
;
    }
    wall_minY
    {
        type            calculated;
        value           nonuniform List<vector> 
100
(
(3.600775e-08 0 0.64780181)
(1.9334345e-09 0 0.66866763)
(-1.0382e-07 0 0.70686633)
(-2.0913799e-07 0 0.76338055)
(-2.6665674e-07 0 0.83724901)
(-2.8804893e-07 0 0.92715987)
(-2.8511889e-07 0 1.031434)
(-2.6512245e-07 0 1.1480148)
(-2.3250434e-07 0 1.2744691)
(-1.9037578e-07 0 1.408004)
(-1.4140789e-07 0 1.5455039)
(-8.8373402e-08 0 1.6835895)
(-3.4528045e-08 0 1.8186999)
(1.6066784e-08 0 1.9471949)
(5.8358752e-08 0 2.0654753)
(8.6855781e-08 0 2.1701134)
(9.8646744e-08 0 2.2579889)
(1.0025009e-07 0 2.3264188)
(1.0290702e-07 0 2.3732752)
(4.8445504e-08 0 2.3990819)
(1.5738255e-07 0 0.64780192)
(-9.0835645e-08 0 0.66866742)
(-5.5425752e-07 0 0.70686602)
(-8.8456786e-07 0 0.7633803)
(-1.0079677e-06 0 0.83724889)
(-9.8959862e-07 0 0.92715984)
(-8.7978659e-07 0 1.031434)
(-7.0876592e-07 0 1.1480149)
(-4.9531454e-07 0 1.2744692)
(-2.5288169e-07 0 1.4080041)
(6.8156282e-09 0 1.545504)
(2.716198e-07 0 1.6835897)
(5.2736975e-07 0 1.8187001)
(7.5642711e-07 0 1.9471951)
(9.3618798e-07 0 2.0654754)
(1.0387911e-06 0 2.1701135)
(1.0371917e-06 0 2.2579889)
(9.2843759e-07 0 2.3264188)
(7.5426907e-07 0 2.3732751)
(3.6653355e-07 0 2.3990816)
(-4.0488258e-07 0 0.64780206)
(-1.3295774e-06 0 0.66866692)
(-2.1544109e-06 0 0.70686554)
(-2.6755947e-06 0 0.76338009)
(-2.8907484e-06 0 0.8372489)
(-2.8966009e-06 0 0.92716)
(-2.7550287e-06 0 1.0314343)
(-2.5003101e-06 0 1.1480152)
(-2.1527932e-06 0 1.2744696)
(-1.7273105e-06 0 1.4080045)
(-1.2380551e-06 0 1.5455044)
(-7.0160169e-07 0 1.6835901)
(-1.39138e-07 0 1.8187004)
(4.2129506e-07 0 1.9471954)
(9.417877e-07 0 2.0654755)
(1.3701363e-06 0 2.1701135)
(1.6351356e-06 0 2.2579888)
(1.6515231e-06 0 2.3264185)
(1.3599539e-06 0 2.3732746)
(6.4326663e-07 0 2.3990807)
(-7.2161756e-07 0 0.64780022)
(-1.7492405e-06 0 0.66866567)
(-2.4033242e-06 0 0.70686467)
(-2.8161324e-06 0 0.76337957)
(-2.9782338e-06 0 0.83724867)
(-2.9637296e-06 0 0.92715998)
(-2.819213e-06 0 1.0314344)
(-2.5702224e-06 0 1.1480155)
(-2.2320363e-06 0 1.27447)
(-1.816237e-06 0 1.408005)
(-1.3346202e-06 0 1.5455051)
(-8.0170035e-07 0 1.6835908)
(-2.3660584e-07 0 1.8187012)
(3.3496077e-07 0 1.9471962)
(8.7783209e-07 0 2.0654763)
(1.3421367e-06 0 2.1701142)
(1.6537126e-06 0 2.2579892)
(1.7018557e-06 0 2.3264185)
(1.354593e-06 0 2.3732741)
(5.3851149e-07 0 2.3990794)
(-1.4224271e-07 0 0.64779945)
(-3.4226593e-07 0 0.66866523)
(-4.3162722e-07 0 0.70686447)
(-4.7426571e-07 0 0.76337952)
(-4.6364527e-07 0 0.83724875)
(-4.1643594e-07 0 0.92716016)
(-3.4419501e-07 0 1.0314347)
(-2.5399636e-07 0 1.1480158)
(-1.505341e-07 0 1.2744703)
(-3.7496367e-08 0 1.4080054)
(8.1574927e-08 0 1.5455054)
(2.0272083e-07 0 1.6835912)
(3.2112932e-07 0 1.8187015)
(4.3066176e-07 0 1.9471965)