/*--------------------------------*- C++ -*----------------------------------*\
| =========                 |                                                 |
| \\      /  F ield         | OpenFOAM: The Open Source CFD Toolbox           |
|  \\    /   O peration     | Version:  v2106                                 |
|   \\  /    A nd           | Website:  www.openfoam.com                      |
|    \\/     M anipulation  |                                                 |
\*---------------------------------------------------------------------------*/
FoamFile
{
    version     2.0;
    format      ascii;
    arch        "LSB;label=32;scalar=64";
    class       volScalarField;
    location    "10";
    object      gradTz;
}
// * * * * * * * * * * * * * * * * * * * * * * * * * * * * * * * * * * * * * //

dimensions      [0 -1 0 1 0 0 0];

internalField   nonuniform List<scalar> 
500
(
323.9009
323.90096
323.90103
323.90011
323.89973
323.90096
323.90128
323.90082
323.89993
323.89957
323.90103
323.90082
323.90044
323.89975
323.89949
323.90011
323.89993
323.89975
323.89941
323.89938
323.89973
323.89957
323.89949
323.89938
323.89941
334.33381
334.33371
334.33346
334.33283
334.33262
334.33371
334.33363
334.33325
334.33267
334.33249
334.33346
334.33325
334.33302
334.33265
334.33256
334.33283
334.33267
334.33265
334.33255
334.33257
334.33262
334.33249
334.33256
334.33257
334.3326
353.43317
353.43301
353.43277
353.43234
353.43224
353.43301
353.43291
353.43266
353.43229
353.43223
353.43277
353.43266
353.43262
353.43246
353.43245
353.43234
353.43229
353.43246
353.43249
353.4325
353.43224
353.43223
353.43245
353.4325
353.43254
381.69027
381.69015
381.69005
381.68978
381.68976
381.69015
381.6901
381.69003
381.68984
381.68985
381.69005
381.69003
381.69017
381.69016
381.69019
381.68978
381.68984
381.69016
381.69028
381.69026
381.68976
381.68985
381.69019
381.69026
381.6903
418.6245
418.62444
418.62445
418.62433
418.62438
418.62444
418.62445
418.62451
418.62446
418.62453
418.62445
418.62451
418.62477
418.62487
418.62494
418.62433
418.62446
418.62487
418.62506
418.62505
418.62438
418.62453
418.62494
418.62505
418.62508
463.57994
463.57992
463.58
463.57999
463.58008
463.57992
463.57997
463.58011
463.58016
463.58026
463.58
463.58011
463.58043
463.58061
463.5807
463.57999
463.58016
463.58061
463.58085
463.58084
463.58008
463.58026
463.5807
463.58084
463.58088
515.71701
515.71702
515.71715
515.71722
515.71734
515.71702
515.71709
515.71729
515.71742
515.71755
515.71715
515.71729
515.71765
515.71788
515.71799
515.71722
515.71742
515.71788
515.71814
515.71814
515.71734
515.71755
515.71799
515.71814
515.71819
574.00742
574.00745
574.00761
574.00776
574.0079
574.00745
574.00753
574.00777
574.00796
574.00811
574.00761
574.00777
574.00815
574.00841
574.00854
574.00776
574.00796
574.00841
574.00869
574.00869
574.0079
574.00811
574.00854
574.00869
574.00874
637.23456
637.23461
637.23478
637.235
637.23516
637.23461
637.23469
637.23496
637.23521
637.23537
637.23478
637.23496
637.23534
637.23563
637.23576
637.235
637.23521
637.23563
637.2359
637.23591
637.23516
637.23537
637.23576
637.23591
637.23595
704.002
704.00207
704.00225
704.00252
704.0027
704.00207
704.00214
704.00243
704.00273
704.0029
704.00225
704.00243
704.0028
704.00311
704.00324
704.00252
704.00273
704.00311
704.00337
704.00338
704.0027
704.0029
704.00324
704.00338
704.00341
772.75194
772.75202
772.7522
772.75253
772.75271
772.75202
772.75208
772.75239
772.75272
772.75289
772.7522
772.75239
772.75273
772.75304
772.75317
772.75253
772.75272
772.75304
772.75328
772.75329
772.75271
772.75289
772.75317
772.75329
772.75331
841.79477
841.79485
841.79503
841.7954
841.79558
841.79485
841.7949
841.7952
841.79557
841.79573
841.79503
841.7952
841.7955
841.79581
841.79593
841.7954
841.79557
841.79581
841.79602
841.79602
841.79558
841.79573
841.79593
841.79602
841.79603
909.34996
909.35004
909.35021
909.3506
909.35077
909.35004
909.35008
909.35036
909.35074
909.3509
909.35021
909.35036
909.35061
909.3509
909.351
909.3506
909.35074
909.3509
909.35105
909.35105
909.35077
909.3509
909.351
909.35105
909.35105
973.59747
973.59754
973.59768
973.59808
973.59823
973.59754
973.59756
973.59781
973.59818
973.59831
973.59768
973.59781
973.59797
973.59823
973.5983
973.59808
973.59818
973.59823
973.59832
973.59831
973.59823
973.59831
973.5983
973.59831
973.59829
1032.7376
1032.7377
1032.7378
1032.7382
1032.7383
1032.7377
1032.7377
1032.7379
1032.7382
1032.7383
1032.7378
1032.7379
1032.7379
1032.7381
1032.7381
1032.7382
1032.7382
1032.7381
1032.7381
1032.7381
1032.7383
1032.7383
1032.7381
1032.7381
1032.738
1085.0567
1085.0567
1085.0568
1085.0571
1085.0571
1085.0567
1085.0567
1085.0568
1085.057
1085.0571
1085.0568
1085.0568
1085.0567
1085.0568
1085.0568
1085.0571
1085.057
1085.0568
1085.0567
1085.0566
1085.0571
1085.0571
1085.0568
1085.0566
1085.0566
1128.9945
1128.9945
1128.9944
1128.9946
1128.9946
1128.9945
1128.9944
1128.9943
1128.9945
1128.9944
1128.9944
1128.9943
1128.9941
1128.994
1128.9939
1128.9946
1128.9945
1128.994
1128.9938
1128.9937
1128.9946
1128.9944
1128.9939
1128.9937
1128.9936
1163.2094
1163.2094
1163.2093
1163.2093
1163.2091
1163.2094
1163.2093
1163.2091
1163.209
1163.2088
1163.2093
1163.2091
1163.2086
1163.2083
1163.2082
1163.2093
1163.209
1163.2083
1163.2079
1163.2078
1163.2091
1163.2088
1163.2082
1163.2078
1163.2077
1186.6376
1186.6376
1186.6373
1186.6371
1186.6367
1186.6376
1186.6375
1186.6371
1186.6367
1186.6363
1186.6373
1186.6371
1186.6363
1186.6358
1186.6355
1186.6371
1186.6367
1186.6358
1186.6352
1186.6351
1186.6367
1186.6363
1186.6355
1186.6351
1186.6351
1199.5409
1199.5408
1199.5403
1199.5397
1199.5393
1199.5408
1199.5405
1199.5397
1199.539
1199.5387
1199.5403
1199.5397
1199.5385
1199.5377
1199.5375
1199.5397
1199.539
1199.5377
1199.5372
1199.5376
1199.5393
1199.5387
1199.5375
1199.5376
1199.5377
)
;

boundaryField
{
    wall_minX
    {
        type            calculated;
        value           nonuniform List<scalar> 
100
(
323.9009
323.90096
323.90103
323.90011
323.89973
334.33381
334.33371
334.33346
334.33283
334.33262
353.43317
353.43301
353.43277
353.43234
353.43224
381.69027
381.69015
381.69005
381.68978
381.68976
418.6245
418.62444
418.62445
418.62433
418.62438
463.57994
463.57992
463.58
463.57999
463.58008
515.71701
515.71702
515.71715
515.71722
515.71734
574.00742
574.00745
574.00761
574.00776
574.0079
637.23456
637.23461
637.23478
637.235
637.23516
704.002
704.00207
704.00225
704.00252
704.0027
772.75194
772.75202
772.7522
772.75253
772.75271
841.79477
841.79485
841.79503
841.7954
841.79558
909.34996
909.35004
909.35021
909.3506
909.35077
973.59747
973.59754
973.59768
973.59808
973.59823
1032.7376
1032.7377
1032.7378
1032.7382
1032.7383
1085.0567
1085.0567
1085.0568
1085.0571
1085.0571
1128.9945
1128.9945
1128.9944
1128.9946
1128.9946
1163.2094
1163.2094
1163.2093
1163.2093
1163.2091
1186.6376
1186.6376
1186.6373
1186.6371
1186.6367
1199.5409
1199.5408
1199.5403
1199.5397
1199.5393
)
;
    }
    wall_maxX
    {
        type            calculated;
        value           nonuniform List<scalar> 
100
(
323.89973
323.89957
323.89949
323.89938
323.89941
334.33262
334.33249
334.33256
334.33257
334.3326
353.43224
353.43223
353.43245
353.4325
353.43254
381.68976
381.68985
381.69019
381.69026
381.6903
418.62438
418.62453
418.62494
418.62505
418.62508
463.58008
463.58026
463.5807
463.58084
463.58088
515.71734
515.71755
515.71799
515.71814
515.71819
574.0079
574.00811
574.00854
574.00869
574.00874
637.23516
637.23537
637.23576
637.23591
637.23595
704.0027
704.0029
704.00324
704.00338
704.00341
772.75271
772.75289
772.75317
772.75329
772.75331
841.79558
841.79573
841.79593
841.79602
841.79603
909.35077
909.3509
909.351
909.35105
909.35105
973.59823
973.59831
973.5983
973.59831
973.59829
1032.7383
1032.7383
1032.7381
1032.7381
1032.738
1085.0571
1085.0571
1085.0568
1085.0566
1085.0566
1128.9946
1128.9944
1128.9939
1128.9937
1128.9936
1163.2091
1163.2088
1163.2082
1163.2078
1163.2077
1186.6367
1186.6363
1186.6355
1186.6351
1186.6351
1199.5393
1199.5387
1199.5375
1199.5376
1199.5377
)
;
    }
    wall_minY
    {
        type            calculated;
        value           nonuniform List<scalar> 
100
(
323.9009
334.33381
353.43317
381.69027
418.6245
463.57994
515.71701
574.00742
637.23456
704.002
772.75194
841.79477
909.34996
973.59747
1032.7376
1085.0567
1128.9945
1163.2094
1186.6376
1199.5409
323.90096
334.33371
353.43301
381.69015
418.62444
463.57992
515.71702
574.00745
637.23461
704.00207
772.75202
841.79485
909.35004
973.59754
1032.7377
1085.0567
1128.9945
1163.2094
1186.6376
1199.5408
323.90103
334.33346
353.43277
381.69005
418.62445
463.58
515.71715
574.00761
637.23478
704.00225
772.7522
841.79503
909.35021
973.59768
1032.7378
1085.0568
1128.9944
1163.2093
1186.6373
1199.5403
323.90011
334.33283
353.43234
381.68978
418.62433
463.57999
515.71722
574.00776
637.235
704.00252
772.75253
841.7954
909.3506
973.59808
1032.7382
1085.0571
1128.9946
1163.2093
1186.6371
1199.5397
323.89973
334.33262
353.43224
381.68976
418.62438
463.58008
515.71734
574.0079
637.23516
704.0027
772.75271
841.79558
909.35077
973.59823
1032.7383
1085.0571
1128.9946
1163.2091
1186.6367
1199.5393
)
;
    }
    wall_maxY
    {
        type            calculated;
        value           nonuniform List<scalar> 
100
(
323.89973
334.33262
353.43224
381.68976
418.62438
463.58008
515.71734
574.0079
637.23516
704.0027
772.75271
841.79558
909.35077
973.59823
1032.7383
1085.0571
1128.9946
1163.2091
1186.6367
1199.5393
323.89957
334.33249
353.43223
381.68985
418.62453
463.58026
515.71755
574.00811
637.23537
704.0029
772.75289
841.79573
909.3509
973.59831
1032.7383
1085.0571
1128.9944
1163.2088
1186.6363
1199.5387
323.89949
334.33256
353.43245
381.69019
418.62494
463.5807
515.71799
574.00854
637.23576
704.00324
772.75317
841.79593
909.351
973.5983
1032.7381
1085.0568
1128.9939
1163.2082
1186.6355
1199.5375
323.89938
334.33257
353.4325
381.69026
418.62505
463.58084
515.71814
574.00869
637.23591
704.00338
772.75329
841.79602
909.35105
973.59831
1032.7381
1085.0566
1128.9937
1163.2078
1186.6351
1199.5376
323.89941
334.3326
353.43254
381.6903
418.62508
463.58088
515.71819
574.00874
637.23595
704.00341
772.75331
841.79603
909.35105
973.59829
1032.738
1085.0566
1128.9936
1163.2077
1186.6351
1199.5377
)
;
    }
    inlet_minZ
    {
        type            calculated;
        value           nonuniform List<scalar> 
25
(
322.28986
322.28996
322.29017
322.28916
322.28873
322.28996
322.29046
322.29
322.28899
322.28859
322.29017
322.29
322.28957
322.28878
322.28847
322.28916
322.28899
322.28878
322.28836
322.28831
322.28873
322.28859
322.28847
322.28831
322.28834
)
;
    }
    outlet_maxZ
    {
        type            calculated;
        value           nonuniform List<scalar> 
25
(
1201.5409
1201.5407
1201.5401
1201.5394
1201.5391
1201.5407
1201.5404
1201.5394
1201.5387
1201.5383
1201.5401
1201.5394
1201.538
1201.5372
1201.5371
1201.5394
1201.5387
1201.5372
1201.5367
1201.5374
1201.5391
1201.5383
1201.5371
1201.5374
1201.5375
)
;
    }
}


// ************************************************************************* //
