/*--------------------------------*- C++ -*----------------------------------*\
| =========                 |                                                 |
| \\      /  F ield         | OpenFOAM: The Open Source CFD Toolbox           |
|  \\    /   O peration     | Version:  v2106                                 |
|   \\  /    A nd           | Website:  www.openfoam.com                      |
|    \\/     M anipulation  |                                                 |
\*---------------------------------------------------------------------------*/
FoamFile
{
    version     2.0;
    format      ascii;
    arch        "LSB;label=32;scalar=64";
    class       volScalarField;
    location    "10";
    object      gradTy;
}
// * * * * * * * * * * * * * * * * * * * * * * * * * * * * * * * * * * * * * //

dimensions      [0 -1 0 1 0 0 0];

internalField   nonuniform List<scalar> 
500
(
1.8003876e-05
8.3070698e-05
-2.9337642e-05
-2.750667e-05
-2.3279152e-05
7.8691275e-05
7.6789971e-06
-0.00014919555
-9.3474759e-05
-6.5197863e-05
-0.00020244129
-0.00036830734
-0.00030359505
-0.00015723108
-6.9160753e-05
-0.00036080878
-0.00035172104
-0.00027681109
-0.00011728675
-3.0674482e-05
-7.1121356e-05
-6.6893835e-05
-5.227009e-05
-8.1802816e-06
5.4714236e-06
9.6671739e-07
7.070859e-05
-0.00011903969
-0.00010333396
-8.284471e-05
-4.5417824e-05
-0.00022542743
-0.00044149559
-0.00026182914
-0.00016132766
-0.00066478871
-0.00092585252
-0.00070119041
-0.00030374469
-8.565597e-05
-0.00087462025
-0.00082032777
-0.00059445231
-0.00020479334
-3.2282346e-05
-0.00017113296
-0.00015064371
-0.00010413198
-5.251234e-06
1.0875351e-05
-5.1910003e-05
3.3317451e-05
-0.0001710882
-0.00013676164
-0.00010700016
-0.00027712876
-0.00045589606
-0.0005923363
-0.00027677997
-0.00012314138
-0.0010772055
-0.0013323241
-0.00089808936
-0.00027973016
1.1805277e-05
-0.0012016621
-0.0011055301
-0.00073246719
-0.00019563541
1.1693481e-05
-0.00021581361
-0.00018605213
-0.00011338789
8.3048273e-06
2.4831376e-05
-0.00010456899
5.5440305e-06
-0.00019152506
-0.0001306821
-9.0617831e-05
-0.00044228393
-0.00057271802
-0.00058901445
-0.00013989035
4.7584501e-05
-0.0013377973
-0.0015421365
-0.00090496967
-0.00011281486
0.00018808801
-0.0014080662
-0.0012567053
-0.00077146723
-0.00016364768
6.0615757e-05
-0.00023713286
-0.00019706859
-0.00011214962
3.533321e-06
3.7359331e-05
-0.00013332837
1.4437308e-06
-0.00018128547
-9.5975248e-05
-4.8036668e-05
-0.00050398383
-0.00057591948
-0.00046578441
0.00010000474
0.00030491199
-0.0014453742
-0.0015915027
-0.00076945
0.00015898835
0.00042902288
-0.0014891169
-0.0012892437
-0.0007184205
-9.077081e-05
0.00012580384
-0.00023182263
-0.00018388405
-9.52178e-05
-3.8610336e-06
4.9165297e-05
-0.00014402446
1.2940051e-05
-0.00015095282
-4.3931638e-05
9.6188965e-06
-0.00049479931
-0.00050519184
-0.0002698573
0.00039614689
0.00060783984
-0.0014483004
-0.001533608
-0.00054696172
0.0004887818
0.00070863814
-0.0014818648
-0.0012410072
-0.00060416764
1.4592645e-05
0.00020888995
-0.00020821797
-0.00015466744
-6.7089335e-05
-8.0965371e-06
6.2442201e-05
-0.00014255945
3.3235816e-05
-0.00010760669
1.8401971e-05
7.5677627e-05
-0.00043989329
-0.00038746416
-3.0485626e-05
0.00071952694
0.00093018216
-0.0013775144
-0.0013997651
-0.00027052325
0.00084622163
0.0010049968
-0.0014096065
-0.00113468
-0.00044893871
0.00014084006
0.00030399281
-0.00017209751
-0.00011482185
-3.1660698e-05
-8.97172e-06
7.71078e-05
-0.00013256122
5.8103014e-05
-5.5505679e-05
8.6606167e-05
0.00014588519
-0.00035438296
-0.00023879964
0.00023447409
0.0010513093
0.0012542366
-0.001250155
-0.0012074003
3.9953952e-05
0.001210956
0.0013011313
-0.0012851112
-0.00098302488
-0.00026534871
0.0002781525
0.00040381845
-0.00012699818
-6.7719155e-05
8.2866317e-06
-7.6022712e-06
9.2063934e-05
-0.00011625217
8.4818729e-05
2.438865e-06
0.00015747296
0.00021708842
-0.00024765727
-6.9620722e-05
0.00051242675
0.0013773121
0.0015663192
-0.0010763966
-0.00096741526
0.00037053625
0.0015674504
0.0015833947
-0.0011160182
-0.00079404383
-6.2125713e-05
0.00041881459
0.00050192806
-7.526705e-05
-1.565159e-05
5.073766e-05
-5.0220782e-06
0.00010614664
-9.518789e-05
0.000111404
6.3808726e-05
0.00022823934
0.00028655601
-0.00012644085
0.00011205408
0.00079274384
0.0016852076
0.0018544737
-0.00086365524
-0.00068840223
0.00070949828
0.0019022727
0.0018399969
-0.0009081185
-0.00057399758
0.00015361131
0.00055650106
0.00059295688
-1.8748184e-05
3.9568485e-05
9.4095851e-05
-1.9486919e-06
0.00011839973
-7.0703948e-05
0.00013619831
0.00012623694
0.00029620415
0.00035163798
3.4078141e-06
0.00029881914
0.0010651016
0.0019631838
0.0021073512
-0.00061902755
-0.0003790188
0.0010453371
0.0022026816
0.0020600236
-0.00066731009
-0.00032920854
0.00037493947
0.0006854779
0.00067219309
4.0787465e-05
9.6221286e-05
0.00013689906
1.1158941e-06
0.00012804252
-4.41867e-05
0.00015761477
0.00018717086
0.00035853043
0.00040958487
0.00013580991
0.00048284625
0.0013186097
0.0021992908
0.0023136414
-0.00035080084
-4.9427365e-05
0.0013656437
0.0024558381
0.0022327747
-0.00040085017
-6.7229163e-05
0.00059418156
0.00079990187
0.00073501565
0.00010136042
0.00015241486
0.00017759419
3.7058906e-06
0.0001343367
-1.7264021e-05
0.00017396178
0.00024370962
0.00041210757
0.00045741314
0.00026368488
0.00065514534
0.0015412239
0.0023810004
0.0024616516
-6.9568996e-05
0.00028764969
0.001656286
0.0026481995
0.0023471607
-0.00011830291
0.00020225235
0.00080212478
0.000893127
0.00077624035
0.00016056466
0.00020587022
0.00021433215
5.1776977e-06
0.00013640772
8.0333891e-06
0.00018325632
0.00029241029
0.00045336384
0.00049171316
0.00037821356
0.00080477891
0.0017190297
0.0024945687
0.0025386599
0.00021064754
0.00061580883
0.0019004373
0.0027646787
0.0023908165
0.00016748039
0.00046643469
0.00098711062
0.00095681392
0.00078924758
0.00021533088
0.0002536802
0.00024472504
4.4387872e-06
0.00013301415
2.9179375e-05
0.00018302135
0.00032894508
0.0004778927
0.00050827075
0.00046809399
0.00091774255
0.0018348824
0.0025236719
0.0025295638
0.00047089386
0.00091320087
0.0020768232
0.0027870161
0.0023484892
0.00043891605
0.00070790457
0.0011335975
0.00097957058
0.00076473028
0.00026156475
0.00029194281
0.00026549269
-4.0841571e-07
0.00012226582
4.3427892e-05
0.00017036088
0.00034752679
0.0004797607
0.00050139826
0.00051939557
0.00097554392
0.0018657584
0.0024466553
0.0024143301
0.00068506815
0.0011491679
0.0021561795
0.0026905901
0.0021992299
0.00067106837
0.00090187558
0.0012196401
0.00094492601
0.00068916523
0.00029350264
0.0003151402
0.00027195254
-1.2433249e-05
0.00010144535
4.9323371e-05
0.00014383649
0.00034063042
0.00045091313
0.00046351489
0.00051859585
0.00095555643
0.0017792554
0.0022329092
0.0021654133
0.00081756779
0.0012781827
0.0020949205
0.0024394469
0.0019132269
0.0008268563
0.001011183
0.0012130142
0.00082948933
0.00054479793
0.00030259954
0.0003152013
0.00025760227
-3.5612022e-05
6.7807999e-05
5.0125047e-05
0.0001115406
0.00030286545
0.00038446367
0.00038912477
0.0004642188
0.0008433294
0.0015389019
0.0018486713
0.0017576333
0.00082576157
0.0012351462
0.0018311035
0.0019868086
0.0014592123
0.00085092785
0.00098031682
0.0010696592
0.00060842561
0.00032108687
0.00027613166
0.00028079276
0.00021543967
-7.0938155e-05
2.3880518e-05
5.1453506e-05
0.0001014455
0.00024751831
0.00029213107
0.00029303012
0.00037713453
0.00067123174
0.0011547129
0.0013127812
0.0012329111
0.00067997694
0.0009660053
0.0013215264
0.0013241555
0.00087358152
0.00067729651
0.00074556423
0.00075549469
0.00029761935
7.1688596e-05
0.00019818256
0.00019908162
0.00014493581
-0.00010130104
-5.6846924e-06
2.4222754e-05
5.8211299e-05
0.0001210324
0.00012724358
0.00011908599
0.00018326677
0.00032848124
0.00052359522
0.00055508991
0.00050002311
0.00032163331
0.00042518174
0.00054824198
0.00050467294
0.00024724683
0.00026925574
0.00026633614
0.00024568364
-3.4659017e-05
-0.00010765357
6.303672e-05
5.4879126e-05
2.6325521e-05
-0.00011673828
-2.2337513e-05
)
;

boundaryField
{
    wall_minX
    {
        type            calculated;
        value           nonuniform List<scalar> 
100
(
1.8003876e-05
7.8691275e-05
-0.00020244129
-0.00036080878
-7.1121356e-05
9.6671739e-07
-4.5417824e-05
-0.00066478871
-0.00087462025
-0.00017113296
-5.1910003e-05
-0.00027712876
-0.0010772055
-0.0012016621
-0.00021581361
-0.00010456899
-0.00044228393
-0.0013377973
-0.0014080662
-0.00023713286
-0.00013332837
-0.00050398383
-0.0014453742
-0.0014891169
-0.00023182263
-0.00014402446
-0.00049479931
-0.0014483004
-0.0014818648
-0.00020821797
-0.00014255945
-0.00043989329
-0.0013775144
-0.0014096065
-0.00017209751
-0.00013256122
-0.00035438296
-0.001250155
-0.0012851112
-0.00012699818
-0.00011625217
-0.00024765727
-0.0010763966
-0.0011160182
-7.526705e-05
-9.518789e-05
-0.00012644085
-0.00086365524
-0.0009081185
-1.8748184e-05
-7.0703948e-05
3.4078141e-06
-0.00061902755
-0.00066731009
4.0787465e-05
-4.41867e-05
0.00013580991
-0.00035080084
-0.00040085017
0.00010136042
-1.7264021e-05
0.00026368488
-6.9568996e-05
-0.00011830291
0.00016056466
8.0333891e-06
0.00037821356
0.00021064754
0.00016748039
0.00021533088
2.9179375e-05
0.00046809399
0.00047089386
0.00043891605
0.00026156475
4.3427892e-05
0.00051939557
0.00068506815
0.00067106837
0.00029350264
4.9323371e-05
0.00051859585
0.00081756779
0.0008268563
0.00030259954
5.0125047e-05
0.0004642188
0.00082576157
0.00085092785
0.00027613166
5.1453506e-05
0.00037713453
0.00067997694
0.00067729651
0.00019818256
2.4222754e-05
0.00018326677
0.00032163331
0.00026925574
6.303672e-05
)
;
    }
    wall_maxX
    {
        type            calculated;
        value           nonuniform List<scalar> 
100
(
-2.3279152e-05
-6.5197863e-05
-6.9160753e-05
-3.0674482e-05
5.4714236e-06
-8.284471e-05
-0.00016132766
-8.565597e-05
-3.2282346e-05
1.0875351e-05
-0.00010700016
-0.00012314138
1.1805277e-05
1.1693481e-05
2.4831376e-05
-9.0617831e-05
4.7584501e-05
0.00018808801
6.0615757e-05
3.7359331e-05
-4.8036668e-05
0.00030491199
0.00042902288
0.00012580384
4.9165297e-05
9.6188965e-06
0.00060783984
0.00070863814
0.00020888995
6.2442201e-05
7.5677627e-05
0.00093018216
0.0010049968
0.00030399281
7.71078e-05
0.00014588519
0.0012542366
0.0013011313
0.00040381845
9.2063934e-05
0.00021708842
0.0015663192
0.0015833947
0.00050192806
0.00010614664
0.00028655601
0.0018544737
0.0018399969
0.00059295688
0.00011839973
0.00035163798
0.0021073512
0.0020600236
0.00067219309
0.00012804252
0.00040958487
0.0023136414
0.0022327747
0.00073501565
0.0001343367
0.00045741314
0.0024616516
0.0023471607
0.00077624035
0.00013640772
0.00049171316
0.0025386599
0.0023908165
0.00078924758
0.00013301415
0.00050827075
0.0025295638
0.0023484892
0.00076473028
0.00012226582
0.00050139826
0.0024143301
0.0021992299
0.00068916523
0.00010144535
0.00046351489
0.0021654133
0.0019132269
0.00054479793
6.7807999e-05
0.00038912477
0.0017576333
0.0014592123
0.00032108687
2.3880518e-05
0.00029303012
0.0012329111
0.00087358152
7.1688596e-05
-5.6846924e-06
0.00011908599
0.00050002311
0.00024724683
-0.00010765357
-2.2337513e-05
)
;
    }
    wall_minY
    {
        type            calculated;
        value           uniform 0;
    }
    wall_maxY
    {
        type            calculated;
        value           uniform 0;
    }
    inlet_minZ
    {
        type            calculated;
        value           nonuniform List<scalar> 
25
(
1.8003876e-05
7.8691275e-05
-0.00020244129
-0.00036080878
-7.1121356e-05
8.3070698e-05
7.6789971e-06
-0.00036830734
-0.00035172104
-6.6893835e-05
-2.9337642e-05
-0.00014919555
-0.00030359505
-0.00027681109
-5.227009e-05
-2.750667e-05
-9.3474759e-05
-0.00015723108
-0.00011728675
-8.1802816e-06
-2.3279152e-05
-6.5197863e-05
-6.9160753e-05
-3.0674482e-05
5.4714236e-06
)
;
    }
    outlet_maxZ
    {
        type            calculated;
        value           nonuniform List<scalar> 
25
(
2.4222754e-05
0.00018326677
0.00032163331
0.00026925574
6.303672e-05
5.8211299e-05
0.00032848124
0.00042518174
0.00026633614
5.4879126e-05
0.0001210324
0.00052359522
0.00054824198
0.00024568364
2.6325521e-05
0.00012724358
0.00055508991
0.00050467294
-3.4659017e-05
-0.00011673828
0.00011908599
0.00050002311
0.00024724683
-0.00010765357
-2.2337513e-05
)
;
    }
}


// ************************************************************************* //
