/*--------------------------------*- C++ -*----------------------------------*\
| =========                 |                                                 |
| \\      /  F ield         | OpenFOAM: The Open Source CFD Toolbox           |
|  \\    /   O peration     | Version:  v2106                                 |
|   \\  /    A nd           | Website:  www.openfoam.com                      |
|    \\/     M anipulation  |                                                 |
\*---------------------------------------------------------------------------*/
FoamFile
{
    version     2.0;
    format      ascii;
    arch        "LSB;label=32;scalar=64";
    class       volScalarField;
    location    "10";
    object      gradTy;
}
// * * * * * * * * * * * * * * * * * * * * * * * * * * * * * * * * * * * * * //

dimensions      [0 -1 0 1 0 0 0];

internalField   nonuniform List<scalar> 
500
(
3.1668551e-05
0.00014840256
-4.3941925e-05
-3.8126497e-05
-3.1260573e-05
0.00015041514
3.6999424e-05
-0.00022206522
-0.00012044722
-7.4424586e-05
-0.00032263199
-0.00060242558
-0.00048007863
-0.00023288628
-8.9210239e-05
-0.000603178
-0.00058415598
-0.00045553737
-0.00019328758
-5.1988176e-05
-0.00011842247
-0.00011155654
-8.7740711e-05
-1.5772516e-05
6.4588915e-06
7.0239797e-06
0.00013741296
-0.00018606087
-0.0001546527
-0.00012394784
-2.7670589e-05
-0.00031729786
-0.00066700148
-0.00035086982
-0.00019335298
-0.001070195
-0.0015082935
-0.001103767
-0.00043399854
-7.8028223e-05
-0.0014556979
-0.0013625284
-0.0009820494
-0.00033678962
-5.0229125e-05
-0.00028247296
-0.00025176811
-0.00017746174
-1.4454566e-05
1.357859e-05
-8.5114081e-05
7.8867316e-05
-0.00026340176
-0.00020012058
-0.00015953907
-0.00040979029
-0.00067722181
-0.00087800743
-0.00033256129
-9.8146251e-05
-0.0017371053
-0.0021555872
-0.0013924448
-0.0003554151
0.00011752728
-0.0019789793
-0.0018231853
-0.0011991182
-0.00031321324
3.4598849e-05
-0.0003493288
-0.00030874729
-0.0001930521
6.5476305e-06
3.8822621e-05
-0.00017497697
3.7221518e-05
-0.00028584113
-0.00017774079
-0.00012421034
-0.00067144805
-0.00083774428
-0.00082390799
-5.6893608e-05
0.00022239102
-0.0021330905
-0.002455534
-0.0013522398
-3.4177717e-05
0.00044336617
-0.0022850406
-0.0020425944
-0.0012387416
-0.00024698844
0.00013041628
-0.00037395513
-0.00032042469
-0.00018776539
-2.0620997e-06
6.3837763e-05
-0.00022104549
3.7143144e-05
-0.00025494827
-0.00010627092
-4.3319701e-05
-0.00074727396
-0.00079812812
-0.00056287376
0.00039286186
0.00068929496
-0.0022554136
-0.0024705347
-0.0010644236
0.00046499897
0.00087583529
-0.0023673527
-0.0020499099
-0.001115184
-0.00010965093
0.00025298093
-0.0003517632
-0.00028881199
-0.00015414114
-1.4921103e-05
8.7613437e-05
-0.00023466845
6.375828e-05
-0.00019026119
-6.4894664e-06
6.2415372e-05
-0.00069805524
-0.00063144436
-0.00018133511
0.00093141305
0.001227431
-0.0021925334
-0.002297905
-0.00062967597
0.0010572634
0.0013678524
-0.0022931745
-0.0019141596
-0.00088440838
8.3368763e-05
0.00040462048
-0.00029779577
-0.00022889093
-0.00010045049
-2.183161e-05
0.00011371732
-0.0002271851
0.00010438256
-0.0001054963
0.0001080441
0.00018017366
-0.00057183836
-0.00038930515
0.00026437784
0.0015035843
0.0017871928
-0.002004666
-0.0019991737
-0.00011177658
0.0016851549
0.0018786176
-0.0021083895
-0.0016798846
-0.00058557454
0.00031050963
0.00057497988
-0.00022318947
-0.00015105991
-3.4117112e-05
-2.2084771e-05
0.00014219639
-0.0002055858
0.00015114089
-9.1598469e-06
0.00022866579
0.00030170825
-0.00039815392
-0.00010351498
0.00073888852
0.0020732942
0.0023351595
-0.0017277828
-0.0016114955
0.00044902631
0.0023097608
0.0023767858
-0.0018409018
-0.0013745996
-0.00024463086
0.00055315986
0.00075094075
-0.00013526278
-6.2220327e-05
3.9314079e-05
-1.7537009e-05
0.000171168
-0.00017416118
0.00019906087
9.2971994e-05
0.00034924836
0.00042110051
-0.00019566219
0.00020503757
0.0012175814
0.0026144237
0.0028466648
-0.0013849641
-0.0011596828
0.0010244221
0.002902339
0.0028381189
-0.0015092777
-0.001017085
0.00011980569
0.00079661187
0.00092082223
-3.9156052e-05
3.2696097e-05
0.00011567134
-1.0117339e-05
0.00019847825
-0.00013585187
0.00024469422
0.00019639017
0.00046489704
0.00053359472
2.2452077e-05
0.00052081513
0.0016810235
0.0031060355
0.0033018501
-0.00099338645
-0.00066308225
0.0015918339
0.0034397597
0.0032430871
-0.0011279626
-0.00062215576
0.000492864
0.0010290975
0.0010750456
6.1102503e-05
0.00012980019
0.00019164562
-1.3148745e-06
0.00022227769
-9.3044451e-05
0.00028534173
0.00029709439
0.00057128381
0.00063500187
0.00024536892
0.00083057718
0.0021121256
0.0035299888
0.0036836284
-0.00056824342
-0.00013933031
0.0021311682
0.0039020479
0.0035751272
-0.00071026687
-0.00020340566
0.00086123599
0.0012405534
0.0012055537
0.00016194143
0.00022565949
0.00026436788
7.7123853e-06
0.00024103472
-4.8049116e-05
0.00031859751
0.00039117206
0.00066427716
0.00072135616
0.00046277186
0.0011216036
0.0024945744
0.0038696227
0.0039764948
-0.00012509411
0.00039342536
0.002622925
0.0042708755
0.003819339
-0.00027021143
0.00022506472
0.001211709
0.0014214788
0.0013048997
0.0002598188
0.00031689781
0.0003310669
1.5873507e-05
0.00025334754
-3.4368554e-06
0.00034200952
0.0004744836
0.00073965025
0.00078862873
0.00066349818
0.0013803789
0.0028116559
0.0041087035
0.0041655035
0.00031839371
0.00091485481
0.0030467183
0.004528259
0.0039612022
0.00017605942
0.00064727711
0.001529907
0.0015617609
0.0013651442
0.00035087945
0.00039985793
0.00038874608
2.1820038e-05
0.00025766823
3.7675382e-05
0.00035272881
0.00054227553
0.00079268774
0.00083233
0.00083424525
0.0015911455
0.0030447729
0.0042299713
0.0042348113
0.00074059913
0.0014005375
0.003379425
0.0046547921
0.0039847879
0.00060870368
0.0010437854
0.001798742
0.0016491483
0.0013763773
0.00043055782
0.00047020007
0.00043378446
2.3530638e-05
0.00025193714
7.1464024e-05
0.00034714401
0.0005885361
0.00081748278
0.00084680676
0.00095825561
0.0017338637
0.0031708575
0.0042124825
0.0041650711
0.0011133519
0.0018188601
0.0035919707
0.0046265578
0.0038697789
0.0010017235
0.0013891295
0.0019959371
0.0016669377
0.0013246099
0.00049295411
0.00052227809
0.00046134652
1.7758785e-05
0.00023312797
9.3870048e-05
0.00032101383
0.00060500997
0.00080577085
0.00082413272
0.0010150161
0.001781726
0.0031577879
0.0040268677
0.0039290706
0.0013981113
0.0021252469
0.0036432531
0.0044096081
0.0035866522
0.0013185084
0.0016471926
0.0020897911
0.0015905917
0.0011892033
0.00052973878
0.00054810065
0.00046454067
-5.3658719e-07
0.00019694839
0.00010304704
0.00027256051
0.00058087909
0.00074613735
0.00075363809
0.00098508753
0.0017018356
0.0029590647
0.0036298962
0.0034880649
0.0015420433
0.0022524086
0.0034701039
0.0039521059
0.0030917604
0.0015040137
0.0017631522
0.0020330139
0.0013848087
0.00094280675
0.00052832488
0.00053582562
0.00043377068
-3.7738076e-05
0.00013910273
0.00010431418
0.00021477967
0.00050905564
0.0006294401
0.00062845072
0.00086749161
0.0014746038
0.0025232735
0.0029748416
0.0028086509
0.0014821394
0.0021041301
0.0029823772
0.0031864808
0.0023403111
0.0014756655
0.0016547581
0.0017610429
0.001012692
0.00056980986
0.0004696976
0.00046870822
0.00035890381
-9.54049e-05
6.3649072e-05
0.00010401074
0.00018758581
0.00040829872
0.00047237063
0.0004698473
0.00068979678
0.0011462288
0.001865532
0.0020910052
0.0019549928
0.0011751008
0.001602278
0.0021198772
0.0021044988
0.0013915668
0.0011367198
0.0012290427
0.0012261807
0.00050073229
0.00015387792
0.00033026644
0.00032774311
0.00023959156
-0.00014754484
8.3553042e-06
5.0227127e-05
0.0001023565
0.00019513857
0.00020320719
0.00019020332
0.00032737042
0.00054473758
0.00083061941
0.00087448248
0.00078787078
0.00053731774
0.00068859379
0.00086706264
0.00079644593
0.00039377991
0.00044140519
0.00043400232
0.00039865657
-3.9280413e-05
-0.00015056485
0.00010407812
9.1074242e-05
4.6336989e-05
-0.00017736977
-2.7852637e-05
)
;

boundaryField
{
    wall_minX
    {
        type            calculated;
        value           nonuniform List<scalar> 
100
(
3.1668551e-05
0.00015041514
-0.00032263199
-0.000603178
-0.00011842247
7.0239797e-06
-2.7670589e-05
-0.001070195
-0.0014556979
-0.00028247296
-8.5114081e-05
-0.00040979029
-0.0017371053
-0.0019789793
-0.0003493288
-0.00017497697
-0.00067144805
-0.0021330905
-0.0022850406
-0.00037395513
-0.00022104549
-0.00074727396
-0.0022554136
-0.0023673527
-0.0003517632
-0.00023466845
-0.00069805524
-0.0021925334
-0.0022931745
-0.00029779577
-0.0002271851
-0.00057183836
-0.002004666
-0.0021083895
-0.00022318947
-0.0002055858
-0.00039815392
-0.0017277828
-0.0018409018
-0.00013526278
-0.00017416118
-0.00019566219
-0.0013849641
-0.0015092777
-3.9156052e-05
-0.00013585187
2.2452077e-05
-0.00099338645
-0.0011279626
6.1102503e-05
-9.3044451e-05
0.00024536892
-0.00056824342
-0.00071026687
0.00016194143
-4.8049116e-05
0.00046277186
-0.00012509411
-0.00027021143
0.0002598188
-3.4368554e-06
0.00066349818
0.00031839371
0.00017605942
0.00035087945
3.7675382e-05
0.00083424525
0.00074059913
0.00060870368
0.00043055782
7.1464024e-05
0.00095825561
0.0011133519
0.0010017235
0.00049295411
9.3870048e-05
0.0010150161
0.0013981113
0.0013185084
0.00052973878
0.00010304704
0.00098508753
0.0015420433
0.0015040137
0.00052832488
0.00010431418
0.00086749161
0.0014821394
0.0014756655
0.0004696976
0.00010401074
0.00068979678
0.0011751008
0.0011367198
0.00033026644
5.0227127e-05
0.00032737042
0.00053731774
0.00044140519
0.00010407812
)
;
    }
    wall_maxX
    {
        type            calculated;
        value           nonuniform List<scalar> 
100
(
-3.1260573e-05
-7.4424586e-05
-8.9210239e-05
-5.1988176e-05
6.4588915e-06
-0.00012394784
-0.00019335298
-7.8028223e-05
-5.0229125e-05
1.357859e-05
-0.00015953907
-9.8146251e-05
0.00011752728
3.4598849e-05
3.8822621e-05
-0.00012421034
0.00022239102
0.00044336617
0.00013041628
6.3837763e-05
-4.3319701e-05
0.00068929496
0.00087583529
0.00025298093
8.7613437e-05
6.2415372e-05
0.001227431
0.0013678524
0.00040462048
0.00011371732
0.00018017366
0.0017871928
0.0018786176
0.00057497988
0.00014219639
0.00030170825
0.0023351595
0.0023767858
0.00075094075
0.000171168
0.00042110051
0.0028466648
0.0028381189
0.00092082223
0.00019847825
0.00053359472
0.0033018501
0.0032430871
0.0010750456
0.00022227769
0.00063500187
0.0036836284
0.0035751272
0.0012055537
0.00024103472
0.00072135616
0.0039764948
0.003819339
0.0013048997
0.00025334754
0.00078862873
0.0041655035
0.0039612022
0.0013651442
0.00025766823
0.00083233
0.0042348113
0.0039847879
0.0013763773
0.00025193714
0.00084680676
0.0041650711
0.0038697789
0.0013246099
0.00023312797
0.00082413272
0.0039290706
0.0035866522
0.0011892033
0.00019694839
0.00075363809
0.0034880649
0.0030917604
0.00094280675
0.00013910273
0.00062845072
0.0028086509
0.0023403111
0.00056980986
6.3649072e-05
0.0004698473
0.0019549928
0.0013915668
0.00015387792
8.3553042e-06
0.00019020332
0.00078787078
0.00039377991
-0.00015056485
-2.7852637e-05
)
;
    }
    wall_minY
    {
        type            calculated;
        value           uniform 0;
    }
    wall_maxY
    {
        type            calculated;
        value           uniform 0;
    }
    inlet_minZ
    {
        type            calculated;
        value           nonuniform List<scalar> 
25
(
3.1668551e-05
0.00015041514
-0.00032263199
-0.000603178
-0.00011842247
0.00014840256
3.6999424e-05
-0.00060242558
-0.00058415598
-0.00011155654
-4.3941925e-05
-0.00022206522
-0.00048007863
-0.00045553737
-8.7740711e-05
-3.8126497e-05
-0.00012044722
-0.00023288628
-0.00019328758
-1.5772516e-05
-3.1260573e-05
-7.4424586e-05
-8.9210239e-05
-5.1988176e-05
6.4588915e-06
)
;
    }
    outlet_maxZ
    {
        type            calculated;
        value           nonuniform List<scalar> 
25
(
5.0227127e-05
0.00032737042
0.00053731774
0.00044140519
0.00010407812
0.0001023565
0.00054473758
0.00068859379
0.00043400232
9.1074242e-05
0.00019513857
0.00083061941
0.00086706264
0.00039865657
4.6336989e-05
0.00020320719
0.00087448248
0.00079644593
-3.9280413e-05
-0.00017736977
0.00019020332
0.00078787078
0.00039377991
-0.00015056485
-2.7852637e-05
)
;
    }
}


// ************************************************************************* //
