/*--------------------------------*- C++ -*----------------------------------*\
| =========                 |                                                 |
| \\      /  F ield         | OpenFOAM: The Open Source CFD Toolbox           |
|  \\    /   O peration     | Version:  v2106                                 |
|   \\  /    A nd           | Website:  www.openfoam.com                      |
|    \\/     M anipulation  |                                                 |
\*---------------------------------------------------------------------------*/
FoamFile
{
    version     2.0;
    format      ascii;
    arch        "LSB;label=32;scalar=64";
    class       volScalarField;
    location    "10";
    object      T;
}
// * * * * * * * * * * * * * * * * * * * * * * * * * * * * * * * * * * * * * //

dimensions      [0 0 0 1 0 0 0];

internalField   nonuniform List<scalar> 
500
(
276.2229
276.2229
276.2229
276.22289
276.22289
276.2229
276.2229
276.2229
276.22289
276.22289
276.2229
276.2229
276.2229
276.22289
276.22288
276.22289
276.22289
276.22289
276.22288
276.22288
276.22289
276.22289
276.22288
276.22288
276.22288
282.76536
282.76536
282.76536
282.76533
282.76532
282.76536
282.76536
282.76535
282.76533
282.76532
282.76536
282.76535
282.76534
282.76532
282.76532
282.76533
282.76533
282.76532
282.76531
282.76531
282.76532
282.76532
282.76532
282.76531
282.76531
289.59625
289.59625
289.59624
289.5962
289.59619
289.59625
289.59625
289.59623
289.5962
289.59619
289.59624
289.59623
289.59622
289.59619
289.59619
289.5962
289.5962
289.59619
289.59619
289.59619
289.59619
289.59619
289.59619
289.59619
289.59619
296.90269
296.90268
296.90267
296.90263
296.90261
296.90268
296.90268
296.90266
296.90262
296.90261
296.90267
296.90266
296.90264
296.90262
296.90261
296.90263
296.90262
296.90262
296.90261
296.90261
296.90261
296.90261
296.90261
296.90261
296.90262
304.86386
304.86385
304.86384
304.8638
304.86378
304.86385
304.86385
304.86383
304.86379
304.86378
304.86384
304.86383
304.86382
304.8638
304.86379
304.8638
304.86379
304.8638
304.8638
304.8638
304.86378
304.86378
304.86379
304.8638
304.8638
313.64767
313.64766
313.64765
313.6476
313.64759
313.64766
313.64766
313.64764
313.6476
313.64759
313.64765
313.64764
313.64763
313.64761
313.64761
313.6476
313.6476
313.64761
313.64762
313.64762
313.64759
313.64759
313.64761
313.64762
313.64762
323.40706
323.40705
323.40704
323.407
323.40699
323.40705
323.40705
323.40704
323.407
323.40699
323.40704
323.40704
323.40704
323.40702
323.40702
323.407
323.407
323.40702
323.40703
323.40703
323.40699
323.40699
323.40702
323.40703
323.40703
334.27635
334.27634
334.27633
334.27629
334.27628
334.27634
334.27634
334.27633
334.27629
334.27629
334.27633
334.27633
334.27634
334.27633
334.27633
334.27629
334.27629
334.27633
334.27634
334.27634
334.27628
334.27629
334.27633
334.27634
334.27635
346.36736
346.36735
346.36735
346.36731
346.3673
346.36735
346.36735
346.36735
346.36732
346.36731
346.36735
346.36735
346.36737
346.36736
346.36736
346.36731
346.36732
346.36736
346.36738
346.36738
346.3673
346.36731
346.36736
346.36738
346.36738
359.76573
359.76572
359.76572
359.76569
359.76569
359.76572
359.76573
359.76573
359.7657
359.7657
359.76572
359.76573
359.76575
359.76575
359.76576
359.76569
359.7657
359.76575
359.76578
359.76578
359.76569
359.7657
359.76576
359.76578
359.76578
374.52744
374.52743
374.52744
374.52741
374.52741
374.52743
374.52744
374.52744
374.52742
374.52743
374.52744
374.52744
374.52748
374.52749
374.52749
374.52741
374.52742
374.52749
374.52751
374.52751
374.52741
374.52743
374.52749
374.52751
374.52752
390.67581
390.6758
390.67581
390.67579
390.67579
390.6758
390.67581
390.67582
390.67581
390.67582
390.67581
390.67582
390.67586
390.67588
390.67589
390.67579
390.67581
390.67588
390.67591
390.67591
390.67579
390.67582
390.67589
390.67591
390.67592
408.19923
408.19923
408.19924
408.19922
408.19923
408.19923
408.19924
408.19925
408.19925
408.19926
408.19924
408.19925
408.1993
408.19932
408.19933
408.19922
408.19925
408.19932
408.19935
408.19935
408.19923
408.19926
408.19933
408.19935
408.19936
427.0498
427.0498
427.04982
427.04981
427.04983
427.0498
427.04982
427.04984
427.04984
427.04986
427.04982
427.04984
427.04989
427.04991
427.04993
427.04981
427.04984
427.04991
427.04995
427.04995
427.04983
427.04986
427.04993
427.04995
427.04996
447.14313
447.14313
447.14314
447.14315
447.14316
447.14313
447.14314
447.14316
447.14317
447.14319
447.14314
447.14316
447.14322
447.14325
447.14326
447.14315
447.14317
447.14325
447.14329
447.14329
447.14316
447.14319
447.14326
447.14329
447.14329
468.35931
468.35931
468.35933
468.35934
468.35936
468.35931
468.35932
468.35935
468.35937
468.35939
468.35933
468.35935
468.3594
468.35944
468.35945
468.35934
468.35937
468.35944
468.35948
468.35947
468.35936
468.35939
468.35945
468.35947
468.35948
490.54539
490.5454
490.54541
490.54543
490.54545
490.5454
490.54541
490.54543
490.54546
490.54548
490.54541
490.54543
490.54549
490.54552
490.54553
490.54543
490.54546
490.54552
490.54555
490.54555
490.54545
490.54548
490.54553
490.54555
490.54556
513.51909
513.51909
513.51911
513.51912
513.51914
513.51909
513.5191
513.51912
513.51915
513.51916
513.51911
513.51912
513.51917
513.5192
513.51921
513.51912
513.51915
513.5192
513.51923
513.51922
513.51914
513.51916
513.51921
513.51922
513.51922
537.07377
537.07377
537.07378
537.0738
537.07381
537.07377
537.07378
537.0738
537.07382
537.07383
537.07378
537.0738
537.07383
537.07385
537.07386
537.0738
537.07382
537.07385
537.07387
537.07386
537.07381
537.07383
537.07386
537.07386
537.07386
560.98459
560.98459
560.9846
560.98461
560.98461
560.98459
560.9846
560.98461
560.98461
560.98462
560.9846
560.98461
560.98462
560.98463
560.98463
560.98461
560.98461
560.98463
560.98463
560.98463
560.98461
560.98462
560.98463
560.98463
560.98463
)
;

boundaryField
{
    wall_minX
    {
        type            zeroGradient;
    }
    wall_maxX
    {
        type            zeroGradient;
    }
    wall_minY
    {
        type            zeroGradient;
    }
    wall_maxY
    {
        type            zeroGradient;
    }
    inlet_minZ
    {
        type            fixedValue;
        value           uniform 273;
    }
    outlet_maxZ
    {
        type            fixedValue;
        value           uniform 573;
    }
}


// ************************************************************************* //
