/*--------------------------------*- C++ -*----------------------------------*\
| =========                 |                                                 |
| \\      /  F ield         | OpenFOAM: The Open Source CFD Toolbox           |
|  \\    /   O peration     | Version:  v2106                                 |
|   \\  /    A nd           | Website:  www.openfoam.com                      |
|    \\/     M anipulation  |                                                 |
\*---------------------------------------------------------------------------*/
FoamFile
{
    version     2.0;
    format      ascii;
    arch        "LSB;label=32;scalar=64";
    class       volScalarField;
    location    "10";
    object      T;
}
// * * * * * * * * * * * * * * * * * * * * * * * * * * * * * * * * * * * * * //

dimensions      [0 0 0 1 0 0 0];

internalField   nonuniform List<scalar> 
500
(
277.29805
277.29805
277.29806
277.29804
277.29803
277.29805
277.29806
277.29805
277.29804
277.29803
277.29806
277.29805
277.29805
277.29804
277.29803
277.29804
277.29804
277.29804
277.29803
277.29803
277.29803
277.29803
277.29803
277.29803
277.29803
285.97035
285.97036
285.97035
285.97031
285.9703
285.97036
285.97036
285.97034
285.9703
285.97029
285.97035
285.97034
285.97033
285.9703
285.97029
285.97031
285.9703
285.9703
285.97029
285.97028
285.9703
285.97029
285.97029
285.97028
285.97029
294.86962
294.86962
294.8696
294.86955
294.86953
294.86962
294.86962
294.86959
294.86953
294.86952
294.8696
294.86959
294.86957
294.86953
294.86952
294.86955
294.86953
294.86953
294.86952
294.86952
294.86953
294.86952
294.86952
294.86952
294.86952
304.14178
304.14177
304.14175
304.14168
304.14166
304.14177
304.14177
304.14174
304.14167
304.14165
304.14175
304.14174
304.14172
304.14168
304.14167
304.14168
304.14167
304.14168
304.14167
304.14167
304.14166
304.14165
304.14167
304.14167
304.14168
313.92475
313.92474
313.92472
313.92465
313.92463
313.92474
313.92474
313.9247
313.92464
313.92462
313.92472
313.9247
313.9247
313.92466
313.92465
313.92465
313.92464
313.92466
313.92466
313.92466
313.92463
313.92462
313.92465
313.92466
313.92466
324.34536
324.34534
324.34533
324.34525
324.34524
324.34534
324.34535
324.34532
324.34525
324.34524
324.34533
324.34532
324.34532
324.34529
324.34528
324.34525
324.34525
324.34529
324.3453
324.34529
324.34524
324.34524
324.34528
324.34529
324.3453
335.51635
335.51634
335.51633
335.51626
335.51624
335.51634
335.51634
335.51632
335.51626
335.51626
335.51633
335.51632
335.51634
335.51632
335.51632
335.51626
335.51626
335.51632
335.51633
335.51633
335.51624
335.51626
335.51632
335.51633
335.51634
347.53365
347.53364
347.53364
347.53357
347.53356
347.53364
347.53365
347.53364
347.53359
347.53358
347.53364
347.53364
347.53367
347.53365
347.53366
347.53357
347.53359
347.53365
347.53368
347.53368
347.53356
347.53358
347.53366
347.53368
347.53369
360.47381
360.4738
360.4738
360.47374
360.47374
360.4738
360.47381
360.47381
360.47377
360.47377
360.4738
360.47381
360.47385
360.47385
360.47386
360.47374
360.47377
360.47385
360.47388
360.47388
360.47374
360.47377
360.47386
360.47388
360.47389
374.39183
374.39182
374.39183
374.39178
374.39179
374.39182
374.39184
374.39184
374.39181
374.39182
374.39183
374.39184
374.3919
374.39191
374.39192
374.39178
374.39181
374.39191
374.39195
374.39195
374.39179
374.39182
374.39192
374.39195
374.39196
389.31939
389.31939
389.3194
389.31936
389.31937
389.31939
389.3194
389.31942
389.3194
389.31941
389.3194
389.31942
389.31949
389.3195
389.31952
389.31936
389.3194
389.3195
389.31955
389.31955
389.31937
389.31941
389.31952
389.31955
389.31957
405.26359
405.26358
405.26361
405.26358
405.26359
405.26358
405.2636
405.26363
405.26362
405.26364
405.26361
405.26363
405.26371
405.26373
405.26375
405.26358
405.26362
405.26373
405.26379
405.26379
405.26359
405.26364
405.26375
405.26379
405.26381
422.20622
422.20622
422.20624
422.20623
422.20625
422.20622
422.20624
422.20627
422.20627
422.2063
422.20624
422.20627
422.20636
422.20639
422.20642
422.20623
422.20627
422.20639
422.20645
422.20646
422.20625
422.2063
422.20642
422.20646
422.20647
440.10375
440.10375
440.10378
440.10378
440.10381
440.10375
440.10377
440.10381
440.10383
440.10386
440.10378
440.10381
440.1039
440.10395
440.10397
440.10378
440.10383
440.10395
440.10401
440.10401
440.10381
440.10386
440.10397
440.10401
440.10403
458.88796
458.88797
458.888
458.88801
458.88804
458.88797
458.88799
458.88804
458.88806
458.88809
458.888
458.88804
458.88813
458.88818
458.88821
458.88801
458.88806
458.88818
458.88825
458.88825
458.88804
458.88809
458.88821
458.88825
458.88826
478.46734
478.46734
478.46738
478.4674
478.46743
478.46734
478.46736
478.46741
478.46745
478.46748
478.46738
478.46741
478.4675
478.46756
478.46759
478.4674
478.46745
478.46756
478.46762
478.46762
478.46743
478.46748
478.46759
478.46762
478.46764
498.72912
498.72912
498.72916
498.72919
498.72922
498.72912
498.72914
498.72919
498.72923
498.72926
498.72916
498.72919
498.72928
498.72933
498.72936
498.72919
498.72923
498.72933
498.72939
498.72939
498.72922
498.72926
498.72936
498.72939
498.7294
519.54211
519.54212
519.54215
519.54218
519.54221
519.54212
519.54213
519.54218
519.54222
519.54225
519.54215
519.54218
519.54225
519.5423
519.54232
519.54218
519.54222
519.5423
519.54234
519.54234
519.54221
519.54225
519.54232
519.54234
519.54234
540.76007
540.76008
540.7601
540.76012
540.76014
540.76008
540.76009
540.76012
540.76015
540.76017
540.7601
540.76012
540.76017
540.76021
540.76022
540.76012
540.76015
540.76021
540.76024
540.76023
540.76014
540.76017
540.76022
540.76023
540.76023
562.22559
562.22559
562.2256
562.22561
562.22562
562.22559
562.2256
562.22561
562.22563
562.22563
562.2256
562.22561
562.22564
562.22565
562.22565
562.22561
562.22563
562.22565
562.22566
562.22565
562.22562
562.22563
562.22565
562.22565
562.22565
)
;

boundaryField
{
    wall_minX
    {
        type            zeroGradient;
    }
    wall_maxX
    {
        type            zeroGradient;
    }
    wall_minY
    {
        type            zeroGradient;
    }
    wall_maxY
    {
        type            zeroGradient;
    }
    inlet_minZ
    {
        type            fixedValue;
        value           uniform 273;
    }
    outlet_maxZ
    {
        type            fixedValue;
        value           uniform 573;
    }
}


// ************************************************************************* //
