/*--------------------------------*- C++ -*----------------------------------*\
| =========                 |                                                 |
| \\      /  F ield         | OpenFOAM: The Open Source CFD Toolbox           |
|  \\    /   O peration     | Version:  v2106                                 |
|   \\  /    A nd           | Website:  www.openfoam.com                      |
|    \\/     M anipulation  |                                                 |
\*---------------------------------------------------------------------------*/
FoamFile
{
    version     2.0;
    format      ascii;
    arch        "LSB;label=32;scalar=64";
    class       volVectorField;
    location    "10";
    object      Tmode_grad3;
}
// * * * * * * * * * * * * * * * * * * * * * * * * * * * * * * * * * * * * * //

dimensions      [0 -1 0 0 0 0 0];

internalField   nonuniform List<vector> 
500
(
(-7.5034357e-08 -7.5034381e-08 -0.37700894)
(-2.2638091e-07 -9.6295088e-08 -0.37700936)
(-1.089449e-07 -7.5938651e-08 -0.37700974)
(9.838362e-09 -7.5903683e-08 -0.37700978)
(3.2984777e-09 -6.8650757e-08 -0.37700978)
(-9.6295163e-08 -2.2638094e-07 -0.37700936)
(-2.2774358e-07 -2.2774361e-07 -0.37700984)
(-7.8357594e-08 -2.0684975e-07 -0.37701017)
(2.0770299e-08 -2.2217012e-07 -0.37701021)
(1.0551373e-08 -2.0674209e-07 -0.37701017)
(-7.5938697e-08 -1.0894485e-07 -0.37700974)
(-2.0684972e-07 -7.8357594e-08 -0.37701017)
(-1.033714e-07 -1.033714e-07 -0.37701055)
(9.9460161e-09 -1.4833969e-07 -0.37701065)
(1.3583827e-08 -1.6039068e-07 -0.37701059)
(-7.5903659e-08 9.8383849e-09 -0.37700978)
(-2.2217013e-07 2.0770297e-08 -0.37701021)
(-1.4833969e-07 9.9460151e-09 -0.37701065)
(-3.6248973e-08 -3.6248975e-08 -0.37701084)
(2.5173808e-09 -5.4908086e-08 -0.37701082)
(-6.8650756e-08 3.298469e-09 -0.37700978)
(-2.0674209e-07 1.0551372e-08 -0.37701017)
(-1.6039067e-07 1.3583828e-08 -0.37701059)
(-5.4908085e-08 2.5173807e-09 -0.37701082)
(1.1444193e-09 1.1444192e-09 -0.3770108)
(-1.9522544e-07 -1.9522544e-07 -0.38192149)
(-5.2720895e-07 -1.9098808e-07 -0.38192183)
(-3.0823604e-07 -1.9831746e-07 -0.38192205)
(-9.1820664e-08 -2.0165154e-07 -0.38192235)
(-1.1970272e-08 -1.8070446e-07 -0.38192245)
(-1.9098808e-07 -5.2720895e-07 -0.38192183)
(-5.3184698e-07 -5.3184698e-07 -0.38192208)
(-3.2423124e-07 -5.8692385e-07 -0.38192247)
(-6.5401157e-08 -6.2829918e-07 -0.38192277)
(8.9768132e-09 -5.8234582e-07 -0.38192282)
(-1.9831746e-07 -3.0823604e-07 -0.38192205)
(-5.8692385e-07 -3.2423124e-07 -0.38192247)
(-4.0468824e-07 -4.0468825e-07 -0.38192293)
(-8.7242635e-08 -4.9444948e-07 -0.38192325)
(1.8665304e-08 -4.9367574e-07 -0.38192327)
(-2.0165154e-07 -9.1820667e-08 -0.38192235)
(-6.2829918e-07 -6.5401165e-08 -0.38192277)
(-4.9444948e-07 -8.7242638e-08 -0.38192325)
(-1.5438866e-07 -1.5438866e-07 -0.38192356)
(9.4926385e-09 -1.5146502e-07 -0.38192352)
(-1.8070446e-07 -1.1970273e-08 -0.38192245)
(-5.8234582e-07 8.9768092e-09 -0.38192282)
(-4.9367574e-07 1.8665305e-08 -0.38192327)
(-1.5146502e-07 9.4926392e-09 -0.38192352)
(2.0614394e-08 2.0614395e-08 -0.38192344)
(-3.070269e-07 -3.070269e-07 -0.38938816)
(-7.9269104e-07 -2.6402986e-07 -0.38938852)
(-6.2085089e-07 -3.5449453e-07 -0.38938876)
(-3.9075002e-07 -3.5946876e-07 -0.38938937)
(-6.8033206e-08 -3.1666583e-07 -0.3893896)
(-2.6402986e-07 -7.9269104e-07 -0.38938852)
(-8.6389248e-07 -8.6389248e-07 -0.38938873)
(-7.6400924e-07 -1.088681e-06 -0.38938929)
(-3.3400697e-07 -1.1291864e-06 -0.3893899)
(-2.5230277e-08 -1.023283e-06 -0.38939006)
(-3.5449453e-07 -6.208509e-07 -0.38938876)
(-1.088681e-06 -7.6400924e-07 -0.38938929)
(-8.8614485e-07 -8.8614485e-07 -0.38938992)
(-3.2535205e-07 -9.3782504e-07 -0.38939048)
(2.5690963e-09 -8.5730195e-07 -0.38939055)
(-3.5946876e-07 -3.9075003e-07 -0.38938937)
(-1.1291864e-06 -3.3400698e-07 -0.3893899)
(-9.3782504e-07 -3.2535205e-07 -0.38939048)
(-3.0516408e-07 -3.0516408e-07 -0.38939089)
(2.8451781e-08 -2.2703148e-07 -0.3893908)
(-3.1666583e-07 -6.8033208e-08 -0.3893896)
(-1.023283e-06 -2.523028e-08 -0.38939006)
(-8.5730195e-07 2.5690963e-09 -0.38939055)
(-2.2703148e-07 2.8451781e-08 -0.3893908)
(5.4657493e-08 5.4657492e-08 -0.38939068)
(-4.3156992e-07 -4.3156992e-07 -0.39669131)
(-1.126736e-06 -3.3221429e-07 -0.39669173)
(-1.1607542e-06 -5.5100651e-07 -0.39669208)
(-9.2740776e-07 -5.5670046e-07 -0.39669307)
(-1.6402309e-07 -4.8792485e-07 -0.39669343)
(-3.3221429e-07 -1.126736e-06 -0.39669173)
(-1.3058909e-06 -1.3058909e-06 -0.39669194)
(-1.4974835e-06 -1.7461627e-06 -0.39669272)
(-8.3278527e-07 -1.7350538e-06 -0.3966937)
(-9.5247479e-08 -1.5363871e-06 -0.39669397)
(-5.5100651e-07 -1.1607542e-06 -0.39669208)
(-1.7461627e-06 -1.4974835e-06 -0.39669272)
(-1.5899172e-06 -1.5899172e-06 -0.39669351)
(-7.1763216e-07 -1.4778875e-06 -0.39669432)
(-3.1578611e-08 -1.2369815e-06 -0.39669446)
(-5.5670046e-07 -9.2740776e-07 -0.39669307)
(-1.7350538e-06 -8.3278527e-07 -0.3966937)
(-1.4778875e-06 -7.1763216e-07 -0.39669432)
(-4.7984957e-07 -4.7984956e-07 -0.39669482)
(6.5356576e-08 -2.8199348e-07 -0.3966947)
(-4.8792485e-07 -1.6402309e-07 -0.39669343)
(-1.5363871e-06 -9.5247479e-08 -0.39669397)
(-1.2369815e-06 -3.1578611e-08 -0.39669446)
(-2.8199348e-07 6.5356577e-08 -0.3966947)
(1.0032545e-07 1.0032545e-07 -0.39669455)
(-5.8712774e-07 -5.8712774e-07 -0.39907322)
(-1.5574393e-06 -4.0077043e-07 -0.39907372)
(-1.9536403e-06 -7.8415344e-07 -0.39907413)
(-1.7370266e-06 -7.8172732e-07 -0.3990755)
(-3.0675596e-07 -6.8028298e-07 -0.39907598)
(-4.0077043e-07 -1.5574393e-06 -0.39907372)
(-1.8529778e-06 -1.8529778e-06 -0.3990739)
(-2.5250756e-06 -2.5183273e-06 -0.39907484)
(-1.5812209e-06 -2.3796184e-06 -0.39907617)
(-2.0531161e-07 -2.055012e-06 -0.39907655)
(-7.8415344e-07 -1.9536403e-06 -0.39907413)
(-2.5183273e-06 -2.5250756e-06 -0.39907484)
(-2.4802809e-06 -2.4802809e-06 -0.39907568)
(-1.2737112e-06 -2.0577094e-06 -0.3990767)
(-9.0351632e-08 -1.5887567e-06 -0.39907691)
(-7.8172733e-07 -1.7370266e-06 -0.3990755)
(-2.3796184e-06 -1.5812209e-06 -0.39907617)
(-2.0577094e-06 -1.2737112e-06 -0.3990767)
(-6.8969665e-07 -6.8969665e-07 -0.39907726)
(1.0732351e-07 -3.1817519e-07 -0.39907713)
(-6.8028298e-07 -3.0675596e-07 -0.39907598)
(-2.055012e-06 -2.0531161e-07 -0.39907655)
(-1.5887567e-06 -9.0351633e-08 -0.39907691)
(-3.1817519e-07 1.0732351e-07 -0.39907713)
(1.5732934e-07 1.5732934e-07 -0.39907695)
(-7.6382449e-07 -7.6382449e-07 -0.39013411)
(-2.0334217e-06 -4.5184365e-07 -0.39013464)
(-2.9421436e-06 -1.0265556e-06 -0.39013502)
(-2.782928e-06 -1.0044146e-06 -0.3901367)
(-4.8564619e-07 -8.6529255e-07 -0.39013727)
(-4.5184365e-07 -2.0334217e-06 -0.39013464)
(-2.4275184e-06 -2.4275184e-06 -0.39013472)
(-3.771e-06 -3.2936719e-06 -0.39013569)
(-2.5410333e-06 -2.9382413e-06 -0.3901373)
(-3.4652417e-07 -2.464585e-06 -0.39013775)
(-1.0265556e-06 -2.9421436e-06 -0.39013502)
(-3.2936719e-06 -3.771e-06 -0.39013569)
(-3.4528665e-06 -3.4528665e-06 -0.3901364)
(-1.953841e-06 -2.5614328e-06 -0.39013756)
(-1.6987529e-07 -1.8212151e-06 -0.39013782)
(-1.0044146e-06 -2.782928e-06 -0.3901367)
(-2.9382413e-06 -2.5410333e-06 -0.3901373)
(-2.5614328e-06 -1.953841e-06 -0.39013756)
(-9.0938192e-07 -9.0938192e-07 -0.39013807)
(1.4695427e-07 -3.1921781e-07 -0.39013797)
(-8.6529255e-07 -4.8564619e-07 -0.39013727)
(-2.464585e-06 -3.4652417e-07 -0.39013775)
(-1.8212151e-06 -1.6987529e-07 -0.39013782)
(-3.1921781e-07 1.4695427e-07 -0.39013797)
(2.2356745e-07 2.2356744e-07 -0.39013776)
(-9.3769323e-07 -9.3769323e-07 -0.36195858)
(-2.465103e-06 -4.5814409e-07 -0.36195904)
(-4.0193251e-06 -1.2322473e-06 -0.36195928)
(-3.9833483e-06 -1.1774827e-06 -0.36196112)
(-6.8172422e-07 -1.0005295e-06 -0.36196169)
(-4.5814409e-07 -2.465103e-06 -0.36195904)
(-2.9069341e-06 -2.906934e-06 -0.36195894)
(-5.098333e-06 -3.9033205e-06 -0.36195974)
(-3.6357717e-06 -3.2366955e-06 -0.36196147)
(-5.0477108e-07 -2.6102737e-06 -0.36196194)
(-1.2322473e-06 -4.0193251e-06 -0.36195928)
(-3.9033205e-06 -5.098333e-06 -0.36195974)
(-4.3490865e-06 -4.3490865e-06 -0.3619601)
(-2.6903015e-06 -2.8319193e-06 -0.36196123)
(-2.6410968e-07 -1.8098182e-06 -0.36196153)
(-1.1774827e-06 -3.9833483e-06 -0.36196112)
(-3.2366955e-06 -3.6357717e-06 -0.36196147)
(-2.8319193e-06 -2.6903015e-06 -0.36196123)
(-1.0965034e-06 -1.0965034e-06 -0.36196158)
(1.7662962e-07 -2.5952321e-07 -0.36196152)
(-1.0005295e-06 -6.8172422e-07 -0.36196169)
(-2.6102737e-06 -5.0477108e-07 -0.36196194)
(-1.8098182e-06 -2.6410968e-07 -0.36196153)
(-2.5952321e-07 1.7662962e-07 -0.36196152)
(2.938771e-07 2.938771e-07 -0.36196133)
(-1.0704449e-06 -1.0704449e-06 -0.30552718)
(-2.7303941e-06 -3.8725262e-07 -0.30552743)
(-5.0229795e-06 -1.3340409e-06 -0.3055274)
(-5.1987897e-06 -1.2338487e-06 -0.30552915)
(-8.6702467e-07 -1.027791e-06 -0.30552963)
(-3.8725262e-07 -2.7303941e-06 -0.30552743)
(-3.1257882e-06 -3.1257882e-06 -0.30552706)
(-6.2928737e-06 -4.1136751e-06 -0.30552742)
(-4.7394148e-06 -3.0484354e-06 -0.30552902)
(-6.6096693e-07 -2.2985899e-06 -0.30552945)
(-1.3340409e-06 -5.0229795e-06 -0.3055274)
(-4.1136751e-06 -6.2928737e-06 -0.30552742)
(-4.9456267e-06 -4.9456267e-06 -0.30552713)
(-3.3837044e-06 -2.6725957e-06 -0.30552802)
(-3.6712765e-07 -1.4082762e-06 -0.30552834)
(-1.2338487e-06 -5.1987897e-06 -0.30552915)
(-3.0484354e-06 -4.7394148e-06 -0.30552902)
(-2.6725957e-06 -3.3837044e-06 -0.30552802)
(-1.2020643e-06 -1.2020643e-06 -0.30552805)
(1.8191274e-07 -1.1928e-07 -0.30552811)
(-1.027791e-06 -8.6702467e-07 -0.30552963)
(-2.2985898e-06 -6.6096693e-07 -0.30552945)
(-1.4082762e-06 -3.6712765e-07 -0.30552834)
(-1.1928e-07 1.8191274e-07 -0.30552811)
(3.5472855e-07 3.5472855e-07 -0.30552799)
(-1.1083845e-06 -1.1083845e-06 -0.21164182)
(-2.6869421e-06 -2.0973383e-07 -0.2116417)
(-5.7362686e-06 -1.2444661e-06 -0.2116413)
(-6.2176834e-06 -1.0880708e-06 -0.21164259)
(-1.0038534e-06 -8.7562141e-07 -0.21164286)
(-2.0973383e-07 -2.6869421e-06 -0.2116417)
(-2.8910645e-06 -2.8910645e-06 -0.21164099)
(-7.0537741e-06 -3.6343173e-06 -0.21164061)
(-5.6644163e-06 -2.1098763e-06 -0.21164172)
(-7.91404e-07 -1.3168002e-06 -0.21164203)
(-1.2444661e-06 -5.7362687e-06 -0.2116413)
(-3.6343173e-06 -7.0537741e-06 -0.21164061)
(-4.9550804e-06 -4.9550803e-06 -0.21163936)
(-3.9001663e-06 -1.8648273e-06 -0.21163972)
(-4.7513601e-07 -4.7474325e-07 -0.21164006)
(-1.0880708e-06 -6.2176834e-06 -0.21164259)
(-2.1098762e-06 -5.6644163e-06 -0.21164172)
(-1.8648273e-06 -3.9001663e-06 -0.21163972)
(-1.1840792e-06 -1.1840792e-06 -0.21163927)
(1.3531869e-07 9.4963922e-08 -0.21163955)
(-8.7562141e-07 -1.0038534e-06 -0.21164286)
(-1.3168002e-06 -7.91404e-07 -0.21164203)
(-4.7474325e-07 -4.75136e-07 -0.21164006)
(9.4963919e-08 1.3531869e-07 -0.21163955)
(3.7755942e-07 3.7755942e-07 -0.21163962)
(-9.8551299e-07 -9.8551298e-07 -0.072708905)
(-2.2101817e-06 8.2340287e-08 -0.072708195)
(-5.9173641e-06 -8.6927141e-07 -0.07270749)
(-6.7563219e-06 -6.5011207e-07 -0.072707841)
(-1.0472466e-06 -4.7297237e-07 -0.072707766)
(8.2340287e-08 -2.2101817e-06 -0.072708195)
(-2.0358193e-06 -2.0358193e-06 -0.072707217)
(-7.0160427e-06 -2.1703485e-06 -0.072705841)
(-6.1618733e-06 -1.8061943e-07 -0.072706002)
(-8.7010691e-07 5.0727585e-07 -0.072706126)
(-8.692714e-07 -5.9173641e-06 -0.07270749)
(-2.1703485e-06 -7.0160427e-06 -0.072705841)
(-4.0621643e-06 -4.0621643e-06 -0.072703413)
(-4.0786976e-06 -2.2288508e-07 -0.072702914)
(-5.8864976e-07 1.0687823e-06 -0.07270327)
(-6.5011207e-07 -6.7563219e-06 -0.072707841)
(-1.8061943e-07 -6.1618733e-06 -0.072706002)
(-2.2288508e-07 -4.0786976e-06 -0.072702914)
(-1.0309267e-06 -1.0309267e-06 -0.07270185)
(-8.995303e-09 3.2123077e-07 -0.072702525)
(-4.7297236e-07 -1.0472466e-06 -0.072707766)
(5.0727586e-07 -8.7010691e-07 -0.072706126)
(1.0687823e-06 -5.8864976e-07 -0.07270327)
(3.2123077e-07 -8.9953018e-09 -0.072702525)
(3.1278856e-07 3.1278856e-07 -0.072702955)
(-6.3480917e-07 -6.3480917e-07 0.11411753)
(-1.2716268e-06 4.4251143e-07 0.114119)
(-5.3821968e-06 -1.4500306e-07 0.11411969)
(-6.4935744e-06 1.3764087e-07 0.11412076)
(-9.5386045e-07 2.1751659e-07 0.11412128)
(4.4251142e-07 -1.2716268e-06 0.114119)
(-5.3691759e-07 -5.3691759e-07 0.11411997)
(-5.8395026e-06 4.4265374e-07 0.11412233)
(-5.949795e-06 2.8169882e-06 0.11412358)
(-8.7398474e-07 3.1792363e-06 0.1141237)
(-1.4500306e-07 -5.3821968e-06 0.11411969)
(4.4265375e-07 -5.8395026e-06 0.11412233)
(-2.028291e-06 -2.028291e-06 0.11412585)
(-3.7569918e-06 2.2876745e-06 0.1141275)
(-7.1236169e-07 3.1269231e-06 0.11412711)
(1.3764087e-07 -6.4935744e-06 0.11412076)
(2.8169882e-06 -5.949795e-06 0.11412358)
(2.2876745e-06 -3.7569918e-06 0.1141275)
(-7.9458086e-07 -7.9458086e-07 0.11412916)
(-3.1448566e-07 4.1006884e-07 0.11412791)
(2.1751659e-07 -9.5386045e-07 0.11412128)
(3.1792364e-06 -8.7398474e-07 0.1141237)
(3.1269231e-06 -7.1236169e-07 0.11412711)
(4.1006884e-07 -3.1448565e-07 0.11412791)
(9.0738108e-08 9.073811e-08 0.11412691)
(-9.96347e-09 -9.9634704e-09 0.3417392)
(-5.3449148e-08 7.2921698e-07 0.34174148)
(-4.1543536e-06 8.9073287e-07 0.34174143)
(-5.166254e-06 1.2321758e-06 0.34174422)
(-7.0026958e-07 1.1428802e-06 0.34174518)
(7.2921698e-07 -5.3449151e-08 0.34174148)
(1.2975954e-06 1.2975954e-06 0.34174185)
(-3.3999153e-06 3.9915308e-06 0.34174466)
(-4.788033e-06 6.5570765e-06 0.34174762)
(-7.895652e-07 6.3390087e-06 0.341748)
(8.9073287e-07 -4.1543536e-06 0.34174143)
(3.9915308e-06 -3.3999153e-06 0.34174466)
(1.1051275e-06 1.1051275e-06 0.34174856)
(-2.8187761e-06 5.3546422e-06 0.34175143)
(-8.456481e-07 5.2760578e-06 0.34175107)
(1.2321758e-06 -5.166254e-06 0.34174422)
(6.5570765e-06 -4.788033e-06 0.34174762)
(5.3546422e-06 -2.8187761e-06 0.34175143)
(-6.171027e-07 -6.171027e-07 0.34175343)
(-8.4195479e-07 1.1814284e-07 0.34175152)
(1.1428802e-06 -7.0026958e-07 0.34174518)
(6.3390087e-06 -7.895652e-07 0.341748)
(5.2760578e-06 -8.456481e-07 0.34175107)
(1.1814284e-07 -8.4195479e-07 0.34175152)
(-3.5548441e-07 -3.5548441e-07 0.34174985)
(8.8564356e-07 8.8564356e-07 0.58504071)
(9.5948485e-07 6.9275187e-07 0.58504368)
(-2.6433535e-06 2.0118121e-06 0.58504183)
(-2.7398421e-06 2.4063276e-06 0.58504615)
(-3.1031274e-07 2.1001698e-06 0.58504738)
(6.9275187e-07 9.5948485e-07 0.58504368)
(2.6487376e-06 2.6487376e-06 0.5850427)
(-7.2989989e-08 7.573951e-06 0.58504466)
(-2.6073055e-06 1.0028042e-05 0.58504914)
(-6.1647047e-07 9.0654408e-06 0.58504979)
(2.0118121e-06 -2.6433535e-06 0.58504183)
(7.573951e-06 -7.2989989e-08 0.58504466)
(4.7359512e-06 4.7359512e-06 0.58504732)
(-1.2483523e-06 8.0991268e-06 0.58505108)
(-9.5204713e-07 6.6434139e-06 0.58505099)
(2.4063276e-06 -2.7398421e-06 0.58504615)
(1.0028042e-05 -2.6073055e-06 0.58504914)
(8.0991268e-06 -1.2483523e-06 0.58505108)
(-6.9984282e-07 -6.9984282e-07 0.58505284)
(-1.5869457e-06 -8.0286152e-07 0.58505057)
(2.1001698e-06 -3.1031274e-07 0.58504738)
(9.0654408e-06 -6.1647047e-07 0.58504979)
(6.6434139e-06 -9.5204713e-07 0.58505099)
(-8.0286152e-07 -1.5869457e-06 0.58505057)
(-1.0207263e-06 -1.0207263e-06 0.58504856)
(1.9721293e-06 1.9721293e-06 0.78940203)
(1.062405e-06 7.1615691e-08 0.78940531)
(-1.6867484e-06 2.7772882e-06 0.78940086)
(3.8692849e-07 3.2279054e-06 0.78940582)
(1.1859194e-07 2.7489018e-06 0.78940691)
(7.1615689e-08 1.062405e-06 0.78940531)
(2.2701434e-06 2.2701434e-06 0.7894026)
(3.0476862e-06 9.4817541e-06 0.78940192)
(3.4434893e-07 1.1481077e-05 0.78940709)
(-3.6041163e-07 9.9494692e-06 0.78940799)
(2.7772882e-06 -1.6867484e-06 0.78940086)
(9.4817541e-06 3.0476862e-06 0.78940192)
(7.5241856e-06 7.5241856e-06 0.78940113)
(8.5464357e-07 9.0514565e-06 0.78940496)
(-9.0248018e-07 6.0553428e-06 0.78940575)
(3.2279054e-06 3.8692848e-07 0.78940582)
(1.1481077e-05 3.4434892e-07 0.78940709)
(9.0514565e-06 8.5464357e-07 0.78940496)
(-1.1244939e-06 -1.1244939e-06 0.78940579)
(-2.3578208e-06 -2.3167695e-06 0.7894042)
(2.7489018e-06 1.1859194e-07 0.78940691)
(9.9494692e-06 -3.6041163e-07 0.78940799)
(6.0553428e-06 -9.0248018e-07 0.78940575)
(-2.3167694e-06 -2.3578208e-06 0.7894042)
(-1.6973305e-06 -1.6973305e-06 0.78940297)
(3.0683487e-06 3.0683487e-06 0.8569918)
(-2.1752066e-07 -1.1142527e-06 0.85699457)
(-2.1357452e-06 2.72304e-06 0.85698835)
(3.3109988e-06 3.2588399e-06 0.85699249)
(4.1780021e-07 2.8245965e-06 0.85699295)
(-1.1142527e-06 -2.1752066e-07 0.85699457)
(-7.3548374e-07 -7.3548374e-07 0.85699118)
(4.4238936e-06 7.8453596e-06 0.85698696)
(3.4633336e-06 9.1761939e-06 0.8569915)
(-1.6443183e-08 7.9043314e-06 0.85699268)
(2.72304e-06 -2.1357452e-06 0.85698835)
(7.8453596e-06 4.4238936e-06 0.85698696)
(7.7759325e-06 7.7759325e-06 0.85698138)
(3.3699706e-06 6.7902124e-06 0.85698438)
(-4.3010812e-07 2.8538186e-06 0.85698688)
(3.2588399e-06 3.3109988e-06 0.85699249)
(9.1761939e-06 3.4633336e-06 0.8569915)
(6.7902124e-06 3.3699706e-06 0.85698438)
(-1.4587803e-06 -1.4587803e-06 0.85698412)
(-2.6407057e-06 -3.5834239e-06 0.85698515)
(2.8245965e-06 4.1780021e-07 0.85699295)
(7.9043314e-06 -1.6443186e-08 0.85699268)
(2.8538186e-06 -4.3010812e-07 0.85698688)
(-3.5834239e-06 -2.6407057e-06 0.85698515)
(-1.8465372e-06 -1.8465372e-06 0.85698658)
(3.8235898e-06 3.8235898e-06 0.63775428)
(-2.3854301e-06 -2.1901138e-06 0.63775499)
(-3.767499e-06 1.8533652e-06 0.6377506)
(4.9850189e-06 2.5630133e-06 0.63775284)
(4.2113546e-07 2.5685313e-06 0.6377524)
(-2.1901138e-06 -2.3854301e-06 0.63775499)
(-5.3407669e-06 -5.3407669e-06 0.63775358)
(3.3621915e-06 2.5164848e-06 0.63774792)
(6.057768e-06 3.3650259e-06 0.63775098)
(4.2665348e-07 3.8777824e-06 0.63775234)
(1.8533652e-06 -3.767499e-06 0.6377506)
(2.5164848e-06 3.3621915e-06 0.63774792)
(4.9382938e-06 4.9382938e-06 0.63773968)
(6.3463165e-06 1.6741955e-06 0.63774177)
(7.6297308e-07 -1.471565e-06 0.6377462)
(2.5630133e-06 4.9850189e-06 0.63775284)
(3.3650259e-06 6.057768e-06 0.63775098)
(1.6741955e-06 6.3463164e-06 0.63774177)
(-3.5209087e-07 -3.5209088e-07 0.6377419)
(-1.6705202e-06 -2.6085889e-06 0.63774715)
(2.5685313e-06 4.2113546e-07 0.6377524)
(3.8777824e-06 4.2665347e-07 0.63775234)
(-1.471565e-06 7.6297308e-07 0.6377462)
(-2.6085889e-06 -1.6705202e-06 0.63774715)
(-7.4135895e-07 -7.4135896e-07 0.63775234)
(3.5438313e-06 3.5438313e-06 -0.053208923)
(-3.8999417e-06 -2.0599675e-06 -0.053212847)
(-4.2876381e-06 9.3608256e-07 -0.053210743)
(5.1097006e-06 2.0206005e-06 -0.0532101)
(1.2110001e-07 2.7872319e-06 -0.053211073)
(-2.0599675e-06 -3.8999417e-06 -0.053212847)
(-7.8115649e-06 -7.8115649e-06 -0.053211075)
(1.833214e-06 -3.0727279e-06 -0.053213142)
(7.8864247e-06 -1.896159e-06 -0.053211003)
(8.8773139e-07 1.703435e-06 -0.053210158)
(9.3608256e-07 -4.2876381e-06 -0.053210743)
(-3.0727279e-06 1.833214e-06 -0.053213142)
(1.6277677e-06 1.6277677e-06 -0.053218157)
(9.8858636e-06 -2.2951303e-06 -0.053215788)
(2.5208294e-06 -2.3330014e-06 -0.05321169)
(2.0206005e-06 5.1097006e-06 -0.0532101)
(-1.896159e-06 7.8864247e-06 -0.053211003)
(-2.2951303e-06 9.8858636e-06 -0.053215788)
(3.9256556e-06 3.9256556e-06 -0.053212599)
(8.6248399e-07 2.5577586e-06 -0.053204945)
(2.7872319e-06 1.2110001e-07 -0.053211073)
(1.703435e-06 8.877314e-07 -0.053210158)
(-2.3330014e-06 2.5208294e-06 -0.05321169)
(2.5577586e-06 8.6248399e-07 -0.053204945)
(1.6088981e-06 1.608898e-06 -0.053199636)
(1.2072464e-06 1.2072464e-06 -1.3388886)
(-4.2053599e-06 -1.0087238e-06 -1.3388982)
(-1.0200469e-06 2.5371957e-07 -1.3388903)
(4.6547812e-06 1.9610546e-06 -1.3388903)
(-2.2760101e-07 3.1781639e-06 -1.3388908)
(-1.0087238e-06 -4.2053599e-06 -1.3388982)
(-5.6356502e-06 -5.6356502e-06 -1.3388983)
(3.4346207e-06 -4.8984337e-06 -1.3388949)
(9.0414478e-06 -2.323002e-06 -1.3388933)
(9.8950835e-07 3.2606339e-06 -1.338894)
(2.5371957e-07 -1.0200469e-06 -1.3388903)
(-4.8984337e-06 3.4346207e-06 -1.3388949)
(2.2926014e-06 2.2926014e-06 -1.3388936)
(1.2813849e-05 7.7958449e-08 -1.3388909)
(3.4948229e-06 3.7422502e-06 -1.3388915)
(1.9610546e-06 4.6547812e-06 -1.3388903)
(-2.323002e-06 9.0414478e-06 -1.3388933)
(7.7958452e-08 1.2813849e-05 -1.3388909)
(1.0491097e-05 1.0491097e-05 -1.3388848)
(3.4323695e-06 9.4451994e-06 -1.3388812)
(3.1781639e-06 -2.2760101e-07 -1.3388908)
(3.2606339e-06 9.8950835e-07 -1.338894)
(3.7422502e-06 3.4948229e-06 -1.3388915)
(9.4451994e-06 3.4323695e-06 -1.3388812)
(2.7975581e-06 2.7975581e-06 -1.3388845)
(-2.8494225e-06 -2.8494225e-06 -3.0067879)
(-5.6044057e-06 -2.1273683e-06 -3.0067933)
(3.5696099e-06 -2.1713934e-06 -3.006787)
(4.5674485e-06 5.4321344e-08 -3.0067886)
(-2.2162228e-07 7.0557379e-07 -3.0067875)
(-2.1273683e-06 -5.6044057e-06 -3.0067933)
(-4.5873621e-06 -4.5873621e-06 -3.0067952)
(6.8421443e-06 -6.3975216e-06 -3.0067914)
(8.8828992e-06 -2.4547264e-06 -3.006793)
(4.2963017e-07 9.9285952e-07 -3.0067928)
(-2.1713934e-06 3.5696099e-06 -3.006787)
(-6.3975216e-06 6.8421443e-06 -3.0067914)
(5.7022456e-06 5.7022456e-06 -3.0067876)
(1.195783e-05 6.1401299e-06 -3.0067888)
(2.0767683e-06 1.0451407e-05 -3.0067915)
(5.4321344e-08 4.5674485e-06 -3.0067886)
(-2.4547264e-06 8.8828992e-06 -3.006793)
(6.1401299e-06 1.195783e-05 -3.0067888)
(1.3632061e-05 1.3632061e-05 -3.006787)
(3.3038152e-06 9.6187717e-06 -3.0067875)
(7.0557379e-07 -2.2162228e-07 -3.0067875)
(9.9285951e-07 4.2963017e-07 -3.0067928)
(1.0451407e-05 2.0767683e-06 -3.0067915)
(9.6187717e-06 3.3038152e-06 -3.0067875)
(-5.9875792e-07 -5.9875792e-07 -3.006796)
(-2.4223016e-06 -2.4223016e-06 9.7961173)
(-3.3697416e-06 -2.244134e-06 9.7961274)
(3.6756329e-06 -2.6596849e-06 9.7961278)
(4.2148589e-06 -9.4440298e-07 9.7961177)
(5.3529124e-07 -3.5687267e-07 9.7961163)
(-2.244134e-06 -3.3697416e-06 9.7961274)
(-3.7258165e-06 -3.7258165e-06 9.7961363)
(5.6252295e-06 -5.5104613e-06 9.7961379)
(7.6690773e-06 -2.5311964e-06 9.7961205)
(1.1228216e-06 -7.8067764e-07 9.7961167)
(-2.6596849e-06 3.6756329e-06 9.7961278)
(-5.5104613e-06 5.6252295e-06 9.7961379)
(4.870253e-06 4.870253e-06 9.7961431)
(8.9446426e-06 6.0133627e-06 9.7961244)
(1.7023037e-06 9.0612607e-06 9.7961172)
(-9.4440299e-07 4.2148589e-06 9.7961177)
(-2.5311964e-06 7.6690773e-06 9.7961205)
(6.0133627e-06 8.9446426e-06 9.7961244)
(1.1860085e-05 1.1860085e-05 9.7961044)
(3.1547536e-06 4.9814379e-06 9.7960916)
(-3.5687266e-07 5.3529124e-07 9.7961163)
(-7.8067764e-07 1.1228216e-06 9.7961167)
(9.0612606e-06 1.7023037e-06 9.7961172)
(4.9814379e-06 3.1547535e-06 9.7960916)
(-2.8834609e-06 -2.883461e-06 9.7961008)
)
;

boundaryField
{
    wall_minX
    {
        type            extrapolatedCalculated;
        value           nonuniform List<vector> 
100
(
(-6.1679828e-12 -7.5034381e-08 -0.37700894)
(0 -2.2638094e-07 -0.37700936)
(0 -1.0894485e-07 -0.37700974)
(0 9.8383849e-09 -0.37700978)
(0 3.298469e-09 -0.37700978)
(0 -1.9522544e-07 -0.38192149)
(0 -5.2720895e-07 -0.38192183)
(0 -3.0823604e-07 -0.38192205)
(0 -9.1820667e-08 -0.38192235)
(0 -1.1970273e-08 -0.38192245)
(0 -3.070269e-07 -0.38938816)
(0 -7.9269104e-07 -0.38938852)
(0 -6.208509e-07 -0.38938876)
(0 -3.9075003e-07 -0.38938937)
(0 -6.8033208e-08 -0.3893896)
(0 -4.3156992e-07 -0.39669131)
(0 -1.126736e-06 -0.39669173)
(0 -1.1607542e-06 -0.39669208)
(0 -9.2740776e-07 -0.39669307)
(0 -1.6402309e-07 -0.39669343)
(0 -5.8712774e-07 -0.39907322)
(0 -1.5574393e-06 -0.39907372)
(0 -1.9536403e-06 -0.39907413)
(0 -1.7370266e-06 -0.3990755)
(0 -3.0675596e-07 -0.39907598)
(0 -7.6382449e-07 -0.39013411)
(0 -2.0334217e-06 -0.39013464)
(0 -2.9421436e-06 -0.39013502)
(0 -2.782928e-06 -0.3901367)
(0 -4.8564619e-07 -0.39013727)
(0 -9.3769323e-07 -0.36195858)
(0 -2.465103e-06 -0.36195904)
(0 -4.0193251e-06 -0.36195928)
(0 -3.9833483e-06 -0.36196112)
(0 -6.8172422e-07 -0.36196169)
(0 -1.0704449e-06 -0.30552718)
(0 -2.7303941e-06 -0.30552743)
(0 -5.0229795e-06 -0.3055274)
(0 -5.1987897e-06 -0.30552915)
(0 -8.6702467e-07 -0.30552963)
(0 -1.1083845e-06 -0.21164182)
(0 -2.6869421e-06 -0.2116417)
(0 -5.7362687e-06 -0.2116413)
(0 -6.2176834e-06 -0.21164259)
(0 -1.0038534e-06 -0.21164286)
(0 -9.8551298e-07 -0.072708905)
(0 -2.2101817e-06 -0.072708195)
(0 -5.9173641e-06 -0.07270749)
(0 -6.7563219e-06 -0.072707841)
(0 -1.0472466e-06 -0.072707766)
(0 -6.3480917e-07 0.11411753)
(0 -1.2716268e-06 0.114119)
(0 -5.3821968e-06 0.11411969)
(0 -6.4935744e-06 0.11412076)
(0 -9.5386045e-07 0.11412128)
(0 -9.9634704e-09 0.3417392)
(0 -5.3449151e-08 0.34174148)
(0 -4.1543536e-06 0.34174143)
(0 -5.166254e-06 0.34174422)
(0 -7.0026958e-07 0.34174518)
(0 8.8564356e-07 0.58504071)
(0 9.5948485e-07 0.58504368)
(0 -2.6433535e-06 0.58504183)
(0 -2.7398421e-06 0.58504615)
(0 -3.1031274e-07 0.58504738)
(0 1.9721293e-06 0.78940203)
(0 1.062405e-06 0.78940531)
(0 -1.6867484e-06 0.78940086)
(0 3.8692848e-07 0.78940582)
(0 1.1859194e-07 0.78940691)
(0 3.0683487e-06 0.8569918)
(0 -2.1752066e-07 0.85699457)
(0 -2.1357452e-06 0.85698835)
(0 3.3109988e-06 0.85699249)
(0 4.1780021e-07 0.85699295)
(0 3.8235898e-06 0.63775428)
(0 -2.3854301e-06 0.63775499)
(0 -3.767499e-06 0.6377506)
(0 4.9850189e-06 0.63775284)
(0 4.2113546e-07 0.6377524)
(0 3.5438313e-06 -0.053208923)
(0 -3.8999417e-06 -0.053212847)
(0 -4.2876381e-06 -0.053210743)
(0 5.1097006e-06 -0.0532101)
(0 1.2110001e-07 -0.053211073)
(0 1.2072464e-06 -1.3388886)
(0 -4.2053599e-06 -1.3388982)
(0 -1.0200469e-06 -1.3388903)
(0 4.6547812e-06 -1.3388903)
(0 -2.2760101e-07 -1.3388908)
(0 -2.8494225e-06 -3.0067879)
(0 -5.6044057e-06 -3.0067933)
(0 3.5696099e-06 -3.006787)
(0 4.5674485e-06 -3.0067886)
(0 -2.2162228e-07 -3.0067875)
(0 -2.4223016e-06 9.7961173)
(0 -3.3697416e-06 9.7961274)
(0 3.6756329e-06 9.7961278)
(0 4.2148589e-06 9.7961177)
(0 5.3529124e-07 9.7961163)
)
;
    }
    wall_maxX
    {
        type            extrapolatedCalculated;
        value           nonuniform List<vector> 
100
(
(4.8572257e-15 -6.8650757e-08 -0.37700978)
(0 -2.0674209e-07 -0.37701017)
(0 -1.6039068e-07 -0.37701059)
(0 -5.4908086e-08 -0.37701082)
(0 1.1444192e-09 -0.3770108)
(0 -1.8070446e-07 -0.38192245)
(0 -5.8234582e-07 -0.38192282)
(0 -4.9367574e-07 -0.38192327)
(0 -1.5146502e-07 -0.38192352)
(0 2.0614395e-08 -0.38192344)
(0 -3.1666583e-07 -0.3893896)
(0 -1.023283e-06 -0.38939006)
(0 -8.5730195e-07 -0.38939055)
(0 -2.2703148e-07 -0.3893908)
(0 5.4657492e-08 -0.38939068)
(0 -4.8792485e-07 -0.39669343)
(0 -1.5363871e-06 -0.39669397)
(0 -1.2369815e-06 -0.39669446)
(0 -2.8199348e-07 -0.3966947)
(0 1.0032545e-07 -0.39669455)
(0 -6.8028298e-07 -0.39907598)
(0 -2.055012e-06 -0.39907655)
(0 -1.5887567e-06 -0.39907691)
(0 -3.1817519e-07 -0.39907713)
(0 1.5732934e-07 -0.39907695)
(0 -8.6529255e-07 -0.39013727)
(0 -2.464585e-06 -0.39013775)
(0 -1.8212151e-06 -0.39013782)
(0 -3.1921781e-07 -0.39013797)
(0 2.2356744e-07 -0.39013776)
(0 -1.0005295e-06 -0.36196169)
(0 -2.6102737e-06 -0.36196194)
(0 -1.8098182e-06 -0.36196153)
(0 -2.5952321e-07 -0.36196152)
(0 2.938771e-07 -0.36196133)
(0 -1.027791e-06 -0.30552963)
(0 -2.2985899e-06 -0.30552945)
(0 -1.4082762e-06 -0.30552834)
(0 -1.1928e-07 -0.30552811)
(0 3.5472855e-07 -0.30552799)
(0 -8.7562141e-07 -0.21164286)
(0 -1.3168002e-06 -0.21164203)
(0 -4.7474325e-07 -0.21164006)
(0 9.4963922e-08 -0.21163955)
(0 3.7755942e-07 -0.21163962)
(0 -4.7297237e-07 -0.072707766)
(0 5.0727585e-07 -0.072706126)
(0 1.0687823e-06 -0.07270327)
(0 3.2123077e-07 -0.072702525)
(0 3.1278856e-07 -0.072702955)
(0 2.1751659e-07 0.11412128)
(0 3.1792363e-06 0.1141237)
(0 3.1269231e-06 0.11412711)
(0 4.1006884e-07 0.11412791)
(0 9.073811e-08 0.11412691)
(0 1.1428802e-06 0.34174518)
(0 6.3390087e-06 0.341748)
(0 5.2760578e-06 0.34175107)
(0 1.1814284e-07 0.34175152)
(0 -3.5548441e-07 0.34174985)
(0 2.1001698e-06 0.58504738)
(0 9.0654408e-06 0.58504979)
(0 6.6434139e-06 0.58505099)
(0 -8.0286152e-07 0.58505057)
(0 -1.0207263e-06 0.58504856)
(0 2.7489018e-06 0.78940691)
(0 9.9494692e-06 0.78940799)
(0 6.0553428e-06 0.78940575)
(0 -2.3167695e-06 0.7894042)
(0 -1.6973305e-06 0.78940297)
(0 2.8245965e-06 0.85699295)
(0 7.9043314e-06 0.85699268)
(0 2.8538186e-06 0.85698688)
(0 -3.5834239e-06 0.85698515)
(0 -1.8465372e-06 0.85698658)
(0 2.5685313e-06 0.6377524)
(0 3.8777824e-06 0.63775234)
(0 -1.471565e-06 0.6377462)
(0 -2.6085889e-06 0.63774715)
(0 -7.4135896e-07 0.63775234)
(0 2.7872319e-06 -0.053211073)
(0 1.703435e-06 -0.053210158)
(0 -2.3330014e-06 -0.05321169)
(0 2.5577586e-06 -0.053204945)
(0 1.608898e-06 -0.053199636)
(0 3.1781639e-06 -1.3388908)
(0 3.2606339e-06 -1.338894)
(0 3.7422502e-06 -1.3388915)
(0 9.4451994e-06 -1.3388812)
(0 2.7975581e-06 -1.3388845)
(0 7.0557379e-07 -3.0067875)
(0 9.9285952e-07 -3.0067928)
(0 1.0451407e-05 -3.0067915)
(0 9.6187717e-06 -3.0067875)
(0 -5.9875792e-07 -3.006796)
(0 -3.5687267e-07 9.7961163)
(0 -7.8067764e-07 9.7961167)
(0 9.0612607e-06 9.7961172)
(0 4.9814379e-06 9.7960916)
(0 -2.883461e-06 9.7961008)
)
;
    }
    wall_minY
    {
        type            extrapolatedCalculated;
        value           nonuniform List<vector> 
100
(
(-7.5034357e-08 -6.1679828e-12 -0.37700894)
(-1.9522544e-07 0 -0.38192149)
(-3.070269e-07 0 -0.38938816)
(-4.3156992e-07 0 -0.39669131)
(-5.8712774e-07 0 -0.39907322)
(-7.6382449e-07 0 -0.39013411)
(-9.3769323e-07 0 -0.36195858)
(-1.0704449e-06 0 -0.30552718)
(-1.1083845e-06 0 -0.21164182)
(-9.8551299e-07 0 -0.072708905)
(-6.3480917e-07 0 0.11411753)
(-9.96347e-09 0 0.3417392)
(8.8564356e-07 0 0.58504071)
(1.9721293e-06 0 0.78940203)
(3.0683487e-06 0 0.8569918)
(3.8235898e-06 0 0.63775428)
(3.5438313e-06 0 -0.053208923)
(1.2072464e-06 0 -1.3388886)
(-2.8494225e-06 0 -3.0067879)
(-2.4223016e-06 0 9.7961173)
(-2.2638091e-07 1.4849233e-13 -0.37700936)
(-5.2720895e-07 0 -0.38192183)
(-7.9269104e-07 0 -0.38938852)
(-1.126736e-06 0 -0.39669173)
(-1.5574393e-06 0 -0.39907372)
(-2.0334217e-06 0 -0.39013464)
(-2.465103e-06 0 -0.36195904)
(-2.7303941e-06 0 -0.30552743)
(-2.6869421e-06 0 -0.2116417)
(-2.2101817e-06 0 -0.072708195)
(-1.2716268e-06 0 0.114119)
(-5.3449148e-08 0 0.34174148)
(9.5948485e-07 0 0.58504368)
(1.062405e-06 0 0.78940531)
(-2.1752066e-07 0 0.85699457)
(-2.3854301e-06 0 0.63775499)
(-3.8999417e-06 0 -0.053212847)
(-4.2053599e-06 0 -1.3388982)
(-5.6044057e-06 0 -3.0067933)
(-3.3697416e-06 0 9.7961274)
(-1.089449e-07 9.2287289e-14 -0.37700974)
(-3.0823604e-07 0 -0.38192205)
(-6.2085089e-07 0 -0.38938876)
(-1.1607542e-06 0 -0.39669208)
(-1.9536403e-06 0 -0.39907413)