/*--------------------------------*- C++ -*----------------------------------*\
| =========                 |                                                 |
| \\      /  F ield         | OpenFOAM: The Open Source CFD Toolbox           |
|  \\    /   O peration     | Version:  v2106                                 |
|   \\  /    A nd           | Website:  www.openfoam.com                      |
|    \\/     M anipulation  |                                                 |
\*---------------------------------------------------------------------------*/
FoamFile
{
    version     2.0;
    format      ascii;
    arch        "LSB;label=32;scalar=64";
    class       volScalarField;
    location    "10";
    object      Tmode_lapla3;
}
// * * * * * * * * * * * * * * * * * * * * * * * * * * * * * * * * * * * * * //

dimensions      [0 -2 0 0 0 0 0];

internalField   nonuniform List<scalar> 
500
(
-0.12223495
-0.12222254
-0.12219677
-0.12221748
-0.12222018
-0.12222254
-0.12218105
-0.12218191
-0.12220055
-0.12220726
-0.12219677
-0.12218191
-0.12217739
-0.12219237
-0.12220292
-0.12221748
-0.12220055
-0.12219237
-0.12219838
-0.12220139
-0.12222018
-0.12220726
-0.12220292
-0.12220139
-0.12220461
-0.32836331
-0.32832629
-0.32831491
-0.32833947
-0.32834625
-0.32832629
-0.32829201
-0.32828883
-0.32831273
-0.32832989
-0.32831491
-0.32828883
-0.32827854
-0.32829425
-0.32831738
-0.32833947
-0.32831273
-0.32829425
-0.32829278
-0.32830765
-0.32834625
-0.32832989
-0.32831738
-0.32830765
-0.32833155
-0.41845531
-0.41839188
-0.41841889
-0.4184231
-0.41843113
-0.41839188
-0.41837875
-0.41836146
-0.418373
-0.41840267
-0.41841889
-0.41836146
-0.41834009
-0.41834082
-0.41837751
-0.4184231
-0.418373
-0.41834082
-0.41832532
-0.4183659
-0.41843113
-0.41840267
-0.41837751
-0.4183659
-0.41841539
-0.31208125
-0.31198946
-0.31206429
-0.3120217
-0.31203732
-0.31198946
-0.31201833
-0.31196449
-0.31193769
-0.31198488
-0.31206429
-0.31196449
-0.31192303
-0.31189109
-0.31194735
-0.3120217
-0.31193769
-0.31189109
-0.31185469
-0.31194062
-0.31203732
-0.31198488
-0.31194735
-0.31194062
-0.31201751
0.073584884
0.073718131
0.073578857
0.073702707
0.073676838
0.073718131
0.073630341
0.073736377
0.073831726
0.073763349
0.073578857
0.073736377
0.07379696
0.073882785
0.073805366
0.073702707
0.073831726
0.073882785
0.073948584
0.073808818
0.073676838
0.073763349
0.073805366
0.073808818
0.073700087
0.81992085
0.82010845
0.81988377
0.82012349
0.82008203
0.82010845
0.81994274
0.82011139
0.82030665
0.82021155
0.81988377
0.82011139
0.82018196
0.82034218
0.82024206
0.82012349
0.82030665
0.82034218
0.82044237
0.82024778
0.82008203
0.82021155
0.82024206
0.82024778
0.82010437
1.9971218
1.9973754
1.9970447
1.9974339
1.9973705
1.9973754
1.9971144
1.9973488
1.9976759
1.9975493
1.9970447
1.9973488
1.9974119
1.997666
1.9975446
1.9974339
1.9976759
1.997666
1.9978024
1.9975611
1.9973705
1.9975493
1.9975446
1.9975611
1.9973839
3.6454159
3.6457413
3.6452905
3.645855
3.6457635
3.6457413
3.6453745
3.6456652
3.6461516
3.6459921
3.6452905
3.6456652
3.6456928
3.6460558
3.6459202
3.645855
3.6461516
3.6460558
3.646225
3.6459587
3.6457635
3.6459921
3.6459202
3.6459587
3.6457556
5.7424658
5.7428548
5.7422862
5.7430331
5.7429089
5.7428548
5.7423873
5.7427043
5.7433639
5.743177
5.7422862
5.7427043
5.7426562
5.7431313
5.7429984
5.7430331
5.7433639
5.7431313
5.7433209
5.7430717
5.7429089
5.743177
5.7429984
5.7430717
5.7428618
8.1501979
8.1506147
8.149964
8.1508633
8.150706
8.1506147
8.1500814
8.1503661
8.151184
8.1509862
8.149964
8.1503661
8.1501888
8.1507563
8.1506565
8.1508633
8.151184
8.1507563
8.1509395
8.1507776
8.150706
8.1509862
8.1506565
8.1507776
8.1505971
10.53196
10.532321
10.531682
10.532644
10.53246
10.532321
10.531807
10.531969
10.53288
10.532704
10.531682
10.531969
10.531602
10.532203
10.532182
10.532644
10.53288
10.532203
10.532332
10.532362
10.53246
10.532704
10.532182
10.532362
10.532268
12.230013
12.230164
12.229722
12.230577
12.230382
12.230164
12.22983
12.22976
12.230625
12.23052
12.229722
12.22976
12.229158
12.22968
12.229792
12.230577
12.230625
12.22968
12.229683
12.23004
12.230382
12.23052
12.229792
12.23004
12.230106
12.100401
12.100098
12.100155
12.10065
12.100476
12.100098
12.10019
12.099815
12.100412
12.100437
12.100155
12.099815
12.099001
12.099272
12.099554
12.10065
12.100412
12.099272
12.099064
12.099884
12.100476
12.100437
12.099554
12.099884
12.100177
8.3365888
8.335524
8.336486
8.3363391
8.3362332
8.335524
8.336325
8.3357231
8.3357767
8.335977
8.336486
8.3357231
8.334883
8.3347034
8.3351214
8.3363391
8.3357767
8.3347034
8.3342283
8.3355675
8.3362332
8.335977
8.3351214
8.3355675
8.3360796
-1.5761004
-1.5781814
-1.5759508
-1.5769072
-1.5768737
-1.5781814
-1.5765341
-1.5770092
-1.5777106
-1.5773389
-1.5759508
-1.5770092
-1.5774281
-1.5781855
-1.5778164
-1.5769072
-1.5777106
-1.5781855
-1.5788775
-1.5771963
-1.5768737
-1.5773389
-1.5778164
-1.5771963
-1.5766547
-20.345584
-20.3486
-20.34514
-20.346763
-20.346498
-20.3486
-20.346459
-20.34623
-20.347662
-20.347196
-20.34514
-20.34623
-20.345598
-20.346862
-20.346902
-20.346763
-20.347662
-20.346862
-20.347569
-20.346114
-20.346498
-20.347196
-20.346902
-20.346114
-20.345994
-48.748526
-48.75166
-48.747914
-48.749691
-48.749127
-48.75166
-48.750086
-48.748894
-48.750765
-48.7503
-48.747914
-48.748894
-48.746976
-48.748512
-48.749269
-48.749691
-48.750765
-48.748512
-48.74908
-48.74871
-48.749127
-48.7503
-48.749269
-48.74871
-48.749464
-79.818014
-79.819569
-79.817347
-79.818742
-79.817938
-79.819569
-79.819482
-79.818145
-79.820207
-79.819654
-79.817347
-79.818145
-79.815883
-79.817645
-79.81868
-79.818742
-79.820207
-79.817645
-79.818449
-79.819435
-79.817938
-79.819654
-79.81868
-79.819435
-79.820342
-86.972407
-86.970904
-86.970891
-86.971843
-86.971076
-86.970904
-86.97037
-86.969923
-86.972213
-86.971181
-86.970891
-86.969923
-86.968553
-86.970774
-86.970419
-86.971843
-86.972213
-86.970774
-86.972555
-86.973451
-86.971076
-86.971181
-86.970419
-86.973451
-86.971467
1025.4458
1025.4473
1025.4469
1025.4461
1025.4461
1025.4473
1025.4485
1025.4488
1025.4465
1025.4463
1025.4469
1025.4488
1025.4496
1025.4474
1025.4472
1025.4461
1025.4465
1025.4474
1025.4452
1025.443
1025.4461
1025.4463
1025.4472
1025.443
1025.4469
)
;

boundaryField
{
    wall_minX
    {
        type            extrapolatedCalculated;
        value           nonuniform List<scalar> 
100
(
-0.12223495
-0.12222254
-0.12219677
-0.12221748
-0.12222018
-0.32836331
-0.32832629
-0.32831491
-0.32833947
-0.32834625
-0.41845531
-0.41839188
-0.41841889
-0.4184231
-0.41843113
-0.31208125
-0.31198946
-0.31206429
-0.3120217
-0.31203732
0.073584884
0.073718131
0.073578857
0.073702707
0.073676838
0.81992085
0.82010845
0.81988377
0.82012349
0.82008203
1.9971218
1.9973754
1.9970447
1.9974339
1.9973705
3.6454159
3.6457413
3.6452905
3.645855
3.6457635
5.7424658
5.7428548
5.7422862
5.7430331
5.7429089
8.1501979
8.1506147
8.149964
8.1508633
8.150706
10.53196
10.532321
10.531682
10.532644
10.53246
12.230013
12.230164
12.229722
12.230577
12.230382
12.100401
12.100098
12.100155
12.10065
12.100476
8.3365888
8.335524
8.336486
8.3363391
8.3362332
-1.5761004
-1.5781814
-1.5759508
-1.5769072
-1.5768737
-20.345584
-20.3486
-20.34514
-20.346763
-20.346498
-48.748526
-48.75166
-48.747914
-48.749691
-48.749127
-79.818014
-79.819569
-79.817347
-79.818742
-79.817938
-86.972407
-86.970904
-86.970891
-86.971843
-86.971076
1025.4458
1025.4473
1025.4469
1025.4461
1025.4461
)
;
    }
    wall_maxX
    {
        type            extrapolatedCalculated;
        value           nonuniform List<scalar> 
100
(
-0.12222018
-0.12220726
-0.12220292
-0.12220139
-0.12220461
-0.32834625
-0.32832989
-0.32831738
-0.32830765
-0.32833155
-0.41843113
-0.41840267
-0.41837751
-0.4183659
-0.41841539
-0.31203732
-0.31198488
-0.31194735
-0.31194062
-0.31201751
0.073676838
0.073763349
0.073805366
0.073808818
0.073700087
0.82008203
0.82021155
0.82024206
0.82024778
0.82010437
1.9973705
1.9975493
1.9975446
1.9975611
1.9973839
3.6457635
3.6459921
3.6459202
3.6459587
3.6457556
5.7429089
5.743177
5.7429984
5.7430717
5.7428618
8.150706
8.1509862
8.1506565
8.1507776
8.1505971
10.53246
10.532704
10.532182
10.532362
10.532268
12.230382
12.23052
12.229792
12.23004
12.230106
12.100476
12.100437
12.099554
12.099884
12.100177
8.3362332
8.335977
8.3351214
8.3355675
8.3360796
-1.5768737
-1.5773389
-1.5778164
-1.5771963
-1.5766547
-20.346498
-20.347196
-20.346902
-20.346114
-20.345994
-48.749127
-48.7503
-48.749269
-48.74871
-48.749464
-79.817938
-79.819654
-79.81868
-79.819435
-79.820342
-86.971076
-86.971181
-86.970419
-86.973451
-86.971467
1025.4461
1025.4463
1025.4472
1025.443
1025.4469
)
;
    }
    wall_minY
    {
        type            extrapolatedCalculated;
        value           nonuniform List<scalar> 
100
(
-0.12223495
-0.32836331
-0.41845531
-0.31208125
0.073584884
0.81992085
1.9971218
3.6454159
5.7424658
8.1501979
10.53196
12.230013
12.100401
8.3365888
-1.5761004
-20.345584
-48.748526
-79.818014
-86.972407
1025.4458
-0.12222254
-0.32832629
-0.41839188
-0.31198946
0.073718131
0.82010845
1.9973754
3.6457413
5.7428548
8.1506147
10.532321
12.230164
12.100098
8.335524
-1.5781814
-20.3486
-48.75166
-79.819569
-86.970904
1025.4473
-0.12219677
-0.32831491
-0.41841889
-0.31206429
0.073578857
0.81988377
1.9970447
3.6452905
5.7422862
8.149964
10.531682
12.229722
12.100155
8.336486
-1.5759508
-20.34514
-48.747914
-79.817347
-86.970891
1025.4469
-0.12221748
-0.32833947
-0.4184231
-0.3120217
0.073702707
0.82012349
1.9974339
3.645855
5.7430331
8.1508633
10.532644
12.230577
12.10065
8.3363391
-1.5769072
-20.346763
-48.749691
-79.818742
-86.971843
1025.4461
-0.12222018
-0.32834625
-0.41843113
-0.31203732
0.073676838
0.82008203
1.9973705
3.6457635
5.7429089
8.150706
10.53246
12.230382
12.100476
8.3362332
-1.5768737
-20.346498
-48.749127
-79.817938
-86.971076
1025.4461
)
;
    }
    wall_maxY
    {
        type            extrapolatedCalculated;
        value           nonuniform List<scalar> 
100
(
-0.12222018
-0.32834625
-0.41843113
-0.31203732
0.073676838
0.82008203
1.9973705
3.6457635
5.7429089
8.150706
10.53246
12.230382
12.100476
8.3362332
-1.5768737
-20.346498
-48.749127
-79.817938
-86.971076
1025.4461
-0.12220726
-0.32832989
-0.41840267
-0.31198488
0.073763349
0.82021155
1.9975493
3.6459921
5.743177
8.1509862
10.532704
12.23052
12.100437
8.335977
-1.5773389
-20.347196
-48.7503
-79.819654
-86.971181
1025.4463
-0.12220292
-0.32831738
-0.41837751
-0.31194735
0.073805366
0.82024206
1.9975446
3.6459202
5.7429984
8.1506565
10.532182
12.229792
12.099554
8.3351214
-1.5778164
-20.346902
-48.749269
-79.81868
-86.970419
1025.4472
-0.12220139
-0.32830765
-0.4183659
-0.31194062
0.073808818
0.82024778
1.9975611
3.6459587
5.7430717
8.1507776
10.532362
12.23004
12.099884
8.3355675
-1.5771963
-20.346114
-48.74871
-79.819435
-86.973451
1025.443
-0.12220461
-0.32833155
-0.41841539
-0.31201751
0.073700087
0.82010437
1.9973839
3.6457556
5.7428618
8.1505971
10.532268
12.230106
12.100177
8.3360796
-1.5766547
-20.345994
-48.749464
-79.820342
-86.971467
1025.4469
)
;
    }
    inlet_minZ
    {
        type            extrapolatedCalculated;
        value           nonuniform List<scalar> 
25
(
-0.12223495
-0.12222254
-0.12219677
-0.12221748
-0.12222018
-0.12222254
-0.12218105
-0.12218191
-0.12220055
-0.12220726
-0.12219677
-0.12218191
-0.12217739
-0.12219237
-0.12220292
-0.12221748
-0.12220055
-0.12219237
-0.12219838
-0.12220139
-0.12222018
-0.12220726
-0.12220292
-0.12220139
-0.12220461
)
;
    }
    outlet_maxZ
    {
        type            extrapolatedCalculated;
        value           nonuniform List<scalar> 
25
(
1025.4458
1025.4473
1025.4469
1025.4461
1025.4461
1025.4473
1025.4485
1025.4488
1025.4465
1025.4463
1025.4469
1025.4488
1025.4496
1025.4474
1025.4472
1025.4461
1025.4465
1025.4474
1025.4452
1025.443
1025.4461
1025.4463
1025.4472
1025.443
1025.4469
)
;
    }
}


// ************************************************************************* //
