/*--------------------------------*- C++ -*----------------------------------*\
| =========                 |                                                 |
| \\      /  F ield         | OpenFOAM: The Open Source CFD Toolbox           |
|  \\    /   O peration     | Version:  v2106                                 |
|   \\  /    A nd           | Website:  www.openfoam.com                      |
|    \\/     M anipulation  |                                                 |
\*---------------------------------------------------------------------------*/
FoamFile
{
    version     2.0;
    format      ascii;
    arch        "LSB;label=32;scalar=64";
    class       volVectorField;
    location    "10";
    object      Tmode_grad1;
}
// * * * * * * * * * * * * * * * * * * * * * * * * * * * * * * * * * * * * * //

dimensions      [0 -1 0 0 0 0 0];

internalField   nonuniform List<vector> 
500
(
(-1.2727239e-08 -1.272723e-08 -0.14882755)
(-5.6862313e-08 -6.0261013e-08 -0.14882759)
(1.4646186e-07 2.1321704e-08 -0.14882764)
(2.6144925e-07 1.9961454e-08 -0.14882697)
(5.1477361e-08 1.6768119e-08 -0.1488267)
(-6.0260986e-08 -5.6862322e-08 -0.14882759)
(-5.7888417e-09 -5.7888275e-09 -0.14882782)
(2.6679551e-07 1.0806719e-07 -0.14882749)
(2.5461891e-07 6.7496879e-08 -0.14882684)
(4.8284024e-08 4.6623285e-08 -0.14882659)
(2.1321686e-08 1.4646185e-07 -0.14882764)
(1.080672e-07 2.6679551e-07 -0.14882749)
(2.1974757e-07 2.1974757e-07 -0.14882722)
(2.0000535e-07 1.1333537e-07 -0.14882672)
(3.7561631e-08 4.9118353e-08 -0.14882653)
(1.9961455e-08 2.6144926e-07 -0.14882697)
(6.7496879e-08 2.5461891e-07 -0.14882684)
(1.1333537e-07 2.0000535e-07 -0.14882672)
(8.3989693e-08 8.3989693e-08 -0.14882647)
(5.4726779e-09 2.089144e-08 -0.14882645)
(1.6768119e-08 5.147736e-08 -0.1488267)
(4.6623285e-08 4.8284024e-08 -0.14882659)
(4.9118353e-08 3.7561631e-08 -0.14882653)
(2.089144e-08 5.4726778e-09 -0.14882645)
(-4.5038706e-09 -4.5038707e-09 -0.14882648)
(-1.345825e-09 -1.3458251e-09 -0.15638147)
(2.8786089e-08 -5.2951314e-08 -0.15638141)
(4.768177e-07 8.4317261e-08 -0.15638124)
(6.3086809e-07 7.2813327e-08 -0.15638079)
(1.2323681e-07 5.7755937e-08 -0.15638064)
(-5.2951314e-08 2.8786089e-08 -0.15638141)
(1.5728072e-07 1.5728072e-07 -0.15638136)
(6.6546466e-07 3.1332081e-07 -0.1563811)
(5.910261e-07 1.8255735e-07 -0.15638069)
(1.0817942e-07 1.0918152e-07 -0.15638056)
(8.4317262e-08 4.768177e-07 -0.15638124)
(3.1332081e-07 6.6546466e-07 -0.1563811)
(5.0209433e-07 5.0209433e-07 -0.15638094)
(4.267288e-07 2.1305238e-07 -0.15638069)
(7.4319592e-08 5.4242929e-08 -0.15638063)
(7.2813327e-08 6.3086809e-07 -0.15638079)
(1.8255735e-07 5.910261e-07 -0.15638069)
(2.1305239e-07 4.267288e-07 -0.15638069)
(1.431747e-07 1.431747e-07 -0.15638063)
(2.3064495e-09 1.7322163e-08 -0.15638065)
(5.7755937e-08 1.2323681e-07 -0.15638064)
(1.0918152e-07 1.0817942e-07 -0.15638056)
(5.4242928e-08 7.4319592e-08 -0.15638063)
(1.7322164e-08 2.3064491e-09 -0.15638065)
(-9.5820999e-09 -9.5821003e-09 -0.15638067)
(3.1861761e-08 3.1861761e-08 -0.17023815)
(1.807725e-07 -3.1099025e-08 -0.17023807)
(7.5930804e-07 1.1470102e-07 -0.17023792)
(8.5618853e-07 8.9626682e-08 -0.17023763)
(1.5324023e-07 6.8390355e-08 -0.17023757)
(-3.1099025e-08 1.807725e-07 -0.17023807)
(3.0503139e-07 3.0503139e-07 -0.17023802)
(9.403966e-07 3.9957663e-07 -0.17023788)
(7.8672254e-07 1.7031709e-07 -0.17023764)
(1.3200391e-07 6.0075783e-08 -0.1702376)
(1.1470102e-07 7.5930804e-07 -0.17023792)
(3.9957663e-07 9.403966e-07 -0.17023788)
(6.2459375e-07 6.2459375e-07 -0.17023789)
(5.1668768e-07 1.7565073e-07 -0.17023779)
(7.9746028e-08 -3.5141018e-08 -0.17023779)
(8.9626683e-08 8.5618853e-07 -0.17023763)
(1.7031709e-07 7.8672254e-07 -0.17023764)
(1.7565073e-07 5.1668768e-07 -0.17023779)
(1.2698777e-07 1.2698777e-07 -0.17023784)
(-8.5239269e-09 -2.3241885e-08 -0.17023785)
(6.8390355e-08 1.5324023e-07 -0.17023757)
(6.0075785e-08 1.3200391e-07 -0.1702376)
(-3.5141018e-08 7.9746028e-08 -0.17023779)
(-2.3241885e-08 -8.5239269e-09 -0.17023785)
(-2.0407077e-08 -2.0407077e-08 -0.17023788)
(5.7861122e-08 5.7861122e-08 -0.19077314)
(2.6561514e-07 -2.1684413e-08 -0.1907731)
(9.1073298e-07 1.1286859e-07 -0.19077307)
(9.7686381e-07 6.8665118e-08 -0.19077295)
(1.6330286e-07 4.1729163e-08 -0.19077295)
(-2.1684413e-08 2.6561514e-07 -0.1907731)
(3.4812634e-07 3.4812634e-07 -0.19077311)
(1.0462573e-06 3.4529933e-07 -0.19077313)
(8.7015468e-07 2.0742296e-08 -0.19077306)
(1.3636691e-07 -1.0869565e-07 -0.19077308)
(1.1286859e-07 9.1073297e-07 -0.19077307)
(3.4529933e-07 1.0462573e-06 -0.19077313)
(5.8334893e-07 5.8334893e-07 -0.19077331)
(5.2286884e-07 1.2135581e-08 -0.19077336)
(7.7010901e-08 -2.0015584e-07 -0.19077339)
(6.8665118e-08 9.7686381e-07 -0.19077295)
(2.0742297e-08 8.7015468e-07 -0.19077306)
(1.2135581e-08 5.2286884e-07 -0.19077336)
(8.6649906e-08 8.6649906e-08 -0.1907735)
(-5.1607034e-09 -7.1692429e-08 -0.19077348)
(4.1729164e-08 1.6330286e-07 -0.19077295)
(-1.0869565e-07 1.3636691e-07 -0.19077308)
(-2.0015584e-07 7.7010901e-08 -0.19077339)
(-7.1692429e-08 -5.1607039e-09 -0.19077348)
(-2.8550655e-08 -2.8550655e-08 -0.1907735)
(5.6088438e-08 5.6088438e-08 -0.21758517)
(2.4817447e-07 -3.6572657e-08 -0.21758522)
(9.1679568e-07 7.4471931e-08 -0.21758529)
(9.7624283e-07 1.2959798e-08 -0.21758533)
(1.4899265e-07 -1.5944541e-08 -0.21758541)
(-3.6572658e-08 2.4817447e-07 -0.21758522)
(2.7574971e-07 2.7574971e-07 -0.21758529)
(9.9109436e-07 1.5965842e-07 -0.21758546)
(8.4061813e-07 -2.4417027e-07 -0.21758555)
(1.2008831e-07 -3.746227e-07 -0.21758562)
(7.4471931e-08 9.1679568e-07 -0.21758529)
(1.5965842e-07 9.9109436e-07 -0.21758546)
(3.968757e-07 3.968757e-07 -0.21758578)
(4.4196172e-07 -2.6063335e-07 -0.21758596)
(6.202436e-08 -4.3720925e-07 -0.21758602)
(1.2959799e-08 9.7624283e-07 -0.21758533)
(-2.4417027e-07 8.4061813e-07 -0.21758555)
(-2.6063335e-07 4.4196172e-07 -0.21758596)
(6.5331764e-09 6.5331764e-09 -0.21758618)
(2.3710417e-09 -1.3582481e-07 -0.21758616)
(-1.594454e-08 1.4899265e-07 -0.21758541)
(-3.746227e-07 1.2008831e-07 -0.21758562)
(-4.3720925e-07 6.2024361e-08 -0.21758602)
(-1.3582481e-07 2.3710416e-09 -0.21758616)
(-3.2880962e-08 -3.2880962e-08 -0.21758616)
(2.6288399e-08 2.6288399e-08 -0.249964)
(1.4189406e-07 -7.147723e-08 -0.24996413)
(7.9422493e-07 8.6789488e-10 -0.24996429)
(8.6179102e-07 -7.5287845e-08 -0.24996451)
(1.1335171e-07 -1.0153874e-07 -0.24996464)
(-7.147723e-08 1.4189406e-07 -0.24996413)
(1.0376331e-07 1.0376331e-07 -0.24996426)
(7.88509e-07 -1.4209216e-07 -0.24996457)
(7.0818106e-07 -6.0554009e-07 -0.24996482)
(8.7100806e-08 -7.1939891e-07 -0.24996494)
(8.678954e-10 7.9422493e-07 -0.24996429)
(-1.4209216e-07 7.8850901e-07 -0.24996457)
(8.4921524e-08 8.4921524e-08 -0.24996501)
(2.8448426e-07 -6.2029012e-07 -0.24996532)
(3.7445827e-08 -7.3339467e-07 -0.2499654)
(-7.5287845e-08 8.6179102e-07 -0.24996451)
(-6.0554009e-07 7.0818106e-07 -0.24996482)
(-6.2029012e-07 2.8448426e-07 -0.24996532)
(-1.1013514e-07 -1.1013513e-07 -0.24996562)
(1.1697769e-08 -2.1518942e-07 -0.24996558)
(-1.0153874e-07 1.1335171e-07 -0.24996464)
(-7.1939891e-07 8.7100806e-08 -0.24996494)
(-7.3339467e-07 3.7445827e-08 -0.2499654)
(-2.1518942e-07 1.169777e-08 -0.24996558)
(-3.2590367e-08 -3.2590366e-08 -0.24996557)
(-3.2731816e-08 -3.2731816e-08 -0.2867269)
(-4.5109089e-08 -1.2219567e-07 -0.28672713)
(5.4387094e-07 -1.0999165e-07 -0.28672735)
(6.253209e-07 -1.9763505e-07 -0.28672776)
(5.6959062e-08 -2.1558154e-07 -0.28672796)
(-1.2219567e-07 -4.510909e-08 -0.28672713)
(-1.6099883e-07 -1.6099883e-07 -0.28672729)
(4.3071187e-07 -5.5879368e-07 -0.28672774)
(4.6693605e-07 -1.056307e-06 -0.28672819)
(3.9012572e-08 -1.1334321e-06 -0.28672835)
(-1.0999165e-07 5.4387094e-07 -0.28672735)
(-5.5879368e-07 4.3071187e-07 -0.28672774)
(-3.5143719e-07 -3.5143719e-07 -0.2867283)
(5.0682495e-08 -1.05454e-06 -0.28672875)
(5.5423124e-09 -1.0751683e-06 -0.28672885)
(-1.9763505e-07 6.253209e-07 -0.28672776)
(-1.056307e-06 4.6693605e-07 -0.28672819)
(-1.05454e-06 5.0682495e-08 -0.28672875)
(-2.5679508e-07 -2.5679508e-07 -0.28672912)
(2.526036e-08 -3.0117041e-07 -0.28672906)
(-2.1558154e-07 5.6959062e-08 -0.28672796)
(-1.1334321e-06 3.9012573e-08 -0.28672835)
(-1.0751683e-06 5.5423125e-09 -0.28672885)
(-3.0117041e-07 2.526036e-08 -0.28672906)
(-2.4041242e-08 -2.4041242e-08 -0.28672902)
(-1.2431963e-07 -1.2431963e-07 -0.32599615)
(-3.0806828e-07 -1.8409851e-07 -0.32599648)
(1.5736399e-07 -2.6188716e-07 -0.32599674)
(2.4713538e-07 -3.570713e-07 -0.3259974)
(-2.121164e-08 -3.5962362e-07 -0.32599766)
(-1.8409851e-07 -3.0806828e-07 -0.32599648)
(-5.1441959e-07 -5.1441959e-07 -0.32599667)
(-1.0209519e-07 -1.0936438e-06 -0.32599726)
(1.0053069e-07 -1.5904328e-06 -0.32599793)
(-2.3763966e-08 -1.6061875e-06 -0.32599814)
(-2.6188716e-07 1.5736399e-07 -0.32599674)
(-1.0936438e-06 -1.0209519e-07 -0.32599726)
(-9.1864926e-07 -9.1864925e-07 -0.32599792)
(-2.6540835e-07 -1.5511791e-06 -0.32599853)
(-3.1714781e-08 -1.4440341e-06 -0.32599864)
(-3.570713e-07 2.4713538e-07 -0.3259974)
(-1.5904328e-06 1.0053069e-07 -0.32599793)
(-1.5511791e-06 -2.6540835e-07 -0.32599853)
(-4.2485418e-07 -4.2485418e-07 -0.32599896)
(4.766601e-08 -3.7893791e-07 -0.32599887)
(-3.5962362e-07 -2.1211639e-08 -0.32599766)
(-1.6061876e-06 -2.3763965e-08 -0.32599814)
(-1.4440341e-06 -3.1714781e-08 -0.32599864)
(-3.7893791e-07 4.766601e-08 -0.32599887)
(-1.1039295e-09 -1.1039295e-09 -0.32599877)
(-2.5221918e-07 -2.5221918e-07 -0.36490232)
(-6.3531065e-07 -2.487909e-07 -0.36490276)
(-3.6988694e-07 -4.5663176e-07 -0.36490301)
(-2.957355e-07 -5.5448021e-07 -0.36490394)
(-1.2188696e-07 -5.3296921e-07 -0.36490427)
(-2.487909e-07 -6.3531065e-07 -0.36490276)
(-9.4192952e-07 -9.4192952e-07 -0.36490293)
(-8.2842091e-07 -1.7397485e-06 -0.36490364)
(-4.1024167e-07 -2.1889176e-06 -0.36490458)
(-1.0037596e-07 -2.1138366e-06 -0.36490482)
(-4.5663176e-07 -3.6988693e-07 -0.36490301)
(-1.7397485e-06 -8.2842091e-07 -0.36490364)
(-1.616875e-06 -1.616875e-06 -0.36490437)
(-6.6982357e-07 -2.0852935e-06 -0.36490515)
(-7.1832957e-08 -1.8071735e-06 -0.36490527)
(-5.5448021e-07 -2.957355e-07 -0.36490394)
(-2.1889176e-06 -4.1024167e-07 -0.36490458)
(-2.0852935e-06 -6.6982357e-07 -0.36490515)
(-6.0054016e-07 -6.0054016e-07 -0.36490563)
(8.5037342e-08 -4.2583916e-07 -0.36490548)
(-5.3296921e-07 -1.2188696e-07 -0.36490427)
(-2.1138366e-06 -1.0037596e-07 -0.36490482)
(-1.8071735e-06 -7.1832957e-08 -0.36490527)
(-4.2583916e-07 8.5037342e-08 -0.36490548)
(4.4634379e-08 4.4634379e-08 -0.3649053)
(-4.1794432e-07 -4.1794432e-07 -0.39919195)
(-9.9457185e-07 -2.9952697e-07 -0.3991925)
(-1.0215266e-06 -6.8829676e-07 -0.39919263)
(-1.0185321e-06 -7.8323449e-07 -0.39919387)
(-2.4310725e-07 -7.2791741e-07 -0.39919425)
(-2.9952697e-07 -9.9457185e-07 -0.3991925)
(-1.4001005e-06 -1.4001005e-06 -0.39919259)
(-1.7470879e-06 -2.4593759e-06 -0.39919335)
(-1.0779631e-06 -2.8002834e-06 -0.39919457)
(-1.8779016e-07 -2.602414e-06 -0.39919484)
(-6.8829676e-07 -1.0215266e-06 -0.39919263)
(-2.4593759e-06 -1.7470879e-06 -0.39919335)
(-2.4217095e-06 -2.4217095e-06 -0.39919405)
(-1.1615702e-06 -2.6026511e-06 -0.39919499)
(-1.111943e-07 -2.1041826e-06 -0.3991951)
(-7.8323449e-07 -1.0185321e-06 -0.39919387)
(-2.8002834e-06 -1.0779631e-06 -0.39919457)
(-2.6026511e-06 -1.1615702e-06 -0.39919499)
(-7.6043613e-07 -7.6043613e-07 -0.39919548)
(1.4452217e-07 -4.0860133e-07 -0.39919526)
(-7.2791741e-07 -2.4310725e-07 -0.39919425)
(-2.602414e-06 -1.8779016e-07 -0.39919484)
(-2.1041826e-06 -1.111943e-07 -0.3991951)
(-4.0860133e-07 1.4452217e-07 -0.39919526)
(1.2336223e-07 1.2336223e-07 -0.39919496)
(-6.1731528e-07 -6.1731528e-07 -0.42270965)
(-1.316605e-06 -3.0590998e-07 -0.42271028)
(-1.7371823e-06 -9.3417055e-07 -0.42271014)
(-1.9122775e-06 -1.020823e-06 -0.42271164)
(-3.7715154e-07 -9.2280727e-07 -0.42271204)
(-3.0590998e-07 -1.316605e-06 -0.42271028)
(-1.7918879e-06 -1.7918879e-06 -0.42271016)
(-2.8095519e-06 -3.1530035e-06 -0.42271082)
(-1.8952326e-06 -3.3125384e-06 -0.42271229)
(-2.791358e-07 -2.9651666e-06 -0.42271256)
(-9.3417055e-07 -1.7371823e-06 -0.42271014)
(-3.1530035e-06 -2.8095519e-06 -0.42271082)
(-3.2578328e-06 -3.2578328e-06 -0.4227113)
(-1.7244407e-06 -2.9978226e-06 -0.42271236)
(-1.4557037e-07 -2.2312806e-06 -0.42271246)
(-1.020823e-06 -1.9122776e-06 -0.42271164)
(-3.3125384e-06 -1.8952326e-06 -0.42271229)
(-2.9978226e-06 -1.7244407e-06 -0.42271236)
(-8.6868044e-07 -8.6868044e-07 -0.42271278)
(2.3189219e-07 -2.8383234e-07 -0.42271248)
(-9.2280727e-07 -3.7715154e-07 -0.42271204)
(-2.9651666e-06 -2.791358e-07 -0.42271256)
(-2.2312806e-06 -1.4557037e-07 -0.42271246)
(-2.8383234e-07 2.3189219e-07 -0.42271248)
(2.4432836e-07 2.4432836e-07 -0.42271206)
(-8.3676278e-07 -8.3676278e-07 -0.42671434)
(-1.4822018e-06 -2.2106932e-07 -0.42671499)
(-2.3866601e-06 -1.1429519e-06 -0.42671436)
(-2.9200865e-06 -1.2181573e-06 -0.42671601)
(-5.0698933e-07 -1.0741143e-06 -0.42671635)
(-2.2106932e-07 -1.4822018e-06 -0.42671499)
(-1.9414855e-06 -1.9414855e-06 -0.42671452)
(-3.8822921e-06 -3.6201962e-06 -0.42671479)
(-2.81683e-06 -3.5202255e-06 -0.42671642)
(-3.6294629e-07 -3.0199123e-06 -0.42671664)
(-1.1429519e-06 -2.3866601e-06 -0.42671436)
(-3.6201962e-06 -3.8822921e-06 -0.42671479)
(-3.9654002e-06 -3.9654002e-06 -0.42671474)
(-2.3198026e-06 -3.0913473e-06 -0.42671581)
(-1.7344716e-07 -2.030544e-06 -0.4267159)
(-1.2181573e-06 -2.9200865e-06 -0.42671601)
(-3.5202255e-06 -2.81683e-06 -0.42671642)
(-3.0913473e-06 -2.3198026e-06 -0.42671581)
(-8.8197384e-07 -8.8197384e-07 -0.42671605)
(3.4425589e-07 -1.0180908e-08 -0.42671571)
(-1.0741143e-06 -5.0698933e-07 -0.42671635)
(-3.0199123e-06 -3.6294629e-07 -0.42671664)
(-2.030544e-06 -1.7344716e-07 -0.4267159)
(-1.0180907e-08 3.4425589e-07 -0.42671571)
(4.0774813e-07 4.0774813e-07 -0.4267152)
(-1.0512479e-06 -1.0512479e-06 -0.39898754)
(-1.3306876e-06 9.5782436e-09 -0.39898812)
(-2.7577009e-06 -1.2264326e-06 -0.39898678)
(-3.9091256e-06 -1.2927873e-06 -0.39898833)
(-6.034936e-07 -1.1141076e-06 -0.39898851)
(9.5782439e-09 -1.3306876e-06 -0.39898812)
(-1.5934647e-06 -1.5934647e-06 -0.39898717)
(-4.7112492e-06 -3.5333391e-06 -0.39898667)
(-3.7406381e-06 -3.1092877e-06 -0.39898822)
(-4.2481395e-07 -2.5102749e-06 -0.39898836)
(-1.2264326e-06 -2.7577009e-06 -0.39898678)
(-3.5333391e-06 -4.7112492e-06 -0.39898667)
(-4.2735239e-06 -4.2735239e-06 -0.39898564)
(-2.8860615e-06 -2.6251251e-06 -0.39898653)
(-2.0415179e-07 -1.3063822e-06 -0.39898668)
(-1.2927873e-06 -3.9091256e-06 -0.39898833)
(-3.1092877e-06 -3.7406381e-06 -0.39898822)
(-2.6251251e-06 -2.8860615e-06 -0.39898653)
(-7.7349641e-07 -7.7349641e-07 -0.39898645)
(4.5434797e-07 4.1432937e-07 -0.39898624)
(-1.1141076e-06 -6.034936e-07 -0.39898851)
(-2.5102749e-06 -4.2481395e-07 -0.39898836)
(-1.3063822e-06 -2.0415179e-07 -0.39898668)
(4.1432938e-07 4.5434797e-07 -0.39898624)
(5.8773207e-07 5.8773207e-07 -0.39898579)
(-1.2257011e-06 -1.2257011e-06 -0.32272928)
(-7.2163016e-07 4.1213878e-07 -0.32272968)
(-2.5961294e-06 -1.0720928e-06 -0.32272762)
(-4.6526187e-06 -1.1428024e-06 -0.32272868)
(-6.2637852e-07 -9.6914683e-07 -0.32272857)
(4.1213878e-07 -7.2163016e-07 -0.32272968)
(-4.9121765e-07 -4.9121765e-07 -0.32272833)
(-4.9285412e-06 -2.4834179e-06 -0.32272669)
(-4.4981998e-06 -1.7188461e-06 -0.3227278)
(-4.5272293e-07 -1.1842555e-06 -0.32272783)
(-1.0720928e-06 -2.5961294e-06 -0.32272762)
(-2.4834179e-06 -4.9285412e-06 -0.32272669)
(-3.8237578e-06 -3.8237578e-06 -0.32272429)
(-3.3534563e-06 -1.3225554e-06 -0.32272474)
(-2.6998479e-07 8.6256087e-08 -0.32272508)
(-1.1428024e-06 -4.6526187e-06 -0.32272868)
(-1.7188461e-06 -4.4981998e-06 -0.3227278)
(-1.3225554e-06 -3.3534563e-06 -0.32272474)
(-5.8818586e-07 -5.8818586e-07 -0.32272426)
(4.8648474e-07 8.7765299e-07 -0.32272449)
(-9.6914683e-07 -6.2637852e-07 -0.32272857)
(-1.1842555e-06 -4.5272293e-07 -0.32272783)
(8.6256088e-08 -2.6998479e-07 -0.32272508)
(8.7765299e-07 4.8648474e-07 -0.32272449)
(7.0724111e-07 7.0724111e-07 -0.32272444)
(-1.3163643e-06 -1.3163643e-06 -0.17540209)
(3.2707021e-07 9.1116201e-07 -0.17540213)
(-1.7543938e-06 -6.035326e-07 -0.17539988)
(-4.8568138e-06 -7.0646995e-07 -0.1754)
(-5.338689e-07 -6.1687389e-07 -0.17539952)
(9.1116201e-07 3.2707021e-07 -0.17540213)
(1.3963178e-06 1.3963178e-06 -0.17540086)
(-4.1808417e-06 -1.9705333e-07 -0.17539812)
(-4.8768257e-06 8.273453e-07 -0.17539839)
(-4.4427284e-07 9.8097902e-07 -0.17539833)
(-6.035326e-07 -1.7543938e-06 -0.17539988)
(-1.9705333e-07 -4.1808417e-06 -0.17539812)
(-2.3233662e-06 -2.3233662e-06 -0.17539438)
(-3.6787814e-06 9.1315743e-07 -0.1753942)
(-4.3144642e-07 2.0281373e-06 -0.17539492)
(-7.0646995e-07 -4.8568138e-06 -0.1754)
(8.273453e-07 -4.8768257e-06 -0.17539839)
(9.1315743e-07 -3.6787814e-06 -0.1753942)
(-5.2532218e-07 -5.2532218e-07 -0.17539345)
(2.9904708e-07 1.0568565e-06 -0.17539461)
(-6.1687389e-07 -5.338689e-07 -0.17539952)
(9.8097903e-07 -4.4427284e-07 -0.17539833)
(2.0281373e-06 -4.3144642e-07 -0.17539492)
(1.0568565e-06 2.9904708e-07 -0.17539461)
(6.2333937e-07 6.2333936e-07 -0.17539541)
(-1.2547835e-06 -1.2547835e-06 0.07188858)
(1.483802e-06 1.2616261e-06 0.07188921)
(-4.6204211e-07 1.0394649e-07 0.071890428)
(-4.2889609e-06 -7.2975123e-08 0.071891431)
(-3.0729437e-07 -1.743253e-07 0.071892239)
(1.2616261e-06 1.483802e-06 0.07188921)
(3.521897e-06 3.521897e-06 0.071889566)
(-2.463944e-06 3.0150033e-06 0.071892447)
(-4.7063686e-06 4.0763823e-06 0.071893149)
(-4.0864455e-07 3.4152373e-06 0.07189328)
(1.0394649e-07 -4.6204211e-07 0.071890428)
(3.0150033e-06 -2.463944e-06 0.071892447)
(9.2443204e-08 9.2443204e-08 0.071896426)
(-3.8887269e-06 3.6169306e-06 0.071897133)
(-7.480577e-07 3.8056051e-06 0.071896004)
(-7.2975123e-08 -4.2889609e-06 0.071891431)
(4.0763823e-06 -4.7063686e-06 0.071893149)
(3.6169306e-06 -3.8887269e-06 0.071897133)
(-9.9320673e-07 -9.9320673e-07 0.071897584)
(-2.8286161e-07 3.8870738e-07 0.071895162)
(-1.743253e-07 -3.0729437e-07 0.071892239)
(3.4152373e-06 -4.0864455e-07 0.07189328)
(3.8056051e-06 -7.480577e-07 0.071896004)
(3.8870738e-07 -2.8286161e-07 0.071895162)
(1.7321837e-07 1.7321837e-07 0.071893264)
(-8.963219e-07 -8.963219e-07 0.45321652)
(2.1750978e-06 1.1482874e-06 0.45321838)
(4.668483e-07 7.4225897e-07 0.45321727)
(-3.0454792e-06 4.3902615e-07 0.45321893)
(4.8354286e-09 7.6705362e-08 0.45321975)
(1.1482874e-06 2.1750978e-06 0.45321838)
(4.6329691e-06 4.6329691e-06 0.45321755)
(-5.9704357e-07 5.8015897e-06 0.45321868)
(-4.0438096e-06 6.5287259e-06 0.45321986)
(-3.5748536e-07 4.745963e-06 0.45322005)
(7.4225897e-07 4.668483e-07 0.45321727)
(5.8015897e-06 -5.9704357e-07 0.45321868)
(2.3626051e-06 2.3626051e-06 0.45322061)
(-4.1011059e-06 5.347675e-06 0.45322117)
(-1.1836732e-06 3.910665e-06 0.45322013)
(4.3902615e-07 -3.0454792e-06 0.45321893)
(6.5287259e-06 -4.0438096e-06 0.45321986)
(5.347675e-06 -4.1011059e-06 0.45322117)
(-2.4957497e-06 -2.4957497e-06 0.45322032)
(-1.315492e-06 -1.6830504e-06 0.45321716)
(7.6705361e-08 4.8354295e-09 0.45321975)
(4.745963e-06 -3.5748536e-07 0.45322005)
(3.910665e-06 -1.1836732e-06 0.45322013)
(-1.6830504e-06 -1.315492e-06 0.45321716)
(-6.4187361e-07 -6.4187361e-07 0.45321502)
(-1.1860099e-08 -1.18601e-08 1.0033577)
(2.2352576e-06 7.0783522e-07 1.0033609)
(8.8263314e-08 1.0424219e-06 1.0033581)
(-1.8064351e-06 5.4313057e-07 1.0033596)
(2.3889958e-07 2.054863e-08 1.0033599)
(7.0783522e-07 2.2352576e-06 1.0033609)
(3.8166807e-06 3.8166807e-06 1.0033609)
(-1.5879365e-07 6.3537331e-06 1.0033597)
(-3.339245e-06 6.3100236e-06 1.0033606)
(-2.8368237e-07 3.7909052e-06 1.0033609)
(1.0424219e-06 8.8263315e-08 1.0033581)
(6.3537331e-06 -1.5879365e-07 1.0033597)
(2.5816062e-06 2.5816062e-06 1.0033584)
(-4.369263e-06 4.0780618e-06 1.0033583)
(-1.4405127e-06 9.1637174e-07 1.0033588)
(5.4313057e-07 -1.8064351e-06 1.0033596)
(6.3100236e-06 -3.339245e-06 1.0033606)
(4.0780618e-06 -4.369263e-06 1.0033583)
(-5.0044795e-06 -5.0044795e-06 1.003356)
(-2.3914757e-06 -4.7221752e-06 1.0033546)
(2.0548631e-08 2.3889958e-07 1.0033599)
(3.7909052e-06 -2.8368236e-07 1.0033609)
(9.1637173e-07 -1.4405127e-06 1.0033588)
(-4.7221752e-06 -2.3914757e-06 1.0033546)
(-1.2523098e-06 -1.2523098e-06 1.0033553)
(1.248888e-06 1.248888e-06 1.7467726)
(2.6192717e-06 1.139175e-06 1.746774)
(-8.1601124e-07 1.7698004e-06 1.746772)
(-1.291255e-06 1.0855713e-06 1.7467732)
(1.8046392e-07 7.9178686e-07 1.7467725)
(1.139175e-06 2.6192717e-06 1.746774)
(3.4006403e-06 3.4006403e-06 1.7467744)
(-8.9641677e-07 6.0849205e-06 1.7467725)
(-2.7582753e-06 5.1976118e-06 1.7467736)
(-1.1332056e-07 3.6295364e-06 1.7467733)
(1.7698004e-06 -8.1601124e-07 1.746772)
(6.0849205e-06 -8.9641677e-07 1.7467725)
(9.8096027e-07 9.8096027e-07 1.7467694)
(-3.7466391e-06 7.5564e-07 1.7467697)
(-8.6491965e-07 -2.4560182e-06 1.7467707)
(1.0855713e-06 -1.291255e-06 1.7467732)
(5.1976118e-06 -2.7582753e-06 1.7467736)
(7.5564e-07 -3.7466391e-06 1.7467697)
(-6.1952538e-06 -6.1952538e-06 1.7467687)
(-2.254426e-06 -5.1078831e-06 1.7467694)
(7.9178686e-07 1.8046392e-07 1.7467725)
(3.6295364e-06 -1.1332056e-07 1.7467733)
(-2.4560182e-06 -8.6491965e-07 1.7467707)
(-5.1078831e-06 -2.254426e-06 1.7467694)
(-1.400059e-07 -1.400059e-07 1.7467725)
(8.8138075e-07 8.8138075e-07 3.471213)
(1.5696164e-06 9.7833303e-07 3.4712091)
(-7.0865994e-07 1.3893687e-06 3.4712082)
(-1.3070268e-06 8.1471152e-07 3.4712111)
(-2.3388101e-07 5.8196704e-07 3.4712116)
(9.7833303e-07 1.5696164e-06 3.4712091)
(2.3315983e-06 2.3315983e-06 3.4712051)
(-9.540922e-07 3.785916e-06 3.4712022)
(-2.5181292e-06 2.8628274e-06 3.4712076)
(-4.6662549e-07 2.0213286e-06 3.4712091)
(1.3893687e-06 -7.0865994e-07 3.4712082)
(3.785916e-06 -9.540922e-07 3.4712022)
(-1.7743087e-07 -1.7743087e-07 3.4711965)
(-3.0716142e-06 -8.0309889e-07 3.4712019)
(-7.9488017e-07 -2.9457e-06 3.4712052)
(8.1471152e-07 -1.3070268e-06 3.4712111)
(2.8628274e-06 -2.5181292e-06 3.4712076)
(-8.0309889e-07 -3.0716142e-06 3.4712019)
(-5.2863984e-06 -5.2863984e-06 3.4712087)
(-1.8950262e-06 -2.932074e-06 3.4712166)
(5.8196704e-07 -2.33881e-07 3.4712116)
(2.0213286e-06 -4.6662549e-07 3.4712091)
(-2.9457e-06 -7.9488017e-07 3.4712052)
(-2.932074e-06 -1.8950262e-06 3.4712166)
(7.7466942e-07 7.7466942e-07 3.4712144)
)
;

boundaryField
{
    wall_minX
    {
        type            extrapolatedCalculated;
        value           nonuniform List<vector> 
100
(
(1.0755286e-13 -1.272723e-08 -0.14882755)
(0 -5.6862322e-08 -0.14882759)
(0 1.4646185e-07 -0.14882764)
(0 2.6144926e-07 -0.14882697)
(0 5.147736e-08 -0.1488267)
(0 -1.3458251e-09 -0.15638147)
(0 2.8786089e-08 -0.15638141)
(0 4.768177e-07 -0.15638124)
(0 6.3086809e-07 -0.15638079)
(0 1.2323681e-07 -0.15638064)
(0 3.1861761e-08 -0.17023815)
(0 1.807725e-07 -0.17023807)
(0 7.5930804e-07 -0.17023792)
(0 8.5618853e-07 -0.17023763)
(0 1.5324023e-07 -0.17023757)
(0 5.7861122e-08 -0.19077314)
(0 2.6561514e-07 -0.1907731)
(0 9.1073297e-07 -0.19077307)
(0 9.7686381e-07 -0.19077295)
(0 1.6330286e-07 -0.19077295)
(0 5.6088438e-08 -0.21758517)
(0 2.4817447e-07 -0.21758522)
(0 9.1679568e-07 -0.21758529)
(0 9.7624283e-07 -0.21758533)
(0 1.4899265e-07 -0.21758541)
(0 2.6288399e-08 -0.249964)
(0 1.4189406e-07 -0.24996413)
(0 7.9422493e-07 -0.24996429)
(0 8.6179102e-07 -0.24996451)
(0 1.1335171e-07 -0.24996464)
(0 -3.2731816e-08 -0.2867269)
(0 -4.510909e-08 -0.28672713)
(0 5.4387094e-07 -0.28672735)
(0 6.253209e-07 -0.28672776)
(0 5.6959062e-08 -0.28672796)
(0 -1.2431963e-07 -0.32599615)
(0 -3.0806828e-07 -0.32599648)
(0 1.5736399e-07 -0.32599674)
(0 2.4713538e-07 -0.3259974)
(0 -2.1211639e-08 -0.32599766)
(0 -2.5221918e-07 -0.36490232)
(0 -6.3531065e-07 -0.36490276)
(0 -3.6988693e-07 -0.36490301)
(0 -2.957355e-07 -0.36490394)
(0 -1.2188696e-07 -0.36490427)
(0 -4.1794432e-07 -0.39919195)
(0 -9.9457185e-07 -0.3991925)
(0 -1.0215266e-06 -0.39919263)
(0 -1.0185321e-06 -0.39919387)
(0 -2.4310725e-07 -0.39919425)
(0 -6.1731528e-07 -0.42270965)
(0 -1.316605e-06 -0.42271028)
(0 -1.7371823e-06 -0.42271014)
(0 -1.9122776e-06 -0.42271164)
(0 -3.7715154e-07 -0.42271204)
(0 -8.3676278e-07 -0.42671434)
(0 -1.4822018e-06 -0.42671499)
(0 -2.3866601e-06 -0.42671436)
(0 -2.9200865e-06 -0.42671601)
(0 -5.0698933e-07 -0.42671635)
(0 -1.0512479e-06 -0.39898754)
(0 -1.3306876e-06 -0.39898812)
(0 -2.7577009e-06 -0.39898678)
(0 -3.9091256e-06 -0.39898833)
(0 -6.034936e-07 -0.39898851)
(0 -1.2257011e-06 -0.32272928)
(0 -7.2163016e-07 -0.32272968)
(0 -2.5961294e-06 -0.32272762)
(0 -4.6526187e-06 -0.32272868)
(0 -6.2637852e-07 -0.32272857)
(0 -1.3163643e-06 -0.17540209)
(0 3.2707021e-07 -0.17540213)
(0 -1.7543938e-06 -0.17539988)
(0 -4.8568138e-06 -0.1754)
(0 -5.338689e-07 -0.17539952)
(0 -1.2547835e-06 0.07188858)
(0 1.483802e-06 0.07188921)
(0 -4.6204211e-07 0.071890428)
(0 -4.2889609e-06 0.071891431)
(0 -3.0729437e-07 0.071892239)
(0 -8.963219e-07 0.45321652)
(0 2.1750978e-06 0.45321838)
(0 4.668483e-07 0.45321727)
(0 -3.0454792e-06 0.45321893)
(0 4.8354295e-09 0.45321975)
(0 -1.18601e-08 1.0033577)
(0 2.2352576e-06 1.0033609)
(0 8.8263315e-08 1.0033581)
(0 -1.8064351e-06 1.0033596)
(0 2.3889958e-07 1.0033599)
(0 1.248888e-06 1.7467726)
(0 2.6192717e-06 1.746774)
(0 -8.1601124e-07 1.746772)
(0 -1.291255e-06 1.7467732)
(0 1.8046392e-07 1.7467725)
(0 8.8138075e-07 3.471213)
(0 1.5696164e-06 3.4712091)
(0 -7.0865994e-07 3.4712082)
(0 -1.3070268e-06 3.4712111)
(0 -2.33881e-07 3.4712116)
)
;
    }
    wall_maxX
    {
        type            extrapolatedCalculated;
        value           nonuniform List<vector> 
100
(
(0 1.6768119e-08 -0.1488267)
(0 4.6623285e-08 -0.14882659)
(0 4.9118353e-08 -0.14882653)
(0 2.089144e-08 -0.14882645)
(0 -4.5038707e-09 -0.14882648)
(0 5.7755937e-08 -0.15638064)
(0 1.0918152e-07 -0.15638056)
(0 5.4242929e-08 -0.15638063)
(0 1.7322163e-08 -0.15638065)
(0 -9.5821003e-09 -0.15638067)
(0 6.8390355e-08 -0.17023757)
(0 6.0075783e-08 -0.1702376)
(0 -3.5141018e-08 -0.17023779)
(0 -2.3241885e-08 -0.17023785)
(0 -2.0407077e-08 -0.17023788)
(0 4.1729163e-08 -0.19077295)
(0 -1.0869565e-07 -0.19077308)
(0 -2.0015584e-07 -0.19077339)
(0 -7.1692429e-08 -0.19077348)
(0 -2.8550655e-08 -0.1907735)
(0 -1.5944541e-08 -0.21758541)
(0 -3.746227e-07 -0.21758562)
(0 -4.3720925e-07 -0.21758602)
(0 -1.3582481e-07 -0.21758616)
(0 -3.2880962e-08 -0.21758616)
(0 -1.0153874e-07 -0.24996464)
(0 -7.1939891e-07 -0.24996494)
(0 -7.3339467e-07 -0.2499654)
(0 -2.1518942e-07 -0.24996558)
(0 -3.2590366e-08 -0.24996557)
(0 -2.1558154e-07 -0.28672796)
(0 -1.1334321e-06 -0.28672835)
(0 -1.0751683e-06 -0.28672885)
(0 -3.0117041e-07 -0.28672906)
(0 -2.4041242e-08 -0.28672902)
(0 -3.5962362e-07 -0.32599766)
(0 -1.6061875e-06 -0.32599814)
(0 -1.4440341e-06 -0.32599864)
(0 -3.7893791e-07 -0.32599887)
(0 -1.1039295e-09 -0.32599877)
(0 -5.3296921e-07 -0.36490427)
(0 -2.1138366e-06 -0.36490482)
(0 -1.8071735e-06 -0.36490527)
(0 -4.2583916e-07 -0.36490548)
(0 4.4634379e-08 -0.3649053)
(0 -7.2791741e-07 -0.39919425)
(0 -2.602414e-06 -0.39919484)
(0 -2.1041826e-06 -0.3991951)
(0 -4.0860133e-07 -0.39919526)
(0 1.2336223e-07 -0.39919496)
(0 -9.2280727e-07 -0.42271204)
(0 -2.9651666e-06 -0.42271256)
(0 -2.2312806e-06 -0.42271246)
(0 -2.8383234e-07 -0.42271248)
(0 2.4432836e-07 -0.42271206)
(0 -1.0741143e-06 -0.42671635)
(0 -3.0199123e-06 -0.42671664)
(0 -2.030544e-06 -0.4267159)
(0 -1.0180908e-08 -0.42671571)
(0 4.0774813e-07 -0.4267152)
(0 -1.1141076e-06 -0.39898851)
(0 -2.5102749e-06 -0.39898836)
(0 -1.3063822e-06 -0.39898668)
(0 4.1432937e-07 -0.39898624)
(0 5.8773207e-07 -0.39898579)
(0 -9.6914683e-07 -0.32272857)
(0 -1.1842555e-06 -0.32272783)
(0 8.6256087e-08 -0.32272508)
(0 8.7765299e-07 -0.32272449)
(0 7.0724111e-07 -0.32272444)
(0 -6.1687389e-07 -0.17539952)
(0 9.8097902e-07 -0.17539833)
(0 2.0281373e-06 -0.17539492)
(0 1.0568565e-06 -0.17539461)
(0 6.2333936e-07 -0.17539541)
(0 -1.743253e-07 0.071892239)
(0 3.4152373e-06 0.07189328)
(0 3.8056051e-06 0.071896004)
(0 3.8870738e-07 0.071895162)
(0 1.7321837e-07 0.071893264)
(0 7.6705362e-08 0.45321975)
(0 4.745963e-06 0.45322005)
(0 3.910665e-06 0.45322013)
(0 -1.6830504e-06 0.45321716)
(0 -6.4187361e-07 0.45321502)
(0 2.054863e-08 1.0033599)
(0 3.7909052e-06 1.0033609)
(0 9.1637174e-07 1.0033588)
(0 -4.7221752e-06 1.0033546)
(0 -1.2523098e-06 1.0033553)
(0 7.9178686e-07 1.7467725)
(0 3.6295364e-06 1.7467733)
(0 -2.4560182e-06 1.7467707)
(0 -5.1078831e-06 1.7467694)
(0 -1.400059e-07 1.7467725)
(0 5.8196704e-07 3.4712116)
(0 2.0213286e-06 3.4712091)
(0 -2.9457e-06 3.4712052)
(0 -2.932074e-06 3.4712166)
(0 7.7466942e-07 3.4712144)
)
;
    }
    wall_minY
    {
        type            extrapolatedCalculated;
        value           nonuniform List<vector> 
100
(
(-1.2727239e-08 1.0755286e-13 -0.14882755)
(-1.345825e-09 0 -0.15638147)
(3.1861761e-08 0 -0.17023815)
(5.7861122e-08 0 -0.19077314)
(5.6088438e-08 0 -0.21758517)
(2.6288399e-08 0 -0.249964)
(-3.2731816e-08 0 -0.2867269)
(-1.2431963e-07 0 -0.32599615)
(-2.5221918e-07 0 -0.36490232)
(-4.1794432e-07 0 -0.39919195)
(-6.1731528e-07 0 -0.42270965)
(-8.3676278e-07 0 -0.42671434)
(-1.0512479e-06 0 -0.39898754)
(-1.2257011e-06 0 -0.32272928)
(-1.3163643e-06 0 -0.17540209)
(-1.2547835e-06 0 0.07188858)
(-8.963219e-07 0 0.45321652)
(-1.1860099e-08 0 1.0033577)
(1.248888e-06 0 1.7467726)
(8.8138075e-07 0 3.471213)
(-5.6862313e-08 -5.4123372e-14 -0.14882759)
(2.8786089e-08 0 -0.15638141)
(1.807725e-07 0 -0.17023807)
(2.6561514e-07 0 -0.1907731)
(2.4817447e-07 0 -0.21758522)
(1.4189406e-07 0 -0.24996413)
(-4.5109089e-08 0 -0.28672713)
(-3.0806828e-07 0 -0.32599648)
(-6.3531065e-07 0 -0.36490276)
(-9.9457185e-07 0 -0.3991925)
(-1.316605e-06 0 -0.42271028)
(-1.4822018e-06 0 -0.42671499)
(-1.3306876e-06 0 -0.39898812)
(-7.2163016e-07 0 -0.32272968)
(3.2707021e-07 0 -0.17540213)
(1.483802e-06 0 0.07188921)
(2.1750978e-06 0 0.45321838)
(2.2352576e-06 0 1.0033609)
(2.6192717e-06 0 1.746774)
(1.5696164e-06 0 3.4712091)
(1.4646186e-07 3.6776138e-14 -0.14882764)
(4.768177e-07 0 -0.15638124)
(7.5930804e-07 0 -0.17023792)
(9.1073298e-07 0 -0.19077307)
(9.1679568e-07 0 -0.21758529)
(7.9422493e-07 0 -0.24996429)
(5.4387094e-07 0 -0.28672735)
(1.5736399e-07 0 -0.32599674)