/*--------------------------------*- C++ -*----------------------------------*\
| =========                 |                                                 |
| \\      /  F ield         | OpenFOAM: The Open Source CFD Toolbox           |
|  \\    /   O peration     | Version:  v2106                                 |
|   \\  /    A nd           | Website:  www.openfoam.com                      |
|    \\/     M anipulation  |                                                 |
\*---------------------------------------------------------------------------*/
FoamFile
{
    version     2.0;
    format      ascii;
    arch        "LSB;label=32;scalar=64";
    class       volScalarField;
    location    "10";
    object      Tmode_lapla1;
}
// * * * * * * * * * * * * * * * * * * * * * * * * * * * * * * * * * * * * * //

dimensions      [0 -2 0 0 0 0 0];

internalField   nonuniform List<scalar> 
500
(
-0.17477621
-0.17477777
-0.17472706
-0.17477083
-0.17477301
-0.17477777
-0.17471269
-0.17473523
-0.1747714
-0.1747743
-0.17472706
-0.17473523
-0.17474003
-0.17477003
-0.17477589
-0.17477083
-0.1747714
-0.17477003
-0.17478739
-0.17478026
-0.17477301
-0.1747743
-0.17477589
-0.17478026
-0.17477406
-0.52236327
-0.52236425
-0.52230206
-0.52237957
-0.52238046
-0.52236425
-0.52229418
-0.52233588
-0.52240002
-0.52239783
-0.52230206
-0.52233588
-0.52234245
-0.52239084
-0.52239204
-0.52237957
-0.52240002
-0.52239084
-0.52241074
-0.52238959
-0.52238046
-0.52239783
-0.52239204
-0.52238959
-0.52238263
-0.86329577
-0.86330256
-0.86324551
-0.86334572
-0.86333524
-0.86330256
-0.86322861
-0.86328763
-0.86337411
-0.86336241
-0.86324551
-0.86328763
-0.86329219
-0.86335061
-0.86334145
-0.86334572
-0.86337411
-0.86335061
-0.86336831
-0.86333819
-0.86333524
-0.86336241
-0.86334145
-0.86333819
-0.86332914
-1.1901759
-1.1901915
-1.1901312
-1.1902504
-1.1902339
-1.1901915
-1.1901184
-1.1901798
-1.1902818
-1.1902641
-1.1901312
-1.1901798
-1.1901704
-1.190235
-1.1902226
-1.1902504
-1.1902818
-1.190235
-1.1902485
-1.1902281
-1.1902339
-1.1902641
-1.1902226
-1.1902281
-1.1902183
-1.4909927
-1.4910113
-1.4909484
-1.4910776
-1.4910546
-1.4910113
-1.4909397
-1.4909971
-1.4911078
-1.4910847
-1.4909484
-1.4909971
-1.4909699
-1.4910352
-1.4910206
-1.4910776
-1.4911078
-1.4910352
-1.4910401
-1.4910366
-1.4910546
-1.4910847
-1.4910206
-1.4910366
-1.4910294
-1.7468656
-1.7468823
-1.7468225
-1.7469541
-1.746926
-1.7468823
-1.7468166
-1.7468649
-1.7469784
-1.7469526
-1.7468225
-1.7468649
-1.7468187
-1.7468803
-1.7468662
-1.7469541
-1.7469784
-1.7468803
-1.7468742
-1.7468926
-1.746926
-1.7469526
-1.7468662
-1.7468926
-1.7468916
-1.9294264
-1.9294345
-1.9293871
-1.9295102
-1.9294793
-1.9294345
-1.9293821
-1.9294146
-1.929522
-1.9294974
-1.9293871
-1.9294146
-1.9293488
-1.9294004
-1.9293906
-1.9295102
-1.929522
-1.9294004
-1.9293804
-1.9294265
-1.9294793
-1.9294974
-1.9293906
-1.9294265
-1.9294362
-1.997546
-1.9975352
-1.9975143
-1.9976128
-1.9975823
-1.9975352
-1.997507
-1.9975149
-1.997603
-1.9975851
-1.9975143
-1.9975149
-1.9974296
-1.9974618
-1.9974614
-1.9976128
-1.997603
-1.9974618
-1.9974241
-1.997505
-1.9975823
-1.9975851
-1.9974614
-1.997505
-1.9975316
-1.8931836
-1.8931388
-1.8931652
-1.8932162
-1.8931908
-1.8931388
-1.8931506
-1.8931227
-1.8931724
-1.8931688
-1.8931652
-1.8931227
-1.8930199
-1.893019
-1.8930343
-1.8932162
-1.8931724
-1.893019
-1.8929579
-1.8930825
-1.8931908
-1.8931688
-1.8930343
-1.8930825
-1.8931342
-1.535981
-1.5358796
-1.5359837
-1.5359556
-1.5359417
-1.5358796
-1.5359543
-1.535878
-1.535862
-1.5358826
-1.5359837
-1.535878
-1.5357628
-1.5357095
-1.535748
-1.5359556
-1.535862
-1.5357095
-1.5356173
-1.5357958
-1.5359417
-1.5358826
-1.535748
-1.5357958
-1.5358826
-0.81609909
-0.81590926
-0.81613397
-0.81598533
-0.81599151
-0.81590926
-0.81607806
-0.81594209
-0.81582348
-0.81588093
-0.81613397
-0.81594209
-0.81582648
-0.81569458
-0.81576396
-0.81598533
-0.81582348
-0.81569458
-0.81556122
-0.81580344
-0.81599151
-0.81588093
-0.81576396
-0.81580344
-0.81593727
0.41519359
0.41551501
0.41511163
0.4154304
0.41539314
0.41551501
0.41521158
0.41540974
0.41567784
0.41556959
0.41511163
0.41540974
0.41550096
0.41574448
0.41563936
0.4154304
0.41567784
0.41574448
0.41593054
0.41561895
0.41539314
0.41556959
0.41563936
0.41561895
0.41542741
2.35692
2.3574251
2.3567722
2.3573106
2.3572291
2.3574251
2.3569427
2.3571818
2.3576519
2.3574803
2.3567722
2.3571818
2.3572002
2.3575915
2.3574551
2.3573106
2.3576519
2.3575915
2.3578393
2.357467
2.3572291
2.3574803
2.3574551
2.357467
2.3572149
5.2682228
5.2689604
5.2679906
5.268777
5.268637
5.2689604
5.268272
5.2684839
5.269199
5.2689597
5.2679906
5.2684839
5.2683434
5.2689097
5.2687675
5.268777
5.269199
5.2689097
5.2692169
5.2688258
5.268637
5.2689597
5.2687675
5.2688258
5.2685317
9.463734
9.4647161
9.4634135
9.4644164
9.4642045
9.4647161
9.4638621
9.463913
9.4648755
9.4645803
9.4634135
9.463913
9.4634844
9.4642195
9.4641301
9.4644164
9.4648755
9.4642195
9.4645577
9.4642505
9.4642045
9.4645803
9.4641301
9.4642505
9.4639721
15.264561
15.265696
15.264188
15.265272
15.264979
15.265696
15.26486
15.264579
15.265705
15.265385
15.264188
15.264579
15.263724
15.264555
15.264606
15.265272
15.265705
15.264555
15.264859
15.264818
15.264979
15.265385
15.264606
15.264818
15.264656
22.867587
22.868594
22.867247
22.868176
22.867803
22.868594
22.868124
22.867458
22.868561
22.868252
22.867247
22.867458
22.866167
22.866953
22.867206
22.868176
22.868561
22.866953
22.867153
22.86761
22.867803
22.868252
22.867206
22.86761
22.86766
32.146255
32.146649
32.146006
32.146597
32.146186
32.146649
32.146785
32.146111
32.147045
32.146759
32.146006
32.146111
32.144809
32.145487
32.145854
32.146597
32.147045
32.145487
32.145689
32.14676
32.146186
32.146759
32.145854
32.14676
32.146939
42.195611
42.19505
42.195128
42.19544
42.195132
42.19505
42.1949
42.194576
42.195407
42.195035
42.195128
42.194576
42.193714
42.194448
42.194291
42.19544
42.195407
42.194448
42.195034
42.195988
42.195132
42.195035
42.194291
42.195988
42.195193
97.686868
97.686434
97.686483
97.686708
97.68678
97.686434
97.686004
97.685729
97.686475
97.686612
97.686483
97.685729
97.685151
97.685847
97.686009
97.686708
97.686475
97.685847
97.686558
97.687963
97.68678
97.686612
97.686009
97.687963
97.686551
)
;

boundaryField
{
    wall_minX
    {
        type            extrapolatedCalculated;
        value           nonuniform List<scalar> 
100
(
-0.17477621
-0.17477777
-0.17472706
-0.17477083
-0.17477301
-0.52236327
-0.52236425
-0.52230206
-0.52237957
-0.52238046
-0.86329577
-0.86330256
-0.86324551
-0.86334572
-0.86333524
-1.1901759
-1.1901915
-1.1901312
-1.1902504
-1.1902339
-1.4909927
-1.4910113
-1.4909484
-1.4910776
-1.4910546
-1.7468656
-1.7468823
-1.7468225
-1.7469541
-1.746926
-1.9294264
-1.9294345
-1.9293871
-1.9295102
-1.9294793
-1.997546
-1.9975352
-1.9975143
-1.9976128
-1.9975823
-1.8931836
-1.8931388
-1.8931652
-1.8932162
-1.8931908
-1.535981
-1.5358796
-1.5359837
-1.5359556
-1.5359417
-0.81609909
-0.81590926
-0.81613397
-0.81598533
-0.81599151
0.41519359
0.41551501
0.41511163
0.4154304
0.41539314
2.35692
2.3574251
2.3567722
2.3573106
2.3572291
5.2682228
5.2689604
5.2679906
5.268777
5.268637
9.463734
9.4647161
9.4634135
9.4644164
9.4642045
15.264561
15.265696
15.264188
15.265272
15.264979
22.867587
22.868594
22.867247
22.868176
22.867803
32.146255
32.146649
32.146006
32.146597
32.146186
42.195611
42.19505
42.195128
42.19544
42.195132
97.686868
97.686434
97.686483
97.686708
97.68678
)
;
    }
    wall_maxX
    {
        type            extrapolatedCalculated;
        value           nonuniform List<scalar> 
100
(
-0.17477301
-0.1747743
-0.17477589
-0.17478026
-0.17477406
-0.52238046
-0.52239783
-0.52239204
-0.52238959
-0.52238263
-0.86333524
-0.86336241
-0.86334145
-0.86333819
-0.86332914
-1.1902339
-1.1902641
-1.1902226
-1.1902281
-1.1902183
-1.4910546
-1.4910847
-1.4910206
-1.4910366
-1.4910294
-1.746926
-1.7469526
-1.7468662
-1.7468926
-1.7468916
-1.9294793
-1.9294974
-1.9293906
-1.9294265
-1.9294362
-1.9975823
-1.9975851
-1.9974614
-1.997505
-1.9975316
-1.8931908
-1.8931688
-1.8930343
-1.8930825
-1.8931342
-1.5359417
-1.5358826
-1.535748
-1.5357958
-1.5358826
-0.81599151
-0.81588093
-0.81576396
-0.81580344
-0.81593727
0.41539314
0.41556959
0.41563936
0.41561895
0.41542741
2.3572291
2.3574803
2.3574551
2.357467
2.3572149
5.268637
5.2689597
5.2687675
5.2688258
5.2685317
9.4642045
9.4645803
9.4641301
9.4642505
9.4639721
15.264979
15.265385
15.264606
15.264818
15.264656
22.867803
22.868252
22.867206
22.86761
22.86766
32.146186
32.146759
32.145854
32.14676
32.146939
42.195132
42.195035
42.194291
42.195988
42.195193
97.68678
97.686612
97.686009
97.687963
97.686551
)
;
    }
    wall_minY
    {
        type            extrapolatedCalculated;
        value           nonuniform List<scalar> 
100
(
-0.17477621
-0.52236327
-0.86329577
-1.1901759
-1.4909927
-1.7468656
-1.9294264
-1.997546
-1.8931836
-1.535981
-0.81609909
0.41519359
2.35692
5.2682228
9.463734
15.264561
22.867587
32.146255
42.195611
97.686868
-0.17477777
-0.52236425
-0.86330256
-1.1901915
-1.4910113
-1.7468823
-1.9294345
-1.9975352
-1.8931388
-1.5358796
-0.81590926
0.41551501
2.3574251
5.2689604
9.4647161
15.265696
22.868594
32.146649
42.19505
97.686434
-0.17472706
-0.52230206
-0.86324551
-1.1901312
-1.4909484
-1.7468225
-1.9293871
-1.9975143
-1.8931652
-1.5359837
-0.81613397
0.41511163
2.3567722
5.2679906
9.4634135
15.264188
22.867247
32.146006
42.195128
97.686483
-0.17477083
-0.52237957
-0.86334572
-1.1902504
-1.4910776
-1.7469541
-1.9295102
-1.9976128
-1.8932162
-1.5359556
-0.81598533
0.4154304
2.3573106
5.268777
9.4644164
15.265272
22.868176
32.146597
42.19544
97.686708
-0.17477301
-0.52238046
-0.86333524
-1.1902339
-1.4910546
-1.746926
-1.9294793
-1.9975823
-1.8931908
-1.5359417
-0.81599151
0.41539314
2.3572291
5.268637
9.4642045
15.264979
22.867803
32.146186
42.195132
97.68678
)
;
    }
    wall_maxY
    {
        type            extrapolatedCalculated;
        value           nonuniform List<scalar> 
100
(
-0.17477301
-0.52238046
-0.86333524
-1.1902339
-1.4910546
-1.746926
-1.9294793
-1.9975823
-1.8931908
-1.5359417
-0.81599151
0.41539314
2.3572291
5.268637
9.4642045
15.264979
22.867803
32.146186
42.195132
97.68678
-0.1747743
-0.52239783
-0.86336241
-1.1902641
-1.4910847
-1.7469526
-1.9294974
-1.9975851
-1.8931688
-1.5358826
-0.81588093
0.41556959
2.3574803
5.2689597
9.4645803
15.265385
22.868252
32.146759
42.195035
97.686612
-0.17477589
-0.52239204
-0.86334145
-1.1902226
-1.4910206
-1.7468662
-1.9293906
-1.9974614
-1.8930343
-1.535748
-0.81576396
0.41563936
2.3574551
5.2687675
9.4641301
15.264606
22.867206
32.145854
42.194291
97.686009
-0.17478026
-0.52238959
-0.86333819
-1.1902281
-1.4910366
-1.7468926
-1.9294265
-1.997505
-1.8930825
-1.5357958
-0.81580344
0.41561895
2.357467
5.2688258
9.4642505
15.264818
22.86761
32.14676
42.195988
97.687963
-0.17477406
-0.52238263
-0.86332914
-1.1902183
-1.4910294
-1.7468916
-1.9294362
-1.9975316
-1.8931342
-1.5358826
-0.81593727
0.41542741
2.3572149
5.2685317
9.4639721
15.264656
22.86766
32.146939
42.195193
97.686551
)
;
    }
    inlet_minZ
    {
        type            extrapolatedCalculated;
        value           nonuniform List<scalar> 
25
(
-0.17477621
-0.17477777
-0.17472706
-0.17477083
-0.17477301
-0.17477777
-0.17471269
-0.17473523
-0.1747714
-0.1747743
-0.17472706
-0.17473523
-0.17474003
-0.17477003
-0.17477589
-0.17477083
-0.1747714
-0.17477003
-0.17478739
-0.17478026
-0.17477301
-0.1747743
-0.17477589
-0.17478026
-0.17477406
)
;
    }
    outlet_maxZ
    {
        type            extrapolatedCalculated;
        value           nonuniform List<scalar> 
25
(
97.686868
97.686434
97.686483
97.686708
97.68678
97.686434
97.686004
97.685729
97.686475
97.686612
97.686483
97.685729
97.685151
97.685847
97.686009
97.686708
97.686475
97.685847
97.686558
97.687963
97.68678
97.686612
97.686009
97.687963
97.686551
)
;
    }
}


// ************************************************************************* //
