/*--------------------------------*- C++ -*----------------------------------*\
| =========                 |                                                 |
| \\      /  F ield         | OpenFOAM: The Open Source CFD Toolbox           |
|  \\    /   O peration     | Version:  v2106                                 |
|   \\  /    A nd           | Website:  www.openfoam.com                      |
|    \\/     M anipulation  |                                                 |
\*---------------------------------------------------------------------------*/
FoamFile
{
    version     2.0;
    format      ascii;
    arch        "LSB;label=32;scalar=64";
    class       volScalarField;
    location    "10";
    object      Tmode1;
}
// * * * * * * * * * * * * * * * * * * * * * * * * * * * * * * * * * * * * * //

dimensions      [0 0 0 0 0 0 0];

internalField   nonuniform List<scalar> 
500
(
0.037892053
0.037892053
0.037892051
0.037892058
0.037892062
0.037892053
0.037892049
0.037892052
0.03789206
0.037892063
0.037892051
0.037892052
0.037892055
0.037892061
0.037892063
0.037892058
0.03789206
0.037892061
0.037892064
0.037892064
0.037892062
0.037892063
0.037892063
0.037892064
0.037892064
0.034868896
0.034868896
0.034868898
0.034868915
0.034868923
0.034868896
0.034868893
0.034868903
0.03486892
0.034868926
0.034868898
0.034868903
0.03486891
0.034868923
0.034868927
0.034868915
0.03486892
0.034868923
0.034868928
0.034868928
0.034868923
0.034868926
0.034868927
0.034868928
0.034868928
0.031636794
0.031636796
0.031636802
0.031636827
0.031636836
0.031636796
0.031636794
0.031636809
0.031636832
0.03163684
0.031636802
0.031636809
0.031636818
0.031636834
0.031636838
0.031636827
0.031636832
0.031636834
0.031636839
0.031636839
0.031636836
0.03163684
0.031636838
0.031636839
0.031636837
0.02805937
0.028059374
0.028059381
0.02805941
0.02805942
0.028059374
0.028059372
0.028059388
0.028059414
0.028059422
0.028059381
0.028059388
0.028059395
0.028059411
0.028059416
0.02805941
0.028059414
0.028059411
0.028059415
0.028059414
0.02805942
0.028059422
0.028059416
0.028059414
0.028059413
0.024005869
0.024005872
0.024005879
0.024005909
0.024005918
0.024005872
0.02400587
0.024005883
0.02400591
0.024005917
0.024005879
0.024005883
0.024005885
0.024005899
0.024005903
0.024005909
0.02400591
0.024005899
0.024005899
0.024005899
0.024005918
0.024005917
0.024005903
0.024005899
0.024005897
0.019355963
0.019355965
0.019355969
0.019355997
0.019356004
0.019355965
0.019355961
0.019355969
0.019355992
0.019355998
0.019355969
0.019355969
0.019355963
0.019355973
0.019355975
0.019355997
0.019355992
0.019355973
0.019355968
0.019355968
0.019356004
0.019355998
0.019355975
0.019355968
0.019355966
0.014007309
0.014007307
0.014007307
0.014007329
0.014007332
0.014007307
0.0140073
0.0140073
0.014007317
0.014007319
0.014007307
0.0140073
0.014007285
0.014007286
0.014007287
0.014007329
0.014007317
0.014007286
0.014007275
0.014007276
0.014007332
0.014007319
0.014007287
0.014007276
0.014007275
0.0078868875
0.00788688
0.0078868752
0.0078868863
0.0078868851
0.00788688
0.007886869
0.0078868595
0.0078868649
0.0078868635
0.0078868752
0.0078868595
0.0078868314
0.0078868227
0.0078868208
0.0078868863
0.0078868649
0.0078868227
0.0078868029
0.0078868057
0.0078868851
0.0078868635
0.0078868208
0.0078868057
0.0078868057
0.0009674627
0.00096744757
0.00096743729
0.00096743277
0.00096742546
0.00096744757
0.00096743264
0.00096740989
0.0009673995
0.00096739348
0.00096743729
0.00096740989
0.0009673677
0.00096734522
0.00096734091
0.00096743277
0.0009673995
0.00096734522
0.00096731609
0.00096732119
0.00096742546
0.00096739348
0.00096734091
0.00096732119
0.00096732387
-0.0067092053
-0.0067092303
-0.006709245
-0.0067092712
-0.0067092858
-0.0067092303
-0.0067092483
-0.0067092863
-0.0067093182
-0.0067093295
-0.006709245
-0.0067092863
-0.0067093434
-0.0067093832
-0.0067093899
-0.0067092712
-0.0067093182
-0.0067093832
-0.0067094223
-0.0067094136
-0.0067092858
-0.0067093295
-0.0067093899
-0.0067094136
-0.0067094062
-0.015000215
-0.015000252
-0.015000268
-0.015000322
-0.015000345
-0.015000252
-0.015000271
-0.015000324
-0.015000383
-0.0150004
-0.015000268
-0.015000324
-0.015000394
-0.015000454
-0.015000463
-0.015000322
-0.015000383
-0.015000454
-0.015000503
-0.015000489
-0.015000345
-0.0150004
-0.015000463
-0.015000489
-0.015000475
-0.023617591
-0.023617641
-0.02361765
-0.023617737
-0.023617767
-0.023617641
-0.023617655
-0.023617719
-0.02361781
-0.023617832
-0.02361765
-0.023617719
-0.023617795
-0.023617878
-0.023617888
-0.023617737
-0.02361781
-0.023617878
-0.023617934
-0.023617913
-0.023617767
-0.023617832
-0.023617888
-0.023617913
-0.023617888
-0.032068789
-0.032068852
-0.032068842
-0.032068962
-0.032068999
-0.032068852
-0.032068852
-0.032068916
-0.03206904
-0.032069066
-0.032068842
-0.032068916
-0.032068984
-0.032069087
-0.032069099
-0.032068962
-0.03206904
-0.032069087
-0.032069145
-0.032069118
-0.032068999
-0.032069066
-0.032069099
-0.032069118
-0.032069083
-0.039577093
-0.039577166
-0.039577122
-0.03957727
-0.039577308
-0.039577166
-0.039577142
-0.039577186
-0.039577339
-0.039577366
-0.039577122
-0.039577186
-0.039577221
-0.039577339
-0.039577355
-0.03957727
-0.039577339
-0.039577339
-0.039577392
-0.039577363
-0.039577308
-0.039577366
-0.039577355
-0.039577363
-0.03957732
-0.04497796
-0.044978039
-0.044977947
-0.04497811
-0.044978142
-0.044978039
-0.044977985
-0.044977984
-0.044978152
-0.044978179
-0.044977947
-0.044977984
-0.044977955
-0.044978076
-0.044978102
-0.04497811
-0.044978152
-0.044978076
-0.044978115
-0.044978097
-0.044978142
-0.044978179
-0.044978102
-0.044978097
-0.04497806
-0.046593176
-0.046593252
-0.046593117
-0.04659327
-0.046593289
-0.046593252
-0.046593176
-0.046593111
-0.046593275
-0.046593299
-0.046593117
-0.046593111
-0.046592996
-0.046593107
-0.046593152
-0.04659327
-0.046593275
-0.046593107
-0.04659313
-0.046593147
-0.046593289
-0.046593299
-0.046593152
-0.046593147
-0.046593136
-0.042102417
-0.042102471
-0.04210233
-0.042102452
-0.042102452
-0.042102471
-0.042102402
-0.042102286
-0.042102426
-0.042102447
-0.04210233
-0.042102286
-0.042102098
-0.042102191
-0.042102262
-0.042102452
-0.042102426
-0.042102191
-0.042102212
-0.042102291
-0.042102452
-0.042102447
-0.042102262
-0.042102291
-0.042102329
-0.028464516
-0.028464516
-0.028464426
-0.028464513
-0.028464498
-0.028464516
-0.028464474
-0.028464364
-0.02846448
-0.028464497
-0.028464426
-0.028464364
-0.028464172
-0.02846426
-0.028464347
-0.028464513
-0.02846448
-0.02846426
-0.028464317
-0.028464461
-0.028464498
-0.028464497
-0.028464347
-0.028464461
-0.028464536
-0.0019681104
-0.0019680355
-0.0019680056
-0.0019680681
-0.0019680573
-0.0019680355
-0.0019679671
-0.0019678994
-0.001968003
-0.0019680098
-0.0019680056
-0.0019678994
-0.0019677622
-0.0019678602
-0.0019679121
-0.0019680681
-0.001968003
-0.0019678602
-0.0019679728
-0.001968108
-0.0019680573
-0.0019680098
-0.0019679121
-0.001968108
-0.0019681164
0.041406389
0.041406442
0.041406452
0.041406414
0.0414064
0.041406442
0.041406501
0.041406536
0.041406463
0.041406435
0.041406452
0.041406536
0.041406604
0.041406528
0.041406481
0.041406414
0.041406463
0.041406528
0.041406431
0.041406317
0.0414064
0.041406435
0.041406481
0.041406317
0.041406363
)
;

boundaryField
{
    wall_minX
    {
        type            calculated;
        value           nonuniform List<scalar> 
100
(
0.037892053
0.037892053
0.037892051
0.037892058
0.037892062
0.034868896
0.034868896
0.034868898
0.034868915
0.034868923
0.031636794
0.031636796
0.031636802
0.031636827
0.031636836
0.02805937
0.028059374
0.028059381
0.02805941
0.02805942
0.024005869
0.024005872
0.024005879
0.024005909
0.024005918
0.019355963
0.019355965
0.019355969
0.019355997
0.019356004
0.014007309
0.014007307
0.014007307
0.014007329
0.014007332
0.0078868875
0.00788688
0.0078868752
0.0078868863
0.0078868851
0.0009674627
0.00096744757
0.00096743729
0.00096743277
0.00096742546
-0.0067092053
-0.0067092303
-0.006709245
-0.0067092712
-0.0067092858
-0.015000215
-0.015000252
-0.015000268
-0.015000322
-0.015000345
-0.023617591
-0.023617641
-0.02361765
-0.023617737
-0.023617767
-0.032068789
-0.032068852
-0.032068842
-0.032068962
-0.032068999
-0.039577093
-0.039577166
-0.039577122
-0.03957727
-0.039577308
-0.04497796
-0.044978039
-0.044977947
-0.04497811
-0.044978142
-0.046593176
-0.046593252
-0.046593117
-0.04659327
-0.046593289
-0.042102417
-0.042102471
-0.04210233
-0.042102452
-0.042102452
-0.028464516
-0.028464516
-0.028464426
-0.028464513
-0.028464498
-0.0019681104
-0.0019680355
-0.0019680056
-0.0019680681
-0.0019680573
0.041406389
0.041406442
0.041406452
0.041406414
0.0414064
)
;
    }
    wall_maxX
    {
        type            calculated;
        value           nonuniform List<scalar> 
100
(
0.037892062
0.037892063
0.037892063
0.037892064
0.037892064
0.034868923
0.034868926
0.034868927
0.034868928
0.034868928
0.031636836
0.03163684
0.031636838
0.031636839
0.031636837
0.02805942
0.028059422
0.028059416
0.028059414
0.028059413
0.024005918
0.024005917
0.024005903
0.024005899
0.024005897
0.019356004
0.019355998
0.019355975
0.019355968
0.019355966
0.014007332
0.014007319
0.014007287
0.014007276
0.014007275
0.0078868851
0.0078868635
0.0078868208
0.0078868057
0.0078868057
0.00096742546
0.00096739348
0.00096734091
0.00096732119
0.00096732387
-0.0067092858
-0.0067093295
-0.0067093899
-0.0067094136
-0.0067094062
-0.015000345
-0.0150004
-0.015000463
-0.015000489
-0.015000475
-0.023617767
-0.023617832
-0.023617888
-0.023617913
-0.023617888
-0.032068999
-0.032069066
-0.032069099
-0.032069118
-0.032069083
-0.039577308
-0.039577366
-0.039577355
-0.039577363
-0.03957732
-0.044978142
-0.044978179
-0.044978102
-0.044978097
-0.04497806
-0.046593289
-0.046593299
-0.046593152
-0.046593147
-0.046593136
-0.042102452
-0.042102447
-0.042102262
-0.042102291
-0.042102329
-0.028464498
-0.028464497
-0.028464347
-0.028464461
-0.028464536
-0.0019680573
-0.0019680098
-0.0019679121
-0.001968108
-0.0019681164
0.0414064
0.041406435
0.041406481
0.041406317
0.041406363
)
;
    }
    wall_minY
    {
        type            calculated;
        value           nonuniform List<scalar> 
100
(
0.037892053
0.034868896
0.031636794
0.02805937
0.024005869
0.019355963
0.014007309
0.0078868875
0.0009674627
-0.0067092053
-0.015000215
-0.023617591
-0.032068789
-0.039577093
-0.04497796
-0.046593176
-0.042102417
-0.028464516
-0.0019681104
0.041406389
0.037892053
0.034868896
0.031636796
0.028059374
0.024005872
0.019355965
0.014007307
0.00788688
0.00096744757
-0.0067092303
-0.015000252
-0.023617641
-0.032068852
-0.039577166
-0.044978039
-0.046593252
-0.042102471
-0.028464516
-0.0019680355
0.041406442
0.037892051
0.034868898
0.031636802
0.028059381
0.024005879
0.019355969
0.014007307
0.0078868752
0.00096743729
-0.006709245
-0.015000268
-0.02361765
-0.032068842
-0.039577122
-0.044977947
-0.046593117
-0.04210233
-0.028464426
-0.0019680056
0.041406452
0.037892058
0.034868915
0.031636827
0.02805941
0.024005909
0.019355997
0.014007329
0.0078868863
0.00096743277
-0.0067092712
-0.015000322
-0.023617737
-0.032068962
-0.03957727
-0.04497811
-0.04659327
-0.042102452
-0.028464513
-0.0019680681
0.041406414
0.037892062
0.034868923
0.031636836
0.02805942
0.024005918
0.019356004
0.014007332
0.0078868851
0.00096742546
-0.0067092858
-0.015000345
-0.023617767
-0.032068999
-0.039577308
-0.044978142
-0.046593289
-0.042102452
-0.028464498
-0.0019680573
0.0414064
)
;
    }
    wall_maxY
    {
        type            calculated;
        value           nonuniform List<scalar> 
100
(
0.037892062
0.034868923
0.031636836
0.02805942
0.024005918
0.019356004
0.014007332
0.0078868851
0.00096742546
-0.0067092858
-0.015000345
-0.023617767
-0.032068999
-0.039577308
-0.044978142
-0.046593289
-0.042102452
-0.028464498
-0.0019680573
0.0414064
0.037892063
0.034868926
0.03163684
0.028059422
0.024005917
0.019355998
0.014007319
0.0078868635
0.00096739348
-0.0067093295
-0.0150004
-0.023617832
-0.032069066
-0.039577366
-0.044978179
-0.046593299
-0.042102447
-0.028464497
-0.0019680098
0.041406435
0.037892063
0.034868927
0.031636838
0.028059416
0.024005903
0.019355975
0.014007287
0.0078868208
0.00096734091
-0.0067093899
-0.015000463
-0.023617888
-0.032069099
-0.039577355
-0.044978102
-0.046593152
-0.042102262
-0.028464347
-0.0019679121
0.041406481
0.037892064
0.034868928
0.031636839
0.028059414
0.024005899
0.019355968
0.014007276
0.0078868057
0.00096732119
-0.0067094136
-0.015000489
-0.023617913
-0.032069118
-0.039577363
-0.044978097
-0.046593147
-0.042102291
-0.028464461
-0.001968108
0.041406317
0.037892064
0.034868928
0.031636837
0.028059413
0.024005897
0.019355966
0.014007275
0.0078868057
0.00096732387
-0.0067094062
-0.015000475
-0.023617888
-0.032069083
-0.03957732
-0.04497806
-0.046593136
-0.042102329
-0.028464536
-0.0019681164
0.041406363
)
;
    }
    inlet_minZ
    {
        type            calculated;
        value           uniform 0.039368677;
    }
    outlet_maxZ
    {
        type            calculated;
        value           uniform 0.08263096;
    }
}


// ************************************************************************* //
