/*--------------------------------*- C++ -*----------------------------------*\
| =========                 |                                                 |
| \\      /  F ield         | OpenFOAM: The Open Source CFD Toolbox           |
|  \\    /   O peration     | Version:  v2106                                 |
|   \\  /    A nd           | Website:  www.openfoam.com                      |
|    \\/     M anipulation  |                                                 |
\*---------------------------------------------------------------------------*/
FoamFile
{
    version     2.0;
    format      ascii;
    arch        "LSB;label=32;scalar=64";
    class       volScalarField;
    location    "10";
    object      Tmode3;
}
// * * * * * * * * * * * * * * * * * * * * * * * * * * * * * * * * * * * * * //

dimensions      [0 0 0 0 0 0 0];

internalField   nonuniform List<scalar> 
500
(
0.032959492
0.032959488
0.032959483
0.032959483
0.032959484
0.032959488
0.032959482
0.032959479
0.032959479
0.03295948
0.032959483
0.032959479
0.032959475
0.032959475
0.032959475
0.032959483
0.032959479
0.032959475
0.032959473
0.032959473
0.032959484
0.03295948
0.032959475
0.032959473
0.032959473
0.025386724
0.025386712
0.025386702
0.025386699
0.025386699
0.025386712
0.0253867
0.025386691
0.025386687
0.025386688
0.025386702
0.025386691
0.025386679
0.025386674
0.025386675
0.025386699
0.025386687
0.025386674
0.025386668
0.025386668
0.025386699
0.025386688
0.025386675
0.025386668
0.025386669
0.017682633
0.017682614
0.017682601
0.01768259
0.017682586
0.017682614
0.017682599
0.01768258
0.017682568
0.017682567
0.017682601
0.01768258
0.017682558
0.017682544
0.017682545
0.01768259
0.017682568
0.017682544
0.017682531
0.017682532
0.017682586
0.017682567
0.017682545
0.017682532
0.017682536
0.009811197
0.0098111711
0.0098111519
0.0098111246
0.0098111148
0.0098111711
0.0098111511
0.0098111188
0.0098110912
0.0098110855
0.0098111519
0.0098111188
0.009811082
0.0098110552
0.0098110533
0.0098111246
0.0098110912
0.0098110552
0.0098110321
0.009811036
0.0098111148
0.0098110855
0.0098110533
0.009811036
0.0098110421
0.0018149803
0.0018149451
0.001814918
0.0018148669
0.0018148485
0.0018149451
0.001814921
0.001814871
0.00181482
0.0018148077
0.001814918
0.001814871
0.0018148173
0.0018147718
0.0018147663
0.0018148669
0.00181482
0.0018147718
0.0018147377
0.0018147442
0.0018148485
0.0018148077
0.0018147663
0.0018147442
0.0018147536
-0.0061517319
-0.0061517778
-0.0061518133
-0.0061518954
-0.0061519246
-0.0061517778
-0.0061518049
-0.0061518749
-0.0061519557
-0.0061519765
-0.0061518133
-0.0061518749
-0.006151945
-0.006152013
-0.0061520232
-0.0061518954
-0.0061519557
-0.006152013
-0.0061520582
-0.0061520493
-0.0061519246
-0.0061519765
-0.0061520232
-0.0061520493
-0.0061520359
-0.013790384
-0.01379044
-0.013790483
-0.013790601
-0.013790642
-0.01379044
-0.013790468
-0.013790557
-0.013790672
-0.013790702
-0.013790483
-0.013790557
-0.013790639
-0.013790731
-0.013790747
-0.013790601
-0.013790672
-0.013790731
-0.013790785
-0.013790775
-0.013790642
-0.013790702
-0.013790747
-0.013790775
-0.013790757
-0.020630075
-0.020630139
-0.020630184
-0.02063034
-0.020630392
-0.020630139
-0.020630163
-0.020630264
-0.020630414
-0.020630454
-0.020630184
-0.020630264
-0.020630349
-0.020630462
-0.020630484
-0.02063034
-0.020630414
-0.020630462
-0.020630521
-0.02063051
-0.020630392
-0.020630454
-0.020630484
-0.02063051
-0.020630489
-0.026011471
-0.026011538
-0.026011579
-0.026011767
-0.026011827
-0.026011538
-0.02601155
-0.026011653
-0.026011833
-0.02601188
-0.026011579
-0.026011653
-0.026011724
-0.026011852
-0.02601188
-0.026011767
-0.026011833
-0.026011852
-0.026011907
-0.026011899
-0.026011827
-0.02601188
-0.02601188
-0.026011899
-0.026011876
-0.029095748
-0.029095807
-0.029095837
-0.029096044
-0.029096107
-0.029095807
-0.029095802
-0.029095889
-0.029096083
-0.029096135
-0.029095837
-0.029095889
-0.029095923
-0.029096051
-0.029096086
-0.029096044
-0.029096083
-0.029096051
-0.029096092
-0.029096092
-0.029096107
-0.029096135
-0.029096086
-0.029096092
-0.029096074
-0.028919828
-0.028919866
-0.028919878
-0.028920081
-0.028920138
-0.028919866
-0.028919839
-0.028919887
-0.028920073
-0.028920125
-0.028919878
-0.028919887
-0.028919861
-0.028919968
-0.028920011
-0.028920081
-0.028920073
-0.028919968
-0.028919981
-0.02892
-0.028920138
-0.028920125
-0.028920011
-0.02892
-0.028919995
-0.024531047
-0.024531047
-0.024531049
-0.024531214
-0.024531256
-0.024531047
-0.024531004
-0.024530996
-0.02453114
-0.024531187
-0.024531049
-0.024530996
-0.024530889
-0.024530951
-0.024531002
-0.024531214
-0.02453114
-0.024530951
-0.024530925
-0.024530976
-0.024531256
-0.024531187
-0.024531002
-0.024530976
-0.024530997
-0.01525026
-0.015250207
-0.015250221
-0.015250312
-0.015250331
-0.015250207
-0.015250165
-0.015250101
-0.015250168
-0.015250205
-0.015250221
-0.015250101
-0.015249918
-0.015249911
-0.015249968
-0.015250312
-0.015250168
-0.015249911
-0.015249844
-0.015249939
-0.015250331
-0.015250205
-0.015249968
-0.015249939
-0.01525
-0.0011294184
-0.0011293001
-0.0011293759
-0.0011293676
-0.0011293604
-0.0011293001
-0.0011292958
-0.0011292093
-0.0011291739
-0.0011291955
-0.0011293759
-0.0011292093
-0.0011289966
-0.0011289083
-0.0011289625
-0.0011293676
-0.0011291739
-0.0011289083
-0.0011288118
-0.0011289533
-0.0011293604
-0.0011291955
-0.0011289625
-0.0011289533
-0.0011290551
0.016325822
0.016326006
0.016325813
0.01632592
0.016325945
0.016326006
0.016325939
0.016325976
0.016326116
0.016326115
0.016325813
0.016325976
0.016326127
0.016326287
0.016326262
0.01632592
0.016326116
0.016326287
0.016326388
0.016326229
0.016325945
0.016326115
0.016326262
0.016326229
0.016326118
0.033150253
0.033150483
0.033150158
0.033150332
0.033150357
0.033150483
0.033150351
0.033150269
0.033150486
0.033150512
0.033150158
0.033150269
0.033150259
0.033150467
0.033150513
0.033150332
0.033150486
0.033150467
0.033150553
0.033150453
0.033150357
0.033150512
0.033150513
0.033150453
0.033150408
0.041835993
0.041836206
0.041835837
0.041836034
0.041836041
0.041836206
0.041836082
0.041835893
0.041836155
0.041836209
0.041835837
0.041835893
0.041835714
0.041835958
0.041836109
0.041836034
0.041836155
0.041835958
0.041836063
0.041836115
0.041836041
0.041836209
0.041836109
0.041836115
0.041836212
0.031021897
0.031021969
0.031021728
0.031021928
0.031021915
0.031021969
0.031021908
0.031021744
0.031022046
0.031022105
0.031021728
0.031021744
0.031021532
0.031021835
0.031022045
0.031021928
0.031022046
0.031021835
0.031022049
0.031022255
0.031021915
0.031022105
0.031022045
0.031022255
0.031022423
-0.01171955
-0.011719721
-0.011719775
-0.011719579
-0.011719592
-0.011719721
-0.011719849
-0.011719905
-0.011719575
-0.01171955
-0.011719775
-0.011719905
-0.01172003
-0.011719677
-0.011719552
-0.011719579
-0.011719575
-0.011719677
-0.01171933
-0.011719131
-0.011719592
-0.01171955
-0.011719552
-0.011719131
-0.011719167
-0.089249618
-0.089249764
-0.089249753
-0.089249616
-0.089249584
-0.089249764
-0.089249898
-0.089249913
-0.089249673
-0.089249606
-0.089249753
-0.089249913
-0.089249973
-0.089249718
-0.089249616
-0.089249616
-0.089249673
-0.089249718
-0.089249433
-0.089249243
-0.089249584
-0.089249606
-0.089249616
-0.089249243
-0.089249416
)
;

boundaryField
{
    wall_minX
    {
        type            calculated;
        value           nonuniform List<scalar> 
100
(
0.032959492
0.032959488
0.032959483
0.032959483
0.032959484
0.025386724
0.025386712
0.025386702
0.025386699
0.025386699
0.017682633
0.017682614
0.017682601
0.01768259
0.017682586
0.009811197
0.0098111711
0.0098111519
0.0098111246
0.0098111148
0.0018149803
0.0018149451
0.001814918
0.0018148669
0.0018148485
-0.0061517319
-0.0061517778
-0.0061518133
-0.0061518954
-0.0061519246
-0.013790384
-0.01379044
-0.013790483
-0.013790601
-0.013790642
-0.020630075
-0.020630139
-0.020630184
-0.02063034
-0.020630392
-0.026011471
-0.026011538
-0.026011579
-0.026011767
-0.026011827
-0.029095748
-0.029095807
-0.029095837
-0.029096044
-0.029096107
-0.028919828
-0.028919866
-0.028919878
-0.028920081
-0.028920138
-0.024531047
-0.024531047
-0.024531049
-0.024531214
-0.024531256
-0.01525026
-0.015250207
-0.015250221
-0.015250312
-0.015250331
-0.0011294184
-0.0011293001
-0.0011293759
-0.0011293676
-0.0011293604
0.016325822
0.016326006
0.016325813
0.01632592
0.016325945
0.033150253
0.033150483
0.033150158
0.033150332
0.033150357
0.041835993
0.041836206
0.041835837
0.041836034
0.041836041
0.031021897
0.031021969
0.031021728
0.031021928
0.031021915
-0.01171955
-0.011719721
-0.011719775
-0.011719579
-0.011719592
-0.089249618
-0.089249764
-0.089249753
-0.089249616
-0.089249584
)
;
    }
    wall_maxX
    {
        type            calculated;
        value           nonuniform List<scalar> 
100
(
0.032959484
0.03295948
0.032959475
0.032959473
0.032959473
0.025386699
0.025386688
0.025386675
0.025386668
0.025386669
0.017682586
0.017682567
0.017682545
0.017682532
0.017682536
0.0098111148
0.0098110855
0.0098110533
0.009811036
0.0098110421
0.0018148485
0.0018148077
0.0018147663
0.0018147442
0.0018147536
-0.0061519246
-0.0061519765
-0.0061520232
-0.0061520493
-0.0061520359
-0.013790642
-0.013790702
-0.013790747
-0.013790775
-0.013790757
-0.020630392
-0.020630454
-0.020630484
-0.02063051
-0.020630489
-0.026011827
-0.02601188
-0.02601188
-0.026011899
-0.026011876
-0.029096107
-0.029096135
-0.029096086
-0.029096092
-0.029096074
-0.028920138
-0.028920125
-0.028920011
-0.02892
-0.028919995
-0.024531256
-0.024531187
-0.024531002
-0.024530976
-0.024530997
-0.015250331
-0.015250205
-0.015249968
-0.015249939
-0.01525
-0.0011293604
-0.0011291955
-0.0011289625
-0.0011289533
-0.0011290551
0.016325945
0.016326115
0.016326262
0.016326229
0.016326118
0.033150357
0.033150512
0.033150513
0.033150453
0.033150408
0.041836041
0.041836209
0.041836109
0.041836115
0.041836212
0.031021915
0.031022105
0.031022045
0.031022255
0.031022423
-0.011719592
-0.01171955
-0.011719552
-0.011719131
-0.011719167
-0.089249584
-0.089249606
-0.089249616
-0.089249243
-0.089249416
)
;
    }
    wall_minY
    {
        type            calculated;
        value           nonuniform List<scalar> 
100
(
0.032959492
0.025386724
0.017682633
0.009811197
0.0018149803
-0.0061517319
-0.013790384
-0.020630075
-0.026011471
-0.029095748
-0.028919828
-0.024531047
-0.01525026
-0.0011294184
0.016325822
0.033150253
0.041835993
0.031021897
-0.01171955
-0.089249618
0.032959488
0.025386712
0.017682614
0.0098111711
0.0018149451
-0.0061517778
-0.01379044
-0.020630139
-0.026011538
-0.029095807
-0.028919866
-0.024531047
-0.015250207
-0.0011293001
0.016326006
0.033150483
0.041836206
0.031021969
-0.011719721
-0.089249764
0.032959483
0.025386702
0.017682601
0.0098111519
0.001814918
-0.0061518133
-0.013790483
-0.020630184
-0.026011579
-0.029095837
-0.028919878
-0.024531049
-0.015250221
-0.0011293759
0.016325813
0.033150158
0.041835837
0.031021728
-0.011719775
-0.089249753
0.032959483
0.025386699
0.01768259
0.0098111246
0.0018148669
-0.0061518954
-0.013790601
-0.02063034
-0.026011767
-0.029096044
-0.028920081
-0.024531214
-0.015250312
-0.0011293676
0.01632592
0.033150332
0.041836034
0.031021928
-0.011719579
-0.089249616
0.032959484
0.025386699
0.017682586
0.0098111148
0.0018148485
-0.0061519246
-0.013790642
-0.020630392
-0.026011827
-0.029096107
-0.028920138
-0.024531256
-0.015250331
-0.0011293604
0.016325945
0.033150357
0.041836041
0.031021915
-0.011719592
-0.089249584
)
;
    }
    wall_maxY
    {
        type            calculated;
        value           nonuniform List<scalar> 
100
(
0.032959484
0.025386699
0.017682586
0.0098111148
0.0018148485
-0.0061519246
-0.013790642
-0.020630392
-0.026011827
-0.029096107
-0.028920138
-0.024531256
-0.015250331
-0.0011293604
0.016325945
0.033150357
0.041836041
0.031021915
-0.011719592
-0.089249584
0.03295948
0.025386688
0.017682567
0.0098110855
0.0018148077
-0.0061519765
-0.013790702
-0.020630454
-0.02601188
-0.029096135
-0.028920125
-0.024531187
-0.015250205
-0.0011291955
0.016326115
0.033150512
0.041836209
0.031022105
-0.01171955
-0.089249606
0.032959475
0.025386675
0.017682545
0.0098110533
0.0018147663
-0.0061520232
-0.013790747
-0.020630484
-0.02601188
-0.029096086
-0.028920011
-0.024531002
-0.015249968
-0.0011289625
0.016326262
0.033150513
0.041836109
0.031022045
-0.011719552
-0.089249616
0.032959473
0.025386668
0.017682532
0.009811036
0.0018147442
-0.0061520493
-0.013790775
-0.02063051
-0.026011899
-0.029096092
-0.02892
-0.024530976
-0.015249939
-0.0011289533
0.016326229
0.033150453
0.041836115
0.031022255
-0.011719131
-0.089249243
0.032959473
0.025386669
0.017682536
0.0098110421
0.0018147536
-0.0061520359
-0.013790757
-0.020630489
-0.026011876
-0.029096074
-0.028919995
-0.024530997
-0.01525
-0.0011290551
0.016326118
0.033150408
0.041836212
0.031022423
-0.011719167
-0.089249416
)
;
    }
    inlet_minZ
    {
        type            calculated;
        value           uniform 0.036721434;
    }
    outlet_maxZ
    {
        type            calculated;
        value           uniform 0.077074659;
    }
}


// ************************************************************************* //
