/*--------------------------------*- C++ -*----------------------------------*\
| =========                 |                                                 |
| \\      /  F ield         | OpenFOAM: The Open Source CFD Toolbox           |
|  \\    /   O peration     | Version:  v2106                                 |
|   \\  /    A nd           | Website:  www.openfoam.com                      |
|    \\/     M anipulation  |                                                 |
\*---------------------------------------------------------------------------*/
FoamFile
{
    version     2.0;
    format      ascii;
    arch        "LSB;label=32;scalar=64";
    class       volVectorField;
    location    "10";
    object      Tmode_grad0;
}
// * * * * * * * * * * * * * * * * * * * * * * * * * * * * * * * * * * * * * //

dimensions      [0 -1 0 0 0 0 0];

internalField   nonuniform List<vector> 
500
(
(1.8026606e-11 1.8026374e-11 -0.009898189)
(-1.6250256e-09 -4.1874938e-09 -0.0098981857)
(1.618629e-08 3.3862212e-09 -0.0098981841)
(2.5272528e-08 3.253193e-09 -0.0098981185)
(4.9553158e-09 2.8251648e-09 -0.0098980914)
(-4.1874942e-09 -1.6250256e-09 -0.0098981857)
(3.4260672e-09 3.4260668e-09 -0.0098982)
(2.7347321e-08 1.4121077e-08 -0.0098981621)
(2.4430944e-08 1.0444069e-08 -0.009898098)
(4.5272877e-09 8.1661273e-09 -0.009898074)
(3.3862212e-09 1.618629e-08 -0.0098981841)
(1.4121077e-08 2.7347321e-08 -0.0098981621)
(2.3204292e-08 2.3204292e-08 -0.0098981284)
(1.9317578e-08 1.3646219e-08 -0.0098980781)
(3.4366881e-09 7.6279905e-09 -0.0098980609)
(3.2531932e-09 2.5272529e-08 -0.0098981185)
(1.0444069e-08 2.4430944e-08 -0.009898098)
(1.3646219e-08 1.9317578e-08 -0.0098980781)
(8.8546428e-09 8.8546426e-09 -0.0098980508)
(5.1513516e-10 3.061252e-09 -0.0098980491)
(2.8251648e-09 4.955316e-09 -0.0098980914)
(8.1661271e-09 4.5272876e-09 -0.009898074)
(7.6279904e-09 3.4366882e-09 -0.0098980609)
(3.0612521e-09 5.1513516e-10 -0.0098980491)
(-4.2557226e-10 -4.2557226e-10 -0.0098980516)
(3.2623374e-09 3.2623375e-09 -0.010548805)
(1.2276863e-08 -1.6937921e-09 -0.010548792)
(5.221277e-08 1.1801576e-08 -0.01054877)
(6.3216197e-08 1.0740547e-08 -0.010548721)
(1.2257856e-08 8.9244595e-09 -0.010548704)
(-1.6937922e-09 1.2276864e-08 -0.010548792)
(2.5085721e-08 2.5085721e-08 -0.010548782)
(7.0864278e-08 4.1240398e-08 -0.010548748)
(5.8900523e-08 2.9247266e-08 -0.010548703)
(1.0441769e-08 2.1329007e-08 -0.010548689)
(1.1801576e-08 5.221277e-08 -0.01054877)
(4.1240398e-08 7.0864278e-08 -0.010548748)
(5.6374315e-08 5.6374315e-08 -0.010548724)
(4.3304805e-08 2.9857356e-08 -0.010548693)
(6.9790169e-09 1.4427969e-08 -0.010548686)
(1.0740547e-08 6.3216197e-08 -0.010548721)
(2.9247266e-08 5.8900523e-08 -0.010548703)
(2.9857356e-08 4.3304805e-08 -0.010548693)
(1.6954177e-08 1.6954177e-08 -0.010548681)
(1.5551115e-10 4.7212261e-09 -0.010548683)
(8.9244594e-09 1.2257856e-08 -0.010548704)
(2.1329007e-08 1.0441769e-08 -0.010548689)
(1.4427969e-08 6.9790169e-09 -0.010548686)
(4.7212263e-09 1.5551114e-10 -0.010548683)
(-1.1762834e-09 -1.1762834e-09 -0.010548687)
(8.8329895e-09 8.8329896e-09 -0.011766831)
(3.3034929e-08 2.1618865e-09 -0.011766814)
(8.6565912e-08 1.809597e-08 -0.011766793)
(9.1301461e-08 1.5740554e-08 -0.011766752)
(1.6347329e-08 1.2897127e-08 -0.011766741)
(2.1618863e-09 3.3034929e-08 -0.011766814)
(4.69294e-08 4.69294e-08 -0.011766804)
(1.0693391e-07 6.0335423e-08 -0.011766776)
(8.3503196e-08 3.8720555e-08 -0.01176674)
(1.3503902e-08 2.6024639e-08 -0.011766733)
(1.809597e-08 8.6565912e-08 -0.011766793)
(6.0335423e-08 1.0693391e-07 -0.011766776)
(7.8357067e-08 7.8357067e-08 -0.011766763)
(5.6990676e-08 3.5592104e-08 -0.011766742)
(7.8833845e-09 1.3611425e-08 -0.01176674)
(1.5740553e-08 9.1301461e-08 -0.011766752)
(3.8720555e-08 8.3503196e-08 -0.01176674)
(3.5592105e-08 5.6990676e-08 -0.011766742)
(1.8757554e-08 1.8757553e-08 -0.011766737)
(-1.1498841e-09 2.7960011e-09 -0.01176674)
(1.2897127e-08 1.6347329e-08 -0.011766741)
(2.6024638e-08 1.3503903e-08 -0.011766733)
(1.3611424e-08 7.8833844e-09 -0.01176674)
(2.7960015e-09 -1.1498843e-09 -0.01176674)
(-2.7576502e-09 -2.7576505e-09 -0.011766744)
(1.4558305e-08 1.4558305e-08 -0.013634133)
(5.0245462e-08 5.2624862e-09 -0.013634117)
(1.1411235e-07 2.2842275e-08 -0.013634104)
(1.1490617e-07 1.8621044e-08 -0.013634069)
(1.9467881e-08 1.4617774e-08 -0.013634061)
(5.2624862e-09 5.0245461e-08 -0.013634117)
(6.2671417e-08 6.2671417e-08 -0.01363411)
(1.3415019e-07 7.1222123e-08 -0.013634092)
(1.0256942e-07 3.9287296e-08 -0.013634062)
(1.5464611e-08 2.2634506e-08 -0.013634058)
(2.2842275e-08 1.1411235e-07 -0.013634104)
(7.1222123e-08 1.3415019e-07 -0.013634092)
(9.0728233e-08 9.0728233e-08 -0.013634088)
(6.6318554e-08 3.2911518e-08 -0.013634074)
(8.3660212e-09 7.543994e-09 -0.013634073)
(1.8621044e-08 1.1490617e-07 -0.013634069)
(3.9287296e-08 1.0256942e-07 -0.013634062)
(3.2911518e-08 6.6318554e-08 -0.013634074)
(1.9385181e-08 1.9385181e-08 -0.013634074)
(-1.4470715e-09 2.36955e-10 -0.013634074)
(1.4617774e-08 1.9467881e-08 -0.013634061)
(2.2634506e-08 1.5464611e-08 -0.013634058)
(7.543994e-09 8.3660211e-09 -0.013634073)
(2.36955e-10 -1.4470714e-09 -0.013634074)
(-4.3994627e-09 -4.3994627e-09 -0.013634079)
(1.9174394e-08 1.9174394e-08 -0.016197816)
(6.2086429e-08 6.8147269e-09 -0.016197803)
(1.3548114e-07 2.6184986e-08 -0.016197796)
(1.3446557e-07 2.0089956e-08 -0.016197764)
(2.153951e-08 1.4978668e-08 -0.016197759)
(6.8147271e-09 6.2086429e-08 -0.016197803)
(7.2602317e-08 7.2602317e-08 -0.0161978)
(1.5539399e-07 7.6051149e-08 -0.016197787)
(1.1765609e-07 3.3695219e-08 -0.016197761)
(1.6428221e-08 1.3653133e-08 -0.016197759)
(2.6184986e-08 1.3548115e-07 -0.016197796)
(7.6051149e-08 1.5539399e-07 -0.016197787)
(9.6574047e-08 9.6574046e-08 -0.01619779)
(7.2067557e-08 2.3880036e-08 -0.016197779)
(8.1781195e-09 -3.1861841e-09 -0.01619778)
(2.0089956e-08 1.3446557e-07 -0.016197764)
(3.3695218e-08 1.1765609e-07 -0.016197761)
(2.3880036e-08 7.2067556e-08 -0.016197779)
(1.7895864e-08 1.7895863e-08 -0.016197783)
(-1.6159253e-09 -3.5982603e-09 -0.016197784)
(1.4978667e-08 2.153951e-08 -0.016197759)
(1.3653133e-08 1.6428222e-08 -0.016197759)
(-3.186184e-09 8.1781194e-09 -0.01619778)
(-3.5982601e-09 -1.6159253e-09 -0.016197784)
(-6.1512963e-09 -6.1512963e-09 -0.01619779)
(2.3118948e-08 2.3118948e-08 -0.019518629)
(7.052507e-08 7.2623403e-09 -0.019518618)
(1.5366699e-07 2.8702958e-08 -0.019518614)
(1.5237648e-07 2.0725329e-08 -0.019518583)
(2.3037421e-08 1.4536013e-08 -0.019518579)
(7.2623403e-09 7.052507e-08 -0.019518618)
(7.8901085e-08 7.8901085e-08 -0.019518618)
(1.7386148e-07 7.7172365e-08 -0.019518608)
(1.3112606e-07 2.4012941e-08 -0.019518582)
(1.6848105e-08 7.9773592e-10 -0.019518581)
(2.8702958e-08 1.5366699e-07 -0.019518614)
(7.7172365e-08 1.7386148e-07 -0.019518608)
(9.877885e-08 9.8778849e-08 -0.019518615)
(7.6001848e-08 1.0533964e-08 -0.019518606)
(7.5606179e-09 -1.7704308e-08 -0.019518608)
(2.0725329e-08 1.5237648e-07 -0.019518583)
(2.401294e-08 1.3112606e-07 -0.019518582)
(1.0533964e-08 7.6001848e-08 -0.019518606)
(1.4642903e-08 1.4642903e-08 -0.019518612)
(-1.977409e-09 -8.9813161e-09 -0.019518614)
(1.4536013e-08 2.3037421e-08 -0.019518579)
(7.9773594e-10 1.6848105e-08 -0.019518581)
(-1.7704308e-08 7.5606179e-09 -0.019518608)
(-8.981316e-09 -1.9774091e-09 -0.019518614)
(-8.1888612e-09 -8.1888614e-09 -0.019518621)
(2.6745195e-08 2.6745195e-08 -0.023669154)
(7.6678222e-08 6.8696176e-09 -0.023669143)
(1.7005063e-07 3.0641867e-08 -0.023669144)
(1.6975918e-07 2.0739493e-08 -0.023669112)
(2.4179321e-08 1.3480326e-08 -0.023669109)
(6.8696176e-09 7.6678222e-08 -0.023669143)
(8.252323e-08 8.252323e-08 -0.023669145)
(1.9085545e-07 7.5389722e-08 -0.023669139)
(1.4401687e-07 1.0837854e-08 -0.023669113)
(1.6920154e-08 -1.5449035e-08 -0.023669113)
(3.0641867e-08 1.7005063e-07 -0.023669144)
(7.5389722e-08 1.9085545e-07 -0.023669139)
(9.8365257e-08 9.8365257e-08 -0.02366915)
(7.8920426e-08 -6.4978924e-09 -0.023669142)
(6.6547277e-09 -3.5694631e-08 -0.023669145)
(2.0739493e-08 1.6975918e-07 -0.023669112)
(1.0837854e-08 1.4401687e-07 -0.023669113)
(-6.4978926e-09 7.8920427e-08 -0.023669142)
(9.9569845e-09 9.9569848e-09 -0.023669151)
(-2.5443384e-09 -1.5891961e-08 -0.023669153)
(1.3480326e-08 2.4179321e-08 -0.023669109)
(-1.5449035e-08 1.6920154e-08 -0.023669113)
(-3.5694631e-08 6.6547278e-09 -0.023669145)
(-1.5891962e-08 -2.5443383e-09 -0.023669153)
(-1.0577903e-08 -1.0577903e-08 -0.023669161)
(3.0194225e-08 3.0194225e-08 -0.028731538)
(8.0684948e-08 5.6505104e-09 -0.028731528)
(1.8464597e-07 3.1961002e-08 -0.028731533)
(1.8669258e-07 2.0087447e-08 -0.028731501)
(2.4960149e-08 1.1771309e-08 -0.0287315)
(5.6505104e-09 8.0684948e-08 -0.028731528)
(8.3335113e-08 8.3335114e-08 -0.028731533)
(2.0630137e-07 7.0387242e-08 -0.02873153)
(1.5640804e-07 -6.1992377e-09 -0.028731505)
(1.6644011e-08 -3.54086e-08 -0.028731506)
(3.1961002e-08 1.8464597e-07 -0.028731533)
(7.0387242e-08 2.0630137e-07 -0.02873153)
(9.5111615e-08 9.5111615e-08 -0.028731547)
(8.0896738e-08 -2.7529926e-08 -0.02873154)
(5.487241e-09 -5.7405526e-08 -0.028731544)
(2.0087447e-08 1.8669258e-07 -0.028731501)
(-6.199238e-09 1.5640804e-07 -0.028731505)
(-2.7529926e-08 8.0896739e-08 -0.02873154)
(3.890899e-09 3.8908989e-09 -0.028731552)
(-3.2730554e-09 -2.4360019e-08 -0.028731554)
(1.1771309e-08 2.4960149e-08 -0.0287315)
(-3.54086e-08 1.6644011e-08 -0.028731506)
(-5.7405527e-08 5.4872412e-09 -0.028731544)
(-2.4360019e-08 -3.2730554e-09 -0.028731554)
(-1.3346704e-08 -1.3346704e-08 -0.028731563)
(3.3440653e-08 3.3440654e-08 -0.034794776)
(8.1913665e-08 3.4152346e-09 -0.034794767)
(1.964215e-07 3.2392335e-08 -0.034794778)
(2.0248095e-07 1.8528702e-08 -0.034794748)
(2.520809e-08 9.1989894e-09 -0.034794749)
(3.4152345e-09 8.1913665e-08 -0.034794767)
(8.0341187e-08 8.0341188e-08 -0.034794776)
(2.190917e-07 6.1005053e-08 -0.034794778)
(1.6769093e-07 -2.8166006e-08 -0.034794755)
(1.5878377e-08 -5.998086e-08 -0.034794758)
(3.2392335e-08 1.964215e-07 -0.034794778)
(6.1005053e-08 2.190917e-07 -0.034794778)
(8.7914306e-08 8.7914306e-08 -0.034794803)
(8.1495036e-08 -5.3536594e-08 -0.034794799)
(3.9981871e-09 -8.3562111e-08 -0.034794804)
(1.8528702e-08 2.0248095e-07 -0.034794748)
(-2.8166006e-08 1.6769093e-07 -0.034794755)
(-5.3536595e-08 8.1495037e-08 -0.034794799)
(-3.7854859e-09 -3.7854857e-09 -0.034794813)
(-4.1386339e-09 -3.4584158e-08 -0.034794816)
(9.1989895e-09 2.520809e-08 -0.034794749)
(-5.998086e-08 1.5878377e-08 -0.034794758)
(-8.3562111e-08 3.9981872e-09 -0.034794804)
(-3.4584159e-08 -4.1386339e-09 -0.034794816)
(-1.6534261e-08 -1.6534261e-08 -0.034794826)
(3.6312934e-08 3.6312934e-08 -0.041951643)
(7.903094e-08 -2.2028496e-10 -0.041951636)
(2.0336833e-07 3.1424321e-08 -0.041951655)
(2.1571477e-07 1.561574e-08 -0.04195163)
(2.4605321e-08 5.379163e-09 -0.041951634)
(-2.2028502e-10 7.9030941e-08 -0.041951636)
(7.1698021e-08 7.1698021e-08 -0.04195165)
(2.2712237e-07 4.5224817e-08 -0.041951662)
(1.7664704e-07 -5.6823926e-08 -0.041951642)
(1.4368744e-08 -9.0622851e-08 -0.041951648)
(3.1424321e-08 2.0336833e-07 -0.041951655)
(4.5224817e-08 2.2712237e-07 -0.041951662)
(7.4846385e-08 7.4846386e-08 -0.041951696)
(7.9867106e-08 -8.6084967e-08 -0.041951696)
(2.0727039e-09 -1.1532462e-07 -0.041951703)
(1.561574e-08 2.1571477e-07 -0.04195163)
(-5.6823926e-08 1.7664704e-07 -0.041951642)
(-8.6084967e-08 7.9867106e-08 -0.041951696)
(-1.3523968e-08 -1.3523968e-08 -0.041951716)
(-5.1243577e-09 -4.6900417e-08 -0.041951719)
(5.3791633e-09 2.460532e-08 -0.041951634)
(-9.0622851e-08 1.4368744e-08 -0.041951648)
(-1.1532462e-07 2.072704e-09 -0.041951703)
(-4.6900417e-08 -5.1243576e-09 -0.041951719)
(-2.0178262e-08 -2.0178262e-08 -0.04195173)
(3.849031e-08 3.849031e-08 -0.05029546)
(7.0003703e-08 -5.8374119e-09 -0.050295456)
(2.0242367e-07 2.8225887e-08 -0.050295487)
(2.2419115e-07 1.0629441e-08 -0.050295469)
(2.2690481e-08 -2.8902777e-10 -0.050295478)
(-5.837412e-09 7.0003703e-08 -0.050295456)
(5.4607069e-08 5.4607069e-08 -0.050295476)
(2.2712395e-07 1.9961294e-08 -0.050295502)
(1.8141878e-07 -9.4774871e-08 -0.050295489)
(1.1772012e-08 -1.2941656e-07 -0.050295499)
(2.8225887e-08 2.0242367e-07 -0.050295487)
(1.9961294e-08 2.2712395e-07 -0.050295502)
(5.3041728e-08 5.3041728e-08 -0.050295552)
(7.4813299e-08 -1.2735445e-07 -0.050295558)
(-4.0397674e-10 -1.5423184e-07 -0.050295566)
(1.0629442e-08 2.2419115e-07 -0.050295469)
(-9.4774871e-08 1.8141878e-07 -0.050295489)
(-1.2735445e-07 7.4813299e-08 -0.050295558)
(-2.5854787e-08 -2.5854787e-08 -0.050295583)
(-6.1462447e-09 -6.1598803e-08 -0.050295586)
(-2.8902754e-10 2.2690481e-08 -0.050295478)
(-1.2941656e-07 1.1772012e-08 -0.050295499)
(-1.5423184e-07 -4.0397668e-10 -0.050295566)
(-6.1598803e-08 -6.1462447e-09 -0.050295586)
(-2.4233321e-08 -2.4233321e-08 -0.050295598)
(3.9510599e-08 3.9510599e-08 -0.059916933)
(5.2252045e-08 -1.4142187e-08 -0.059916932)
(1.8946005e-07 2.1563835e-08 -0.05991698)
(2.2477669e-07 2.5150684e-09 -0.059916975)
(1.8868522e-08 -8.6440002e-09 -0.05991699)
(-1.4142187e-08 5.2252045e-08 -0.059916932)
(2.5331899e-08 2.5331899e-08 -0.059916962)
(2.1444594e-07 -1.9138876e-08 -0.059917007)
(1.7946494e-07 -1.4554323e-07 -0.059917006)
(7.709453e-09 -1.7899568e-07 -0.059917021)
(2.1563835e-08 1.8946005e-07 -0.05991698)
(-1.9138876e-08 2.1444594e-07 -0.059917007)
(1.8584921e-08 1.8584921e-08 -0.059917077)
(6.4919889e-08 -1.8003289e-07 -0.059917093)
(-3.4331069e-09 -2.0191487e-07 -0.059917103)
(2.5150686e-09 2.2477669e-07 -0.059916975)
(-1.4554323e-07 1.7946494e-07 -0.059917006)
(-1.8003289e-07 6.4919888e-08 -0.059917093)
(-4.1034852e-08 -4.1034852e-08 -0.059917125)
(-6.8785357e-09 -7.845418e-08 -0.059917126)
(-8.6440002e-09 1.8868522e-08 -0.05991699)
(-1.7899568e-07 7.7094527e-09 -0.059917021)
(-2.0191487e-07 -3.4331071e-09 -0.059917103)
(-7.8454179e-08 -6.8785358e-09 -0.059917126)
(-2.8379325e-08 -2.8379325e-08 -0.059917137)
(3.8841301e-08 3.8841301e-08 -0.07090126)
(2.3359111e-08 -2.5633244e-08 -0.070901265)
(1.5976603e-07 9.868877e-09 -0.070901329)
(2.1337568e-07 -1.0028876e-08 -0.070901345)
(1.247121e-08 -2.0611391e-08 -0.070901369)
(-2.5633244e-08 2.3359111e-08 -0.070901265)
(-2.0099525e-08 -2.0099525e-08 -0.070901303)
(1.8317258e-07 -7.7359171e-08 -0.070901374)
(1.6765528e-07 -2.1304929e-07 -0.07090139)
(1.8886944e-09 -2.4179777e-07 -0.070901411)
(9.868877e-09 1.5976603e-07 -0.070901329)
(-7.7359171e-08 1.8317258e-07 -0.070901374)
(-3.3183741e-08 -3.3183741e-08 -0.070901469)
(4.8937083e-08 -2.4663159e-07 -0.070901499)
(-6.6944416e-09 -2.591137e-07 -0.070901507)
(-1.0028875e-08 2.1337568e-07 -0.070901345)
(-2.1304929e-07 1.6765528e-07 -0.07090139)
(-2.4663159e-07 4.8937082e-08 -0.070901499)
(-5.8274678e-08 -5.8274678e-08 -0.070901538)
(-6.4327082e-09 -9.5746019e-08 -0.070901532)
(-2.0611391e-08 1.247121e-08 -0.070901369)
(-2.4179777e-07 1.8886943e-09 -0.070901411)
(-2.591137e-07 -6.6944418e-09 -0.070901507)
(-9.5746019e-08 -6.4327083e-09 -0.070901532)
(-3.1675336e-08 -3.1675336e-08 -0.070901537)
(3.6046397e-08 3.6046397e-08 -0.083324986)
(-1.7107436e-08 -3.9744681e-08 -0.083324998)
(1.0977849e-07 -8.2149173e-09 -0.083325074)
(1.8536422e-07 -2.798715e-08 -0.083325117)
(2.9391298e-09 -3.6602019e-08 -0.083325151)
(-3.9744681e-08 -1.7107436e-08 -0.083324998)
(-8.3499407e-08 -8.3499407e-08 -0.08332504)
(1.2741479e-07 -1.588862e-07 -0.083325138)
(1.4278357e-07 -2.9935279e-07 -0.083325178)
(-5.6757387e-09 -3.1766648e-07 -0.083325202)
(-8.2149173e-09 1.0977849e-07 -0.083325074)
(-1.588862e-07 1.2741479e-07 -0.083325138)
(-1.0607489e-07 -1.0607489e-07 -0.083325258)
(2.6583942e-08 -3.2734751e-07 -0.083325303)
(-9.2699946e-09 -3.2322475e-07 -0.083325308)
(-2.798715e-08 1.8536422e-07 -0.083325117)
(-2.9935279e-07 1.4278357e-07 -0.083325178)
(-3.2734751e-07 2.6583941e-08 -0.083325303)
(-7.4366288e-08 -7.4366288e-08 -0.083325347)
(-2.9272313e-09 -1.0864181e-07 -0.083325327)
(-3.6602019e-08 2.9391297e-09 -0.083325151)
(-3.1766648e-07 -5.6757388e-09 -0.083325202)
(-3.2322475e-07 -9.2699948e-09 -0.083325308)
(-1.0864181e-07 -2.9272314e-09 -0.083325327)
(-3.2120342e-08 -3.2120342e-08 -0.083325319)
(3.09261e-08 3.0926101e-08 -0.097249527)
(-6.4509579e-08 -5.341154e-08 -0.097249546)
(4.0935197e-08 -3.2368981e-08 -0.097249617)
(1.3716599e-07 -5.0592858e-08 -0.097249691)
(-9.7786215e-09 -5.519385e-08 -0.097249732)
(-5.341154e-08 -6.4509579e-08 -0.097249546)
(-1.594522e-07 -1.594522e-07 -0.097249577)
(4.516322e-08 -2.6147083e-07 -0.097249692)
(1.0292869e-07 -3.991962e-07 -0.097249759)
(-1.4379614e-08 -3.9881202e-07 -0.097249784)
(-3.2368981e-08 4.0935196e-08 -0.097249617)
(-2.6147083e-07 4.5163219e-08 -0.097249692)
(-1.988088e-07 -1.988088e-07 -0.097249825)
(-1.7519167e-10 -4.1533971e-07 -0.097249883)
(-9.5225041e-09 -3.8369091e-07 -0.097249877)
(-5.0592858e-08 1.3716599e-07 -0.097249691)
(-3.991962e-07 1.0292869e-07 -0.097249759)
(-4.1533971e-07 -1.7519215e-10 -0.097249883)
(-8.1953425e-08 -8.1953426e-08 -0.09724992)
(6.7195844e-09 -1.0745994e-07 -0.097249877)
(-5.519385e-08 -9.7786217e-09 -0.097249732)
(-3.9881202e-07 -1.4379614e-08 -0.097249784)
(-3.8369091e-07 -9.5225042e-09 -0.097249877)
(-1.0745994e-07 6.7195842e-09 -0.097249877)
(-2.6526846e-08 -2.6526846e-08 -0.097249847)
(2.3153271e-08 2.3153271e-08 -0.11270209)
(-1.0657524e-07 -6.01232e-08 -0.11270212)
(-3.4639564e-08 -5.8326045e-08 -0.11270215)
(6.9897173e-08 -7.3146737e-08 -0.11270225)
(-2.4512274e-08 -7.1462511e-08 -0.11270229)
(-6.01232e-08 -1.0657524e-07 -0.11270212)
(-2.2879421e-07 -2.2879421e-07 -0.11270212)
(-5.417487e-08 -3.6740059e-07 -0.11270222)
(5.0192474e-08 -4.9131481e-07 -0.11270231)
(-2.2828048e-08 -4.6302445e-07 -0.11270233)
(-5.8326045e-08 -3.4639564e-08 -0.11270215)
(-3.6740059e-07 -5.417487e-08 -0.11270222)
(-2.9716016e-07 -2.9716016e-07 -0.11270233)
(-2.572669e-08 -4.892213e-07 -0.11270239)
(-5.6520352e-09 -4.1611685e-07 -0.11270237)
(-7.3146737e-08 6.9897173e-08 -0.11270225)
(-4.9131481e-07 5.0192474e-08 -0.11270231)
(-4.892213e-07 -2.572669e-08 -0.11270239)
(-6.8764217e-08 -6.8764218e-08 -0.1127024)
(2.5908254e-08 -7.7853375e-08 -0.11270232)
(-7.1462511e-08 -2.4512274e-08 -0.11270229)
(-4.6302445e-07 -2.2828048e-08 -0.11270233)
(-4.1611685e-07 -5.6520355e-09 -0.11270237)
(-7.7853374e-08 2.5908253e-08 -0.11270232)
(-1.1711473e-08 -1.1711474e-08 -0.11270227)
(1.0796928e-08 1.0796928e-08 -0.12962665)
(-1.2705855e-07 -5.3026493e-08 -0.1296267)
(-9.1015125e-08 -7.6925594e-08 -0.12962666)
(-4.4896037e-09 -8.6113822e-08 -0.12962676)
(-3.7818946e-08 -7.7145322e-08 -0.12962679)
(-5.3026493e-08 -1.2705855e-07 -0.1296267)
(-2.5864233e-07 -2.5864233e-07 -0.12962666)
(-1.4064612e-07 -4.3639479e-07 -0.1296267)
(-4.8191958e-09 -5.3247208e-07 -0.12962678)
(-2.8850447e-08 -4.7200375e-07 -0.12962679)
(-7.6925594e-08 -9.1015126e-08 -0.12962666)
(-4.3639479e-07 -1.4064612e-07 -0.1296267)
(-3.6484487e-07 -3.6484487e-07 -0.12962672)
(-4.0098565e-08 -5.0671925e-07 -0.12962675)
(2.4932745e-09 -3.8082653e-07 -0.12962672)
(-8.6113822e-08 -4.4896038e-09 -0.12962676)
(-5.3247208e-07 -4.819196e-09 -0.12962678)
(-5.0671925e-07 -4.0098565e-08 -0.12962675)
(-2.0800853e-08 -2.0800853e-08 -0.1296267)
(5.5078033e-08 -7.2390096e-09 -0.12962662)
(-7.7145322e-08 -3.7818946e-08 -0.12962679)
(-4.7200375e-07 -2.8850447e-08 -0.12962679)
(-3.8082653e-07 2.4932742e-09 -0.12962672)
(-7.239009e-09 5.5078033e-08 -0.12962662)
(1.1534504e-08 1.1534504e-08 -0.12962655)
(-1.0795802e-08 -1.0795802e-08 -0.14779252)
(-1.2302963e-07 -3.7638974e-08 -0.14779259)
(-1.0035833e-07 -8.1250444e-08 -0.14779251)
(-5.803126e-08 -8.2065693e-08 -0.14779258)
(-4.3005903e-08 -6.888502e-08 -0.14779257)
(-3.7638974e-08 -1.2302963e-07 -0.14779259)
(-2.287116e-07 -2.287116e-07 -0.14779258)
(-1.6699841e-07 -4.2228299e-07 -0.14779253)
(-3.9483124e-08 -4.7640494e-07 -0.14779257)
(-2.982523e-08 -3.9666663e-07 -0.14779256)
(-8.1250444e-08 -1.0035834e-07 -0.14779251)
(-4.2228299e-07 -1.6699841e-07 -0.14779253)
(-3.4805168e-07 -3.4805168e-07 -0.14779243)
(-3.2414898e-08 -4.1672673e-07 -0.14779241)
(1.0152975e-08 -2.4521251e-07 -0.1477924)
(-8.2065693e-08 -5.803126e-08 -0.14779258)
(-4.7640494e-07 -3.9483124e-08 -0.14779257)
(-4.1672673e-07 -3.2414898e-08 -0.14779241)
(6.3356052e-08 6.3356051e-08 -0.1477923)
(8.4517585e-08 9.3271869e-08 -0.14779226)
(-6.888502e-08 -4.3005903e-08 -0.14779257)
(-3.9666663e-07 -2.982523e-08 -0.14779256)
(-2.4521251e-07 1.0152975e-08 -0.1477924)
(9.3271869e-08 8.4517585e-08 -0.14779226)
(3.0096854e-08 3.0096854e-08 -0.14779226)
(-3.8999669e-08 -3.8999669e-08 -0.16664603)
(-1.2079257e-07 -4.5634639e-08 -0.16664606)
(-7.4598573e-08 -8.9261224e-08 -0.16664598)
(-6.0113453e-08 -8.0382291e-08 -0.16664599)
(-3.1871964e-08 -7.2287961e-08 -0.16664593)
(-4.563464e-08 -1.2079257e-07 -0.16664606)
(-1.961849e-07 -1.961849e-07 -0.16664605)
(-1.2672005e-07 -3.5579688e-07 -0.16664594)
(-3.4653559e-08 -3.6397645e-07 -0.16664593)
(-2.3777634e-08 -3.084902e-07 -0.16664588)
(-8.9261224e-08 -7.4598573e-08 -0.16664598)
(-3.5579688e-07 -1.2672005e-07 -0.16664594)
(-2.4239012e-07 -2.4239012e-07 -0.16664574)
(-1.280677e-08 -2.3947786e-07 -0.16664568)
(5.1188693e-09 -7.6273872e-08 -0.16664567)
(-8.0382292e-08 -6.0113453e-08 -0.16664599)
(-3.6397645e-07 -3.4653559e-08 -0.16664593)
(-2.3947786e-07 -1.280677e-08 -0.16664568)
(1.3146269e-07 1.3146269e-07 -0.16664558)
(8.5025022e-08 1.3833949e-07 -0.1666456)
(-7.2287961e-08 -3.1871964e-08 -0.16664593)
(-3.084902e-07 -2.3777634e-08 -0.16664588)
(-7.6273873e-08 5.1188694e-09 -0.16664567)
(1.3833949e-07 8.5025021e-08 -0.1666456)
(9.7034061e-09 9.7034059e-09 -0.16664566)
(-2.4443537e-08 -2.4443537e-08 -0.20021917)
(-6.6587277e-08 -3.3550825e-08 -0.20021906)
(-3.3242295e-08 -5.5951473e-08 -0.20021896)
(-6.5948971e-09 -4.3527594e-08 -0.20021894)
(-2.1830488e-09 -3.5780829e-08 -0.2002189)
(-3.3550825e-08 -6.6587277e-08 -0.20021906)
(-1.1384918e-07 -1.1384918e-07 -0.20021891)
(-4.8207448e-08 -1.878422e-07 -0.2002187)
(2.366107e-08 -1.7230863e-07 -0.20021873)
(5.5637167e-09 -1.4030086e-07 -0.20021872)
(-5.5951473e-08 -3.3242295e-08 -0.20021896)
(-1.878422e-07 -4.8207449e-08 -0.2002187)
(-9.1701748e-08 -9.1701748e-08 -0.20021834)
(4.0946446e-08 -6.8607196e-08 -0.20021836)
(1.915547e-08 3.3276502e-08 -0.20021842)
(-4.3527594e-08 -6.5948967e-09 -0.20021894)
(-1.7230863e-07 2.3661071e-08 -0.20021873)
(-6.8607195e-08 4.0946446e-08 -0.20021836)
(1.4863932e-07 1.4863932e-07 -0.20021843)
(7.3486182e-08 1.0635494e-07 -0.20021874)
(-3.5780829e-08 -2.1830485e-09 -0.2002189)
(-1.4030086e-07 5.5637172e-09 -0.20021872)
(3.3276501e-08 1.915547e-08 -0.20021842)
(1.0635494e-07 7.3486182e-08 -0.20021874)
(-9.0341201e-09 -9.0341201e-09 -0.20021872)
)
;

boundaryField
{
    wall_minX
    {
        type            extrapolatedCalculated;
        value           nonuniform List<vector> 
100
(
(-1.1993878e-12 1.8026374e-11 -0.009898189)
(0 -1.6250256e-09 -0.0098981857)
(0 1.618629e-08 -0.0098981841)
(0 2.5272529e-08 -0.0098981185)
(0 4.955316e-09 -0.0098980914)
(0 3.2623375e-09 -0.010548805)
(0 1.2276864e-08 -0.010548792)
(0 5.221277e-08 -0.01054877)
(0 6.3216197e-08 -0.010548721)
(0 1.2257856e-08 -0.010548704)
(0 8.8329896e-09 -0.011766831)
(0 3.3034929e-08 -0.011766814)
(0 8.6565912e-08 -0.011766793)
(0 9.1301461e-08 -0.011766752)
(0 1.6347329e-08 -0.011766741)
(0 1.4558305e-08 -0.013634133)
(0 5.0245461e-08 -0.013634117)
(0 1.1411235e-07 -0.013634104)
(0 1.1490617e-07 -0.013634069)
(0 1.9467881e-08 -0.013634061)
(0 1.9174394e-08 -0.016197816)
(0 6.2086429e-08 -0.016197803)
(0 1.3548115e-07 -0.016197796)
(0 1.3446557e-07 -0.016197764)
(0 2.153951e-08 -0.016197759)
(0 2.3118948e-08 -0.019518629)
(0 7.052507e-08 -0.019518618)
(0 1.5366699e-07 -0.019518614)
(0 1.5237648e-07 -0.019518583)
(0 2.3037421e-08 -0.019518579)
(0 2.6745195e-08 -0.023669154)
(0 7.6678222e-08 -0.023669143)
(0 1.7005063e-07 -0.023669144)
(0 1.6975918e-07 -0.023669112)
(0 2.4179321e-08 -0.023669109)
(0 3.0194225e-08 -0.028731538)
(0 8.0684948e-08 -0.028731528)
(0 1.8464597e-07 -0.028731533)
(0 1.8669258e-07 -0.028731501)
(0 2.4960149e-08 -0.0287315)
(0 3.3440654e-08 -0.034794776)
(0 8.1913665e-08 -0.034794767)
(0 1.964215e-07 -0.034794778)
(0 2.0248095e-07 -0.034794748)
(0 2.520809e-08 -0.034794749)
(0 3.6312934e-08 -0.041951643)
(0 7.9030941e-08 -0.041951636)
(0 2.0336833e-07 -0.041951655)
(0 2.1571477e-07 -0.04195163)
(0 2.460532e-08 -0.041951634)
(0 3.849031e-08 -0.05029546)
(0 7.0003703e-08 -0.050295456)
(0 2.0242367e-07 -0.050295487)
(0 2.2419115e-07 -0.050295469)
(0 2.2690481e-08 -0.050295478)
(0 3.9510599e-08 -0.059916933)
(0 5.2252045e-08 -0.059916932)
(0 1.8946005e-07 -0.05991698)
(0 2.2477669e-07 -0.059916975)
(0 1.8868522e-08 -0.05991699)
(0 3.8841301e-08 -0.07090126)
(0 2.3359111e-08 -0.070901265)
(0 1.5976603e-07 -0.070901329)
(0 2.1337568e-07 -0.070901345)
(0 1.247121e-08 -0.070901369)
(0 3.6046397e-08 -0.083324986)
(0 -1.7107436e-08 -0.083324998)
(0 1.0977849e-07 -0.083325074)
(0 1.8536422e-07 -0.083325117)
(0 2.9391297e-09 -0.083325151)
(0 3.0926101e-08 -0.097249527)
(0 -6.4509579e-08 -0.097249546)
(0 4.0935196e-08 -0.097249617)
(0 1.3716599e-07 -0.097249691)
(0 -9.7786217e-09 -0.097249732)
(0 2.3153271e-08 -0.11270209)
(0 -1.0657524e-07 -0.11270212)
(0 -3.4639564e-08 -0.11270215)
(0 6.9897173e-08 -0.11270225)
(0 -2.4512274e-08 -0.11270229)
(0 1.0796928e-08 -0.12962665)
(0 -1.2705855e-07 -0.1296267)
(0 -9.1015126e-08 -0.12962666)
(0 -4.4896038e-09 -0.12962676)
(0 -3.7818946e-08 -0.12962679)
(0 -1.0795802e-08 -0.14779252)
(0 -1.2302963e-07 -0.14779259)
(0 -1.0035834e-07 -0.14779251)
(0 -5.803126e-08 -0.14779258)
(0 -4.3005903e-08 -0.14779257)
(0 -3.8999669e-08 -0.16664603)
(0 -1.2079257e-07 -0.16664606)
(0 -7.4598573e-08 -0.16664598)
(0 -6.0113453e-08 -0.16664599)
(0 -3.1871964e-08 -0.16664593)
(0 -2.4443537e-08 -0.20021917)
(0 -6.6587277e-08 -0.20021906)
(0 -3.3242295e-08 -0.20021896)
(0 -6.5948967e-09 -0.20021894)
(0 -2.1830485e-09 -0.2002189)
)
;
    }
    wall_maxX
    {
        type            extrapolatedCalculated;
        value           nonuniform List<vector> 
100
(
(0 2.8251648e-09 -0.0098980914)
(0 8.1661273e-09 -0.009898074)
(0 7.6279905e-09 -0.0098980609)
(0 3.061252e-09 -0.0098980491)
(0 -4.2557226e-10 -0.0098980516)
(0 8.9244595e-09 -0.010548704)
(0 2.1329007e-08 -0.010548689)
(0 1.4427969e-08 -0.010548686)
(0 4.7212261e-09 -0.010548683)
(0 -1.1762834e-09 -0.010548687)
(0 1.2897127e-08 -0.011766741)
(0 2.6024639e-08 -0.011766733)
(0 1.3611425e-08 -0.01176674)
(0 2.7960011e-09 -0.01176674)
(0 -2.7576505e-09 -0.011766744)
(0 1.4617774e-08 -0.013634061)
(0 2.2634506e-08 -0.013634058)
(0 7.543994e-09 -0.013634073)
(0 2.36955e-10 -0.013634074)
(0 -4.3994627e-09 -0.013634079)
(0 1.4978668e-08 -0.016197759)
(0 1.3653133e-08 -0.016197759)
(0 -3.1861841e-09 -0.01619778)
(0 -3.5982603e-09 -0.016197784)
(0 -6.1512963e-09 -0.01619779)
(0 1.4536013e-08 -0.019518579)
(0 7.9773592e-10 -0.019518581)
(0 -1.7704308e-08 -0.019518608)
(0 -8.9813161e-09 -0.019518614)
(0 -8.1888614e-09 -0.019518621)
(0 1.3480326e-08 -0.023669109)
(0 -1.5449035e-08 -0.023669113)
(0 -3.5694631e-08 -0.023669145)
(0 -1.5891961e-08 -0.023669153)
(0 -1.0577903e-08 -0.023669161)
(0 1.1771309e-08 -0.0287315)
(0 -3.54086e-08 -0.028731506)
(0 -5.7405526e-08 -0.028731544)
(0 -2.4360019e-08 -0.028731554)
(0 -1.3346704e-08 -0.028731563)
(0 9.1989894e-09 -0.034794749)
(0 -5.998086e-08 -0.034794758)
(0 -8.3562111e-08 -0.034794804)
(0 -3.4584158e-08 -0.034794816)
(0 -1.6534261e-08 -0.034794826)
(0 5.379163e-09 -0.041951634)
(0 -9.0622851e-08 -0.041951648)
(0 -1.1532462e-07 -0.041951703)
(0 -4.6900417e-08 -0.041951719)
(0 -2.0178262e-08 -0.04195173)
(0 -2.8902777e-10 -0.050295478)
(0 -1.2941656e-07 -0.050295499)
(0 -1.5423184e-07 -0.050295566)
(0 -6.1598803e-08 -0.050295586)
(0 -2.4233321e-08 -0.050295598)
(0 -8.6440002e-09 -0.05991699)
(0 -1.7899568e-07 -0.059917021)
(0 -2.0191487e-07 -0.059917103)
(0 -7.845418e-08 -0.059917126)
(0 -2.8379325e-08 -0.059917137)
(0 -2.0611391e-08 -0.070901369)
(0 -2.4179777e-07 -0.070901411)
(0 -2.591137e-07 -0.070901507)
(0 -9.5746019e-08 -0.070901532)
(0 -3.1675336e-08 -0.070901537)
(0 -3.6602019e-08 -0.083325151)
(0 -3.1766648e-07 -0.083325202)
(0 -3.2322475e-07 -0.083325308)
(0 -1.0864181e-07 -0.083325327)
(0 -3.2120342e-08 -0.083325319)
(0 -5.519385e-08 -0.097249732)
(0 -3.9881202e-07 -0.097249784)
(0 -3.8369091e-07 -0.097249877)
(0 -1.0745994e-07 -0.097249877)
(0 -2.6526846e-08 -0.097249847)
(0 -7.1462511e-08 -0.11270229)
(0 -4.6302445e-07 -0.11270233)
(0 -4.1611685e-07 -0.11270237)
(0 -7.7853375e-08 -0.11270232)
(0 -1.1711474e-08 -0.11270227)
(0 -7.7145322e-08 -0.12962679)
(0 -4.7200375e-07 -0.12962679)
(0 -3.8082653e-07 -0.12962672)
(0 -7.2390096e-09 -0.12962662)
(0 1.1534504e-08 -0.12962655)
(0 -6.888502e-08 -0.14779257)
(0 -3.9666663e-07 -0.14779256)
(0 -2.4521251e-07 -0.1477924)
(0 9.3271869e-08 -0.14779226)
(0 3.0096854e-08 -0.14779226)
(0 -7.2287961e-08 -0.16664593)
(0 -3.084902e-07 -0.16664588)
(0 -7.6273872e-08 -0.16664567)
(0 1.3833949e-07 -0.1666456)
(0 9.7034059e-09 -0.16664566)
(0 -3.5780829e-08 -0.2002189)
(0 -1.4030086e-07 -0.20021872)
(0 3.3276502e-08 -0.20021842)
(0 1.0635494e-07 -0.20021874)
(0 -9.0341201e-09 -0.20021872)
)
;
    }
    wall_minY
    {
        type            extrapolatedCalculated;
        value           nonuniform List<vector> 
100
(
(1.8026606e-11 -1.1993878e-12 -0.009898189)
(3.2623374e-09 0 -0.010548805)
(8.8329895e-09 0 -0.011766831)
(1.4558305e-08 0 -0.013634133)
(1.9174394e-08 0 -0.016197816)
(2.3118948e-08 0 -0.019518629)
(2.6745195e-08 0 -0.023669154)
(3.0194225e-08 0 -0.028731538)
(3.3440653e-08 0 -0.034794776)
(3.6312934e-08 0 -0.041951643)
(3.849031e-08 0 -0.05029546)
(3.9510599e-08 0 -0.059916933)
(3.8841301e-08 0 -0.07090126)
(3.6046397e-08 0 -0.083324986)
(3.09261e-08 0 -0.097249527)
(2.3153271e-08 0 -0.11270209)
(1.0796928e-08 0 -0.12962665)
(-1.0795802e-08 0 -0.14779252)
(-3.8999669e-08 0 -0.16664603)
(-2.4443537e-08 0 -0.20021917)
(-1.6250256e-09 1.0408341e-15 -0.0098981857)
(1.2276863e-08 0 -0.010548792)
(3.3034929e-08 0 -0.011766814)
(5.0245462e-08 0 -0.013634117)