/*--------------------------------*- C++ -*----------------------------------*\
| =========                 |                                                 |
| \\      /  F ield         | OpenFOAM: The Open Source CFD Toolbox           |
|  \\    /   O peration     | Version:  v2106                                 |
|   \\  /    A nd           | Website:  www.openfoam.com                      |
|    \\/     M anipulation  |                                                 |
\*---------------------------------------------------------------------------*/
FoamFile
{
    version     2.0;
    format      ascii;
    arch        "LSB;label=32;scalar=64";
    class       volScalarField;
    location    "10";
    object      Tmode_lapla2;
}
// * * * * * * * * * * * * * * * * * * * * * * * * * * * * * * * * * * * * * //

dimensions      [0 -2 0 0 0 0 0];

internalField   nonuniform List<scalar> 
500
(
-0.076802669
-0.076798553
-0.076779883
-0.076795569
-0.076797025
-0.076798553
-0.076771476
-0.07677589
-0.07678946
-0.076792524
-0.076779883
-0.07677589
-0.07677516
-0.076786254
-0.076791279
-0.076795569
-0.07678946
-0.076786254
-0.076791721
-0.076791588
-0.076797025
-0.076792524
-0.076791279
-0.076791588
-0.076791691
-0.21596203
-0.21594887
-0.21593368
-0.21595704
-0.21595992
-0.21594887
-0.21592372
-0.21593007
-0.21595087
-0.21595705
-0.21593368
-0.21593007
-0.21592766
-0.21594256
-0.2159516
-0.21595704
-0.21595087
-0.21594256
-0.21594588
-0.21594778
-0.21595992
-0.21595705
-0.2159516
-0.21594778
-0.21595554
-0.31087928
-0.31085716
-0.31085772
-0.31087756
-0.31087909
-0.31085716
-0.31083945
-0.31084333
-0.31086369
-0.31087321
-0.31085772
-0.31084333
-0.31083644
-0.31084771
-0.31086042
-0.31087756
-0.31086369
-0.31084771
-0.31084548
-0.31085582
-0.31087909
-0.31087321
-0.31086042
-0.31085582
-0.31087316
-0.32897095
-0.32893896
-0.32895817
-0.32896331
-0.32896706
-0.32893896
-0.32893781
-0.32892742
-0.32893608
-0.32895197
-0.32895817
-0.32892742
-0.32891028
-0.32891036
-0.32893089
-0.32896331
-0.32893608
-0.32891036
-0.32889942
-0.32892967
-0.32896706
-0.32895197
-0.32893089
-0.32892967
-0.32895826
-0.2334156
-0.23336637
-0.23341234
-0.23338687
-0.23339421
-0.23336637
-0.23338938
-0.23335631
-0.23333976
-0.23336447
-0.23341234
-0.23335631
-0.23332811
-0.23330728
-0.23333753
-0.23338687
-0.23333976
-0.23330728
-0.23328312
-0.23333932
-0.23339421
-0.23336447
-0.23333753
-0.23333932
-0.23338272
0.017683631
0.017758437
0.01767343
0.017746968
0.017732985
0.017758437
0.017700987
0.017764218
0.017821061
0.017783295
0.01767343
0.017764218
0.017801078
0.017853045
0.017810137
0.017746968
0.017821061
0.017853045
0.017893799
0.017807643
0.017732985
0.017783295
0.017810137
0.017807643
0.017745518
0.47100474
0.4711155
0.47097596
0.47111803
0.47109327
0.4711155
0.47101137
0.47111167
0.47122684
0.4711708
0.47097596
0.47111167
0.47115186
0.47124688
0.4711882
0.47111803
0.47122684
0.47124688
0.47130741
0.4711889
0.47109327
0.4711708
0.4711882
0.4711889
0.47110397
1.1759311
1.1760903
1.1758778
1.1761115
1.1760709
1.1760903
1.1759258
1.1760683
1.1762628
1.1761826
1.1758778
1.1760683
1.1761027
1.1762544
1.1761773
1.1761115
1.1762628
1.1762544
1.1763376
1.1761868
1.1760709
1.1761826
1.1761773
1.1761868
1.1760753
2.1795277
2.1797491
2.1794432
2.1797929
2.1797305
2.1797491
2.1795103
2.1796963
2.1799929
2.1798827
2.1794432
2.1796963
2.1797104
2.1799331
2.1798366
2.1797929
2.1799929
2.1799331
2.1800412
2.1798624
2.1797305
2.1798827
2.1798366
2.1798624
2.179722
3.5166563
3.5169535
3.5165336
3.5170214
3.5169307
3.5169535
3.5166281
3.5168516
3.5172727
3.5171276
3.5165336
3.5168516
3.5168236
3.5171309
3.5170168
3.5170214
3.5172727
3.5171309
3.5172641
3.5170687
3.5169307
3.5171276
3.5170168
3.5170687
3.5168997
5.1919765
5.1923592
5.1918088
5.1924489
5.1923233
5.1923592
5.1919411
5.1921841
5.192747
5.1925644
5.1918088
5.1921841
5.1920829
5.1924839
5.192359
5.1924489
5.192747
5.1924839
5.1926386
5.1924484
5.1923233
5.1925644
5.192359
5.1924484
5.1922561
7.1483336
7.1488015
7.1481152
7.1489056
7.1487389
7.1488015
7.148297
7.1485256
7.1492348
7.1490161
7.1481152
7.1485256
7.1483093
7.1488032
7.1486809
7.1489056
7.1492348
7.1488032
7.1489697
7.1488215
7.1487389
7.1490161
7.1486809
7.1488215
7.1486184
9.2124521
9.2129863
9.212181
9.2130931
9.2128801
9.2129863
9.2124228
9.2125868
9.2134234
9.2131756
9.212181
9.2125868
9.2122051
9.2127738
9.2126746
9.2130931
9.2134234
9.2127738
9.2129339
9.2128821
9.2128801
9.2131756
9.2126746
9.2128821
9.2126897
11.003311
11.003865
11.002993
11.003964
11.003701
11.003865
11.003298
11.003341
11.004253
11.003988
11.002993
11.003341
11.002747
11.003349
11.003296
11.003964
11.004253
11.003349
11.003476
11.003591
11.003701
11.003988
11.003296
11.003591
11.003437
11.778687
11.779184
11.778341
11.779278
11.778965
11.779184
11.778697
11.778586
11.779488
11.779219
11.778341
11.778586
11.777762
11.778335
11.778344
11.779278
11.779488
11.778335
11.778405
11.778759
11.778965
11.779219
11.778344
11.778759
11.778667
10.16871
10.169066
10.168377
10.169185
10.168834
10.169066
10.168742
10.168512
10.169317
10.169057
10.168377
10.168512
10.167527
10.16802
10.168081
10.169185
10.169317
10.16802
10.168044
10.168676
10.168834
10.169057
10.168081
10.168676
10.168639
3.657059
3.6572324
3.6567993
3.6574278
3.6570757
3.6572324
3.6571057
3.656852
3.6575407
3.6572944
3.6567993
3.656852
3.6558939
3.6563229
3.6563707
3.6574278
3.6575407
3.6563229
3.6563888
3.6572246
3.6570757
3.6572944
3.6563707
3.6572246
3.6571241
-12.506359
-12.506315
-12.5065
-12.506092
-12.506387
-12.506315
-12.506317
-12.506663
-12.506116
-12.506374
-12.5065
-12.506663
-12.507551
-12.507191
-12.507293
-12.506092
-12.506116
-12.507191
-12.507068
-12.506303
-12.506387
-12.506374
-12.507293
-12.506303
-12.506789
-46.299295
-46.299337
-46.299386
-46.299236
-46.299433
-46.299337
-46.299246
-46.299634
-46.299323
-46.299491
-46.299386
-46.299634
-46.300375
-46.300203
-46.300157
-46.299236
-46.299323
-46.300203
-46.300221
-46.299242
-46.299433
-46.299491
-46.300157
-46.299242
-46.299552
-386.05851
-386.05851
-386.05855
-386.05858
-386.05854
-386.05851
-386.05855
-386.0588
-386.05873
-386.05855
-386.05855
-386.0588
-386.05924
-386.05922
-386.05904
-386.05858
-386.05873
-386.05922
-386.05922
-386.05827
-386.05854
-386.05855
-386.05904
-386.05827
-386.05808
)
;

boundaryField
{
    wall_minX
    {
        type            extrapolatedCalculated;
        value           nonuniform List<scalar> 
100
(
-0.076802669
-0.076798553
-0.076779883
-0.076795569
-0.076797025
-0.21596203
-0.21594887
-0.21593368
-0.21595704
-0.21595992
-0.31087928
-0.31085716
-0.31085772
-0.31087756
-0.31087909
-0.32897095
-0.32893896
-0.32895817
-0.32896331
-0.32896706
-0.2334156
-0.23336637
-0.23341234
-0.23338687
-0.23339421
0.017683631
0.017758437
0.01767343
0.017746968
0.017732985
0.47100474
0.4711155
0.47097596
0.47111803
0.47109327
1.1759311
1.1760903
1.1758778
1.1761115
1.1760709
2.1795277
2.1797491
2.1794432
2.1797929
2.1797305
3.5166563
3.5169535
3.5165336
3.5170214
3.5169307
5.1919765
5.1923592
5.1918088
5.1924489
5.1923233
7.1483336
7.1488015
7.1481152
7.1489056
7.1487389
9.2124521
9.2129863
9.212181
9.2130931
9.2128801
11.003311
11.003865
11.002993
11.003964
11.003701
11.778687
11.779184
11.778341
11.779278
11.778965
10.16871
10.169066
10.168377
10.169185
10.168834
3.657059
3.6572324
3.6567993
3.6574278
3.6570757
-12.506359
-12.506315
-12.5065
-12.506092
-12.506387
-46.299295
-46.299337
-46.299386
-46.299236
-46.299433
-386.05851
-386.05851
-386.05855
-386.05858
-386.05854
)
;
    }
    wall_maxX
    {
        type            extrapolatedCalculated;
        value           nonuniform List<scalar> 
100
(
-0.076797025
-0.076792524
-0.076791279
-0.076791588
-0.076791691
-0.21595992
-0.21595705
-0.2159516
-0.21594778
-0.21595554
-0.31087909
-0.31087321
-0.31086042
-0.31085582
-0.31087316
-0.32896706
-0.32895197
-0.32893089
-0.32892967
-0.32895826
-0.23339421
-0.23336447
-0.23333753
-0.23333932
-0.23338272
0.017732985
0.017783295
0.017810137
0.017807643
0.017745518
0.47109327
0.4711708
0.4711882
0.4711889
0.47110397
1.1760709
1.1761826
1.1761773
1.1761868
1.1760753
2.1797305
2.1798827
2.1798366
2.1798624
2.179722
3.5169307
3.5171276
3.5170168
3.5170687
3.5168997
5.1923233
5.1925644
5.192359
5.1924484
5.1922561
7.1487389
7.1490161
7.1486809
7.1488215
7.1486184
9.2128801
9.2131756
9.2126746
9.2128821
9.2126897
11.003701
11.003988
11.003296
11.003591
11.003437
11.778965
11.779219
11.778344
11.778759
11.778667
10.168834
10.169057
10.168081
10.168676
10.168639
3.6570757
3.6572944
3.6563707
3.6572246
3.6571241
-12.506387
-12.506374
-12.507293
-12.506303
-12.506789
-46.299433
-46.299491
-46.300157
-46.299242
-46.299552
-386.05854
-386.05855
-386.05904
-386.05827
-386.05808
)
;
    }
    wall_minY
    {
        type            extrapolatedCalculated;
        value           nonuniform List<scalar> 
100
(
-0.076802669
-0.21596203
-0.31087928
-0.32897095
-0.2334156
0.017683631
0.47100474
1.1759311
2.1795277
3.5166563
5.1919765
7.1483336
9.2124521
11.003311
11.778687
10.16871
3.657059
-12.506359
-46.299295
-386.05851
-0.076798553
-0.21594887
-0.31085716
-0.32893896
-0.23336637
0.017758437
0.4711155
1.1760903
2.1797491
3.5169535
5.1923592
7.1488015
9.2129863
11.003865
11.779184
10.169066
3.6572324
-12.506315
-46.299337
-386.05851
-0.076779883
-0.21593368
-0.31085772
-0.32895817
-0.23341234
0.01767343
0.47097596
1.1758778
2.1794432
3.5165336
5.1918088
7.1481152
9.212181
11.002993
11.778341
10.168377
3.6567993
-12.5065
-46.299386
-386.05855
-0.076795569
-0.21595704
-0.31087756
-0.32896331
-0.23338687
0.017746968
0.47111803
1.1761115
2.1797929
3.5170214
5.1924489
7.1489056
9.2130931
11.003964
11.779278
10.169185
3.6574278
-12.506092
-46.299236
-386.05858
-0.076797025
-0.21595992
-0.31087909
-0.32896706
-0.23339421
0.017732985
0.47109327
1.1760709
2.1797305
3.5169307
5.1923233
7.1487389
9.2128801
11.003701
11.778965
10.168834
3.6570757
-12.506387
-46.299433
-386.05854
)
;
    }
    wall_maxY
    {
        type            extrapolatedCalculated;
        value           nonuniform List<scalar> 
100
(
-0.076797025
-0.21595992
-0.31087909
-0.32896706
-0.23339421
0.017732985
0.47109327
1.1760709
2.1797305
3.5169307
5.1923233
7.1487389
9.2128801
11.003701
11.778965
10.168834
3.6570757
-12.506387
-46.299433
-386.05854
-0.076792524
-0.21595705
-0.31087321
-0.32895197
-0.23336447
0.017783295
0.4711708
1.1761826
2.1798827
3.5171276
5.1925644
7.1490161
9.2131756
11.003988
11.779219
10.169057
3.6572944
-12.506374
-46.299491
-386.05855
-0.076791279
-0.2159516
-0.31086042
-0.32893089
-0.23333753
0.017810137
0.4711882
1.1761773
2.1798366
3.5170168
5.192359
7.1486809
9.2126746
11.003296
11.778344
10.168081
3.6563707
-12.507293
-46.300157
-386.05904
-0.076791588
-0.21594778
-0.31085582
-0.32892967
-0.23333932
0.017807643
0.4711889
1.1761868
2.1798624
3.5170687
5.1924484
7.1488215
9.2128821
11.003591
11.778759
10.168676
3.6572246
-12.506303
-46.299242
-386.05827
-0.076791691
-0.21595554
-0.31087316
-0.32895826
-0.23338272
0.017745518
0.47110397
1.1760753
2.179722
3.5168997
5.1922561
7.1486184
9.2126897
11.003437
11.778667
10.168639
3.6571241
-12.506789
-46.299552
-386.05808
)
;
    }
    inlet_minZ
    {
        type            extrapolatedCalculated;
        value           nonuniform List<scalar> 
25
(
-0.076802669
-0.076798553
-0.076779883
-0.076795569
-0.076797025
-0.076798553
-0.076771476
-0.07677589
-0.07678946
-0.076792524
-0.076779883
-0.07677589
-0.07677516
-0.076786254
-0.076791279
-0.076795569
-0.07678946
-0.076786254
-0.076791721
-0.076791588
-0.076797025
-0.076792524
-0.076791279
-0.076791588
-0.076791691
)
;
    }
    outlet_maxZ
    {
        type            extrapolatedCalculated;
        value           nonuniform List<scalar> 
25
(
-386.05851
-386.05851
-386.05855
-386.05858
-386.05854
-386.05851
-386.05855
-386.0588
-386.05873
-386.05855
-386.05855
-386.0588
-386.05924
-386.05922
-386.05904
-386.05858
-386.05873
-386.05922
-386.05922
-386.05827
-386.05854
-386.05855
-386.05904
-386.05827
-386.05808
)
;
    }
}


// ************************************************************************* //
