/*--------------------------------*- C++ -*----------------------------------*\
| =========                 |                                                 |
| \\      /  F ield         | OpenFOAM: The Open Source CFD Toolbox           |
|  \\    /   O peration     | Version:  v2106                                 |
|   \\  /    A nd           | Website:  www.openfoam.com                      |
|    \\/     M anipulation  |                                                 |
\*---------------------------------------------------------------------------*/
FoamFile
{
    version     2.0;
    format      ascii;
    arch        "LSB;label=32;scalar=64";
    class       volScalarField;
    location    "50";
    object      calT;
}
// * * * * * * * * * * * * * * * * * * * * * * * * * * * * * * * * * * * * * //

dimensions      [0 0 0 1 0 0 0];

internalField   nonuniform List<scalar> 
30000
(
274.50832
274.5083
274.5083
274.50831
274.50831
274.50831
274.5083
274.5083
274.5083
274.5083
274.51582
274.51582
274.51582
274.51583
274.51583
274.51583
274.51582
274.51584
274.51584
274.51583
274.53084
274.53085
274.53085
274.53085
274.53086
274.53085
274.53085
274.53087
274.53086
274.53086
274.55341
274.55339
274.55339
274.55339
274.5534
274.55339
274.55339
274.55341
274.55341
274.5534
274.58346
274.58344
274.58345
274.58345
274.58345
274.58345
274.58345
274.58346
274.58346
274.58346
274.62102
274.621
274.621
274.62101
274.62101
274.62101
274.621
274.62102
274.62101
274.62103
274.66607
274.66607
274.66605
274.66605
274.66606
274.66605
274.66605
274.66606
274.66606
274.66608
274.7186
274.7186
274.7186
274.7186
274.71858
274.7186
274.71859
274.71861
274.71861
274.71861
274.77861
274.7786
274.7786
274.77861
274.77861
274.77861
274.7786
274.77862
274.77862
274.77862
274.84605
274.84605
274.84605
274.84605
274.84605
274.84605
274.84607
274.84607
274.84607
274.84606
274.92095
274.92095
274.92095
274.92095
274.92095
274.92095
274.92095
274.92097
274.92096
274.92098
275.00328
275.00326
275.00326
275.00326
275.00326
275.00328
275.00328
275.00328
275.00329
275.00329
275.09299
275.09297
275.09297
275.09297
275.09297
275.09299
275.09298
275.09298
275.093
275.093
275.19007
275.19007
275.19005
275.19005
275.19006
275.19008
275.19007
275.19009
275.19009
275.19009
275.29448
275.29448
275.29449
275.29449
275.29449
275.29449
275.29451
275.2945
275.2945
275.2945
275.40624
275.40624
275.40624
275.40625
275.40625
275.40625
275.40624
275.40626
275.40626
275.40626
275.5253
275.52531
275.52531
275.52531
275.52531
275.52531
275.52531
275.52533
275.52533
275.52532
275.65166
275.65166
275.65166
275.65164
275.65166
275.65166
275.65166
275.65165
275.65168
275.65168
275.78529
275.78529
275.78529
275.78529
275.78529
275.78529
275.78529
275.78531
275.7853
275.7853
275.92626
275.92625
275.92625
275.92625
275.92623
275.92626
275.92625
275.92625
275.92627
275.92626
276.07458
276.07458
276.07456
276.07456
276.07456
276.07456
276.07458
276.07458
276.0746
276.07459
276.23039
276.23039
276.23037
276.23038
276.23038
276.23038
276.2304
276.2304
276.23039
276.23041
276.39389
276.39389
276.3939
276.39388
276.39388
276.39391
276.3939
276.39389
276.39391
276.3939
276.56546
276.56544
276.56544
276.56545
276.56545
276.56545
276.56547
276.56546
276.56548
276.56547
276.74566
276.74566
276.74567
276.74567
276.74568
276.74568
276.74567
276.74569
276.74568
276.74568
276.93566
276.93567
276.93565
276.93566
276.93566
276.93566
276.93568
276.93567
276.93569
276.93569
277.1376
277.13761
277.13759
277.13759
277.1376
277.13759
277.13761
277.13761
277.1376
277.1376
277.35629
277.3563
277.3563
277.3563
277.3563
277.3563
277.3563
277.35629
277.35631
277.35631
277.60468
277.60468
277.60468
277.60468
277.60468
277.60468
277.60468
277.60467
277.60469
277.60469
277.92512
277.92512
277.92512
277.92513
277.92512
277.92512
277.92514
277.92514
277.92513
277.92513
279.36737
279.36737
279.36737
279.36738
279.36737
279.3674
279.3674
279.3674
279.3674
279.3674
279.37662
279.37662
279.37662
279.37662
279.37663
279.37662
279.37665
279.37665
279.37665
279.37664
279.39511
279.39512
279.39512
279.39512
279.39512
279.39512
279.39512
279.39514
279.39514
279.39514
279.42283
279.42283
279.42284
279.42284
279.42284
279.42287
279.42286
279.42286
279.42288
279.42288
279.45979
279.4598
279.4598
279.45981
279.45981
279.45981
279.45983
279.45982
279.45982
279.45982
279.50598
279.50599
279.50597
279.50597
279.50597
279.50599
279.50599
279.50599
279.50601
279.50601
279.56135
279.56135
279.56136
279.56136
279.56136
279.56136
279.56136
279.56138
279.56137
279.56138
279.62591
279.62591
279.62592
279.62592
279.62592
279.62592
279.62592
279.62594
279.62594
279.62594
279.69962
279.69962
279.69963
279.69963
279.69963
279.69963
279.69963
279.69965
279.69966
279.69966
279.78246
279.78247
279.78247
279.78247
279.78247
279.78247
279.78247
279.78249
279.7825
279.7825
279.87441
279.87442
279.87439
279.87442
279.87442
279.87442
279.87442
279.87442
279.87444
279.87444
279.9754
279.97541
279.97541
279.9754
279.97541
279.9754
279.97541
279.97543
279.97543
279.97543
280.08542
280.08543
280.08543
280.08543
280.08543
280.08543
280.08545
280.08545
280.08545
280.08545
280.20442
280.20443
280.20442
280.20443
280.20442
280.20445
280.20445
280.20445
280.20448
280.20448
280.33239
280.33239
280.33239
280.33239
280.33239
280.3324
280.3324
280.33242
280.33242
280.33243
280.46926
280.46926
280.46926
280.46926
280.46927
280.46929
280.4693
280.46929
280.46932
280.46932
280.61507
280.61505
280.61505
280.61506
280.61506
280.61508
280.61509
280.61509
280.61512
280.61512
280.76977
280.76977
280.76978
280.76978
280.76978
280.76978
280.76981
280.76981
280.76981
280.76982
280.93348
280.93346
280.93348
280.93346
280.93349
280.93349
280.93349
280.9335
280.93352
280.93352
281.10628
281.10625
281.10625
281.10625
281.10626
281.10629
281.10629
281.10629
281.10632
281.10632
281.28837
281.28837
281.28838
281.28838
281.28838
281.28839
281.28839
281.28841
281.28841
281.28842
281.48017
281.48017
281.48018
281.48018
281.48019
281.48019
281.48022
281.48022
281.48022
281.48024
281.68231
281.68231
281.68232
281.68232
281.68233
281.68233
281.68236
281.68236
281.68236
281.68238
281.89583
281.89583
281.89581
281.89582
281.89583
281.89583
281.89585
281.89585
281.89587
281.89587
282.12237
282.12238
282.12236
282.12236
282.12237
282.12239
282.12239
282.12239
282.12241
282.12241
282.36478
282.36478
282.36479
282.36479
282.3648
282.3648
282.3648
282.36482
282.36482
282.36482
282.62803
282.62803
282.62801
282.62801
282.62802
282.62804
282.62804
282.62804
282.62804
282.62807
282.92116
282.92117
282.92115
282.92115
282.92118
282.92118
282.92118
282.92118
282.92118
282.92118
283.26167
283.26167
283.26167
283.26168
283.26168
283.26168
283.26168
283.26168
283.26168
283.26168
283.68329
283.68329
283.68329
283.68329
283.68329
283.68329
283.68329
283.6833
283.68332
283.68332
284.2172
284.21721
284.21721
284.21721
284.21721
284.21721
284.21724
284.21724
284.21724
284.21724
284.22819
284.22819
284.22819
284.22819
284.22819
284.2282
284.2282
284.22822
284.22822
284.22822
284.25015
284.25013
284.25013
284.25013
284.25016
284.25016
284.25016
284.25016
284.25019
284.25019
284.28307
284.28305
284.28305
284.28305
284.28308
284.28308
284.28308
284.28308
284.28311
284.28311
284.32695
284.32695
284.32693
284.32695
284.32695
284.32696
284.32696
284.32696
284.32698
284.32698
284.38175
284.38175
284.38175
284.38175
284.38176
284.38176
284.38176
284.38179
284.38179
284.38179
284.44747
284.44748
284.44748
284.44748
284.44748
284.44748
284.44748
284.44751
284.44752
284.44752
284.52407
284.52407
284.52408
284.52407
284.52408
284.52408
284.52411
284.52411
284.52412
284.52412
284.61151
284.61151
284.61151
284.61151
284.61154
284.61154
284.61155
284.61156
284.61156
284.61159
284.70977
284.70977
284.70977
284.70977
284.70979
284.7098
284.7098
284.70981
284.70984
284.70984
284.81878
284.81879
284.81878
284.81878
284.81878
284.81881
284.81882
284.81883
284.81883
284.81886
284.93852
284.93852
284.93852
284.93851
284.93852
284.93852
284.93853
284.93856
284.93856
284.93856
285.06887
285.06887
285.06887
285.06887
285.0689
285.0689
285.06891
285.06892
285.06895
285.06895
285.20985
285.20985
285.20985
285.20985
285.20985
285.20986
285.20989
285.2099
285.2099
285.20993
285.36137
285.36137
285.36137
285.36137
285.36137
285.36137
285.3614
285.36141
285.36144
285.36145
285.52338
285.52338
285.52338
285.52338
285.52339
285.52342
285.52343
285.52343
285.52347
285.52347
285.69591
285.69589
285.69589
285.69589
285.69592
285.69592
285.69593
285.69596
285.69597
285.69598
285.87893
285.87893
285.87893
285.87893
285.87893
285.87894
285.87897
285.87898
285.87899
285.87902
286.07256
286.07256
286.07256
286.07257
286.07257
286.07258
286.07259
286.07262
286.07263
286.07263
286.27697
286.27697
286.27697
286.27697
286.27698
286.27698
286.27699
286.27703
286.27703
286.27703
286.49248
286.49249
286.49246
286.49246
286.49249
286.4925
286.49251
286.49254
286.49255
286.49255
286.71966
286.71964
286.71964
286.71965
286.71965
286.71968
286.71969
286.7197
286.71973
286.71973
286.9594
286.9594
286.95941
286.95941
286.95942
286.95942
286.95943
286.95946
286.95946
286.95946
287.21315
287.21315
287.21316
287.21317
287.21317
287.21318
287.21321
287.21321
287.21321
287.21324
287.48319
287.4832
287.4832
287.48321
287.48321
287.48322
287.48322
287.48325
287.48325
287.48325
287.77308
287.77308
287.77309
287.77309
287.7731
287.7731
287.77313
287.77314
287.77314
287.77314
288.08856
288.08856
288.08854
288.08857
288.08857
288.08858
288.08858
288.08859
288.08859
288.08861
288.43864
288.43864
288.43865
288.43865
288.43866
288.43866
288.43869
288.4387
288.4387
288.4387
288.83752
288.83752
288.83753
288.83753
288.83754
288.83754
288.83757
288.83757
288.83758
288.83758
289.3053
289.30531
289.30531
289.30531
289.30532
289.30532
289.30533
289.30533
289.30536
289.30536
289.05604
289.05605
289.05605
289.05605
289.05608
289.05608
289.05608
289.05609
289.05609
289.05609
289.06876
289.06877
289.06876
289.06877
289.06877
289.0688
289.0688
289.06881
289.06881
289.06881
289.0942
289.0942
289.0942
289.0942
289.09421
289.09421
289.09424
289.09424
289.09424
289.09425
289.13232
289.13232
289.13232
289.13232
289.13233
289.13236
289.13236
289.13237
289.13237
289.13237
289.18313
289.18313
289.18313
289.18314
289.18314
289.18317
289.18318
289.18318
289.18319
289.18319
289.2466
289.2466
289.2466
289.2466
289.24661
289.24664
289.24665
289.24665
289.24666
289.24666
289.32269
289.3227
289.3227
289.3227
289.3227
289.32273
289.32274
289.32275
289.32275
289.32276
289.41138
289.41138
289.41138
289.41138
289.41139
289.41142
289.41143
289.41144
289.41144
289.41145
289.5126
289.51261
289.5126
289.51263
289.51263
289.51264
289.51265
289.51266
289.51269
289.5127
289.62632
289.62632
289.62632
289.62632
289.62635
289.62636
289.62637
289.62638
289.62639
289.62641
289.75248
289.75248
289.75248
289.75248
289.75248
289.75249
289.7525
289.75254
289.75255
289.75255
289.89097
289.89097
289.89097
289.89097
289.89097
289.89098
289.89102
289.89103
289.89104
289.89104
290.04174
290.04175
290.04174
290.04174
290.04175
290.04178
290.04179
290.0418
290.04181
290.04184
290.20471
290.20471
290.20471
290.20474
290.20474
290.20475
290.20476
290.2048
290.20481
290.20481
290.37983
290.37983
290.37983
290.37983
290.37983
290.37987
290.37988
290.37989
290.37993
290.37993
290.56701
290.56701
290.56701
290.56701
290.56702
290.56705
290.56706
290.56708
290.56711
290.56712
290.76624
290.76624
290.76624
290.76623
290.76624
290.76625
290.76629
290.7663
290.76631
290.76634
290.97748
290.97748
290.97748
290.9775
290.97751
290.97752
290.97754
290.97758
290.97758
290.97759
291.20087
291.20087
291.20087
291.20087
291.20088
291.20089
291.20093
291.20094
291.20095
291.20095
291.43657
291.43657
291.43657
291.43658
291.43658
291.43659
291.43661
291.43664
291.43665
291.43665
291.68493
291.6849
291.68491
291.68491
291.68492
291.68495
291.68497
291.68498
291.68501
291.68501
291.94656
291.94656
291.94657
291.94657
291.94658
291.94659
291.9466
291.94663
291.94664
291.94664
292.22247
292.22247
292.22247
292.22248
292.22249
292.22249
292.22253
292.22254
292.22257
292.22257
292.51423
292.51421
292.51421
292.51422
292.51423
292.51426
292.51427
292.51428
292.51431
292.51431
292.82416
292.82416
292.82417
292.82417
292.82418
292.82419
292.8242
292.82423
292.82424
292.82424
293.15583
293.15584
293.15584
293.15585
293.15585
293.15586
293.15587
293.15588
293.15591
293.15591
293.51444
293.51444
293.51445
293.51445
293.51446
293.51447
293.51448
293.51449
293.51452
293.51452
293.90737
293.90738
293.90738
293.90739
293.90739
293.9074
293.90741
293.90742
293.90742
293.90745
294.34452
294.34452
294.34452
294.34453
294.34453
294.34454
294.34455
294.34456
294.34456
294.34456
294.83731
294.83732
294.83732
294.83733
294.83733
294.83736
294.83737
294.83738
294.83738
294.83738
293.88219
293.88218
293.88219
293.88219
293.88219
293.8822
293.8822
293.88221
293.88221
293.88221
293.89664
293.89664
293.89664
293.89664
293.89665
293.89668
293.89669
293.89669
293.8967
293.89669
293.92554
293.92555
293.92555
293.92558
293.92558
293.92559
293.92559
293.9256
293.9256
293.9256
293.9689
293.9689
293.96891
293.96891
293.96894
293.96894
293.96895
293.96896
293.96896
293.96896
294.02668
294.02668
294.02668
294.02669
294.02669
294.0267
294.02671
294.02672
294.02675
294.02675
294.09885
294.09885
294.09885
294.09885
294.09886
294.09887
294.09888
294.09889
294.09889
294.09889
294.18534
294.18534
294.18534
294.18535
294.18538
294.18539
294.1854
294.18541
294.18542
294.18542
294.28615
294.28615
294.28615
294.28618
294.28619
294.2862
294.28621
294.28622
294.28623
294.28623
294.40122
294.40121
294.40122
294.40122
294.40125
294.40126
294.40127
294.40128
294.40129
294.40129
294.53046
294.53046
294.53046
294.53046
294.53049
294.5305
294.53051
294.53053
294.53053
294.53054
294.67381
294.67381
294.67381
294.67382
294.67382
294.67383
294.67384
294.67386
294.67389
294.67389
294.83116
294.83116
294.83116
294.83116
294.83117
294.83118
294.83119
294.8312
294.83124
294.83124
295.00242
295.00241
295.00242
295.00242
295.00242
295.00243
295.00245
295.00248
295.00249
295.0025
295.18747
295.18747
295.18747
295.18747
295.18748
295.18751
295.18753
295.18754
295.18755
295.18758
295.38623
295.38623
295.38623
295.38624
295.38627
295.38628
295.38629
295.38631
295.38634
295.38635
295.59862
295.59862
295.59862
295.59862
295.59863
295.59867
295.59868
295.5987
295.59871
295.59871
295.82451
295.82451
295.82454
295.82454
295.82455
295.82456
295.8246
295.82462
295.82463
295.82463
296.06393
296.06393
296.06393
296.06396
296.06396
296.06398
296.064
296.06404
296.06404
296.06405
296.31687
296.31687
296.3169
296.3169
296.31691
296.31692
296.31694
296.31695
296.31699
296.31699
296.58349
296.58349
296.58349
296.5835
296.58351
296.58354
296.58356
296.58357
296.58358
296.58358
296.8641
296.86407
296.86407
296.86408
296.86411
296.86413
296.86414
296.86415
296.86419
296.86419
297.15918
297.15918
297.15919
297.1592
297.15923
297.15924
297.15925
297.15926
297.15927
297.1593
297.46973
297.46973
297.46973
297.46974
297.46975
297.46978
297.46979
297.46981
297.46981
297.46982
297.7971
297.7971
297.7971
297.79711
297.79712
297.79715
297.79716
297.79718
297.79718
297.79719
298.1434
298.1434
298.1434
298.14341
298.14342
298.14343
298.14347
298.14348
298.14349
298.14349
298.51163
298.51163
298.51164
298.51165
298.51168
298.51169
298.5117
298.51171
298.51172
298.51172
298.90599
298.906
298.906
298.90601
298.90602
298.90603
298.90604
298.90605
298.90608
298.90608
299.33187
299.3319
299.3319
299.33191
299.33192
299.33193
299.33194
299.33195
299.33195
299.33195
299.79582
299.79583
299.79583
299.79584
299.79585
299.79585
299.79586
299.79587
299.79588
299.79587
300.30439
300.30439
300.30439
300.3044
300.30441
300.30441
300.30442
300.30443
300.30443
300.30443
298.69387
298.69387
298.69387
298.69387
298.69388
298.69388
298.69389
298.69389
298.6939
298.6939
298.71006
298.71006
298.71006
298.71009
298.7101
298.7101
298.71011
298.71011
298.71009
298.71009
298.74249
298.74247
298.74247
298.7425
298.74251
298.74251
298.74252
298.74252
298.74253
298.74253
298.79109
298.79109
298.79109
298.7911
298.7911
298.79111
298.79112
298.79112
298.79113
298.79113
298.85584
298.85584
298.85584
298.85585
298.85585
298.85586
298.85587
298.85588
298.85588
298.85588
298.93671
298.93671
298.93674
298.93675
298.93675
298.93676
298.93677
298.93678
298.93679
298.93679
299.0337
299.0337
299.0337
299.03371
299.03371
299.03372
299.03373
299.03374
299.03378
299.03377
299.1467
299.1467
299.1467
299.14671
299.14671
299.14672
299.14673
299.14677
299.14678
299.14678
299.27567
299.27567
299.27567
299.27568
299.27568
299.27569
299.2757
299.27571
299.27575
299.27575
299.4205
299.4205
299.42051
299.42051
299.42051
299.42055
299.42056
299.42057
299.42058
299.42058
299.58112
299.58112
299.58113
299.58116
299.58116
299.58117
299.58118
299.58119
299.5812
299.5812
299.75742
299.75742
299.75742
299.75743
299.75746
299.75747
299.75748
299.75749
299.7575
299.7575
299.94926
299.94926
299.94927
299.94927
299.9493
299.94931
299.94932
299.94933
299.94934
299.94934
300.15652
300.15652
300.15652
300.15653
300.15653
300.15657
300.15658
300.15659
300.1566
300.1566
300.37904
300.37904
300.37904
300.37905
300.37905
300.37909
300.3791
300.37912
300.37913
300.37913
300.6167
300.6167
300.61671
300.61671
300.61672
300.61673
300.61674
300.61678
300.61679
300.61679
300.86934
300.86934
300.86934
300.86935
300.86936
300.86939
300.86941
300.86942
300.86943
300.86943
301.13688
301.13688
301.13688
301.13689
301.1369
301.13691
301.13692
301.13696
301.13697
301.13697
301.41922
301.41923
301.41926
301.41926
301.41927
301.41928
301.4193
301.41931
301.41931
301.41934
301.71648
301.71648
301.71648
301.71649
301.7165
301.71651
301.71652
301.71656
301.71656
301.71656
302.02873
302.02874
302.02874
302.02875
302.02876
302.02877
302.0288
302.02882
302.02882
302.02882
302.3564
302.3564
302.35641
302.35644
302.35645
302.35646
302.35647
302.35648
302.35649
302.35649
302.70016
302.70016
302.70016
302.70017
302.70018
302.70021
302.70023
302.70024
302.70024
302.70024
303.06105
303.06105
303.06106
303.06107
303.0611
303.06111
303.06112
303.06113
303.06114
303.06114
303.44071
303.44071
303.44071
303.44072
303.44073
303.44074
303.44075
303.44079
303.4408
303.44079
303.84135
303.84135
303.84136
303.84137
303.8414
303.84141
303.84142
303.84143
303.84144
303.84144
304.266
304.26601
304.26601
304.26602
304.26603
304.26606
304.26605
304.26609
304.26609
304.26609
304.71835
304.71836
304.71836
304.71837
304.71838
304.71839
304.7184
304.71841
304.71841
304.71841
305.20249
305.20249
305.20252
305.20253
305.20254
305.20255
305.20256
305.20256
305.20254
305.20253
305.72225
305.72225
305.72226
305.72227
305.72227
305.72228
305.72229
305.72229
305.72229
305.72229
303.48933
303.48933
303.48934
303.48934
303.48934
303.48935
303.48935
303.48935
303.48936
303.48935
303.50729
303.50729
303.5073
303.5073
303.5073
303.50731
303.50731
303.50731
303.50732
303.50731
303.54323
303.54323
303.54323
303.54324
303.54324
303.54325
303.54325
303.54326
303.54326
303.54325
303.5971
303.5971
303.5971
303.5971
303.59711
303.59711
303.59712
303.59712
303.59713
303.59712
303.66888
303.66888
303.66889
303.66889
303.6689
303.6689
303.66891
303.66891
303.66892
303.66892
303.75853
303.75853
303.75853
303.75854
303.75854
303.75857
303.75856
303.75856
303.75859
303.75859
303.86602
303.86602
303.86602
303.86603
303.86603
303.86604
303.86605
303.86608
303.86608
303.86608
303.99128
303.99128
303.99128
303.99129
303.99129
303.9913
303.99131
303.99134
303.99135
303.99134
304.13423
304.13423
304.13423
304.13424
304.13424
304.13425
304.13426
304.13427
304.13427
304.1343
304.29476
304.29476
304.29477
304.29477
304.29477
304.29481
304.29481
304.29482
304.29483
304.29483
304.47278
304.47278
304.47279
304.47281
304.47282
304.47282
304.47283
304.47284
304.47285
304.47285
304.66816
304.66817
304.66817
304.66817
304.66818
304.66818
304.66819
304.6682
304.66823
304.66823
304.88073
304.88073
304.88073
304.88073
304.88074
304.88074
304.88078
304.88079
304.88079
304.88079
305.11031
305.11031
305.11031
305.11031
305.11034
305.11035
305.11036
305.11037
305.11037
305.11037
305.35674
305.35674
305.35675
305.35675
305.35675
305.35676
305.35677
305.35681
305.35681
305.35681
305.6198
305.6198
305.6198
305.61981
305.61981
305.61982
305.61983
305.61986
305.61987
305.61987
305.89927
305.89927
305.89927
305.8993
305.89931
305.89931
305.89932
305.89933
305.89934
305.89936
306.19499
306.19499
306.19499
306.195
306.195
306.19501
306.19505
306.19505
306.19506
306.19506
306.50674
306.50674
306.50674
306.50675
306.50676
306.50679
306.5068
306.5068
306.50681
306.50681
306.83443
306.83443
306.83444
306.83445
306.83445
306.83446
306.83447
306.83447
306.83448
306.83447
307.178
307.178
307.17801
307.17801
307.17802
307.17802
307.17803
307.17804
307.17804
307.17804
307.53756
307.53756
307.53757
307.53757
307.53758
307.53761
307.53762
307.53762
307.53763
307.53763
307.91345
307.91346
307.91346
307.91347
307.91347
307.91348
307.91349
307.91352
307.91353
307.91352
308.30627
308.30627
308.3063
308.30631
308.30631
308.30632
308.30633
308.30634
308.30634
308.30634
308.717
308.71701
308.71704
308.71705
308.71705
308.71706
308.71707
308.71708
308.71708
308.71708
309.14707
309.14707
309.14708
309.14711
309.14711
309.14712
309.14713
309.14714
309.14714
309.14714
309.59832
309.59832
309.59833
309.59836
309.59837
309.59837
309.59838
309.59839
309.59839
309.59839
310.07303
310.07304
310.07304
310.07305
310.07306
310.07306
310.07307
310.07308
310.07308
310.07307
310.57357
310.57357
310.57358
310.57359
310.57359
310.5736
310.5736
310.57361
310.57361
310.57361
311.10209
311.10209
311.1021
311.1021
311.10211
311.10211
311.10212
311.10212
311.10212
311.10212
308.26684
308.26684
308.26684
308.26685
308.26685
308.26685
308.26685
308.26685
308.26685
308.26685
308.28657
308.28657
308.28657
308.28657
308.2866
308.28657
308.28658
308.28658
308.28658
308.28657
308.32604
308.32604
308.32604
308.32605
308.32605
308.32605
308.32605
308.32605
308.32605
308.32605
308.38519
308.38519
308.38519
308.38519
308.38522
308.38522
308.3852
308.3852
308.3852
308.3852
308.46404
308.46404
308.46405
308.46405
308.46405
308.46405
308.46406
308.46406
308.46406
308.46406
308.56253
308.56253
308.56253
308.56253
308.56253
308.56254
308.56254
308.56255
308.56255
308.56255
308.68059
308.68059
308.68059
308.6806
308.6806
308.6806
308.68061
308.68062
308.68062
308.68062
308.81819
308.81819
308.81819
308.81819
308.8182
308.8182
308.81821
308.81821
308.81822
308.81822
308.97521
308.97521
308.97521
308.97521
308.97522
308.97522
308.97523
308.97523
308.97524
308.97524
309.15156
309.15156
309.15156
309.15156
309.15156
309.15157
309.15157
309.15158
309.15161
309.15161
309.3471
309.3471
309.3471
309.34711
309.34711
309.34711
309.34714
309.34715
309.34715
309.34715
309.5617
309.5617
309.5617
309.56171
309.56171
309.56171
309.56172
309.56175
309.56175
309.56175
309.79517
309.79517
309.79517
309.79517
309.79517
309.79518
309.79518
309.79519
309.79519
309.79519
310.04726
310.04729
310.04729
310.04729
310.04729
310.0473
310.0473
310.04731
310.04731
310.04731
310.3178
310.3178
310.3178
310.3178
310.31782
310.31783
310.31783
310.31784
310.31784
310.31784
310.60646
310.60649
310.60649
310.60649
310.60649
310.6065
310.6065
310.60651
310.60651
310.60654
310.913
310.913
310.913
310.913
310.91303
310.91303
310.91304
310.91304
310.91304
310.91304
311.23707
311.23707
311.23707
311.23708
311.23708
311.23708
311.23709
311.23709
311.23712
311.23712
311.57833
311.57833
311.57834
311.57834
311.57834
311.57834
311.57835
311.57838
311.57838
311.57838
311.9365
311.9365
311.9365
311.9365
311.9365
311.93651
311.93651
311.93652
311.93652
311.93652
312.31125
312.31125
312.31125
312.31125
312.31125
312.31126
312.31126
312.31127
312.31129
312.31129
312.7024
312.7024
312.70241
312.70241
312.70241
312.70242
312.70242
312.70243
312.70243
312.70242
313.10981
313.10982
313.10984
313.10985
313.10985
313.10985
313.10986
313.10986
313.10986
313.10986
313.5336
313.5336
313.5336
313.53361
313.53361
313.53364
313.53364
313.53365
313.53365
313.53364
313.974
313.97403
313.97403
313.97404
313.97404
313.97405
313.97405
313.97406
313.97405
313.97405
314.4316
314.43163
314.43163
314.43163
314.43164
314.43164
314.43165
314.43165
314.43165
314.43165
314.9072
314.90723
314.90723
314.90723
314.90724
314.90724
314.90725
314.90725
314.90725
314.90725
315.40185
315.40187
315.40187
315.40188
315.40188
315.40189
315.40189
315.40189
315.40187
315.40187
315.91668
315.91668
315.9167
315.91671
315.91671
315.91671
315.91669
315.9167
315.9167
315.9167
316.45268
316.45268
316.45268
316.45269
316.45269
316.45269
316.4527
316.4527
316.4527
316.4527
313.02462
313.02462
313.02462
313.02462
313.02462
313.02462
313.02462
313.02462
313.02462
313.02461
313.04612
313.04611
313.04612
313.04614
313.04614
313.04612
313.04612
313.04611
313.04611
313.04611
313.08913
313.08913
313.08913
313.08913
313.08913
313.08913
313.08913
313.08913
313.08913
313.08913
313.15362
313.15361
313.15362
313.15361
313.15364
313.15364
313.15364
313.15362
313.15361
313.15361
313.23958
313.23958
313.23958
313.23958
313.23958
313.23958
313.23958
313.23958
313.23959
313.23958
313.34692
313.34692
313.34692
313.34692
313.34692
313.34692
313.34692
313.34695
313.34695
313.34695
313.47566
313.47566
313.47566
313.47563
313.47566
313.47564
313.47567
313.47567
313.47567
313.47567
313.62565
313.62565
313.62565
313.62565
313.62565
313.62565
313.62566
313.62566
313.62569
313.62569
313.79686
313.79686
313.79686
313.79686
313.79686
313.79686
313.79686
313.79687
313.7969
313.79689
313.98915
313.98915
313.98915
313.98915
313.98915
313.98915
313.98916
313.98916
313.98916
313.98919
314.20239
314.20239
314.20239
314.20239
314.20239
314.20239
314.20239
314.2024
314.2024
314.2024
314.43639
314.43639
314.43639
314.43639
314.43639
314.43639
314.43639
314.4364
314.4364
314.43639
314.69094
314.69094
314.69094
314.69094
314.69094
314.69094
314.69097
314.69097
314.69097
314.69097
314.96583
314.96583
314.96583
314.96583
314.96583
314.96583
314.96583
314.96584
314.96584
314.96584
315.26073
315.26073
315.26073
315.26073
315.26072
315.26073
315.26073
315.26073
315.26076
315.26076
315.57532
315.57531
315.57531
315.57531
315.57531
315.57531
315.57532
315.57534
315.57534
315.57534
315.90921
315.90921
315.90921
315.90921
315.90921
315.90921
315.90921
315.90922
315.90922
315.90924
316.26194
316.26194
316.26194
316.26194
316.26194
316.26194
316.26195
316.26197
316.26197
316.26197
316.63306
316.63305
316.63305
316.63305
316.63305
316.63305
316.63306
316.63306
316.63306
316.63306
317.02197
317.02197
317.02197
317.02197
317.02197
317.02197
317.02198
317.02198
317.02198
317.02198
317.42813
317.42813
317.42813
317.42813
317.42813
317.42813
317.42813
317.42813
317.42813
317.42813
317.85094
317.85094
317.85094
317.85094
317.85094
317.85095
317.85095
317.85095
317.85095
317.85097
318.28985
318.28985
318.28985
318.28985
318.28985
318.28985
318.28986
318.28986
318.28986
318.28985
318.7443
318.7443
318.7443
318.7443
318.7443
318.7443
318.74431
318.74431
318.7443
318.7443
319.21384
319.21384
319.21384
319.21384
319.21384
319.21385
319.21385
319.21385
319.21385
319.21384
319.69817
319.69816
319.69816
319.69816
319.69817
319.69817
319.69817
319.69817
319.69817
319.69817
320.19706
320.19706
320.19706
320.19706
320.19706
320.19707
320.19707
320.19707
320.19707
320.19707
320.71053
320.71053
320.71053
320.71053
320.71053
320.71053
320.71053
320.71053
320.71054
320.71054
321.23863
321.23863
321.23863
321.23863
321.23863
321.23863
321.23864
321.23864
321.23864
321.23864
321.78152
321.78152
321.78152
321.78152
321.78152
321.78152
321.78153
321.78153
321.7815
321.78153
317.76087
317.76087
317.76087
317.7609
317.7609
317.7609
317.76089
317.76087
317.76086
317.76086
317.78417
317.78417
317.78417
317.78417
317.78419
317.78419
317.78416
317.78416
317.78416
317.78415
317.83076
317.83076
317.83076
317.83076
317.83075
317.83075
317.83075
317.83075
317.83075
317.83074
317.90061
317.90061
317.90061
317.90061
317.90061
317.9006
317.9006
317.9006
317.9006
317.9006
317.9937
317.9937
317.9937
317.9937
317.99369
317.99369
317.99369
317.99369
317.99369
317.99369
318.10999
318.10999
318.10999
318.10998
318.10998
318.10998
318.10998
318.10998
318.10998
318.10998
318.24943
318.24943
318.24943
318.24942
318.24942
318.24942
318.24943
318.24943
318.24943
318.24943
318.41193
318.41193
318.41193
318.41192
318.41192
318.41192
318.41195
318.41195
318.41195
318.41195
318.59745
318.59742
318.59744
318.59744
318.59744
318.59744
318.59744
318.59745
318.59745
318.59747
318.8058
318.8058
318.8058
318.80579
318.80579
318.8058
318.8058
318.80582
318.80582
318.80582
319.03689
319.03689
319.03689
319.03689
319.03689
319.03689
319.03689
319.03689
319.03689
319.03691
319.2905
319.2905
319.2905
319.2905
319.29049
319.29049
319.29049
319.29052
319.29052
319.29052
319.56642
319.56641
319.56641
319.56641
319.56641
319.56641
319.56641
319.56641
319.56643
319.56643
319.86435
319.86435
319.86434
319.86434
319.86434
319.86434
319.86434
319.86436
319.86436
319.86436
320.18398
320.18395
320.18395
320.18395
320.18394
320.18397
320.18397
320.18397
320.18397
320.18397
320.52486
320.52485
320.52485
320.52485
320.52484
320.52487
320.52487
320.52487
320.52487
320.52487
320.88655
320.88654
320.88654
320.88654
320.88654
320.88656
320.88656
320.88656
320.88656
320.88656
321.26846
321.26846
321.26846
321.26845
321.26845
321.26845
321.26848
321.26848
321.26848
321.26848
321.66994
321.66994
321.66994
321.66993
321.66993
321.66993
321.66993
321.66993
321.66993
321.66996
322.09019
322.09019
322.09018
322.09018
322.09018
322.09018
322.09018
322.09018
322.0902
322.0902
322.52835
322.52835
322.52834
322.52834
322.52834
322.52834
322.52834
322.52834
322.52834
322.52834
322.98342
322.98342
322.98341
322.98341
322.98341
322.98341
322.98341
322.98341
322.98341
322.98343
323.45433
323.45433
323.45432
323.45432
323.45432
323.45432
323.45432
323.45432
323.45434
323.45434
323.93991
323.9399
323.9399
323.9399
323.9399
323.9399
323.9399
323.9399
323.9399
323.93989
324.43892
324.4389