/*--------------------------------*- C++ -*----------------------------------*\
| =========                 |                                                 |
| \\      /  F ield         | OpenFOAM: The Open Source CFD Toolbox           |
|  \\    /   O peration     | Version:  v2106                                 |
|   \\  /    A nd           | Website:  www.openfoam.com                      |
|    \\/     M anipulation  |                                                 |
\*---------------------------------------------------------------------------*/
FoamFile
{
    version     2.0;
    format      ascii;
    arch        "LSB;label=32;scalar=64";
    class       volVectorField;
    location    "1";
    object      flux;
}
// * * * * * * * * * * * * * * * * * * * * * * * * * * * * * * * * * * * * * //

dimensions      [0 1 -1 1 0 0 0];

internalField   nonuniform List<vector> 
5712
(
(-0.308091 0.524425 0.340878)
(-0.394055 0.302662 1.11617)
(-0.723432 0.843047 0.272493)
(-1.06351 0.556785 1.14314)
(-1.08859 0.923329 0.202001)
(-1.87382 0.687088 1.17381)
(-0.829021 1.43236 0.313361)
(-2.10267 1.80015 1.78148)
(-0.669608 1.89112 0.384069)
(-1.46944 2.33944 2.44175)
(-1.00134 1.23111 0.384609)
(-1.52711 1.07676 1.79527)
(-0.893227 0.780854 0.374322)
(-1.18057 0.624368 1.49945)
(-0.394648 0.394706 0.389464)
(-0.453798 0.267801 1.34512)
(-0.704947 0.858059 0.235129)
(-0.809614 0.857895 0.149738)
(-0.898392 0.747981 0.631091)
(-0.892581 0.867677 0.378913)
(-0.700458 1.15656 0.227072)
(-0.858077 1.00981 0.123124)
(-1.02576 1.3574 0.677484)
(-0.917678 1.07444 0.33571)
(-0.256096 0.364263 0.263841)
(-0.198083 0.256987 0.198282)
(-0.31754 0.206838 0.842728)
(-0.218601 0.155567 0.610853)
(-0.597422 0.428906 0.199744)
(-0.4888 0.348004 0.150873)
(-1.011 0.264968 0.82787)
(-0.745108 0.218814 0.618472)
(-0.780089 0.820512 0.470393)
(-0.815635 0.833628 0.201268)
(-0.881499 0.818545 0.409862)
(-0.860449 0.661723 0.185786)
(-0.325984 0.617344 0.194431)
(-0.247046 0.499769 0.446736)
(-1.8212 0.495727 1.57143)
(-2.4391 0.569102 0.419963)
(-1.18435 0.795677 0.564248)
(-1.45225 0.798301 0.180979)
(-2.41684 1.70421 1.99502)
(-3.14278 1.77017 0.532623)
(-1.25511 1.18172 0.516414)
(-1.43827 1.22632 0.165896)
(-1.36649 0.708331 1.13991)
(-1.9302 0.597464 0.349908)
(-1.20296 0.751903 0.585485)
(-1.58889 0.531795 0.198186)
(-0.712505 0.350355 1.00668)
(-1.13986 0.365261 0.317152)
(-0.14225 0.303079 0.33652)
(-0.0485312 0.462552 0.16687)
(-0.148736 0.159652 0.449455)
(-0.0541757 0.203517 0.17894)
(-0.427877 0.412506 0.365158)
(-0.174691 0.6111 0.196355)
(-0.579734 0.249343 0.436099)
(-0.216016 0.303063 0.171621)
(-0.423752 0.446264 0.449596)
(-0.161285 0.816526 0.259029)
(-0.436659 0.313681 0.375408)
(-0.141482 0.540757 0.167746)
(-0.736527 0.117503 0.534814)
(-0.236619 0.318209 0.19589)
(-0.949225 0.0981808 0.181417)
(-0.323304 0.236431 0.0644281)
(-1.10307 0.745942 0.608484)
(-0.558582 0.928912 0.431367)
(-1.01278 0.788557 0.365836)
(-0.59983 0.936307 0.270653)
(-1.01364 0.902076 0.637591)
(-0.656642 0.903166 0.525345)
(-0.895601 0.937572 0.342546)
(-0.661896 0.902914 0.293804)
(-0.816477 0.68614 0.363174)
(-0.489593 0.941161 0.25426)
(-0.820209 0.688813 0.534882)
(-0.429116 0.921398 0.372477)
(-1.04812 0.785327 0.232902)
(-0.660887 0.936698 0.171572)
(-1.0525 0.789996 0.107756)
(-0.664997 0.938382 0.0882883)
(-0.949055 0.95689 0.212936)
(-0.695876 0.898345 0.182055)
(-0.961383 0.959698 0.0980593)
(-0.69617 0.893384 0.0957961)
(-0.880893 0.639835 0.233982)
(-0.558026 0.949856 0.157189)
(-0.912672 0.621276 0.111203)
(-0.570323 0.956274 0.0713397)
(-0.84374 0.822986 0.336433)
(-0.375272 1.00762 0.186969)
(-0.402431 1.03888 0.26171)
(-0.502715 1.51295 0.309838)
(-0.845118 0.873355 0.477515)
(-0.412825 1.18287 0.343093)
(-0.357496 1.0306 0.39298)
(-0.517791 1.66681 0.54076)
(-0.893121 0.780087 0.214936)
(-0.371018 0.87867 0.104601)
(-0.450974 1.04236 0.14931)
(-0.501665 1.44419 0.17362)
(-0.938409 0.773227 0.100345)
(-0.379274 0.819513 0.0432129)
(-0.487858 1.05467 0.0594591)
(-0.521456 1.43064 0.0620975)
(-0.183541 0.283333 0.471351)
(-0.201552 0.381995 0.837031)
(-0.0630801 0.732592 0.314496)
(-0.129972 1.32548 0.92877)
(-0.529983 0.342482 0.542787)
(-0.561741 0.398624 0.813886)
(-0.212566 0.923356 0.382364)
(-0.394301 1.47409 0.962472)
(-0.678603 0.412151 0.603611)
(-0.743448 0.419072 0.727524)
(-0.348958 1.14245 0.482666)
(-0.601445 1.59193 0.923349)
(-0.488557 1.04244 0.62304)
(-0.00677005 1.06746 0.685637)
(-0.592815 0.930112 0.519164)
(-0.773374 0.94451 0.514047)
(-0.443788 1.47328 0.552481)
(0.00928267 1.06167 0.688461)
(-0.269882 1.04219 0.695639)
(-0.549821 0.941815 0.73725)
(-0.910442 0.84993 0.786381)
(-0.700842 1.71562 1.11443)
(-0.45195 0.973397 0.561753)
(-0.567194 0.995142 0.477868)
(-0.521783 0.927869 0.446917)
(-0.473319 0.98627 0.509544)
(-0.754435 1.91591 0.771227)
(-0.169203 0.103282 0.978863)
(-0.133808 0.125484 0.882318)
(-0.0988895 0.229027 1.12864)
(-0.0964996 0.563567 1.09861)
(-0.469456 0.143821 0.895836)
(-0.377213 0.167295 0.83649)
(-0.29814 0.304517 1.10775)
(-0.279044 0.608425 1.06977)
(-0.576152 0.206397 0.771035)
(-0.456373 0.175607 0.759264)
(-0.389364 0.399897 1.02947)
(-0.342015 0.66631 1.023)
(-0.216114 1.02078 0.510481)
(-0.284199 0.957154 0.411229)
(-0.464464 0.951899 0.530936)
(-0.490051 0.883895 0.47979)
(-0.613039 0.867173 0.608849)
(-0.550612 0.742993 0.572589)
(-0.699851 0.678747 0.681714)
(-0.589425 0.575505 0.677866)
(-0.521181 0.510362 0.929609)
(-0.437289 0.751769 0.975983)
(-0.378953 0.943656 0.472285)
(-0.37043 0.869655 0.427051)
(-0.509988 0.985262 0.494803)
(-0.361205 0.928575 0.51237)
(-0.482139 0.89492 0.541549)
(-0.312266 0.806402 0.613868)
(-0.434944 0.77955 0.62545)
(-0.267667 0.681051 0.739974)
(-0.539518 0.536555 0.811753)
(-0.337761 0.7394 0.979009)
(-0.430554 0.995332 0.403686)
(-0.153502 1.10602 0.317696)
(-0.381716 0.998377 0.267629)
(-0.382572 1.14282 0.330111)
(-0.521188 0.932303 0.504682)
(-0.643378 0.94587 0.592242)
(-0.577917 0.917224 0.340761)
(-0.811557 0.964915 0.524637)
(-0.315386 0.941293 0.242626)
(-0.319585 0.950195 0.306163)
(-0.390982 0.932167 0.373485)
(-0.0716887 0.918931 0.310864)
(-0.344532 0.993153 0.0681717)
(-0.628967 1.15158 0.213456)
(-0.32852 0.991753 0.0255114)
(-0.681548 1.15426 0.0700071)
(-0.574233 0.894375 0.168133)
(-1.00833 0.98321 0.343689)
(-0.584102 0.889897 0.0526062)
(-1.07833 0.984388 0.111487)
(-0.274287 0.944804 0.0430338)
(-0.558912 0.947831 0.191448)
(-0.253308 0.946821 0.0144519)
(-0.602825 0.949184 0.0617402)
(-0.386632 0.820447 0.247724)
(-0.264972 0.776875 0.247548)
(-0.553719 0.538244 0.285723)
(-0.200421 0.611743 0.185437)
(-0.379958 0.817615 0.401396)
(-0.0222649 0.760083 0.327911)
(-0.474509 0.532329 0.47498)
(0.0130369 0.624457 0.340221)
(-0.37758 0.829734 0.0676663)
(-0.41514 0.772172 0.13363)
(-0.582409 0.549066 0.141705)
(-0.25857 0.609685 0.0853401)
(-0.318438 0.833247 0.0703276)
(-0.495408 0.763983 0.0896778)
(-0.52164 0.566042 0.099813)
(-0.342661 0.608487 0.075224)
(-0.0992068 0.0774938 0.713293)
(-0.0826514 0.0463625 0.437847)
(-0.0667675 0.0291463 0.14059)
(-0.0726721 0.0416136 0.802062)
(-0.0631247 0.0242105 0.466375)
(-0.0522326 0.0217439 0.153682)
(-0.286421 0.10987 0.685034)
(-0.211494 0.0553184 0.433054)
(-0.166345 0.0376975 0.148589)
(-0.194458 0.078876 0.785066)
(-0.139342 0.0569667 0.465752)
(-0.109757 0.0444415 0.153508)
(-0.328907 0.117898 0.62802)
(-0.25664 0.0813594 0.398107)
(-0.224674 0.0745415 0.132132)
(-0.230499 0.13542 0.759656)
(-0.165852 0.0989345 0.464544)
(-0.146704 0.0828669 0.15579)
(-0.230822 0.843474 0.288771)
(-0.179983 0.688728 0.170995)
(-0.166612 0.591796 0.051331)
(-0.409035 0.799735 0.400456)
(-0.269578 0.674047 0.267848)
(-0.209241 0.588783 0.0919426)
(-0.413576 0.589769 0.500651)
(-0.265188 0.495748 0.343914)
(-0.193887 0.443231 0.118528)
(-0.429671 0.426321 0.59471)
(-0.299873 0.326477 0.389961)
(-0.24249 0.281903 0.13036)
(-0.307047 0.209133 0.747195)
(-0.17773 0.133573 0.47288)
(-0.125694 0.103985 0.164367)
(-0.583276 0.779083 0.330115)
(-0.449932 0.648822 0.200631)
(-0.353531 0.556584 0.0688522)
(-0.400601 0.831026 0.395615)
(-0.296714 0.67918 0.288207)
(-0.216873 0.57712 0.10994)
(-0.384496 0.641424 0.489588)
(-0.26245 0.486831 0.360431)
(-0.180272 0.403324 0.134108)
(-0.346763 0.43575 0.607743)
(-0.220022 0.30301 0.42846)
(-0.143412 0.247734 0.154995)
(-0.394794 0.220435 0.758055)
(-0.200723 0.131024 0.482667)
(-0.0959636 0.0957469 0.173006)
(-0.450198 1.14203 0.0106238)
(-0.600224 1.09707 0.08172)
(-0.364185 1.26229 0.113223)
(-0.46088 1.11164 0.165815)
(-0.506923 1.30604 0.0967047)
(-0.730571 1.11451 0.108443)
(-0.460432 1.60375 0.239599)
(-0.653386 1.19202 0.225032)
(-0.00039498 0.860334 0.0235278)
(-0.0278525 0.84738 0.0377651)
(0.0201609 0.855575 0.0250902)
(-0.00617096 0.774003 0.0392644)
(-0.122047 0.969418 0.0173403)
(-0.131892 0.887446 0.0521963)
(-0.0555012 0.961327 0.032157)
(-0.0316566 0.800814 0.068712)
(-0.038936 0.950107 0.119625)
(-0.105392 0.929294 0.0594216)
(-0.394782 0.872843 0.155941)
(-0.564478 0.918707 0.0917977)
(-0.265045 1.12572 0.0800503)
(-0.157259 1.02817 0.136901)
(-0.434242 1.18425 0.13289)
(-0.431817 1.2106 0.0157761)
(-0.688551 1.3104 0.261971)
(-0.759214 1.3651 0.0473886)
(0.0192035 0.970662 -0.102276)
(0.171313 1.01538 -0.00281387)
(-0.322185 0.870041 0.0558398)
(-0.300877 0.848959 0.0281444)
(-0.298242 1.03816 0.0281246)
(-0.228327 1.0707 0.0132553)
(-0.0410667 0.641613 0.358978)
(-0.0213491 0.340665 0.149516)
(-0.0300837 0.60597 0.0967002)
(-0.0142789 0.377382 0.0551323)
(-0.0815571 0.654309 0.365126)
(-0.00736504 0.343566 0.154361)
(0.00558081 0.60714 0.122176)
(0.0266736 0.374815 0.0693514)
(-0.370969 0.64871 0.361752)
(-0.0881731 0.344682 0.164623)
(-0.260794 0.60993 0.172468)
(-0.067102 0.391174 0.109369)
(-0.370848 0.597215 0.117113)
(-0.109985 0.409473 0.0762097)
(-0.444672 0.606455 0.0383335)
(-0.135643 0.404769 0.0378826)
(-0.387588 0.856109 0.520339)
(-0.490011 0.711344 0.454682)
(-0.354394 0.864982 0.238621)
(-0.475454 0.71855 0.243733)
(-0.634574 0.96204 0.59237)
(-0.646453 0.852399 0.548615)
(-0.601581 0.988048 0.287018)
(-0.608213 0.853774 0.284617)
(-0.233898 0.832455 0.197862)
(-0.362686 0.582741 0.200378)
(-0.271832 0.855091 0.423084)
(-0.361796 0.568574 0.343932)
(-0.372972 0.894031 0.133115)
(-0.456501 0.719884 0.140224)
(-0.407467 0.909958 0.0613544)
(-0.457907 0.712923 0.0765613)
(-0.625571 1.02535 0.168465)
(-0.595239 0.852897 0.166366)
(-0.652787 1.0316 0.0796926)
(-0.594599 0.844273 0.0891558)
(-0.233961 0.832534 0.105794)
(-0.349297 0.587783 0.117088)
(-0.251009 0.833427 0.0462924)
(-0.352367 0.584342 0.067997)
(0.0116658 0.529211 0.164329)
(-0.0357533 0.344093 0.10117)
(-0.261858 0.448859 0.15979)
(-0.137531 0.289269 0.0982964)
(0.0295608 0.485558 0.265749)
(-0.0214884 0.30647 0.136082)
(-0.242604 0.42697 0.244466)
(-0.120633 0.269645 0.139151)
(-0.00470321 0.546527 0.0894063)
(-0.0455673 0.366112 0.0686172)
(-0.266173 0.458118 0.0963756)
(-0.149871 0.298244 0.0600949)
(-0.0187403 0.548616 0.0376276)
(-0.0533231 0.378209 0.0357293)
(-0.26444 0.456757 0.0559797)
(-0.152893 0.299794 0.031547)
(0.0252638 0.0985724 0.412168)
(0.028672 0.0505515 0.256627)
(-0.0057507 0.181227 0.187667)
(0.00122697 0.101965 0.172227)
(0.107131 0.104278 0.412649)
(0.105004 0.0606617 0.268465)
(0.0096498 0.192103 0.187889)
(0.018236 0.119259 0.171822)
(0.0232154 0.126808 0.436267)
(0.0710152 0.0898924 0.291794)
(-0.0513359 0.2114 0.190666)
(-0.0240739 0.151978 0.16967)
(0.39372 0.494075 0.571545)
(0.399411 0.791783 0.654475)
(0.205981 0.351344 0.491083)
(0.157407 0.334447 0.305987)
(0.0242576 0.241573 0.150207)
(0.432588 0.762516 0.619219)
(0.414815 0.511891 0.534821)
(0.154408 0.29038 0.463254)
(0.225053 0.291338 0.354058)
(0.0397141 0.197797 0.194789)
(-0.439913 0.811015 0.57704)
(-0.331637 0.619762 0.489877)
(-0.271911 0.480094 0.367)
(-0.232749 0.366195 0.260374)
(-0.11789 0.23515 0.13914)
(0.0260416 0.0262702 0.190394)
(0.0214583 0.0172893 0.149814)
(0.0032809 0.0622659 0.162477)
(0.00156325 0.0460897 0.164708)
(0.084067 0.0353311 0.205496)
(0.0729333 0.0216469 0.154976)
(0.0110473 0.0816418 0.167985)
(0.00593778 0.0628487 0.166939)
(0.085696 0.0596608 0.230729)
(0.0923523 0.0401865 0.169969)
(-0.0104791 0.112886 0.176226)
(-0.0138034 0.0884318 0.172281)
(0.196718 0.752922 0.465237)
(0.0720068 0.688209 0.332581)
(0.294561 0.488654 0.400406)
(0.162813 0.436647 0.274734)
(0.121737 0.304478 0.290144)
(0.0802392 0.281635 0.22409)
(0.137046 0.252675 0.24624)
(0.106581 0.208662 0.195785)
(0.00109766 0.165728 0.168281)
(-0.0215817 0.129574 0.177029)
(-0.161828 0.719303 0.388215)
(-0.0993372 0.61854 0.338493)
(-0.0521191 0.5364 0.318605)
(0.0256206 0.437606 0.272777)
(-0.038943 0.402933 0.249925)
(0.021669 0.326411 0.217561)
(-0.0486182 0.299573 0.196964)
(-0.00359356 0.242763 0.182488)
(-0.0440732 0.202535 0.130153)
(-0.0456611 0.180004 0.167564)
(-0.204483 0.56402 0.283519)
(-0.177523 0.421419 0.193114)
(-0.383114 0.575347 0.184578)
(-0.22628 0.420731 0.115406)
(-0.331881 0.704616 0.394811)
(-0.315766 0.555621 0.303815)
(-0.499426 0.713058 0.268126)
(-0.39243 0.56126 0.219608)
(-0.279599 0.462415 0.138871)
(-0.157023 0.342363 0.0844104)
(-0.138533 0.443114 0.205341)
(-0.129022 0.336166 0.148022)
(-0.450511 0.580365 0.177763)
(-0.196364 0.419479 0.0852551)
(-0.492964 0.577755 0.0562041)
(-0.219027 0.419662 0.0310251)
(-0.55598 0.715504 0.199966)
(-0.401711 0.579069 0.146625)
(-0.591464 0.71057 0.0602024)
(-0.432369 0.579361 0.0505242)
(-0.340161 0.474051 0.143639)
(-0.127826 0.340988 0.0629999)
(-0.37884 0.473269 0.0491099)
(-0.147366 0.3452 0.0241562)
(-0.193518 0.34929 0.101062)
(-0.138063 0.266285 0.0869392)
(-0.116739 0.237928 0.0737628)
(-0.165891 0.223511 0.10187)
(-0.119993 0.33302 0.144031)
(-0.124229 0.255563 0.125918)
(-0.097449 0.226691 0.0946573)
(-0.152916 0.208758 0.129057)
(-0.224773 0.365582 0.10312)
(-0.133837 0.273438 0.0611581)
(-0.132038 0.244421 0.0538874)
(-0.190751 0.236147 0.0696517)
(-0.27619 0.373421 0.0250812)
(-0.144594 0.273323 0.0105442)
(-0.174766 0.253549 -0.00266264)
(-0.195439 0.239203 0.00809461)
(0.0184313 0.0389842 0.0981884)
(0.0174577 0.0324198 0.0413366)
(0.0187166 0.0258036 0.0121695)
(0.00171628 0.166636 0.10502)
(0.00616432 0.0845473 0.0285346)
(0.00655191 0.0664343 0.00767322)
(0.0671616 0.0382854 0.104761)
(0.0640525 0.0358819 0.0468415)
(0.0609426 0.030601 0.0143738)
(0.00768991 0.184642 0.107966)
(0.0177541 0.101795 0.0307654)
(0.0169888 0.0828424 0.00867141)
(0.089231 0.0549863 0.108975)
(0.0881485 0.0579577 0.0517926)
(0.0849027 0.0567475 0.014019)
(-0.00916772 0.210858 0.111498)
(0.0177312 0.130621 0.0331682)
(0.0223341 0.111208 0.00820336)
(0.029639 0.591481 0.214824)
(0.024423 0.500141 0.117922)
(0.0131061 0.444039 0.0315124)
(0.0990285 0.377808 0.169143)
(0.0957841 0.329498 0.0868619)
(0.0849243 0.302482 0.0234575)
(0.0764266 0.257157 0.143109)
(0.0805327 0.228256 0.0712256)
(0.0761607 0.214556 0.0204736)
(0.0956765 0.20352 0.122682)
(0.0926099 0.178472 0.0583942)
(0.0857282 0.164343 0.0141448)
(-0.0264217 0.248463 0.11576)
(0.00784613 0.165285 0.0342902)
(0.0101255 0.141805 0.00623513)
(-0.141851 0.515507 0.257729)
(-0.07979 0.423593 0.138366)
(-0.043895 0.367689 0.0417033)
(0.0134014 0.355425 0.204869)
(0.0428385 0.292524 0.104779)
(0.0573292 0.258613 0.0307823)
(0.0163666 0.273082 0.164744)
(0.0498523 0.224207 0.0826206)
(0.0629517 0.199169 0.0246941)
(0.00777589 0.241569 0.135718)
(0.041246 0.192478 0.0605097)
(0.0497353 0.166486 0.0161088)
(-0.0498707 0.309408 0.126284)
(0.0100429 0.188379 0.0330521)
(0.0166518 0.158581 0.00844623)
(0.00059174 0.17796 0.0528632)
(0.000611183 0.0986122 0.0175481)
(0.00060475 0.0569483 0.00426489)
(0.000887374 0.034086 -0.00167194)
(0.00720532 0.199628 0.0219913)
(0.00328141 0.106926 0.00757517)
(0.00228684 0.0600629 0.00218581)
(0.00177257 0.035151 -0.000113478)
(-0.000179981 0.178964 0.0553587)
(0.000964534 0.0987017 0.0188087)
(0.00287904 0.0571282 0.00525716)
(0.00374687 0.0342615 -0.000581152)
(0.0111471 0.203768 0.0272071)
(0.00559213 0.109236 0.00992923)
(0.00583714 0.061702 0.00443972)
(0.00499788 0.0360838 0.0018713)
(-0.00699434 0.178977 0.0584081)
(-0.000620465 0.0980869 0.020312)
(0.00421414 0.0583148 0.00716822)
(0.00700234 0.0351478 0.00134412)
(0.00230624 0.208134 0.0439795)
(0.00346034 0.1108 0.0174425)
(0.00431433 0.0643064 0.00534708)
(0.00422841 0.0375988 0.000899519)
(-0.00119047 0.223423 0.0298939)
(0.00170132 0.116838 0.0139586)
(0.00144712 0.0642089 0.00264984)
(0.00129955 0.037174 -0.0011799)
(-0.0074925 0.228743 0.0232789)
(-0.00127864 0.120648 0.0129907)
(0.00162629 0.0652263 0.00557176)
(0.00258439 0.0377466 0.00252899)
(-0.0279284 0.190019 0.0453133)
(-0.0068098 0.104424 0.0175021)
(-0.000532411 0.0612323 0.00436884)
(0.0028359 0.0362085 -0.00248409)
(-0.040527 0.159236 0.0372399)
(-0.00998354 0.0930845 0.0141032)
(-0.00273755 0.0567265 0.00544459)
(0.0056491 0.034399 -0.00196101)
(-0.0187958 0.168098 0.0556267)
(-0.00357204 0.0951915 0.0195063)
(0.00168823 0.0577843 0.00625209)
(0.00558974 0.0346776 -0.0007142)
(-0.0330159 0.147841 0.0485978)
(-0.00768707 0.0881251 0.0169455)
(-0.00296897 0.0546723 0.00642614)
(0.00461631 0.0333559 -0.00310532)
(-0.0298453 0.204504 0.0334598)
(-0.00770497 0.111222 0.014519)
(0.000414871 0.0632896 0.00439494)
(0.00439838 0.037012 -0.000968375)
(-0.0454277 0.16595 0.0265588)
(-0.0116735 0.0965952 0.0112083)
(-0.00295181 0.057906 0.00505431)
(0.00685219 0.0351123 0.000138934)
(-0.0324893 0.212125 0.0210912)
(-0.0091801 0.115601 0.0108382)
(0.000564877 0.0648254 0.00501068)
(0.00561261 0.0379163 0.00242785)
(-0.0485791 0.168733 0.0158438)
(-0.0130098 0.0989849 0.00808801)
(-0.00341545 0.0590395 0.0044789)
(0.00710601 0.0358778 0.00210804)
(0.000337012 0.135762 0.0657976)
(0.000359992 0.0850661 0.0212532)
(0.000583187 0.0523784 0.00499898)
(0.00118641 0.032501 -0.00374486)
(0.00141191 0.0936724 0.062186)
(0.00072974 0.0695201 0.0193648)
(0.000250202 0.0468471 0.00679149)
(0.00105171 0.0304019 -0.00489911)
(0.00241862 0.136448 0.0654156)
(0.00147994 0.0849026 0.0213004)
(0.00216466 0.0524873 0.00523305)
(0.00342147 0.0325394 -0.00360883)
(0.00560446 0.0975579 0.0603207)
(0.00257206 0.0705907 0.0187612)
(0.00102385 0.0472102 0.00682835)
(0.00292399 0.030597 -0.00481262)
(-0.0108965 0.140228 0.0637211)
(-0.00225631 0.085294 0.0209791)
(0.00162549 0.0533762 0.00677799)
(0.00549105 0.0331309 -0.00196298)
(-0.00394579 0.1088 0.0566046)
(0.000155228 0.0738458 0.0176207)
(0.000820278 0.0484887 0.00761989)
(0.00504643 0.0313204 -0.00354938)
(-0.00122179 0.139698 0.0552114)
(0.00211149 0.0839189 0.0188317)
(0.00337035 0.0530329 0.00804917)
(0.00585906 0.0339634 0.00137757)
(0.000837396 0.118808 0.0618655)
(0.0019971 0.0763347 0.0193682)
(0.00057055 0.050317 0.00992619)
(0.00504468 0.0317215 -0.00397471)
(-0.0277926 0.132576 0.0479246)
(-0.00600105 0.0822361 0.0162719)
(-0.00205638 0.0523206 0.0075499)
(0.00682366 0.032876 -0.000464505)
(0.00257732 0.056017 0.0466487)
(0.00110803 0.0575257 0.0133726)
(0.000550571 0.0380597 0.00564404)
(0.000897552 0.0114513 -0.00284651)
(0.00449117 0.019185 0.0179783)
(0.00167422 0.0512011 0.0048052)
(0.000704623 0.0347681 0.00156029)
(0.000477294 0.0114562 -0.000335993)
(0.00551782 0.0630887 0.0488816)
(0.00260945 0.0599122 0.0142482)
(0.000997687 0.0390521 0.00596897)
(0.00218988 0.0120579 -0.00267094)
(0.0116546 0.0268615 0.0190372)
(0.00446323 0.0537616 0.00519396)
(0.00170386 0.0355979 0.00182241)
(0.00119154 0.0117204 -0.000118527)
(0.00400275 0.0768561 0.0508378)
(0.00279829 0.0642367 0.015184)
(0.00119445 0.0403974 0.0067771)
(0.00350644 0.0120725 -0.00215696)
(0.015287 0.040584 0.0199184)
(0.00627244 0.0582086 0.00562603)
(0.00252241 0.0367597 0.00211328)
(0.00183087 0.011888 0.000117621)
(-0.000874102 0.0944982 0.0463482)
(0.00236381 0.0696082 0.0141649)
(0.00139403 0.0427395 0.0073598)
(0.00489246 0.0131074 -0.00143515)
(0.0131119 0.0565102 0.0197478)
(0.0067182 0.0633995 0.00576325)
(0.00287041 0.0385448 0.00266317)
(0.00223393 0.0124416 0.000527185)
(-0.0129845 0.107719 0.0424533)
(-0.000250637 0.0748184 0.0136902)
(-0.000590692 0.0456867 0.00733482)
(0.00421771 0.015049 -0.000407184)
(0.00567133 0.0639709 0.018)
(0.00560509 0.0677632 0.00590166)
(0.00230953 0.0402497 0.00329254)
(0.00211916 0.0129407 0.00102286)
(-0.0316078 0.116926 0.0275592)
(-0.00447809 0.080892 0.00967271)
(-0.00162435 0.0469604 0.00408217)
(0.00459115 0.0145633 -0.000197231)
(-0.00950381 0.0621398 0.0158517)
(0.000631456 0.0732784 0.00657345)
(0.000836577 0.0434588 0.00322701)
(0.00161144 0.0138379 0.00142396)
(-0.0235892 0.113319 0.0332353)
(-0.00197855 0.0782794 0.0107273)
(-0.00121714 0.0460936 0.00510888)
(0.00423617 0.0145154 -0.00045759)
(-0.00427423 0.0590727 0.0168657)
(0.00285366 0.0708022 0.00628261)
(0.00161673 0.041841 0.00333099)
(0.00194166 0.0133262 0.00127067)
(-0.0384102 0.118649 0.0206557)
(-0.00704049 0.0826178 0.00829523)
(-0.00231567 0.0472159 0.00364892)
(0.00498409 0.0137261 0.000440716)
(-0.0136964 0.0622578 0.0128653)
(-0.00125766 0.0751988 0.00607472)
(0.000264538 0.0443235 0.00295953)
(0.00142231 0.0139171 0.00154246)
(-0.0430539 0.121 0.0126457)
(-0.00922479 0.0842178 0.00640157)
(-0.00309465 0.0481884 0.00353101)
(0.00481516 0.013935 0.00173086)
(-0.0170117 0.0655872 0.00913877)
(-0.00294476 0.0769108 0.00518245)
(-0.000371071 0.0453182 0.00288447)
(0.0011657 0.0141988 0.00179111)
(0.000389954 0.022435 -0.000105878)
(0.000145225 0.0138991 6.56399e-05)
(5.95883e-05 0.00798919 5.03688e-05)
(2.72117e-05 0.00404537 2.76502e-05)
(1.57849e-05 0.00122791 1.70514e-05)
(0.000517356 0.0223185 8.81002e-06)
(0.000215138 0.0138894 4.37401e-05)
(9.42247e-05 0.00799917 2.81201e-05)
(4.43973e-05 0.0040522 1.49466e-05)
(2.61214e-05 0.00123001 9.13399e-06)
(0.000931151 0.0227362 0.000172276)
(0.000333567 0.0140443 0.000182985)
(0.000135791 0.00804858 0.000103073)
(6.20256e-05 0.00406898 5.29556e-05)
(3.60416e-05 0.00123422 3.21234e-05)
(0.00112893 0.0227701 0.000313473)
(0.000469007 0.0140738 0.000177671)
(0.000206289 0.00807662 8.9585e-05)
(9.77235e-05 0.00408375 4.47196e-05)
(5.77515e-05 0.00123854 2.69311e-05)
(0.00123036 0.0233979 0.000438043)
(0.000415095 0.0142443 0.000314392)
(0.000166653 0.00812335 0.000165352)
(7.60239e-05 0.00409818 8.35901e-05)
(4.42288e-05 0.00124202 5.05952e-05)
(0.00147639 0.0233777 0.00107139)
(0.000610845 0.0142804 0.000577469)
(0.000269153 0.00816415 0.000283347)
(0.000127925 0.00411983 0.00014058)
(7.57918e-05 0.00124837 8.47314e-05)
(0.000734853 0.0235964 0.00117449)
(0.000302781 0.0145015 0.000648643)
(0.000133609 0.00827566 0.000322585)
(6.38457e-05 0.00416878 0.00016161)
(3.80134e-05 0.00126199 9.80375e-05)
(0.000539472 0.0240966 0.00167857)
(0.000182316 0.0147988 0.000839772)
(7.2871e-05 0.00842577 0.000406933)
(3.35088e-05 0.00423567 0.000202989)
(1.971e-05 0.00128076 0.000123314)
(0.00116864 0.0240447 0.00062123)
(0.000409743 0.0144789 0.000439276)
(0.00016809 0.00822724 0.000228543)
(7.77388e-05 0.00414187 0.000115639)
(4.56155e-05 0.001254 7.02519e-05)
(0.000558366 0.0254327 0.000668514)
(0.000170557 0.0147372 0.000412373)
(6.61087e-05 0.00829631 0.000208957)
(2.9977e-05 0.00416467 0.000105187)
(1.74886e-05 0.00125974 6.38893e-05)
(0.00126953 0.02414 0.000474109)
(0.000475336 0.0144124 0.000359084)
(0.000203174 0.00817839 0.000186906)
(9.54761e-05 0.00411841 9.41182e-05)
(5.62957e-05 0.00124731 5.69438e-05)
(0.000540816 0.0253886 0.000856049)
(0.000171823 0.0146384 0.00044842)
(6.84095e-05 0.00824285 0.00021457)
(3.12662e-05 0.00414091 0.000105545)
(1.82532e-05 0.0012531 6.34546e-05)
(0.000897315 0.0242197 0.000766966)
(0.000269719 0.0146701 0.000507325)
(0.000102512 0.00832583 0.000263377)
(4.60756e-05 0.00418555 0.000133868)
(2.68145e-05 0.0012662 8.16663e-05)
(0.000527357 0.0258948 0.000883788)
(0.000149672 0.0149211 0.000484785)
(5.6543e-05 0.00838464 0.000241333)
(2.55218e-05 0.00420354 0.000121281)
(1.49135e-05 0.00127061 7.3774e-05)
(0.000813097 0.02479 0.00132587)
(0.000186238 0.0149612 0.000671589)
(5.72915e-05 0.00846659 0.000326854)
(2.30647e-05 0.00424762 0.000163427)
(1.28525e-05 0.00128358 9.94237e-05)
(0.000449873 0.026496 0.00111104)
(8.97734e-05 0.0151813 0.000553363)
(2.54214e-05 0.00850579 0.000268845)
(9.85029e-06 0.00425672 0.000134518)
(5.41833e-06 0.0012855 8.19059e-05)
(0.000331979 0.0228882 -0.000267723)
(0.000113808 0.0139507 3.32849e-05)
(4.52323e-05 0.00798532 3.71392e-05)
(2.03447e-05 0.00403973 2.12186e-05)
(1.17087e-05 0.00122603 1.31889e-05)
(0.000250767 0.0238157 -0.0001558)
(9.17983e-05 0.014017 9.81574e-06)
(3.78252e-05 0.0079851 1.41291e-05)
(1.72457e-05 0.00403641 8.14145e-06)
(9.96573e-06 0.00122489 5.04821e-06)
(0.000822988 0.023183 -8.48542e-05)
(0.000281941 0.0140669 0.000108731)
(0.000113907 0.00803068 7.00882e-05)
(5.18562e-05 0.00405735 3.67788e-05)
(3.0055e-05 0.0012307 2.23613e-05)
(0.000654434 0.024063 -8.88583e-05)
(0.000238633 0.0141071 3.75428e-05)
(9.94519e-05 0.00802038 2.60821e-05)
(4.57586e-05 0.00405011 1.37349e-05)
(2.65946e-05 0.00122851 8.32447e-06)
(0.00113665 0.0238022 0.00012755)
(0.000347872 0.0142594 0.000189009)
(0.000135517 0.00810068 0.000104532)
(6.10771e-05 0.0040844 5.31491e-05)
(3.53372e-05 0.00123789 3.21153e-05)
(0.000883704 0.0246084 0.00017111)
(0.000323598 0.0142719 0.000129936)
(0.000136801 0.00808227 6.49191e-05)
(6.35772e-05 0.00407429 3.19032e-05)
(3.71485e-05 0.00123495 1.90174e-05)
(0.00101608 0.0246929 0.000623917)
(0.00037559 0.0144678 0.000369747)
(0.000161271 0.00816971 0.000180537)
(7.57769e-05 0.00411052 8.86735e-05)
(4.46042e-05 0.0012448 5.30807e-05)
(0.000603483 0.0252535 0.000433357)
(0.000241357 0.0144469 0.000240474)
(0.000105563 0.00815101 0.000113896)
(4.9766e-05 0.00410183 5.52783e-05)
(2.92502e-05 0.00124237 3.29163e-05)
(0.000515089 0.0255053 0.00110833)
(0.000201613 0.0145746 0.000496405)
(8.85932e-05 0.00820825 0.000226919)
(4.19909e-05 0.00412574 0.000109369)
(2.48162e-05 0.00124889 6.51142e-05)
(-0.00541659 0.565193 0.10227)
(-0.0138025 0.882066 0.232842)
(-0.00667969 0.581697 0.10664)
(-0.0319842 0.884732 0.232334)
(0.00607448 0.602819 0.120189)
(-0.0365173 0.883148 0.232296)
(0.038359 0.607446 0.141304)
(-0.019895 0.870742 0.239951)
(0.0683839 0.563853 0.143703)
(0.0286623 0.813847 0.242786)
(-0.0157725 0.498677 0.0604644)
(-0.042841 0.566655 0.086774)
(0.0470995 0.506962 0.0961579)
(0.041787 0.608765 0.145371)
(-0.0454456 0.497563 0.0327223)
(-0.0804226 0.554679 0.0433636)
(-0.0644447 0.505049 0.010179)
(-0.0964358 0.558683 0.013373)
(-0.035431 0.509659 0.524603)
(-0.00850272 0.0881116 0.127131)
(-0.00197343 0.0190965 0.0297313)
(-0.000453735 0.00435783 0.00685827)
(-0.000122135 0.000784308 0.00181421)
(-0.00899059 0.568422 0.144354)
(-0.00499451 0.163338 0.0393488)
(-0.00069284 0.0401692 0.0106303)
(-0.000200765 0.00926386 0.00248962)
(-9.51982e-05 0.00166627 0.000579628)
(-0.108721 0.508536 0.514512)
(-0.0259363 0.086532 0.123853)
(-0.00604105 0.0186558 0.0289726)
(-0.00138272 0.00424749 0.00663682)
(-0.000372993 0.000763138 0.00177056)
(-0.0205687 0.565748 0.147229)
(-0.00629741 0.160992 0.0437747)
(-0.00166596 0.0395181 0.0109746)
(-0.000375146 0.00908384 0.00262583)
(-0.000112952 0.00162183 0.000690485)
(-0.1811 0.501928 0.484268)
(-0.0432938 0.0845261 0.116053)
(-0.0101207 0.0181298 0.0271068)
(-0.00232714 0.00412091 0.00621434)
(-0.000627526 0.000740181 0.00166348)
(-0.0342253 0.557128 0.14284)
(-0.0110653 0.157511 0.0422034)
(-0.00287625 0.0385733 0.0105495)
(-0.000716086 0.00885578 0.00251208)
(-0.000197897 0.0015815 0.000663248)
(-0.239571 0.483751 0.434998)
(-0.057477 0.0799864 0.103648)
(-0.0135134 0.0170659 0.0242052)
(-0.00312332 0.00388188 0.00556001)
(-0.000845727 0.000698413 0.00149367)
(-0.0402841 0.536656 0.137616)
(-0.0140762 0.150908 0.0398183)
(-0.00376453 0.0369406 0.00983595)
(-0.000944742 0.00849056 0.0023241)
(-0.000260201 0.00151788 0.000611182)
(-0.294227 0.44556 0.356288)
(-0.0713599 0.071931 0.0847271)
(-0.0169269 0.0153662 0.0198566)
(-0.00394212 0.00351795 0.00458195)
(-0.00107587 0.000636017 0.00123754)
(-0.0454994 0.495607 0.127952)
(-0.0174105 0.140007 0.0361135)
(-0.00476791 0.0344777 0.00884332)
(-0.00120781 0.007968 0.00208077)
(-0.000336267 0.00142953 0.00054692)
(-0.33831 0.37823 0.162425)
(-0.0847047 0.063679 0.0405458)
(-0.0204435 0.0141142 0.00971228)
(-0.00482504 0.00330146 0.00227048)
(-0.00133217 0.000603992 0.000619029)
(-0.0791207 0.387293 0.0617633)
(-0.0253816 0.11563 0.0177158)
(-0.00655064 0.0294037 0.00431392)
(-0.00159203 0.00694786 0.000999913)
(-0.000437118 0.00126433 0.000262881)
(-0.318924 0.399379 0.246064)
(-0.0795735 0.0660957 0.0604684)
(-0.0190922 0.0144525 0.0143417)
(-0.0044772 0.00335226 0.00332772)
(-0.00122815 0.000610226 0.000902593)
(-0.0576689 0.420559 0.0911993)
(-0.0209009 0.125103 0.0258136)
(-0.00561573 0.0314539 0.00633027)
(-0.00139898 0.00735348 0.00149031)
(-0.000385401 0.00132807 0.000394958)
(-0.346178 0.368986 0.094222)
(-0.0867813 0.0627496 0.0237277)
(-0.0210033 0.0139831 0.00571847)
(-0.00497277 0.00328233 0.00134575)
(-0.0013782 0.000601715 0.000368554)
(-0.0919798 0.37414 0.0345137)
(-0.0282476 0.111028 0.0102738)
(-0.00715379 0.0282898 0.00249225)
(-0.0017106 0.00671699 0.000577528)
(-0.000467818 0.00122769 0.000153138)
(-0.359587 0.366077 0.0321343)
(-0.089379 0.0620061 0.00806282)
(-0.0216698 0.0138099 0.00195008)
(-0.00513244 0.00324453 0.000460927)
(-0.00142344 0.000594588 0.000126453)
(-0.0965376 0.372321 0.0130827)
(-0.0296267 0.109693 0.00360575)
(-0.00755147 0.0278887 0.000820462)
(-0.00168347 0.00664122 0.000233063)
(-0.000484775 0.00121286 4.92539e-05)
(-0.0267172 1.46411 -0.0265842)
(-0.320468 2.12541 -0.000904216)
(-0.292699 2.06701 0.195845)
(-0.10433 1.41179 -0.0520206)
(0.0703551 0.80563 0.0319678)
(0.11909 0.852556 0.0342495)
(0.329572 1.19318 0.0994384)
(0.485239 1.25786 0.128001)
(0.0655389 0.952179 0.08105)
(0.351781 1.07961 0.153192)
(-0.093859 1.53684 0.13279)
(0.0906437 2.12822 0.205151)
(0.0968906 1.9534 0.164114)
(0.206505 2.6175 0.203369)
(0.403152 1.26434 0.084038)
(0.57713 1.45463 0.112826)
(0.610662 0.980509 0.0877279)