/*--------------------------------*- C++ -*----------------------------------*\
| =========                 |                                                 |
| \\      /  F ield         | OpenFOAM: The Open Source CFD Toolbox           |
|  \\    /   O peration     | Version:  v2106                                 |
|   \\  /    A nd           | Website:  www.openfoam.com                      |
|    \\/     M anipulation  |                                                 |
\*---------------------------------------------------------------------------*/
FoamFile
{
    version     2.0;
    format      ascii;
    arch        "LSB;label=32;scalar=64";
    class       volScalarField;
    location    "1";
    object      gradTz;
}
// * * * * * * * * * * * * * * * * * * * * * * * * * * * * * * * * * * * * * //

dimensions      [0 -1 0 1 0 0 0];

internalField   nonuniform List<scalar> 
5712
(
8521.95
27904.4
6812.33
28578.6
5050.02
29345.3
7834.03
44537
9601.73
61043.8
9615.22
44881.6
9358.04
37486.3
9736.61
33628.1
5878.23
3743.46
15777.3
9472.83
5676.8
3078.11
16937.1
8392.74
6596.03
4957.06
21068.2
15271.3
4993.59
3771.82
20696.7
15461.8
11759.8
5031.71
10246.5
4644.64
4860.76
11168.4
39285.6
10499.1
14106.2
4524.48
49875.4
13315.6
12910.4
4147.4
28497.8
8747.7
14637.1
4954.64
25167
7928.79
8413
4171.75
11236.4
4473.5
9128.95
4908.88
10902.5
4290.53
11239.9
6475.72
9385.19
4193.64
13370.3
4897.25
4535.43
1610.7
15212.1
10784.2
9145.89
6766.32
15939.8
13133.6
8563.64
7345.11
9079.36
6356.5
13372.1
9311.93
5822.54
4289.31
2693.89
2207.21
5323.39
4551.38
2451.48
2394.9
5849.54
3929.72
2780.07
1783.49
8410.81
4674.22
6542.76
7745.94
11937.9
8577.32
9824.51
13519
5373.39
2615.02
3732.75
4340.51
2508.62
1080.32
1486.48
1552.44
11783.8
20925.8
7862.41
23219.2
13569.7
20347.1
9559.1
24061.8
15090.3
18188.1
12066.6
23083.7
15576
17140.9
12979.1
12851.2
13812
17211.5
17391
18431.2
19659.5
27860.9
14043.8
11946.7
11172.9
12738.6
19280.7
24471.6
22058
28215.9
27465.2
22395.9
20912.2
27693.9
26744.2
19275.9
18981.6
25736.8
25574.9
12762
10280.7
13273.4
11994.8
15221.2
14314.7
17042.9
16946.7
23240.2
24399.6
11807.1
10676.3
12370.1
12809.2
13538.7
15346.7
15636.3
18499.3
20293.8
24475.2
10092.1
7942.4
6690.74
8252.78
12617
14806
8519.02
13115.9
6065.64
7654.07
9337.12
7771.61
1704.29
5336.4
637.785
1750.18
4203.33
8592.24
1315.16
2787.18
1075.85
4786.19
361.298
1543.51
6193.1
6188.71
7143.07
4635.91
10034.9
8197.76
11874.5
8505.51
1691.66
3340.75
3542.63
2133.5
1758.19
2241.94
2495.33
1880.6
17832.3
10946.2
3514.76
20051.5
11659.4
3842.06
17125.9
10826.3
3714.71
19626.6
11643.8
3837.69
15700.5
9952.67
3303.31
18991.4
11613.6
3894.74
7219.28
4274.87
1283.27
10011.4
6696.19
2298.57
12516.3
8597.84
2963.19
14867.8
9749.02
3259
18679.9
11822
4109.18
8252.87
5015.79
1721.3
9890.38
7205.17
2748.51
12239.7
9010.78
3352.7
15193.6
10711.5
3874.87
18951.4
12066.7
4325.14
265.596
2043
2830.58
4145.38
2417.62
2711.06
5989.97
5625.79
588.194
944.128
627.254
981.61
433.508
1304.91
803.924
1717.8
2990.63
1485.54
3898.52
2294.94
2001.26
3422.53
3322.24
394.404
6549.28
1184.72
-2556.9
-70.3467
1395.99
703.61
703.115
331.384
8974.45
3737.91
2417.5
1378.31
9128.15
3859.03
3054.4
1733.78
9043.81
4115.56
4311.69
2734.22
2927.82
1905.24
958.338
947.064
13008.5
11367.1
5965.54
6093.33
14809.2
13715.4
7175.46
7115.43
4946.56
5009.44
10577.1
8598.29
3327.88
3505.6
1533.86
1914.03
4211.62
4159.14
1992.32
2228.89
2644.85
2927.21
1157.31
1699.93
4108.21
2529.26
3994.76
2457.41
6643.73
3402.04
6111.65
3478.77
2235.16
1715.43
2409.39
1502.37
940.689
893.232
1399.49
788.676
10304.2
6415.69
4691.68
4305.68
10316.2
6711.63
4697.21
4295.56
10906.7
7294.84
4766.64
4241.75
14288.6
16361.9
12277.1
7649.67
3755.18
15480.5
13370.5
11581.3
8851.45
4869.73
14426
12246.9
9175.01
6509.34
3478.51
4759.86
3745.35
4061.92
4117.69
5137.41
3874.4
4199.63
4173.46
5768.22
4249.22
4405.64
4307.02
11630.9
8314.54
10010.2
6868.34
7253.61
5602.25
6155.99
4894.64
4207.02
4425.73
9705.37
8462.34
7965.12
6819.43
6248.12
5439.03
4924.1
4562.21
3253.83
4189.11
7087.98
4827.84
4614.46
2885.15
9870.27
7595.39
6703.15
5490.2
3471.77
2110.26
5133.52
3700.56
4444.07
2131.38
1405.1
775.628
4999.16
3665.61
1505.06
1263.1
3590.98
1575
1227.75
603.905
2526.54
2173.48
1844.07
2546.74
3600.78
3147.96
2366.43
3226.42
2578
1528.95
1347.19
1741.29
627.03
263.605
-66.5659
202.365
2454.71
1033.42
304.239
2625.51
713.366
191.831
2619.03
1171.04
359.346
2699.14
769.136
216.785
2724.38
1294.81
350.476
2787.46
829.206
205.084
5370.6
2948.05
787.811
4228.56
2171.55
586.437
3577.72
1780.64
511.84
3067.06
1459.85
353.62
2893.99
857.256
155.878
6443.23
3459.16
1042.58
5121.73
2619.49
769.557
4118.61
2065.51
617.353
3392.94
1512.74
402.721
3157.11
826.301
211.156
1321.58
438.702
106.622
-41.7984
549.781
189.379
54.6453
-2.83696
1383.97
470.216
131.429
-14.5288
680.176
248.231
110.993
46.7826
1460.2
507.8
179.205
33.6031
1099.49
436.062
133.677
22.488
747.349
348.966
66.2459
-29.4975
581.974
324.767
139.294
63.2247
1132.83
437.552
109.221
-62.1021
930.997
352.579
136.115
-49.0253
1390.67
487.657
156.302
-17.855
1214.94
423.637
160.653
-77.6331
836.496
362.975
109.874
-24.2094
663.97
280.208
126.358
3.47336
527.279
270.956
125.267
60.6963
396.095
202.2
111.972
52.701
1644.94
531.329
124.974
-93.6216
1554.65
484.119
169.787
-122.478
1635.39
532.509
130.826
-90.2208
1508.02
469.029
170.709
-120.315
1593.03
524.477
169.45
-49.0745
1415.11
440.518
190.497
-88.7346
1380.29
470.791
201.229
34.4393
1546.64
484.205
248.155
-99.3677
1198.11
406.798
188.748
-11.6126
1166.22
334.316
141.101
-71.1627
449.458
120.13
39.0073
-8.39983
1222.04
356.204
149.224
-66.7734
475.929
129.849
45.5603
-2.96317
1270.94
379.601
169.428
-53.924
497.96
140.651
52.832
2.94053
1158.71
354.123
183.995
-35.8787
493.695
144.081
66.5793
13.1796
1061.33
342.255
183.371
-10.1796
450.001
147.542
82.3135
25.5715
688.98
241.818
102.054
-4.93078
396.293
164.336
80.6752
35.5989
830.883
268.182
127.722
-11.4397
421.643
157.065
83.2747
31.7666
516.393
207.381
91.223
11.0179
321.633
151.868
73.9884
38.5615
316.142
160.039
88.2752
43.2714
228.469
129.561
72.1117
44.7778
-2.64696
1.641
1.25922
0.691256
0.426285
0.22025
1.0935
0.703002
0.373664
0.22835
4.3069
4.57462
2.57683
1.32389
0.803086
7.83682
4.44179
2.23963
1.11799
0.673277
10.9511
7.8598
4.13379
2.08975
1.26488
26.7848
14.4367
7.08366
3.51451
2.11828
29.3623
16.2161
8.06464
4.04024
2.45094
41.9643
20.9943
10.1733
5.07473
3.08286
15.5307
10.9819
5.71358
2.89097
1.7563
16.7129
10.3093
5.22393
2.62968
1.59723
11.8527
8.9771
4.67264
2.35295
1.42359
21.4012
11.2105
5.36426
2.63862
1.58636
19.1742
12.6831
6.58442
3.3467
2.04166
22.0947
12.1196
6.03332
3.03202
1.84435
33.1467
16.7897
8.17136
4.08567
2.48559
27.776
13.8341
6.72114
3.36294
2.04765
-6.69308
0.832122
0.92848
0.530464
0.329722
-3.895
0.245394
0.353228
0.203536
0.126205
-2.12135
2.71827
1.7522
0.91947
0.559034
-2.22146
0.93857
0.652052
0.343374
0.208112
3.18876
4.72523
2.61331
1.32873
0.802884
4.27775
3.24841
1.62298
0.797581
0.475436
15.5979
9.24367
4.51341
2.21684
1.32702
10.8339
6.01184
2.84741
1.38196
0.822908
27.7081
12.4101
5.67297
2.73422
1.62785
2556.75
5821.04
2666
5808.35
3004.72
5807.39
3532.61
5998.76
3592.58
6069.65
1511.61
2169.35
2403.95
3634.27
818.057
1084.09
254.475
334.326
13115.1
3178.27
743.283
171.457
45.3553
3608.86
983.72
265.757
62.2404
14.4907
12862.8
3096.33
724.314
165.92
44.2641
3680.72
1094.37
274.365
65.6456
17.2621
12106.7
2901.32
677.671
155.359
41.5871
3571
1055.08
263.737
62.8021
16.5812
10874.9
2591.2
605.131
139
37.3419
3440.41
995.457
245.899
58.1024
15.2796
8907.19
2118.18
496.415
114.549
30.9385
3198.8
902.838
221.083
52.0193
13.673
4060.62
1013.64
242.807
56.7621
15.4757
1544.08
442.895
107.848
24.9978
6.57202
6151.6
1511.71
358.542
83.193
22.5648
2279.98
645.34
158.257
37.2578
9.87395
2355.55
593.194
142.962
33.6438
9.21385
862.843
256.846
62.3062
14.4382
3.82844
803.356
201.571
48.7521
11.5232
3.16132
327.067
90.1437
20.5115
5.82658
1.23135
-664.606
-22.6054
4896.13
-1300.51
799.196
856.237
2485.96
3200.03
2026.25
3829.81
3319.75
5128.77
4102.86
5084.24
2100.95
2820.65
2193.2
2604.6
1137.23
1182.48
2182.25
1453.33
670.31
-69.1204
-291.823
-341.612
108.65
14179.7
4455.2
5054.56
3713.99
484.285
556.733
3373.15
-482.112
-42.7102
-263.91
-195.31
7688.68
4251.46
1986.26
1408.15
3660.03
2229.65
815.779
1453.87
-697.076
-209.596
1021.72
887.169
8834.08
4077.66
5574.06
2843.72
3808.83
4952.51
1681.47
-241.617
1280.98
1423.5
1063.29
838.274
680.599
457.896
1088.51
825.024
604.427
398.981
161.955
579.597
469.124
343.364
210.092
71.1125
-61.9327
-51.7408
-38.4876
-23.4956
-7.87583
-259.535
-215.36
-159.746
-97.6469
-32.7657
-304.246
-252.92
-187.996
-115.134
-38.6788
95.9158
80.3094
61.5133
39.3841
13.7396
9632.33
7546.16
5715.76
4462.62
3445.7
3500.31
2679.81
2123.34
1509.1
693.978
3740.51
2796
2088.32
1416.62
633.286
2696.71
1941.17
1450.04
967.982
368.859
419.484
299.146
263.979
190.166
76.2359
520.016
457.15
364.167
241.117
87.2477
2729.57
2124.04
1534.98
972.239
365.361
-202.167
-18.7295
54.5035
65.9038
30.0389
-12.5931
16.9658
36.6264
37.4973
16.9151
-128.076
-26.4616
31.5763
44.5192
20.7278
-183.776
-155.828
-114.387
-67.7565
-21.8652
5323.53
4342.99
3354.6
2662.56
2065.26
3178.91
2379.74
1781.26
1194.62
509.056
1708.13
1396.87
1052.05
673.679
243.092
1193.56
959.96
710.408
447.057
158.244
2974.55
2304.31
1657.8
1031.76
372.979
1909.29
1543.95
1142.33
714.238
247.888
694.179
558.1
410.554
255.266
88.5216
1251.57
1011.34
741.947
456.748
155.873
-597.055
-474.128
-336.533
-198.405
-65.0669
-185.153
-150.422
-107.318
-62.3862
-20.0246
875.929
708.139
523.242
326.492
113.464
765.802
622.764
461.555
287.57
99.2398
5458.27
3701.43
2855.63
2263.95
1668.41
2997.31
2212.79
1592.51
1043.44
430.393
3930.76
3008.57
2218.9
1532.15
667.317
2196.92
1698.56
1236.2
800.947
318.706
3150.18
2476.7
1799.28
1120.83
396.89
3676.04
2638.52
1941.25
1286.9
492.182
1435.88
1152.66
842.696
519.063
177.881
-215.734
-178.272
-130.247
-77.8072
-25.5555
1090.39
878.493
649.816
407.515
142.497
-34498.9
-55495.4
-28741
-44823.3
-30245.3
-61676.3
-36066.4
-78428.6
-22091
-15362.9
-24342.4
-15501.8
-20145.4
-13147.2
-24431.2
-13249.9
-29095.8
-22381.3
-41659.7
-30544.8
-25074.4
-20414.4
-34678.4
-26493.5
-19806.7
-20636.1
-16422.1
-16146
-19720.8
-18148
-46196.4
-12788
-18042
-6894.08
-55733.8
-15617.8
-16087.3
-6254.88
-34885
-10998.9
-18495.2
-7196.7
-31384.4
-9702.63
-15557.7
-6333.57
-19405.6
-7094.24
-14840.7
-6608.31
-16829.4
-6163.85
-15323.4
-7590.48
-13457.1
-5425.87
-16875.8
-6029.7
-5906.27
-2096.17
-12872.2
-9021.01
-11093.7
-7076.47
-11117.4
-9167.12
-9618.68
-7002.48
-11437.7
-6910.53
-13534.6
-8996.52
-7655.7
-4800.93
-4189.55
-2741.33
-6610.24
-4684.51
-3584.51
-2664.04
-7830.31
-4538.68
-4332.1
-2367.49
-10219.3
-5260.05
-6969.46
-7854
-13119.6
-8926.26
-9911.17
-13372.3
-6883.21
-3123.38
-4192.92
-4502.16
-3687.67
-1500.38
-1924.88
-1717.86
-15739.7
-19588.3
-9009.8
-22427.9
-16363
-18679.4
-10365.4
-22898.4
-16503
-16904.4
-12344.7
-21698.1
-10979.6
-8765.54
-12365.8
-13872.3
-13927
-11793
-14029.1
-16704.5
-18416.1
-26182.1
-8393.28
-9057.69
-10074.5
-12173.5
-18508.1
-18855.4
-13232
-24105.1
-18700.8
-17481.4
-13002.7
-23752.7
-18649.9
-15444.6
-12226.9
-22179.6
-18512.1
-9601.61
-7668.29
-10513
-8573.05
-11991.7
-9985.01
-13487.7
-11715.5
-20151.8
-18640.5
-8860.08
-7852.85
-9548.66
-8875.94
-10899.6
-10830.6
-13242.3
-13714.8
-18292.2
-19396.2
-8352.32
-6650.86
-6142.37
-7579.69
-9750.32
-12640.4
-7375.92
-11686.9
-5891.87
-7311.59
-8408.84
-6885.05
-1635
-5061.61
-711.203
-1671.21
-3796.37
-7979.02
-1159.11
-2463.88
-1175.77
-4702.21
-550.563
-1580.38
-6141.05
-5964.93
-7066.05
-4418.04
-9490.75
-7461.9
-11437.4
-7719.43
-1803.39
-3315.77
-3577.8
-2088.81
-1935.35
-2304.9
-2580.31
-1908.9
-8098.77
-2784.76
-11009.8
-3741.73
-8282.77
-2917.74
-11274
-4028.67
-8239.28
-2876.77
-11882.2
-4530.72
-4658.26
-1399.28
-6044.03
-2267.78
-7092.93
-2710.35
-8698.23
-3248.13
-12595.2
-4955.17
-5675.37
-1846.44
-5992.05
-2771.58
-7445.51
-3338.92
-9848.93
-4158.4
-13253.2
-4982.97
-7677.29
-7117.03
-6124.75
-5881.45
-12828.9
-9860.58
-10633
-8803.19
-4925.54
-3914.6
-2064.08
-1398.02
-4762.27
-4233.12
-2036.79
-1946.1
-3981.93
-5547.88
-4511.73
-5927.68
-4407.09
-3314.16
-4452.66
-1401.58
-8591.54
-2792.02
1820.69
-577.892
-1830.09
-1176.65
-620.057
-338.228
-2441.84
-1432.83
-958.769
-486.376
-2692.42
-1556.9
-1513.79
-649.158
-3125.53
-1898.4
-2347.32
-1102.46
-1914.96
-610.54
-237.968
331.619
-6127.06
-6382.52
-4952.47
-4482.09
-8479.04
-8397.72
-7172.42
-5999.04
-3233.89
-3287.26
-4418
-4768.52
-3266.74
-2758.52
-1700.19
-1481.36
-4814.54
-3805.47
-2655.05
-2133.39
-2011.24
-1958.51
-848.424
-1028.83
-2035.93
-1171.19
-2489.83
-1472.79
-2779.5
-1747.15
-3597.76
-2235.11
-1099.09
-613.12
-1424.43
-701.626
-155.414
91.6316
-637.318
-79.3648
-3267.79
-3708.39
-2277.59
-2992.31
-3316.77
-3833.02
-2335.54
-2993.5
-3648.57
-3763.21
-2493.39
-2882.11
-3864.58
-6223.72
-3054.86
-2257.27
-1734
-8953.66
-6188.87
-5101.56
-4403.84
-3374.79
-7218.58
-5717.62
-4388.55
-3510.59
-2141.38
-3955.23
-3603.45
-4172.59
-6139.22
-3923.54
-3397.26
-4054.48
-5911.73
-3902.6
-3460.29
-3816.22
-5552.37
-8324.96
-6359.97
-6973.62
-5204.7
-5461.35
-4173.92
-4706.15
-3987.03
-3624.47
-5154.98
-6721.61
-6240.44
-5257.95
-5031.27
-4143.05
-4065.34
-3523.6
-3791.96
-2434.02
-4373.02
-4348.67
-3127.01
-3143.93
-1533.58
-6636.67
-5669.66
-5195.75
-4014.49
-2202.76
-969.739
-3110.89
-2347.64
-3589.39
-1373.32
-843.243
-232.848
-4277.63
-2920.02
-1112.26
-770.006
-2745.9
-895.527
-590.791
-84.9628
-1592.27
-1403.14
-1295.99
-2211.67
-2311.07
-2275.45
-1749.3
-2982.4
-1853.87
-1010.04
-822.312
-1421.08
-5.65224
179.74
578.138
135.264
-2490.45
-742.209
-4026.07
-365.833
-2431.69
-830.926
-3958.76
-388.894
-2109.2
-598.503
-3630.66
-278.185
-3629.26
-945.69
-3009.37
-798.331
-2744.99
-860.622
-2337.2
-504.074
-3430.51
-406.605
-4609.99
-1088.94
-3724.89
-730.405
-3176.34
-667.087
-2885.34
-456.99
-3598.49
-452.354
-606.894
-178.161
8.20348
107.79
-224.316
-63.9869
-1.28022
29.466
-623.933
-173.232
4.74513
92.3217
-212.754
-45.5561
-21.6092
-3.50505
-666.657
-169.951
-16.5709
59.3516
-237.49
-5.19695
92.4882
104.561
111.446
127.64
196.037
174.734
401.103
253.935
178.459
107.985
-417.51
-67.4861
96.6848
187.467
-333.446
-20.6489
52.2601
171.394
-699.663
-163.489
14.6229
125.832
-555.733
-87.1682
25.0183
211.45
-125.895
39.5986
113.59
151.716
-117.759
44.4204
64.1894
116.009
188.423
155.23
118.479
78.92
125.17
119.203
81.7927
69.0053
-880.651
-250.619
4.81321
182.347
-1011.97
-260.456
-76.4535
216.992
-859.859
-235.341
10.6538
186.825
-981.009
-247.296
-75.4228
216.111
-822.817
-210.678
-23.0657
145.097
-909.181
-222.208
-95.5858
186.325
-594.151
-128.134
-33.7599
75.3272
-963.494
-218.457
-123.475
226.15
-551.734
-92.4659
-17.2978
146.374
-882.625
-187.884
-80.3347
140.885
-372.387
-69.6796
-11.3067
31.3465
-841.629
-174.569
-73.9274
142.182
-360.239
-65.6305
-11.8149
29.3129
-752.777
-146.332
-76.6762
135.325
-318.79
-53.6134
-7.88367
30.4417
-644.112
-118.444
-89.2782
116.14
-273.822
-41.2609
-13.434
26.4571
-513.936
-77.8456
-66.2759
95.8248
-170.125
-12.2843
-13.508
23.8704
-291.579
-9.60029
34.0708
104.802
-25.6089
48.0042
38.0755
45.4741
-433.324
-55.4202
-11.9619
100.94
-75.9558
22.5488
12.3871
34.6085
-108.092
45.5869
61.1955
96.1396
38.7575
73.5873
58.4117
51.422
93.7327
102.468
71.2523
66.8151
121.976
101.135
65.7432
48.5093
21.4934
5.17242
1.61443
0.670666
0.387086
8.72429
2.40528
0.817674
0.354545
0.208047
23.6457
7.00606
2.63527
1.20907
0.7229
12.5148
4.7969
2.06022
0.996017
0.605229
28.7153
9.65498
3.97553
1.89446
1.14506
32.86
13.8786
6.36631
3.15168
1.92554
38.0003
16.5351
7.65651
3.78767
2.30725
42.0907
20.45
9.85196
4.92586
3.0038
35.7122
12.8031
5.52771
2.67585
1.62067
30.1105
11.2871
4.97078
2.41872
1.46512
31.8569
10.5273
4.42722
2.13245
1.29283
25.3919
10.0929
4.65033
2.30977
1.41198
38.4607
14.8773
6.58094
3.20116
1.93792
30.0158
12.7226
5.83285
2.87176
1.74449
35.1258
16.7254
8.00436
3.99273
2.43249
29.0621
13.8398
6.6133
3.2961
2.00759
24.4795
4.7709
1.33306
0.526845
0.299073
11.6166
1.96811
0.519978
0.202574
0.115019
25.3226
5.77813
1.93152
0.849556
0.502584
11.8879
2.3162
0.731316
0.317476
0.187841
25.1756
6.7581
2.57583
1.2013
0.723672
11.9742
3.42855
1.4175
0.688122
0.421243
26.3998
9.00384
3.94654
1.94354
1.19116
15.1703
5.23642
2.36508
1.17984
0.726825
20.3599
9.45246
4.59104
2.33235
1.44124
-2411.51
-4731.7
-2534.09
-4779.22
-2849.5
-4877.62
-3208.16
-5069.39
-3151.26
-5122.96
-1397.41
-1999.44
-2149.42
-3207.48
-784.535
-1031.13
-263.024
-334.123
-12629.6
-3068.13
-720.138
-166.84
-44.3758
-3430.75
-947.826
-257.31
-60.5247
-14.1782
-12373.7
-2987.93
-701.819
-161.516
-43.328
-3501.93
-1053.64
-265.513
-63.813
-16.8699
-11627.2
-2799.4
-657.04
-151.381
-40.7485
-3392.93
-1014.33
-255.001
-61.0313
-16.2047
-10447.2
-2504.24
-587.932
-135.726
-36.6579
-3254.53
-954.708
-237.514
-56.4535
-14.9356
-8603.85
-2057.45
-484.432
-112.266
-30.4627
-3015.23
-865.272
-213.662
-50.5987
-13.3816
-4008.16
-1000.22
-239.753
-56.129
-15.3364
-1474.31
-426.36
-104.381
-24.3214
-6.43156
-6011.64
-1480.37
-352.001
-81.9091
-22.2934
-2154.35
-619.065
-153.044
-36.2631
-9.67051
-2339.5
-588.194
-141.675
-33.3559
-9.14668
-833.176
-248.352
-60.2987
-14.0171
-3.73556
-799.374
-199.557
-48.137
-11.3718
-3.12365
-318.138
-86.2578
-19.3798
-5.55952
-1.16776
-868.29
-2163.28
-7289.64
-167.743
-7998.1
-3541.88
-7799.76
-3702.46
-14225.3
-7603.55
-15839.1
-8341.83
-63.6035
-209.189
-326.411
-386.777
-328.957
-20.5239
-108.225
-349.9
-539.04
-619.158
-510.223
-116.416
-50.2055
-50.0683
-158.298
-156.175
-224.609
-225.427
-208.019
-214.023
-165.283
-198.528
-64.6569
-124.153
762.93
1787.23
2949.96
2097.91
1865.06
789.718
627.093
1694.31
2819.87
3340.57
2785.16
1171.87
-57.0918
-47.9815
-36.1333
-22.3995
-7.5833
-187.958
-158.164
-119.272
-74.0252
-25.0778
-293.158
-246.563
-185.844
-115.3
-39.0531
-347.192
-291.818
-219.81
-136.303
-46.1552
-295.619
-248.753
-187.542
-116.355
-39.4088
-22.0957
-21.8855
-18.6289
-12.3929
-4.31427
-97.0027
-81.377
-61.1718
-37.8682
-12.8108
-313.864
-263.582
-198.374
-122.931
-41.6125
-483.029
-405.174
-304.602
-188.61
-63.8201
-553.894
-463.731
-348.002
-215.21
-72.7761
-455.728
-380.876
-285.373
-176.292
-59.5882
-105.613
-89.7452
-68.2059
-42.5171
-14.4257
-45.1242
-37.9841
-28.6517
-17.7849
-6.0253
-45.0364
-37.9464
-28.6518
-17.7994
-6.03297
-142.381
-119.963
-90.5811
-56.2748
-19.0746
-140.516
-118.435
-89.4605
-55.5951
-18.8474
-201.97
-170.111
-128.401
-79.7489
-27.0272
-202.655
-170.633
-128.752
-79.9454
-27.0902
-187.201
-157.806
-119.203
-74.0732
-25.11
-192.24
-161.69
-121.865
-75.5993
-25.6047
-149.218
-126.203
-95.5812
-59.4806
-20.1729
-178.047
-149.458
-112.401
-69.5969
-23.5455
-60.4326
-52.8962
-41.1361
-25.9713
-8.84878
-111.702
-94.0325
-70.829
-43.8605
-14.8299
666.932
544.858
400.613
244.813
82.4841
1551.08
1259.73
923.544
564.78
190.914
2519.53
2022.04
1475.16
905.248
309.303
1774.2
1416.76
1034.75
637.803
218.696
1607
1286.5
935.303
568.923
184.255
704.426
575.986
425.285
260.143
82.2577
548.779
448.801
330.223
201.839
67.9911
1475.91
1202.46
883.094
539.964
182.218
2434.7
1968.94
1440.29
880.933
298.302
2857.95
2294.59
1673.06
1024.42
348.334
2379.75
1907.02
1388.97
850.191
288.146
1010.1
816.598
599.845
369.428
125.285
91.2281
239.246
360.935
427.543
377.609
85.0354
149.714
394.28
587.095
667.809
553.38
151.462
70.6918
66.9086
180.561
175.372
249.336
247.83
234.136
236.381
199.401
203.575
139.982
152.379
-675.67
-1656.63
-2731.84
-1830.59
-1582.67
-506.024
-592.624
-1642.67
-2714.44
-3164.45
-2546.25
-895.424
82.172
69.3594
52.4749
32.6554
11.0795
215.261
181.452
137.087
85.2122
28.8927
324.546
273.365
206.37
128.202
43.4551
384.292
323.537
244.132
151.607
51.3796
339.928
286.672
216.646
134.68
45.6675
80.6903
71.8746
56.8719
36.4048
12.4995
134.696
113.533
85.7742
53.3197
18.0803
354.218
298.044
224.768
139.523
47.2738
526.785
442.605
333.322
206.691
69.9944
598.271
501.774
377.256
233.659
79.0827
495.144
414.72
311.439
192.752
65.2193
137.502
117.012
89.1145
55.6709
18.9156
63.7148
53.8216
40.751
25.3747
8.6119
60.3152
50.9593
38.5907
24.0327
8.15699
162.595
137.195
103.755
64.5432
21.8934
157.946
133.293
100.82
62.725
21.2781
224.439
189.283
143.074
88.9659
30.1709
223.021
188.019
142.065
88.3118
29.9445
210.946
178.081
134.73
83.8323
28.4397
212.597
179.101
135.223
84.0068
28.4756
180.311
152.827
116.028
72.3613
24.5734
183.061
154.174
116.351
72.2493
24.4822
128.832
111.214
85.7268
53.9613
18.3904
137.62
116.417
88.169
54.8575
18.6006
-588.093
-478.042
-349.859
-213.143
-71.73
-1433.35
-1160.21
-848.181
-517.916
-175.053
-2321.21
-1852.55
-1345.42
-823.973
-281.749
-1521
-1191.1
-854.711
-520.718
-177.69
-1332.81
-1037.35
-732.53
-434.146
-135.768
-426.018
-320.219
-214.948
-119.051
-31.3455
-517.798
-422.701
-310.526
-189.618
-63.8563
-1429.71
-1163.75
-854.063
-522.066
-176.191
-2338.94
-1887.25
-1377.84
-841.806
-285.005
-2694.59
-2151.91
-1561.32
-952.907
-323.649
-2154.46
-1706.97
-1229.68
-746.632
-251.928
-747.352
-581.362
-411.024
-245.822
-81.8797
-1802.84
-1125.78
-476.972
227.475
467.772
587.661
143.408
-11956.2
-2537.75
-3745.69
-1746.9
-92.6713
-3714.3
404.447
1767.46
715.436
-6585.58
-3229.81
-1045.38
-899
-3315.05
-1597.13
-529.632
-1132.78
1302.77
645.122
-703.233
-485.927
-8234.71
-3708.72
-4786.71
-2349.93
-3394.78
-3982.16
-1306.7
632.196
-786.935
-986.423
-640.23
-469.178
-415.856
-349.813
-750.466
-504.45
-332.996
-211.009
-90.9326
-404.182
-319.748
-229.345
-138.667
-46.8067
206.501
175.741
133.854
83.6361
28.4349
419.62
352.151
264.57
163.571
55.2678
526.967
442.124
332.185
205.445
69.4395
134.728
117.948
91.1964
56.9852
19.204
-8012.06
-6380.84
-4975.65
-4197.36
-3682.51
-1673.4
-1066.88
-890.427
-756.587
-442.468
-2608.27
-1838.59
-1370.82
-984.977
-502.818
-1128.44
-710.495
-547.989
-405.313
-162.811
-61.3723
-40.2632
-30.8501
-25.9128
-13.0096
-2988.08
-2321.19
-1672.43
-1057.3
-397.393
372.128
313.783
231.574
138.022
44.3176
1504.21
1197.83
862.19
519.36
173.658
637.182
527.915
390.409
237.808
79.3946
-4315.65
-3533.55
-2778.82
-2366.48
-2073.57
-2236.89
-1563.02
-1154.44
-807.066
-385.033
-838.217
-645.72
-473.55
-310.217
-120.101
-728.107
-561.087
-404.863
-255.77
-93.5838
-2686.51
-2078.94
-1500.45
-942.394
-346.319
-1321.61
-1032.28
-744.756
-462.193
-161.514
-431.332
-331.097
-234.99
-144.249
-50.6017
-960.143
-763.31
-552.989
-338.742
-115.851
1148.61
945.419
697.74
425.819
142.797
580.675
487.657
365.26
224.434
75.3168
-581.494
-453.658
-327.055
-202.968
-71.4591
-399.17
-308.592
-220.648
-136.283
-47.7572
-4896.15
-3198.97
-2455.92
-2018.29
-1617.46
-2643.32
-1892.37
-1333.27
-873.15
-370.548
-3148.5
-2316.32
-1664.22
-1174.16
-532.151
-1729.2
-1280.74
-903.475
-585.988
-245.249
-2771.56
-2151.11
-1549.44
-964.539
-344.181
-2790.77
-1862.96
-1344.85
-916.054
-368.756
-1095.91
-863.232
-622.069
-381.236
-131.16
570.209
480.278
361.016
222.619
74.9198
-636.361
-487.004
-348.006
-217.37
-77.7352
-8.41614
-7.36565
-5.35923
-27.6218
-101.59
-236.09
-24871.5
-22044.6
-20662.2
-23482.9
-18382.2
-14654.7
-16296.2
-12450.1
-22058.2
-19706
-20375.8
-19467.2
-17983.3
-15441.8
-19014
-20748
-18634.2
-16832.6
-18907.6
-15765.1
-13382.3
-13839.4
-11135.1
-20046.1
-18213.8
-18532.8
-17220
-16154.7
-15037.9
-15806.3
-16566.1
-15244.5
-13485
-14713.7
-13304.7
-11498.3
-11665
-10001.6
-17008.3
-15920.3
-15873.2
-14924.9
-13893.2
-12831.7
-13566.9
-11821.6
-11155.2
-9651.53
-10226.2
-10055.1
-9055.07
-8762.46
-7954.03
-12578.4
-12844
-11894.7
-12151.5
-10679.5
-9704.37
-10864.7
-7667.59
-7343.99
-6263.77
-6536.58
-6798.62
-6176.61
-5826.42
-5353.58
-8414.88
-8507.19
-8046.03
-8016.92
-7365.75
-6687.84
-7315.11
-2779.3
-2683.85
-2275.03
-2356.96
-2521.89
-2350.5
-2142.95
-1989.32
-3167.89
-3215.48
-2986.86
-2913.53
-2768.5
-2543.7
-2750.96
-9130.31
-8965.03
-13864.9
-14944.7
-8526.7
-7555.35
-12160.4
-9888.26
-6710.91
-4660.68
-6691.86
-4718.77
-6690.47
-6473.29
-4900.26
-9045.31
-8580.02
-12410.6
-13512.2
-7957.36
-7172.68
-10808.8
-9254.63
-6648.26
-3934.13
-6553.25
-4218.84
-5992.32
-5819.34
-4702.29
-8169.77
-7771.77
-10535.4
-11295.6
-7274.27
-6716.15
-9415.79
-8275.2
-5409.39
-3956.03
-5395.15
-4271.26
-5009.15
-5052.89
-4565.59
-6470.99
-6207.76
-7887.61
-8297.03
-5865.77
-5440.54
-7273.73
-6584.01
-4899.43
-3341.19
-4824.29
-3637.79
-4493.2
-4496.86
-3860.27
-4386.98
-4234.13
-5199.52
-5408.9
-3937.16
-3613.43
-4878.1
-4446.07
-3330.46
-2433.73
-3269.85
-2631.77
-3055.72
-3029.57
-2654.74
-1617.34
-1563.86
-1896.73
-1963.36
-1450.88
-1325.53
-1792.08
-1642.07
-1100.18
-879.567
-1158.89
-981.026
-1120.64
-1101.45
-958.171
8484.14
27334.3
6775.8
28577.3
5031.27
29348
7829.05
44546.1
9595.9
61056.5
9596.07
44877.5
9318.65
37466.5
9710.73
32910.7
5869.94
3741.52
15778.4
9473.03
5674.94
3077.85
16940.7
8393.99
6554.94
4923.53
20649.4
14988
4969.46
3761.6
20715
15483.9
11767.5
5024.07
10247.3
4641.95
4855.41
11178.3
39296.4
10500.5
14108.6
4524.42
49886.9
13317.9
12912.8
4147.97
28513
8750.45
14641.4
4955.28
25187.4
7932.44
8338.82
4135
11045.4
4400.86
9129.87
4909.81
10920.4
4297.37
11238.9
6476.08
9391.14
4196.5
13381.6
4901.52
4538.12
1611.76
15210.9
10783.4
9145.72
6766.11
15937.9
13132.2
8563.75
7344.89
9079.62
6356.52
13371.2
9311.68
5822.96
4289.31
2693.38
2206.94
5324.04
4551.48
2451.41
2394.82
5850.54
3929.83
2779.76
1783.25
8411.96
4674.95
6543.04
7746.34
11937.8
8577.79
9824.71
13519.6
5375.1
2615.76
3733
4340.77
2508.81
1080.45
1486.36
1552.45
11725
20927.8
7819.23
23217.3
13572.4
20342.2
9564
24058.2
15090.6
18186.9
12067.9
23083.1
15574.9
17138.5
12978.7
12851.9
13813.1
17209.4
17389.7
18430.3
19659.2
27861.1
14042
11945.7
11172.6
12738.7
19281.3
24513.1
22118.6
28235.2
27446.2
22386.4
20905.5
27682.9
26737.8
19272.4
18977
25735.4
25573
12760.5
10279.6
13272.2
11993.5
15219.9
14313.1
17040.9
16944.3
23239.5
24398.5
11805.9
10675.1
12369.1
12808.1
13537.9
15345.6
15635.7
18498.3
20294
24474.8
10091.6
7942.12
6690.51
8252.72
12615.9
14805.2
8518.53
13115.4
6065.61
7654.2
9336.88
7771.53
1704.14
5336.38
637.659
1750.12
4203.15
8591.99
1315.12
2787.12
1075.76
4786.27
361.16
1543.47
6193.25
6188.88
7143.37
4636.05
10035
8197.86
11874.9
8505.66
1691.68
3340.84
3542.78
2133.56
1758.18
2241.98
2495.39
1880.63
17875.5
10970.1
3529.41
20067.3
11676.5
3847.81
17121
10825.4
3714.79
19622.6
11641.8
3837.63
15697.2
9951.21
3302.99
18989.2
11612
3894.35
7218.41
4274.31
1283.09
10010.3
6695.43
2298.32
12514.7
8596.82
2962.87
14865.6
9747.74
3258.63
18678.5
11820.8
4108.78
8251.95
5015.18
1721.08
9889.3
7204.35
2748.19
12238.5
9009.8
3352.33
15192.3
10710.5
3874.46
18950.4
12065.7
4324.73
271.411
2045.22
2846.1
4150.17
2420.12
2712.21
5998.61
5628.54
571.561
933.019
608.443
966.638
437.81
1304.18
808.393
1716.68
3003.68
1490.98
3903.43
2296.27
2004.86
3430.88
3327.3
398.539
6552.31
1186.76
-2543.94
-61.3703
1402.14
709.14
713.552
339.698
8988.51
3737.76
2409.16
1373.59
9118.72
3858.41
3051.96
1733.38
9038.33
4114.28
4313.07
2733.73
2932.09
1905.73
963.587
948.877
13004.5
11364.8
5966.54
6093.35
14806.4
13713.4
7176.01
7115.37
4947.6
5009.39
10573.1
8596.34
3330.16
3506.18
1535.68
1914.61
4212.98
4159.5
1993.12
2229.15
2647.44
2927.79
1159.72
1700.62
4108.56
2529.17
3994.6
2457.26
6641.1
3401.2
6110.24
3478.09
2237.02
1715.95
2409.82
1502.59
942.922
894.255
1400.13
789.118
10332.3
6417.3
4695.36
4305.77
10307.5
6710.61
4695.56
4295.02
10898.4
7291.16
4764.65
4240.36
14283.2
16357.9
12271.5
7645.84
3753.92
15477.3
13366.2
11576.7
8847.58
4868.16
14423.3
12243.8
9172.3
6507.36
3477.64
4754.81
3741.6
4059.09
4113.32
5135.98
3874.48
4197.63
4172.56
5766.13
4248.1
4404.58
4306.32
11628.8
8313.25
10007.5
6866.83
7251.03
5600.74
6153.76
4893.26
4205.86
4424.79
9703.63
8461.01
7963
6817.93
6246.11
5437.61
4922.51
4560.99
3252.96
4188.18
7086.22
4826.75
4613.87
2884.63
9868.68
7594.33
6702.56
5489.66
3471.27
2109.84
5132.05
3699.61
4444.01
2131.21
1405.35
775.727
4999.05
3665.41
1505.17
1263.13
3590.93
1574.88
1228.05
604.031
2526.18
2173.08
1843.83
2546.33
3599.75
3147.18
2365.89
3225.76
2577.97
1528.83
1347.2
1741.14
627.344
263.746
-66.2759
202.482
2453.18
1033.83
304.908
2626.7
716.583
192.593
2618.57
1171.28
359.407
2697.98
768.443
216.804
2723.77
1294.65
350.468
2786.9
828.879
205.016
5369.79
2947.59
787.669
4227.74
2171.14
586.316
3576.91
1780.28
511.741
3066.32
1459.55
353.54
2893.4
857.02
155.814
6442.32
3458.65
1042.41
5120.79
2619.02
769.413
4117.72
2065.1
617.232
3392.17
1512.4
402.622
3156.48
826.117
211.105
1317.21
436.57
105.635
-42.0849
544.912
187.312
53.919
-3.06304
1384.09
470.237
131.421
-14.5827
680.165
248.215
110.937
46.7163
1460.02
507.748
179.178
33.5603
1099.25
435.967
133.619
22.428
747.354
348.94
66.2319
-29.5124
582.458
324.928
139.354
63.2429
1132.78
437.538
109.22
-62.1056
930.988
352.591
136.123
-49.0098
1390.43
487.593
156.281
-17.8748
1214.77
423.589
160.635
-77.6319
836.644
363.033
109.904
-24.1935
664.096
280.275
126.392
3.49446
527.657
271.108
125.334
60.7234
396.335
202.319
112.033
52.7326
1644.75
530.968
124.327
-94.0792
1556.36
484.654
169.724
-123.018
1634.95
532.327
130.782
-90.2626
1507.65
468.893
170.708
-120.32
1592.6
524.336
169.407
-49.0945
1414.7
440.385
190.463
-88.7394
1379.91
470.654
201.163
34.3904
1546.22
484.08
248.103
-99.3746
1197.87
406.717
188.699
-11.6555
1169.87
335.648
141.633
-71.7387
451.637
120.836
39.1942
-8.57938
1220.4
355.668
149.047
-66.7377
475.251
129.633
45.4662
-2.94678
1270.44
379.395
169.362
-53.9343
497.716
140.552
52.788
2.9307
1158.34
353.99
183.94
-35.8887
493.522
144.012
66.5441
13.1613
1061.07
342.162
183.324
-10.1912
449.877
147.491
82.2815
25.5504
688.951
241.826
102.06
-4.92181
396.291
164.338
80.6713
35.5936
830.745
268.147
127.705
-11.4412
421.572
157.034
83.2516
31.7492
516.471
207.435
91.2528
11.0396
321.707
151.912
74.0096
38.5729
316.309
160.135
88.3268
43.3042
228.607
129.644
72.1559
44.805
-2.92043
1.5059
1.19754