/*--------------------------------*- C++ -*----------------------------------*\
| =========                 |                                                 |
| \\      /  F ield         | OpenFOAM: The Open Source CFD Toolbox           |
|  \\    /   O peration     | Version:  v2106                                 |
|   \\  /    A nd           | Website:  www.openfoam.com                      |
|    \\/     M anipulation  |                                                 |
\*---------------------------------------------------------------------------*/
FoamFile
{
    version     2.0;
    format      ascii;
    arch        "LSB;label=32;scalar=64";
    class       volScalarField;
    location    "1";
    object      gradTx;
}
// * * * * * * * * * * * * * * * * * * * * * * * * * * * * * * * * * * * * * //

dimensions      [0 -1 0 1 0 0 0];

internalField   nonuniform List<scalar> 
5712
(
-7702.28
-9851.39
-18085.8
-26587.7
-27214.7
-46845.4
-20725.5
-52566.8
-16740.2
-36736
-25033.5
-38177.8
-22330.7
-29514.3
-9866.21
-11344.9
-17623.7
-20240.4
-22459.8
-22314.5
-17511.4
-21451.9
-25643.9
-22941.9
-6402.4
-4952.07
-7938.51
-5465.03
-14935.6
-12220
-25275
-18627.7
-19502.2
-20390.9
-22037.5
-21511.2
-8149.61
-6176.15
-45530.1
-60977.5
-29608.8
-36306.3
-60420.9
-78569.6
-31377.7
-35956.7
-34162.3
-48254.9
-30074
-39722.1
-17812.6
-28496.4
-3556.24
-1213.28
-3718.39
-1354.39
-10696.9
-4367.27
-14493.4
-5400.39
-10593.8
-4032.12
-10916.5
-3537.04
-18413.2
-5915.47
-23730.6
-8082.6
-27576.9
-13964.5
-25319.6
-14995.8
-25341
-16416.1
-22390
-16547.4
-20411.9
-12239.8
-20505.2
-10727.9
-26203
-16522.2
-26312.4
-16624.9
-23726.4
-17396.9
-24034.6
-17404.2
-22022.3
-13950.6
-22816.8
-14258.1
-21093.5
-9381.8
-10060.8
-12567.9
-21127.9
-10320.6
-8937.4
-12944.8
-22328
-9275.46
-11274.4
-12541.6
-23460.2
-9481.86
-12196.5
-13036.4
-4588.53
-5038.81
-1577
-3249.31
-13249.6
-14043.5
-5314.15
-9857.52
-16965.1
-18586.2
-8723.96
-15036.1
-12213.9
-169.251
-14820.4
-19334.3
-11094.7
232.067
-6747.06
-13745.5
-22761.1
-17521
-11298.7
-14179.9
-13044.6
-11833
-18860.9
-4230.06
-3345.21
-2472.24
-2412.49
-11736.4
-9430.32
-7453.49
-6976.1
-14403.8
-11409.3
-9734.11
-8550.38
-5402.84
-7104.96
-11611.6
-12251.3
-15326
-13765.3
-17496.3
-14735.6
-13029.5
-10932.2
-9473.82
-9260.75
-12749.7
-9030.13
-12053.5
-7806.66
-10873.6
-6691.67
-13488
-8444.04
-10763.8
-3837.56
-9542.89
-9564.29
-13029.7
-16084.4
-14447.9
-20288.9
-7884.65
-7989.61
-9774.56
-1792.22
-8613.29
-15724.2
-8213.01
-17038.7
-14355.8
-25208.2
-14602.5
-26958.2
-6857.16
-13972.8
-6332.69
-15070.6
-9665.81
-6624.29
-13843
-5010.53
-9498.95
-556.623
-11862.7
325.923
-9439.51
-10378.5
-14560.2
-6464.24
-7960.95
-12385.2
-13041
-8566.53
-2480.17
-2066.28
-1669.19
-1816.8
-1578.12
-1305.81
-7160.52
-5287.34
-4158.63
-4861.45
-3483.55
-2743.93
-8222.66
-6416
-5616.85
-5762.48
-4146.31
-3667.61
-5770.55
-4499.58
-4165.31
-10225.9
-6739.44
-5231.02
-10339.4
-6629.7
-4847.17
-10741.8
-7496.83
-6062.24
-7676.17
-4443.25
-3142.35
-14581.9
-11248.3
-8838.28
-10015
-7417.84
-5421.82
-9612.4
-6561.26
-4506.8
-8669.07
-5500.55
-3585.29
-9869.85
-5018.08
-2399.09
-11255
-15005.6
-9104.62
-11522
-12673.1
-18264.3
-11510.8
-16334.7
-9.87449
-696.311
504.022
-154.274
-3051.17
-3297.3
-1387.53
-791.415
-973.401
-2634.79
-9869.56
-14111.9
-6626.12
-3931.47
-10856
-10795.4
-17213.8
-18980.3
480.087
4282.81
-8054.62
-7521.93
-7456.06
-5708.19
-1026.67
-533.727
-752.094
-356.972
-2038.93
-184.126
139.52
666.84
-9274.23
-2204.33
-6519.85
-1677.55
-9271.19
-2749.63
-11116.8
-3391.08
-9689.69
-12250.3
-8859.85
-11886.4
-15864.4
-16161.3
-15039.5
-15205.3
-5847.46
-9067.14
-6795.79
-9044.91
-9324.3
-11412.5
-10186.7
-11447.7
-15639.3
-14881
-16319.7
-14865
-5849.03
-8732.42
-6275.23
-8809.17
291.646
-893.834
-6546.46
-3438.28
739.021
-537.21
-6065.1
-3015.82
-117.58
-1139.18
-6654.32
-3746.77
-468.507
-1333.08
-6610.99
-3822.32
631.594
716.801
-143.767
30.6743
2678.28
2625.09
241.245
455.9
580.384
1775.38
-1283.4
-601.846
9842.99
9985.28
5149.52
3935.17
606.441
10814.7
10370.4
3860.2
5626.31
992.852
-10997.8
-8290.92
-6797.77
-5818.73
-2947.24
651.039
536.458
82.0225
39.0814
2101.67
1823.33
276.182
148.444
2142.4
2308.81
-261.978
-345.085
4917.95
1800.17
7364.02
4070.32
3043.43
2005.98
3426.14
2664.52
27.4414
-539.542
-4045.7
-2483.43
-1302.98
640.515
-973.576
541.726
-1215.45
-89.8391
-1101.83
-1141.53
-5112.06
-4438.08
-9577.85
-5657.01
-8297.03
-7894.16
-12485.7
-9810.76
-6989.99
-3925.59
-3463.33
-3225.55
-11262.8
-4909.1
-12324.1
-5475.67
-13899.5
-10042.8
-14786.6
-10809.2
-8504.02
-3195.65
-9470.99
-3684.16
-4837.94
-3451.57
-2918.47
-4147.26
-2999.83
-3105.72
-2436.22
-3822.91
-5619.32
-3345.93
-3300.94
-4768.78
-6904.74
-3614.84
-4369.16
-4885.97
460.782
436.442
467.915
42.907
154.108
163.798
1679.04
1601.31
1523.57
192.248
443.852
424.721
2230.78
2203.71
2122.57
-229.193
443.281
558.353
740.975
610.575
327.653
2475.71
2394.6
2123.11
1910.67
2013.32
1904.02
2391.91
2315.25
2143.21
-660.542
196.153
253.137
-3546.27
-1994.75
-1097.38
335.034
1070.96
1433.23
409.164
1246.31
1573.79
194.397
1031.15
1243.38
-1246.77
251.072
416.296
14.7935
15.2796
15.1188
22.1843
180.133
82.0353
57.171
44.3143
-4.49953
24.1133
71.976
93.6717
278.678
139.803
145.929
124.947
-174.859
-15.5116
105.354
175.059
57.6559
86.5086
107.858
105.71
-29.7618
42.533
36.178
32.4888
-187.313
-31.9659
40.6573
64.6097
-698.211
-170.245
-13.3103
70.8976
-1013.17
-249.589
-68.4387
141.228
-469.895
-89.3009
42.2058
139.743
-825.398
-192.177
-74.2243
115.408
-746.132
-192.624
10.3718
109.96
-1135.69
-291.837
-73.7954
171.305
-812.231
-229.503
14.1219
140.315
-1214.48
-325.245
-85.3863
177.65
8.42531
8.99979
14.5797
29.6603
35.2977
18.2435
6.25506
26.2926
60.4656
36.9984
54.1164
85.5368
140.111
64.3015
25.5962
73.0997
-272.411
-56.4078
40.6371
137.276
-98.6448
3.88071
20.507
126.161
-30.5448
52.7872
84.2586
146.476
20.9349
49.9275
14.2638
126.117
-694.814
-150.026
-51.4094
170.592
64.433
27.7008
13.7643
22.4388
112.279
41.8554
17.6156
11.9323
137.946
65.2363
24.9422
54.747
291.364
111.581
42.5964
29.7886
100.069
69.9574
29.8613
87.6611
382.175
156.811
63.0602
45.7719
-21.8526
59.0952
34.8507
122.312
327.799
167.955
71.7601
55.8483
-324.612
-6.26593
-14.7673
105.443
141.783
140.127
57.7382
52.9791
-790.194
-111.952
-40.6088
114.779
-237.595
15.7864
20.9144
40.286
-589.73
-49.4636
-30.4286
105.904
-106.856
71.3415
40.4183
48.5416
-960.255
-176.012
-57.8918
124.602
-342.41
-31.4414
6.61344
35.5579
-1076.35
-230.62
-77.3663
120.379
-425.294
-73.619
-9.27677
29.1425
9.74885
3.63062
1.48971
0.680292
0.394622
12.9339
5.37845
2.35562
1.10993
0.653034
23.2788
8.33918
3.39477
1.55064
0.901041
28.2232
11.7252
5.15723
2.44309
1.44379
30.759
10.3774
4.16631
1.9006
1.10572
36.9097
15.2711
6.72882
3.19813
1.8948
18.3713
7.56954
3.34021
1.59614
0.950336
13.4868
4.55791
1.82178
0.83772
0.49275
29.2159
10.2436
4.20225
1.94347
1.14039
13.9591
4.26394
1.65272
0.749424
0.437214
31.7382
11.8834
5.07936
2.3869
1.40739
13.5204
4.29558
1.71024
0.781655
0.456329
22.4329
6.74299
2.56281
1.15189
0.670362
13.1839
3.74181
1.41357
0.638044
0.372836
20.3274
4.65595
1.43229
0.576619
0.321313
11.2468
2.24433
0.635534
0.246257
0.135458
8.29949
2.84521
1.13081
0.508619
0.292718
6.26917
2.29496
0.94563
0.431142
0.249143
20.5747
7.04854
2.84767
1.29641
0.751374
16.3608
5.96582
2.4863
1.14397
0.664865
28.4162
8.6968
3.38792
1.52693
0.883429
22.0926
8.08996
3.42002
1.58943
0.928712
25.4021
9.38976
4.03179
1.89442
1.11511
15.0871
6.03393
2.63908
1.24415
0.731254
12.8772
5.04033
2.21483
1.04977
0.620405
-135.415
-345.062
-166.992
-799.606
151.862
-912.933
958.975
-497.374
1709.6
716.557
-394.312
-1071.02
1177.49
1044.67
-1136.14
-2010.56
-1611.12
-2410.89
-885.775
-212.568
-49.3356
-11.3434
-3.05338
-224.765
-124.863
-17.321
-5.01912
-2.37996
-2718.01
-648.407
-151.026
-34.5681
-9.32484
-514.217
-157.435
-41.6489
-9.37865
-2.82381
-4527.5
-1082.34
-253.018
-58.1786
-15.6881
-855.634
-276.634
-71.9062
-17.9021
-4.94743
-5989.27
-1436.93
-337.836
-78.0831
-21.1432
-1007.1
-351.905
-94.1131
-23.6186
-6.50503
-7355.67
-1784
-423.174
-98.5529
-26.8967
-1137.48
-435.262
-119.198
-30.1953
-8.40667
-8457.74
-2117.62
-511.088
-120.626
-33.3042
-1978.02
-634.54
-163.766
-39.8007
-10.928
-7973.1
-1989.34
-477.305
-111.93
-30.7036
-1441.72
-522.522
-140.393
-34.9745
-9.63502
-8654.46
-2169.53
-525.082
-124.319
-34.4549
-2299.5
-706.189
-178.845
-42.7649
-11.6954
-8989.67
-2234.47
-541.744
-128.311
-35.5859
-2413.44
-740.667
-188.787
-42.0868
-12.1194
-667.93
-8011.7
-7317.48
-2608.25
1758.88
2977.24
8239.3
12131
1638.47
8794.52
-2346.48
2266.09
2422.27
5162.63
10078.8
14428.2
15266.5
19293.2
6238.75
8112.69
-19898
-14001.5
-3337.63
-2256.23
-1579.67
-2148.84
-2259.33
-11744.7
-10034.2
-8888.37
-8701.49
-6555.07
-4796.18
-6718.55
-3926.33
-3321.73
-3844.39
-2629.9
-19228.6
-9161.63
-2698.51
-4779.12
-7186.98
-4757.82
-4874.99
-3489.44
-1900.54
-2637.79
-3074.86
-3373.58
-19434.6
-12258.5
-11452.2
-7981.12
-7476.01
-8276.06
-2899.18
-3579.08
-5158.58
-13341.9
-10730.1
-8186.45
-6664.7
-4980.32
-8809.91
-5805.99
-4165.97
-2865.66
-1315.07
-2891.96
-2343.44
-1713.24
-1045.07
-352.92
-1987.89
-1636.74
-1210.19
-741.179
-249.686
-1385.02
-1133.09
-831.831
-506.271
-169.887
-1900.2
-1569.56
-1162.58
-712.028
-239.614
-1976.14
-1613.64
-1183.95
-721.204
-242.363
-7159.95
-5096.71
-3625.01
-2933.95
-2737.67
-5195.79
-3550.21
-2296.93
-1710.12
-1097.29
-5477.19
-3274.85
-2156.17
-1372.93
-600.01
-4342.58
-2776.09
-1721.97
-1130.7
-602.121
-2997.93
-1801.25
-1059.26
-662.579
-296.903
-3716.17
-2704.87
-1812.63
-1051.22
-353.474
-4535.87
-2910.96
-1861.22
-1074.04
-382.46
-2548.26
-1531.69
-911.779
-486.695
-160.192
-2686.55
-2026.56
-1390.69
-812.502
-269.861
-3012.45
-2200.86
-1465.4
-835.428
-273.524
-2153.19
-1640.94
-1132.52
-661.39
-218.304
-12116.5
-8649.01
-6371.69
-4975.57
-4085.87
-6541.4
-4579.8
-3176.78
-2009.63
-834.184
-2198.63
-1676.25
-1166.01
-691.787
-233.783
-3953.77
-3068.82
-2174.95
-1312.45
-450.055
-5730.7
-4344.66
-3060.52
-1877.53
-679.84
-3949.53
-3083.76
-2203.73
-1342.16
-463.685
-4118.41
-3265.27
-2356.14
-1436.68
-491.532
-2975.13
-2371.42
-1710.69
-1036.24
-350.075
-1612.13
-1272.89
-905.526
-539.667
-179.599
-2286.8
-1848.98
-1344.27
-813.623
-272.693
-2566.8
-1998.15
-1408.78
-838.235
-280.504
-2865.42
-2272.9
-1630.65
-982.754
-330.917
-12795.2
-9868.24
-7498.18
-5875.13
-4408.38
-8221.9
-5652.86
-4051.71
-2728.11
-1252.91
-8098.66
-6101.41
-4312.54
-2892.85
-1281.34
-6078.64
-4432.26
-3151.78
-2004.95
-769.383
-6056.57
-4667.84
-3333.46
-2062.83
-743.525
-6254.48
-4535.11
-3207.05
-2031.07
-769.217
-2426.64
-1903.26
-1359.56
-823.352
-281.017
-3100.5
-2507.6
-1826.59
-1109.1
-372.865
-4339.49
-3421.05
-2454.29
-1489.38
-507.629
-6652.34
-13664.3
-13982.1
-38835.4
-13537.4
-51080.9
-7481.88
-18256
-13563
-10402.6
-22917.2
-18972
-13242.4
-12163.4
-25297.5
-19698.3
-4943.97
-3717.95
-9707.63
-6773.92
-11051.3
-8369.89
-30065.2
-22494.8
-18021
-13452.9
-18683.7
-11059.3
-1307.9
-4547.65
-47721.1
-61924.1
-28688.2
-36195.3
-62150.7
-79331.4
-30312.1
-35711.8
-35958
-49194.3
-29267.1
-39748.6
-19890.2
-29524.4
-2437.82
-654.815
-4325.5
-1485.75
-8287.5
-3775.78
-16896.6
-6156.08
-3622.07
-2103.56
-8991.86
-2862.69
-18558.1
-5881.12
-24018.2
-8164.03
-18542.3
-9868.47
-21828.4
-12942
-16342.5
-11875.3
-18849.7
-14393.2
-17960
-10595.5
-14076
-7550.08
-24889.8
-15614.5
-25994.4
-16380.1
-22323.9
-16459.3
-23660.2
-17151.5
-21172.4
-13210.9
-22630.4
-14056.8
-20061.8
-9097.99
-8989.57
-12198
-17892
-9380.27
-6901
-12197.7
-22151.1
-9240.52
-10792.5
-12378.9
-23480.5
-9495.7
-12067.7
-12993.6
-1400.55
-1312.8
-369.175
-1691.25
-5696.68
-6034.44
-3713.51
-7649.53
-3482.78
-4318.94
-5955.57
-11381.8
-12622.2
-9343.12
-10602.5
-13745
-9630.54
-7143.98
-8145.98
-8230.45
-16048.5
-15308.3
-12937.1
-11501.9
-8598.58
-7802.11
-16943.2
-1440.14
-1069.39
-844.738
-951.275
-5359.93
-4178.1
-4710.42
-4159.84
-1090.74
265.526
-5656.75
-4463.39
-9852.11
-10452.5
-9348.8
-8650.87
-7867.48
-5711.18
-10548.8
-8292.91
-10462.7
-8169.32
-11853.1
-11466
-10559.9
-7529.16
-8211.24
-4985.56
-7655.34
-4377.15
-12161
-7092.88
-9597.59
-4319.93
-8728.46
-9447.11
-13196.2
-17029.4
-14023.9
-20202.6
-7036.21
-7833.31
-8313.48
-2124.22
-8206.56
-15549.3
-8091.02
-16967.9
-14035.3
-25165.5
-14492.5
-26896.8
-6454.93
-13824.8
-6216.28
-15016.2
-9130.77
-6609.48
-13728.4
-5154.42
-8520.95
-1134.36
-11763.9
-680.321
-9193.28
-10313.5
-14507.6
-6485.44
-7883.13
-12357.7
-13022.4
-8565.93
-1016.41
-933.926
-759.978
-870.253
-3165.79
-2336.44
-3005.27
-2746.13
884.451
253.326
-3497.48
-3779.97
-10185.4
-9316.06
-7806.23
-6383.4
-4566.94
-3653.17
-6552.88
-5287.21
-6886.89
-4938.84
-17541.1
-14574.8
-8176.82
-6349.82
-6736.53
-4548.93
-5967.93
-3344.46
-6824.39
-2521.07
-5679.61
-9305.81
-4857.37
-9666.37
-9046.7
-11051.3
-10288.3
-13978.4
-907.391
-576.567
-563.238
-421.441
-3477.33
-2243.35
-2638.55
-1166.29
-916.003
-1378.81
-8168.89
-8646.81
-4193.12
-3624.48
-9832.17
-10472.8
-15975
-18596.4
656.314
4290.96
-7249.43
-7255.09
-6985.18
-5581.87
-905.116
-773.095
-942.317
-741.315
-1411.07
-754.437
-219.512
-100.997
-7464.23
-2983.64
-6315.67
-2430.22
-8953.25
-3149.77
-10973
-3537.54
-5309.87
-10158.4
-7148.66
-10709.7
-9117.53
-12285.4
-12323.8
-13361.9
-4962.92
-8564.06
-4353.75
-8458.17
-8507.25
-10868.8
-9932.13
-11295.1
-14440.8
-14073.5
-15968.9
-14644.4
-5423.27
-8477.47
-6136.03
-8735.9
131.934
-1306.49
-6638.67
-3776.85
163.037
-1322.39
-6527.77
-3586.46
-213.208
-1411.41
-6673.22
-3937.32
-500.687
-1437.86
-6611.47
-3885
-898.642
-952.321
-786.739
-798.031
-1701.14
-1684.51
-959.066
-967.427
-7480.85
-6645.19
-2903.9
-2760.56
-3154.38
-4534.64
-3479.66
359.29
-934.193
-645.595
-969.273
-3445.23
2714.36
-155.719
-14570.9
-11684.8
-9727.73
-7684.75
-4017.49
-924.025
-785.036
-855.92
-982.869
-1627.5
-1247.43
-1221.15
-1571.34
-6636.86
-6207.29
-2960.76
-3614.71
-4579.77
-6277.27
-2634.17
-4520.72
-4222.87
-4501.12
-569.04
-975.383
-1624.25
-2484.53
-9496.8
-7451.75
-7039.08
-4911.3
-5606.82
-3831.86
-4386.05
-2977.21
-2547.68
-2644.92
-7487.43
-7166.48
-10297.7
-6516.15
-10064.1
-10419.7
-12744
-10507.6
-7934.6
-4730.25
-5672.56
-5476.29
-11427
-5373.28
-12342.1
-5569.83
-13807.7
-10402.8
-14729.7
-10861.6
-8851.07
-3650.19
-9550.88
-3790.93
-5727.52
-4123.55
-3657.66
-4829.84
-4768.23
-4787.3
-3605.15
-5053.97
-6029.96
-3752.77
-3690.09
-5174.82
-7020.55
-3731.58
-4488.08
-4995.56
-589.23
-516.292
-703.102
-553.32
-1100.29
-1316.69
-998.953
-815.261
-5834.74
-5089.48
-2341.97
-1092.2
-7261.7
-6649.32
-5417.96
-4686.44
-4239.4
-3586.37
-1350.08
-1427.54
-2358.76
-1145.26
-8026.61
-6568.04
-4342.62
-3427.75
-3158.55
-2177.28
-2062.26
-1129.07
-2407.99
-93.4707
-128.044
-52.476
-18.0214
6.15224
-83.6437
-48.4292
-5.37276
13.6671
-355.73
-141.377
1.50344
63.4831
-249.327
-129.595
20.9399
63.8585
-619.561
-223.326
22.0856
147.782
-539.844
-229.371
-54.7171
16.8761
-389.937
-156.952
-69.9379
-21.4659
-338.405
-119.713
-6.29808
40.0213
-995.727
-324.471
-97.4333
21.8769
-1193.18
-332.426
-108.886
133.026
-925.046
-297.086
-58.1473
86.993
-1070.76
-293.993
-121.335
111.619
-953.253
-306.803
-48.4736
82.3148
-1251.67
-349.264
-104.48
161.338
-894.819
-276.748
-10.5066
128.456
-1255.77
-346.628
-96.9859
173.916
-125.438
-46.1415
-8.44734
21.7541
-106.812
-34.2633
-17.433
19.0121
-319.242
-117.744
-8.28746
62.1821
-263.196
-86.698
-41.1794
51.2338
-680.361
-221.254
-23.0152
121.245
-606.905
-185.653
-62.3198
104.257
-722.141
-232.839
-36.3484
100.239
-547.054
-164.853
-73.2148
115.552
-1065.57
-287.589
-109.744
178.596
-76.8785
-24.3904
-6.91889
14.4612
-33.5274
-14.1687
-4.29687
1.0845
-233.497
-71.7923
-33.6557
30.9196
-110.669
-42.8355
-19.5857
-0.776307
-422.732
-123.22
-53.7084
54.4506
-226.661
-77.2613
-30.2361
0.396124
-647.807
-179.255
-67.0008
85.6336
-400.72
-117.261
-40.8989
1.91447
-863.26
-222.738
-117.324
60.8741
-539.131
-143.252
-60.8554
-6.64818
-1157.7
-294.467
-132.037
73.6551
-547.584
-143.205
-55.9339
-1.01266
-1103.57
-280.949
-142.186
56.2948
-596.623
-153.996
-61.157
-5.38458
-1169.26
-286.768
-115.249
99.2893
-507.572
-124.308
-39.6455
11.4279
-1142.06
-266.818
-96.463
111.898
-473.922
-102.417
-23.9726
21.4713
0.463571
-1.25557
-0.900405
-0.51212
-0.329109
-3.78345
-2.97388
-1.67076
-0.891583
-0.561029
1.75381
-2.94067
-2.11158
-1.19554
-0.766003
-8.77805
-6.8154
-3.7991
-2.01505
-1.26246
4.45626
-3.5058
-2.60807
-1.47774
-0.94538
-12.4178
-9.22287
-5.07662
-2.67655
-1.67196
-6.72776
-4.81122
-2.63074
-1.37925
-0.857779
0.740436
-1.76351
-1.23629
-0.689016
-0.435955
-0.091575
-4.3434
-2.83537
-1.55914
-0.985965
3.00721
-1.27043
-1.02625
-0.585098
-0.373082
-5.8092
-6.43436
-3.68177
-1.95989
-1.22894
1.74694
-1.55354
-1.10272
-0.615944
-0.391578
5.6642
-1.71469
-1.53881
-0.894079
-0.5726
3.72629
-0.996482
-0.876265
-0.503161
-0.32035
12.7567
0.811886
-0.438193
-0.358206
-0.247112
8.11782
0.645448
-0.142526
-0.142528
-0.100865
1.66
-0.754959
-0.631415
-0.369222
-0.239527
-0.140059
-0.879811
-0.567253
-0.315944
-0.202528
2.27973
-2.46281
-1.74949
-0.985575
-0.631045
-1.51039
-2.68622
-1.61017
-0.87582
-0.555882
7.80499
-2.3795
-1.99925
-1.15268
-0.741209
-3.60269
-4.13693
-2.34838
-1.25446
-0.790799
-5.41583
-5.31612
-2.93636
-1.55079
-0.972004
-6.15436
-3.73707
-1.93817
-1.00975
-0.631543
-5.0328
-3.25588
-1.69593
-0.882407
-0.550486
42.4335
-176.351
208.685
-424.483
490.954
-537.493
1014.52
-345.057
1420.56
451.154
-523.404
-1225.2
816.634
515.706
-1174.09
-2050.05
-1616.83
-2415.73
-838.868
-204.358
-47.8195
-11.0629
-2.99565
-197.553
-118.732
-16.7791
-4.92111
-2.33172
-2587.99
-625.092
-146.663
-33.7645
-9.15944
-461.465
-150.913
-40.8252
-9.31183
-2.81352
-4337.48
-1047.37
-246.398
-56.9513
-15.4363
-811.278
-271.127
-71.2346
-17.8115
-4.93532
-5791.75
-1398.83
-330.447
-76.692
-20.8556
-1017.61
-353.847
-94.4443
-23.6572
-6.51335
-7206.38
-1751.41
-416.453
-97.2435
-26.621
-1219.81
-446.024
-120.627
-30.3709
-8.43348
-8431.92
-2107.7
-508.459
-120.037
-33.168
-2018.87
-641.637
-164.874
-39.9617
-10.9526
-7908.32
-1969.27
-472.598
-110.951
-30.4903
-1536.1
-535.66
-142.234
-35.2226
-9.67462
-8648.21
-2165.86
-523.931
-124.038
-34.3858
-2310.96
-708.467
-179.214
-42.8206
-11.704
-8989.14
-2233.64
-541.436
-128.23
-35.5655
-2414.72
-740.956
-188.831
-42.0942
-12.1204
-533.078
-7830.04
-6779.06
-2201.68
-1637.6
-821.742
-3802.45
-2507.18
-7108.7
-6548.21
-3449.73
-2511.36
-153.632
-252.038
-462.699
-805.39
-1302.93
-1956.9
-115.844
-266.858
-586.483
-1089.12
-1768.34
-2575.28
-113.216
-51.555
-206.71
-137.421
-404.885
-324.683
-725.028
-653.556
-1127.04
-1048.46
-1627.67
-1407.36
-2656.5
-3287.57
-3919.38
-6464.07
-7771.28
-8879.5
-3390.64
-4030.52
-4308.83
-4216.63
-3873.72
-3579.65
-138.166
-116.387
-87.8636
-54.5797
-18.4995
-226.348
-190.347
-143.453
-88.9909
-30.1409
-414.829
-348.148
-261.852
-162.19
-54.8886
-720.423
-603.021
-452.392
-279.679
-94.5582
-1161.63
-968.715
-724.232
-446.65
-150.836
-1735.89
-1439.69
-1071.19
-658.601
-222.144
-104.098
-87.6027
-66.0681
-41.0085
-13.8936
-239.406
-201.08
-151.356
-93.8055
-31.7558
-525.233
-440.258
-330.74
-204.682
-69.2385
-973.028
-813.367
-609.455
-376.468
-127.233
-1574.49
-1311.17
-979.099
-603.398
-203.716
-2282.19
-1890.91
-1405.89
-864.104
-291.447
-101.877
-85.8811
-64.8819
-40.327
-13.6729
-46.404
-39.1314
-29.5733
-18.3861
-6.23467
-185.792
-156.401
-117.989
-73.2511
-24.8201
-123.583
-104.103
-78.5887
-48.8162
-16.5452
-363.388
-305.366
-229.962
-142.571
-48.2726
-291.603
-245.24
-184.829
-114.659
-38.834
-649.342
-544.289
-408.866
-253.007
-85.5795
-585.674
-491.245
-369.24
-228.579
-77.3308
-1006.21
-840.356
-629.068
-388.268
-131.162
-936.673
-782.799
-586.269
-361.933
-122.27
-1445.35
-1199.84
-893.209
-549.204
-185.208
-1250.82
-1039.1
-773.75
-475.65
-160.343
-2338.13
-1923.7
-1422.22
-871.485
-293.777
-2857.1
-2322.79
-1703.09
-1040.73
-351.532
-3334.27
-2662.21
-1931.88
-1180.89
-402.939
-5295.78
-4117.45
-2958.61
-1829.49
-648.045
-5984.57
-4491.11
-3207.76
-2042.83
-789.594
-6541.18
-4798.3
-3417.59
-2226
-915.39
-2985.35
-2457.19
-1817.4
-1113.98
-375.542
-3516.86
-2869.79
-2109.66
-1290.23
-435.348
-3710.44
-2992.85
-2184.77
-1335.17
-452.477
-3554.14
-2819
-2041.4
-1251.6
-430.04
-3140.17
-2424.88
-1740.65
-1081.24
-386.17
-2790.88
-2100.56
-1496.89
-944.402
-352
-158.666
-268.617
-495.265
-861.409
-1393
-2084.74
-122.462
-288.85
-629.606
-1160.39
-1870.53
-2699.34
-117.633
-54.8996
-221.756
-149.614
-436.108
-352.784
-782.771
-711.048
-1229.69
-1176.03
-1784.43
-1633.7
-2809.96
-3452.69
-4089.79
-6582.94
-7819.82
-8890.6
-3514.09
-4126.09
-4359.77
-4219.91
-3849.66
-3565.68
-142.743
-120.296
-90.8586
-56.4627
-19.142
-241.436
-203.245
-153.342
-95.2127
-32.265
-444.504
-373.555
-281.364
-174.483
-59.0882
-771.573
-646.925
-486.195
-301.019
-101.857
-1244.09
-1039.73
-779.09
-481.374
-162.731
-1853.58
-1541.67
-1150.47
-709.031
-239.467
-110.116
-92.7425
-70.0051
-43.4835
-14.7382
-259.423
-218.193
-164.479
-102.063
-34.5747
-564.545
-473.934
-356.616
-220.991
-74.8115
-1038.16
-869.324
-652.581
-403.715
-136.557
-1668.22
-1392.04
-1041.7
-643.09
-217.326
-2396.65
-1990.36
-1483.42
-913.537
-308.452
-105.891
-89.3062
-67.5031
-41.9737
-14.2346
-49.4412
-41.7206
-31.5529
-19.6286
-6.65831
-199.473
-168.084
-126.937
-78.8759
-26.7393
-134.661
-113.555
-85.8218
-53.3596
-18.0948
-391.813
-329.677
-248.61
-154.309
-52.2804
-317.172
-267.094
-201.582
-125.198
-42.4314
-702.019
-589.456
-443.605
-274.917
-93.0699
-638.143
-536.255
-403.875
-250.432
-84.8033
-1099.99
-920.905
-691.13
-427.467
-144.572
-1053
-882.48
-662.892
-410.24
-138.78
-1589.28
-1324.16
-989.54
-610.319
-206.168
-1457.48
-1216.44
-910.259
-561.808
-189.807
-2480.81
-2048.71
-1520.44
-934.513
-315.544
-3013.23
-2461.99
-1814.27
-1113.04
-376.735
-3499.88
-2813.72
-2055.73
-1263.04
-432.031
-5426.16
-4248.2
-3073.99
-1911.25
-678.926
-6053.84
-4569.03
-3282.76
-2100.81
-814.164
-6562.93
-4825
-3444.84
-2248.3
-925.43
-3100.49
-2558.46
-1897.29
-1165.42
-393.336
-3608.06
-2951.96
-2175.98
-1333.72
-450.571
-3762.34
-3042.55
-2227.05
-1364.07
-462.888
-3563.75
-2833.23
-2057.05
-1264.22
-435.136
-3124.46
-2416.48
-1738.24
-1082.41
-387.557
-2780.77
-2093.89
-1493.39
-943.361
-352.113
-19847.4
-14020
-3574.83
-2488.57
-1916.55
-2517.42
-2580.51
-12491.3
-13304.5
-10406.5
-11856.4
-6252.05
-9576.43
-4596.23
-4866.07
-3403.64
-19807
-10053.5
-3352.81
-5525.69
-7858.91
-5153.84
-5325.55
-3925.86
-2307.23
-3154.51
-3899.39
-3945.71
-19313.9
-12355.7
-11937.5
-8245.6
-7818.65
-8685.73
-3394.14
-4035.63
-5651.59
-13341
-10765.7
-8246.26
-6745.27
-5053.06
-8856.06
-5858.32
-4217.78
-2908.35
-1333.25
-3117.06
-2544.78
-1874.44
-1150.07
-389.548
-2202.69
-1823.7
-1356.1
-834.291
-281.735
-1695.31
-1401.99
-1040.79
-639.161
-215.539
-2238.09
-1860.9
-1387.91
-854.803
-288.554
-2274.84
-1875.16
-1389.05
-852.517
-287.634
-8573.08
-6635.31
-5011.21
-4016.78
-3445.18
-9312.64
-7504.84
-5646.95
-4144.69
-2231.68
-7256.04
-4950.94
-3530.48
-2289.53
-920.618
-8349.85
-6493.49
-4785.09
-3269.14
-1461.22
-5156.28
-4016.28
-2868.88
-1739.18
-593.004
-7315.72
-5316.73
-3739.73
-2279.38
-802.74
-3899.03
-3101.59
-2239.58
-1358.85
-459.163
-4110.11
-3257.31
-2346.01
-1422.04
-480.695
-2918.07
-2341.25
-1698.74
-1031.28
-347.346
-13161.2
-9833.75
-7489.35
-5874.85
-4652.15
-7540.72
-5554.44
-4002.51
-2576.27
-1050.04
-2832.94
-2249.61
-1626.42
-991.621
-338.425
-4680.9
-3731.35
-2711.72
-1665.06
-574.228
-6433.59
-5018.62
-3628.14
-2263.07
-821.236
-4344.62
-3451.85
-2507.96
-1545.45
-536.319
-4552.51
-3658.66
-2674.57
-1646.1
-565.299
-3391.7
-2745.46
-2010.63
-1231.68
-418.286
-2004.88
-1628.75
-1192.44
-726.961
-244.885
-2768.42
-2271.57
-1676.41
-1026.7
-346.279
-3349.58
-2694.58
-1961.41
-1195.11
-404.311
-3409.97
-2759.95
-2019.52
-1235.15
-418.757
-12848.7
-10023.7
-7713.22
-6114.98
-4636.35
-8385.61
-5830.52
-4220.57
-2860.65
-1310.29
-8768.37
-6789.05
-4939.02
-3360.26
-1482.34
-6385.52
-4745.92
-3430.28
-2204.56
-844.91
-6423.8
-5028.88
-3645.13
-2279.5
-824.664
-6721.15
-4994.92
-3609.21
-2315.11
-878.136
-2898.57
-2326.14
-1697.99
-1043.69
-358.025
-3529.03
-2886.41
-2126.36
-1302.4
-439.816
-4820.58
-3861.6
-2813.48
-1726.62
-591.344
-335.745
-980.83
-1614.99
-2262.25
-2911.5
-3541.9
-3065.98
-8161.07
-7561.03
-2925.23
-10233.4
-8707.31
-9942.74
-10939.6
-2827.08
-1812.84
-6597.22
-3631.86
-12076.3
-8936.61
477.59
-2457.29
-6709.69
-6100.19
-2315.91
-8557.64
-6923.32
-8169.5
-9054.96
-2335.95
-1014.45
-5709.01
-1740.35
-9690.19
-5310.87
2227.01
-1746.4
-4952.08
-4450.46
-1635.33
-6548.28
-3842.49
-6368.02
-6828.62
-1725.02
-936.412
-3949.87
-1869.87
-7412.42
-1718.82
2389.35
-1227.29
-3673.68
-3324.41
-1180.13
-4765.98
-2038.59
-5025.47
-5678.91
-1253.75
-1003.75
-2817.94
-1941.39
-6251.15
-31.4905
1800.62
-945.354
-2985.08
-2721.53
-943.749
-3609.89
-1560.94
-4303.13
-5327.05
-950.264
-1122.88
-1920.92
-1901.58
-5306.86
169.302
327.592
-803.264
-2550.28
-2408.41
-821.537
-3224.86
-1894.09
-3842.75
-4991.96
-698.819
-883.915
-1478.6
-1834.01
-5243.71
-917.308
-563.93
-1408.1
-3417.77
-5340.14
-2081.52
-5478.84
-9630.97
-7704.63
-11011.7
-931.261
-574.394
-3694.65
-1994.8
-919.312
-8787.15
-4225.92
-1293.23
-3143.21
-4612.84
-1779.58
-4982.03
-8543.86
-6821.61
-9153.51
-940.427
-469.106
-3779.92
-1796.5
-85.5426
-8423.01
-2905.28
-1104.33
-2691.24
-3648.69
-1381.43
-4407.98
-7305.73
-5609.87
-7704.03
-802.81
-534.276
-3096.61
-1823.3
-323.584
-6422.94
-2638.69
-910.11
-2329.42
-2876.53
-1065.1
-3942.48
-6286.42
-4773.72
-6666.74
-698.586
-526.406
-2724.41
-1831.75
-225.803
-5670.35
-2543.75
-786.969
-2019.82
-2439.78
-888.134
-3418.49
-5520.6
-4180.04
-6122.62
-623.994
-578.133
-2353.57
-1959.85
-411.133
-5232.73
-2574.44
-707.39
-1740.53
-2189.42
-788.749
-3064.77
-5372.66
-3757.43
-5798.32
-631.555
-677.57
-2032.24
-1857.75
-687.048
-5331.05
-2905.56
7004.05
8849.1
18127.6
26677.3
27249.6
46828
20735.4
52569.9
16755
36742.3
25084.7
38180.3
22350.5
29611.5
8479.03
9670.56
17638
20243.6
22454
22311.6
17513.5
21449.7
25640.9
22938.7
5905.23
4606.81
7223.28
4988.04
14937.8
12189.6
25334.6
18657.4
19474.6
20395.5
22027.9
21511.8
8147.39
6150.72
45536.4
60985.6
29609.5
36308.6
60428.5
78578.6
31377.6
35957.9
34167.2
48262
30073.4
39725.4
17819.6
28502.9
3352.66
1163.77
3415.76
1258.17
10663.4
4350.24
14501.4
5402.36
10587
4028.12
10901.2
3531
18414.2
5915.48
23734.1
8083.75
27576.4
13963.4
25317.7
14994.3
25338
16413.6
22387.2
16545.2
20408.9
12238.4
20504.2
10726.6
26202.4
16521.1
26312.4
16624
23724.8
17395.2
24033.6
17402.8
22021.8
13949.8
22817.3
14257.4
21089
9380.3
10059.3
12567.7
21124.5
10319.1
8935.65
12944.4
22327.8
9275.48
11273.7
12541.8
23461.7
9482.48
12196.2
13036.7
4314.8
4684.14
1515.83
3053.76
13186.9
13991.6
5283.43
9811.88
16954.7
18575
8718.98
15027.5
12213.8
170.129
14819.2
19330.1
11092.7
-231.1
6747.21
13744.6
22756.1
17517.9
11297.2
14178.7
13043
11830.4
18860
3846.92
3007.55
2216.65
2196.32
11778.8
9467.62
7533.49
7027.28
14394.8
11406.3
9730.28
8549.25
5402.96
7104.81
11611.3
12250.8
15324.5
13764.1
17491.8
14733.3
13028
10932
9473.05
9260.34
12748.9
9029.76
12052.2
7806.06
10871.8
6690.89
13487.6
8444.15
10763.1
3837.38
9541.88
9563.93
13028.4
16083.6
14446.4
20287.9
7883.88
7989.47
9773.76
1792.09
8612.37
15723.9
8212.12
17038.4
14354.4
25207.2
14601.3
26957.1
6856.54
13972.8
6332.11
15070.7
9665.46
6624.34
13843.4
5010.76
9498.24
556.574
11863
-325.67
9439.4
10378.7
14560.8
6464.5
7960.81
12385.5
13041.5
8566.86
2183.96
1840.95
1514.99
1649.11
1446.79
1212.83
7206.23
5306.09
4161.43
4906.27
3503.46
2747.81
8223.66
6417.79
5618.15
5763.51
4149.03
3670.11
5770.51
4499.71
4165.49
10225.7
6739.64
5231.31
10339
6629.99
4847.62
10741.6
7497.82
6063.33
7676.56
4444.47
3143.69
14581.5
11248.4
8838.58
10014.8
7417.87
5422.03
9612.18
6561.36
4507.1
8668.91
5500.79
3585.71
9869.95
5018.38
2399.54
11227.3
14988.1
9074.28
11506.7
12660.2
18254.5
11495.2
16325.9
55.0662
605.953
-416.252
110.156
3049.34
3370.47
1386.33
869.921
946.402
2607.8
9852.07
14090.4
6608.37
3917.64
10848.3
10792
17209.2
18978.3
-486.368
-4284.81
8044.54
7517.2
7450.22
5705.94
899.444
485.397
645.238
315.343
2092.36
195.002
-81.2444
-651.745
9262.81
2202.95
6512.65
1677.52
9263.97
2747.93
11113
3389.88
9679.08
12244.8
8851.47
11881.9
15857
16157
15033.8
15201.8
5839.89
9063.04
6786.55
9040.03
9319.16
11409.4
10183.8
11445.5
15635.6
14878.5
16317.5
14863.1
5844.29
8729.46
6272.69
8807.15
-295.642
893.292
6543.53
3437.17
-743.538
536.579
6061.92
3014.74
114.506
1138.41
6652
3745.74
466.855
1332.53
6609.37
3821.51
-599.824
-675.389
130.801
-34.1347
-2654.36
-2601.99
-236.898
-447.2
-579.035
-1773.83
1283.2
601.93
-9842.86
-9984.35
-5149.77
-3935.29
-606.39
-10813.4
-10369
-3860.08
-5624.94
-992.527
10995.6
8287.59
6794.49
5816.13
2946.25
-621.196
-508.523
-91.707
-49.9784
-2079.82
-1806.71
-260.53
-135.195
-2140.81
-2306.87
262.095
345.029
-4917.69
-1800.18
-7363.67
-4070.24
-3043.69
-2006.04
-3425.53
-2663.79
-27.4866
539.37
4044.64
2483.01
1301.5
-640.942
972.29
-542.042
1214.63
89.6758
1101.4
1141.19
5109.72
4436.95
9575.36
5655.71
8295.12
7893.11
12483.5
9809.51
6987.73
3924.45
3461.29
3224.53
11260.8
4907.95
12322.5
5474.7
13897.7
10041.6
14785.1
10808.2
8502.12
3194.67
9469.47
3683.35
4836.29
3450.62
2917.54
4146.36
2998.32
3104.84
2435.38
3822.05
5617.9
3345.04
3300.07
4767.85
6903.52
3614.08
4368.34
4885.15
-438.584
-407.327
-435.596
-53.6951
-151.831
-158.883
-1663.89
-1593.29
-1518.27
-178.982
-436.992
-420.233
-2228.94
-2202.23
-2121.56
228.711
-442.999
-558.15
-740.952
-610.49
-327.574
-2475.69
-2394.47
-2122.98
-1910.53
-2013.08
-1903.81
-2391.17
-2314.51
-2142.61
660.224
-196.116
-253.044
3545.97
1994.75
1097.49
-335.229
-1070.89
-1433.08
-409.272
-1246.16
-1573.59
-194.383
-1030.92
-1243.13
1246.43
-251.081
-416.245
-11.6584
-13.1146
-13.2966
-19.8019
-167.741
-76.0303
-53.0887
-40.9316
5.05829
-23.8977
-72.0827
-94.023
-274.988
-138.525
-144.997
-124.351