/*--------------------------------*- C++ -*----------------------------------*\
| =========                 |                                                 |
| \\      /  F ield         | OpenFOAM: The Open Source CFD Toolbox           |
|  \\    /   O peration     | Version:  v2106                                 |
|   \\  /    A nd           | Website:  www.openfoam.com                      |
|    \\/     M anipulation  |                                                 |
\*---------------------------------------------------------------------------*/
FoamFile
{
    version     2.0;
    format      ascii;
    arch        "LSB;label=32;scalar=64";
    class       volScalarField;
    location    "1";
    object      T;
}
// * * * * * * * * * * * * * * * * * * * * * * * * * * * * * * * * * * * * * //

dimensions      [0 0 0 1 0 0 0];

internalField   nonuniform List<scalar> 
5712
(
533.128
552.082
521.112
543.998
504.079
533.04
475.406
509.324
475.254
502.055
501.002
527.441
516.778
539.806
527.226
547.816
493.683
470.242
516.829
483.106
463.18
439.131
485.928
450.158
542.039
550.281
557.214
561.821
530.061
540.251
549.922
556.496
530.775
512.644
504.63
492.483
525.563
542.591
539.063
538.662
494.928
499.629
512.822
511.625
461.325
465.003
546.768
549.283
517.423
524.503
557.166
560.421
555.635
565.891
565.437
570.082
547.378
562.529
561.376
568.422
531.017
555.301
545.55
562.571
555.91
566.697
559.893
568.14
453.123
439.39
462.191
442.792
419.713
407.778
428.643
411.094
492.433
473.849
483.467
469.947
468.468
444.396
469.987
444.128
434.626
412.733
435.986
412.49
498.585
475.702
500.233
475.651
519.795
552.37
505.331
541.927
511.09
547.105
500.486
537.483
525.725
555.315
507.689
544.225
527.572
556.376
507.961
545.215
546.025
527.294
560.616
546.955
533.898
515.411
555.573
540.298
516.219
499.562
546.945
530.965
434.62
396.528
468.823
498.055
536.487
390.023
427.501
460.749
487.675
522.898
396.374
430.957
463.211
493.236
528.787
494.019
464.822
500.112
472.147
487.814
460.627
498.529
470.551
478.621
453.456
496.379
469.056
378.243
363.325
415.869
398.562
446.852
426.817
471.842
449.097
497.033
471.772
383.411
367.318
418.691
403.921
450.634
434.045
478.87
459.305
503.841
482.056
424.797
417.305
424.287
418.179
389.492
368.936
390.271
369.689
456.53
453.608
456.996
451.599
422.187
418.016
422.108
418.36
389.762
370.396
389.777
370.698
454.156
453.531
454.161
454.065
487.321
484.167
512.963
508.907
486.387
480.258
511.233
503.838
486.4
484.938
513.514
510.735
485.079
484.331
512.383
509.862
433.692
410.004
397.79
437.24
411.756
399.102
431.573
407.51
394.804
436.145
409.879
396.578
425.151
401.091
388.275
434.852
406.798
392.517
346.966
334.671
328.353
378.058
360.053
350.232
402.842
380.193
367.599
421.013
395.401
381.655
436.017
404.932
388.748
349.57
334.732
327.03
385.036
364.795
353.322
410.451
384.78
369.931
429.379
398.453
381.11
441.658
406.267
387.172
391.293
381.656
397.298
387.63
425.116
407.975
436.933
416.365
366.161
343.276
367.335
345.058
367.552
346.082
369.333
347.888
368.748
364.934
367.956
362.561
349.507
352.788
391.792
394.32
422.31
425.059
371.795
375.778
371.619
373.858
355.505
358.138
321.743
304.644
326.59
307.441
324.251
305.173
328.91
308.261
328.288
305.951
334.687
309.995
338.056
312.482
339.277
313.734
363.285
353.404
370.919
356.884
389.334
378.147
397.48
381.663
350.021
336.315
343.065
333.117
375.092
358.689
376.571
358.998
402.316
383.436
403.714
383.452
353.732
338.063
355.205
338.531
330.361
307.7
320.081
303.21
324.365
304.523
317.353
301.422
333.822
309.991
321.624
304.292
335.427
311.411
322.148
304.782
306.623
297.345
299.108
293.493
308.73
299.684
299.471
294.187
312.795
304.866
300.429
296.062
343.658
366.026
327.436
315.532
300.526
360.556
338.87
321.224
310.309
297.678
365.767
343.496
326.18
313.005
299.175
290.602
285.198
288.632
284.081
292.939
287.155
289.688
285.1
297.693
291.232
291.791
287.033
349.422
336.468
328.947
317.772
314.088
305.313
303.987
296.603
294.31
289.325
353.391
338.011
332.746
319.533
317.767
307.277
306.491
297.87
295.907
290.33
337.261
320.133
340.533
322.514
359.084
338.74
362.067
340.456
323.826
309.873
320.97
307.663
343.093
323.952
343.59
324.423
363.963
341.356
364.264
341.745
326.251
311.345
326.752
311.763
309.723
299.057
297.436
290.513
308.211
297.497
296.751
289.91
310.96
300.143
297.857
290.786
312.157
300.7
298.566
291.444
280.16
277.731
276.774
277.527
275.662
275.028
281.982
279.148
278.01
278.401
276.368
275.614
285.534
282.082
280.626
279.838
277.329
276.369
323.587
314.603
310.205
307.677
301.174
298.173
297.339
292.247
290.063
289.551
285.1
283.153
281.014
277.916
276.705
323.299
312.425
307.374
307.753
299.468
295.78
297.729
291.234
288.457
289.448
284.407
282.401
280.627
277.573
276.405
291.458
283.572
279.193
276.667
292.586
283.958
279.294
276.66
291.519
283.614
279.233
276.7
292.95
284.12
279.405
276.739
291.488
283.637
279.362
276.826
293.21
284.261
279.591
276.884
294.154
284.669
279.627
276.834
294.83
285.03
279.749
276.876
292.466
284.089
279.58
276.926
291.075
283.744
279.544
277.067
291.164
283.593
279.465
276.976
290.339
283.421
279.433
277.073
293.471
284.514
279.68
276.922
291.64
284.016
279.649
277.114
294.177
284.857
279.818
277.002
292.057
284.241
279.773
277.208
289.631
282.978
279.075
276.732
287.552
282.311
278.922
276.83
289.646
282.996
279.112
276.771
287.727
282.379
278.955
276.859
289.756
283.055
279.201
276.861
288.222
282.561
279.04
276.919
289.646
283.067
279.277
276.976
288.625
282.725
279.145
277.005
289.494
283.088
279.336
277.095
285.953
281.831
278.681
276.997
285.069
281.598
278.591
277.028
286.298
281.95
278.736
277.031
285.439
281.726
278.642
277.055
286.937
282.177
278.821
277.078
286.091
281.958
278.725
277.1
287.731
282.472
278.969
277.16
286.858
282.245
278.846
277.165
288.509
282.807
279.148
277.248
287.539
282.548
278.981
277.239
289.542
283.371
279.378
277.358
288.524
283.127
279.28
277.407
289.086
283.111
279.264
277.3
288.072
282.856
279.132
277.322
289.892
283.589
279.459
277.405
288.904
283.372
279.401
277.483
290.211
283.784
279.566
277.478
289.243
283.586
279.52
277.562
275.098
274.225
273.708
273.426
273.304
275.098
274.227
273.709
273.427
273.304
275.116
274.233
273.711
273.428
273.304
275.121
274.237
273.714
273.429
273.305
275.14
274.242
273.715
273.43
273.306
275.147
274.248
273.719
273.431
273.307
275.176
274.262
273.725
273.435
273.309
275.215
274.282
273.735
273.44
273.312
275.169
274.255
273.722
273.433
273.307
275.198
274.264
273.725
273.434
273.308
275.159
274.249
273.718
273.431
273.306
275.185
274.257
273.721
273.432
273.307
275.195
274.268
273.728
273.436
273.309
275.222
274.275
273.73
273.437
273.31
275.233
274.287
273.737
273.44
273.312
275.256
274.291
273.738
273.441
273.312
275.102
274.224
273.707
273.426
273.303
275.108
274.224
273.707
273.426
273.303
275.116
274.23
273.71
273.427
273.304
275.119
274.228
273.709
273.426
273.304
275.139
274.239
273.713
273.429
273.305
275.139
274.236
273.712
273.428
273.304
275.164
274.247
273.717
273.43
273.306
275.16
274.245
273.716
273.43
273.306
275.177
274.252
273.719
273.431
273.306
509.857
505.369
510.045
505.674
510.907
506.787
513.217
509.212
517.988
513.955
526.22
526.496
523.662
522.529
527.339
528.181
527.688
528.424
560.085
570.192
572.353
572.851
572.96
549.119
567.149
571.65
572.694
572.921
560.322
570.257
572.369
572.854
572.961
549.477
567.258
571.673
572.701
572.922
560.619
570.334
572.388
572.859
572.962
549.994
567.397
571.706
572.709
572.924
561.287
570.49
572.423
572.866
572.964
550.941
567.629
571.758
572.72
572.927
562.462
570.739
572.477
572.878
572.966
552.512
567.982
571.833
572.735
572.93
563.642
570.918
572.508
572.883
572.967
556.061
568.72
571.982
572.765
572.937
563.298
570.87
572.501
572.882
572.967
554.682
568.423
571.923
572.754
572.934
563.774
570.937
572.51
572.883
572.967
556.749
568.885
572.017
572.771
572.938
563.883
570.962
572.516
572.885
572.967
556.923
568.944
572.027
572.773
572.938
405.982
446.106
443.876
401.844
384.288
385.882
387.93
391.002
400.537
404.915
433.703
444.206
442.747
454.019
416.12
421.305
402.619
406.398
395.187
397.469
344.678
326.971
286.42
282.322
283.473
281.876
284.74
339.416
330.815
316.059
318.538
313.352
298.732
306.312
301.557
294.177
296.38
292.711
338.052
312.094
297.301
294.97
301.558
298.513
292.678
290.729
288.393
286.351
292.094
290.44
341.336
320.347
327.45
309.61
302.84
313.558
292.763
287.212
294.722
327.466
313.775
302.715
292.041
280.531
317.086
307.629
298.207
288.777
278.729
284.921
282.906
280.386
277.55
274.536
281.328
279.962
278.217
276.224
274.09
282.352
280.812
278.849
276.611
274.22
280.938
279.644
277.984
276.081
274.042
283.461
281.719
279.516
277.018
274.357
323.625
310.181
299.561
289.706
279.689
316.482
304.283
294.835
286.248
277.67
308.483
300.667
292.758
285.002
277.157
307.693
297.993
290.201
283.152
276.432
303.907
295.229
288.185
281.857
275.942
295.166
290.857
285.973
280.861
275.64
300.925
294.98
288.705
282.44
276.175
297.122
292.077
286.637
281.162
275.721
291.474
288.056
284.031
279.71
275.253
293.198
289.302
284.843
280.162
275.397
290.259
287.113
283.363
279.31
275.118
323.503
310.636
300.18
290.188
279.874
305.899
299.114
291.907
284.58
277.016
294.11
290.149
285.551
280.647
275.577
292.207
288.706
284.559
280.069
275.385
297.614
292.887
287.53
281.878
276.016
295.207
291.098
286.304
281.146
275.757
290.312
287.251
283.551
279.478
275.189
288.649
285.914
282.572
278.874
274.981
286.634
284.286
281.378
278.14
274.731
284.867
282.862
280.349
277.522
274.525
289.777
286.775
283.159
279.209
275.089
288.388
285.692
282.399
278.762
274.942
325.621
312.51
301.79
291.411
280.395
312.283
304.098
295.673
287.11
278.034
317.593
307.365
297.94
288.553
278.626
304.274
298.165
291.415
284.338
276.904
298.805
293.932
288.36
282.423
276.206
307.223
300.267
292.827
285.206
277.25
290.38
287.297
283.576
279.488
275.19
285.611
283.464
280.789
277.791
274.616
292.021
288.582
284.489
280.036
275.376
489.549
535.955
481.853
530.106
455.645
508.841
462.899
514.621
468.531
452.599
506.397
473.941
441.134
424.655
476.542
442.457
508.756
525.484
545.72
553.422
501.322
517.51
541.105
549.536
520.982
489.703
495.531
474.492
505.753
534.498
535.719
537.825
490.86
498.545
509.494
510.706
457.768
463.992
543.39
548.494
513.533
523.515
554.619
559.87
542.52
561.669
560.743
568.529
534.728
558.459
557.22
566.979
518.831
551.447
539.449
560.551
553.67
565.916
559.428
567.968
445.338
436.494
456.957
440.931
414.639
406.697
424.826
410.187
486.948
471.833
474.884
466.696
465.808
443.4
469.231
443.832
432.601
412.194
435.406
412.331
495.834
474.634
499.451
475.331
515.706
551
503.848
541.41
504.73
545.011
498.131
536.727
523.657
554.593
506.894
543.933
526.979
556.159
507.721
545.123
525.29
504.916
554.224
540.058
515.245
496.018
549.759
534.326
500.801
484.226
542.193
526.481
433.483
403.764
462.067
490.954
534.174
399.83
427.751
453.643
479.615
520.584
401.441
430.335
459.799
490.197
527.955
476.522
456.83
495.772
476.847
472.292
453.459
495.349
475.806
465.778
447.585
494.742
474.854
391.019
379.713
418.352
404.949
442.556
426.981
466.816
449.186
497.395
477.912
391.386
378.003
420.705
409.768
449.599
437.706
477.821
463.096
504.585
487.069
424.914
419.387
424.104
418.969
392.219
374.303
391.205
372.035
455.826
453.678
455.955
452.303
422.022
418.237
422.046
418.398
390.079
371.303
389.855
370.932
453.751
453.435
454.029
454.014
486.716
484.118
512.771
509.058
485.507
480.864
511.139
504.78
486.034
484.777
513.357
510.683
484.951
484.261
512.322
509.826
444.617
439.247
460.821
453.6
441.333
435.134
459.429
450.886
435.071
428.441
457.548
446.998
370.073
363.466
394.16
386.501
415.085
406.452
435.572
426.425
457.917
443.68
365.514
357.674
399.286
389.566
424.428
412.209
444.925
429.67
460.057
441.474
382.922
376.048
393.811
384.613
410.532
398.061
430.948
411.034
363.768
344.145
368.101
346.867
363.564
346.325
368.567
349.043
367.402
361.277
366.806
360.387
349.346
353.125
390.122
393.786
419.621
424.243
370.859
375.404
370.848
373.577
355.549
358.104
329.155
311.728
330.983
312.707
330.863
311.713
332.39
312.684
334.054
311.742
337.117
313.528
339.235
314.534
339.644
314.42
365.123
356.974
370.829
358.489
387.716
379.598
395.523
382.086
351.58
338.687
347.538
337.778
374.788
359.392
376.463
359.21
401.127
383.537
403.36
383.483
354.275
339.198
355.344
338.877
333.386
310.765
322.676
305.455
330.594
309.394
322.054
305.045
335.201
311.679
322.935
305.516
335.821
311.942
322.553
305.17
325.703
321.341
309.532
306.284
327.233
323.032
309.35
306.262
329.738
326.308
309.165
306.594
358.645
379.017
342.445
327.299
307.497
376.791
358.008
341.68
326.246
306.202
375.493
354.493
336.264
321.108
304.444
316.447
311.235
302.307
296.657
318.528
313.404
302.673
297.204
321.976
316.989
303.307
298.02
369.026
359.425
351.155
343.272
335.856
329.928
321.197
315.849
303.044
297.893
366.192
352.947
346.433
334.899
329.752
320.265
315.718
307.455
301.468
295.722
343.472
327.817
343.309
326.104
364.38
346.393
364.181
343.874
326.767
313.163
326.91
314.264
344.277
325.496
343.925
324.846
364.785
342.769
364.488
342.123
327.595
312.816
327.144
312.175
312.368
301.653
299.413
292.272
313.161
302.427
300.115
293.008
312.265
301.366
298.898
291.675
312.562
301.065
298.887
291.705
307.217
305.786
287.678
286.85
309.786
308.02
288.342
287.387
313.13
310.169
289.089
287.003
351.142
345.347
336.403
331.754
324.538
320.918
310.532
306.389
288.463
285.099
341.44
335.658
325.182
320.704
312.1
308.609
299.501
296.397
284.744
282.161
295.671
285.772
280.304
277.229
296.151
285.912
280.307
277.18
295.426
285.67
280.267
277.214
296.014
285.828
280.299
277.197
294.932
285.476
280.305
277.296
295.678
285.66
280.345
277.276
295.709
285.58
280.123
277.094
295.371
285.354
279.926
276.972
294.486
285.247
280.222
277.277
292.618
284.664
280.08
277.386
294.05
285.173
280.311
277.422
292.664
284.749
280.167
277.483
294.679
285.23
280.085
277.151
292.526
284.56
279.977
277.321
294.58
285.101
279.957
277.081
292.347
284.422
279.884
277.279
294.793
285.514
280.325
277.364
293.573
285.176
280.314
277.547
294.536
285.419
280.307
277.369
293.432
285.124
280.29
277.544
294.127
285.268
280.306
277.412
293.251
285.046
280.262
277.545
293.367
285.016
280.276
277.484
292.939
284.93
280.248
277.569
292.61
284.786
280.235
277.577
292.419
284.903
280.144
277.831
291.657
284.758
280.116
277.933
292.401
284.881
280.143
277.835
291.65
284.737
280.107
277.929
292.323
284.828
280.107
277.814
291.586
284.688
280.073
277.913
292.129
284.733
280.098
277.809
291.412
284.602
280.042
277.899
291.763
284.59
280.091
277.811
291.043
284.474
280
277.88
290.995
284.264
279.903
277.705
290.107
284.118
279.852
277.786
291.333
284.425
279.998
277.76
290.526
284.301
279.934
277.84
290.709
284.109
279.775
277.623
289.776
283.942
279.739
277.711
290.473
283.953
279.671
277.551
289.517
283.769
279.63
277.636
275.364
274.354
273.77
273.457
273.322
275.35
274.35
273.769
273.457
273.322
275.357
274.35
273.768
273.456
273.321
275.341
274.344
273.765
273.455
273.321
275.352
274.345
273.765
273.454
273.32
275.328
274.337
273.761
273.453
273.32
275.301
274.324
273.755
273.45
273.318
275.262
274.306
273.746
273.445
273.315
275.333
274.335
273.76
273.452
273.319
275.343
274.333
273.758
273.451
273.318
275.353
274.342
273.763
273.453
273.32
275.359
274.34
273.761
273.452
273.319
275.306
274.323
273.754
273.449
273.317
275.32
274.323
273.753
273.448
273.317
275.271
274.306
273.746
273.445
273.315
275.29
274.308
273.746
273.445
273.315
275.383
274.358
273.771
273.458
273.322
275.401
274.361
273.772
273.458
273.323
275.379
274.356
273.769
273.457
273.322
275.398
274.359
273.771
273.457
273.322
275.375
274.351
273.767
273.455
273.321
275.392
274.355
273.768
273.456
273.321
275.373
274.347
273.764
273.454
273.32
275.382
274.349
273.765
273.454
273.321
275.369
274.344
273.763
273.453
273.32
510.763
508.469
511.3
508.973
512.617
510.253
515.11
512.519
519.371
516.482
526.327
526.716
524.124
523.38
527.331
528.196
527.674
528.413
560.469
570.284
572.373
572.855
572.961
550.048
567.355
571.692
572.702
572.923
560.726
570.349
572.388
572.858
572.961
550.428
567.462
571.714
572.709
572.924
561.045
570.423
572.406
572.862
572.962
550.954
567.595
571.745
572.716
572.926
561.679
570.567
572.438
572.869
572.964
551.824
567.806
571.792
572.726
572.928
562.73
570.791
572.487
572.88
572.967
553.186
568.118
571.86
572.74
572.931
563.682
570.93
572.511
572.884
572.967
556.182
568.755
571.991
572.766
572.937
563.415
570.898
572.507
572.884
572.968
555.016
568.502
571.94
572.757
572.935
563.783
570.941
572.511
572.884
572.967
556.778
568.897
572.02
572.772
572.938
563.884
570.963
572.516
572.885
572.967
556.926
568.946
572.028
572.773
572.938
405.192
445.048
440.538
399.553
389.196
396.845
386.884
396.347
418.824
439.113
423
440.945
274.307
274.556
275.111
276.055
277.535
279.742
274.507
274.78
275.382
276.393
277.932
280.151
274.162
274.092
274.413
274.36
274.977
274.971
275.954
276.055
277.472
277.726
279.616
279.863
282.926
287.326
293.258
300.943
308.774
313.959
283.214
287.233
292.211
297.799
302.929
306.129
274.18
273.998
273.757
273.472
273.16
274.403
274.186
273.899
273.56
273.19
274.901
274.605
274.215
273.756
273.257
275.749
275.317
274.75
274.088
273.369
277.072
276.424
275.581
274.601
273.542
279.038
278.062
276.804
275.355
273.797
274.36
274.15
273.872
273.543
273.184
274.604
274.355
274.026
273.639
273.217
275.144
274.809
274.367
273.85
273.288
276.049
275.567
274.937
274.203
273.408
277.423
276.714
275.796
274.733
273.587
279.397
278.356
277.02
275.487
273.841
274.049
273.888
273.674
273.42
273.143
273.986
273.835
273.634
273.395
273.134
274.275
274.078
273.817
273.51
273.173
274.227
274.038
273.788
273.491
273.167
274.782
274.506
274.14
273.71
273.241
274.777
274.501
274.137
273.708
273.24
275.659
275.243
274.695
274.054
273.357
275.75
275.32
274.754
274.091
273.37
277.018
276.382
275.55
274.583
273.536
277.247
276.574
275.696
274.673
273.567
278.93
277.976
276.743
275.319
273.785
279.153
278.165
276.886
275.407
273.815
281.855
280.393
278.534
276.418
274.155
285.711
283.551
280.862
277.841
274.635
290.833
287.69
283.885
279.687
275.26
297.313
292.832
287.609
281.972
276.045
303.667
297.75
291.15
284.176
276.834
307.773
300.888
293.406
285.595
277.354
282.105
280.594
278.681
276.507
274.185
285.631
283.486
280.814
277.812
274.625
289.954
286.997
283.387
279.385
275.156
294.738
290.838
286.185
281.095
275.737
299.056
294.262
288.667
282.62
276.262
301.722
296.363
290.189
283.559
276.588
274.325
274.615
275.224
276.246
277.84
280.215
274.528
274.845
275.504
276.591
278.231
280.577
274.179
274.109
274.47
274.418
275.089
275.087
276.15
276.269
277.802
278.095
280.17
280.523
283.606
288.189
294.223
301.813
309.352
314.157
283.776
287.901
292.914
298.418
303.349
306.276
274.196
274.012
273.768
273.479
273.163
274.457
274.232
273.934
273.582
273.198
275.004
274.693
274.282
273.798
273.271
275.922
275.465
274.863
274.159
273.393
277.35
276.662
275.763
274.716
273.582
279.469
278.432
277.089
275.535
273.858
274.379
274.166
273.884
273.551
273.187
274.664
274.406
274.065
273.663
273.225
275.255
274.903
274.44
273.896
273.304
276.229
275.721
275.055
274.277
273.433
277.696
276.948
275.976
274.846
273.626
279.786
278.69
277.278
275.65
273.897
274.065
273.901
273.684
273.427
273.145
274.002
273.848
273.644
273.402
273.136
274.326
274.122
273.851
273.531
273.18
274.28
274.083
273.822
273.512
273.174
274.884
274.592
274.206
273.751
273.255
274.883
274.591
274.206
273.751
273.255
275.838
275.395
274.812
274.127
273.382
275.945
275.486
274.881
274.17
273.397
277.319
276.639
275.748
274.707
273.579
277.583
276.861
275.916
274.812
273.614
279.436
278.41
277.076
275.528
273.856
279.755
278.681
277.282
275.657
273.9
282.478
280.929
278.949
276.68
274.245
286.507
284.241
281.398
278.183
274.752
291.731
288.477
284.504
280.085
275.397
298.138
293.569
288.199
282.357
276.18
304.228
298.262
291.569
284.454
276.933
307.969
301.069
293.556
285.696
277.391
282.62
281.038
279.024
276.724
274.26
286.247
284.02
281.229
278.077
274.716
290.605
287.567
283.834
279.671
275.255
295.318
291.351
286.591
281.358
275.829
299.454
294.617
288.951
282.805
276.327
301.863
296.489
290.291
283.626
276.611
344.986
327.237
287.578
283.157
284.919
282.895
286.072
346.221
342.24
322.93
332.091
303.987
313.781
298.557
301.739
296.621
341.848
316.311
301.23
297.86
304.994
300.858
294.116
292.711
291.21
288.489
295.384
292.923
342.429
321.177
329.802
310.986
304.705
316.474
294.617
288.942
297.092
327.835
314.137
303.036
292.276
280.627
317.367
307.899
298.439
288.94
278.792
285.986
283.828
281.102
278.004
274.692
282.092
280.618
278.724
276.544
274.199
283.671
281.943
279.718
277.159
274.407
281.868
280.441
278.597
276.467
274.174
284.681
282.77
280.327
277.531
274.533
331.115
317.159
305.327
293.603
281.156
328.408
315.066
303.503
291.903
279.616
315.263
306.853
297.752
288.274
278.311
321.541
310.175
299.863
289.385
278.595
300.113
295.223
289.414
283.07
276.403
308.104
301.4
293.811
285.739
277.318
295.558
291.631
286.83
281.499
275.869
298.274
293.8
288.396
282.447
276.187
293.913
290.32
285.882
280.923
275.674
327.666
314.651
303.584
292.542
280.804
310.01
302.855
294.936
286.572
277.723
297.791
293.39
288.103
282.285
276.143
294.904
291.073
286.419
281.262
275.797
300.87
295.785
289.836
283.372
276.537
297.413
293.05
287.851
282.146
276.105
291.651
288.424
284.473
280.071
275.393
290.482
287.511
283.819
279.669
275.255
289.218
286.514
283.101
279.232
275.106
286.822
284.543
281.645
278.34
274.805
292.827
289.433
285.234
280.532
275.545
290.683
287.688
283.954
279.752
275.282
326.888
313.735
302.86
292.183
280.711
313.132
304.9
296.348
287.575
278.209
320.046
309.69
299.905
289.903
279.127
305.614
299.388
292.415
285.003
277.142
300.581
295.523
289.635
283.255
276.498
310.082
302.892
294.972
286.631
277.761
292.105
288.807
284.76
280.246
275.452
287.202
284.84
281.857
278.469
274.849
294.232
290.523
286.015
281.016
275.715
276.66
283.842
290.699
297.009
302.352
306.611
466.08
459.293
433.775
440.246
448.512
438.59
423.26
411.923
487.837
505.509
480.421
495.99
469.663
460.037
482.404
453.853
448.419
423.863
428.981
439.425
430.844
415.281
405.759
475.035
486.931
468.618
478.751
458.632
449.889
467.136
436.68
432.82
409.918
413.529
426.046
419.32
403.539
395.805
455.563
466.276
450.554
460.029
443.081
435.956
450.914
418.544
415.831
395.106
397.713
410.652
405.023
390.254
383.904
436.593
447.754
432.71
442.763
426.813
420.12
434.955
405.197
403.107
384.215
386.301
398.809
394.1
380.197
374.639
422.051
434.173
418.859
430.259
414.316
408.572
423.661
396.068
394.292
376.742
378.559
390.621
386.741
373.158
368.182
412.473
426.69
409.647
422.908
406.065
401.157
416.38
381.427
378.313
404.925
409.525
374.042
368.809
397.527
388.646
358.843
338.976
358.078
340.771
354.609
354.212
343.581
376.393
373.533
397.819
401.75
369.601
364.826
391.388
383.338
353.836
335.02
353.216
336.894
349.982
350.019
339.41
368.426
365.983
387.209
390.261
362.611
358.371
382.067
375.367
348.531
330.45
347.852
332.055
345.02
344.981
334.254
358.744
356.729
375.217
377.571
353.71
349.598
371.112
365.129
341.332
325.232
340.768
326.524
338.296
338.102
328.524
351.181
349.438
366.198
368.163
346.824
343.067
362.686
357.406
335.468
321.589
334.989
322.479
333.028
332.719
324.292
345.87
344.303
359.969
361.715
342.115
338.917
356.801
352.077
331.801
319.213
331.417
320.005
329.71
329.538
321.838
533.837
552.684
521.147
543.946
504.092
533.018
475.394
509.302
475.241
502.029
501.022
527.423
516.838
539.78
528.055
548.569
493.679
470.231
516.812
483.093
463.163
439.116
485.908
450.142
542.589
550.665
557.65
562.11
530.058
540.232
549.855
556.443
530.75
512.635
504.614
492.473
525.549
542.563
539.055
538.657
494.917
499.62
512.811
511.617
461.312
464.991
546.759
549.279
517.412
524.496
557.158
560.418
555.904
565.996
565.622
570.15
547.352
562.518
561.341
568.409
531.001
555.294
545.53
562.563
555.902
566.694
559.889
568.139
453.113
439.381
462.18
442.783
419.7
407.768
428.63
411.083
492.422
473.842
483.457
469.939
468.458
444.388
469.977
444.119
434.614
412.724
435.975
412.481
498.576
475.695
500.225
475.644
519.785
552.366
505.325
541.924
511.08
547.1
500.479
537.48
525.718
555.312
507.684
544.222
527.566
556.374
507.956
545.213
546.377
527.69
560.763
547.156
533.869
515.379
555.559
540.276
516.203
499.545
546.936
530.955
434.612
396.519
468.814
498.044
536.482
390.014
427.493
460.74
487.664
522.892
396.365
430.948
463.203
493.229
528.783
494.394
465.099
500.373
472.344
487.789
460.619
498.518
470.548
478.607
453.448
496.372
469.053
378.236
363.32
415.862
398.557
446.843
426.811
471.832
449.091
497.028
471.769
383.403
367.313
418.684
403.915
450.627
434.039
478.864
459.3
503.837
482.053
424.79
417.299
424.279
418.173
389.484
368.93
390.263
369.683
456.523
453.603
456.989
451.593
422.18
418.01
422.101
418.354
389.754
370.39
389.77
370.692
454.15
453.526
454.155
454.06
487.316
484.163
512.96
508.903
486.381
480.253
511.229
503.835
486.395
484.933
513.511
510.732
485.075
484.326
512.379
509.858
433.904
410.164
397.93
437.407
411.887
399.213
431.576
407.516
394.81
436.149
409.889
396.588
425.149
401.094
388.279
434.853
406.803
392.523
346.963
334.669
328.353
378.055
360.052
350.232
402.839
380.192
367.6
421.01
395.402
381.658
436.016
404.934
388.752
349.566
334.73
327.029
385.033
364.794
353.322
410.447
384.78
369.932
429.376
398.453
381.112
441.656
406.268
387.175
391.241
381.625
397.247
387.6
425.08
407.952
436.897
416.342
366.055
343.286
367.189
345.041
367.468
346.028
369.253
347.843
368.701
364.885
367.923
362.527
349.465
352.748
391.769
394.304
422.292
425.044
371.764
375.758
371.594
373.841
355.477
358.12
321.762
304.637
326.598
307.429
324.229
305.165
328.893
308.256
328.264
305.943
334.663
309.986
338.036
312.473
339.264
313.726
363.265
353.39
370.899
356.871
389.318
378.134
397.464
381.651
350.002
336.304
343.045
333.105
375.076
358.679
376.558
358.988
402.302
383.426
403.702
383.442
353.716
338.053
355.193
338.522
330.346
307.693
320.072
303.205
324.35
304.516
317.344
301.417
333.809
309.984
321.616
304.287
335.416
311.404
322.141
304.777
306.581
297.289
299.096
293.475
308.725
299.683
299.466
294.184
312.785
304.861
300.423
296.058
343.646
366.015
327.424
315.522
300.52
360.547
338.86
321.215
310.302
297.673
365.757
343.485
326.169
312.996
299.17
290.553
285.153
288.622
284.071
292.939
287.158
289.685
285.098
297.69
291.231
291.788
287.031
349.415
336.463
328.94
317.767
314.081
305.31
303.982
296.6
294.306
289.323
353.383
338.005
332.738
319.528
317.76
307.272
306.485
297.867
295.903
290.327
337.252
320.127
340.525
322.508
359.076
338.734
362.059
340.45
323.819
309.869
320.962
307.658
343.086
323.947
343.583
324.418
363.955
341.351
364.257
341.739
326.244
311.341
326.746
311.759
309.717
299.053
297.432
290.51
308.205
297.493
296.747
289.907
310.955
300.14
297.853
290.784
312.152
300.697
298.563
291.441
280.121
277.692
276.735
277.528
275.655
275.018
281.986
279.152
278.013
278.399
276.368
275.614
285.535
282.083
280.627
279.837
277.329
276.369
323.584
314.602
310.204
307.674
301.172
298.172
297.337
292.246
290.063
289.55
285.1
283.153
281.013
277.916
276.705
323.296
312.424
307.373
307.75
299.467
295.779
297.726
291.233
288.456
289.447
284.406
282.401
280.626
277.573
276.405
291.453
283.569
279.19
276.664
292.574
283.952
279.29
276.657
291.517
283.612
279.233
276.699
292.948
284.119
279.404
276.739
291.485
283.636
279.361
276.825
293.206
284.26
279.591
276.883
294.151
284.667
279.626
276.833
294.827
285.028
279.748
276.876
292.462
284.087
279.58
276.926
291.072
283.742
279.543
277.066
291.161
283.591
279.464
276.975
290.336
283.419
279.432
277.072
293.467
284.512
279.679
276.921
291.637
284.014
279.648
277.113
294.174
284.856
279.817
277.001
292.054
284.24
279.773
277.208
289.628
282.976
279.073
276.73
287.547
282.308
278.921
276.828
289.644
282.994
279.112
276.771
287.725
282.378
278.954
276.859
289.753
283.053
279.2
276.86
288.22
282.56
279.04
276.919
289.643
283.065
279.276
276.976
288.622
282.724
279.145
277.004
289.492
283.086
279.335
277.095
285.949
281.829
278.68
276.995
285.061
281.594
278.589
277.026
286.296
281.95
278.736
277.031
285.438
281.725
278.642
277.055
286.935
282.176
278.821
277.078
286.089
281.957
278.725
277.099
287.728
282.47
278.968
277.159
286.856
282.244
278.845
277.164
288.506
282.805
279.147
277.247
287.537
282.546
278.98
277.239
289.539
283.369
279.377
277.358
288.521
283.126
279.279
277.407
289.083
283.11
279.263
277.299
288.069
282.854
279.131
277.322
289.89
283.587
279.458
277.404
288.901
283.371
279.4
277.482
290.208
283.782
279.565
277.477
289.241
283.585
279.519
277.561
275.097
274.225
273.708
273.426
273.304
275.097
274.226
273.709
273.427
273.304
275.116
274.233
273.711
273.428
273.304
275.121
274.237
273.713
273.429
273.305
275.14
274.242
273.715
273.43
273.306
275.146
274.248
273.718
273.431
273.307
275.175
274.262
273.725
273.435
273.309
275.215
274.282
273.735
273.44
273.311
275.169
274.255
273.721
273.433
273.307
275.198
274.264
273.725
273.434
273.308
275.159
274.249
273.718
273.431
273.306
275.185
274.257
273.721
273.432
273.307
275.195
274.268
273.728
273.436
273.309
275.222
274.275
273.73
273.437
273.31
275.233
274.287
273.737
273.44
273.312
275.256
274.291
273.738
273.441
273.312
275.101
274.224
273.707
273.426
273.303
275.108
274.224
273.707
273.426
273.303
275.116
274.23
273.71
273.427
273.304
275.119
274.228
273.709
273.426
273.304
275.139
274.239
273.713
273.429
273.305
275.139
274.236
273.712
273.428
273.304
275.164
274.247
273.717
273.43
273.306
275.16
274.245
273.716
273.43
273.306
275.176
274.252
273.719
273.431
273.306
509.921
505.449
510.06
505.686
510.91
506.79
513.216
509.212
517.986
513.954
526.218
526.494
523.659
522.527
527.337
528.179
527.685
528.422
560.167
570.213
572.358
572.852
572.96
549.163
567.163
571.653
572.694
572.921
560.316
570.256
572.369
572.854
572.961
549.482
567.26
571.673
572.702
572.922
560.619
570.334
572.388
572.859
572.962
549.996
567.397