/*--------------------------------*- C++ -*----------------------------------*\
| =========                 |                                                 |
| \\      /  F ield         | OpenFOAM: The Open Source CFD Toolbox           |
|  \\    /   O peration     | Version:  v2106                                 |
|   \\  /    A nd           | Website:  www.openfoam.com                      |
|    \\/     M anipulation  |                                                 |
\*---------------------------------------------------------------------------*/
FoamFile
{
    version     2.0;
    format      ascii;
    arch        "LSB;label=32;scalar=64";
    class       volScalarField;
    location    "77.5";
    object      gradTx;
}
// * * * * * * * * * * * * * * * * * * * * * * * * * * * * * * * * * * * * * //

dimensions      [0 -1 0 1 0 0 0];

internalField   nonuniform List<scalar> 
4000
(
-0.00014206639
-0.00031214908
-0.00015718751
-8.5171387e-05
-2.7226093e-05
2.3178635e-05
6.6189976e-05
9.759815e-05
0.00010424874
3.2979473e-05
-0.00012595836
-0.0002823857
-0.00014941086
-8.1720023e-05
-2.4782131e-05
2.5936978e-05
7.0704088e-05
0.00010710633
0.00012685069
4.3657783e-05
-0.00012222414
-0.00027303915
-0.0001432278
-7.7415497e-05
-2.1112418e-05
2.9924914e-05
7.600715e-05
0.00011490573
0.00013734637
4.7534069e-05
-0.00012077392
-0.000268426
-0.00013858926
-7.3203054e-05
-1.7092384e-05
3.4152214e-05
8.0837891e-05
0.00012048428
0.00014285946
4.9231589e-05
-0.00011992323
-0.00026528327
-0.00013471084
-6.9184461e-05
-1.3075638e-05
3.8229322e-05
8.5031631e-05
0.00012461636
0.00014624141
5.0149178e-05
-0.00011914461
-0.00026231232
-0.00013089951
-6.516628e-05
-9.1055036e-06
4.2098098e-05
8.8750929e-05
0.00012796958
0.00014873046
5.0780247e-05
-0.00011808433
-0.00025853698
-0.0001264956
-6.0880057e-05
-5.1297434e-06
4.5789707e-05
9.2178463e-05
0.00013099391
0.0001509548
5.1343227e-05
-0.00011613521
-0.00025249515
-0.00012076569
-5.6141797e-05
-1.1924657e-06
4.9244941e-05
9.5378413e-05
0.0001339625
0.00015334495
5.1994594e-05
-0.00011174555
-0.00024122941
-0.00011311765
-5.1169416e-05
2.3555535e-06
5.2167253e-05
9.8171393e-05
0.00013690512
0.00015623975
5.2904783e-05
-0.00010106724
-0.00021939751
-0.00010475694
-4.724676e-05
4.6785345e-06
5.3958331e-05
9.9992909e-05
0.00013924746
0.00015940917
5.4107532e-05
-0.00061997073
-0.0013895821
-0.00073632934
-0.00040567711
-0.00012777289
0.00011786215
0.0003302886
0.00049172272
0.00054756935
0.00017964929
-0.00054198778
-0.0012466779
-0.00070017962
-0.0003893005
-0.00011592341
0.00013135666
0.00035268821
0.00054108032
0.00068244005
0.00024638995
-0.00052470125
-0.0012033082
-0.00067107957
-0.00036859361
-9.8090467e-05
0.00015082201
0.0003786654
0.00057947221
0.00073329382
0.00026489659
-0.00051788796
-0.0011814281
-0.00064877367
-0.00034816417
-7.8514203e-05
0.00017144925
0.00040226405
0.00060673687
0.00076015052
0.00027313392
-0.00051378351
-0.0011662247
-0.00062994322
-0.00032860045
-5.8927381e-05
0.00019135109
0.00042274826
0.00062692389
0.00077666451
0.00027761137
-0.00050998831
-0.0011517456
-0.00061136446
-0.00030900107
-3.9548314e-05
0.00021025093
0.00044093483
0.00064333717
0.00078885953
0.00028070516
-0.00050478717
-0.0011332648
-0.00058985065
-0.00028807136
-2.0125685e-05
0.00022830774
0.00045773834
0.00065822067
0.00079986551
0.00028350303
-0.00049505523
-0.0011033689
-0.00056178862
-0.00026491821
-8.775385e-07
0.00024524103
0.00047351105
0.00067302543
0.00081202889
0.00028687437
-0.0004718821
-0.0010455153
-0.0005241941
-0.00024061969
1.6474617e-05
0.00025960453
0.0004874266
0.00068815551
0.00082786764
0.0002920844
-0.00040514144
-0.00091764439
-0.00048407814
-0.00022154751
2.7831466e-05
0.00026844202
0.00049668041
0.00070102757
0.00084896611
0.00030094001
-0.0010002303
-0.0022715423
-0.0012425839
-0.00068887562
-0.00020581015
0.00023049372
0.00061768002
0.00093390085
0.001117772
0.00038849055
-0.00087453923
-0.0020405329
-0.0011827996
-0.00066083809
-0.00018500785
0.00025449945
0.00065789337
0.0010234749
0.0013657507
0.00051161633
-0.00084622407
-0.0019687162
-0.0011333475
-0.00062486251
-0.00015357816
0.00028907396
0.00070421412
0.0010919658
0.0014551982
0.00054379305
-0.00083468301
-0.0019312965
-0.0010946272
-0.00058899053
-0.00011894965
0.00032571575
0.00074621523
0.0011404644
0.0015026537
0.00055824959
-0.00082753239
-0.0019047031
-0.0010614999
-0.00055440558
-8.4201167e-05
0.00036110954
0.00078269793
0.0011764256
0.0015320163
0.00056619207
-0.00082081481
-0.0018790645
-0.001028569
-0.00051961352
-4.9738252e-05
0.00039478982
0.00081518228
0.0012058139
0.0015538962
0.00057174884
-0.00081152857
-0.0018461229
-0.00099028361
-0.00048236999
-1.5127077e-05
0.00042706763
0.00084538483
0.0012328031
0.0015741033
0.00057693783
-0.00079400591
-0.0017925304
-0.00094024714
-0.00044112972
1.9228796e-05
0.00045747673
0.00087408893
0.0012604518
0.0015978332
0.00058375096
-0.00075181256
-0.0016880579
-0.00087329406
-0.00039791015
5.022242e-05
0.00048344507
0.00090002274
0.0012905815
0.0016335518
0.00059648368
-0.00062868678
-0.0014551042
-0.00080334417
-0.00036431162
7.0471289e-05
0.00049956371
0.00091802593
0.0013199003
0.0017007539
0.00062855236
-0.0013395622
-0.0030544884
-0.0016866705
-0.00093120662
-0.00025566776
0.00036560213
0.00092854658
0.0014075641
0.0017279276
0.00061154766
-0.0011714643
-0.0027453323
-0.0016059646
-0.00089251639
-0.00022638112
0.00039981744
0.00098627899
0.0015369196
0.0020880378
0.00079059088
-0.0011334582
-0.0026483473
-0.0015381271
-0.00084235204
-0.00018199218
0.00044903164
0.0010524704
0.0016348638
0.0022150245
0.00083599488
-0.0011176604
-0.002596789
-0.0014841883
-0.00079188446
-0.00013291564
0.00050120198
0.0011124067
0.0017040656
0.0022824497
0.00085644515
-0.0011076647
-0.0025594927
-0.0014374952
-0.00074290406
-8.3512823e-05
0.00055166733
0.0011645186
0.0017554578
0.0023243543
0.00086775962
-0.001098136
-0.0025231134
-0.0013907228
-0.0006934051
-3.4376487e-05
0.00059980819
0.0012110754
0.0017976877
0.0023558578
0.00087576841
-0.0010848545
-0.0024760632
-0.0013361106
-0.00064026835
1.5093387e-05
0.00064610935
0.0012546507
0.0018369496
0.0023855518
0.00088345073
-0.0010596477
-0.0023991895
-0.0012645951
-0.00058135696
6.4292226e-05
0.00068994027
0.0012965438
0.0018781289
0.0024218618
0.00089407231
-0.00099861746
-0.0022487635
-0.0011689647
-0.0005196743
0.00010871551
0.00072760114
0.0013350919
0.0019247593
0.0024799798
0.0009153158
-0.00081957424
-0.0019120926
-0.0010701833
-0.00047202719
0.00013770039
0.0007511378
0.0013625478
0.0019725569
0.0025971416
0.00097218015
-0.0016556864
-0.0037750839
-0.0020818901
-0.0011365557
-0.00027838418
0.00052117865
0.0012562796
0.0018961543
0.0023480496
0.00083655466
-0.0014473191
-0.0033920248
-0.001981774
-0.0010879404
-0.0002410437
0.00056524072
0.0013310349
0.0020642346
0.0028172101
0.001069959
-0.0014003137
-0.0032717338
-0.0018969158
-0.0010244829
-0.00018432371
0.00062855187
0.0014164767
0.0021907565
0.0029805493
0.0011281495
-0.001380575
-0.0032070506
-0.0018287453
-0.00096021496
-0.00012143627
0.00069568785
0.0014937751
0.0022800214
0.0030672906
0.0011543852
-0.0013679035
-0.003159661
-0.0017691904
-0.00089749227
-5.7947959e-05
0.00076072308
0.001561054
0.0023464116
0.0031213756
0.0011689698
-0.0013556814
-0.0031129901
-0.0017091379
-0.0008338392
5.3727007e-06
0.00082291466
0.0016213537
0.0024012335
0.0031623377
0.0011793902
-0.0013385288
-0.0030522878
-0.0016387432
-0.00076532106
6.9278857e-05
0.00088293133
0.0016781219
0.0024527138
0.0032015446
0.0011895817
-0.0013058445
-0.002952793
-0.0015463977
-0.00068926184
0.00013295128
0.0009399825
0.0017331911
0.0025075976
0.0032506875
0.0012040935
-0.0012264752
-0.0027576856
-0.0014229565
-0.00060966595
0.000190491
0.0009892336
0.001784486
0.0025710936
0.00333156
0.001233928
-0.0009930709
-0.0023202933
-0.0012963171
-0.00054843552
0.00022799841
0.0010201514
0.0018215409
0.0026376131
0.0034979623
0.0013150283
-0.0019526611
-0.0044448775
-0.0024369553
-0.0013101728
-0.00027786721
0.00069242938
0.0015931023
0.0023872957
0.0029625254
0.0010580926
-0.0017058093
-0.0039913511
-0.0023185514
-0.0012522204
-0.00023288181
0.00074592499
0.0016842359
0.0025926603
0.0035366146
0.0013437931
-0.0016503101
-0.0038491311
-0.0022177353
-0.0011762445
-0.00016444958
0.00082272769
0.001788175
0.0027466671
0.0037348759
0.0014142544
-0.0016268733
-0.0037721311
-0.0021361794
-0.0010989233
-8.8409257e-05
0.00090419746
0.0018821569
0.0028552282
0.0038401786
0.0014460438
-0.0016116752
-0.0037152027
-0.0020644382
-0.0010231256
-1.1455084e-05
0.0009832218
0.0019640413
0.0029360786
0.0039060029
0.0014637774
-0.0015968831
-0.0036587135
-0.0019917069
-0.00094592881
6.5484456e-05
0.0010589576
0.0020376371
0.0030031153
0.0039561499
0.0014765396
-0.0015760114
-0.0035849044
-0.0019061657
-0.00086263142
0.00014330511
0.0011322582
0.0021072543
0.0030665534
0.0040046931
0.0014891959
-0.0015361273
-0.0034636407
-0.0017937858
-0.00077006257
0.00022096464
0.0012021707
0.0021752429
0.0031349525
0.0040665078
0.0015075458
-0.0014391017
-0.003225533
-0.0016435979
-0.00067322001
0.00029119225
0.001262733
0.0022390915
0.0032151067
0.0041697524
0.0015457993
-0.0011534012
-0.0026912902
-0.0014902218
-0.00059893563
0.00033693594
0.0013008609
0.0022856008
0.0033000118
0.0043840954
0.0016504411
-0.0022310796
-0.0050674115
-0.0027569539
-0.0014566705
-0.00025864323
0.00087397013
0.0019318812
0.0028718425
0.0035615731
0.0012730048
-0.0019476479
-0.0045469872
-0.0026213052
-0.0013899264
-0.00020642452
0.00093644004
0.0020386358
0.0031127838
0.0042357744
0.0016085989
-0.0018841301
-0.0043841058
-0.002505494
-0.0013021642
-0.00012691085
0.001026068
0.0021602033
0.003292998
0.0044673023
0.0016907398
-0.0018572154
-0.0042955273
-0.0024113456
-0.0012125254
-3.8406462e-05
0.0011211721
0.0022700894
0.0034199642
0.0045902975
0.0017278188
-0.0018396339
-0.0042295995
-0.002328093
-0.0011243451
5.1341406e-05
0.0012135276
0.002365921
0.0035146345
0.0046673372
0.0017485588
-0.001822403
-0.0041637949
-0.0022433275
-0.0010342731
0.00014125974
0.0013022082
0.002452257
0.0035933944
0.0047263036
0.0017635692
-0.0017979873
-0.0040775016
-0.002143361
-0.00093688554
0.00023237754
0.0013882466
0.0025342394
0.0036683725
0.0047838689
0.0017786079
-0.0017512332
-0.0039354728
-0.0020118739
-0.00082855533
0.00032342737
0.0014705266
0.0026147103
0.0037498698
0.0048579705
0.0018006776
-0.0016373598
-0.0036563461
-0.0018361806
-0.00071524904
0.00040580781
0.0015419846
0.0026907147
0.0038461804
0.0049828782
0.0018470737
-0.0013017657
-0.0030297437
-0.0016573507
-0.00062852043
0.00045943348
0.0015870582
0.0027463773
0.003948879
0.0052435079
0.0019744308
-0.0024904661
-0.0056431678
-0.0030447558
-0.0015796415
-0.00022488148
0.0010607968
0.0022665336
0.0033427897
0.0041382178
0.0014790919
-0.0021725501
-0.0050597296
-0.0028929344
-0.0015046566
-0.00016585994
0.001131737
0.0023880569
0.0036173807
0.0049071194
0.0018618836
-0.0021015073
-0.0048774826
-0.0027630896
-0.0014058475
-7.5925944e-05
0.001233463
0.0025262808
0.0038223642
0.0051700586
0.0019550439
-0.0020713358
-0.0047780635
-0.0026571447
-0.0013046463
2.431138e-05
0.0013414343
0.0026511984
0.0039667308
0.0053097696
0.0019971171
-0.0020515174
-0.0047036886
-0.0025630793
-0.0012048146
0.00012612443
0.0014463887
0.0027602305
0.0040744875
0.0053974253
0.0020207013
-0.0020319881
-0.0046291079
-0.0024669734
-0.0011025959
0.00022830953
0.0015473296
0.0028586547
0.0041643832
0.005464771
0.002037847
-0.0020042239
-0.0045310224
-0.002353382
-0.00099188889
0.00033201977
0.001645461
0.0029524064
0.0042503665
0.0055309482
0.0020551602
-0.0019509726
-0.0043693607
-0.0022038318
-0.00086864622
0.00043576575
0.0017395056
0.0030447912
0.0043443946
0.0056168147
0.0020807918
-0.0018211633
-0.004051448
-0.0020040319
-0.00073976555
0.00052967219
0.00182134
0.0031324178
0.0044561817
0.005762475
0.0021349867
-0.0014383715
-0.00333752
-0.0018011817
-0.00064127945
0.00059076714
0.0018730285
0.0031968349
0.0045759214
0.0060674238
0.002284091
-0.0027299931
-0.0061713713
-0.0033019486
-0.0016817681
-0.00018009804
0.001248596
0.0025919886
0.0037945592
0.0046870048
0.0016746274
-0.0023798835
-0.0055291449
-0.0031350908
-0.0015991197
-0.00011473087
0.0013274592
0.002727344
0.0041006789
0.005544657
0.0021016537
-0.0023018422
-0.0053289013
-0.0029922138
-0.0014900351
-1.5078055e-05
0.0014404956
0.0028811588
0.0043288505
0.0058369727
0.0022051111
-0.002268645
-0.0052194102
-0.0028753007
-0.0013780643
9.6111814e-05
0.0015605012
0.0030201498
0.0044895104
0.0059923252
0.0022518543
-0.0022467433
-0.0051371683
-0.0027711584
-0.0012673594
0.00020920364
0.0016772524
0.0031415549
0.0046095373
0.0060899307
0.0022781026
-0.0022250668
-0.0050543902
-0.0026644581
-0.0011537826
0.00032287549
0.0017896929
0.0032513332
0.0047099014
0.0061651545
0.0022972556
-0.0021941678
-0.0049452687
-0.0025381164
-0.0010306025
0.00043839527
0.0018991882
0.0033561677
0.0048062652
0.0062394624
0.0023167167
-0.0021348299
-0.00476522
-0.0023716523
-0.00089338644
0.00055405887
0.0020043057
0.0034597983
0.0049121483
0.0063364734
0.0023457239
-0.001990088
-0.0044109775
-0.0021492849
-0.00074991569
0.00065878625
0.0020959162
0.0035584147
0.0050386048
0.0065018234
0.0024073197
-0.0015630617
-0.003615252
-0.0019239841
-0.00064042844
0.00072688818
0.0021538374
0.0036311172
0.0051745093
0.0068488403
0.0025770686
-0.0029487459
-0.0066507521
-0.0035293854
-0.0017650312
-0.00012715204
0.0014337657
0.0029040378
0.0042225786
0.005203434
0.0018581697
-0.0025689161
-0.0059542905
-0.0033487001
-0.0016753296
-5.5925744e-05
0.0015199634
0.0030522129
0.0045579318
0.0061433987
0.0023262244
-0.0024844382
-0.0057375047
-0.0031938463
-0.0015567825
5.2700534e-05
0.0016434648
0.0032204681
0.0048075819
0.0064628953
0.0024392006
-0.0024484592
-0.0056187515
-0.0030668367
-0.00143488
0.00017401135
0.0017746094
0.0033724964
0.0049833362
0.0066327274
0.0024902637
-0.0024246371
-0.005529256
-0.0029533967
-0.0013141299
0.00029753895
0.0019022907
0.0035053757
0.0051147443
0.0067395578
0.0025189806
-0.002400975
-0.0054388989
-0.0028368996
-0.0011900416
0.00042185471
0.002025402
0.0036257028
0.0052248419
0.0068221077
0.0025399998
-0.002367172
-0.0053195569
-0.0026987507
-0.001055304
0.00054833154
0.0021454602
0.0037408586
0.005330889
0.0069040082
0.0025614676
-0.0023021916
-0.0051224686
-0.0025166161
-0.00090513398
0.00067506106
0.0022608849
0.0038549872
0.0054478662
0.0070114654
0.0025936411
-0.0021436031
-0.0047345536
-0.0022733463
-0.0007481415
0.00078983724
0.0023616048
0.0039638828
0.005588083
0.0071953135
0.0026621932
-0.0016755485
-0.0038630073
-0.0020272873
-0.00062847149
0.00086444139
0.0024253353
0.0040443449
0.0057391715
0.0075818905
0.0028513591
-0.0031458333
-0.0070799022
-0.0037275038
-0.0018309028
-6.8341786e-05
0.0016133314
0.0031991837
0.0046230336
0.0056836947
0.0020284819
-0.0027389235
-0.0063340586
-0.0035342702
-0.0017347919
8.2284567e-06
0.0017062371
0.0033590976
0.0049851688
0.0066990946
0.0025341399
-0.0026486042
-0.0061022679
-0.0033685511
-0.0016076391
0.0001250397
0.0018393048
0.0035405662
0.0052544734
0.0070434331
0.002655807
-0.002610101
-0.0059751058
-0.0032323626
-0.0014766888
0.00025559049
0.0019806354
0.0037045261
0.0054440417
0.0072265053
0.0027108169
-0.0025845303
-0.0058790042
-0.0031104479
-0.0013467699
0.00038865778
0.0021183216
0.003847917
0.0055858783
0.0073417843
0.0027417934
-0.0025590542
-0.0057817243
-0.0029850005
-0.0012130707
0.00052271752
0.0022512151
0.0039779262
0.0057049167
0.0074310651
0.0027645268
-0.0025225932
-0.0056530308
-0.0028360496
-0.0010677531
0.00065923752
0.0023809728
0.0041025785
0.005819889
0.0075199725
0.0027878475
-0.002452445
-0.0054403418
-0.002639572
-0.00090571987
0.00079611761
0.0025058766
0.0042263909
0.0059471285
0.0076371123
0.0028229586
-0.0022811697
-0.005021591
-0.0023771767
-0.00073634824
0.00092011254
0.0026149835
0.0043447903
0.0061001105
0.0078381539
0.0028979805
-0.0017755117
-0.0040806034
-0.0021121613
-0.00060736862
0.0010006774
0.0026840647
0.0044324381
0.0062653099
0.008261548
0.0031052214
-0.003320442
-0.00745746
-0.0038965195
-0.0018804991
-5.5183278e-06
0.0017848418
0.003474512
0.0049927159
0.0061245307
0.0021844955
-0.0028892406
-0.0066673552
-0.0036920805
-0.0017786543
7.5854214e-05
0.0018837946
0.0036450234
0.0053790437
0.0072081
0.0027241383
-0.0027937054
-0.0064221728
-0.0035166598
-0.0016437933
0.00020002202
0.0020254818
0.0038384109
0.0056660779
0.007574815
0.0028536243
-0.0027529479
-0.0062874955
-0.0033722536
-0.0015047223
0.00033888635
0.0021759936
0.0040131349
0.005868108
0.0077698197
0.0029121878
-0.0027258089
-0.0061854671
-0.0032427278
-0.0013665561
0.00048054921
0.0023227076
0.0041660193
0.0060193648
0.0078927266
0.0029452031
-0.0026986995
-0.0060819552
-0.0031092214
-0.0012241951
0.00062340232
0.0024644423
0.0043047907
0.0061465017
0.0079881055
0.0029694894
-0.0026598403
-0.0059448271
-0.0029505289
-0.0010693302
0.00076899787
0.0026029822
0.0044380605
0.0062695898
0.0080833939
0.0029944988
-0.0025850253
-0.0057180563
-0.0027411099
-0.00089658673
0.00091505807
0.0027364835
0.0045706861
0.0064061993
0.0082093957
0.0030323015
-0.0024022885
-0.0052714651
-0.0024614646
-0.00071604331
0.0010473916
0.0028532073
0.0046977581
0.0065708761
0.0084262262
0.0031132691
-0.0018626457
-0.0042677719
-0.0021793902
-0.00057867517
0.0011333439
0.0029271508
0.0047919763
0.0067490316
0.0088834814
0.0033371383
-0.0034718656
-0.0077822154
-0.0040365481
-0.0019146955
5.9813044e-05
0.001946272
0.0037275933
0.0053289257
0.0065231647
0.0023252918
-0.0030192897
-0.0069532027
-0.0038223024
-0.0018078196
0.00014542291
0.0020505816
0.0039075084
0.0057367369
0.0076673008
0.0028951328
-0.0029191905
-0.0066963078
-0.0036383902
-0.0016661848
0.00027608359
0.0021998992
0.0041114617
0.0060394888
0.0080538185
0.0030315283
-0.0028764592
-0.0065550448
-0.003486766
-0.0015199586
0.00042229496
0.0023585426
0.0042957289
0.0062525669
0.0082593896
0.003093235
-0.0028479399
-0.0064477972
-0.0033505292
-0.0013745062
0.0005715671
0.0025132622
0.0044570406
0.0064121879
0.0083890651
0.003128058
-0.002819386
-0.0063387743
-0.003209894
-0.0012244751
0.00072221896
0.0026628516
0.0046036086
0.0065465387
0.008489878
0.0031537278
-0.0027784002
-0.0061941699
-0.0030425682
-0.0010611432
0.00087587612
0.0028092108
0.0047445709
0.006676889
0.0085908867
0.0031802524
-0.0026994425
-0.0059549059
-0.0028216736
-0.00087889619
0.0010300987
0.0029503819
0.0048850909
0.0068219241
0.0087248804
0.0032204858
-0.002506526
-0.0054836068
-0.0025267382
-0.00068844403
0.0011698479
0.0030739119
0.0050199564
0.0069971597
0.0089560062
0.0033068417
-0.0019366851
-0.0044242521
-0.0022295848
-0.00054364956
0.0012605871
0.0031522035
0.0051200934
0.0071870436
0.009443976
0.003545799
-0.0035995216
-0.0080531729
-0.0041476861
-0.0019342111
0.00012641108
0.0020959461
0.0039564077
0.0056294049
0.0068772537
0.0024500913
-0.0031285972
-0.0071908019
-0.003925079
-0.0018230305
0.00021567355
0.0022048969
0.0041444888
0.0060558898
0.0080740699
0.0030462021
-0.0030246076
-0.0069239288
-0.003733924
-0.0016755869
0.00035193353
0.0023608205
0.0043576051
0.0063722743
0.0084777255
0.0031885664
-0.0029801924
-0.0067770398
-0.0035761147
-0.0015232039
0.00050449135
0.0025265075
0.0045501498
0.0065949349
0.008692448
0.0032529914
-0.0029504872
-0.0066653046
-0.0034340974
-0.0013714601
0.00066035079
0.0026881725
0.0047187823
0.0067618242
0.0088280009
0.0032893826
-0.0029206841
-0.0065515173
-0.0032872969
-0.0012147867
0.00081776961
0.0028445922
0.0048721432
0.0069024684
0.0089335566
0.0033162599
-0.0028778533
-0.0064004302
-0.0031124868
-0.0010441081
0.00097843548
0.0029977688
0.0050198341
0.0070391903
0.0090395956
0.0033441184
-0.0027952967
-0.0061503199
-0.0028816359
-0.00085360943
0.001139763
0.0031456439
0.005167289
0.0071916621
0.0091806685
0.0033865086
-0.0025935301
-0.0056575608
-0.0025734417
-0.00065455822
0.001285969
0.0032751348
0.0053090278
0.0073762638
0.0094245183
0.0034776658
-0.0019974193
-0.0045498482
-0.0022632578
-0.00050333398
0.0013808717
0.0033572386
0.0054144009
0.0075765849
0.0099398877
0.0037300881
-0.0037029622
-0.0082695928
-0.0042300657
-0.0019396707
0.0001932359
0.0022324761
0.0041592896
0.005892292
0.0071848593
0.0025582474
-0.0032168036
-0.0073795719
-0.0040005796
-0.00182493
0.00028555035
0.0023453321
0.0043542629
0.0063345589
0.0084262378
0.0031765846
-0.0031096149
-0.0071044986
-0.0038034612
-0.0016726677
0.0004264918
0.0025068085
0.0045750998
0.006662432
0.0088442938
0.0033239518
-0.0030638129
-0.0069529673
-0.0036405259
-0.0015151527
0.0005843679
0.0026784203
0.0047746199
0.0068931677
0.0090667132
0.0033906586
-0.0030331211
-0.0068374956
-0.0034936839
-0.0013581397
0.00074576372
0.0028459395
0.0049494341
0.007066197
0.0092072264
0.0034283717
-0.0030022699
-0.0067197115
-0.0033417083
-0.0011958808
0.00090888747
0.0030081341
0.0051085529
0.0072121851
0.0093168121
0.0034562748
-0.0029578838
-0.0065631633
-0.0031605956
-0.0010190086
0.0010754775
0.0031670949
0.0052619765
0.0073543571
0.0094271666
0.0034852795
-0.0028722877
-0.0063039012
-0.0029213513
-0.00082154648
0.0012428205
0.0033206766
0.0054153729
0.0075132396
0.0095743701
0.0035295414
-0.0026630391
-0.0057930232
-0.0026019869
-0.00061524362
0.001394495
0.003455255
0.0055630311
0.0077059665
0.009829306
0.0036248879
-0.002044702
-0.0046444667
-0.0022808759
-0.00045861383
0.0014929193
0.0035406168
0.0056729309
0.007915379
0.010368615
0.0038890807
-0.0037818807
-0.0084310171
-0.0042838922
-0.0019316487
0.00025940201
0.0023547159
0.0043348855
0.0061160877
0.0074444264
0.0026492419
-0.0032836702
-0.0075191757
-0.0040490367
-0.0018141065
0.00035415574
0.0024707255
0.00453545
0.0065711827
0.0087220727
0.0032856736
-0.0031739864
-0.0072377126
-0.003847257
-0.0016580337
0.0004988426
0.0026366795
0.0047625347
0.0069083554
0.0091517369
0.0034370593
-0.0031270999
-0.0070825405
-0.0036802743
-0.0014964315
0.00066098791
0.0028130741
0.0049677005
0.007145627
0.0093803689
0.0035056027
-0.003095625
-0.0069640977
-0.003529582
-0.0013351921
0.00082684709
0.0029853327
0.005147532
0.0073236431
0.0095249055
0.0035443861
-0.0030639307
-0.0068430999
-0.0033734421
-0.001168427
0.00099459057
0.0031522229
0.0053113496
0.0074740031
0.0096377911
0.0035731293
-0.0030182852
-0.0066821341
-0.0031872335
-0.00098653896
0.001165996
0.00331591
0.0054694853
0.0076206794
0.0097517271
0.0036030871
-0.002930221
-0.0064154507
-0.0029411917
-0.00078342969
0.0013382397
0.0034741762
0.0056278029
0.0077849164
0.0099040828
0.0036489266
-0.0027148885
-0.0058898664
-0.0026127892
-0.0005712513
0.0014943721
0.0036129463
0.0057803985
0.0079844879
0.010168411
0.0037478291
-0.0020784568
-0.0047081403
-0.0022828955
-0.00041026105
0.0015956619
0.0037009978
0.0058940946
0.0082016008
0.010728078
0.0040220379
-0.0038361155
-0.0085372861
-0.0043094693
-0.0019107011
0.0003241434
0.0024617267
0.0044821231
0.0062996307
0.0076547685
0.0027226816
-0.0033290822
-0.0076095366
-0.0040707719
-0.0017911248
0.00042071572
0.0025801279
0.004686959
0.0067645563
0.0089602648
0.0033730144
-0.0032176158
-0.0073235146
-0.0038656469
-0.001632262
0.00056819965
0.0027494694
0.0049187976
0.0071088091
0.0093987081
0.0035274219
-0.0031699505
-0.0071657142
-0.0036957083
-0.0014676305
0.00073355094
0.0029294882
0.0051282603
0.0073510556
0.0096320483
0.0035973509
-0.0031378983
-0.0070450755
-0.0035421526
-0.0013032217
0.00090278522
0.003105355
0.0053119273
0.007532888
0.0097796576
0.0036369495
-0.003105569
-0.006921658
-0.003382873
-0.0011330449
0.0010740472
0.0032758449
0.0054793674
0.0076866318
0.009895101
0.0036663436
-0.0030589642
-0.0067573328
-0.0031927923
-0.00094733604
0.0012491419
0.0034431831
0.0056411761
0.0078368484
0.01001187
0.0036970577
-0.0029690117
-0.0064849835
-0.0029415718
-0.00073991515
0.0014251543
0.0036050937
0.0058033749
0.0080053607
0.010168376
0.0037441735
-0.0027490137
-0.0059481544
-0.002606293
-0.00052325716
0.001584718
0.0037471435
0.0059599051
0.0082104652
0.01044036
0.0038459818
-0.0020986809
-0.0047410439
-0.0022697883
-0.00035896564
0.001688207
0.0038373057
0.00607665
0.0084338514
0.011016706
0.004128404
-0.0038656512
-0.008588547
-0.0043072165
-0.0018773885
0.00038678799
0.002552751
0.0046001871
0.0064420777
0.0078150543
0.0027782952
-0.0033530505
-0.0076508471
-0.0040662123
-0.0017565494
0.00048455406
0.0026727758
0.0048079638
0.0069138124
0.0091399134
0.0034383011
-0.0032405179
-0.007362106
-0.0038590643
-0.0015959225
0.00063388053
0.0028444068
0.0050430513
0.0072629091
0.009584288
0.0035947275
-0.003192381
-0.0072026949
-0.0036872668
-0.0014293261
0.00080136707
0.0030268827
0.0052554516
0.0075085577
0.0098208213
0.0036655882
-0.0031599586
-0.0070806401
-0.003531841
-0.0012628123
0.00097287996
0.0032052174
0.0054417625
0.007693026
0.0099705449
0.0037057449
-0.0031272036
-0.0069556023
-0.0033704538
-0.0010903267
0.0011465501
0.003378201
0.0056117384
0.0078491554
0.010087796
0.0037355989
-0.003079942
-0.0067889842
-0.0031777341
-0.00090200166
0.0013241983
0.0035481043
0.0057761698
0.0080019368
0.010206639
0.0037668697
-0.0029886858
-0.0065127381
-0.0029229661
-0.00069161555
0.001502837
0.0037126083
0.0059411959
0.0081736292
0.010366279
0.0038149553
-0.0027654523
-0.0059681529
-0.0025829888
-0.00047188472
0.0016647959
0.0038570151
0.0061006435
0.0083829326
0.010644148
0.0039190068
-0.0021054464
-0.0047435044
-0.0022420582
-0.00030535861
0.0017698121
0.0039487022
0.0062196781
0.0086111384
0.01123342
0.0042078035
-0.0038706189
-0.0085852582
-0.0042776798
-0.0018322916
0.00044673831
0.0026271922
0.0046884998
0.0065428876
0.0079247962
0.0028159308
-0.0033557118
-0.0076435732
-0.0040359023
-0.0017109603
0.00054507312
0.0027480717
0.0048978848
0.0070184042
0.0092605145
0.0034813733
-0.0032428289
-0.0073539503
-0.003828051
-0.0015495944
0.00069528727
0.002920893
0.0051347141
0.0073701061
0.0097079715
0.0036388161
-0.0031945269
-0.0071939445
-0.0036554909
-0.0013820976
0.0008638376
0.0031046573
0.0053486906
0.007617582
0.0099461815
0.0037101542
-0.0031619413
-0.0070712531
-0.0034991883
-0.0012145436
0.0010365312
0.0032843175
0.0055364512
0.0078035035
0.010097059
0.0037506116
-0.0031289703
-0.0069453955
-0.0033367264
-0.0010408536
0.0012114971
0.0034586861
0.005707873
0.0079610168
0.010215367
0.003780734
-0.003081355
-0.0067775523
-0.0031426027
-0.00085111919
0.00139056
0.003630065
0.0058738717
0.0081153817
0.010335519
0.0038123603
-0.0029893803
-0.0064991811
-0.0028859206
-0.00063911658
0.0015706794
0.0037961066
0.0060406652
0.0082891498
0.010497264
0.0038611061
-0.0027643439
-0.0059503338
-0.0025434249
-0.00041772185
0.0017339948
0.0039419432
0.0062020047
0.0085013044
0.010779228
0.0039667298
-0.0020989015
-0.0047160059
-0.0022002535
-0.00025002858
0.0018398645
0.0040345663
0.0063225628
0.0087328586
0.011377626
0.0042600377
-0.0038512943
-0.0085281887
-0.0042215382
-0.0017760231
0.00050345702
0.0026845987
0.0047467053
0.0066018069
0.00798384
0.0028355526
-0.0033373275
-0.0075884544
-0.00398051
-0.0016549645
0.00060173923
0.0028055678
0.0049563721
0.0070780916
0.0093219496
0.0035022128
-0.0032248047
-0.007299773
-0.0037732647
-0.0014938777
0.00075189176
0.0029784858
0.0051934436
0.0074301712
0.0097696564
0.0036596758
-0.003176642
-0.0071401809
-0.0036010303
-0.0013265381
0.00092044018
0.0031623755
0.0054076414
0.007677907
0.010008035
0.0037310398
-0.003144099
-0.0070176276
-0.0034448383
-0.0011590033
0.001093222
0.0033422236
0.0055956622
0.0078641037
0.010159111
0.0037715416
-0.0031111205
-0.0068917461
-0.0032823293
-0.00098520787
0.0012683758
0.0035168727
0.0057674432
0.0080220019
0.010277724
0.0038017413
-0.0030634529
-0.0067237405
-0.0030880305
-0.0007952654
0.0014477191
0.0036886405
0.0059339557
0.0081769695
0.010398422
0.0038335219
-0.0029713426
-0.0064450078
-0.00283106
-0.0005829892
0.0016281777
0.0038551661
0.0061014563
0.0083517071
0.010561241
0.0038826168
-0.0027459298
-0.0058953762
-0.0024882152
-0.00036133292
0.001791814
0.0040015064
0.0062636609
0.0085653595
0.010845498
0.0039891378
-0.0020792696
-0.0046591915
-0.0021449747
-0.00019353424
0.0018978662
0.0040944769
0.0063849742
0.0087987833
0.011449195
0.0042850812
-0.0038080953
-0.0084184142
-0.0041396074
-0.0017092355
0.00055645532
0.0027246501
0.0047746554
0.0066188564
0.0079923527
0.0028372376
-0.0032982808
-0.0074865007
-0.0039008305
-0.0015892044
0.00065407098
0.002844952
0.0049832915
0.0070929268
0.0093244729
0.0035009399
-0.0031868196
-0.0072005594
-0.0036954822
-0.0014294014
0.00080322385
0.0030168852
0.0052191217
0.007443181
0.00976963
0.003657439
-0.0031390963
-0.0070423755
-0.0035246476
-0.0012632638
0.00097071696
0.0031997501
0.0054322005
0.0076896264
0.010006686
0.0037283828
-0.0031067989
-0.0069207253
-0.0033695416
-0.0010967951
0.0011425063
0.0033786606
0.0056193043
0.0078749324
0.010157015
0.0037686754
-0.0030740192
-0.006795607
-0.0032080017
-0.00092398134
0.0013167519
0.0035524961
0.0057903677
0.0080322251
0.010275188
0.0037987629
-0.0030265976
-0.0066284903
-0.0030147435
-0.00073501964
0.0014952523
0.0037235758
0.0059563484
0.0081868212
0.010395673
0.0038304977
-0.0029349284
-0.0063511407
-0.0027590928
-0.0005237987
0.0016749191
0.0038895402
0.0061235027
0.0083614267
0.010558538
0.0038796314
-0.0027105506
-0.0058041656
-0.0024180439
-0.00030326829
0.0018378509
0.0040354647
0.00628555
0.0085752267
0.010843289
0.0039863748
-0.0020468483
-0.0045738634
-0.0020768796
-0.00013641383
0.0019434211
0.0041281982
0.0064068529
0.0088090424
0.011448458
0.0042830774
-0.0037415784
-0.0082573112
-0.0040328406
-0.0016326273
0.00060528303
0.0027471448
0.0047723959
0.0065943176
0.007950811
0.0028211719
-0.0032390743
-0.0073389874
-0.0037977879
-0.0015143638
0.0007016292
0.0028660356
0.0049787107
0.0070632405
0.0092686975
0.0034778086
-0.0031293625
-0.0070575492
-0.0035956017
-0.0013568303
0.00084886123
0.0030359212
0.0052118413
0.0074095038
0.0097085554
0.003632378
-0.0030823726
-0.0069017485
-0.0034272205
-0.0011929202
0.001014264
0.0032166305
0.005422483
0.0076531348
0.0099428237
0.0037024632
-0.0030505202
-0.0067817523
-0.0032741581
-0.0010285462
0.0011839987
0.0033934964
0.0056075117
0.0078364028