/*--------------------------------*- C++ -*----------------------------------*\
| =========                 |                                                 |
| \\      /  F ield         | OpenFOAM: The Open Source CFD Toolbox           |
|  \\    /   O peration     | Version:  v2106                                 |
|   \\  /    A nd           | Website:  www.openfoam.com                      |
|    \\/     M anipulation  |                                                 |
\*---------------------------------------------------------------------------*/
FoamFile
{
    version     2.0;
    format      ascii;
    arch        "LSB;label=32;scalar=64";
    class       volVectorField;
    location    "77.5";
    object      gradT;
}
// * * * * * * * * * * * * * * * * * * * * * * * * * * * * * * * * * * * * * //

dimensions      [0 -1 0 1 0 0 0];

internalField   nonuniform List<vector> 
4000
(
(-0.00014206639 -0.00014206639 567.57878)
(-0.00031214908 -0.00012595835 567.57773)
(-0.00015718751 -0.00012222414 567.57723)
(-8.5171387e-05 -0.00012077392 567.57693)
(-2.7226093e-05 -0.00011992323 567.57679)
(2.3178635e-05 -0.00011914461 567.57679)
(6.6189976e-05 -0.00011808433 567.57691)
(9.759815e-05 -0.0001161352 567.57714)
(0.00010424874 -0.00011174555 567.57743)
(3.2979473e-05 -0.00010106724 567.57771)
(-0.00012595836 -0.00031214908 567.57773)
(-0.0002823857 -0.0002823857 567.57681)
(-0.00014941086 -0.00027303915 567.57634)
(-8.1720023e-05 -0.00026842599 567.57605)
(-2.4782131e-05 -0.00026528326 567.57591)
(2.5936978e-05 -0.00026231232 567.57592)
(7.0704088e-05 -0.00025853698 567.57605)
(0.00010710633 -0.00025249514 567.5763)
(0.00012685069 -0.0002412294 567.57663)
(4.3657783e-05 -0.00021939751 567.577)
(-0.00012222414 -0.00015718751 567.57723)
(-0.00027303915 -0.00014941086 567.57634)
(-0.0001432278 -0.00014322781 567.57588)
(-7.7415497e-05 -0.00013858925 567.5756)
(-2.1112418e-05 -0.00013471084 567.57548)
(2.9924914e-05 -0.00013089951 567.57549)
(7.600715e-05 -0.0001264956 567.57564)
(0.00011490573 -0.0001207657 567.5759)
(0.00013734637 -0.00011311764 567.57626)
(4.7534069e-05 -0.00010475694 567.57666)
(-0.00012077392 -8.5171379e-05 567.57693)
(-0.000268426 -8.1720021e-05 567.57605)
(-0.00013858926 -7.7415496e-05 567.5756)
(-7.3203054e-05 -7.3203058e-05 567.57534)
(-1.7092384e-05 -6.918446e-05 567.57522)
(3.4152214e-05 -6.5166279e-05 567.57525)
(8.0837891e-05 -6.0880052e-05 567.57541)
(0.00012048428 -5.6141798e-05 567.57568)
(0.00014285946 -5.116942e-05 567.57605)
(4.9231589e-05 -4.7246756e-05 567.57647)
(-0.00011992323 -2.7226095e-05 567.57679)
(-0.00026528327 -2.478213e-05 567.57591)
(-0.00013471084 -2.1112412e-05 567.57548)
(-6.9184461e-05 -1.7092386e-05 567.57522)
(-1.3075638e-05 -1.3075638e-05 567.57512)
(3.8229322e-05 -9.1055057e-06 567.57516)
(8.5031631e-05 -5.1297548e-06 567.57533)
(0.00012461636 -1.1924677e-06 567.57561)
(0.00014624141 2.3555458e-06 567.57599)
(5.0149178e-05 4.6785325e-06 567.57642)
(-0.00011914461 2.3178627e-05 567.57679)
(-0.00026231232 2.5936974e-05 567.57592)
(-0.00013089951 2.9924915e-05 567.57549)
(-6.516628e-05 3.4152207e-05 567.57525)
(-9.1055036e-06 3.8229319e-05 567.57516)
(4.2098098e-05 4.2098102e-05 567.57521)
(8.8750929e-05 4.5789704e-05 567.57538)
(0.00012796958 4.9244935e-05 567.57568)
(0.00014873046 5.2167251e-05 567.57607)
(5.0780247e-05 5.3958325e-05 567.5765)
(-0.00011808433 6.6189978e-05 567.57691)
(-0.00025853698 7.070408e-05 567.57605)
(-0.0001264956 7.6007146e-05 567.57564)
(-6.0880057e-05 8.0837899e-05 567.57541)
(-5.1297434e-06 8.5031629e-05 567.57533)
(4.5789707e-05 8.8750937e-05 567.57538)
(9.2178463e-05 9.2178472e-05 567.57557)
(0.00013099391 9.5378421e-05 567.57587)
(0.0001509548 9.817139e-05 567.57627)
(5.1343227e-05 9.9992911e-05 567.57671)
(-0.00011613521 9.7598154e-05 567.57714)
(-0.00025249515 0.00010710633 567.5763)
(-0.00012076569 0.00011490572 567.5759)
(-5.6141797e-05 0.00012048428 567.57568)
(-1.1924657e-06 0.00012461636 567.57561)
(4.9244941e-05 0.00012796958 567.57568)
(9.5378413e-05 0.00013099391 567.57587)
(0.0001339625 0.00013396251 567.57618)
(0.00015334495 0.00013690512 567.57659)
(5.1994594e-05 0.00013924746 567.57703)
(-0.00011174555 0.00010424874 567.57743)
(-0.00024122941 0.0001268507 567.57663)
(-0.00011311765 0.00013734638 567.57626)
(-5.1169416e-05 0.00014285945 567.57605)
(2.3555535e-06 0.00014624141 567.57599)
(5.2167253e-05 0.00014873045 567.57607)
(9.8171393e-05 0.0001509548 567.57627)
(0.00013690512 0.00015334495 567.57659)
(0.00015623975 0.00015623976 567.577)
(5.2904783e-05 0.00015940917 567.57745)
(-0.00010106724 3.2979471e-05 567.57771)
(-0.00021939751 4.3657786e-05 567.577)
(-0.00010475694 4.7534073e-05 567.57666)
(-4.724676e-05 4.9231592e-05 567.57647)
(4.6785345e-06 5.0149176e-05 567.57642)
(5.3958331e-05 5.0780246e-05 567.5765)
(9.9992909e-05 5.1343228e-05 567.57671)
(0.00013924746 5.199459e-05 567.57703)
(0.00015940917 5.2904787e-05 567.57745)
(5.4107532e-05 5.4107535e-05 567.57792)
(-0.00061997073 -0.00061997073 838.7537)
(-0.0013895821 -0.00054198778 838.75242)
(-0.00073632934 -0.00052470125 838.75175)
(-0.00040567711 -0.00051788796 838.75133)
(-0.00012777289 -0.00051378351 838.75114)
(0.00011786215 -0.0005099883 838.75115)
(0.0003302886 -0.00050478716 838.75135)
(0.00049172272 -0.00049505523 838.75171)
(0.00054756935 -0.0004718821 838.75219)
(0.00017964929 -0.00040514143 838.75272)
(-0.00054198778 -0.0013895821 838.75242)
(-0.0012466779 -0.0012466778 838.75129)
(-0.00070017962 -0.0012033082 838.75066)
(-0.0003893005 -0.0011814281 838.75026)
(-0.00011592341 -0.0011662247 838.75008)
(0.00013135666 -0.0011517456 838.7501)
(0.00035268821 -0.0011332648 838.75031)
(0.00054108032 -0.0011033689 838.75069)
(0.00068244005 -0.0010455153 838.75123)
(0.00024638995 -0.00091764438 838.75193)
(-0.00052470125 -0.00073632934 838.75175)
(-0.0012033082 -0.00070017962 838.75066)
(-0.00067107957 -0.00067107956 838.75005)
(-0.00036859361 -0.00064877367 838.74967)
(-9.8090467e-05 -0.00062994323 838.7495)
(0.00015082201 -0.00061136446 838.74954)
(0.0003786654 -0.00058985065 838.74976)
(0.00057947221 -0.00056178862 838.75017)
(0.00073329382 -0.0005241941 838.75074)
(0.00026489659 -0.00048407814 838.75148)
(-0.00051788796 -0.00040567711 838.75133)
(-0.0011814281 -0.0003893005 838.75026)
(-0.00064877367 -0.0003685936 838.74967)
(-0.00034816417 -0.00034816416 838.74931)
(-7.8514203e-05 -0.00032860044 838.74915)
(0.00017144925 -0.00030900107 838.7492)
(0.00040226405 -0.00028807136 838.74945)
(0.00060673687 -0.00026491821 838.74987)
(0.00076015052 -0.00024061969 838.75047)
(0.00027313392 -0.00022154752 838.75123)
(-0.00051378351 -0.00012777289 838.75114)
(-0.0011662247 -0.00011592341 838.75008)
(-0.00062994322 -9.8090464e-05 838.7495)
(-0.00032860045 -7.8514202e-05 838.74915)
(-5.8927381e-05 -5.8927366e-05 838.74902)
(0.00019135109 -3.9548313e-05 838.74908)
(0.00042274826 -2.0125687e-05 838.74934)
(0.00062692389 -8.7753952e-07 838.74978)
(0.00077666451 1.6474618e-05 838.75039)
(0.00027761137 2.7831467e-05 838.75117)
(-0.00050998831 0.00011786215 838.75115)
(-0.0011517456 0.00013135666 838.7501)
(-0.00061136446 0.000150822 838.74954)
(-0.00030900107 0.00017144924 838.7492)
(-3.9548314e-05 0.00019135109 838.74908)
(0.00021025093 0.00021025093 838.74916)
(0.00044093483 0.00022830774 838.74944)
(0.00064333717 0.00024524102 838.74989)
(0.00078885953 0.00025960453 838.75051)
(0.00028070516 0.00026844202 838.75129)
(-0.00050478717 0.0003302886 838.75135)
(-0.0011332648 0.00035268821 838.75031)
(-0.00058985065 0.00037866538 838.74976)
(-0.00028807136 0.00040226405 838.74945)
(-2.0125685e-05 0.00042274825 838.74934)
(0.00022830774 0.00044093483 838.74944)
(0.00045773834 0.00045773834 838.74972)
(0.00065822067 0.00047351105 838.75019)
(0.00079986551 0.0004874266 838.75082)
(0.00028350303 0.00049668041 838.75161)
(-0.00049505523 0.00049172272 838.75171)
(-0.0011033689 0.00054108032 838.75069)
(-0.00056178862 0.00057947221 838.75017)
(-0.00026491821 0.00060673687 838.74987)
(-8.775385e-07 0.00062692388 838.74978)
(0.00024524103 0.00064333717 838.74989)
(0.00047351105 0.00065822068 838.75019)
(0.00067302543 0.00067302543 838.75067)
(0.00081202889 0.00068815551 838.75131)
(0.00028687437 0.00070102756 838.75211)
(-0.0004718821 0.00054756934 838.75219)
(-0.0010455153 0.00068244004 838.75123)
(-0.0005241941 0.00073329381 838.75074)
(-0.00024061969 0.00076015052 838.75047)
(1.6474617e-05 0.00077666451 838.75039)
(0.00025960453 0.00078885952 838.75051)
(0.0004874266 0.00079986551 838.75082)
(0.00068815551 0.00081202889 838.75131)
(0.00082786764 0.00082786765 838.75198)
(0.0002920844 0.00084896611 838.75279)
(-0.00040514144 0.00017964928 838.75272)
(-0.00091764439 0.00024638995 838.75193)
(-0.00048407814 0.00026489659 838.75148)
(-0.00022154751 0.00027313392 838.75123)
(2.7831466e-05 0.00027761137 838.75117)
(0.00026844202 0.00028070516 838.75129)
(0.00049668041 0.00028350303 838.75161)
(0.00070102757 0.00028687437 838.75211)
(0.00084896611 0.0002920844 838.75279)
(0.00030094001 0.00030094001 838.75365)
(-0.0010002303 -0.0010002303 833.34577)
(-0.0022715423 -0.00087453923 833.34469)
(-0.0012425839 -0.00084622407 833.34411)
(-0.00068887562 -0.00083468301 833.34374)
(-0.00020581015 -0.00082753238 833.34358)
(0.00023049372 -0.00082081481 833.34362)
(0.00061768002 -0.00081152857 833.34383)
(0.00093390085 -0.00079400591 833.34421)
(0.001117772 -0.00075181256 833.34475)
(0.00038849055 -0.00062868678 833.34539)
(-0.00087453923 -0.0022715423 833.34469)
(-0.0020405329 -0.0020405329 833.34375)
(-0.0011827996 -0.0019687162 833.3432)
(-0.00066083809 -0.0019312965 833.34284)
(-0.00018500785 -0.0019047031 833.34269)
(0.00025449945 -0.0018790645 833.34273)
(0.00065789337 -0.0018461229 833.34296)
(0.0010234749 -0.0017925304 833.34337)
(0.0013657507 -0.0016880579 833.34396)
(0.00051161633 -0.0014551042 833.34477)
(-0.00084622407 -0.0012425839 833.34411)
(-0.0019687162 -0.0011827996 833.3432)
(-0.0011333475 -0.0011333475 833.34266)
(-0.00062486251 -0.0010946272 833.34233)
(-0.00015357816 -0.0010614999 833.34219)
(0.00028907396 -0.001028569 833.34224)
(0.00070421412 -0.0009902836 833.34249)
(0.0010919658 -0.00094024715 833.34292)
(0.0014551982 -0.00087329406 833.34354)
(0.00054379305 -0.00080334417 833.3444)
(-0.00083468301 -0.00068887562 833.34374)
(-0.0019312965 -0.0006608381 833.34284)
(-0.0010946272 -0.00062486251 833.34233)
(-0.00058899053 -0.00058899052 833.34201)
(-0.00011894965 -0.00055440558 833.34188)
(0.00032571575 -0.00051961353 833.34195)
(0.00074621523 -0.00048237 833.34221)
(0.0011404644 -0.00044112972 833.34266)
(0.0015026537 -0.00039791016 833.34331)
(0.00055824959 -0.00036431162 833.34419)
(-0.00082753239 -0.00020581016 833.34358)
(-0.0019047031 -0.00018500786 833.34269)
(-0.0010614999 -0.00015357817 833.34219)
(-0.00055440558 -0.00011894965 833.34188)
(-8.4201167e-05 -8.4201159e-05 833.34178)
(0.00036110954 -4.9738253e-05 833.34186)
(0.00078269793 -1.5127086e-05 833.34214)
(0.0011764256 1.9228797e-05 833.3426)
(0.0015320163 5.0222413e-05 833.34326)
(0.00056619207 7.0471286e-05 833.34415)
(-0.00082081481 0.00023049371 833.34362)
(-0.0018790645 0.00025449944 833.34273)
(-0.001028569 0.00028907395 833.34224)
(-0.00051961352 0.00032571574 833.34195)
(-4.9738252e-05 0.00036110955 833.34186)
(0.00039478982 0.00039478983 833.34196)
(0.00081518228 0.00042706764 833.34225)
(0.0012058139 0.00045747674 833.34273)
(0.0015538962 0.00048344507 833.3434)
(0.00057174884 0.0004995637 833.3443)
(-0.00081152857 0.00061768001 833.34383)
(-0.0018461229 0.00065789337 833.34296)
(-0.00099028361 0.00070421412 833.34249)
(-0.00048236999 0.00074621523 833.34221)
(-1.5127077e-05 0.00078269792 833.34214)
(0.00042706763 0.00081518228 833.34225)
(0.00084538483 0.00084538484 833.34255)
(0.0012328031 0.00087408893 833.34305)
(0.0015741033 0.00090002275 833.34373)
(0.00057693783 0.00091802593 833.34463)
(-0.00079400591 0.00093390085 833.34421)
(-0.0017925304 0.0010234749 833.34337)
(-0.00094024714 0.0010919658 833.34292)
(-0.00044112972 0.0011404644 833.34266)
(1.9228796e-05 0.0011764256 833.3426)
(0.00045747673 0.0012058139 833.34273)
(0.00087408893 0.0012328031 833.34305)
(0.0012604518 0.0012604518 833.34355)
(0.0015978332 0.0012905815 833.34425)
(0.00058375096 0.0013199003 833.34516)
(-0.00075181256 0.001117772 833.34475)
(-0.0016880579 0.0013657507 833.34396)
(-0.00087329406 0.0014551982 833.34354)
(-0.00039791015 0.0015026537 833.34331)
(5.022242e-05 0.0015320163 833.34326)
(0.00048344507 0.0015538962 833.3434)
(0.00090002274 0.0015741033 833.34373)
(0.0012905815 0.0015978332 833.34425)
(0.0016335518 0.0016335518 833.34497)
(0.00059648368 0.0017007539 833.3459)
(-0.00062868678 0.00038849055 833.34539)
(-0.0014551042 0.00051161633 833.34477)
(-0.00080334417 0.00054379305 833.3444)
(-0.00036431162 0.00055824959 833.34419)
(7.0471289e-05 0.00056619207 833.34415)
(0.00049956371 0.00057174884 833.3443)
(0.00091802593 0.00057693782 833.34463)
(0.0013199003 0.00058375097 833.34516)
(0.0017007539 0.00059648368 833.3459)
(0.00062855236 0.00062855236 833.34691)
(-0.0013395622 -0.0013395622 828.05333)
(-0.0030544884 -0.0011714643 828.05235)
(-0.0016866705 -0.0011334582 828.05183)
(-0.00093120662 -0.0011176604 828.05151)
(-0.00025566776 -0.0011076647 828.05138)
(0.00036560213 -0.0010981359 828.05144)
(0.00092854658 -0.0010848545 828.05167)
(0.0014075641 -0.0010596477 828.05208)
(0.0017279276 -0.00099861746 828.05263)
(0.00061154766 -0.00081957424 828.05331)
(-0.0011714643 -0.0030544884 828.05235)
(-0.0027453323 -0.0027453323 828.05149)
(-0.0016059646 -0.0026483473 828.051)
(-0.00089251639 -0.002596789 828.05069)
(-0.00022638112 -0.0025594927 828.05057)
(0.00039981744 -0.0025231134 828.05064)
(0.00098627899 -0.0024760632 828.05088)
(0.0015369196 -0.0023991895 828.05131)
(0.0020880378 -0.0022487635 828.05192)
(0.00079059088 -0.0019120926 828.05276)
(-0.0011334582 -0.0016866704 828.05183)
(-0.0026483473 -0.0016059646 828.051)
(-0.0015381271 -0.0015381271 828.05053)
(-0.00084235204 -0.0014841883 828.05023)
(-0.00018199218 -0.0014374952 828.05013)
(0.00044903164 -0.0013907228 828.0502)
(0.0010524704 -0.0013361106 828.05047)
(0.0016348638 -0.0012645951 828.05092)
(0.0022150245 -0.0011689647 828.05157)
(0.00083599488 -0.0010701833 828.05244)
(-0.0011176604 -0.00093120663 828.05151)
(-0.002596789 -0.00089251639 828.05069)
(-0.0014841883 -0.00084235204 828.05023)
(-0.00079188446 -0.00079188446 828.04996)
(-0.00013291564 -0.00074290406 828.04986)
(0.00050120198 -0.00069340511 828.04996)
(0.0011124067 -0.00064026836 828.05023)
(0.0017040656 -0.00058135696 828.0507)
(0.0022824497 -0.00051967431 828.05137)
(0.00085644515 -0.00047202719 828.05227)
(-0.0011076647 -0.00025566776 828.05138)
(-0.0025594927 -0.00022638112 828.05057)
(-0.0014374952 -0.00018199219 828.05013)
(-0.00074290406 -0.00013291564 828.04986)
(-8.3512823e-05 -8.3512821e-05 828.04978)
(0.00055166733 -3.4376488e-05 828.04989)
(0.0011645186 1.5093384e-05 828.05018)
(0.0017554578 6.4292224e-05 828.05067)
(0.0023243543 0.0001087155 828.05135)
(0.00086775962 0.0001377004 828.05226)
(-0.001098136 0.00036560213 828.05144)
(-0.0025231134 0.00039981744 828.05064)
(-0.0013907228 0.00044903164 828.0502)
(-0.0006934051 0.00050120199 828.04996)
(-3.4376487e-05 0.00055166734 828.04989)
(0.00059980819 0.0005998082 828.05001)
(0.0012110754 0.00064610936 828.05032)
(0.0017976877 0.00068994026 828.05082)
(0.0023558578 0.00072760114 828.05151)
(0.00087576841 0.0007511378 828.05242)
(-0.0010848545 0.00092854657 828.05167)
(-0.0024760632 0.00098627899 828.05088)
(-0.0013361106 0.0010524704 828.05047)
(-0.00064026835 0.0011124067 828.05023)
(1.5093387e-05 0.0011645186 828.05018)
(0.00064610935 0.0012110754 828.05032)
(0.0012546507 0.0012546507 828.05064)
(0.0018369496 0.0012965438 828.05115)
(0.0023855518 0.0013350919 828.05186)
(0.00088345073 0.0013625477 828.05278)
(-0.0010596477 0.0014075641 828.05208)
(-0.0023991895 0.0015369196 828.05131)
(-0.0012645951 0.0016348638 828.05092)
(-0.00058135696 0.0017040656 828.0507)
(6.4292226e-05 0.0017554578 828.05067)
(0.00068994027 0.0017976877 828.05082)
(0.0012965438 0.0018369496 828.05115)
(0.0018781289 0.0018781289 828.05168)
(0.0024218618 0.0019247593 828.0524)
(0.00089407231 0.0019725569 828.05333)
(-0.00099861746 0.0017279276 828.05263)
(-0.0022487635 0.0020880378 828.05192)
(-0.0011689647 0.0022150245 828.05157)
(-0.0005196743 0.0022824497 828.05137)
(0.00010871551 0.0023243543 828.05135)
(0.00072760114 0.0023558578 828.05151)
(0.0013350919 0.0023855518 828.05186)
(0.0019247593 0.0024218618 828.0524)
(0.0024799798 0.0024799798 828.05314)
(0.0009153158 0.0025971416 828.0541)
(-0.00081957424 0.00061154766 828.05331)
(-0.0019120926 0.00079059088 828.05276)
(-0.0010701833 0.00083599489 828.05244)
(-0.00047202719 0.00085644515 828.05227)
(0.00013770039 0.00086775962 828.05226)
(0.0007511378 0.00087576841 828.05242)
(0.0013625478 0.00088345073 828.05278)
(0.0019725569 0.0008940723 828.05333)
(0.0025971416 0.0009153158 828.0541)
(0.00097218015 0.00097218015 828.05513)
(-0.0016556864 -0.0016556864 822.87233)
(-0.0037750839 -0.0014473191 822.87141)
(-0.0020818901 -0.0014003137 822.87094)
(-0.0011365557 -0.001380575 822.87066)
(-0.00027838418 -0.0013679035 822.87056)
(0.00052117865 -0.0013556814 822.87064)
(0.0012562796 -0.0013385288 822.87089)
(0.0018961543 -0.0013058445 822.8713)
(0.0023480496 -0.0012264752 822.87187)
(0.00083655466 -0.0009930709 822.87254)
(-0.0014473191 -0.0037750839 822.87141)
(-0.0033920248 -0.0033920248 822.87061)
(-0.001981774 -0.0032717338 822.87016)
(-0.0010879404 -0.0032070506 822.8699)
(-0.0002410437 -0.003159661 822.86981)
(0.00056524072 -0.0031129901 822.86989)
(0.0013310349 -0.0030522878 822.87015)
(0.0020642346 -0.002952793 822.87059)
(0.0028172101 -0.0027576856 822.87121)
(0.001069959 -0.0023202933 822.87204)
(-0.0014003137 -0.0020818901 822.87094)
(-0.0032717338 -0.001981774 822.87016)
(-0.0018969158 -0.0018969158 822.86974)
(-0.0010244829 -0.0018287453 822.86949)
(-0.00018432371 -0.0017691904 822.86941)
(0.00062855187 -0.0017091379 822.8695)
(0.0014164767 -0.0016387432 822.86978)
(0.0021907565 -0.0015463977 822.87024)
(0.0029805493 -0.0014229565 822.87089)
(0.0011281495 -0.0012963171 822.87176)
(-0.001380575 -0.0011365557 822.87066)
(-0.0032070506 -0.0010879404 822.8699)
(-0.0018287453 -0.0010244828 822.86949)
(-0.00096021496 -0.00096021496 822.86924)
(-0.00012143627 -0.00089749227 822.86918)
(0.00069568785 -0.0008338392 822.86929)
(0.0014937751 -0.00076532106 822.86958)
(0.0022800214 -0.00068926185 822.87006)
(0.0030672906 -0.00060966595 822.87073)
(0.0011543852 -0.00054843551 822.87162)
(-0.0013679035 -0.00027838418 822.87056)
(-0.003159661 -0.0002410437 822.86981)
(-0.0017691904 -0.00018432373 822.86941)
(-0.00089749227 -0.00012143627 822.86918)
(-5.7947959e-05 -5.7947958e-05 822.86913)
(0.00076072308 5.3726961e-06 822.86925)
(0.001561054 6.9278855e-05 822.86956)
(0.0023464116 0.00013295129 822.87005)
(0.0031213756 0.00019049099 822.87074)
(0.0011689698 0.00022799841 822.87163)
(-0.0013556814 0.00052117864 822.87064)
(-0.0031129901 0.00056524071 822.86989)
(-0.0017091379 0.00062855186 822.8695)
(-0.0008338392 0.00069568785 822.86929)
(5.3727007e-06 0.00076072308 822.86925)
(0.00082291466 0.00082291467 822.86939)
(0.0016213537 0.00088293133 822.86971)
(0.0024012335 0.00093998251 822.87022)
(0.0031623377 0.0009892336 822.87091)
(0.0011793902 0.0010201514 822.87182)
(-0.0013385288 0.0012562796 822.87089)
(-0.0030522878 0.0013310349 822.87015)
(-0.0016387432 0.0014164767 822.86978)
(-0.00076532106 0.0014937751 822.86958)
(6.9278857e-05 0.001561054 822.86956)
(0.00088293133 0.0016213537 822.86971)
(0.0016781219 0.0016781219 822.87004)
(0.0024527138 0.0017331911 822.87056)
(0.0032015446 0.001784486 822.87127)
(0.0011895817 0.0018215409 822.87218)
(-0.0013058445 0.0018961543 822.8713)
(-0.002952793 0.0020642346 822.87059)
(-0.0015463977 0.0021907565 822.87024)
(-0.00068926184 0.0022800214 822.87006)
(0.00013295128 0.0023464116 822.87005)
(0.0009399825 0.0024012335 822.87022)
(0.0017331911 0.0024527138 822.87056)
(0.0025075976 0.0025075976 822.87109)
(0.0032506875 0.0025710936 822.87182)
(0.0012040935 0.0026376131 822.87274)
(-0.0012264752 0.0023480496 822.87187)
(-0.0027576856 0.0028172101 822.87121)
(-0.0014229565 0.0029805493 822.87089)
(-0.00060966595 0.0030672906 822.87073)
(0.000190491 0.0031213756 822.87074)
(0.0009892336 0.0031623377 822.87091)
(0.001784486 0.0032015446 822.87127)
(0.0025710936 0.0032506875 822.87182)
(0.00333156 0.00333156 822.87256)
(0.001233928 0.0034979623 822.87351)
(-0.0009930709 0.00083655467 822.87254)
(-0.0023202933 0.001069959 822.87204)
(-0.0012963171 0.0011281495 822.87176)
(-0.00054843552 0.0011543852 822.87162)
(0.00022799841 0.0011689698 822.87163)
(0.0010201514 0.0011793902 822.87182)
(0.0018215409 0.0011895817 822.87218)
(0.0026376131 0.0012040935 822.87274)
(0.0034979623 0.001233928 822.87351)
(0.0013150283 0.0013150283 822.87453)
(-0.0019526611 -0.0019526611 817.79895)
(-0.0044448775 -0.0017058093 817.79808)
(-0.0024369553 -0.0016503101 817.79766)
(-0.0013101728 -0.0016268733 817.79741)
(-0.00027786721 -0.0016116752 817.79734)
(0.00069242938 -0.0015968831 817.79743)
(0.0015931023 -0.0015760114 817.79769)
(0.0023872957 -0.0015361273 817.79811)
(0.0029625254 -0.0014391017 817.79866)
(0.0010580926 -0.0011534012 817.79932)
(-0.0017058093 -0.0044448775 817.79808)
(-0.0039913511 -0.0039913511 817.79733)
(-0.0023185514 -0.0038491311 817.79693)
(-0.0012522204 -0.0037721311 817.79669)
(-0.00023288181 -0.0037152027 817.79663)
(0.00074592499 -0.0036587135 817.79673)
(0.0016842359 -0.0035849044 817.797)
(0.0025926603 -0.0034636408 817.79744)
(0.0035366146 -0.003225533 817.79805)
(0.0013437931 -0.0026912902 817.79886)
(-0.0016503101 -0.0024369553 817.79766)
(-0.0038491311 -0.0023185514 817.79693)
(-0.0022177353 -0.0022177353 817.79654)
(-0.0011762445 -0.0021361794 817.79632)
(-0.00016444958 -0.0020644382 817.79627)
(0.00082272769 -0.0019917069 817.79638)
(0.001788175 -0.0019061657 817.79666)
(0.0027466671 -0.0017937858 817.79712)
(0.0037348759 -0.0016435979 817.79777)
(0.0014142544 -0.0014902218 817.79861)
(-0.0016268733 -0.0013101728 817.79741)
(-0.0037721311 -0.0012522204 817.79669)
(-0.0021361794 -0.0011762445 817.79632)
(-0.0010989233 -0.0010989233 817.79611)
(-8.8409257e-05 -0.0010231256 817.79607)
(0.00090419746 -0.00094592881 817.7962)
(0.0018821569 -0.00086263144 817.79649)
(0.0028552282 -0.00077006257 817.79697)
(0.0038401786 -0.00067322 817.79763)
(0.0014460438 -0.00059893563 817.79849)
(-0.0016116752 -0.00027786721 817.79734)
(-0.0037152027 -0.0002328818 817.79663)
(-0.0020644382 -0.00016444958 817.79627)
(-0.0010231256 -8.8409267e-05 817.79607)
(-1.1455084e-05 -1.1455087e-05 817.79604)
(0.0009832218 6.5484446e-05 817.79618)
(0.0019640413 0.0001433051 817.79649)
(0.0029360786 0.00022096463 817.79698)
(0.0039060029 0.00029119224 817.79766)
(0.0014637774 0.00033693593 817.79853)
(-0.0015968831 0.00069242938 817.79743)
(-0.0036587135 0.000745925 817.79673)
(-0.0019917069 0.00082272767 817.79638)
(-0.00094592881 0.00090419746 817.7962)
(6.5484456e-05 0.00098322181 817.79618)
(0.0010589576 0.0010589577 817.79633)
(0.0020376371 0.0011322582 817.79666)
(0.0030031153 0.0012021707 817.79716)
(0.0039561499 0.001262733 817.79785)
(0.0014765396 0.0013008609 817.79873)
(-0.0015760114 0.0015931023 817.79769)
(-0.0035849044 0.0016842359 817.797)
(-0.0019061657 0.001788175 817.79666)
(-0.00086263142 0.0018821569 817.79649)
(0.00014330511 0.0019640413 817.79649)
(0.0011322582 0.0020376371 817.79666)
(0.0021072543 0.0021072543 817.797)
(0.0030665534 0.0021752429 817.79751)
(0.0040046931 0.0022390915 817.79821)
(0.0014891959 0.0022856008 817.7991)
(-0.0015361273 0.0023872957 817.79811)
(-0.0034636407 0.0025926603 817.79744)
(-0.0017937858 0.0027466671 817.79712)
(-0.00077006257 0.0028552282 817.79697)
(0.00022096464 0.0029360786 817.79698)
(0.0012021707 0.0030031153 817.79716)
(0.0021752429 0.0030665534 817.79751)
(0.0031349525 0.0031349525 817.79804)
(0.0040665078 0.0032151067 817.79876)
(0.0015075458 0.0033000118 817.79965)
(-0.0014391017 0.0029625254 817.79866)
(-0.003225533 0.0035366146 817.79805)
(-0.0016435979 0.0037348759 817.79777)
(-0.00067322001 0.0038401786 817.79763)
(0.00029119225 0.0039060029 817.79766)
(0.001262733 0.0039561499 817.79785)
(0.0022390915 0.0040046931 817.79821)
(0.0032151067 0.0040665078 817.79876)
(0.0041697524 0.0041697524 817.79949)
(0.0015457993 0.0043840954 817.80041)
(-0.0011534012 0.0010580926 817.79932)
(-0.0026912902 0.0013437931 817.79886)
(-0.0014902218 0.0014142544 817.79861)
(-0.00059893563 0.0014460438 817.79849)
(0.00033693594 0.0014637774 817.79853)
(0.0013008609 0.0014765396 817.79873)
(0.0022856008 0.0014891959 817.7991)
(0.0033000118 0.0015075458 817.79965)
(0.0043840954 0.0015457993 817.80041)
(0.0016504411 0.0016504411 817.8014)
(-0.0022310796 -0.0022310796 812.8295)
(-0.0050674115 -0.0019476479 812.82869)
(-0.0027569539 -0.0018841301 812.8283)
(-0.0014566705 -0.0018572154 812.82808)
(-0.00025864323 -0.0018396339 812.82803)
(0.00087397013 -0.001822403 812.82814)
(0.0019318812 -0.0017979873 812.8284)
(0.0028718425 -0.0017512332 812.82881)
(0.0035615731 -0.0016373598 812.82935)
(0.0012730048 -0.0013017657 812.82998)
(-0.0019476479 -0.0050674115 812.82869)
(-0.0045469872 -0.0045469872 812.82799)
(-0.0026213052 -0.0043841058 812.82762)
(-0.0013899264 -0.0042955273 812.82742)
(-0.00020642452 -0.0042295995 812.82737)
(0.00093644004 -0.004163795 812.82748)
(0.0020386358 -0.0040775016 812.82776)
(0.0031127838 -0.0039354728 812.82819)
(0.0042357744 -0.0036563461 812.82878)
(0.0016085989 -0.0030297437 812.82956)
(-0.0018841301 -0.0027569539 812.8283)
(-0.0043841058 -0.0026213052 812.82762)
(-0.002505494 -0.002505494 812.82727)
(-0.0013021642 -0.0024113456 812.82708)
(-0.00012691085 -0.002328093 812.82704)
(0.001026068 -0.0022433275 812.82717)
(0.0021602033 -0.002143361 812.82745)
(0.003292998 -0.0020118739 812.8279)
(0.0044673023 -0.0018361806 812.82853)
(0.0016907398 -0.0016573507 812.82934)
(-0.0018572154 -0.0014566705 812.82808)
(-0.0042955273 -0.0013899264 812.82742)
(-0.0024113456 -0.0013021642 812.82708)
(-0.0012125254 -0.0012125254 812.8269)
(-3.8406462e-05 -0.0011243451 812.82687)
(0.0011211721 -0.0010342731 812.82701)
(0.0022700894 -0.00093688553 812.82731)
(0.0034199642 -0.00082855533 812.82778)
(0.0045902975 -0.00071524904 812.82842)
(0.0017278188 -0.00062852043 812.82925)
(-0.0018396339 -0.00025864323 812.82803)
(-0.0042295995 -0.00020642451 812.82737)
(-0.002328093 -0.00012691086 812.82704)
(-0.0011243451 -3.8406465e-05 812.82687)
(5.1341406e-05 5.1341397e-05 812.82686)
(0.0012135276 0.00014125974 812.82701)
(0.002365921 0.00023237754 812.82732)
(0.0035146345 0.00032342736 812.8278)
(0.0046673372 0.0004058078 812.82846)
(0.0017485588 0.00045943349 812.8293)
(-0.001822403 0.00087397013 812.82814)
(-0.0041637949 0.00093644005 812.82748)
(-0.0022433275 0.001026068 812.82717)
(-0.0010342731 0.0011211721 812.82701)
(0.00014125974 0.0012135275 812.82701)
(0.0013022082 0.0013022082 812.82717)
(0.002452257 0.0013882466 812.8275)
(0.0035933944 0.0014705266 812.82799)
(0.0047263036 0.0015419846 812.82866)
(0.0017635692 0.0015870582 812.8295)
(-0.0017979873 0.0019318812 812.8284)
(-0.0040775016 0.0020386358 812.82776)
(-0.002143361 0.0021602033 812.82745)
(-0.00093688554 0.0022700894 812.82731)
(0.00023237754 0.002365921 812.82732)
(0.0013882466 0.002452257 812.8275)
(0.0025342394 0.0025342394 812.82784)
(0.0036683725 0.0026147103 812.82834)
(0.0047838689 0.0026907147 812.82902)
(0.0017786079 0.0027463773 812.82987)
(-0.0017512332 0.0028718425 812.82881)
(-0.0039354728 0.0031127837 812.82819)
(-0.0020118739 0.003292998 812.8279)
(-0.00082855533 0.0034199642 812.82778)
(0.00032342737 0.0035146345 812.8278)
(0.0014705266 0.0035933944 812.82799)
(0.0026147103 0.0036683725 812.82834)
(0.0037498698 0.0037498697 812.82886)
(0.0048579705 0.0038461804 812.82955)
(0.0018006776 0.0039488791 812.83041)
(-0.0016373598 0.0035615731 812.82935)
(-0.0036563461 0.0042357744 812.82878)
(-0.0018361806 0.0044673023 812.82853)
(-0.00071524904 0.0045902975 812.82842)
(0.00040580781 0.0046673372 812.82846)
(0.0015419846 0.0047263036 812.82866)
(0.0026907147 0.0047838689 812.82902)
(0.0038461804 0.0048579705 812.82955)
(0.0049828782 0.0049828782 812.83026)
(0.0018470737 0.005243508 812.83114)
(-0.0013017657 0.0012730048 812.82998)
(-0.0030297437 0.0016085989 812.82956)
(-0.0016573507 0.0016907398 812.82934)
(-0.00062852043 0.0017278188 812.82925)
(0.00045943348 0.0017485588 812.8293)
(0.0015870582 0.0017635692 812.8295)
(0.0027463773 0.001778608 812.82987)
(0.003948879 0.0018006776 812.83041)
(0.0052435079 0.0018470737 812.83114)
(0.0019744308 0.0019744308 812.83209)
(-0.0024904661 -0.0024904661 807.96039)
(-0.0056431678 -0.0021725501 807.95964)
(-0.0030447558 -0.0021015073 807.95929)
(-0.0015796415 -0.0020713358 807.9591)
(-0.00022488148 -0.0020515174 807.95906)
(0.0010607968 -0.0020319881 807.95918)
(0.0022665336 -0.0020042239 807.95944)
(0.0033427897 -0.0019509726 807.95984)
(0.0041382178 -0.0018211633 807.96036)
(0.0014790919 -0.0014383715 807.96096)
(-0.0021725501 -0.0056431678 807.95964)
(-0.0050597296 -0.0050597296 807.959)
(-0.0028929344 -0.0048774826 807.95866)
(-0.0015046566 -0.0047780635 807.95848)
(-0.00016585994 -0.0047036886 807.95845)
(0.001131737 -0.0046291079 807.95857)
(0.0023880569 -0.0045310224 807.95884)
(0.0036173807 -0.0043693607 807.95926)
(0.0049071194 -0.004051448 807.95983)
(0.0018618836 -0.00333752 807.96057)
(-0.0021015073 -0.0030447558 807.95929)
(-0.0048774826 -0.0028929344 807.95866)
(-0.0027630896 -0.0027630896 807.95834)
(-0.0014058475 -0.0026571447 807.95817)
(-7.5925944e-05 -0.0025630793 807.95816)
(0.001233463 -0.0024669734 807.95829)
(0.0025262808 -0.002353382 807.95857)
(0.0038223642 -0.0022038318 807.95901)
(0.0051700586 -0.0020040319 807.95961)
(0.0019550439 -0.0018011817 807.96038)
(-0.0020713358 -0.0015796415 807.9591)
(-0.0047780635 -0.0015046566 807.95848)
(-0.0026571447 -0.0014058475 807.95817)