/*--------------------------------*- C++ -*----------------------------------*\
| =========                 |                                                 |
| \\      /  F ield         | OpenFOAM: The Open Source CFD Toolbox           |
|  \\    /   O peration     | Version:  v2106                                 |
|   \\  /    A nd           | Website:  www.openfoam.com                      |
|    \\/     M anipulation  |                                                 |
\*---------------------------------------------------------------------------*/
FoamFile
{
    version     2.0;
    format      ascii;
    arch        "LSB;label=32;scalar=64";
    class       volScalarField;
    location    "40";
    object      calFieldValue;
}
// * * * * * * * * * * * * * * * * * * * * * * * * * * * * * * * * * * * * * //

dimensions      [0 0 0 1 0 0 0];

internalField   nonuniform List<scalar> 
4000
(
275.9787
275.9787
275.9787
275.9787
275.9787
275.9787
275.9787
275.9787
275.9787
275.9787
275.9787
275.97871
275.9787
275.9787
275.9787
275.9787
275.9787
275.9787
275.9787
275.9787
275.9787
275.9787
275.9787
275.9787
275.9787
275.9787
275.9787
275.9787
275.9787
275.9787
275.9787
275.9787
275.9787
275.9787
275.9787
275.9787
275.9787
275.9787
275.9787
275.9787
275.9787
275.9787
275.9787
275.9787
275.9787
275.9787
275.9787
275.9787
275.9787
275.9787
275.9787
275.9787
275.9787
275.9787
275.9787
275.9787
275.9787
275.9787
275.9787
275.9787
275.9787
275.9787
275.9787
275.9787
275.9787
275.9787
275.9787
275.9787
275.9787
275.9787
275.9787
275.9787
275.9787
275.9787
275.9787
275.9787
275.9787
275.9787
275.9787
275.9787
275.9787
275.9787
275.9787
275.9787
275.9787
275.9787
275.9787
275.9787
275.9787
275.9787
275.9787
275.9787
275.9787
275.9787
275.9787
275.9787
275.9787
275.9787
275.9787
275.9787
283.17424
283.17424
283.17424
283.17423
283.17423
283.1742
283.17421
283.17424
283.17424
283.17424
283.17424
283.17424
283.17423
283.17423
283.17423
283.1742
283.17421
283.17421
283.17424
283.17424
283.17424
283.17423
283.17423
283.17423
283.1742
283.1742
283.17421
283.17421
283.17424
283.17424
283.17423
283.17423
283.17423
283.1742
283.1742
283.1742
283.1742
283.1742
283.17423
283.17423
283.17423
283.17423
283.1742
283.1742
283.1742
283.1742
283.1742
283.1742
283.1742
283.17423
283.1742
283.1742
283.1742
283.1742
283.1742
283.1742
283.1742
283.1742
283.17423
283.17423
283.17421
283.17421
283.17421
283.1742
283.1742
283.1742
283.1742
283.17423
283.17423
283.17423
283.17424
283.17421
283.17421
283.1742
283.1742
283.1742
283.17423
283.17423
283.17423
283.17426
283.17424
283.17424
283.17424
283.17423
283.1742
283.17423
283.17423
283.17423
283.17426
283.17426
283.17424
283.17424
283.17424
283.17423
283.17423
283.17423
283.17423
283.17426
283.17426
283.17426
290.37377
290.37377
290.37377
290.37376
290.37373
290.37374
290.37374
290.37374
290.37375
290.37375
290.37377
290.37377
290.37377
290.37376
290.37373
290.37374
290.37374
290.37374
290.37375
290.37377
290.37377
290.37377
290.37376
290.37373
290.37373
290.37371
290.37374
290.37374
290.37374
290.37374
290.37376
290.37376
290.37373
290.37373
290.3737
290.3737
290.37371
290.37374
290.37374
290.37374
290.37373
290.37373
290.37373
290.3737
290.3737
290.3737
290.3737
290.37373
290.37374
290.37374
290.37374
290.37374
290.37371
290.3737
290.3737
290.3737
290.3737
290.37373
290.37374
290.37377
290.37374
290.37374
290.37374
290.37371
290.3737
290.3737
290.37373
290.37374
290.37377
290.37377
290.37374
290.37374
290.37374
290.37374
290.37373
290.37373
290.37374
290.37376
290.37379
290.3738
290.37375
290.37375
290.37374
290.37374
290.37374
290.37374
290.37377
290.37379
290.3738
290.3738
290.37375
290.37377
290.37374
290.37374
290.37374
290.37377
290.37377
290.3738
290.3738
290.37383
297.57995
297.57995
297.57992
297.57991
297.57988
297.57988
297.57989
297.57989
297.57992
297.57993
297.57995
297.57995
297.57991
297.57991
297.57988
297.57988
297.57989
297.57989
297.57992
297.57992
297.57992
297.57991
297.57991
297.57988
297.57985
297.57985
297.57986
297.57989
297.57989
297.57992
297.57991
297.57991
297.57988
297.57987
297.57984
297.57985
297.57985
297.57988
297.57989
297.57992
297.57988
297.57988
297.57985
297.57984
297.57982
297.57982
297.57985
297.57988
297.57988
297.57991
297.57988
297.57988
297.57985
297.57985
297.57982
297.57982
297.57985
297.57988
297.57991
297.57991
297.57989
297.57989
297.57986
297.57985
297.57985
297.57985
297.57988
297.57991
297.57994
297.57994
297.57989
297.57989
297.57989
297.57988
297.57988
297.57988
297.57991
297.57994
297.57997
297.57997
297.57992
297.57992
297.57989
297.57989
297.57988
297.57991
297.57994
297.57997
297.57997
297.58
297.57993
297.57992
297.57992
297.57992
297.57991
297.57991
297.57994
297.57997
297.58
297.58
304.79528
304.79528
304.79525
304.79524
304.79521
304.79522
304.79522
304.79523
304.79526
304.79526
304.79528
304.79525
304.79525
304.79521
304.79519
304.79519
304.7952
304.79523
304.79526
304.79526
304.79525
304.79525
304.79521
304.79521
304.79518
304.79519
304.79519
304.79523
304.79523
304.79526
304.79524
304.79521
304.79521
304.79517
304.79515
304.79515
304.79518
304.79522
304.79522
304.79525
304.79521
304.79519
304.79518
304.79515
304.79515
304.79515
304.79518
304.79521
304.79525
304.79525
304.79522
304.79519
304.79519
304.79515
304.79515
304.79515
304.79518
304.79521
304.79524
304.79527
304.79522
304.7952
304.79519
304.79518
304.79518
304.79518
304.79521
304.79524
304.79527
304.7953
304.79523
304.79523
304.79523
304.79522
304.79521
304.79521
304.79524
304.7953
304.79531
304.79533
304.79526
304.79526
304.79523
304.79522
304.79525
304.79524
304.79527
304.79531
304.79534
304.79537
304.79526
304.79526
304.79526
304.79525
304.79525
304.79527
304.7953
304.79533
304.79537
304.79537
312.02224
312.02223
312.0222
312.02219
312.02217
312.02217
312.02218
312.02221
312.02222
312.02222
312.02223
312.02223
312.0222
312.02216
312.02214
312.02214
312.02218
312.02218
312.02221
312.02224
312.0222
312.0222
312.02217
312.02216
312.02213
312.02214
312.02214
312.02218
312.02221
312.02221
312.02219
312.02216
312.02216
312.02212
312.0221
312.0221
312.02213
312.02217
312.0222
312.02223
312.02217
312.02214
312.02213
312.0221
312.02207
312.0221
312.02213
312.02216
312.0222
312.02223
312.02217
312.02214
312.02214
312.0221
312.0221
312.0221
312.02216
312.02219
312.02222
312.02225
312.02218
312.02218
312.02214
312.02213
312.02213
312.02216
312.02218
312.02222
312.02228
312.02228
312.02221
312.02218
312.02218
312.02217
312.02216
312.02219
312.02222
312.02228
312.02231
312.02234
312.02222
312.02221
312.02221
312.0222
312.0222
312.02222
312.02228
312.02231
312.02235
312.02237
312.02222
312.02224
312.02221
312.02223
312.02223
312.02225
312.02228
312.02234
312.02237
312.02238
319.26315
319.26315
319.26312
319.26311
319.26308
319.26306
319.26309
319.26313
319.26313
319.26316
319.26315
319.26312
319.26311
319.26308
319.26305
319.26306
319.26306
319.2631
319.26313
319.26316
319.26312
319.26311
319.26308
319.26304
319.26302
319.26302
319.26306
319.26309
319.26313
319.26315
319.26311
319.26308
319.26304
319.26301
319.26301
319.26301
319.26304
319.26308
319.26312
319.26315
319.26308
319.26305
319.26302
319.26301
319.26298
319.26298
319.26304
319.26307
319.26314
319.26317
319.26306
319.26306
319.26302
319.26301
319.26298
319.26301
319.26306
319.26313
319.26316
319.26319
319.26309
319.26306
319.26306
319.26304
319.26304
319.26306
319.26312
319.26316
319.26322
319.26325
319.26313
319.2631
319.26309
319.26308
319.26307
319.26313
319.26316
319.26322
319.26325
319.26328
319.26313
319.26313
319.26313
319.26312
319.26314
319.26316
319.26322
319.26325
319.26331
319.26332
319.26316
319.26316
319.26315
319.26315
319.26317
319.26319
319.26325
319.26328
319.26332
319.26334
326.52018
326.52018
326.52015
326.52011
326.52008
326.52009
326.52012
326.52016
326.52019
326.5202
326.52018
326.52015
326.52015
326.52011
326.52008
326.52008
326.52009
326.52016
326.52019
326.52022
326.52015
326.52015
326.52011
326.52007
326.52004
326.52005
326.52008
326.52012
326.52018
326.52018
326.52011
326.52011
326.52007
326.52004
326.52001
326.52004
326.52007
326.52014
326.52017
326.5202
326.52008
326.52008
326.52004
326.52001
326.52
326.52
326.52006
326.52013
326.52019
326.52022
326.52009
326.52008
326.52005
326.52004
326.52
326.52003
326.52009
326.52015
326.52021
326.52024
326.52012
326.52009
326.52008
326.52007
326.52006
326.52009
326.52014
326.52023
326.52027
326.5203
326.52016
326.52016
326.52012
326.52014
326.52013
326.52015
326.52023
326.5203
326.52033
326.52037
326.52019
326.52019
326.52018
326.52017
326.52019
326.52021
326.52027
326.52033
326.52037
326.5204
326.5202
326.52022
326.52018
326.5202
326.52022
326.52024
326.5203
326.52037
326.5204
326.52043
333.79532
333.79529
333.79526
333.79525
333.79521
333.79522
333.79526
333.79529
333.79533
333.79536
333.79529
333.79529
333.79525
333.79521
333.79518
333.79519
333.79522
333.79529
333.79532
333.79535
333.79526
333.79525
333.79522
333.79518
333.79515
333.79518
333.79522
333.79528
333.79532
333.79535
333.79525
333.79521
333.79518
333.79514
333.79514
333.79514
333.7952
333.79527
333.7953
333.79533
333.79521
333.79518
333.79515
333.79514
333.79511
333.79513
333.79519
333.79526
333.79532
333.79535
333.79522
333.79519
333.79518
333.79514
333.79513
333.79516
333.79524
333.79531
333.79537
333.7954
333.79526
333.79522
333.79522
333.7952
333.79519
333.79524
333.7953
333.79539
333.79543
333.79549
333.79529
333.79529
333.79528
333.79527
333.79526
333.79531
333.79539
333.79546
333.79552
333.79553
333.79533
333.79532
333.79532
333.7953
333.79532
333.79537
333.79543
333.79552
333.79556
333.79559
333.79536
333.79535
333.79535
333.79533
333.79535
333.7954
333.79549
333.79553
333.79559
333.79559
341.09028
341.09028
341.09025
341.09023
341.0902
341.09021
341.09024
341.09028
341.09034
341.09035
341.09028
341.09028
341.09024
341.0902
341.09017
341.09018
341.09024
341.09028
341.09034
341.09037
341.09025
341.09024
341.0902
341.09016
341.09013
341.09017
341.0902
341.09027
341.09033
341.09036
341.09023
341.0902
341.09016
341.09013
341.09009
341.09012
341.09018
341.09025
341.09032
341.09035
341.0902
341.09017
341.09013
341.09009
341.09009
341.09012
341.0902
341.09027
341.09033
341.09036
341.09021
341.09018
341.09017
341.09012
341.09012
341.09017
341.09022
341.09032
341.09038
341.09044
341.09024
341.09024
341.0902
341.09018
341.0902
341.09022
341.09031
341.0904
341.09046
341.0905
341.09028
341.09028
341.09027
341.09025
341.09027
341.09032
341.0904
341.09049
341.09053
341.09056
341.09034
341.09034
341.09033
341.09032
341.09033
341.09038
341.09046
341.09053
341.0906
341.09063
341.09035
341.09037
341.09036
341.09035
341.09036
341.09044
341.0905
341.09056
341.09063
341.09063
348.40667
348.40666
348.40663
348.40659
348.40658
348.40659
348.40662
348.40669
348.40672
348.40676
348.40666
348.40664
348.4066
348.40658
348.40655
348.40656
348.40662
348.40666
348.40672
348.40675
348.40663
348.4066
348.40656
348.40654
348.40651
348.40652
348.40658
348.40665
348.40671
348.40674
348.40659
348.40658
348.40654
348.4065
348.40647
348.4065
348.40659
348.40666
348.40672
348.40675
348.40658
348.40655
348.40651
348.40647
348.40646
348.40649
348.40658
348.40667
348.40674
348.40677
348.40659
348.40656
348.40652
348.4065
348.40649
348.40654
348.40663
348.40672
348.40678
348.40684
348.40662
348.40662
348.40658
348.40659
348.40658
348.40663
348.40671
348.4068
348.40689
348.40693
348.40669
348.40666
348.40665
348.40666
348.40667
348.40672
348.4068
348.4069
348.40696
348.407
348.40672
348.40672
348.40671
348.40672
348.40674
348.40678
348.40689
348.40696
348.40703
348.40706
348.40676
348.40675
348.40674
348.40675
348.40677
348.40684
348.40693
348.407
348.40706
348.40706
355.7457
355.74567
355.74563
355.74562
355.74558
355.74559
355.74565
355.74572
355.74575
355.74579
355.74567
355.74567
355.74563
355.74558
355.74555
355.74558
355.74565
355.74571
355.74578
355.74581
355.74563
355.74563
355.74559
355.74554
355.74551
355.74554
355.74561
355.7457
355.74577
355.7458
355.74562
355.74558
355.74554
355.7455
355.7455
355.74552
355.74561
355.74568
355.74575
355.74581
355.74558
355.74555
355.74551
355.7455
355.74549
355.74551
355.7456
355.74569
355.74579
355.74582
355.74559
355.74558
355.74554
355.74552
355.74551
355.74556
355.74567
355.74577
355.74586
355.74589
355.74565
355.74565
355.74561
355.74561
355.7456
355.74567
355.74576
355.74588
355.74594
355.74598
355.74572
355.74571
355.7457
355.74568
355.74569
355.74577
355.74588
355.74597
355.74604
355.74607
355.74575
355.74578
355.74577
355.74575
355.74579
355.74586
355.74594
355.74604
355.74611
355.74614
355.74579
355.74581
355.7458
355.74581
355.74582
355.74589
355.74598
355.74607
355.74614
355.74614
363.10832
363.10829
363.10826
363.10824
363.1082
363.10824
363.10827
363.10834
363.1084
363.10844
363.10829
363.10829
363.10825
363.10821
363.10817
363.1082
363.10827
363.10834
363.1084
363.10846
363.10826
363.10825
363.10821
363.10817
363.10813
363.10816
363.10825
363.10832
363.10839
363.10844
363.10824
363.10821
363.10817
363.10812
363.10811
363.10814
363.10823
363.10833
363.10842
363.10845
363.1082
363.10817
363.10813
363.10811
363.1081
363.10816
363.10824
363.10837
363.10843
363.10849
363.10824
363.1082
363.10816
363.10814
363.10816
363.1082
363.10832
363.10841
363.1085
363.10856
363.10827
363.10827
363.10825
363.10823
363.10824
363.10832
363.10843
363.10852
363.10861
363.10865
363.10834
363.10834
363.10832
363.10833
363.10837
363.10841
363.10852
363.10864
363.10871
363.10875
363.1084
363.1084
363.10839
363.10842
363.10843
363.1085
363.10861
363.10871
363.10878
363.10881
363.10844
363.10846
363.10844
363.10845
363.10849
363.10856
363.10865
363.10875
363.10881
363.10884
370.49519
370.49519
370.49515
370.49513
370.49509
370.4951
370.49516
370.49523
370.49529
370.49533
370.49519
370.49516
370.49512
370.4951
370.49506
370.49509
370.49516
370.49522
370.49532
370.49535
370.49515
370.49512
370.49507
370.49503
370.49502
370.49505
370.49514
370.49521
370.4953
370.49533
370.49513
370.4951
370.49503
370.49501
370.495
370.49503
370.49512
370.49522
370.49531
370.49534
370.49509
370.49506
370.49502
370.495
370.49499
370.49504
370.49513
370.49525
370.49534
370.4954
370.4951
370.49509
370.49505
370.49503
370.49504
370.49509
370.4952
370.49532
370.49541
370.49547
370.49516
370.49516
370.49514
370.49512
370.49513
370.4952
370.49531
370.49543
370.49553
370.49559
370.49523
370.49522
370.49521
370.49522
370.49525
370.49532
370.49543
370.49555
370.49562
370.49566
370.49529
370.49532
370.4953
370.49531
370.49534
370.49541
370.49553
370.49562
370.49569
370.49572
370.49533
370.49535
370.49533
370.49534
370.4954
370.49547
370.49559
370.49566
370.49572
370.49575
377.90663
377.9066
377.90659
377.90654
377.90653
377.90653
377.9066
377.90669
377.90676
377.90679
377.9066
377.90659
377.90655
377.9065
377.9065
377.90653
377.90659
377.90669
377.90675
377.90681
377.90659
377.90655
377.90651
377.90646
377.90645
377.90648
377.90657
377.90667
377.90674
377.90679
377.90654
377.9065
377.90646
377.90644
377.90643
377.90646
377.90658
377.90667
377.90677
377.9068
377.90653
377.9065
377.90645
377.90643
377.90642
377.90647
377.90658
377.90671
377.9068
377.90686
377.90653
377.90653
377.90648
377.90646
377.90647
377.90654
377.90665
377.90678
377.90687
377.90693
377.9066
377.90659
377.90657
377.90658
377.90658
377.90665
377.90679
377.90691
377.90701
377.90704
377.90669
377.90669
377.90667
377.90667
377.90671
377.90678
377.90691
377.90701
377.90711
377.90714
377.90676
377.90675
377.90674
377.90677
377.9068
377.90687
377.90701
377.90711
377.90718
377.90721
377.90679
377.90681
377.90679
377.9068
377.90686
377.90693
377.90704
377.90714
377.90721
377.90724
385.34256
385.34253
385.34252
385.34247
385.34246
385.34249
385.34255
385.34264
385.34271
385.34274
385.34253
385.34252
385.34248
385.34243
385.34242
385.34245
385.34254
385.34261
385.3427
385.34273
385.34252
385.34248
385.34244
385.34239
385.34238
385.34243
385.34253
385.34262
385.34269
385.34274
385.34247
385.34243
385.34239
385.34237
385.34236
385.34241
385.34253
385.34262
385.34272
385.34275
385.34246
385.34242
385.34238
385.34236
385.34234
385.34242
385.34253
385.34265
385.34275
385.34281
385.34249
385.34245
385.34243
385.34241
385.34242
385.34249
385.3426
385.34272
385.34284
385.3429
385.34255
385.34254
385.34253
385.34253
385.34253
385.3426
385.34273
385.34286
385.34295
385.34302
385.34264
385.34261
385.34262
385.34262
385.34265
385.34272
385.34286
385.34298
385.34308
385.34312
385.34271
385.3427
385.34269
385.34272
385.34275
385.34284
385.34295
385.34308
385.34315
385.34318
385.34274
385.34273
385.34274
385.34275
385.34281
385.3429
385.34302
385.34312
385.34318
385.34321
392.80253
392.80253
392.80249
392.80247
392.80245
392.80248
392.80254
392.80264
392.8027
392.80273
392.80253
392.80249
392.80248
392.80243
392.80242
392.80244
392.80254
392.80263
392.80272
392.80275
392.80249
392.80248
392.80243
392.80238
392.80237
392.80243
392.80252
392.80262
392.80271
392.80276
392.80247
392.80243
392.80238
392.80236
392.80235
392.8024
392.80252
392.80264
392.80274
392.80277
392.80245
392.80242
392.80237
392.80235
392.80236
392.8024
392.80255
392.80267
392.80276
392.80283
392.80248
392.80244
392.80243
392.8024
392.8024
392.80248
392.80261
392.80276
392.80286
392.80292
392.80254
392.80254
392.80252
392.80252
392.80255
392.80261
392.80275
392.8029
392.803
392.80303
392.80264
392.80263
392.80262
392.80264
392.80267
392.80276
392.8029
392.80303
392.8031
392.80316
392.8027
392.80272
392.80271
392.80274
392.80276
392.80286
392.803
392.8031
392.80319
392.80322
392.80273
392.80275
392.80276
392.80277
392.80283
392.80292
392.80303
392.80316
392.80322
392.80326
400.28577
400.28577
400.28573
400.28571
400.28569
400.28572
400.28578
400.28588
400.28597
400.286
400.28577
400.28574
400.28572
400.28567
400.28566
400.28568
400.28577
400.28587
400.28596
400.28602
400.28573
400.28572
400.28568
400.28563
400.28561
400.28566
400.28576
400.28588
400.28597
400.286
400.28571
400.28567
400.28563
400.2856
400.28559
400.28564
400.28578
400.28588
400.28597
400.28603
400.28569
400.28566
400.28561
400.28559
400.28559
400.28567
400.28578
400.28593
400.28603
400.28609
400.28572
400.28568
400.28566
400.28564
400.28567
400.28574
400.28587
400.28602
400.28612
400.28618
400.28578
400.28577
400.28576
400.28578
400.28578
400.28587
400.28601
400.28616
400.28626
400.28632
400.28588
400.28587
400.28588
400.28588
400.28593
400.28602
400.28616
400.28629
400.28639
400.28642
400.28597
400.28596
400.28597
400.28597
400.28603
400.28612
400.28626
400.28639
400.28646
400.28649
400.286
400.28602
400.286
400.28603
400.28609
400.28618
400.28632
400.28642
400.28649
400.28652
407.79104
407.79104
407.79099
407.79097
407.79096
407.79098
407.79107
407.79117
407.79123
407.79126
407.79104
407.791
407.79096
407.79093
407.79092
407.79094
407.79106
407.79116
407.79125
407.79128
407.79099
407.79096
407.79094
407.79089
407.79087
407.79092
407.79104
407.79114
407.79123
407.79129
407.79097
407.79093
407.79089
407.79086
407.79085
407.79092
407.79104
407.79116
407.79126
407.79132
407.79096
407.79092
407.79087
407.79085
407.79085
407.79092
407.79106
407.79119
407.79131
407.79137
407.79098
407.79094
407.79092
407.79092
407.79092
407.79102
407.79115
407.79131
407.7914
407.79146
407.79107
407.79106
407.79104
407.79104
407.79106
407.79115
407.79129
407.79144
407.79154
407.79161
407.79117
407.79116
407.79114
407.79116
407.79119
407.79131
407.79144
407.79157
407.79167
407.79171
407.79123
407.79125
407.79123
407.79126
407.79131
407.7914
407.79154
407.79167
407.79174
407.7918
407.79126
407.79128
407.79129
407.79132
407.79137
407.79146
407.79161
407.79171
407.7918
407.79183
415.31671
415.31671
415.31667
415.31664
415.31662
415.31668
415.31674
415.31686
415.31693
415.31696
415.31671
415.31667
415.31666
415.3166
415.31659
415.31664
415.31673
415.31685
415.31695
415.31698
415.31667
415.31666
415.31661
415.31658
415.31657
415.31662
415.31674
415.31683
415.31692
415.31698
415.31664
415.3166
415.31658
415.31653
415.31654
415.31661
415.31673
415.31686
415.31695
415.31701
415.31662
415.31659
415.31657
415.31654
415.31654
415.31661
415.31675
415.3169
415.317
415.31706
415.31668
415.31664
415.31662
415.31661
415.31661
415.3167
415.31684
415.31699
415.31712
415.31718
415.31674
415.31673
415.31674
415.31673
415.31675
415.31684
415.317
415.31713
415.31725
415.31732
415.31686
415.31685
415.31683
415.31686
415.3169
415.31699
415.31713
415.31728
415.31738
415.31742
415.31693
415.31695
415.31692
415.31695
415.317
415.31712
415.31725
415.31738
415.31745
415.31748
415.31696
415.31698
415.31698
415.31701
415.31706
415.31718
415.31732
415.31742
415.31748
415.31752
422.86083
422.86082
422.86078
422.86076
422.86073
422.86079
422.86088
422.86097
422.86106
422.86109
422.86082
422.86079
422.86077
422.86072
422.86072
422.86075
422.86087
422.86096
422.86105
422.86111
422.86078
422.86077
422.86072
422.8607
422.86068
422.86073
422.86084
422.86097
422.86106
422.86112
422.86076
422.86072
422.8607
422.86067
422.86065
422.86072
422.86086
422.86099
422.86108
422.86114
422.86073
422.86072
422.86068
422.86065
422.86067
422.86074
422.86088
422.86101
422.86113
422.86119
422.86079
422.86075
422.86073
422.86072
422.86074
422.86084
422.86097
422.86112
422.86125
422.86131
422.86088
422.86087
422.86084
422.86086
422.86088
422.86097
422.86111
422.86126
422.86139
422.86145
422.86097
422.86096
422.86097
422.86099
422.86101
422.86112
422.86126
422.86141
422.86151
422.86155
422.86106
422.86105
422.86106
422.86108
422.86113
422.86125
422.86139
422.86151
422.86158
422.86162
422.86109
422.86111
422.86112
422.86114
422.86119
422.86131
422.86145
422.86155
422.86162
422.86165
430.42102
430.42101
430.42097
430.42095
430.42095
430.42098
430.42107
430.42119
430.42125
430.42128
430.42101
430.42098
430.42096
430.42094
430.42091
430.42096
430.42105
430.42118
430.42127
430.4213
430.42097
430.42096
430.42092
430.42089
430.42087
430.42094
430.42106
430.42116
430.42127
430.4213
430.42095
430.42094
430.42089
430.42086
430.42086
430.42093
430.42105
430.42118
430.4213
430.42135
430.42095
430.42091
430.42087
430.42086
430.42086
430.42096
430.4211
430.42122
430.42134
430.4214
430.42098
430.42096
430.42094
430.42093
430.42096
430.42105
430.42118
430.42133
430.42146
430.42152
430.42107
430.42105
430.42106
430.42105
430.4211
430.42118
430.42135
430.42147
430.4216
430.42166
430.42119
430.42118
430.42116
430.42118
430.42122
430.42133
430.42147
430.42163
430.42173
430.42176
430.42125
430.42127
430.42127
430.4213
430.42134
430.42146
430.4216
430.42173
430.4218
430.42185
430.42128
430.4213
430.4213
430.42135
430.4214
430.42152
430.42166
430.42176
430.42185
430.42186
437.99464
437.99463
437.99462
437.99459
437.99457
437.99462
437.9947
437.99483
437.99489
437.99492
437.99463
437.99462
437.99458
437.99455
437.99456
437.9946
437.99469
437.99482
437.99491
437.99494
437.99462
437.99458
437.99456
437.99453
437.99451
437.99458
437.9947
437.99482
437.99491
437.99497
437.99459
437.99455
437.99453
437.9945
437.9945
437.99457
437.99469
437.99484
437.99493
437.99499
437.99457
437.99456
437.99451
437.9945
437.9945
437.99459
437.99473
437.99488
437.99498
437.99504
437.99462
437.9946
437.99458
437.99457
437.99459
437.99468
437.99482
437.99497
437.99509
437.99516
437.9947
437.99469
437.9947
437.99469
437.99473
437.99482
437.99498
437.99513
437.99523
437.9953
437.99483
437.99482
437.99482
437.99484
437.99488
437.99497
437.99513
437.99526
437.99536
437.9954
437.99489
437.99491
437.99491
437.99493
437.99498
437.99509
437.99523
437.99536
437.99546
437.99549
437.99492
437.99494
437.99497
437.99499
437.99504
437.99516
437.9953
437.9954
437.99549
437.99552
445.57881
445.57881
445.57876
445.57874
445.57874
445.57879
445.57888
445.57897
445.57906
445.57909
445.57881
445.57877
445.57875
445.57872
445.5787
445.57877
445.57886
445.57899
445.57908
445.57911
445.57876
445.57875
445.5787
445.57868
445.57868
445.57875
445.57887
445.57896
445.57905
445.57911
445.57874
445.57872
445.57868
445.57867
445.57867
445.57874
445.57886
445.57901
445.5791
445.57916
445.57874
445.5787
445.57868
445.57867
445.57867
445.57876
445.5789
445.57905
445.57914
445.57921
445.57879
445.57877
445.57875
445.57874
445.57876
445.57885
445.57898
445.57913
445.57926
445.57932
445.57888
445.57886
445.57887
445.57886
445.5789
445.57898
445.57915
445.5793
445.5794
445.57946
445.57897
445.57899
445.57896
445.57901
445.57905
445.57913
445.5793
445.57943
445.57953
445.57956
445.57906
445.57908
445.57905
445.5791
445.57914
445.57926
445.5794
445.57953
445.57962
445.57965
445.57909
445.57911
445.57911
445.57916
445.57921
445.57932
445.57946
445.57956
445.57965
445.57969
453.1704
453.1704
453.17038
453.17036
453.17036
453.1704
453.17049
453.17058
453.17067
453.1707
453.1704
453.17036
453.17034
453.17032
453.17032
453.17036
453.17048
453.17057
453.17066
453.17072
453.17038
453.17034
453.17032
453.17029
453.17029
453.17036
453.17048
453.17057
453.17066
453.17072
453.17036
453.17032
453.17029
453.17026
453.17029
453.17035
453.17047
453.17062
453.17071
453.17077
453.17036
453.17032
453.17029
453.17029
453.17028
453.17037
453.17051
453.17066
453.17075
453.17082
453.1704
453.17036
453.17036
453.17035
453.17037
453.17046
453.17062
453.17074
453.17087
453.17093
453.17049
453.17048
453.17048
453.17047
453.17051
453.17062
453.17076
453.17091
453.17101
453.17108
453.17058
453.17057
453.17057
453.17062
453.17066
453.17074
453.17091
453.17104
453.17114
453.17117
453.17067
453.17066
453.17066
453.17071
453.17075
453.17087
453.17101
453.17114
453.1712
453.17126
453.1707
453.17072
453.17072
453.17077
453.17082
453.17093
453.17108
453.17117
453.17126
453.17127
460.76633
460.76632
460.76628
460.76628
460.76628
460.76632
460.76641
460.7665
460.76659
460.76662
460.76632
460.76629
460.76627
460.76624
460.76624
460.76631
460.7664
460.76652
460.76661
460.76664
460.76628
460.76627
460.76625
460.76622
460.76621
460.76629
460.7664
460.76652
460.76661
460.76664
460.76628
460.76624
460.76622
460.76621
460.76621
460.76627
460.76642
460.76654
460.76663
460.76669
460.76628
460.76624
460.76621
460.76621
460.76623
460.76632
460.76646
460.76658
460.7667
460.76676
460.76632
460.76631
460.76629
460.76627
460.76632
460.7664
460.76654
460.76669
460.76679
460.76685
460.76641
460.7664
460.7664
460.76642
460.76646
460.76654
460.7667
460.76683
460.76692
460.76699
460.7665
460.76652
460.76652
460.76654
460.76658
460.76669
460.76683
460.76698
460.76705
460.76709
460.76659
460.76661
460.76661
460.76663
460.7667
460.76679
460.76692
460.76705
460.76715
460.76718
460.76662
460.76664
460.76664
460.76669
460.76676
460.76685
460.76699
460.76709
460.76718
460.76719
468.36353
468.36352
468.36351
468.36348
468.36348
468.36352
468.36361
468.36373
468.36379
468.36385
468.36352
468.36352
468.36347
468.36347
468.36347
468.36351
468.36362
468.36372
468.36381
468.36386
468.36351
468.36347
468.36345
468.36344
468.36344
468.36351
468.36362
468.36372
468.36381
468.36386
468.36348
468.36347
468.36344
468.36341
468.36343
468.3635
468.36361
468.36373
468.36385
468.36388
468.36348
468.36347
468.36344
468.36343
468.36345
468.36351
468.36365
468.3638
468.3639
468.36396
468.36352
468.36351
468.36351
468.3635
468.36351
468.3636
468.36376
468.36389
468.36401
468.36407
468.36361
468.36362
468.36362
468.36361
468.36365
468.36376
468.3639
468.36405
468.36415
468.36419
468.36373
468.36372
468.36372
468.36373
468.3638
468.36389
468.36405
468.36418
468.36425
468.36428
468.36379
468.36381
468.36381
468.36385
468.3639
468.36401
468.36415
468.36425
468.36434
468.36438
468.36385
468.36386
468.36386
468.36388
468.36396
468.36407
468.36419
468.36428
468.36438
468.36438
475.95926
475.95925
475.95923
475.95924
475.95924
475.95928
475.95936
475.95945
475.95954
475.95957
475.95925
475.95924
475.95923
475.9592
475.9592
475.95926
475.95935
475.95947
475.95956
475.95959
475.95923
475.95923
475.9592
475.95917
475.9592
475.95924
475.95935
475.95947
475.95956
475.95959
475.95924
475.9592
475.95917
475.95917
475.95919
475.95925
475.95937
475.95949
475.95958
475.95964
475.95924
475.9592
475.9592
475.95919
475.95921
475.95927
475.95941
475.95953
475.95965
475.95968
475.95928
475.95926
475.95924
475.95925
475.95927
475.95935
475.95949
475.95964
475.95973
475.9598
475.95936
475.95935
475.95935
475.95937
475.95941
475.95949
475.95965
475.95978
475.95987
475.95994
475.95945
475.95947
475.95947
475.95949
475.95953
475.95964
475.95978
475.9599
475.96
475.96004
475.95954
475.95956
475.95956
475.95958
475.95965
475.95973
475.95987
475.96
475.96007
475.9601
475.95957
475.95959
475.95959
475.95964
475.95968
475.9598
475.95994
475.96004
475.9601
475.96011
483.55133
483.55133
483.55131
483.55129
483.55129
483.55133
483.55144
483.55153
483.55159
483.55162
483.55133
483.55129
483.55127
483.55127
483.55127
483.55131
483.55142
483.55151
483.5516
483.55163
483.55131
483.55127
483.55125
483.55125
483.55125
483.55131
483.55143
483.55152
483.5516
483.55166
483.55129
483.55127
483.55125
483.55124
483.55124
483.55133
483.55144
483.55156
483.55162
483.55168
483.55129
483.55127
483.55125
483.55124
483.55126
483.55134
483.55148
483.5516
483.5517
483.55176
483.55133
483.55131
483.55131
483.55133
483.55134
483.55143
483.55157
483.55169
483.55178
483.55185
483.55144
483.55142
483.55143
483.55144
483.55148
483.55157
483.5517
483.55182
483.55192
483.55196
483.55153
483.55151
483.55152
483.55156
483.5516
483.55169
483.55182
483.55195
483.55202
483.55206
483.55159
483.5516
483.5516
483.55162
483.5517
483.55178
483.55192
483.55202
483.55209
483.55212
483.55162
483.55163
483.55166
483.55168
483.55176
483.55185
483.55196
483.55206
483.55212
483.55215
491.13828
491.13827
491.13825
491.13826
491.13826
491.1383
491.13838
491.13847
491.13856
491.13858
491.13827
491.13826
491.13824
491.13824
491.13824
491.13828
491.13839
491.13848
491.13854
491.1386
491.13825
491.13824
491.13822
491.13822
491.13822
491.13828
491.1384
491.13848
491.13857
491.1386
491.13826
491.13824
491.13822
491.13819
491.13821
491.13828
491.13841
491.13851
491.13859
491.13862
491.13826
491.13824
491.13822
491.13821
491.13823
491.13832
491.13843
491.13855
491.13864
491.1387
491.1383