/*--------------------------------*- C++ -*----------------------------------*\
| =========                 |                                                 |
| \\      /  F ield         | OpenFOAM: The Open Source CFD Toolbox           |
|  \\    /   O peration     | Version:  v2106                                 |
|   \\  /    A nd           | Website:  www.openfoam.com                      |
|    \\/     M anipulation  |                                                 |
\*---------------------------------------------------------------------------*/
FoamFile
{
    version     2.0;
    format      ascii;
    arch        "LSB;label=32;scalar=64";
    class       volScalarField;
    location    "40";
    object      gradTz;
}
// * * * * * * * * * * * * * * * * * * * * * * * * * * * * * * * * * * * * * //

dimensions      [0 -1 0 1 0 0 0];

internalField   nonuniform List<scalar> 
4000
(
746.77749
746.77852
746.77706
746.77664
746.77643
746.77644
746.77662
746.77693
746.77724
746.77737
746.77852
746.77824
746.77707
746.77665
746.77645
746.77647
746.77668
746.77705
746.7775
746.7777
746.77706
746.77707
746.77593
746.77553
746.77535
746.77539
746.77562
746.77603
746.77656
746.77694
746.77664
746.77665
746.77553
746.77516
746.77499
746.77505
746.77531
746.77574
746.7763
746.77669
746.77643
746.77645
746.77535
746.77499
746.77485
746.77493
746.77521
746.77567
746.77625
746.77665
746.77644
746.77647
746.77539
746.77505
746.77493
746.77502
746.77532
746.7758
746.77639
746.77681
746.77662
746.77668
746.77562
746.77531
746.77521
746.77532
746.77564
746.77613
746.77673
746.77715
746.77693
746.77705
746.77603
746.77574
746.77567
746.7758
746.77613
746.77663
746.77724
746.77765
746.77724
746.7775
746.77656
746.7763
746.77625
746.77639
746.77673
746.77724
746.77784
746.77824
746.77737
746.7777
746.77694
746.77669
746.77665
746.77681
746.77715
746.77765
746.77824
746.7786
746.79887
746.79935
746.79831
746.79791
746.79773
746.79775
746.79796
746.79831
746.79867
746.79867
746.79935
746.79912
746.79822
746.79782
746.79765
746.79769
746.79792
746.79834
746.79887
746.79894
746.79831
746.79822
746.79734
746.79697
746.79681
746.79687
746.79713
746.79758
746.7982
746.79844
746.79791
746.79782
746.79697
746.79661
746.79648
746.79655
746.79683
746.79731
746.79796
746.79822
746.79773
746.79765
746.79681
746.79648
746.79636
746.79646
746.79676
746.79726
746.79793
746.7982
746.79775
746.79769
746.79687
746.79655
746.79646
746.79657
746.79689
746.79741
746.7981
746.79838
746.79796
746.79792
746.79713
746.79683
746.79676
746.79689
746.79723
746.79777
746.79846
746.79874
746.79831
746.79834
746.79758
746.79731
746.79726
746.79741
746.79777
746.79831
746.799
746.79929
746.79867
746.79887
746.7982
746.79796
746.79793
746.7981
746.79846
746.799
746.79969
746.79995
746.79867
746.79894
746.79844
746.79822
746.7982
746.79838
746.79874
746.79929
746.79995
746.8
746.83822
746.83849
746.83765
746.8373
746.83715
746.83721
746.83745
746.83785
746.8383
746.83828
746.83849
746.83825
746.8375
746.83715
746.83702
746.83709
746.83735
746.83781
746.83844
746.83851
746.83765
746.8375
746.83677
746.83645
746.83633
746.83641
746.8367
746.83719
746.83791
746.83813
746.8373
746.83715
746.83645
746.83614
746.83603
746.83614
746.83645
746.83697
746.83772
746.83796
746.83715
746.83702
746.83633
746.83603
746.83595
746.83608
746.83641
746.83696
746.83772
746.83798
746.83721
746.83709
746.83641
746.83614
746.83608
746.83622
746.83657
746.83714
746.83792
746.83818
746.83745
746.83735
746.8367
746.83645
746.83641
746.83657
746.83694
746.83752
746.83831
746.83858
746.83785
746.83781
746.83719
746.83697
746.83696
746.83714
746.83752
746.8381
746.8389
746.83917
746.8383
746.83844
746.83791
746.83772
746.83772
746.83792
746.83831
746.8389
746.8397
746.83993
746.83828
746.83851
746.83813
746.83796
746.83798
746.83818
746.83858
746.83917
746.83993
746.83978
746.89692
746.89719
746.89643
746.89613
746.89602
746.8961
746.89637
746.89681
746.89733
746.89737
746.89719
746.897
746.89632
746.89603
746.89593
746.89602
746.89632
746.89681
746.89749
746.8976
746.89643
746.89632
746.89567
746.89539
746.89531
746.89542
746.89573
746.89626
746.89703
746.89727
746.89613
746.89603
746.89539
746.89513
746.89506
746.89519
746.89553
746.89608
746.89688
746.89715
746.89602
746.89593
746.89531
746.89506
746.89501
746.89517
746.89552
746.8961
746.89692
746.8972
746.8961
746.89602
746.89542
746.89519
746.89517
746.89534
746.89572
746.89631
746.89714
746.89743
746.89637
746.89632
746.89573
746.89553
746.89552
746.89572
746.89611
746.89671
746.89756
746.89785
746.89681
746.89681
746.89626
746.89608
746.8961
746.89631
746.89671
746.89733
746.89818
746.89848
746.89733
746.89749
746.89703
746.89688
746.89692
746.89714
746.89756
746.89818
746.89904
746.89931
746.89737
746.8976
746.89727
746.89715
746.8972
746.89743
746.89785
746.89848
746.89931
746.8991
746.9749
746.97517
746.97446
746.9742
746.97413
746.97424
746.97453
746.97499
746.97553
746.9756
746.97517
746.975
746.97438
746.97412
746.97406
746.97418
746.97449
746.975
746.97571
746.97582
746.97446
746.97438
746.97378
746.97354
746.97348
746.97362
746.97396
746.9745
746.97529
746.97554
746.9742
746.97412
746.97354
746.97331
746.97328
746.97344
746.97379
746.97436
746.97518
746.97545
746.97413
746.97406
746.97348
746.97328
746.97326
746.97344
746.97382
746.97441
746.97524
746.97553
746.97424
746.97418
746.97362
746.97344
746.97344
746.97363
746.97403
746.97464
746.97549
746.97578
746.97453
746.97449
746.97396
746.97379
746.97382
746.97403
746.97444
746.97506
746.97592
746.97622
746.97499
746.975
746.9745
746.97436
746.97441
746.97464
746.97506
746.97569
746.97656
746.97686
746.97553
746.97571
746.97529
746.97518
746.97524
746.97549
746.97592
746.97656
746.97743
746.97771
746.9756
746.97582
746.97554
746.97545
746.97553
746.97578
746.97622
746.97686
746.97771
746.9775
747.0716
747.07186
747.0712
747.07097
747.07093
747.07106
747.07137
747.07183
747.07238
747.07246
747.07186
747.07171
747.07113
747.07091
747.07087
747.07102
747.07134
747.07186
747.07257
747.07269
747.0712
747.07113
747.07058
747.07037
747.07034
747.0705
747.07085
747.0714
747.07219
747.07244
747.07097
747.07091
747.07037
747.07017
747.07016
747.07034
747.07072
747.07129
747.0721
747.07238
747.07093
747.07087
747.07034
747.07016
747.07017
747.07037
747.07076
747.07136
747.07219
747.07248
747.07106
747.07102
747.0705
747.07034
747.07037
747.07058
747.07099
747.0716
747.07245
747.07274
747.07137
747.07134
747.07085
747.07072
747.07076
747.07099
747.07142
747.07204
747.0729
747.0732
747.07183
747.07186
747.0714
747.07129
747.07136
747.0716
747.07204
747.07267
747.07354
747.07384
747.07238
747.07257
747.07219
747.0721
747.07219
747.07245
747.0729
747.07354
747.0744
747.07469
747.07246
747.07269
747.07244
747.07238
747.07248
747.07274
747.0732
747.07384
747.07469
747.07448
747.1864
747.18665
747.18604
747.18584
747.18581
747.18596
747.18628
747.18675
747.18729
747.18738
747.18665
747.18652
747.18598
747.18578
747.18577
747.18593
747.18626
747.18678
747.18747
747.1876
747.18604
747.18598
747.18546
747.18528
747.18528
747.18545
747.18581
747.18636
747.18713
747.18738
747.18584
747.18578
747.18528
747.18511
747.18513
747.18532
747.1857
747.18627
747.18707
747.18734
747.18581
747.18577
747.18528
747.18513
747.18515
747.18536
747.18576
747.18635
747.18717
747.18745
747.18596
747.18593
747.18545
747.18532
747.18536
747.18559
747.186
747.18661
747.18744
747.18773
747.18628
747.18626
747.18581
747.1857
747.18576
747.186
747.18643
747.18705
747.18789
747.18818
747.18675
747.18678
747.18636
747.18627
747.18635
747.18661
747.18705
747.18768
747.18852
747.18882
747.18729
747.18747
747.18713
747.18707
747.18717
747.18744
747.18789
747.18852
747.18937
747.18966
747.18738
747.1876
747.18738
747.18734
747.18745
747.18773
747.18818
747.18882
747.18966
747.18946
747.31858
747.31882
747.31825
747.31808
747.31807
747.31823
747.31855
747.31901
747.31954
747.31963
747.31882
747.3187
747.3182
747.31803
747.31803
747.3182
747.31854
747.31905
747.31972
747.31985
747.31825
747.3182
747.31772
747.31757
747.31758
747.31776
747.31812
747.31866
747.31941
747.31965
747.31808
747.31803
747.31757
747.31742
747.31745
747.31765
747.31803
747.31859
747.31937
747.31963
747.31807
747.31803
747.31758
747.31745
747.31749
747.31771
747.31811
747.31869
747.31948
747.31976
747.31823
747.3182
747.31776
747.31765
747.31771
747.31795
747.31836
747.31895
747.31976
747.32004
747.31855
747.31854
747.31812
747.31803
747.31811
747.31836
747.31878
747.31939
747.3202
747.32049
747.31901
747.31905
747.31866
747.31859
747.31869
747.31895
747.31939
747.32
747.32082
747.32111
747.31954
747.31972
747.31941
747.31937
747.31948
747.31976
747.3202
747.32082
747.32164
747.32192
747.31963
747.31985
747.31965
747.31963
747.31976
747.32004
747.32049
747.32111
747.32192
747.32173
747.46731
747.46754
747.46702
747.46687
747.46688
747.46704
747.46736
747.46781
747.46832
747.46841
747.46754
747.46743
747.46697
747.46683
747.46684
747.46702
747.46735
747.46784
747.4685
747.46862
747.46702
747.46697
747.46654
747.4664
747.46643
747.46662
747.46697
747.46749
747.46821
747.46845
747.46687
747.46683
747.4664
747.46628
747.46632
747.46653
747.4669
747.46744
747.46819
747.46844
747.46688
747.46684
747.46643
747.46632
747.46638
747.4666
747.46699
747.46755
747.46831
747.46857
747.46704
747.46702
747.46662
747.46653
747.4666
747.46683
747.46723
747.46781
747.46858
747.46885
747.46736
747.46735
747.46697
747.4669
747.46699
747.46723
747.46765
747.46823
747.46902
747.46929
747.46781
747.46784
747.46749
747.46744
747.46755
747.46781
747.46823
747.46883
747.46961
747.46989
747.46832
747.4685
747.46821
747.46819
747.46831
747.46858
747.46902
747.46961
747.4704
747.47067
747.46841
747.46862
747.46845
747.46844
747.46857
747.46885
747.46929
747.46989
747.47067
747.47049
747.63168
747.63189
747.63142
747.63129
747.63131
747.63148
747.63178
747.63222
747.63271
747.6328
747.63189
747.63179
747.63138
747.63125
747.63128
747.63146
747.63178
747.63226
747.63288
747.633
747.63142
747.63138
747.63099
747.63087
747.63091
747.6311
747.63144
747.63194
747.63263
747.63285
747.63129
747.63125
747.63087
747.63077
747.63082
747.63102
747.63138
747.6319
747.63261
747.63285
747.63131
747.63128
747.63091
747.63082
747.63088
747.6311
747.63148
747.63201
747.63274
747.63299
747.63148
747.63146
747.6311
747.63102
747.6311
747.63133
747.63172
747.63227
747.63301
747.63326
747.63178
747.63178
747.63144
747.63138
747.63148
747.63172
747.63212
747.63268
747.63343
747.63369
747.63222
747.63226
747.63194
747.6319
747.63201
747.63227
747.63268
747.63325
747.634
747.63426
747.63271
747.63288
747.63263
747.63261
747.63274
747.63301
747.63343
747.634
747.63475
747.635
747.6328
747.633
747.63285
747.63285
747.63299
747.63326
747.63369
747.63426
747.635
747.63483
747.81066
747.81085
747.81043
747.81032
747.81035
747.81052
747.81081
747.81123
747.81169
747.81178
747.81085
747.81077
747.8104
747.81029
747.81033
747.81051
747.81082
747.81127
747.81185
747.81197
747.81043
747.8104
747.81005
747.80995
747.81
747.81019
747.81051
747.81099
747.81163
747.81184
747.81032
747.81029
747.80995
747.80987
747.80993
747.81013
747.81047
747.81096
747.81163
747.81185
747.81035
747.81033
747.81
747.80993
747.81
747.81021
747.81057
747.81108
747.81176
747.81199
747.81052
747.81051
747.81019
747.81013
747.81021
747.81044
747.81081
747.81133
747.81202
747.81226
747.81081
747.81082
747.81051
747.81047
747.81057
747.81081
747.81119
747.81172
747.81242
747.81266
747.81123
747.81127
747.81099
747.81096
747.81108
747.81133
747.81172
747.81225
747.81295
747.8132
747.81169
747.81185
747.81163
747.81163
747.81176
747.81202
747.81242
747.81295
747.81366
747.8139
747.81178
747.81197
747.81184
747.81185
747.81199
747.81226
747.81266
747.8132
747.8139
747.81373
748.00315
748.00332
748.00295
748.00286
748.0029
748.00306
748.00335
748.00373
748.00417
748.00426
748.00332
748.00325
748.00293
748.00284
748.00288
748.00306
748.00335
748.00377
748.00432
748.00443
748.00295
748.00293
748.00262
748.00254
748.0026
748.00278
748.00309
748.00353
748.00413
748.00432
748.00286
748.00284
748.00254
748.00248
748.00254
748.00273
748.00306
748.00352
748.00414
748.00435
748.0029
748.00288
748.0026
748.00254
748.00262
748.00282
748.00316
748.00363
748.00427
748.00448
748.00306
748.00306
748.00278
748.00273
748.00282
748.00304
748.00339
748.00387
748.00451
748.00474
748.00335
748.00335
748.00309
748.00306
748.00316
748.00339
748.00375
748.00424
748.00489
748.00511
748.00373
748.00377
748.00353
748.00352
748.00363
748.00387
748.00424
748.00474
748.00539
748.00562
748.00417
748.00432
748.00413
748.00414
748.00427
748.00451
748.00489
748.00539
748.00604
748.00626
748.00426
748.00443
748.00432
748.00435
748.00448
748.00474
748.00511
748.00562
748.00626
748.00611
748.20796
748.20811
748.20779
748.20772
748.20777
748.20793
748.20819
748.20855
748.20895
748.20903
748.20811
748.20805
748.20777
748.2077
748.20776
748.20792
748.2082
748.20858
748.20909
748.20919
748.20779
748.20777
748.20751
748.20745
748.20751
748.20768
748.20797
748.20838
748.20893
748.20911
748.20772
748.2077
748.20745
748.2074
748.20747
748.20766
748.20796
748.20838
748.20895
748.20914
748.20777
748.20776
748.20751
748.20747
748.20755
748.20775
748.20806
748.20849
748.20907
748.20927
748.20793
748.20792
748.20768
748.20766
748.20775
748.20795
748.20828
748.20872
748.20931
748.20951
748.20819
748.2082
748.20797
748.20796
748.20806
748.20828
748.20861
748.20906
748.20966
748.20986
748.20855
748.20858
748.20838
748.20838
748.20849
748.20872
748.20906
748.20952
748.21012
748.21032
748.20895
748.20909
748.20893
748.20895
748.20907
748.20931
748.20966
748.21012
748.21072
748.21092
748.20903
748.20919
748.20911
748.20914
748.20927
748.20951
748.20986
748.21032
748.21092
748.21077
748.42382
748.42394
748.42368
748.42363
748.42369
748.42384
748.42408
748.42441
748.42477
748.42485
748.42394
748.4239
748.42367
748.42362
748.42368
748.42384
748.42409
748.42444
748.4249
748.42499
748.42368
748.42367
748.42345
748.42341
748.42348
748.42364
748.42391
748.42428
748.42477
748.42493
748.42363
748.42362
748.42341
748.42338
748.42345
748.42363
748.42391
748.42429
748.4248
748.42497
748.42369
748.42368
748.42348
748.42345
748.42353
748.42372
748.42401
748.4244
748.42492
748.4251
748.42384
748.42384
748.42364
748.42363
748.42372
748.42391
748.42421
748.42461
748.42514
748.42532
748.42408
748.42409
748.42391
748.42391
748.42401
748.42421
748.42451
748.42492
748.42546
748.42564
748.42441
748.42444
748.42428
748.42429
748.4244
748.42461
748.42492
748.42534
748.42587
748.42606
748.42477
748.4249
748.42477
748.4248
748.42492
748.42514
748.42546
748.42587
748.42641
748.42659
748.42485
748.42499
748.42493
748.42497
748.4251
748.42532
748.42564
748.42606
748.42659
748.42646
748.64941
748.6495
748.6493
748.64927
748.64933
748.64947
748.64969
748.64998
748.65031
748.65038
748.6495
748.64947
748.64929
748.64926
748.64932
748.64947
748.6497
748.65002
748.65042
748.6505
748.6493
748.64929
748.64912
748.6491
748.64916
748.64932
748.64956
748.64989
748.65033
748.65047
748.64927
748.64926
748.6491
748.64908
748.64916
748.64932
748.64957
748.64991
748.65036
748.65051
748.64933
748.64932
748.64916
748.64916
748.64924
748.64941
748.64967
748.65002
748.65048
748.65064
748.64947
748.64947
748.64932
748.64932
748.64941
748.64959
748.64986
748.65021
748.65068
748.65084
748.64969
748.6497
748.64956
748.64957
748.64967
748.64986
748.65013
748.65049
748.65096
748.65112
748.64998
748.65002
748.64989
748.64991
748.65002
748.65021
748.65049
748.65086
748.65133
748.65149
748.65031
748.65042
748.65033
748.65036
748.65048
748.65068
748.65096
748.65133
748.65181
748.65197
748.65038
748.6505
748.65047
748.65051
748.65064
748.65084
748.65112
748.65149
748.65197
748.65185
748.88332
748.88339
748.88324
748.88323
748.88329
748.88343
748.88362
748.88388
748.88417
748.88423
748.88339
748.88337
748.88324
748.88323
748.8833
748.88343
748.88364
748.88391
748.88426
748.88433
748.88324
748.88324
748.88312
748.88311
748.88318
748.88333
748.88354
748.88382
748.8842
748.88432
748.88323
748.88323
748.88311
748.88311
748.88319
748.88334
748.88356
748.88386
748.88425
748.88437
748.88329
748.8833
748.88318
748.88319
748.88327
748.88343
748.88366
748.88396
748.88436
748.88449
748.88343
748.88343
748.88333
748.88334
748.88343
748.88359
748.88383
748.88413
748.88454
748.88467
748.88362
748.88364
748.88354
748.88356
748.88366
748.88383
748.88407
748.88438
748.88479
748.88492
748.88388
748.88391
748.88382
748.88386
748.88396
748.88413
748.88438
748.8847
748.88511
748.88524
748.88417
748.88426
748.8842
748.88425
748.88436
748.88454
748.88479
748.88511
748.88552
748.88565
748.88423
748.88433
748.88432
748.88437
748.88449
748.88467
748.88492
748.88524
748.88565
748.88554
749.12412
749.12416
749.12408
749.12408
749.12415
749.12427
749.12444
749.12466
749.1249
749.12496
749.12416
749.12416
749.12408
749.12409
749.12415
749.12428
749.12446
749.12469
749.12498
749.12505
749.12408
749.12408
749.124
749.12402
749.12409
749.12422
749.1244
749.12464
749.12496
749.12506
749.12408
749.12409
749.12402
749.12403
749.12411
749.12424
749.12443
749.12468
749.12501
749.12511
749.12415
749.12415
749.12409
749.12411
749.12419
749.12433
749.12453
749.12478
749.12511
749.12522
749.12427
749.12428
749.12422
749.12424
749.12433
749.12447
749.12468
749.12493
749.12527
749.12538
749.12444
749.12446
749.1244
749.12443
749.12453
749.12468
749.12488
749.12514
749.12548
749.12559
749.12466
749.12469
749.12464
749.12468
749.12478
749.12493
749.12514
749.12541
749.12575
749.12586
749.1249
749.12498
749.12496
749.12501
749.12511
749.12527
749.12548
749.12575
749.12609
749.1262
749.12496
749.12505
749.12506
749.12511
749.12522
749.12538
749.12559
749.12586
749.1262
749.1261
749.37032
749.37034
749.37031
749.37034
749.37041
749.37051
749.37066
749.37084
749.37104
749.37109
749.37034
749.37034
749.37032
749.37034
749.37041
749.37052
749.37067
749.37086
749.3711
749.37115
749.37031
749.37032
749.37029
749.37032
749.37039
749.37051
749.37066
749.37086
749.37111
749.37118
749.37034
749.37034
749.37032
749.37035
749.37043
749.37055
749.37071
749.37091
749.37116
749.37125
749.37041
749.37041
749.37039
749.37043
749.37051
749.37063
749.37079
749.371
749.37126
749.37134
749.37051
749.37052
749.37051
749.37055
749.37063
749.37076
749.37092
749.37113
749.37139
749.37148
749.37066
749.37067
749.37066
749.37071
749.37079
749.37092
749.37109
749.3713
749.37157
749.37165
749.37084
749.37086
749.37086
749.37091
749.371
749.37113
749.3713
749.37151
749.37178
749.37187
749.37104
749.3711
749.37111
749.37116
749.37126
749.37139
749.37157
749.37178
749.37205
749.37214
749.37109
749.37115
749.37118
749.37125
749.37134
749.37148
749.37165
749.37187
749.37214
749.37205
749.62041
749.6204
749.62043
749.62047
749.62054
749.62064
749.62076
749.62089
749.62105
749.62109
749.6204
749.62042
749.62044
749.62048
749.62056
749.62065
749.62077
749.62092
749.62109
749.62113
749.62043
749.62044
749.62046
749.62051
749.62058
749.62068
749.6208
749.62095
749.62114
749.62119
749.62047
749.62048
749.62051
749.62056
749.62063
749.62073
749.62086
749.62101
749.6212
749.62125
749.62054
749.62056
749.62058
749.62063
749.62071
749.62081
749.62094
749.62109
749.62128
749.62134
749.62064
749.62065
749.62068
749.62073
749.62081
749.62092
749.62105
749.6212
749.62139
749.62145
749.62076
749.62077
749.6208
749.62086
749.62094
749.62105
749.62118
749.62133
749.62153
749.62159
749.62089
749.62092
749.62095
749.62101
749.62109
749.6212
749.62133
749.62149
749.62169
749.62175
749.62105
749.62109
749.62114
749.6212
749.62128
749.62139
749.62153
749.62169
749.62188
749.62195
749.62109
749.62113
749.62119
749.62125
749.62134
749.62145
749.62159
749.62175
749.62195
749.62187
749.87283
749.8728
749.87289
749.87295
749.87302
749.8731
749.87319
749.87329
749.87339
749.87343
749.8728
749.87283
749.8729
749.87296
749.87304
749.87312
749.87321
749.87331
749.87342
749.87345
749.87289
749.8729
749.87297
749.87304
749.87311
749.87319
749.87328
749.87338
749.8735
749.87353
749.87295
749.87296
749.87304
749.8731
749.87317
749.87326
749.87335
749.87345
749.87357
749.8736
749.87302
749.87304
749.87311
749.87317
749.87325
749.87333
749.87342
749.87352
749.87364
749.87367
749.8731
749.87312
749.87319
749.87326
749.87333
749.87342
749.87351
749.87361
749.87373
749.87376
749.87319
749.87321
749.87328
749.87335
749.87342
749.87351
749.8736
749.8737
749.87382
749.87385
749.87329
749.87331
749.87338
749.87345
749.87352
749.87361
749.8737
749.8738
749.87392
749.87395
749.87339
749.87342
749.8735
749.87357
749.87364
749.87373
749.87382
749.87392
749.87404
749.87408
749.87343
749.87345
749.87353
749.8736
749.87367
749.87376
749.87385
749.87395
749.87408
749.87402
750.12604
750.12599
750.12613
750.12621
750.12628
750.12635
750.12641
750.12646
750.12652
750.12655
750.12599
750.12603
750.12615
750.12623
750.1263
750.12637
750.12643
750.12648
750.12653
750.12655
750.12613
750.12615
750.12627
750.12635
750.12642
750.12649
750.12654
750.12659
750.12664
750.12665
750.12621
750.12623
750.12635
750.12643
750.1265
750.12656
750.12662
750.12666
750.12671
750.12672
750.12628
750.1263
750.12642
750.1265
750.12657
750.12663
750.12669
750.12673
750.12678
750.12679
750.12635
750.12637
750.12649
750.12656
750.12663
750.12669
750.12675
750.12679
750.12684
750.12684
750.12641
750.12643
750.12654
750.12662
750.12669
750.12675
750.1268
750.12684
750.12689
750.1269
750.12646
750.12648
750.12659
750.12666
750.12673
750.12679
750.12684
750.12689
750.12693
750.12694
750.12652
750.12653
750.12664
750.12671
750.12678
750.12684
750.12689
750.12693
750.12698
750.12699
750.12655
750.12655
750.12665
750.12672
750.12679
750.12684
750.1269
750.12694
750.12699
750.12695
750.37848
750.3784
750.37859
750.37869
750.37877
750.37882
750.37885
750.37886
750.37887
750.37889
750.3784
750.37845
750.37862
750.37872
750.37879
750.37884
750.37887
750.37887
750.37886
750.37886
750.37859
750.37862
750.37879
750.37888
750.37895
750.379
750.37902
750.37902
750.379
750.37898
750.37869
750.37872
750.37888
750.37897
750.37904
750.37909
750.37911
750.3791
750.37908
750.37906
750.37877
750.37879
750.37895
750.37904
750.37911
750.37915
750.37917
750.37916
750.37913
750.37911
750.37882
750.37884
750.379
750.37909
750.37915
750.37919
750.37921
750.3792
750.37917
750.37915
750.37885
750.37887
750.37902
750.37911
750.37917
750.37921
750.37922
750.37921
750.37918
750.37916
750.37886
750.37887
750.37902
750.3791
750.37916
750.3792
750.37921
750.37919
750.37916
750.37914
750.37887
750.37886
750.379
750.37908
750.37913
750.37917
750.37918
750.37916
750.37914
750.37912
750.37889
750.37886
750.37898
750.37906
750.37911
750.37915
750.37916
750.37914
750.37912
750.37909
750.62858
750.62847
750.62873
750.62884
750.62892
750.62895
750.62895
750.62892
750.62888
750.62889
750.62847
750.62854
750.62876
750.62887
750.62894
750.62898
750.62897
750.62892
750.62885
750.62885
750.62873
750.62876
750.62897
750.62908
750.62915
750.62918
750.62917
750.62911
750.62903
750.62899
750.62884
750.62887
750.62908
750.62918
750.62925
750.62927
750.62926
750.6292
750.62911
750.62906
750.62892
750.62894
750.62915
750.62925
750.62931
750.62933
750.62931
750.62925
750.62915
750.62911
750.62895
750.62898
750.62918
750.62927
750.62933
750.62935
750.62933
750.62926
750.62916
750.62911
750.62895
750.62897
750.62917
750.62926
750.62931
750.62933
750.6293
750.62923
750.62913
750.62908
750.62892
750.62892
750.62911
750.6292
750.62925
750.62926
750.62923
750.62916
750.62905
750.629
750.62888
750.62885
750.62903
750.62911
750.62915
750.62916
750.62913
750.62905
750.62895
750.62891
750.62889
750.62885
750.62899
750.62906
750.62911
750.62911
750.62908
750.629
750.62891
750.62889
750.87481
750.87468
750.87499
750.87511
750.87519
750.87521
750.87518
750.8751
750.87501
750.87502
750.87468
750.87475
750.87502
750.87515
750.87522
750.87523
750.8752
750.8751
750.87497
750.87495
750.87499
750.87502
750.87528
750.8754
750.87547
750.87548
750.87543
750.87533
750.87517
750.87511
750.87511
750.87515
750.8754
750.87552
750.87558
750.87558
750.87553
750.87542
750.87526
750.87519
750.87519
750.87522
750.87547
750.87558
750.87564
750.87563
750.87558
750.87546
750.87529
750.87522
750.87521
750.87523
750.87548
750.87558
750.87563
750.87563
750.87557
750.87544
750.87527
750.87519
750.87518
750.8752
750.87543
750.87553
750.87558
750.87557
750.8755
750.87537
750.87519
750.87512
750.8751
750.8751
750.87533
750.87542
750.87546
750.87544
750.87537
750.87524
750.87506
750.87499
750.87501
750.87497
750.87517
750.87526
750.87529
750.87527
750.87519
750.87506
750.87489
750.87482
750.87502
750.87495
750.87511
750.87519
750.87522
750.87519
750.87512
750.87499
750.87482
750.87482
751.11565
751.11549
751.11585
751.11599
751.11607
751.11607
751.11601
751.11589
751.11575
751.11575
751.11549
751.11558
751.11589
751.11603
751.1161
751.1161
751.11603
751.11589
751.11569
751.11566
751.11585
751.11589
751.11619
751.11632
751.11639
751.11638
751.1163
751.11615
751.11592
751.11584
751.11599
751.11603
751.11632
751.11645
751.11651
751.11649
751.11641
751.11624
751.11601
751.11592
751.11607
751.1161
751.11639
751.11651
751.11656
751.11654
751.11644
751.11627
751.11603
751.11593
751.11607
751.1161
751.11638
751.11649
751.11654
751.11651
751.11641
751.11623
751.11598
751.11588
751.11601
751.11603
751.1163
751.11641
751.11644
751.11641
751.1163
751.11612
751.11587
751.11576
751.11589
751.11589
751.11615
751.11624
751.11627
751.11623
751.11612
751.11593
751.11568
751.11558
751.11575
751.11569
751.11592
751.11601
751.11603
751.11598
751.11587
751.11568
751.11543
751.11533
751.11575
751.11566
751.11584
751.11592
751.11593
751.11588
751.11576
751.11558
751.11533
751.11535
751.34961
751.34943
751.34984
751.34999
751.35007
751.35005
751.34996
751.3498
751.34961
751.3496
751.34943
751.34953
751.34988
751.35003
751.3501
751.35008
751.34998
751.34979
751.34953
751.34949
751.34984
751.34988
751.35022
751.35037
751.35043
751.3504
751.35029
751.35008
751.34979
751.34968
751.34999
751.35003
751.35037
751.3505
751.35056
751.35052
751.3504
751.35018
751.34988
751.34976
751.35007
751.3501
751.35043
751.35056
751.3506
751.35056
751.35042
751.3502
751.34989
751.34977
751.35005
751.35008
751.3504
751.35052
751.35056
751.3505
751.35036
751.35013
751.34981
751.34969
751.34996
751.34998
751.35029
751.3504
751.35042
751.35036
751.35022
751.34998
751.34966
751.34953
751.3498
751.34979
751.35008
751.35018
751.3502
751.35013
751.34998
751.34974
751.34941
751.34928
751.34961
751.34953
751.34979
751.34988
751.34989
751.34981
751.34966
751.34941
751.34909
751.34897
751.3496
751.34949
751.34968
751.34976
751.34977
751.34969
751.34953
751.34928
751.34897
751.349
751.57526
751.57505
751.57551
751.57567
751.57574
751.57571
751.57559
751.57538
751.57515
751.57513
751.57505
751.57516
751.57555
751.57571
751.57578
751.57574
751.5756
751.57537
751.57506
751.575
751.57551
751.57555
751.57593
751.57609
751.57614
751.57609
751.57595
751.5757
751.57534
751.57521
751.57567
751.57571
751.57609
751.57623
751.57628
751.57622
751.57606
751.5758
751.57543
751.57529
751.57574
751.57578
751.57614
751.57628
751.57632
751.57625
751.57608
751.57581
751.57542
751.57528
751.57571
751.57574
751.57609
751.57622
751.57625
751.57617
751.57599
751.57571
751.57532
751.57517
751.57559
751.5756
751.57595
751.57606
751.57608
751.57599
751.57581
751.57552
751.57512
751.57497
751.57538
751.57537
751.5757
751.5758
751.57581
751.57571
751.57552
751.57522
751.57483
751.57467
751.57515
751.57506
751.57534
751.57543
751.57542
751.57532
751.57512
751.57483
751.57443
751.57429
751.57513
751.575
751.57521
751.57529
751.57528
751.57517
751.57497
751.57467
751.57429
751.57433
751.79119
751.79097
751.79146
751.79164
751.79171
751.79166
751.7915
751.79126
751.79098
751.79095
751.79097
751.79108
751.79151
751.79168
751.79174
751.79169
751.79152
751.79124
751.79087
751.7908
751.79146
751.79151
751.79192
751.79209
751.79214
751.79207
751.79189
751.7916
751.79117
751.79102
751.79164
751.79168
751.79209
751.79225
751.79228
751.79221
751.79201
751.7917
751.79126
751.7911
751.79171
751.79174
751.79214
751.79228
751.79231
751.79222
751.79202
751.79169
751.79124
751.79107
751.79166
751.79169
751.79207
751.79221
751.79222
751.79212
751.79191
751.79157
751.79112
751.79094
751.7915
751.79152
751.79189
751.79201
751.79202
751.79191
751.79168
751.79134
751.79088
751.7907
751.79126
751.79124
751.7916
751.7917
751.79169
751.79157
751.79134
751.79099
751.79053
751.79035
751.79098
751.79087
751.79117
751.79126
751.79124
751.79112
751.79088
751.79053
751.79006
751.78989
751.79095
751.7908
751.79102
751.7911
751.79107
751.79094
751.7907
751.79035
751.78989
751.78995
751.99609
751.99585
751.99638
751.99657
751.99663
751.99656
751.99637
751.99609
751.99577
751.99573
751.99585
751.99597
751.99643
751.99661
751.99666
751.99659
751.99639
751.99607
751.99564
751.99556
751.99638
751.99643
751.99688
751.99705
751.99709
751.997
751.99679
751.99645
751.99597
751.99579
751.99657
751.99661
751.99705
751.99721
751.99724
751.99714
751.99691
751.99655
751.99605
751.99587
751.99663
751.99666
751.99709
751.99724
751.99726
751.99715
751.99691
751.99653
751.99602
751.99583
751.99656
751.99659
751.997
751.99714
751.99715
751.99703
751.99677
751.99639
751.99586
751.99567
751.99637
751.99639
751.99679
751.99691
751.99691
751.99677
751.99651
751.99611
751.99559
751.99538
751.99609
751.99607
751.99645
751.99655
751.99653
751.99639
751.99611
751.99571
751.99518
751.99498
751.99577
751.99564
751.99597
751.99605
751.99602
751.99586
751.99559
751.99518
751.99465
751.99446
751.99573
751.99556
751.99579
751.99587
751.99583
751.99567
751.99538
751.99498
751.99446
751.99453
752.18869
752.18843
752.189
752.18919
752.18924
752.18915
752.18894
752.18862
752.18825
752.1882
752.18843
752.18855
752.18905
752.18923
752.18928
752.18918
752.18895
752.18859
752.18811
752.18802
752.189
752.18905
752.18952
752.1897
752.18973
752.18963
752.18938
752.18899
752.18845
752.18826
752.18919
752.18923
752.1897
752.18986
752.18989
752.18977
752.1895
752.1891
752.18854
752.18833