/*--------------------------------*- C++ -*----------------------------------*\
| =========                 |                                                 |
| \\      /  F ield         | OpenFOAM: The Open Source CFD Toolbox           |
|  \\    /   O peration     | Version:  v2106                                 |
|   \\  /    A nd           | Website:  www.openfoam.com                      |
|    \\/     M anipulation  |                                                 |
\*---------------------------------------------------------------------------*/
FoamFile
{
    version     2.0;
    format      ascii;
    arch        "LSB;label=32;scalar=64";
    class       volScalarField;
    location    "40";
    object      laplacianT;
}
// * * * * * * * * * * * * * * * * * * * * * * * * * * * * * * * * * * * * * //

dimensions      [0 -2 0 1 0 0 0];

internalField   nonuniform List<scalar> 
4000
(
1.0959697
0.76221101
1.0249595
0.97220886
0.97610198
0.97596817
0.97591334
0.97566341
0.97419974
0.96621144
0.76221102
0.8477967
0.94127718
0.90990332
0.91255108
0.91236035
0.91166098
0.90852695
0.89723201
0.88489645
1.0249595
0.94127718
1.0685112
1.0370037
1.0396973
1.0397125
1.0398856
1.0391487
1.0291082
0.98846055
0.97220886
0.90990332
1.0370037
1.0053955
1.0080281
1.0078877
1.0077647
1.007216
1.000693
0.97096676
0.97610198
0.91255107
1.0396973
1.0080282
1.0106847
1.0105546
1.01031
1.0091462
1.0012261
0.97016329
0.97596817
0.91236035
1.0397125
1.0078877
1.0105546
1.0104674
1.0102927
1.009271
1.0014189
0.97016155
0.97591334
0.91166098
1.0398856
1.0077647
1.0103101
1.0102927
1.0100864
1.009056
1.0012105
0.96990125
0.97566341
0.90852695
1.0391487
1.007216
1.0091462
1.009271
1.009056
1.0079857
1.0000446
0.96850086
0.97419974
0.89723201
1.0291082
1.000693
1.0012261
1.0014189
1.0012105
1.0000446
0.99177461
0.95937949
0.96621144
0.88489645
0.98846055
0.97096677
0.9701633
0.97016156
0.96990125
0.96850087
0.95937949
0.92502668
3.2351838
2.575238
3.1018515
3.0028763
3.0084835
3.0082104
3.0077155
3.0057716
2.9982797
3.0149467
2.575238
2.66739
2.8920202
2.8290012
2.8328339
2.8324644
2.8304108
2.8188638
2.7672472
2.8029026
3.1018515
2.8920202
3.1677572
3.1053104
3.1092655
3.1093875
3.1098172
3.1059454
3.055207
3.0059525
3.0028763
2.8290012
3.1053104
3.0428383
3.0466843
3.0464018
3.046029
3.0430218
3.0020394
2.9777931
3.0084835
2.8328339
3.1092655
3.0466843
3.0505969
3.050336
3.0496174
3.0450977
3.0012049
2.975729
3.0082104
2.8324644
3.1093875
3.0464018
3.050336
3.050179
3.0496112
3.0453216
3.0013482
2.9754847
3.0077155
2.8304108
3.1098172
3.046029
3.0496174
3.0496112
3.0489893
3.044679
3.0006539
2.9745519
3.0057716
2.8188638
3.1059454
3.0430218
3.0450977
3.0453216
3.044679
3.0402254
2.9957987
2.9686965
2.9982797
2.7672472
3.055207
3.0020394
3.0012049
3.0013482
3.0006539
2.9957987
2.9499717
2.9195483
3.0149467
2.8029026
3.0059525
2.9777931
2.975729
2.9754847
2.9745519
2.9686965
2.9195483
2.9053972
5.2045747
4.3860307
5.0711186
4.944137
4.9499227
4.9494644
4.9477738
4.9394032
4.9027565
5.0062573
4.3860307
4.5336973
4.8357387
4.7526592
4.7566831
4.756481
4.754058
4.7325905
4.5974634
4.6969954
5.0711186
4.8357387
5.1987274
5.1167903
5.1209036
5.1211232
5.1222383
5.1156631
4.9885754
4.9642996
4.944137
4.7526592
5.1167903
5.034927
5.0389249
5.0385279
5.0380829
5.0323234
4.9195395
4.9299234
4.9499227
4.7566831
5.1209036
5.0389249
5.0430365
5.0427065
5.0417977
5.0338983
4.91723
4.9269214
4.9494644
4.756481
5.1211232
5.0385279
5.0427065
5.0425101
5.0417999
5.0341595
4.9172211
4.9264447
4.9477738
4.754058
5.1222383
5.0380829
5.0417977
5.0417998
5.0410193
5.0333277
4.9161987
4.9248273
4.9394032
4.7325905
5.1156631
5.0323234
5.0338983
5.0341595
5.0333277
5.0252848
4.9070184
4.9122583
4.9027565
4.5974634
4.9885754
4.9195395
4.91723
4.9172211
4.9161987
4.9070184
4.7842647
4.7736065
5.0062573
4.6969954
4.9642996
4.9299234
4.9269214
4.9264447
4.9248273
4.9122583
4.7736065
4.9033965
7.2128463
6.2165366
7.0572663
6.9037009
6.9096473
6.9091957
6.9070511
6.8928059
6.8104318
6.9616047
6.2165366
6.3860142
6.7680515
6.6656723
6.6698092
6.6697504
6.6678875
6.6413074
6.4146738
6.5685675
7.0572662
6.7680515
7.2202586
7.1195846
7.1238075
7.1240361
7.1260844
7.1200151
6.9047399
6.8948047
6.9037009
6.6656723
7.1195846
7.0190729
7.0231855
7.0226636
7.0225198
7.0175389
6.8212242
6.8544965
6.9096473
6.6698092
7.1238075
7.0231855
7.0274415
7.0270221
7.026262
7.018528
6.8175121
6.8505952
6.9091957
6.6697504
7.1240361
7.0226636
7.0270221
7.0267751
7.0262617
7.0188085
6.8173566
6.8499463
6.9070511
6.6678875
7.1260844
7.0225198
7.026262
7.0262617
7.0256812
7.0181829
6.8164557
6.8481673
6.8928059
6.6413074
7.1200151
7.0175389
7.018528
7.0188085
7.0181829
7.0101935
6.8065048
6.8312136
6.8104318
6.4146738
6.9047399
6.8212242
6.8175121
6.8173566
6.8164557
6.8065048
6.5931442
6.5698178
6.9616047
6.5685675
6.8948047
6.8544965
6.8505952
6.8499463
6.8481673
6.8312136
6.5698178
6.8737583
9.1655476
7.999577
8.991294
8.8121881
8.8182311
8.8177506
8.8155112
8.7979998
8.6741907
8.8691935
7.999577
8.1903206
8.6506298
8.5296435
8.5338293
8.5337138
8.5320536
8.5020332
8.1869092
8.3968837
8.991294
8.6506298
9.1898968
9.0711685
9.0754695
9.0756139
9.0783228
9.0743737
8.7726457
8.7797995
8.8121881
8.5296435
9.0711685
8.95268
8.9568693
8.9561416
8.9560542
8.9536026
8.6753605
8.7337858
8.8182311
8.5338293
9.0754695
8.9568693
8.9612269
8.9606355
8.9597686
8.9539804
8.670294
8.7289838
8.8177506
8.5337138
9.0756139
8.9561416
8.9606355
8.9602568
8.9596801
8.9541902
8.6699247
8.7281177
8.8155112
8.5320536
9.0783228
8.9560542
8.9597686
8.9596801
8.9590438
8.9535462
8.6690305
8.7263347
8.7979997
8.5020332
9.0743737
8.9536026
8.9539804
8.9541902
8.9535462
8.9475966
8.6608505
8.7086119
8.6741907
8.1869092
8.7726457
8.6753605
8.6702939
8.6699247
8.6690305
8.6608505
8.3605118
8.3183707
8.8691935
8.3968837
8.7797995
8.7337858
8.7289838
8.7281177
8.7263347
8.7086119
8.3183707
8.8019412
11.061381
9.7329145
10.869522
10.665977
10.672056
10.671454
10.668847
10.648064
10.48427
10.721126
9.7329145
9.9437335
10.479521
10.340677
10.344892
10.344699
10.342992
10.309548
9.9078502
10.172743
10.869522
10.479521
11.102574
10.966522
10.970873
10.970922
10.974053
10.972213
10.585514
10.609972
10.665977
10.340677
10.966522
10.830786
10.835021
10.834079
10.833818
10.83394
10.475077
10.558526
10.672056
10.344892
10.970873
10.835021
10.839448
10.838675
10.837467
10.833698
10.468689
10.552835
10.671454
10.344699
10.970922
10.834079
10.838675
10.838155
10.837274
10.833809
10.46807
10.55169
10.668847
10.342992
10.974053
10.833818
10.837467
10.837274
10.836328
10.832865
10.466873
10.549626
10.648064
10.309548
10.972213
10.83394
10.833698
10.833809
10.832865
10.828967
10.460648
10.532442
10.48427
9.9078502
10.585514
10.475077
10.468689
10.46807
10.466873
10.460648
10.076178
10.013911
10.721126
10.172743
10.609972
10.558526
10.552835
10.55169
10.549626
10.532442
10.013911
10.675821
12.889146
11.406319
12.680793
12.454053
12.460127
12.459415
12.456423
12.432421
12.22982
12.506855
11.406319
11.635893
12.243849
12.08799
12.092203
12.091949
12.090184
12.053466
11.567691
11.885796
12.680793
12.243849
12.946843
12.794295
12.79866
12.798625
12.802136
12.802417
12.333054
12.374638
12.454053
12.08799
12.794295
12.642137
12.646382
12.645243
12.644781
12.647501
12.210137
12.318069
12.460127
12.092203
12.79866
12.646382
12.650842
12.649904
12.64833
12.646635
12.202465
12.311519
12.459415
12.091949
12.798625
12.645243
12.649904
12.64926
12.648048
12.646662
12.201615
12.310099
12.456423
12.090184
12.802136
12.644781
12.64833
12.648048
12.646768
12.645381
12.200044
12.307605
12.432421
12.053466
12.802417
12.647501
12.646635
12.646662
12.645381
12.64353
12.195718
12.291386
12.22982
11.567691
12.333054
12.210137
12.202465
12.201615
12.200044
12.195718
11.729765
11.64732
12.506855
11.885796
12.374638
12.318069
12.311519
12.310099
12.307605
12.291386
11.64732
12.483809
14.63753
13.009464
14.413939
14.16539
14.171413
14.170589
14.167222
14.140122
13.900005
14.215467
13.009464
13.256371
13.93274
13.760817
13.76499
13.764671
13.762854
13.723067
13.156223
13.525557
14.413939
13.93274
14.711336
14.543223
14.547562
14.547437
14.551299
14.553693
14.004552
14.062993
14.16539
13.760817
14.543223
14.375572
14.37979
14.378453
14.377781
14.383084
13.869903
14.001642
14.171413
13.76499
14.547562
14.37979
14.384242
14.383139
14.381195
14.381588
13.860984
13.994265
14.170589
13.764671
14.547437
14.378453
14.383139
14.382369
14.38082
14.381529
13.85991
13.992585
14.167222
13.762854
14.551299
14.377781
14.381195
14.38082
14.379202
14.379911
13.857966
13.989616
14.140122
13.723067
14.553693
14.383084
14.381588
14.381529
14.379911
14.380121
13.855519
13.974537
13.900005
13.156223
14.004552
13.869903
13.860984
13.85991
13.857966
13.855519
13.311032
13.20881
14.215467
13.525557
14.062993
14.001642
13.994265
13.992585
13.989616
13.974537
13.20881
14.214769
16.295722
14.532447
16.058261
15.789429
15.795355
15.794417
15.79069
15.760645
15.484498
15.836437
14.532447
14.795161
15.535769
15.348837
15.352936
15.352547
15.350683
15.308061
14.663646
15.081925
16.058261
15.535769
16.385163
16.202515
16.206795
16.206572
16.210755
16.21524
15.589703
15.664637
15.789429
15.348837
16.202515
16.020399
16.024555
16.023022
16.022136
16.029984
15.444146
15.598877
15.795355
15.352936
16.206795
16.024555
16.028965
16.027697
16.025386
16.02786
15.434028
15.590711
15.794417
15.352547
16.206572
16.023022
16.027697
16.0268
16.024914
16.027707
15.432732
15.588779
15.79069
15.350683
16.210755
16.022136
16.025386
16.024914
16.022958
16.025756
15.430424
15.585333
15.760645
15.308061
16.21524
16.029984
16.02786
16.027707
16.025756
16.028024
15.429852
15.5715
15.484498
14.663646
15.589703
15.444146
15.434028
15.432732
15.430424
15.429852
14.810207
14.688817
15.836437
15.081925
15.664637
15.598877
15.590711
15.588779
15.585333
15.5715
14.688817
15.858041
17.853481
15.965866
17.603609
17.316146
17.321933
17.320882
17.316813
17.284003
16.973527
17.35977
15.965866
16.242764
17.043044
16.84225
16.846244
16.845782
16.843879
16.798678
16.080663
16.545307
17.603609
17.043044
17.957996
17.761934
17.766123
17.765798
17.770271
17.776813
17.078736
17.169698
17.316146
16.84225
17.761934
17.566471
17.570535
17.568809
17.56771
17.57805
16.923164
17.09993
17.321933
16.846244
17.766123
17.570535
17.57487
17.573439
17.570769
17.575305
16.911903
17.09102
17.320882
16.845782
17.765798
17.568809
17.573439
17.572414
17.570198
17.575054
16.910387
17.088844
17.316813
16.843879
17.770271
17.56771
17.570769
17.570198
17.56791
17.572776
16.907726
17.084934
17.284003
16.798678
17.776813
17.57805
17.575305
17.575054
17.572776
17.577086
16.909026
17.072432
16.973527
16.080663
17.078736
16.923164
16.911903
16.910387
16.907726
16.909026
16.218046
16.078232
17.35977
16.545307
17.169698
17.09993
17.09102
17.088844
17.084934
17.072432
16.078232
17.403507
19.301195
17.300873
19.040448
18.736123
18.741732
18.740569
18.73618
18.700803
18.357909
18.776075
17.300873
17.590249
18.445264
18.231842
18.235704
18.235167
18.233233
18.185728
17.398538
17.906679
19.040448
18.445264
19.420131
19.21186
19.215928
19.2155
19.22023
19.228787
18.462471
18.568899
18.736123
18.231842
19.21186
19.004252
19.008194
19.006283
19.004973
19.017737
18.297839
18.495549
18.741732
18.235704
19.215928
19.008194
19.012424
19.010835
19.007819
19.014384
18.285501
18.485945
18.740569
18.235167
19.2155
19.006283
19.010835
19.009685
19.007147
19.014033
18.28377
18.483537
18.73618
18.233233
19.22023
19.004973
19.007819
19.007147
19.004538
19.011438
18.28077
18.479182
18.700803
18.185728
19.228787
19.017737
19.014384
19.014033
19.011438
19.01776
18.283929
18.468086
18.357909
17.398538
18.462471
18.297839
18.285501
18.28377
18.28077
18.283929
17.525874
17.368498
18.776075
17.906679
18.568899
18.495549
18.485945
18.483537
18.479182
18.468086
17.368498
18.841648
20.62993
18.529233
20.359914
20.0406
20.045992
20.044723
20.040038
20.00231
19.62911
20.076619
18.529233
18.829301
19.733778
19.509042
19.512745
19.512134
19.510177
19.460659
18.609145
19.157651
20.359914
19.733778
20.762549
20.543351
20.547269
20.546737
20.551693
20.562209
19.732376
19.853614
20.0406
19.509042
20.543351
20.324875
20.328668
20.32658
20.325063
20.340172
19.559698
19.777132
20.045992
19.512745
20.547269
20.328668
20.332763
20.331023
20.327676
20.336229
19.546356
19.766891
20.044723
19.512134
20.546737
20.32658
20.331023
20.329752
20.326906
20.335776
19.544418
19.764263
20.040038
19.510177
20.551693
20.325063
20.327676
20.326906
20.323988
20.332877
19.541095
19.759485
20.00231
19.460659
20.562209
20.340172
20.336229
20.335776
20.332877
20.341169
19.546091
19.749862
19.62911
18.609145
19.732376
19.559698
19.546356
19.544418
19.541095
19.546091
18.725634
18.551665
20.076619
19.157651
19.853614
19.777132
19.766891
19.764263
19.759485
19.749862
18.551665
20.163604
21.831489
19.643367
21.553866
21.22153
21.226671
21.2253
21.220346
21.180497
20.779292
21.253384
19.643367
19.952276
20.900639
20.665972
20.66949
20.668807
20.666838
20.61561
19.70502
20.290508
21.553866
20.900639
21.97697
21.748194
21.751936
21.751301
21.756451
21.768858
20.880624
21.015923
21.22153
20.665972
21.748194
21.520194
21.523813
21.521559
21.519844
21.5372
20.700962
20.936778
21.226671
20.66949
21.751936
21.523813
21.527747
21.525863
21.522205
21.532689
20.686696
20.925962
21.2253
20.668807
21.751301
21.521559
21.525863
21.524477
21.521338
21.532136
20.684562
20.923127
21.220346
20.666838
21.756451
21.519844
21.522205
21.521338
21.518128
21.528949
20.680933
20.917956
21.180497
20.61561
21.768858
21.5372
21.53269
21.532136
21.528949
21.539159
20.687734
20.909862
20.779292
19.70502
20.880624
20.700962
20.686696
20.684562
20.680933
20.687734
19.809934
19.620444
21.253384
20.290508
21.015923
20.936778
20.925962
20.923127
20.917956
20.909862
19.620444
21.361231
22.898461
20.636403
22.61494
22.271631
22.276487
22.275021
22.269827
22.228102
21.801364
22.299115
20.636403
20.952249
21.938649
21.695497
21.698807
21.698054
21.696083
21.643459
20.679408
21.298268
22.61494
21.938649
23.055903
22.818958
22.8225
22.821764
22.827074
22.841295
21.900134
22.04866
22.271631
21.695497
22.818958
22.58284
22.58626
22.583852
22.581947
22.601444
21.714595
21.96734
22.276487
21.698807
22.8225
22.58626
22.590006
22.58799
22.584041
22.596391
21.699493
21.956014
22.275021
21.698054
22.821764
22.583852
22.58799
22.586496
22.58308
22.595739
21.697173
21.952988
22.269827
21.696083
22.827074
22.581947
22.584041
22.58308
22.579597
22.592282
21.69326
21.947453
22.228102
21.643459
22.841295
22.601444
22.596391
22.595739
22.592282
22.604345
21.701822
21.940937
21.801364
20.679408
21.900134
21.714595
21.699493
21.697173
21.69326
21.701822
20.77209
20.568248
22.299115
21.298268
22.04866
21.96734
21.956014
21.952988
21.947453
21.940937
20.568248
22.427148
23.824265
21.502216
23.536594
23.184425
23.188966
23.187413
23.182009
23.138664
22.689023
23.207365
21.502216
21.823051
22.841407
22.591267
22.594349
22.593528
22.591567
22.537871
21.5263
22.174717
23.536594
22.841407
23.992695
23.749041
23.752359
23.751526
23.756961
23.772909
22.784623
22.94546
23.184425
22.591267
23.749041
23.506259
23.509458
23.506909
23.504826
23.526342
22.59435
22.862465
23.188966
22.594349
23.752359
23.509458
23.512992
23.510854
23.506637
23.520777
22.578502
22.850696
23.187413
22.593528
23.751526
23.506909
23.510854
23.509259
23.505589
23.520029
22.57601
22.847497
23.182009
22.591567
23.756961
23.504826
23.506637
23.505589
23.501851
23.516322
22.571836
22.841631
23.138664
22.537871
23.772909
23.526342
23.520777
23.520029
23.516322
23.530162
22.582106
22.836732
22.689023
21.5263
22.784623
22.59435
22.578502
22.57601
22.571836
22.582106
21.606173
21.389236
23.207365
22.174717
22.94546
22.862465
22.850696
22.847497
22.841631
22.836732
21.389236
23.354787
24.60319
22.235466
24.313141
23.954285
23.95848
23.956849
23.951268
23.90657
23.436798
23.972534
22.235466
22.559312
23.603344
23.347758
23.350591
23.349708
23.347767
23.293331
22.240476
22.914451
24.313141
23.603344
24.781568
24.532707
24.53578
24.534853
24.540381
24.557954
23.528637
23.700793
23.954285
23.347758
24.532707
24.284757
24.287715
24.28504
24.282789
24.306191
23.334801
23.616634
23.95848
23.350591
24.53578
24.287715
24.291014
24.288767
24.284307
24.300149
23.318306
23.604495
23.956849
23.349708
24.534853
24.28504
24.288767
24.28708
24.283176
24.299307
23.315656
23.601141
23.951268
23.347767
24.540381
24.282789
24.284307
24.283176
24.279207
24.295373
23.311246
23.59498
23.90657
23.293331
24.557954
24.306191
24.300149
24.299307
24.295373
24.310905
23.323159
23.591728
23.436798
22.240476
23.528637
23.334801
23.318306
23.315656
23.311246
23.323159
22.307043
22.078348
23.972534
22.914451
23.700793
23.616634
23.604495
23.601141
23.59498
23.591728
22.078348
24.13843
25.230432
22.831631
24.939793
24.576461
24.580286
24.578586
24.572861
24.527085
24.040077
24.589905
22.831631
23.156491
24.219763
23.960306
23.962872
23.961931
23.960023
23.905179
22.817532
23.51291
24.939793
24.219763
25.417658
25.165123
25.167932
25.166917
25.172501
25.191592
24.127589
24.310002
24.576461
23.960306
25.165123
24.913533
24.916231
24.913447
24.911042
24.936185
23.931386
24.225197
24.580286
23.962872
25.167932
24.916231
24.919275
24.916931
24.912256
24.9297
23.914343
24.212762
24.578586
23.961931
25.166917
24.913447
24.916931
24.915163
24.911049
24.928771
23.911551
24.209274
24.572861
23.960023
25.172501
24.911042
24.912256
24.911049
24.906872
24.924632
23.906932
24.202855
24.527085
23.905179
25.191592
24.936185
24.9297
24.928771
24.924632
24.94176
23.920415
24.201269
24.040077
22.817532
24.127589
23.931386
23.914343
23.911551
23.906932
23.920415
22.870379
22.631337
24.589905
23.51291
24.310002
24.225197
24.212762
24.209274
24.202855
24.201269
22.631337
24.773249
25.702124
23.287035
25.412687
25.047118
25.050547
25.048789
25.042956
24.996383
24.495142
25.055671
23.287035
23.610905
24.686861
24.425133
24.427416
24.426423
24.424557
24.369645
23.253912
23.966405
25.412687
24.686861
25.897042
25.64239
25.644917
25.643819
25.649426
25.669916
24.577787
24.769332
25.047118
24.425133
25.64239
25.388711
25.391132
25.388254
25.38571
25.412438
24.380425
24.684404
25.050547
24.427416
25.644917
25.391132
25.393901
25.391475
25.386612
25.405552
24.36294
24.671749
25.048789
24.426423
25.643819
25.388254
25.391475
25.389636
25.385336
25.40454
24.360023
24.668148
25.042956
24.424557
25.649426
25.38571
25.386612
25.385336
25.380977
25.400222
24.355222
24.66151
24.996383
24.369645
25.669916
25.412438
25.405552
25.40454
25.400222
25.41884
24.370192
24.6616
24.495142
23.253912
24.577787
24.380425
24.36294
24.360023
24.355222
24.370192
23.292711
23.044794
25.055671
23.966405
24.769332
24.684404
24.671749
24.668148
24.66151
24.6616
23.044794
25.255329
26.015356
23.598868
25.728904
25.363352
25.366366
25.364559
25.358653
25.31157
24.799187
25.366962
23.598868
23.919752
25.001758
24.739373
24.741358
24.740318
24.738507
24.683865
23.546923
24.272139
25.728904
25.001758
26.216764
25.961564
25.963793
25.96262
25.968213
25.989977
24.876454
25.075951
25.363352
24.739373
25.961564
25.70736
25.709489
25.706536
25.703868
25.732016
24.679151
24.991423
25.366366
24.741358
25.963793
25.709489
25.711966
25.709473
25.704452
25.72477
24.661331
24.978626
25.364559
24.740318
25.96262
25.706536
25.709473
25.707573
25.703114
25.723682
24.658307
24.974933
25.358653
24.738507
25.968213
25.703868
25.704452
25.703114
25.698599
25.719211
24.653354
24.968118
25.31157
24.683865
25.989977
25.732016
25.72477
25.723682
25.719211
25.739203
24.669717
24.969883
24.799187
23.546923
24.876454
24.679151
24.661331
24.658307
24.653354
24.669717
23.571434
23.316171
25.366962
24.272139
25.075951
24.991423
24.978626
24.974933
24.968118
24.969883
23.316171
25.581701
26.168196
23.765208
25.886496
25.523215
25.525793
25.523949
25.518007
25.470704
24.950337
25.521857
23.765208
24.081127
25.162513
24.901087
24.902762
24.901682
24.899937
24.845901
23.69476
24.428227
25.886496
25.162513
26.374852
26.120678
26.122595
26.121353
26.126899
26.149802
25.021751
25.227969
25.523215
24.901087
26.120678
25.867516
25.869339
25.866328
25.863552
25.892948
24.825722
25.144362
25.525793
24.902762
26.122595
25.869339
25.871509
25.868963
25.863816
25.885386
24.807677
25.131502
25.523949
24.901682
26.121353
25.866328
25.868963
25.867014
25.862424
25.884228
24.804563
25.12774
25.518007
24.899937
26.126899
25.863552
25.863816
25.862424
25.857781
25.879631
24.799489
25.120789
25.470704
24.845901
26.149802
25.892948
25.885386
25.884228
25.879631
25.900874
24.817145
25.124217
24.950337
23.69476
25.021751
24.825722
24.807677
24.804563
24.799489
24.817145
23.70483
23.443796
25.521857
24.428227
25.227969
25.144362
25.131502
25.12774
25.120789
25.124217
23.443796
25.750352
26.159701
23.785028
25.88449
25.525719
25.527845
25.525975
25.520034
25.472804
24.947661
25.519401
23.785028
24.094035
25.168133
24.909279
24.910633
24.90952
24.907851
24.854754
23.696512
24.433708
25.88449
25.168133
26.370331
26.11875
26.120343
26.11904
26.124505
26.148405
25.01278
25.224448
25.525719
24.909279
26.11875
25.868191
25.869697
25.866647
25.86378
25.894241
24.819235
25.142278
25.527845
24.910633
26.120343
25.869697
25.871546
25.868963
25.86372
25.886411
24.801075
25.129434
25.525975
24.90952
26.11904
25.866647
25.868963
25.866978
25.862284
25.885189
24.797892
25.125627
25.520034
24.907851
26.124505
25.86378
25.86372
25.862284
25.857541
25.880496
24.792727
25.118582
25.472804
24.854754
26.148405
25.894241
25.886411
25.885189
25.880496
25.902859
24.811568
25.123653
24.947661
23.696512
25.01278
24.819235
24.801075
24.797892
24.792727
24.811568
23.692079
23.426883
25.519401
24.433708
25.224448
25.142278
25.129434
25.125627
25.118582
25.123653
23.426883
25.760244
25.989923
23.658205
25.722897
25.370849
25.372511
25.370626
25.364722
25.317855
24.791174
25.359611
23.658205
23.958396
25.018583
24.763896
24.764922
24.763782
24.762199
24.71037
23.552167
24.288548
25.722897
25.018583
26.203228
25.955792
25.957051
25.955694
25.961044
25.985794
24.849598
25.065411
25.370849
24.763896
25.955792
25.70938
25.71056
25.70749
25.70455
25.735888
24.659729
24.985184
25.372511
24.764922
25.957051
25.71056
25.712076
25.709473
25.704167
25.727838
24.641568
24.972435
25.370626
24.763782
25.955694
25.70749
25.709473
25.707463
25.702694
25.726561
24.638334
24.968606
25.364722
24.762199
25.961044
25.70455
25.704167
25.702694
25.697882
25.721799
24.633111
24.961511
25.317855
24.71037
25.985794
25.735888
25.727838
25.726561
25.721799
25.745145
24.653019
24.968194
24.791174
23.552167
24.849598
24.659729
24.641568
24.638334
24.633111
24.653019
23.533259
23.265535
25.359611
24.288548
25.065411
24.985184
24.972435
24.968606
24.961511
24.968194
23.265535
25.611316
25.659908
23.385522
25.402714
25.059558
25.060746
25.058859
25.053028
25.006814
24.481842
25.043471
23.385522
23.675044
24.714785
24.465836
24.466527
24.465368
24.463881
24.413639
23.262615
23.993641
25.402714
24.714785
25.874574
25.632807
25.633725
25.632324
25.637525
25.662973
24.53321
24.751838
25.059558
24.465836
25.632807
25.392062
25.392909
25.389837
25.386843
25.418866
24.348189
24.674049
25.060746
24.466527
25.633725
25.392909
25.394084
25.391476
25.38614
25.410645
24.330138
24.661474
25.058859
24.465367
25.632324
25.389837
25.391475
25.389454
25.38464
25.40932
24.326874
24.657647
25.053028
24.463881
25.637525
25.386843
25.38614
25.38464
25.379787
25.40452
24.321624
24.650546
25.006814
24.413639
25.662973
25.418866
25.410645
25.40932
25.40452
25.428704
24.342478
24.658799
24.481842
23.262615
24.53321
24.348189
24.330138
24.326874
24.321624
24.342478
23.22935
22.96075
25.043471
23.993641
24.751838
24.674049
24.661474
24.657647
24.650546
24.658799
22.96075
25.304488
25.171689
22.968658
24.925913
24.593767
24.594473
24.592596
24.586874
24.541597
24.021572
24.57293
22.968658
23.245727
24.258612
24.016935
24.017288
24.016116
24.014736
23.966389
22.829643
23.550805
24.925913
24.258612
25.386393
25.151787
25.152359
25.150921
25.155943
25.181932
24.065567
24.285662
24.593767
24.016935
25.151787
24.918193
24.918702
24.915648
24.912618
24.945129
23.886535
24.210791
24.594473
24.017288
25.152359
24.918702
24.919528
24.916932
24.9116
24.936788
23.868705
24.198468
24.592596
24.016116
25.150921
24.915648
24.916932
24.914911
24.910083
24.935424
23.865432
24.194666
24.586874
24.014736
25.155943
24.912618
24.9116
24.910083
24.90522
24.930615
23.860189
24.187603
24.541597
23.966389
25.181932
24.945129
24.936788
24.935424
24.930615
24.955489
23.881859
24.197376
24.021572
22.829643
24.065567
23.886535
23.868705
23.865432
23.860189
23.881859
22.782227
22.514406
24.57293
23.550805
24.285662
24.210791
24.198468
24.194666
24.187603
24.197376
22.514406
24.841651
24.528277
22.410183
24.295434
23.976345
23.976566
23.97471
23.969134
23.925074
23.413201
23.950889
22.410183
22.673091
23.652874
23.419961
23.419973
23.418796
23.417531
23.37138
22.255918
22.962772
24.295434
23.652874
24.741695
24.515696
24.515919
24.514455
24.519266
24.545637
23.449553
23.669758
23.976345
23.419961
24.515696
24.290694
24.290862
24.287846
24.284799
24.317597
23.277613
23.598267
23.976566
23.419973
24.515919
24.290862
24.291336
24.288768
24.283472
24.309189
23.260116
23.586272
23.97471
23.418796
24.514455
24.287846
24.288768
24.286761
24.281947
24.307795
23.256853
23.58252
23.969134
23.417531
24.519266
24.284799
24.283472
24.281947
24.277104
24.303007
23.251649
23.575539
23.925074
23.37138
24.545637
24.317597
24.309189
24.307795
24.303007
24.328417
23.274003
23.586771
23.413201
22.255918
23.449553
23.277613
23.260116
23.256853
23.251649
23.274003
22.194646
21.929256
23.950889
22.962772
23.669758
23.598267
23.586272
23.58252
23.575539
23.586771
21.929256
24.225661
23.733636
21.713539
23.515163
23.211099
23.210834
23.209011
23.203615
23.161044
22.66048
23.181183
21.713539
21.960664
22.901306
22.678592
22.678264
22.677091
22.675949
22.632278
21.544979
22.233167
23.515163
22.901306
23.944454
23.728457
23.728329
23.726848
23.73142
23.758009
22.688966
22.907923
23.211099
22.678592
23.728457
23.513434
23.513261
23.510301
23.507257
23.540141
22.525179
22.840253
23.210834
22.678264
23.728329
23.513261
23.513379
23.510856
23.50563
23.531717
22.508122
22.828661
23.209011
22.677091
23.726848
23.510301
23.510856
23.508875
23.504108
23.530302
22.504891
22.824982
23.203615
22.675949
23.73142
23.507257
23.50563
23.504108
23.499315
23.525566
22.499759
22.818127
23.161044
22.632278
23.758009
23.540141
23.531717
23.530302
23.525566
23.551357
22.522659
22.83075
22.66048
21.544979
22.688966
22.525179
22.508122
22.504891
22.499759
22.522659
21.470232
21.208908
23.181183
22.233167
22.907923
22.840253
22.828661
22.824982
22.818127
22.83075
21.208908
23.460315
22.792663
20.88302
22.589908
22.302745
22.301996
22.300219
22.295037
22.254219
21.76805
22.268558
20.88302
21.112839
22.008539
21.7974
21.796734
21.795572
21.794561
21.75364
20.701208
21.366487
22.589908
22.008539
22.999584
22.79492
22.794443
22.792956
22.797262
22.823907
21.788495
22.004855
22.302745
21.797399
22.79492
22.591204
22.590691
22.587807
22.584785
22.617553
21.633871
21.941423
22.301996
21.796734
22.794443
22.590691
22.590454
22.587992
22.582869
22.609166
21.61736
21.930306
22.300219
21.795572
22.792956
22.587807
22.587992
22.586051
22.58136
22.60774
21.614182
21.926724
22.295037
21.794561
22.797262
22.584785
22.582869
22.58136
22.576648
22.603085
21.609155
21.920038
22.254219
21.75364
22.823907
22.617553
22.609166
22.60774
22.603085
22.629098
21.632461
21.933975
21.76805
20.701208
21.788495
21.633871
21.61736
21.614182
21.609155
21.632461
20.613452
20.357807
22.268558
21.366487
22.004855
21.941423
21.930306
21.926724
21.920038
21.933975
20.357807
22.550335
21.711159
19.923744
21.525373
21.256882
21.255655
21.253936
21.249002
21.210189
20.741413
21.218641
19.923744
20.13484
20.980077
20.781814
20.780816
20.779674
20.778801
20.740884
19.729808
20.368077
21.525373
20.980077
21.912908
21.720841
21.72002
21.718536
21.72255
21.749088
20.753691
20.96612
21.256882
20.781814
21.720841
21.529688
21.52884
21.526051
21.523071
21.555521
20.609185
20.90732
21.255655
20.780816
21.72002
21.52884
21.52825
21.525866
21.520879
21.547225
20.593324
20.896748
21.253936
20.779674
21.718536
21.526051
21.525866
21.523978
21.519393
21.545798
20.590219
20.893285
21.249002
20.778801
21.72255
21.523071
21.520879
21.519393
21.514793
21.541254
20.585328
20.88681
21.210189
20.740884
21.749088
21.555521
21.547225
21.545798
21.541254
21.56733
20.608897
20.901977
20.741413
19.729808
20.753691
20.609185
20.593324
20.590219
20.585328
20.608897
19.62959
19.3812
21.218641
20.368077
20.96612
20.90732
20.896748
20.893285
20.88681
20.901977
19.3812
21.501333
20.495788
18.841623
20.328118
20.079956
20.078261
20.076611
20.071957
20.035389
19.586898
20.037904
18.841623
19.032694
19.822258
19.638095
19.636773
19.635659
19.634932
19.600252
18.636768
19.244091
20.328118
19.822258
20.691125
20.51284
20.511681
20.510212
20.51391
20.540178
19.590936
19.798125
20.079956
19.638095
20.51284
20.33543
20.334254
20.331579
20.328661
20.360595
19.457439
19.74432
20.078261
19.636773
20.511681
20.334254
20.333317
20.331026
20.326207
20.352441
19.442327
19.734359
20.076611
19.635659
20.510212
20.331579
20.331026
20.329205
20.324755
20.351023
19.439317
19.731039
20.071957
19.634932
20.51391
20.328661
20.326207
20.324755
20.320296
20.346621
19.434593
19.724817
20.035389
19.600252
20.540178
20.360595
20.352441
20.351023
20.346621
20.3726
19.458282
19.74112
19.586898
18.636768
19.590936
19.457439
19.442327
19.439317
19.434593
19.458282
18.524715
18.285111
20.037904
19.244091
19.798125
19.74432
19.734359
19.731039
19.724817
19.74112
18.285111
20.319779
19.154039
17.643325
19.005521
18.779221
18.777069
18.775502
18.771158
18.737063
18.311623
18.733628
17.643325
17.813194
18.542217
18.373292
18.371655
18.370579
18.370004
18.338778
17.428826
18.001461
19.005521
18.542217
19.341764
19.178362
19.176875
19.175432
19.178794
19.204633
18.307397
18.50807
18.779221
18.373292
19.178362
19.015792
19.014297
19.011754
19.008918
19.040141