/*--------------------------------*- C++ -*----------------------------------*\
| =========                 |                                                 |
| \\      /  F ield         | OpenFOAM: The Open Source CFD Toolbox           |
|  \\    /   O peration     | Version:  v2106                                 |
|   \\  /    A nd           | Website:  www.openfoam.com                      |
|    \\/     M anipulation  |                                                 |
\*---------------------------------------------------------------------------*/
FoamFile
{
    version     2.0;
    format      ascii;
    arch        "LSB;label=32;scalar=64";
    class       volScalarField;
    location    "80";
    object      gradTx;
}
// * * * * * * * * * * * * * * * * * * * * * * * * * * * * * * * * * * * * * //

dimensions      [0 -1 0 1 0 0 0];

internalField   nonuniform List<scalar> 
10000
(
-5.5619106e-05
-0.00017510848
-0.00012255802
-4.6447554e-05
-1.1776621e-05
2.3757281e-05
5.2421314e-05
7.061189e-05
6.8958855e-05
2.0535822e-05
-7.3005557e-05
-0.00018239027
-0.00010452422
-4.6165298e-05
-9.6875963e-06
2.6485111e-05
5.7231262e-05
8.0152518e-05
8.5946056e-05
2.7583402e-05
-6.0473629e-05
-0.00016200732
-0.00010144353
-4.3157314e-05
-6.6076495e-06
2.960374e-05
6.0596932e-05
8.5196348e-05
9.5512092e-05
3.1807967e-05
-6.0983079e-05
-0.00016127584
-9.8155055e-05
-3.9511861e-05
-2.9686193e-06
3.3159325e-05
6.4180256e-05
8.8526036e-05
9.7641134e-05
3.2216955e-05
-6.0285534e-05
-0.00015871717
-9.479001e-05
-3.5928195e-05
2.9038444e-07
3.6178392e-05
6.7352943e-05
9.2018013e-05
0.00010081953
3.3129007e-05
-5.959032e-05
-0.00015610667
-9.1435964e-05
-3.2613883e-05
3.1548096e-06
3.8821071e-05
6.9999089e-05
9.4638523e-05
0.00010299911
3.3728346e-05
-5.8466886e-05
-0.00015287057
-8.8115854e-05
-2.9353544e-05
5.9521595e-06
4.1451813e-05
7.2628438e-05
9.7084097e-05
0.00010484968
3.4201529e-05
-5.6383726e-05
-0.00014793127
-8.4487112e-05
-2.5857702e-05
8.9737568e-06
4.4096566e-05
7.5194805e-05
9.9487807e-05
0.00010676743
3.4718596e-05
-5.2106505e-05
-0.00013828617
-7.9742279e-05
-2.253185e-05
1.2064561e-05
4.6517926e-05
7.7477751e-05
0.00010180918
0.00010888809
3.5346185e-05
-4.5058888e-05
-0.00012137795
-7.2792005e-05
-2.0550402e-05
1.4331647e-05
4.8126793e-05
7.896324e-05
0.0001035263
0.00011069457
3.5922919e-05
-0.00016131655
-0.000483745
-0.00033556094
-0.00013738796
-3.0285576e-05
7.5486128e-05
0.00016290298
0.00022085263
0.00022036366
6.6826336e-05
-0.00018895781
-0.00048566551
-0.00029606454
-0.00013426029
-2.3770269e-05
8.3743373e-05
0.00017746501
0.00025215613
0.00027838399
9.1069183e-05
-0.00016259689
-0.00043889196
-0.0002838255
-0.00012441819
-1.4293789e-05
9.2883454e-05
0.00018732561
0.00026765639
0.00030817984
0.00010417409
-0.00016262692
-0.0004339301
-0.00027318748
-0.00011332619
-3.7533709e-06
0.00010308619
0.00019784451
0.00027781473
0.00031564798
0.00010597775
-0.00016051185
-0.00042592214
-0.00026289112
-0.00010295068
5.5453313e-06
0.00011195541
0.00020748144
0.00028838295
0.0003248401
0.00010849495
-0.00015828334
-0.00041793817
-0.00025317053
-9.3486989e-05
1.3939484e-05
0.00012004796
0.00021579086
0.00029657571
0.00033140353
0.00011022655
-0.00015500691
-0.00040852473
-0.00024354844
-8.387866e-05
2.250718e-05
0.00012826524
0.00022394727
0.00030407932
0.00033704401
0.00011166566
-0.00014857536
-0.00039351559
-0.00023279091
-7.3331023e-05
3.1885861e-05
0.00013651379
0.00023185856
0.0003115571
0.00034313592
0.00011333475
-0.00013413796
-0.00036172102
-0.00021788975
-6.3152072e-05
4.1268152e-05
0.00014396167
0.00023892875
0.00031897045
0.00035002569
0.00011537791
-0.00010989508
-0.00030569933
-0.00019552695
-5.6670871e-05
4.7641322e-05
0.00014871776
0.00024359107
0.0003245388
0.00035573245
0.00011713928
-0.00025478821
-0.00074497226
-0.00051428321
-0.00021743503
-3.8434963e-05
0.00013704277
0.00028644664
0.00039263961
0.0003985694
0.00012189363
-0.00028762986
-0.00074186906
-0.00046034287
-0.00021034543
-2.7362745e-05
0.00015018722
0.00030973075
0.00044785079
0.00050624175
0.00016733238
-0.00025271938
-0.00067691016
-0.00043881295
-0.00019319626
-1.1649746e-05
0.00016499027
0.00032571944
0.00047330076
0.0005556571
0.00018910011
-0.00025166965
-0.00066639876
-0.00042037777
-0.00017501995
4.9625429e-06
0.00018129481
0.00034331811
0.00049109829
0.00056988873
0.00019287516
-0.00024799304
-0.0006526713
-0.00040348732
-0.00015871285
1.962033e-05
0.00019591243
0.00035975003
0.00050902975
0.00058497142
0.00019687125
-0.00024428808
-0.0006396134
-0.00038805254
-0.00014374984
3.3453119e-05
0.00020985809
0.00037425403
0.00052313732
0.0005959308
0.00019968076
-0.00023923004
-0.00062472392
-0.00037237982
-0.00012779049
4.818375e-05
0.00022417808
0.00038835151
0.00053606632
0.00060572154
0.00020220129
-0.00022876543
-0.00060034083
-0.0003544651
-0.00010971914
6.4388956e-05
0.00023845971
0.00040207379
0.00054939076
0.00061700572
0.00020537649
-0.0002024226
-0.0005440626
-0.00032913218
-9.2061669e-05
8.0222691e-05
0.00025121471
0.00041460507
0.00056329807
0.00063052696
0.00020946675
-0.00015698383
-0.00044325287
-0.00029081804
-8.0404902e-05
9.0431115e-05
0.00025920971
0.00042314861
0.00057419623
0.00063700472
0.00020969499
-0.00034117049
-0.00098341405
-0.00067326968
-0.00028342154
-3.477834e-05
0.00020897323
0.00042169475
0.00058242065
0.0005985533
0.00018392401
-0.00037750961
-0.00097365182
-0.0006052602
-0.00027177379
-1.9399778e-05
0.00022623357
0.00045227136
0.00065947623
0.00075304948
0.00024940817
-0.00033466228
-0.00089134696
-0.00057438117
-0.00024784285
1.532527e-06
0.00024612416
0.00047464965
0.00069580088
0.0008228516
0.00027994931
-0.0003321699
-0.00087476315
-0.00054873678
-0.00022386484
2.3147408e-05
0.0002683106
0.00049978684
0.00072181126
0.00084423724
0.00028579065
-0.00032689707
-0.00085576812
-0.00052647215
-0.00020274305
4.2850502e-05
0.00028910549
0.00052360738
0.00074734496
0.00086506395
0.00029117655
-0.00032191751
-0.00083845219
-0.00050618954
-0.00018254681
6.2529721e-05
0.00030949306
0.00054469211
0.00076750962
0.00088044013
0.00029506166
-0.00031539023
-0.00081861722
-0.0004843952
-0.00015976175
8.4033275e-05
0.00033031429
0.00056497692
0.00078615943
0.000894686
0.00029874726
-0.00030153315
-0.00078549735
-0.00045867404
-0.00013358911
0.00010743511
0.00035086271
0.00058488459
0.00080605187
0.00091214929
0.00030377807
-0.00026401979
-0.00070523691
-0.00042206003
-0.00010821756
0.00012973143
0.00036912863
0.00060351917
0.00082807628
0.00093520407
0.00031107635
-0.00019853561
-0.00056119882
-0.00036748628
-9.1376791e-05
0.00014363795
0.00038048472
0.00061659367
0.00084656981
0.00093582656
0.00030419305
-0.00042527076
-0.0012114839
-0.00081837641
-0.00033644898
-2.0359208e-05
0.00028968154
0.00056506625
0.00078135548
0.00080880625
0.00024941772
-0.00046405794
-0.0011927838
-0.0007352842
-0.00032033924
-1.6153763e-06
0.0003104042
0.00060295554
0.00088042006
0.0010088561
0.00033408257
-0.00041280397
-0.0010923302
-0.00069566832
-0.0002912777
2.3171367e-05
0.0003351891
0.00063240984
0.00092846003
0.0010990719
0.00037315844
-0.00040866306
-0.0010700756
-0.00066460649
-0.00026316596
4.9363393e-05
0.00036387536
0.00066575834
0.00096280735
0.0011272957
0.00038091679
-0.00040206415
-0.0010471588
-0.0006384949
-0.00023768658
7.4701262e-05
0.00039155347
0.00069709898
0.00099557201
0.0011534636
0.00038759509
-0.00039616718
-0.0010265449
-0.00061362772
-0.00021163603
0.00010092094
0.00041849472
0.00072442356
0.0010214818
0.0011731725
0.00039256194
-0.00038824908
-0.0010016514
-0.00058502388
-0.00018132215
0.00012932077
0.0004454705
0.0007506163
0.0010459063
0.0011920488
0.00039745678
-0.00037090763
-0.0009592014
-0.00055082489
-0.00014694683
0.00015958616
0.0004720122
0.00077680531
0.0010727772
0.0012161377
0.00040446779
-0.00032220587
-0.0008545467
-0.00050263665
-0.00011421017
0.00018799543
0.00049580481
0.00080191154
0.0011038536
0.0012509233
0.00041598884
-0.00023754112
-0.00066893563
-0.00043238515
-9.2555098e-05
0.00020546307
0.00051059726
0.00081977038
0.0011316516
0.001244024
0.00039986831
-0.00050760953
-0.0014313811
-0.00095221671
-0.00037919946
2.0153253e-06
0.00037708011
0.00071518551
0.00098703256
0.0010250647
0.00031673496
-0.00054800989
-0.0014019907
-0.00085406663
-0.00036009337
2.2811435e-05
0.00040126017
0.00076122737
0.0011086554
0.0012700332
0.00042010603
-0.00048801587
-0.0012837868
-0.00080802508
-0.00032791476
5.1357488e-05
0.00043222497
0.00079877484
0.0011684176
0.0013797951
0.00046729171
-0.00048257651
-0.001257799
-0.0007737035
-0.00029592292
8.3540357e-05
0.00046864702
0.00084017822
0.0012099829
0.0014137956
0.00047669202
-0.00047527853
-0.0012325021
-0.00074385445
-0.00026464085
0.00011580988
0.00050301711
0.00087767438
0.0012486214
0.0014446814
0.00048459854
-0.00046871243
-0.0012084568
-0.00071297455
-0.00023147058
0.00014834666
0.00053504397
0.00090977207
0.0012796344
0.001468846
0.00049078036
-0.00045915851
-0.0011773575
-0.00067646781
-0.00019384859
0.00018220686
0.00056669918
0.00094129013
0.0013101654
0.0014930509
0.00049712253
-0.00043801788
-0.0011248677
-0.00063402376
-0.00015257078
0.00021794068
0.00059865968
0.00097417669
0.001344978
0.0015245242
0.00050626117
-0.00037807657
-0.00099597218
-0.00057514023
-0.0001136448
0.00025185855
0.00062824316
0.0010066336
0.00138616
0.0015722634
0.00052247619
-0.00027470552
-0.000770137
-0.00049026116
-8.76845e-05
0.00027299097
0.00064702903
0.0010298548
0.0014241905
0.0015576215
0.00049649985
-0.00058814328
-0.0016440229
-0.0010780259
-0.00041634612
2.8644109e-05
0.0004698023
0.00087209224
0.0011989593
0.0012454249
0.00038501855
-0.00062950729
-0.0016038147
-0.00096727658
-0.00039653554
5.1633152e-05
0.0004994921
0.00092795884
0.001343214
0.0015342345
0.00050662207
-0.00056133791
-0.0014707362
-0.00091772839
-0.00036104316
8.6720776e-05
0.00053892529
0.00097350883
0.001413098
0.0016619782
0.00056148576
-0.00055567449
-0.0014435173
-0.00087988761
-0.00032203013
0.00012770695
0.00058305656
0.001020706
0.0014595843
0.0017006638
0.00057238932
-0.0005481308
-0.0014154331
-0.00084322287
-0.00028202496
0.00016697604
0.00062165467
0.0010616516
0.0015026633
0.0017361253
0.00058164932
-0.00054034848
-0.0013854406
-0.00080381383
-0.00024177481
0.00020333005
0.00065601972
0.0010971787
0.0015387872
0.0017654288
0.00058933964
-0.00052833775
-0.0013463103
-0.00075965841
-0.00019929561
0.00023993926
0.00069110356
0.0011343356
0.0015764764
0.0017960378
0.00059744906
-0.00050310405
-0.0012840241
-0.00071106658
-0.00015363196
0.00027980275
0.00072870384
0.0011751158
0.0016205954
0.0018356251
0.00060878521
-0.0004321678
-0.0011321714
-0.00064328807
-0.00010973016
0.0003191422
0.00076491653
0.0012161437
0.0016727643
0.0018965784
0.00062969684
-0.00031056425
-0.00086747053
-0.0005446372
-7.9484836e-05
0.00034456775
0.00078861618
0.001245312
0.001721136
0.0018737772
0.00059358445
-0.00066651741
-0.0018508473
-0.0012011677
-0.00045352152
5.7176919e-05
0.00056844112
0.0010365226
0.0014165306
0.001468538
0.00045379384
-0.0007090906
-0.0018028109
-0.0010820394
-0.00043364338
8.5436338e-05
0.00060672614
0.0011026693
0.0015821859
0.0018000397
0.00059334144
-0.0006344931
-0.0016589779
-0.0010288092
-0.00039012579
0.00013135568
0.00065471815
0.0011534192
0.0016599026
0.0019450964
0.00065587024
-0.00062967166
-0.0016304522
-0.00098228855
-0.00033880855
0.00018177843
0.00070323424
0.0012031637
0.0017101985
0.0019887003
0.00066844958
-0.00062124101
-0.0015955821
-0.00093397429
-0.00028933766
0.00022478167
0.00074279839
0.0012467439
0.0017583091
0.0020293189
0.00067921396
-0.0006108321
-0.0015562735
-0.00088594649
-0.00024538261
0.0002618084
0.0007792591
0.0012872885
0.0018007002
0.0020640344
0.00068842235
-0.00059571767
-0.0015093051
-0.00083746627
-0.00020125728
0.00030080665
0.00081969907
0.0013319464
0.0018461058
0.0021006131
0.00069805386
-0.00056673432
-0.001439377
-0.0007854521
-0.00015205762
0.00034593327
0.00086446138
0.0013812894
0.0018991169
0.0021471057
0.00071108747
-0.00048528087
-0.0012659332
-0.00070945353
-0.00010285069
0.00039130825
0.00090749575
0.001430363
0.0019610877
0.0022200903
0.00073639143
-0.00034573321
-0.00096281849
-0.00059679127
-6.7834975e-05
0.00042126748
0.00093575553
0.0014643605
0.002018594
0.0021887933
0.00069022275
-0.00074248777
-0.0020544375
-0.0013271614
-0.00049319578
8.8765688e-05
0.00067337621
0.001205673
0.0016364113
0.0016934484
0.00052322652
-0.00078795288
-0.0020039709
-0.0012016816
-0.00046939934
0.00012641089
0.00071966295
0.0012787926
0.0018222232
0.0020687477
0.00068121623
-0.00070884331
-0.0018502652
-0.0011379552
-0.000410935
0.00018281887
0.00077057925
0.0013310866
0.0019085265
0.0022328959
0.00075178381
-0.00070429966
-0.0018147646
-0.0010751603
-0.00034678592
0.00023665197
0.00081889576
0.0013843574
0.0019656162
0.0022825835
0.00076601445
-0.00069297903
-0.0017680043
-0.0010153417
-0.00029393081
0.00027894006
0.00086164877
0.0014358939
0.0020214201
0.0023278808
0.00077784714
-0.00067920282
-0.0017207115
-0.00096491928
-0.00025066467
0.00031943162
0.0009073616
0.0014862657
0.0020700506
0.0023655413
0.00078765273
-0.00066212122
-0.0016708015
-0.00091610895
-0.00020286103
0.00036740605
0.00095849526
0.0015390775
0.0021201585
0.0024040463
0.00079749858
-0.00063045658
-0.0015952981
-0.00085935434
-0.00014585729
0.00042133991
0.0010105453
0.0015938595
0.0021775256
0.0024537543
0.00081133261
-0.00053824666
-0.0013986863
-0.00077271585
-8.9967443e-05
0.00047184028
0.0010572336
0.0016465525
0.0022456845
0.0025379966
0.00084135949
-0.00038025691
-0.0010558503
-0.00064551852
-5.0872447e-05
0.00050429784
0.0010867108
0.0016820722
0.0023114758
0.0025002966
0.00078619922
-0.00081675531
-0.0022580148
-0.0014560517
-0.00052894327
0.00012805046
0.00078024192
0.0013703776
0.0018539008
0.0019217713
0.00059455338
-0.00086776057
-0.0022082104
-0.0013178214
-0.00049337555
0.00017314247
0.00082506947
0.0014452617
0.0020630272
0.0023452078
0.00077175933
-0.00078355235
-0.0020362907
-0.0012321416
-0.00042090855
0.0002275954
0.00087005779
0.0015016377
0.002164171
0.0025300271
0.00084984036
-0.00077560698
-0.0019843001
-0.0011540063
-0.00035758947
0.00027383206
0.00092102829
0.0015682269
0.0022328637
0.0025847632
0.00086493526
-0.00075984047
-0.0019282559
-0.0010963555
-0.00031261126
0.0003191152
0.00098042284
0.001636775
0.0022965511
0.0026317059
0.00087691545
-0.00074554568
-0.0018847554
-0.0010533166
-0.00026606946
0.0003776635
0.0010470673
0.0016986893
0.00234687
0.0026667891
0.00088559622
-0.00072995556
-0.0018384402
-0.0010003964
-0.00020224596
0.00044515417
0.0011107564
0.0017544931
0.0023940627
0.0027007518
0.00089395752
-0.00069562295
-0.0017534953
-0.00093035152
-0.00013093214
0.00050812593
0.0011647853
0.0018066994
0.0024487606
0.0027515504
0.00090898091
-0.00059053796
-0.00152817
-0.00083056
-6.9865993e-05
0.00055916044
0.0012082682
0.0018563836
0.0025214603
0.0028514822
0.00094597789
-0.00041333195
-0.0011452395
-0.00069079621
-2.925336e-05
0.00059015196
0.0012338314
0.0018914607
0.0025994908
0.0028130415
0.00088335376
-0.00089254193
-0.0024643202
-0.0015753196
-0.00054322641
0.00017855498
0.00087811694
0.0015216242
0.0020701213
0.0021570936
0.00066829917
-0.00095003808
-0.0024065025
-0.0014059029
-0.00049281491
0.00021437293
0.00090693126
0.0016008821
0.0023115728
0.0026292051
0.00086287565
-0.00085399684
-0.0021971855
-0.001296342
-0.00042932669
0.00024541279
0.00094765008
0.0016746578
0.0024316928
0.0028300572
0.00094663991
-0.00083709365
-0.0021275249
-0.0012279345
-0.00039321307
0.00028350354
0.0010189827
0.0017649261
0.002509851
0.0028879601
0.00096314602
-0.0008203891
-0.0020832858
-0.0011967402
-0.00035650666
0.00035202973
0.001109903
0.0018498362
0.0025769386
0.0029355217
0.0009753431
-0.000813215
-0.0020606673
-0.0011588039
-0.00028659593
0.0004442806
0.0011968914
0.0019156078
0.0026228875
0.0029627383
0.00098098983
-0.00080117964
-0.0020137527
-0.0010846886
-0.00019425377
0.00052993857
0.0012643582
0.0019655383
0.0026594963
0.0029889084
0.00098805269
-0.00076037651
-0.0019076338
-0.00099475983
-0.00011141759
0.00059496233
0.0013125937
0.0020072949
0.0027093094
0.0030485724
0.0010084356
-0.000640212
-0.0016521812
-0.00088641039
-4.9007866e-05
0.00064297498
0.001346916
0.0020519604
0.0027950078
0.003175226
0.0010551322
-0.0004456355
-0.0012346702
-0.00073600486
-5.9530976e-06
0.00066974064
0.0013659804
0.002093129
0.0028956271
0.0031370861
0.00098300891
-0.0009756082
-0.0026708213
-0.0016583331
-0.00051969991
0.00023296701
0.00095965205
0.0016690945
0.0022949475
0.0023918112
0.00073869929
-0.0010326695
-0.0025753982
-0.0014396077
-0.00047447617
0.00023287717
0.0009755818
0.0017707419
0.0025683399
0.0028966939
0.0009451025
-0.00091199287
-0.0023148861
-0.0013394313
-0.00046184806
0.00023961804
0.0010381291
0.001868824
0.0026933996
0.0031103407
0.0010377117
-0.00088685255
-0.0022564965
-0.0013268258
-0.00045890045
0.00029932374
0.0011438094
0.0019689467
0.0027746368
0.0031840547
0.0010614475
-0.00088184368
-0.0022570343
-0.0013238557
-0.00039904813
0.00040761151
0.0012491101
0.0020540289
0.0028497133
0.0032369966
0.0010728499
-0.0008869125
-0.0022498456
-0.0012603793
-0.00029090691
0.0005139404
0.0013321124
0.002118302
0.0028907572
0.0032507267
0.0010734026
-0.00087122383
-0.0021785572
-0.0011556282
-0.00018806714
0.00059591471
0.0013958541
0.0021590964
0.0029137707
0.003279402
0.0010859658
-0.00081914754
-0.0020501161
-0.0010621744
-0.00010570205
0.00066329553
0.0014371801
0.0021883909
0.0029727658
0.0033713996
0.0011187084
-0.00068896225
-0.0017801052
-0.00094933122
-3.1753362e-05
0.00071203495
0.0014599115
0.0022411051
0.0030933196
0.0035250045
0.0011693316
-0.00048255903
-0.0013315866
-0.00077481375
2.0953869e-05
0.00072996762
0.0014795854
0.0023090638
0.0032183684
0.0034625933
0.0010771009
-0.001066777
-0.0028597094
-0.0016876199
-0.00047980498
0.00027078158
0.0010507056
0.0018529193
0.0025238195
0.0025872384
0.00079209536
-0.0011035581
-0.0026908079
-0.0014441278
-0.00048858871
0.00024222226
0.0011028997
0.001983634
0.0027885082
0.0031064381
0.0010138788
-0.00095417601
-0.0024151098
-0.0014251571
-0.00052790369
0.0002891417
0.001208962
0.0020629406
0.0029000246
0.0033705954
0.0011335223
-0.00094123004
-0.0024283451
-0.0014708031
-0.0004871309
0.00040342747
0.0012987596
0.0021347563
0.0030139639
0.0034897555
0.0011653624
-0.00096003189
-0.0024632085
-0.0014236993
-0.00036926932
0.00049369581
0.0013557861
0.0022290071
0.0031214244
0.003530292
0.0011630101
-0.00096026959
-0.0024099851
-0.001309598
-0.00028257682
0.00054270878
0.0014267703
0.0023079182
0.0031464369
0.0035263581
0.001164225
-0.00092523591
-0.0023049523
-0.0012278394
-0.00022244524
0.00062170647
0.0015021748
0.0023317793
0.0031651122
0.0036039453
0.0012012322
-0.00087312649
-0.0021999638
-0.0011584757
-0.00011651036
0.00071587061
0.0015295424
0.0023599306
0.0032796636
0.0037449024
0.0012398709
-0.00074877673
-0.0019287472
-0.0010023838
-1.0454642e-06
0.00075417938
0.0015458627
0.0024650061
0.0034429028
0.0038667725
0.0012676242
-0.00052699335
-0.001416607
-0.00077515835
4.3186219e-05
0.00075247316
0.0016031959
0.002578475
0.0035424908
0.0037283429
0.0011475845
-0.0011474129
-0.0030023397
-0.0017215816
-0.00051778972
0.00029713627
0.0012397571
0.0020999234
0.0026899823
0.0027012808
0.00083068633
-0.0011451925
-0.0027914241
-0.0015660449
-0.00059075086
0.00035942881
0.0013870855
0.0021740287
0.0028823726
0.0032975044
0.0011065634
-0.0010068025
-0.002622688
-0.0016401144
-0.0005259596
0.00054583676
0.0014451168
0.0021493746
0.0030553114
0.0037027865
0.0012639328
-0.0010415013
-0.0027099568
-0.0015773672
-0.00032456271
0.00061440104
0.0013814864
0.0022357992
0.0032899445
0.0038139671
0.0012584246
-0.0010554433
-0.0026308578
-0.0013739262
-0.00025497266
0.00051674311
0.0013953028
0.0024254921
0.0033948445
0.003759594
0.0012269476
-0.00099997303
-0.0024612566
-0.001322395
-0.00035365639
0.0005022176
0.0015289243
0.0024953851
0.0033579243
0.0038080535
0.001274244
-0.00095722428
-0.0024254983
-0.0013795254
-0.00030478674
0.00066418084
0.0015950619
0.0024675729
0.003455388
0.0040202992
0.0013443508
-0.00095056942
-0.0024118053
-0.0012606245
-7.7538948e-05
0.00076180339
0.001571005
0.002575897
0.0036852068
0.0041121467
0.0013310006
-0.00082896427
-0.0020601695
-0.00097195351
3.474639e-05
0.00073216057
0.0016556055
0.0027948556
0.0037808849
0.0040696538
0.0013134686
-0.00055308713
-0.0014102996
-0.00074416186
-2.0731593e-05
0.0007558898
0.0018317103
0.0028799903
0.0037345615
0.0038869148
0.0012091745
-0.0011802075
-0.0031159685
-0.0019607749
-0.00074346499
0.00043348768
0.0016210668
0.0022963505
0.0026883891
0.0028376651
0.00092426313
-0.0011705558
-0.0030760399
-0.0020340993
-0.0006718852
0.00080697324
0.0017376002
0.002105257
0.0029022301
0.0037248847
0.0013035179
-0.0011535884
-0.0031340418
-0.0019113817
-0.00017734646
0.0010222686
0.0014843231
0.0020861053
0.0033893565
0.0042033085
0.0014050845
-0.0012194387
-0.0030266466
-0.0013965831
6.5630471e-05
0.00068086137
0.0012874619
0.0024467473
0.003661452
0.0039939313
0.001271934
-0.0011058686
-0.0025679232
-0.0011738659
-0.00030006473
0.00037793362
0.0015338439
0.0027069001
0.0035155484
0.0038700824
0.0012938953
-0.00097044826
-0.0024378656
-0.0015226951
-0.0005787046
0.00057686751
0.001718566
0.0025575803
0.0035179173
0.00425894
0.0014634048
-0.0010281796
-0.0027046669
-0.0016240043
-0.00025054382
0.00080903772
0.0015678915
0.002585313
0.0039422135
0.0045099382
0.001455414
-0.0010978439
-0.002648111
-0.0011812047
4.2090505e-05
0.0006877006
0.0015969788
0.0030048132
0.0041252231
0.004210432
0.0013058626
-0.00088561893
-0.0020036996
-0.00086478238
-0.0001243518
0.00066550294
0.0019945566
0.0031926188
0.0038314695
0.0040635838
0.0013536801
-0.00050636423
-0.0012824676
-0.00091215813
-0.00029113577
0.00095270914
0.0022368347
0.0029563053
0.0036788686
0.0041606775
0.0013705917
-0.0011655228
-0.0033665714
-0.0026450498
-0.001041041
0.00093030843
0.0020257591
0.0021267924
0.0026670625
0.0034025831
0.0011874272
-0.001277195
-0.0038760983
-0.0028189214
-0.00026433535
0.0015593271
0.0015476027
0.0016721775
0.0033823648
0.0045972555
0.0015363417
-0.0015052074
-0.0039425623
-0.0017425498
0.00068066586
0.0011421911
0.001049192
0.0023950898
0.0042003049
0.0045083955
0.00137181
-0.0013931093
-0.0029735982
-0.00079809769
0.00010348294
0.00023264565
0.0014515474
0.0030497108
0.0037098992
0.0037824061
0.001257113
-0.00098740349
-0.0022208554
-0.0013747315
-0.0008662189
0.00052490356
0.002088758
0.00264931
0.0032298525
0.0042831681
0.0015800058
-0.00097376344
-0.0027617156
-0.0021247793
-0.00051380445
0.0011146945
0.0016231357
0.002272622
0.0040488915
0.0051084968
0.0016759211
-0.0013061746
-0.0031974227
-0.0014707867
0.00017334728
0.00069649187
0.0012515109
0.003120056
0.0047538249
0.0045432207
0.001298973
-0.0012768401
-0.0024934182
-0.00074724583
-0.00025958417
0.00033760568
0.0020938816
0.0037668289
0.0040272355
0.0037715852
0.001230266
-0.00082930639
-0.0016641801
-0.0011432522
-0.00079710532
0.0010354842
0.0027754834
0.0030983999
0.0033535447
0.0043971067
0.001650691
-0.00048039192
-0.0013876059
-0.0015620954
-0.00048481178
0.0016636963
0.0023539343
0.0024299175
0.0038811215
0.005053306
0.0016677323
-0.0012897668
-0.0041446594
-0.0035491443
-0.00070676479
0.001738846
0.0015970979
0.0016196508
0.0036203374
0.004691581
0.0014668481
-0.0016731387
-0.0052364714
-0.0028786038
0.0011628997
0.0013169649
-6.3829418e-05
0.0019218966
0.0049290869
0.00477794
0.001224536
-0.0020176414
-0.0041948431
-0.00033474396
0.000955365
-0.00023679926
0.0012244182
0.004184729
0.0045412555
0.0036149155
0.0011169624
-0.0012261116
-0.002022071
-0.00087059365
-0.0015091376
0.00022793099
0.0031088205
0.0030767216
0.0024265346
0.0042517053
0.0018949668
-0.00077119843
-0.0025327133
-0.0030067812
-0.0010438973
0.0022302768
0.0021104007
0.0010784131
0.0035326936
0.0062916467
0.0022468493
-0.0015073657
-0.0039977164
-0.0019596276
0.00095793847
0.0011775087
0.00011052462
0.0026158025
0.0059625516
0.0053962945
0.0012904208
-0.0018784833
-0.0029053932
0.00016586881
-0.0001579145
-0.0007680192
0.0016969506
0.0050483165
0.0047445125
0.0029627382
0.00080868262
-0.0013058686
-0.001432638
-0.00080480234
-0.0021483774
0.00071658951
0.0040804279
0.0037063738
0.0024014796
0.0038857696
0.0017628238
-0.0010059837
-0.001984475
-0.0023366835
-0.0011664766
0.002767998
0.0029087696
0.0014872444
0.00350227
0.0062750142
0.0022830063
-0.0012482959
-0.0025093036
-0.0013310375
0.00052835372
0.001861179
0.00075151947
0.0021958489
0.0057137555
0.0058583758
0.0014850649
-0.0022328176
-0.0062549747
-0.0029639208
0.0016937492
0.0010540184
-0.00089973738
0.0033302591
0.0076076365
0.0055251107
0.00096637829
-0.0028225411
-0.0059759022
0.00089499961
0.0021803906
-0.0035998617
-0.0015785671
0.0055547273
0.0050117001
0.0006267725
-0.00026319685
-0.0020467693
-0.0014103932
0.0014674959
-0.0032110653
-0.0017103071
0.0060230329
0.0055754423
0.00042063641
0.0020946238
0.0016899268
-0.00024992744
-0.0015444855
-0.0052801651
-0.0034999595
0.005146248
0.0048741268
-0.0016531728
0.0013989593
0.0092375011
0.0038979193
-0.0017223418
-0.006315208
-0.0042128542
0.0035351108
0.0040917524
-0.0028490838
-0.0004788067
0.0086221555
0.0089859863
0.0018730604
-0.0033525143
-0.0043088113
0.0034659448
0.0023021003
-0.0037777375
-0.0013761836
0.0077283146
0.0077023878
0.0013072026
-0.00041636021
-0.0021748949
0.00060756247
0.0022398401
-0.0053370059
-0.0021585582
0.0069173333
0.0065517578
0.00012350966
0.0014625712
0.001681246
-0.0018695355
-0.0020636277
-0.0037419551
-0.0037521491
0.0056037499
0.0056543808
-0.0010696734
0.0011633725
0.0085198901
0.0036704878
-0.0039055192
-0.0065794377
-0.0013729011
0.0028645132
0.0041448709
-0.0015813126
1.2742072e-05
0.0077676241
0.0081942715
0.0017662117
-0.0051350944
-0.005494115
0.0048687732
0.0031392138
-0.0023265485
-0.0018690345
0.006143014
0.0078950728
0.0026889612
2.8092364e-07
-0.0060178891
-0.011800817
0.0044536144
0.0064828888
-0.00807905
-0.0023681806
0.016989663
0.016606089
0.0053482399
0.00051043523
-0.00590918
-0.001025165
0.011933764
-0.0073640597
-0.014478641
0.0075752635
0.011307022
-0.0059134669
-0.0052691955
0.00090440477
0.0011658788
0.0052505182
-0.0067881518
-0.013438911
0.0093879582
0.015584461
-0.0072070714
-0.010214399
0.0073156411
0.0048503502
-0.0009224137
-0.012266931
-0.015669671
0.0076997891
0.017206148
-0.0066519221
-0.01288922
0.010961143
0.016311216
0.0025551828
-0.0080654204
-0.014671283
0.008275697
0.015219181
-0.0073365269
-0.014203093
0.010897889
0.018766677
-0.0016870783
-0.0047064215
-0.0051888081
0.0052000769
0.016015119
-0.0090246959
-0.0151008
0.010286331
0.018360259
-0.0026421664
-0.009577579
-0.0012705053
-0.0014364575
0.0032813603
-0.0059514883
-0.014568374
0.0096017256
0.017052248
-0.0047201229
-0.0085284411
0.010664755
0.0068022598
-0.0089772352
-0.018996657
-0.0081811233
0.0090802638
0.016148679
-0.0053316807
-0.010418207
0.011166514
0.017029583
0.0034630933
-0.016449495
-0.023539129
0.010923122
0.014412703
-0.0040015834
-0.01024287
0.0090885574
0.014605974
0.0001973263
-0.0024689994
-0.016055526
-0.017029257
0.013399289
7.7545247e-05
-0.0097401166
0.0070201514
0.016188956
0.00069908604
-0.0043215221
0.00045052766
-0.022660951
-0.018563775
0.038161748
-0.0033507958
-0.039999483
0.022319313
0.063384862
0.034840556
0.032712004
0.016681604
0.0027626387
0.030003735
0.0058462785
-0.047345169
-0.0032951349
0.044097472
0.00082758018
-0.013914475
0.058842948
0.035682711
0.0097173895
-0.0060669483
-0.048978303
-0.0032333602
0.052126776
-0.00083751948
-0.04984416
0.0068215685
0.072414561
0.029074145
-0.018781008
-0.057136316
-0.0064695119
0.053517127
0.0059755125
-0.052427674
-0.0038822341
0.046943879
0.026342956
0.0019321294
-0.019612194
-0.0059495139
0.051883995
0.0036981859
-0.052552713
-0.0015621907
0.050876257
0.0050781434
-0.028522321
-0.0059984655
0.0056885575
0.034989945
0.0028011371
-0.051162362
-0.001384777
0.051998495
0.0040182438
-0.039157386
0.0024917468
0.013193663
-0.0050934199
-0.029106344
-0.044641153
0.0029735125
0.051873457
0.0016941138
-0.04183713
0.0056854165
0.042010641
0.012345991
-0.036016297
-0.07823908
-0.0019086801
0.049558056
0.0065157033
-0.040714892
0.0028710683
0.039171748
0.004757824
-0.007709575
-0.037596775
-0.057125335
0.016217202
0.0012300908
-0.034227808
0.002301385
0.036492003
-0.0010133038
-0.022537781
-0.0038962559
-0.018595667
-0.038536521
-0.03440867
-0.051378828
-0.017335509
0.02981807
0.0051371472
-0.025376673
0.0032359033
0.0094728815
-0.015121186
-0.0065323864
0.037231781
-0.007489488
-0.048202234
0.00086546978
0.017211192
-0.041989716
-0.065815199
-0.018073412
0.0074143228
0.036769912
0.0066755453
-0.043260263
0.003235413
0.048703307
-0.0040338088
-0.047398401
-0.040925954
-0.012494583
0.013747013
-0.0014428725
-0.049325328
-0.0010049443
0.054226148
0.0027723529
-0.043989686
0.001207479
0.013495324
-0.0043366913
-0.012956502
-0.049787197
-0.007370695
0.053487868
0.0053324379
-0.050509868
0.001712348
0.049330855
-0.0033988863
-0.017120803
-0.010100171
0.0050416702
0.047422804
0.0022434671
-0.052225243
-0.00022973123
0.053034667
0.0079700311
-0.040649774
-0.01506216
0.021335264
0.052641187
-0.0052736687
-0.052963524
-0.00046114192
0.052092589
0.0043944587
-0.035897644
-7.3524456e-05
0.0098109409
0.021791722
0.0069485557
-0.051790374
-0.00075861934
0.050377214
0.0010051951
-0.040658936
0.0090252285
0.043158122
0.011702166
0.0071719297
-0.0085596932
0.00047248525
0.04406083
0.002220971
-0.041601014
0.0041589185
0.041370028
0.0076079008
-0.00670132
0.018185931
0.050145749
0.044938885
0.0060039364
-0.034851285
0.0020603905
0.036608735
0.00087586622
-0.016588285
-0.0011326637
0.02376476
0.070750832
0.037999556
-0.010084269
0.0055463295
0.042206881
0.011840346
-0.018376378
0.016532771
0.015379384
1.8428295e-05
0.0095678292
0.0041665268
-0.01709123
-0.0042697361
0.018856678
0.0081714087
-0.0075410559
-0.012786797
-0.005655451
0.0045876045
0.0034656395
-0.015718495
-0.0090196882
0.015541996
0.009436934
-0.0088024438
0.0020791667
0.0027764172
-0.0035221137
-0.0040496982
-0.019606596
-0.011500455
0.015008707