/*--------------------------------*- C++ -*----------------------------------*\
| =========                 |                                                 |
| \\      /  F ield         | OpenFOAM: The Open Source CFD Toolbox           |
|  \\    /   O peration     | Version:  v2106                                 |
|   \\  /    A nd           | Website:  www.openfoam.com                      |
|    \\/     M anipulation  |                                                 |
\*---------------------------------------------------------------------------*/
FoamFile
{
    version     2.0;
    format      ascii;
    arch        "LSB;label=32;scalar=64";
    class       volScalarField;
    location    "80";
    object      gradTz;
}
// * * * * * * * * * * * * * * * * * * * * * * * * * * * * * * * * * * * * * //

dimensions      [0 -1 0 1 0 0 0];

internalField   nonuniform List<scalar> 
10000
(
2997.5657
2997.5654
2997.565
2997.5649
2997.5648
2997.5649
2997.5649
2997.5651
2997.5652
2997.5654
2997.5654
2997.565
2997.5647
2997.5646
2997.5645
2997.5645
2997.5646
2997.5648
2997.5649
2997.5651
2997.565
2997.5647
2997.5644
2997.5643
2997.5642
2997.5643
2997.5644
2997.5645
2997.5647
2997.5649
2997.5649
2997.5646
2997.5643
2997.5642
2997.5641
2997.5642
2997.5643
2997.5644
2997.5646
2997.5648
2997.5648
2997.5645
2997.5642
2997.5641
2997.5641
2997.5641
2997.5643
2997.5644
2997.5646
2997.5648
2997.5649
2997.5645
2997.5643
2997.5642
2997.5641
2997.5642
2997.5643
2997.5645
2997.5647
2997.5649
2997.5649
2997.5646
2997.5644
2997.5643
2997.5643
2997.5643
2997.5644
2997.5646
2997.5648
2997.565
2997.5651
2997.5648
2997.5645
2997.5644
2997.5644
2997.5645
2997.5646
2997.5648
2997.565
2997.5652
2997.5652
2997.5649
2997.5647
2997.5646
2997.5646
2997.5647
2997.5648
2997.565
2997.5652
2997.5655
2997.5654
2997.5651
2997.5649
2997.5648
2997.5648
2997.5649
2997.565
2997.5652
2997.5655
2997.5657
2997.568
2997.5677
2997.5674
2997.5673
2997.5672
2997.5672
2997.5673
2997.5675
2997.5677
2997.5678
2997.5677
2997.5673
2997.5671
2997.567
2997.5669
2997.567
2997.5671
2997.5672
2997.5674
2997.5676
2997.5674
2997.5671
2997.5669
2997.5668
2997.5667
2997.5668
2997.5669
2997.567
2997.5672
2997.5675
2997.5673
2997.567
2997.5668
2997.5667
2997.5666
2997.5667
2997.5668
2997.5669
2997.5672
2997.5674
2997.5672
2997.5669
2997.5667
2997.5666
2997.5666
2997.5666
2997.5668
2997.5669
2997.5672
2997.5674
2997.5672
2997.567
2997.5668
2997.5667
2997.5666
2997.5667
2997.5668
2997.567
2997.5672
2997.5675
2997.5673
2997.5671
2997.5669
2997.5668
2997.5668
2997.5668
2997.5669
2997.5671
2997.5674
2997.5676
2997.5675
2997.5672
2997.567
2997.5669
2997.5669
2997.567
2997.5671
2997.5673
2997.5676
2997.5678
2997.5677
2997.5674
2997.5672
2997.5672
2997.5672
2997.5672
2997.5674
2997.5676
2997.5678
2997.5681
2997.5678
2997.5676
2997.5675
2997.5674
2997.5674
2997.5675
2997.5676
2997.5678
2997.5681
2997.5684
2997.5723
2997.5721
2997.5718
2997.5717
2997.5717
2997.5717
2997.5718
2997.572
2997.5722
2997.5723
2997.5721
2997.5718
2997.5716
2997.5715
2997.5714
2997.5715
2997.5716
2997.5717
2997.572
2997.5722
2997.5718
2997.5716
2997.5714
2997.5713
2997.5712
2997.5713
2997.5714
2997.5716
2997.5718
2997.5721
2997.5717
2997.5715
2997.5713
2997.5712
2997.5712
2997.5712
2997.5713
2997.5715
2997.5718
2997.572
2997.5717
2997.5714
2997.5712
2997.5712
2997.5711
2997.5712
2997.5713
2997.5715
2997.5718
2997.5721
2997.5717
2997.5715
2997.5713
2997.5712
2997.5712
2997.5713
2997.5714
2997.5716
2997.5719
2997.5721
2997.5718
2997.5716
2997.5714
2997.5713
2997.5713
2997.5714
2997.5715
2997.5717
2997.572
2997.5723
2997.572
2997.5717
2997.5716
2997.5715
2997.5715
2997.5716
2997.5717
2997.5719
2997.5722
2997.5725
2997.5722
2997.572
2997.5718
2997.5718
2997.5718
2997.5719
2997.572
2997.5722
2997.5725
2997.5728
2997.5723
2997.5722
2997.5721
2997.572
2997.5721
2997.5721
2997.5723
2997.5725
2997.5728
2997.5731
2997.5791
2997.5788
2997.5786
2997.5785
2997.5785
2997.5785
2997.5786
2997.5788
2997.579
2997.5792
2997.5788
2997.5785
2997.5784
2997.5783
2997.5783
2997.5783
2997.5784
2997.5786
2997.5788
2997.5791
2997.5786
2997.5784
2997.5782
2997.5781
2997.5781
2997.5781
2997.5783
2997.5784
2997.5787
2997.579
2997.5785
2997.5783
2997.5781
2997.578
2997.578
2997.5781
2997.5782
2997.5784
2997.5787
2997.579
2997.5785
2997.5783
2997.5781
2997.578
2997.578
2997.5781
2997.5782
2997.5784
2997.5787
2997.579
2997.5785
2997.5783
2997.5781
2997.5781
2997.5781
2997.5781
2997.5783
2997.5785
2997.5788
2997.5791
2997.5786
2997.5784
2997.5783
2997.5782
2997.5782
2997.5783
2997.5784
2997.5786
2997.5789
2997.5792
2997.5788
2997.5786
2997.5784
2997.5784
2997.5784
2997.5785
2997.5786
2997.5789
2997.5792
2997.5795
2997.579
2997.5788
2997.5787
2997.5787
2997.5787
2997.5788
2997.5789
2997.5792
2997.5795
2997.5798
2997.5792
2997.5791
2997.579
2997.579
2997.579
2997.5791
2997.5792
2997.5795
2997.5798
2997.5801
2997.5881
2997.5879
2997.5877
2997.5876
2997.5876
2997.5876
2997.5878
2997.5879
2997.5882
2997.5884
2997.5879
2997.5876
2997.5875
2997.5874
2997.5874
2997.5874
2997.5875
2997.5877
2997.588
2997.5883
2997.5877
2997.5875
2997.5873
2997.5872
2997.5872
2997.5873
2997.5874
2997.5876
2997.5879
2997.5882
2997.5876
2997.5874
2997.5872
2997.5872
2997.5872
2997.5872
2997.5874
2997.5876
2997.5878
2997.5881
2997.5876
2997.5874
2997.5872
2997.5872
2997.5872
2997.5872
2997.5874
2997.5876
2997.5879
2997.5882
2997.5876
2997.5874
2997.5873
2997.5872
2997.5872
2997.5873
2997.5875
2997.5877
2997.588
2997.5883
2997.5878
2997.5875
2997.5874
2997.5874
2997.5874
2997.5875
2997.5876
2997.5878
2997.5881
2997.5884
2997.5879
2997.5877
2997.5876
2997.5876
2997.5876
2997.5877
2997.5878
2997.5881
2997.5884
2997.5887
2997.5882
2997.588
2997.5879
2997.5878
2997.5879
2997.588
2997.5881
2997.5884
2997.5887
2997.589
2997.5884
2997.5883
2997.5882
2997.5881
2997.5882
2997.5883
2997.5884
2997.5887
2997.589
2997.5893
2997.5995
2997.5993
2997.5991
2997.599
2997.599
2997.5991
2997.5992
2997.5994
2997.5996
2997.5998
2997.5993
2997.599
2997.5989
2997.5988
2997.5988
2997.5988
2997.599
2997.5992
2997.5994
2997.5997
2997.5991
2997.5989
2997.5987
2997.5986
2997.5986
2997.5987
2997.5988
2997.599
2997.5993
2997.5996
2997.599
2997.5988
2997.5986
2997.5986
2997.5986
2997.5986
2997.5988
2997.599
2997.5993
2997.5996
2997.599
2997.5988
2997.5986
2997.5986
2997.5986
2997.5987
2997.5988
2997.599
2997.5993
2997.5996
2997.5991
2997.5988
2997.5987
2997.5986
2997.5987
2997.5988
2997.5989
2997.5991
2997.5994
2997.5997
2997.5992
2997.599
2997.5988
2997.5988
2997.5988
2997.5989
2997.5991
2997.5993
2997.5996
2997.5999
2997.5994
2997.5992
2997.599
2997.599
2997.599
2997.5991
2997.5993
2997.5995
2997.5998
2997.6001
2997.5996
2997.5994
2997.5993
2997.5993
2997.5993
2997.5994
2997.5996
2997.5998
2997.6002
2997.6005
2997.5998
2997.5997
2997.5996
2997.5996
2997.5996
2997.5997
2997.5999
2997.6001
2997.6005
2997.6008
2997.6132
2997.6129
2997.6127
2997.6127
2997.6127
2997.6127
2997.6129
2997.613
2997.6133
2997.6135
2997.6129
2997.6127
2997.6125
2997.6124
2997.6124
2997.6125
2997.6127
2997.6129
2997.6131
2997.6134
2997.6127
2997.6125
2997.6124
2997.6123
2997.6123
2997.6124
2997.6125
2997.6127
2997.613
2997.6133
2997.6127
2997.6124
2997.6123
2997.6122
2997.6123
2997.6123
2997.6125
2997.6127
2997.613
2997.6133
2997.6127
2997.6124
2997.6123
2997.6123
2997.6123
2997.6124
2997.6125
2997.6127
2997.613
2997.6133
2997.6127
2997.6125
2997.6124
2997.6123
2997.6124
2997.6125
2997.6126
2997.6128
2997.6131
2997.6134
2997.6129
2997.6127
2997.6125
2997.6125
2997.6125
2997.6126
2997.6128
2997.613
2997.6133
2997.6136
2997.613
2997.6129
2997.6127
2997.6127
2997.6127
2997.6128
2997.613
2997.6132
2997.6136
2997.6139
2997.6133
2997.6131
2997.613
2997.613
2997.613
2997.6131
2997.6133
2997.6136
2997.6139
2997.6142
2997.6135
2997.6134
2997.6133
2997.6133
2997.6133
2997.6134
2997.6136
2997.6139
2997.6142
2997.6145
2997.6291
2997.6288
2997.6287
2997.6286
2997.6286
2997.6286
2997.6288
2997.629
2997.6292
2997.6294
2997.6288
2997.6286
2997.6284
2997.6284
2997.6284
2997.6284
2997.6286
2997.6288
2997.6291
2997.6293
2997.6287
2997.6284
2997.6283
2997.6282
2997.6282
2997.6283
2997.6285
2997.6287
2997.629
2997.6292
2997.6286
2997.6284
2997.6282
2997.6282
2997.6282
2997.6283
2997.6284
2997.6286
2997.6289
2997.6292
2997.6286
2997.6284
2997.6282
2997.6282
2997.6282
2997.6283
2997.6285
2997.6287
2997.629
2997.6293
2997.6286
2997.6284
2997.6283
2997.6283
2997.6283
2997.6284
2997.6286
2997.6288
2997.6291
2997.6294
2997.6288
2997.6286
2997.6285
2997.6284
2997.6285
2997.6286
2997.6287
2997.629
2997.6293
2997.6296
2997.629
2997.6288
2997.6287
2997.6286
2997.6287
2997.6288
2997.629
2997.6292
2997.6295
2997.6298
2997.6292
2997.6291
2997.629
2997.6289
2997.629
2997.6291
2997.6293
2997.6295
2997.6298
2997.6302
2997.6294
2997.6293
2997.6292
2997.6292
2997.6293
2997.6294
2997.6296
2997.6298
2997.6302
2997.6304
2997.6472
2997.647
2997.6468
2997.6467
2997.6467
2997.6468
2997.647
2997.6471
2997.6474
2997.6476
2997.647
2997.6468
2997.6466
2997.6465
2997.6465
2997.6466
2997.6468
2997.647
2997.6472
2997.6475
2997.6468
2997.6466
2997.6464
2997.6464
2997.6464
2997.6465
2997.6466
2997.6468
2997.6471
2997.6474
2997.6467
2997.6465
2997.6464
2997.6464
2997.6464
2997.6464
2997.6466
2997.6468
2997.6471
2997.6474
2997.6467
2997.6465
2997.6464
2997.6464
2997.6464
2997.6465
2997.6466
2997.6469
2997.6472
2997.6475
2997.6468
2997.6466
2997.6465
2997.6464
2997.6465
2997.6466
2997.6467
2997.647
2997.6473
2997.6476
2997.647
2997.6468
2997.6466
2997.6466
2997.6466
2997.6467
2997.6469
2997.6472
2997.6475
2997.6478
2997.6471
2997.647
2997.6468
2997.6468
2997.6469
2997.647
2997.6472
2997.6474
2997.6477
2997.648
2997.6474
2997.6472
2997.6471
2997.6471
2997.6472
2997.6473
2997.6475
2997.6477
2997.648
2997.6483
2997.6476
2997.6475
2997.6474
2997.6474
2997.6475
2997.6476
2997.6478
2997.648
2997.6483
2997.6486
2997.6676
2997.6674
2997.6672
2997.6671
2997.6671
2997.6672
2997.6673
2997.6675
2997.6678
2997.668
2997.6674
2997.6671
2997.667
2997.6669
2997.6669
2997.667
2997.6671
2997.6673
2997.6676
2997.6679
2997.6672
2997.667
2997.6668
2997.6668
2997.6668
2997.6669
2997.667
2997.6672
2997.6675
2997.6678
2997.6671
2997.6669
2997.6668
2997.6668
2997.6668
2997.6668
2997.667
2997.6672
2997.6675
2997.6678
2997.6671
2997.6669
2997.6668
2997.6668
2997.6668
2997.6668
2997.667
2997.6673
2997.6676
2997.6679
2997.6672
2997.667
2997.6669
2997.6668
2997.6668
2997.6669
2997.6671
2997.6674
2997.6677
2997.668
2997.6673
2997.6671
2997.667
2997.667
2997.667
2997.6671
2997.6673
2997.6676
2997.6679
2997.6681
2997.6675
2997.6673
2997.6672
2997.6672
2997.6673
2997.6674
2997.6676
2997.6678
2997.6681
2997.6684
2997.6678
2997.6676
2997.6675
2997.6675
2997.6676
2997.6677
2997.6679
2997.6681
2997.6684
2997.6687
2997.668
2997.6679
2997.6678
2997.6678
2997.6679
2997.668
2997.6681
2997.6684
2997.6687
2997.669
2997.6902
2997.6899
2997.6897
2997.6897
2997.6898
2997.6898
2997.6899
2997.6901
2997.6904
2997.6906
2997.6899
2997.6897
2997.6896
2997.6896
2997.6896
2997.6896
2997.6897
2997.6899
2997.6902
2997.6905
2997.6897
2997.6896
2997.6895
2997.6894
2997.6894
2997.6895
2997.6896
2997.6898
2997.6901
2997.6904
2997.6897
2997.6896
2997.6894
2997.6894
2997.6893
2997.6894
2997.6896
2997.6898
2997.6901
2997.6904
2997.6898
2997.6896
2997.6894
2997.6893
2997.6893
2997.6894
2997.6896
2997.6899
2997.6902
2997.6905
2997.6898
2997.6896
2997.6895
2997.6894
2997.6894
2997.6895
2997.6897
2997.69
2997.6903
2997.6905
2997.6899
2997.6897
2997.6896
2997.6896
2997.6896
2997.6897
2997.6899
2997.6901
2997.6904
2997.6907
2997.6901
2997.6899
2997.6898
2997.6898
2997.6899
2997.69
2997.6901
2997.6903
2997.6906
2997.691
2997.6904
2997.6902
2997.6901
2997.6901
2997.6902
2997.6903
2997.6904
2997.6906
2997.691
2997.6913
2997.6906
2997.6905
2997.6904
2997.6904
2997.6905
2997.6905
2997.6907
2997.691
2997.6913
2997.6916
2997.7149
2997.7146
2997.7145
2997.7145
2997.7145
2997.7146
2997.7147
2997.7149
2997.7152
2997.7153
2997.7146
2997.7144
2997.7143
2997.7143
2997.7143
2997.7144
2997.7145
2997.7147
2997.715
2997.7152
2997.7145
2997.7143
2997.7143
2997.7142
2997.7142
2997.7142
2997.7144
2997.7146
2997.7149
2997.7152
2997.7145
2997.7143
2997.7142
2997.7141
2997.7141
2997.7142
2997.7144
2997.7146
2997.7149
2997.7152
2997.7145
2997.7143
2997.7142
2997.7141
2997.7141
2997.7142
2997.7144
2997.7146
2997.7149
2997.7152
2997.7146
2997.7144
2997.7142
2997.7142
2997.7142
2997.7143
2997.7145
2997.7147
2997.715
2997.7153
2997.7147
2997.7145
2997.7144
2997.7144
2997.7144
2997.7145
2997.7146
2997.7148
2997.7151
2997.7155
2997.7149
2997.7147
2997.7146
2997.7146
2997.7146
2997.7147
2997.7148
2997.7151
2997.7154
2997.7158
2997.7152
2997.715
2997.7149
2997.7149
2997.7149
2997.715
2997.7151
2997.7154
2997.7158
2997.7161
2997.7153
2997.7152
2997.7152
2997.7152
2997.7152
2997.7153
2997.7155
2997.7158
2997.7161
2997.7163
2997.7417
2997.7415
2997.7414
2997.7414
2997.7414
2997.7415
2997.7417
2997.7419
2997.7421
2997.7422
2997.7415
2997.7413
2997.7413
2997.7412
2997.7411
2997.7413
2997.7415
2997.7417
2997.7419
2997.7421
2997.7414
2997.7413
2997.7411
2997.741
2997.741
2997.7413
2997.7414
2997.7415
2997.7418
2997.7421
2997.7414
2997.7412
2997.741
2997.7409
2997.7411
2997.7412
2997.7413
2997.7415
2997.7418
2997.7421
2997.7414
2997.7411
2997.741
2997.7411
2997.7412
2997.7412
2997.7413
2997.7416
2997.7419
2997.7421
2997.7415
2997.7413
2997.7413
2997.7412
2997.7412
2997.7412
2997.7414
2997.7416
2997.7419
2997.7422
2997.7417
2997.7415
2997.7414
2997.7413
2997.7413
2997.7414
2997.7415
2997.7417
2997.7421
2997.7424
2997.7419
2997.7417
2997.7415
2997.7415
2997.7416
2997.7416
2997.7417
2997.742
2997.7424
2997.7427
2997.7421
2997.7419
2997.7418
2997.7418
2997.7419
2997.7419
2997.7421
2997.7424
2997.7427
2997.743
2997.7422
2997.7421
2997.7421
2997.7421
2997.7421
2997.7422
2997.7424
2997.7427
2997.743
2997.7432
2997.7708
2997.7706
2997.7705
2997.7704
2997.7703
2997.7705
2997.7709
2997.771
2997.771
2997.7712
2997.7706
2997.7705
2997.7702
2997.7699
2997.7701
2997.7705
2997.7707
2997.7706
2997.7708
2997.7712
2997.7705
2997.7702
2997.7698
2997.7698
2997.7702
2997.7705
2997.7705
2997.7705
2997.7709
2997.7713
2997.7704
2997.7699
2997.7698
2997.77
2997.7703
2997.7703
2997.7703
2997.7706
2997.7709
2997.7711
2997.7703
2997.7701
2997.7702
2997.7703
2997.7702
2997.7702
2997.7704
2997.7707
2997.7708
2997.771
2997.7705
2997.7705
2997.7705
2997.7703
2997.7702
2997.7703
2997.7705
2997.7706
2997.7709
2997.7713
2997.7709
2997.7707
2997.7705
2997.7703
2997.7704
2997.7705
2997.7705
2997.7707
2997.7713
2997.7716
2997.771
2997.7706
2997.7705
2997.7706
2997.7707
2997.7706
2997.7707
2997.7712
2997.7716
2997.7717
2997.771
2997.7708
2997.7709
2997.7709
2997.7708
2997.7709
2997.7713
2997.7716
2997.7717
2997.7718
2997.7712
2997.7712
2997.7713
2997.7711
2997.771
2997.7713
2997.7716
2997.7717
2997.7718
2997.7721
2997.8022
2997.8022
2997.8018
2997.8013
2997.8013
2997.8019
2997.8021
2997.8019
2997.8021
2997.8026
2997.8022
2997.802
2997.8011
2997.8007
2997.8014
2997.8019
2997.8016
2997.8014
2997.8021
2997.8027
2997.8018
2997.8011
2997.8005
2997.801
2997.8017
2997.8016
2997.8013
2997.8018
2997.8025
2997.8026
2997.8013
2997.8007
2997.801
2997.8015
2997.8014
2997.8011
2997.8015
2997.8019
2997.8019
2997.8019
2997.8013
2997.8014
2997.8017
2997.8014
2997.8011
2997.8014
2997.8018
2997.8016
2997.8016
2997.8022
2997.8019
2997.8019
2997.8016
2997.8011
2997.8014
2997.8017
2997.8015
2997.8015
2997.8022
2997.8028
2997.8021
2997.8016
2997.8013
2997.8015
2997.8018
2997.8015
2997.8015
2997.8022
2997.8028
2997.8027
2997.8019
2997.8014
2997.8018
2997.8019
2997.8016
2997.8015
2997.8022
2997.8027
2997.8025
2997.8024
2997.8021
2997.8021
2997.8025
2997.8019
2997.8016
2997.8022
2997.8028
2997.8025
2997.8023
2997.8028
2997.8026
2997.8027
2997.8026
2997.8019
2997.8022
2997.8028
2997.8027
2997.8024
2997.8028
2997.8035
2997.836
2997.8358
2997.8349
2997.8342
2997.835
2997.8355
2997.8349
2997.8348
2997.8359
2997.8367
2997.8358
2997.835
2997.8336
2997.8342
2997.8355
2997.8347
2997.8337
2997.8345
2997.8357
2997.8356
2997.8349
2997.8336
2997.8339
2997.8352
2997.835
2997.8339
2997.8347
2997.836
2997.8359
2997.8355
2997.8342
2997.8342
2997.8352
2997.8347
2997.8336
2997.8343
2997.8355
2997.8349
2997.8342
2997.8352
2997.835
2997.8355
2997.835
2997.8336
2997.8343
2997.8355
2997.8348
2997.8339
2997.8348
2997.8363
2997.8355
2997.8347
2997.8339
2997.8343
2997.8355
2997.8349
2997.8339
2997.8349
2997.8363
2997.8361
2997.8349
2997.8337
2997.8347
2997.8355
2997.8348
2997.8339
2997.835
2997.8363
2997.8358
2997.8348
2997.8348
2997.8345
2997.836
2997.8349
2997.8339
2997.8349
2997.8363
2997.8356
2997.8346
2997.8353
2997.8359
2997.8357
2997.8359
2997.8342
2997.8348
2997.8363
2997.8358
2997.8346
2997.8354
2997.8368
2997.8367
2997.8356
2997.8355
2997.8352
2997.8363
2997.8361
2997.8348
2997.8353
2997.8368
2997.837
2997.8721
2997.8705
2997.8692
2997.8702
2997.8719
2997.8703
2997.869
2997.8715
2997.8739
2997.8736
2997.8705
2997.8682
2997.8684
2997.8719
2997.8708
2997.8667
2997.8677
2997.8706
2997.8693
2997.8666
2997.8692
2997.8684
2997.8717
2997.8716
2997.8678
2997.8687
2997.8728
2997.8719
2997.869
2997.8695
2997.8702
2997.8719
2997.8716
2997.8674
2997.868
2997.8723
2997.8714
2997.8676
2997.8691
2997.8731
2997.8719
2997.8708
2997.8678
2997.868
2997.8722
2997.8716
2997.8673
2997.8684
2997.8727
2997.8731
2997.8703
2997.8667
2997.8687
2997.8723
2997.8716
2997.8674
2997.8686
2997.8729
2997.8722
2997.8691
2997.869
2997.8677
2997.8728
2997.8714
2997.8673
2997.8686
2997.873
2997.872
2997.8683
2997.8689
2997.8715
2997.8706
2997.8719
2997.8676
2997.8684
2997.8729
2997.872
2997.868
2997.8691
2997.8728
2997.8739
2997.8693
2997.869
2997.8691
2997.8727
2997.8722
2997.8683
2997.8691
2997.8728
2997.8729
2997.8736
2997.8666
2997.8695
2997.8731
2997.8731
2997.8691
2997.8689
2997.8728
2997.8729
2997.8704
2997.912
2997.9049
2997.9043
2997.9129
2997.9115
2997.9031
2997.9076
2997.9185
2997.9206
2997.9191
2997.9049
2997.8986
2997.9091
2997.9134
2997.9006
2997.8976
2997.9082
2997.907
2997.8974
2997.8969
2997.9043
2997.9091
2997.9138
2997.9027
2997.8994
2997.9123
2997.9138
2997.9009
2997.899
2997.9046
2997.9129
2997.9134
2997.9027
2997.8986
2997.9119
2997.9155
2997.9021
2997.8996
2997.9107
2997.9116
2997.9115
2997.9006
2997.8994
2997.9119
2997.9157
2997.9023
2997.8993
2997.9121
2997.9146
2997.9042
2997.9031
2997.8976
2997.9123
2997.9155
2997.9023
2997.8993
2997.9125
2997.915
2997.9039
2997.9
2997.9076
2997.9082
2997.9138
2997.9021
2997.8993
2997.9125
2997.9147
2997.9027
2997.9014
2997.9104
2997.9185
2997.907
2997.9009
2997.8996
2997.9121
2997.915
2997.9027
2997.9009
2997.9115
2997.914
2997.9206
2997.8974
2997.899
2997.9107
2997.9146
2997.9039
2997.9014
2997.9115
2997.9125
2997.9054
2997.9191
2997.8969
2997.9046
2997.9116
2997.9042
2997.9
2997.9104
2997.914
2997.9054
2997.9039
2997.9649
2997.9342
2997.9525
2997.9753
2997.9475
2997.9343
2997.9707
2997.9943
2997.998
2998.0215
2997.9342
2997.9426
2997.9702
2997.9475
2997.9207
2997.9478
2997.9663
2997.9431
2997.9474
2998.0013
2997.9525
2997.9702
2997.9479
2997.9197
2997.9479
2997.9736
2997.941
2997.9182
2997.9474
2997.9885
2997.9753
2997.9475
2997.9197
2997.9464
2997.9768
2997.9472
2997.9195
2997.945
2997.965
2997.9621
2997.9475
2997.9207
2997.9479
2997.9768
2997.948
2997.9201
2997.9493
2997.9715
2997.9458
2997.934
2997.9343
2997.9478
2997.9736
2997.9472
2997.9201
2997.9496
2997.9735
2997.9459
2997.9266
2997.9471
2997.9707
2997.9663
2997.941
2997.9195
2997.9493
2997.9735
2997.9441
2997.9251
2997.9497
2997.9657
2997.9943
2997.9431
2997.9182
2997.945
2997.9715
2997.9459
2997.9251
2997.9498
2997.9631
2997.946
2997.998
2997.9474
2997.9474
2997.965
2997.9458
2997.9266
2997.9497
2997.9631
2997.9409
2997.9324
2998.0215
2998.0013
2997.9885
2997.9621
2997.934
2997.9471
2997.9657
2997.946
2997.9324
2997.9466
2997.9942
2997.9805
2997.9995
2998.0133
2997.9855
2997.9732
2997.9887
2997.9734
2997.9301
2997.9023
2997.9805
2998.0005
2998.0183
2997.9953
2997.9824
2998.013
2998.0236
2997.9976
2997.9821
2997.962
2997.9995
2998.0183
2997.9928
2997.9758
2998.0052
2998.0206
2997.9924
2997.9839
2998.0038
2997.99
2998.0133
2997.9953
2997.9758
2998.0036
2998.0216
2997.9917
2997.9777
2998.0063
2998.0161
2997.9866
2997.9855
2997.9824
2998.0052
2998.0216
2997.9922
2997.9767
2998.0062
2998.0188
2997.9954
2997.9799
2997.9732
2998.013
2998.0206
2997.9917
2997.9767
2998.0063
2998.0185
2997.9924
2997.9853
2998.0019
2997.9887
2998.0236
2997.9924
2997.9777
2998.0062
2998.0185
2997.9902
2997.9826
2998.0077
2998.0151
2997.9734
2997.9976
2997.9839
2998.0063
2998.0188
2997.9924
2997.9826
2998.007
2998.0128
2997.9975
2997.9301
2997.9821
2998.0038
2998.0161
2997.9954
2997.9853
2998.0077
2998.0128
2997.994
2997.996
2997.9023
2997.962
2997.99
2997.9866
2997.9799
2998.0019
2998.0151
2997.9975
2997.996
2998.0184
2998.0363
2998.0703
2998.0645
2998.0364
2998.0507
2998.0721
2998.0473
2998.0169
2998.0049
2997.9714
2998.0703
2998.0731
2998.0438
2998.0515
2998.0821
2998.0704
2998.0475
2998.0607
2998.0635
2998.0047
2998.0645
2998.0438
2998.0509
2998.0813
2998.0692
2998.0395
2998.0564
2998.0839
2998.0693
2998.0188
2998.0364
2998.0515
2998.0813
2998.0711
2998.0381
2998.051
2998.0816
2998.0707
2998.0505
2998.0393
2998.0507
2998.0821
2998.0692
2998.0381
2998.0505
2998.0813
2998.0674
2998.0427
2998.0574
2998.0671
2998.0721
2998.0704
2998.0395
2998.051
2998.0813
2998.0675
2998.0404
2998.055
2998.0776
2998.065
2998.0473
2998.0475
2998.0564
2998.0816
2998.0674
2998.0404
2998.056
2998.0786
2998.0657
2998.0488
2998.0169
2998.0607
2998.0839
2998.0707
2998.0427
2998.055
2998.0786
2998.0651
2998.0495
2998.0608
2998.0049
2998.0635
2998.0693
2998.0505
2998.0574
2998.0776
2998.0657
2998.0495
2998.0636
2998.0755
2997.9714
2998.0047
2998.0188
2998.0393
2998.0671
2998.065
2998.0488
2998.0608
2998.0755
2998.0691
2998.1149
2998.1388
2998.1203
2998.0939
2998.1229
2998.1474
2998.1269
2998.1288
2998.1721
2998.2004
2998.1388
2998.1247
2998.0932
2998.111
2998.1397
2998.113
2998.0886
2998.1155
2998.145
2998.1637
2998.1203
2998.0932
2998.1129
2998.144
2998.1188
2998.0871
2998.1123
2998.1362
2998.1213
2998.1269
2998.0939
2998.111
2998.144
2998.1216
2998.0869
2998.1116
2998.1418
2998.1174
2998.0966
2998.1232
2998.1229
2998.1397
2998.1188
2998.0869
2998.1109
2998.1427
2998.1181
2998.0912
2998.1119
2998.1381
2998.1474
2998.113
2998.0871
2998.1116
2998.1427
2998.118
2998.091
2998.1137
2998.1339
2998.1222
2998.1269
2998.0886
2998.1123
2998.1418
2998.1181
2998.091
2998.1162
2998.1374
2998.1154
2998.0997
2998.1288
2998.1155
2998.1362
2998.1174
2998.0912
2998.1137
2998.1374
2998.1162
2998.1002
2998.1135
2998.1721
2998.145
2998.1213
2998.0966
2998.1119
2998.1339
2998.1154
2998.1002
2998.1181
2998.124
2998.2004
2998.1637
2998.1269
2998.1232
2998.1381
2998.1222
2998.0997
2998.1135
2998.124
2998.1051
2998.1705
2998.1676
2998.1543
2998.1588
2998.1722
2998.1655
2998.1535
2998.1584
2998.1667
2998.1771
2998.1676
2998.1564
2998.1575
2998.1708
2998.1682
2998.155
2998.1583
2998.1672
2998.1629
2998.1699
2998.1543
2998.1575
2998.1709
2998.1691
2998.1547
2998.1572
2998.1705
2998.1676
2998.156
2998.165
2998.1588
2998.1708
2998.1691
2998.1548
2998.1559
2998.1699
2998.169
2998.1576
2998.1572
2998.1686
2998.1722
2998.1682
2998.1547
2998.1559
2998.1694
2998.1682
2998.1567
2998.1585
2998.167
2998.1696
2998.1655
2998.155
2998.1572
2998.1699
2998.1682
2998.1561
2998.1585
2998.1687
2998.167
2998.1626
2998.1535
2998.1583
2998.1705
2998.169
2998.1567
2998.1585
2998.1693
2998.1673
2998.1595
2998.1609
2998.1584
2998.1672
2998.1676
2998.1576
2998.1585
2998.1687
2998.1673
2998.1598
2998.1623
2998.1664
2998.1667
2998.1629
2998.156
2998.1572
2998.167
2998.167
2998.1595
2998.1623
2998.169
2998.1666
2998.1771
2998.1699
2998.165
2998.1686
2998.1696
2998.1626
2998.1609
2998.1664
2998.1666
2998.162
2998.2133
2998.2087
2998.2087
2998.2141
2998.2139
2998.2089
2998.2099
2998.2138
2998.212
2998.2127
2998.2087
2998.2085
2998.2133
2998.2143
2998.2092
2998.2086
2998.2136
2998.2144
2998.2097
2998.2122
2998.2087
2998.2133
2998.2144
2998.2094
2998.2078
2998.2126
2998.2146
2998.2114
2998.209
2998.2131
2998.2141
2998.2143
2998.2094
2998.2076
2998.212
2998.2139
2998.2107
2998.2099
2998.2118
2998.2142
2998.2139
2998.2092
2998.2078
2998.212
2998.2137
2998.2101
2998.2091
2998.2126
2998.2134
2998.2129
2998.2089
2998.2086
2998.2126
2998.2139
2998.2101
2998.209
2998.2123
2998.2135
2998.2113
2998.2114
2998.2099
2998.2136
2998.2146
2998.2107
2998.2091
2998.2123
2998.2133
2998.2109
2998.2106
2998.2123
2998.2138
2998.2144
2998.2114
2998.2099
2998.2126
2998.2135
2998.2109
2998.2109
2998.2131
2998.2135
2998.212
2998.2097
2998.209
2998.2118
2998.2134
2998.2113
2998.2106
2998.2131
2998.214
2998.2134
2998.2127
2998.2122
2998.2131
2998.2142
2998.2129
2998.2114
2998.2123
2998.2135
2998.2134
2998.2124
2998.2604
2998.2604
2998.2624
2998.2627
2998.2606
2998.2603
2998.2625
2998.2633
2998.2617
2998.2619
2998.2604
2998.2622
2998.2628
2998.2609
2998.2598
2998.2616
2998.2629
2998.2622
2998.2612
2998.2625
2998.2624
2998.2628
2998.261
2998.2597
2998.2611
2998.2625
2998.2617
2998.2613
2998.2619
2998.263
2998.2627
2998.2609
2998.2597
2998.2609
2998.2623
2998.2614
2998.2607
2998.2619
2998.2626
2998.2627
2998.2606
2998.2598
2998.2611
2998.2623
2998.2614
2998.2605
2998.2614
2998.2624
2998.262
2998.2621
2998.2603
2998.2616
2998.2625
2998.2614
2998.2605
2998.2614
2998.2621
2998.2617
2998.2615
2998.2622
2998.2625
2998.2629
2998.2617
2998.2607
2998.2614
2998.2621
2998.2615
2998.2615
2998.2623
2998.2627
2998.2633
2998.2622
2998.2613
2998.2619
2998.2624
2998.2617
2998.2615
2998.2625
2998.263
2998.2627
2998.2617
2998.2612
2998.2619
2998.2626
2998.262
2998.2615
2998.2623
2998.263
2998.2628
2998.2627
2998.2619
2998.2625
2998.263
2998.2627
2998.2621
2998.2622
2998.2627
2998.2627
2998.2627
2998.2628
2998.3131
2998.3138
2998.3139
2998.3129
2998.3125
2998.3134
2998.3141
2998.3138
2998.3137
2998.3142
2998.3138
2998.314
2998.313
2998.3123
2998.3128
2998.3137
2998.3135
2998.3134
2998.3138
2998.3144
2998.3139
2998.313
2998.3122
2998.3126
2998.3134
2998.3133
2998.313
2998.3135
2998.3141
2998.3143
2998.3129
2998.3123
2998.3126
2998.3133
2998.3132
2998.3128
2998.313
2998.3137
2998.3139
2998.314
2998.3125
2998.3128
2998.3134
2998.3132
2998.3128
2998.3129
2998.3133
2998.3135
2998.3135
2998.3139
2998.3134
2998.3137
2998.3133
2998.3128
2998.3129
2998.3132
2998.3132
2998.3133
2998.3137
2998.3141
2998.3141
2998.3135
2998.313
2998.313
2998.3133
2998.3132
2998.3133
2998.3138
2998.3142
2998.3143
2998.3138
2998.3134
2998.3135
2998.3137
2998.3135
2998.3133
2998.3138
2998.3143
2998.3143
2998.3142
2998.3137
2998.3138
2998.3141
2998.3139
2998.3135
2998.3137
2998.3142
2998.3143
2998.3141
2998.3144
2998.3142
2998.3144
2998.3143
2998.314
2998.3139
2998.3141
2998.3143
2998.3142
2998.3144
2998.3147
2998.3671
2998.3671
2998.3665
2998.3661
2998.3664
2998.3669
2998.3669
2998.3669
2998.3672
2998.3676
2998.3671
2998.3665
2998.366
2998.3661
2998.3666
2998.3667
2998.3665
2998.3668
2998.3673
2998.3675
2998.3665
2998.366
2998.366
2998.3664
2998.3665
2998.3664
2998.3664
2998.3668
2998.3672
2998.3673
2998.3661
2998.3661
2998.3664
2998.3665
2998.3663
2998.3663
2998.3665
2998.3668
2998.3669
2998.3672
2998.3664
2998.3666
2998.3665
2998.3663
2998.3663
2998.3664
2998.3665
2998.3667
2998.3669
2998.3672
2998.3669
2998.3667
2998.3664
2998.3663
2998.3664
2998.3665
2998.3666
2998.3668
2998.3672
2998.3674
2998.3669
2998.3665
2998.3664
2998.3665
2998.3665
2998.3666
2998.3668
2998.3672
2998.3673
2998.3674
2998.3669
2998.3668
2998.3668
2998.3668
2998.3667
2998.3668
2998.3672
2998.3673
2998.3674
2998.3675
2998.3672
2998.3673
2998.3672
2998.3669
2998.3669
2998.3672
2998.3673
2998.3674
2998.3675
2998.3678
2998.3676
2998.3675
2998.3673
2998.3672
2998.3672
2998.3674
2998.3674
2998.3675
2998.3678
2998.3681
2998.4219
2998.4215
2998.4212
2998.4212
2998.4215
2998.4216
2998.4216
2998.4217
2998.4221
2998.4223
2998.4215
2998.4212
2998.4211
2998.4213
2998.4214
2998.4214
2998.4214
2998.4217
2998.422
2998.4222
2998.4212
2998.4211
2998.4212
2998.4213
2998.4213
2998.4212
2998.4214
2998.4216
2998.4218
2998.422
2998.4212
2998.4213
2998.4213
2998.4213
2998.4212
2998.4212
2998.4214
2998.4216
2998.4218
2998.422
2998.4215
2998.4214
2998.4213
2998.4212
2998.4212
2998.4213
2998.4214
2998.4216
2998.4218
2998.422
2998.4216
2998.4214
2998.4212
2998.4212
2998.4213
2998.4214
2998.4216
2998.4218
2998.422
2998.4221
2998.4216
2998.4214
2998.4214
2998.4214
2998.4214
2998.4216
2998.4218
2998.4219
2998.4221
2998.4223
2998.4217
2998.4217
2998.4216
2998.4216
2998.4216
2998.4218
2998.4219
2998.422
2998.4222
2998.4225
2998.4221
2998.422
2998.4218
2998.4218
2998.4218
2998.422
2998.4221
2998.4222
2998.4225
2998.4227
2998.4223
2998.4222
2998.422
2998.422
2998.422
2998.4221
2998.4223
2998.4225
2998.4227
2998.4229
2998.478
2998.4778
2998.4777
2998.4778
2998.4778
2998.4778
2998.4779
2998.4781
2998.4783
2998.4785
2998.4778
2998.4776
2998.4777
2998.4777
2998.4777
2998.4777
2998.4778
2998.478
2998.4782
2998.4784
2998.4777
2998.4777
2998.4777
2998.4776
2998.4776
2998.4776
2998.4777
2998.4779
2998.4781
2998.4783
2998.4778
2998.4777
2998.4776
2998.4775
2998.4775
2998.4776
2998.4777
2998.4779
2998.4781
2998.4783
2998.4778
2998.4777
2998.4776
2998.4775
2998.4776
2998.4777
2998.4778
2998.478
2998.4782
2998.4784
2998.4778
2998.4777
2998.4776
2998.4776
2998.4777
2998.4778
2998.4779
2998.4781
2998.4782
2998.4784
2998.4779
2998.4778
2998.4777
2998.4777
2998.4778
2998.4779
2998.478
2998.4782
2998.4784
2998.4786
2998.4781
2998.478
2998.4779
2998.4779
2998.478
2998.4781
2998.4782
2998.4783
2998.4786
2998.4788
2998.4783
2998.4782
2998.4781
2998.4781
2998.4782
2998.4782
2998.4784
2998.4786
2998.4788
2998.479
2998.4785
2998.4784
2998.4783
2998.4783
2998.4784
2998.4784
2998.4786
2998.4788
2998.479
2998.4792
2998.5357
2998.5356
2998.5356
2998.5356
2998.5356
2998.5356
2998.5357
2998.5358
2998.536
2998.5362
2998.5356
2998.5355
2998.5355
2998.5355
2998.5354
2998.5355
2998.5356
2998.5357
2998.5359
2998.5361
2998.5356
2998.5355
2998.5354
2998.5354
2998.5354
2998.5354
2998.5355
2998.5357
2998.5359
2998.5361
2998.5356
2998.5355
2998.5354
2998.5353
2998.5353
2998.5354