/*--------------------------------*- C++ -*----------------------------------*\
| =========                 |                                                 |
| \\      /  F ield         | OpenFOAM: The Open Source CFD Toolbox           |
|  \\    /   O peration     | Version:  v2106                                 |
|   \\  /    A nd           | Website:  www.openfoam.com                      |
|    \\/     M anipulation  |                                                 |
\*---------------------------------------------------------------------------*/
FoamFile
{
    version     2.0;
    format      ascii;
    arch        "LSB;label=32;scalar=64";
    class       volVectorField;
    location    "95";
    object      flux;
}
// * * * * * * * * * * * * * * * * * * * * * * * * * * * * * * * * * * * * * //

dimensions      [0 1 -1 1 0 0 0];

internalField   nonuniform List<vector> 
4000
(
(1.084603e-07 1.084603e-07 0.30753036)
(2.4425914e-07 9.9170545e-08 0.30753162)
(1.3178288e-07 9.682504e-08 0.3075323)
(7.5233989e-08 9.5842405e-08 0.30753273)
(2.7735072e-08 9.5219048e-08 0.30753294)
(-1.4388564e-08 9.4610807e-08 0.30753296)
(-5.0711068e-08 9.3747425e-08 0.30753281)
(-7.7614341e-08 9.2112134e-08 0.30753253)
(-8.4261384e-08 8.8313036e-08 0.30753215)
(-2.6836177e-08 7.8976752e-08 0.30753179)
(9.9170545e-08 2.4425914e-07 0.30753162)
(2.2680625e-07 2.2680625e-07 0.30753277)
(1.2679067e-07 2.2078826e-07 0.30753342)
(7.2825001e-08 2.1758822e-07 0.30753383)
(2.5887676e-08 2.1525369e-07 0.30753404)
(-1.6595998e-08 2.1292488e-07 0.30753405)
(-5.4459078e-08 2.098572e-07 0.30753389)
(-8.5765925e-08 2.0482178e-07 0.30753358)
(-1.0396446e-07 1.9519131e-07 0.30753316)
(-3.617246e-08 1.7630948e-07 0.30753266)
(9.682504e-08 1.3178288e-07 0.3075323)
(2.2078826e-07 1.2679067e-07 0.30753342)
(1.2256485e-07 1.2256485e-07 0.30753405)
(6.9699424e-08 1.1921414e-07 0.30753445)
(2.307174e-08 1.1627461e-07 0.30753464)
(-1.9785055e-08 1.1327529e-07 0.30753464)
(-5.8814176e-08 1.0971549e-07 0.30753447)
(-9.2280232e-08 1.0499704e-07 0.30753414)
(-1.1277368e-07 9.8615953e-08 0.30753368)
(-3.9424063e-08 9.1644664e-08 0.30753314)
(9.5842406e-08 7.5233992e-08 0.30753273)
(2.1758822e-07 7.2825e-08 0.30753383)
(1.1921414e-07 6.9699425e-08 0.30753445)
(6.6534759e-08 6.6534759e-08 0.30753483)
(1.9948829e-08 6.3431645e-08 0.30753501)
(-2.3155119e-08 6.0261913e-08 0.307535)
(-6.2737333e-08 5.6825069e-08 0.30753481)
(-9.6865462e-08 5.2977704e-08 0.30753446)
(-1.1731683e-07 4.8904175e-08 0.30753398)
(-4.0819986e-08 4.5694616e-08 0.30753342)
(9.5219046e-08 2.7735074e-08 0.30753294)
(2.1525369e-07 2.5887676e-08 0.30753404)
(1.1627461e-07 2.307174e-08 0.30753464)
(6.3431645e-08 1.9948828e-08 0.30753501)
(1.6798894e-08 1.6798894e-08 0.30753518)
(-2.6391631e-08 1.3664333e-08 0.30753515)
(-6.6098386e-08 1.051016e-08 0.30753495)
(-1.0020113e-07 7.3745793e-09 0.30753459)
(-1.2005676e-07 4.5401629e-09 0.30753409)
(-4.1563769e-08 2.6837433e-09 0.30753352)
(9.4610807e-08 -1.4388566e-08 0.30753296)
(2.1292488e-07 -1.6595994e-08 0.30753405)
(1.1327529e-07 -1.9785059e-08 0.30753464)
(6.0261914e-08 -2.3155119e-08 0.307535)
(1.3664334e-08 -2.6391629e-08 0.30753515)
(-2.9443853e-08 -2.9443852e-08 0.30753511)
(-6.9027086e-08 -3.2332321e-08 0.3075349)
(-1.0283546e-07 -3.5009636e-08 0.30753452)
(-1.2200767e-07 -3.72511e-08 0.30753401)
(-4.2057599e-08 -3.8612295e-08 0.30753344)
(9.3747427e-08 -5.0711071e-08 0.30753281)
(2.098572e-07 -5.4459078e-08 0.30753389)
(1.0971549e-07 -5.8814176e-08 0.30753447)
(5.6825074e-08 -6.273733e-08 0.30753481)
(1.0510162e-08 -6.6098385e-08 0.30753495)
(-3.2332322e-08 -6.9027083e-08 0.3075349)
(-7.166417e-08 -7.1664168e-08 0.30753467)
(-1.0511991e-07 -7.4057432e-08 0.30753429)
(-1.2365942e-07 -7.6082559e-08 0.30753377)
(-4.2471233e-08 -7.736634e-08 0.30753319)
(9.2112136e-08 -7.7614343e-08 0.30753253)
(2.0482178e-07 -8.5765929e-08 0.30753358)
(1.0499704e-07 -9.2280228e-08 0.30753414)
(5.2977704e-08 -9.6865461e-08 0.30753446)
(7.3745804e-09 -1.0020113e-07 0.30753459)
(-3.5009636e-08 -1.0283546e-07 0.30753452)
(-7.4057435e-08 -1.051199e-07 0.30753429)
(-1.0725385e-07 -1.0725385e-07 0.30753389)
(-1.2531658e-07 -1.0926206e-07 0.30753336)
(-4.2913454e-08 -1.1079351e-07 0.30753278)
(8.8313037e-08 -8.4261382e-08 0.30753215)
(1.9519131e-07 -1.0396446e-07 0.30753316)
(9.8615953e-08 -1.1277368e-07 0.30753368)
(4.8904173e-08 -1.1731683e-07 0.30753398)
(4.540164e-09 -1.2005677e-07 0.30753409)
(-3.7251096e-08 -1.2200767e-07 0.30753401)
(-7.608256e-08 -1.2365942e-07 0.30753377)
(-1.0926206e-07 -1.2531658e-07 0.30753336)
(-1.2719908e-07 -1.2719908e-07 0.30753283)
(-4.3492199e-08 -1.2916616e-07 0.30753224)
(7.8976754e-08 -2.6836176e-08 0.30753179)
(1.7630948e-07 -3.6172459e-08 0.30753266)
(9.1644662e-08 -3.9424063e-08 0.30753314)
(4.5694613e-08 -4.0819986e-08 0.30753342)
(2.6837397e-09 -4.156377e-08 0.30753352)
(-3.8612289e-08 -4.2057602e-08 0.30753344)
(-7.7366337e-08 -4.2471232e-08 0.30753319)
(-1.1079351e-07 -4.2913454e-08 0.30753278)
(-1.2916616e-07 -4.3492197e-08 0.30753224)
(-4.4224838e-08 -4.4224836e-08 0.30753164)
(9.7412353e-07 9.7412353e-07 0.65104817)
(2.2637221e-06 8.8043178e-07 0.65105056)
(1.3052722e-06 8.5765711e-07 0.65105193)
(7.5355144e-07 8.4786705e-07 0.65105281)
(2.7664787e-07 8.4158026e-07 0.65105324)
(-1.4903646e-07 8.3543319e-07 0.65105327)
(-5.1811524e-07 8.2669883e-07 0.65105294)
(-7.9637051e-07 8.1004965e-07 0.65105229)
(-8.8234914e-07 7.7009657e-07 0.6510514)
(-2.8615027e-07 6.5492056e-07 0.65105043)
(8.8043178e-07 2.2637221e-06 0.65105056)
(2.0890224e-06 2.0890224e-06 0.65105271)
(1.2564251e-06 2.0300756e-06 0.65105403)
(7.2943615e-07 1.9980493e-06 0.65105488)
(2.5799708e-07 1.9745014e-06 0.6510553)
(-1.7135861e-07 1.9509714e-06 0.65105531)
(-5.5619056e-07 1.9199497e-06 0.65105495)
(-8.8127391e-07 1.8688452e-06 0.65105426)
(-1.1150428e-06 1.7690717e-06 0.65105326)
(-4.0132628e-07 1.5480159e-06 0.65105197)
(8.5765711e-07 1.3052722e-06 0.65105193)
(2.0300756e-06 1.2564251e-06 0.65105403)
(1.214299e-06 1.214299e-06 0.6510553)
(6.9797724e-07 1.1805783e-06 0.65105612)
(2.2957003e-07 1.1509114e-06 0.65105651)
(-2.0358813e-07 1.1206093e-06 0.6510565)
(-6.0024151e-07 1.0846254e-06 0.65105611)
(-9.4724856e-07 1.036902e-06 0.65105537)
(-1.2031784e-06 9.7230386e-07 0.6510543)
(-4.3352076e-07 9.0294143e-07 0.65105293)
(8.4786705e-07 7.5355143e-07 0.65105281)
(1.9980493e-06 7.2943615e-07 0.65105488)
(1.1805783e-06 6.9797724e-07 0.65105612)
(6.6604854e-07 6.6604854e-07 0.65105691)
(1.9802816e-07 6.3470933e-07 0.65105728)
(-2.3764464e-07 6.0268048e-07 0.65105724)
(-6.3989794e-07 5.6794197e-07 0.65105681)
(-9.9359544e-07 5.2904805e-07 0.65105603)
(-1.2490033e-06 4.8787463e-07 0.65105492)
(-4.4756789e-07 4.5553205e-07 0.65105351)
(8.4158026e-07 2.7664787e-07 0.65105324)
(1.9745014e-06 2.5799708e-07 0.6510553)
(1.1509114e-06 2.2957003e-07 0.65105651)
(6.3470933e-07 1.9802816e-07 0.65105728)
(1.6620196e-07 1.6620196e-07 0.65105761)
(-2.7035549e-07 1.3452159e-07 0.65105754)
(-6.7387393e-07 1.0263447e-07 0.65105709)
(-1.0273159e-06 7.0927859e-08 0.65105628)
(-1.2766944e-06 4.2263217e-08 0.65105513)
(-4.5508248e-07 2.349249e-08 0.6510537)
(8.3543319e-07 -1.4903646e-07 0.65105327)
(1.9509714e-06 -1.7135861e-07 0.65105531)
(1.1206093e-06 -2.0358813e-07 0.6510565)
(6.0268047e-07 -2.3764464e-07 0.65105724)
(1.3452159e-07 -2.7035549e-07 0.65105754)
(-3.0121213e-07 -3.0121213e-07 0.65105745)
(-7.0349167e-07 -3.3042658e-07 0.65105697)
(-1.0539667e-06 -3.5752493e-07 0.65105613)
(-1.2964387e-06 -3.8023681e-07 0.65105496)
(-4.6008171e-07 -3.9405021e-07 0.65105352)
(8.2669883e-07 -5.1811524e-07 0.65105294)
(1.9199497e-06 -5.5619057e-07 0.65105495)
(1.0846254e-06 -6.0024151e-07 0.65105611)
(5.6794197e-07 -6.3989794e-07 0.65105681)
(1.0263447e-07 -6.7387393e-07 0.65105709)
(-3.3042658e-07 -7.0349166e-07 0.65105697)
(-7.3018673e-07 -7.3018673e-07 0.65105646)
(-1.0771261e-06 -7.544646e-07 0.6510556)
(-1.3132197e-06 -7.7509749e-07 0.65105442)
(-4.6429141e-07 -7.8828569e-07 0.65105296)
(8.1004964e-07 -7.9637051e-07 0.65105229)
(1.8688452e-06 -8.8127391e-07 0.65105426)
(1.036902e-06 -9.4724855e-07 0.65105537)
(5.2904805e-07 -9.9359543e-07 0.65105603)
(7.092786e-08 -1.0273159e-06 0.65105628)
(-3.5752493e-07 -1.0539667e-06 0.65105613)
(-7.544646e-07 -1.0771261e-06 0.6510556)
(-1.0988775e-06 -1.0988775e-06 0.65105472)
(-1.3302598e-06 -1.1196259e-06 0.65105351)
(-4.6887384e-07 -1.1359683e-06 0.65105204)
(7.7009657e-07 -8.8234914e-07 0.6510514)
(1.7690717e-06 -1.1150428e-06 0.65105326)
(9.7230386e-07 -1.2031784e-06 0.6510543)
(4.8787463e-07 -1.2490033e-06 0.65105492)
(4.2263213e-08 -1.2766944e-06 0.65105513)
(-3.8023681e-07 -1.2964387e-06 0.65105496)
(-7.750975e-07 -1.3132197e-06 0.65105442)
(-1.1196259e-06 -1.3302598e-06 0.65105351)
(-1.3503105e-06 -1.3503105e-06 0.65105229)
(-4.7518635e-07 -1.3735483e-06 0.65105079)
(6.5492056e-07 -2.8615027e-07 0.65105043)
(1.5480159e-06 -4.0132628e-07 0.65105197)
(9.0294143e-07 -4.3352076e-07 0.65105293)
(4.5553205e-07 -4.475679e-07 0.65105351)
(2.3492486e-08 -4.5508248e-07 0.6510537)
(-3.940502e-07 -4.6008171e-07 0.65105352)
(-7.8828569e-07 -4.6429141e-07 0.65105296)
(-1.1359683e-06 -4.6887384e-07 0.65105204)
(-1.3735483e-06 -4.7518635e-07 0.65105079)
(-4.8436565e-07 -4.8436565e-07 0.65104924)
(1.690308e-06 1.690308e-06 0.65090143)
(3.986475e-06 1.5280867e-06 0.6509035)
(2.3723829e-06 1.4875776e-06 0.65090474)
(1.378236e-06 1.4696296e-06 0.65090554)
(4.9038001e-07 1.4578629e-06 0.65090593)
(-3.1699244e-07 1.4462385e-06 0.65090592)
(-1.0341207e-06 1.4296324e-06 0.65090555)
(-1.6159178e-06 1.3978037e-06 0.65090483)
(-1.9428586e-06 1.3208103e-06 0.65090383)
(-6.7370297e-07 1.0963702e-06 0.6509026)
(1.5280867e-06 3.986475e-06 0.6509035)
(3.6823793e-06 3.6823793e-06 0.65090537)
(2.2846972e-06 3.5764174e-06 0.65090656)
(1.3336639e-06 3.5172716e-06 0.65090734)
(4.5529335e-07 3.473083e-06 0.65090771)
(-3.5933816e-07 3.428582e-06 0.65090768)
(-1.1067728e-06 3.369673e-06 0.65090729)
(-1.779151e-06 3.2722688e-06 0.65090653)
(-2.3950091e-06 3.0811115e-06 0.65090541)
(-8.9814312e-07 2.6543445e-06 0.65090386)
(1.4875776e-06 2.3723829e-06 0.65090474)
(3.5764174e-06 2.2846972e-06 0.65090656)
(2.2072752e-06 2.2072752e-06 0.65090771)
(1.2749016e-06 2.1443272e-06 0.65090846)
(4.0169036e-07 2.0884543e-06 0.6509088)
(-4.2040248e-07 2.0311198e-06 0.65090876)
(-1.1904338e-06 1.9628687e-06 0.65090833)
(-1.9044793e-06 1.8722374e-06 0.65090752)
(-2.5607829e-06 1.7496536e-06 0.65090633)
(-9.5821423e-07 1.6199157e-06 0.6509047)
(1.4696296e-06 1.378236e-06 0.65090554)
(3.5172716e-06 1.3336639e-06 0.65090734)
(2.1443272e-06 1.2749016e-06 0.65090846)
(1.2148429e-06 1.2148429e-06 0.65090918)
(3.4208587e-07 1.1556453e-06 0.6509095)
(-4.8492375e-07 1.0949928e-06 0.65090942)
(-1.2656552e-06 1.0291095e-06 0.65090896)
(-1.9923661e-06 9.5529473e-07 0.65090811)
(-2.6473307e-06 8.7721403e-07 0.65090688)
(-9.84635e-07 8.1623498e-07 0.65090521)
(1.4578629e-06 4.9038e-07 0.65090593)
(3.473083e-06 4.5529335e-07 0.65090771)
(2.0884543e-06 4.0169036e-07 0.6509088)
(1.1556453e-06 3.4208587e-07 0.6509095)
(2.8184017e-07 2.8184018e-07 0.65090979)
(-5.4693828e-07 2.2178021e-07 0.65090968)
(-1.3301319e-06 1.612439e-07 0.65090919)
(-2.0563748e-06 1.0097672e-07 0.65090832)
(-2.6998426e-06 4.6453498e-08 0.65090705)
(-9.9886692e-07 1.0777122e-08 0.65090536)
(1.4462385e-06 -3.1699244e-07 0.65090592)
(3.428582e-06 -3.5933816e-07 0.65090768)
(2.0311198e-06 -4.2040248e-07 0.65090876)
(1.0949927e-06 -4.8492375e-07 0.65090942)
(2.2178021e-07 -5.4693828e-07 0.65090968)
(-6.0552003e-07 -6.0552003e-07 0.65090955)
(-1.3864587e-06 -6.6111313e-07 0.65090903)
(-2.1071565e-06 -7.1286566e-07 0.65090813)
(-2.7375303e-06 -7.5647588e-07 0.65090684)
(-1.0084192e-06 -7.831934e-07 0.65090514)
(1.4296324e-06 -1.0341207e-06 0.65090555)
(3.369673e-06 -1.1067728e-06 0.65090729)
(1.9628687e-06 -1.1904338e-06 0.65090833)
(1.0291095e-06 -1.2656552e-06 0.65090896)
(1.612439e-07 -1.3301319e-06 0.65090919)
(-6.6111313e-07 -1.3864587e-06 0.65090903)
(-1.4374775e-06 -1.4374775e-06 0.65090848)
(-2.1517375e-06 -1.4843515e-06 0.65090756)
(-2.7701704e-06 -1.5250084e-06 0.65090626)
(-1.0166786e-06 -1.5520225e-06 0.65090453)
(1.3978037e-06 -1.6159178e-06 0.65090483)
(3.2722688e-06 -1.779151e-06 0.65090653)
(1.8722374e-06 -1.9044793e-06 0.65090752)
(9.5529473e-07 -1.9923661e-06 0.65090811)
(1.0097672e-07 -2.0563748e-06 0.65090832)
(-7.1286566e-07 -2.1071565e-06 0.65090813)
(-1.4843515e-06 -2.1517375e-06 0.65090756)
(-2.1946875e-06 -2.1946875e-06 0.65090661)
(-2.8052014e-06 -2.2382056e-06 0.65090529)
(-1.0264287e-06 -2.2775618e-06 0.65090355)
(1.3208103e-06 -1.9428586e-06 0.65090383)
(3.0811115e-06 -2.3950091e-06 0.65090541)
(1.7496536e-06 -2.5607829e-06 0.65090633)
(8.7721403e-07 -2.6473307e-06 0.65090688)
(4.6453506e-08 -2.6998426e-06 0.65090705)
(-7.5647588e-07 -2.7375303e-06 0.65090684)
(-1.5250084e-06 -2.7701704e-06 0.65090626)
(-2.2382056e-06 -2.8052014e-06 0.65090529)
(-2.8530448e-06 -2.8530448e-06 0.65090393)
(-1.0429161e-06 -2.9360382e-06 0.65090216)
(1.0963702e-06 -6.7370297e-07 0.6509026)
(2.6543445e-06 -8.9814312e-07 0.65090386)
(1.6199158e-06 -9.5821422e-07 0.6509047)
(8.1623498e-07 -9.84635e-07 0.65090521)
(1.0777125e-08 -9.9886692e-07 0.65090536)
(-7.8319341e-07 -1.0084192e-06 0.65090514)
(-1.5520226e-06 -1.0166786e-06 0.65090453)
(-2.2775618e-06 -1.0264287e-06 0.65090355)
(-2.9360382e-06 -1.0429161e-06 0.65090216)
(-1.0817576e-06 -1.0817576e-06 0.6509003)
(2.3507759e-06 2.3507759e-06 0.65072629)
(5.5660313e-06 2.1235856e-06 0.65072823)
(3.3406475e-06 2.0666625e-06 0.65072937)
(1.9362852e-06 2.0410488e-06 0.6507301)
(6.5433046e-07 2.0239984e-06 0.65073043)
(-5.3059624e-07 2.0069888e-06 0.65073037)
(-1.6045588e-06 1.9825552e-06 0.65072996)
(-2.5139569e-06 1.9355215e-06 0.65072919)
(-3.1124302e-06 1.8212392e-06 0.65072811)
(-1.1024063e-06 1.4865854e-06 0.6507268)
(2.1235856e-06 5.5660313e-06 0.65072823)
(5.1398609e-06 5.1398609e-06 0.65072998)
(3.2168422e-06 4.9902151e-06 0.65073107)
(1.872289e-06 4.9053934e-06 0.65073177)
(6.0324049e-07 4.8412242e-06 0.65073209)
(-5.9276097e-07 4.7761052e-06 0.65073202)
(-1.7117598e-06 4.6895268e-06 0.65073158)
(-2.7559311e-06 4.545913e-06 0.65073077)
(-3.7858346e-06 4.2631635e-06 0.65072957)
(-1.4370601e-06 3.6297585e-06 0.65072793)
(2.0666625e-06 3.3406475e-06 0.65072937)
(4.9902151e-06 3.2168422e-06 0.65073107)
(3.1061799e-06 3.1061799e-06 0.65073212)
(1.7872942e-06 3.0151954e-06 0.6507328)
(5.2504226e-07 2.9337984e-06 0.65073309)
(-6.822936e-07 2.8498646e-06 0.65073299)
(-1.834751e-06 2.7496688e-06 0.65073252)
(-2.9403202e-06 2.6164173e-06 0.65073166)
(-4.0285846e-06 2.436203e-06 0.6507304)
(-1.5246761e-06 2.24685e-06 0.65072868)
(2.0410488e-06 1.9362852e-06 0.6507301)
(4.9053934e-06 1.872289e-06 0.65073177)
(3.0151954e-06 1.7872942e-06 0.6507328)
(1.6999074e-06 1.6999074e-06 0.65073344)
(4.3790973e-07 1.6134113e-06 0.65073371)
(-7.7689056e-07 1.5245349e-06 0.65073359)
(-1.9452071e-06 1.4278125e-06 0.65073308)
(-3.0693969e-06 1.3193403e-06 0.65073218)
(-4.1554019e-06 1.2046344e-06 0.65073088)
(-1.5632954e-06 1.1153682e-06 0.65072912)
(2.0239984e-06 6.5433046e-07 0.65073043)
(4.8412242e-06 6.032405e-07 0.65073209)
(2.9337984e-06 5.2504226e-07 0.65073309)
(1.6134113e-06 4.3790973e-07 0.65073371)
(3.4966971e-07 3.4966971e-07 0.65073394)
(-8.6789239e-07 2.6153766e-07 0.6507338)
(-2.0399456e-06 1.7254748e-07 0.65073326)
(-3.1634983e-06 8.3815022e-08 0.65073233)
(-4.2325567e-06 3.4624823e-09 0.650731)
(-1.5841869e-06 -4.9095456e-08 0.65072922)
(2.0069888e-06 -5.3059624e-07 0.65073037)
(4.7761052e-06 -5.9276097e-07 0.65073202)
(2.8498646e-06 -6.822936e-07 0.65073299)
(1.5245349e-06 -7.7689056e-07 0.65073359)
(2.6153767e-07 -8.6789239e-07 0.6507338)
(-9.5401279e-07 -9.5401279e-07 0.65073362)
(-2.1229297e-06 -1.0359748e-06 0.65073306)
(-3.2384818e-06 -1.112588e-06 0.6507321)
(-4.2883124e-06 -1.1775e-06 0.65073074)
(-1.598334e-06 -1.2175209e-06 0.65072895)
(1.9825552e-06 -1.6045588e-06 0.65072996)
(4.6895268e-06 -1.7117598e-06 0.65073158)
(2.7496688e-06 -1.834751e-06 0.65073252)
(1.4278125e-06 -1.9452071e-06 0.65073308)
(1.7254747e-07 -2.0399456e-06 0.65073326)
(-1.0359748e-06 -2.1229297e-06 0.65073306)
(-2.1985209e-06 -2.1985209e-06 0.65073247)
(-3.3050235e-06 -2.2686952e-06 0.65073149)
(-4.3374896e-06 -2.3306305e-06 0.65073011)
(-1.6108675e-06 -2.3728676e-06 0.65072831)
(1.9355215e-06 -2.5139569e-06 0.65072919)
(4.545913e-06 -2.7559311e-06 0.65073077)
(2.6164173e-06 -2.9403202e-06 0.65073166)
(1.3193403e-06 -3.0693969e-06 0.65073218)
(8.3815018e-08 -3.1634983e-06 0.65073233)
(-1.112588e-06 -3.2384818e-06 0.6507321)
(-2.2686952e-06 -3.3050235e-06 0.65073149)
(-3.3705915e-06 -3.3705915e-06 0.65073049)
(-4.3924847e-06 -3.4397701e-06 0.65072909)
(-1.626492e-06 -3.5062416e-06 0.65072727)
(1.8212392e-06 -3.1124302e-06 0.65072811)
(4.2631634e-06 -3.7858346e-06 0.65072957)
(2.436203e-06 -4.0285846e-06 0.6507304)
(1.2046344e-06 -4.1554019e-06 0.65073088)
(3.4624849e-09 -4.2325567e-06 0.650731)
(-1.1775e-06 -4.2883124e-06 0.65073074)
(-2.3306305e-06 -4.3374896e-06 0.65073011)
(-3.4397701e-06 -4.3924847e-06 0.65072909)
(-4.4731397e-06 -4.4731397e-06 0.65072766)
(-1.6551818e-06 -4.6262564e-06 0.6507258)
(1.4865854e-06 -1.1024063e-06 0.6507268)
(3.6297585e-06 -1.4370601e-06 0.65072793)
(2.24685e-06 -1.5246761e-06 0.65072868)
(1.1153682e-06 -1.5632954e-06 0.65072912)
(-4.9095453e-08 -1.5841869e-06 0.65072922)
(-1.2175209e-06 -1.598334e-06 0.65072895)
(-2.3728676e-06 -1.6108675e-06 0.65072831)
(-3.5062416e-06 -1.626492e-06 0.65072727)
(-4.6262564e-06 -1.6551818e-06 0.6507258)
(-1.7285698e-06 -1.7285698e-06 0.65072383)
(2.9828351e-06 2.9828351e-06 0.65052256)
(7.0583788e-06 2.6908021e-06 0.65052442)
(4.2281963e-06 2.6179951e-06 0.65052548)
(2.429941e-06 2.5850201e-06 0.65052614)
(7.6669256e-07 2.5628534e-06 0.65052641)
(-7.8918566e-07 2.5405707e-06 0.65052631)
(-2.2198174e-06 2.5084132e-06 0.65052586)
(-3.4609838e-06 2.4463114e-06 0.65052505)
(-4.3302817e-06 2.2949982e-06 0.65052394)
(-1.5460708e-06 1.8508224e-06 0.6505226)
(2.6908021e-06 7.0583788e-06 0.65052442)
(6.5111185e-06 6.5111185e-06 0.65052609)
(4.0695232e-06 6.3193789e-06 0.6505271)
(2.3472284e-06 6.2098768e-06 0.65052774)
(7.0001841e-07 6.1263349e-06 0.650528)
(-8.70846e-07 6.041034e-06 0.65052788)
(-2.3612063e-06 5.9271924e-06 0.6505274)
(-3.7811065e-06 5.7378739e-06 0.65052655)
(-5.2235156e-06 5.3643524e-06 0.65052533)
(-1.9902466e-06 4.5260158e-06 0.65052366)
(2.6179951e-06 4.2281963e-06 0.65052548)
(6.3193789e-06 4.0695232e-06 0.6505271)
(3.9269546e-06 3.9269546e-06 0.65052807)
(2.236897e-06 3.8089233e-06 0.65052868)
(5.9784971e-07 3.7027097e-06 0.65052892)
(-9.8832814e-07 3.5927305e-06 0.65052878)
(-2.5229775e-06 3.4611022e-06 0.65052827)
(-4.0238237e-06 3.285804e-06 0.65052737)
(-5.5421397e-06 3.048703e-06 0.65052608)
(-2.1049616e-06 2.8007108e-06 0.65052433)
(2.5850201e-06 2.429941e-06 0.65052614)
(6.2098768e-06 2.3472284e-06 0.65052774)
(3.8089233e-06 2.236897e-06 0.65052868)
(2.1229835e-06 2.1229835e-06 0.65052926)
(4.8382558e-07 2.0098433e-06 0.65052947)
(-1.1124534e-06 1.8932837e-06 0.65052931)
(-2.6681327e-06 1.7662004e-06 0.65052877)
(-4.1935057e-06 1.6235363e-06 0.65052783)
(-5.7086088e-06 1.4726879e-06 0.65052649)
(-2.1555746e-06 1.3555724e-06 0.65052471)
(2.5628534e-06 7.6669256e-07 0.65052641)
(6.1263349e-06 7.0001841e-07 0.650528)
(3.7027097e-06 5.9784971e-07 0.65052892)
(2.0098433e-06 4.8382558e-07 0.65052947)
(3.6814998e-07 3.6814999e-07 0.65052966)
(-1.2319711e-06 2.5240177e-07 0.65052947)
(-2.7927249e-06 1.3531245e-07 0.65052889)
(-4.3173362e-06 1.8380128e-08 0.65052793)
(-5.8101036e-06 -8.7608334e-08 0.65052656)
(-2.1830387e-06 -1.5691855e-07 0.65052476)
(2.5405707e-06 -7.8918567e-07 0.65052631)
(6.041034e-06 -8.7084601e-07 0.65052788)
(3.5927305e-06 -9.8832814e-07 0.65052878)
(1.8932837e-06 -1.1124534e-06 0.65052931)
(2.5240177e-07 -1.2319711e-06 0.65052947)
(-1.345291e-06 -1.3452909e-06 0.65052925)
(-2.9021544e-06 -1.4534498e-06 0.65052865)
(-4.4164265e-06 -1.5549373e-06 0.65052766)
(-5.8839075e-06 -1.6413195e-06 0.65052627)
(-2.2017814e-06 -1.6948284e-06 0.65052446)
(2.5084132e-06 -2.2198174e-06 0.65052586)
(5.9271924e-06 -2.3612063e-06 0.6505274)
(3.4611023e-06 -2.5229775e-06 0.65052827)
(1.7662004e-06 -2.6681327e-06 0.65052877)
(1.3531245e-07 -2.7927249e-06 0.65052889)
(-1.4534498e-06 -2.9021544e-06 0.65052865)
(-3.0023713e-06 -3.0023713e-06 0.65052802)
(-4.5052059e-06 -3.0962359e-06 0.65052701)
(-5.9499946e-06 -3.1801622e-06 0.6505256)
(-2.2187112e-06 -3.238339e-06 0.65052377)
(2.4463114e-06 -3.4609838e-06 0.65052505)
(5.7378739e-06 -3.7811065e-06 0.65052655)
(3.285804e-06 -4.0238238e-06 0.65052737)
(1.6235363e-06 -4.1935057e-06 0.65052783)
(1.8380128e-08 -4.3173362e-06 0.65052793)
(-1.5549373e-06 -4.4164265e-06 0.65052766)
(-3.0962359e-06 -4.5052059e-06 0.65052701)
(-4.5942174e-06 -4.5942174e-06 0.65052598)
(-6.0260106e-06 -4.6905628e-06 0.65052454)
(-2.2405659e-06 -4.7859011e-06 0.6505227)
(2.2949982e-06 -4.3302817e-06 0.65052394)
(5.3643524e-06 -5.2235156e-06 0.65052533)
(3.048703e-06 -5.5421397e-06 0.65052608)
(1.4726879e-06 -5.7086088e-06 0.65052649)
(-8.7608337e-08 -5.8101036e-06 0.65052656)
(-1.6413195e-06 -5.8839075e-06 0.65052627)
(-3.1801622e-06 -5.9499946e-06 0.6505256)
(-4.6905628e-06 -6.0260106e-06 0.65052454)
(-6.1416783e-06 -6.1416783e-06 0.65052308)
(-2.28227e-06 -6.3683572e-06 0.65052119)
(1.8508224e-06 -1.5460708e-06 0.6505226)
(4.5260158e-06 -1.9902466e-06 0.65052366)
(2.8007108e-06 -2.1049616e-06 0.65052433)
(1.3555724e-06 -2.1555746e-06 0.65052471)
(-1.5691855e-07 -2.1830387e-06 0.65052476)
(-1.6948284e-06 -2.2017814e-06 0.65052446)
(-3.238339e-06 -2.2187112e-06 0.65052377)
(-4.7859011e-06 -2.2405659e-06 0.6505227)
(-6.3683572e-06 -2.28227e-06 0.65052119)
(-2.3916851e-06 -2.3916851e-06 0.6505192)
(3.5911181e-06 3.5911181e-06 0.65029083)
(8.478104e-06 3.2343983e-06 0.65029262)
(5.0465816e-06 3.14605e-06 0.6502936)
(2.8651908e-06 3.1059426e-06 0.6502942)
(8.3191915e-07 3.0788152e-06 0.65029442)
(-1.0857124e-06 3.051394e-06 0.65029429)
(-2.8661774e-06 3.0116774e-06 0.6502938)
(-4.432918e-06 2.9347951e-06 0.65029298)
(-5.5634448e-06 2.7471211e-06 0.65029185)
(-1.9927375e-06 2.195363e-06 0.65029051)
(3.2343983e-06 8.478104e-06 0.65029262)
(7.8105013e-06 7.8105013e-06 0.65029422)
(4.8538979e-06 7.5777562e-06 0.65029515)
(2.7643386e-06 7.4443699e-06 0.65029573)
(7.5009616e-07 7.342046e-06 0.65029594)
(-1.1864192e-06 7.2370878e-06 0.65029579)
(-3.0410758e-06 7.0965895e-06 0.65029528)
(-4.8297526e-06 6.8624884e-06 0.65029441)
(-6.6725936e-06 6.3999505e-06 0.65029317)
(-2.5444956e-06 5.360614e-06 0.65029152)
(3.14605e-06 5.0465816e-06 0.6502936)
(7.5777562e-06 4.8538979e-06 0.65029515)
(4.6804502e-06 4.6804502e-06 0.65029605)
(2.6294805e-06 4.536255e-06 0.6502966)
(6.2463704e-07 4.4059641e-06 0.65029679)
(-1.3311689e-06 4.270616e-06 0.65029662)
(-3.2407767e-06 4.1082775e-06 0.65029608)
(-5.1295569e-06 3.8918349e-06 0.65029516)
(-7.0653191e-06 3.5990718e-06 0.65029386)
(-2.6856281e-06 3.2938978e-06 0.65029213)
(3.1059426e-06 2.8651908e-06 0.6502942)
(7.4443699e-06 2.7643386e-06 0.65029573)
(4.536255e-06 2.6294805e-06 0.6502966)
(2.4898526e-06 2.4898526e-06 0.65029712)
(4.8445721e-07 2.3508118e-06 0.65029729)
(-1.4841058e-06 2.2072552e-06 0.65029709)
(-3.4198569e-06 2.0504854e-06 0.65029652)
(-5.3389582e-06 1.8743417e-06 0.65029557)
(-7.2705307e-06 1.6881064e-06 0.65029422)
(-2.7479449e-06 1.5437793e-06 0.65029246)
(3.0788152e-06 8.3191915e-07 0.65029442)
(7.342046e-06 7.5009616e-07 0.65029594)
(4.4059641e-06 6.2463704e-07 0.65029679)
(2.3508118e-06 4.8445721e-07 0.65029729)
(3.4203965e-07 3.4203965e-07 0.65029742)
(-1.6314953e-06 1.9929523e-07 0.6502972)
(-3.5736902e-06 5.4654556e-08 0.6502966)
(-5.4919359e-06 -8.9993803e-08 0.65029562)
(-7.3958814e-06 -2.2120778e-07 0.65029425)
(-2.7818461e-06 -3.0699406e-07 0.65029246)
(3.051394e-06 -1.0857124e-06 0.65029429)
(7.2370877e-06 -1.1864192e-06 0.65029579)
(4.2706161e-06 -1.3311689e-06 0.65029662)
(2.2072552e-06 -1.4841058e-06 0.65029709)
(1.9929523e-07 -1.6314953e-06 0.6502972)
(-1.7714909e-06 -1.7714909e-06 0.65029694)
(-3.7091459e-06 -1.9054631e-06 0.65029632)
(-5.6148206e-06 -2.031588e-06 0.65029532)
(-7.4875309e-06 -2.1393365e-06 0.65029392)
(-2.8051357e-06 -2.2063103e-06 0.65029212)
(3.0116774e-06 -2.8661774e-06 0.6502938)
(7.0965894e-06 -3.0410758e-06 0.65029528)
(4.1082775e-06 -3.2407767e-06 0.65029608)
(2.0504854e-06 -3.4198569e-06 0.65029652)
(5.4654565e-08 -3.5736902e-06 0.6502966)
(-1.9054631e-06 -3.7091459e-06 0.65029632)
(-3.8337873e-06 -3.8337873e-06 0.65029567)
(-5.7258093e-06 -3.9513776e-06 0.65029464)
(-7.5706037e-06 -4.0575373e-06 0.65029323)
(-2.8264953e-06 -4.1319334e-06 0.65029142)
(2.9347951e-06 -4.432918e-06 0.65029298)
(6.8624884e-06 -4.8297526e-06 0.65029441)
(3.8918349e-06 -5.129557e-06 0.65029516)
(1.8743417e-06 -5.3389582e-06 0.65029557)
(-8.9993801e-08 -5.4919359e-06 0.65029562)
(-2.031588e-06 -5.6148206e-06 0.65029532)
(-3.9513776e-06 -5.7258093e-06 0.65029464)
(-5.8385706e-06 -5.8385706e-06 0.65029359)
(-7.6680866e-06 -5.962736e-06 0.65029215)
(-2.854733e-06 -6.087717e-06 0.65029032)
(2.7471211e-06 -5.5634448e-06 0.65029185)
(6.3999504e-06 -6.6725936e-06 0.65029317)
(3.5990718e-06 -7.0653191e-06 0.65029386)
(1.6881064e-06 -7.2705307e-06 0.65029422)
(-2.2120778e-07 -7.3958814e-06 0.65029425)
(-2.1393365e-06 -7.4875309e-06 0.65029392)
(-4.0575374e-06 -7.5706037e-06 0.65029323)
(-5.962736e-06 -7.6680866e-06 0.65029215)
(-7.81975e-06 -7.81975e-06 0.65029068)
(-2.9098158e-06 -8.1217699e-06 0.65028881)
(2.195363e-06 -1.9927375e-06 0.65029051)
(5.360614e-06 -2.5444956e-06 0.65029152)
(3.2938978e-06 -2.6856281e-06 0.65029213)
(1.5437793e-06 -2.7479449e-06 0.65029246)
(-3.0699407e-07 -2.7818461e-06 0.65029246)
(-2.2063103e-06 -2.8051357e-06 0.65029212)
(-4.1319334e-06 -2.8264953e-06 0.65029142)
(-6.0877169e-06 -2.854733e-06 0.65029032)
(-8.1217699e-06 -2.9098158e-06 0.65028881)
(-3.0560795e-06 -3.0560795e-06 0.65028683)
(4.1742264e-06 4.1742264e-06 0.6500323)
(9.8258985e-06 3.753567e-06 0.650034)
(5.8014417e-06 3.650059e-06 0.65003492)
(3.2477181e-06 3.6030484e-06 0.65003546)
(8.5650509e-07 3.5711263e-06 0.65003564)
(-1.4110092e-06 3.5387296e-06 0.65003547)
(-3.5299228e-06 3.4916788e-06 0.65003497)
(-5.4106423e-06 3.4004395e-06 0.65003414)
(-6.7897291e-06 3.1774257e-06 0.65003302)
(-2.434885e-06 2.5210607e-06 0.65003171)
(3.753567e-06 9.8258985e-06 0.650034)
(9.0396468e-06 9.0396468e-06 0.65003552)
(5.5756638e-06 8.7670362e-06 0.65003639)
(3.1293189e-06 8.6105641e-06 0.65003691)
(7.6002675e-07 8.4900958e-06 0.65003708)
(-1.5301804e-06 8.3661126e-06 0.6500369)
(-3.737358e-06 8.1997662e-06 0.65003637)
(-5.8820222e-06 7.9221982e-06 0.6500355)
(-8.1087981e-06 7.3732301e-06 0.65003428)
(-3.0912499e-06 6.1387201e-06 0.65003266)
(3.650059e-06 5.8014417e-06 0.65003492)
(8.7670362e-06 5.5756638e-06 0.65003639)
(5.372359e-06 5.372359e-06 0.65003723)
(2.9707777e-06 5.2029083e-06 0.65003772)
(6.1205353e-07 5.0493599e-06 0.65003787)
(-1.7013387e-06 4.889461e-06 0.65003766)
(-3.9738372e-06 4.697354e-06 0.65003711)
(-6.2371784e-06 4.4410038e-06 0.65003619)
(-8.5732071e-06 4.0942819e-06 0.65003491)
(-3.2578911e-06 3.7338659e-06 0.65003321)
(3.6030484e-06 3.2477182e-06 0.65003546)
(8.6105641e-06 3.1293189e-06 0.65003691)
(5.2029083e-06 2.9707777e-06 0.65003772)
(2.8063199e-06 2.8063199e-06 0.65003819)
(4.4657944e-07 2.6422379e-06 0.65003831)
(-1.8821864e-06 2.4725313e-06 0.65003808)
(-4.1858152e-06 2.28696e-06 0.6500375)
(-6.4850943e-06 2.0783119e-06 0.65003655)
(-8.815936e-06 1.8577366e-06 0.65003522)
(-3.3315271e-06 1.6870582e-06 0.65003349)
(3.5711263e-06 8.5650509e-07 0.65003564)
(8.4900958e-06 7.6002676e-07 0.65003708)
(5.04936e-06 6.1205353e-07 0.65003787)
(2.6422379e-06 4.4657944e-07 0.65003831)
(2.7826496e-07 2.7826497e-07 0.65003841)
(-2.0566166e-06 1.0932283e-07 0.65003815)
(-4.3680565e-06 -6.211302e-08 0.65003754)
(-6.6664018e-06 -2.3376055e-07 0.65003656)
(-8.9644608e-06 -3.8956226e-07 0.65003521)
(-3.3716766e-06 -4.9139615e-07 0.65003346)
(3.5387296e-06 -1.4110091e-06 0.65003547)
(8.3661126e-06 -1.5301804e-06 0.6500369)
(4.889461e-06 -1.7013387e-06 0.65003766)
(2.4725313e-06 -1.8821864e-06 0.65003808)
(1.0932284e-07 -2.0566166e-06 0.65003815)
(-2.2225644e-06 -2.2225644e-06 0.65003787)
(-4.5288986e-06 -2.3817417e-06 0.65003724)
(-6.8125436e-06 -2.5320156e-06 0.65003623)
(-9.0735716e-06 -2.660775e-06 0.65003486)
(-3.3994164e-06 -2.7410162e-06 0.65003309)
(3.4916788e-06 -3.5299228e-06 0.65003497)
(8.1997662e-06 -3.737358e-06 0.65003637)
(4.697354e-06 -3.9738371e-06 0.65003711)
(2.28696e-06 -4.1858152e-06 0.6500375)
(-6.2113016e-08 -4.3680565e-06 0.65003754)
(-2.3817417e-06 -4.5288986e-06 0.65003724)
(-4.6775077e-06 -4.6775077e-06 0.65003657)
(-6.9454351e-06 -4.8185445e-06 0.65003555)
(-9.1734614e-06 -4.9468203e-06 0.65003415)
(-3.4251707e-06 -5.0374246e-06 0.65003238)
(3.4004395e-06 -5.4106423e-06 0.65003414)
(7.9221982e-06 -5.8820222e-06 0.6500355)
(4.4410038e-06 -6.2371784e-06 0.65003619)
(2.0783119e-06 -6.4850943e-06 0.65003655)
(-2.3376055e-07 -6.6664018e-06 0.65003656)
(-2.5320156e-06 -6.8125436e-06 0.65003623)
(-4.8185445e-06 -6.9454351e-06 0.65003555)
(-7.0818562e-06 -7.0818562e-06 0.6500345)
(-9.2924517e-06 -7.2339514e-06 0.65003308)
(-3.4598192e-06 -7.3887949e-06 0.65003128)
(3.1774257e-06 -6.7897291e-06 0.65003302)
(7.3732301e-06 -8.1087981e-06 0.65003428)
(4.0942819e-06 -8.5732071e-06 0.65003491)
(1.8577366e-06 -8.815936e-06 0.65003522)
(-3.8956227e-07 -8.9644608e-06 0.65003521)
(-2.660775e-06 -9.0735716e-06 0.65003486)
(-4.9468203e-06 -9.1734613e-06 0.65003415)
(-7.2339514e-06 -9.2924517e-06 0.65003308)
(-9.4804e-06 -9.4804e-06 0.65003162)
(-3.5283997e-06 -9.8584201e-06 0.65002979)
(2.5210607e-06 -2.434885e-06 0.65003171)
(6.1387201e-06 -3.0912499e-06 0.65003266)
(3.7338659e-06 -3.2578911e-06 0.65003321)
(1.6870582e-06 -3.3315271e-06 0.65003349)
(-4.9139615e-07 -3.3716766e-06 0.65003346)
(-2.7410162e-06 -3.3994164e-06 0.65003309)
(-5.0374246e-06 -3.4251707e-06 0.65003238)
(-7.3887949e-06 -3.4598192e-06 0.65003128)