/*--------------------------------*- C++ -*----------------------------------*\
| =========                 |                                                 |
| \\      /  F ield         | OpenFOAM: The Open Source CFD Toolbox           |
|  \\    /   O peration     | Version:  v2106                                 |
|   \\  /    A nd           | Website:  www.openfoam.com                      |
|    \\/     M anipulation  |                                                 |
\*---------------------------------------------------------------------------*/
FoamFile
{
    version     2.0;
    format      ascii;
    arch        "LSB;label=32;scalar=64";
    class       volVectorField;
    location    "95";
    object      gradT;
}
// * * * * * * * * * * * * * * * * * * * * * * * * * * * * * * * * * * * * * //

dimensions      [0 -1 0 1 0 0 0];

internalField   nonuniform List<vector> 
4000
(
(0.00019770299 0.00019770299 560.57072)
(0.00044523903 0.00018076948 560.57302)
(0.00024021571 0.00017649406 560.57425)
(0.00013713758 0.00017470289 560.57502)
(5.0555883e-05 0.00017356663 560.5754)
(-2.6227678e-05 0.00017245792 560.57544)
(-9.2436854e-05 0.00017088414 560.57518)
(-0.00014147652 0.0001679033 560.57465)
(-0.00015359285 0.00016097826 560.57396)
(-4.8917364e-05 0.00014395995 560.57332)
(0.00018076948 0.00044523903 560.57302)
(0.00041342564 0.00041342564 560.5751)
(0.00023111583 0.00040245597 560.57628)
(0.00013274644 0.00039662288 560.57702)
(4.7188421e-05 0.00039236748 560.57739)
(-3.025142e-05 0.00038812249 560.57742)
(-9.9268779e-05 0.00038253068 560.57713)
(-0.00015633534 0.00037335203 560.57657)
(-0.00018950788 0.00035579749 560.57579)
(-6.5935673e-05 0.00032137942 560.57489)
(0.00017649406 0.00024021571 560.57425)
(0.00040245596 0.00023111583 560.57628)
(0.00022341295 0.00022341295 560.57742)
(0.0001270491 0.00021730522 560.57814)
(4.2055494e-05 0.000211947 560.57849)
(-3.6064477e-05 0.00020647981 560.57849)
(-0.00010720731 0.00019999095 560.57818)
(-0.00016820971 0.00019139009 560.57758)
(-0.00020556546 0.00017975856 560.57674)
(-7.1862742e-05 0.00016705119 560.57576)
(0.0001747029 0.00013713759 560.57502)
(0.00039662288 0.00013274644 560.57702)
(0.00021730522 0.0001270491 560.57814)
(0.0001212805 0.0001212805 560.57884)
(3.6363008e-05 0.0001156241 560.57916)
(-4.2207478e-05 0.00010984627 560.57914)
(-0.0001143585 0.00010358154 560.5788)
(-0.00017656773 9.6568507e-05 560.57816)
(-0.00021384678 8.9143222e-05 560.57729)
(-7.4407249e-05 8.3292794e-05 560.57628)
(0.00017356663 5.0555887e-05 560.5754)
(0.00039236747 4.7188422e-05 560.57739)
(0.000211947 4.2055493e-05 560.57849)
(0.0001156241 3.6363006e-05 560.57916)
(3.0621262e-05 3.0621262e-05 560.57946)
(-4.8107037e-05 2.4907538e-05 560.57941)
(-0.00012048507 1.9158068e-05 560.57905)
(-0.00018264803 1.3442487e-05 560.57839)
(-0.00021884117 8.2758731e-06 560.57748)
(-7.5763027e-05 4.8919653e-06 560.57646)
(0.00017245792 -2.6227683e-05 560.57544)
(0.00038812249 -3.0251413e-05 560.57742)
(0.0002064798 -3.6064485e-05 560.57849)
(0.00010984627 -4.2207478e-05 560.57914)
(2.4907541e-05 -4.8107034e-05 560.57941)
(-5.3670671e-05 -5.3670669e-05 560.57935)
(-0.00012582355 -5.8935811e-05 560.57896)
(-0.00018744993 -6.381606e-05 560.57827)
(-0.0002223973 -6.7901832e-05 560.57735)
(-7.6663187e-05 -7.0383039e-05 560.57632)
(0.00017088414 -9.243686e-05 560.57518)
(0.00038253067 -9.9268778e-05 560.57713)
(0.00019999094 -0.00010720731 560.57818)
(0.00010358155 -0.00011435849 560.5788)
(1.9158071e-05 -0.00012048507 560.57905)
(-5.8935814e-05 -0.00012582354 560.57896)
(-0.00013063046 -0.00013063046 560.57854)
(-0.00019161405 -0.00013499293 560.57784)
(-0.00022540815 -0.00013868437 560.57691)
(-7.7417165e-05 -0.00014102446 560.57586)
(0.00016790331 -0.00014147653 560.57465)
(0.00037335204 -0.00015633535 560.57657)
(0.00019139009 -0.0001682097 560.57758)
(9.6568508e-05 -0.00017656773 560.57816)
(1.3442489e-05 -0.00018264803 560.57839)
(-6.3816059e-05 -0.00018744993 560.57827)
(-0.00013499294 -0.00019161404 560.57784)
(-0.00019550384 -0.00019550383 560.57712)
(-0.00022842883 -0.00019916443 560.57617)
(-7.8223252e-05 -0.00020195598 560.57512)
(0.00016097826 -0.00015359284 560.57396)
(0.00035579749 -0.00018950788 560.57579)
(0.00017975856 -0.00020556545 560.57674)
(8.9143218e-05 -0.00021384678 560.57729)
(8.2758752e-06 -0.00021884118 560.57748)
(-6.7901824e-05 -0.00022239731 560.57735)
(-0.00013868437 -0.00022540814 560.57691)
(-0.00019916443 -0.00022842883 560.57617)
(-0.00023186029 -0.00023186029 560.5752)
(-7.9278198e-05 -0.0002354459 560.57413)
(0.00014395995 -4.8917363e-05 560.57332)
(0.00032137943 -6.5935672e-05 560.57489)
(0.00016705119 -7.1862741e-05 560.57576)
(8.3292787e-05 -7.4407249e-05 560.57628)
(4.8919588e-06 -7.5763028e-05 560.57646)
(-7.0383027e-05 -7.6663193e-05 560.57632)
(-0.00014102446 -7.7417163e-05 560.57586)
(-0.00020195598 -7.8223252e-05 560.57512)
(-0.0002354459 -7.9278195e-05 560.57413)
(-8.0613664e-05 -8.061366e-05 560.57304)
(0.0017035269 0.0017035269 1138.5395)
(0.0039587493 0.0015396805 1138.5434)
(0.0022826321 0.0014998525 1138.5457)
(0.0013177946 0.0014827317 1138.5472)
(0.00048379585 0.0014717375 1138.5479)
(-0.00026063176 0.0014609876 1138.548)
(-0.00090606881 0.0014457132 1138.5474)
(-0.0013926757 0.0014165975 1138.5463)
(-0.0015430334 0.0013467285 1138.5448)
(-0.00050041352 0.0011453112 1138.5432)
(0.0015396804 0.0039587493 1138.5434)
(0.0036532376 0.0036532376 1138.547)
(0.002197209 0.0035501523 1138.5492)
(0.0012756221 0.0034941452 1138.5506)
(0.00045117967 0.0034529651 1138.5513)
(-0.00029966821 0.0034118164 1138.5513)
(-0.00097265397 0.0033575664 1138.5507)
(-0.0015411527 0.003268196 1138.5496)
(-0.0019499628 0.0030937145 1138.5479)
(-0.0007018308 0.0027071371 1138.5457)
(0.0014998525 0.0022826321 1138.5457)
(0.0035501523 0.002197209 1138.5492)
(0.0021235397 0.0021235397 1138.5513)
(0.0012206073 0.0020645694 1138.5527)
(0.00040146703 0.0020126886 1138.5534)
(-0.00035603045 0.0019596971 1138.5533)
(-0.0010496892 0.0018967691 1138.5527)
(-0.0016565276 0.0018133116 1138.5514)
(-0.0021040923 0.0017003439 1138.5496)
(-0.00075813177 0.0015790445 1138.5473)
(0.0014827317 0.0013177946 1138.5472)
(0.0034941452 0.0012756221 1138.5506)
(0.0020645694 0.0012206073 1138.5527)
(0.001164771 0.0011647711 1138.554)
(0.00034630729 0.0011099657 1138.5546)
(-0.00041558771 0.0010539543 1138.5546)
(-0.0011190395 0.00099320444 1138.5539)
(-0.001737578 0.00092518766 1138.5525)
(-0.0021842299 0.00085318453 1138.5507)
(-0.00078269706 0.0007966246 1138.5483)
(0.0014717375 0.00048379585 1138.5479)
(0.0034529651 0.00045117967 1138.5513)
(0.0020126886 0.00040146703 1138.5534)
(0.0011099657 0.00034630729 1138.5546)
(0.00029065033 0.00029065032 1138.5552)
(-0.00047279172 0.00023524838 1138.5551)
(-0.0011784559 0.00017948491 1138.5543)
(-0.0017965475 0.00012403709 1138.553)
(-0.0022326553 7.3908993e-05 1138.551)
(-0.00079583839 4.1083158e-05 1138.5486)
(0.0014609876 -0.00026063176 1138.548)
(0.0034118164 -0.00029966821 1138.5513)
(0.0019596971 -0.00035603046 1138.5533)
(0.0010539543 -0.00041558771 1138.5546)
(0.00023524838 -0.00047279172 1138.5551)
(-0.00052675313 -0.00052675313 1138.5549)
(-0.0012302508 -0.00057784274 1138.5541)
(-0.0018431539 -0.00062523177 1138.5527)
(-0.0022671838 -0.00066494986 1138.5507)
(-0.00080458095 -0.00068910648 1138.5483)
(0.0014457132 -0.00090606881 1138.5474)
(0.0033575664 -0.00097265397 1138.5507)
(0.0018967691 -0.0010496892 1138.5527)
(0.00099320444 -0.0011190395 1138.5539)
(0.00017948491 -0.0011784559 1138.5543)
(-0.00057784274 -0.0012302508 1138.5541)
(-0.0012769345 -0.0012769345 1138.5533)
(-0.0018836547 -0.0013193912 1138.5518)
(-0.00229653 -0.0013554737 1138.5498)
(-0.00081194281 -0.001378537 1138.5474)
(0.0014165975 -0.0013926757 1138.5463)
(0.003268196 -0.0015411527 1138.5496)
(0.0018133116 -0.0016565276 1138.5514)
(0.00092518765 -0.0017375779 1138.5525)
(0.00012403709 -0.0017965475 1138.553)
(-0.00062523177 -0.0018431539 1138.5527)
(-0.0013193912 -0.0018836546 1138.5518)
(-0.001921693 -0.001921693 1138.5503)
(-0.0023263296 -0.0019579776 1138.5483)
(-0.00081995651 -0.0019865571 1138.5458)
(0.0013467285 -0.0015430334 1138.5448)
(0.0030937145 -0.0019499628 1138.5479)
(0.0017003439 -0.0021040923 1138.5496)
(0.00085318453 -0.0021842299 1138.5507)
(7.3908986e-05 -0.0022326553 1138.551)
(-0.00066494986 -0.0022671838 1138.5507)
(-0.0013554737 -0.00229653 1138.5498)
(-0.0019579776 -0.0023263296 1138.5483)
(-0.0023613941 -0.0023613941 1138.5463)
(-0.00083099577 -0.0024020319 1138.5437)
(0.0011453112 -0.00050041352 1138.5432)
(0.0027071371 -0.00070183081 1138.5457)
(0.0015790445 -0.00075813177 1138.5473)
(0.0007966246 -0.00078269706 1138.5483)
(4.1083151e-05 -0.0007958384 1138.5486)
(-0.00068910648 -0.00080458095 1138.5483)
(-0.001378537 -0.00081194281 1138.5474)
(-0.0019865571 -0.00081995651 1138.5458)
(-0.0024020319 -0.00083099577 1138.5437)
(-0.00084704841 -0.00084704841 1138.5411)
(0.0028449475 0.0028449475 1095.5284)
(0.0067096108 0.002571913 1095.5316)
(0.003992942 0.0025037321 1095.5335)
(0.0023196997 0.0024735236 1095.5347)
(0.00082535522 0.002453719 1095.5353)
(-0.0005335278 0.0024341541 1095.5353)
(-0.0017405214 0.0024062046 1095.5347)
(-0.0027197405 0.0023526341 1095.5336)
(-0.0032700127 0.0022230473 1095.532)
(-0.0011339052 0.0018452938 1095.5301)
(0.002571913 0.0067096108 1095.5316)
(0.0061977877 0.0061977877 1095.5344)
(0.0038453578 0.006019443 1095.5363)
(0.0022446801 0.0059198945 1095.5374)
(0.00076630092 0.0058455207 1095.538)
(-0.00060479944 0.0057706213 1095.538)
(-0.0018628013 0.0056714723 1095.5374)
(-0.0029944765 0.0055075324 1095.5362)
(-0.0040310233 0.0051857976 1095.5344)
(-0.0015116587 0.0044675096 1095.532)
(0.0025037321 0.003992942 1095.5335)
(0.006019443 0.0038453578 1095.5363)
(0.0037150489 0.0037150489 1095.538)
(0.0021457774 0.0036091012 1095.5392)
(0.00067608201 0.0035150617 1095.5397)
(-0.00070757625 0.0034185624 1095.5396)
(-0.0020036103 0.0033036897 1095.539)
(-0.0032054152 0.003151149 1095.5377)
(-0.0043100355 0.0029448296 1095.5358)
(-0.0016127638 0.0027264692 1095.5333)
(0.0024735236 0.0023196997 1095.5347)
(0.0059198945 0.0022446801 1095.5374)
(0.0036091012 0.0021457775 1095.5392)
(0.0020446929 0.0020446929 1095.5403)
(0.0005757621 0.0019450577 1095.5408)
(-0.00081617144 0.0018429739 1095.5406)
(-0.0021302147 0.0017320864 1095.5399)
(-0.0033533366 0.0016078494 1095.5386)
(-0.0044557032 0.0014764326 1095.5367)
(-0.0016572323 0.0013737994 1095.534)
(0.002453719 0.00082535522 1095.5353)
(0.0058455207 0.00076630091 1095.538)
(0.0035150617 0.00067608201 1095.5397)
(0.0019450577 0.0005757621 1095.5408)
(0.00047436301 0.00047436302 1095.5412)
(-0.00092054759 0.00037327656 1095.541)
(-0.0022387348 0.00027138837 1095.5403)
(-0.003461069 0.00016995316 1095.5389)
(-0.0045440855 7.8185546e-05 1095.5369)
(-0.0016811859 1.8138898e-05 1095.5343)
(0.0024341541 -0.0005335278 1095.5353)
(0.0057706213 -0.00060479943 1095.538)
(0.0034185624 -0.00070757624 1095.5396)
(0.0018429739 -0.00081617145 1095.5406)
(0.00037327656 -0.00092054759 1095.541)
(-0.0010191461 -0.0010191461 1095.5408)
(-0.0023335381 -0.0011127145 1095.54)
(-0.0035465394 -0.0011998189 1095.5386)
(-0.0046075175 -0.0012732191 1095.5366)
(-0.0016972634 -0.0013181874 1095.5339)
(0.0024062046 -0.0017405214 1095.5347)
(0.0056714723 -0.0018628013 1095.5374)
(0.0033036897 -0.0020036103 1095.539)
(0.0017320864 -0.0021302147 1095.5399)
(0.00027138838 -0.0022387348 1095.5403)
(-0.0011127145 -0.002333538 1095.54)
(-0.0024194075 -0.0024194075 1095.5392)
(-0.0036215736 -0.002498301 1095.5377)
(-0.0046624541 -0.0025667308 1095.5357)
(-0.0017111648 -0.0026121986 1095.533)
(0.0023526341 -0.0027197405 1095.5336)
(0.0055075324 -0.0029944765 1095.5362)
(0.003151149 -0.0032054152 1095.5377)
(0.0016078494 -0.0033533366 1095.5386)
(0.00016995317 -0.003461069 1095.5389)
(-0.0011998189 -0.0035465394 1095.5386)
(-0.002498301 -0.0036215736 1095.5377)
(-0.0036938627 -0.0036938627 1095.5363)
(-0.004721415 -0.0037671083 1095.5342)
(-0.0017275753 -0.0038333492 1095.5314)
(0.0022230473 -0.0032700127 1095.532)
(0.0051857975 -0.0040310233 1095.5344)
(0.0029448296 -0.0043100355 1095.5358)
(0.0014764326 -0.0044557032 1095.5367)
(7.8185559e-05 -0.0045440856 1095.5369)
(-0.0012732191 -0.0046075174 1095.5366)
(-0.0025667308 -0.0046624541 1095.5357)
(-0.0037671083 -0.004721415 1095.5342)
(-0.0048019406 -0.0048019406 1095.5321)
(-0.0017553254 -0.0049416272 1095.5293)
(0.0018452938 -0.0011339052 1095.5301)
(0.0044675096 -0.0015116587 1095.532)
(0.0027264692 -0.0016127638 1095.5333)
(0.0013737994 -0.0016572323 1095.534)
(1.8138904e-05 -0.0016811859 1095.5343)
(-0.0013181874 -0.0016972634 1095.5339)
(-0.0026121986 -0.0017111648 1095.533)
(-0.0038333492 -0.0017275753 1095.5314)
(-0.0049416272 -0.0017553254 1095.5293)
(-0.0018206997 -0.0018206997 1095.5263)
(0.0038183726 0.0038183726 1056.9768)
(0.0090409186 0.0034493454 1056.9795)
(0.0054262209 0.0033568843 1056.9811)
(0.0031451118 0.0033152795 1056.9822)
(0.0010628302 0.0032875843 1056.9826)
(-0.00086184845 0.0032599556 1056.9825)
(-0.002606288 0.0032202683 1056.9819)
(-0.0040834254 0.0031438717 1056.9808)
(-0.0050555277 0.0029582431 1056.9792)
(-0.0017906415 0.0024146646 1056.9773)
(0.0034493454 0.0090409186 1056.9795)
(0.0083486862 0.0083486862 1056.982)
(0.005225122 0.0081056146 1056.9835)
(0.0030411617 0.0079678375 1056.9845)
(0.00097984433 0.0078636068 1056.985)
(-0.00096282242 0.007757834 1056.9849)
(-0.0027804139 0.0076172051 1056.9842)
(-0.0044764633 0.0073839338 1056.983)
(-0.0061493383 0.0069246645 1056.9813)
(-0.0023342199 0.0058958249 1056.9789)
(0.0033568843 0.0054262209 1056.9811)
(0.0081056146 0.005225122 1056.9835)
(0.0050453722 0.0050453722 1056.985)
(0.002903104 0.0048975852 1056.986)
(0.00085282667 0.0047653716 1056.9864)
(-0.0011082502 0.004629038 1056.9863)
(-0.0029801882 0.0044662901 1056.9856)
(-0.0047759661 0.0042498501 1056.9843)
(-0.0065436366 0.0039571285 1056.9824)
(-0.0024765345 0.0036495629 1056.9799)
(0.0033152795 0.0031451118 1056.9822)
(0.0079678375 0.0030411617 1056.9845)
(0.0048975852 0.002903104 1056.986)
(0.0027611612 0.0027611612 1056.9869)
(0.00071129714 0.0026206652 1056.9873)
(-0.001261904 0.0024763033 1056.9871)
(-0.0031596017 0.0023191972 1056.9864)
(-0.0049856249 0.002143006 1056.985)
(-0.0067496255 0.0019566895 1056.9831)
(-0.0025392636 0.0018116947 1056.9805)
(0.0032875843 0.0010628302 1056.9826)
(0.0078636068 0.00097984433 1056.985)
(0.0047653716 0.00085282667 1056.9864)
(0.0026206652 0.00071129713 1056.9873)
(0.00056796876 0.00056796876 1056.9876)
(-0.0014097183 0.00042481582 1056.9874)
(-0.0033134855 0.00028026902 1056.9866)
(-0.0051384738 0.00013614083 1056.9852)
(-0.0068749479 5.6241149e-06 1056.9833)
(-0.0025731977 -7.974584e-05 1056.9807)
(0.0032599556 -0.00086184844 1056.9825)
(0.007757834 -0.00096282242 1056.9849)
(0.004629038 -0.0011082502 1056.9863)
(0.0024763033 -0.001261904 1056.9871)
(0.00042481583 -0.0014097183 1056.9874)
(-0.0015496037 -0.0015496037 1056.9871)
(-0.0034482767 -0.0016827348 1056.9863)
(-0.0052602698 -0.001807178 1056.9849)
(-0.0069655121 -0.0019126151 1056.9829)
(-0.0025961769 -0.0019776216 1056.9803)
(0.0032202683 -0.002606288 1056.9819)
(0.0076172051 -0.0027804139 1056.9842)
(0.0044662901 -0.0029801882 1056.9856)
(0.0023191971 -0.0031596017 1056.9864)
(0.00028026901 -0.0033134855 1056.9866)
(-0.0016827348 -0.0034482767 1056.9863)
(-0.0035710598 -0.0035710598 1056.9854)
(-0.005368354 -0.0036850445 1056.984)
(-0.0070453914 -0.0037856469 1056.982)
(-0.0026165354 -0.0038542536 1056.9793)
(0.0031438717 -0.0040834254 1056.9808)
(0.0073839338 -0.0044764633 1056.983)
(0.0042498501 -0.0047759661 1056.9843)
(0.002143006 -0.0049856249 1056.985)
(0.00013614083 -0.0051384738 1056.9852)
(-0.001807178 -0.0052602698 1056.9849)
(-0.0036850445 -0.005368354 1056.984)
(-0.0054748569 -0.0054748569 1056.9825)
(-0.0071347212 -0.005587225 1056.9805)
(-0.0026419147 -0.0056951962 1056.9778)
(0.0029582431 -0.0050555277 1056.9792)
(0.0069246645 -0.0061493383 1056.9813)
(0.0039571285 -0.0065436366 1056.9824)
(0.0019566894 -0.0067496255 1056.9831)
(5.6241191e-06 -0.0068749479 1056.9833)
(-0.0019126151 -0.0069655121 1056.9829)
(-0.0037856469 -0.0070453914 1056.982)
(-0.005587225 -0.0071347212 1056.9805)
(-0.0072657307 -0.0072657307 1056.9784)
(-0.0026885162 -0.0075144406 1056.9756)
(0.0024146646 -0.0017906415 1056.9773)
(0.0058958249 -0.0023342199 1056.9789)
(0.0036495629 -0.0024765345 1056.9799)
(0.0018116947 -0.0025392636 1056.9805)
(-7.9745834e-05 -0.0025731977 1056.9807)
(-0.0019776216 -0.0025961769 1056.9803)
(-0.0038542536 -0.0026165354 1056.9793)
(-0.0056951962 -0.0026419147 1056.9778)
(-0.0075144406 -0.0026885162 1056.9756)
(-0.0028077213 -0.0028077213 1056.9727)
(0.0046868758 0.0046868758 1022.1546)
(0.0110907 0.0042280077 1022.157)
(0.0066436851 0.0041136064 1022.1584)
(0.0038181199 0.0040617927 1022.1593)
(0.0012046893 0.0040269623 1022.1596)
(-0.0012400323 0.0039919499 1022.1595)
(-0.0034879566 0.0039414217 1022.1589)
(-0.0054381785 0.003843843 1022.1577)
(-0.0068040912 0.003606088 1022.1562)
(-0.0024293129 0.0029081636 1022.1543)
(0.0042280077 0.0110907 1022.157)
(0.010230796 0.010230796 1022.1592)
(0.0063943626 0.0099295171 1022.1606)
(0.0036881538 0.0097574571 1022.1614)
(0.0010999251 0.0096261886 1022.1617)
(-0.0013683431 0.009492157 1022.1616)
(-0.003710117 0.0093132807 1022.1609)
(-0.0059411791 0.0090158096 1022.1597)
(-0.0082076103 0.0084289045 1022.158)
(-0.0031272373 0.0071116442 1022.1557)
(0.0041136064 0.0066436851 1022.1584)
(0.0099295171 0.0063943626 1022.1606)
(0.0061703459 0.0061703459 1022.1619)
(0.0035147914 0.0059848847 1022.1627)
(0.00093938919 0.005817993 1022.163)
(-0.0015529401 0.005645185 1022.1628)
(-0.003964304 0.0054383607 1022.162)
(-0.0063225547 0.0051629189 1022.1608)
(-0.0087082566 0.0047903678 1022.159)
(-0.0033074864 0.004400704 1022.1566)
(0.0040617927 0.0038181199 1022.1593)
(0.0097574571 0.0036881538 1022.1614)
(0.0059848847 0.0035147914 1022.1627)
(0.0033358008 0.0033358009 1022.1634)
(0.00076022527 0.0031580258 1022.1637)
(-0.0017479754 0.0029748782 1022.1635)
(-0.004192383 0.0027751949 1022.1627)
(-0.0065891719 0.0025510302 1022.1614)
(-0.0089698253 0.0023140057 1022.1595)
(-0.0033870133 0.002129985 1022.1571)
(0.0040269623 0.0012046893 1022.1596)
(0.0096261886 0.0010999251 1022.1617)
(0.005817993 0.00093938918 1022.163)
(0.0031580258 0.00076022527 1022.1637)
(0.00057846653 0.00057846653 1022.1639)
(-0.0019357709 0.00039659373 1022.1636)
(-0.004388152 0.0002126137 1022.1628)
(-0.0067837439 2.8880328e-05 1022.1615)
(-0.0091293018 -0.00013765726 1022.1596)
(-0.0034301669 -0.00024656313 1022.1571)
(0.0039919499 -0.0012400323 1022.1595)
(0.009492157 -0.0013683431 1022.1616)
(0.005645185 -0.0015529401 1022.1628)
(0.0029748782 -0.0017479754 1022.1635)
(0.00039659373 -0.0019357709 1022.1636)
(-0.0021138282 -0.0021138282 1022.1633)
(-0.0045600964 -0.0022837763 1022.1625)
(-0.0069394428 -0.002443242 1022.1611)
(-0.0092452688 -0.0025789732 1022.1592)
(-0.0034596172 -0.0026630515 1022.1567)
(0.0039414217 -0.0034879566 1022.1589)
(0.0093132807 -0.003710117 1022.1609)
(0.0054383607 -0.003964304 1022.162)
(0.002775195 -0.004192383 1022.1627)
(0.00021261371 -0.004388152 1022.1628)
(-0.0022837763 -0.0045600964 1022.1625)
(-0.0047175658 -0.0047175658 1022.1616)
(-0.0070789409 -0.0048650542 1022.1602)
(-0.0093491113 -0.0049969273 1022.1583)
(-0.0034862191 -0.005088341 1022.1557)
(0.003843843 -0.0054381785 1022.1577)
(0.0090158096 -0.005941179 1022.1597)
(0.0051629189 -0.0063225547 1022.1608)
(0.0025510302 -0.0065891719 1022.1614)
(2.8880328e-05 -0.0067837439 1022.1615)
(-0.002443242 -0.0069394428 1022.1611)
(-0.0048650542 -0.0070789409 1022.1602)
(-0.0072188043 -0.0072188043 1022.1588)
(-0.0094685555 -0.0073701919 1022.1568)
(-0.0035205597 -0.0075199976 1022.1543)
(0.003606088 -0.0068040912 1022.1562)
(0.0084289045 -0.0082076103 1022.158)
(0.0047903678 -0.0087082566 1022.159)
(0.0023140057 -0.0089698253 1022.1595)
(-0.00013765726 -0.0091293018 1022.1596)
(-0.0025789732 -0.0092452688 1022.1592)
(-0.0049969273 -0.0093491113 1022.1583)
(-0.0073701919 -0.0094685556 1022.1568)
(-0.0096503046 -0.0096503046 1022.1548)
(-0.0035860896 -0.010006484 1022.1522)
(0.0029081636 -0.0024293129 1022.1543)
(0.0071116442 -0.0031272373 1022.1557)
(0.0044007039 -0.0033074864 1022.1566)
(0.002129985 -0.0033870133 1022.1571)
(-0.00024656312 -0.0034301669 1022.1571)
(-0.0026630515 -0.0034596172 1022.1567)
(-0.005088341 -0.0034862191 1022.1557)
(-0.0075199976 -0.0035205597 1022.1543)
(-0.010006484 -0.0035860896 1022.1522)
(-0.0037580128 -0.0037580128 1022.1494)
(0.005469806 0.005469806 990.48948)
(0.012913405 0.0049264664 990.49171)
(0.007686687 0.0047918974 990.49293)
(0.0043641068 0.0047308072 990.49365)
(0.0012671351 0.0046894877 990.49391)
(-0.0016536994 0.0046477212 990.49371)
(-0.0043656096 0.0045872274 990.49306)
(-0.006751987 0.0044701252 990.49198)
(-0.0084739478 0.004184271 990.4905)
(-0.0030352342 0.0033438629 990.48874)
(0.0049264664 0.012913405 990.49171)
(0.011896542 0.011896542 990.4937)
(0.0073931982 0.011542034 990.49485)
(0.0042104922 0.011338865 990.49555)
(0.0011425061 0.01118301 990.4958)
(-0.0018070899 0.011023143 990.49558)
(-0.0046320035 0.010809145 990.4949)
(-0.0073564215 0.010452576 990.49376)
(-0.010163341 0.0097480658 990.49214)
(-0.0038756424 0.0081650064 990.48997)
(0.0047918974 0.007686687 990.49293)
(0.011542034 0.0073931981 990.49485)
(0.0071290099 0.0071290099 990.49596)
(0.0040050826 0.0069093784 990.49663)
(0.0009514133 0.0067109259 990.49684)
(-0.0020275644 0.0065047711 990.4966)
(-0.0049361761 0.0062575065 990.49588)
(-0.0078130658 0.005927834 990.49468)
(-0.010761518 0.0054819145 990.49298)
(-0.0040906072 0.0050170916 990.49071)
(0.0047308072 0.0043641068 990.49365)
(0.011338865 0.0042104922 990.49555)
(0.0069093784 0.0040050826 990.49663)
(0.0037924082 0.0037924082 990.49726)
(0.00073789886 0.0035806286 990.49745)
(-0.0022605093 0.0033619711 990.49716)
(-0.0052089407 0.0031231882 990.49641)
(-0.0081320135 0.0028548962 990.49517)
(-0.011074084 0.0025712335 990.49341)
(-0.0041855244 0.002351403 990.49109)
(0.0046894877 0.0012671351 990.49391)
(0.01118301 0.0011425061 990.4958)
(0.0067109259 0.0009514133 990.49684)
(0.0035806286 0.00073789886 990.49745)
(0.00052097615 0.00052097615 990.49759)
(-0.0024850048 0.00030355564 990.49728)
(-0.005443251 8.3246853e-05 990.49649)
(-0.0083650205 -0.00013707371 990.49521)
(-0.011265011 -0.00033693186 990.49341)
(-0.0042371608 -0.00046759711 990.49108)
(0.0046477212 -0.0016536994 990.49371)
(0.011023143 -0.0018070899 990.49558)
(0.0065047711 -0.0020275644 990.4966)
(0.0033619711 -0.0022605093 990.49716)
(0.00030355564 -0.0024850048 990.49728)
(-0.0026982386 -0.0026982386 990.49693)
(-0.00564957 -0.0029022981 990.49611)
(-0.0085521922 -0.0030944054 990.49479)
(-0.011404607 -0.0032585231 990.49297)
(-0.0042726345 -0.0033605353 990.49061)
(0.0045872274 -0.0043656096 990.49306)
(0.010809145 -0.0046320035 990.4949)
(0.0062575065 -0.0049361761 990.49588)
(0.0031231882 -0.0052089407 990.49641)
(8.3246867e-05 -0.005443251 990.49649)
(-0.0029022981 -0.00564957 990.49611)
(-0.0058394178 -0.0058394178 990.49525)
(-0.0087212455 -0.0060185264 990.4939)
(-0.011531141 -0.006180225 990.49205)
(-0.0043051689 -0.0062935436 990.48968)
(0.0044701252 -0.006751987 990.49198)
(0.010452576 -0.0073564215 990.49376)
(0.005927834 -0.0078130658 990.49468)
(0.0028548962 -0.0081320134 990.49517)
(-0.0001370737 -0.0083650205 990.49521)
(-0.0030944054 -0.0085521922 990.49479)
(-0.0060185264 -0.0087212455 990.4939)
(-0.0088929994 -0.0088929994 990.49253)
(-0.011679624 -0.0090821244 990.49065)
(-0.0043481802 -0.0092724925 990.48825)
(0.004184271 -0.0084739478 990.4905)
(0.0097480657 -0.010163341 990.49214)
(0.0054819145 -0.010761518 990.49298)
(0.0025712335 -0.011074084 990.49341)
(-0.00033693186 -0.011265011 990.49341)
(-0.0032585231 -0.011404607 990.49297)
(-0.0061802251 -0.011531141 990.49205)
(-0.0090821245 -0.011679624 990.49065)
(-0.011910634 -0.011910634 990.48872)
(-0.0044320809 -0.01237066 990.48627)
(0.0033438629 -0.0030352343 990.48874)
(0.0081650064 -0.0038756424 990.48997)
(0.0050170916 -0.0040906072 990.49071)
(0.002351403 -0.0041855244 990.49109)
(-0.00046759712 -0.0042371608 990.49108)
(-0.0033605353 -0.0042726345 990.49061)
(-0.0062935436 -0.0043051689 990.48968)
(-0.0092724925 -0.0043481802 990.48825)
(-0.01237066 -0.0044320809 990.48627)
(-0.0046548642 -0.0046548642 990.48368)
(0.0061745031 0.0061745031 961.52582)
(0.014534432 0.0055522619 961.52782)
(0.0085814678 0.0053991517 961.52887)
(0.0048040099 0.0053296128 961.52948)
(0.0012669383 0.0052823932 961.52966)
(-0.0020871581 0.0052344723 961.52943)
(-0.0052214459 0.0051648755 961.52879)
(-0.0080033993 0.0050299158 961.52776)
(-0.010043341 0.004700036 961.52636)
(-0.0036016737 0.0037291446 961.52473)
(0.0055522619 0.014534432 961.52782)
(0.013371404 0.013371404 961.52959)
(0.0082474941 0.012968156 961.53059)
(0.0046288721 0.012736701 961.53118)
(0.0011242275 0.012558504 961.53134)
(-0.0022634347 0.012375109 961.53109)
(-0.0055282806 0.012129052 961.53043)
(-0.0087006586 0.011718477 961.52934)
(-0.011994498 0.010906449 961.52782)
(-0.0045725651 0.0090803713 961.52582)
(0.0053991517 0.0085814678 961.52887)
(0.012968156 0.0082474941 961.53059)
(0.0079467644 0.0079467644 961.53155)
(0.0043943575 0.0076961124 961.53211)
(0.00090534603 0.007468984 961.53225)
(-0.0025166104 0.0072324626 961.53197)
(-0.0058780778 0.0069482998 961.53127)
(-0.0092260016 0.0065691096 961.53013)
(-0.012681447 0.0060562422 961.52853)
(-0.0048190591 0.005523119 961.52644)
(0.0053296128 0.0048040099 961.52948)
(0.012736701 0.0046288721 961.53118)
(0.0076961124 0.0043943575 961.53211)
(0.0041510917 0.0041510917 961.53263)
(0.00066057761 0.0039083824 961.53274)
(-0.0027841189 0.0036573535 961.53243)
(-0.0061916335 0.003382858 961.5317)
(-0.0095927162 0.0030742276 961.53052)
(-0.013040489 0.0027479547 961.52887)
(-0.0049279806 0.0024954892 961.52673)
(0.0052823932 0.0012669383 961.52966)
(0.012558504 0.0011242275 961.53134)
(0.007468984 0.00090534603 961.53225)
(0.0039083824 0.0006605776 961.53274)
(0.00041160783 0.00041160783 961.53282)
(-0.0030421348 0.00016170967 961.53248)
(-0.0064612036 -9.1877214e-05 961.53171)
(-0.0098609048 -0.00034577732 961.5305)
(-0.013260185 -0.00057623855 961.52882)
(-0.0049873694 -0.00072687105 961.52666)
(0.0052344723 -0.0020871581 961.52943)
(0.012375109 -0.0022634347 961.53109)
(0.0072324626 -0.0025166104 961.53197)
(0.0036573535 -0.0027841189 961.53243)
(0.00016170968 -0.0030421348 961.53248)
(-0.0032876039 -0.0032876039 961.53211)
(-0.0066991205 -0.0035230585 961.53131)
(-0.010077078 -0.0037453437 961.53007)
(-0.013421583 -0.0039358053 961.52837)
(-0.0050284022 -0.0040544995 961.52619)
(0.0051648755 -0.0052214459 961.52879)
(0.012129052 -0.0055282806 961.53043)
(0.0069482998 -0.0058780778 961.53127)
(0.003382858 -0.0061916335 961.5317)
(-9.1877209e-05 -0.0064612036 961.53171)
(-0.0035230585 -0.0066991205 961.53131)
(-0.0069189434 -0.0069189434 961.53048)
(-0.010273652 -0.0071275661 961.52921)
(-0.013569341 -0.0073173136 961.52748)
(-0.0050664989 -0.0074513384 961.52529)
(0.0050299158 -0.0080033993 961.52776)
(0.011718477 -0.0087006586 961.52934)
(0.0065691096 -0.0092260016 961.53013)
(0.0030742276 -0.0095927162 961.53052)
(-0.00034577732 -0.0098609048 961.5305)
(-0.0037453437 -0.010077078 961.53007)
(-0.0071275661 -0.010273652 961.52921)
(-0.010475448 -0.010475448 961.52791)
(-0.013745355 -0.01070043 961.52615)
(-0.0051177521 -0.010929479 961.52394)
(0.004700036 -0.010043341 961.52636)
(0.010906449 -0.011994498 961.52782)
(0.0060562422 -0.012681447 961.52853)
(0.0027479547 -0.013040489 961.52887)
(-0.00057623856 -0.013260185 961.52882)
(-0.0039358053 -0.013421583 961.52837)
(-0.0073173135 -0.013569341 961.52748)
(-0.01070043 -0.013745355 961.52615)
(-0.014023372 -0.014023372 961.52436)
(-0.0052191981 -0.014582545 961.52209)
(0.0037291446 -0.0036016737 961.52473)
(0.0090803713 -0.0045725651 961.52582)
(0.005523119 -0.0048190591 961.52644)
(0.0024954892 -0.0049279806 961.52673)
(-0.00072687105 -0.0049873694 961.52666)
(-0.0040544995 -0.0050284023 961.52619)
(-0.0074513384 -0.0050664989 961.52529)
(-0.010929479 -0.0051177521 961.52394)
(-0.014582545 -0.0052191981 961.52209)
(-0.0054905339 -0.0054905339 961.51968)
(0.0068043138 0.0068043138 934.89564)
(0.015967458 0.0061090803 934.89742)
(0.009345197 0.0059390415 934.89833)
(0.0051539524 0.0058618458 934.89883)
(0.0012186962 0.0058092886 934.89895)
(-0.0025264531 0.0057557972 934.8987)
(-0.0060411524 0.005677953 934.89808)
(-0.0091777794 0.0055268042 934.89711)
(-0.011499511 0.0051569924 934.89582)
(-0.0041249851 0.0040676859 934.89432)
(0.0061090803 0.015967458 934.89742)
(0.01466955 0.01466955 934.89899)
(0.0089743452 0.014221942 934.89985)
(0.0049593231 0.013964885 934.90033)
(0.0010596233 0.013766489 934.90044)
(-0.0027234565 0.013561807 934.90017)
(-0.0063846419 0.013286719 934.89953)
(-0.0099592203 0.012827219 934.89851)
(-0.013688188 0.011917781 934.8971)
(-0.0052142916 0.0098715165 934.89527)
(0.0059390416 0.009345197 934.89833)
(0.014221942 0.0089743452 934.89985)
(0.0086405316 0.0086405316 934.90068)
(0.0046984996 0.0083618441 934.90113)
(0.00081561867 0.0081087997 934.90121)
(-0.0030062229 0.0078448071 934.90092)
(-0.0067757408 0.0075272358 934.90024)
(-0.010546717 0.0071032096 934.89918)
(-0.014455213 0.0065297886 934.8977)
(-0.0054891614 0.0059351543 934.89578)
(0.0058618458 0.0051539525 934.89883)
(0.013964885 0.0049593231 934.90033)
(0.0083618441 0.0046984996 934.90113)
(0.0044275911 0.0044275911 934.90156)
(0.00054258628 0.004156913 934.90161)
(-0.0033050204 0.0038765725 934.90129)
(-0.0071262394 0.003569704 934.90058)
(-0.010956668 0.0032244989 934.89948)
(-0.014856244 0.0028596282 934.89796)
(-0.0056107145 0.0025776797 934.89601)
(0.0058092886 0.0012186963 934.89895)
(0.013766489 0.0010596233 934.90044)
(0.0081087997 0.00081561867 934.90121)
(0.004156913 0.00054258629 934.90161)
(0.0002646 0.00026460001 934.90164)