/*--------------------------------*- C++ -*----------------------------------*\
| =========                 |                                                 |
| \\      /  F ield         | OpenFOAM: The Open Source CFD Toolbox           |
|  \\    /   O peration     | Version:  v2106                                 |
|   \\  /    A nd           | Website:  www.openfoam.com                      |
|    \\/     M anipulation  |                                                 |
\*---------------------------------------------------------------------------*/
FoamFile
{
    version     2.0;
    format      ascii;
    arch        "LSB;label=32;scalar=64";
    class       volScalarField;
    location    "95";
    object      gradTx;
}
// * * * * * * * * * * * * * * * * * * * * * * * * * * * * * * * * * * * * * //

dimensions      [0 -1 0 1 0 0 0];

internalField   nonuniform List<scalar> 
4000
(
0.00019770299
0.00044523903
0.00024021571
0.00013713758
5.0555883e-05
-2.6227678e-05
-9.2436854e-05
-0.00014147652
-0.00015359285
-4.8917364e-05
0.00018076948
0.00041342564
0.00023111583
0.00013274644
4.7188421e-05
-3.025142e-05
-9.9268779e-05
-0.00015633534
-0.00018950788
-6.5935673e-05
0.00017649406
0.00040245596
0.00022341295
0.0001270491
4.2055494e-05
-3.6064477e-05
-0.00010720731
-0.00016820971
-0.00020556546
-7.1862742e-05
0.0001747029
0.00039662288
0.00021730522
0.0001212805
3.6363008e-05
-4.2207478e-05
-0.0001143585
-0.00017656773
-0.00021384678
-7.4407249e-05
0.00017356663
0.00039236747
0.000211947
0.0001156241
3.0621262e-05
-4.8107037e-05
-0.00012048507
-0.00018264803
-0.00021884117
-7.5763027e-05
0.00017245792
0.00038812249
0.0002064798
0.00010984627
2.4907541e-05
-5.3670671e-05
-0.00012582355
-0.00018744993
-0.0002223973
-7.6663187e-05
0.00017088414
0.00038253067
0.00019999094
0.00010358155
1.9158071e-05
-5.8935814e-05
-0.00013063046
-0.00019161405
-0.00022540815
-7.7417165e-05
0.00016790331
0.00037335204
0.00019139009
9.6568508e-05
1.3442489e-05
-6.3816059e-05
-0.00013499294
-0.00019550384
-0.00022842883
-7.8223252e-05
0.00016097826
0.00035579749
0.00017975856
8.9143218e-05
8.2758752e-06
-6.7901824e-05
-0.00013868437
-0.00019916443
-0.00023186029
-7.9278198e-05
0.00014395995
0.00032137943
0.00016705119
8.3292787e-05
4.8919588e-06
-7.0383027e-05
-0.00014102446
-0.00020195598
-0.0002354459
-8.0613664e-05
0.0017035269
0.0039587493
0.0022826321
0.0013177946
0.00048379585
-0.00026063176
-0.00090606881
-0.0013926757
-0.0015430334
-0.00050041352
0.0015396804
0.0036532376
0.002197209
0.0012756221
0.00045117967
-0.00029966821
-0.00097265397
-0.0015411527
-0.0019499628
-0.0007018308
0.0014998525
0.0035501523
0.0021235397
0.0012206073
0.00040146703
-0.00035603045
-0.0010496892
-0.0016565276
-0.0021040923
-0.00075813177
0.0014827317
0.0034941452
0.0020645694
0.001164771
0.00034630729
-0.00041558771
-0.0011190395
-0.001737578
-0.0021842299
-0.00078269706
0.0014717375
0.0034529651
0.0020126886
0.0011099657
0.00029065033
-0.00047279172
-0.0011784559
-0.0017965475
-0.0022326553
-0.00079583839
0.0014609876
0.0034118164
0.0019596971
0.0010539543
0.00023524838
-0.00052675313
-0.0012302508
-0.0018431539
-0.0022671838
-0.00080458095
0.0014457132
0.0033575664
0.0018967691
0.00099320444
0.00017948491
-0.00057784274
-0.0012769345
-0.0018836547
-0.00229653
-0.00081194281
0.0014165975
0.003268196
0.0018133116
0.00092518765
0.00012403709
-0.00062523177
-0.0013193912
-0.001921693
-0.0023263296
-0.00081995651
0.0013467285
0.0030937145
0.0017003439
0.00085318453
7.3908986e-05
-0.00066494986
-0.0013554737
-0.0019579776
-0.0023613941
-0.00083099577
0.0011453112
0.0027071371
0.0015790445
0.0007966246
4.1083151e-05
-0.00068910648
-0.001378537
-0.0019865571
-0.0024020319
-0.00084704841
0.0028449475
0.0067096108
0.003992942
0.0023196997
0.00082535522
-0.0005335278
-0.0017405214
-0.0027197405
-0.0032700127
-0.0011339052
0.002571913
0.0061977877
0.0038453578
0.0022446801
0.00076630092
-0.00060479944
-0.0018628013
-0.0029944765
-0.0040310233
-0.0015116587
0.0025037321
0.006019443
0.0037150489
0.0021457774
0.00067608201
-0.00070757625
-0.0020036103
-0.0032054152
-0.0043100355
-0.0016127638
0.0024735236
0.0059198945
0.0036091012
0.0020446929
0.0005757621
-0.00081617144
-0.0021302147
-0.0033533366
-0.0044557032
-0.0016572323
0.002453719
0.0058455207
0.0035150617
0.0019450577
0.00047436301
-0.00092054759
-0.0022387348
-0.003461069
-0.0045440855
-0.0016811859
0.0024341541
0.0057706213
0.0034185624
0.0018429739
0.00037327656
-0.0010191461
-0.0023335381
-0.0035465394
-0.0046075175
-0.0016972634
0.0024062046
0.0056714723
0.0033036897
0.0017320864
0.00027138838
-0.0011127145
-0.0024194075
-0.0036215736
-0.0046624541
-0.0017111648
0.0023526341
0.0055075324
0.003151149
0.0016078494
0.00016995317
-0.0011998189
-0.002498301
-0.0036938627
-0.004721415
-0.0017275753
0.0022230473
0.0051857975
0.0029448296
0.0014764326
7.8185559e-05
-0.0012732191
-0.0025667308
-0.0037671083
-0.0048019406
-0.0017553254
0.0018452938
0.0044675096
0.0027264692
0.0013737994
1.8138904e-05
-0.0013181874
-0.0026121986
-0.0038333492
-0.0049416272
-0.0018206997
0.0038183726
0.0090409186
0.0054262209
0.0031451118
0.0010628302
-0.00086184845
-0.002606288
-0.0040834254
-0.0050555277
-0.0017906415
0.0034493454
0.0083486862
0.005225122
0.0030411617
0.00097984433
-0.00096282242
-0.0027804139
-0.0044764633
-0.0061493383
-0.0023342199
0.0033568843
0.0081056146
0.0050453722
0.002903104
0.00085282667
-0.0011082502
-0.0029801882
-0.0047759661
-0.0065436366
-0.0024765345
0.0033152795
0.0079678375
0.0048975852
0.0027611612
0.00071129714
-0.001261904
-0.0031596017
-0.0049856249
-0.0067496255
-0.0025392636
0.0032875843
0.0078636068
0.0047653716
0.0026206652
0.00056796876
-0.0014097183
-0.0033134855
-0.0051384738
-0.0068749479
-0.0025731977
0.0032599556
0.007757834
0.004629038
0.0024763033
0.00042481583
-0.0015496037
-0.0034482767
-0.0052602698
-0.0069655121
-0.0025961769
0.0032202683
0.0076172051
0.0044662901
0.0023191971
0.00028026901
-0.0016827348
-0.0035710598
-0.005368354
-0.0070453914
-0.0026165354
0.0031438717
0.0073839338
0.0042498501
0.002143006
0.00013614083
-0.001807178
-0.0036850445
-0.0054748569
-0.0071347212
-0.0026419147
0.0029582431
0.0069246645
0.0039571285
0.0019566894
5.6241191e-06
-0.0019126151
-0.0037856469
-0.005587225
-0.0072657307
-0.0026885162
0.0024146646
0.0058958249
0.0036495629
0.0018116947
-7.9745834e-05
-0.0019776216
-0.0038542536
-0.0056951962
-0.0075144406
-0.0028077213
0.0046868758
0.0110907
0.0066436851
0.0038181199
0.0012046893
-0.0012400323
-0.0034879566
-0.0054381785
-0.0068040912
-0.0024293129
0.0042280077
0.010230796
0.0063943626
0.0036881538
0.0010999251
-0.0013683431
-0.003710117
-0.0059411791
-0.0082076103
-0.0031272373
0.0041136064
0.0099295171
0.0061703459
0.0035147914
0.00093938919
-0.0015529401
-0.003964304
-0.0063225547
-0.0087082566
-0.0033074864
0.0040617927
0.0097574571
0.0059848847
0.0033358008
0.00076022527
-0.0017479754
-0.004192383
-0.0065891719
-0.0089698253
-0.0033870133
0.0040269623
0.0096261886
0.005817993
0.0031580258
0.00057846653
-0.0019357709
-0.004388152
-0.0067837439
-0.0091293018
-0.0034301669
0.0039919499
0.009492157
0.005645185
0.0029748782
0.00039659373
-0.0021138282
-0.0045600964
-0.0069394428
-0.0092452688
-0.0034596172
0.0039414217
0.0093132807
0.0054383607
0.002775195
0.00021261371
-0.0022837763
-0.0047175658
-0.0070789409
-0.0093491113
-0.0034862191
0.003843843
0.0090158096
0.0051629189
0.0025510302
2.8880328e-05
-0.002443242
-0.0048650542
-0.0072188043
-0.0094685555
-0.0035205597
0.003606088
0.0084289045
0.0047903678
0.0023140057
-0.00013765726
-0.0025789732
-0.0049969273
-0.0073701919
-0.0096503046
-0.0035860896
0.0029081636
0.0071116442
0.0044007039
0.002129985
-0.00024656312
-0.0026630515
-0.005088341
-0.0075199976
-0.010006484
-0.0037580128
0.005469806
0.012913405
0.007686687
0.0043641068
0.0012671351
-0.0016536994
-0.0043656096
-0.006751987
-0.0084739478
-0.0030352342
0.0049264664
0.011896542
0.0073931982
0.0042104922
0.0011425061
-0.0018070899
-0.0046320035
-0.0073564215
-0.010163341
-0.0038756424
0.0047918974
0.011542034
0.0071290099
0.0040050826
0.0009514133
-0.0020275644
-0.0049361761
-0.0078130658
-0.010761518
-0.0040906072
0.0047308072
0.011338865
0.0069093784
0.0037924082
0.00073789886
-0.0022605093
-0.0052089407
-0.0081320135
-0.011074084
-0.0041855244
0.0046894877
0.01118301
0.0067109259
0.0035806286
0.00052097615
-0.0024850048
-0.005443251
-0.0083650205
-0.011265011
-0.0042371608
0.0046477212
0.011023143
0.0065047711
0.0033619711
0.00030355564
-0.0026982386
-0.00564957
-0.0085521922
-0.011404607
-0.0042726345
0.0045872274
0.010809145
0.0062575065
0.0031231882
8.3246867e-05
-0.0029022981
-0.0058394178
-0.0087212455
-0.011531141
-0.0043051689
0.0044701252
0.010452576
0.005927834
0.0028548962
-0.0001370737
-0.0030944054
-0.0060185264
-0.0088929994
-0.011679624
-0.0043481802
0.004184271
0.0097480657
0.0054819145
0.0025712335
-0.00033693186
-0.0032585231
-0.0061802251
-0.0090821245
-0.011910634
-0.0044320809
0.0033438629
0.0081650064
0.0050170916
0.002351403
-0.00046759712
-0.0033605353
-0.0062935436
-0.0092724925
-0.01237066
-0.0046548642
0.0061745031
0.014534432
0.0085814678
0.0048040099
0.0012669383
-0.0020871581
-0.0052214459
-0.0080033993
-0.010043341
-0.0036016737
0.0055522619
0.013371404
0.0082474941
0.0046288721
0.0011242275
-0.0022634347
-0.0055282806
-0.0087006586
-0.011994498
-0.0045725651
0.0053991517
0.012968156
0.0079467644
0.0043943575
0.00090534603
-0.0025166104
-0.0058780778
-0.0092260016
-0.012681447
-0.0048190591
0.0053296128
0.012736701
0.0076961124
0.0041510917
0.00066057761
-0.0027841189
-0.0061916335
-0.0095927162
-0.013040489
-0.0049279806
0.0052823932
0.012558504
0.007468984
0.0039083824
0.00041160783
-0.0030421348
-0.0064612036
-0.0098609048
-0.013260185
-0.0049873694
0.0052344723
0.012375109
0.0072324626
0.0036573535
0.00016170968
-0.0032876039
-0.0066991205
-0.010077078
-0.013421583
-0.0050284022
0.0051648755
0.012129052
0.0069482998
0.003382858
-9.1877209e-05
-0.0035230585
-0.0069189434
-0.010273652
-0.013569341
-0.0050664989
0.0050299158
0.011718477
0.0065691096
0.0030742276
-0.00034577732
-0.0037453437
-0.0071275661
-0.010475448
-0.013745355
-0.0051177521
0.004700036
0.010906449
0.0060562422
0.0027479547
-0.00057623856
-0.0039358053
-0.0073173135
-0.01070043
-0.014023372
-0.0052191981
0.0037291446
0.0090803713
0.005523119
0.0024954892
-0.00072687105
-0.0040544995
-0.0074513384
-0.010929479
-0.014582545
-0.0054905339
0.0068043138
0.015967458
0.009345197
0.0051539524
0.0012186962
-0.0025264531
-0.0060411524
-0.0091777794
-0.011499511
-0.0041249851
0.0061090803
0.01466955
0.0089743452
0.0049593231
0.0010596233
-0.0027234565
-0.0063846419
-0.0099592203
-0.013688188
-0.0052142916
0.0059390416
0.014221942
0.0086405316
0.0046984996
0.00081561867
-0.0030062229
-0.0067757408
-0.010546717
-0.014455213
-0.0054891614
0.0058618458
0.013964885
0.0083618441
0.0044275911
0.00054258628
-0.0033050204
-0.0071262394
-0.010956668
-0.014856244
-0.0056107145
0.0058092886
0.013766489
0.0081087997
0.004156913
0.0002646
-0.0035934319
-0.0074278143
-0.011256793
-0.015102032
-0.005677127
0.0057557972
0.013561807
0.0078448071
0.0038765725
-1.4760449e-05
-0.0038682155
-0.0076945367
-0.011499453
-0.015283358
-0.005723242
0.005677953
0.013286719
0.0075272358
0.003569704
-0.00029859507
-0.0041323244
-0.0079418525
-0.01172139
-0.015450751
-0.0057664944
0.0055268042
0.012827219
0.0071032096
0.0032244989
-0.00058305775
-0.0043822537
-0.0081777315
-0.011951148
-0.015652535
-0.005825483
0.0051569924
0.011917781
0.0065297886
0.0028596282
-0.00084138033
-0.0045969213
-0.0083935475
-0.012209766
-0.015974864
-0.0059434908
0.0040676859
0.0098715165
0.0059351543
0.0025776797
-0.0010101716
-0.0047309724
-0.0085469089
-0.012475261
-0.016627713
-0.0062607158
0.00736113
0.017221046
0.0099898074
0.0054262018
0.00113426
-0.0029601728
-0.0068136945
-0.010264902
-0.012834332
-0.0046029574
0.006599137
0.015800058
0.0095857044
0.0052140829
0.0009605168
-0.0031757627
-0.0071900618
-0.011121877
-0.015236246
-0.0057985878
0.0064138048
0.015312483
0.0092222134
0.0049296852
0.00069400297
-0.0034850464
-0.0076181668
-0.011765013
-0.016074721
-0.0060987159
0.0063297349
0.015032464
0.0089184063
0.0046340134
0.00039563981
-0.0038118994
-0.0080017877
-0.012213691
-0.016513285
-0.0062315402
0.0062723921
0.014815967
0.0086421439
0.0043382669
9.1620648e-05
-0.0041276102
-0.008332125
-0.012542512
-0.016782491
-0.0063042493
0.0062139061
0.014592207
0.0083535293
0.0040316311
-0.00021421473
-0.004428793
-0.0086248426
-0.012809112
-0.01698184
-0.0063549611
0.0061286655
0.014291093
0.0080060073
0.0036957031
-0.00052527299
-0.0047187912
-0.0088971108
-0.01305417
-0.017167196
-0.0064029393
0.0059629946
0.013787734
0.0075418034
0.0033176729
-0.00083726958
-0.0049937788
-0.0091578851
-0.013309657
-0.017392827
-0.0064691055
0.0055573491
0.012790983
0.006914193
0.0029182039
-0.0011206933
-0.0052304492
-0.009397656
-0.013599467
-0.017756465
-0.0066025785
0.0043617187
0.010547345
0.0062647645
0.0026099037
-0.0013058246
-0.0053784841
-0.0095688726
-0.013898926
-0.018496909
-0.0069627349
0.0078463187
0.018301418
0.010524164
0.0056302001
0.0010229913
-0.0033793466
-0.0075307515
-0.011257555
-0.014042453
-0.0050341917
0.0070240724
0.016769605
0.010090478
0.0054025874
0.00083625672
-0.0036113957
-0.0079362338
-0.012181437
-0.016633361
-0.0063240735
0.0068251096
0.016246503
0.0097007082
0.0050973257
0.00054982082
-0.0039441487
-0.008397076
-0.012873737
-0.017534749
-0.0066463828
0.0067349485
0.015946149
0.0093746701
0.0047797361
0.00022902852
-0.0042958498
-0.0088100221
-0.013356663
-0.018006425
-0.0067891318
0.0066733678
0.015713629
0.009077857
0.004461789
-9.8066873e-05
-0.0046357817
-0.0091658886
-0.013710943
-0.01829638
-0.0068674135
0.0066104588
0.015472978
0.0087674419
0.0041318484
-0.00042740599
-0.0049604501
-0.0094817786
-0.013998914
-0.01851183
-0.0069222315
0.0065186684
0.015148827
0.008393403
0.0037701561
-0.00076266717
-0.0052735548
-0.0097764175
-0.014264793
-0.01871342
-0.0069744895
0.0063401373
0.014606654
0.0078936535
0.0033630358
-0.0010991625
-0.0055709789
-0.010059655
-0.014543671
-0.01896086
-0.0070472383
0.0059027469
0.013532645
0.0072181769
0.0029329502
-0.0014049178
-0.0058274048
-0.010321174
-0.014862069
-0.019362571
-0.0071949912
0.0046128651
0.011114358
0.0065205894
0.0026014042
-0.0016045672
-0.0059880189
-0.010508685
-0.015192821
-0.020184026
-0.0075948751
0.0082611018
0.019213739
0.010955287
0.0057733815
0.00089223652
-0.0037770615
-0.0081861608
-0.012150705
-0.015120416
-0.0054178363
0.0073853274
0.017583716
0.010495722
0.0055322693
0.00069418066
-0.0040234562
-0.0086170186
-0.013132919
-0.017876203
-0.0067899585
0.0071744193
0.017029564
0.010083072
0.0052088409
0.00039039103
-0.0043766536
-0.0091063618
-0.013867963
-0.01883207
-0.0071314181
0.0070789511
0.016711501
0.0097376776
0.0048721587
5.0048718e-05
-0.0047500186
-0.0095448626
-0.014380692
-0.019332484
-0.007282762
0.0070136779
0.016465023
0.0094229613
0.0045348566
-0.00029718655
-0.0051111096
-0.0099230386
-0.014757208
-0.019640536
-0.0073658968
0.0069469138
0.016209655
0.0090935457
0.0041845811
-0.00064707233
-0.0054563548
-0.010259274
-0.015063971
-0.019870152
-0.0074243281
0.0068494148
0.015865431
0.0086963989
0.0038004006
-0.0010035227
-0.0057897741
-0.010573676
-0.015348332
-0.02008621
-0.0074804086
0.0066596753
0.015289454
0.0081657016
0.0033679043
-0.0013614834
-0.0061069918
-0.010876895
-0.015648186
-0.020353331
-0.0075591168
0.0061946059
0.014148173
0.0074486256
0.0029111562
-0.0016868018
-0.0063808981
-0.011157891
-0.015992444
-0.020789693
-0.0077198924
0.0048224837
0.0115778
0.0067094204
0.0025594382
-0.001899151
-0.0065526658
-0.011360074
-0.016351669
-0.021685161
-0.0081560949
0.0086067284
0.019962737
0.011289059
0.0058617647
0.00074778537
-0.0041480524
-0.0087754621
-0.012940981
-0.016066193
-0.0057534579
0.0076843147
0.018247385
0.01080734
0.0056091431
0.00054006778
-0.0044066965
-0.0092279899
-0.013973028
-0.018962958
-0.007195914
0.0074631606
0.017666681
0.010375203
0.0052702314
0.00022147315
-0.0047773408
-0.0097416404
-0.014744472
-0.019964995
-0.0075535459
0.007363169
0.01733353
0.010013313
0.0049172623
-0.00013556302
-0.0051692128
-0.01020196
-0.015282604
-0.02048983
-0.0077121741
0.0072947462
0.017075148
0.0096833222
0.0045634288
-0.00050002362
-0.0055484217
-0.010599247
-0.015678156
-0.020813347
-0.00779945
0.0072246906
0.016807217
0.0093376826
0.0041957656
-0.00086751721
-0.0059113466
-0.010953005
-0.016001133
-0.021055196
-0.0078610016
0.0071223168
0.01644586
0.0089208059
0.0037923479
-0.0012421574
-0.00626229
-0.01128455
-0.016301613
-0.021283929
-0.0079204395
0.0069230054
0.015841039
0.0083637123
0.0033381591
-0.001618562
-0.0065966495
-0.011605238
-0.016619975
-0.02156854
-0.0080044621
0.0064342855
0.014642369
0.0076112299
0.0028586637
-0.0019606865
-0.0068857471
-0.011903392
-0.016987274
-0.022035987
-0.0081769458
0.0049918294
0.011942237
0.0068368398
0.0024898075
-0.0021839277
-0.0070672314
-0.012118582
-0.017372033
-0.022998129
-0.0086458904
0.0088845579
0.020553043
0.011530658
0.0059003716
0.00059424621
-0.0044883504
-0.009295544
-0.013626328
-0.016878913
-0.0060409685
0.0079225049
0.018765419
0.011030511
0.0056382191
0.00037851163
-0.0047571713
-0.0097660825
-0.01469982
-0.01989305
-0.0075419995
0.0076928085
0.01816266
0.010582263
0.0052864869
4.7635439e-05
-0.0051422998
-0.010299901
-0.015501408
-0.020933099
-0.0079128852
0.007589074
0.017817025
0.010206718
0.0049200115
-0.00032326716
-0.0055495565
-0.010778349
-0.016060606
-0.021478104
-0.0080775106
0.0075180402
0.017548775
0.0098640558
0.004552443
-0.00070206665
-0.005943871
-0.011191579
-0.016472027
-0.021814487
-0.0081682245
0.0074452509
0.017270414
0.0095049389
0.0041703094
-0.001084255
-0.0063215993
-0.011560054
-0.016808652
-0.022066643
-0.0082324056
0.0073388263
0.016894826
0.0090716705
0.0037508718
-0.0014741094
-0.0066872883
-0.011906122
-0.017122878
-0.022306245
-0.0082947315
0.0071315586
0.016266057
0.0084926721
0.0032786319
-0.0018659593
-0.0070361422
-0.012241751
-0.017457244
-0.022606108
-0.0083834074
0.0066231653
0.015019746
0.0077108838
0.0027802533
-0.0022221551
-0.0073381397
-0.012554714
-0.017844695
-0.023100958
-0.0085662396
0.0051221343
0.012211871
0.0069076172
0.0023972443
-0.0024544978
-0.0075279001
-0.012781217
-0.018251957
-0.024122172
-0.0090642163
0.0090961012
0.020989378
0.011684826
0.0058935184
0.00043533379
-0.0047950047
-0.0097443767
-0.014205763
-0.017558673
-0.0062805781
0.0081014704
0.019142621
0.01116996
0.0056237942
0.00021320638
-0.0050719603
-0.010229325
-0.015312448
-0.020666961
-0.0078286146
0.0078649305
0.018522279
0.010708945
0.0052618741
-0.00012746117
-0.0054686546
-0.010779242
-0.016138041
-0.021737034
-0.008209903
0.0077582265
0.018166741
0.010322551
0.004884639
-0.00050944011
-0.005888218
-0.011272184
-0.016714039
-0.022298041
-0.0083792648
0.0076851143
0.017890635
0.0099697896
0.0045060962
-0.00089972892
-0.0062946644
-0.01169823
-0.017138206
-0.022644729
-0.0084727256
0.0076101416
0.017603946
0.0095999045
0.0041123712
-0.0012937344
-0.0066843508
-0.012078642
-0.017485935
-0.022905283
-0.0085390496
0.0075004772
0.017216985
0.0091535319
0.0036800863
-0.0016958617
-0.0070620307
-0.012436627
-0.017811538
-0.023153945
-0.0086037922
0.0072868426
0.016569081
0.0085570459
0.0031933828
-0.0021001927
-0.0074227477
-0.012784668
-0.018159385
-0.023466791
-0.0086964494
0.0067626876
0.015284708
0.0077519405
0.0026799215
-0.0024677576
-0.0077353632
-0.013110077
-0.018564055
-0.023985282
-0.008888237
0.0052146512
0.01239072
0.0069259652
0.0022856877
-0.0027074348
-0.0079319631
-0.013346176
-0.018990722
-0.025057761
-0.0094114351
0.0092430406
0.021276654
0.011756041
0.0058450199
0.00027408288
-0.0050658707
-0.01012081
-0.014679201
-0.018106413
-0.0064727608
0.0082229081
0.019383907
0.011230127
0.0055696549
4.7160037e-05
-0.0053489567
-0.010616639
-0.015810993
-0.021286094
-0.0080564636
0.0079812092
0.018750407
0.010759642
0.0052001389
-0.00030085094
-0.0057543524
-0.011178664
-0.016654582
-0.022378398
-0.0084453785
0.0078722988
0.018387508
0.010365166
0.004814847
-0.00069116311
-0.0061831994
-0.011682536
-0.017243203
-0.022951332
-0.0086182462
0.0077976326
0.018105526
0.010004834
0.0044280451
-0.0010901385
-0.0065988532
-0.012118325
-0.017677049
-0.023305814
-0.0087137762
0.0077210169
0.017812574
0.0096268427
0.0040255594
-0.0014931291
-0.0069976943
-0.012507934
-0.018033371
-0.023572882
-0.008781763
0.0076089085
0.017417044
0.0091705918
0.0035835444
-0.0019046335
-0.0073846453
-0.012875253
-0.018367997
-0.0238288
-0.008848452
0.0073904643
0.01675472
0.0085609462
0.003085898
-0.002318527
-0.0077546224
-0.013233189
-0.018726797
-0.024152346
-0.008944412
0.0068543802
0.015441663
0.0077383819
0.0025610778
-0.0026948019
-0.008075594
-0.013568679
-0.019145727
-0.024690661
-0.0091437394
0.0052706774
0.012482736
0.006895708
0.0021584811
-0.0029400771
-0.0082776077
-0.013812653
-0.019588658
-0.025806459
-0.0096882776
0.0093272375
0.021420039
0.011748636
0.005758332
0.00011300516
-0.0052994499
-0.010424423
-0.015047318
-0.018523812
-0.0066182275
0.0082886496
0.019494363
0.01121529
0.0054792209
-0.00011714874
-0.005586707
-0.010927686
-0.016196327
-0.021752671
-0.0082265275
0.0080434532
0.018852061
0.01073857
0.0051046497
-0.00047010659
-0.0059980041
-0.011497925
-0.017052055
-0.022859628
-0.0086203743
0.0079330855
0.018484297
0.010338722
0.0047139491
-0.00086606606
-0.006433177
-0.012009243
-0.017649222
-0.023440522
-0.0087955512
0.0078573792
0.018198379
0.0099732981
0.004321548
-0.0012709825
-0.0068551736
-0.012451767
-0.018089747
-0.023800345
-0.0088924892
0.0077796496
0.017901185
0.0095898044
0.0039130731
-0.0016801824
-0.0072604191
-0.012847879
-0.018452195
-0.024072074
-0.0089616668
0.0076658744
0.017499825
0.0091268282
0.0034643785
-0.0020982247
-0.0076539676
-0.013221989
-0.018793517
-0.024333461
-0.0090298354
0.0074441409
0.016827683
0.0085082475
0.0029592312
-0.002518819
-0.008030641
-0.013587326
-0.019160754
-0.024665421
-0.0091284178
0.0068998682
0.015495087
0.0076739328
0.0024266869
-0.0029011979
-0.0083577376
-0.013930547
-0.019590977
-0.025219716
-0.009333857
0.0052915681
0.012491867
0.0068203972
0.0020185144
-0.0031503713
-0.0085637569
-0.014180674
-0.02004701
-0.026370808
-0.0098958123
0.009350732
0.021424983
0.011666866
0.0056366519
-4.5795549e-05
-0.0054947696
-0.010655402
-0.01531145
-0.018813208
-0.0067179042
0.0083006637
0.019479285
0.011129631
0.0053556447
-0.00027765523
-0.0057842902
-0.011162748
-0.016470006
-0.022069648
-0.0083400391
0.0080536003
0.018832448
0.010649836
0.0049784975
-0.00063322391
-0.0061987627
-0.011737415
-0.017332187
-0.02318392
-0.0087362124
0.0079425072
0.018462255
0.010247262
0.0045849716
-0.0010322119
-0.0066373804
-0.01225279
-0.017933939
-0.023768922
-0.0089125391
0.0078662621
0.018174294
0.0098791627
0.0041895655
-0.0014403913
-0.0070629256
-0.012699114
-0.018378218
-0.024131698
-0.009010242
0.007787934
0.017874826
0.009492705
0.0037778042
-0.0018530915
-0.0074718886
-0.013099099
-0.01874438
-0.024406276
-0.0090801487
0.0076732484
0.017470301
0.0090260725
0.0033254026
-0.0022748994
-0.0078694179
-0.0134775
-0.019090106
-0.02467137
-0.0091493358
0.0074497034
0.016792814
0.0084026634
0.0028161053
-0.0026994007
-0.0082502746
-0.013847784
-0.019463289
-0.025009472
-0.0092498624
0.0069008778
0.015449564
0.00756214
0.002279371
-0.0030853404
-0.0085813054
-0.014196409
-0.01990185
-0.025575901
-0.0094599826
0.005278743
0.012422102
0.0067033899
0.0018683265
-0.0033367548
-0.008789946
-0.01445098
-0.02036782
-0.026754233
-0.010035417
0.0093157379
0.021297226
0.011514963
0.0054829889
-0.00020053816
-0.0056512902
-0.010814456
-0.01547351
-0.018977528
-0.0067729122
0.0082610544
0.019344192
0.010977294
0.0052018833
-0.0004326232
-0.0059412254
-0.01132264
-0.016634187
-0.022240641
-0.0083984616
0.0080137155
0.018696977
0.010497493
0.0048245678
-0.00078853578
-0.0063562309
-0.011898069
-0.017497321
-0.023355147
-0.008794452
0.0079026084
0.018326723
0.010094763
0.0044307252
-0.0011880103
-0.0067954986
-0.012414216
-0.018099824
-0.023940538
-0.0089708093
0.0078263118
0.018038556
0.009726335
0.0040348333
-0.0015968518
-0.0072218789
-0.012861492
-0.018545023
-0.024303953
-0.0090686546
0.0077478851
0.017738725
0.0093393759
0.0036224092
-0.00201042
-0.0076319459
-0.013262787
-0.018912546
-0.024579614
-0.0091388405
0.0076330216
0.017333615
0.0088720618
0.0031691853
-0.0024332991
-0.0080309072
-0.01364304
-0.019260434
-0.024846685
-0.009208593
0.0074090959
0.016655112
0.0082478
0.0026589866
-0.0028589915
-0.0084134945
-0.014015862
-0.019637107
-0.025188682
-0.009310392
0.0068592368
0.015309804
0.007406425
0.0021214838
-0.0032460211
-0.0087463188
-0.014367602
-0.020081081
-0.025763421
-0.0095237684
0.0052336874
0.012277494
0.0065479034
0.00171018
-0.0034980678
-0.0089562264
-0.014624929
-0.020553844
-0.026960966
-0.010108755
0.0092246351
0.021042801
0.011297161
0.0053002141
-0.00034970049
-0.0057688339
-0.010902736
-0.015535912
-0.019020234
-0.0067845504
0.008172055
0.019094828
0.010762409
0.0050207486
-0.00058058067
-0.0060573996
-0.011408629
-0.016691554
-0.022269863
-0.0084034687
0.0079259864
0.018451264
0.010285572
0.0046455919
-0.0009346475
-0.0064703884
-0.011981287
-0.017550347
-0.0233778
-0.008796869
0.0078155536
0.018083239
0.0098851709
0.0042538574
-0.0013321525
-0.0069076072
-0.012495036
-0.018149906
-0.023960001
-0.0089721814
0.0077396761
0.017796642
0.0095186813
0.0038599143
-0.0017391418
-0.0073321993
-0.012940512
-0.018593285
-0.024321822
-0.0090695685
0.0076616334
0.017498292
0.0091335991
0.0034493631
-0.002151032
-0.0077408402
-0.013340635
-0.018959891
-0.024596855
-0.0091395976
0.0075472989
0.017095088
0.0086684737
0.0029981034
-0.0025723749
-0.0081387616
-0.013720369
-0.019307756
-0.024864214
-0.0092094726
0.0073243715
0.016419741
0.0080471914
0.0024901388
-0.0029966304
-0.0085206978
-0.01409338
-0.019685515
-0.025207895
-0.0093118819
0.0067768708
0.015080652
0.007210122
0.001955166
-0.0033823597
-0.0088532331
-0.014445993
-0.020132018
-0.025787165
-0.0095271044
0.0051579524
0.012062174
0.006357053
0.0015461167
-0.0036334841
-0.0090630893
-0.01470442
-0.020608465
-0.026995968
-0.010117751
0.0090799584
0.020668018
0.011017722
0.0050910972
-0.00049197006
-0.0058475274
-0.010921777
-0.015501519
-0.018945261
-0.0067542788
0.0080360208
0.018737154
0.01048912
0.0048149445
-0.0007202704
-0.00613301
-0.011422377
-0.016645259
-0.022162063
-0.0083569259
0.0077927157
0.018101129
0.010018103
0.0044441848
-0.0010703866
-0.0065415328
-0.011988875
-0.017494637
-0.023256927
-0.0087454367
0.0076836195
0.017737536
0.0096224198
0.0040568903
-0.0014635603
-0.0069741087
-0.012497182
-0.018087707
-0.023832509
-0.008918675
0.0076086139
0.017454216
0.0092600491
0.0036672377
-0.0018662785
-0.0073943886
-0.012938209
-0.018526632
-0.024190591
-0.0090150278
0.0075314193
0.017159119
0.00887913
0.0032609983
-0.0022740396
-0.0077991656
-0.013334766
-0.018890122
-0.024463343
-0.0090844792
0.0074182922
0.016760211
0.0084189504
0.0028143819
-0.0026913354
-0.0081936617
-0.013711688
-0.019235846
-0.024729349
-0.0091540459
0.0071976863
0.016092022
0.0078043245
0.002311664
-0.003111623
-0.0085726443
-0.014082607
-0.019612345
-0.025072552
-0.0092564166
0.0066557983
0.014767093
0.0069765028
0.0017823866
-0.0034937508
-0.0089028754
-0.01443391
-0.020058555
-0.025652637
-0.0094720977
0.0050531512
0.011780356
0.0061338791
0.001378
-0.0037424571
-0.0091114025
-0.014691816
-0.020535633
-0.026864866
-0.010064569
0.0088843866
0.020179451
0.010680939
0.0048583331
-0.00062620485
-0.0058877535
-0.010873449
-0.015373583
-0.018756973
-0.0066837031
0.0078554199
0.01827734
0.01016159
0.0045870942
-0.00085061016
-0.0061685152
-0.011365887
-0.016498866
-0.021922478
-0.0082608717
0.0076163129
0.017652581
0.009699127
0.0042228728
-0.0011947625
-0.0065702313
-0.011922986
-0.017333988
-0.022998074
-0.0086423074
0.0075091875
0.017295528
0.0093104478
0.0038422495
-0.0015813453
-0.0069956835
-0.012422944
-0.017917185
-0.023563767
-0.0088124914
0.0074354869
0.017017121
0.0089542823
0.0034591288
-0.0019774767
-0.0074092346
-0.012856987
-0.018349137
-0.02391606
-0.0089072594
0.0073595839
0.016726971
0.0085797127
0.0030595353
-0.0023787611
-0.0078078102
-0.01324768
-0.0187074
-0.024184945
-0.0089757289
0.0072483125
0.016334643
0.0081271141
0.0026201256
-0.0027896035
-0.0081965902
-0.013619582
-0.019048938
-0.024448013
-0.0090445704
0.0070312917
0.015677433
0.0075226558
0.0021255346
-0.0032034973
-0.0085704053
-0.013986208
-0.019421904
-0.024788635
-0.0091462702
0.0064981238
0.014374239
0.0067087954
0.0016049757
-0.0035798186
-0.0088963911
-0.014334086
-0.019865071
-0.025365903
-0.0093610524
0.0049209552
0.011436333
0.0058813658
0.0012075476
-0.0038246748
-0.0091023576
-0.014589898
-0.020339794
-0.026573885
-0.0099515916
0.0086407298
0.019583913
0.010291146
0.004604563
-0.00075140032
-0.0058901098
-0.010759902
-0.015155702
-0.018460114
-0.0065745598
0.0076328227
0.017721746
0.0097840124
0.0043397617
-0.00097065929
-0.0061645935
-0.011241454
-0.016256299
-0.02155677
-0.0081175009
0.0073992847
0.01711181
0.0093327041
0.0039841161
-0.0013069325
-0.0065572772
-0.011786079
-0.017072569
-0.022607231
-0.0084897939
0.0072947337
0.016763304
0.0089532051
0.0036122877
-0.0016847739
-0.0069732453
-0.012274921
-0.01764268
-0.023159937
-0.008655995
0.0072227505
0.016491363
0.0086052301
0.0032378323
-0.0020721134
-0.0073777659
-0.012699566
-0.018065261
-0.023504491
-0.008748655
0.0071485611
0.016207772
0.0082390905
0.0028471068
-0.002464684
-0.0077679108
-0.013082204
-0.018416281
-0.023767992
-0.0088157564
0.0070397614
0.015824196
0.0077965783
0.0024173436
-0.002866779
-0.0081487866
-0.013446971
-0.018751672
-0.024026597
-0.0088834715
0.0068275261
0.015181595
0.0072056233
0.0019336192
-0.0032719662
-0.0085153157
-0.013807189
-0.019118911
-0.024362602
-0.0089838876
0.0063060304
0.013907329
0.0064101971
0.0014246514
-0.0036403794
-0.0088351969
-0.014149602
-0.019556372
-0.024933525
-0.0091964503
0.0047630893
0.011034478
0.005602456