/*--------------------------------*- C++ -*----------------------------------*\
| =========                 |                                                 |
| \\      /  F ield         | OpenFOAM: The Open Source CFD Toolbox           |
|  \\    /   O peration     | Version:  v2106                                 |
|   \\  /    A nd           | Website:  www.openfoam.com                      |
|    \\/     M anipulation  |                                                 |
\*---------------------------------------------------------------------------*/
FoamFile
{
    version     2.0;
    format      ascii;
    arch        "LSB;label=32;scalar=64";
    class       volScalarField;
    location    "25";
    object      calFieldValue;
}
// * * * * * * * * * * * * * * * * * * * * * * * * * * * * * * * * * * * * * //

dimensions      [0 0 0 1 0 0 0];

internalField   nonuniform List<scalar> 
4000
(
272.93874
272.93874
272.93874
272.93874
272.93874
272.93874
272.93874
272.93874
272.93874
272.93874
272.93874
272.93874
272.93874
272.93874
272.93874
272.93874
272.93874
272.93874
272.93874
272.93874
272.93874
272.93874
272.93874
272.93874
272.93874
272.93874
272.93874
272.93874
272.93874
272.93874
272.93874
272.93874
272.93874
272.93873
272.93874
272.93874
272.93874
272.93874
272.93874
272.93874
272.93874
272.93874
272.93874
272.93874
272.93874
272.93874
272.93874
272.93874
272.93874
272.93874
272.93874
272.93874
272.93874
272.93874
272.93874
272.93874
272.93874
272.93874
272.93874
272.93874
272.93874
272.93874
272.93874
272.93874
272.93874
272.93874
272.93874
272.93874
272.93874
272.93874
272.93874
272.93874
272.93874
272.93874
272.93874
272.93874
272.93874
272.93874
272.93874
272.93874
272.93874
272.93874
272.93874
272.93874
272.93874
272.93874
272.93874
272.93874
272.93874
272.93874
272.93874
272.93874
272.93874
272.93874
272.93874
272.93874
272.93874
272.93874
272.93874
272.93874
280.03079
280.03079
280.03079
280.03079
280.03079
280.03076
280.03076
280.03079
280.0308
280.0308
280.03079
280.03079
280.03079
280.03079
280.03079
280.03076
280.03076
280.03077
280.03079
280.03079
280.03079
280.03079
280.03079
280.03078
280.03076
280.03076
280.03076
280.03076
280.03079
280.03079
280.03079
280.03079
280.03078
280.03075
280.03075
280.03076
280.03076
280.03076
280.03079
280.03079
280.03079
280.03079
280.03076
280.03075
280.03076
280.03076
280.03076
280.03076
280.03076
280.03079
280.03076
280.03076
280.03076
280.03076
280.03076
280.03076
280.03076
280.03076
280.03079
280.03079
280.03076
280.03076
280.03076
280.03076
280.03076
280.03076
280.03076
280.03079
280.03079
280.03079
280.03079
280.03077
280.03076
280.03076
280.03076
280.03076
280.03079
280.03079
280.03079
280.03082
280.0308
280.03079
280.03079
280.03079
280.03076
280.03079
280.03079
280.03079
280.03082
280.03082
280.0308
280.03079
280.03079
280.03079
280.03079
280.03079
280.03079
280.03082
280.03082
280.03082
287.12632
287.12632
287.12632
287.12631
287.12628
287.12629
287.12629
287.12629
287.1263
287.1263
287.12632
287.12632
287.12631
287.12631
287.12628
287.12629
287.12629
287.12629
287.12629
287.12632
287.12632
287.12631
287.12631
287.12628
287.12628
287.12626
287.12629
287.12629
287.12629
287.12629
287.12631
287.12631
287.12628
287.12627
287.12625
287.12625
287.12625
287.12628
287.12629
287.12629
287.12628
287.12628
287.12628
287.12625
287.12625
287.12625
287.12625
287.12628
287.12628
287.12629
287.12629
287.12629
287.12626
287.12625
287.12625
287.12625
287.12625
287.12628
287.12628
287.12631
287.12629
287.12629
287.12629
287.12625
287.12625
287.12625
287.12628
287.12628
287.12631
287.12631
287.12629
287.12629
287.12629
287.12628
287.12628
287.12628
287.12628
287.12631
287.12634
287.12634
287.1263
287.12629
287.12629
287.12629
287.12628
287.12628
287.12631
287.12634
287.12634
287.12634
287.1263
287.12632
287.12629
287.12629
287.12629
287.12631
287.12631
287.12634
287.12634
287.12637
294.2276
294.2276
294.22757
294.22757
294.22754
294.22754
294.22755
294.22755
294.22758
294.22758
294.2276
294.2276
294.22757
294.22756
294.22754
294.22754
294.22755
294.22755
294.22758
294.22758
294.22757
294.22757
294.22756
294.22753
294.22751
294.22751
294.22752
294.22755
294.22755
294.22758
294.22757
294.22756
294.22753
294.22753
294.2275
294.2275
294.22751
294.22754
294.22754
294.22757
294.22754
294.22754
294.22751
294.2275
294.22747
294.22748
294.22751
294.22754
294.22754
294.22757
294.22754
294.22754
294.22751
294.2275
294.22748
294.22748
294.22751
294.22754
294.22757
294.22757
294.22755
294.22755
294.22752
294.22751
294.22751
294.22751
294.22753
294.22756
294.22759
294.2276
294.22755
294.22755
294.22755
294.22754
294.22754
294.22754
294.22756
294.22759
294.22763
294.22763
294.22758
294.22758
294.22755
294.22754
294.22754
294.22757
294.22759
294.22763
294.22763
294.22766
294.22758
294.22758
294.22758
294.22757
294.22757
294.22757
294.2276
294.22763
294.22766
294.22766
301.33683
301.33683
301.3368
301.33679
301.33676
301.33677
301.33677
301.33678
301.33681
301.33681
301.33683
301.3368
301.33679
301.33676
301.33673
301.33674
301.33674
301.33678
301.33681
301.33681
301.3368
301.33679
301.33676
301.33675
301.33673
301.33673
301.33674
301.33677
301.33678
301.33681
301.33679
301.33676
301.33675
301.33672
301.3367
301.3367
301.33673
301.33676
301.33677
301.3368
301.33676
301.33673
301.33673
301.3367
301.33669
301.3367
301.33673
301.33676
301.33679
301.33679
301.33677
301.33674
301.33673
301.3367
301.3367
301.3367
301.33673
301.33676
301.33679
301.33682
301.33677
301.33674
301.33674
301.33673
301.33673
301.33673
301.33676
301.33679
301.33682
301.33685
301.33678
301.33678
301.33677
301.33676
301.33676
301.33676
301.33679
301.33685
301.33685
301.33688
301.33681
301.33681
301.33678
301.33677
301.33679
301.33679
301.33682
301.33685
301.33688
301.33691
301.33681
301.33681
301.33681
301.3368
301.33679
301.33682
301.33685
301.33688
301.33691
301.33691
308.45613
308.45613
308.4561
308.45609
308.45606
308.45607
308.45607
308.45611
308.45611
308.45612
308.45613
308.45613
308.45609
308.45606
308.45603
308.45604
308.45607
308.45608
308.45611
308.45614
308.4561
308.45609
308.45606
308.45605
308.45603
308.45603
308.45604
308.45607
308.45611
308.45611
308.45609
308.45606
308.45605
308.45602
308.45599
308.456
308.45603
308.45606
308.4561
308.45613
308.45606
308.45603
308.45603
308.45599
308.45596
308.45599
308.45602
308.45606
308.45609
308.45612
308.45607
308.45604
308.45603
308.456
308.45599
308.45599
308.45605
308.45608
308.45612
308.45614
308.45607
308.45607
308.45604
308.45603
308.45602
308.45605
308.45608
308.45611
308.45617
308.45617
308.45611
308.45608
308.45607
308.45606
308.45606
308.45608
308.45611
308.45617
308.4562
308.45623
308.45611
308.45611
308.45611
308.4561
308.45609
308.45612
308.45617
308.4562
308.45624
308.45627
308.45612
308.45614
308.45611
308.45613
308.45612
308.45614
308.45617
308.45623
308.45627
308.45627
315.58755
315.58755
315.58752
315.5875
315.58748
315.58746
315.58749
315.58753
315.58753
315.58756
315.58755
315.58752
315.58751
315.58747
315.58745
315.58745
315.58746
315.5875
315.58753
315.58756
315.58752
315.58751
315.58748
315.58744
315.58741
315.58742
315.58745
315.58749
315.58752
315.58755
315.5875
315.58747
315.58744
315.5874
315.5874
315.58741
315.58744
315.58748
315.58751
315.58754
315.58748
315.58745
315.58741
315.5874
315.58738
315.58738
315.58743
315.58747
315.58753
315.58756
315.58746
315.58745
315.58742
315.58741
315.58738
315.5874
315.58746
315.58752
315.58755
315.58758
315.58749
315.58746
315.58745
315.58744
315.58743
315.58746
315.58751
315.58755
315.58761
315.58764
315.58753
315.5875
315.58749
315.58748
315.58747
315.58752
315.58755
315.58761
315.58764
315.58768
315.58753
315.58753
315.58752
315.58751
315.58753
315.58755
315.58761
315.58764
315.58771
315.58771
315.58756
315.58756
315.58755
315.58754
315.58756
315.58758
315.58764
315.58768
315.58771
315.58774
322.73296
322.73295
322.73292
322.73288
322.73285
322.73286
322.73289
322.73293
322.73296
322.73297
322.73295
322.73293
322.73292
322.73288
322.73285
322.73286
322.73286
322.73293
322.73296
322.73299
322.73292
322.73292
322.73288
322.73284
322.73282
322.73282
322.73286
322.73289
322.73296
322.73296
322.73288
322.73288
322.73284
322.73281
322.73278
322.73281
322.73284
322.73291
322.73294
322.73297
322.73285
322.73285
322.73282
322.73278
322.73278
322.73278
322.73283
322.7329
322.73296
322.73299
322.73286
322.73286
322.73282
322.73281
322.73278
322.7328
322.73286
322.73292
322.73298
322.73301
322.73289
322.73286
322.73286
322.73284
322.73283
322.73286
322.73291
322.733
322.73304
322.73307
322.73293
322.73293
322.73289
322.73291
322.7329
322.73292
322.733
322.73306
322.7331
322.73313
322.73296
322.73296
322.73296
322.73294
322.73296
322.73298
322.73304
322.7331
322.73314
322.73316
322.73297
322.73299
322.73296
322.73297
322.73299
322.73301
322.73307
322.73313
322.73316
322.73319
329.8941
329.89407
329.89403
329.89402
329.89399
329.89399
329.89403
329.89407
329.8941
329.89413
329.89407
329.89407
329.89403
329.89399
329.89396
329.89396
329.894
329.89406
329.8941
329.89413
329.89403
329.89403
329.89399
329.89395
329.89392
329.89395
329.89399
329.89406
329.89409
329.89412
329.89402
329.89399
329.89395
329.89391
329.89391
329.89391
329.89397
329.89404
329.89408
329.89411
329.89399
329.89396
329.89392
329.89391
329.89388
329.89391
329.89396
329.89403
329.89409
329.89412
329.89399
329.89396
329.89395
329.89391
329.89391
329.89393
329.89401
329.89408
329.89414
329.89417
329.89403
329.894
329.89399
329.89397
329.89396
329.89401
329.89407
329.89416
329.89419
329.89425
329.89407
329.89406
329.89406
329.89404
329.89403
329.89408
329.89416
329.89422
329.89429
329.89429
329.8941
329.8941
329.89409
329.89408
329.89409
329.89414
329.89419
329.89429
329.89432
329.89435
329.89413
329.89413
329.89412
329.89411
329.89412
329.89417
329.89425
329.89429
329.89435
329.89435
337.07248
337.07248
337.07244
337.07243
337.0724
337.0724
337.07244
337.07247
337.07254
337.07254
337.07248
337.07248
337.07244
337.07239
337.07236
337.07237
337.07243
337.07247
337.07253
337.07256
337.07244
337.07244
337.0724
337.07236
337.07233
337.07236
337.07239
337.07246
337.07252
337.07255
337.07243
337.07239
337.07236
337.07232
337.07229
337.07232
337.07238
337.07244
337.07251
337.07254
337.0724
337.07236
337.07233
337.07229
337.07228
337.07231
337.07239
337.07246
337.07252
337.07255
337.0724
337.07237
337.07236
337.07232
337.07231
337.07236
337.07241
337.0725
337.07257
337.07262
337.07244
337.07243
337.07239
337.07238
337.07239
337.07241
337.07249
337.07258
337.07265
337.07268
337.07247
337.07247
337.07246
337.07244
337.07246
337.0725
337.07258
337.07268
337.07272
337.07275
337.07254
337.07253
337.07252
337.07251
337.07252
337.07257
337.07265
337.07272
337.07278
337.07281
337.07254
337.07256
337.07255
337.07254
337.07255
337.07262
337.07268
337.07275
337.07281
337.07281
344.26954
344.26954
344.2695
344.26946
344.26945
344.26946
344.26949
344.26956
344.2696
344.26963
344.26954
344.26951
344.26947
344.26945
344.26942
344.26943
344.26949
344.26953
344.26959
344.26962
344.2695
344.26947
344.26943
344.26941
344.26938
344.26939
344.26945
344.26952
344.26958
344.26961
344.26946
344.26945
344.26941
344.26937
344.26934
344.26937
344.26946
344.26952
344.26959
344.26962
344.26945
344.26942
344.26938
344.26934
344.26933
344.26936
344.26944
344.26954
344.2696
344.26963
344.26946
344.26943
344.26939
344.26937
344.26936
344.26941
344.26949
344.26958
344.26965
344.2697
344.26949
344.26949
344.26945
344.26946
344.26944
344.26949
344.26957
344.26966
344.26975
344.26979
344.26956
344.26953
344.26952
344.26952
344.26954
344.26958
344.26966
344.26975
344.26982
344.26986
344.2696
344.26959
344.26958
344.26959
344.2696
344.26965
344.26975
344.26982
344.26989
344.26992
344.26963
344.26962
344.26961
344.26962
344.26963
344.2697
344.26979
344.26986
344.26992
344.26992
351.4864
351.48637
351.48634
351.48632
351.48629
351.48629
351.48635
351.48642
351.48645
351.48649
351.48637
351.48637
351.48633
351.48628
351.48625
351.48628
351.48635
351.48641
351.48648
351.48651
351.48634
351.48633
351.48629
351.48625
351.48621
351.48624
351.48631
351.4864
351.48647
351.48649
351.48632
351.48628
351.48625
351.4862
351.4862
351.48622
351.48631
351.48638
351.48644
351.4865
351.48629
351.48625
351.48621
351.4862
351.48619
351.48621
351.4863
351.48639
351.48648
351.48651
351.48629
351.48628
351.48624
351.48622
351.48621
351.48626
351.48637
351.48646
351.48655
351.48658
351.48635
351.48635
351.48631
351.48631
351.4863
351.48637
351.48645
351.48657
351.48663
351.48667
351.48642
351.48641
351.4864
351.48638
351.48639
351.48646
351.48657
351.48666
351.48673
351.48676
351.48645
351.48648
351.48647
351.48644
351.48648
351.48655
351.48663
351.48673
351.4868
351.48682
351.48649
351.48651
351.48649
351.4865
351.48651
351.48658
351.48667
351.48676
351.48682
351.48683
358.72398
358.72395
358.72391
358.72389
358.72386
358.72389
358.72392
358.72399
358.72405
358.72409
358.72395
358.72394
358.7239
358.72386
358.72382
358.72385
358.72392
358.72398
358.72405
358.7241
358.72391
358.7239
358.72386
358.72382
358.72378
358.72381
358.7239
358.72397
358.72403
358.72409
358.72389
358.72386
358.72382
358.72377
358.72376
358.72379
358.72388
358.72397
358.72407
358.7241
358.72386
358.72382
358.72378
358.72376
358.72375
358.7238
358.72389
358.72401
358.72407
358.72413
358.72389
358.72385
358.72381
358.72379
358.7238
358.72385
358.72396
358.72405
358.72414
358.7242
358.72392
358.72392
358.7239
358.72388
358.72389
358.72396
358.72406
358.72416
358.72425
358.72428
358.72399
358.72398
358.72397
358.72397
358.72401
358.72405
358.72416
358.72428
358.72435
358.72438
358.72405
358.72405
358.72403
358.72407
358.72407
358.72414
358.72425
358.72435
358.72442
358.72444
358.72409
358.7241
358.72409
358.7241
358.72413
358.7242
358.72428
358.72438
358.72444
358.72447
365.98296
365.98296
365.98292
365.9829
365.98286
365.98286
365.98293
365.98299
365.98306
365.98309
365.98296
365.98293
365.98288
365.98286
365.98283
365.98286
365.98292
365.98299
365.98308
365.98311
365.98292
365.98288
365.98284
365.98279
365.98279
365.98282
365.9829
365.98297
365.98306
365.98309
365.9829
365.98286
365.98279
365.98277
365.98277
365.98279
365.98288
365.98297
365.98307
365.9831
365.98286
365.98283
365.98279
365.98277
365.98275
365.9828
365.98288
365.98301
365.9831
365.98316
365.98286
365.98286
365.98282
365.98279
365.9828
365.98285
365.98295
365.98307
365.98317
365.98323
365.98293
365.98292
365.9829
365.98288
365.98288
365.98295
365.98306
365.98318
365.98327
365.98334
365.98299
365.98299
365.98297
365.98297
365.98301
365.98307
365.98318
365.9833
365.98337
365.98341
365.98306
365.98308
365.98306
365.98307
365.9831
365.98317
365.98327
365.98337
365.98344
365.98347
365.98309
365.98311
365.98309
365.9831
365.98316
365.98323
365.98334
365.98341
365.98347
365.9835
373.26382
373.26379
373.26378
373.26373
373.26372
373.26372
373.26379
373.26388
373.26394
373.26398
373.26379
373.26379
373.26374
373.26369
373.26369
373.26372
373.26378
373.26387
373.26394
373.26399
373.26378
373.26374
373.2637
373.26365
373.26364
373.26367
373.26376
373.26386
373.26392
373.26398
373.26373
373.26369
373.26365
373.26363
373.26362
373.26365
373.26376
373.26386
373.26395
373.26398
373.26372
373.26369
373.26364
373.26362
373.26361
373.26365
373.26376
373.26389
373.26398
373.26404
373.26372
373.26372
373.26367
373.26365
373.26365
373.26372
373.26383
373.26395
373.26404
373.2641
373.26379
373.26378
373.26376
373.26376
373.26376
373.26383
373.26396
373.26408
373.26418
373.26421
373.26388
373.26387
373.26386
373.26386
373.26389
373.26395
373.26408
373.26418
373.26428
373.26431
373.26394
373.26394
373.26392
373.26395
373.26398
373.26404
373.26418
373.26428
373.26435
373.26438
373.26398
373.26399
373.26398
373.26398
373.26404
373.2641
373.26421
373.26431
373.26438
373.26441
380.56674
380.56671
380.5667
380.56665
380.56664
380.56666
380.56673
380.56682
380.56688
380.56692
380.56671
380.56671
380.56666
380.56661
380.5666
380.56663
380.56672
380.56679
380.56688
380.56691
380.5667
380.56666
380.56662
380.56657
380.56656
380.56661
380.5667
380.5668
380.56686
380.56692
380.56665
380.56661
380.56657
380.56655
380.56653
380.56658
380.5667
380.56679
380.56689
380.56692
380.56664
380.5666
380.56656
380.56653
380.56652
380.56659
380.5667
380.56682
380.56691
380.56697
380.56666
380.56663
380.56661
380.56658
380.56659
380.56666
380.56676
380.56688
380.56701
380.56707
380.56673
380.56672
380.5667
380.5667
380.5667
380.56676
380.56689
380.56702
380.56711
380.56718
380.56682
380.56679
380.5668
380.56679
380.56682
380.56688
380.56702
380.56714
380.56724
380.56728
380.56688
380.56688
380.56686
380.56689
380.56691
380.56701
380.56711
380.56724
380.56731
380.56734
380.56692
380.56691
380.56692
380.56692
380.56697
380.56707
380.56718
380.56728
380.56734
380.56737
387.89166
387.89165
387.89161
387.89159
387.89157
387.8916
387.89166
387.89176
387.89182
387.89185
387.89165
387.89162
387.8916
387.89155
387.89154
387.89156
387.89165
387.89175
387.89184
387.89187
387.89161
387.8916
387.89156
387.89151
387.89149
387.89155
387.89163
387.89173
387.89182
387.89188
387.89159
387.89155
387.89151
387.89148
387.89147
387.89152
387.89163
387.89175
387.89185
387.89188
387.89157
387.89154
387.89149
387.89147
387.89147
387.89152
387.89166
387.89178
387.89187
387.89193
387.8916
387.89156
387.89155
387.89152
387.89152
387.89159
387.89172
387.89187
387.89196
387.89202
387.89166
387.89165
387.89163
387.89163
387.89166
387.89172
387.89185
387.892
387.89209
387.89213
387.89176
387.89175
387.89173
387.89175
387.89178
387.89187
387.892
387.89212
387.89219
387.89226
387.89182
387.89184
387.89182
387.89185
387.89187
387.89196
387.89209
387.89219
387.89229
387.89232
387.89185
387.89187
387.89188
387.89188
387.89193
387.89202
387.89213
387.89226
387.89232
387.89235
395.23833
395.23833
395.23829
395.23826
395.23825
395.23827
395.23834
395.23843
395.23852
395.23855
395.23833
395.2383
395.23828
395.23823
395.23821
395.23824
395.23833
395.23842
395.23851
395.23857
395.23829
395.23828
395.23823
395.23818
395.23817
395.23822
395.23831
395.23843
395.23852
395.23855
395.23826
395.23823
395.23818
395.23816
395.23814
395.23819
395.23833
395.23842
395.23852
395.23857
395.23825
395.23821
395.23817
395.23814
395.23814
395.23821
395.23832
395.23847
395.23857
395.23863
395.23827
395.23824
395.23822
395.23819
395.23821
395.23828
395.23841
395.23856
395.23865
395.23872
395.23834
395.23833
395.23831
395.23833
395.23832
395.23841
395.23854
395.23869
395.23879
395.23885
395.23843
395.23842
395.23843
395.23842
395.23847
395.23856
395.23869
395.23882
395.23892
395.23895
395.23852
395.23851
395.23852
395.23852
395.23857
395.23865
395.23879
395.23892
395.23899
395.23902
395.23855
395.23857
395.23855
395.23857
395.23863
395.23872
395.23885
395.23895
395.23902
395.23905
402.60624
402.60623
402.60619
402.60617
402.60615
402.60618
402.60627
402.60636
402.60642
402.60645
402.60623
402.6062
402.60616
402.60613
402.60611
402.60614
402.60625
402.60635
402.60644
402.60647
402.60619
402.60616
402.60614
402.60608
402.60607
402.60612
402.60623
402.60633
402.60642
402.60648
402.60617
402.60613
402.60608
402.60606
402.60604
402.60611
402.60622
402.60635
402.60644
402.6065
402.60615
402.60611
402.60607
402.60604
402.60604
402.60611
402.60625
402.60637
402.60649
402.60655
402.60618
402.60614
402.60612
402.60611
402.60611
402.6062
402.60633
402.60648
402.60658
402.60664
402.60627
402.60625
402.60623
402.60622
402.60625
402.60633
402.60646
402.60661
402.60671
402.60677
402.60636
402.60635
402.60633
402.60635
402.60637
402.60648
402.60661
402.60674
402.60684
402.60688
402.60642
402.60644
402.60642
402.60644
402.60649
402.60658
402.60671
402.60684
402.60691
402.60697
402.60645
402.60647
402.60648
402.6065
402.60655
402.60664
402.60677
402.60688
402.60697
402.607
409.99467
409.99466
409.99462
409.99459
409.99457
409.99463
409.99469
409.99481
409.99487
409.9949
409.99466
409.99463
409.99461
409.99455
409.99454
409.99459
409.99468
409.9948
409.99489
409.99492
409.99462
409.99461
409.99456
409.99453
409.99452
409.99457
409.99468
409.99478
409.99487
409.99492
409.99459
409.99455
409.99453
409.99448
409.99449
409.99456
409.99467
409.99479
409.99489
409.99495
409.99457
409.99454
409.99452
409.99449
409.99449
409.99456
409.99469
409.99484
409.99493
409.99499
409.99463
409.99459
409.99457
409.99456
409.99456
409.99464
409.99478
409.99492
409.99505
409.99511
409.99469
409.99468
409.99468
409.99467
409.99469
409.99478
409.99493
409.99505
409.99518
409.99524
409.99481
409.9948
409.99478
409.99479
409.99484
409.99492
409.99505
409.99521
409.99531
409.99535
409.99487
409.99489
409.99487
409.99489
409.99493
409.99505
409.99518
409.99531
409.99538
409.99541
409.9949
409.99492
409.99492
409.99495
409.99499
409.99511
409.99524
409.99535
409.99541
409.99544
417.40278
417.40278
417.40273
417.40271
417.40269
417.40274
417.40282
417.40292
417.40301
417.40304
417.40278
417.40274
417.40272
417.40267
417.40267
417.4027
417.40281
417.40291
417.403
417.40305
417.40273
417.40272
417.40267
417.40265
417.40263
417.40267
417.40279
417.40291
417.403
417.40306
417.40271
417.40267
417.40265
417.40262
417.40259
417.40267
417.4028
417.40293
417.40302
417.40308
417.40269
417.40267
417.40263
417.40259
417.40262
417.40269
417.40282
417.40294
417.40306
417.40313
417.40274
417.4027
417.40267
417.40267
417.40269
417.40277
417.4029
417.40305
417.40318
417.40324
417.40282
417.40281
417.40279
417.4028
417.40282
417.4029
417.40303
417.40318
417.40331
417.40337
417.40292
417.40291
417.40291
417.40293
417.40294
417.40305
417.40318
417.40334
417.40344
417.40347
417.40301
417.403
417.403
417.40302
417.40306
417.40318
417.40331
417.40344
417.40351
417.40354
417.40304
417.40305
417.40306
417.40308
417.40313
417.40324
417.40337
417.40347
417.40354
417.40357
424.82959
424.82959
424.82954
424.82952
424.82952
424.82954
424.82963
424.82975
424.82981
424.82984
424.82959
424.82955
424.82953
424.8295
424.82948
424.82953
424.82962
424.82974
424.82983
424.82986
424.82954
424.82953
424.82948
424.82945
424.82943
424.82951
424.82962
424.82972
424.82983
424.82986
424.82952
424.8295
424.82945
424.82942
424.82943
424.8295
424.82961
424.82973
424.82985
424.82991
424.82952
424.82948
424.82943
424.82943
424.82942
424.82952
424.82965
424.82977
424.82989
424.82995
424.82954
424.82953
424.82951
424.8295
424.82952
424.8296
424.82973
424.82988
424.83
424.83007
424.82963
424.82962
424.82962
424.82961
424.82965
424.82973
424.82989
424.83001
424.83014
424.8302
424.82975
424.82974
424.82972
424.82973
424.82977
424.82988
424.83001
424.83016
424.83026
424.8303
424.82981
424.82983
424.82983
424.82985
424.82989
424.83
424.83014
424.83026
424.83034
424.83039
424.82984
424.82986
424.82986
424.82991
424.82995
424.83007
424.8302
424.8303
424.83039
424.8304
432.27408
432.27407
432.27405
432.27402
432.274
432.27405
432.27413
432.27425
432.27432
432.27435
432.27407
432.27406
432.27401
432.27398
432.27399
432.27404
432.27412
432.27424
432.27433
432.27436
432.27405
432.27401
432.27399
432.27396
432.27394
432.27401
432.27412
432.27424
432.27433
432.27439
432.27402
432.27398
432.27396
432.27393
432.27393
432.274
432.27411
432.27426
432.27435
432.27441
432.274
432.27399
432.27394
432.27393
432.27393
432.27402
432.27415
432.2743
432.27439
432.27445
432.27405
432.27404
432.27401
432.274
432.27402
432.2741
432.27423
432.27438
432.2745
432.27456
432.27413
432.27412
432.27412
432.27411
432.27415
432.27423
432.27439
432.27454
432.27463
432.2747
432.27425
432.27424
432.27424
432.27426
432.2743
432.27438
432.27454
432.27466
432.27476
432.2748
432.27432
432.27433
432.27433
432.27435
432.27439
432.2745
432.27463
432.27476
432.27486
432.27489
432.27435
432.27436
432.27439
432.27441
432.27445
432.27456
432.2747
432.2748
432.27489
432.27492
439.73527
439.73526
439.73522
439.73519
439.73519
439.73524
439.73532
439.73542
439.73551
439.73554
439.73526
439.73523
439.73521
439.73518
439.73515
439.73523
439.73531
439.73543
439.73552
439.73555
439.73522
439.73521
439.73516
439.73513
439.73513
439.7352
439.73531
439.73541
439.7355
439.73555
439.73519
439.73518
439.73513
439.73512
439.73512
439.73519
439.7353
439.73545
439.73554
439.7356
439.73519
439.73515
439.73513
439.73512
439.73511
439.7352
439.73534
439.73549
439.73558
439.73564
439.73524
439.73523
439.7352
439.73519
439.7352
439.73529
439.73542
439.73556
439.73569
439.73575
439.73532
439.73531
439.73531
439.7353
439.73534
439.73542
439.73557
439.73572
439.73582
439.73589
439.73542
439.73543
439.73541
439.73545
439.73549
439.73556
439.73572
439.73585
439.73595
439.73599
439.73551
439.73552
439.7355
439.73554
439.73558
439.73569
439.73582
439.73595
439.73605
439.73608
439.73554
439.73555
439.73555
439.7356
439.73564
439.73575
439.73589
439.73599
439.73608
439.73611
447.21222
447.21221
447.21219
447.21217
447.21217
447.21221
447.2123
447.21239
447.21248
447.21251
447.21221
447.21218
447.21216
447.21213
447.21213
447.21217
447.21228
447.21238
447.21247
447.21252
447.21219
447.21216
447.21213
447.2121
447.2121
447.21217
447.21228
447.21238
447.21247
447.21252
447.21217
447.21213
447.2121
447.21207
447.21209
447.21216
447.21227
447.21242
447.21251
447.21257
447.21217
447.21213
447.2121
447.21209
447.21209
447.21217
447.21231
447.21245
447.21255
447.21261
447.21221
447.21217
447.21217
447.21216
447.21217
447.21226
447.21241
447.21253
447.21265
447.21272
447.2123
447.21228
447.21228
447.21227
447.21231
447.21241
447.21254
447.21269
447.21279
447.21286
447.21239
447.21238
447.21238
447.21242
447.21245
447.21253
447.21269
447.21282
447.21292
447.21295
447.21248
447.21247
447.21247
447.21251
447.21255
447.21265
447.21279
447.21292
447.21299
447.21304
447.21251
447.21252
447.21252
447.21257
447.21261
447.21272
447.21286
447.21295
447.21304
447.21305
454.70429
454.70428
454.70424
454.70424
454.70424
454.70428
454.70436
454.70445
454.70454
454.70457
454.70428
454.70425
454.70423
454.70419
454.70419
454.70426
454.70435
454.70447
454.70456
454.70459
454.70424
454.70423
454.7042
454.70417
454.70417
454.70424
454.70435
454.70447
454.70455
454.70458
454.70424
454.70419
454.70417
454.70416
454.70416
454.70422
454.70436
454.70448
454.70457
454.70463
454.70424
454.70419
454.70417
454.70416
454.70418
454.70426
454.7044
454.70452
454.70464
454.7047
454.70428
454.70426
454.70424
454.70422
454.70426
454.70434
454.70447
454.70462
454.70472
454.70478
454.70436
454.70435
454.70435
454.70436
454.7044
454.70447
454.70463
454.70475
454.70485
454.70492
454.70445
454.70447
454.70447
454.70448
454.70452
454.70462
454.70475
454.7049
454.70498
454.70502
454.70454
454.70456
454.70455
454.70457
454.70464
454.70472
454.70485
454.70498
454.70507
454.70511
454.70457
454.70459
454.70458
454.70463
454.7047
454.70478
454.70492
454.70502
454.70511
454.70511
462.21109
462.21108
462.21106
462.21104
462.21104
462.21108
462.21116
462.21128
462.21134
462.21139
462.21108
462.21107
462.21103
462.21102
462.21102
462.21106
462.21117
462.21126
462.21135
462.21141
462.21106
462.21103
462.211
462.211
462.211
462.21106
462.21117
462.21126
462.21135
462.21141
462.21104
462.21102
462.211
462.21096
462.21099
462.21105
462.21116
462.21128
462.21139
462.21142
462.21104
462.21102
462.211
462.21099
462.211
462.21106
462.21119
462.21134
462.21143
462.21149
462.21108
462.21106
462.21106
462.21105
462.21106
462.21114
462.2113
462.21142
462.21154
462.2116
462.21116
462.21117
462.21117
462.21116
462.21119
462.2113
462.21143
462.21158
462.21167
462.21171
462.21128
462.21126
462.21126
462.21128
462.21134
462.21142
462.21158
462.2117
462.21177
462.21181
462.21134
462.21135
462.21135
462.21139
462.21143
462.21154
462.21167
462.21177
462.21187
462.2119
462.21139
462.21141
462.21141
462.21142
462.21149
462.2116
462.21171
462.21181
462.2119
462.21191
469.7327
469.73269
469.73267
469.73267
469.73267
469.73271
469.73279
469.73288
469.73297
469.733
469.73269
469.73268
469.73266
469.73263
469.73263
469.7327
469.73278
469.7329
469.73298
469.73301
469.73267
469.73266
469.73264
469.73261
469.73263
469.73267
469.73278
469.7329
469.73298
469.73301
469.73267
469.73263
469.73261
469.7326
469.73262
469.73268
469.73279
469.73291
469.733
469.73306
469.73267
469.73263
469.73263
469.73262
469.73264
469.7327
469.73283
469.73295
469.73306
469.7331
469.73271
469.7327
469.73267
469.73268
469.7327
469.73278
469.7329
469.73305
469.73314
469.73321
469.73279
469.73278
469.73278
469.73279
469.73283
469.7329
469.73306
469.73318
469.73328
469.73335
469.73288
469.7329
469.7329
469.73291
469.73295
469.73305
469.73318
469.73331
469.7334
469.73344
469.73297
469.73298
469.73298
469.733
469.73306
469.73314
469.73328
469.7334
469.73347
469.7335
469.733
469.73301
469.73301
469.73306
469.7331
469.73321
469.73335
469.73344
469.7335
469.73351
477.26977
477.26977
477.26975
477.26972
477.26972
477.26976
477.26987
477.26996
477.27002
477.27004
477.26977
477.26973
477.26971
477.26971
477.26971
477.26975
477.26985
477.26994
477.27003
477.27006
477.26975
477.26971
477.26969
477.26968
477.26968
477.26975
477.26985
477.26994
477.27003
477.27009
477.26972
477.26971
477.26968
477.26968
477.26967
477.26976
477.26987
477.26998
477.27005
477.2701
477.26972
477.26971
477.26968
477.26967
477.26969
477.26977
477.2699
477.27002
477.27011
477.27017
477.26976
477.26975
477.26975
477.26976
477.26977
477.26985
477.26998
477.2701
477.27019
477.27026
477.26987
477.26985
477.26985
477.26987
477.2699
477.26998
477.27011
477.27023
477.27033
477.27037
477.26996
477.26994
477.26994
477.26998
477.27002
477.2701
477.27023
477.27035
477.27043
477.27046
477.27002
477.27003
477.27003
477.27005
477.27011
477.27019
477.27033
477.27043
477.27049
477.27053
477.27004
477.27006
477.27009
477.2701
477.27017
477.27026
477.27037
477.27046
477.27053
477.27056
484.8235
484.82349
484.82347
484.82348
484.82347
484.82351
484.82359
484.82368
484.82377
484.82379
484.82349
484.82348
484.82346
484.82346
484.82346
484.8235
484.82361
484.82369
484.82375
484.82381
484.82347
484.82346
484.82344
484.82344
484.82343
484.8235
484.82361
484.82369
484.82378
484.82381
484.82348
484.82346
484.82344
484.82341
484.82343
484.82349