/*--------------------------------*- C++ -*----------------------------------*\
| =========                 |                                                 |
| \\      /  F ield         | OpenFOAM: The Open Source CFD Toolbox           |
|  \\    /   O peration     | Version:  v2106                                 |
|   \\  /    A nd           | Website:  www.openfoam.com                      |
|    \\/     M anipulation  |                                                 |
\*---------------------------------------------------------------------------*/
FoamFile
{
    version     2.0;
    format      ascii;
    arch        "LSB;label=32;scalar=64";
    class       volVectorField;
    location    "25";
    object      flux;
}
// * * * * * * * * * * * * * * * * * * * * * * * * * * * * * * * * * * * * * //

dimensions      [0 1 -1 1 0 0 0];

internalField   nonuniform List<vector> 
4000
(
(-5.334404e-07 -5.3344039e-07 1.7943662)
(1.526675e-06 1.105481e-06 1.7943636)
(1.1833889e-06 1.1362941e-07 1.7943713)
(-1.9999352e-06 1.7159986e-09 1.7943671)
(-1.1114366e-06 5.1104766e-08 1.7943638)
(-1.7626339e-07 9.6863344e-08 1.7943629)
(2.825035e-07 1.4215342e-07 1.7943632)
(3.7822975e-07 1.7108297e-07 1.7943641)
(2.6792556e-07 1.1725072e-07 1.7943647)
(6.2343005e-08 -1.2808403e-08 1.7943653)
(1.105481e-06 1.526675e-06 1.7943636)
(2.4972797e-06 2.4972797e-06 1.7943688)
(-4.722586e-07 7.9212225e-07 1.7943716)
(-2.0937221e-06 6.6791969e-07 1.7943668)
(-9.6871558e-07 8.0161843e-07 1.7943638)
(-3.9690408e-08 9.3559285e-07 1.7943631)
(3.9383293e-07 1.0997181e-06 1.7943637)
(3.4087569e-07 1.2650336e-06 1.7943647)
(-7.9114979e-09 1.2283201e-06 1.794365)
(-6.7716115e-08 8.125989e-07 1.7943647)
(1.1362941e-07 1.1833889e-06 1.7943713)
(7.9212226e-07 -4.722586e-07 1.7943716)
(-6.4597118e-07 -6.4597119e-07 1.7943736)
(-1.990439e-06 -5.4762931e-07 1.7943689)
(-8.4376344e-07 -4.3903083e-07 1.7943661)
(1.2183629e-07 -3.1663698e-07 1.7943657)
(6.1194424e-07 -1.3515456e-07 1.7943667)
(5.068317e-07 1.2249374e-07 1.7943682)
(-1.8450914e-07 3.5827966e-07 1.7943686)
(-2.1480444e-07 3.4389921e-07 1.7943675)
(1.7160003e-09 -1.9999352e-06 1.7943671)
(6.6791968e-07 -2.0937221e-06 1.7943668)
(-5.4762931e-07 -1.990439e-06 1.7943689)
(-1.8867818e-06 -1.8867818e-06 1.7943644)
(-7.3772325e-07 -1.79291e-06 1.7943618)
(2.6418586e-07 -1.6881095e-06 1.7943616)
(8.3296365e-07 -1.5454373e-06 1.794363)
(8.3430992e-07 -1.3350274e-06 1.794365)
(2.1349397e-07 -1.0496119e-06 1.7943662)
(-7.7303085e-08 -7.4862715e-07 1.7943658)
(5.1104765e-08 -1.1114366e-06 1.7943638)
(8.0161842e-07 -9.6871558e-07 1.7943638)
(-4.3903085e-07 -8.4376344e-07 1.7943661)
(-1.79291e-06 -7.3772325e-07 1.7943618)
(-6.4509112e-07 -6.4509114e-07 1.7943595)
(3.6930896e-07 -5.5460873e-07 1.7943594)
(9.6502628e-07 -4.5722823e-07 1.794361)
(1.0026572e-06 -3.4543999e-07 1.7943633)
(4.0189115e-07 -2.1920444e-07 1.7943649)
(-1.4147957e-08 -1.0178902e-07 1.7943649)
(9.6863346e-08 -1.762634e-07 1.7943629)
(9.3559284e-07 -3.9690417e-08 1.7943631)
(-3.1663699e-07 1.2183629e-07 1.7943657)
(-1.6881095e-06 2.6418587e-07 1.7943616)
(-5.5460873e-07 3.6930897e-07 1.7943594)
(4.5204877e-07 4.5204876e-07 1.7943596)
(1.0421324e-06 5.2179735e-07 1.7943613)
(1.0723337e-06 5.7768494e-07 1.7943638)
(4.5714494e-07 6.1673473e-07 1.7943655)
(9.7386206e-10 6.3557667e-07 1.7943656)
(1.4215342e-07 2.825035e-07 1.7943632)
(1.0997181e-06 3.9383292e-07 1.7943637)
(-1.3515456e-07 6.1194424e-07 1.7943667)
(-1.5454373e-06 8.3296364e-07 1.794363)
(-4.5722823e-07 9.6502629e-07 1.794361)
(5.2179733e-07 1.0421324e-06 1.7943613)
(1.0906625e-06 1.0906624e-06 1.7943632)
(1.0975945e-06 1.1113416e-06 1.7943657)
(4.5978288e-07 1.1017541e-06 1.7943674)
(-1.5866609e-09 1.0707167e-06 1.7943676)
(1.7108297e-07 3.7822975e-07 1.7943641)
(1.2650336e-06 3.408757e-07 1.7943647)
(1.2249373e-07 5.068317e-07 1.7943682)
(-1.3350274e-06 8.3430991e-07 1.794365)
(-3.4543999e-07 1.0026571e-06 1.7943633)
(5.7768493e-07 1.0723337e-06 1.7943638)
(1.1113416e-06 1.0975945e-06 1.7943657)
(1.0834253e-06 1.0834253e-06 1.7943683)
(4.1652005e-07 1.026128e-06 1.7943699)
(-1.9717694e-08 9.4263238e-07 1.7943699)
(1.1725072e-07 2.6792556e-07 1.7943647)
(1.2283201e-06 -7.9115072e-09 1.794365)
(3.5827965e-07 -1.8450915e-07 1.7943686)
(-1.0496119e-06 2.1349395e-07 1.7943662)
(-2.1920443e-07 4.0189113e-07 1.7943649)
(6.1673474e-07 4.5714493e-07 1.7943655)
(1.1017541e-06 4.597829e-07 1.7943674)
(1.026128e-06 4.1652006e-07 1.7943699)
(3.1898994e-07 3.1898995e-07 1.7943714)
(-5.7250434e-08 1.9497536e-07 1.7943711)
(-1.2808414e-08 6.2343013e-08 1.7943653)
(8.1259888e-07 -6.771612e-08 1.7943647)
(3.438992e-07 -2.1480445e-07 1.7943675)
(-7.4862716e-07 -7.730309e-08 1.7943658)
(-1.0178902e-07 -1.4147965e-08 1.7943649)
(6.355767e-07 9.7385259e-10 1.7943656)
(1.0707168e-06 -1.5866578e-09 1.7943676)
(9.4263239e-07 -1.9717684e-08 1.7943699)
(1.9497535e-07 -5.7250426e-08 1.7943711)
(-1.0239408e-07 -1.0239407e-07 1.7943706)
(-1.0438486e-06 -1.0438486e-06 1.7949066)
(3.0754959e-06 1.88871e-06 1.7949053)
(1.6748593e-06 -9.2192678e-08 1.7949084)
(-5.2290031e-06 -3.1801297e-07 1.794905)
(-2.9451585e-06 -2.0269723e-07 1.7949025)
(-4.0454916e-07 -7.6835857e-08 1.7949018)
(9.1321394e-07 6.2551941e-08 1.7949024)
(1.1526936e-06 1.3861083e-07 1.7949033)
(1.0111315e-06 -1.1061634e-07 1.7949038)
(3.2909077e-07 -4.910162e-07 1.7949049)
(1.88871e-06 3.0754959e-06 1.7949053)
(4.5029797e-06 4.5029797e-06 1.7949071)
(-1.6352251e-06 9.9523251e-07 1.794908)
(-5.39476e-06 7.2378352e-07 1.7949043)
(-2.5833929e-06 1.0476189e-06 1.794902)
(-6.6754023e-09 1.4288789e-06 1.7949016)
(1.236384e-06 1.9304034e-06 1.7949024)
(8.9294115e-07 2.4126806e-06 1.7949035)
(6.6690966e-08 2.1350271e-06 1.7949033)
(-5.1309082e-08 9.4725049e-07 1.7949033)
(-9.2192677e-08 1.6748593e-06 1.7949084)
(9.952325e-07 -1.6352251e-06 1.794908)
(-2.1043369e-06 -2.1043369e-06 1.7949084)
(-5.1766167e-06 -1.9087195e-06 1.7949048)
(-2.2400631e-06 -1.6197442e-06 1.7949026)
(4.7823533e-07 -1.2563967e-06 1.7949024)
(1.8970156e-06 -7.0704977e-07 1.7949037)
(1.3573173e-06 6.4059229e-08 1.7949053)
(-4.5429862e-07 6.963875e-07 1.7949052)
(-4.627603e-07 6.1752698e-07 1.7949046)
(-3.1801297e-07 -5.2290031e-06 1.794905)
(7.2378351e-07 -5.39476e-06 1.7949043)
(-1.9087195e-06 -5.1766167e-06 1.7949048)
(-4.9101672e-06 -4.9101672e-06 1.7949013)
(-1.9310701e-06 -4.6383767e-06 1.7948993)
(9.06019e-07 -4.3236429e-06 1.7948993)
(2.5568399e-06 -3.8933366e-06 1.7949009)
(2.2963784e-06 -3.2646237e-06 1.7949031)
(6.2015872e-07 -2.4509984e-06 1.7949036)
(-1.0388276e-07 -1.6324532e-06 1.7949036)
(-2.0269723e-07 -2.9451585e-06 1.7949025)
(1.0476189e-06 -2.5833929e-06 1.794902)
(-1.6197442e-06 -2.2400631e-06 1.7949026)
(-4.6383767e-06 -1.9310701e-06 1.7948993)
(-1.6535388e-06 -1.6535388e-06 1.7948975)
(1.2232754e-06 -1.3809292e-06 1.7948977)
(2.9560349e-06 -1.0867318e-06 1.7948995)
(2.7996555e-06 -7.470745e-07 1.7949019)
(1.1778718e-06 -3.677843e-07 1.7949029)
(8.2936445e-08 -1.1524295e-08 1.7949032)
(-7.6835859e-08 -4.0454915e-07 1.7949018)
(1.4288789e-06 -6.675414e-09 1.7949016)
(-1.2563967e-06 4.7823532e-07 1.7949024)
(-4.3236429e-06 9.06019e-07 1.7948993)
(-1.3809292e-06 1.2232754e-06 1.7948977)
(1.4728259e-06 1.472826e-06 1.7948981)
(3.1906946e-06 1.6819576e-06 1.7949001)
(3.015326e-06 1.8502118e-06 1.7949027)
(1.3557089e-06 1.9679722e-06 1.7949037)
(1.3362391e-07 2.0266967e-06 1.7949042)
(6.2551932e-08 9.1321395e-07 1.7949024)
(1.9304034e-06 1.236384e-06 1.7949024)
(-7.0704976e-07 1.8970156e-06 1.7949037)
(-3.8933366e-06 2.5568399e-06 1.7949009)
(-1.0867318e-06 2.9560348e-06 1.7948995)
(1.6819576e-06 3.1906946e-06 1.7949001)
(3.3334207e-06 3.3334207e-06 1.7949022)
(3.08567e-06 3.3859789e-06 1.7949048)
(1.3543566e-06 3.3378584e-06 1.7949059)
(1.2208611e-07 3.2085716e-06 1.7949063)
(1.3861083e-07 1.1526936e-06 1.7949033)
(2.4126806e-06 8.9294115e-07 1.7949035)
(6.4059229e-08 1.3573172e-06 1.7949053)
(-3.2646237e-06 2.2963784e-06 1.7949031)
(-7.470745e-07 2.7996555e-06 1.7949019)
(1.8502118e-06 3.0153259e-06 1.7949027)
(3.3859789e-06 3.08567e-06 1.7949048)
(3.0197636e-06 3.0197636e-06 1.7949075)
(1.1783017e-06 2.8002631e-06 1.7949084)
(4.7432732e-08 2.4709346e-06 1.7949086)
(-1.1061635e-07 1.0111315e-06 1.7949038)
(2.1350271e-06 6.6690963e-08 1.7949033)
(6.9638749e-07 -4.5429865e-07 1.7949052)
(-2.4509984e-06 6.2015871e-07 1.7949036)
(-3.677843e-07 1.1778718e-06 1.7949029)
(1.9679722e-06 1.3557089e-06 1.7949037)
(3.3378584e-06 1.3543566e-06 1.7949059)
(2.8002631e-06 1.1783017e-06 1.7949084)
(8.0552755e-07 8.0552755e-07 1.794909)
(-9.7466262e-08 4.4803783e-07 1.7949088)
(-4.910162e-07 3.2909077e-07 1.7949049)
(9.4725046e-07 -5.1309084e-08 1.7949033)
(6.1752698e-07 -4.6276031e-07 1.7949046)
(-1.6324532e-06 -1.0388275e-07 1.7949036)
(-1.1524304e-08 8.2936452e-08 1.7949032)
(2.0266967e-06 1.3362391e-07 1.7949042)
(3.2085716e-06 1.2208612e-07 1.7949063)
(2.4709346e-06 4.7432727e-08 1.7949086)
(4.4803784e-07 -9.7466264e-08 1.7949088)
(-1.9089375e-07 -1.9089375e-07 1.7949089)
(-1.4079596e-06 -1.4079596e-06 1.7958974)
(3.3493663e-06 2.3271926e-06 1.795896)
(8.9379342e-07 -1.831164e-07 1.7958975)
(-7.9370911e-06 -4.5853093e-07 1.7958945)
(-4.3030516e-06 -2.9022063e-07 1.7958925)
(-3.2023689e-07 -8.464627e-08 1.7958922)
(1.7338036e-06 1.7063563e-07 1.7958931)
(1.8235126e-06 3.1727995e-07 1.7958941)
(1.8678265e-06 -2.3951665e-07 1.7958943)
(7.7658774e-07 -1.0490008e-06 1.7958954)
(2.3271926e-06 3.3493663e-06 1.795896)
(5.1866311e-06 5.1866312e-06 1.795897)
(-3.2847919e-06 7.151037e-07 1.795897)
(-8.0977475e-06 3.9620981e-07 1.7958939)
(-3.7422246e-06 8.7881009e-07 1.7958921)
(3.7104751e-07 1.5024162e-06 1.795892)
(2.3366929e-06 2.3842095e-06 1.7958932)
(1.2082842e-06 3.256735e-06 1.7958946)
(-1.8159465e-07 2.6171735e-06 1.7958939)
(-3.2896431e-08 4.942749e-07 1.7958939)
(-1.8311639e-07 8.9379341e-07 1.7958975)
(7.1510369e-07 -3.2847919e-06 1.795897)
(-3.8966279e-06 -3.8966279e-06 1.7958968)
(-7.7733847e-06 -3.6104699e-06 1.7958937)
(-3.1968452e-06 -3.1598223e-06 1.795892)
(1.1851625e-06 -2.5645665e-06 1.7958922)
(3.4881225e-06 -1.6420356e-06 1.7958938)
(2.0564766e-06 -3.2838309e-07 1.7958957)
(-8.9463365e-07 7.1301158e-07 1.7958953)
(-6.38678e-07 6.1736273e-07 1.7958946)
(-4.5853092e-07 -7.9370911e-06 1.7958945)
(3.9620981e-07 -8.0977475e-06 1.7958939)
(-3.6104699e-06 -7.7733847e-06 1.7958937)
(-7.3609418e-06 -7.3609418e-06 1.7958908)
(-2.6963212e-06 -6.9208683e-06 1.7958893)
(1.8888342e-06 -6.4029815e-06 1.7958896)
(4.5728763e-06 -5.6928344e-06 1.7958916)
(3.5633313e-06 -4.6601826e-06 1.795894)
(7.6415116e-07 -3.3672881e-06 1.7958941)
(-9.6662333e-08 -2.108676e-06 1.795894)
(-2.9022063e-07 -4.3030516e-06 1.7958925)
(8.7881009e-07 -3.7422246e-06 1.7958921)
(-3.1598223e-06 -3.1968452e-06 1.795892)
(-6.9208684e-06 -2.6963212e-06 1.7958893)
(-2.2388849e-06 -2.2388849e-06 1.7958879)
(2.4131965e-06 -1.7870457e-06 1.7958885)
(5.2309214e-06 -1.299854e-06 1.7958906)
(4.3820229e-06 -7.3876719e-07 1.7958933)
(1.656873e-06 -1.2311507e-07 1.7958938)
(2.0039673e-07 4.5036894e-07 1.795894)
(-8.4646266e-08 -3.2023691e-07 1.7958922)
(1.5024162e-06 3.7104749e-07 1.795892)
(-2.5645665e-06 1.1851625e-06 1.7958922)
(-6.4029814e-06 1.8888342e-06 1.7958896)
(-1.7870457e-06 2.4131965e-06 1.7958885)
(2.8278651e-06 2.8278651e-06 1.7958892)
(5.6211549e-06 3.1733583e-06 1.7958915)
(4.7400703e-06 3.4477614e-06 1.7958944)
(1.9532873e-06 3.6313846e-06 1.795895)
(2.8566034e-07 3.7132604e-06 1.7958952)
(1.7063564e-07 1.7338036e-06 1.7958931)
(2.3842095e-06 2.3366929e-06 1.7958932)
(-1.6420356e-06 3.4881225e-06 1.7958938)
(-5.6928343e-06 4.5728763e-06 1.7958916)
(-1.299854e-06 5.2309213e-06 1.7958906)
(3.1733583e-06 5.6211549e-06 1.7958915)
(5.8508177e-06 5.8508176e-06 1.795894)
(4.8400492e-06 5.9135471e-06 1.7958969)
(1.922372e-06 5.7790478e-06 1.7958974)
(2.5498059e-07 5.4698151e-06 1.7958976)
(3.1727995e-07 1.8235126e-06 1.7958941)
(3.256735e-06 1.2082842e-06 1.7958946)
(-3.2838311e-07 2.0564766e-06 1.7958957)
(-4.6601826e-06 3.5633313e-06 1.795894)
(-7.3876717e-07 4.3820228e-06 1.7958933)
(3.4477614e-06 4.7400702e-06 1.7958944)
(5.9135471e-06 4.8400492e-06 1.7958969)
(4.6683005e-06 4.6683004e-06 1.7958997)
(1.5095553e-06 4.1692335e-06 1.7959001)
(7.9505148e-08 3.4327681e-06 1.7958999)
(-2.3951666e-07 1.8678265e-06 1.7958943)
(2.6171735e-06 -1.8159466e-07 1.7958939)
(7.1301157e-07 -8.9463366e-07 1.7958953)
(-3.3672881e-06 7.6415117e-07 1.7958941)
(-1.2311508e-07 1.656873e-06 1.7958938)
(3.6313846e-06 1.9532873e-06 1.795895)
(5.7790478e-06 1.922372e-06 1.7958974)
(4.1692336e-06 1.5095553e-06 1.7959001)
(6.8683965e-07 6.8683962e-07 1.7958999)
(-2.3599637e-07 5.874395e-07 1.7958991)
(-1.0490008e-06 7.7658774e-07 1.7958954)
(4.9427487e-07 -3.2896433e-08 1.7958939)
(6.1736272e-07 -6.3867801e-07 1.7958946)
(-2.108676e-06 -9.666233e-08 1.795894)
(4.5036894e-07 2.0039673e-07 1.795894)
(3.7132604e-06 2.8566035e-07 1.7958952)
(5.4698151e-06 2.5498058e-07 1.7958976)
(3.4327681e-06 7.9505158e-08 1.7958999)
(5.8743952e-07 -2.3599637e-07 1.7958991)
(1.3238404e-08 1.32384e-08 1.7958998)
(-1.9288256e-06 -1.9288256e-06 1.7973743)
(3.2517911e-06 2.5409231e-06 1.7973728)
(1.8937052e-07 -4.2466542e-07 1.7973742)
(-1.0217228e-05 -7.3613186e-07 1.7973717)
(-5.2684168e-06 -5.1740052e-07 1.79737)
(1.1254386e-07 -2.3158893e-07 1.7973701)
(2.8383847e-06 1.5468834e-07 1.7973712)
(2.4398172e-06 4.1548228e-07 1.7973726)
(2.2798958e-06 -3.9265468e-07 1.7973727)
(1.0393812e-06 -1.5091472e-06 1.7973735)
(2.5409231e-06 3.2517911e-06 1.7973728)
(5.5080313e-06 5.5080313e-06 1.7973735)
(-4.7262119e-06 2.2979891e-07 1.7973736)
(-1.0356331e-05 -1.0741805e-07 1.7973709)
(-4.5116024e-06 5.2761688e-07 1.7973694)
(1.1206772e-06 1.3899973e-06 1.7973697)
(3.8089915e-06 2.6711135e-06 1.7973712)
(1.6188026e-06 3.9927245e-06 1.7973729)
(-6.0704839e-07 3.0432434e-06 1.7973723)
(-7.7111251e-08 1.602703e-07 1.7973722)
(-4.2466542e-07 1.8937051e-07 1.7973742)
(2.2979891e-07 -4.7262119e-06 1.7973736)
(-5.4260789e-06 -5.4260789e-06 1.7973734)
(-9.9194102e-06 -5.0398017e-06 1.7973708)
(-3.7710014e-06 -4.4321397e-06 1.7973695)
(2.2560405e-06 -3.6128672e-06 1.79737)
(5.4411119e-06 -2.3257877e-06 1.7973719)
(2.8119471e-06 -4.8717011e-07 1.7973742)
(-1.5525584e-06 8.9820613e-07 1.7973737)
(-8.8260086e-07 7.2834893e-07 1.797373)
(-7.3613185e-07 -1.0217228e-05 1.7973717)
(-1.0741802e-07 -1.0356331e-05 1.7973709)
(-5.0398017e-06 -9.9194102e-06 1.7973708)
(-9.3623916e-06 -9.3623916e-06 1.7973683)
(-3.0846678e-06 -8.7582369e-06 1.7973672)
(3.2270291e-06 -8.0430666e-06 1.7973679)
(6.9346885e-06 -7.0608613e-06 1.7973701)
(4.8427965e-06 -5.6399135e-06 1.7973729)
(6.0847065e-07 -3.9121617e-06 1.7973729)
(-1.9034938e-07 -2.281418e-06 1.7973726)
(-5.1740051e-07 -5.2684168e-06 1.79737)
(5.2761689e-07 -4.5116024e-06 1.7973694)
(-4.4321396e-06 -3.7710014e-06 1.7973695)
(-8.7582369e-06 -3.0846678e-06 1.7973672)
(-2.4516764e-06 -2.4516764e-06 1.7973662)
(3.9534161e-06 -1.8251997e-06 1.797367)
(7.844265e-06 -1.1501527e-06 1.7973696)
(5.9606466e-06 -3.7486555e-07 1.7973726)
(1.805937e-06 4.6154654e-07 1.7973729)
(2.0456158e-07 1.2301002e-06 1.7973729)
(-2.3158893e-07 1.1254387e-07 1.7973701)
(1.3899973e-06 1.1206772e-06 1.7973697)
(-3.6128672e-06 2.2560405e-06 1.79737)
(-8.0430666e-06 3.2270291e-06 1.7973679)
(-1.8251997e-06 3.9534161e-06 1.797367)
(4.5285527e-06 4.5285527e-06 1.7973681)
(8.3850227e-06 5.0045411e-06 1.7973707)
(6.4544958e-06 5.3764062e-06 1.7973739)
(2.2134364e-06 5.6110705e-06 1.7973744)
(3.2201973e-07 5.6980089e-06 1.7973745)
(1.5468835e-07 2.8383847e-06 1.7973712)
(2.6711136e-06 3.8089915e-06 1.7973712)
(-2.3257877e-06 5.4411118e-06 1.7973719)
(-7.0608613e-06 6.9346885e-06 1.7973701)
(-1.1501527e-06 7.844265e-06 1.7973696)
(5.0045411e-06 8.3850227e-06 1.7973707)
(8.6921185e-06 8.6921185e-06 1.7973735)
(6.567176e-06 8.7415576e-06 1.7973767)
(2.1275397e-06 8.4675589e-06 1.7973771)
(2.6252057e-07 7.8890285e-06 1.7973771)
(4.1548228e-07 2.4398172e-06 1.7973726)
(3.9927245e-06 1.6188026e-06 1.7973729)
(-4.8717014e-07 2.811947e-06 1.7973742)
(-5.6399135e-06 4.8427965e-06 1.7973729)
(-3.7486554e-07 5.9606466e-06 1.7973726)
(5.3764063e-06 6.4544958e-06 1.7973739)
(8.7415577e-06 6.5671759e-06 1.7973767)
(6.2299362e-06 6.2299361e-06 1.7973798)
(1.3609072e-06 5.2985977e-06 1.79738)
(-6.3667206e-08 3.9141753e-06 1.7973795)
(-3.9265469e-07 2.2798958e-06 1.7973727)
(3.0432434e-06 -6.070484e-07 1.7973723)
(8.9820612e-07 -1.5525584e-06 1.7973737)
(-3.9121617e-06 6.0847066e-07 1.7973729)
(4.6154654e-07 1.805937e-06 1.7973729)
(5.6110704e-06 2.2134364e-06 1.7973744)
(8.4675589e-06 2.1275397e-06 1.7973771)
(5.2985977e-06 1.3609072e-06 1.79738)
(-1.8822119e-07 -1.8822123e-07 1.7973795)
(-6.6042769e-07 3.535933e-07 1.797378)
(-1.5091472e-06 1.0393812e-06 1.7973735)
(1.6027032e-07 -7.7111252e-08 1.7973722)
(7.2834893e-07 -8.8260086e-07 1.797373)
(-2.2814181e-06 -1.9034938e-07 1.7973726)
(1.2301002e-06 2.0456158e-07 1.7973729)
(5.6980089e-06 3.2201974e-07 1.7973745)
(7.8890284e-06 2.6252058e-07 1.7973771)
(3.9141753e-06 -6.3667211e-08 1.7973795)
(3.5359332e-07 -6.6042771e-07 1.797378)
(2.9754248e-07 2.9754246e-07 1.7973788)
(-2.3984107e-06 -2.3984107e-06 1.799329)
(3.3019162e-06 2.762335e-06 1.7993277)
(-2.5739564e-07 -6.384233e-07 1.7993293)
(-1.2133942e-05 -9.8352018e-07 1.799327)
(-5.8986712e-06 -7.1694969e-07 1.7993258)
(8.7128368e-07 -3.5411883e-07 1.7993261)
(4.289213e-06 1.6171595e-07 1.7993275)
(3.3390343e-06 5.3951211e-07 1.7993292)
(2.7614019e-06 -5.1631074e-07 1.7993295)
(1.2790935e-06 -1.8961648e-06 1.7993303)
(2.762335e-06 3.3019162e-06 1.7993277)
(5.9418973e-06 5.9418973e-06 1.7993284)
(-5.8761784e-06 -1.008442e-07 1.7993287)
(-1.2251732e-05 -4.5042935e-07 1.7993264)
(-4.9545691e-06 3.3117469e-07 1.7993252)
(2.1892822e-06 1.4230785e-06 1.7993258)
(5.6296594e-06 3.0945678e-06 1.7993276)
(2.3219942e-06 4.8569698e-06 1.7993296)
(-8.921134e-07 3.5760393e-06 1.7993292)
(-1.0076051e-07 -2.5449484e-09 1.7993292)
(-6.384233e-07 -2.5739562e-07 1.7993293)
(-1.008442e-07 -5.8761783e-06 1.7993287)
(-6.6497223e-06 -6.6497223e-06 1.7993288)
(-1.1701924e-05 -6.1609411e-06 1.7993265)
(-4.0251633e-06 -5.4000457e-06 1.7993255)
(3.6346768e-06 -4.3644863e-06 1.7993263)
(7.7231043e-06 -2.7247877e-06 1.7993285)
(3.8205058e-06 -3.8389955e-07 1.799331)
(-2.0981129e-06 1.2958843e-06 1.7993307)
(-1.1066293e-06 1.0248042e-06 1.7993301)
(-9.8352017e-07 -1.2133942e-05 1.799327)
(-4.5042935e-07 -1.2251732e-05 1.7993264)
(-6.1609412e-06 -1.1701923e-05 1.7993265)
(-1.1002055e-05 -1.1002055e-05 1.7993244)
(-3.1581143e-06 -1.0237875e-05 1.7993235)
(4.8645402e-06 -9.3316533e-06 1.7993245)
(9.6102462e-06 -8.0860461e-06 1.799327)
(6.3426663e-06 -6.2920241e-06 1.79933)
(5.1659039e-07 -4.1614375e-06 1.7993302)
(-2.8148058e-07 -2.1969743e-06 1.7993299)
(-7.1694969e-07 -5.8986712e-06 1.7993258)
(3.3117469e-07 -4.9545692e-06 1.7993252)
(-5.4000457e-06 -4.0251633e-06 1.7993255)
(-1.0237875e-05 -3.1581143e-06 1.7993235)
(-2.3547612e-06 -2.3547612e-06 1.7993229)
(5.7865052e-06 -1.559665e-06 1.799324)
(1.0762734e-05 -7.034062e-07 1.7993267)
(7.7451145e-06 2.7795217e-07 1.79933)
(1.9969369e-06 1.3224252e-06 1.7993304)
(2.030128e-07 2.2712364e-06 1.7993305)
(-3.5411882e-07 8.7128368e-07 1.7993261)
(1.4230785e-06 2.1892821e-06 1.7993258)
(-4.3644864e-06 3.6346768e-06 1.7993263)
(-9.3316533e-06 4.8645402e-06 1.7993245)
(-1.559665e-06 5.7865052e-06 1.799324)
(6.5158951e-06 6.5158951e-06 1.7993252)
(1.1447863e-05 7.1161193e-06 1.7993281)
(8.3684977e-06 7.5789612e-06 1.7993315)
(2.5098746e-06 7.8567566e-06 1.7993321)
(3.5106022e-07 7.940809e-06 1.7993322)
(1.6171595e-07 4.289213e-06 1.7993275)
(3.0945678e-06 5.6296594e-06 1.7993276)
(-2.7247877e-06 7.7231043e-06 1.7993285)
(-8.0860462e-06 9.6102462e-06 1.799327)
(-7.034062e-07 1.0762734e-05 1.7993267)
(7.1161193e-06 1.1447863e-05 1.7993281)
(1.18258e-05 1.18258e-05 1.7993311)
(8.4857518e-06 1.1850512e-05 1.7993346)
(2.3587846e-06 1.1411225e-05 1.7993351)
(2.5904771e-07 1.0514821e-05 1.7993351)
(5.3951211e-07 3.3390343e-06 1.7993292)
(4.8569698e-06 2.3219942e-06 1.7993296)
(-3.8389956e-07 3.8205058e-06 1.799331)
(-6.2920241e-06 6.3426663e-06 1.79933)
(2.7795216e-07 7.7451145e-06 1.79933)
(7.5789612e-06 8.3684977e-06 1.7993315)
(1.1850512e-05 8.4857518e-06 1.7993346)
(7.9539227e-06 7.9539227e-06 1.7993379)
(1.1741834e-06 6.5022919e-06 1.7993382)
(-2.4654214e-07 4.300351e-06 1.7993376)
(-5.1631073e-07 2.7614019e-06 1.7993295)
(3.5760393e-06 -8.9211341e-07 1.7993292)
(1.2958843e-06 -2.0981129e-06 1.7993307)
(-4.1614375e-06 5.1659038e-07 1.7993302)
(1.3224252e-06 1.9969369e-06 1.7993304)
(7.8567566e-06 2.5098746e-06 1.7993321)
(1.1411225e-05 2.3587846e-06 1.7993351)
(6.5022919e-06 1.1741834e-06 1.7993382)
(-1.2947871e-06 -1.2947871e-06 1.7993376)
(-1.2089129e-06 -9.2518666e-08 1.7993359)
(-1.8961647e-06 1.2790935e-06 1.7993303)
(-2.5449342e-09 -1.0076051e-07 1.7993292)
(1.0248042e-06 -1.1066293e-06 1.7993301)
(-2.1969743e-06 -2.8148058e-07 1.7993299)
(2.2712364e-06 2.030128e-07 1.7993305)
(7.9408089e-06 3.5106022e-07 1.7993322)
(1.0514821e-05 2.5904772e-07 1.7993351)
(4.300351e-06 -2.4654214e-07 1.7993376)
(-9.251864e-08 -1.2089129e-06 1.7993359)
(5.5497016e-07 5.5497013e-07 1.7993366)
(-2.799933e-06 -2.799933e-06 1.8017509)
(3.5085087e-06 3.0118323e-06 1.8017497)
(-4.949727e-07 -8.0501655e-07 1.8017514)
(-1.3750662e-05 -1.1821536e-06 1.8017494)
(-6.2594203e-06 -8.7013362e-07 1.8017484)
(1.8729239e-06 -4.3388973e-07 1.8017489)
(5.9805164e-06 2.0690721e-07 1.8017505)
(4.4585598e-06 6.97924e-07 1.8017524)
(3.3549002e-06 -6.0479302e-07 1.8017529)
(1.5278623e-06 -2.2342625e-06 1.8017537)
(3.0118323e-06 3.5085087e-06 1.8017497)
(6.5008835e-06 6.5008835e-06 1.8017505)
(-6.7859515e-06 -2.7149895e-07 1.8017509)
(-1.3848337e-05 -6.3140813e-07 1.8017488)
(-5.1370245e-06 2.9077145e-07 1.801748)
(3.4884851e-06 1.6025711e-06 1.8017487)
(7.678237e-06 3.6506113e-06 1.8017507)
(3.2410095e-06 5.8371052e-06 1.8017529)
(-1.0433795e-06 4.2124766e-06 1.8017527)
(-1.0160716e-07 -3.6265313e-08 1.8017527)
(-8.0501654e-07 -4.9497269e-07 1.8017514)
(-2.7149895e-07 -6.7859515e-06 1.8017509)
(-7.6272643e-06 -7.6272643e-06 1.8017511)
(-1.3188391e-05 -7.0377378e-06 1.8017491)
(-4.025441e-06 -6.1284287e-06 1.8017484)
(5.2327637e-06 -4.884455e-06 1.8017493)
(1.0215051e-05 -2.9046538e-06 1.8017517)
(5.0204252e-06 -8.2081705e-08 1.8017544)
(-2.5184704e-06 1.8628949e-06 1.8017543)
(-1.3046324e-06 1.4801713e-06 1.8017537)
(-1.1821536e-06 -1.3750662e-05 1.8017494)
(-6.3140812e-07 -1.3848337e-05 1.8017488)
(-7.0377378e-06 -1.3188391e-05 1.8017491)
(-1.2349502e-05 -1.2349502e-05 1.8017473)
(-2.9837418e-06 -1.1430586e-05 1.8017467)
(6.7122601e-06 -1.0340495e-05 1.8017478)
(1.248061e-05 -8.8413353e-06 1.8017505)
(8.0085582e-06 -6.6894381e-06 1.8017537)
(5.188735e-07 -4.1797528e-06 1.8017539)
(-3.567562e-07 -1.9052605e-06 1.8017537)
(-8.7013363e-07 -6.2594203e-06 1.8017484)
(2.9077144e-07 -5.1370245e-06 1.801748)
(-6.1284287e-06 -4.025441e-06 1.8017484)
(-1.1430586e-05 -2.9837417e-06 1.8017467)
(-2.0164346e-06 -2.0164346e-06 1.8017462)
(7.8220141e-06 -1.0599237e-06 1.8017475)
(1.3866108e-05 -3.040113e-08 1.8017504)
(9.6820077e-06 1.1479242e-06 1.8017538)
(2.2657072e-06 2.3894817e-06 1.8017544)
(2.1169586e-07 3.5085548e-06 1.8017544)
(-4.3388972e-07 1.8729239e-06 1.8017489)
(1.6025711e-06 3.4884851e-06 1.8017487)
(-4.884455e-06 5.2327637e-06 1.8017493)
(-1.0340495e-05 6.7122601e-06 1.8017478)
(-1.0599237e-06 7.8220141e-06 1.8017475)
(8.6982936e-06 8.6982936e-06 1.801749)
(1.4688458e-05 9.4158644e-06 1.801752)
(1.0428441e-05 9.9638051e-06 1.8017556)
(2.8795041e-06 1.0280247e-05 1.8017562)
(3.8929255e-07 1.0359833e-05 1.8017564)
(2.0690722e-07 5.9805164e-06 1.8017505)
(3.6506113e-06 7.678237e-06 1.8017507)
(-2.9046538e-06 1.0215051e-05 1.8017517)
(-8.8413353e-06 1.248061e-05 1.8017505)
(-3.0401135e-08 1.3866108e-05 1.8017504)
(9.4158644e-06 1.4688458e-05 1.801752)
(1.5131619e-05 1.5131619e-05 1.8017552)
(1.054639e-05 1.5126503e-05 1.8017587)
(2.6617352e-06 1.4513852e-05 1.8017593)
(2.6475337e-07 1.3284619e-05 1.8017594)
(6.97924e-07 4.4585598e-06 1.8017524)
(5.8371052e-06 3.2410095e-06 1.8017529)
(-8.2081705e-08 5.0204252e-06 1.8017544)
(-6.689438e-06 8.0085582e-06 1.8017537)
(1.1479242e-06 9.6820078e-06 1.8017538)
(9.9638051e-06 1.0428441e-05 1.8017556)
(1.5126503e-05 1.054639e-05 1.8017587)
(9.8106735e-06 9.8106735e-06 1.8017622)
(1.03762e-06 7.806054e-06 1.8017625)
(-4.3019626e-07 4.719755e-06 1.801762)
(-6.0479301e-07 3.3549002e-06 1.8017529)
(4.2124766e-06 -1.0433795e-06 1.8017527)
(1.8628949e-06 -2.5184704e-06 1.8017543)
(-4.1797528e-06 5.1887351e-07 1.8017539)
(2.3894816e-06 2.2657072e-06 1.8017544)
(1.0280247e-05 2.8795041e-06 1.8017562)
(1.4513852e-05 2.6617351e-06 1.8017593)
(7.806054e-06 1.0376199e-06 1.8017625)
(-2.4291833e-06 -2.4291833e-06 1.801762)
(-1.7927793e-06 -6.0799889e-07 1.8017603)
(-2.2342625e-06 1.5278623e-06 1.8017537)
(-3.6265296e-08 -1.0160715e-07 1.8017527)
(1.4801713e-06 -1.3046323e-06 1.8017537)
(-1.9052605e-06 -3.5675621e-07 1.8017537)
(3.5085548e-06 2.1169585e-07 1.8017544)
(1.0359833e-05 3.8929255e-07 1.8017564)
(1.3284619e-05 2.6475337e-07 1.8017594)
(4.719755e-06 -4.3019627e-07 1.801762)
(-6.0799886e-07 -1.7927793e-06 1.8017603)
(7.839267e-07 7.8392668e-07 1.8017609)
(-3.1536764e-06 -3.1536764e-06 1.8046248)
(3.8051446e-06 3.2708394e-06 1.8046238)
(-5.8392526e-07 -9.3928577e-07 1.8046254)
(-1.5116632e-05 -1.346323e-06 1.8046237)
(-6.405937e-06 -9.9098427e-07 1.8046229)
(3.0439005e-06 -4.8452859e-07 1.8046236)
(7.815995e-06 2.7660385e-07 1.8046254)
(5.708677e-06 8.7703273e-07 1.8046273)
(4.0217861e-06 -6.6683778e-07 1.8046279)
(1.7842097e-06 -2.5358313e-06 1.8046287)
(3.2708394e-06 3.8051446e-06 1.8046238)
(7.1267305e-06 7.1267305e-06 1.8046245)
(-7.5096689e-06 -3.3477989e-07 1.804625)
(-1.519418e-05 -7.0299316e-07 1.8046232)
(-5.1132454e-06 3.536533e-07 1.8046226)
(4.9452827e-06 1.8760547e-06 1.8046235)
(9.858337e-06 4.2863176e-06 1.8046256)
(4.2935146e-06 6.8807009e-06 1.8046279)
(-1.0975101e-06 4.914703e-06 1.8046278)
(-8.4783826e-08 2.0008478e-08 1.8046278)
(-9.3928577e-07 -5.8392525e-07 1.8046254)
(-3.347799e-07 -7.5096688e-06 1.804625)
(-8.4136489e-06 -8.4136489e-06 1.8046254)
(-1.4428199e-05 -7.7269106e-06 1.8046236)
(-3.8268891e-06 -6.6751748e-06 1.8046231)
(6.9765648e-06 -5.2314817e-06 1.8046242)
(1.2820641e-05 -2.9252701e-06 1.8046267)
(6.3370624e-06 3.5861484e-07 1.8046294)
(-2.8389063e-06 2.549412e-06 1.8046294)
(-1.47892e-06 2.0524436e-06 1.8046289)
(-1.346323e-06 -1.5116632e-05 1.8046237)
(-7.0299316e-07 -1.519418e-05 1.8046232)
(-7.7269107e-06 -1.4428199e-05 1.8046236)
(-1.3455706e-05 -1.3455706e-05 1.804622)
(-2.6178164e-06 -1.2388579e-05 1.8046216)
(8.6951874e-06 -1.1122848e-05 1.8046229)
(1.5448433e-05 -9.3812938e-06 1.8046257)
(9.7681967e-06 -6.8875694e-06 1.8046289)
(5.9631873e-07 -4.0193184e-06 1.8046292)
(-4.1609605e-07 -1.4535134e-06 1.8046291)
(-9.9098427e-07 -6.405937e-06 1.8046229)
(3.5365329e-07 -5.1132454e-06 1.8046226)
(-6.6751749e-06 -3.8268891e-06 1.8046231)
(-1.2388579e-05 -2.6178164e-06 1.8046216)
(-1.4940309e-06 -1.4940309e-06 1.8046214)
(9.9838497e-06 -3.8419923e-07 1.8046228)
(1.705592e-05 8.0965608e-07 1.8046258)
(1.1699038e-05 2.1749096e-06 1.8046292)
(2.5951497e-06 3.6028985e-06 1.8046298)
(2.3161676e-07 4.883504e-06 1.8046299)
(-4.845286e-07 3.0439005e-06 1.8046236)
(1.8760547e-06 4.9452827e-06 1.8046235)
(-5.2314817e-06 6.9765648e-06 1.8046242)
(-1.1122848e-05 8.6951874e-06 1.8046229)
(-3.8419923e-07 9.9838497e-06 1.8046228)
(1.0998874e-05 1.0998874e-05 1.8046244)
(1.8007542e-05 1.1826299e-05 1.8046275)
(1.2561439e-05 1.2453188e-05 1.804631)
(3.3049131e-06 1.2804563e-05 1.8046317)
(4.3764095e-07 1.2879751e-05 1.8046319)
(2.7660386e-07 7.815995e-06 1.8046254)
(4.2863176e-06 9.858337e-06 1.8046256)
(-2.9252701e-06 1.2820641e-05 1.8046267)
(-9.3812938e-06 1.5448434e-05 1.8046257)
(8.0965609e-07 1.705592e-05 1.8046258)
(1.1826299e-05 1.8007542e-05 1.8046275)
(1.8510233e-05 1.8510233e-05 1.8046306)
(1.2677302e-05 1.8472412e-05 1.8046342)
(3.0217127e-06 1.7686291e-05 1.8046349)
(2.8174195e-07 1.6125539e-05 1.804635)
(8.7703274e-07 5.708677e-06 1.8046273)
(6.8807009e-06 4.2935146e-06 1.8046279)
(3.5861485e-07 6.3370624e-06 1.8046294)
(-6.8875694e-06 9.7681967e-06 1.8046289)
(2.1749096e-06 1.1699038e-05 1.8046292)
(1.2453188e-05 1.2561439e-05 1.804631)
(1.8472412e-05 1.2677302e-05 1.8046342)
(1.1737497e-05 1.1737497e-05 1.8046377)
(9.5803966e-07 9.1763099e-06 1.8046381)
(-6.0286026e-07 5.1939165e-06 1.8046376)
(-6.6683777e-07 4.0217861e-06 1.8046279)
(4.914703e-06 -1.0975101e-06 1.8046278)
(2.549412e-06 -2.8389063e-06 1.8046294)
(-4.0193184e-06 5.9631871e-07 1.8046292)
(3.6028985e-06 2.5951497e-06 1.8046298)
(1.2804563e-05 3.3049131e-06 1.8046317)
(1.768629e-05 3.0217127e-06 1.8046349)
(9.17631e-06 9.5803964e-07 1.8046381)
(-3.5218675e-06 -3.5218675e-06 1.8046377)
(-2.373187e-06 -1.1178925e-06 1.804636)
(-2.5358313e-06 1.7842097e-06 1.8046287)
(2.0008502e-08 -8.478383e-08 1.8046278)
(2.0524436e-06 -1.4789199e-06 1.8046289)
(-1.4535134e-06 -4.1609606e-07 1.8046291)
(4.883504e-06 2.3161675e-07 1.8046299)
(1.2879751e-05 4.3764094e-07 1.8046319)
(1.6125539e-05 2.8174197e-07 1.804635)
(5.1939165e-06 -6.0286026e-07 1.8046376)
(-1.1178924e-06 -2.373187e-06 1.804636)
(9.9978979e-07 9.9978979e-07 1.8046366)
(-3.4705956e-06 -3.4705956e-06 1.8079329)
(4.149367e-06 3.5266392e-06 1.807932)
(-5.6639146e-07 -1.0509691e-06 1.8079336)
(-1.6266468e-05 -1.4854353e-06 1.8079321)
(-6.3804349e-06 -1.0890164e-06 1.8079315)
(4.3300328e-06 -5.1563635e-07 1.8079323)
(9.7306577e-06 3.608924e-07 1.8079341)
(7.0306496e-06 1.0667591e-06 1.8079362)
(4.7307893e-06 -7.0942253e-07 1.8079368)
(2.0434303e-06 -2.8066659e-06 1.8079376)
(3.5266392e-06 4.149367e-06 1.807932)
(7.7788068e-06 7.7788068e-06 1.8079327)
(-8.0845033e-06 -3.2619366e-07 1.8079333)
(-1.6323539e-05 -7.005799e-07 1.8079317)
(-4.9257365e-06 4.83773e-07 1.8079312)
(6.5048961e-06 2.2068133e-06 1.8079322)
(1.2104251e-05 4.9636268e-06 1.8079344)
(5.4251772e-06 7.948775e-06 1.8079367)
(-1.0793481e-06 5.651015e-06 1.8079367)