/*--------------------------------*- C++ -*----------------------------------*\
| =========                 |                                                 |
| \\      /  F ield         | OpenFOAM: The Open Source CFD Toolbox           |
|  \\    /   O peration     | Version:  v2106                                 |
|   \\  /    A nd           | Website:  www.openfoam.com                      |
|    \\/     M anipulation  |                                                 |
\*---------------------------------------------------------------------------*/
FoamFile
{
    version     2.0;
    format      ascii;
    arch        "LSB;label=32;scalar=64";
    class       volScalarField;
    location    "25";
    object      gradTy;
}
// * * * * * * * * * * * * * * * * * * * * * * * * * * * * * * * * * * * * * //

dimensions      [0 -1 0 1 0 0 0];

internalField   nonuniform List<scalar> 
4000
(
-0.00021337616
0.00044219239
4.5451763e-05
6.8639944e-07
2.0441907e-05
3.8745338e-05
5.6861368e-05
6.8433188e-05
4.6900287e-05
-5.1233612e-06
0.00061067001
0.0009989119
0.0003168489
0.00026716788
0.00032064737
0.00037423714
0.00043988724
0.00050601344
0.00049132803
0.00032503956
0.00047335554
-0.00018890344
-0.00025838847
-0.00021905172
-0.00017561233
-0.00012665479
-5.4061826e-05
4.8997498e-05
0.00014331187
0.00013755968
-0.00079997406
-0.00083748885
-0.0007961756
-0.00075471272
-0.000717164
-0.00067524379
-0.00061817493
-0.00053401097
-0.00041984475
-0.00029945086
-0.00044457464
-0.00038748623
-0.00033750537
-0.0002950893
-0.00025803646
-0.00022184349
-0.00018289129
-0.000138176
-8.7681775e-05
-4.0715607e-05
-7.0505361e-05
-1.5876167e-05
4.8734517e-05
0.00010567435
0.00014772359
0.0001808195
0.00020871894
0.00023107398
0.00024669389
0.00025423067
0.0001130014
0.00015753317
0.0002447777
0.00033318546
0.00038601051
0.00041685295
0.00043626498
0.00044453665
0.00044070163
0.0004282867
0.0001512919
0.00013635028
0.00020273268
0.00033372396
0.00040106285
0.00042893348
0.00043903782
0.00043337013
0.00041045121
0.00037705295
0.00010717022
-3.1646029e-06
-7.380366e-05
8.5397582e-05
0.00016075645
0.00018285797
0.00018391316
0.00016660803
0.00012759598
7.7990146e-05
2.4937205e-05
-2.7086448e-05
-8.5921778e-05
-3.0921236e-05
-5.6591861e-06
3.8954103e-07
-6.3466312e-07
-7.8870736e-06
-2.290017e-05
-4.095763e-05
-0.00041753942
0.00075548398
-3.6877071e-05
-0.00012720519
-8.1078891e-05
-3.0734343e-05
2.5020776e-05
5.5444334e-05
-4.4246538e-05
-0.00019640648
0.0012301984
0.0018011919
0.000398093
0.00028951341
0.00041904757
0.00057155157
0.00077216137
0.00096507225
0.00085401084
0.0003789002
0.00066994371
-0.00065409005
-0.00084173478
-0.00076348778
-0.00064789767
-0.00050255867
-0.00028281991
2.5623692e-05
0.000278555
0.00024701079
-0.0020916012
-0.002157904
-0.0020706467
-0.0019640669
-0.0018553507
-0.0017294571
-0.0015573346
-0.0013058495
-0.00098039934
-0.0006529813
-0.0011780634
-0.0010333571
-0.00089602524
-0.00077242803
-0.00066141551
-0.00055237168
-0.00043469273
-0.0002988298
-0.00014711372
-4.6097179e-06
-0.00016181966
-2.6701656e-06
0.00019129413
0.0003624076
0.00048931017
0.00058913039
0.00067278305
0.00074008473
0.00078718886
0.00081067866
0.00036528558
0.00049455359
0.00075880625
0.001022736
0.0011824139
0.0012762778
0.0013333683
0.0013543916
0.0013351434
0.0012834286
0.00046107743
0.00035717646
0.0005429269
0.00091855136
0.0011198622
0.0012061304
0.001234268
0.0012079055
0.0011201053
0.00098837383
0.00040445261
2.6676385e-05
-0.00018171946
0.00024806349
0.00047114872
0.00054228357
0.00054174265
0.00047132067
0.00032221102
0.00017921513
0.00013163631
-2.0523633e-05
-0.00018510412
-4.1553102e-05
3.3174581e-05
5.3449564e-05
4.8834446e-05
1.8973091e-05
-3.8986505e-05
-7.6357501e-05
-0.00056318385
0.00093087705
-7.3246561e-05
-0.00018341237
-0.00011608825
-3.3858508e-05
6.8254253e-05
0.00012691198
-9.580666e-05
-0.00041960033
0.0013397465
0.0020746525
0.00028604148
0.00015848393
0.00035152404
0.00060096646
0.00095368381
0.001302694
0.0010468694
0.00019770996
0.00035751736
-0.0013139168
-0.0015586512
-0.001444188
-0.0012639289
-0.0010258266
-0.00065681423
-0.00013135323
0.00028520463
0.00024694509
-0.0031748364
-0.003239099
-0.0031093539
-0.0029443767
-0.0027683473
-0.0025611926
-0.0022771337
-0.001864073
-0.0013469152
-0.00084347039
-0.0017212206
-0.0014968898
-0.0012787381
-0.0010785285
-0.00089555395
-0.00071481828
-0.0005199416
-0.00029550687
-4.9246027e-05
0.00018014758
-0.00012809477
0.000148419
0.00047406501
0.00075553367
0.00096527862
0.001131146
0.0012693433
0.0013791046
0.0014525538
0.0014853041
0.00069352144
0.00093467718
0.001395249
0.0018291505
0.0020923685
0.0022484619
0.0023403271
0.0023654188
0.0023116191
0.002187926
0.00072940505
0.00048331366
0.00082259063
0.0014253325
0.0017528091
0.0018960281
0.0019360197
0.0018673202
0.0016676934
0.0013731072
0.0007471306
-7.2637866e-05
-0.00035785346
0.00030566047
0.00066274919
0.00078131491
0.00076894878
0.00060382211
0.00027473585
0.0002349758
0.00031063509
-1.3158573e-05
-0.0002554712
-3.8664932e-05
8.015869e-05
0.00011426414
0.00010199223
3.1802063e-05
-9.4398549e-05
5.2953598e-06
-0.00077153024
0.0010163692
-0.00016986617
-0.00029445275
-0.00020696021
-9.263557e-05
6.1875337e-05
0.00016619291
-0.00015706187
-0.00060365887
0.0013007164
0.0022032125
9.1919566e-05
-4.2967221e-05
0.00021104675
0.00055599893
0.0010684454
0.0015970898
0.0012172974
6.410812e-05
7.5748203e-05
-0.0018904848
-0.0021704315
-0.0020159207
-0.0017728559
-0.0014451469
-0.0009303151
-0.00019486804
0.00035928245
0.00029133957
-0.0040868913
-0.0041425323
-0.0039677641
-0.0037449566
-0.0035032948
-0.0032172266
-0.0028243445
-0.0022559654
-0.0015648647
-0.00091256722
-0.0021073667
-0.001804641
-0.0015084006
-0.0012338671
-0.00098067056
-0.00073007989
-0.00046006109
-0.00014994622
0.00018461861
0.00049204008
4.5017547e-05
0.00044827086
0.00090241621
0.0012908116
0.0015813665
0.0018114211
0.0020018165
0.0021505625
0.0022444282
0.0022792036
0.0011353539
0.0015235966
0.0021764447
0.0027738754
0.003137706
0.0033540091
0.0034768474
0.0034966231
0.0033870236
0.0031556114
0.00097592687
0.00064752105
0.0011247788
0.0019371186
0.0023842586
0.0025817983
0.0026268704
0.0024919745
0.0021194391
0.0015656701
0.0009119583
-0.00024281936
-0.00062102338
0.00024338827
0.00072237479
0.00088537457
0.00085101587
0.00054436289
-7.5288492e-05
0.00014143732
0.00041575249
-3.0844501e-05
-0.00035304034
-7.6139753e-05
8.1824632e-05
0.0001288079
0.00010500823
-2.5466884e-05
-0.00026417108
0.00011901699
-0.00095936429
0.001104934
-0.00025536932
-0.00039340807
-0.00028677988
-0.00014164753
6.4686382e-05
0.00021580484
-0.00020652429
-0.0007584659
0.0013207665
0.0023767589
-4.0337679e-05
-0.00018017174
0.00013246987
0.0005692314
0.0012378271
0.0019427879
0.0014304157
-1.0179794e-06
-0.00010295825
-0.0023504713
-0.0026598889
-0.0024643765
-0.0021600183
-0.0017457945
-0.0010899151
-0.00015355982
0.00051835373
0.0004099217
-0.004853577
-0.0049006928
-0.0046807694
-0.0044008222
-0.0040951498
-0.0037326613
-0.0032344185
-0.0025168096
-0.001664575
-0.00087878972
-0.0023594685
-0.0019818277
-0.0016100653
-0.0012632457
-0.00094190446
-0.000623866
-0.00028136248
0.00011118087
0.00052897009
0.00090849457
0.00034851347
0.00087571286
0.0014538707
0.0019458161
0.0023146021
0.0026063581
0.0028464477
0.0030315845
0.0031427026
0.0031763236
0.0017156852
0.0022518638
0.0030892417
0.0038440985
0.0043050934
0.0045791453
0.0047303198
0.0047402049
0.0045644898
0.0042059284
0.0013356137
0.00092879769
0.0015282023
0.0025370665
0.0030980458
0.0033473991
0.0033943007
0.0031815691
0.0026009167
0.0017201404
0.0011045608
-0.00035684536
-0.00083924515
0.00020663615
0.00079877475
0.0010039499
0.00094351384
0.00046967336
-0.00051791484
-3.7007466e-05
0.0005116374
-4.0304203e-05
-0.00044265172
-0.00011259223
8.1205119e-05
0.00014042409
0.00010361909
-9.8616857e-05
-0.00048356515
0.00022198805
-0.0011199732
0.0012047329
-0.00032200662
-0.00047286142
-0.00034805345
-0.00017355589
8.2762885e-05
0.0002791696
-0.00024191721
-0.00089370498
0.0014034035
0.0026003534
-0.00010859958
-0.00025256325
0.00011630858
0.00064102844
0.0014602445
0.0023348421
0.0016849907
-1.4506125e-05
-0.00019798908
-0.0027143806
-0.0030509057
-0.0028150951
-0.0024513715
-0.001953782
-0.0011618615
-3.2832682e-05
0.00074515795
0.00059206853
-0.0055002647
-0.005539335
-0.0052753566
-0.0049398007
-0.0045722343
-0.0041361982
-0.0035365341
-0.0026757752
-0.0016719011
-0.0007621042
-0.0025037681
-0.0020548098
-0.0016101764
-0.0011934967
-0.00080657385
-0.00042396946
-1.2160452e-05
0.00045916969
0.00095579266
0.0014034219
0.00074916955
0.0013953941
0.0020931055
0.002684904
0.0031288056
0.0034793174
0.0037663458
0.003985522
0.0041120987
0.0041439332
0.0023922066
0.0030712948
0.0040860202
0.0049922441
0.0055464432
0.0058753833
0.0060526478
0.0060506012
0.0058055408
0.0053138475
0.0017834239
0.0012964038
0.0020081701
0.0032034233
0.0038728031
0.0041713764
0.0042185561
0.0039242694
0.0031224216
0.001887902
0.0013419601
-0.00041735181
-0.0010073882
0.0002075494
0.00090628286
0.0011518016
0.0010646941
0.00041504798
-0.00097167333
-0.00024319956
0.00061114492
-4.0642862e-05
-0.00052185294
-0.00014270248
8.4678339e-05
0.00015571702
0.00010590135
-0.00017207851
-0.00071711171
0.00031357067
-0.0012614706
0.0013083358
-0.00037571431
-0.0005385292
-0.00039639371
-0.00019381144
0.00011064154
0.00035081309
-0.00026673511
-0.0010143325
0.0015220578
0.0028506922
-0.00013391196
-0.00028119727
0.00014146132
0.00075042189
0.0017145271
0.0027522803
0.0019658812
8.0033914e-06
-0.0002335701
-0.0030038675
-0.0033654596
-0.0030907643
-0.0026700699
-0.0020925927
-0.001170108
0.00014344594
0.0010197648
0.00082097745
-0.006046653
-0.0060776721
-0.0057712797
-0.0053822824
-0.0049554315
-0.0044491392
-0.0037525175
-0.0027550278
-0.0016077274
-0.00058140535
-0.0025623748
-0.0020452982
-0.0015307556
-0.0010471266
-0.00059761236
-0.00015367969
0.00032386243
0.00086996385
0.0014411594
0.0019534016
0.0012175602
0.0019781131
0.0027906259
0.003478075
0.0039935399
0.0043995498
0.0047305194
0.0049812751
0.0051218251
0.0051519002
0.003126398
0.0039433348
0.0051282565
0.0061793734
0.0068223679
0.0072030169
0.0074040932
0.0073889649
0.0070745162
0.0064502155
0.0022834708
0.0017174058
0.002534825
0.0039072787
0.0046796151
0.0050245756
0.0050709208
0.0046949987
0.003670524
0.0020775666
0.0016087144
-0.00043900403
-0.0011355625
0.00023852748
0.0010380599
0.0013219652
0.0012086851
0.00038321586
-0.001408747
-0.00044715699
0.0007136839
-3.3913532e-05
-0.00059156798
-0.00016643842
9.2646702e-05
0.00017505638
0.00011269679
-0.00024114411
-0.0009492748
0.00039991591
-0.0013882382
0.0014106557
-0.00042038765
-0.00059417412
-0.00043560658
-0.00020625454
0.00014435696
0.00042670364
-0.00028376901
-0.0011226663
0.0016597468
0.0031115227
-0.00013047746
-0.00028023196
0.0001935092
0.00088272533
0.0019854507
0.00317951
0.002260406
5.5720706e-05
-0.00022655657
-0.0032338013
-0.0036183112
-0.0033065249
-0.0028316582
-0.002178196
-0.001131274
0.00035806429
0.0013261522
0.0010820776
-0.006506587
-0.0065294154
-0.0061826004
-0.0057427624
-0.0052596166
-0.0046867139
-0.0038980671
-0.0027707734
-0.0014881521
-0.00035247015
-0.002552174
-0.0019702946
-0.0013892167
-0.0008419657
-0.00033316813
0.0001686238
0.00070809091
0.0013246837
0.0019660704
0.0025393016
0.0017320131
0.0026019584
0.0035239547
0.0043023426
0.0048855042
0.0053436016
0.0057154329
0.0059952387
0.006148247
0.0061764458
0.0038922631
0.0048417004
0.0061890478
0.0073779607
0.0081049882
0.0085340206
0.0087566253
0.0087275823
0.0083449299
0.0075911897
0.0028122598
0.0021700709
0.0030872151
0.0046274971
0.0054971301
0.0058854767
0.0059299441
0.0054737813
0.0042306679
0.0022847878
0.0018923157
-0.00043173925
-0.0012314735
0.00029227411
0.0011868297
0.001506892
0.0013680368
0.0003704994
-0.0018209567
-0.00063714085
0.00081737212
-2.1525218e-05
-0.00065241808
-0.00018424159
0.00010470323
0.00019791253
0.00012350243
-0.00030458094
-0.0011737509
0.00048462963
-0.001501878
0.0015088376
-0.00045792781
-0.00064162593
-0.00046762066
-0.00021294866
0.00018160873
0.00050433728
-0.00029476513
-0.0012198392
0.0018068049
0.0033727302
-0.00010674166
-0.00025810814
0.00026369457
0.0010287534
0.0022630903
0.0036058503
0.0025593435
0.00012121941
-0.00018840955
-0.0034141049
-0.0038192479
-0.0034724234
-0.0029465128
-0.0022213763
-0.0010568083
0.00059873491
0.0016521132
0.0013638986
-0.0068899238
-0.0069044631
-0.0065194876
-0.006031728
-0.0054955748
-0.0048600059
-0.0039846801
-0.0027350665
-0.0013256032
-8.7982393e-05
-0.0024864148
-0.0018433989
-0.0011995533
-0.00059235185
-2.7831184e-05
0.00052817728
0.0011256039
0.0018082194
0.0025152453
0.0031455924
0.0022757468
0.0032495909
0.0042751425
0.0051392954
0.0057860372
0.0062927304
0.0067023624
0.0070087392
0.0071727136
0.0071987572
0.0046711168
0.0057470457
0.0072482137
0.0085671569
0.0093731531
0.009847199
0.010089162
0.010045659
0.0095966549
0.008717889
0.0033540363
0.0026394755
0.0036502895
0.0053483971
0.0063093665
0.0067380385
0.0067797178
0.0062455315
0.0047905344
0.0025022989
0.0021836894
-0.00040257537
-0.0013009415
0.00036258837
0.0013461426
0.0016999613
0.0015361606
0.00037219155
-0.002207072
-0.00081040352
0.00092033375
-4.7403625e-06
-0.00070508228
-0.00019688343
0.00011999822
0.00022334793
0.00013736061
-0.000362496
-0.0013881298
0.00056861634
-0.0016029998
0.0016009768
-0.00048939696
-0.00068188804
-0.00049353664
-0.00021514257
0.00022089307
0.00058197874
-0.00030086459
-0.0013064351
0.0019568412
0.0036272455
-6.8296229e-05
-0.00022040922
0.00034614387
0.0011822004
0.0025403867
0.0040234108
0.0028557842
0.00019914737
-0.0001273798
-0.0035516771
-0.0039750345
-0.00359543
-0.0030218855
-0.0022297616
-0.00095497395
0.00085630807
0.0019882211
0.0016574706
-0.0072037916
-0.0072100012
-0.0067893515
-0.0062568522
-0.0056712376
-0.0049772237
-0.0040209587
-0.002657084
-0.0011298006
0.0002019035
-0.0023756503
-0.0016755321
-0.00097304074
-0.00030986376
0.00030658772
0.00091299773
0.0015642614
0.0023082433
0.0030761599
0.0037595052
0.0028351609
0.0039068054
0.0050294037
0.005973717
0.0066796826
0.0072313907
0.0076757788
0.0080063227
0.0081798532
0.0082034312
0.0054483116
0.0066439936
0.008289522
0.0097300633
0.010609662
0.011125309
0.011384594
0.01132639
0.010813442
0.0098149322
0.0038970668
0.0031144303
0.0042124643
0.0060576254
0.0071036224
0.0075695239
0.0076076968
0.0069983724
0.0053400474
0.002723089
0.0024757774
-0.00035684342
-0.001348486
0.00044431908
0.0015105015
0.0018955809
0.00170761
0.00038412367
-0.0025676734
-0.00096753661
0.0010208546
1.5284097e-05
-0.00075023656
-0.00020521629
0.00013756618
0.00025034721
0.00015328483
-0.00041532613
-0.0015913541
0.00065143174
-0.0016918644
0.0016856184
-0.00051548626
-0.00071559634
-0.00051407661
-0.00021369804
0.00026110299
0.00065829547
-0.00030286756
-0.0013827476
0.0021051132
0.0038696805
-1.9188985e-05
-0.0001711685
0.00043656548
0.0013383697
0.0028119244
0.0044259635
0.003144321
0.00028549371
-4.9640742e-05
-0.0036514628
-0.0040904897
-0.0036805419
-0.0030630282
-0.0022089575
-0.00083198226
0.0011237012
0.0023270212
0.001955682
-0.007453336
-0.0074512216
-0.0069975816
-0.00642376
-0.005792472
-0.005044506
-0.0040134316
-0.0025439356
-0.00090844682
0.00050900503
-0.0022282646
-0.0014754171
-0.0007187264
-3.8326765e-06
0.00066052757
0.0013133355
0.0020141303
0.0028146039
0.0036384341
0.0043704186
0.0033990806
0.00456185
0.0057744396
0.0067928959
0.00755348
0.0081464986
0.0086225679
0.0089749115
0.009156666
0.0091775076
0.0062118717
0.007519862
0.0092994656
0.010852521
0.011800036
0.012353789
0.012628449
0.012555572
0.011981601
0.010869403
0.0044320622
0.0035861064
0.0047644588
0.0067451098
0.0078694436
0.0083694136
0.0084035416
0.0077225659
0.0058709156
0.0029411947
0.0027629389
-0.00029862562
-0.0013775309
0.00053335517
0.0016754097
0.0020891699
0.0018780058
0.00040300048
-0.0029033654
-0.0011098959
0.0011174591
3.7579116e-05
-0.00078842576
-0.00020998031
0.00015654213
0.00027800935
0.00017043657
-0.00046345632
-0.0017827107
0.00073218999
-0.0017685624
0.0017616017
-0.0005366715
-0.0007431769
-0.00052974398
-0.000209248
0.00030137452
0.00073220906
-0.00030136151
-0.0014489011
0.0022479459
0.0040957822
3.7528146e-05
-0.00011342545
0.00053168542
0.0014936095
0.0030733747
0.0048084082
0.0034205932
0.00037716714
4.0091393e-05
-0.0037170765
-0.0041691163
-0.0037314251
-0.0030738429
-0.0021632014
-0.00069264567
0.0013952705
0.0026624877
0.0022527967
-0.0076422695
-0.0076318782
-0.0071481122
-0.0065366049
-0.0058636623
-0.0050665036
-0.0039671339
-0.0024012257
-0.00066773607
0.00082665269
-0.0020509294
-0.001250036
-0.0004438944
0.00031818768
0.0010262068
0.0017212091
0.0024670238
0.0033188717
0.0041933876
0.0049694105
0.0039582593
0.0052049371
0.0064999486
0.0075861343
0.008396477
0.0090269513
0.0095315534
0.0099033192
0.010092013
0.010109904
0.0069518065
0.008363992
0.010266605
0.011922464
0.012931883
0.013520127
0.013808251
0.013720945
0.013089334
0.011870232
0.0049514348
0.0040473307
0.0052986533
0.0074024641
0.0085980511
0.0091288279
0.009158511
0.0084099111
0.0063762215
0.0031517229
0.0030406136
-0.00023105161
-0.0013906275
0.0006264746
0.0018372509
0.0022770134
0.0020438353
0.00042630005
-0.0032143529
-0.0012387035
0.001208912
6.137242e-05
-0.00082003875
-0.00021175487
0.00017622042
0.0003055937
0.00018814724
-0.00050714115
-0.0019615185
0.00080995844
-0.0018330867
0.0018279932
-0.00055328521
-0.00076492017
-0.00054089907
-0.00020227216
0.00034101269
0.00080282274
-0.00029679198
-0.0015049212
0.0023824423
0.0043021445
9.9501725e-05
-4.9527819e-05
0.00062894182
0.0016450083
0.0033211953
0.0051664807
0.0036810125
0.00047172998
0.00013815339
-0.0037512166
-0.004213519
-0.0037508354
-0.0030573051
-0.0020957832
-0.00054079212
0.0016664115
0.0029896561
0.0025441072
-0.0077733096
-0.0077547304
-0.0072438695
-0.0065985165
-0.0058881565
-0.0050468208
-0.0038860382
-0.0022334687
-0.00041274107
0.0011493287
-0.0018490189
-0.0010050469
-0.00015448276
0.00065000528
0.0013972129
0.0021300048
0.0029161169
0.0038139715
0.0047336902
0.0055489146
0.0045049665
0.0058278341
0.00719722
0.0083443471
0.0091993383
0.0098632511
0.010393139
0.010781908
0.010976278
0.010991051
0.007659662
0.0091673044
0.011181134
0.012929499
0.013994487
0.014613466
0.014913143
0.014811821
0.014126367
0.012807828
0.0054488565
0.0044921495
0.0058086736
0.0080225977
0.0092819708
0.009840171
0.0098651096
0.0090533948
0.0068501248
0.0033506862
0.0033050616
-0.00015655434
-0.0013896891
0.00072114138
0.0019931083
0.0024560844
0.0022022519
0.00045209207
-0.0035004566
-0.0013548455
0.0012941816
8.6052353e-05
-0.00084534007
-0.00021098023
0.0001960398
0.00033250265
0.00020588875
-0.00054652314
-0.0021270703
0.00088388427
-0.0018853806
0.0018840429
-0.0005655639
-0.00078102888
-0.00054780713
-0.00019314418
0.00037944622
0.00086937793
-0.00028950734
-0.0015507813
0.0025062937
0.0044860187
0.00016488002
1.8670315e-05
0.00072628734
0.0017902
0.0035524421
0.0054965733
0.0039225862
0.00056721937
0.00024164964
-0.0037559581
-0.0042256988
-0.0037409121
-0.0030157554
-0.0020093326
-0.00037954564
0.0019332902
0.0033043677
0.0028256876
-0.0078485196
-0.0078218844
-0.0072871123
-0.006611941
-0.0058686037
-0.0049883459
-0.0037733761
-0.0020443961
-0.00014770338
0.0014723909
-0.0016269514
-0.00074512432
0.00014457828
0.00098645513
0.0017681734
0.0025341574
0.0033556393
0.0042938913
0.0052530858
0.0061024539
0.0050326576
0.0064235376
0.0078588124
0.0090597474
0.00995404
0.010647213
0.011199034
0.011602329
0.011801115
0.011812647
0.0083282009
0.0099219841
0.012034574
0.013864607
0.014978524
0.015624341
0.015933639
0.015818847
0.015083718
0.01367384
0.0059189662
0.0049155359
0.0062891103
0.0085994492
0.0099147829
0.010496896
0.010516864
0.0096469739
0.0072876585
0.0035348289
0.0035531708
-7.7068041e-05
-0.0013761832
0.00081532938
0.0021406038
0.002623892
0.0023509218
0.00047888508
-0.0037612231
-0.0014588964
0.0013724007
0.00011112679
-0.00086451047
-0.00020799326
0.00021555239
0.00035825214
0.00022324012
-0.00058166608
-0.0022786463
0.00095321839
-0.001925373
0.0019291544
-0.00057368158
-0.00079165182
-0.00055067168
-0.00018216409
0.00041619692
0.00093122544
-0.00027978945
-0.0015864343
0.0026176443
0.0046451814
0.00023217533
8.9670934e-05
0.00082205325
0.0019272312
0.0037646425
0.0057956143
0.0041427965
0.00066202295
0.00034824689
-0.0037329624
-0.0042072635
-0.0037033879
-0.0029511067
-0.0019060225
-0.00021152222
0.0021926558
0.0036030898
0.0030942167
-0.0078695646
-0.0078350497
-0.0072796866
-0.0065788929
-0.0058072019
-0.0048934943
-0.0036318731
-0.0018371827
0.00012375129
0.0017918656
-0.0013884517
-0.00047422008
0.00044910862
0.0013231453
0.0021345072
0.0029289083
0.0037806427
0.0047534604
0.0057461814
0.0066244374
0.0055357234
0.0069860263
0.0084783126
0.0097256108
0.010653641
0.011371746
0.011942041
0.012357326
0.012559265
0.012567463
0.0089511723
0.010621257
0.012819555
0.014719935
0.015875867
0.016544487
0.016861447
0.016733844
0.015953535
0.014460991
0.0063571712
0.0053131916
0.0067353253
0.0091278036
0.01049095
0.011093342
0.011108174
0.01018543
0.0076845849
0.0037014852
0.0037823199
5.8303786e-06
-0.0013512714
0.00090739127
0.0022777769
0.0027783682
0.0024879136
0.00050551494
-0.0039960315
-0.0015511932
0.0014428358
0.000136191
-0.00087767992
-0.00020305771
0.00023439627
0.00038244624
0.00023986148
-0.00061258279
-0.0024155384
0.0010173094
-0.0019530039
0.0019628629
-0.00057777367
-0.00079690783
-0.00054965795
-0.00016958089
0.00045085859
0.00098780587
-0.00026787506
-0.0016118365
0.0027149954
0.0047778407
0.00030016626
0.00016223487
0.00091485405
0.0020544693
0.0039557076
0.0060609863
0.0043395176
0.00075479093
0.00045602587
-0.0036836303
-0.00415958
-0.0036397391
-0.0028649924
-0.0017877129
-3.8968898e-05
0.0024417092
0.0038827889
0.0033468517
-0.0078379014
-0.0077957279
-0.0072232137
-0.0065011403
-0.0057058805
-0.0047643862
-0.0034639214
-0.0016146113
0.000398455
0.0021042947
-0.0011367474
-0.00019575696
0.00075548708
0.0016562692
0.0024922412
0.0033101273
0.0041868288
0.0051881843
0.006208289
0.0071100061
0.0060093051
0.00751008
0.0090501587
0.010336103
0.011292118
0.012030691
0.012615909
0.013040591
0.013244414
0.013249215
0.009523149
0.011259229
0.013529666
0.015488651
0.016679441
0.017366708
0.017689341
0.017549685
0.016728984
0.015162963
0.0067595089
0.0056814085
0.007143319
0.0096031663
0.011005695
0.011624627
0.011634201
0.010664269
0.0080372929
0.0038484691
0.0039902856
9.082213e-05
-0.0013159097
0.00099596467
0.0024029963
0.0029177864
0.0026116197
0.00053106433
-0.00420418
-0.0016319088
0.0015048662
0.00016090476
-0.00088495162
-0.00019638669
0.00025227484
0.00040475801
0.00025547525
-0.00063925552
-0.002537074
0.001075592
-0.001968243
0.0019848207
-0.00057795433
-0.00079690303
-0.00054490975
-0.0001556086
0.00048308217
0.001038636
-0.0002539711
-0.0016269643
0.0027971367
0.0048825697
0.00036782725
0.000235312
0.0010035192
0.0021705364
0.004123871
0.0062904691
0.004510956
0.00084437286
0.00056337289
-0.0036092127
-0.0040838848
-0.0035512951
-0.0027588733
-0.0016560552
0.00013613633
0.0026780077
0.0041408389
0.0035811363
-0.0077549194
-0.0077053525
-0.0071192274
-0.006380341
-0.0055664333
-0.0046029763
-0.0032717049
-0.0013791932
0.000673582
0.0024066237
-0.0008747132
8.7228469e-05
0.0010605112
0.0019824683
0.0028378759
0.0036741821
0.0045704235
0.005594124
0.0066353089
0.0075549202
0.0064491602
0.0079911481
0.009569512
0.010886158
0.01186424
0.012618705
0.013215215
0.013646657
0.013851092
0.013852458
0.010039411
0.011830778
0.014159343
0.016164841
0.017383126
0.018084782
0.018411078
0.018260211
0.017404163
0.015774313
0.0071225508
0.0060169709
0.0075096359
0.010021674
0.011454923
0.012086559
0.0120908
0.011079643
0.0083427208
0.0039739911
0.0041751767
0.00017677616
-0.0012709196
0.0010799048
0.0025148973
0.0030407009
0.0027206982
0.0005548028
-0.004384954
-0.0017011115
0.0015579694
0.00018497619
-0.00088641937
-0.00018815886
0.00026894173
0.00042491535
0.00026985225
-0.0006616513
-0.0026426342
0.001127577
-0.0019711035
0.001994785
-0.00057432901
-0.00079174346
-0.00053656166
-0.00014043793
0.00051256515
0.0010832994
-0.0002382659
-0.0016318267
0.002863095
0.0049582567
0.00043427731
0.00030799043
0.0010870438
0.0022742618
0.0042676441
0.0064821991
0.0046556082
0.00092977135
0.00066890004
-0.0035108926
-0.0039813662
-0.0034393187
-0.0026341163
-0.0015125686
0.00031201177
0.0028993971
0.0043749548
0.003794934
-0.0076220435
-0.0075653925
-0.006969277
-0.0062181425
-0.0053906166
-0.0044111495
-0.0030572914
-0.0011332566
0.00094656386
0.0026961187
-0.00060497717
0.00037198113
0.0013612942
0.0022987313
0.0031682872
0.0040178432
0.0049280849
0.0059678067
0.0070236436
0.0079554748
0.0068515641
0.0084252543
0.010032164
0.011371382
0.01236549
0.01313118
0.013735289
0.014170818
0.014374596
0.014372513
0.01049586
0.012331466
0.014703798
0.016743432
0.017981691
0.018693396
0.019021329
0.018860168
0.017974042
0.016290406
0.0074433335
0.0063170869
0.0078312976
0.01038003
0.011835153
0.012475589
0.012474459
0.011428302
0.0085982995
0.0040765935
0.0043353875
0.00026269827
-0.0012170403
0.0011582351
0.002612335
0.0031459032
0.0028140302
0.00057614138
-0.0045376785
-0.001758813
0.0016017111
0.00020815022
-0.00088218021
-0.00017853032
0.00028418968
0.00044269047
0.00028280137
-0.00067973365
-0.0027316692
0.0011728433
-0.0019616519
0.0019926101
-0.00056700393
-0.00078154437
-0.00052474816
-0.00012424492
0.00053904376
0.001121439
-0.00022093746
-0.0016264747
0.0029120962
0.0050040682
0.00049874157
0.00037945868
0.0011645515
0.0023646469
0.0043857836
0.006634639
0.004772229
0.0010101075
0.00077138532
-0.0033898464
-0.0038532242
-0.0033050656
-0.0024920526
-0.001358696
0.0004870182
0.0031039605
0.0045831435
0.0039863782
-0.0074408118
-0.0073774282
-0.0067750019
-0.0060162566
-0.0051802216
-0.004190791
-0.0028227007
-0.00087901167
0.0012150265
0.0029703054
-0.00032999935
0.00065594985
0.0016551889
0.0026023194
0.0034806545
0.0043382135
0.0052568349
0.0063061602
0.007370134
0.0083084372
0.0072132385
0.0088089264
0.010434471
0.011787997
0.012791992
0.013564178
0.014172153
0.014609076
0.014810934
0.014805413
0.010888965
0.012757491
0.015158957
0.017220147
0.018470737
0.019188094
0.019515635
0.019345167
0.018434422
0.016707376
0.0077193083
0.0065793365
0.0081057537
0.010675462
0.012143481
0.012788761
0.012782262
0.011707548
0.0088019077
0.0041551
0.0044695637
0.0003476933
-0.0011549678
0.0012301111
0.0026943493
0.0032323881
0.0028906864
0.00059459718
-0.0046617614
-0.0018050062
0.0016357372
0.00023020002
-0.00087234378
-0.00016764351
0.00029784217
0.00045789192
0.00029416154
-0.00069347172
-0.0028037103
0.0012110318
-0.0019400158
0.00197824
-0.00055609333
-0.00076643742
-0.00050961051
-0.00010719749
0.00056228695
0.0011527521
-0.00020215976
-0.001611008
0.002943536
0.0050194197
0.00056052184
0.00044897664
0.0012352664
0.0024408381
0.0044772661
0.0067465553
0.0048598067
0.0010845942
0.00086972656
-0.0032472895
-0.0037007166
-0.0031498292
-0.0023340215
-0.0011958472
0.00065961804
0.00328998
0.0047636666
0.0041538346
-0.0072129334
-0.0071432092
-0.0065381889
-0.0057765141
-0.0049371289
-0.0039438396
-0.0025699563
-0.00061860028
0.0014767424
0.003226922
-5.2131085e-05
0.0009367288
0.0019397303
0.0028907109
0.0037724049
0.0046326745
0.005554007
0.006606462
0.0076720098
0.0086109983
0.0075312974
0.0091391436
0.010773297
0.012132783
0.01314047
0.013914385
0.014522473
0.014958091
0.015156782
0.015147855
0.011215709
0.013105633
0.015521426
0.017591461
0.018846665
0.019565248
0.019890372
0.019711644
0.01878189
0.017022081
0.007948304
0.006801634
0.0083308447
0.010905683
0.012377543
0.013023685
0.013011852
0.011915204
0.0089518378
0.0042085752
0.0045765767
0.00043093651
-0.0010853844
0.0012947911
0.0027601378
0.0032993275
0.0029499013
0.00060976523
-0.0047567276
-0.0018396955
0.0016597688
0.00025092059
-0.00085703949
-0.00015563404
0.00030974692
0.00047035829
0.00030379548
-0.00070284762
-0.0028583796
0.0012418404
-0.0019063894
0.0019517021
-0.0005417252
-0.00074657622
-0.00049130229
-8.9460749e-05
0.00058209167
0.0011769862
-0.00018210786
-0.0015855812
0.002956955
0.0050039513
0.00061897283
0.00051585225
0.0012984902
0.0025021042
0.0045412673
0.0068169987
0.004917543
0.0011525146
0.00096290425
-0.0030845133
-0.0035251948
-0.0029749766
-0.0021614055
-0.0010254323
0.00082834268
0.003455906
0.004915009
0.0042958696
-0.0069403329
-0.0068646986
-0.0062608156
-0.0055009092
-0.0046633509
-0.003672329
-0.0023011253
-0.00035413494
0.0017295923
0.0034638813
0.00022633801
0.0012120112
0.00221259
0.0031615554
0.0040411701
0.0048988441
0.0058172048
0.0068662987
0.0079268496
0.0088607335
0.0078032031
0.0094132941
0.01104598
0.012403042
0.013408206
0.014179077
0.014783526
0.015215152
0.015409448
0.015397169
0.011473557
0.013373227
0.015788451
0.017854566
0.019106645
0.01982202
0.02014272
0.019956832
0.019013801
0.017232078
0.0081284961
0.0069821968
0.0085047718
0.011068863
0.012535489
0.013178508
0.013161412
0.012049589
0.0090467652
0.0042362901
0.0046555016
0.00051165046
-0.0010089825
0.0013516141
0.0028090338
0.0033460489
0.0029910514
0.00062129477
-0.0048222476
-0.001862923
0.0016735968
0.00027012345
-0.00083642212
-0.00014263615
0.00031977057
0.00047995308
0.00031158447
-0.00070786257
-0.0028953989
0.0012650205
-0.0018610381
0.0019131018
-0.00052404612
-0.00072214106
-0.00046999399
-7.1201464e-05
0.00059827858
0.0011939349
-0.00016096223
-0.0015504077
0.0029520166
0.0049575047
0.00067348149
0.00057942133
0.001353582
0.0025478177
0.0045771437
0.0068452865
0.0049448343
0.0012132029
0.0010499492
-0.0029029151
-0.0033281341
-0.0027819774
-0.001975659
-0.00084889096
0.00099176453
0.0036003291
0.0050358526
0.0044112228
-0.0066251874
-0.0065441092
-0.0059450869
-0.0051916341
-0.0043610668
-0.0033784226
-0.0020183526
-8.7731905e-05
0.0019715328
0.0036792385
0.00050314065
0.0014795501
0.002471537
0.0034126364
0.0042847485
0.0051345387
0.0060442655
0.0070835301
0.0081325453
0.0090555667
0.0080267286
0.0096291374
0.01125029