/*--------------------------------*- C++ -*----------------------------------*\
| =========                 |                                                 |
| \\      /  F ield         | OpenFOAM: The Open Source CFD Toolbox           |
|  \\    /   O peration     | Version:  v2106                                 |
|   \\  /    A nd           | Website:  www.openfoam.com                      |
|    \\/     M anipulation  |                                                 |
\*---------------------------------------------------------------------------*/
FoamFile
{
    version     2.0;
    format      ascii;
    arch        "LSB;label=32;scalar=64";
    class       volScalarField;
    location    "25";
    object      gradTz;
}
// * * * * * * * * * * * * * * * * * * * * * * * * * * * * * * * * * * * * * //

dimensions      [0 -1 0 1 0 0 0];

internalField   nonuniform List<scalar> 
4000
(
717.74649
717.74543
717.74853
717.74683
717.74554
717.74515
717.74529
717.74562
717.7459
717.74611
717.74543
717.74752
717.74863
717.7467
717.74552
717.74524
717.74548
717.74588
717.746
717.74589
717.74853
717.74863
717.74943
717.74755
717.74646
717.74628
717.74668
717.74728
717.74745
717.74701
717.74683
717.7467
717.74755
717.74575
717.74474
717.74465
717.74519
717.746
717.74647
717.74633
717.74554
717.74552
717.74646
717.74474
717.74379
717.74378
717.74441
717.74534
717.74596
717.74597
717.74515
717.74524
717.74628
717.74465
717.74378
717.74384
717.74453
717.74552
717.74619
717.74625
717.74529
717.74548
717.74668
717.74519
717.74441
717.74453
717.74528
717.74629
717.74698
717.74702
717.74562
717.74588
717.74728
717.746
717.74534
717.74552
717.74629
717.74731
717.74797
717.74796
717.7459
717.746
717.74745
717.74647
717.74596
717.74619
717.74698
717.74797
717.74854
717.74844
717.74611
717.74589
717.74701
717.74633
717.74597
717.74625
717.74702
717.74796
717.74844
717.74824
717.96265
717.96212
717.96338
717.96201
717.961
717.96073
717.96095
717.96131
717.96152
717.96195
717.96212
717.96286
717.9632
717.96173
717.9608
717.96062
717.96096
717.9614
717.96131
717.96133
717.96338
717.9632
717.96335
717.9619
717.96103
717.96096
717.96146
717.96211
717.96208
717.96183
717.96201
717.96173
717.9619
717.96051
717.95971
717.95972
717.96036
717.96122
717.96145
717.96144
717.961
717.9608
717.96103
717.95971
717.95898
717.95907
717.9598
717.96078
717.96115
717.96128
717.96073
717.96062
717.96096
717.95972
717.95907
717.95923
717.96002
717.96106
717.96149
717.96166
717.96095
717.96096
717.96146
717.96036
717.9598
717.96002
717.96086
717.96193
717.96236
717.96251
717.96131
717.9614
717.96211
717.96122
717.96078
717.96106
717.96193
717.96298
717.96336
717.96342
717.96152
717.96131
717.96208
717.96145
717.96115
717.96149
717.96236
717.96336
717.96362
717.96351
717.96195
717.96133
717.96183
717.96144
717.96128
717.96166
717.96251
717.96342
717.96351
717.96358
718.35894
718.35841
718.35901
718.35782
718.35702
718.35689
718.35722
718.35766
718.35774
718.35817
718.35841
718.3588
718.35881
718.35757
718.35683
718.35679
718.35728
718.35782
718.35757
718.35755
718.35901
718.35881
718.35871
718.35748
718.35681
718.35687
718.35752
718.35829
718.3581
718.35785
718.35782
718.35757
718.35748
718.35631
718.3557
718.35585
718.35663
718.3576
718.35765
718.3576
718.35702
718.35683
718.35681
718.3557
718.35516
718.35538
718.35625
718.35734
718.35752
718.35759
718.35689
718.35679
718.35687
718.35585
718.35538
718.35567
718.35661
718.35775
718.35798
718.3581
718.35722
718.35728
718.35752
718.35663
718.35625
718.35661
718.35758
718.35875
718.35898
718.35906
718.35766
718.35782
718.35829
718.3576
718.35734
718.35775
718.35875
718.35989
718.36003
718.35997
718.35774
718.35757
718.3581
718.35765
718.35752
718.35798
718.35898
718.36003
718.35997
718.35964
718.35817
718.35755
718.35785
718.3576
718.35759
718.3581
718.35906
718.35997
718.35964
718.35993
718.94971
718.94912
718.9497
718.94866
718.94802
718.94802
718.94849
718.94904
718.9491
718.9494
718.94912
718.94938
718.94942
718.94835
718.94776
718.94786
718.94849
718.94918
718.94893
718.94889
718.9497
718.94942
718.94937
718.94832
718.9478
718.94799
718.94878
718.94968
718.94948
718.9492
718.94866
718.94835
718.94832
718.94732
718.94687
718.94714
718.94806
718.94916
718.94917
718.94906
718.94802
718.94776
718.9478
718.94687
718.94647
718.94682
718.94782
718.94903
718.94917
718.94917
718.94802
718.94786
718.94799
718.94714
718.94682
718.94723
718.94829
718.94956
718.94975
718.94978
718.94849
718.94849
718.94878
718.94806
718.94782
718.94829
718.9494
718.95068
718.95086
718.95086
718.94904
718.94918
718.94968
718.94916
718.94903
718.94956
718.95068
718.95194
718.952
718.9518
718.9491
718.94893
718.94948
718.94917
718.94917
718.94975
718.95086
718.952
718.95179
718.95121
718.9494
718.94889
718.9492
718.94906
718.94917
718.94978
718.95086
718.9518
718.95121
718.95153
719.73161
719.73109
719.73172
719.73082
719.7303
719.73042
719.73101
719.73168
719.73182
719.73211
719.73109
719.73137
719.73149
719.73055
719.73009
719.7303
719.73104
719.73185
719.73169
719.73167
719.73172
719.73149
719.73152
719.73061
719.73021
719.73051
719.7314
719.73242
719.73228
719.73203
719.73082
719.73055
719.73061
719.72975
719.72941
719.72979
719.73081
719.73201
719.73207
719.73197
719.7303
719.73009
719.73021
719.72941
719.72914
719.72959
719.73069
719.732
719.73218
719.73218
719.73042
719.7303
719.73051
719.72979
719.72959
719.7301
719.73126
719.73262
719.73285
719.73289
719.73101
719.73104
719.7314
719.73081
719.73069
719.73126
719.73245
719.73383
719.73404
719.73405
719.73168
719.73185
719.73242
719.73201
719.732
719.73262
719.73383
719.73517
719.73526
719.73504
719.73182
719.73169
719.73228
719.73207
719.73218
719.73285
719.73404
719.73526
719.73505
719.73437
719.73211
719.73167
719.73203
719.73197
719.73218
719.73289
719.73405
719.73504
719.73437
719.73466
720.70034
720.69989
720.70054
720.69976
720.69935
720.69955
720.70022
720.70097
720.70117
720.70147
720.69989
720.70019
720.70036
720.69954
720.69919
720.69948
720.70029
720.70117
720.70108
720.70109
720.70054
720.70036
720.70045
720.69966
720.69936
720.69974
720.7007
720.70177
720.7017
720.70148
720.69976
720.69954
720.69966
720.69891
720.69868
720.69913
720.70021
720.70146
720.70158
720.7015
720.69935
720.69919
720.69936
720.69868
720.6985
720.69902
720.70018
720.70154
720.70176
720.70178
720.69955
720.69948
720.69974
720.69913
720.69902
720.6996
720.70081
720.70222
720.70249
720.70254
720.70022
720.70029
720.7007
720.70021
720.70018
720.70081
720.70206
720.70349
720.70374
720.70375
720.70097
720.70117
720.70177
720.70146
720.70154
720.70222
720.70349
720.70487
720.705
720.70479
720.70117
720.70108
720.7017
720.70158
720.70176
720.70249
720.70374
720.705
720.70481
720.70411
720.70147
720.70109
720.70148
720.7015
720.70178
720.70254
720.70375
720.70479
720.70411
720.70438
721.84991
721.84951
721.85017
721.84948
721.84916
721.84943
721.85014
721.85093
721.85117
721.85148
721.84951
721.84982
721.85002
721.8493
721.84903
721.84938
721.85023
721.85115
721.85111
721.85114
721.85017
721.85002
721.85014
721.84945
721.84924
721.84967
721.85067
721.85177
721.85175
721.85155
721.84948
721.8493
721.84945
721.84881
721.84865
721.84916
721.85027
721.85154
721.85169
721.85163
721.84916
721.84903
721.84924
721.84865
721.84855
721.84912
721.85031
721.85168
721.85193
721.85196
721.84943
721.84938
721.84967
721.84916
721.84912
721.84975
721.85099
721.85241
721.8527
721.85276
721.85014
721.85023
721.85067
721.85027
721.85031
721.85099
721.85226
721.85369
721.85397
721.85399
721.85093
721.85115
721.85177
721.85154
721.85168
721.85241
721.85369
721.85508
721.85524
721.85504
721.85117
721.85111
721.85175
721.85169
721.85193
721.8527
721.85397
721.85524
721.85507
721.85439
721.85148
721.85114
721.85155
721.85163
721.85196
721.85276
721.85399
721.85504
721.85439
721.85465
723.17316
723.1728
723.17344
723.17284
723.1726
723.17292
723.17366
723.17446
723.17473
723.17504
723.1728
723.1731
723.17332
723.17269
723.17249
723.17289
723.17376
723.17469
723.17468
723.17473
723.17344
723.17332
723.17347
723.17286
723.17272
723.17319
723.1742
723.17531
723.17532
723.17515
723.17284
723.17269
723.17286
723.1723
723.17221
723.17276
723.17388
723.17515
723.17532
723.17527
723.1726
723.17249
723.17272
723.17221
723.17218
723.17278
723.17397
723.17533
723.1756
723.17564
723.17292
723.17289
723.17319
723.17276
723.17278
723.17344
723.17468
723.17608
723.17639
723.17646
723.17366
723.17376
723.1742
723.17388
723.17397
723.17468
723.17594
723.17736
723.17765
723.17769
723.17446
723.17469
723.17531
723.17515
723.17533
723.17608
723.17736
723.17874
723.17891
723.17873
723.17473
723.17468
723.17532
723.17532
723.1756
723.17639
723.17765
723.17891
723.17877
723.17811
723.17504
723.17473
723.17515
723.17527
723.17564
723.17646
723.17769
723.17873
723.17811
723.17837
724.66188
724.66156
724.66218
724.66166
724.66148
724.66183
724.66258
724.66339
724.66367
724.66397
724.66156
724.66184
724.66207
724.66152
724.66139
724.66182
724.6627
724.66362
724.66364
724.6637
724.66218
724.66207
724.66224
724.66172
724.66163
724.66213
724.66314
724.66423
724.66426
724.66412
724.66166
724.66152
724.66172
724.66124
724.6612
724.66177
724.66287
724.66412
724.6643
724.66427
724.66148
724.66139
724.66163
724.6612
724.66122
724.66184
724.66301
724.66435
724.66462
724.66467
724.66183
724.66182
724.66213
724.66177
724.66184
724.66251
724.66373
724.6651
724.66541
724.66549
724.66258
724.6627
724.66314
724.66287
724.66301
724.66373
724.66497
724.66636
724.66665
724.6667
724.66339
724.66362
724.66423
724.66412
724.66435
724.6651
724.66636
724.6677
724.66788
724.66772
724.66367
724.66364
724.66426
724.6643
724.66462
724.66541
724.66665
724.66788
724.66776
724.66713
724.66397
724.6637
724.66412
724.66427
724.66467
724.66549
724.6667
724.66772
724.66713
724.66739
726.30688
726.30659
726.30718
726.30673
726.30661
726.30699
726.30774
726.30853
726.30881
726.30911
726.30659
726.30686
726.30709
726.30662
726.30654
726.30699
726.30786
726.30876
726.3088
726.30887
726.30718
726.30709
726.30726
726.30682
726.30679
726.3073
726.30828
726.30935
726.3094
726.30927
726.30673
726.30662
726.30682
726.30641
726.30643
726.307
726.30808
726.30929
726.30948
726.30946
726.30661
726.30654
726.30679
726.30643
726.30649
726.30711
726.30826
726.30954
726.30982
726.30987
726.30699
726.30699
726.3073
726.307
726.30711
726.30779
726.30897
726.31029
726.3106
726.31068
726.30774
726.30786
726.30828
726.30808
726.30826
726.30897
726.31018
726.31151
726.3118
726.31185
726.30853
726.30876
726.30935
726.30929
726.30954
726.31029
726.31151
726.3128
726.31298
726.31283
726.30881
726.3088
726.3094
726.30948
726.30982
726.3106
726.3118
726.31298
726.31288
726.31229
726.30911
726.30887
726.30927
726.30946
726.30987
726.31068
726.31185
726.31283
726.31229
726.31253
728.098
728.09775
728.09829
728.09791
728.09785
728.09824
728.09897
728.09974
728.10003
728.10031
728.09775
728.09799
728.09822
728.09782
728.09779
728.09825
728.09909
728.09997
728.10002
728.10009
728.09829
728.09822
728.09839
728.09802
728.09803
728.09855
728.0995
728.10053
728.10059
728.10049
728.09791
728.09782
728.09802
728.09769
728.09774
728.09831
728.09935
728.10051
728.1007
728.10069
728.09785
728.09779
728.09803
728.09774
728.09784
728.09846
728.09956
728.10078
728.10105
728.10111
728.09824
728.09825
728.09855
728.09831
728.09846
728.09912
728.10026
728.10152
728.10182
728.1019
728.09897
728.09909
728.0995
728.09935
728.09956
728.10026
728.10141
728.10268
728.10296
728.10302
728.09974
728.09997
728.10053
728.10051
728.10078
728.10152
728.10268
728.10391
728.10409
728.10395
728.10003
728.10002
728.10059
728.1007
728.10105
728.10182
728.10296
728.10409
728.104
728.10345
728.10031
728.10009
728.10049
728.10069
728.10111
728.1019
728.10302
728.10395
728.10345
728.10368
730.02418
730.02397
730.02446
730.02416
730.02414
730.02453
730.02524
730.02598
730.02626
730.02652
730.02397
730.02418
730.0244
730.02408
730.0241
730.02455
730.02536
730.0262
730.02627
730.02634
730.02446
730.0244
730.02458
730.02428
730.02433
730.02484
730.02575
730.02672
730.0268
730.02671
730.02416
730.02408
730.02428
730.02401
730.0241
730.02466
730.02565
730.02674
730.02693
730.02693
730.02414
730.0241
730.02433
730.0241
730.02423
730.02484
730.02588
730.02703
730.02729
730.02735
730.02453
730.02455
730.02484
730.02466
730.02484
730.02548
730.02656
730.02774
730.02803
730.02811
730.02524
730.02536
730.02575
730.02565
730.02588
730.02656
730.02765
730.02884
730.02911
730.02916
730.02598
730.0262
730.02672
730.02674
730.02703
730.02774
730.02884
730.03
730.03017
730.03005
730.02626
730.02627
730.0268
730.02693
730.02729
730.02803
730.02911
730.03017
730.03009
730.02957
730.02652
730.02634
730.02671
730.02693
730.02735
730.02811
730.02916
730.03005
730.02957
730.0298
732.07355
732.07337
732.0738
732.07357
732.0736
732.074
732.07467
732.07537
732.07564
732.07589
732.07337
732.07355
732.07376
732.07352
732.07357
732.07402
732.07479
732.07558
732.07566
732.07573
732.0738
732.07376
732.07393
732.0737
732.07379
732.07429
732.07515
732.07606
732.07614
732.07608
732.07357
732.07352
732.0737
732.07351
732.07363
732.07417
732.0751
732.07612
732.0763
732.07631
732.0736
732.07357
732.07379
732.07363
732.07379
732.07437
732.07535
732.07642
732.07666
732.07672
732.074
732.07402
732.07429
732.07417
732.07437
732.07499
732.07599
732.07709
732.07736
732.07744
732.07467
732.07479
732.07515
732.0751
732.07535
732.07599
732.07701
732.07812
732.07837
732.07842
732.07537
732.07558
732.07606
732.07612
732.07642
732.07709
732.07812
732.07919
732.07935
732.07924
732.07564
732.07566
732.07614
732.0763
732.07666
732.07736
732.07837
732.07935
732.07928
732.07881
732.07589
732.07573
732.07608
732.07631
732.07672
732.07744
732.07842
732.07924
732.07881
732.07902
734.23346
734.23332
734.23369
734.23353
734.23359
734.23399
734.23463
734.23528
734.23553
734.23576
734.23332
734.23347
734.23366
734.23349
734.23358
734.23402
734.23474
734.23547
734.23556
734.23563
734.23369
734.23366
734.23382
734.23367
734.23379
734.23427
734.23507
734.23591
734.236
734.23595
734.23353
734.23349
734.23367
734.23353
734.23369
734.23421
734.23507
734.236
734.23617
734.23618
734.23359
734.23358
734.23379
734.23369
734.23387
734.23442
734.23532
734.2363
734.23653
734.23659
734.23399
734.23402
734.23427
734.23421
734.23442
734.23501
734.23593
734.23694
734.23718
734.23726
734.23463
734.23474
734.23507
734.23507
734.23532
734.23593
734.23687
734.23788
734.23811
734.23817
734.23528
734.23547
734.23591
734.236
734.2363
734.23694
734.23788
734.23886
734.23901
734.23891
734.23553
734.23556
734.236
734.23617
734.23653
734.23718
734.23811
734.23901
734.23895
734.23852
734.23576
734.23563
734.23595
734.23618
734.23659
734.23726
734.23817
734.23891
734.23852
734.23872
736.49059
736.49049
736.4908
736.4907
736.49081
736.49119
736.49178
736.49239
736.49262
736.49282
736.49049
736.4906
736.49078
736.49068
736.4908
736.49123
736.49189
736.49256
736.49266
736.49273
736.4908
736.49078
736.49093
736.49084
736.491
736.49146
736.49219
736.49295
736.49304
736.49301
736.4907
736.49068
736.49084
736.49078
736.49095
736.49145
736.49223
736.49307
736.49324
736.49325
736.49081
736.4908
736.491
736.49095
736.49116
736.49168
736.4925
736.49338
736.49359
736.49364
736.49119
736.49123
736.49146
736.49145
736.49168
736.49222
736.49306
736.49397
736.49419
736.49426
736.49178
736.49189
736.49219
736.49223
736.4925
736.49306
736.49391
736.49482
736.49503
736.49508
736.49239
736.49256
736.49295
736.49307
736.49338
736.49397
736.49482
736.4957
736.49584
736.49575
736.49262
736.49266
736.49304
736.49324
736.49359
736.49419
736.49503
736.49584
736.49578
736.49539
736.49282
736.49273
736.49301
736.49325
736.49364
736.49426
736.49508
736.49575
736.49539
736.49558
738.83102
738.83096
738.8312
738.83118
738.83132
738.83169
738.83223
738.83278
738.833
738.83317
738.83096
738.83104
738.8312
738.83117
738.83133
738.83173
738.83233
738.83294
738.83304
738.83311
738.8312
738.8312
738.83134
738.83132
738.8315
738.83193
738.83259
738.83327
738.83337
738.83335
738.83118
738.83117
738.83132
738.83132
738.83152
738.83198
738.83268
738.83342
738.83357
738.8336
738.83132
738.83133
738.8315
738.83152
738.83174
738.83222
738.83295
738.83373
738.83392
738.83397
738.83169
738.83173
738.83193
738.83198
738.83222
738.83272
738.83347
738.83426
738.83446
738.83453
738.83223
738.83233
738.83259
738.83268
738.83295
738.83347
738.83422
738.83502
738.83521
738.83525
738.83278
738.83294
738.83327
738.83342
738.83373
738.83426
738.83502
738.83579
738.83591
738.83584
738.833
738.83304
738.83337
738.83357
738.83392
738.83446
738.83521
738.83591
738.83587
738.83552
738.83317
738.83311
738.83335
738.8336
738.83397
738.83453
738.83525
738.83584
738.83552
738.83569
741.24033
741.24031
741.24048
741.24052
741.2407
741.24105
741.24154
741.24202
741.24222
741.24237
741.24031
741.24035
741.24049
741.24053
741.24072
741.2411
741.24163
741.24217
741.24227
741.24234
741.24048
741.24049
741.24062
741.24067
741.24087
741.24127
741.24185
741.24245
741.24254
741.24254
741.24052
741.24053
741.24067
741.24073
741.24095
741.24137
741.24198
741.24263
741.24276
741.24279
741.2407
741.24072
741.24087
741.24095
741.24119
741.24162
741.24226
741.24293
741.24309
741.24314
741.24105
741.2411
741.24127
741.24137
741.24162
741.24208
741.24272
741.2434
741.24358
741.24363
741.24154
741.24163
741.24185
741.24198
741.24226
741.24272
741.24338
741.24406
741.24422
741.24426
741.24202
741.24217
741.24245
741.24263
741.24293
741.2434
741.24406
741.24472
741.24482
741.24476
741.24222
741.24227
741.24254
741.24276
741.24309
741.24358
741.24422
741.24482
741.24478
741.24449
741.24237
741.24234
741.24254
741.24279
741.24314
741.24363
741.24426
741.24476
741.24449
741.24463
743.70366
743.70367
743.70378
743.70388
743.70409
743.70442
743.70485
743.70527
743.70545
743.70557
743.70367
743.70368
743.70379
743.7039
743.70412
743.70447
743.70494
743.7054
743.7055
743.70557
743.70378
743.70379
743.70391
743.70402
743.70425
743.70462
743.70512
743.70562
743.70571
743.70573
743.70388
743.7039
743.70402
743.70415
743.70439
743.70477
743.70529
743.70582
743.70594
743.70597
743.70409
743.70412
743.70425
743.70439
743.70464
743.70503
743.70557
743.70612
743.70625
743.7063
743.70442
743.70447
743.70462
743.70477
743.70503
743.70543
743.70598
743.70654
743.70668
743.70673
743.70485
743.70494
743.70512
743.70529
743.70557
743.70598
743.70652
743.70708
743.70721
743.70725
743.70527
743.7054
743.70562
743.70582
743.70612
743.70654
743.70708
743.70762
743.70771
743.70766
743.70545
743.7055
743.70571
743.70594
743.70625
743.70668
743.70721
743.70771
743.70767
743.70743
743.70557
743.70557
743.70573
743.70597
743.7063
743.70673
743.70725
743.70766
743.70743
743.70756
746.20582
746.20587
746.2059
746.20607
746.20631
746.20662
746.20699
746.20734
746.20749
746.20758
746.20587
746.20584
746.20593
746.2061
746.20635
746.20667
746.20706
746.20744
746.20755
746.20761
746.2059
746.20593
746.20603
746.20621
746.20646
746.20679
746.2072
746.2076
746.2077
746.20774
746.20607
746.2061
746.20621
746.20639
746.20665
746.20699
746.20741
746.20783
746.20794
746.20797
746.20631
746.20635
746.20646
746.20665
746.20691
746.20725
746.20769
746.20812
746.20823
746.20827
746.20662
746.20667
746.20679
746.20699
746.20725
746.2076
746.20804
746.20847
746.20858
746.20863
746.20699
746.20706
746.2072
746.20741
746.20769
746.20804
746.20847
746.20891
746.20901
746.20904
746.20734
746.20744
746.2076
746.20783
746.20812
746.20847
746.20891
746.20932
746.20939
746.20936
746.20749
746.20755
746.2077
746.20794
746.20823
746.20858
746.20901
746.20939
746.20936
746.20917
746.20758
746.20761
746.20774
746.20797
746.20827
746.20863
746.20904
746.20936
746.20917
746.20928
748.73138
748.73146
748.73143
748.73165
748.73193
748.73221
748.73252
748.7328
748.73292
748.73298
748.73146
748.7314
748.73146
748.73171
748.73198
748.73226
748.73258
748.73288
748.73298
748.73304
748.73143
748.73146
748.73155
748.73179
748.73206
748.73235
748.73267
748.73298
748.73307
748.73312
748.73165
748.73171
748.73179
748.73204
748.73231
748.7326
748.73292
748.73323
748.73331
748.73335
748.73193
748.73198
748.73206
748.73231
748.73258
748.73287
748.73319
748.7335
748.73358
748.73362
748.73221
748.73226
748.73235
748.7326
748.73287
748.73316
748.73348
748.73379
748.73387
748.7339
748.73252
748.73258
748.73267
748.73292
748.73319
748.73348
748.7338
748.73411
748.73418
748.73421
748.7328
748.73288
748.73298
748.73323
748.7335
748.73379
748.73411
748.7344
748.73445
748.73443
748.73292
748.73298
748.73307
748.73331
748.73358
748.73387
748.73418
748.73445
748.73443
748.73429
748.73298
748.73304
748.73312
748.73335
748.73362
748.7339
748.73421
748.73443
748.73429
748.73437
751.26477
751.26489
751.26478
751.26507
751.26537
751.26563
751.26587
751.26607
751.26618
751.2662
751.26489
751.26479
751.26483
751.26514
751.26543
751.26568
751.26592
751.26613
751.26624
751.26629
751.26478
751.26483
751.26489
751.2652
751.26549
751.26573
751.26596
751.26617
751.26626
751.26633
751.26507
751.26514
751.2652
751.26551
751.26579
751.26603
751.26625
751.26644
751.26651
751.26655
751.26537
751.26543
751.26549
751.26579
751.26606
751.2663
751.26652
751.2667
751.26675
751.26678
751.26563
751.26568
751.26573
751.26603
751.2663
751.26653
751.26674
751.26692
751.26697
751.26699
751.26587
751.26592
751.26596
751.26625
751.26652
751.26674
751.26695
751.26712
751.26716
751.26719
751.26607
751.26613
751.26617
751.26644
751.2667
751.26692
751.26712
751.26729
751.26732
751.26731
751.26618
751.26624
751.26626
751.26651
751.26675
751.26697
751.26716
751.26732
751.2673
751.26721
751.2662
751.26629
751.26633
751.26655
751.26678
751.26699
751.26719
751.26731
751.26721
751.26727
753.79038
753.79053
753.79035
753.7907
753.79102
753.79125
753.79142
753.79155
753.79163
753.79162
753.79053
753.7904
753.79041
753.79078
753.79109
753.7913
753.79146
753.79159
753.79169
753.79174
753.79035
753.79041
753.79046
753.79082
753.79112
753.79132
753.79146
753.79156
753.79165
753.79173
753.7907
753.79078
753.79082
753.79118
753.79147
753.79166
753.79178
753.79186
753.7919
753.79194
753.79102
753.79109
753.79112
753.79147
753.79175
753.79193
753.79204
753.7921
753.79212
753.79214
753.79125
753.7913
753.79132
753.79166
753.79193
753.7921
753.7922
753.79225
753.79226
753.79228
753.79142
753.79146
753.79146
753.79178
753.79204
753.7922
753.79228
753.79233
753.79234
753.79235
753.79155
753.79159
753.79156
753.79186
753.7921
753.79225
753.79233
753.79236
753.79237
753.79238
753.79163
753.79169
753.79165
753.7919
753.79212
753.79226
753.79234
753.79237
753.79236
753.79233
753.79162
753.79174
753.79173
753.79194
753.79214
753.79228
753.79235
753.79238
753.79233
753.79236
756.29263
756.29281
756.29256
756.29297
756.29331
756.2935
756.2936
756.29366
756.29371
756.29367
756.29281
756.29264
756.29263
756.29306
756.29338
756.29356
756.29363
756.29368
756.29377
756.29382
756.29256
756.29263
756.29266
756.29308
756.29339
756.29355
756.29359
756.29359
756.29367
756.29377
756.29297
756.29306
756.29308
756.29349
756.29379
756.29393
756.29394
756.2939
756.29392
756.29396
756.29331
756.29338
756.29339
756.29379
756.29407
756.29419
756.29419
756.29412
756.29411
756.29413
756.2935
756.29356
756.29355
756.29393
756.29419
756.2943
756.29428
756.29419
756.29418
756.29418
756.2936
756.29363
756.29359
756.29394
756.29419
756.29428
756.29425
756.29416
756.29414
756.29414
756.29366
756.29368
756.29359
756.2939
756.29412
756.29419
756.29416
756.29406
756.29405
756.29407
756.29371
756.29377
756.29367
756.29392
756.29411
756.29418
756.29414
756.29405
756.29404
756.29407
756.29367
756.29382
756.29377
756.29396
756.29413
756.29418
756.29414
756.29407
756.29407
756.29408
758.75609
758.75631
758.75599
758.75644
758.75681
758.75697
758.75699
758.75697
758.75699
758.75692
758.75631
758.7561
758.75606
758.75655
758.75689
758.75702
758.75701
758.75697
758.75706
758.7571
758.75599
758.75606
758.75607
758.75655
758.75687
758.75698
758.75692
758.75682
758.75689
758.757
758.75644
758.75655
758.75655
758.75701
758.75731
758.75739
758.7573
758.75714
758.75714
758.75719
758.75681
758.75689
758.75687
758.75731
758.75759
758.75765
758.75754
758.75734
758.7573
758.75731
758.75697
758.75702
758.75698
758.75739
758.75765
758.75769
758.75756
758.75734
758.75729
758.75729
758.75699
758.75701
758.75692
758.7573
758.75754
758.75756
758.75741
758.75718
758.75713
758.75713
758.75697
758.75697
758.75682
758.75714
758.75734
758.75734
758.75718
758.75696
758.75693
758.75695
758.75699
758.75706
758.75689
758.75714
758.7573
758.75729
758.75713
758.75693
758.75692
758.757
758.75692
758.7571
758.757
758.75719
758.75731
758.75729
758.75713
758.75695
758.757
758.75699
761.16558
761.16583
761.16544
761.16594
761.16632
761.16645
761.1664
761.1663
761.16629
761.1662
761.16583
761.16559
761.16552
761.16606
761.16641
761.1665
761.16641
761.16628
761.16636
761.16639
761.16544
761.16552
761.16551
761.16604
761.16637
761.16642
761.16627
761.16606
761.16613
761.16626
761.16594
761.16606
761.16604
761.16654
761.16685
761.16688
761.16668
761.16639
761.16638
761.16642
761.16632
761.16641
761.16637
761.16685
761.16713
761.16713
761.1669
761.16657
761.16651
761.16651
761.16645
761.1665
761.16642
761.16688
761.16713
761.1671
761.16685
761.1665
761.16642
761.1664
761.1664
761.16641
761.16627
761.16668
761.1669
761.16685
761.16658
761.16622
761.16614
761.16613
761.1663
761.16628
761.16606
761.16639
761.16657
761.1665
761.16622
761.16587
761.16581
761.16585
761.16629
761.16636
761.16613
761.16638
761.16651
761.16642
761.16614
761.16581
761.16582
761.16594
761.1662
761.16639
761.16626
761.16642
761.16651
761.1664
761.16613
761.16585
761.16594
761.16591
763.50624
763.50652
763.50606
763.50662
763.50701
763.50709
763.50697
763.5068
763.50676
763.50663
763.50652
763.50625
763.50615
763.50674
763.5071
763.50715
763.50697
763.50675
763.50683
763.50685
763.50606
763.50615
763.50612
763.5067
763.50703
763.50703
763.50678
763.50647
763.50653
763.50667
763.50662
763.50674
763.5067
763.50724
763.50755
763.50752
763.50721
763.50681
763.50677
763.50682
763.50701
763.5071
763.50703
763.50755
763.50782
763.50776
763.50741
763.50696
763.50687
763.50686
763.50709
763.50715
763.50703
763.50752
763.50776
763.50767
763.50729
763.50682
763.5067
763.50668
763.50697
763.50697
763.50678
763.50721
763.50741
763.50729
763.5069
763.50642
763.5063
763.50629
763.5068
763.50675
763.50647
763.50681
763.50696
763.50682
763.50642
763.50594
763.50586
763.50591
763.50676
763.50683
763.50653
763.50677
763.50687
763.5067
763.5063
763.50586
763.50587
763.50605
763.50663
763.50685
763.50667
763.50682
763.50686
763.50668
763.50629
763.50591
763.50605
763.50598
765.76365
765.76395
765.76343
765.76402
765.76442
765.76447
765.76428
765.76402
765.76395
765.76379
765.76395
765.76365
765.76353
765.76416
765.76452
765.76452
765.76426
765.76395
765.76402
765.76404
765.76343
765.76353
765.76348
765.76409
765.76442
765.76437
765.76403
765.76361
765.76366
765.76381
765.76402
765.76416
765.76409
765.76468
765.76497
765.76488
765.76447
765.76396
765.76389
765.76394
765.76442
765.76452
765.76442
765.76497
765.76524
765.76511
765.76466
765.76408
765.76395
765.76394
765.76447
765.76452
765.76437
765.76488
765.76511
765.76495
765.76446
765.76386
765.76371
765.76367
765.76428
765.76426
765.76403
765.76447
765.76466
765.76446
765.76396
765.76334
765.76319
765.76317
765.76402
765.76395
765.76361
765.76396
765.76408
765.76386
765.76334
765.76274
765.76263
765.7627
765.76395
765.76402
765.76366
765.76389
765.76395
765.76371
765.76319
765.76263
765.76264
765.76287
765.76379
765.76404
765.76381
765.76394
765.76394
765.76367
765.76317
765.7627
765.76287
765.76279
767.92389
767.92422
767.92363
767.92426
767.92466
767.92467
767.9244
767.92406
767.92396
767.92377
767.92422
767.92388
767.92373
767.9244
767.92476
767.92472
767.92436
767.92396
767.92403
767.92404
767.92363
767.92373
767.92365
767.9243
767.92463
767.92453
767.92409
767.92357
767.92361
767.92376
767.92426
767.9244
767.9243
767.92492
767.92521
767.92506
767.92455
767.92391
767.92383
767.92387
767.92466
767.92476
767.92463
767.92521
767.92547
767.92527
767.92471
767.92401
767.92385
767.92383
767.92467
767.92472
767.92453
767.92506
767.92527
767.92504
767.92444
767.92371
767.92352
767.92348
767.9244
767.92436
767.92409
767.92455
767.92471
767.92444
767.92382
767.92307
767.92289
767.92286
767.92406
767.92396
767.92357
767.92391
767.92401
767.92371
767.92307
767.92235
767.92222
767.92229
767.92396
767.92403
767.92361
767.92383
767.92385
767.92352
767.92289
767.92222
767.92223
767.92251
767.92377
767.92404
767.92376
767.92387
767.92383
767.92348
767.92286
767.92229
767.92251
767.9224
769.97364
769.97399
769.97334
769.974
769.9744
769.97436
769.97401
769.9736
769.97347
769.97325
769.97399
769.97363
769.97344
769.97414
769.9745
769.9744
769.97397
769.97348
769.97353
769.97353
769.97334
769.97344
769.97334
769.97402
769.97434
769.97418
769.97364
769.97302
769.97305
769.97321
769.974
769.97414
769.97402
769.97467
769.97494
769.97473
769.97411
769.97336
769.97325
769.97329
769.9744
769.9745
769.97434
769.97494
769.97518
769.97492
769.97424
769.97343
769.97324
769.9732
769.97436
769.9744
769.97418
769.97473
769.97492
769.97462
769.97391
769.97305
769.97283
769.97277
769.97401
769.97397
769.97364
769.97411
769.97424
769.97391
769.97317
769.9723
769.97208
769.97205
769.9736
769.97348
769.97302
769.97336
769.97343
769.97305
769.9723
769.97145
769.9713
769.97138
769.97347
769.97353
769.97305
769.97325
769.97324
769.97283
769.97208
769.9713
769.97131
769.97163
769.97325
769.97353
769.97321
769.97329
769.9732
769.97277
769.97205
769.97138
769.97163
769.9715
771.90027
771.90063
771.89993
771.90061
771.901
771.90091
771.90049
771.9
771.89983
771.89958
771.90063
771.90025
771.90003
771.90076
771.90111
771.90095
771.90043
771.89985
771.89989
771.89988
771.89993
771.90003
771.89991
771.90061
771.90092
771.9007
771.90006
771.89934
771.89935
771.89952
771.90061
771.90076
771.90061
771.90127
771.90153
771.90126
771.90053
771.89967
771.89953
771.89957
771.901
771.90111
771.90092