/*--------------------------------*- C++ -*----------------------------------*\
| =========                 |                                                 |
| \\      /  F ield         | OpenFOAM: The Open Source CFD Toolbox           |
|  \\    /   O peration     | Version:  v2106                                 |
|   \\  /    A nd           | Website:  www.openfoam.com                      |
|    \\/     M anipulation  |                                                 |
\*---------------------------------------------------------------------------*/
FoamFile
{
    version     2.0;
    format      ascii;
    arch        "LSB;label=32;scalar=64";
    class       volVectorField;
    location    "25";
    object      gradT;
}
// * * * * * * * * * * * * * * * * * * * * * * * * * * * * * * * * * * * * * //

dimensions      [0 -1 0 1 0 0 0];

internalField   nonuniform List<vector> 
4000
(
(-0.00021337616 -0.00021337616 717.74649)
(0.00061067001 0.00044219239 717.74543)
(0.00047335555 4.5451763e-05 717.74853)
(-0.00079997407 6.8639944e-07 717.74683)
(-0.00044457464 2.0441907e-05 717.74554)
(-7.0505356e-05 3.8745338e-05 717.74515)
(0.0001130014 5.6861368e-05 717.74529)
(0.0001512919 6.8433188e-05 717.74562)
(0.00010717022 4.6900287e-05 717.7459)
(2.4937202e-05 -5.1233612e-06 717.74611)
(0.00044219239 0.00061067001 717.74543)
(0.00099891189 0.0009989119 717.74752)
(-0.00018890344 0.0003168489 717.74863)
(-0.00083748885 0.00026716788 717.7467)
(-0.00038748623 0.00032064737 717.74552)
(-1.5876163e-05 0.00037423714 717.74524)
(0.00015753317 0.00043988724 717.74548)
(0.00013635028 0.00050601344 717.74588)
(-3.1645992e-06 0.00049132803 717.746)
(-2.7086446e-05 0.00032503956 717.74589)
(4.5451766e-05 0.00047335554 717.74853)
(0.0003168489 -0.00018890344 717.74863)
(-0.00025838847 -0.00025838847 717.74943)
(-0.00079617559 -0.00021905172 717.74755)
(-0.00033750538 -0.00017561233 717.74646)
(4.8734516e-05 -0.00012665479 717.74628)
(0.0002447777 -5.4061826e-05 717.74668)
(0.00020273268 4.8997498e-05 717.74728)
(-7.3803656e-05 0.00014331187 717.74745)
(-8.5921777e-05 0.00013755968 717.74701)
(6.8640011e-07 -0.00079997406 717.74683)
(0.00026716787 -0.00083748885 717.7467)
(-0.00021905172 -0.0007961756 717.74755)
(-0.00075471271 -0.00075471272 717.74575)
(-0.0002950893 -0.000717164 717.74474)
(0.00010567434 -0.00067524379 717.74465)
(0.00033318546 -0.00061817493 717.74519)
(0.00033372397 -0.00053401097 717.746)
(8.5397587e-05 -0.00041984475 717.74647)
(-3.0921234e-05 -0.00029945086 717.74633)
(2.0441906e-05 -0.00044457464 717.74554)
(0.00032064737 -0.00038748623 717.74552)
(-0.00017561234 -0.00033750537 717.74646)
(-0.000717164 -0.0002950893 717.74474)
(-0.00025803645 -0.00025803646 717.74379)
(0.00014772358 -0.00022184349 717.74378)
(0.00038601051 -0.00018289129 717.74441)
(0.00040106286 -0.000138176 717.74534)
(0.00016075646 -8.7681775e-05 717.74596)
(-5.659183e-06 -4.0715607e-05 717.74597)
(3.8745338e-05 -7.0505361e-05 717.74515)
(0.00037423714 -1.5876167e-05 717.74524)
(-0.00012665479 4.8734517e-05 717.74628)
(-0.00067524379 0.00010567435 717.74465)
(-0.00022184349 0.00014772359 717.74378)
(0.00018081951 0.0001808195 717.74384)
(0.00041685296 0.00020871894 717.74453)
(0.00042893349 0.00023107398 717.74552)
(0.00018285798 0.00024669389 717.74619)
(3.8954482e-07 0.00025423067 717.74625)
(5.6861369e-05 0.0001130014 717.74529)
(0.00043988725 0.00015753317 717.74548)
(-5.4061824e-05 0.0002447777 717.74668)
(-0.00061817493 0.00033318546 717.74519)
(-0.00018289129 0.00038601051 717.74441)
(0.00020871893 0.00041685295 717.74453)
(0.00043626498 0.00043626498 717.74528)
(0.00043903782 0.00044453665 717.74629)
(0.00018391315 0.00044070163 717.74698)
(-6.3466435e-07 0.0004282867 717.74702)
(6.8433186e-05 0.0001512919 717.74562)
(0.00050601344 0.00013635028 717.74588)
(4.8997493e-05 0.00020273268 717.74728)
(-0.00053401098 0.00033372396 717.746)
(-0.000138176 0.00040106285 717.74534)
(0.00023107397 0.00042893348 717.74552)
(0.00044453665 0.00043903782 717.74629)
(0.00043337014 0.00043337013 717.74731)
(0.00016660802 0.00041045121 717.74797)
(-7.8870774e-06 0.00037705295 717.74796)
(4.6900288e-05 0.00010717022 717.7459)
(0.00049132803 -3.1646029e-06 717.746)
(0.00014331186 -7.380366e-05 717.74745)
(-0.00041984475 8.5397582e-05 717.74647)
(-8.7681773e-05 0.00016075645 717.74596)
(0.00024669389 0.00018285797 717.74619)
(0.00044070163 0.00018391316 717.74698)
(0.00041045122 0.00016660803 717.74797)
(0.00012759598 0.00012759598 717.74854)
(-2.2900173e-05 7.7990146e-05 717.74844)
(-5.1233656e-06 2.4937205e-05 717.74611)
(0.00032503955 -2.7086448e-05 717.74589)
(0.00013755968 -8.5921778e-05 717.74701)
(-0.00029945086 -3.0921236e-05 717.74633)
(-4.0715608e-05 -5.6591861e-06 717.74597)
(0.00025423068 3.8954103e-07 717.74625)
(0.00042828671 -6.3466312e-07 717.74702)
(0.00037705295 -7.8870736e-06 717.74796)
(7.7990142e-05 -2.290017e-05 717.74844)
(-4.0957633e-05 -4.095763e-05 717.74824)
(-0.00041753943 -0.00041753942 717.96265)
(0.0012301984 0.00075548398 717.96212)
(0.0006699437 -3.6877071e-05 717.96338)
(-0.0020916013 -0.00012720519 717.96201)
(-0.0011780634 -8.1078891e-05 717.961)
(-0.00016181966 -3.0734343e-05 717.96073)
(0.00036528558 2.5020776e-05 717.96095)
(0.00046107743 5.5444334e-05 717.96131)
(0.00040445261 -4.4246538e-05 717.96152)
(0.00013163631 -0.00019640648 717.96195)
(0.00075548398 0.0012301984 717.96212)
(0.0018011919 0.0018011919 717.96286)
(-0.00065409006 0.000398093 717.9632)
(-0.002157904 0.00028951341 717.96173)
(-0.0010333571 0.00041904757 717.9608)
(-2.6701609e-06 0.00057155157 717.96062)
(0.00049455359 0.00077216137 717.96096)
(0.00035717646 0.00096507225 717.9614)
(2.6676386e-05 0.00085401084 717.96131)
(-2.0523633e-05 0.0003789002 717.96133)
(-3.6877071e-05 0.00066994371 717.96338)
(0.000398093 -0.00065409005 717.9632)
(-0.00084173478 -0.00084173478 717.96335)
(-0.0020706467 -0.00076348778 717.9619)
(-0.00089602525 -0.00064789767 717.96103)
(0.00019129413 -0.00050255867 717.96096)
(0.00075880625 -0.00028281991 717.96146)
(0.0005429269 2.5623692e-05 717.96211)
(-0.00018171945 0.000278555 717.96208)
(-0.00018510412 0.00024701079 717.96183)
(-0.00012720519 -0.0020916012 717.96201)
(0.0002895134 -0.002157904 717.96173)
(-0.00076348779 -0.0020706467 717.9619)
(-0.0019640669 -0.0019640669 717.96051)
(-0.00077242803 -0.0018553507 717.95971)
(0.0003624076 -0.0017294571 717.95972)
(0.001022736 -0.0015573346 717.96036)
(0.00091855137 -0.0013058495 717.96122)
(0.00024806349 -0.00098039934 717.96145)
(-4.1553103e-05 -0.0006529813 717.96144)
(-8.1078891e-05 -0.0011780634 717.961)
(0.00041904757 -0.0010333571 717.9608)
(-0.00064789767 -0.00089602524 717.96103)
(-0.0018553507 -0.00077242803 717.95971)
(-0.00066141552 -0.00066141551 717.95898)
(0.00048931017 -0.00055237168 717.95907)
(0.0011824139 -0.00043469273 717.9598)
(0.0011198622 -0.0002988298 717.96078)
(0.00047114872 -0.00014711372 717.96115)
(3.3174578e-05 -4.6097179e-06 717.96128)
(-3.0734343e-05 -0.00016181966 717.96073)
(0.00057155158 -2.6701656e-06 717.96062)
(-0.00050255867 0.00019129413 717.96096)
(-0.0017294571 0.0003624076 717.95972)
(-0.00055237168 0.00048931017 717.95907)
(0.00058913038 0.00058913039 717.95923)
(0.0012762778 0.00067278305 717.96002)
(0.0012061304 0.00074008473 717.96106)
(0.00054228357 0.00078718886 717.96149)
(5.3449565e-05 0.00081067866 717.96166)
(2.5020773e-05 0.00036528558 717.96095)
(0.00077216136 0.00049455359 717.96096)
(-0.00028281991 0.00075880625 717.96146)
(-0.0015573346 0.001022736 717.96036)
(-0.00043469273 0.0011824139 717.9598)
(0.00067278305 0.0012762778 717.96002)
(0.0013333683 0.0013333683 717.96086)
(0.001234268 0.0013543916 717.96193)
(0.00054174265 0.0013351434 717.96236)
(4.8834445e-05 0.0012834286 717.96251)
(5.5444332e-05 0.00046107743 717.96131)
(0.00096507225 0.00035717646 717.9614)
(2.5623692e-05 0.0005429269 717.96211)
(-0.0013058495 0.00091855136 717.96122)
(-0.0002988298 0.0011198622 717.96078)
(0.00074008473 0.0012061304 717.96106)
(0.0013543916 0.001234268 717.96193)
(0.0012079055 0.0012079055 717.96298)
(0.00047132067 0.0011201053 717.96336)
(1.8973093e-05 0.00098837383 717.96342)
(-4.4246538e-05 0.00040445261 717.96152)
(0.00085401083 2.6676385e-05 717.96131)
(0.00027855499 -0.00018171946 717.96208)
(-0.00098039935 0.00024806349 717.96145)
(-0.00014711372 0.00047114872 717.96115)
(0.00078718887 0.00054228357 717.96149)
(0.0013351434 0.00054174265 717.96236)
(0.0011201053 0.00047132067 717.96336)
(0.00032221102 0.00032221102 717.96362)
(-3.8986505e-05 0.00017921513 717.96351)
(-0.00019640648 0.00013163631 717.96195)
(0.00037890018 -2.0523633e-05 717.96133)
(0.00024701079 -0.00018510412 717.96183)
(-0.00065298129 -4.1553102e-05 717.96144)
(-4.6097217e-06 3.3174581e-05 717.96128)
(0.00081067867 5.3449564e-05 717.96166)
(0.0012834287 4.8834446e-05 717.96251)
(0.00098837382 1.8973091e-05 717.96342)
(0.00017921513 -3.8986505e-05 717.96351)
(-7.63575e-05 -7.6357501e-05 717.96358)
(-0.00056318385 -0.00056318385 718.35894)
(0.0013397465 0.00093087705 718.35841)
(0.00035751737 -7.3246561e-05 718.35901)
(-0.0031748364 -0.00018341237 718.35782)
(-0.0017212206 -0.00011608825 718.35702)
(-0.00012809476 -3.3858508e-05 718.35689)
(0.00069352145 6.8254253e-05 718.35722)
(0.00072940504 0.00012691198 718.35766)
(0.0007471306 -9.580666e-05 718.35774)
(0.0003106351 -0.00041960033 718.35817)
(0.00093087705 0.0013397465 718.35841)
(0.0020746525 0.0020746525 718.3588)
(-0.0013139168 0.00028604148 718.35881)
(-0.003239099 0.00015848393 718.35757)
(-0.0014968898 0.00035152404 718.35683)
(0.000148419 0.00060096646 718.35679)
(0.00093467718 0.00095368381 718.35728)
(0.00048331367 0.001302694 718.35782)
(-7.2637861e-05 0.0010468694 718.35757)
(-1.3158573e-05 0.00019770996 718.35755)
(-7.3246558e-05 0.00035751736 718.35901)
(0.00028604148 -0.0013139168 718.35881)
(-0.0015586512 -0.0015586512 718.35871)
(-0.0031093539 -0.001444188 718.35748)
(-0.0012787381 -0.0012639289 718.35681)
(0.00047406502 -0.0010258266 718.35687)
(0.001395249 -0.00065681423 718.35752)
(0.00082259063 -0.00013135323 718.35829)
(-0.00035785346 0.00028520463 718.3581)
(-0.0002554712 0.00024694509 718.35785)
(-0.00018341237 -0.0031748364 718.35782)
(0.00015848392 -0.003239099 718.35757)
(-0.001444188 -0.0031093539 718.35748)
(-0.0029443767 -0.0029443767 718.35631)
(-0.0010785285 -0.0027683473 718.3557)
(0.00075553368 -0.0025611926 718.35585)
(0.0018291505 -0.0022771337 718.35663)
(0.0014253325 -0.001864073 718.3576)
(0.00030566046 -0.0013469152 718.35765)
(-3.8664933e-05 -0.00084347039 718.3576)
(-0.00011608825 -0.0017212206 718.35702)
(0.00035152403 -0.0014968898 718.35683)
(-0.0012639289 -0.0012787381 718.35681)
(-0.0027683473 -0.0010785285 718.3557)
(-0.00089555396 -0.00089555395 718.35516)
(0.00096527861 -0.00071481828 718.35538)
(0.0020923685 -0.0005199416 718.35625)
(0.0017528092 -0.00029550687 718.35734)
(0.00066274919 -4.9246027e-05 718.35752)
(8.015869e-05 0.00018014758 718.35759)
(-3.3858506e-05 -0.00012809477 718.35689)
(0.00060096647 0.000148419 718.35679)
(-0.0010258266 0.00047406501 718.35687)
(-0.0025611926 0.00075553367 718.35585)
(-0.00071481829 0.00096527862 718.35538)
(0.001131146 0.001131146 718.35567)
(0.0022484619 0.0012693433 718.35661)
(0.0018960281 0.0013791046 718.35775)
(0.00078131492 0.0014525538 718.35798)
(0.00011426414 0.0014853041 718.3581)
(6.8254258e-05 0.00069352144 718.35722)
(0.00095368381 0.00093467718 718.35728)
(-0.00065681423 0.001395249 718.35752)
(-0.0022771337 0.0018291505 718.35663)
(-0.0005199416 0.0020923685 718.35625)
(0.0012693433 0.0022484619 718.35661)
(0.0023403271 0.0023403271 718.35758)
(0.0019360197 0.0023654188 718.35875)
(0.00076894878 0.0023116191 718.35898)
(0.00010199223 0.002187926 718.35906)
(0.00012691198 0.00072940505 718.35766)
(0.001302694 0.00048331366 718.35782)
(-0.00013135324 0.00082259063 718.35829)
(-0.001864073 0.0014253325 718.3576)
(-0.00029550687 0.0017528091 718.35734)
(0.0013791046 0.0018960281 718.35775)
(0.0023654188 0.0019360197 718.35875)
(0.0018673202 0.0018673202 718.35989)
(0.00060382211 0.0016676934 718.36003)
(3.1802059e-05 0.0013731072 718.35997)
(-9.5806664e-05 0.0007471306 718.35774)
(0.0010468694 -7.2637866e-05 718.35757)
(0.00028520463 -0.00035785346 718.3581)
(-0.0013469152 0.00030566047 718.35765)
(-4.9246032e-05 0.00066274919 718.35752)
(0.0014525538 0.00078131491 718.35798)
(0.0023116191 0.00076894878 718.35898)
(0.0016676934 0.00060382211 718.36003)
(0.00027473586 0.00027473585 718.35997)
(-9.4398547e-05 0.0002349758 718.35964)
(-0.00041960033 0.00031063509 718.35817)
(0.00019770995 -1.3158573e-05 718.35755)
(0.00024694509 -0.0002554712 718.35785)
(-0.00084347039 -3.8664932e-05 718.3576)
(0.00018014758 8.015869e-05 718.35759)
(0.0014853041 0.00011426414 718.3581)
(0.002187926 0.00010199223 718.35906)
(0.0013731072 3.1802063e-05 718.35997)
(0.00023497581 -9.4398549e-05 718.35964)
(5.2953617e-06 5.2953598e-06 718.35993)
(-0.00077153024 -0.00077153024 718.94971)
(0.0013007164 0.0010163692 718.94912)
(7.574821e-05 -0.00016986617 718.9497)
(-0.0040868913 -0.00029445275 718.94866)
(-0.0021073667 -0.00020696021 718.94802)
(4.5017543e-05 -9.263557e-05 718.94802)
(0.0011353539 6.1875337e-05 718.94849)
(0.00097592687 0.00016619291 718.94904)
(0.00091195831 -0.00015706187 718.9491)
(0.00041575249 -0.00060365887 718.9494)
(0.0010163692 0.0013007164 718.94912)
(0.0022032125 0.0022032125 718.94938)
(-0.0018904848 9.1919566e-05 718.94942)
(-0.0041425323 -4.2967221e-05 718.94835)
(-0.001804641 0.00021104675 718.94776)
(0.00044827086 0.00055599893 718.94786)
(0.0015235966 0.0010684454 718.94849)
(0.00064752105 0.0015970898 718.94918)
(-0.00024281936 0.0012172974 718.94893)
(-3.08445e-05 6.410812e-05 718.94889)
(-0.00016986617 7.5748203e-05 718.9497)
(9.1919565e-05 -0.0018904848 718.94942)
(-0.0021704315 -0.0021704315 718.94937)
(-0.0039677641 -0.0020159207 718.94832)
(-0.0015084006 -0.0017728559 718.9478)
(0.00090241621 -0.0014451469 718.94799)
(0.0021764447 -0.0009303151 718.94878)
(0.0011247788 -0.00019486804 718.94968)
(-0.00062102337 0.00035928245 718.94948)
(-0.00035304034 0.00029133957 718.9492)
(-0.00029445274 -0.0040868913 718.94866)
(-4.296721e-05 -0.0041425323 718.94835)
(-0.0020159207 -0.0039677641 718.94832)
(-0.0037449567 -0.0037449566 718.94732)
(-0.0012338671 -0.0035032948 718.94687)
(0.0012908116 -0.0032172266 718.94714)
(0.0027738754 -0.0028243445 718.94806)
(0.0019371186 -0.0022559654 718.94916)
(0.00024338826 -0.0015648647 718.94917)
(-7.6139753e-05 -0.00091256722 718.94906)
(-0.0002069602 -0.0021073667 718.94802)
(0.00021104676 -0.001804641 718.94776)
(-0.0017728559 -0.0015084006 718.9478)
(-0.0035032948 -0.0012338671 718.94687)
(-0.00098067057 -0.00098067056 718.94647)
(0.0015813665 -0.00073007989 718.94682)
(0.003137706 -0.00046006109 718.94782)
(0.0023842586 -0.00014994622 718.94903)
(0.00072237479 0.00018461861 718.94917)
(8.1824634e-05 0.00049204008 718.94917)
(-9.263557e-05 4.5017547e-05 718.94802)
(0.00055599893 0.00044827086 718.94786)
(-0.0014451469 0.00090241621 718.94799)
(-0.0032172266 0.0012908116 718.94714)
(-0.00073007989 0.0015813665 718.94682)
(0.0018114211 0.0018114211 718.94723)
(0.0033540091 0.0020018165 718.94829)
(0.0025817983 0.0021505625 718.94956)
(0.00088537456 0.0022444282 718.94975)
(0.00012880789 0.0022792036 718.94978)
(6.1875339e-05 0.0011353539 718.94849)
(0.0010684454 0.0015235966 718.94849)
(-0.0009303151 0.0021764447 718.94878)
(-0.0028243445 0.0027738754 718.94806)
(-0.0004600611 0.003137706 718.94782)
(0.0020018165 0.0033540091 718.94829)
(0.0034768474 0.0034768474 718.9494)
(0.0026268704 0.0034966231 718.95068)
(0.00085101587 0.0033870236 718.95086)
(0.00010500823 0.0031556114 718.95086)
(0.00016619291 0.00097592687 718.94904)
(0.0015970898 0.00064752105 718.94918)
(-0.00019486806 0.0011247788 718.94968)
(-0.0022559654 0.0019371186 718.94916)
(-0.00014994622 0.0023842586 718.94903)
(0.0021505625 0.0025817983 718.94956)
(0.0034966231 0.0026268704 718.95068)
(0.0024919745 0.0024919745 718.95194)
(0.00054436289 0.0021194391 718.952)
(-2.5466882e-05 0.0015656701 718.9518)
(-0.00015706187 0.0009119583 718.9491)
(0.0012172974 -0.00024281936 718.94893)
(0.00035928245 -0.00062102338 718.94948)
(-0.0015648647 0.00024338827 718.94917)
(0.00018461862 0.00072237479 718.94917)
(0.0022444282 0.00088537457 718.94975)
(0.0033870235 0.00085101587 718.95086)
(0.0021194391 0.00054436289 718.952)
(-7.5288475e-05 -7.5288492e-05 718.95179)
(-0.00026417108 0.00014143732 718.95121)
(-0.00060365886 0.00041575249 718.9494)
(6.4108127e-05 -3.0844501e-05 718.94889)
(0.00029133957 -0.00035304034 718.9492)
(-0.00091256722 -7.6139753e-05 718.94906)
(0.00049204009 8.1824632e-05 718.94917)
(0.0022792036 0.0001288079 718.94978)
(0.0031556114 0.00010500823 718.95086)
(0.0015656701 -2.5466884e-05 718.9518)
(0.00014143733 -0.00026417108 718.95121)
(0.00011901699 0.00011901699 718.95153)
(-0.00095936429 -0.00095936429 719.73161)
(0.0013207665 0.001104934 719.73109)
(-0.00010295826 -0.00025536932 719.73172)
(-0.004853577 -0.00039340807 719.73082)
(-0.0023594685 -0.00028677988 719.7303)
(0.00034851347 -0.00014164753 719.73042)
(0.0017156852 6.4686382e-05 719.73101)
(0.0013356137 0.00021580484 719.73168)
(0.0011045608 -0.00020652429 719.73182)
(0.0005116374 -0.0007584659 719.73211)
(0.001104934 0.0013207665 719.73109)
(0.0023767589 0.0023767589 719.73137)
(-0.0023504713 -4.0337679e-05 719.73149)
(-0.0049006928 -0.00018017174 719.73055)
(-0.0019818277 0.00013246987 719.73009)
(0.00087571286 0.0005692314 719.7303)
(0.0022518638 0.0012378271 719.73104)
(0.0009287977 0.0019427879 719.73185)
(-0.00035684536 0.0014304157 719.73169)
(-4.0304205e-05 -1.0179794e-06 719.73167)
(-0.00025536932 -0.00010295825 719.73172)
(-4.033768e-05 -0.0023504713 719.73149)
(-0.0026598889 -0.0026598889 719.73152)
(-0.0046807694 -0.0024643765 719.73061)
(-0.0016100653 -0.0021600183 719.73021)
(0.0014538707 -0.0017457945 719.73051)
(0.0030892417 -0.0010899151 719.7314)
(0.0015282023 -0.00015355982 719.73242)
(-0.00083924515 0.00051835373 719.73228)
(-0.00044265173 0.0004099217 719.73203)
(-0.00039340807 -0.004853577 719.73082)
(-0.00018017174 -0.0049006928 719.73055)
(-0.0024643765 -0.0046807694 719.73061)
(-0.0044008222 -0.0044008222 719.72975)
(-0.0012632457 -0.0040951498 719.72941)
(0.0019458161 -0.0037326613 719.72979)
(0.0038440985 -0.0032344185 719.73081)
(0.0025370665 -0.0025168096 719.73201)
(0.00020663616 -0.001664575 719.73207)
(-0.00011259223 -0.00087878972 719.73197)
(-0.00028677988 -0.0023594685 719.7303)
(0.00013246988 -0.0019818277 719.73009)
(-0.0021600183 -0.0016100653 719.73021)
(-0.0040951498 -0.0012632457 719.72941)
(-0.00094190447 -0.00094190446 719.72914)
(0.0023146021 -0.000623866 719.72959)
(0.0043050934 -0.00028136248 719.73069)
(0.0030980458 0.00011118087 719.732)
(0.00079877475 0.00052897009 719.73218)
(8.1205119e-05 0.00090849457 719.73218)
(-0.00014164753 0.00034851347 719.73042)
(0.00056923141 0.00087571286 719.7303)
(-0.0017457945 0.0014538707 719.73051)
(-0.0037326613 0.0019458161 719.72979)
(-0.000623866 0.0023146021 719.72959)
(0.002606358 0.0026063581 719.7301)
(0.0045791453 0.0028464477 719.73126)
(0.0033473991 0.0030315845 719.73262)
(0.0010039499 0.0031427026 719.73285)
(0.00014042409 0.0031763236 719.73289)
(6.468638e-05 0.0017156852 719.73101)
(0.0012378271 0.0022518638 719.73104)
(-0.0010899151 0.0030892417 719.7314)
(-0.0032344185 0.0038440985 719.73081)
(-0.00028136248 0.0043050934 719.73069)
(0.0028464477 0.0045791453 719.73126)
(0.0047303199 0.0047303198 719.73245)
(0.0033943007 0.0047402049 719.73383)
(0.00094351385 0.0045644898 719.73404)
(0.00010361909 0.0042059284 719.73405)
(0.00021580484 0.0013356137 719.73168)
(0.0019427879 0.00092879769 719.73185)
(-0.00015355982 0.0015282023 719.73242)
(-0.0025168096 0.0025370665 719.73201)
(0.00011118086 0.0030980458 719.732)
(0.0030315845 0.0033473991 719.73262)
(0.0047402049 0.0033943007 719.73383)
(0.0031815691 0.0031815691 719.73517)
(0.00046967337 0.0026009167 719.73526)
(-9.8616855e-05 0.0017201404 719.73504)
(-0.00020652429 0.0011045608 719.73182)
(0.0014304157 -0.00035684536 719.73169)
(0.00051835373 -0.00083924515 719.73228)
(-0.001664575 0.00020663615 719.73207)
(0.00052897009 0.00079877475 719.73218)
(0.0031427026 0.0010039499 719.73285)
(0.0045644898 0.00094351384 719.73404)
(0.0026009168 0.00046967336 719.73526)
(-0.00051791482 -0.00051791484 719.73505)
(-0.00048356514 -3.7007466e-05 719.73437)
(-0.0007584659 0.0005116374 719.73211)
(-1.0179737e-06 -4.0304203e-05 719.73167)
(0.00040992169 -0.00044265172 719.73203)
(-0.00087878972 -0.00011259223 719.73197)
(0.00090849456 8.1205119e-05 719.73218)
(0.0031763236 0.00014042409 719.73289)
(0.0042059284 0.00010361909 719.73405)
(0.0017201404 -9.8616857e-05 719.73504)
(-3.7007456e-05 -0.00048356515 719.73437)
(0.00022198806 0.00022198805 719.73466)
(-0.0011199732 -0.0011199732 720.70034)
(0.0014034035 0.0012047329 720.69989)
(-0.00019798908 -0.00032200662 720.70054)
(-0.0055002647 -0.00047286142 720.69976)
(-0.0025037681 -0.00034805345 720.69935)
(0.00074916956 -0.00017355589 720.69955)
(0.0023922066 8.2762885e-05 720.70022)
(0.0017834239 0.0002791696 720.70097)
(0.0013419601 -0.00024191721 720.70117)
(0.00061114491 -0.00089370498 720.70147)
(0.0012047329 0.0014034035 720.69989)
(0.0026003534 0.0026003534 720.70019)
(-0.0027143806 -0.00010859958 720.70036)
(-0.005539335 -0.00025256325 720.69954)
(-0.0020548098 0.00011630858 720.69919)
(0.0013953941 0.00064102844 720.69948)
(0.0030712948 0.0014602445 720.70029)
(0.0012964038 0.0023348421 720.70117)
(-0.00041735181 0.0016849907 720.70108)
(-4.0642863e-05 -1.4506125e-05 720.70109)
(-0.00032200662 -0.00019798908 720.70054)
(-0.00010859958 -0.0027143806 720.70036)
(-0.0030509057 -0.0030509057 720.70045)
(-0.0052753566 -0.0028150951 720.69966)
(-0.0016101764 -0.0024513715 720.69936)
(0.0020931055 -0.001953782 720.69974)
(0.0040860202 -0.0011618615 720.7007)
(0.0020081701 -3.2832682e-05 720.70177)
(-0.0010073882 0.00074515795 720.7017)
(-0.00052185294 0.00059206853 720.70148)
(-0.00047286142 -0.0055002647 720.69976)
(-0.00025256325 -0.005539335 720.69954)
(-0.0028150951 -0.0052753566 720.69966)
(-0.0049398007 -0.0049398007 720.69891)
(-0.0011934967 -0.0045722343 720.69868)
(0.002684904 -0.0041361982 720.69913)
(0.0049922441 -0.0035365341 720.70021)
(0.0032034233 -0.0026757752 720.70146)
(0.0002075494 -0.0016719011 720.70158)
(-0.00014270248 -0.0007621042 720.7015)
(-0.00034805345 -0.0025037681 720.69935)
(0.00011630858 -0.0020548098 720.69919)
(-0.0024513715 -0.0016101764 720.69936)
(-0.0045722343 -0.0011934967 720.69868)
(-0.00080657385 -0.00080657385 720.6985)
(0.0031288056 -0.00042396946 720.69902)
(0.0055464432 -1.2160452e-05 720.70018)
(0.0038728031 0.00045916969 720.70154)
(0.00090628287 0.00095579266 720.70176)
(8.4678345e-05 0.0014034219 720.70178)
(-0.00017355589 0.00074916955 720.69955)
(0.00064102844 0.0013953941 720.69948)
(-0.001953782 0.0020931055 720.69974)
(-0.0041361982 0.002684904 720.69913)
(-0.00042396947 0.0031288056 720.69902)
(0.0034793174 0.0034793174 720.6996)
(0.0058753833 0.0037663458 720.70081)
(0.0041713764 0.003985522 720.70222)
(0.0011518016 0.0041120987 720.70249)
(0.00015571702 0.0041439332 720.70254)
(8.2762889e-05 0.0023922066 720.70022)
(0.0014602445 0.0030712948 720.70029)
(-0.0011618615 0.0040860202 720.7007)
(-0.0035365341 0.0049922441 720.70021)
(-1.2160454e-05 0.0055464432 720.70018)
(0.0037663458 0.0058753833 720.70081)
(0.0060526478 0.0060526478 720.70206)
(0.0042185561 0.0060506012 720.70349)
(0.0010646941 0.0058055408 720.70374)
(0.00010590135 0.0053138475 720.70375)
(0.0002791696 0.0017834239 720.70097)
(0.0023348421 0.0012964038 720.70117)
(-3.2832682e-05 0.0020081701 720.70177)
(-0.0026757752 0.0032034233 720.70146)
(0.00045916969 0.0038728031 720.70154)
(0.003985522 0.0041713764 720.70222)
(0.0060506011 0.0042185561 720.70349)
(0.0039242694 0.0039242694 720.70487)
(0.00041504799 0.0031224216 720.705)
(-0.0001720785 0.001887902 720.70479)
(-0.0002419172 0.0013419601 720.70117)
(0.0016849907 -0.00041735181 720.70108)
(0.00074515796 -0.0010073882 720.7017)
(-0.0016719011 0.0002075494 720.70158)
(0.00095579266 0.00090628286 720.70176)
(0.0041120987 0.0011518016 720.70249)
(0.0058055408 0.0010646941 720.70374)
(0.0031224216 0.00041504798 720.705)
(-0.00097167332 -0.00097167333 720.70481)
(-0.00071711171 -0.00024319956 720.70411)
(-0.00089370498 0.00061114492 720.70147)
(-1.4506118e-05 -4.0642862e-05 720.70109)
(0.00059206853 -0.00052185294 720.70148)
(-0.0007621042 -0.00014270248 720.7015)
(0.0014034219 8.4678339e-05 720.70178)
(0.0041439332 0.00015571702 720.70254)
(0.0053138475 0.00010590135 720.70375)
(0.001887902 -0.00017207851 720.70479)
(-0.00024319954 -0.00071711171 720.70411)
(0.00031357068 0.00031357067 720.70438)
(-0.0012614706 -0.0012614706 721.84991)
(0.0015220578 0.0013083358 721.84951)
(-0.00023357011 -0.00037571431 721.85017)
(-0.006046653 -0.0005385292 721.84948)
(-0.0025623748 -0.00039639371 721.84916)
(0.0012175602 -0.00019381144 721.84943)
(0.003126398 0.00011064154 721.85014)
(0.0022834708 0.00035081309 721.85093)
(0.0016087144 -0.00026673511 721.85117)
(0.0007136839 -0.0010143325 721.85148)
(0.0013083358 0.0015220578 721.84951)
(0.0028506922 0.0028506922 721.84982)
(-0.0030038675 -0.00013391196 721.85002)
(-0.0060776721 -0.00028119727 721.8493)
(-0.0020452982 0.00014146132 721.84903)
(0.0019781131 0.00075042189 721.84938)
(0.0039433348 0.0017145271 721.85023)
(0.0017174058 0.0027522803 721.85115)
(-0.00043900402 0.0019658812 721.85111)
(-3.391353e-05 8.0033914e-06 721.85114)
(-0.00037571431 -0.0002335701 721.85017)
(-0.00013391196 -0.0030038675 721.85002)
(-0.0033654596 -0.0033654596 721.85014)
(-0.0057712797 -0.0030907643 721.84945)
(-0.0015307556 -0.0026700699 721.84924)
(0.0027906259 -0.0020925927 721.84967)
(0.0051282565 -0.001170108 721.85067)
(0.002534825 0.00014344594 721.85177)
(-0.0011355625 0.0010197648 721.85175)
(-0.00059156798 0.00082097745 721.85155)
(-0.0005385292 -0.006046653 721.84948)
(-0.00028119726 -0.0060776721 721.8493)
(-0.0030907643 -0.0057712797 721.84945)
(-0.0053822825 -0.0053822824 721.84881)
(-0.0010471266 -0.0049554315 721.84865)
(0.003478075 -0.0044491392 721.84916)
(0.0061793734 -0.0037525175 721.85027)
(0.0039072787 -0.0027550278 721.85154)
(0.00023852749 -0.0016077274 721.85169)
(-0.00016643842 -0.00058140535 721.85163)
(-0.00039639371 -0.0025623748 721.84916)
(0.00014146132 -0.0020452982 721.84903)
(-0.0026700699 -0.0015307556 721.84924)
(-0.0049554315 -0.0010471266 721.84865)
(-0.00059761236 -0.00059761236 721.84855)
(0.0039935399 -0.00015367969 721.84912)
(0.0068223679 0.00032386243 721.85031)
(0.0046796151 0.00086996385 721.85168)
(0.0010380599 0.0014411594 721.85193)
(9.2646702e-05 0.0019534016 721.85196)
(-0.00019381144 0.0012175602 721.84943)
(0.00075042188 0.0019781131 721.84938)
(-0.0020925927 0.0027906259 721.84967)
(-0.0044491392 0.003478075 721.84916)
(-0.00015367969 0.0039935399 721.84912)
(0.0043995498 0.0043995498 721.84975)
(0.0072030169 0.0047305194 721.85099)
(0.0050245756 0.0049812751 721.85241)
(0.0013219653 0.0051218251 721.8527)
(0.00017505638 0.0051519002 721.85276)
(0.00011064154 0.003126398 721.85014)
(0.0017145271 0.0039433348 721.85023)
(-0.0011701081 0.0051282565 721.85067)
(-0.0037525175 0.0061793734 721.85027)
(0.00032386244 0.0068223679 721.85031)
(0.0047305194 0.0072030169 721.85099)
(0.0074040932 0.0074040932 721.85226)
(0.0050709208 0.0073889649 721.85369)
(0.0012086851 0.0070745162 721.85397)
(0.00011269678 0.0064502155 721.85399)
(0.00035081309 0.0022834708 721.85093)
(0.0027522804 0.0017174058 721.85115)
(0.00014344594 0.002534825 721.85177)
(-0.0027550278 0.0039072787 721.85154)
(0.00086996385 0.0046796151 721.85168)
(0.0049812751 0.0050245756 721.85241)
(0.0073889649 0.0050709208 721.85369)
(0.0046949987 0.0046949987 721.85508)
(0.00038321586 0.003670524 721.85524)
(-0.0002411441 0.0020775666 721.85504)
(-0.00026673511 0.0016087144 721.85117)
(0.0019658812 -0.00043900403 721.85111)
(0.0010197648 -0.0011355625 721.85175)
(-0.0016077274 0.00023852748 721.85169)
(0.0014411594 0.0010380599 721.85193)
(0.0051218251 0.0013219652 721.8527)
(0.0070745162 0.0012086851 721.85397)
(0.003670524 0.00038321586 721.85524)
(-0.001408747 -0.001408747 721.85507)
(-0.0009492748 -0.00044715699 721.85439)
(-0.0010143325 0.0007136839 721.85148)
(8.0034009e-06 -3.3913532e-05 721.85114)
(0.00082097745 -0.00059156798 721.85155)
(-0.00058140535 -0.00016643842 721.85163)
(0.0019534016 9.2646702e-05 721.85196)
(0.0051519002 0.00017505638 721.85276)
(0.0064502155 0.00011269679 721.85399)
(0.0020775666 -0.00024114411 721.85504)
(-0.00044715698 -0.0009492748 721.85439)
(0.00039991592 0.00039991591 721.85465)
(-0.0013882382 -0.0013882382 723.17316)
(0.0016597468 0.0014106557 723.1728)
(-0.00022655658 -0.00042038765 723.17344)
(-0.0065065871 -0.00059417412 723.17284)
(-0.002552174 -0.00043560658 723.1726)
(0.0017320131 -0.00020625454 723.17292)
(0.0038922631 0.00014435696 723.17366)
(0.0028122598 0.00042670364 723.17446)
(0.0018923157 -0.00028376901 723.17473)
(0.00081737212 -0.0011226663 723.17504)
(0.0014106557 0.0016597468 723.1728)
(0.0031115227 0.0031115227 723.1731)
(-0.0032338013 -0.00013047746 723.17332)
(-0.0065294154 -0.00028023196 723.17269)
(-0.0019702946 0.0001935092 723.17249)
(0.0026019584 0.00088272533 723.17289)
(0.0048417004 0.0019854507 723.17376)
(0.0021700709 0.00317951 723.17469)
(-0.00043173924 0.002260406 723.17468)
(-2.1525212e-05 5.5720706e-05 723.17473)
(-0.00042038765 -0.00022655657 723.17344)
(-0.00013047746 -0.0032338013 723.17332)
(-0.0036183112 -0.0036183112 723.17347)
(-0.0061826004 -0.0033065249 723.17286)
(-0.0013892167 -0.0028316582 723.17272)
(0.0035239547 -0.002178196 723.17319)
(0.0061890478 -0.001131274 723.1742)
(0.0030872151 0.00035806429 723.17531)
(-0.0012314735 0.0013261522 723.17532)
(-0.00065241808 0.0010820776 723.17515)
(-0.00059417412 -0.006506587 723.17284)
(-0.00028023196 -0.0065294154 723.17269)
(-0.0033065249 -0.0061826004 723.17286)
(-0.0057427624 -0.0057427624 723.1723)