/*--------------------------------*- C++ -*----------------------------------*\
| =========                 |                                                 |
| \\      /  F ield         | OpenFOAM: The Open Source CFD Toolbox           |
|  \\    /   O peration     | Version:  v2106                                 |
|   \\  /    A nd           | Website:  www.openfoam.com                      |
|    \\/     M anipulation  |                                                 |
\*---------------------------------------------------------------------------*/
FoamFile
{
    version     2.0;
    format      ascii;
    arch        "LSB;label=32;scalar=64";
    class       volScalarField;
    location    "25";
    object      laplacianT;
}
// * * * * * * * * * * * * * * * * * * * * * * * * * * * * * * * * * * * * * //

dimensions      [0 -2 0 1 0 0 0];

internalField   nonuniform List<scalar> 
4000
(
9.9314928
10.509113
9.6751691
9.9994332
10.055076
10.045717
10.037829
10.030836
10.019798
10.020229
10.509113
9.8239011
9.7512552
10.032826
10.057651
10.041546
10.028999
10.015561
10.011222
10.051144
9.6751691
9.7512552
9.526373
9.7671957
9.7892704
9.7744949
9.758715
9.7320045
9.7116843
9.8302023
9.9994332
10.032826
9.7671957
10.002492
10.025484
10.012215
9.9969323
9.9643399
9.9179047
9.969255
10.055076
10.057651
9.7892704
10.025484
10.049509
10.037177
10.023451
9.9930103
9.9478208
9.994347
10.045717
10.041546
9.7744949
10.012215
10.037177
10.025251
10.012146
9.9833183
9.940828
9.9906114
10.037829
10.028999
9.758715
9.9969323
10.023451
10.012146
9.998855
9.9698784
9.927552
9.9782589
10.030836
10.015561
9.7320045
9.9643399
9.9930103
9.9833183
9.9698784
9.9401275
9.8968681
9.9477501
10.019798
10.011222
9.7116843
9.9179047
9.9478208
9.940828
9.927552
9.8968681
9.8526855
9.9068157
10.020229
10.051144
9.8302023
9.969255
9.994347
9.9906114
9.9782589
9.9477501
9.9068157
9.9786475
29.568554
30.559842
29.097404
29.752974
29.860839
29.840523
29.819849
29.795304
29.760294
29.698753
30.559842
29.60916
29.43461
29.987803
30.038838
30.004024
29.966685
29.924721
29.967053
29.987374
29.097404
29.43461
28.979002
29.463257
29.510726
29.478211
29.430236
29.345951
29.354352
29.585685
29.752974
29.987803
29.463257
29.938503
29.987937
29.958873
29.911472
29.808493
29.747739
29.818159
29.860839
30.038838
29.510726
29.987937
30.039477
30.01275
29.969412
29.871166
29.812001
29.862483
29.840523
30.004024
29.478211
29.958873
30.01275
29.9871
29.945386
29.850838
29.79756
29.852772
29.819849
29.966685
29.430236
29.911472
29.969412
29.945386
29.903263
29.808207
29.754982
29.812913
29.795304
29.924721
29.345951
29.808493
29.871166
29.850838
29.808207
29.71086
29.654875
29.719425
29.760294
29.967053
29.354352
29.747739
29.812001
29.79756
29.754982
29.654875
29.597212
29.691121
29.698753
29.987374
29.585685
29.818159
29.862483
29.852772
29.812913
29.719425
29.691121
29.842013
49.101504
50.305727
48.58542
49.467546
49.603997
49.571717
49.532875
49.485521
49.475664
49.226216
50.305727
49.106442
48.958662
49.701111
49.766494
49.711652
49.634263
49.53777
49.738033
49.752277
48.58542
48.958662
48.453095
49.110327
49.172465
49.121786
49.026422
48.846634
48.962062
49.249991
49.467546
49.701111
49.110327
49.756561
49.821691
49.776909
49.683687
49.474947
49.486464
49.540891
49.603997
49.766494
49.172465
49.821691
49.889742
49.848655
49.762242
49.560977
49.574991
49.596387
49.571717
49.711652
49.121786
49.776909
49.848655
49.809092
49.725043
49.528969
49.551116
49.576747
49.532875
49.634263
49.026422
49.683687
49.762242
49.725043
49.640077
49.442543
49.463606
49.493185
49.485521
49.53777
48.846634
49.474947
49.560977
49.528969
49.442543
49.240343
49.256325
49.310635
49.475664
49.738033
48.962062
49.486464
49.574991
49.551116
49.463606
49.256325
49.275639
49.449005
49.226216
49.752277
49.249991
49.540891
49.596387
49.576747
49.493185
49.310635
49.449005
49.470947
68.252215
69.749259
67.707934
68.789091
68.954313
68.911017
68.848631
68.766413
68.824674
68.49614
69.749259
68.383851
68.201028
69.112754
69.194152
69.120574
68.994331
68.811085
69.176025
69.195009
67.707934
68.201028
67.593775
68.405387
68.483803
68.416936
68.267916
67.967034
68.216352
68.592
68.789091
69.112754
68.405387
69.203904
69.286126
69.227546
69.08218
68.741962
68.855378
68.937207
68.954313
69.194152
68.483803
69.286126
69.371915
69.318264
69.182105
68.851211
68.966965
69.003818
68.911017
69.120574
68.416936
69.227546
69.318264
69.266598
69.133482
68.808863
68.934112
68.973147
68.848631
68.994331
68.267916
69.08218
69.182105
69.133482
68.998837
68.671258
68.792984
68.835356
68.766413
68.811085
67.967034
68.741962
68.851211
68.808863
68.671258
68.335322
68.448126
68.542686
68.824674
69.176025
68.216352
68.855378
68.966965
68.934112
68.792984
68.448126
68.577255
68.971633
68.49614
69.195009
68.592
68.937207
69.003818
68.973147
68.835356
68.542686
68.971633
68.774623
87.089162
88.8442
86.47617
87.746054
87.939692
87.885917
87.796402
87.662942
87.762467
87.35841
88.8442
87.301101
87.070274
88.143337
88.241403
88.150738
87.973765
87.689367
88.199759
88.212278
86.47617
87.070274
86.351968
87.310682
87.405974
87.324651
87.120574
86.685661
87.056493
87.509876
87.746054
88.143337
87.310682
88.254206
88.354009
88.283233
88.084038
87.598982
87.803063
87.906748
87.939692
88.241403
87.405974
88.354009
88.457966
88.393314
88.205551
87.73121
87.936975
87.9845
87.885917
88.150738
87.324651
88.283233
88.393314
88.331148
88.147098
87.679886
87.895942
87.942646
87.796402
87.973765
87.120574
88.084038
88.205551
88.147098
87.960826
87.488633
87.697311
87.744229
87.662942
87.689367
86.685661
87.598982
87.73121
87.679886
87.488633
87.002678
87.195018
87.3228
87.762467
88.199759
87.056493
87.803063
87.936975
87.895942
87.697311
87.195018
87.41424
88.06877
87.35841
88.212278
87.509876
87.906748
87.9845
87.942646
87.744229
87.3228
88.06877
87.646497
105.40863
107.40043
104.71827
106.16886
106.39027
106.32708
106.21108
106.02407
106.15759
105.68132
107.40043
105.68195
105.403
106.63076
106.74556
106.63953
106.41361
106.02702
106.67627
106.68267
104.71827
105.403
104.57651
105.67633
105.78849
105.69427
105.43689
104.8675
105.35538
105.88453
106.16886
106.63076
105.67633
106.75892
106.87623
106.79471
106.54326
105.91287
106.20417
106.3305
106.39027
106.74556
105.78849
106.87623
106.99826
106.92404
106.68614
106.06765
106.35982
106.41931
106.32708
106.63953
105.69427
106.79471
106.92404
106.85284
106.61935
106.00877
106.3118
106.36698
106.21108
106.41361
105.43689
106.54326
106.68614
106.61935
106.38299
105.76523
106.05636
106.10689
106.02407
106.02702
104.8675
105.91287
106.06765
106.00877
105.76523
105.12748
105.39275
105.55183
106.15759
106.67627
105.35538
106.20417
106.35982
106.3118
106.05636
105.39275
105.69295
106.61715
105.68132
106.68267
105.88453
106.3305
106.41931
106.36698
106.10689
105.55183
106.61715
105.97552
123.07612
125.29122
122.31168
123.93419
124.18224
124.11049
123.96934
123.72986
123.89551
123.351
125.29122
123.40731
123.08212
124.45712
124.58816
124.46791
124.19514
123.70855
124.49207
124.49347
122.31168
123.08212
122.15265
123.38686
123.51536
123.40927
123.10076
122.40001
123.00152
123.60431
123.93419
124.45712
123.38686
124.60191
124.73617
124.64485
124.34321
123.57084
123.94713
124.09659
124.18224
124.58816
123.51536
124.73617
124.87569
124.79282
124.50678
123.74737
124.12368
124.19614
124.11049
124.46791
123.40927
124.64485
124.79282
124.71353
124.43262
123.68191
124.0696
124.13407
123.96934
124.19514
123.10076
124.34321
124.50678
124.43262
124.14827
123.38825
123.75933
123.8134
123.72986
123.70855
122.40001
123.57084
123.74737
123.68191
123.38825
122.60176
122.93658
123.12566
123.89551
124.49207
123.00152
123.94713
124.12368
124.0696
123.75933
122.93658
123.31299
124.50509
123.351
124.49347
123.60431
124.09659
124.19614
124.13407
123.8134
123.12566
124.50509
123.65048
139.98328
142.40825
139.14983
140.93428
141.20747
141.12773
140.96253
140.67216
140.8687
140.25964
142.40825
140.37074
140.0014
141.51516
141.66161
141.528
141.21028
140.62671
141.53946
141.5362
139.14983
140.0014
138.97475
140.33575
140.47978
140.36257
140.00501
139.17717
139.8884
140.56146
140.93428
141.51516
140.33575
141.67576
141.82612
141.72566
141.37587
140.46619
140.92493
141.09698
141.20747
141.66161
140.47978
141.82612
141.98225
141.89134
141.55912
140.66338
141.12132
141.2067
141.12773
141.528
140.36257
141.72566
141.89134
141.80457
141.47819
140.59193
141.06174
141.13549
140.96253
141.21028
140.00501
141.37587
141.55912
141.47819
141.14789
140.25029
140.69886
140.75613
140.67216
140.62671
139.17717
140.46619
140.66338
140.59193
140.25029
139.31987
139.7216
139.93915
140.8687
141.53946
139.8884
140.92493
141.12132
141.06174
140.69886
139.7216
140.17078
141.62426
140.25964
141.5362
140.56146
141.09698
141.2067
141.13549
140.75613
139.93915
141.62426
140.56293
156.02728
158.64731
155.1301
157.06548
157.36209
157.27482
157.08663
156.74718
156.97332
156.3035
158.64731
156.46884
156.05763
157.70079
157.86171
157.71554
157.35487
156.6779
157.71415
157.7063
155.1301
156.05763
154.94013
156.4195
156.57813
156.4505
156.04614
155.09628
155.91275
156.65195
157.06548
157.70079
156.4195
157.87619
158.04169
157.93268
157.53694
156.49551
157.03377
157.22738
157.36209
157.86171
156.57813
158.04169
158.21343
158.11502
157.73869
156.71212
157.24875
157.3466
157.27482
157.71554
156.4505
157.93268
158.11502
158.02129
157.6515
156.63514
157.1841
157.26675
157.08663
157.35487
156.04614
157.53694
157.73869
157.6515
157.27735
156.24774
156.77099
156.83106
156.74718
156.6779
155.09628
156.49551
156.71212
156.63514
156.24774
155.17916
155.64515
155.88963
156.97332
157.71415
155.91275
157.03377
157.24875
157.1841
156.77099
155.64515
156.16398
157.86994
156.3035
157.7063
156.65195
157.22738
157.3466
157.26675
156.83106
155.88963
157.86994
156.60873
171.10956
173.90849
170.15417
172.22854
172.54671
172.45242
172.2424
171.85595
172.11026
171.3838
173.90849
171.60251
171.15195
172.91437
173.08874
172.93087
172.52947
171.76328
172.91661
172.90418
170.15417
171.15195
169.95048
171.53909
171.7113
171.57402
171.12534
170.05931
170.97595
171.77672
172.22854
172.91437
171.53909
173.10346
173.28304
173.16614
172.72687
171.56011
172.17452
172.38848
172.54671
173.08874
171.7113
173.28304
173.46931
173.36399
172.94586
171.79477
172.40674
172.51645
172.45242
172.93087
171.57402
173.16614
173.36399
173.26385
172.85292
171.71271
172.33742
172.42847
172.2424
172.52947
171.12534
172.72687
172.94586
172.85292
172.43723
171.28196
171.87666
171.93913
171.85595
171.76328
170.05931
171.56011
171.79477
171.71271
171.28196
170.08184
170.60919
170.87899
172.11026
172.91661
170.97595
172.17452
172.40674
172.33742
171.87666
170.60919
171.19434
173.14223
171.3838
172.90418
171.77672
172.38848
172.51645
172.42847
171.93913
170.87899
173.14223
171.68898
185.1371
188.0977
184.12939
186.32994
186.66769
186.56696
186.33639
185.90531
186.18621
185.40757
188.0977
185.6784
185.19126
187.06207
187.24879
187.08019
186.64051
185.78981
187.05309
187.03616
184.12939
185.19126
183.91323
185.60127
185.78599
185.63987
185.14963
183.97399
184.98513
185.84252
186.32994
187.06207
185.60127
187.26366
187.4562
187.33211
186.85202
185.5671
186.25386
186.48683
186.66769
187.24879
185.78599
187.4562
187.65582
187.54423
187.08687
185.81834
186.50187
186.62276
186.56696
187.08019
185.63987
187.33211
187.54423
187.43828
186.98873
185.7317
186.4283
186.52719
186.33639
186.64051
185.14963
186.85202
187.08687
186.98873
186.53405
185.26026
185.92273
185.98721
185.90531
185.78981
183.97399
185.5671
185.81834
185.7317
185.26026
183.93599
184.52144
184.81488
186.18621
187.05309
184.98513
186.25386
186.50187
186.4283
185.92273
184.52144
185.16929
187.34706
185.40757
187.03616
185.84252
186.48683
186.62276
186.52719
185.98721
184.81488
187.34706
185.71075
198.02339
201.12739
196.96956
199.28272
199.63796
199.53138
199.28167
198.80862
199.11437
198.28836
201.12739
198.6097
198.08898
200.05663
200.25454
200.07623
199.60099
198.671
200.03645
200.01511
196.96956
198.08898
196.74224
198.5193
198.71539
198.56133
198.03254
196.75453
197.85393
198.76264
199.28272
200.05663
198.5193
200.26946
200.47377
200.34324
199.82527
198.43011
199.18498
199.43553
199.63796
200.25454
198.71539
200.47377
200.68551
200.56831
200.07453
198.69638
199.44724
199.57855
199.53138
200.07623
198.56133
200.34324
200.56831
200.4572
199.97179
198.60568
199.36985
199.47597
199.28167
199.60099
198.03254
199.82527
200.07453
199.97179
199.48092
198.09643
198.8226
198.88869
198.80862
198.671
196.75453
198.43011
198.69638
198.60568
198.09643
196.65618
197.29613
197.61138
199.11437
200.03645
197.85393
199.18498
199.44724
199.36985
198.8226
197.29613
198.00267
200.39689
198.28836
200.01511
198.76264
199.43553
199.57855
199.47597
198.88869
197.61138
200.39689
198.5876
209.68896
212.91722
208.5955
211.007
211.37753
211.26576
210.99844
210.48633
210.81504
209.94674
212.91722
210.31665
209.76555
211.81791
212.02579
211.83885
211.33097
210.32744
211.78662
211.761
208.5955
209.76555
208.35841
210.21353
210.41976
210.2587
209.69462
208.32212
209.503
210.45743
211.007
211.81791
210.21353
212.04067
212.25547
212.1193
211.56664
210.06983
210.88816
211.15473
211.37753
212.02579
210.41976
212.25547
212.47801
212.35592
211.82877
210.34948
211.16304
211.30397
211.26576
211.83885
210.2587
212.1193
212.35592
212.24032
211.72205
210.25527
211.08231
211.195
210.99844
211.33097
209.69462
211.56664
211.82877
211.72205
211.198
209.71136
210.49674
210.56403
210.48633
210.32744
208.32212
210.06983
210.34948
210.25527
209.71136
208.164
208.85449
209.18961
210.81504
211.78662
209.503
210.88816
211.16304
211.08231
210.49674
208.85449
209.61536
212.21128
209.94674
211.761
210.45743
211.15473
211.30397
211.195
210.56403
209.18961
212.21128
210.24015
220.06186
223.39448
218.9355
221.43047
221.81401
221.69773
221.41445
220.86642
221.21607
220.31083
223.39448
220.72706
220.14898
222.27339
222.48994
222.29554
221.75813
220.68724
222.23116
222.20142
218.9355
220.14898
218.69011
220.61184
220.82695
220.65988
220.06397
218.60543
219.86051
220.85478
221.43047
222.27339
220.61184
222.50469
222.72865
222.58769
222.00373
220.4145
221.29124
221.57219
221.81401
222.48994
220.82695
222.72865
222.96063
222.8344
222.27711
220.7058
221.57705
221.72671
221.69773
222.29554
220.65988
222.58769
222.8344
222.71502
222.16706
220.60865
221.49346
221.61203
221.41445
221.75813
220.06397
222.00373
222.27711
222.16706
221.61307
220.03343
220.87317
220.94125
220.86642
220.68724
218.60543
220.4145
220.7058
220.60865
220.03343
218.3885
219.12527
219.47819
221.21607
222.23116
219.86051
221.29124
221.57705
221.49346
220.87317
219.12527
219.93578
222.71738
220.31083
222.20142
220.85478
221.57219
221.72671
221.61203
220.94125
219.47819
222.71738
220.59657
229.07813
232.49456
227.92582
230.48887
230.88305
230.76297
230.46546
229.8849
230.25332
229.31672
232.49456
229.77673
229.17523
231.35859
231.58248
231.3818
230.81819
229.68653
231.30566
231.27199
227.92582
229.17523
227.67363
229.65012
229.87277
229.70071
229.07665
227.54106
228.8626
229.89057
230.48887
231.35859
229.65012
231.597
231.82875
231.68384
231.07219
229.40034
230.33007
230.62367
230.88305
231.58248
229.87277
231.82875
232.06872
231.93912
231.35512
229.70148
230.62504
230.78253
230.76297
231.3818
229.70071
231.68384
231.93912
231.81669
231.24242
229.60199
230.53911
230.66283
230.46546
230.81819
229.07665
231.07219
231.35512
231.24242
230.66189
228.99899
229.88793
229.95637
229.8849
229.68653
227.54106
229.40034
229.70148
229.60199
228.99899
227.26664
228.04515
228.41369
230.25332
231.30566
228.8626
230.33007
230.62504
230.53911
229.88793
228.04515
228.9003
231.85042
229.31672
231.27199
229.89057
230.62367
230.78253
230.66283
229.95637
228.41369
231.85042
229.59301
236.68215
240.16133
235.51099
238.12633
238.5287
238.40557
238.09567
237.48615
237.87107
236.90889
240.16133
237.40985
236.78864
239.01748
239.24733
239.04161
238.45526
237.2698
238.95418
238.91677
235.51099
236.78864
235.25356
237.27262
237.50144
237.32546
236.67708
235.07391
236.45375
237.5091
238.12633
239.01748
237.27262
239.26154
239.49963
239.35168
238.7161
236.97192
237.94892
238.25336
238.5287
239.24733
237.50144
239.49963
239.74611
239.61395
239.00684
237.28105
238.25123
238.41556
238.40557
239.04161
237.32546
239.35168
239.61395
239.48922
238.89218
237.17984
238.16349
238.29159
238.09567
238.45526
236.67708
238.7161
239.00684
238.89218
238.28869
236.55278
237.48542
237.55381
237.48615
237.2698
235.07391
236.97192
237.28105
237.17984
236.55278
234.74367
235.55912
235.94102
237.87107
238.95418
236.45375
237.94892
238.25123
238.16349
237.48542
235.55912
236.45364
239.5541
236.90889
238.91677
237.5091
238.25336
238.41556
238.29159
237.55381
235.94102
239.5541
237.174
242.82704
246.34752
241.64424
244.29573
244.70383
244.5784
244.25801
243.62329
244.02234
243.0405
246.34752
243.57935
242.94225
245.20284
245.43723
245.22773
244.62225
243.39031
245.12953
245.08862
241.64424
242.94225
241.38315
243.43234
243.66591
243.48708
242.81839
241.15752
242.58717
243.66337
244.29573
245.20284
243.43234
245.45102
245.694
245.5439
244.88832
243.08257
244.10081
244.41421
244.70383
245.43723
243.66591
245.694
245.94547
245.81155
245.18507
243.39778
244.40859
244.57876
244.5784
245.22773
243.48708
245.5439
245.81155
245.68528
245.06916
243.29546
244.31957
244.45126
244.25801
244.62225
242.81839
244.88832
245.18507
245.06916
244.44643
242.6482
243.6188
243.68671
243.62329
243.39031
241.15752
243.08257
243.39778
243.29546
242.6482
240.77349
241.62085
242.01375
244.02234
245.12953
242.58717
244.10081
244.40859
244.31957
243.6188
241.62085
242.54922
245.78091
243.0405
245.08862
243.66337
244.41421
244.57876
244.45126
243.68671
242.01375
245.78091
243.29279
247.47489
251.01496
246.28774
248.95904
249.37034
249.24338
248.91449
248.25847
248.66919
247.67375
251.01496
248.24716
247.59811
249.8765
250.11398
249.902
249.28113
248.01029
249.79364
249.74948
246.28774
247.59811
246.0246
248.09129
248.32816
248.14759
247.46271
245.75437
247.225
248.31543
248.95904
249.8765
248.09129
250.12729
250.37364
250.22233
249.55078
247.69459
248.74779
249.06822
249.37034
250.11398
248.32816
250.37364
250.62855
250.49369
249.85172
248.01393
249.05914
249.23409
249.24338
249.902
248.14759
250.22233
250.49369
250.36668
249.73526
247.91114
248.9694
249.10387
248.91449
249.28113
247.46271
249.55078
249.85172
249.73526
249.09712
247.24767
248.25024
248.31725
248.25847
248.01029
245.75437
247.69459
248.01393
247.91114
247.24767
245.31891
246.19296
246.59443
248.66919
249.79364
247.225
248.74779
249.05914
248.9694
248.25024
246.19296
247.14945
250.49245
247.67375
249.74948
248.31543
249.06822
249.23409
249.10387
248.31725
246.59443
250.49245
247.91165
250.59702
254.13486
249.41284
252.08749
252.49945
252.37174
252.03636
251.3631
251.78296
250.78005
254.13486
251.3845
250.72749
253.00964
253.24874
253.03558
252.40314
251.10125
252.91773
252.87059
249.41284
250.72749
249.14927
251.22071
251.45944
251.27824
250.58138
248.83611
250.33866
251.43659
252.08749
253.00964
251.22071
253.26148
253.50969
253.3581
252.67472
250.77953
251.8612
252.18668
252.49945
253.24874
251.45944
253.50969
253.76647
253.63151
252.97798
251.10104
252.1742
252.35286
252.37174
253.03558
251.27824
253.3581
253.63151
253.50452
252.8617
250.9984
252.08428
252.2207
252.03636
252.40314
250.58138
252.67472
252.97798
252.8617
252.21209
250.32281
251.35117
251.41687
251.3631
251.10125
248.83611
250.77953
251.10104
250.9984
250.32281
248.3519
249.24724
249.65481
251.78296
252.91773
250.33866
251.8612
252.1742
252.08428
251.35117
249.24724
250.22597
253.65966
250.78005
252.87059
251.43659
252.18668
252.35286
252.2207
251.41687
249.65481
253.65966
251.00209
252.17417
255.68796
251.00026
253.66175
254.07185
253.94417
253.60438
252.91801
253.34442
252.34023
255.68796
252.972
252.31109
254.58292
254.82218
254.60915
253.96904
252.64411
254.48253
254.4327
251.00026
252.31109
250.73789
252.80131
253.04041
252.85969
252.15516
250.38371
251.90892
253.00759
253.66175
254.58292
252.80131
254.83425
255.0828
254.93186
254.24086
252.31836
253.42183
253.75035
254.07185
254.82218
253.04041
255.0828
255.33986
255.20563
254.54458
252.64005
253.73456
253.91582
253.94417
254.60915
252.85969
254.93186
255.20563
255.07945
254.42919
252.5382
253.64501
253.78254
253.60438
253.96904
252.15516
254.24086
254.54458
254.42919
253.77212
251.85466
252.90246
252.96645
252.91801
252.64411
250.38371
252.31836
252.64005
252.5382
251.85466
249.85373
250.76486
251.17602
253.34442
254.48253
251.90892
253.42183
253.73456
253.64501
252.90246
250.76486
251.75978
255.263
252.34023
254.4327
253.00759
253.75035
253.91582
253.78254
252.96645
251.17602
255.263
252.54505
252.19658
255.66467
251.04019
253.67212
254.07781
253.95096
253.60885
252.91362
253.34394
252.34466
255.66467
252.99986
252.33911
254.58662
254.82455
254.61297
253.96914
252.62935
254.47836
254.42615
251.04019
252.33911
250.78063
252.82331
253.06131
252.8822
252.17433
250.38763
251.92609
253.01871
253.67212
254.58662
252.82331
254.8359
255.08325
254.93388
254.23953
252.30157
253.42004
253.74958
254.07781
254.82455
253.06131
255.08325
255.339
255.20633
254.54184
252.62146
253.73056
253.9133
253.95096
254.61297
252.8822
254.93388
255.20633
255.08174
254.42805
252.52102
253.64195
253.77974
253.60885
253.96914
252.17433
254.23953
254.54184
254.42805
253.76756
251.83374
252.89454
252.95641
252.91362
252.62935
250.38763
252.30157
252.62146
252.52102
251.83374
249.81515
250.73643
251.14864
253.34394
254.47836
251.92609
253.42004
253.73056
253.64195
252.89454
250.73643
251.74142
255.29256
252.34466
254.42615
253.01871
253.74958
253.9133
253.77974
252.95641
251.14864
255.29256
252.53098
250.66412
254.06512
249.53237
252.11851
252.5173
252.39206
252.04973
251.34992
251.78151
250.7933
254.06512
251.46787
250.81137
253.02071
253.25584
253.04701
252.40343
251.05703
252.90525
252.85098
249.53237
250.81137
249.27722
251.28656
251.522
251.34559
250.63875
248.84781
250.39005
251.46989
252.11851
253.02071
251.28656
253.2664
253.51102
253.36415
252.67072
250.72925
251.85582
252.18434
252.5173
253.25584
251.522
253.51102
253.76389
253.63359
252.96975
251.04536
252.16222
252.34532
252.39206
253.04701
251.34559
253.36415
253.63359
253.51136
252.85826
250.94696
252.07508
252.21228
252.04973
252.40343
250.63875
252.67072
252.96975
252.85826
252.19844
250.26018
251.32743
251.38681
251.34992
251.05703
248.84781
250.72925
251.04536
250.94696
250.26018
248.23637
249.16213
249.57285
251.78151
252.90525
250.39005
251.85582
252.16222
252.07508
251.32743
249.16213
250.17098
253.74816
250.7933
252.85098
251.46989
252.18434
252.34532
252.21228
251.38681
249.57285
253.74816
250.95998
247.5862
250.89914
246.48607
249.01048
249.3999
249.27704
248.93662
248.23654
248.66673
247.69568
250.89914
248.38548
247.73726
249.8948
250.1257
249.92091
249.28154
247.93684
249.77286
249.71687
246.48607
247.73726
246.23691
248.20052
248.43195
248.25933
247.55788
245.77375
247.31024
248.37065
249.01048
249.8948
248.20052
250.13539
250.37578
250.23232
249.54409
247.61107
248.7388
249.06429
249.3999
250.1257
248.43195
250.37578
250.62421
250.49709
249.83799
247.92147
249.03919
249.22153
249.27704
249.92091
248.25933
250.23232
250.49709
250.37797
249.7295
247.82571
248.95407
249.08984
248.93662
249.28154
247.55788
249.54409
249.83799
249.7295
249.0744
247.14366
248.21078
248.2673
248.23654
247.93684
245.77375
247.61107
247.92147
247.82571
247.14366
245.1271
246.05164
246.45833
248.66673
249.77286
247.31024
248.7388
249.03919
248.95407
248.21078
246.05164
247.05813
250.63929
247.69568
249.71687
248.37065
249.06429
249.22153
249.08984
248.2673
246.45833
250.63929
247.8417
242.98178
246.18623
241.92006
244.36717
244.74483
244.62511
244.28868
243.59266
244.0188
243.0709
246.18623
243.77166
243.13573
245.22817
245.45341
245.25392
244.62271
243.288
245.1005
245.04313
241.92006
243.13573
241.67842
243.5842
243.81019
243.64242
242.95069
241.18436
242.70564
243.74008
244.36717
245.22817
243.5842
245.46217
245.69684
245.55768
244.8789
242.96625
244.08819
244.40863
244.74483
245.45341
243.81019
245.69684
245.93931
245.81615
245.16587
243.26902
244.38072
244.56116
244.62511
245.25392
243.64242
245.55768
245.81615
245.70088
245.06104
243.17649
244.29814
244.43163
244.28868
244.62271
242.95069
244.8789
245.16587
245.06104
244.4147
242.50338
243.56379
243.61711
243.59266
243.288
241.18436
242.96625
243.26902
243.17649
242.50338
240.50651
241.42412
241.82428
244.0188
245.1005
242.70564
244.08819
244.38072
244.29814
243.56379
241.42412
242.42205
245.98511
243.0709
245.04313
243.74008
244.40863
244.56116
244.43163
243.61711
241.82428
245.98511
243.19535
236.87924
239.95544
235.86246
238.21719
238.58076
238.46492
238.13457
237.44689
237.86636
236.94745
239.95544
237.65485
237.03513
239.04957
239.26775
239.0748
238.45564
237.13915
238.91696
238.85856
235.86246
237.03513
235.62984
237.46604
237.68519
237.52332
236.84557
235.10794
236.60463
237.60671
238.21719
239.04957
237.46604
239.27554
239.50305
239.36904
238.70388
236.82341
237.93264
238.24606
238.58076
239.26775
237.68519
239.50305
239.73805
239.61962
238.98215
237.11668
238.2155
238.39294
238.46492
239.0748
237.52332
239.36904
239.61962
239.5089
238.88163
237.02795
238.13597
238.26637
238.13457
238.45564
236.84557
238.70388
238.98215
238.88163
238.24805
236.36794
237.4151
237.46488
237.44689
237.13915
235.10794
236.82341
237.11668
237.02795
236.36794
234.40306
235.30809
235.69926
237.86636
238.91696
236.60463
237.93264
238.2155
238.13597
237.4151
235.30809
236.29131
239.8143
236.94745
238.85856
237.60671
238.24606
238.39294
238.26637
237.46488
235.69926
239.8143
237.04958
229.31617
232.24516
228.35062
230.59844
230.94568
230.83444
230.5122
229.8371
230.24732
229.36307
232.24516
230.07273
229.47304
231.39706
231.60685
231.42162
230.81834
229.52818
231.26035
231.20129
228.35062
229.47304
228.12845
229.88374
230.09471
229.93974
229.28015
227.58193
229.0448
230.00836
230.59844
231.39706
229.88374
231.61362
231.83256
231.70454
231.05711
229.22041
230.31008
230.61455
230.94568
231.60685
230.09471
231.83256
232.05866
231.94568
231.32497
229.50236
230.58154
230.75488
230.83444
231.42162
229.93974
231.70454
231.94568
231.8402
231.22938
229.418
230.50555
230.63206
230.5122
230.81834
229.28015
231.05711
231.32497
231.22938
230.61246
228.77514
229.8026
229.84854
229.8371
229.52818
227.58193
229.22041
229.50236
229.418
228.77514
226.85438
227.74125
228.12101
230.24732
231.26035
229.0448
230.31008
230.58154
230.50555
229.8026
227.74125
228.7037
232.1649
229.36307
231.20129
230.00836
230.61455
230.75488
230.63206
229.84854
228.12101
232.1649
229.44227
220.33919
223.10291
219.43082
221.55788
221.88666
221.78069
221.46856
220.81021
221.20864
220.36451
223.10291
221.07204
220.49608
222.31782
222.51792
222.34157
221.75787
220.50201
222.17785
222.11849
219.43082
220.49608
219.22047
220.88404
221.08554
220.93841
220.30105
218.65272
220.07275
220.99184
221.55788
222.31782
220.88404
222.52363
222.73267
222.61141
221.98572
220.2041
221.26751
221.56115
221.88666
222.51792
221.08554
222.73267
222.94846
222.84163
222.24151
220.47302
221.5259
221.69407
221.78069
222.34157
220.93841
222.61141
222.84163
222.74206
222.15144
220.39353
221.45392
221.57575
221.46856
221.75787
220.30105
221.98572
222.24151
222.15144
221.55498
219.7718
220.77323
220.81504
220.81021
220.50201
218.65272
220.2041
220.47302
220.39353
219.7718
217.907
218.77024
219.13625
221.20864
222.17785
220.07275
221.26751
221.5259
221.45392
220.77323
218.77024
219.70599
223.08406
220.36451
222.11849
220.99184
221.56115
221.69407
221.57575
220.81504
219.13625
223.08406
220.4203
210.00363
212.58504
209.15804
211.15124
211.45952
211.3595
211.05939
210.42186
210.80604
210.00724
212.58504
210.70825
210.15957
211.8678
212.05699
211.8906
211.3301
210.11628
211.72546
211.66617
209.15804
210.15957
208.96082
210.52241
210.71319
210.57483
209.96364
208.37535
209.74379
210.61275
211.15124
211.8678
210.52241
212.0616
212.25944
212.14571
211.54561
209.83007
210.86066
211.14166
211.45952
212.05699
210.71319
212.25944
212.46361
212.3636
211.78776
210.0843
211.10439
211.26635
211.3595
211.8906
210.57483
212.14571
212.3636
212.27054
211.70378
210.01018
211.03687
211.15328
211.05939
211.3301
209.96364
211.54561
211.78776
211.70378
211.13147
209.41341
210.38263
210.42007
210.42186
210.11628
208.37535
209.83007
210.0843
210.01018
209.41341
207.61608
208.45036
208.80038
210.80604
211.72546
209.74379
210.86066
211.10439
211.03687
210.38263
208.45036
209.35364
212.62776
210.00724
211.66617
210.61275
211.14166
211.26635
211.15328
210.42007
208.80038
212.62776
210.03929
198.37319
200.75638
197.59561
199.44264
199.72854
199.63508
199.34887
198.73608
199.10366
198.3551
200.75638
199.04524
198.52723
200.11142
200.28854
200.13314
199.5993
198.43501
199.96761
199.90876
197.59561
198.52723
197.41273
198.86272
199.04161
198.91287
198.33162
196.81318
198.1216
198.93506
199.44264
200.11142
198.86273
200.29203
200.47746
200.37196
199.80115
198.16228
199.1537
199.42033
199.72854
200.28854
199.04161
200.47746
200.66875
200.57618
200.02818
198.40024
199.38126
199.53603
199.63508
200.13314
198.91287
200.37196
200.57618
200.49021
199.95081
198.33196
199.31863
199.42889
199.34887
199.5993
198.33162
199.80115
200.02818
199.95081
199.40618
197.76384
198.69489
198.72771
198.73608
198.43501
196.81318
198.16228
198.40024
198.33196
197.76384
196.04506
196.84525
197.17711
199.10366
199.96761
198.1216
199.1537
199.38126
199.31863
198.69489
196.84525
197.7105
200.86047
198.3551
199.90876
198.93506
199.42033
199.53603
199.42889
198.72771
197.17711
200.86047
198.36326
185.51957
187.68983
184.81478
186.50428
186.76603
186.67972
186.40917
185.82492
186.17362
185.47993
187.68983
186.1549
185.67077
187.12115
187.28511
187.14168
186.63779
185.53021
186.97679
186.91874
184.81478
185.67077
184.64738
185.97685
186.14275
186.02443
185.47671
184.03748
185.27782
186.03078
186.50428
187.12115
185.97685
187.28746
187.45935
187.36274
186.82475
185.27265
186.21879
186.46941
186.76603
187.28511
186.14275
187.45935