/*--------------------------------*- C++ -*----------------------------------*\
| =========                 |                                                 |
| \\      /  F ield         | OpenFOAM: The Open Source CFD Toolbox           |
|  \\    /   O peration     | Version:  v2106                                 |
|   \\  /    A nd           | Website:  www.openfoam.com                      |
|    \\/     M anipulation  |                                                 |
\*---------------------------------------------------------------------------*/
FoamFile
{
    version     2.0;
    format      ascii;
    arch        "LSB;label=32;scalar=64";
    class       volVectorField;
    location    "0.9";
    object      U;
}
// * * * * * * * * * * * * * * * * * * * * * * * * * * * * * * * * * * * * * //

dimensions      [0 1 -1 0 0 0 0];

internalField   nonuniform List<vector> 
400
(
(0.000306191 0 0)
(0.000910146 0 0)
(0.00148928 0 0)
(0.00202838 0 0)
(0.00251397 0 0)
(0.00293463 0 0)
(0.0032812 0 0)
(0.00354671 0 0)
(0.00372625 0 0)
(0.00381671 0 0)
(0.0038166 0 0)
(0.00372591 0 0)
(0.00354617 0 0)
(0.00328048 0 0)
(0.00293378 0 0)
(0.00251305 0 0)
(0.00202745 0 0)
(0.00148843 0 0)
(0.0009095 0 0)
(0.000305918 0 0)
(0.000941998 0 0)
(0.00279994 0 0)
(0.00458122 0 0)
(0.0062389 0 0)
(0.00773147 0 0)
(0.00902392 0 0)
(0.0100883 0 0)
(0.0109034 0 0)
(0.0114544 0 0)
(0.011732 0 0)
(0.0117317 0 0)
(0.0114535 0 0)
(0.0109019 0 0)
(0.0100863 0 0)
(0.00902158 0 0)
(0.00772892 0 0)
(0.00623636 0 0)
(0.00457892 0 0)
(0.00279822 0 0)
(0.000941282 0 0)
(0.00164896 0 0)
(0.00490089 0 0)
(0.00801742 0 0)
(0.010916 0 0)
(0.0135237 0 0)
(0.01578 0 0)
(0.0176364 0 0)
(0.0190571 0 0)
(0.020017 0 0)
(0.0205003 0 0)
(0.0204999 0 0)
(0.0200156 0 0)
(0.0190549 0 0)
(0.0176335 0 0)
(0.0157765 0 0)
(0.01352 0 0)
(0.0109122 0 0)
(0.00801406 0 0)
(0.00489839 0 0)
(0.00164794 0 0)
(0.00247738 0 0)
(0.00736201 0 0)
(0.0120404 0 0)
(0.0163874 0 0)
(0.0202936 0 0)
(0.0236686 0 0)
(0.026442 0 0)
(0.0285619 0 0)
(0.0299927 0 0)
(0.030713 0 0)
(0.0307124 0 0)
(0.029991 0 0)
(0.0285591 0 0)
(0.0264383 0 0)
(0.0236643 0 0)
(0.0202889 0 0)
(0.0163828 0 0)
(0.0120363 0 0)
(0.00735898 0 0)
(0.00247613 0 0)
(0.00348177 0 0)
(0.0103447 0 0)
(0.0169121 0 0)
(0.0230058 0 0)
(0.0284723 0 0)
(0.0331866 0 0)
(0.0370532 0 0)
(0.0400038 0 0)
(0.0419928 0 0)
(0.0429932 0 0)
(0.0429926 0 0)
(0.0419908 0 0)
(0.0400006 0 0)
(0.037049 0 0)
(0.0331817 0 0)
(0.0284671 0 0)
(0.0230007 0 0)
(0.0169075 0 0)
(0.0103413 0 0)
(0.00348037 0 0)
(0.0047229 0 0)
(0.0140284 0 0)
(0.0229224 0 0)
(0.0311596 0 0)
(0.0385317 0 0)
(0.0448733 0 0)
(0.0500615 0 0)
(0.0540118 0 0)
(0.0566702 0 0)
(0.0580059 0 0)
(0.0580051 0 0)
(0.0566681 0 0)
(0.0540085 0 0)
(0.0500571 0 0)
(0.0448681 0 0)
(0.0385262 0 0)
(0.0311542 0 0)
(0.0229176 0 0)
(0.0140248 0 0)
(0.00472142 0 0)
(0.0062702 0 0)
(0.0186174 0 0)
(0.0303996 0 0)
(0.0412845 0 0)
(0.0509962 0 0)
(0.0593223 0 0)
(0.0661118 0 0)
(0.0712662 0 0)
(0.074727 0 0)
(0.0764634 0 0)
(0.0764627 0 0)
(0.0747249 0 0)
(0.0712628 0 0)
(0.0661074 0 0)
(0.0593171 0 0)
(0.0509906 0 0)
(0.0412791 0 0)
(0.0303948 0 0)
(0.0186138 0 0)
(0.00626869 0 0)
(0.00820503 0 0)
(0.0243501 0 0)
(0.0397231 0 0)
(0.0538783 0 0)
(0.0664565 0 0)
(0.0771928 0 0)
(0.0859104 0 0)
(0.0925036 0 0)
(0.0969175 0 0)
(0.0991281 0 0)
(0.0991275 0 0)
(0.0969155 0 0)
(0.0925004 0 0)
(0.0859062 0 0)
(0.0771879 0 0)
(0.0664512 0 0)
(0.0538731 0 0)
(0.0397185 0 0)
(0.0243466 0 0)
(0.00820354 0 0)
(0.0106255 0 0)
(0.031512 0 0)
(0.0513418 0 0)
(0.0695203 0 0)
(0.0855868 0 0)
(0.0992222 0 0)
(0.110233 0 0)
(0.11852 0 0)
(0.124047 0 0)
(0.126808 0 0)
(0.126808 0 0)
(0.124045 0 0)
(0.118517 0 0)
(0.110229 0 0)
(0.0992178 0 0)
(0.0855821 0 0)
(0.0695156 0 0)
(0.0513376 0 0)
(0.0315088 0 0)
(0.0106241 0 0)
(0.0136541 0 0)
(0.0404564 0 0)
(0.0658019 0 0)
(0.088899 0 0)
(0.109167 0 0)
(0.12624 0 0)
(0.139928 0 0)
(0.150166 0 0)
(0.156962 0 0)
(0.160348 0 0)
(0.160348 0 0)
(0.156961 0 0)
(0.150164 0 0)
(0.139925 0 0)
(0.126237 0 0)
(0.109164 0 0)
(0.088895 0 0)
(0.0657983 0 0)
(0.0404537 0 0)
(0.0136528 0 0)
(0.0174507 0 0)
(0.0516387 0 0)
(0.0837909 0 0)
(0.112855 0 0)
(0.138117 0 0)
(0.159187 0 0)
(0.175923 0 0)
(0.188344 0 0)
(0.196539 0 0)
(0.200607 0 0)
(0.200606 0 0)
(0.196538 0 0)
(0.188342 0 0)
(0.175921 0 0)
(0.159184 0 0)
(0.138114 0 0)
(0.112852 0 0)
(0.0837882 0 0)
(0.0516366 0 0)
(0.0174497 0 0)
(0.022236 0 0)
(0.0656757 0 0)
(0.106211 0 0)
(0.142445 0 0)
(0.173536 0 0)
(0.199133 0 0)
(0.219225 0 0)
(0.233986 0 0)
(0.243652 0 0)
(0.248428 0 0)
(0.248427 0 0)
(0.243651 0 0)
(0.233985 0 0)
(0.219223 0 0)
(0.199132 0 0)
(0.173535 0 0)
(0.142443 0 0)
(0.10621 0 0)
(0.0656743 0 0)
(0.0222353 0 0)
(0.0283344 0 0)
(0.0834528 0 0)
(0.134305 0 0)
(0.179048 0 0)
(0.216776 0 0)
(0.247308 0 0)
(0.270907 0 0)
(0.288027 0 0)
(0.299134 0 0)
(0.30459 0 0)
(0.30459 0 0)
(0.299134 0 0)
(0.288027 0 0)
(0.270907 0 0)
(0.247308 0 0)
(0.216775 0 0)
(0.179047 0 0)
(0.134304 0 0)
(0.0834522 0 0)
(0.028334 0 0)
(0.0362617 0 0)
(0.106325 0 0)
(0.169865 0 0)
(0.224521 0 0)
(0.269515 0 0)
(0.305113 0 0)
(0.332093 0 0)
(0.351359 0 0)
(0.363716 0 0)
(0.369744 0 0)
(0.369744 0 0)
(0.363716 0 0)
(0.35136 0 0)
(0.332094 0 0)
(0.305114 0 0)
(0.269516 0 0)
(0.224522 0 0)
(0.169866 0 0)
(0.106325 0 0)
(0.0362616 0 0)
(0.046916 0 0)
(0.136516 0 0)
(0.215612 0 0)
(0.281436 0 0)
(0.333862 0 0)
(0.374125 0 0)
(0.403893 0 0)
(0.424743 0 0)
(0.437933 0 0)
(0.444315 0 0)
(0.444316 0 0)
(0.437934 0 0)
(0.424744 0 0)
(0.403894 0 0)
(0.374128 0 0)
(0.333864 0 0)
(0.281438 0 0)
(0.215614 0 0)
(0.136517 0 0)
(0.0469162 0 0)
(0.0620485 0 0)
(0.177946 0 0)
(0.275833 0 0)
(0.353392 0 0)
(0.412412 0 0)
(0.456022 0 0)
(0.487287 0 0)
(0.508687 0 0)
(0.522011 0 0)
(0.528398 0 0)
(0.528399 0 0)
(0.522012 0 0)
(0.508689 0 0)
(0.48729 0 0)
(0.456025 0 0)
(0.412415 0 0)
(0.353395 0 0)
(0.275836 0 0)
(0.177948 0 0)
(0.062049 0 0)
(0.0855971 0 0)
(0.238032 0 0)
(0.357441 0 0)
(0.445331 0 0)
(0.508165 0 0)
(0.552365 0 0)
(0.582902 0 0)
(0.603258 0 0)
(0.61571 0 0)
(0.621619 0 0)
(0.62162 0 0)
(0.615712 0 0)
(0.60326 0 0)
(0.582905 0 0)
(0.552368 0 0)
(0.508169 0 0)
(0.445334 0 0)
(0.357444 0 0)
(0.238035 0 0)
(0.0855979 0 0)
(0.128084 0 0)
(0.331678 0 0)
(0.471439 0 0)
(0.563515 0 0)
(0.624033 0 0)
(0.6641 0 0)
(0.69064 0 0)
(0.707834 0 0)
(0.718164 0 0)
(0.723017 0 0)
(0.723018 0 0)
(0.718165 0 0)
(0.707836 0 0)
(0.690642 0 0)
(0.664104 0 0)
(0.624037 0 0)
(0.563519 0 0)
(0.471442 0 0)
(0.33168 0 0)
(0.128084 0 0)
(0.223277 0 0)
(0.489553 0 0)
(0.633772 0 0)
(0.714147 0 0)
(0.761454 0 0)
(0.790655 0 0)
(0.809169 0 0)
(0.820844 0 0)
(0.827745 0 0)
(0.830959 0 0)
(0.830959 0 0)
(0.827746 0 0)
(0.820845 0 0)
(0.809171 0 0)
(0.790658 0 0)
(0.761457 0 0)
(0.71415 0 0)
(0.633775 0 0)
(0.489555 0 0)
(0.223277 0 0)
(0.49883 0 0)
(0.76973 0 0)
(0.860352 0 0)
(0.898395 0 0)
(0.917663 0 0)
(0.928696 0 0)
(0.935431 0 0)
(0.939596 0 0)
(0.942031 0 0)
(0.943159 0 0)
(0.943159 0 0)
(0.942031 0 0)
(0.939596 0 0)
(0.935432 0 0)
(0.928697 0 0)
(0.917664 0 0)
(0.898396 0 0)
(0.860353 0 0)
(0.769731 0 0)
(0.49883 0 0)
)
;

boundaryField
{
    movingWall
    {
        type            fixedValue;
        value           uniform (1 0 0);
    }
    fixedWalls
    {
        type            noSlip;
    }
    frontAndBack
    {
        type            empty;
    }
}


// ************************************************************************* //
