/*--------------------------------*- C++ -*----------------------------------*\
| =========                 |                                                 |
| \\      /  F ield         | OpenFOAM: The Open Source CFD Toolbox           |
|  \\    /   O peration     | Version:  v2106                                 |
|   \\  /    A nd           | Website:  www.openfoam.com                      |
|    \\/     M anipulation  |                                                 |
\*---------------------------------------------------------------------------*/
FoamFile
{
    version     2.0;
    format      ascii;
    arch        "LSB;label=32;scalar=64";
    class       volScalarField;
    location    "92.5";
    object      gradTx;
}
// * * * * * * * * * * * * * * * * * * * * * * * * * * * * * * * * * * * * * //

dimensions      [0 -1 0 1 0 0 0];

internalField   nonuniform List<scalar> 
4000
(
-4.6931328e-05
-0.00010311793
-5.1926896e-05
-2.8136567e-05
-8.9944592e-06
7.6566701e-06
2.1865444e-05
3.2241139e-05
3.4438219e-05
1.089467e-05
-4.1610047e-05
-9.32856e-05
-4.9357852e-05
-2.6996389e-05
-8.187093e-06
8.5678742e-06
2.335665e-05
3.538212e-05
4.1904695e-05
1.4422216e-05
-4.0376436e-05
-9.0197943e-05
-4.731527e-05
-2.5574387e-05
-6.9748084e-06
9.8852783e-06
2.5108496e-05
3.7958615e-05
4.5371903e-05
1.5702736e-05
-3.9897345e-05
-8.8673962e-05
-4.5782924e-05
-2.4182808e-05
-5.6467826e-06
1.1281759e-05
2.6704311e-05
3.9801477e-05
4.7193134e-05
1.6263503e-05
-3.9616321e-05
-8.7635767e-05
-4.4501686e-05
-2.2855256e-05
-4.3198533e-06
1.262863e-05
2.8089705e-05
4.1166496e-05
4.8310355e-05
1.6566624e-05
-3.9359101e-05
-8.6654315e-05
-4.3242628e-05
-2.1527863e-05
-3.008325e-06
1.3906675e-05
2.9318375e-05
4.2274231e-05
4.913261e-05
1.6775102e-05
-3.9008851e-05
-8.5407155e-05
-4.1787798e-05
-2.0111912e-05
-1.6949429e-06
1.5126201e-05
3.0450668e-05
4.3273317e-05
4.9867429e-05
1.6961085e-05
-3.8364966e-05
-8.3411257e-05
-3.989495e-05
-1.854666e-05
-3.9426753e-07
1.6267649e-05
3.1507781e-05
4.4254011e-05
5.0657023e-05
1.7176262e-05
-3.6914861e-05
-7.9689667e-05
-3.7368443e-05
-1.6904035e-05
7.7780761e-07
1.723303e-05
3.2430462e-05
4.5226122e-05
5.1613335e-05
1.7476946e-05
-3.3387315e-05
-7.2477573e-05
-3.4606521e-05
-1.5608202e-05
1.5452116e-06
1.7824715e-05
3.3032194e-05
4.5999922e-05
5.2660373e-05
1.7874282e-05
-0.00020480447
-0.0004590425
-0.0002432442
-0.00013401516
-4.2210964e-05
3.8933439e-05
0.00010910768
0.00016243694
0.00018088598
5.9346043e-05
-0.00017904301
-0.00041183442
-0.00023130215
-0.00012860515
-3.8296537e-05
4.3391232e-05
0.00011650717
0.00017874183
0.00022543962
8.1393396e-05
-0.00017333242
-0.00039750728
-0.00022168898
-0.00012176468
-3.2405498e-05
4.98215e-05
0.00012508856
0.00019142432
0.0002422388
8.750693e-05
-0.00017108164
-0.0003902792
-0.00021432027
-0.00011501586
-2.593854e-05
5.6635602e-05
0.00013288424
0.00020043103
0.00025111073
9.0228074e-05
-0.00016972575
-0.0003852568
-0.00020809968
-0.00010855304
-1.9468109e-05
6.3210089e-05
0.0001396511
0.00020709971
0.00025656602
9.1707165e-05
-0.00016847202
-0.00038047373
-0.00020196229
-0.00010207847
-1.3066307e-05
6.9453588e-05
0.00014565896
0.00021252177
0.0002605946
9.2729186e-05
-0.00016675388
-0.00037436874
-0.00019485532
-9.5164448e-05
-6.6501229e-06
7.5418598e-05
0.00015120996
0.00021743851
0.00026423042
9.3653468e-05
-0.00016353902
-0.00036449284
-0.00018558522
-8.7515951e-05
-2.9159085e-07
8.1012467e-05
0.00015642048
0.00022232927
0.00026824861
9.47672e-05
-0.00015588395
-0.00034538134
-0.00017316611
-7.9489075e-05
5.4405985e-06
8.5757408e-05
0.00016101747
0.00022732751
0.00027348099
9.6488349e-05
-0.0001338366
-0.00030314002
-0.00015991411
-7.3188729e-05
9.192284e-06
8.8676869e-05
0.00016407448
0.00023157982
0.00028045089
9.9413804e-05
-0.00033042058
-0.00075039194
-0.00041048224
-0.00022756878
-6.7991441e-05
7.6138778e-05
0.00020404354
0.0003085055
0.00036924673
0.00012833478
-0.00028889889
-0.00067407861
-0.00039073259
-0.00021830665
-6.1119531e-05
8.4068833e-05
0.0002173276
0.00033809543
0.00045116442
0.00016900838
-0.00027954502
-0.0006503541
-0.00037439622
-0.00020642225
-5.0736905e-05
9.5490267e-05
0.00023262927
0.00036072081
0.00048071263
0.00017963767
-0.00027573245
-0.00063799258
-0.00036160511
-0.00019457209
-3.9297558e-05
0.00010759463
0.00024650401
0.00037674194
0.00049638913
0.00018441326
-0.00027337027
-0.00062920756
-0.00035066166
-0.00018314712
-2.7818587e-05
0.00011928676
0.00025855584
0.00038862148
0.00050608886
0.000187037
-0.00027115117
-0.00062073805
-0.00033978315
-0.00017165377
-1.6433954e-05
0.00013041287
0.00026928688
0.00039832974
0.00051331674
0.00018887265
-0.00026808356
-0.00060985608
-0.00032713586
-0.00015935062
-5.0003592e-06
0.00014107569
0.00027926417
0.00040724553
0.00051999214
0.00019058682
-0.00026229514
-0.00059215232
-0.00031060672
-0.0001457272
6.3488926e-06
0.0001511212
0.00028874649
0.00041637927
0.00052783131
0.00019283755
-0.00024835695
-0.00055764076
-0.00028848933
-0.00013144995
1.6587444e-05
0.00015969973
0.00029731369
0.0004263326
0.00053963097
0.00019704381
-0.00020768335
-0.00048068641
-0.00026538202
-0.00012035097
2.3276523e-05
0.00016502448
0.00030326106
0.00043601808
0.00056183106
0.00020763761
-0.00044251711
-0.0010090339
-0.00055718392
-0.00030762237
-8.4463237e-05
0.00012076885
0.00030673382
0.00046497435
0.00057080486
0.0002020193
-0.00038698634
-0.00090690485
-0.00053052286
-0.00029484117
-7.4788602e-05
0.00013207152
0.00032580508
0.00050770564
0.00068976401
0.00026116466
-0.00037443106
-0.00087486603
-0.00050811296
-0.00027826959
-6.0124999e-05
0.00014832902
0.00034767081
0.00054006059
0.00073171289
0.00027616344
-0.00036921229
-0.00085783389
-0.0004902945
-0.00026159787
-4.3912861e-05
0.00016556311
0.00036747027
0.0005629208
0.00075398615
0.00028291899
-0.00036591026
-0.00084551325
-0.00047486967
-0.00024541748
-2.7592948e-05
0.00018223401
0.00038468507
0.00057989786
0.000767829
0.00028665663
-0.00036276253
-0.00083349565
-0.00045941875
-0.00022906582
-1.1361067e-05
0.00019813705
0.00040006484
0.00059384824
0.00077823603
0.00028930228
-0.00035837515
-0.00081795308
-0.00044137806
-0.00021151249
4.9809882e-06
0.00021343239
0.00041445973
0.00060681828
0.00078804538
0.00029184014
-0.00035004837
-0.00079255865
-0.00041775356
-0.00019205157
2.1233507e-05
0.00022791171
0.00042829899
0.0006204218
0.00080004038
0.00029534899
-0.00032988762
-0.00074286684
-0.00038616291
-0.00017167523
3.590844e-05
0.00024035281
0.00044103327
0.00063582611
0.00081923965
0.00030236677
-0.00027074226
-0.00063165062
-0.00035353142
-0.00015593546
4.5483382e-05
0.00024812807
0.00045010333
0.00065161606
0.00085794373
0.00032115172
-0.00054694864
-0.0012470821
-0.00068774453
-0.00037546034
-9.1969695e-05
0.00017216028
0.00041499605
0.00062637474
0.00077565593
0.00027634817
-0.00047811464
-0.0011205388
-0.00065467125
-0.0003594004
-7.9634532e-05
0.00018671573
0.00043969063
0.00068189843
0.00093063899
0.00035345131
-0.00046258643
-0.0010808008
-0.00062663854
-0.00033843746
-6.089743e-05
0.00020763007
0.00046791558
0.00072369377
0.00098459662
0.00037267401
-0.00045606578
-0.0010594328
-0.00060411868
-0.00031720685
-4.0122922e-05
0.00022980798
0.0004934505
0.00075318168
0.0010132508
0.00038134073
-0.0004518798
-0.0010437779
-0.000584445
-0.00029648676
-1.9149941e-05
0.00025129194
0.00051567565
0.0007751132
0.0010311174
0.00038615862
-0.00044784233
-0.0010283606
-0.00056460708
-0.00027545937
1.7676598e-06
0.00027183657
0.0005355953
0.00079322333
0.001044649
0.00038960095
-0.00044217617
-0.0010083081
-0.00054135275
-0.00025282488
2.2878663e-05
0.00029166276
0.00055434842
0.00081022969
0.0010576009
0.00039296772
-0.00043137928
-0.00097544104
-0.0005108472
-0.0002276993
4.3912451e-05
0.00031050935
0.00057254037
0.00082836046
0.0010738353
0.00039776171
-0.00040516038
-0.00091098912
-0.0004700695
-0.00020140544
6.292032e-05
0.00032677925
0.00058948555
0.00084933635
0.0011005516
0.00040761754
-0.00032805724
-0.00076650036
-0.00042823536
-0.00018117852
7.5310635e-05
0.00033699289
0.0006017267
0.00087131107
0.0011555222
0.00043440881
-0.0006450565
-0.0014683534
-0.0008050432
-0.00043281754
-9.1801867e-05
0.00022872979
0.00052626199
0.0007886196
0.00097864401
0.00034953184
-0.00056350859
-0.0013185302
-0.00076592833
-0.00041367304
-7.6941203e-05
0.00024640156
0.00055636709
0.00085646001
0.00116829
0.00044391089
-0.00054517436
-0.0012715477
-0.00073262383
-0.00038857461
-5.4334942e-05
0.00027177282
0.00059070256
0.00090733493
0.0012337841
0.00046718723
-0.00053743201
-0.0012461108
-0.00070568203
-0.0003630318
-2.9215371e-05
0.00029868588
0.00062174886
0.00094319727
0.00126857
0.00047768859
-0.00053241135
-0.0012273047
-0.0006819826
-0.00033799235
-3.7939412e-06
0.00032479116
0.00064879888
0.00096990571
0.0012903146
0.00048354675
-0.00052752491
-0.0012086439
-0.00065795621
-0.00031249081
2.1622664e-05
0.00034981014
0.00067311095
0.00099205102
0.0013068805
0.00048776272
-0.00052063018
-0.0011842617
-0.00062969828
-0.000284974
4.7330325e-05
0.00037402468
0.00069610876
0.0010130077
0.0013229167
0.00049194377
-0.00050745484
-0.0011442033
-0.00059257443
-0.00025439448
7.2984752e-05
0.00039712002
0.0007185687
0.0010356033
0.0013433373
0.00049800569
-0.00047540323
-0.0010655464
-0.00054296101
-0.00022240322
9.6184074e-05
0.00041712663
0.00073966104
0.0010620823
0.0013774443
0.0005106428
-0.00038102417
-0.00088906327
-0.00049229445
-0.00019786395
0.00011129526
0.00042972214
0.0007550255
0.0010901309
0.0014482523
0.00054521106
-0.00073703732
-0.0016740192
-0.00091076139
-0.00048121808
-8.5454947e-05
0.00028869919
0.000638176
0.00094868883
0.0011765392
0.00042052809
-0.00064340428
-0.0015020945
-0.00086594934
-0.00045916909
-6.8204696e-05
0.00030933565
0.00067344153
0.0010282822
0.0013992578
0.00053138976
-0.00062242088
-0.0014482861
-0.00082769096
-0.00043017691
-4.1937581e-05
0.00033894383
0.00071360067
0.0010878149
0.0014757416
0.00055852451
-0.00061352957
-0.0014190241
-0.00079658901
-0.00040056482
-1.2700385e-05
0.00037036109
0.00074990101
0.0011297575
0.0015163724
0.00057077335
-0.00060772155
-0.001397245
-0.00076908668
-0.00037143466
1.6947574e-05
0.00040087042
0.00078155865
0.0011610314
0.0015418221
0.00057762473
-0.0006020294
-0.0013755067
-0.0007410847
-0.00034167967
4.6651846e-05
0.00043016585
0.00081007953
0.0011870496
0.0015613016
0.00058258341
-0.00059396391
-0.0013470003
-0.00070806125
-0.00030950807
7.6752329e-05
0.00045858843
0.00083716234
0.0012118186
0.0015803184
0.0005875515
-0.00057851904
-0.0013000821
-0.00066462521
-0.00027372167
0.00010683035
0.00048576952
0.00086374593
0.0012387414
0.0016047982
0.00059484232
-0.00054090169
-0.0012078743
-0.00060658594
-0.0002362915
0.00013404447
0.00050937564
0.00088885411
0.0012705579
0.0016460618
0.00061016943
-0.00043004
-0.0010008796
-0.00054751056
-0.00020764118
0.00015175955
0.00052426578
0.00090724248
0.0013044848
0.0017321612
0.00065224192
-0.00082273432
-0.0018642398
-0.0010058477
-0.00052184891
-7.4306085e-05
0.00035041586
0.00074872949
0.0011042696
0.0013670388
0.00048861082
-0.00071770801
-0.001671496
-0.0009556924
-0.00049707738
-5.4808371e-05
0.00037385065
0.00078887408
0.0011949796
0.0016210432
0.00061506505
-0.00069423846
-0.0016112894
-0.00091279758
-0.00046443555
-2.5098662e-05
0.00040745563
0.00083453596
0.0012626953
0.0017079043
0.00064584024
-0.00068427114
-0.0015784459
-0.00087779838
-0.00043100354
8.0147641e-06
0.00044312384
0.00087580228
0.0013103865
0.0017540575
0.00065973901
-0.0006777241
-0.001553876
-0.00084672374
-0.00039802408
4.1648712e-05
0.00047779549
0.00091182091
0.0013459838
0.0017830144
0.00066753001
-0.00067127267
-0.0015292384
-0.00081497523
-0.00036425617
7.5405551e-05
0.00051114134
0.00094433539
0.0013756809
0.0018052621
0.00067319415
-0.00066210091
-0.0014968363
-0.00077745055
-0.00032768422
0.00010966622
0.00054355911
0.00097530646
0.0014040857
0.0018271241
0.00067891369
-0.0006445096
-0.001443432
-0.00072804705
-0.00028697121
0.00014393868
0.00057462688
0.0010058261
0.0014351483
0.0018554907
0.00068738127
-0.00060162754
-0.0013384105
-0.00066204372
-0.00024439574
0.00017496064
0.00060166107
0.0010347739
0.0014720778
0.0019036104
0.00070528488
-0.00047517332
-0.0011025664
-0.00059503277
-0.00021186109
0.00019514336
0.00061873659
0.0010560546
0.0015116346
0.0020043515
0.00075454202
-0.00090187455
-0.0020387598
-0.0010908269
-0.00055559621
-5.9516553e-05
0.00041245542
0.00085624806
0.0012535201
0.0015483419
0.00055321016
-0.00078621116
-0.0018265919
-0.0010357035
-0.0005282927
-3.7922336e-05
0.00043850782
0.00090096255
0.0013546467
0.0018316679
0.00069427867
-0.00076042928
-0.0017604392
-0.00098850286
-0.00049225588
-5.001624e-06
0.00047584958
0.00095177539
0.0014300233
0.0019282346
0.00072845587
-0.00074946225
-0.0017242679
-0.00094987982
-0.00045526571
3.1730381e-05
0.00051549377
0.00099769132
0.0014830975
0.0019795554
0.00074389751
-0.00074222694
-0.0016970989
-0.00091547587
-0.00041869387
6.9090691e-05
0.00055406291
0.0010377978
0.0015227487
0.0020117996
0.00075256871
-0.00073506611
-0.001669753
-0.0008802271
-0.00038117339
0.00010664259
0.00059120805
0.0010740636
0.0015559044
0.0020366502
0.00075889601
-0.00072485866
-0.0016337047
-0.00083848993
-0.00034048054
0.00014480497
0.00062738033
0.0011086962
0.0015877388
0.0020611984
0.00076532521
-0.00070525644
-0.0015742256
-0.00078349834
-0.00029515094
0.00018301483
0.00066210641
0.0011429313
0.0016227182
0.002093247
0.00077490806
-0.00065744095
-0.0014572016
-0.00071003912
-0.00024775513
0.00021761189
0.00069237047
0.00117551
0.0016644942
0.0021478719
0.00079525681
-0.00051637244
-0.001194333
-0.00063561085
-0.00021158587
0.00024010963
0.00071150523
0.001199528
0.0017093916
0.0022625117
0.00085133459
-0.00097415596
-0.0021971602
-0.0011659808
-0.00058311425
-4.203058e-05
0.00047362841
0.00095934219
0.0013949307
0.001718963
0.00061385014
-0.00084867212
-0.0019670713
-0.0011062885
-0.00055348024
-1.8500455e-05
0.00050210414
0.0010082923
0.0015057161
0.0020294851
0.00076847442
-0.00082076338
-0.0018954527
-0.0010551305
-0.0005143169
1.7385156e-05
0.00054290362
0.0010638763
0.0015881892
0.0021350324
0.00080579669
-0.00080887723
-0.001856221
-0.0010131714
-0.00047404519
5.746122e-05
0.00058622817
0.0011140998
0.0016462507
0.0021911374
0.00082266565
-0.00080100738
-0.0018266553
-0.00097569543
-0.00043415431
9.8269574e-05
0.00062840867
0.0011579974
0.0016896623
0.0022264295
0.00083215249
-0.0007931905
-0.0017968053
-0.00093720973
-0.00039316078
0.00013933828
0.00066907951
0.0011977485
0.001726034
0.0022537007
0.00083909639
-0.00078202356
-0.0017573801
-0.00089157139
-0.00034864925
0.00018112091
0.0007087418
0.0012357914
0.0017610678
0.0022807576
0.00084618861
-0.00076055709
-0.0016922712
-0.00083140222
-0.00029903963
0.000222987
0.00074687345
0.001273495
0.0017997127
0.0023162576
0.00085681763
-0.00070816666
-0.0015641216
-0.00075103679
-0.00024717618
0.00026090423
0.0007801473
0.00130947
0.0018460352
0.0023769943
0.00087946475
-0.00055354239
-0.0012762018
-0.00066974995
-0.00020764248
0.00028555034
0.00080120146
0.0013360519
0.0018959494
0.0025047048
0.00094195793
-0.0010392842
-0.0023389758
-0.0012314541
-0.0006048891
-2.2607089e-05
0.00053295265
0.0010568569
0.001527242
0.0018776439
0.00067012241
-0.00090485159
-0.0020925683
-0.0011676151
-0.00057313719
2.6888523e-06
0.00056364485
0.0011096858
0.0016468768
0.0022130916
0.00083717173
-0.00087501253
-0.0020159913
-0.0011128667
-0.00053113015
4.1279043e-05
0.00060760531
0.0011696359
0.0017358443
0.0023268473
0.00087736568
-0.00086229228
-0.0019739809
-0.0010678745
-0.00048786872
8.4408285e-05
0.00065429562
0.0012238019
0.0017984703
0.0023873271
0.00089553878
-0.00085384461
-0.0019422323
-0.0010275982
-0.00044494819
0.00012836886
0.00069978204
0.0012711729
0.0018453277
0.002425411
0.00090577227
-0.00084542833
-0.0019100948
-0.00098615507
-0.0004007789
0.00017265727
0.00074368521
0.0013141232
0.0018846537
0.0024549062
0.00091328259
-0.00083338314
-0.0018675797
-0.00093694743
-0.00035277147
0.00021775844
0.00078655246
0.001355304
0.0019226367
0.0024842783
0.00092098707
-0.00081020906
-0.0017973158
-0.00087203896
-0.00029924189
0.00026297856
0.00082781627
0.0013962074
0.0019646725
0.0025229777
0.00093258674
-0.00075362663
-0.0016589774
-0.00078535397
-0.00024328805
0.00030394191
0.00086386141
0.0014353227
0.0020152129
0.0025893956
0.00095737161
-0.00058657731
-0.0013481125
-0.00069780337
-0.00020067817
0.00033055761
0.00088668361
0.0014642789
0.0020697897
0.0027292711
0.0010258371
-0.0010969905
-0.0024637566
-0.0012873175
-0.00062128919
-1.8572734e-06
0.00058961861
0.0011478299
0.0016493946
0.0020233092
0.00072167413
-0.00095452975
-0.0022027212
-0.0012197753
-0.00058764236
2.5025644e-05
0.00062230917
0.0012041608
0.0017770238
0.0023812836
0.00089995377
-0.00092296692
-0.0021217184
-0.0011618207
-0.00054308802
6.6046916e-05
0.00066911798
0.0012680496
0.0018718502
0.0025024338
0.00094273157
-0.00090950163
-0.0020772244
-0.0011141128
-0.00049714294
0.00011192346
0.00071884233
0.0013257727
0.0019385942
0.0025668568
0.00096207901
-0.0009005357
-0.0020435172
-0.0010713213
-0.00045149697
0.00015872455
0.00076731207
0.0013762808
0.0019885647
0.0026074613
0.0009729862
-0.00089157968
-0.0020093202
-0.001027215
-0.00040446532
0.00020591882
0.00081413684
0.0014221267
0.0020305669
0.0026389718
0.0009810097
-0.000878742
-0.0019640178
-0.00097478816
-0.0003533029
0.00025401907
0.00085990627
0.0014661551
0.0020712317
0.0026704525
0.00098927219
-0.00085402575
-0.0018891006
-0.00090560316
-0.00029623404
0.00030227282
0.00090401112
0.0015099709
0.0021163638
0.0027120803
0.0010017613
-0.00079365583
-0.0017415622
-0.00081321775
-0.00023658842
0.00034599171
0.00094257331
0.001551952
0.0021707687
0.0027837155
0.0010285109
-0.00061537618
-0.001409976
-0.00072002989
-0.00019120646
0.00037438773
0.0009670023
0.0015830794
0.0022296268
0.0029347802
0.0011024711
-0.0011470413
-0.0025711021
-0.0013336089
-0.00063260336
1.9721867e-05
0.00064295765
0.0012314587
0.0017604964
0.0021550415
0.00076820179
-0.00099751553
-0.0022972064
-0.0012628254
-0.0005972937
4.8005245e-05
0.00067741861
0.0012908975
0.0018952257
0.0025330325
0.00095646155
-0.00096444415
-0.0022123323
-0.0012020642
-0.00055050052
9.1172444e-05
0.00072674928
0.0013582782
0.0019952467
0.0026607273
0.0010015229
-0.00095032651
-0.0021656616
-0.0011519706
-0.00050219062
0.00013947719
0.00077916106
0.0014191552
0.002065642
0.0027286426
0.0010219092
-0.00094090438
-0.0021302294
-0.0011069611
-0.00045413653
0.00018879311
0.00083027661
0.0014724486
0.0021183768
0.0027714841
0.0010334138
-0.00093147092
-0.0020942111
-0.0010604987
-0.00040456993
0.00023856483
0.00087969733
0.0015208711
0.0021627631
0.0028047903
0.0010418946
-0.00091793041
-0.0020464378
-0.0010052186
-0.00035060921
0.0002893294
0.00092805093
0.0015674419
0.002205828
0.0028381616
0.0010506578
-0.00089184508
-0.0019673917
-0.00093224099
-0.00029039951
0.00034028076
0.00097469061
0.0016138666
0.0022537446
0.0028824305
0.0010639502
-0.00082811087
-0.0018116876
-0.00083480234
-0.00022747909
0.00038645046
0.0010155021
0.0016584234
0.0023116389
0.0029587899
0.0010924805
-0.0006398511
-0.0014617059
-0.0007366309
-0.00017964276
0.00041642853
0.0010413681
0.0016915068
0.0023743729
0.0031200049
0.0011714268
-0.0011892436
-0.0026606824
-0.0013703596
-0.00063906878
4.1720575e-05
0.00069241623
0.0013070761
0.0018598016
0.0022720666
0.0008094478
-0.0010336521
-0.0023757591
-0.001296812
-0.0006023361
7.1211337e-05
0.00072841132
0.0013692141
0.0020007032
0.00266747
0.0010063906
-0.00099929467
-0.0022875863
-0.0012336565
-0.00055362277
0.00011622939
0.00077992557
0.0014396235
0.0021052302
0.0028008297
0.0010534249
-0.00098462037
-0.0022390559
-0.0011815184
-0.00050327769
0.00016663196
0.00083466558
0.0015032366
0.002178793
0.0028717698
0.0010747097
-0.00097480621
-0.0022021403
-0.0011345981
-0.00045314397
0.00021812531
0.00088807685
0.0015589498
0.0022339302
0.0029165541
0.0010867327
-0.00096495987
-0.0021645471
-0.0010860977
-0.00040138176
0.00027013378
0.00093975526
0.0016096176
0.0022803967
0.002951428
0.0010956125
-0.0009508095
-0.002114631
-0.0010283438
-0.00034499268
0.00032321499
0.00099036227
0.0016584123
0.0023255675
0.0029864618
0.0011048167
-0.00092353457
-0.0020319998
-0.00095207518
-0.00028205546
0.0003765148
0.0010392178
0.0017071292
0.0023759421
0.0030330706
0.0011188219
-0.00085687508
-0.0018692023
-0.000850254
-0.00021629271
0.00042481869
0.0010819996
0.0017539578
0.0024369321
0.0031136354
0.001148939
-0.00065993228
-0.0015032367
-0.00074777538
-0.00016633106
0.000456173
0.0011091256
0.0017887718
0.0025031157
0.0032839061
0.0012323357
-0.001223449
-0.0027322521
-0.0013976125
-0.00064089131
6.3795543e-05
0.00073753581
0.0013741316
0.0019466946
0.0023737434
0.00084519833
-0.0010628204
-0.0024381862
-0.0013217903
-0.00060298155
9.4295339e-05
0.00077482198
0.0014385481
0.0020928137
0.0027838788
0.001049489
-0.0010274051
-0.002347302
-0.001256663
-0.00055267496
0.00014086118
0.00082817202
0.00151151
0.0022011389
0.0029219993
0.0010981773
-0.0010122722
-0.0022972367
-0.0012028301
-0.00050063314
0.00019302206
0.00088487086
0.0015774292
0.0022773713
0.0029954841
0.0011202164
-0.0010021319
-0.0022590857
-0.0011543146
-0.00044875734
0.00024634578
0.00094021756
0.001635186
0.0023345383
0.0030419082
0.0011326765
-0.000991939
-0.002220171
-0.0011041034
-0.00039514854
0.00030024033
0.00099380514
0.0016877574
0.0023827715
0.0030781144
0.0011418955
-0.00097727443
-0.0021684495
-0.0010442657
-0.00033671181
0.00035528006
0.0010463243
0.0017384473
0.002429744
0.0031145749
0.0011514785
-0.00094899464
-0.0020827926
-0.00096522226
-0.00027147249
0.00041056852
0.0010970664
0.0017891283
0.0024822378
0.0031632101
0.0011661024
-0.00087986169
-0.0019140052
-0.00085970819
-0.00020331233
0.00046068032
0.00114153
0.0018379136
0.0025459136
0.0032474394
0.0011976043
-0.00067557104
-0.0015345368
-0.00075361697
-0.00015156356
0.00049319886
0.0011697331
0.001874224
0.0026151024
0.0034256234
0.0012848917
-0.0012495556
-0.0027856583
-0.0014154346
-0.00063826023
8.5654437e-05
0.00077793765
0.0014321776
0.0020206795
0.0024595574
0.00087528187
-0.0010849407
-0.0024843751
-0.0013378364
-0.0005994239
0.00011696095
0.00081626675
0.0014984431
0.0021710406
0.0028816856
0.0010855559
-0.0010487001
-0.0023913774
-0.0012711674
-0.00054785708
0.00016476544
0.00087109753
0.001573471
0.0022824411
0.0030236448
0.0011355731
-0.0010332086
-0.0023401079
-0.0012159958
-0.00049446351
0.00021833818
0.00092937795
0.0016412572
0.0023608348
0.0030991841
0.0011582196
-0.0010228092
-0.0023009743
-0.001166207
-0.00044119003
0.0002731379
0.00098629194
0.0017006732
0.0024196509
0.0031469387
0.0011710336
-0.0010123376
-0.0022609969
-0.0011146186
-0.00038609106
0.00032856014
0.0010414323
0.0017547983
0.0024693298
0.0031842361
0.0011805304
-0.0009972565
-0.0022078144
-0.0010530958
-0.00032599563
0.00038519223
0.0010955143
0.0018070463
0.0025177916
0.0032218808
0.0011904285
-0.00096816056
-0.0021197035
-0.00097180447
-0.00025888888
0.00044210127
0.0011478054
0.0018593545
0.0025720558
0.0032722194
0.0012055741
-0.00089701577
-0.0019460529
-0.00086330159
-0.00018878576
0.00049368718
0.001193655
0.0019097723
0.0026379945
0.0033595541
0.0012382516
-0.00068674175
-0.001555616
-0.00075430596
-0.000135595
0.00052715326
0.0012227474
0.0019473378
0.0027097291
0.0035444685
0.0013288503
-0.0012675091
-0.0028208465
-0.0014239253
-0.00063135874
0.00010704433
0.00081331141
0.0014808593
0.0020813718
0.0025291155
0.00089956809
-0.0010999746
-0.002514299
-0.0013450556
-0.00059184929
0.00013895255
0.00085243172
0.0015485378
0.002234985
0.0029604564
0.0011144406
-0.0010631441
-0.0024197925
-0.0012772795
-0.00053935924
0.0001876825
0.00090838322
0.0016251385
0.0023487276
0.0031053201
0.0011654575
-0.0010473948
-0.0023676531
-0.0012211298
-0.00048496336
0.00024231591
0.00096786265
0.0016943462
0.0024287672
0.003182417
0.0011885625
-0.0010368045
-0.002327793
-0.0011703936
-0.00043064128
0.00029823224
0.0010259703
0.001755031
0.0024888458
0.0032311881
0.0012016461
-0.0010261227
-0.002287015
-0.0011177664
-0.00037441361
0.00035481846
0.0010823014
0.0018103545
0.0025396439
0.0032693315
0.0012113582
-0.0010107243
-0.0022327211
-0.0010549626
-0.00031305418
0.00041267101
0.0011375912
0.0018638174
0.0025892768
0.003307913
0.0012215065
-0.00098100366
-0.0021427358
-0.00097195806
-0.00024452108
0.00047082673
0.0011910878
0.0019174092
0.0026449548
0.0033596244
0.0012370741
-0.00090831549
-0.0019653653
-0.00086118038
-0.00017293603
0.00052354771
0.0012380222
0.0019691283
0.0027127234
0.0034494906
0.0012707125
-0.000693443
-0.0015665312
-0.00074999755
-0.00011865309
0.00055774131
0.0012678127
0.0020077021
0.0027865324
0.0036399205
0.0013640273
-0.0012773037
-0.0028378635
-0.0014232221
-0.00062037145
0.00012774326
0.00084340645
0.0015199066
0.0021284918
0.0025821416
0.00091796694
-0.001107925
-0.0025280196
-0.001343588
-0.00058044367
0.00016004683
0.00088306435
0.0015885588
0.0022843589
0.003019892
0.0011360414
-0.0010707412
-0.0024326121
-0.0012751416
-0.00052736929
0.0002093869
0.00093977388
0.001666235
0.0023997052
0.0031667195
0.0011877268
-0.0010548356
-0.0023799391
-0.0012183761
-0.0004723227
0.00026472736
0.0010000668
0.0017364152
0.0024808711
0.0032448735
0.0012111402
-0.0010441227
-0.0023396099
-0.0011670206
-0.00041730356
0.00032139812
0.0010589915
0.0017979753
0.0025418223
0.0032943446
0.0012244087
-0.0010332999
-0.0022982955
-0.0011136956
-0.00036031148
0.00037878159
0.0011161481
0.0018541381
0.00259341
0.0033330865
0.001234273
-0.0010176841
-0.0022432425
-0.0010500181
-0.00029808595
0.0004374794
0.001172287
0.001908469
0.0026438917
0.0033723542
0.0012446054
-0.00098753184
-0.0021519671
-0.00096583914
-0.00022857121
0.00049650448
0.0012266419
0.0019629965
0.0027006219
0.0034251021
0.0012604939
-0.00091377264
-0.001972029
-0.00085350593
-0.00015596888
0.00055001832
0.0012743563
0.0020156809
0.0027697796
0.0035169153
0.0012948744
-0.0006956982
-0.0015673892
-0.00074085765
-0.00010094609
0.00058471745
0.0013046515
0.0020550122
0.002845183
0.0037116212
0.0013902978
-0.0012789819
-0.0028368587
-0.0014135043
-0.00060548971
0.00014755388
0.00086802525
0.0015491278
0.0021618593
0.0026184731
0.00093042762
-0.0011088363
-0.0025256893
-0.0013336125
-0.00056539814
0.00018004632
0.00090796674
0.0016183134
0.0023189806
0.003059824
0.0011503046
-0.0010715356
-0.0024299877
-0.0012649318
-0.00051207809
0.00022968113
0.00096507121
0.0016965674
0.002435191
0.0032076742
0.0012023273
-0.0010555751
-0.0023771167
-0.0012079127
-0.00045673237
0.00028537466
0.0010257916
0.0017672704
0.002516963
0.0032863845
0.0012258992
-0.0010448079
-0.002336576
-0.001156266
-0.00040136802
0.00034243718
0.0010851559
0.0018293112
0.0025783961
0.0033362384
0.0012392673
-0.0010339135
-0.0022949895
-0.0011025844
-0.00034397633
0.00040025043
0.0011427718
0.0018859534
0.0026304425
0.0033753302
0.0012492206
-0.0010181803
-0.0022395301
-0.0010384411
-0.00028128332
0.00045941738
0.0011993998
0.0019408037
0.0026814488
0.0034150318
0.0012596708
-0.00098778977
-0.0021475499
-0.00095362728
-0.00021123248
0.00051893337
0.0012542642
0.0019959167
0.0027388664
0.0034684768
0.0012757778
-0.00091343275
-0.0019661984
-0.00084045873
-0.0001380783
0.0005728969
0.0013024525
0.0020492276
0.002808968
0.0035616452
0.0013106787
-0.00069355579
-0.0015583488
-0.0007270668
-8.2668271e-05
0.00060787903
0.0013330577
0.0020890633
0.0028854798
0.0037593715
0.0014075953
-0.0012726337
-0.0028180841
-0.0013949953
-0.00058691544
0.00016629867
0.00088701808
0.0015684043
0.0021813893
0.0026380572
0.00093693766
-0.001102794
-0.0025075504
-0.0013153488
-0.00054691281
0.00019877469
0.00092699037
0.001637685
0.002338769
0.0030802113
0.0011572234
-0.0010656112
-0.0024121572
-0.0012468663
-0.00049368342
0.0002483906
0.00098412847
0.0017160214
0.0024551077
0.0032281483
0.0012092543
-0.0010496963
-0.0023594214
-0.0011899532
-0.00043838805
0.00030408513
0.0010448921
0.0017867996
0.0025369679
0.0033069166
0.0012328355
-0.0010389428
-0.0023189252
-0.0011383415
-0.00038302841
0.00036117845
0.0011043203
0.0018489283
0.0025984937
0.0033568375
0.0012462187
-0.0010280456
-0.0022773295
-0.0010846428
-0.00032560021
0.0004190555
0.0011620305
0.0019056907
0.0026506688
0.0033960312
0.0012561978
-0.0010122946
-0.0022218148
-0.0010204398
-0.00026283661
0.00047831683
0.0012187886
0.0019607123
0.0027018757
0.0034359144
0.0012666992
-0.00098185841
-0.0021297124
-0.00093552817
-0.0001926933
0.00053794659
0.0012738146
0.0020160605
0.0027596152
0.0034897158
0.001282922
-0.0009073748
-0.0019480963
-0.00082224093
-0.00011945058
0.00059201775
0.0013221706
0.0020696588
0.0028302137
0.0035836444
0.0013181203
-0.00068708907
-0.0015396213
-0.00070882282
-6.4004084e-05
0.00062706116
0.0013528914
0.0021097451
0.0029073453
0.0037831272
0.0014159105
-0.0012583964
-0.0027818931
-0.0013679635
-0.00056486374
0.00018381603
0.00090027849
0.001577686
0.002187087
0.0026409474
0.00093752186
-0.0010899238
-0.0024739348
-0.0012890586
-0.00052519946
0.00021607279
0.00094003156
0.0016466283
0.0023437398
0.0030811354
0.0011568367
-0.0010530908
-0.0023794443
-0.001221201
-0.00047239273
0.00026535986
0.00099684596
0.0017245568
0.0024594787
0.0032282344
0.0012085508
-0.0010373206
-0.0023271723
-0.0011647488
-0.00041749292
0.00032070732
0.0010572728
0.0017949674
0.002540915
0.0033065681
0.0012319937
-0.001026648
-0.0022869733
-0.0011134944
-0.00036248391
0.00037747438
0.0011163929
0.0018567949
0.0026021483
0.0033562434
0.0012453082
-0.0010158161
-0.0022456285
-0.0010601143
-0.00030537838
0.00043505302
0.0011738359
0.0019133219
0.0026541249
0.0033952932
0.0012552505
-0.0010001459
-0.0021904058
-0.00099625321
-0.00024293701
0.00049403756
0.0012303684
0.0019681694
0.0027052104
0.0034351069
0.0012657371
-0.00096985454
-0.0020987576
-0.00091177511
-0.00017314031
0.00055340746
0.0012852104
0.0020234047
0.002762908
0.0034889249
0.0012819731
-0.00089571073
-0.001918014
-0.00079907792
-0.00010026741
0.0006072474
0.0013334305
0.0020769525
0.0028335571
0.0035830192
0.0013172459
-0.00067639586
-0.0015114707