/*--------------------------------*- C++ -*----------------------------------*\
| =========                 |                                                 |
| \\      /  F ield         | OpenFOAM: The Open Source CFD Toolbox           |
|  \\    /   O peration     | Version:  v2106                                 |
|   \\  /    A nd           | Website:  www.openfoam.com                      |
|    \\/     M anipulation  |                                                 |
\*---------------------------------------------------------------------------*/
FoamFile
{
    version     2.0;
    format      ascii;
    arch        "LSB;label=32;scalar=64";
    class       volScalarField;
    location    "2.5";
    object      calFieldValue;
}
// * * * * * * * * * * * * * * * * * * * * * * * * * * * * * * * * * * * * * //

dimensions      [0 0 0 1 0 0 0];

internalField   nonuniform List<scalar> 
4000
(
277.67494
277.67494
277.67494
277.67495
277.67495
277.67495
277.67494
277.67494
277.67494
277.67493
277.67494
277.67493
277.67494
277.67495
277.67495
277.67495
277.67494
277.67494
277.67494
277.67493
277.67494
277.67494
277.67494
277.67495
277.67495
277.67495
277.67494
277.67494
277.67494
277.67494
277.67495
277.67495
277.67495
277.67496
277.67496
277.67495
277.67495
277.67495
277.67494
277.67494
277.67495
277.67495
277.67495
277.67496
277.67496
277.67496
277.67495
277.67495
277.67495
277.67494
277.67495
277.67495
277.67495
277.67495
277.67496
277.67495
277.67495
277.67495
277.67494
277.67494
277.67494
277.67494
277.67494
277.67495
277.67495
277.67495
277.67495
277.67495
277.67494
277.67494
277.67494
277.67494
277.67494
277.67495
277.67495
277.67495
277.67495
277.67494
277.67494
277.67494
277.67494
277.67494
277.67494
277.67494
277.67495
277.67494
277.67494
277.67494
277.67494
277.67494
277.67493
277.67493
277.67494
277.67494
277.67494
277.67494
277.67494
277.67494
277.67494
277.67494
276.92365
276.92365
276.92365
276.92367
276.92368
276.92365
276.92364
276.92365
276.92364
276.92364
276.92365
276.92365
276.92366
276.92368
276.92368
276.92365
276.92364
276.92363
276.92364
276.92364
276.92365
276.92366
276.92367
276.92369
276.92367
276.92366
276.92365
276.92364
276.92365
276.92365
276.92367
276.92368
276.92369
276.92368
276.92368
276.92368
276.92367
276.92365
276.92367
276.92366
276.92368
276.92368
276.92367
276.92368
276.92369
276.92368
276.92367
276.92366
276.92365
276.92367
276.92365
276.92365
276.92366
276.92368
276.92368
276.92368
276.92367
276.92366
276.92367
276.92367
276.92364
276.92364
276.92365
276.92367
276.92367
276.92367
276.92366
276.92368
276.92367
276.92366
276.92365
276.92363
276.92364
276.92365
276.92366
276.92366
276.92368
276.92367
276.92366
276.92368
276.92364
276.92364
276.92365
276.92367
276.92365
276.92367
276.92367
276.92366
276.92367
276.92367
276.92364
276.92364
276.92365
276.92366
276.92367
276.92367
276.92366
276.92368
276.92367
276.92367
276.20457
276.20457
276.20458
276.20461
276.20459
276.20458
276.20456
276.20455
276.20453
276.20453
276.20457
276.20457
276.20459
276.20462
276.2046
276.20458
276.20457
276.20455
276.20454
276.20456
276.20458
276.20459
276.20461
276.20461
276.20461
276.20458
276.20458
276.20456
276.20455
276.20454
276.20461
276.20462
276.20461
276.20463
276.20461
276.2046
276.20458
276.20459
276.20457
276.20456
276.20459
276.2046
276.20461
276.20461
276.20461
276.20461
276.20459
276.2046
276.20458
276.20457
276.20458
276.20458
276.20458
276.2046
276.20461
276.2046
276.20459
276.20459
276.20458
276.2046
276.20456
276.20457
276.20458
276.20458
276.20459
276.20459
276.2046
276.20459
276.2046
276.20459
276.20455
276.20455
276.20456
276.20459
276.2046
276.20459
276.20459
276.2046
276.2046
276.2046
276.20453
276.20454
276.20455
276.20457
276.20458
276.20458
276.2046
276.2046
276.20459
276.20458
276.20453
276.20456
276.20454
276.20456
276.20457
276.2046
276.20459
276.2046
276.20458
276.2046
275.53944
275.53944
275.53943
275.53947
275.53946
275.53944
275.53941
275.53939
275.53939
275.53939
275.53944
275.53944
275.53945
275.53948
275.53947
275.53945
275.53942
275.53939
275.5394
275.53939
275.53943
275.53945
275.53947
275.53948
275.53946
275.53944
275.53942
275.53941
275.53939
275.53941
275.53947
275.53948
275.53948
275.53951
275.53949
275.53947
275.53945
275.53944
275.53942
275.53943
275.53946
275.53947
275.53946
275.53949
275.53947
275.53946
275.53946
275.53946
275.53944
275.53945
275.53944
275.53945
275.53944
275.53947
275.53946
275.53945
275.53946
275.53946
275.53946
275.53945
275.53941
275.53942
275.53942
275.53945
275.53946
275.53946
275.53947
275.53947
275.53947
275.53946
275.53939
275.53939
275.53941
275.53944
275.53946
275.53946
275.53947
275.53947
275.53947
275.53946
275.53939
275.5394
275.53939
275.53942
275.53944
275.53946
275.53947
275.53947
275.53945
275.53947
275.53939
275.53939
275.53941
275.53943
275.53945
275.53945
275.53946
275.53946
275.53947
275.53946
274.95037
274.95038
274.95037
274.95041
274.9504
274.95038
274.95035
274.95032
274.95032
274.95031
274.95038
274.95036
274.95039
274.95041
274.95039
274.95037
274.95034
274.95033
274.95033
274.95032
274.95037
274.95039
274.9504
274.95043
274.95041
274.95039
274.95036
274.95035
274.95032
274.95034
274.95041
274.95041
274.95043
274.95044
274.95042
274.95041
274.9504
274.95039
274.95036
274.95037
274.9504
274.95039
274.95041
274.95042
274.95043
274.95042
274.95042
274.95041
274.9504
274.95039
274.95038
274.95037
274.95039
274.95041
274.95042
274.95041
274.95042
274.95041
274.9504
274.95041
274.95035
274.95034
274.95036
274.9504
274.95042
274.95042
274.95042
274.95042
274.95041
274.95042
274.95032
274.95033
274.95035
274.95039
274.95041
274.95041
274.95042
274.95043
274.9504
274.95041
274.95032
274.95033
274.95032
274.95036
274.9504
274.9504
274.95041
274.9504
274.9504
274.95041
274.95031
274.95032
274.95034
274.95037
274.95039
274.95041
274.95042
274.95041
274.95041
274.95041
274.46006
274.46007
274.46007
274.46012
274.46011
274.46009
274.46005
274.46004
274.46001
274.45999
274.46007
274.46008
274.46009
274.46012
274.4601
274.46008
274.46006
274.46002
274.46002
274.46003
274.46007
274.46009
274.46011
274.46015
274.46013
274.4601
274.46007
274.46005
274.46004
274.46003
274.46012
274.46012
274.46015
274.46016
274.46015
274.46013
274.46012
274.46009
274.46008
274.46009
274.46011
274.4601
274.46013
274.46015
274.46014
274.46015
274.46014
274.46012
274.46011
274.46011
274.46009
274.46008
274.4601
274.46013
274.46015
274.46014
274.46016
274.46015
274.46014
274.46014
274.46005
274.46006
274.46007
274.46012
274.46014
274.46016
274.46017
274.46015
274.46016
274.46015
274.46004
274.46002
274.46005
274.46009
274.46012
274.46015
274.46015
274.46016
274.46015
274.46015
274.46001
274.46002
274.46004
274.46008
274.46011
274.46014
274.46016
274.46015
274.46014
274.46015
274.45999
274.46003
274.46003
274.46009
274.46011
274.46014
274.46015
274.46015
274.46015
274.46014
274.09196
274.09198
274.09198
274.09203
274.09202
274.09198
274.09196
274.09194
274.0919
274.09191
274.09198
274.09196
274.092
274.09203
274.09202
274.09199
274.09195
274.09192
274.09191
274.09193
274.09198
274.092
274.09202
274.09204
274.09203
274.092
274.09198
274.09195
274.09194
274.09195
274.09203
274.09203
274.09204
274.09206
274.09207
274.09206
274.09204
274.09201
274.09199
274.092
274.09202
274.09202
274.09203
274.09207
274.09207
274.09206
274.09207
274.09204
274.09205
274.09205
274.09198
274.09199
274.092
274.09206
274.09206
274.09207
274.0921
274.0921
274.09208
274.09208
274.09196
274.09195
274.09198
274.09204
274.09207
274.0921
274.09212
274.0921
274.0921
274.09211
274.09194
274.09192
274.09195
274.09201
274.09204
274.0921
274.0921
274.0921
274.09208
274.09208
274.0919
274.09191
274.09194
274.09199
274.09205
274.09208
274.0921
274.09208
274.09208
274.09207
274.09191
274.09193
274.09195
274.092
274.09205
274.09208
274.09211
274.09208
274.09207
274.09209
273.87038
273.87039
273.87039
273.87043
273.87043
273.8704
273.87038
273.87036
273.87034
273.87032
273.87039
273.87037
273.87042
273.87046
273.87045
273.87042
273.87037
273.87037
273.87035
273.87036
273.87039
273.87042
273.87044
273.87047
273.87046
273.87044
273.87041
273.87038
273.87038
273.87037
273.87043
273.87046
273.87047
273.8705
273.87049
273.8705
273.87048
273.87046
273.87044
273.87044
273.87043
273.87045
273.87046
273.87049
273.87052
273.87051
273.87052
273.8705
273.8705
273.8705
273.8704
273.87042
273.87044
273.8705
273.87051
273.87053
273.87055
273.87054
273.87054
273.87054
273.87038
273.87037
273.87041
273.87048
273.87052
273.87055
273.87057
273.87059
273.87056
273.87056
273.87036
273.87037
273.87038
273.87046
273.8705
273.87054
273.87059
273.87058
273.87055
273.87055
273.87034
273.87035
273.87038
273.87044
273.8705
273.87054
273.87056
273.87055
273.87052
273.87054
273.87032
273.87036
273.87037
273.87044
273.8705
273.87054
273.87056
273.87055
273.87054
273.87055
273.82069
273.82069
273.82069
273.82076
273.82076
273.82073
273.82071
273.82068
273.82066
273.82066
273.82069
273.82069
273.82072
273.82076
273.82076
273.82073
273.8207
273.82069
273.82067
273.82068
273.82069
273.82072
273.82075
273.82079
273.82078
273.82078
273.82075
273.82073
273.82071
273.82072
273.82076
273.82076
273.82079
273.82082
273.82084
273.82082
273.82082
273.8208
273.82077
273.82077
273.82076
273.82076
273.82078
273.82084
273.82085
273.82086
273.82087
273.82085
273.82084
273.82084
273.82073
273.82073
273.82078
273.82082
273.82086
273.82088
273.82092
273.82091
273.8209
273.8209
273.82071
273.8207
273.82075
273.82082
273.82087
273.82092
273.82095
273.82096
273.82093
273.82094
273.82068
273.82069
273.82073
273.8208
273.82085
273.82091
273.82096
273.82094
273.82093
273.8209
273.82066
273.82067
273.82071
273.82077
273.82084
273.8209
273.82093
273.82093
273.8209
273.82091
273.82066
273.82068
273.82072
273.82077
273.82084
273.8209
273.82094
273.8209
273.82091
273.8209
273.96949
273.96951
273.96952
273.96959
273.9696
273.96957
273.96954
273.96951
273.9695
273.96948
273.96951
273.96951
273.96955
273.9696
273.9696
273.96957
273.96956
273.96952
273.96952
273.96953
273.96952
273.96955
273.96958
273.96962
273.96962
273.96962
273.96959
273.96956
273.96956
273.96957
273.96959
273.9696
273.96962
273.96967
273.96967
273.96967
273.96967
273.96964
273.96963
273.96963
273.9696
273.9696
273.96962
273.96967
273.9697
273.96972
273.96975
273.96972
273.96971
273.96971
273.96957
273.96957
273.96962
273.96967
273.96972
273.96977
273.96979
273.96979
273.96978
273.9698
273.96954
273.96956
273.96959
273.96967
273.96975
273.96979
273.96983
273.96984
273.96982
273.96981
273.96951
273.96952
273.96956
273.96964
273.96972
273.96979
273.96984
273.96983
273.96979
273.96979
273.9695
273.96952
273.96956
273.96963
273.96971
273.96978
273.96982
273.96979
273.96978
273.96979
273.96948
273.96953
273.96957
273.96963
273.96971
273.9698
273.96981
273.96979
273.96979
273.96978
274.34485
274.34487
274.34488
274.34494
274.34498
274.34495
274.34492
274.3449
274.34487
274.34487
274.34487
274.34486
274.34489
274.34497
274.34498
274.34495
274.34494
274.34489
274.34489
274.3449
274.34488
274.34489
274.34493
274.34501
274.34501
274.34499
274.34498
274.34495
274.34494
274.34495
274.34494
274.34497
274.34501
274.34505
274.34506
274.34507
274.34509
274.34505
274.34504
274.34504
274.34498
274.34498
274.34501
274.34506
274.34511
274.34513
274.34515
274.34515
274.34513
274.34512
274.34495
274.34495
274.34499
274.34507
274.34513
274.34518
274.34522
274.34522
274.3452
274.34521
274.34492
274.34494
274.34498
274.34509
274.34515
274.34522
274.34526
274.34526
274.34526
274.34525
274.3449
274.34489
274.34495
274.34505
274.34515
274.34522
274.34526
274.34525
274.34523
274.34522
274.34487
274.34489
274.34494
274.34504
274.34513
274.3452
274.34526
274.34523
274.34521
274.34522
274.34487
274.3449
274.34495
274.34504
274.34512
274.34521
274.34525
274.34522
274.34522
274.34521
274.97638
274.97637
274.97639
274.97647
274.97649
274.97647
274.97646
274.97643
274.9764
274.9764
274.97637
274.97638
274.97642
274.97649
274.9765
274.97649
274.97648
274.97645
274.97644
274.97645
274.97639
274.97642
274.97647
274.97652
274.97653
274.97653
274.97652
274.97651
274.9765
274.97651
274.97647
274.97649
274.97652
274.97658
274.97662
274.97663
274.97664
274.9766
274.97659
274.97661
274.97649
274.9765
274.97653
274.97662
274.97667
274.97669
274.97672
274.9767
274.97671
274.9767
274.97647
274.97649
274.97653
274.97663
274.97669
274.97675
274.97681
274.9768
274.9768
274.97679
274.97646
274.97648
274.97652
274.97664
274.97672
274.97681
274.97685
274.97687
274.97684
274.97683
274.97643
274.97645
274.97651
274.9766
274.9767
274.9768
274.97687
274.97685
274.97682
274.97681
274.9764
274.97644
274.9765
274.97659
274.97671
274.9768
274.97684
274.97682
274.9768
274.97681
274.9764
274.97645
274.97651
274.97661
274.9767
274.97679
274.97683
274.97681
274.97681
274.9768
275.89543
275.89543
275.89545
275.89553
275.89556
275.89556
275.89553
275.8955
275.89549
275.89549
275.89543
275.89544
275.89548
275.89555
275.89557
275.89557
275.89556
275.89552
275.89551
275.89554
275.89545
275.89548
275.89553
275.8956
275.89561
275.89562
275.89562
275.89558
275.89557
275.8956
275.89553
275.89555
275.8956
275.89566
275.89571
275.89572
275.89573
275.89571
275.89571
275.89571
275.89556
275.89557
275.89561
275.89571
275.89576
275.89581
275.89584
275.89584
275.89582
275.89583
275.89556
275.89557
275.89562
275.89572
275.89581
275.89588
275.89594
275.89593
275.89592
275.89593
275.89553
275.89556
275.89562
275.89573
275.89584
275.89594
275.896
275.89599
275.89598
275.89596
275.8955
275.89552
275.89558
275.89571
275.89584
275.89593
275.89599
275.89599
275.89596
275.89594
275.89549
275.89551
275.89557
275.89571
275.89582
275.89592
275.89598
275.89596
275.89593
275.89594
275.89549
275.89554
275.8956
275.89571
275.89583
275.89593
275.89596
275.89594
275.89594
275.89595
277.13537
277.13539
277.13541
277.1355
277.13554
277.13552
277.1355
277.13547
277.13546
277.13546
277.13539
277.13538
277.13542
277.13553
277.13555
277.13555
277.13553
277.1355
277.1355
277.13551
277.13541
277.13542
277.13548
277.13555
277.1356
277.1356
277.13561
277.13556
277.13557
277.13558
277.1355
277.13553
277.13555
277.13564
277.1357
277.13571
277.13572
277.1357
277.1357
277.1357
277.13554
277.13555
277.1356
277.1357
277.13576
277.13582
277.13584
277.13584
277.13584
277.13585
277.13552
277.13555
277.1356
277.13571
277.13582
277.13589
277.13595
277.13595
277.13595
277.13595
277.1355
277.13553
277.13561
277.13572
277.13584
277.13595
277.13601
277.13602
277.13601
277.136
277.13547
277.1355
277.13556
277.1357
277.13584
277.13595
277.13602
277.13602
277.13597
277.13596
277.13546
277.1355
277.13557
277.1357
277.13584
277.13595
277.13601
277.13597
277.13594
277.13595
277.13546
277.13551
277.13558
277.1357
277.13585
277.13595
277.136
277.13596
277.13595
277.13596
278.73169
278.73169
278.73174
278.73181
278.73188
278.73186
278.73185
278.73184
278.73182
278.73182
278.73169
278.7317
278.73175
278.73184
278.7319
278.7319
278.73188
278.73186
278.73184
278.73187
278.73174
278.73175
278.73181
278.73189
278.73195
278.73195
278.73196
278.73193
278.73192
278.73195
278.73181
278.73184
278.73189
278.73199
278.73205
278.73207
278.7321
278.73207
278.73207
278.73207
278.73188
278.7319
278.73195
278.73205
278.73213
278.73219
278.73223
278.73223
278.73222
278.73223
278.73186
278.7319
278.73195
278.73207
278.73219
278.73229
278.73235
278.73235
278.73234
278.73234
278.73185
278.73188
278.73196
278.7321
278.73223
278.73235
278.73243
278.73243
278.73242
278.73239
278.73184
278.73186
278.73193
278.73207
278.73223
278.73235
278.73243
278.73241
278.73238
278.73236
278.73182
278.73184
278.73192
278.73207
278.73222
278.73234
278.73242
278.73238
278.73235
278.73236
278.73182
278.73187
278.73195
278.73207
278.73223
278.73234
278.73239
278.73236
278.73236
278.73236
280.72219
280.72219
280.72225
280.72232
280.7224
280.7224
280.72239
280.72237
280.72236
280.72236
280.72219
280.72221
280.72226
280.72235
280.72242
280.72242
280.72242
280.72238
280.72239
280.72239
280.72225
280.72226
280.72233
280.72241
280.72247
280.72251
280.72251
280.72248
280.72247
280.72249
280.72232
280.72235
280.72241
280.72251
280.72259
280.72263
280.72266
280.72263
280.72263
280.72263
280.7224
280.72242
280.72247
280.72259
280.72268
280.72276
280.7228
280.7228
280.72279
280.7228
280.7224
280.72242
280.72251
280.72263
280.72276
280.72287
280.72292
280.72292
280.72293
280.72294
280.72239
280.72242
280.72251
280.72266
280.7228
280.72292
280.72301
280.72301
280.72299
280.72298
280.72237
280.72238
280.72248
280.72263
280.7228
280.72292
280.72301
280.723
280.72297
280.72295
280.72236
280.72239
280.72247
280.72263
280.72279
280.72293
280.72299
280.72297
280.72294
280.72295
280.72236
280.72239
280.72249
280.72263
280.7228
280.72294
280.72298
280.72295
280.72295
280.72295
283.14717
283.14719
283.14723
283.14733
283.14741
283.14742
283.14741
283.14739
283.14738
283.14738
283.14719
283.14719
283.14727
283.14736
283.14744
283.14745
283.14745
283.14743
283.14743
283.14743
283.14723
283.14727
283.14734
283.14743
283.1475
283.14754
283.14754
283.14751
283.14752
283.14754
283.14733
283.14736
283.14743
283.14754
283.14762
283.14767
283.1477
283.14769
283.14769
283.14768
283.14741
283.14744
283.1475
283.14762
283.14774
283.14781
283.14787
283.14787
283.14786
283.14786
283.14742
283.14745
283.14754
283.14767
283.14781
283.14792
283.148
283.14802
283.14801
283.14801
283.14741
283.14745
283.14754
283.1477
283.14787
283.148
283.14809
283.14811
283.14808
283.14805
283.14739
283.14743
283.14751
283.14769
283.14787
283.14802
283.14811
283.14809
283.14804
283.14804
283.14738
283.14743
283.14752
283.14769
283.14786
283.14801
283.14808
283.14804
283.14803
283.14803
283.14738
283.14743
283.14754
283.14768
283.14786
283.14801
283.14805
283.14804
283.14803
283.14804
286.04965
286.04967
286.04972
286.04982
286.04991
286.04993
286.04991
286.0499
286.0499
286.0499
286.04967
286.04968
286.04975
286.04986
286.04994
286.04995
286.04995
286.04993
286.04993
286.04996
286.04972
286.04975
286.04983
286.04993
286.05001
286.05005
286.05005
286.05004
286.05005
286.05005
286.04982
286.04986
286.04993
286.05004
286.05014
286.05019
286.05024
286.05021
286.0502
286.05022
286.04991
286.04994
286.05001
286.05014
286.05027
286.05036
286.05041
286.05042
286.05041
286.05041
286.04993
286.04995
286.05005
286.05019
286.05036
286.05049
286.05056
286.05058
286.05056
286.05056
286.04991
286.04995
286.05005
286.05024
286.05041
286.05056
286.05065
286.05067
286.05064
286.05063
286.0499
286.04993
286.05004
286.05021
286.05042
286.05058
286.05067
286.05065
286.05062
286.05059
286.0499
286.04993
286.05005
286.0502
286.05041
286.05056
286.05064
286.05062
286.05058
286.05058
286.0499
286.04996
286.05005
286.05022
286.05041
286.05056
286.05063
286.05059
286.05058
286.05058
289.47542
289.47544
289.47549
289.47559
289.47569
289.47572
289.47573
289.47571
289.47569
289.47569
289.47544
289.47545
289.47551
289.47564
289.47573
289.47575
289.47577
289.47575
289.47575
289.47575
289.47549
289.47551
289.47561
289.47571
289.4758
289.47585
289.47587
289.47584
289.47585
289.47587
289.47559
289.47564
289.47571
289.47584
289.47594
289.47602
289.47605
289.47604
289.47603
289.47605
289.47569
289.47573
289.4758
289.47594
289.47608
289.47619
289.47625
289.47624
289.47625
289.47625
289.47572
289.47575
289.47585
289.47602
289.47619
289.47634
289.47641
289.47643
289.47641
289.4764
289.47573
289.47577
289.47587
289.47605
289.47625
289.47641
289.4765
289.47651
289.47649
289.47647
289.47571
289.47575
289.47584
289.47604
289.47624
289.47643
289.47651
289.47649
289.47646
289.47644
289.47569
289.47575
289.47585
289.47603
289.47625
289.47641
289.47649
289.47646
289.47642
289.47645
289.47569
289.47575
289.47587
289.47605
289.47625
289.4764
289.47647
289.47644
289.47645
289.47645
293.47324
293.47327
293.47332
293.47342
293.47353
293.47358
293.47357
293.47358
293.47355
293.47356
293.47327
293.47327
293.47336
293.47347
293.47357
293.47362
293.47362
293.47362
293.47362
293.47362
293.47332
293.47336
293.47344
293.47357
293.47367
293.47372
293.47375
293.47372
293.47373
293.47375
293.47342
293.47347
293.47357
293.47368
293.47381
293.47391
293.47393
293.47392
293.47392
293.47394
293.47353
293.47357
293.47367
293.47381
293.47397
293.47408
293.47414
293.47415
293.47414
293.47414
293.47358
293.47362
293.47372
293.47391
293.47408
293.47424
293.47432
293.47433
293.47433
293.47432
293.47357
293.47362
293.47375
293.47393
293.47414
293.47432
293.47443
293.47441
293.47441
293.47438
293.47358
293.47362
293.47372
293.47392
293.47415
293.47433
293.47441
293.47441
293.47438
293.47435
293.47355
293.47362
293.47373
293.47392
293.47414
293.47433
293.47441
293.47438
293.47434
293.47434
293.47356
293.47362
293.47375
293.47394
293.47414
293.47432
293.47438
293.47435
293.47434
293.47434
298.09496
298.09498
298.09504
298.09515
298.09526
298.09532
298.09534
298.09532
298.09532
298.09533
298.09498
298.09499
298.09508
298.09519
298.09533
298.09536
298.09539
298.09536
298.09536
298.09539
298.09504
298.09508
298.09517
298.0953
298.09542
298.09548
298.0955
298.0955
298.0955
298.09553
298.09515
298.09519
298.0953
298.09544
298.09557
298.09566
298.09571
298.0957
298.0957
298.09572
298.09526
298.09533
298.09542
298.09557
298.09575
298.09587
298.09593
298.09592
298.09593
298.09593
298.09532
298.09536
298.09548
298.09566
298.09587
298.09604
298.09612
298.09613
298.09613
298.09612
298.09534
298.09539
298.0955
298.09571
298.09593
298.09612
298.0962
298.09621
298.0962
298.09618
298.09532
298.09536
298.0955
298.0957
298.09592
298.09613
298.09621
298.09621
298.09617
298.09615
298.09532
298.09536
298.0955
298.0957
298.09593
298.09613
298.0962
298.09617
298.09614
298.09614
298.09533
298.09539
298.09553
298.09572
298.09593
298.09612
298.09618
298.09615
298.09614
298.09614
303.39548
303.39551
303.39557
303.39567
303.39582
303.39587
303.39589
303.39589
303.39587
303.39588
303.39551
303.39552
303.39561
303.39575
303.39587
303.39593
303.39594
303.39594
303.39594
303.39594
303.39557
303.39561
303.3957
303.39584
303.39596
303.39605
303.39608
303.39605
303.39608
303.39609
303.39567
303.39575
303.39584
303.39598
303.39614
303.39625
303.39627
303.39626
303.39629
303.39631
303.39582
303.39587
303.39596
303.39614
303.39632
303.39647
303.39653
303.39652
303.39653
303.39653
303.39587
303.39593
303.39605
303.39625
303.39647
303.39664
303.39672
303.39673
303.39673
303.39672
303.39589
303.39594
303.39608
303.39627
303.39653
303.39672
303.39683
303.39681
303.3968
303.39677
303.39589
303.39594
303.39605
303.39626
303.39652
303.39673
303.39681
303.39681
303.39678
303.39675
303.39587
303.39594
303.39608
303.39629
303.39653
303.39673
303.3968
303.39678
303.39674
303.39676
303.39588
303.39594
303.39609
303.39631
303.39653
303.39672
303.39677
303.39675
303.39676
303.39674
309.4328
309.43283
309.43291
309.43302
309.43316
309.43323
309.43325
309.43326
309.43324
309.43326
309.43283
309.43287
309.43293
309.43308
309.43323
309.4333
309.43331
309.43331
309.43331
309.43331
309.43291
309.43293
309.43305
309.4332
309.43333
309.43343
309.43345
309.43345
309.43346
309.43349
309.43302
309.43308
309.4332
309.43335
309.43352
309.43363
309.43365
309.43367
309.43367
309.43369
309.43316
309.43323
309.43333
309.43352
309.43371
309.43386
309.43392
309.43393
309.43392
309.43392
309.43323
309.4333
309.43343
309.43363
309.43386
309.43404
309.43412
309.43413
309.43413
309.43411
309.43325
309.43331
309.43345
309.43365
309.43392
309.43412
309.43423
309.43423
309.4342
309.43417
309.43326
309.43331
309.43345
309.43367
309.43393
309.43413
309.43423
309.43421
309.43417
309.43415
309.43324
309.43331
309.43346
309.43367
309.43392
309.43413
309.4342
309.43417
309.43416
309.43416
309.43326
309.43331
309.43349
309.43369
309.43392
309.43411
309.43417
309.43415
309.43416
309.43415
316.26788
316.26791
316.26798
316.26809
316.26825
316.26834
316.26836
316.26835
316.26836
316.26837
316.26791
316.26793
316.26802
316.26817
316.26831
316.26841
316.26842
316.26843
316.26843
316.26843
316.26798
316.26802
316.26812
316.26827
316.26844
316.26854
316.26857
316.26855
316.26857
316.26859
316.26809
316.26817
316.26827
316.26845
316.26863
316.26875
316.26878
316.26879
316.2688
316.26882
316.26825
316.26831
316.26844
316.26863
316.26883
316.26899
316.26905
316.26907
316.26906
316.26906
316.26834
316.26841
316.26854
316.26875
316.26899
316.26918
316.26926
316.26927
316.26927
316.26925
316.26836
316.26842
316.26857
316.26878
316.26905
316.26926
316.26936
316.26937
316.26934
316.2693
316.26835
316.26843
316.26855
316.26879
316.26907
316.26927
316.26937
316.26935
316.26931
316.26928
316.26836
316.26843
316.26857
316.2688
316.26906
316.26927
316.26934
316.26931
316.2693
316.26929
316.26837
316.26843
316.26859
316.26882
316.26906
316.26925
316.2693
316.26928
316.26929
316.26929
323.96427
323.9643
323.96439
323.9645
323.96467
323.96477
323.96479
323.96479
323.96479
323.96481
323.9643
323.96432
323.96441
323.96456
323.96473
323.96482
323.96486
323.96484
323.96485
323.96487
323.96439
323.96441
323.96453
323.96469
323.96486
323.96498
323.96501
323.96499
323.96501
323.96503
323.9645
323.96456
323.96469
323.96485
323.96506
323.96519
323.96522
323.96524
323.96525
323.96527
323.96467
323.96473
323.96486
323.96506
323.96527
323.96544
323.9655
323.96552
323.96551
323.96551
323.96477
323.96482
323.96498
323.96519
323.96544
323.96563
323.96573
323.96572
323.96572
323.9657
323.96479
323.96486
323.96501
323.96522
323.9655
323.96573
323.96582
323.96582
323.96579
323.96575
323.96479
323.96484
323.96499
323.96524
323.96552
323.96572
323.96582
323.9658
323.96577
323.96574
323.96479
323.96485
323.96501
323.96525
323.96551
323.96572
323.96579
323.96577
323.96573
323.96575
323.96481
323.96487
323.96503
323.96527
323.96551
323.9657
323.96575
323.96574
323.96575
323.96572
332.58775
332.58778
332.58785
332.58799
332.58816
332.58827
332.5883
332.5883
332.5883
332.58832
332.58778
332.5878
332.5879
332.58805
332.58823
332.58835
332.58837
332.58838
332.58838
332.58838
332.58785
332.5879
332.58802
332.58818
332.58836
332.58848
332.58852
332.58854
332.58855
332.58855
332.58799
332.58805
332.58818
332.58837
332.58857
332.5887
332.58876
332.58876
332.58877
332.58879
332.58816
332.58823
332.58836
332.58857
332.5888
332.58898
332.58905
332.58904
332.58906
332.58905
332.58827
332.58835
332.58848
332.5887
332.58898
332.58918
332.58926
332.58927
332.58925
332.58922
332.5883
332.58837
332.58852
332.58876
332.58905
332.58926
332.58936
332.58935
332.58931
332.58928
332.5883
332.58838
332.58854
332.58876
332.58904
332.58927
332.58935
332.58935
332.58929
332.58927
332.5883
332.58838
332.58855
332.58877
332.58906
332.58925
332.58931
332.58929
332.58929
332.58928
332.58832
332.58838
332.58855
332.58879
332.58905
332.58922
332.58928
332.58927
332.58928
332.58925
342.20549
342.20553
342.20562
342.20574
342.20591
342.20603
342.20607
342.20609
342.20608
342.20612
342.20553
342.20557
342.20564
342.20582
342.206
342.20611
342.20616
342.20615
342.20616
342.20618
342.20562
342.20564
342.20577
342.20595
342.20614
342.20627
342.20631
342.20631
342.20633
342.20635
342.20574
342.20582
342.20595
342.20612
342.20635
342.20649
342.20653
342.20654
342.20657
342.20657
342.20591
342.206
342.20614
342.20635
342.20659
342.20675
342.20682
342.20684
342.20684
342.20683
342.20603
342.20611
342.20627
342.20649
342.20675
342.20696
342.20706
342.20705
342.20705
342.20702
342.20607
342.20616
342.20631
342.20653
342.20682
342.20706
342.20714
342.20715
342.20711
342.20705
342.20609
342.20615
342.20631
342.20654
342.20684
342.20705
342.20715
342.20713
342.20707
342.20705
342.20608
342.20616
342.20633
342.20657
342.20684
342.20705
342.20711
342.20707
342.20707
342.20706
342.20612
342.20618
342.20635
342.20657
342.20683
342.20702
342.20705
342.20705
342.20706
342.20703
352.88494
352.88497
352.88507
352.8852
352.88538
352.8855
352.88555
352.88555
352.88557
352.88559
352.88497
352.88502
352.88511
352.88526
352.88545
352.88558
352.88562
352.88564
352.88565
352.88565
352.88507
352.88511
352.88523
352.8854
352.88561
352.88573
352.88578
352.8858
352.88582
352.88581
352.8852
352.88526
352.8854
352.88559
352.88582
352.88597
352.88601
352.88603
352.88604
352.88606
352.88538
352.88545
352.88561
352.88582
352.88607
352.88623
352.8863
352.88631
352.88632
352.8863
352.8855
352.88558
352.88573
352.88597
352.88623
352.88644
352.88652
352.88654
352.88652
352.88648
352.88555
352.88562
352.88578
352.88601
352.8863
352.88652
352.88662
352.88661
352.88658
352.88654
352.88555
352.88564
352.8858
352.88603
352.88631
352.88654
352.88661
352.88659
352.88656
352.88654
352.88557
352.88565
352.88582
352.88604
352.88632
352.88652
352.88658
352.88656
352.88654
352.88653
352.88559
352.88565
352.88581
352.88606
352.8863
352.88648
352.88654
352.88654
352.88653
352.88649
364.69213
364.69216
364.69226
364.69237
364.69255
364.69267
364.69275
364.69276
364.69276
364.69278
364.69216
364.69219
364.69228
364.69245
364.69264
364.69276
364.69282
364.69283
364.69284
364.69284
364.69226
364.69228
364.6924
364.69259
364.69278
364.69293
364.69298
364.69299
364.69301
364.69303
364.69237
364.69245
364.69259
364.69278
364.69299
364.69316
364.69321
364.69323
364.69323
364.69324
364.69255
364.69264
364.69278
364.69299
364.69324
364.69343
364.6935
364.69351
364.69351
364.6935
364.69267
364.69276
364.69293
364.69316
364.69343
364.69363
364.69371
364.69371
364.69369
364.69366
364.69275
364.69282
364.69298
364.69321
364.6935
364.69371
364.69379
364.69378
364.69375
364.69369
364.69276
364.69283
364.69299
364.69323
364.69351
364.69371
364.69378
364.69377
364.69372
364.6937
364.69276
364.69284
364.69301
364.69323
364.69351
364.69369
364.69375
364.69372
364.6937
364.69368
364.69278
364.69284
364.69303
364.69324
364.6935
364.69366
364.69369
364.6937
364.69368
364.69368
377.68919
377.68922
377.68931
377.68944
377.68961
377.68975
377.6898
377.68982
377.68984
377.68986
377.68922
377.68927
377.68936
377.68952
377.6897
377.68983
377.6899
377.68991
377.6899
377.68993
377.68931
377.68936
377.68947
377.68965
377.68984
377.68999
377.69005
377.69007
377.69009
377.69009
377.68944
377.68952
377.68965
377.68982
377.69005
377.6902