/*--------------------------------*- C++ -*----------------------------------*\
| =========                 |                                                 |
| \\      /  F ield         | OpenFOAM: The Open Source CFD Toolbox           |
|  \\    /   O peration     | Version:  v2106                                 |
|   \\  /    A nd           | Website:  www.openfoam.com                      |
|    \\/     M anipulation  |                                                 |
\*---------------------------------------------------------------------------*/
FoamFile
{
    version     2.0;
    format      ascii;
    arch        "LSB;label=32;scalar=64";
    class       volVectorField;
    location    "2.5";
    object      flux;
}
// * * * * * * * * * * * * * * * * * * * * * * * * * * * * * * * * * * * * * //

dimensions      [0 1 -1 1 0 0 0];

internalField   nonuniform List<vector> 
4000
(
(4.7077374e-08 4.7077383e-08 0.022478467)
(-3.1089641e-08 2.2436405e-08 0.022478452)
(-6.0182037e-07 -2.1269557e-07 0.022478087)
(-2.4933082e-07 3.696221e-08 0.022476378)
(2.0539466e-07 -1.3929717e-08 0.022477214)
(-1.7679037e-07 -5.3792936e-08 0.022477009)
(-1.9978215e-07 -5.9484326e-08 0.022476506)
(-6.4231038e-08 -5.3439644e-08 0.022476249)
(4.0885404e-08 -5.0593783e-08 0.022476284)
(2.4490319e-08 -6.833551e-08 0.022476466)
(2.2436396e-08 -3.1089648e-08 0.022478452)
(-4.2074907e-07 -4.2074906e-07 0.022478398)
(-5.8003166e-07 -4.4766445e-07 0.022476922)
(4.8817952e-08 -9.4022837e-08 0.022476439)
(6.9261937e-08 -2.2335429e-07 0.022477004)
(-2.4512229e-07 -2.963522e-07 0.022476591)
(-1.9925221e-07 -2.9575369e-07 0.02247606)
(-5.0895224e-08 -2.5559974e-07 0.022475841)
(1.8541606e-08 -1.8999047e-07 0.022475879)
(6.7485928e-09 -1.7193114e-07 0.022475945)
(-2.1269557e-07 -6.0182037e-07 0.022478087)
(-4.4766444e-07 -5.8003166e-07 0.022476922)
(-2.7509414e-07 -2.7509414e-07 0.022476465)
(-2.5020668e-08 -3.4532376e-07 0.022475914)
(3.0652955e-09 -4.1524989e-07 0.022476297)
(-2.4918977e-07 -4.2454648e-07 0.022475838)
(-1.590297e-07 -4.1309426e-07 0.022475341)
(4.1532182e-08 -3.8447664e-07 0.022475249)
(1.2455401e-07 -3.0042813e-07 0.022475535)
(3.6529869e-08 -1.9437194e-07 0.02247576)
(3.6962201e-08 -2.4933081e-07 0.022476378)
(-9.4022845e-08 4.8817959e-08 0.022476439)
(-3.4532376e-07 -2.5020668e-08 0.022475914)
(-9.1337796e-08 -9.1337796e-08 0.022475198)
(-9.9607789e-09 -9.6141804e-08 0.022475527)
(-2.4296666e-07 -6.8140054e-08 0.022475085)
(-1.5918238e-07 -4.8233744e-08 0.022474595)
(6.1770912e-08 -5.594525e-08 0.022474494)
(2.0864631e-07 -6.5003753e-08 0.022474872)
(7.7452716e-08 -4.5427136e-08 0.022475324)
(-1.3929721e-08 2.0539464e-07 0.022477214)
(-2.233543e-07 6.926193e-08 0.022477004)
(-4.152499e-07 3.0652814e-09 0.022476297)
(-9.6141804e-08 -9.9607788e-09 0.022475527)
(2.6263038e-08 2.6263024e-08 0.022475907)
(-2.0128171e-07 8.5073722e-08 0.022475561)
(-1.4683489e-07 1.3622705e-07 0.022475141)
(2.4762173e-08 1.5768224e-07 0.022475022)
(1.3507212e-07 1.4142412e-07 0.022475286)
(4.9580947e-08 1.0367368e-07 0.022475595)
(-5.379294e-08 -1.7679038e-07 0.022477009)
(-2.963522e-07 -2.4512229e-07 0.022476591)
(-4.2454647e-07 -2.4918977e-07 0.022475838)
(-6.8140054e-08 -2.4296664e-07 0.022475085)
(8.5073722e-08 -2.0128171e-07 0.022475561)
(-1.3300263e-07 -1.3300264e-07 0.022475353)
(-8.6573863e-08 -6.9467724e-08 0.022475064)
(6.6967978e-08 -1.9177605e-08 0.022475047)
(1.5463775e-07 1.4456809e-08 0.022475368)
(5.2285761e-08 3.052331e-08 0.02247569)
(-5.9484331e-08 -1.9978214e-07 0.022476506)
(-2.9575369e-07 -1.992522e-07 0.02247606)
(-4.1309425e-07 -1.5902969e-07 0.022475341)
(-4.8233744e-08 -1.5918239e-07 0.022474595)
(1.3622704e-07 -1.4683489e-07 0.022475141)
(-6.9467724e-08 -8.657387e-08 0.022475064)
(-3.3009854e-08 -3.3009854e-08 0.022474893)
(1.0868671e-07 4.3278661e-09 0.022474967)
(1.8477304e-07 3.0484195e-08 0.022475357)
(6.0291948e-08 4.8032113e-08 0.022475724)
(-5.3439644e-08 -6.4231045e-08 0.022476249)
(-2.5559975e-07 -5.0895217e-08 0.022475841)
(-3.8447666e-07 4.1532175e-08 0.022475249)
(-5.5945257e-08 6.1770898e-08 0.022474494)
(1.5768224e-07 2.476218e-08 0.022475022)
(-1.9177591e-08 6.6967985e-08 0.022475047)
(4.3278733e-09 1.0868671e-07 0.022474967)
(1.3046203e-07 1.3046203e-07 0.022475096)
(1.98342e-07 1.4154891e-07 0.022475518)
(6.3984373e-08 1.5042856e-07 0.022475909)
(-5.0593779e-08 4.0885396e-08 0.022476284)
(-1.8999047e-07 1.8541591e-08 0.022475879)
(-3.0042813e-07 1.2455399e-07 0.022475535)
(-6.5003739e-08 2.0864631e-07 0.022474872)
(1.4142412e-07 1.3507211e-07 0.022475286)
(1.4456809e-08 1.5463775e-07 0.022475368)
(3.0484195e-08 1.8477304e-07 0.022475357)
(1.415489e-07 1.9834199e-07 0.022475518)
(2.0473956e-07 2.0473956e-07 0.022475955)
(6.6211716e-08 2.1085302e-07 0.022476363)
(-6.8335514e-08 2.4490324e-08 0.022476466)
(-1.7193116e-07 6.7485881e-09 0.022475945)
(-1.9437194e-07 3.6529864e-08 0.02247576)
(-4.5427136e-08 7.7452716e-08 0.022475324)
(1.0367368e-07 4.9580933e-08 0.022475595)
(3.0523331e-08 5.2285751e-08 0.02247569)
(4.8032121e-08 6.0291948e-08 0.022475724)
(1.5042855e-07 6.3984369e-08 0.022475909)
(2.1085303e-07 6.6211712e-08 0.022476363)
(6.8060018e-08 6.8060013e-08 0.022476768)
(-1.5612816e-07 -1.5612816e-07 0.024409393)
(-4.7646238e-07 -1.2148185e-07 0.02440856)
(-1.3050002e-06 -5.2703859e-07 0.024408299)
(-5.6159696e-07 -5.0401511e-08 0.024407362)
(3.3021263e-07 -1.6865172e-07 0.024407742)
(-5.3234543e-07 -2.5667653e-07 0.024407457)
(-5.4077378e-07 -2.6714449e-07 0.024407014)
(-1.4005793e-07 -2.4791061e-07 0.024406819)
(2.0260924e-07 -2.5262077e-07 0.024406916)
(1.0887889e-07 -3.163913e-07 0.024407309)
(-1.2148185e-07 -4.7646237e-07 0.02440856)
(-1.032828e-06 -1.032828e-06 0.024408175)
(-1.1983797e-06 -1.0895353e-06 0.024407448)
(-2.4016643e-08 -4.1488681e-07 0.024407074)
(2.0800094e-08 -7.0502596e-07 0.024407281)
(-6.8008459e-07 -8.6738812e-07 0.024406874)
(-5.276249e-07 -8.5928699e-07 0.024406425)
(-1.1827235e-07 -7.3282555e-07 0.024406293)
(9.9888204e-08 -5.5291854e-07 0.024406344)
(4.5108356e-08 -5.4387024e-07 0.024406517)
(-5.270386e-07 -1.3050002e-06 0.024408299)
(-1.0895353e-06 -1.1983797e-06 0.024407448)
(-6.8705899e-07 -6.8705897e-07 0.024407091)
(-1.7708759e-07 -8.2603746e-07 0.024406679)
(-1.2228868e-07 -9.6986071e-07 0.024406787)
(-6.8660646e-07 -9.8593318e-07 0.02440635)
(-4.0621122e-07 -9.5807797e-07 0.024405921)
(1.6631051e-07 -8.6706329e-07 0.024405928)
(3.9156455e-07 -6.1033782e-07 0.024406252)
(1.1491109e-07 -3.4748388e-07 0.02440653)
(-5.0401501e-08 -5.6159696e-07 0.024407362)
(-4.1488681e-07 -2.4016629e-08 0.024407074)
(-8.260375e-07 -1.7708759e-07 0.024406679)
(-3.0681838e-07 -3.0681836e-07 0.024406189)
(-1.3909563e-07 -2.9686109e-07 0.024406285)
(-6.6830185e-07 -2.1095885e-07 0.024405876)
(-4.0875501e-07 -1.5568082e-07 0.024405446)
(2.294678e-07 -1.7396056e-07 0.024405436)
(6.1946761e-07 -1.7859472e-07 0.024405844)
(2.2034431e-07 -1.1136076e-07 0.024406287)
(-1.6865171e-07 3.3021261e-07 0.024407742)
(-7.0502597e-07 2.0800066e-08 0.024407281)
(-9.6986072e-07 -1.2228868e-07 0.024406787)
(-2.9686109e-07 -1.3909562e-07 0.024406285)
(-2.642917e-08 -2.6429156e-08 0.024406449)
(-5.4542619e-07 1.4683734e-07 0.024406142)
(-3.6921293e-07 2.9463548e-07 0.024405783)
(1.433966e-07 3.5585874e-07 0.024405767)
(4.5416435e-07 3.202148e-07 0.024406102)
(1.5973374e-07 2.3761559e-07 0.024406459)
(-2.5667653e-07 -5.3234544e-07 0.024407457)
(-8.6738811e-07 -6.8008459e-07 0.024406874)
(-9.8593318e-07 -6.8660646e-07 0.02440635)
(-2.1095885e-07 -6.6830186e-07 0.024405876)
(1.4683734e-07 -5.454262e-07 0.024406142)
(-3.4723722e-07 -3.472372e-07 0.024405971)
(-1.9973361e-07 -1.636984e-07 0.024405739)
(2.5504713e-07 -2.4076734e-08 0.024405812)
(5.0122447e-07 6.3090546e-08 0.024406192)
(1.6527818e-07 1.0196212e-07 0.024406555)
(-2.6714448e-07 -5.4077378e-07 0.024407014)
(-8.5928699e-07 -5.2762491e-07 0.024406425)
(-9.5807799e-07 -4.0621123e-07 0.024405921)
(-1.5568082e-07 -4.0875502e-07 0.024405446)
(2.9463548e-07 -3.6921295e-07 0.024405783)
(-1.6369839e-07 -1.9973361e-07 0.024405739)
(-4.6052456e-08 -4.6052456e-08 0.024405618)
(3.7018555e-07 6.0464103e-08 0.024405773)
(5.8020321e-07 1.3315709e-07 0.024406209)
(1.8564812e-07 1.8478895e-07 0.024406607)
(-2.4791062e-07 -1.4005792e-07 0.024406819)
(-7.3282555e-07 -1.1827235e-07 0.024406293)
(-8.670633e-07 1.6631051e-07 0.024405928)
(-1.7396057e-07 2.294678e-07 0.024405436)
(3.5585875e-07 1.4339659e-07 0.024405767)
(-2.4076726e-08 2.5504711e-07 0.024405812)
(6.0464103e-08 3.7018555e-07 0.024405773)
(4.3425667e-07 4.3425667e-07 0.024405978)
(6.2554932e-07 4.7159461e-07 0.024406447)
(1.9969942e-07 5.0854119e-07 0.02440689)
(-2.5262077e-07 2.0260924e-07 0.024406916)
(-5.5291856e-07 9.9888211e-08 0.024406344)
(-6.1033784e-07 3.9156453e-07 0.024406252)
(-1.7859475e-07 6.194676e-07 0.024405844)
(3.202148e-07 4.5416434e-07 0.024406102)
(6.3090567e-08 5.0122446e-07 0.024406192)
(1.331571e-07 5.802032e-07 0.024406209)
(4.7159461e-07 6.2554933e-07 0.024406447)
(6.5448773e-07 6.5448771e-07 0.02440694)
(2.1027917e-07 6.5482558e-07 0.024407407)
(-3.163913e-07 1.0887889e-07 0.024407309)
(-5.4387026e-07 4.5108351e-08 0.024406517)
(-3.4748391e-07 1.1491108e-07 0.02440653)
(-1.1136077e-07 2.203443e-07 0.024406287)
(2.376156e-07 1.5973373e-07 0.024406459)
(1.0196214e-07 1.6527818e-07 0.024406555)
(1.8478897e-07 1.8564811e-07 0.024406607)
(5.0854118e-07 1.9969942e-07 0.02440689)
(6.5482557e-07 2.1027916e-07 0.024407407)
(1.9992467e-07 1.9992465e-07 0.02440783)
(-5.0815402e-07 -5.0815401e-07 0.028072617)
(-1.1252458e-06 -2.3412957e-07 0.028071726)
(-1.7999921e-06 -7.7971187e-07 0.028071487)
(-8.0648688e-07 -1.550386e-07 0.02807067)
(3.0078906e-07 -3.2106484e-07 0.028070947)
(-9.0417502e-07 -4.4267289e-07 0.028070641)
(-8.3753109e-07 -4.5254074e-07 0.028070224)
(-1.6229761e-07 -4.0435673e-07 0.028070082)
(5.3041974e-07 -4.3190049e-07 0.028070202)
(2.8643988e-07 -5.9608434e-07 0.028070774)
(-2.3412958e-07 -1.1252457e-06 0.028071726)
(-1.5325825e-06 -1.5325825e-06 0.028071394)
(-1.6813557e-06 -1.6556931e-06 0.028070714)
(-1.1851633e-07 -7.7713408e-07 0.028070381)
(-1.3066238e-07 -1.1781899e-06 0.028070518)
(-1.1013889e-06 -1.4032735e-06 0.028070107)
(-7.8005685e-07 -1.3893772e-06 0.028069687)
(-1.3133723e-07 -1.1470254e-06 0.028069659)
(2.4282832e-07 -8.5362547e-07 0.02806974)
(1.2225603e-07 -9.5047692e-07 0.02806999)
(-7.7971187e-07 -1.7999921e-06 0.028071487)
(-1.6556931e-06 -1.6813556e-06 0.028070714)
(-1.0445437e-06 -1.0445437e-06 0.028070357)
(-3.2898375e-07 -1.2302858e-06 0.028069996)
(-3.2535034e-07 -1.4113577e-06 0.02807006)
(-1.1153623e-06 -1.422243e-06 0.028069625)
(-5.8128304e-07 -1.391734e-06 0.028069206)
(3.7345414e-07 -1.2415477e-06 0.028069321)
(7.2696824e-07 -8.0009872e-07 0.028069702)
(2.2187224e-07 -4.2509987e-07 0.028070022)
(-1.5503859e-07 -8.0648688e-07 0.02807067)
(-7.7713408e-07 -1.185163e-07 0.028070381)
(-1.2302859e-06 -3.2898374e-07 0.028069996)
(-4.853304e-07 -4.8533037e-07 0.028069584)
(-3.2261956e-07 -4.3416966e-07 0.028069658)
(-1.0817652e-06 -2.766131e-07 0.028069264)
(-5.9936149e-07 -1.8538398e-07 0.02806884)
(4.6029806e-07 -2.173436e-07 0.028068931)
(1.0592761e-06 -2.1524952e-07 0.028069398)
(3.7225526e-07 -1.1735037e-07 0.028069865)
(-3.2106482e-07 3.0078905e-07 0.028070947)
(-1.1781899e-06 -1.3066239e-07 0.028070518)
(-1.4113578e-06 -3.2535034e-07 0.02807006)
(-4.3416968e-07 -3.2261955e-07 0.028069658)
(-1.1663306e-07 -1.1663304e-07 0.028069819)
(-8.6657661e-07 1.8014302e-07 0.028069538)
(-5.2201354e-07 4.290251e-07 0.028069191)
(3.435886e-07 5.3391627e-07 0.028069278)
(8.2696147e-07 4.8889498e-07 0.028069682)
(2.8713834e-07 3.7182254e-07 0.02807007)
(-4.4267288e-07 -9.0417502e-07 0.028070641)
(-1.4032735e-06 -1.1013889e-06 0.028070107)
(-1.422243e-06 -1.1153623e-06 0.028069625)
(-2.766131e-07 -1.0817651e-06 0.028069264)
(1.80143e-07 -8.665766e-07 0.028069538)
(-5.3610702e-07 -5.36107e-07 0.028069402)
(-2.4558824e-07 -2.3517178e-07 0.028069183)
(5.2016794e-07 -1.2583605e-08 0.028069356)
(8.9718239e-07 1.2104971e-07 0.028069797)
(2.9420697e-07 1.7895834e-07 0.028070183)
(-4.5254074e-07 -8.3753109e-07 0.028070224)
(-1.3893772e-06 -7.8005685e-07 0.028069687)
(-1.391734e-06 -5.8128304e-07 0.028069206)
(-1.8538397e-07 -5.993615e-07 0.02806884)
(4.2902509e-07 -5.2201354e-07 0.028069191)
(-2.351718e-07 -2.4558823e-07 0.028069183)
(1.5098536e-09 1.5098819e-09 0.028069073)
(6.9981009e-07 1.7011219e-07 0.028069322)
(1.0185034e-06 2.8576969e-07 0.028069813)
(3.257441e-07 3.8346788e-07 0.028070234)
(-4.0435673e-07 -1.6229762e-07 0.028070082)
(-1.1470254e-06 -1.3133723e-07 0.028069659)
(-1.2415477e-06 3.7345413e-07 0.028069321)
(-2.173436e-07 4.6029803e-07 0.028068931)
(5.3391627e-07 3.4358857e-07 0.028069278)
(-1.2583591e-08 5.2016792e-07 0.028069356)
(1.7011219e-07 6.9981009e-07 0.028069322)
(8.0442774e-07 8.0442775e-07 0.028069618)
(1.1105381e-06 8.7326364e-07 0.028070148)
(3.593391e-07 9.5026831e-07 0.028070648)
(-4.3190048e-07 5.3041974e-07 0.028070202)
(-8.5362547e-07 2.4282832e-07 0.02806974)
(-8.0009874e-07 7.2696822e-07 0.028069702)
(-2.1524954e-07 1.0592761e-06 0.028069398)
(4.8889499e-07 8.2696145e-07 0.028069682)
(1.2104973e-07 8.9718239e-07 0.028069797)
(2.8576968e-07 1.0185034e-06 0.028069813)
(8.7326364e-07 1.1105381e-06 0.028070148)
(1.164344e-06 1.164344e-06 0.028070706)
(3.7708054e-07 1.1509123e-06 0.028071178)
(-5.9608434e-07 2.8643988e-07 0.028070774)
(-9.5047693e-07 1.2225603e-07 0.02806999)
(-4.2509988e-07 2.2187224e-07 0.028070022)
(-1.1735037e-07 3.7225526e-07 0.028069865)
(3.7182256e-07 2.8713834e-07 0.02807007)
(1.7895835e-07 2.9420697e-07 0.028070183)
(3.8346787e-07 3.2574409e-07 0.028070234)
(9.5026831e-07 3.593391e-07 0.028070648)
(1.1509123e-06 3.7708054e-07 0.028071178)
(3.5038467e-07 3.5038467e-07 0.028071647)
(-7.5042926e-07 -7.5042926e-07 0.033807579)
(-1.6069849e-06 -3.4243918e-07 0.033806915)
(-2.3612464e-06 -1.0423588e-06 0.03380667)
(-1.1010026e-06 -2.4296238e-07 0.033805716)
(3.0197704e-07 -4.5464436e-07 0.033806084)
(-1.2556404e-06 -6.1274378e-07 0.033805809)
(-1.1002961e-06 -6.2521341e-07 0.033805392)
(-1.6187947e-07 -5.2966282e-07 0.033805293)
(8.9482109e-07 -5.6050053e-07 0.033805447)
(4.9007938e-07 -8.3915685e-07 0.033806084)
(-3.4243918e-07 -1.6069849e-06 0.033806915)
(-2.0448793e-06 -2.0448793e-06 0.033806618)
(-2.2120312e-06 -2.2188688e-06 0.033805869)
(-2.1943087e-07 -1.0881341e-06 0.033805501)
(-2.5269507e-07 -1.5921824e-06 0.033805727)
(-1.511494e-06 -1.8833924e-06 0.033805332)
(-9.7567463e-07 -1.8773307e-06 0.033804894)
(-6.4810145e-08 -1.4934078e-06 0.033804932)
(4.3058005e-07 -1.052975e-06 0.033805069)
(2.1142306e-07 -1.2953825e-06 0.033805356)
(-1.0423588e-06 -2.3612464e-06 0.03380667)
(-2.2188689e-06 -2.2120312e-06 0.033805869)
(-1.4045013e-06 -1.4045013e-06 0.033805527)
(-4.7431608e-07 -1.6231123e-06 0.033805146)
(-4.9328121e-07 -1.8298153e-06 0.033805301)
(-1.5407887e-06 -1.8291757e-06 0.033804885)
(-7.1031148e-07 -1.8052533e-06 0.033804438)
(6.6247619e-07 -1.5956742e-06 0.033804627)
(1.0928464e-06 -9.5226999e-07 0.033805087)
(3.2847435e-07 -4.7270339e-07 0.033805431)
(-2.4296237e-07 -1.1010026e-06 0.033805716)
(-1.0881341e-06 -2.1943084e-07 0.033805501)
(-1.6231123e-06 -4.7431607e-07 0.033805146)
(-6.4474485e-07 -6.4474483e-07 0.033804718)
(-4.5875844e-07 -5.383378e-07 0.033804895)
(-1.4869319e-06 -2.9795962e-07 0.033804528)
(-7.4217318e-07 -1.7020603e-07 0.033804073)
(7.8817313e-07 -2.1680753e-07 0.033804237)
(1.5535509e-06 -1.9830094e-07 0.033804805)
(5.3113412e-07 -6.3443231e-08 0.033805319)
(-4.5464435e-07 3.0197704e-07 0.033806084)
(-1.5921824e-06 -2.5269506e-07 0.033805727)
(-1.8298153e-06 -4.932812e-07 0.033805301)
(-5.3833782e-07 -4.5875841e-07 0.033804895)
(-1.4649599e-07 -1.4649597e-07 0.033805171)
(-1.1726569e-06 2.8464282e-07 0.03380493)
(-6.2915939e-07 6.3758844e-07 0.033804555)
(6.3438128e-07 7.8122083e-07 0.033804706)
(1.2462107e-06 7.1896842e-07 0.033805195)
(4.1837949e-07 5.5604332e-07 0.033805614)
(-6.1274377e-07 -1.2556404e-06 0.033805809)
(-1.8833924e-06 -1.511494e-06 0.033805332)
(-1.8291757e-06 -1.5407887e-06 0.033804885)
(-2.9795962e-07 -1.4869319e-06 0.033804528)
(2.846428e-07 -1.1726569e-06 0.03380493)
(-7.0284752e-07 -7.0284752e-07 0.033804846)
(-2.4559517e-07 -2.8233605e-07 0.033804605)
(8.6955312e-07 1.9598659e-08 0.03380484)
(1.3283734e-06 1.9329676e-07 0.033805357)
(4.2251738e-07 2.6603364e-07 0.033805759)
(-6.2521341e-07 -1.1002961e-06 0.033805392)
(-1.8773306e-06 -9.7567463e-07 0.033804894)
(-1.8052532e-06 -7.1031148e-07 0.033804438)
(-1.7020605e-07 -7.4217321e-07 0.033804073)
(6.3758841e-07 -6.2915942e-07 0.033804555)
(-2.8233605e-07 -2.4559518e-07 0.033804605)
(9.3286793e-08 9.3286786e-08 0.033804475)
(1.1100141e-06 3.2226477e-07 0.033804784)
(1.4926456e-06 4.8436529e-07 0.03380535)
(4.6687074e-07 6.4954651e-07 0.033805796)
(-5.2966281e-07 -1.6187945e-07 0.033805293)
(-1.4934078e-06 -6.4810138e-08 0.033804932)
(-1.5956742e-06 6.6247616e-07 0.033804627)
(-2.1680756e-07 7.8817312e-07 0.033804237)
(7.8122083e-07 6.3438127e-07 0.033804706)
(1.959868e-08 8.6955313e-07 0.03380484)
(3.2226479e-07 1.1100141e-06 0.033804784)
(1.2606316e-06 1.2606316e-06 0.033805143)
(1.6556551e-06 1.3645158e-06 0.033805768)
(5.326382e-07 1.4517369e-06 0.033806341)
(-5.6050053e-07 8.948211e-07 0.033805447)
(-1.052975e-06 4.3058005e-07 0.033805069)
(-9.5226999e-07 1.0928463e-06 0.033805087)
(-1.9830094e-07 1.5535509e-06 0.033804805)
(7.1896842e-07 1.2462107e-06 0.033805195)
(1.9329676e-07 1.3283734e-06 0.033805357)
(4.8436529e-07 1.4926456e-06 0.03380535)
(1.3645158e-06 1.6556551e-06 0.033805768)
(1.6837509e-06 1.6837509e-06 0.033806433)
(5.250181e-07 1.6537833e-06 0.033806877)
(-8.3915684e-07 4.9007938e-07 0.033806084)
(-1.2953826e-06 2.1142307e-07 0.033805356)
(-4.7270342e-07 3.2847436e-07 0.033805431)
(-6.3443238e-08 5.3113412e-07 0.033805319)
(5.5604333e-07 4.1837949e-07 0.033805614)
(2.6603364e-07 4.2251739e-07 0.033805759)
(6.4954651e-07 4.6687074e-07 0.033805796)
(1.4517369e-06 5.3263821e-07 0.033806341)
(1.6537832e-06 5.2501811e-07 0.033806877)
(5.1265978e-07 5.1265979e-07 0.033807374)
(-9.5036589e-07 -9.503659e-07 0.041907568)
(-2.033647e-06 -4.3243661e-07 0.041906929)
(-2.999107e-06 -1.3138963e-06 0.041906682)
(-1.3932629e-06 -2.9872413e-07 0.041905604)
(3.9308878e-07 -5.5893424e-07 0.041906141)
(-1.5955211e-06 -7.6019059e-07 0.041905908)
(-1.3531117e-06 -7.8441339e-07 0.041905461)
(-1.0716805e-07 -6.4529619e-07 0.041905363)
(1.3211172e-06 -6.8400951e-07 0.041905561)
(7.1069168e-07 -1.0813852e-06 0.041906248)
(-4.324366e-07 -2.033647e-06 0.041906929)
(-2.5789426e-06 -2.5789426e-06 0.041906653)
(-2.7985383e-06 -2.7988726e-06 0.041905813)
(-2.6081987e-07 -1.3478604e-06 0.041905452)
(-2.9911092e-07 -1.9602388e-06 0.041905835)
(-1.9337399e-06 -2.3267985e-06 0.041905464)
(-1.1807701e-06 -2.343329e-06 0.041904978)
(4.3437765e-08 -1.813231e-06 0.041905017)
(6.6698364e-07 -1.2144188e-06 0.041905183)
(3.1331598e-07 -1.6036667e-06 0.04190549)
(-1.3138963e-06 -2.999107e-06 0.041906682)
(-2.7988726e-06 -2.7985383e-06 0.041905813)
(-1.7680249e-06 -1.7680249e-06 0.041905475)
(-5.5462906e-07 -2.0126717e-06 0.041905111)
(-5.8584933e-07 -2.2430214e-06 0.041905418)
(-1.9786114e-06 -2.2268555e-06 0.041905024)
(-8.3954421e-07 -2.2131971e-06 0.041904526)
(1.0217421e-06 -1.935946e-06 0.04190474)
(1.5306815e-06 -1.0639931e-06 0.041905273)
(4.511931e-07 -4.613719e-07 0.041905649)
(-2.9872412e-07 -1.3932629e-06 0.041905604)
(-1.3478604e-06 -2.6081987e-07 0.041905452)
(-2.0126717e-06 -5.5462904e-07 0.041905111)
(-7.3581641e-07 -7.3581642e-07 0.0419047)
(-5.1329474e-07 -5.644612e-07 0.041905032)
(-1.9039156e-06 -2.3129461e-07 0.041904692)
(-8.8986064e-07 -6.8647637e-08 0.041904178)
(1.1926419e-06 -1.384211e-07 0.04190436)
(2.1415578e-06 -1.0633055e-07 0.041905016)
(7.1506342e-07 6.6314854e-08 0.04190559)
(-5.5893424e-07 3.9308878e-07 0.041906141)
(-1.9602388e-06 -2.9911092e-07 0.041905835)
(-2.2430214e-06 -5.8584929e-07 0.041905418)
(-5.6446122e-07 -5.1329472e-07 0.041905032)
(-8.1327514e-08 -8.1327513e-08 0.041905477)
(-1.4827978e-06 4.9857354e-07 0.041905278)
(-7.466707e-07 9.6098994e-07 0.041904847)
(9.8405922e-07 1.1363394e-06 0.041905)
(1.7354175e-06 1.0406914e-06 0.041905551)
(5.6629004e-07 8.1147224e-07 0.041906001)
(-7.6019059e-07 -1.5955211e-06 0.041905908)
(-2.3267985e-06 -1.9337399e-06 0.041905464)
(-2.2268555e-06 -1.9786113e-06 0.041905024)
(-2.3129463e-07 -1.9039156e-06 0.041904692)
(4.9857353e-07 -1.4827978e-06 0.041905278)
(-8.6159816e-07 -8.6159815e-07 0.041905254)
(-2.5209478e-07 -3.1480867e-07 0.041904968)
(1.2723433e-06 6.5901638e-08 0.041905206)
(1.8166906e-06 2.7523079e-07 0.041905773)
(5.6225067e-07 3.6044045e-07 0.041906189)
(-7.8441339e-07 -1.3531117e-06 0.041905461)
(-2.343329e-06 -1.1807701e-06 0.041904978)
(-2.2131971e-06 -8.3954422e-07 0.041904526)
(-6.8647665e-08 -8.8986064e-07 0.041904178)
(9.6098994e-07 -7.4667071e-07 0.041904847)
(-3.1480868e-07 -2.5209479e-07 0.041904968)
(1.8082908e-07 1.8082908e-07 0.0419048)
(1.5740987e-06 4.7345277e-07 0.041905112)
(2.0299563e-06 6.9630581e-07 0.041905726)
(6.2309648e-07 9.6579095e-07 0.041906195)
(-6.4529617e-07 -1.0716806e-07 0.041905363)
(-1.813231e-06 4.343778e-08 0.041905017)
(-1.935946e-06 1.0217421e-06 0.04190474)
(-1.3842112e-07 1.1926418e-06 0.04190436)
(1.1363394e-06 9.8405922e-07 0.041905)
(6.5901631e-08 1.2723433e-06 0.041905206)
(4.7345279e-07 1.5740987e-06 0.041905112)
(1.78782e-06 1.78782e-06 0.041905477)
(2.3090288e-06 1.956162e-06 0.041906176)
(7.4190743e-07 2.0316383e-06 0.041906837)
(-6.840095e-07 1.3211172e-06 0.041905561)
(-1.2144188e-06 6.6698364e-07 0.041905183)
(-1.0639931e-06 1.5306815e-06 0.041905273)
(-1.0633055e-07 2.1415577e-06 0.041905016)
(1.0406914e-06 1.7354175e-06 0.041905551)
(2.7523075e-07 1.8166906e-06 0.041905773)
(6.963058e-07 2.0299563e-06 0.041905726)
(1.956162e-06 2.3090288e-06 0.041906176)
(2.2737746e-06 2.2737746e-06 0.041906956)
(6.7341404e-07 2.1831133e-06 0.041907414)
(-1.0813852e-06 7.1069169e-07 0.041906248)
(-1.6036667e-06 3.1331598e-07 0.04190549)
(-4.6137194e-07 4.5119309e-07 0.041905649)
(6.6314868e-08 7.1506341e-07 0.04190559)
(8.1147225e-07 5.6629004e-07 0.041906001)
(3.6044043e-07 5.6225067e-07 0.041906189)
(9.6579095e-07 6.2309649e-07 0.041906195)
(2.0316383e-06 7.4190743e-07 0.041906837)
(2.1831133e-06 6.7341404e-07 0.041907414)
(6.8146655e-07 6.8146655e-07 0.041907934)
(-1.1758808e-06 -1.1758808e-06 0.052770256)
(-2.4928556e-06 -5.2686558e-07 0.052769544)
(-3.686533e-06 -1.6213938e-06 0.052769327)
(-1.6420097e-06 -3.4423043e-07 0.05276814)
(6.0632e-07 -6.583993e-07 0.052768894)
(-1.9350969e-06 -9.0885391e-07 0.052768712)
(-1.6454727e-06 -9.471382e-07 0.05276822)
(-6.229137e-08 -7.6018887e-07 0.05276809)
(1.7795839e-06 -8.1208351e-07 0.052768298)
(9.4822033e-07 -1.3446352e-06 0.052769054)
(-5.2686557e-07 -2.4928556e-06 0.052769544)
(-3.1611251e-06 -3.1611251e-06 0.052769268)
(-3.4125803e-06 -3.4254667e-06 0.052768355)
(-1.9751796e-07 -1.5808668e-06 0.052768032)
(-2.4061521e-07 -2.3148867e-06 0.052768611)
(-2.3682053e-06 -2.7680616e-06 0.052768269)
(-1.4224752e-06 -2.8124245e-06 0.05276773)
(1.4029067e-07 -2.1162248e-06 0.052767753)
(9.0291442e-07 -1.3411379e-06 0.052767912)
(4.1566864e-07 -1.8948317e-06 0.05276822)
(-1.6213938e-06 -3.686533e-06 0.052769327)
(-3.4254667e-06 -3.4125803e-06 0.052768355)
(-2.1062748e-06 -2.1062748e-06 0.052768046)
(-5.3142966e-07 -2.3755091e-06 0.052767727)
(-5.8087476e-07 -2.6333209e-06 0.052768217)
(-2.4326347e-06 -2.6018235e-06 0.052767845)
(-9.9363598e-07 -2.6052796e-06 0.052767288)
(1.4089953e-06 -2.2529172e-06 0.052767514)
(2.0009771e-06 -1.12015e-06 0.052768098)
(5.7909114e-07 -3.7217899e-07 0.052768486)
(-3.4423044e-07 -1.6420097e-06 0.05276814)
(-1.5808668e-06 -1.9751793e-07 0.052768032)
(-2.3755091e-06 -5.3142965e-07 0.052767727)
(-7.2456407e-07 -7.2456408e-07 0.052767354)
(-4.6692958e-07 -4.7962529e-07 0.052767872)
(-2.340164e-06 -4.3464709e-08 0.052767557)
(-1.0735689e-06 1.5060493e-07 0.052766972)
(1.6254203e-06 4.3029495e-08 0.052767151)
(2.7836526e-06 7.9581269e-08 0.052767871)
(9.1431598e-07 2.8888013e-07 0.052768491)
(-6.5839928e-07 6.0632e-07 0.052768894)
(-2.3148867e-06 -2.4061521e-07 0.052768611)
(-2.6333209e-06 -5.8087475e-07 0.052768217)
(-4.796253e-07 -4.6692958e-07 0.052767872)
(1.0022461e-07 1.002246e-07 0.052768519)
(-1.8024044e-06 8.4733952e-07 0.052768364)
(-9.0714178e-07 1.427537e-06 0.052767865)
(1.3379716e-06 1.6265691e-06 0.052767997)
(2.2468277e-06 1.4763202e-06 0.052768578)
(7.1862371e-07 1.1549506e-06 0.052769039)
(-9.0885392e-07 -1.9350969e-06 0.052768712)
(-2.7680616e-06 -2.3682053e-06 0.052768269)
(-2.6018235e-06 -2.4326347e-06 0.052767845)
(-4.3464723e-08 -2.340164e-06 0.052767557)
(8.4733952e-07 -1.8024044e-06 0.052768364)
(-1.0128516e-06 -1.0128516e-06 0.052768407)
(-2.9433931e-07 -3.2909072e-07 0.052768069)
(1.6742035e-06 1.3087966e-07 0.052768287)
(2.3120341e-06 3.6906152e-07 0.052768875)
(7.0006962e-07 4.6008847e-07 0.052769282)
(-9.4713819e-07 -1.6454727e-06 0.05276822)
(-2.8124245e-06 -1.4224752e-06 0.05276773)
(-2.6052797e-06 -9.9363598e-07 0.052767288)
(1.5060493e-07 -1.0735689e-06 0.052766972)
(1.427537e-06 -9.0714175e-07 0.052767865)
(-3.2909073e-07 -2.9433928e-07 0.052768069)
(2.3658949e-07 2.3658951e-07 0.05276786)
(2.0361239e-06 5.9370528e-07 0.052768154)
(2.5760365e-06 8.8747628e-07 0.052768786)
(7.7930834e-07 1.2973779e-06 0.052769249)
(-7.6018886e-07 -6.2291377e-08 0.05276809)
(-2.1162248e-06 1.4029066e-07 0.052767753)
(-2.2529172e-06 1.4089953e-06 0.052767514)
(4.3029502e-08 1.6254203e-06 0.052767151)
(1.6265691e-06 1.3379716e-06 0.052767997)
(1.3087964e-07 1.6742035e-06 0.052768287)
(5.9370525e-07 2.0361238e-06 0.052768154)
(2.3250903e-06 2.3250903e-06 0.052768503)
(3.0157067e-06 2.5938226e-06 0.052769237)
(9.7333736e-07 2.6710386e-06 0.052769952)
(-8.120835e-07 1.7795839e-06 0.052768298)
(-1.3411379e-06 9.029144e-07 0.052767912)
(-1.12015e-06 2.0009771e-06 0.052768098)
(7.9581291e-08 2.7836526e-06 0.052767871)
(1.4763202e-06 2.2468277e-06 0.052768578)
(3.690615e-07 2.3120341e-06 0.052768875)
(8.8747627e-07 2.5760365e-06 0.052768786)
(2.5938226e-06 3.0157067e-06 0.052769237)
(2.9219848e-06 2.9219848e-06 0.052770095)
(8.3078568e-07 2.7504843e-06 0.052770576)
(-1.3446352e-06 9.4822033e-07 0.052769054)
(-1.8948317e-06 4.1566864e-07 0.05276822)
(-3.7217899e-07 5.7909114e-07 0.052768486)
(2.8888013e-07 9.1431596e-07 0.052768491)
(1.1549506e-06 7.186237e-07 0.052769039)
(4.6008847e-07 7.0006961e-07 0.052769282)
(1.2973779e-06 7.7930835e-07 0.052769249)
(2.6710386e-06 9.7333735e-07 0.052769952)
(2.7504843e-06 8.3078568e-07 0.052770576)
(8.5900369e-07 8.5900368e-07 0.052771121)
(-1.425081e-06 -1.425081e-06 0.066903374)
(-2.9630327e-06 -6.1625678e-07 0.066902602)
(-4.4028293e-06 -1.9614117e-06 0.066902445)
(-1.8261328e-06 -3.7092823e-07 0.066901147)
(9.6520721e-07 -7.4719961e-07 0.066902151)
(-2.2692207e-06 -1.0557368e-06 0.066902024)
(-1.9757793e-06 -1.1111614e-06 0.066901481)
(-2.9199413e-08 -8.6974095e-07 0.066901316)
(2.2849187e-06 -9.4125631e-07 0.06690153)
(1.214321e-06 -1.6373861e-06 0.066902383)
(-6.1625678e-07 -2.9630327e-06 0.066902602)
(-3.7675287e-06 -3.7675287e-06 0.066902355)
(-4.0348365e-06 -4.0794505e-06 0.066901382)
(-4.8147584e-09 -1.7612242e-06 0.06690111)
(-6.2005604e-08 -2.6366416e-06 0.066901913)
(-2.8151634e-06 -3.1943889e-06 0.066901595)
(-1.6967856e-06 -3.2755531e-06 0.066900993)
(2.2565821e-07 -2.3888125e-06 0.066901003)
(1.1334509e-06 -1.4148868e-06 0.066901146)
(5.1819114e-07 -2.1712429e-06 0.066901452)
(-1.9614117e-06 -4.4028293e-06 0.066902445)
(-4.0794505e-06 -4.0348365e-06 0.066901382)
(-2.3965248e-06 -2.3965248e-06 0.066901124)
(-3.8332391e-07 -2.691126e-06 0.066900862)
(-4.6795747e-07 -2.9829501e-06 0.06690156)
(-2.9081323e-06 -2.9390373e-06 0.066901201)
(-1.1702029e-06 -2.9709735e-06 0.06690057)
(1.8314669e-06 -2.5379779e-06 0.066900815)
(2.5024882e-06 -1.1049864e-06 0.066901453)
(7.1008358e-07 -1.8966911e-07 0.066901847)
(-3.7092823e-07 -1.8261328e-06 0.066901147)
(-1.7612242e-06 -4.8147299e-09 0.06690111)
(-2.691126e-06 -3.833239e-07 0.066900862)
(-5.9124008e-07 -5.9124006e-07 0.066900538)
(-3.0991698e-07 -2.631548e-07 0.066901266)
(-2.8031867e-06 2.8773351e-07 0.066900969)
(-1.2957262e-06 5.0858535e-07 0.066900294)
(2.0916453e-06 3.442296e-07 0.066900471)
(3.4817597e-06 3.7421568e-07 0.066901262)
(1.1284026e-06 6.1914426e-07 0.066901926)
(-7.471996e-07 9.6520722e-07 0.066902151)
(-2.6366416e-06 -6.2005597e-08 0.066901913)
(-2.9829501e-06 -4.6795747e-07 0.06690156)
(-2.6315482e-07 -3.0991698e-07 0.066901266)
(4.110161e-07 4.1101612e-07 0.066902142)
(-2.1363921e-06 1.3483827e-06 0.066902026)
(-1.1137068e-06 2.0579919e-06 0.066901443)
(1.6970972e-06 2.2727242e-06 0.066901551)
(2.7774029e-06 2.0442301e-06 0.066902164)
(8.733693e-07 1.601941e-06 0.066902629)
(-1.0557368e-06 -2.2692207e-06 0.066902024)
(-3.1943889e-06 -2.8151634e-06 0.066901595)
(-2.9390373e-06 -2.9081323e-06 0.066901201)
(2.8773351e-07 -2.8031867e-06 0.066900969)
(1.3483827e-06 -2.1363921e-06 0.066902026)
(-1.1562109e-06 -1.1562109e-06 0.066902136)
(-3.7138467e-07 -3.1977093e-07 0.066901735)
(2.0778835e-06 2.2294986e-07 0.066901935)
(2.8109764e-06 4.8321203e-07 0.066902544)
(8.335432e-07 5.7055818e-07 0.066902935)
(-1.1111614e-06 -1.9757794e-06 0.066901481)
(-3.2755531e-06 -1.6967856e-06 0.066900993)
(-2.9709735e-06 -1.1702029e-06 0.06690057)
(5.0858535e-07 -1.2957262e-06 0.066900294)
(2.0579919e-06 -1.1137068e-06 0.066901443)
(-3.1977093e-07 -3.7138465e-07 0.066901735)
(2.65454e-07 2.6545401e-07 0.066901478)
(2.5000802e-06 6.8859791e-07 0.066901758)
(3.1250112e-06 1.058732e-06 0.06690241)
(9.3160006e-07 1.6360111e-06 0.06690286)
(-8.6974095e-07 -2.919942e-08 0.066901316)
(-2.3888125e-06 2.2565821e-07 0.066901003)
(-2.5379779e-06 1.8314669e-06 0.066900815)
(3.4422963e-07 2.0916453e-06 0.066900471)
(2.2727242e-06 1.6970972e-06 0.066901551)
(2.2294983e-07 2.0778835e-06 0.066901935)
(6.8859789e-07 2.5000802e-06 0.066901758)
(2.8711615e-06 2.8711615e-06 0.066902095)
(3.7583896e-06 3.2645277e-06 0.066902864)