/*--------------------------------*- C++ -*----------------------------------*\
| =========                 |                                                 |
| \\      /  F ield         | OpenFOAM: The Open Source CFD Toolbox           |
|  \\    /   O peration     | Version:  v2106                                 |
|   \\  /    A nd           | Website:  www.openfoam.com                      |
|    \\/     M anipulation  |                                                 |
\*---------------------------------------------------------------------------*/
FoamFile
{
    version     2.0;
    format      ascii;
    arch        "LSB;label=32;scalar=64";
    class       volScalarField;
    location    "2.5";
    object      gradTz;
}
// * * * * * * * * * * * * * * * * * * * * * * * * * * * * * * * * * * * * * //

dimensions      [0 -1 0 1 0 0 0];

internalField   nonuniform List<scalar> 
4000
(
8.9913868
8.9913808
8.9912348
8.9905513
8.9908856
8.9908037
8.9906022
8.9904997
8.9905135
8.9905864
8.9913808
8.9913591
8.9907688
8.9905755
8.9908014
8.9906365
8.990424
8.9903364
8.9903517
8.9903779
8.9912348
8.9907688
8.9905862
8.9903655
8.9905189
8.9903353
8.9901365
8.9900998
8.990214
8.9903038
8.9905513
8.9905755
8.9903655
8.990079
8.9902106
8.9900339
8.989838
8.9897976
8.9899486
8.9901297
8.9908856
8.9908014
8.9905189
8.9902106
8.9903628
8.9902246
8.9900564
8.9900086
8.9901144
8.9902378
8.9908037
8.9906365
8.9903353
8.9900339
8.9902246
8.9901412
8.9900256
8.9900186
8.9901472
8.990276
8.9906022
8.990424
8.9901365
8.989838
8.9900564
8.9900256
8.9899571
8.9899869
8.9901428
8.9902894
8.9904997
8.9903364
8.9900998
8.9897976
8.9900086
8.9900186
8.9899869
8.9900382
8.9902071
8.9903637
8.9905135
8.9903517
8.990214
8.9899486
8.9901144
8.9901472
8.9901428
8.9902071
8.9903818
8.9905454
8.9905864
8.9903779
8.9903038
8.9901297
8.9902378
8.990276
8.9902894
8.9903637
8.9905454
8.990707
9.7637571
9.763424
9.7633195
9.7629447
9.7630966
9.7629829
9.7628056
9.7627278
9.7627664
9.7629236
9.763424
9.7632701
9.7629793
9.7628295
9.7629123
9.7627496
9.7625698
9.7625172
9.7625376
9.7626069
9.7633195
9.7629793
9.7628363
9.7626715
9.7627147
9.7625401
9.7623682
9.7623712
9.762501
9.7626122
9.7629447
9.7628295
9.7626715
9.7624755
9.7625139
9.7623505
9.7621784
9.7621744
9.7623378
9.7625147
9.7630966
9.7629123
9.7627147
9.7625139
9.7625795
9.7624567
9.7623133
9.7623066
9.7624409
9.7625834
9.7629829
9.7627496
9.7625401
9.7623505
9.7624567
9.7623885
9.7622955
9.7623249
9.7624768
9.7626219
9.7628056
9.7625698
9.7623682
9.7621784
9.7623133
9.7622955
9.7622471
9.7623093
9.7624835
9.7626428
9.7627278
9.7625172
9.7623712
9.7621744
9.7623066
9.7623249
9.7623093
9.7623912
9.7625789
9.7627561
9.7627664
9.7625376
9.762501
9.7623378
9.7624409
9.7624768
9.7624835
9.7625789
9.7627762
9.7629627
9.7629236
9.7626069
9.7626122
9.7625147
9.7625834
9.7626219
9.7626428
9.7627561
9.7629627
9.7631321
11.229047
11.22869
11.228595
11.228268
11.228379
11.228257
11.22809
11.228033
11.228081
11.22831
11.22869
11.228558
11.228285
11.228152
11.228207
11.228043
11.227875
11.227864
11.227896
11.227996
11.228595
11.228285
11.228143
11.227999
11.228024
11.22785
11.227682
11.227728
11.227881
11.228009
11.228268
11.228152
11.227999
11.227833
11.227863
11.227706
11.227536
11.227572
11.227759
11.227946
11.228379
11.228207
11.228024
11.227863
11.227927
11.227815
11.227677
11.227711
11.227873
11.228028
11.228257
11.228043
11.22785
11.227706
11.227815
11.227761
11.227673
11.227742
11.227919
11.228073
11.22809
11.227875
11.227682
11.227536
11.227677
11.227673
11.227629
11.227729
11.227925
11.228094
11.228033
11.227864
11.227728
11.227572
11.227711
11.227742
11.227729
11.227847
11.228059
11.228259
11.228081
11.227896
11.227881
11.227759
11.227873
11.227919
11.227925
11.228059
11.228282
11.228471
11.22831
11.227996
11.228009
11.227946
11.228028
11.228073
11.228094
11.228259
11.228471
11.228659
13.523031
13.522766
13.522668
13.522287
13.522433
13.522323
13.522157
13.522117
13.522179
13.522433
13.522766
13.522647
13.522348
13.5222
13.522291
13.522133
13.521958
13.521973
13.522028
13.522142
13.522668
13.522348
13.522211
13.522058
13.522121
13.521954
13.521775
13.521851
13.522035
13.522172
13.522287
13.5222
13.522058
13.521887
13.521958
13.521811
13.521629
13.521695
13.521922
13.522128
13.522433
13.522291
13.522121
13.521958
13.522068
13.521972
13.521822
13.521882
13.522078
13.522246
13.522323
13.522133
13.521954
13.521811
13.521972
13.521938
13.521842
13.521936
13.522143
13.522304
13.522157
13.521958
13.521775
13.521629
13.521822
13.521842
13.52179
13.521914
13.52214
13.522318
13.522117
13.521973
13.521851
13.521695
13.521882
13.521936
13.521914
13.522057
13.522307
13.522537
13.522179
13.522028
13.522035
13.521922
13.522078
13.522143
13.52214
13.522307
13.522573
13.522751
13.522433
13.522142
13.522172
13.522128
13.522246
13.522304
13.522318
13.522537
13.522751
13.522949
16.763027
16.762772
16.762673
16.762242
16.762456
16.762363
16.762184
16.762145
16.762224
16.762499
16.762772
16.762661
16.762325
16.762181
16.762334
16.762186
16.761991
16.762007
16.762073
16.762196
16.762673
16.762325
16.76219
16.762045
16.762167
16.76201
16.76181
16.761896
16.762109
16.762259
16.762242
16.762181
16.762045
16.76188
16.762013
16.761877
16.761671
16.761744
16.762006
16.762236
16.762456
16.762334
16.762167
16.762013
16.762191
16.762111
16.761939
16.762
16.76222
16.7624
16.762363
16.762186
16.76201
16.761877
16.762111
16.762102
16.761987
16.762082
16.762309
16.762476
16.762184
16.761991
16.76181
16.761671
16.761939
16.761987
16.76192
16.762045
16.762291
16.762478
16.762145
16.762007
16.761896
16.761744
16.762
16.762082
16.762045
16.762191
16.76247
16.762735
16.762224
16.762073
16.762109
16.762006
16.76222
16.762309
16.762291
16.76247
16.762782
16.762966
16.762499
16.762196
16.762259
16.762236
16.7624
16.762476
16.762478
16.762735
16.762966
16.763174
21.108102
21.107818
21.107731
21.107256
21.107558
21.107485
21.107288
21.107236
21.107319
21.107621
21.107818
21.107707
21.107342
21.107213
21.107445
21.107308
21.107092
21.107101
21.107165
21.107288
21.107731
21.107342
21.107218
21.107091
21.107287
21.107138
21.106915
21.107006
21.107239
21.107394
21.107256
21.107213
21.107091
21.106941
21.107149
21.107023
21.106789
21.10686
21.107149
21.107397
21.107558
21.107445
21.107287
21.107149
21.107408
21.107346
21.107146
21.107199
21.107431
21.107616
21.107485
21.107308
21.107138
21.107023
21.107346
21.107363
21.107228
21.107315
21.10755
21.107713
21.107288
21.107092
21.106915
21.106789
21.107146
21.107228
21.107144
21.107262
21.107514
21.1077
21.107236
21.107101
21.107006
21.10686
21.107199
21.107315
21.107262
21.107401
21.107695
21.107981
21.107319
21.107165
21.107239
21.107149
21.107431
21.10755
21.107514
21.107695
21.108038
21.10823
21.107621
21.107288
21.107394
21.107397
21.107616
21.107713
21.1077
21.107981
21.10823
21.108448
26.76135
26.761041
26.760978
26.760459
26.76086
26.760809
26.760592
26.760526
26.760612
26.760953
26.761041
26.760942
26.760553
26.760444
26.760765
26.760638
26.760397
26.760401
26.760459
26.760581
26.760978
26.760553
26.76045
26.760345
26.760624
26.76048
26.760228
26.760326
26.760581
26.760739
26.760459
26.760444
26.760345
26.760215
26.760506
26.760387
26.760118
26.760189
26.760505
26.760771
26.76086
26.760765
26.760624
26.760506
26.760857
26.76081
26.760577
26.76062
26.760866
26.761052
26.760809
26.760638
26.76048
26.760387
26.76081
26.760855
26.760694
26.760774
26.761018
26.761174
26.760592
26.760397
26.760228
26.760118
26.760577
26.760694
26.760591
26.760703
26.760964
26.761144
26.760526
26.760401
26.760326
26.760189
26.76062
26.760774
26.760703
26.760838
26.761146
26.761447
26.760612
26.760459
26.760581
26.760505
26.760866
26.761018
26.760964
26.761146
26.761515
26.761713
26.760953
26.760581
26.760739
26.760771
26.761052
26.761174
26.761144
26.761447
26.761713
26.761939
33.972154
33.971827
33.971796
33.971227
33.97174
33.97171
33.971466
33.971383
33.971468
33.971855
33.971827
33.971748
33.971336
33.97125
33.971671
33.971551
33.971276
33.971273
33.971319
33.971439
33.971796
33.971336
33.971259
33.971181
33.971553
33.971411
33.971119
33.971223
33.971501
33.971657
33.971227
33.97125
33.971181
33.971075
33.97146
33.971344
33.971027
33.971095
33.971441
33.971723
33.97174
33.971671
33.971553
33.97146
33.971913
33.97188
33.971602
33.971632
33.971889
33.972074
33.97171
33.971551
33.971411
33.971344
33.97188
33.971951
33.971755
33.971824
33.972075
33.972221
33.971466
33.971276
33.971119
33.971027
33.971602
33.971755
33.971624
33.971728
33.971998
33.97217
33.971383
33.971273
33.971223
33.971095
33.971632
33.971824
33.971728
33.971858
33.972181
33.972498
33.971468
33.971319
33.971501
33.971441
33.971889
33.972075
33.971998
33.972181
33.972579
33.972776
33.971855
33.971439
33.971657
33.971723
33.972074
33.972221
33.97217
33.972498
33.972776
33.97301
43.037958
43.037615
43.037622
43.037
43.037638
43.03763
43.037351
43.037245
43.037325
43.037765
43.037615
43.037563
43.037129
43.037071
43.037604
43.037488
43.037171
43.037157
43.037186
43.037299
43.037622
43.037129
43.037085
43.037039
43.037515
43.037371
43.037029
43.037138
43.037437
43.037588
43.037
43.037071
43.037039
43.036962
43.037453
43.037338
43.03696
43.037021
43.037398
43.037694
43.037638
43.037604
43.037515
43.037453
43.038023
43.038002
43.037666
43.037676
43.037944
43.038122
43.03763
43.037488
43.037371
43.037338
43.038002
43.0381
43.037857
43.037909
43.038165
43.038295
43.037351
43.037171
43.037029
43.03696
43.037666
43.037857
43.037687
43.037778
43.038054
43.038213
43.037245
43.037157
43.037138
43.037021
43.037676
43.037909
43.037778
43.037898
43.038237
43.038569
43.037325
43.037186
43.037437
43.037398
43.037944
43.038165
43.038054
43.038237
43.038666
43.038858
43.037765
43.037299
43.037588
43.037694
43.038122
43.038295
43.038213
43.038569
43.038858
43.039096
54.305472
54.305116
54.305168
54.304492
54.305268
54.305284
54.304965
54.30483
54.304901
54.305396
54.305116
54.305095
54.304643
54.304619
54.305278
54.305168
54.3048
54.304771
54.304775
54.304877
54.305168
54.304643
54.304638
54.304631
54.305226
54.305082
54.304679
54.304791
54.30511
54.305249
54.304492
54.304619
54.304631
54.304592
54.305205
54.30509
54.304641
54.30469
54.305098
54.305404
54.305268
54.305278
54.305226
54.305205
54.305908
54.3059
54.305494
54.305478
54.305752
54.305918
54.305284
54.305168
54.305082
54.30509
54.3059
54.306028
54.305726
54.305754
54.30601
54.306115
54.304965
54.3048
54.304679
54.304641
54.305494
54.305726
54.305506
54.305577
54.305852
54.305992
54.30483
54.304771
54.304791
54.30469
54.305478
54.305754
54.305577
54.305679
54.306032
54.306379
54.304901
54.304775
54.30511
54.305098
54.305752
54.30601
54.305852
54.306032
54.306493
54.306674
54.305396
54.304877
54.305249
54.305404
54.305918
54.306115
54.305992
54.306379
54.306674
54.306911
68.17077
68.170404
68.170509
68.169782
68.170712
68.170756
68.170391
68.170222
68.17028
68.170836
68.170404
68.170421
68.169958
68.169976
68.170775
68.170675
68.170249
68.170201
68.170175
68.170261
68.170509
68.169958
68.170002
68.170044
68.170773
68.17063
68.170158
68.17027
68.170606
68.170727
68.169782
68.169976
68.170044
68.170052
68.170803
68.170692
68.17016
68.170193
68.170629
68.170941
68.170712
68.170775
68.170773
68.170803
68.171657
68.171666
68.171177
68.171128
68.171404
68.17155
68.170756
68.170675
68.17063
68.170692
68.171666
68.171828
68.171456
68.171451
68.171699
68.171769
68.170391
68.170249
68.170158
68.17016
68.171177
68.171456
68.171174
68.171214
68.171483
68.171593
68.170222
68.170201
68.17027
68.170193
68.171128
68.171451
68.171214
68.171292
68.171653
68.172012
68.17028
68.170175
68.170606
68.170629
68.171404
68.171699
68.171483
68.171653
68.172145
68.172307
68.170836
68.170261
68.170727
68.170941
68.17155
68.171769
68.171593
68.172012
68.172307
68.172538
85.077773
85.077404
85.077572
85.076799
85.077896
85.077974
85.077561
85.077353
85.077392
85.078011
85.077404
85.077466
85.077001
85.07707
85.078025
85.077939
85.07745
85.07738
85.077317
85.077381
85.077572
85.077001
85.077104
85.077206
85.078085
85.077948
85.077399
85.077509
85.077859
85.077954
85.076799
85.07707
85.077206
85.077275
85.07818
85.078076
85.077451
85.077463
85.077925
85.078236
85.077896
85.078025
85.078085
85.07818
85.079202
85.079232
85.07865
85.07856
85.078832
85.078948
85.077974
85.077939
85.077948
85.078076
85.079232
85.079434
85.078979
85.078933
85.079165
85.079189
85.077561
85.07745
85.077399
85.077451
85.07865
85.078979
85.078624
85.078625
85.078877
85.078946
85.077353
85.07738
85.077509
85.077463
85.07856
85.078933
85.078625
85.078666
85.079029
85.079397
85.077392
85.077317
85.077859
85.077925
85.078832
85.079165
85.078877
85.079029
85.07955
85.079683
85.078011
85.077381
85.077954
85.078236
85.078948
85.079189
85.078946
85.079397
85.079683
85.079902
105.51459
105.51422
105.51446
105.51365
105.51493
105.51505
105.51458
105.51433
105.51435
105.51503
105.51422
105.51434
105.51388
105.51401
105.51514
105.51507
105.51451
105.51442
105.51431
105.51435
105.51446
105.51388
105.51405
105.51423
105.51527
105.51514
105.51451
105.51462
105.51498
105.51504
105.51365
105.51401
105.51423
105.51437
105.51545
105.51535
105.51463
105.51462
105.5151
105.5154
105.51493
105.51514
105.51527
105.51545
105.51665
105.51671
105.51602
105.51589
105.51615
105.51622
105.51505
105.51507
105.51514
105.51535
105.51671
105.51696
105.51641
105.51631
105.51652
105.51648
105.51458
105.51451
105.51451
105.51463
105.51602
105.51641
105.51597
105.51592
105.51614
105.51616
105.51433
105.51442
105.51462
105.51462
105.51589
105.51631
105.51592
105.51591
105.51627
105.51664
105.51435
105.51431
105.51498
105.5151
105.51615
105.51652
105.51614
105.51627
105.51681
105.51691
105.51503
105.51435
105.51504
105.5154
105.51622
105.51648
105.51616
105.51664
105.51691
105.5171
130.00716
130.00681
130.00713
130.0063
130.00777
130.00793
130.00742
130.00712
130.0071
130.00785
130.00681
130.00699
130.00656
130.00676
130.00806
130.00802
130.0074
130.00728
130.00712
130.00712
130.00713
130.00656
130.00681
130.00707
130.00829
130.00818
130.00746
130.00756
130.00792
130.00794
130.0063
130.00676
130.00707
130.0073
130.00856
130.00849
130.00765
130.00761
130.00811
130.00839
130.00777
130.00806
130.00829
130.00856
130.00996
130.01005
130.00925
130.00906
130.0093
130.00933
130.00793
130.00802
130.00818
130.00849
130.01005
130.01035
130.0097
130.00954
130.00971
130.0096
130.00742
130.0074
130.00746
130.00765
130.00925
130.0097
130.00916
130.00905
130.00923
130.00918
130.00712
130.00728
130.00756
130.00761
130.00906
130.00954
130.00905
130.00898
130.00932
130.00969
130.0071
130.00712
130.00792
130.00811
130.0093
130.00971
130.00923
130.00932
130.00989
130.00993
130.00785
130.00712
130.00794
130.00839
130.00933
130.0096
130.00918
130.00969
130.00993
130.01009
159.10982
159.10949
159.10991
159.10907
159.11072
159.11094
159.11037
159.11003
159.10998
159.11079
159.10949
159.10974
159.10935
159.10963
159.11112
159.11111
159.11042
159.11027
159.11005
159.11001
159.10991
159.10935
159.10969
159.11005
159.11145
159.11136
159.11055
159.11065
159.11101
159.11097
159.10907
159.10963
159.11005
159.11039
159.11183
159.11178
159.11083
159.11076
159.11127
159.11152
159.11072
159.11112
159.11145
159.11183
159.11344
159.11357
159.11265
159.1124
159.11261
159.11257
159.11094
159.11111
159.11136
159.11178
159.11357
159.11392
159.11315
159.11293
159.11305
159.11285
159.11037
159.11042
159.11055
159.11083
159.11265
159.11315
159.1125
159.11232
159.11245
159.11232
159.11003
159.11027
159.11065
159.11076
159.1124
159.11293
159.11232
159.11219
159.1125
159.11285
159.10998
159.11005
159.11101
159.11127
159.11261
159.11305
159.11245
159.1125
159.11308
159.11305
159.11079
159.11001
159.11097
159.11152
159.11257
159.11285
159.11232
159.11285
159.11305
159.11317
193.39217
193.39187
193.39238
193.39156
193.3934
193.39367
193.39306
193.39266
193.39257
193.39344
193.39187
193.39219
193.39185
193.39223
193.3939
193.39393
193.39317
193.39299
193.39271
193.39262
193.39238
193.39185
193.3923
193.39276
193.39435
193.39429
193.39339
193.39347
193.39382
193.39372
193.39156
193.39223
193.39276
193.39322
193.39486
193.39484
193.39377
193.39366
193.39417
193.39438
193.3934
193.3939
193.39435
193.39486
193.39668
193.39684
193.3958
193.39548
193.39566
193.39554
193.39367
193.39393
193.39429
193.39484
193.39684
193.39725
193.39636
193.39606
193.39612
193.39582
193.39306
193.39317
193.39339
193.39377
193.3958
193.39636
193.3956
193.39533
193.3954
193.39516
193.39266
193.39299
193.39347
193.39366
193.39548
193.39606
193.39533
193.39512
193.39539
193.39572
193.39257
193.39271
193.39382
193.39417
193.39566
193.39612
193.3954
193.39539
193.39597
193.39586
193.39344
193.39262
193.39372
193.39438
193.39554
193.39582
193.39516
193.39572
193.39586
193.39593
233.42214
233.42189
233.4225
233.42172
233.42373
233.42406
233.4234
233.42296
233.42283
233.42375
233.42189
233.42228
233.42203
233.4225
233.42435
233.42443
233.4236
233.42339
233.42304
233.4229
233.4225
233.42203
233.42258
233.42316
233.42493
233.4249
233.42391
233.42398
233.42432
233.42414
233.42172
233.4225
233.42316
233.42374
233.42557
233.42558
233.4244
233.42426
233.42475
233.42491
233.42373
233.42435
233.42493
233.42557
233.4276
233.42781
233.42664
233.42625
233.42638
233.42618
233.42406
233.42443
233.4249
233.42558
233.42781
233.42826
233.42726
233.42687
233.42686
233.42644
233.4234
233.4236
233.42391
233.4244
233.42664
233.42726
233.42637
233.42601
233.42599
233.42565
233.42296
233.42339
233.42398
233.42426
233.42625
233.42687
233.42601
233.4257
233.42592
233.42622
233.42283
233.42304
233.42432
233.42475
233.42638
233.42686
233.42599
233.42592
233.42649
233.42629
233.42375
233.4229
233.42414
233.42491
233.42618
233.42644
233.42565
233.42622
233.42629
233.4263
279.74513
279.74494
279.74564
279.74493
279.74709
279.74748
279.74679
279.7463
279.74613
279.74709
279.74494
279.74541
279.74524
279.74583
279.74784
279.74796
279.74708
279.74684
279.74642
279.74623
279.74564
279.74524
279.7459
279.74661
279.74854
279.74856
279.74749
279.74755
279.74785
279.7476
279.74493
279.74583
279.74661
279.74732
279.74933
279.74938
279.7481
279.74791
279.74839
279.74848
279.74709
279.74784
279.74854
279.74933
279.75155
279.7518
279.75052
279.75006
279.75014
279.74984
279.74748
279.74796
279.74856
279.74938
279.7518
279.75231
279.75119
279.75071
279.75062
279.75008
279.74679
279.74708
279.74749
279.7481
279.75052
279.75119
279.75016
279.74971
279.7496
279.74914
279.7463
279.74684
279.74755
279.74791
279.75006
279.75071
279.74971
279.7493
279.74945
279.74972
279.74613
279.74642
279.74785
279.74839
279.75014
279.75062
279.7496
279.74945
279.75002
279.74971
279.74709
279.74623
279.7476
279.74848
279.74984
279.75008
279.74914
279.74972
279.74971
279.74964
332.85919
332.85906
332.85985
332.85923
332.86152
332.86197
332.86125
332.86072
332.8605
332.86149
332.85906
332.8596
332.85955
332.86023
332.86238
332.86255
332.86163
332.86137
332.86088
332.86063
332.85985
332.85955
332.86031
332.86114
332.86321
332.86328
332.86214
332.86218
332.86245
332.86212
332.85923
332.86023
332.86114
332.86199
332.86416
332.86425
332.86287
332.86265
332.8631
332.86311
332.86152
332.86238
332.86321
332.86416
332.86654
332.86684
332.86545
332.86492
332.86494
332.86454
332.86197
332.86255
332.86328
332.86425
332.86684
332.8674
332.86616
332.8656
332.86542
332.86474
332.86125
332.86163
332.86214
332.86287
332.86545
332.86616
332.86501
332.86445
332.86424
332.86365
332.86072
332.86137
332.86218
332.86265
332.86492
332.8656
332.86445
332.86393
332.86401
332.86424
332.8605
332.86088
332.86245
332.8631
332.86494
332.86542
332.86424
332.86401
332.86455
332.86413
332.86149
332.86063
332.86212
332.86311
332.86454
332.86474
332.86365
332.86424
332.86413
332.86399
393.18681
393.18677
393.18764
393.18714
393.1895
393.19
393.18928
393.18872
393.18845
393.18946
393.18677
393.18736
393.18744
393.18823
393.19047
393.19069
393.18974
393.18947
393.18892
393.18861
393.18764
393.18744
393.1883
393.18924
393.19143
393.19155
393.19036
393.19039
393.19062
393.1902
393.18714
393.18823
393.18924
393.19023
393.19252
393.19267
393.19121
393.19096
393.19136
393.19129
393.1895
393.19047
393.19143
393.19252
393.19504
393.19539
393.1939
393.19332
393.19327
393.19277
393.19
393.19069
393.19155
393.19267
393.19539
393.196
393.19464
393.194
393.19373
393.19292
393.18928
393.18974
393.19036
393.19121
393.1939
393.19464
393.19337
393.19271
393.19239
393.19167
393.18872
393.18947
393.19039
393.19096
393.19332
393.194
393.19271
393.19209
393.19208
393.19227
393.18845
393.18892
393.19062
393.19136
393.19327
393.19373
393.19239
393.19208
393.1926
393.19205
393.18946
393.18861
393.1902
393.19129
393.19277
393.19292
393.19167
393.19227
393.19205
393.19182
461.0441
461.04413
461.04507
461.04473
461.04711
461.04765
461.04693
461.04635
461.04605
461.04705
461.04413
461.04478
461.045
461.04588
461.04816
461.04844
461.04748
461.0472
461.0466
461.04625
461.04507
461.045
461.04595
461.04699
461.04925
461.04942
461.04819
461.04822
461.0484
461.0479
461.04473
461.04588
461.04699
461.04811
461.05048
461.05068
461.04917
461.04889
461.04925
461.04908
461.04711
461.04816
461.04925
461.05048
461.05308
461.05348
461.05192
461.05129
461.05118
461.05057
461.04765
461.04844
461.04942
461.05068
461.05348
461.05412
461.05268
461.05196
461.0516
461.05066
461.04693
461.04748
461.04819
461.04917
461.05192
461.05268
461.0513
461.05054
461.05011
461.04926
461.04635
461.0472
461.04822
461.04889
461.05129
461.05196
461.05054
461.04982
461.04973
461.04986
461.04605
461.0466
461.0484
461.04925
461.05118
461.0516
461.05011
461.04973
461.0502
461.04954
461.04705
461.04625
461.0479
461.04908
461.05057
461.05066
461.04926
461.04986
461.04954
461.04922
536.6082
536.60833
536.6093
536.60914
536.61148
536.61206
536.61136
536.61078
536.61045
536.61142
536.60833
536.609
536.60937
536.61033
536.6126
536.61294
536.61199
536.61171
536.61108
536.61068
536.6093
536.60937
536.61039
536.61152
536.61379
536.61401
536.61278
536.61281
536.61294
536.61237
536.60914
536.61033
536.61152
536.61275
536.61515
536.6154
536.61387
536.61358
536.61388
536.61361
536.61148
536.6126
536.61379
536.61515
536.61777
536.61821
536.61662
536.61596
536.61578
536.61508
536.61206
536.61294
536.61401
536.6154
536.61821
536.61887
536.61737
536.6166
536.61615
536.6151
536.61136
536.61199
536.61278
536.61387
536.61662
536.61737
536.6159
536.61507
536.61453
536.61357
536.61078
536.61171
536.61281
536.61358
536.61596
536.6166
536.61507
536.61425
536.61407
536.61415
536.61045
536.61108
536.61294
536.61388
536.61578
536.61615
536.61453
536.61407
536.6145
536.61372
536.61142
536.61068
536.61237
536.61361
536.61508
536.6151
536.61357
536.61415
536.61372
536.61332
619.88469
619.88491
619.88589
619.88594
619.88817
619.88877
619.88812
619.88756
619.8872
619.88812
619.88491
619.88558
619.88611
619.88713
619.88933
619.88971
619.8888
619.88854
619.8879
619.88747
619.88589
619.88611
619.88717
619.88837
619.89059
619.89087
619.88967
619.88969
619.88977
619.88914
619.88594
619.88713
619.88837
619.8897
619.89205
619.89235
619.89084
619.89055
619.89079
619.89043
619.88817
619.88933
619.89059
619.89205
619.89463
619.8951
619.89351
619.89285
619.89262
619.89184
619.88877
619.88971
619.89087
619.89235
619.8951
619.89578
619.89425
619.89345
619.89291
619.89176
619.88812
619.8888
619.88967
619.89084
619.89351
619.89425
619.89273
619.89183
619.89119
619.89013
619.88756
619.88854
619.88969
619.89055
619.89285
619.89345
619.89183
619.89094
619.89067
619.8907
619.8872
619.8879
619.88977
619.89079
619.89262
619.89291
619.89119
619.89067
619.89104
619.89016
619.88812
619.88747
619.88914
619.89043
619.89184
619.89176
619.89013
619.8907
619.89016
619.88969
710.67646
710.67676
710.67772
710.678
710.68003
710.68063
710.68005
710.67954
710.67918
710.68001
710.67676
710.67741
710.67809
710.67914
710.68119
710.68161
710.68078
710.68056
710.67992
710.67948
710.67772
710.67809
710.67916
710.6804
710.6825
710.68283
710.6817
710.68173
710.68175
710.68109
710.678
710.67914
710.6804
710.68179
710.68403
710.68438
710.68294
710.68267
710.68284
710.68239
710.68003
710.68119
710.6825
710.68403
710.68648
710.68699
710.68545
710.68481
710.68452
710.68369
710.68063
710.68161
710.68283
710.68438
710.68699
710.68766
710.68615
710.68534
710.68473
710.68352
710.68005
710.68078
710.6817
710.68294
710.68545
710.68615
710.6846
710.68367
710.68295
710.68181
710.67954
710.68056
710.68173
710.68267
710.68481
710.68534
710.68367
710.68273
710.68238
710.68237
710.67918
710.67992
710.68175
710.68284
710.68452
710.68473
710.68295
710.68238
710.68269
710.68173
710.68001
710.67948
710.68109
710.68239
710.68369
710.68352
710.68181
710.68237
710.68173
710.68119
808.55615
808.55653
808.55744
808.55796
808.55971
808.5603
808.55982
808.55937
808.55902
808.55975
808.55653
808.55714
808.55796
808.55902
808.56083
808.56129
808.56056
808.56039
808.5598
808.55936
808.55744
808.55796
808.55901
808.56025
808.56215
808.56253
808.56151
808.56156
808.56153
808.56085
808.55796
808.55902
808.56025
808.56166
808.56371
808.56411
808.56279
808.56256
808.56265
808.56213
808.55971
808.56083
808.56215
808.56371
808.56595
808.56648
808.56504
808.56445
808.56414
808.56327
808.5603
808.56129
808.56253
808.56411
808.56648
808.56713
808.56568
808.5649
808.56425
808.563
808.55982
808.56056
808.56151
808.56279
808.56504
808.56568
808.56417
808.56323
808.56244
808.56126
808.55937
808.56039
808.56156
808.56256
808.56445
808.5649
808.56323
808.56226
808.56184
808.5618
808.55902
808.5598
808.56153
808.56265
808.56414
808.56425
808.56244
808.56184
808.5621
808.56108
808.55975
808.55936
808.56085
808.56213
808.56327
808.563
808.56126
808.5618
808.56108
808.56048
912.84439
912.84484
912.84565
912.84642
912.84781
912.84836
912.84801
912.84765
912.84734
912.84794
912.84484
912.84537
912.84632
912.84735
912.84884
912.84932
912.84874
912.84865
912.84812
912.84771
912.84565
912.84632
912.8473
912.8485
912.85012
912.85054
912.84968
912.84976
912.84969
912.84901
912.84642
912.84735
912.8485
912.84989
912.85167
912.85211
912.85097
912.8508
912.85082
912.85024
912.84781
912.84884
912.85012
912.85167
912.85361
912.85414
912.85288
912.85237
912.85204
912.85117
912.84836
912.84932
912.85054
912.85211
912.85414
912.85476
912.85343
912.85271
912.85204
912.85081
912.84801
912.84874
912.84968
912.85097
912.85288
912.85343
912.852
912.85109
912.85027
912.84908
912.84765
912.84865
912.84976
912.8508
912.85237
912.85271
912.85109
912.85014
912.84967
912.84959
912.84734
912.84812
912.84969
912.85082
912.85204
912.85204
912.85027
912.84967
912.84986
912.84881
912.84794
912.84771
912.84901
912.85024
912.85117
912.85081
912.84908
912.84959
912.84881
912.84818
1022.5958
1022.5963
1022.5969
1022.598
1022.5989
1022.5994
1022.5992
1022.599
1022.5987
1022.5991
1022.5963
1022.5967
1022.5977
1022.5987
1022.5998
1022.6003
1022.5999
1022.5999
1022.5995
1022.5991
1022.5969
1022.5977
1022.5986
1022.5997
1022.601
1022.6014
1022.6008
1022.6009
1022.6008
1022.6002
1022.598
1022.5987
1022.5997
1022.6011
1022.6025
1022.6029
1022.602
1022.602
1022.6019
1022.6013
1022.5989
1022.5998
1022.601
1022.6025
1022.604
1022.6045
1022.6035
1022.6031
1022.6028
1022.6019
1022.5994
1022.6003
1022.6014
1022.6029
1022.6045
1022.6051
1022.604
1022.6033
1022.6027
1022.6015
1022.5992
1022.5999
1022.6008
1022.602
1022.6035
1022.604
1022.6027
1022.6018
1022.601
1022.5999
1022.599
1022.5999
1022.6009
1022.602
1022.6031
1022.6033
1022.6018
1022.6009
1022.6004
1022.6003
1022.5987
1022.5995
1022.6008
1022.6019
1022.6028
1022.6027
1022.601
1022.6004
1022.6006
1022.5995
1022.5991
1022.5991
1022.6002
1022.6013
1022.6019
1022.6015
1022.5999
1022.6003
1022.5995
1022.5989
1136.5947
1136.5953
1136.5957
1136.597
1136.5974
1136.5978
1136.5978
1136.5977
1136.5975
1136.5978
1136.5953
1136.5955
1136.5967
1136.5975
1136.5981
1136.5986
1136.5984
1136.5985
1136.5982
1136.598
1136.5957
1136.5967
1136.5974
1136.5984
1136.5992
1136.5997
1136.5993
1136.5994
1136.5993
1136.5987
1136.597
1136.5975
1136.5984
1136.5996
1136.6005
1136.601
1136.6004
1136.6004
1136.6003
1136.5997
1136.5974
1136.5981
1136.5992
1136.6005
1136.6016
1136.6021
1136.6014
1136.6011
1136.6008
1136.6
1136.5978
1136.5986
1136.5997
1136.601
1136.6021
1136.6026
1136.6017
1136.6012
1136.6006
1136.5995
1136.5978
1136.5984
1136.5993
1136.6004
1136.6014
1136.6017
1136.6006
1136.5999
1136.5991
1136.598
1136.5977
1136.5985
1136.5994
1136.6004
1136.6011
1136.6012
1136.5999
1136.5991
1136.5985
1136.5984
1136.5975
1136.5982
1136.5993
1136.6003
1136.6008
1136.6006
1136.5991
1136.5985
1136.5986
1136.5976
1136.5978
1136.598
1136.5987
1136.5997
1136.6
1136.5995
1136.598
1136.5984
1136.5976
1136.597
1253.363
1253.3635
1253.3638
1253.3653
1253.3651
1253.3654
1253.3656
1253.3656
1253.3655
1253.3656
1253.3635
1253.3636
1253.3648
1253.3655
1253.3656
1253.366
1253.3661
1253.3663
1253.3662
1253.366
1253.3638
1253.3648
1253.3653
1253.3661
1253.3664
1253.3669
1253.3668
1253.367
1253.3668
1253.3664
1253.3653
1253.3655
1253.3661
1253.3672
1253.3676
1253.3681
1253.3679
1253.368
1253.3678
1253.3671
1253.3651
1253.3656
1253.3664
1253.3676
1253.3681
1253.3686
1253.3682
1253.3681
1253.3678
1253.3672
1253.3654
1253.366
1253.3669
1253.3681
1253.3686
1253.3689
1253.3683
1253.368
1253.3675
1253.3666
1253.3656
1253.3661
1253.3668
1253.3679
1253.3682
1253.3683
1253.3675
1253.3669
1253.3662
1253.3653
1253.3656
1253.3663
1253.367
1253.368
1253.3681
1253.368
1253.3669
1253.3663
1253.3657
1253.3656
1253.3655
1253.3662
1253.3668
1253.3678
1253.3678
1253.3675
1253.3662
1253.3657
1253.3657
1253.3648
1253.3656
1253.366
1253.3664
1253.3671
1253.3672
1253.3666
1253.3653
1253.3656
1253.3648
1253.3642
1371.1797
1371.1803
1371.1803
1371.182
1371.1811
1371.1813
1371.1817
1371.1819
1371.1819
1371.1817
1371.1803
1371.1802
1371.1814
1371.1819
1371.1813
1371.1818
1371.1821
1371.1824
1371.1824
1371.1824
1371.1803
1371.1814
1371.1817
1371.1822
1371.1819
1371.1824
1371.1826
1371.1829
1371.1827
1371.1823
1371.182
1371.1819
1371.1822
1371.183
1371.1829
1371.1834
1371.1835
1371.1837
1371.1834
1371.1828
1371.1811
1371.1813
1371.1819
1371.1829