/*--------------------------------*- C++ -*----------------------------------*\
| =========                 |                                                 |
| \\      /  F ield         | OpenFOAM: The Open Source CFD Toolbox           |
|  \\    /   O peration     | Version:  v2106                                 |
|   \\  /    A nd           | Website:  www.openfoam.com                      |
|    \\/     M anipulation  |                                                 |
\*---------------------------------------------------------------------------*/
FoamFile
{
    version     2.0;
    format      ascii;
    arch        "LSB;label=32;scalar=64";
    class       volVectorField;
    location    "2.5";
    object      gradT;
}
// * * * * * * * * * * * * * * * * * * * * * * * * * * * * * * * * * * * * * //

dimensions      [0 -1 0 1 0 0 0];

internalField   nonuniform List<vector> 
4000
(
(1.8830949e-05 1.8830953e-05 8.9913868)
(-1.2435856e-05 8.9745621e-06 8.9913808)
(-0.00024072815 -8.5078227e-05 8.9912348)
(-9.973233e-05 1.4784884e-05 8.9905513)
(8.2157862e-05 -5.5718866e-06 8.9908856)
(-7.0716149e-05 -2.1517174e-05 8.9908037)
(-7.991286e-05 -2.379373e-05 8.9906022)
(-2.5692415e-05 -2.1375858e-05 8.9904997)
(1.6354161e-05 -2.0237513e-05 8.9905135)
(9.7961276e-06 -2.7334204e-05 8.9905864)
(8.9745583e-06 -1.2435859e-05 8.9913808)
(-0.00016829963 -0.00016829962 8.9913591)
(-0.00023201266 -0.00017906578 8.9907688)
(1.9527181e-05 -3.7609135e-05 8.9905755)
(2.7704775e-05 -8.9341717e-05 8.9908014)
(-9.8048915e-05 -0.00011854088 8.9906365)
(-7.9700885e-05 -0.00011830147 8.990424)
(-2.035809e-05 -0.0001022399 8.9903364)
(7.4166422e-06 -7.5996186e-05 8.9903517)
(2.6994371e-06 -6.8772457e-05 8.9903779)
(-8.5078227e-05 -0.00024072815 8.9912348)
(-0.00017906578 -0.00023201266 8.9907688)
(-0.00011003766 -0.00011003766 8.9905862)
(-1.0008267e-05 -0.0001381295 8.9903655)
(1.2261182e-06 -0.00016609996 8.9905189)
(-9.9675907e-05 -0.00016981859 8.9903353)
(-6.3611878e-05 -0.00016523771 8.9901365)
(1.6612873e-05 -0.00015379066 8.9900998)
(4.9821602e-05 -0.00012017125 8.990214)
(1.4611948e-05 -7.7748777e-05 8.9903038)
(1.478488e-05 -9.9732324e-05 8.9905513)
(-3.7609138e-05 1.9527184e-05 8.9905755)
(-0.00013812951 -1.0008267e-05 8.9903655)
(-3.6535118e-05 -3.6535118e-05 8.990079)
(-3.9843115e-06 -3.8456722e-05 8.9902106)
(-9.7186663e-05 -2.7256021e-05 8.9900339)
(-6.3672951e-05 -1.9293498e-05 8.989838)
(2.4708365e-05 -2.23781e-05 8.9897976)
(8.3458522e-05 -2.6001501e-05 8.9899486)
(3.0981086e-05 -1.8170854e-05 8.9901297)
(-5.5718886e-06 8.2157857e-05 8.9908856)
(-8.9341719e-05 2.7704772e-05 8.9908014)
(-0.00016609996 1.2261126e-06 8.9905189)
(-3.8456722e-05 -3.9843115e-06 8.9902106)
(1.0505215e-05 1.0505209e-05 8.9903628)
(-8.0512683e-05 3.4029489e-05 8.9902246)
(-5.8733957e-05 5.449082e-05 8.9900564)
(9.9048691e-06 6.3072895e-05 8.9900086)
(5.4028848e-05 5.6569647e-05 8.9901144)
(1.9832379e-05 4.1469474e-05 8.9902378)
(-2.1517176e-05 -7.0716152e-05 8.9908037)
(-0.00011854088 -9.8048918e-05 8.9906365)
(-0.00016981859 -9.9675907e-05 8.9903353)
(-2.7256021e-05 -9.7186657e-05 8.9900339)
(3.4029489e-05 -8.0512683e-05 8.9902246)
(-5.3201052e-05 -5.3201057e-05 8.9901412)
(-3.4629545e-05 -2.778709e-05 8.9900256)
(2.6787191e-05 -7.6710421e-06 8.9900186)
(6.1855101e-05 5.7827236e-06 8.9901472)
(2.0914304e-05 1.2209324e-05 8.990276)
(-2.3793732e-05 -7.9912857e-05 8.9906022)
(-0.00011830147 -7.970088e-05 8.990424)
(-0.0001652377 -6.3611876e-05 8.9901365)
(-1.9293498e-05 -6.3672957e-05 8.989838)
(5.4490815e-05 -5.8733957e-05 8.9900564)
(-2.778709e-05 -3.4629548e-05 8.9900256)
(-1.3203942e-05 -1.3203942e-05 8.9899571)
(4.3474682e-05 1.7311465e-06 8.9899869)
(7.3909214e-05 1.2193678e-05 8.9901428)
(2.4116779e-05 1.9212845e-05 8.9902894)
(-2.1375858e-05 -2.5692418e-05 8.9904997)
(-0.0001022399 -2.0358087e-05 8.9903364)
(-0.00015379067 1.661287e-05 8.9900998)
(-2.2378103e-05 2.4708359e-05 8.9897976)
(6.3072898e-05 9.9048719e-06 8.9900086)
(-7.6710364e-06 2.6787194e-05 8.9900186)
(1.7311493e-06 4.3474685e-05 8.9899869)
(5.2184811e-05 5.2184814e-05 8.9900382)
(7.93368e-05 5.6619564e-05 8.9902071)
(2.5593749e-05 6.0171425e-05 8.9903637)
(-2.0237511e-05 1.6354159e-05 8.9905135)
(-7.5996186e-05 7.4166366e-06 8.9903517)
(-0.00012017125 4.9821597e-05 8.990214)
(-2.6001496e-05 8.3458525e-05 8.9899486)
(5.656965e-05 5.4028845e-05 8.9901144)
(5.7827237e-06 6.1855098e-05 8.9901472)
(1.2193678e-05 7.3909214e-05 8.9901428)
(5.6619561e-05 7.9336797e-05 8.9902071)
(8.1895826e-05 8.1895823e-05 8.9903818)
(2.6484687e-05 8.434121e-05 8.9905454)
(-2.7334206e-05 9.7961295e-06 8.9905864)
(-6.8772462e-05 2.6994352e-06 8.9903779)
(-7.7748777e-05 1.4611946e-05 8.9903038)
(-1.8170854e-05 3.0981086e-05 8.9901297)
(4.1469471e-05 1.9832373e-05 8.9902378)
(1.2209333e-05 2.0914301e-05 8.990276)
(1.9212848e-05 2.4116779e-05 8.9902894)
(6.0171419e-05 2.5593747e-05 8.9903637)
(8.4341212e-05 2.6484685e-05 8.9905454)
(2.7224007e-05 2.7224005e-05 8.990707)
(-6.2451263e-05 -6.2451263e-05 9.7637571)
(-0.00019058495 -4.8592741e-05 9.763424)
(-0.00052200008 -0.00021081544 9.7633195)
(-0.00022463878 -2.0160604e-05 9.7629447)
(0.00013208505 -6.7460688e-05 9.7630966)
(-0.00021293817 -0.00010267061 9.7629829)
(-0.00021630951 -0.0001068578 9.7628056)
(-5.6023174e-05 -9.9164244e-05 9.7627278)
(8.1043694e-05 -0.00010104831 9.7627664)
(4.3551555e-05 -0.00012655652 9.7629236)
(-4.8592741e-05 -0.00019058495 9.763424)
(-0.00041313121 -0.00041313121 9.7632701)
(-0.00047935188 -0.00043581413 9.7629793)
(-9.6066572e-06 -0.00016595472 9.7628295)
(8.3200376e-06 -0.00028201038 9.7629123)
(-0.00027203384 -0.00034695525 9.7627496)
(-0.00021104996 -0.0003437148 9.7625698)
(-4.7308939e-05 -0.00029313022 9.7625172)
(3.9955282e-05 -0.00022116742 9.7625376)
(1.8043342e-05 -0.00021754809 9.7626069)
(-0.00021081544 -0.00052200008 9.7633195)
(-0.00043581414 -0.00047935187 9.7629793)
(-0.00027482359 -0.00027482359 9.7628363)
(-7.0835034e-05 -0.00033041499 9.7626715)
(-4.8915473e-05 -0.00038794428 9.7627147)
(-0.00027464258 -0.00039437327 9.7625401)
(-0.00016248449 -0.00038323119 9.7623682)
(6.6524206e-05 -0.00034682532 9.7623712)
(0.00015662582 -0.00024413513 9.762501)
(4.5964437e-05 -0.00013899355 9.7626122)
(-2.01606e-05 -0.00022463878 9.7629447)
(-0.00016595473 -9.6066515e-06 9.7628295)
(-0.000330415 -7.0835034e-05 9.7626715)
(-0.00012272735 -0.00012272735 9.7624755)
(-5.563825e-05 -0.00011874444 9.7625139)
(-0.00026732074 -8.4383541e-05 9.7623505)
(-0.000163502 -6.2272326e-05 9.7621784)
(9.178712e-05 -6.9584223e-05 9.7621744)
(0.00024778705 -7.143789e-05 9.7623378)
(8.8137726e-05 -4.4544305e-05 9.7625147)
(-6.7460686e-05 0.00013208505 9.7630966)
(-0.00028201039 8.3200263e-06 9.7629123)
(-0.00038794429 -4.8915473e-05 9.7627147)
(-0.00011874444 -5.5638247e-05 9.7625139)
(-1.0571668e-05 -1.0571662e-05 9.7625795)
(-0.00021817048 5.8734938e-05 9.7624567)
(-0.00014768517 0.00011785419 9.7623133)
(5.7358642e-05 0.0001423435 9.7623066)
(0.00018166574 0.00012808592 9.7624409)
(6.3893494e-05 9.5046238e-05 9.7625834)
(-0.00010267061 -0.00021293818 9.7629829)
(-0.00034695524 -0.00027203384 9.7627496)
(-0.00039437327 -0.00027464258 9.7625401)
(-8.4383541e-05 -0.00026732074 9.7623505)
(5.8734935e-05 -0.00021817048 9.7624567)
(-0.00013889489 -0.00013889488 9.7623885)
(-7.9893445e-05 -6.5479358e-05 9.7622955)
(0.00010201885 -9.6306934e-06 9.7623249)
(0.00020048979 2.5236218e-05 9.7624768)
(6.611127e-05 4.0784849e-05 9.7626219)
(-0.00010685779 -0.00021630951 9.7628056)
(-0.0003437148 -0.00021104996 9.7625698)
(-0.0003832312 -0.00016248449 9.7623682)
(-6.2272329e-05 -0.00016350201 9.7621784)
(0.00011785419 -0.00014768518 9.7623133)
(-6.5479355e-05 -7.9893445e-05 9.7622955)
(-1.8420982e-05 -1.8420982e-05 9.7622471)
(0.00014807422 2.4185641e-05 9.7623093)
(0.00023208128 5.3262835e-05 9.7624835)
(7.4259248e-05 7.3915581e-05 9.7626428)
(-9.9164246e-05 -5.6023168e-05 9.7627278)
(-0.00029313022 -4.7308939e-05 9.7625172)
(-0.00034682532 6.6524206e-05 9.7623712)
(-6.9584229e-05 9.178712e-05 9.7621744)
(0.0001423435 5.7358636e-05 9.7623066)
(-9.6306905e-06 0.00010201884 9.7623249)
(2.4185641e-05 0.00014807422 9.7623093)
(0.00017370267 0.00017370267 9.7623912)
(0.00025021973 0.00018863784 9.7625789)
(7.9879768e-05 0.00020341648 9.7627561)
(-0.00010104831 8.1043697e-05 9.7627664)
(-0.00022116742 3.9955285e-05 9.7625376)
(-0.00024413514 0.00015662581 9.762501)
(-7.1437898e-05 0.00024778704 9.7623378)
(0.00012808592 0.00018166573 9.7624409)
(2.5236227e-05 0.00020048978 9.7624768)
(5.3262841e-05 0.00023208128 9.7624835)
(0.00018863784 0.00025021973 9.7625789)
(0.00026179509 0.00026179508 9.7627762)
(8.4111669e-05 0.00026193023 9.7629627)
(-0.00012655652 4.3551555e-05 9.7629236)
(-0.00021754811 1.804334e-05 9.7626069)
(-0.00013899356 4.5964434e-05 9.7626122)
(-4.4544308e-05 8.8137722e-05 9.7625147)
(9.5046241e-05 6.3893494e-05 9.7625834)
(4.0784855e-05 6.611127e-05 9.7626219)
(7.3915589e-05 7.4259246e-05 9.7626428)
(0.00020341647 7.987977e-05 9.7627561)
(0.00026193023 8.4111664e-05 9.7629627)
(7.9969866e-05 7.9969861e-05 9.7631321)
(-0.00020326161 -0.0002032616 11.229047)
(-0.0004500983 -9.3651829e-05 11.22869)
(-0.00071999685 -0.00031188475 11.228595)
(-0.00032259475 -6.2015439e-05 11.228268)
(0.00012031562 -0.00012842593 11.228379)
(-0.00036167001 -0.00017706916 11.228257)
(-0.00033501244 -0.0001810163 11.22809)
(-6.4919044e-05 -0.00016174269 11.228033)
(0.0002121679 -0.0001727602 11.228081)
(0.00011457595 -0.00023843374 11.22831)
(-9.3651833e-05 -0.0004500983 11.22869)
(-0.00061303301 -0.00061303301 11.228558)
(-0.00067254227 -0.00066227723 11.228285)
(-4.7406533e-05 -0.00031085363 11.228152)
(-5.2264952e-05 -0.00047127598 11.228207)
(-0.00044055555 -0.00056130939 11.228043)
(-0.00031202274 -0.00055575088 11.227875)
(-5.2534892e-05 -0.00045881017 11.227864)
(9.7131328e-05 -0.00034145019 11.227896)
(4.890241e-05 -0.00038019077 11.227996)
(-0.00031188475 -0.00071999685 11.228595)
(-0.00066227723 -0.00067254226 11.228285)
(-0.00041781747 -0.00041781747 11.228143)
(-0.0001315935 -0.00049211434 11.227999)
(-0.00013014013 -0.00056454309 11.228024)
(-0.00044614492 -0.00056889721 11.22785)
(-0.00023251322 -0.0005566936 11.227682)
(0.00014938165 -0.00049661907 11.227728)
(0.0002907873 -0.00032003949 11.227881)
(8.8748897e-05 -0.00017003995 11.228009)
(-6.2015437e-05 -0.00032259475 11.228268)
(-0.00031085363 -4.7406522e-05 11.228152)
(-0.00049211434 -0.0001315935 11.227999)
(-0.00019413216 -0.00019413215 11.227833)
(-0.00012904783 -0.00017366787 11.227863)
(-0.00043270606 -0.00011064524 11.227706)
(-0.0002397446 -7.4153593e-05 11.227536)
(0.00018411922 -8.6937439e-05 11.227572)
(0.00042371045 -8.6099809e-05 11.227759)
(0.0001489021 -4.6940147e-05 11.227946)
(-0.00012842593 0.00012031562 11.228379)
(-0.00047127597 -5.2264957e-05 11.228207)
(-0.0005645431 -0.00013014014 11.228024)
(-0.00017366787 -0.00012904782 11.227863)
(-4.6653224e-05 -4.6653216e-05 11.227927)
(-0.00034663065 7.2057207e-05 11.227815)
(-0.00020880541 0.00017161004 11.227677)
(0.00013743544 0.00021356651 11.227711)
(0.00033078459 0.00019555799 11.227873)
(0.00011485534 0.00014872902 11.228028)
(-0.00017706915 -0.00036167001 11.228257)
(-0.00056130939 -0.00044055556 11.228043)
(-0.00056889721 -0.00044614492 11.22785)
(-0.00011064524 -0.00043270606 11.227706)
(7.2057202e-05 -0.00034663064 11.227815)
(-0.00021444281 -0.0002144428 11.227761)
(-9.8235296e-05 -9.4068713e-05 11.227673)
(0.00020806717 -5.0334421e-06 11.227742)
(0.00035887296 4.8419884e-05 11.227919)
(0.00011768279 7.1583335e-05 11.228073)
(-0.0001810163 -0.00033501244 11.22809)
(-0.00055575088 -0.00031202274 11.227875)
(-0.0005566936 -0.00023251322 11.227682)
(-7.415359e-05 -0.0002397446 11.227536)
(0.00017161004 -0.00020880542 11.227677)
(-9.4068719e-05 -9.8235293e-05 11.227673)
(6.0394145e-07 6.0395277e-07 11.227629)
(0.00027992403 6.8044878e-05 11.227729)
(0.00040740136 0.00011430787 11.227925)
(0.00013029764 0.00015338715 11.228094)
(-0.00016174269 -6.4919047e-05 11.228033)
(-0.00045881017 -5.2534892e-05 11.227864)
(-0.00049661907 0.00014938165 11.227728)
(-8.6937442e-05 0.00018411921 11.227572)
(0.00021356651 0.00013743543 11.227711)
(-5.0334364e-06 0.00020806717 11.227742)
(6.8044875e-05 0.00027992404 11.227729)
(0.0003217711 0.0003217711 11.227847)
(0.00044421523 0.00034930546 11.228059)
(0.00014373564 0.00038010732 11.228259)
(-0.00017276019 0.0002121679 11.228081)
(-0.00034145019 9.7131328e-05 11.227896)
(-0.0003200395 0.00029078729 11.227881)
(-8.6099814e-05 0.00042371044 11.227759)
(0.000195558 0.00033078458 11.227873)
(4.8419892e-05 0.00035887296 11.227919)
(0.00011430787 0.00040740136 11.227925)
(0.00034930545 0.00044421523 11.228059)
(0.00046573759 0.00046573759 11.228282)
(0.00015083222 0.00046036493 11.228471)
(-0.00023843374 0.00011457595 11.22831)
(-0.00038019077 4.890241e-05 11.227996)
(-0.00017003995 8.8748895e-05 11.228009)
(-4.694015e-05 0.0001489021 11.227946)
(0.00014872902 0.00011485534 11.228028)
(7.1583341e-05 0.00011768279 11.228073)
(0.00015338715 0.00013029764 11.228094)
(0.00038010732 0.00014373564 11.228259)
(0.00046036493 0.00015083222 11.228471)
(0.00014015387 0.00014015387 11.228659)
(-0.0003001717 -0.0003001717 13.523031)
(-0.00064279397 -0.00013697567 13.522766)
(-0.00094449858 -0.00041694353 13.522668)
(-0.00044040102 -9.7184951e-05 13.522287)
(0.00012079082 -0.00018185774 13.522433)
(-0.00050225616 -0.00024509751 13.522323)
(-0.00044011843 -0.00025008536 13.522157)
(-6.4751788e-05 -0.00021186513 13.522117)
(0.00035792844 -0.00022420021 13.522179)
(0.00019603175 -0.00033566274 13.522433)
(-0.00013697567 -0.00064279396 13.522766)
(-0.0008179517 -0.0008179517 13.522647)
(-0.00088481249 -0.00088754754 13.522348)
(-8.7772349e-05 -0.00043525366 13.5222)
(-0.00010107803 -0.00063687295 13.522291)
(-0.00060459759 -0.00075335696 13.522133)
(-0.00039026985 -0.00075093226 13.521958)
(-2.5924058e-05 -0.00059736312 13.521973)
(0.00017223202 -0.00042119 13.522028)
(8.4569223e-05 -0.00051815301 13.522142)
(-0.00041694353 -0.00094449858 13.522668)
(-0.00088754754 -0.00088481249 13.522348)
(-0.00056180053 -0.00056180053 13.522211)
(-0.00018972643 -0.00064924492 13.522058)
(-0.00019731248 -0.00073192612 13.522121)
(-0.00061631547 -0.00073167027 13.521954)
(-0.00028412459 -0.0007221013 13.521775)
(0.00026499048 -0.00063826969 13.521851)
(0.00043713854 -0.00038090799 13.522035)
(0.00013138974 -0.00018908136 13.522172)
(-9.7184947e-05 -0.00044040102 13.522287)
(-0.00043525365 -8.7772338e-05 13.5222)
(-0.00064924492 -0.00018972643 13.522058)
(-0.00025789794 -0.00025789793 13.521887)
(-0.00018350337 -0.00021533512 13.521958)
(-0.00059477277 -0.00011918385 13.521811)
(-0.00029686927 -6.8082411e-05 13.521629)
(0.00031526925 -8.6723011e-05 13.521695)
(0.00062142035 -7.9320375e-05 13.521922)
(0.00021245365 -2.5377292e-05 13.522128)
(-0.00018185774 0.00012079082 13.522433)
(-0.00063687295 -0.00010107802 13.522291)
(-0.00073192613 -0.00019731248 13.522121)
(-0.00021533513 -0.00018350337 13.521958)
(-5.8598397e-05 -5.8598388e-05 13.522068)
(-0.00046906276 0.00011385713 13.521972)
(-0.00025166376 0.00025503537 13.521822)
(0.00025375251 0.00031248833 13.521882)
(0.00049848426 0.00028758737 13.522078)
(0.0001673518 0.00022241733 13.522246)
(-0.00024509751 -0.00050225616 13.522323)
(-0.00075335695 -0.0006045976 13.522133)
(-0.00073167027 -0.00061631547 13.521954)
(-0.00011918385 -0.00059477277 13.521811)
(0.00011385712 -0.00046906276 13.521972)
(-0.00028113901 -0.00028113901 13.521938)
(-9.8238067e-05 -0.00011293442 13.521842)
(0.00034782125 7.8394635e-06 13.521936)
(0.00053134934 7.7318705e-05 13.522143)
(0.00016900695 0.00010641346 13.522304)
(-0.00025008536 -0.00044011842 13.522157)
(-0.00075093225 -0.00039026985 13.521958)
(-0.0007221013 -0.00028412459 13.521775)
(-6.808242e-05 -0.00029686928 13.521629)
(0.00025503536 -0.00025166377 13.521822)
(-0.00011293442 -9.8238073e-05 13.521842)
(3.7314717e-05 3.7314714e-05 13.52179)
(0.00044400564 0.00012890591 13.521914)
(0.00059705825 0.00019374612 13.52214)
(0.0001867483 0.00025981861 13.522318)
(-0.00021186513 -6.4751779e-05 13.522117)
(-0.00059736312 -2.5924055e-05 13.521973)
(-0.0006382697 0.00026499046 13.521851)
(-8.6723023e-05 0.00031526925 13.521695)
(0.00031248833 0.00025375251 13.521882)
(7.839472e-06 0.00034782125 13.521936)
(0.00012890592 0.00044400563 13.521914)
(0.00050425265 0.00050425265 13.522057)
(0.00066226204 0.00054580633 13.522307)
(0.00021305528 0.00058069475 13.522537)
(-0.00022420021 0.00035792844 13.522179)
(-0.00042119001 0.00017223202 13.522028)
(-0.000380908 0.00043713854 13.522035)
(-7.9320375e-05 0.00062142035 13.521922)
(0.00028758737 0.00049848426 13.522078)
(7.7318703e-05 0.00053134935 13.522143)
(0.00019374611 0.00059705825 13.52214)
(0.00054580634 0.00066226204 13.522307)
(0.00067350035 0.00067350035 13.522573)
(0.00021000724 0.0006615133 13.522751)
(-0.00033566274 0.00019603175 13.522433)
(-0.00051815302 8.4569227e-05 13.522142)
(-0.00018908137 0.00013138974 13.522172)
(-2.5377295e-05 0.00021245365 13.522128)
(0.00022241733 0.0001673518 13.522246)
(0.00010641346 0.00016900696 13.522304)
(0.00025981861 0.0001867483 13.522318)
(0.00058069475 0.00021305528 13.522537)
(0.0006615133 0.00021000724 13.522751)
(0.00020506391 0.00020506391 13.522949)
(-0.00038014636 -0.00038014636 16.763027)
(-0.00081345881 -0.00017297464 16.762772)
(-0.0011996428 -0.00052555851 16.762673)
(-0.00055730517 -0.00011948965 16.762242)
(0.00015723551 -0.0002235737 16.762456)
(-0.00063820846 -0.00030407624 16.762363)
(-0.00054124468 -0.00031376536 16.762184)
(-4.2867219e-05 -0.00025811847 16.762145)
(0.00052844687 -0.0002736038 16.762224)
(0.00028427667 -0.00043255408 16.762499)
(-0.00017297464 -0.00081345881 16.762772)
(-0.001031577 -0.001031577 16.762661)
(-0.0011194153 -0.0011195491 16.762325)
(-0.00010432795 -0.00053914418 16.762181)
(-0.00011964437 -0.00078409551 16.762334)
(-0.00077349595 -0.00093071942 16.762186)
(-0.00047230804 -0.00093733159 16.761991)
(1.7375106e-05 -0.00072529242 16.762007)
(0.00026679346 -0.00048576752 16.762073)
(0.00012532639 -0.00064146667 16.762196)
(-0.0005255585 -0.0011996428 16.762673)
(-0.001119549 -0.0011194153 16.762325)
(-0.00070720995 -0.00070720994 16.76219)
(-0.00022185162 -0.00080506867 16.762045)
(-0.00023433973 -0.00089720856 16.762167)
(-0.00079144454 -0.00089074219 16.76201)
(-0.00033581768 -0.00088527886 16.76181)
(0.00040869685 -0.00077437841 16.761896)
(0.00061227261 -0.00042559722 16.762109)
(0.00018047724 -0.00018454876 16.762259)
(-0.00011948965 -0.00055730516 16.762242)
(-0.00053914418 -0.00010432795 16.762181)
(-0.00080506867 -0.00022185162 16.762045)
(-0.00029432657 -0.00029432657 16.76188)
(-0.00020531789 -0.00022578448 16.762013)
(-0.00076156624 -9.2517843e-05 16.761877)
(-0.00035594426 -2.7459055e-05 16.761671)
(0.00047705674 -5.536844e-05 16.761744)
(0.0008566231 -4.2532221e-05 16.762006)
(0.00028602537 2.6525942e-05 16.762236)
(-0.0002235737 0.00015723551 16.762456)
(-0.00078409551 -0.00011964437 16.762334)
(-0.00089720857 -0.00023433972 16.762167)
(-0.00022578449 -0.00020531789 16.762013)
(-3.2531005e-05 -3.2531005e-05 16.762191)
(-0.00059311912 0.00019942942 16.762111)
(-0.00029866828 0.00038439597 16.761939)
(0.00039362369 0.00045453576 16.762)
(0.000694167 0.00041627655 16.76222)
(0.00022651601 0.0003245889 16.7624)
(-0.00030407624 -0.00063820846 16.762363)
(-0.0009307194 -0.00077349595 16.762186)
(-0.00089074219 -0.00079144454 16.76201)
(-9.2517854e-05 -0.00076156624 16.761877)
(0.00019942941 -0.00059311912 16.762111)
(-0.00034463926 -0.00034463926 16.762102)
(-0.00010083791 -0.00012592347 16.761987)
(0.00050893732 2.6360655e-05 16.762082)
(0.00072667624 0.00011009232 16.762309)
(0.00022490027 0.00014417618 16.762476)
(-0.00031376536 -0.00054124468 16.762184)
(-0.00093733159 -0.00047230803 16.761991)
(-0.00088527886 -0.00033581769 16.76181)
(-2.7459066e-05 -0.00035594425 16.761671)
(0.00038439597 -0.00029866828 16.761939)
(-0.00012592347 -0.00010083792 16.761987)
(7.2331633e-05 7.2331633e-05 16.76192)
(0.00062963947 0.00018938111 16.762045)
(0.00081198252 0.00027852232 16.762291)
(0.00024923859 0.00038631638 16.762478)
(-0.00025811847 -4.2867225e-05 16.762145)
(-0.00072529241 1.7375112e-05 16.762007)
(-0.00077437841 0.00040869684 16.761896)
(-5.5368449e-05 0.00047705674 16.761744)
(0.00045453575 0.00039362369 16.762)
(2.6360652e-05 0.00050893731 16.762082)
(0.00018938111 0.00062963946 16.762045)
(0.00071512801 0.000715128 16.762191)
(0.00092361151 0.00078246479 16.76247)
(0.00029676297 0.00081265532 16.762735)
(-0.0002736038 0.00052844688 16.762224)
(-0.00048576752 0.00026679346 16.762073)
(-0.00042559723 0.0006122726 16.762109)
(-4.2532221e-05 0.00085662309 16.762006)
(0.00041627655 0.000694167 16.76222)
(0.0001100923 0.00072667624 16.762309)
(0.00027852232 0.00081198252 16.762291)
(0.0007824648 0.00092361151 16.76247)
(0.00090950985 0.00090950984 16.762782)
(0.00026936561 0.00087324532 16.762966)
(-0.00043255408 0.00028427668 16.762499)
(-0.00064146668 0.00012532639 16.762196)
(-0.00018454878 0.00018047724 16.762259)
(2.6525947e-05 0.00028602536 16.762236)
(0.0003245889 0.00022651601 16.7624)
(0.00014417617 0.00022490027 16.762476)
(0.00038631638 0.0002492386 16.762478)
(0.00081265533 0.00029676297 16.762735)
(0.00087324532 0.00026936561 16.762966)
(0.00027258662 0.00027258662 16.763174)
(-0.00047035231 -0.00047035232 21.108102)
(-0.00099714225 -0.00021074623 21.107818)
(-0.0014746132 -0.00064855751 21.107731)
(-0.00065680387 -0.00013769217 21.107256)
(0.000242528 -0.00026335972 21.107558)
(-0.00077403876 -0.00036354156 21.107485)
(-0.0006581891 -0.00037885528 21.107288)
(-2.4916548e-05 -0.00030407555 21.107236)
(0.00071183356 -0.0003248334 21.107319)
(0.00037928813 -0.00053785408 21.107621)
(-0.00021074623 -0.00099714226 21.107818)
(-0.00126445 -0.00126445 21.107707)
(-0.0013650321 -0.0013701867 21.107342)
(-7.9007182e-05 -0.00063234673 21.107213)
(-9.6246086e-05 -0.0009259547 21.107445)
(-0.0009472821 -0.0011072246 21.107308)
(-0.00056899008 -0.0011249698 21.107092)
(5.6116267e-05 -0.00084648993 21.107101)
(0.00036116577 -0.00053645515 21.107165)
(0.00016626746 -0.00075793266 21.107288)
(-0.0006485575 -0.0014746132 21.107731)
(-0.0013701867 -0.0013650321 21.107342)
(-0.00084250991 -0.00084250991 21.107218)
(-0.00021257187 -0.00095020364 21.107091)
(-0.0002323499 -0.0010533284 21.107287)
(-0.00097305386 -0.0010407294 21.107138)
(-0.00039745439 -0.0010421119 21.106915)
(0.00056359811 -0.00090116689 21.107006)
(0.00080039082 -0.00044806 21.107239)
(0.00023163645 -0.0001488716 21.107394)
(-0.00013769218 -0.00065680386 21.107256)
(-0.00063234673 -7.9007171e-05 21.107213)
(-0.00095020364 -0.00021257186 21.107091)
(-0.00028982563 -0.00028982563 21.106941)
(-0.00018677183 -0.00019185011 21.107149)
(-0.00093606561 -1.7385884e-05 21.107023)
(-0.00042942757 6.024197e-05 21.106789)
(0.00065016813 1.7211798e-05 21.10686)
(0.0011134611 3.1832508e-05 21.107149)
(0.00036572639 0.00011555205 21.107397)
(-0.00026335971 0.000242528 21.107558)
(-0.00092595469 -9.6246086e-05 21.107445)
(-0.0010533284 -0.0002323499 21.107287)
(-0.00019185012 -0.00018677183 21.107149)
(4.0089844e-05 4.0089839e-05 21.107408)
(-0.00072096178 0.00033893581 21.107346)
(-0.00036285671 0.0005710148 21.107146)
(0.00053518864 0.00065062765 21.107199)
(0.00089873108 0.00059052807 21.107431)
(0.00028744948 0.00046198025 21.107616)
(-0.00036354157 -0.00077403876 21.107485)
(-0.0011072246 -0.0009472821 21.107308)
(-0.0010407294 -0.00097305387 21.107138)
(-1.7385889e-05 -0.0009360656 21.107023)
(0.00033893581 -0.00072096177 21.107346)
(-0.00040514065 -0.00040514064 21.107363)
(-0.00011773572 -0.00013163629 21.107228)
(0.0006696814 5.2351862e-05 21.107315)
(0.00092481365 0.00014762461 21.10755)
(0.00028002785 0.00018403539 21.107713)
(-0.00037885528 -0.0006581891 21.107288)
(-0.0011249698 -0.00056899007 21.107092)
(-0.0010421119 -0.00039745439 21.106915)
(6.0241973e-05 -0.00042942756 21.106789)
(0.0005710148 -0.0003628567 21.107146)
(-0.00013163629 -0.00011773571 21.107228)
(9.4635797e-05 9.4635803e-05 21.107144)
(0.00081444954 0.00023748211 21.107262)
(0.0010304146 0.00035499051 21.107514)
(0.00031172333 0.00051895116 21.1077)
(-0.00030407554 -2.4916551e-05 21.107236)
(-0.00084648992 5.6116264e-05 21.107101)
(-0.00090116689 0.0005635981 21.107006)
(1.7211801e-05 0.00065016814 21.10686)
(0.00065062765 0.00053518865 21.107199)
(5.2351857e-05 0.0006696814 21.107315)
(0.0002374821 0.00081444954 21.107262)
(0.00093003611 0.00093003611 21.107401)
(0.0012062827 0.001037529 21.107695)
(0.00038933494 0.0010684154 21.107981)
(-0.0003248334 0.00071183356 21.107319)
(-0.00053645515 0.00036116576 21.107165)
(-0.00044805999 0.00080039082 21.107239)
(3.1832516e-05 0.0011134611 21.107149)
(0.00059052806 0.00089873107 21.107431)
(0.0001476246 0.00092481365 21.10755)
(0.00035499051 0.0010304146 21.107514)
(0.001037529 0.0012062827 21.107695)
(0.0011687939 0.0011687939 21.108038)
(0.00033231427 0.0011001937 21.10823)
(-0.00053785408 0.00037928813 21.107621)
(-0.00075793266 0.00016626745 21.107288)
(-0.0001488716 0.00023163646 21.107394)
(0.00011555205 0.00036572638 21.107397)
(0.00046198025 0.00028744948 21.107616)
(0.00018403539 0.00028002784 21.107713)
(0.00051895115 0.00031172334 21.1077)
(0.0010684154 0.00038933494 21.107981)
(0.0011001937 0.00033231427 21.10823)
(0.00034360147 0.00034360147 21.108448)
(-0.0005700324 -0.0005700324 26.76135)
(-0.0011852131 -0.00024650271 26.761041)
(-0.0017611317 -0.00078456466 26.760978)
(-0.00073045313 -0.00014837129 26.760459)
(0.00038608289 -0.00029887984 26.76086)
(-0.00090768829 -0.00042229471 26.760809)
(-0.00079031174 -0.00044446456 26.760592)
(-1.1679765e-05 -0.00034789638 26.760526)
(0.00091396748 -0.00037650253 26.760612)
(0.00048572839 -0.00065495446 26.760953)
(-0.00024650271 -0.0011852131 26.761041)
(-0.0015070115 -0.0015070115 26.760942)
(-0.0016139346 -0.0016317802 26.760553)
(-1.9259033e-06 -0.00070448969 26.760444)
(-2.4802242e-05 -0.0010546566 26.760765)
(-0.0011260654 -0.0012777556 26.760638)
(-0.00067871424 -0.0013102212 26.760397)
(9.0263285e-05 -0.00095552498 26.760401)
(0.00045338036 -0.00056595474 26.760459)
(0.00020727646 -0.00086849718 26.760581)
(-0.00078456466 -0.0017611317 26.760978)
(-0.0016317802 -0.0016139346 26.760553)
(-0.00095860992 -0.00095860992 26.76045)
(-0.00015332957 -0.0010764504 26.760345)
(-0.00018718299 -0.00119318 26.760624)
(-0.0011632529 -0.0011756149 26.76048)
(-0.00046808116 -0.0011883894 26.760228)
(0.00073258675 -0.0010151912 26.760326)
(0.0010009953 -0.00044199454 26.760581)
(0.00028403343 -7.5867644e-05 26.760739)
(-0.00014837129 -0.00073045312 26.760459)
(-0.00070448969 -1.9258919e-06 26.760444)
(-0.0010764504 -0.00015332956 26.760345)
(-0.00023649603 -0.00023649602 26.760215)
(-0.00012396679 -0.00010526192 26.760506)
(-0.0011212747 0.0001150934 26.760387)
(-0.00051829048 0.00020343414 26.760118)
(0.00083665813 0.00013769184 26.760189)
(0.0013927039 0.00014968627 26.760505)
(0.00045136106 0.0002476577 26.760771)
(-0.00029887984 0.00038608289 26.76086)
(-0.0010546566 -2.4802239e-05 26.760765)
(-0.0011931801 -0.00018718299 26.760624)
(-0.00010526193 -0.00012396679 26.760506)
(0.00016440644 0.00016440645 26.760857)
(-0.00085455685 0.00053935308 26.76081)
(-0.00044548272 0.00082319677 26.760577)
(0.00067883888 0.00090908969 26.76062)
(0.0011109612 0.00081769205 26.760866)
(0.00034934772 0.00064077638 26.761052)
(-0.00042229471 -0.00090768829 26.760809)
(-0.0012777556 -0.0011260654 26.760638)
(-0.0011756149 -0.0011632529 26.76048)
(0.0001150934 -0.0011212747 26.760387)
(0.00053935308 -0.00085455685 26.76081)
(-0.00046248438 -0.00046248437 26.760855)
(-0.00014855387 -0.00012790837 26.760694)
(0.00083115341 8.9179943e-05 26.760774)
(0.0011243906 0.00019328481 26.761018)
(0.00033341728 0.00022822327 26.761174)
(-0.00044446456 -0.00079031174 26.760592)
(-0.0013102213 -0.00067871424 26.760397)
(-0.0011883894 -0.00046808116 26.760228)
(0.00020343414 -0.00051829047 26.760118)
(0.00082319676 -0.00044548271 26.760577)
(-0.00012790837 -0.00014855386 26.760694)
(0.0001061816 0.0001061816 26.760591)
(0.0010000321 0.00027543916 26.760703)
(0.0012500045 0.00042349279 26.760964)
(0.00037264002 0.00065440444 26.761144)
(-0.00034789638 -1.1679768e-05 26.760526)
(-0.00095552498 9.0263285e-05 26.760401)
(-0.0010151912 0.00073258675 26.760326)
(0.00013769185 0.00083665813 26.760189)
(0.00090908969 0.00067883889 26.76062)
(8.9179932e-05 0.00083115341 26.760774)
(0.00027543915 0.0010000321 26.760703)
(0.0011484646 0.0011484646 26.760838)
(0.0015033559 0.0013058111 26.761146)
(0.00048735838 0.0013433728 26.761447)
(-0.00037650252 0.00091396748 26.760612)
(-0.00056595473 0.00045338035 26.760459)
(-0.00044199455 0.0010009953 26.760581)
(0.00014968628 0.0013927039 26.760505)
(0.00081769205 0.0011109611 26.760866)
(0.0001932848 0.0011243906 26.761018)
(0.00042349279 0.0012500045 26.760964)
(0.0013058111 0.0015033559 26.761146)
(0.0014449127 0.0014449127 26.761515)
(0.00039768116 0.0013407265 26.761713)
(-0.00065495446 0.00048572839 26.760953)
(-0.00086849718 0.00020727645 26.760581)
(-7.5867641e-05 0.00028403343 26.760739)
(0.00024765772 0.00045136106 26.760771)
(0.00064077639 0.00034934772 26.761052)
(0.00022822326 0.00033341728 26.761174)
(0.00065440444 0.00037264003 26.761144)
(0.0013433728 0.00048735838 26.761447)
(0.0013407265 0.00039768116 26.761713)
(0.00041790093 0.00041790093 26.761939)
(-0.00067627028 -0.00067627028 33.972154)
(-0.001368779 -0.0002765819 33.971827)
(-0.0020567911 -0.00093213686 33.971796)
(-0.00077464401 -0.0001476224 33.971227)
(0.00059327423 -0.00032684195 33.97174)
(-0.0010421348 -0.00047799242 33.97171)
(-0.00094117762 -0.00050897339 33.971466)
(-5.0973654e-06 -0.00038752945 33.971383)
(0.0011384276 -0.00042719394 33.971468)
(0.00060665528 -0.00078597944 33.971855)
(-0.0002765819 -0.001368779 33.971827)
(-0.0017525789 -0.0017525789 33.971748)
(-0.0018633518 -0.0018988041 33.971336)
(0.00013329836 -0.00074620444 33.97125)
(9.7719214e-05 -0.0011622029 33.971671)