/*--------------------------------*- C++ -*----------------------------------*\
| =========                 |                                                 |
| \\      /  F ield         | OpenFOAM: The Open Source CFD Toolbox           |
|  \\    /   O peration     | Version:  v2106                                 |
|   \\  /    A nd           | Website:  www.openfoam.com                      |
|    \\/     M anipulation  |                                                 |
\*---------------------------------------------------------------------------*/
FoamFile
{
    version     2.0;
    format      ascii;
    arch        "LSB;label=32;scalar=64";
    class       volScalarField;
    location    "2.5";
    object      laplacianT;
}
// * * * * * * * * * * * * * * * * * * * * * * * * * * * * * * * * * * * * * //

dimensions      [0 -2 0 1 0 0 0];

internalField   nonuniform List<scalar> 
4000
(
35.22897
35.170895
35.12962
35.286533
35.176563
35.185812
35.199674
35.203223
35.202517
35.199091
35.170895
35.081244
35.241878
35.210284
35.149809
35.174134
35.188193
35.191119
35.19096
35.1987
35.12962
35.241878
35.204437
35.229123
35.179117
35.20043
35.212211
35.211703
35.20037
35.199159
35.286533
35.210284
35.229123
35.267526
35.217611
35.237578
35.250639
35.255055
35.243665
35.222777
35.176563
35.149809
35.179117
35.217611
35.165331
35.183004
35.194691
35.201913
35.201654
35.199599
35.185812
35.174134
35.20043
35.237578
35.183004
35.198592
35.207927
35.211424
35.20695
35.202144
35.199674
35.188193
35.212211
35.250639
35.194691
35.207927
35.21658
35.219286
35.213266
35.206398
35.203223
35.191119
35.211703
35.255055
35.201913
35.211424
35.219286
35.222538
35.2172
35.210787
35.202517
35.19096
35.20037
35.243665
35.201654
35.20695
35.213266
35.2172
35.213015
35.20691
35.199091
35.1987
35.199159
35.222777
35.199599
35.202144
35.206398
35.210787
35.20691
35.198544
107.47971
107.48409
107.37202
107.63503
107.43229
107.45759
107.4875
107.49492
107.48889
107.46943
107.48409
107.39613
107.58786
107.54653
107.44051
107.49194
107.52117
107.52723
107.53124
107.54367
107.37202
107.58786
107.4927
107.54879
107.45817
107.50315
107.52843
107.52237
107.48952
107.48718
107.63503
107.54653
107.54879
107.62669
107.5348
107.57694
107.60722
107.61532
107.58047
107.53187
107.43229
107.44051
107.45817
107.5348
107.43711
107.4735
107.5006
107.51637
107.50679
107.49563
107.45759
107.49194
107.50315
107.57694
107.4735
107.50448
107.52568
107.53318
107.51543
107.49972
107.4875
107.52117
107.52843
107.60722
107.5006
107.52568
107.54498
107.55064
107.52985
107.51044
107.49492
107.52723
107.52237
107.61532
107.51637
107.53318
107.55064
107.55789
107.53921
107.51982
107.48889
107.53124
107.48952
107.58047
107.50679
107.51543
107.52985
107.53921
107.5231
107.49998
107.46943
107.54367
107.48718
107.53187
107.49563
107.49972
107.51044
107.51982
107.49998
107.48387
185.41882
185.55779
185.37466
185.69544
185.43483
185.47839
185.52241
185.5344
185.5281
185.45084
185.55779
185.42164
185.66213
185.5962
185.46375
185.54081
185.58266
185.58285
185.60497
185.61349
185.37466
185.66213
185.54281
185.60448
185.49071
185.5596
185.60071
185.57958
185.52573
185.51006
185.69544
185.5962
185.60448
185.69334
185.57603
185.63964
185.69055
185.69728
185.64517
185.56848
185.43483
185.46375
185.49071
185.57603
185.4491
185.50272
185.54709
185.56399
185.54722
185.52153
185.47839
185.54081
185.5596
185.63964
185.50272
185.54767
185.58267
185.58701
185.55856
185.52728
185.52241
185.58266
185.60071
185.69055
185.54709
185.58267
185.61484
185.61686
185.58491
185.5495
185.5344
185.58285
185.57958
185.69728
185.56399
185.58701
185.61686
185.6223
185.59462
185.55384
185.5281
185.60497
185.52573
185.64517
185.54722
185.55856
185.58491
185.59462
185.56902
185.51882
185.45084
185.61349
185.51006
185.56848
185.52153
185.52728
185.5495
185.55384
185.51882
185.48938
273.07604
273.27167
273.02358
273.43864
273.10571
273.16462
273.2232
273.23803
273.24477
273.10853
273.27167
273.10061
273.40017
273.32159
273.15195
273.25472
273.31267
273.29523
273.33319
273.34053
273.02358
273.40017
273.24419
273.32706
273.18021
273.27281
273.33611
273.2924
273.21821
273.1996
273.43864
273.32159
273.32706
273.44387
273.29128
273.37549
273.45301
273.44953
273.37558
273.27381
273.10571
273.15195
273.18021
273.29128
273.1252
273.19496
273.2629
273.27337
273.24659
273.21169
273.16462
273.25472
273.27281
273.37549
273.19496
273.25238
273.30723
273.30092
273.25942
273.21978
273.2232
273.31267
273.33611
273.45301
273.2629
273.30723
273.35823
273.34939
273.30462
273.26034
273.23803
273.29523
273.2924
273.44953
273.27337
273.30092
273.34939
273.34634
273.30786
273.24407
273.24477
273.33319
273.21821
273.37558
273.24659
273.25942
273.30462
273.30786
273.26645
273.21163
273.10853
273.34053
273.1996
273.27381
273.21169
273.21978
273.26034
273.24407
273.21163
273.16164
374.51488
374.7534
374.44006
374.97118
374.54858
374.62358
374.70002
374.71449
374.72587
374.53006
374.7534
374.5343
374.91243
374.81908
374.60063
374.7322
374.81412
374.78048
374.83138
374.83623
374.44006
374.91243
374.71872
374.82705
374.63644
374.75467
374.84725
374.77913
374.67671
374.65248
374.97118
374.81908
374.82705
374.97769
374.77909
374.88547
374.99763
374.98354
374.87885
374.74508
374.54858
374.60063
374.63644
374.77909
374.56263
374.64947
374.74888
374.75371
374.71062
374.66349
374.62358
374.7322
374.75467
374.88547
374.64947
374.71965
374.80169
374.78506
374.72428
374.67476
374.70002
374.81412
374.84725
374.99763
374.74888
374.80169
374.87877
374.85973
374.79657
374.7416
374.71449
374.78048
374.77913
374.98354
374.75371
374.78506
374.85973
374.84954
374.79345
374.69127
374.72587
374.83138
374.67671
374.87885
374.71062
374.72428
374.79657
374.79345
374.71744
374.66717
374.53006
374.83623
374.65248
374.74508
374.66349
374.67476
374.7416
374.69127
374.66717
374.59658
493.98991
494.28884
493.8984
494.5675
494.03543
494.12822
494.22771
494.24651
494.26366
494.00419
494.28884
494.017
494.48877
494.37625
494.09619
494.25964
494.37055
494.32286
494.39091
494.39704
493.8984
494.48877
494.24993
494.38701
494.14124
494.2878
494.41534
494.32239
494.18912
494.16171
494.5675
494.37625
494.38701
494.57659
494.32036
494.45123
494.60503
494.58245
494.44413
494.27574
494.03543
494.09619
494.14124
494.32036
494.04116
494.1465
494.28399
494.28651
494.2274
494.16999
494.12822
494.25964
494.2878
494.45123
494.1465
494.22998
494.34496
494.32065
494.24071
494.18486
494.22771
494.37055
494.41534
494.60503
494.28399
494.34496
494.45376
494.42762
494.3473
494.28614
494.24651
494.32286
494.32239
494.58245
494.28651
494.32065
494.42762
494.41504
494.34344
494.19554
494.26366
494.39091
494.18912
494.44413
494.2274
494.24071
494.3473
494.34344
494.22437
494.18027
494.00419
494.39704
494.16171
494.27574
494.16999
494.18486
494.28614
494.19554
494.18027
494.08866
636.03533
636.40641
635.92272
636.75534
636.09149
636.20383
636.32988
636.35465
636.37834
636.04479
636.40641
636.07008
636.65128
636.51539
636.15994
636.35963
636.50381
636.44035
636.52934
636.53991
635.92272
636.65128
636.35766
636.52793
636.21469
636.39364
636.56167
636.43994
636.2706
636.24243
636.75534
636.51539
636.52793
636.7628
636.43631
636.59515
636.79765
636.76592
636.58835
636.3816
636.09149
636.15994
636.21469
636.43631
636.08078
636.20695
636.38898
636.38989
636.31282
636.24649
636.20383
636.35963
636.39364
636.59515
636.20695
636.30497
636.45829
636.42592
636.3244
636.26498
636.32988
636.50381
636.56167
636.79765
636.38898
636.45829
636.60381
636.57034
636.47132
636.40797
636.35465
636.44035
636.43994
636.76592
636.38989
636.42592
636.57034
636.55664
636.46963
636.27182
636.37834
636.52934
636.2706
636.58835
636.31282
636.3244
636.47132
636.46963
636.30163
636.26589
636.04479
636.53991
636.24243
636.3816
636.24649
636.26498
636.40797
636.27182
636.26589
636.15265
805.37764
805.83078
805.23597
806.2618
805.44131
805.57586
805.73293
805.76495
805.79669
805.37568
805.83078
805.41494
806.12376
805.96059
805.51449
805.75633
805.93966
805.85781
805.97265
805.99156
805.23597
806.12376
805.76505
805.9741
805.57971
805.79652
806.01255
805.85685
805.64524
805.61967
806.2618
805.96059
805.9741
806.26202
805.8511
806.04268
806.30314
806.26103
806.03732
805.78826
805.44131
805.51449
805.57971
805.8511
805.40395
805.55435
805.78943
805.78915
805.69152
805.61811
805.57586
805.75633
805.79652
806.04268
805.55435
805.669
805.8679
805.82663
805.70031
805.64048
805.73293
805.93966
806.01255
806.30314
805.78943
805.8679
806.05692
806.01525
805.89482
805.83318
805.76495
805.85781
805.85685
806.26103
805.78915
805.82663
806.01525
806.00073
805.89673
805.64456
805.79669
805.97265
805.64524
806.03732
805.69152
805.70031
805.89482
805.89673
805.67275
805.64944
805.37568
805.99156
805.61967
805.78826
805.61811
805.64048
805.83318
805.64456
805.64944
805.51384
1006.9047
1007.4505
1006.7251
1007.9776
1006.9728
1007.1328
1007.3264
1007.3673
1007.4094
1006.8853
1007.4505
1006.9385
1007.7952
1007.6009
1007.0469
1007.3378
1007.5677
1007.4644
1007.6113
1007.6434
1006.7251
1007.7952
1007.3604
1007.6148
1007.1236
1007.3846
1007.6581
1007.4624
1007.2015
1007.1831
1007.9776
1007.6009
1007.6148
1007.9645
1007.4531
1007.6829
1008.0128
1007.9589
1007.6811
1007.3858
1006.9728
1007.0469
1007.1236
1007.4531
1006.8968
1007.0753
1007.3742
1007.3732
1007.2521
1007.1742
1007.1328
1007.3378
1007.3846
1007.6829
1007.0753
1007.209
1007.4628
1007.4118
1007.2571
1007.201
1007.3264
1007.5677
1007.6581
1008.0128
1007.3742
1007.4628
1007.7041
1007.6534
1007.5085
1007.4532
1007.3673
1007.4644
1007.4624
1007.9589
1007.3732
1007.4118
1007.6534
1007.6384
1007.5151
1007.2028
1007.4094
1007.6113
1007.2015
1007.6811
1007.2521
1007.2571
1007.5085
1007.5151
1007.226
1007.221
1006.8853
1007.6434
1007.1831
1007.3858
1007.1742
1007.201
1007.4532
1007.2028
1007.221
1007.0623
1245.5824
1246.2325
1245.3553
1246.8715
1245.6516
1245.8404
1246.077
1246.1289
1246.1842
1245.5392
1246.2325
1245.6061
1246.6328
1246.4034
1245.7219
1246.0693
1246.3547
1246.2262
1246.4125
1246.4639
1245.3553
1246.6328
1246.11
1246.4169
1245.8112
1246.1234
1246.4656
1246.2227
1245.9047
1245.8991
1246.8715
1246.4034
1246.4169
1246.8381
1246.2077
1246.4817
1246.8949
1246.8274
1246.4864
1246.141
1245.6516
1245.7219
1245.8112
1246.2077
1245.5225
1245.7333
1246.1087
1246.1076
1245.9595
1245.8808
1245.8404
1246.0693
1246.1234
1246.4817
1245.7333
1245.8884
1246.2082
1246.1465
1245.9595
1245.9128
1246.077
1246.3547
1246.4656
1246.8949
1246.1087
1246.2082
1246.5124
1246.4518
1246.2793
1246.2362
1246.1289
1246.2262
1246.2227
1246.8274
1246.1076
1246.1465
1246.4518
1246.437
1246.2919
1245.9123
1246.1842
1246.4125
1245.9047
1246.4864
1245.9595
1245.9595
1246.2793
1246.2919
1245.9263
1245.9474
1245.5392
1246.4639
1245.8991
1246.141
1245.8808
1245.9128
1246.2362
1245.9123
1245.9474
1245.7648
1526.3191
1527.0855
1526.034
1527.8533
1526.3852
1526.6062
1526.893
1526.9581
1527.03
1526.2439
1527.0855
1526.3254
1527.5447
1527.2764
1526.446
1526.8575
1527.2085
1527.0505
1527.2847
1527.3623
1526.034
1527.5447
1526.9217
1527.2886
1526.5488
1526.9192
1527.3432
1527.0451
1526.6611
1526.6755
1527.8533
1527.2764
1527.2886
1527.7916
1527.0218
1527.346
1527.8583
1527.7751
1527.3607
1526.9616
1526.3852
1526.446
1526.5488
1527.0218
1526.1855
1526.4326
1526.8995
1526.8988
1526.7198
1526.6448
1526.6062
1526.8575
1526.9192
1527.346
1526.4326
1526.6113
1527.0102
1526.9368
1526.7131
1526.6829
1526.893
1527.2085
1527.3432
1527.8583
1526.8995
1527.0102
1527.3898
1527.3185
1527.115
1527.0918
1526.9581
1527.0505
1527.0451
1527.7751
1526.8988
1526.9368
1527.3185
1527.3046
1527.1352
1526.6798
1527.03
1527.2847
1526.6611
1527.3607
1526.7198
1526.7131
1527.115
1527.1352
1526.6794
1526.7367
1526.2439
1527.3623
1526.6755
1526.9616
1526.6448
1526.6829
1527.0918
1526.6798
1526.7367
1526.5297
1853.7772
1854.6723
1853.4227
1855.5869
1853.8353
1854.0918
1854.4363
1854.5175
1854.6098
1853.6603
1854.6723
1853.7579
1855.1933
1854.8823
1853.8793
1854.3629
1854.7908
1854.5984
1854.8901
1855.002
1853.4227
1855.1933
1854.457
1854.8921
1853.9964
1854.4325
1854.953
1854.5903
1854.131
1854.1741
1855.5869
1854.8823
1854.8921
1855.4875
1854.5558
1854.9364
1855.5658
1855.4642
1854.9652
1854.5093
1853.8353
1853.8793
1853.9964
1854.5558
1853.5442
1853.8314
1854.4067
1854.4068
1854.1927
1854.1272
1854.0918
1854.3629
1854.4325
1854.9364
1853.8314
1854.0356
1854.5285
1854.4421
1854.1772
1854.1725
1854.4363
1854.7908
1854.953
1855.5658
1854.4067
1854.5285
1854.9978
1854.9148
1854.6771
1854.6834
1854.5175
1854.5984
1854.5903
1855.4642
1854.4068
1854.4421
1854.9148
1854.9031
1854.707
1854.166
1854.6098
1854.8901
1854.131
1854.9652
1854.1927
1854.1772
1854.6771
1854.707
1854.145
1854.2511
1853.6603
1855.002
1854.1741
1854.5093
1854.1272
1854.1725
1854.6834
1854.166
1854.2511
1854.0194
2232.1332
2233.1689
2231.6971
2234.2486
2232.1769
2232.4719
2232.8825
2232.9825
2233.0999
2231.9628
2233.1689
2232.0792
2233.7535
2233.3965
2232.1959
2232.7593
2233.2764
2233.0441
2233.404
2233.5595
2231.6971
2233.7535
2232.891
2233.4024
2232.3277
2232.8367
2233.4701
2233.0327
2232.4881
2232.5699
2234.2486
2233.3965
2233.4024
2234.1009
2232.9832
2233.4262
2234.1926
2234.0697
2233.474
2232.9592
2232.1769
2232.1959
2232.3277
2232.9832
2231.7703
2232.1013
2232.8039
2232.805
2232.5512
2232.5024
2232.4719
2232.7593
2232.8367
2233.4262
2232.1013
2232.3321
2232.9359
2232.8351
2232.5243
2232.5561
2232.8825
2233.2764
2233.4701
2234.1926
2232.8039
2232.9359
2233.511
2233.4154
2233.1404
2233.1881
2232.9825
2233.0441
2233.0327
2234.0697
2232.805
2232.8351
2233.4154
2233.4073
2233.1822
2232.5449
2233.0999
2233.404
2232.4881
2233.474
2232.5512
2232.5243
2233.1404
2233.1822
2232.4959
2232.6661
2231.9628
2233.5595
2232.5699
2232.9592
2232.5024
2232.5561
2233.1881
2232.5449
2232.6661
2232.4098
2664.7841
2665.9716
2664.2538
2667.2349
2664.806
2665.1422
2665.6274
2665.7495
2665.8971
2664.5466
2665.9716
2664.6856
2666.6203
2666.2143
2664.7902
2665.4408
2666.0605
2665.7822
2666.222
2666.4314
2664.2538
2666.6203
2665.6191
2666.2149
2664.9369
2665.5259
2666.29
2665.7667
2665.1264
2665.2589
2667.2349
2666.2143
2666.2149
2667.0268
2665.6981
2666.209
2667.1342
2666.9865
2666.2814
2665.7064
2664.806
2664.7902
2664.9369
2665.6981
2664.2566
2664.6344
2665.4851
2665.4873
2665.1887
2665.1654
2665.1422
2665.4408
2665.5259
2666.209
2664.6344
2664.8924
2665.6256
2665.509
2665.1474
2665.2287
2665.6274
2666.0605
2666.29
2667.1342
2665.4851
2665.6256
2666.3243
2666.2152
2665.9
2666.0034
2665.7495
2665.7822
2665.7667
2666.9865
2665.4873
2665.509
2666.2152
2666.2125
2665.9566
2665.2112
2665.8971
2666.222
2665.1264
2666.2814
2665.1887
2665.1474
2665.9
2665.9566
2665.1253
2665.378
2664.5466
2666.4314
2665.2589
2665.7064
2665.1654
2665.2287
2666.0034
2665.2112
2665.378
2665.0979
3154.0081
3155.3574
3153.371
3156.8218
3154
3154.3793
3154.9478
3155.0954
3155.2787
3153.6884
3155.3574
3153.8552
3156.0694
3155.6123
3153.9386
3154.6829
3155.4192
3155.0882
3155.6205
3155.8951
3153.371
3156.0694
3154.918
3155.6056
3154.0998
3154.775
3155.689
3155.0678
3154.3216
3154.5181
3156.8218
3155.6123
3155.6056
3156.5406
3154.9752
3155.559
3156.6664
3156.4898
3155.6622
3155.0275
3154
3153.9386
3154.0998
3154.9752
3153.2776
3153.7044
3154.7254
3154.7287
3154.3801
3154.3923
3154.3793
3154.6829
3154.775
3155.559
3153.7044
3153.9893
3154.8719
3154.7379
3154.3207
3154.4668
3154.9478
3155.4192
3155.689
3156.6664
3154.7254
3154.8719
3155.7136
3155.59
3155.2322
3155.4079
3155.0954
3155.0882
3155.0678
3156.4898
3154.7287
3154.7379
3155.59
3155.5947
3155.3068
3154.4404
3155.2787
3155.6205
3154.3216
3155.6622
3154.3801
3154.3207
3155.2322
3155.3068
3154.3079
3154.6645
3153.6884
3155.8951
3154.5181
3155.0275
3154.3923
3154.4668
3155.4079
3154.4404
3154.6645
3154.3616
3700.5888
3702.1076
3699.8327
3703.7893
3700.5413
3700.965
3701.6253
3701.8019
3702.027
3700.1701
3702.1076
3700.3712
3702.8802
3702.3709
3700.4222
3701.2659
3702.1333
3701.7425
3702.3803
3702.7322
3699.8327
3702.8802
3701.5687
3702.355
3700.5973
3701.364
3702.4478
3701.7163
3700.8542
3701.1297
3703.7893
3702.3709
3702.355
3703.4215
3701.5942
3702.2548
3703.5687
3703.3589
3702.3957
3701.7033
3700.5413
3700.4222
3700.5973
3701.5942
3699.6132
3700.0903
3701.305
3701.3089
3700.9052
3700.9643
3700.965
3701.2659
3701.364
3702.2548
3700.0903
3700.4009
3701.4541
3701.3008
3700.8236
3701.0516
3701.6253
3702.1333
3702.4478
3703.5687
3701.305
3701.4541
3702.4592
3702.3202
3701.918
3702.185
3701.8019
3701.7425
3701.7163
3703.3589
3701.3089
3701.3008
3702.3202
3702.3346
3702.014
3701.0131
3702.027
3702.3803
3700.8542
3702.3957
3700.9052
3700.8236
3701.918
3702.014
3700.823
3701.3078
3700.1701
3702.7322
3701.1297
3701.7033
3700.9643
3701.0516
3702.185
3701.0131
3701.3078
3700.984
4303.4166
4305.1102
4302.5305
4307.0229
4303.3198
4303.7883
4304.5484
4304.7577
4305.0308
4302.8812
4305.1102
4303.1248
4305.9391
4305.3775
4303.1306
4304.0776
4305.0904
4304.6324
4305.389
4305.8304
4302.5305
4305.9391
4304.4599
4305.3503
4303.3182
4304.1804
4305.4542
4304.5999
4303.6125
4303.983
4307.0229
4305.3775
4305.3503
4306.5549
4304.4421
4305.182
4306.7271
4306.4792
4305.3679
4304.622
4303.3198
4303.1306
4303.3182
4304.4421
4302.1521
4302.6795
4304.1119
4304.1154
4303.6513
4303.7702
4303.7883
4304.0776
4304.1804
4305.182
4302.6795
4303.0132
4304.2589
4304.0843
4303.543
4303.8721
4304.5484
4305.0904
4305.4542
4306.7271
4304.1119
4304.2589
4305.4487
4305.2933
4304.8458
4305.2251
4304.7577
4304.6324
4304.5999
4306.4792
4304.1154
4304.0843
4305.2933
4305.3199
4304.9668
4303.8173
4305.0308
4305.389
4303.6125
4305.3679
4303.6513
4303.543
4304.8458
4304.9668
4303.5577
4304.1979
4302.8812
4305.8304
4303.983
4304.622
4303.7702
4303.8721
4305.2251
4303.8173
4304.1979
4303.8554
4959.0918
4960.962
4958.0666
4963.1159
4958.9353
4959.4478
4960.3149
4960.5602
4960.8878
4958.4214
4960.962
4958.7173
4961.8408
4961.2283
4958.6632
4959.7154
4960.8876
4960.3548
4961.2432
4961.7863
4958.0666
4961.8408
4960.1896
4961.1879
4958.8614
4959.8212
4961.305
4960.3154
4959.1947
4959.6769
4963.1159
4961.2283
4961.1879
4962.5346
4960.1154
4960.9355
4962.7362
4962.4449
4961.1739
4960.3805
4958.9353
4958.6632
4958.8614
4960.1154
4957.4937
4958.0699
4959.7437
4959.7453
4959.2158
4959.4081
4959.4478
4959.7154
4959.8212
4960.9355
4958.0699
4958.4229
4959.8829
4959.6849
4959.0761
4959.5265
4960.3149
4960.8876
4961.305
4962.7362
4959.7437
4959.8829
4961.2786
4961.106
4960.6132
4961.1274
4960.5602
4960.3548
4960.3154
4962.4449
4959.7453
4959.6849
4961.106
4961.1476
4960.763
4959.4502
4960.8878
4961.2432
4959.1947
4961.1739
4959.2158
4959.0761
4960.6132
4960.763
4959.1087
4959.9337
4958.4214
4961.7863
4959.6769
4960.3805
4959.4081
4959.5265
4961.1274
4959.4502
4959.9337
4959.5754
5661.5517
5663.5964
5660.3809
5665.9973
5661.3252
5661.8798
5662.8597
5663.1443
5663.5327
5660.7281
5663.5964
5661.0879
5664.5168
5663.8565
5660.9578
5662.1148
5663.459
5662.8441
5663.8761
5664.5327
5660.3809
5664.5168
5662.693
5663.8009
5661.1643
5662.2216
5663.9343
5662.7974
5661.5371
5662.1479
5665.9973
5663.8565
5663.8009
5665.2908
5662.5483
5663.4473
5665.5266
5665.1863
5663.7458
5662.9134
5661.3252
5660.9578
5661.1643
5662.5483
5659.5765
5660.1982
5662.1361
5662.1337
5661.5343
5661.814
5661.8798
5662.1148
5662.2216
5663.4473
5660.1982
5660.5653
5662.2606
5662.037
5661.358
5661.9511
5662.8597
5663.4591
5663.9343
5665.5266
5662.1361
5662.2606
5663.8831
5663.6923
5663.1553
5663.8282
5663.1443
5662.8441
5662.7974
5665.1863
5662.1337
5662.037
5663.6923
5663.7516
5663.3377
5661.8468
5663.5327
5663.8761
5661.5371
5663.7458
5661.5343
5661.358
5663.1553
5663.3377
5661.411
5662.4519
5660.7281
5664.5327
5662.1479
5662.9134
5661.814
5661.9511
5663.8282
5661.8468
5662.4519
5662.081
6401.7562
6403.9687
6400.4369
6406.6168
6401.45
6402.0432
6403.1402
6403.4667
6403.9217
6400.7624
6403.9687
6401.1991
6404.9205
6404.2173
6400.9758
6402.2344
6403.7617
6403.0575
6404.2435
6405.0236
6400.4369
6404.9205
6402.9285
6404.1448
6401.1877
6402.3398
6404.2982
6403.0035
6401.5996
6402.3551
6406.6168
6404.2173
6404.1448
6405.7753
6402.6981
6403.6725
6406.0507
6405.6556
6404.038
6403.1775
6401.45
6400.9758
6401.1877
6402.6981
6399.3639
6400.0259
6402.2482
6402.239
6401.5655
6401.9469
6402.0432
6402.2344
6402.3398
6403.6725
6400.0259
6400.4002
6402.3503
6402.0985
6401.3479
6402.1047
6403.1402
6403.7617
6404.2982
6406.0507
6402.2482
6402.3503
6404.2186
6404.0086
6403.4299
6404.2856
6403.4667
6403.0575
6403.0035
6405.6556
6402.239
6402.0985
6404.0086
6404.0883
6403.6487
6401.965
6403.9217
6404.2435
6401.5996
6404.038
6401.5655
6401.3479
6403.4299
6403.6487
6401.4227
6402.7113
6400.7624
6405.0236
6402.3551
6403.1775
6401.9469
6402.1047
6404.2856
6401.965
6402.7113
6402.3313
7167.4637
7169.8323
7165.9975
7172.7214
7167.0695
7167.6963
7168.9122
7169.2828
7169.8094
7166.2846
7169.8323
7166.8126
7170.8038
7170.0641
7166.4787
7167.8326
7169.551
7168.7513
7170.0992
7171.0109
7165.9975
7170.8038
7168.653
7169.9737
7166.6926
7167.9338
7170.1516
7168.6904
7167.1415
7168.0565
7172.7214
7170.0641
7169.9737
7171.7378
7168.3217
7169.3651
7172.0589
7171.6032
7169.8039
7168.9283
7167.0695
7166.4787
7166.6926
7168.3217
7164.6202
7165.3154
7167.839
7167.8192
7167.0686
7167.565
7167.6963
7167.8326
7167.9338
7169.3651
7165.3154
7165.6886
7167.9099
7167.6271
7166.8046
7167.7456
7168.9122
7169.551
7170.1516
7172.0589
7167.839
7167.9099
7170.0404
7169.8103
7169.1938
7170.2557
7169.2828
7168.7513
7168.6904
7171.6032
7167.8192
7167.6271
7169.8103
7169.9128
7169.4522
7167.5617
7169.8094
7170.0992
7167.1415
7169.8039
7167.0686
7166.8046
7169.1938
7169.4522
7166.9017
7168.4697
7166.2846
7171.0109
7168.0565
7168.9283
7167.565
7167.7456
7170.2557
7167.5617
7168.4697
7168.0841
7943.1339
7945.6415
7941.5276
7948.7579
7942.6451
7943.2992
7944.6332
7945.0491
7945.6511
7941.7576
7945.6415
7942.3925
7946.6195
7945.8519
7941.9307
7943.3699
7945.2843
7944.3839
7945.8983
7946.9468
7941.5276
7946.6195
7944.3255
7945.743
7942.1428
7943.4641
7945.9509
7944.3168
7942.6251
7943.7118
7948.7579
7945.8519
7945.743
7947.6289
7943.8784
7944.9816
7948.0024
7947.4803
7945.4985
7944.6227
7942.6451
7941.9307
7942.1428
7943.8784
7939.8139
7940.5327
7943.3699
7943.3349
7942.505
7943.1284
7943.2992
7943.3699
7943.4641
7944.9816
7940.5327
7940.8952
7943.4
7943.0835
7942.1903
7943.3339
7944.6332
7945.2843
7945.9509
7948.0024
7943.3699
7943.4
7945.8056
7945.5543
7944.9052
7946.1949
7945.0491
7944.3839
7944.3168
7947.4803
7943.3349
7943.0835
7945.5543
7945.6817
7945.206
7943.0959
7945.6511
7945.8983
7942.6251
7945.4985
7942.505
7942.1903
7944.9052
7945.206
7942.3089
7944.186
7941.7576
7946.9468
7943.7118
7944.6227
7943.1284
7943.3339
7946.1949
7943.0959
7944.186
7943.7981
8709.9905
8712.6146
8708.2567
8715.9363
8709.4031
8710.0766
8711.5248
8711.9861
8712.6657
8708.4092
8712.6146
8709.1669
8713.5851
8712.7996
8708.5613
8710.0723
8712.1833
8711.1784
8712.86
8714.0467
8708.2567
8713.5851
8711.1696
8712.6724
8708.7677
8710.1566
8712.9165
8711.1064
8709.278
8710.5449
8715.9363
8712.7996
8712.6724
8714.6635
8710.5926
8711.7434
8715.0959
8714.502
8712.3414
8711.4821
8709.4031
8708.5613
8708.7677
8710.5926
8706.1803
8706.9112
8710.0677
8710.0121
8709.1022
8709.8623
8710.0766
8710.0723
8710.1566
8711.7434
8706.9112
8707.2518
8710.0472
8709.6939
8708.7329
8710.0943
8711.5248
8712.1833
8712.9165
8715.0959
8710.0677
8710.0472
8712.7353
8712.4618
8711.787
8713.323
8711.9861
8711.1784
8711.1064
8714.502
8710.0121
8709.6939
8712.4618
8712.6157
8712.1322
8709.7914
8712.6657
8712.86
8709.278
8712.3414
8709.1022
8708.7329
8711.787
8712.1322
8708.8704
8711.0832
8708.4092
8714.0467
8710.5449
8711.4821
8709.8623
8710.0943
8713.323
8709.7914
8711.0832
8710.6959
9446.2729
9448.9852
9444.4307
9452.4818
9445.586
9446.2695
9447.8245
9448.3299
9449.0873
9444.4839
9448.9852
9445.3805
9449.9338
9449.1422
9444.6173
9446.1827
9448.486
9447.3747
9449.2191
9450.5411
9444.4307
9449.9338
9447.425
9448.9979
9444.8137
9446.2544
9449.2848
9447.2996
9445.3447
9446.7958
9452.4818
9449.1422
9448.9979
9451.0721
9446.7062
9447.8891
9451.57
9450.8998
9448.569
9447.7439
9445.586
9444.6173
9444.8137
9446.7062
9441.9728
9442.7021
9446.1763
9446.0938
9445.1048
9446.0079
9446.2695
9446.1827
9446.2544
9447.8891
9442.7021
9443.0089
9446.0951
9445.7022
9444.678
9446.268
9447.8245
9448.486
9449.2848
9451.57
9446.1763
9446.0951
9449.0671
9448.7702
9448.078
9449.8744
9448.3299
9447.3747
9447.2996
9450.8998
9446.0938
9445.7022
9448.7702
9448.9513
9448.4686
9445.8888
9449.0873
9449.2191
9445.3447
9448.569
9445.1048
9444.678
9448.078
9448.4686
9444.8299
9447.3998
9444.4839
9450.5411
9446.7958
9447.7439
9446.0079
9446.268
9449.8744
9445.8888
9447.3998
9447.0156
10127.697
10130.464
10125.772
10134.097
10126.914
10127.596
10129.247
10129.794
10130.627
10125.704
10130.464
10126.755
10131.377
10130.592
10125.823
10127.422
10129.907
10128.69
10130.688
10132.137
10125.772
10131.377
10128.809
10130.432
10126.006
10127.478
10130.769
10128.614
10126.548
10128.182
10134.097
10130.592
10130.432
10132.563
10127.939
10129.136
10133.132
10132.382
10129.895
10129.123
10126.914
10125.823
10126.006
10127.939
10122.924
10123.636
10127.418
10127.301
10126.236
10127.284
10127.596
10127.422
10127.478
10129.136
10123.636
10123.897
10127.266
10126.83
10125.75
10127.573
10129.247
10129.907
10130.769
10133.132
10127.418
10127.266
10130.515
10130.194
10129.494
10131.559
10129.794
10128.69
10128.614
10132.382
10127.301
10126.83
10130.194
10130.402
10129.93
10127.106
10130.627
10130.688
10126.548
10129.895
10126.236
10125.75
10129.494
10129.93
10125.909
10128.851
10125.704
10132.137
10128.182
10129.123
10127.284
10127.573
10131.559
10127.106
10128.851
10128.472
10728.134
10730.919
10726.159
10734.639
10727.262
10727.932
10729.663
10730.247
10731.15
10725.948
10730.919
10727.166
10731.781
10731.018
10726.06
10727.669
10730.319
10728.999
10731.134
10732.696
10726.159
10731.781
10729.195
10730.846
10726.225
10727.707
10731.24
10728.926
10726.767
10728.575
10734.639
10731.018
10730.846
10733.001
10728.168
10729.358
10733.646
10732.814
10730.192
10729.49
10727.262
10726.06
10726.225
10728.168
10722.924
10723.603
10727.67
10727.512
10726.375
10727.567
10727.932
10727.669
10727.707
10729.358
10723.603
10723.803
10727.439
10726.959
10725.829
10727.885
10729.663
10730.319
10731.24
10733.646
10727.67
10727.439
10730.951
10730.604
10729.907
10732.241
10730.247
10728.999
10728.926
10732.814
10727.512
10726.959
10730.604
10730.838
10730.387
10727.318
10731.15
10731.134
10726.767
10730.192
10726.375
10725.829
10729.907
10730.387
10725.988
10729.307
10725.948
10732.696
10728.575
10729.49
10727.567
10727.885
10732.241
10727.318
10729.307
10728.934
11220.504
11223.264
11218.516
11227.017
11219.554
11220.2
11221.991
11222.606
11223.572
11218.143
11223.264
11219.54
11224.065
11223.337
11218.257
11219.848
11222.64
11221.225
11223.474
11225.13
11218.516
11224.065
11221.504
11223.157
11218.401
11219.867
11223.614
11221.157
11218.929
11220.897
11227.017
11223.337
11223.157
11225.3
11220.319
11221.479
11226.025
11225.11
11222.378
11221.764
11219.554
11218.257
11218.401
11220.319
11214.912
11215.539
11219.861
11219.654
11218.453
11219.78
11220.2
11219.848
11219.867
11221.479
11215.539
11215.667
11219.542
11219.015
11217.848
11220.126
11221.991
11222.64
11223.614
11226.025
11219.861
11219.542
11223.292
11222.919
11222.236
11224.832
11222.606
11221.225
11221.157
11225.11
11219.654
11219.015
11222.919
11223.177
11222.757
11219.449
11223.572
11223.474
11218.929
11222.378
11218.453
11217.848
11222.236
11222.757
11217.995
11221.687
11218.143
11225.13
11220.897
11221.764
11219.78
11220.126
11224.832
11219.449
11221.687
11221.319
11577.853
11580.545
11575.896
11584.268
11576.842
11577.451
11579.279
11579.916
11580.934
11575.344
11580.545
11576.926
11581.273
11580.595
11575.472
11577.016
11579.92
11578.418
11580.753
11582.478
11575.896
11581.273
11578.788
11580.412
11575.592
11577.014
11580.937
11578.359
11576.092
11578.195
11584.268
11580.595
11580.412
11582.504
11577.448
11578.553
11583.309
11582.314
11579.504
11578.993
11576.842
11575.472
11575.592
11577.448
11571.955
11572.512
11577.044
11576.782
11575.525
11576.974
11577.451
11577.016
11577.014
11578.553
11572.512
11572.555
11576.633
11576.057
11574.864
11577.346
11579.279
11579.92
11580.937
11583.309
11577.044
11576.633
11580.585
11580.185
11579.529
11582.371
11579.916
11578.418
11578.359
11582.314
11576.782
11576.057
11580.185
11580.464
11580.086
11576.549
11580.934
11580.753
11576.092
11579.504
11575.525
11574.864
11579.529
11580.086
11574.987
11579.035
11575.344
11582.478
11578.195
11578.993
11576.974
11577.346
11582.371
11576.549
11579.035
11578.671
11774.587
11777.164
11772.708
11780.79
11773.536
11774.093
11775.931
11776.582
11777.637
11771.962
11777.164
11773.734
11777.812
11777.198
11772.119
11773.585
11776.563
11774.989
11777.374
11779.136
11772.708
11777.812
11775.453
11777.018
11772.213
11773.561
11777.612
11774.942
11772.668
11774.877
11780.79
11777.198
11777.018
11779.017
11773.967
11774.991
11779.9
11778.828
11775.978
11775.584
11773.536
11772.119
11772.213
11773.967
11768.476
11768.945
11773.634
11773.309
11772.009
11773.559
11774.093
11773.585
11773.561
11774.991
11768.945
11768.892
11773.125
11772.5
11771.296
11773.954
11775.931
11776.563
11777.612
11779.9
11773.634
11773.125
11777.235
11776.808
11776.19
11779.25
11776.582
11774.989
11774.942
11778.828
11773.309
11772.5
11776.808
11777.102
11776.778
11773.031
11777.637
11777.374
11772.668
11775.978
11772.009
11771.296
11776.19
11776.778
11771.38
11775.755
11771.962
11779.136
11774.877
11775.584
11773.559
11773.954
11779.25
11773.031
11775.755
11775.394
11787.787
11790.204
11786.037
11793.662
11786.72
11787.214
11789.032
11789.685
11790.759
11785.088
11790.204
11787.047
11790.766
11790.23
11785.29
11786.645
11789.655
11788.024
11790.419
11792.182
11786.037
11790.766
11788.586
11790.059
11785.355
11786.6
11790.723
11787.994
11785.748
11788.024
11793.662
11790.23
11790.059
11791.922
11786.968
11787.885
11792.877
11791.735
11788.889
11788.62
11786.72
11785.29
11785.355
11786.968