/*--------------------------------*- C++ -*----------------------------------*\
| =========                 |                                                 |
| \\      /  F ield         | OpenFOAM: The Open Source CFD Toolbox           |
|  \\    /   O peration     | Version:  v2106                                 |
|   \\  /    A nd           | Website:  www.openfoam.com                      |
|    \\/     M anipulation  |                                                 |
\*---------------------------------------------------------------------------*/
FoamFile
{
    version     2.0;
    format      ascii;
    arch        "LSB;label=32;scalar=64";
    class       volScalarField;
    location    "2.5";
    object      T;
}
// * * * * * * * * * * * * * * * * * * * * * * * * * * * * * * * * * * * * * //

dimensions      [0 0 0 1 0 0 0];

internalField   nonuniform List<scalar> 
4000
(
273.04437
273.04437
273.04437
273.04437
273.04437
273.04437
273.04437
273.04437
273.04437
273.04437
273.04437
273.04437
273.04437
273.04437
273.04437
273.04437
273.04437
273.04437
273.04437
273.04437
273.04437
273.04437
273.04437
273.04436
273.04437
273.04436
273.04436
273.04436
273.04436
273.04436
273.04437
273.04437
273.04436
273.04436
273.04436
273.04436
273.04436
273.04436
273.04436
273.04436
273.04437
273.04437
273.04437
273.04436
273.04437
273.04436
273.04436
273.04436
273.04436
273.04436
273.04437
273.04437
273.04436
273.04436
273.04436
273.04436
273.04436
273.04436
273.04436
273.04436
273.04437
273.04437
273.04436
273.04436
273.04436
273.04436
273.04436
273.04436
273.04436
273.04436
273.04437
273.04437
273.04436
273.04436
273.04436
273.04436
273.04436
273.04436
273.04436
273.04436
273.04437
273.04437
273.04436
273.04436
273.04436
273.04436
273.04436
273.04436
273.04437
273.04437
273.04437
273.04437
273.04436
273.04436
273.04436
273.04436
273.04436
273.04436
273.04437
273.04437
273.13663
273.13663
273.13663
273.13662
273.13662
273.13662
273.13662
273.13662
273.13662
273.13662
273.13663
273.13663
273.13662
273.13662
273.13662
273.13662
273.13662
273.13661
273.13661
273.13662
273.13663
273.13662
273.13662
273.13662
273.13662
273.13662
273.13661
273.13661
273.13661
273.13661
273.13662
273.13662
273.13662
273.13661
273.13661
273.13661
273.13661
273.13661
273.13661
273.13661
273.13662
273.13662
273.13662
273.13661
273.13662
273.13661
273.13661
273.13661
273.13661
273.13661
273.13662
273.13662
273.13662
273.13661
273.13661
273.13661
273.13661
273.13661
273.13661
273.13661
273.13662
273.13662
273.13661
273.13661
273.13661
273.13661
273.13661
273.13661
273.13661
273.13661
273.13662
273.13661
273.13661
273.13661
273.13661
273.13661
273.13661
273.13661
273.13661
273.13662
273.13662
273.13661
273.13661
273.13661
273.13661
273.13661
273.13661
273.13661
273.13662
273.13662
273.13662
273.13662
273.13661
273.13661
273.13661
273.13661
273.13661
273.13662
273.13662
273.13662
273.23965
273.23964
273.23964
273.23962
273.23963
273.23963
273.23962
273.23962
273.23962
273.23962
273.23964
273.23964
273.23963
273.23962
273.23963
273.23962
273.23962
273.23962
273.23962
273.23962
273.23964
273.23963
273.23962
273.23962
273.23962
273.23962
273.23961
273.23961
273.23961
273.23962
273.23962
273.23962
273.23962
273.23961
273.23961
273.23961
273.23961
273.23961
273.23961
273.23961
273.23963
273.23963
273.23962
273.23961
273.23962
273.23961
273.23961
273.23961
273.23961
273.23962
273.23963
273.23962
273.23962
273.23961
273.23961
273.23961
273.23961
273.23961
273.23961
273.23962
273.23962
273.23962
273.23961
273.23961
273.23961
273.23961
273.23961
273.23961
273.23961
273.23962
273.23962
273.23962
273.23961
273.23961
273.23961
273.23961
273.23961
273.23961
273.23962
273.23962
273.23962
273.23962
273.23961
273.23961
273.23961
273.23961
273.23961
273.23962
273.23962
273.23963
273.23962
273.23962
273.23962
273.23961
273.23962
273.23962
273.23962
273.23962
273.23963
273.23963
273.36121
273.3612
273.3612
273.36118
273.36119
273.36119
273.36118
273.36118
273.36118
273.36119
273.3612
273.3612
273.36119
273.36118
273.36119
273.36118
273.36117
273.36117
273.36117
273.36118
273.3612
273.36119
273.36118
273.36118
273.36118
273.36117
273.36117
273.36117
273.36117
273.36118
273.36118
273.36118
273.36118
273.36117
273.36117
273.36117
273.36116
273.36116
273.36117
273.36117
273.36119
273.36119
273.36118
273.36117
273.36117
273.36117
273.36116
273.36116
273.36117
273.36117
273.36119
273.36118
273.36117
273.36117
273.36117
273.36117
273.36116
273.36117
273.36117
273.36118
273.36118
273.36117
273.36117
273.36116
273.36116
273.36116
273.36116
273.36116
273.36117
273.36118
273.36118
273.36117
273.36117
273.36116
273.36116
273.36117
273.36116
273.36117
273.36117
273.36118
273.36118
273.36117
273.36117
273.36117
273.36117
273.36117
273.36117
273.36117
273.36118
273.36119
273.36119
273.36118
273.36118
273.36117
273.36117
273.36118
273.36118
273.36118
273.36119
273.36119
273.51011
273.51009
273.51009
273.51007
273.51008
273.51007
273.51007
273.51006
273.51006
273.51007
273.51009
273.51009
273.51007
273.51007
273.51007
273.51006
273.51006
273.51005
273.51006
273.51006
273.51009
273.51007
273.51007
273.51006
273.51006
273.51005
273.51005
273.51005
273.51005
273.51006
273.51007
273.51007
273.51006
273.51005
273.51005
273.51005
273.51004
273.51004
273.51005
273.51006
273.51008
273.51007
273.51006
273.51005
273.51006
273.51005
273.51005
273.51005
273.51005
273.51006
273.51007
273.51006
273.51005
273.51005
273.51005
273.51005
273.51005
273.51005
273.51006
273.51006
273.51007
273.51006
273.51005
273.51004
273.51005
273.51005
273.51004
273.51005
273.51006
273.51006
273.51006
273.51005
273.51005
273.51004
273.51005
273.51005
273.51005
273.51005
273.51006
273.51007
273.51006
273.51006
273.51005
273.51005
273.51005
273.51006
273.51006
273.51006
273.51007
273.51008
273.51007
273.51006
273.51006
273.51006
273.51006
273.51006
273.51006
273.51007
273.51008
273.51009
273.69647
273.69646
273.69645
273.69643
273.69644
273.69643
273.69642
273.69642
273.69642
273.69644
273.69646
273.69645
273.69643
273.69643
273.69643
273.69642
273.69641
273.69641
273.69641
273.69642
273.69645
273.69643
273.69643
273.69642
273.69642
273.69641
273.6964
273.6964
273.69641
273.69642
273.69643
273.69643
273.69642
273.69641
273.69641
273.6964
273.69639
273.69639
273.69641
273.69642
273.69644
273.69643
273.69642
273.69641
273.69642
273.69641
273.6964
273.6964
273.69641
273.69642
273.69643
273.69642
273.69641
273.6964
273.69641
273.69641
273.6964
273.69641
273.69642
273.69643
273.69642
273.69641
273.6964
273.69639
273.6964
273.6964
273.6964
273.69641
273.69642
273.69643
273.69642
273.69641
273.6964
273.69639
273.6964
273.69641
273.69641
273.69641
273.69642
273.69644
273.69642
273.69641
273.69641
273.69641
273.69641
273.69642
273.69642
273.69642
273.69644
273.69645
273.69644
273.69642
273.69642
273.69642
273.69642
273.69643
273.69643
273.69644
273.69645
273.69646
273.93227
273.93225
273.93224
273.93222
273.93223
273.93222
273.93221
273.93221
273.93221
273.93223
273.93225
273.93224
273.93222
273.93221
273.93222
273.93221
273.9322
273.9322
273.9322
273.93221
273.93224
273.93222
273.93221
273.9322
273.93221
273.9322
273.93219
273.93219
273.9322
273.93221
273.93222
273.93221
273.9322
273.93219
273.9322
273.93219
273.93217
273.93218
273.93219
273.9322
273.93223
273.93222
273.93221
273.9322
273.93221
273.9322
273.93219
273.93219
273.9322
273.93221
273.93222
273.93221
273.9322
273.93219
273.9322
273.9322
273.93219
273.93219
273.93221
273.93222
273.93221
273.9322
273.93219
273.93217
273.93219
273.93219
273.93219
273.93219
273.93221
273.93222
273.93221
273.9322
273.93219
273.93218
273.93219
273.93219
273.93219
273.9322
273.93222
273.93223
273.93221
273.9322
273.9322
273.93219
273.9322
273.93221
273.93221
273.93222
273.93223
273.93224
273.93223
273.93221
273.93221
273.9322
273.93221
273.93222
273.93222
273.93223
273.93224
273.93226
274.2317
274.23168
274.23167
274.23164
274.23166
274.23165
274.23164
274.23163
274.23164
274.23165
274.23168
274.23167
274.23164
274.23163
274.23165
274.23164
274.23162
274.23162
274.23162
274.23163
274.23167
274.23164
274.23163
274.23162
274.23163
274.23162
274.23161
274.23161
274.23163
274.23164
274.23164
274.23163
274.23162
274.23161
274.23162
274.23161
274.23159
274.2316
274.23162
274.23163
274.23166
274.23165
274.23163
274.23162
274.23163
274.23163
274.23161
274.23162
274.23163
274.23164
274.23165
274.23164
274.23162
274.23161
274.23163
274.23163
274.23162
274.23162
274.23164
274.23165
274.23164
274.23162
274.23161
274.23159
274.23161
274.23162
274.23161
274.23162
274.23164
274.23165
274.23163
274.23162
274.23161
274.2316
274.23162
274.23162
274.23162
274.23163
274.23165
274.23166
274.23164
274.23162
274.23163
274.23162
274.23163
274.23164
274.23164
274.23165
274.23167
274.23168
274.23165
274.23163
274.23164
274.23163
274.23164
274.23165
274.23165
274.23166
274.23168
274.2317
274.61171
274.61169
274.61168
274.61164
274.61166
274.61166
274.61164
274.61164
274.61164
274.61166
274.61169
274.61168
274.61165
274.61164
274.61165
274.61164
274.61162
274.61162
274.61163
274.61163
274.61168
274.61165
274.61164
274.61163
274.61164
274.61163
274.61161
274.61161
274.61163
274.61164
274.61164
274.61164
274.61163
274.61161
274.61163
274.61161
274.61159
274.6116
274.61162
274.61164
274.61166
274.61165
274.61164
274.61163
274.61164
274.61164
274.61162
274.61162
274.61164
274.61165
274.61166
274.61164
274.61163
274.61161
274.61164
274.61164
274.61163
274.61163
274.61165
274.61166
274.61164
274.61162
274.61161
274.61159
274.61162
274.61163
274.61162
274.61163
274.61165
274.61166
274.61164
274.61162
274.61161
274.6116
274.61162
274.61163
274.61163
274.61164
274.61166
274.61168
274.61164
274.61163
274.61163
274.61162
274.61164
274.61165
274.61165
274.61166
274.61168
274.6117
274.61166
274.61163
274.61164
274.61164
274.61165
274.61166
274.61166
274.61168
274.6117
274.61172
275.09246
275.09243
275.09243
275.09238
275.09241
275.0924
275.09238
275.09238
275.09238
275.09241
275.09243
275.09242
275.09239
275.09238
275.0924
275.09239
275.09236
275.09236
275.09237
275.09238
275.09243
275.09239
275.09238
275.09236
275.09238
275.09237
275.09235
275.09235
275.09237
275.09239
275.09238
275.09238
275.09236
275.09235
275.09237
275.09236
275.09233
275.09234
275.09236
275.09239
275.09241
275.0924
275.09238
275.09237
275.0924
275.09239
275.09237
275.09237
275.09239
275.09241
275.0924
275.09239
275.09237
275.09236
275.09239
275.09239
275.09237
275.09238
275.0924
275.09241
275.09238
275.09236
275.09235
275.09233
275.09237
275.09237
275.09237
275.09238
275.0924
275.09241
275.09238
275.09236
275.09235
275.09234
275.09237
275.09238
275.09238
275.09239
275.09241
275.09244
275.09238
275.09237
275.09237
275.09236
275.09239
275.0924
275.0924
275.09241
275.09244
275.09246
275.09241
275.09238
275.09239
275.09239
275.09241
275.09241
275.09241
275.09244
275.09246
275.09248
275.69782
275.69779
275.69778
275.69773
275.69777
275.69776
275.69774
275.69773
275.69774
275.69777
275.69779
275.69778
275.69774
275.69773
275.69776
275.69774
275.69772
275.69772
275.69772
275.69773
275.69778
275.69774
275.69773
275.69772
275.69774
275.69773
275.6977
275.69771
275.69773
275.69775
275.69773
275.69773
275.69772
275.6977
275.69773
275.69772
275.69769
275.69769
275.69772
275.69775
275.69777
275.69776
275.69774
275.69773
275.69776
275.69776
275.69773
275.69773
275.69776
275.69777
275.69776
275.69774
275.69773
275.69772
275.69776
275.69776
275.69774
275.69775
275.69777
275.69778
275.69774
275.69772
275.6977
275.69769
275.69773
275.69774
275.69773
275.69774
275.69776
275.69778
275.69773
275.69772
275.69771
275.69769
275.69773
275.69775
275.69774
275.69775
275.69778
275.69781
275.69774
275.69772
275.69773
275.69772
275.69776
275.69777
275.69776
275.69778
275.69781
275.69783
275.69777
275.69773
275.69775
275.69775
275.69777
275.69778
275.69778
275.69781
275.69783
275.69786
276.45587
276.45584
276.45584
276.45577
276.45582
276.45582
276.45579
276.45578
276.45579
276.45583
276.45584
276.45583
276.45579
276.45578
276.45582
276.4558
276.45577
276.45577
276.45577
276.45578
276.45584
276.45579
276.45578
276.45577
276.4558
276.45578
276.45575
276.45576
276.45579
276.4558
276.45577
276.45578
276.45577
276.45575
276.45579
276.45577
276.45574
276.45574
276.45578
276.4558
276.45582
276.45582
276.4558
276.45579
276.45583
276.45582
276.45579
276.45579
276.45582
276.45584
276.45582
276.4558
276.45578
276.45577
276.45582
276.45583
276.4558
276.45581
276.45583
276.45585
276.45579
276.45577
276.45575
276.45574
276.45579
276.4558
276.45579
276.4558
276.45583
276.45585
276.45578
276.45577
276.45576
276.45574
276.45579
276.45581
276.4558
276.45581
276.45585
276.45588
276.45579
276.45577
276.45579
276.45578
276.45582
276.45583
276.45583
276.45585
276.45588
276.45591
276.45583
276.45578
276.4558
276.4558
276.45584
276.45585
276.45585
276.45588
276.45591
276.45593
277.39938
277.39934
277.39933
277.39927
277.39933
277.39932
277.39929
277.39928
277.39929
277.39933
277.39934
277.39933
277.39928
277.39927
277.39932
277.3993
277.39927
277.39927
277.39927
277.39928
277.39933
277.39928
277.39927
277.39926
277.39931
277.39929
277.39925
277.39926
277.39929
277.39931
277.39927
277.39927
277.39926
277.39925
277.39929
277.39928
277.39924
277.39924
277.39928
277.39931
277.39933
277.39932
277.39931
277.39929
277.39935
277.39934
277.3993
277.3993
277.39933
277.39935
277.39932
277.3993
277.39929
277.39928
277.39934
277.39935
277.39932
277.39933
277.39935
277.39937
277.39929
277.39927
277.39925
277.39924
277.3993
277.39932
277.3993
277.39931
277.39934
277.39936
277.39928
277.39927
277.39926
277.39924
277.3993
277.39933
277.39931
277.39932
277.39936
277.3994
277.39929
277.39927
277.39929
277.39928
277.39933
277.39935
277.39934
277.39936
277.39941
277.39943
277.39933
277.39928
277.39931
277.39931
277.39935
277.39937
277.39936
277.3994
277.39943
277.39945
278.56617
278.56612
278.56612
278.56605
278.56612
278.56612
278.56608
278.56607
278.56608
278.56613
278.56612
278.56612
278.56606
278.56606
278.56612
278.5661
278.56606
278.56606
278.56606
278.56607
278.56612
278.56606
278.56606
278.56605
278.56611
278.56608
278.56604
278.56605
278.56609
278.5661
278.56605
278.56606
278.56605
278.56604
278.5661
278.56608
278.56603
278.56603
278.56608
278.56611
278.56612
278.56612
278.56611
278.5661
278.56616
278.56616
278.56611
278.56611
278.56614
278.56616
278.56612
278.5661
278.56608
278.56608
278.56616
278.56616
278.56613
278.56614
278.56617
278.56618
278.56608
278.56606
278.56604
278.56603
278.56611
278.56613
278.56611
278.56612
278.56615
278.56617
278.56607
278.56606
278.56605
278.56603
278.56611
278.56614
278.56612
278.56613
278.56617
278.56621
278.56608
278.56606
278.56609
278.56608
278.56614
278.56617
278.56615
278.56617
278.56622
278.56624
278.56613
278.56607
278.5661
278.56611
278.56616
278.56618
278.56617
278.56621
278.56624
278.56627
279.99952
279.99947
279.99948
279.99939
279.99948
279.99948
279.99944
279.99942
279.99943
279.99949
279.99947
279.99947
279.99941
279.99941
279.99948
279.99946
279.99942
279.99941
279.99941
279.99942
279.99948
279.99941
279.99941
279.9994
279.99947
279.99945
279.9994
279.99941
279.99945
279.99946
279.99939
279.99941
279.9994
279.99939
279.99946
279.99945
279.99939
279.99939
279.99944
279.99948
279.99948
279.99948
279.99947
279.99946
279.99955
279.99954
279.99949
279.99949
279.99952
279.99954
279.99948
279.99946
279.99945
279.99945
279.99954
279.99955
279.99951
279.99952
279.99955
279.99956
279.99944
279.99942
279.9994
279.99939
279.99949
279.99951
279.99948
279.99949
279.99953
279.99954
279.99942
279.99941
279.99941
279.99939
279.99949
279.99952
279.99949
279.9995
279.99955
279.99959
279.99943
279.99941
279.99945
279.99944
279.99952
279.99955
279.99953
279.99955
279.9996
279.99963
279.99949
279.99942
279.99946
279.99948
279.99954
279.99956
279.99954
279.99959
279.99963
279.99966
281.74836
281.74831
281.74832
281.74823
281.74834
281.74834
281.74829
281.74827
281.74827
281.74834
281.74831
281.74831
281.74825
281.74825
281.74834
281.74832
281.74827
281.74826
281.74826
281.74827
281.74832
281.74825
281.74825
281.74825
281.74833
281.74831
281.74825
281.74826
281.74831
281.74832
281.74823
281.74825
281.74825
281.74825
281.74833
281.74831
281.74825
281.74825
281.7483
281.74834
281.74834
281.74834
281.74833
281.74833
281.74843
281.74843
281.74837
281.74836
281.74839
281.74841
281.74834
281.74832
281.74831
281.74831
281.74843
281.74844
281.7484
281.74839
281.74843
281.74844
281.74829
281.74827
281.74825
281.74825
281.74837
281.7484
281.74836
281.74836
281.7484
281.74841
281.74827
281.74826
281.74826
281.74825
281.74836
281.74839
281.74836
281.74837
281.74842
281.74847
281.74827
281.74826
281.74831
281.7483
281.74839
281.74843
281.7484
281.74842
281.74848
281.7485
281.74834
281.74827
281.74832
281.74834
281.74841
281.74844
281.74841
281.74847
281.7485
281.74853
283.86736
283.86731
283.86733
283.86722
283.86735
283.86735
283.8673
283.86727
283.86728
283.86736
283.86731
283.86731
283.86725
283.86725
283.86736
283.86734
283.86728
283.86727
283.86726
283.86727
283.86733
283.86725
283.86725
283.86726
283.86736
283.86734
283.86727
283.86728
283.86732
283.86734
283.86722
283.86725
283.86726
283.86726
283.86736
283.86734
283.86727
283.86727
283.86733
283.86737
283.86735
283.86736
283.86736
283.86736
283.86748
283.86748
283.86741
283.8674
283.86743
283.86745
283.86735
283.86734
283.86734
283.86734
283.86748
283.8675
283.86744
283.86744
283.86747
283.86748
283.8673
283.86728
283.86727
283.86727
283.86741
283.86744
283.8674
283.8674
283.86743
283.86745
283.86727
283.86727
283.86728
283.86727
283.8674
283.86744
283.8674
283.86741
283.86745
283.8675
283.86728
283.86726
283.86732
283.86733
283.86743
283.86747
283.86743
283.86745
283.86752
283.86754
283.86736
283.86727
283.86734
283.86737
283.86745
283.86748
283.86745
283.8675
283.86754
283.86757
286.41681
286.41675
286.41677
286.41666
286.41681
286.41682
286.41676
286.41673
286.41673
286.41682
286.41675
286.41676
286.41669
286.4167
286.41683
286.41681
286.41674
286.41673
286.41672
286.41673
286.41677
286.41669
286.4167
286.41671
286.41683
286.41681
286.41673
286.41674
286.41679
286.4168
286.41666
286.4167
286.41671
286.41672
286.41684
286.41683
286.41673
286.41673
286.4168
286.41684
286.41681
286.41683
286.41683
286.41684
286.41698
286.41698
286.4169
286.41688
286.41692
286.41694
286.41682
286.41681
286.41681
286.41683
286.41698
286.41701
286.41694
286.41693
286.41696
286.41697
286.41676
286.41674
286.41673
286.41673
286.4169
286.41694
286.41689
286.41688
286.41692
286.41693
286.41673
286.41673
286.41674
286.41673
286.41688
286.41693
286.41688
286.41689
286.41694
286.41699
286.41673
286.41672
286.41679
286.4168
286.41692
286.41696
286.41692
286.41694
286.41701
286.41703
286.41682
286.41673
286.4168
286.41684
286.41694
286.41697
286.41693
286.41699
286.41703
286.41706
289.46227
289.46221
289.46224
289.46212
289.46229
289.4623
289.46224
289.4622
289.4622
289.4623
289.46221
289.46222
289.46215
289.46217
289.46232
289.4623
289.46222
289.46221
289.46219
289.4622
289.46224
289.46215
289.46217
289.46219
289.46233
289.46231
289.46222
289.46223
289.46228
289.46229
289.46212
289.46217
289.46219
289.46221
289.46235
289.46233
289.46223
289.46223
289.46229
289.46234
289.46229
289.46232
289.46233
289.46235
289.46251
289.46251
289.46242
289.4624
289.46243
289.46245
289.4623
289.4623
289.46231
289.46233
289.46251
289.46254
289.46246
289.46245
289.46248
289.46248
289.46224
289.46222
289.46222
289.46223
289.46242
289.46246
289.4624
289.46239
289.46243
289.46243
289.4622
289.46221
289.46223
289.46223
289.4624
289.46245
289.46239
289.46239
289.46244
289.4625
289.4622
289.46219
289.46228
289.46229
289.46243
289.46248
289.46243
289.46244
289.46252
289.46254
289.4623
289.4622
289.46229
289.46234
289.46245
289.46248
289.46243
289.4625
289.46254
289.46257
293.07399
293.07393
293.07397
293.07385
293.07404
293.07406
293.07398
293.07394
293.07394
293.07405
293.07393
293.07395
293.07388
293.0739
293.07407
293.07406
293.07397
293.07396
293.07394
293.07394
293.07397
293.07388
293.07391
293.07394
293.0741
293.07408
293.07397
293.07399
293.07404
293.07405
293.07385
293.0739
293.07394
293.07396
293.07413
293.07411
293.07399
293.07399
293.07406
293.0741
293.07404
293.07407
293.0741
293.07413
293.07431
293.07432
293.07421
293.07418
293.07422
293.07423
293.07406
293.07406
293.07408
293.07411
293.07432
293.07436
293.07426
293.07424
293.07427
293.07426
293.07398
293.07397
293.07397
293.07399
293.07421
293.07426
293.07419
293.07417
293.0742
293.0742
293.07394
293.07396
293.07399
293.07399
293.07418
293.07424
293.07417
293.07417
293.07422
293.07428
293.07394
293.07394
293.07404
293.07406
293.07422
293.07427
293.0742
293.07422
293.0743
293.07431
293.07405
293.07394
293.07405
293.0741
293.07423
293.07426
293.0742
293.07428
293.07431
293.07434
297.326
297.32595
297.32599
297.32586
297.32608
297.3261
297.32602
297.32597
297.32597
297.32609
297.32595
297.32597
297.3259
297.32593
297.32613
297.32612
297.32602
297.326
297.32597
297.32597
297.32599
297.3259
297.32594
297.32598
297.32616
297.32614
297.32602
297.32604
297.32609
297.32609
297.32586
297.32593
297.32598
297.32601
297.3262
297.32618
297.32605
297.32604
297.32612
297.32616
297.32608
297.32613
297.32616
297.3262
297.32641
297.32642
297.32629
297.32626
297.3263
297.3263
297.3261
297.32612
297.32614
297.32618
297.32642
297.32646
297.32636
297.32633
297.32636
297.32634
297.32602
297.32602
297.32602
297.32605
297.32629
297.32636
297.32627
297.32625
297.32627
297.32626
297.32597
297.326
297.32604
297.32604
297.32626
297.32633
297.32625
297.32623
297.32629
297.32634
297.32597
297.32597
297.32609
297.32612
297.3263
297.32636
297.32627
297.32629
297.32637
297.32638
297.32609
297.32597
297.32609
297.32616
297.3263
297.32634
297.32626
297.32634
297.32638
297.3264
302.29487
302.29482
302.29487
302.29474
302.29498
302.29501
302.29492
302.29487
302.29486
302.29499
302.29482
302.29485
302.29478
302.29482
302.29504
302.29503
302.29492
302.2949
302.29487
302.29486
302.29487
302.29478
302.29483
302.29488
302.29508
302.29506
302.29494
302.29495
302.29501
302.295
302.29474
302.29482
302.29488
302.29492
302.29514
302.29512
302.29498
302.29497
302.29505
302.29508
302.29498
302.29504
302.29508
302.29514
302.29537
302.29539
302.29525
302.29521
302.29524
302.29524
302.29501
302.29503
302.29506
302.29512
302.29539
302.29544
302.29532
302.29528
302.2953
302.29527
302.29492
302.29492
302.29494
302.29498
302.29525
302.29532
302.29521
302.29518
302.29521
302.29519
302.29487
302.2949
302.29495
302.29497
302.29521
302.29528
302.29518
302.29516
302.29521
302.29527
302.29486
302.29487
302.29501
302.29505
302.29524
302.2953
302.29521
302.29521
302.29531
302.2953
302.29499
302.29486
302.295
302.29508
302.29524
302.29527
302.29519
302.29527
302.2953
302.29533
308.05817
308.05811
308.05818
308.05805
308.05831
308.05835
308.05825
308.05819
308.05818
308.05832
308.05811
308.05815
308.05809
308.05814
308.05838
308.05837
308.05826
308.05823
308.05819
308.05819
308.05818
308.05809
308.05815
308.05821
308.05843
308.05842
308.05828
308.05829
308.05835
308.05834
308.05805
308.05814
308.05821
308.05826
308.0585
308.05849
308.05833
308.05832
308.0584
308.05843
308.05831
308.05838
308.05843
308.0585
308.05877
308.05879
308.05863
308.05858
308.05862
308.0586
308.05835
308.05837
308.05842
308.05849
308.05879
308.05884
308.05871
308.05866
308.05868
308.05864
308.05825
308.05826
308.05828
308.05833
308.05863
308.05871
308.05859
308.05855
308.05856
308.05853
308.05819
308.05823
308.05829
308.05832
308.05858
308.05866
308.05855
308.05852
308.05857
308.05863
308.05818
308.05819
308.05835
308.0584
308.05862
308.05868
308.05856
308.05857
308.05866
308.05865
308.05832
308.05819
308.05834
308.05843
308.0586
308.05864
308.05853
308.05863
308.05865
308.05867
314.69257
314.69251
314.69259
314.69246
314.69275
314.69279
314.69268
314.69262
314.69261
314.69275
314.69251
314.69256
314.6925
314.69256
314.69282
314.69283
314.6927
314.69267
314.69263
314.69261
314.69259
314.6925
314.69257
314.69264
314.69289
314.69288
314.69273
314.69275
314.6928
314.69279
314.69246
314.69256
314.69264
314.69272
314.69298
314.69297
314.69279
314.69278
314.69286
314.69289
314.69275
314.69282
314.69289
314.69298
314.69327
314.69329
314.69312
314.69307
314.6931
314.69308
314.69279
314.69283
314.69288
314.69297
314.69329
314.69335
314.6932
314.69315
314.69316
314.69311
314.69268
314.6927
314.69273
314.69279
314.69312
314.6932
314.69307
314.69302
314.69303
314.69299
314.69262
314.69267
314.69275
314.69278
314.69307
314.69315
314.69302
314.69298
314.69303
314.69309
314.69261
314.69263
314.6928
314.69286
314.6931
314.69316
314.69303
314.69303
314.69313
314.69311
314.69275
314.69261
314.69279
314.69289
314.69308
314.69311
314.69299
314.69309
314.69311
314.69312
322.27169
322.27165
322.27173
322.27161
322.27191
322.27196
322.27185
322.27178
322.27176
322.27192
322.27165
322.2717
322.27165
322.27172
322.272
322.27201
322.27187
322.27184
322.27179
322.27177
322.27173
322.27165
322.27173
322.27181
322.27208
322.27207
322.27191
322.27193
322.27199
322.27196
322.27161
322.27172
322.27181
322.2719
322.27218
322.27218
322.27199
322.27197
322.27206
322.27208
322.27191
322.272
322.27208
322.27218
322.2725
322.27253
322.27234
322.27228
322.27231
322.27228
322.27196
322.27201
322.27207
322.27218
322.27253
322.27259
322.27243
322.27237
322.27237
322.27231
322.27185
322.27187
322.27191
322.27199
322.27234
322.27243
322.27228
322.27222
322.27222
322.27217
322.27178
322.27184
322.27193
322.27197
322.27228
322.27237
322.27222
322.27217
322.27221
322.27227
322.27176
322.27179
322.27199
322.27206
322.27231
322.27237
322.27222
322.27221
322.27232
322.27229
322.27192
322.27177
322.27196
322.27208
322.27228
322.27231
322.27217
322.27227
322.27229
322.27229
330.86369
330.86365
330.86374
330.86362
330.86394
330.86399
330.86388
330.86381
330.86379
330.86395
330.86365
330.8637
330.86366
330.86374
330.86404
330.86405
330.86391
330.86388
330.86382
330.8638
330.86374
330.86366
330.86375
330.86385
330.86414
330.86413
330.86396
330.86398
330.86403
330.864
330.86362
330.86374
330.86385
330.86395
330.86425
330.86425
330.86405
330.86403
330.86411
330.86414
330.86394
330.86404
330.86414
330.86425
330.86459
330.86462
330.86442
330.86435
330.86438
330.86434
330.86399
330.86405
330.86413
330.86425
330.86462
330.8647
330.86452
330.86445
330.86445
330.86437
330.86388
330.86391
330.86396
330.86405
330.86442
330.86452
330.86435
330.86429
330.86428
330.86421
330.86381
330.86388
330.86398
330.86403
330.86435
330.86445
330.86429
330.86423
330.86426
330.86432
330.86379
330.86382
330.86403
330.86411
330.86438
330.86445
330.86428
330.86426
330.86437
330.86433
330.86395
330.8638
330.864
330.86414
330.86434
330.86437
330.86421
330.86432
330.86433
330.86433
340.52858
340.52854
340.52864
340.52854
340.52887
340.52893
340.52881
340.52873
340.52871
340.52888
340.52854
340.5286
340.52858
340.52867
340.52898
340.52899
340.52885
340.52882
340.52875
340.52873
340.52864
340.52858
340.52867
340.52878
340.52909
340.52909
340.52891
340.52892
340.52898
340.52894
340.52854
340.52867
340.52878
340.5289
340.52922
340.52922
340.52901
340.52899
340.52907
340.52909
340.52887
340.52898
340.52909
340.52922
340.52957
340.52961
340.52939
340.52933
340.52935
340.5293
340.52893
340.52899
340.52909
340.52922
340.52961
340.52969
340.5295
340.52942
340.52941
340.52932
340.52881
340.52885
340.52891
340.52901
340.52939
340.5295
340.52932
340.52924
340.52923
340.52915
340.52873
340.52882
340.52892
340.52899
340.52933
340.52942
340.52924
340.52918
340.52921
340.52927
340.52871
340.52875
340.52898
340.52907
340.52935
340.52941
340.52923
340.52921
340.52932
340.52926
340.52888
340.52873
340.52894
340.52909
340.5293
340.52932
340.52915
340.52927
340.52926
340.52926
351.3156
351.31557
351.31568
351.31558
351.31592
351.31598
351.31586
351.31579
351.31576
351.31593
351.31557
351.31563
351.31562
351.31572
351.31604
351.31606
351.31591
351.31588
351.31581
351.31578
351.31568
351.31562
351.31572
351.31584
351.31616
351.31616
351.31598
351.316
351.31605
351.31601
351.31558
351.31572
351.31584
351.31597
351.3163
351.31631
351.31609
351.31607
351.31615
351.31616
351.31592
351.31604
351.31616
351.3163
351.31667
351.31671
351.31649
351.31642
351.31643
351.31638
351.31598
351.31606
351.31616
351.31631
351.31671
351.3168
351.31659
351.31652
351.3165
351.3164
351.31586
351.31591
351.31598
351.31609
351.31649
351.31659
351.3164
351.31632
351.3163
351.31621
351.31579
351.31588
351.316
351.31607
351.31642
351.31652
351.31632
351.31625
351.31627
351.31633
351.31576
351.31581
351.31605
351.31615
351.31643
351.3165
351.3163
351.31627
351.31638
351.31632
351.31593
351.31578
351.31601
351.31616
351.31638
351.3164
351.31621
351.31633
351.31632
351.31631
363.26048
363.26045
363.26056
363.26048
363.26082
363.26088
363.26077
363.26069
363.26066
363.26083
363.26045
363.26051
363.26051
363.26062
363.26094
363.26097
363.26081
363.26079
363.26072
363.26069
363.26056
363.26051
363.26062
363.26075
363.26107
363.26108
363.26089
363.26091
363.26097
363.26092
363.26048
363.26062
363.26075
363.26089
363.26123
363.26124
363.26102
363.26099
363.26108
363.26108
363.26082
363.26094
363.26107
363.26123
363.2616
363.26165
363.26142
363.26135
363.26136
363.2613
363.26088
363.26097
363.26108
363.26124
363.26165
363.26174
363.26153
363.26145
363.26143
363.26131
363.26077
363.26081
363.26089
363.26102
363.26142
363.26153
363.26133
363.26124
363.26121
363.26111
363.26069
363.26079
363.26091
363.26099
363.26135
363.26145
363.26124
363.26116
363.26118
363.26123
363.26066
363.26072
363.26097
363.26108
363.26136
363.26143
363.26121
363.26118
363.26129
363.26122
363.26083
363.26069
363.26092
363.26108
363.2613
363.26131
363.26111
363.26123
363.26122
363.2612
376.38286
376.38284
376.38295
376.38289
376.38322
376.38329
376.38318
376.3831
376.38307
376.38324
376.38284
376.38291
376.38291
376.38303
376.38335
376.38338
376.38323
376.3832
376.38313
376.3831
376.38295
376.38291
376.38303
376.38317
376.38348
376.3835
376.38331
376.38333
376.38339
376.38333
376.38289
376.38303
376.38317