/*--------------------------------*- C++ -*----------------------------------*\
| =========                 |                                                 |
| \\      /  F ield         | OpenFOAM: The Open Source CFD Toolbox           |
|  \\    /   O peration     | Version:  v2106                                 |
|   \\  /    A nd           | Website:  www.openfoam.com                      |
|    \\/     M anipulation  |                                                 |
\*---------------------------------------------------------------------------*/
FoamFile
{
    version     2.0;
    format      ascii;
    arch        "LSB;label=32;scalar=64";
    class       volScalarField;
    location    "17.5";
    object      calFieldValue;
}
// * * * * * * * * * * * * * * * * * * * * * * * * * * * * * * * * * * * * * //

dimensions      [0 0 0 1 0 0 0];

internalField   nonuniform List<scalar> 
4000
(
271.94156
271.94156
271.94156
271.94156
271.94156
271.94156
271.94156
271.94156
271.94156
271.94156
271.94156
271.94156
271.94156
271.94156
271.94156
271.94156
271.94156
271.94156
271.94156
271.94156
271.94156
271.94156
271.94156
271.94156
271.94156
271.94156
271.94156
271.94156
271.94156
271.94156
271.94156
271.94156
271.94156
271.94156
271.94156
271.94156
271.94156
271.94156
271.94156
271.94156
271.94156
271.94156
271.94156
271.94156
271.94156
271.94156
271.94156
271.94156
271.94156
271.94156
271.94156
271.94156
271.94156
271.94156
271.94156
271.94156
271.94156
271.94156
271.94156
271.94156
271.94156
271.94156
271.94156
271.94156
271.94156
271.94156
271.94156
271.94156
271.94156
271.94156
271.94156
271.94156
271.94156
271.94156
271.94156
271.94156
271.94156
271.94156
271.94156
271.94156
271.94156
271.94156
271.94156
271.94156
271.94156
271.94156
271.94156
271.94156
271.94156
271.94156
271.94156
271.94156
271.94156
271.94156
271.94156
271.94156
271.94156
271.94156
271.94156
271.94156
278.64007
278.64007
278.64007
278.64007
278.64007
278.64004
278.64004
278.64007
278.64007
278.64007
278.64007
278.64007
278.64007
278.64007
278.64007
278.64004
278.64004
278.64004
278.64007
278.64007
278.64007
278.64007
278.64007
278.64007
278.64004
278.64004
278.64004
278.64004
278.64007
278.64007
278.64007
278.64007
278.64007
278.64004
278.64004
278.64004
278.64004
278.64004
278.64007
278.64007
278.64007
278.64007
278.64004
278.64004
278.64004
278.64004
278.64004
278.64004
278.64004
278.64007
278.64004
278.64004
278.64004
278.64004
278.64004
278.64004
278.64004
278.64004
278.64007
278.64007
278.64004
278.64004
278.64004
278.64004
278.64004
278.64004
278.64004
278.64007
278.64007
278.64007
278.64007
278.64004
278.64004
278.64004
278.64004
278.64004
278.64007
278.64007
278.64007
278.6401
278.64007
278.64007
278.64007
278.64007
278.64004
278.64007
278.64007
278.64007
278.6401
278.6401
278.64007
278.64007
278.64007
278.64007
278.64007
278.64007
278.64007
278.6401
278.6401
278.6401
285.34468
285.34467
285.34467
285.34467
285.34464
285.34464
285.34465
285.34465
285.34465
285.34465
285.34467
285.34467
285.34467
285.34467
285.34464
285.34464
285.34465
285.34465
285.34465
285.34468
285.34467
285.34467
285.34467
285.34464
285.34464
285.34462
285.34464
285.34465
285.34465
285.34465
285.34467
285.34467
285.34464
285.34464
285.34461
285.34461
285.34462
285.34464
285.34465
285.34465
285.34464
285.34464
285.34464
285.34461
285.34461
285.34461
285.34461
285.34464
285.34464
285.34465
285.34464
285.34464
285.34462
285.34461
285.34461
285.34461
285.34461
285.34464
285.34464
285.34467
285.34465
285.34465
285.34464
285.34462
285.34461
285.34461
285.34464
285.34464
285.34467
285.34467
285.34465
285.34465
285.34465
285.34464
285.34464
285.34464
285.34464
285.34467
285.3447
285.3447
285.34465
285.34465
285.34465
285.34465
285.34464
285.34464
285.34467
285.3447
285.3447
285.3447
285.34465
285.34468
285.34465
285.34465
285.34465
285.34467
285.34467
285.3447
285.3447
285.34473
292.05942
292.05942
292.0594
292.05939
292.05936
292.05937
292.05937
292.05937
292.0594
292.0594
292.05942
292.05942
292.05939
292.05939
292.05936
292.05937
292.05937
292.05937
292.0594
292.0594
292.0594
292.05939
292.05939
292.05936
292.05934
292.05934
292.05934
292.05937
292.05937
292.0594
292.05939
292.05939
292.05936
292.05936
292.05933
292.05933
292.05934
292.05937
292.05937
292.0594
292.05936
292.05936
292.05934
292.05933
292.05931
292.05931
292.05933
292.05936
292.05937
292.05939
292.05937
292.05937
292.05934
292.05933
292.05931
292.05931
292.05934
292.05936
292.05939
292.05939
292.05937
292.05937
292.05934
292.05934
292.05933
292.05934
292.05936
292.05939
292.05942
292.05942
292.05937
292.05937
292.05937
292.05937
292.05936
292.05936
292.05939
292.05942
292.05945
292.05945
292.0594
292.0594
292.05937
292.05937
292.05937
292.05939
292.05942
292.05945
292.05945
292.05948
292.0594
292.0594
292.0594
292.0594
292.05939
292.05939
292.05942
292.05945
292.05948
292.05948
298.78827
298.78827
298.78825
298.78824
298.78821
298.78822
298.78822
298.78822
298.78825
298.78825
298.78827
298.78825
298.78824
298.78821
298.78819
298.78819
298.78819
298.78822
298.78825
298.78825
298.78825
298.78824
298.78821
298.78821
298.78818
298.78818
298.78819
298.78822
298.78822
298.78825
298.78824
298.78821
298.78821
298.78818
298.78815
298.78815
298.78818
298.78821
298.78822
298.78825
298.78821
298.78819
298.78818
298.78815
298.78815
298.78815
298.78818
298.78821
298.78824
298.78824
298.78822
298.78819
298.78818
298.78815
298.78815
298.78815
298.78818
298.78821
298.78824
298.78827
298.78822
298.78819
298.78819
298.78818
298.78818
298.78818
298.78821
298.78824
298.78827
298.7883
298.78822
298.78822
298.78822
298.78821
298.78821
298.78821
298.78824
298.7883
298.7883
298.78833
298.78825
298.78825
298.78822
298.78822
298.78824
298.78824
298.78827
298.7883
298.78833
298.78836
298.78825
298.78825
298.78825
298.78825
298.78824
298.78827
298.7883
298.78833
298.78836
298.78836
305.53515
305.53515
305.53512
305.53512
305.53509
305.53509
305.5351
305.53513
305.53513
305.53513
305.53515
305.53515
305.53512
305.53509
305.53506
305.53506
305.53509
305.5351
305.53513
305.53516
305.53512
305.53512
305.53509
305.53509
305.53506
305.53506
305.53506
305.5351
305.53513
305.53513
305.53512
305.53509
305.53509
305.53505
305.53503
305.53503
305.53506
305.53509
305.53512
305.53515
305.53509
305.53506
305.53506
305.53503
305.535
305.53503
305.53506
305.53509
305.53512
305.53515
305.53509
305.53506
305.53506
305.53503
305.53503
305.53503
305.53508
305.53511
305.53514
305.53517
305.5351
305.53509
305.53506
305.53506
305.53506
305.53508
305.53511
305.53514
305.5352
305.5352
305.53513
305.5351
305.5351
305.53509
305.53509
305.53511
305.53514
305.5352
305.53523
305.53526
305.53513
305.53513
305.53513
305.53512
305.53512
305.53514
305.5352
305.53523
305.53526
305.53529
305.53513
305.53516
305.53513
305.53515
305.53515
305.53517
305.5352
305.53526
305.53529
305.53529
312.30392
312.30391
312.30389
312.30388
312.30385
312.30383
312.30386
312.30389
312.30389
312.30392
312.30391
312.30389
312.30388
312.30385
312.30382
312.30383
312.30383
312.30386
312.30389
312.30392
312.30389
312.30388
312.30385
312.30382
312.30379
312.3038
312.30383
312.30386
312.30389
312.30392
312.30388
312.30385
312.30382
312.30379
312.30379
312.30379
312.30382
312.30385
312.30388
312.30391
312.30385
312.30382
312.30379
312.30379
312.30376
312.30376
312.30382
312.30385
312.30391
312.30394
312.30383
312.30383
312.3038
312.30379
312.30376
312.30379
312.30384
312.3039
312.30393
312.30396
312.30386
312.30383
312.30383
312.30382
312.30382
312.30384
312.3039
312.30393
312.30399
312.30402
312.30389
312.30386
312.30386
312.30385
312.30385
312.3039
312.30393
312.30399
312.30402
312.30405
312.30389
312.30389
312.30389
312.30388
312.30391
312.30393
312.30399
312.30402
312.30408
312.30408
312.30392
312.30392
312.30392
312.30391
312.30394
312.30396
312.30402
312.30405
312.30408
312.3041
319.09828
319.09828
319.09825
319.09822
319.09819
319.09819
319.09823
319.09826
319.09829
319.09829
319.09828
319.09826
319.09825
319.09822
319.09819
319.09819
319.0982
319.09826
319.09829
319.09831
319.09825
319.09825
319.09822
319.09819
319.09816
319.09816
319.09819
319.09823
319.09828
319.09828
319.09822
319.09822
319.09819
319.09815
319.09813
319.09815
319.09819
319.09825
319.09828
319.09831
319.09819
319.09819
319.09816
319.09813
319.09812
319.09813
319.09818
319.09824
319.0983
319.09833
319.09819
319.09819
319.09816
319.09815
319.09813
319.09815
319.09821
319.09827
319.09832
319.09835
319.09823
319.0982
319.09819
319.09819
319.09818
319.09821
319.09826
319.09835
319.09838
319.09841
319.09826
319.09826
319.09823
319.09825
319.09824
319.09827
319.09835
319.09841
319.09844
319.09847
319.09829
319.09829
319.09828
319.09828
319.0983
319.09832
319.09838
319.09844
319.09847
319.0985
319.09829
319.09831
319.09828
319.09831
319.09833
319.09835
319.09841
319.09847
319.0985
319.09853
325.92187
325.92184
325.92181
325.92181
325.92178
325.92178
325.92181
325.92184
325.92188
325.9219
325.92184
325.92184
325.92181
325.92178
325.92175
325.92175
325.92178
325.92184
325.92187
325.9219
325.92181
325.92181
325.92178
325.92175
325.92172
325.92175
325.92178
325.92184
325.92187
325.9219
325.92181
325.92178
325.92175
325.92171
325.92171
325.92171
325.92177
325.92183
325.92186
325.92189
325.92178
325.92175
325.92172
325.92171
325.92168
325.92171
325.92177
325.92183
325.92188
325.92191
325.92178
325.92175
325.92175
325.92171
325.92171
325.92174
325.92182
325.92188
325.92194
325.92196
325.92181
325.92178
325.92178
325.92177
325.92177
325.92182
325.92187
325.92196
325.92199
325.92205
325.92184
325.92184
325.92184
325.92183
325.92183
325.92188
325.92196
325.92202
325.92208
325.92208
325.92188
325.92187
325.92187
325.92186
325.92188
325.92194
325.92199
325.92208
325.92211
325.92214
325.9219
325.9219
325.9219
325.92189
325.92191
325.92196
325.92205
325.92208
325.92214
325.92214
332.7781
332.7781
332.77807
332.77806
332.77803
332.77803
332.77807
332.7781
332.77816
332.77816
332.7781
332.7781
332.77806
332.77803
332.778
332.778
332.77806
332.7781
332.77815
332.77818
332.77807
332.77806
332.77803
332.778
332.77797
332.778
332.77803
332.77809
332.77815
332.77818
332.77806
332.77803
332.778
332.77796
332.77794
332.77796
332.77802
332.77808
332.77814
332.77817
332.77803
332.778
332.77797
332.77794
332.77793
332.77796
332.77804
332.7781
332.77816
332.77819
332.77803
332.778
332.778
332.77796
332.77796
332.77801
332.77807
332.77815
332.77821
332.77827
332.77807
332.77806
332.77803
332.77802
332.77804
332.77807
332.77815
332.77824
332.7783
332.77833
332.7781
332.7781
332.77809
332.77808
332.7781
332.77815
332.77824
332.77832
332.77836
332.77839
332.77816
332.77815
332.77815
332.77814
332.77816
332.77821
332.7783
332.77836
332.77842
332.77844
332.77816
332.77818
332.77818
332.77817
332.77819
332.77827
332.77833
332.77839
332.77844
332.77844
339.67033
339.67033
339.6703
339.67026
339.67026
339.67026
339.67029
339.67035
339.67039
339.67041
339.67033
339.6703
339.67027
339.67026
339.67023
339.67023
339.67029
339.67033
339.67038
339.67041
339.6703
339.67027
339.67023
339.67023
339.6702
339.6702
339.67026
339.67032
339.67038
339.67041
339.67026
339.67026
339.67023
339.67019
339.67016
339.67019
339.67028
339.67034
339.6704
339.67043
339.67026
339.67023
339.6702
339.67016
339.67016
339.67018
339.67027
339.67036
339.67042
339.67045
339.67026
339.67023
339.6702
339.67019
339.67018
339.67024
339.67032
339.67041
339.67047
339.67052
339.67029
339.67029
339.67026
339.67028
339.67027
339.67032
339.6704
339.67049
339.67057
339.67061
339.67035
339.67033
339.67032
339.67034
339.67036
339.67041
339.67049
339.67058
339.67064
339.67067
339.67039
339.67038
339.67038
339.6704
339.67042
339.67047
339.67057
339.67064
339.6707
339.67072
339.67041
339.67041
339.67041
339.67043
339.67045
339.67052
339.67061
339.67067
339.67072
339.67073
346.60164
346.60161
346.60158
346.60157
346.60154
346.60155
346.6016
346.60166
346.6017
346.60173
346.60161
346.60161
346.60158
346.60154
346.60151
346.60154
346.6016
346.60166
346.60172
346.60175
346.60158
346.60158
346.60155
346.60151
346.60148
346.60151
346.60157
346.60166
346.60172
346.60174
346.60157
346.60154
346.60151
346.60148
346.60147
346.6015
346.60158
346.60165
346.60171
346.60176
346.60154
346.60151
346.60148
346.60147
346.60147
346.60149
346.60158
346.60166
346.60175
346.60178
346.60155
346.60154
346.60151
346.6015
346.60149
346.60154
346.60165
346.60174
346.60183
346.60186
346.6016
346.6016
346.60157
346.60158
346.60158
346.60165
346.60174
346.60185
346.60191
346.60194
346.60166
346.60166
346.60166
346.60165
346.60166
346.60174
346.60185
346.60194
346.602
346.60203
346.6017
346.60172
346.60172
346.60171
346.60175
346.60183
346.60191
346.602
346.60206
346.60209
346.60173
346.60175
346.60174
346.60176
346.60178
346.60186
346.60194
346.60203
346.60209
346.60209
353.57492
353.5749
353.57486
353.57485
353.57482
353.57485
353.57488
353.57494
353.575
353.57503
353.5749
353.57489
353.57486
353.57482
353.57479
353.57482
353.57488
353.57494
353.575
353.57506
353.57486
353.57486
353.57483
353.57479
353.57476
353.57479
353.57487
353.57494
353.57499
353.57505
353.57485
353.57482
353.57479
353.57475
353.57475
353.57478
353.57486
353.57495
353.57504
353.57507
353.57482
353.57479
353.57476
353.57475
353.57474
353.5748
353.57488
353.57499
353.57506
353.57511
353.57485
353.57482
353.57479
353.57478
353.5748
353.57485
353.57496
353.57504
353.57513
353.57519
353.57488
353.57488
353.57487
353.57486
353.57488
353.57496
353.57506
353.57515
353.57524
353.57527
353.57494
353.57494
353.57494
353.57495
353.57499
353.57504
353.57515
353.57527
353.57533
353.57536
353.575
353.575
353.57499
353.57504
353.57506
353.57513
353.57524
353.57533
353.57539
353.57542
353.57503
353.57506
353.57505
353.57507
353.57511
353.57519
353.57527
353.57536
353.57542
353.57545
360.59285
360.59285
360.59281
360.5928
360.59277
360.59277
360.59283
360.59289
360.59295
360.59298
360.59285
360.59282
360.59278
360.59277
360.59274
360.59277
360.59283
360.59289
360.59298
360.59301
360.59281
360.59278
360.59275
360.59271
360.59271
360.59274
360.59282
360.59288
360.59297
360.593
360.5928
360.59277
360.59271
360.5927
360.5927
360.59272
360.59281
360.5929
360.59299
360.59302
360.59277
360.59274
360.59271
360.5927
360.59269
360.59274
360.59283
360.59294
360.59303
360.59309
360.59277
360.59277
360.59274
360.59272
360.59274
360.59279
360.5929
360.59302
360.5931
360.59316
360.59283
360.59283
360.59282
360.59281
360.59283
360.5929
360.59301
360.59313
360.59321
360.59327
360.59289
360.59289
360.59288
360.5929
360.59294
360.59302
360.59313
360.59324
360.5933
360.59333
360.59295
360.59298
360.59297
360.59299
360.59303
360.5931
360.59321
360.5933
360.59336
360.59339
360.59298
360.59301
360.593
360.59302
360.59309
360.59316
360.59327
360.59333
360.59339
360.59342
367.65787
367.65784
367.65783
367.65779
367.65779
367.65779
367.65785
367.65794
367.658
367.65802
367.65784
367.65783
367.6578
367.65776
367.65776
367.65779
367.65784
367.65793
367.65799
367.65805
367.65783
367.6578
367.65776
367.65773
367.65772
367.65775
367.65784
367.65793
367.65799
367.65804
367.65779
367.65776
367.65773
367.65772
367.65771
367.65774
367.65785
367.65794
367.65803
367.65806
367.65779
367.65776
367.65772
367.65771
367.6577
367.65775
367.65786
367.65798
367.65807
367.65813
367.65779
367.65779
367.65775
367.65774
367.65775
367.65783
367.65794
367.65805
367.65814
367.6582
367.65785
367.65784
367.65784
367.65785
367.65786
367.65794
367.65807
367.65819
367.65828
367.65831
367.65794
367.65793
367.65793
367.65794
367.65798
367.65805
367.65819
367.65828
367.65837
367.6584
367.658
367.65799
367.65799
367.65803
367.65807
367.65814
367.65828
367.65837
367.65843
367.65846
367.65802
367.65805
367.65804
367.65806
367.65813
367.6582
367.65831
367.6584
367.65846
367.65849
374.7721
374.77207
374.77206
374.77203
374.77202
374.77205
374.77211
374.77219
374.77225
374.77228
374.77207
374.77207
374.77203
374.77199
374.77199
374.77202
374.7721
374.77217
374.77225
374.77228
374.77206
374.77203
374.772
374.77196
374.77195
374.77201
374.77209
374.77218
374.77224
374.7723
374.77203
374.77199
374.77196
374.77195
374.77194
374.77199
374.77211
374.7722
374.77228
374.77231
374.77202
374.77199
374.77195
374.77194
374.77193
374.77201
374.77212
374.77224
374.77232
374.77238
374.77205
374.77202
374.77201
374.77199
374.77201
374.77209
374.77219
374.77231
374.77242
374.77248
374.77211
374.7721
374.77209
374.77211
374.77212
374.77219
374.77233
374.77244
374.77253
374.77259
374.77219
374.77217
374.77218
374.7722
374.77224
374.77231
374.77244
374.77256
374.77265
374.77268
374.77225
374.77225
374.77224
374.77228
374.77232
374.77242
374.77253
374.77265
374.77271
374.77274
374.77228
374.77228
374.7723
374.77231
374.77238
374.77248
374.77259
374.77268
374.77274
374.77277
381.93739
381.93739
381.93735
381.93734
381.93733
381.93736
381.93742
381.93751
381.93757
381.9376
381.93739
381.93736
381.93735
381.93731
381.9373
381.93733
381.93742
381.93751
381.93759
381.93762
381.93735
381.93735
381.93731
381.93727
381.93727
381.93732
381.93741
381.9375
381.93758
381.93764
381.93734
381.93731
381.93727
381.93726
381.93725
381.93731
381.93742
381.93754
381.93762
381.93765
381.93733
381.9373
381.93727
381.93725
381.93727
381.93732
381.93746
381.93757
381.93766
381.93772
381.93736
381.93733
381.93732
381.93731
381.93732
381.9374
381.93753
381.93767
381.93776
381.93782
381.93742
381.93742
381.93741
381.93742
381.93746
381.93753
381.93767
381.93781
381.9379
381.93793
381.93751
381.93751
381.9375
381.93754
381.93757
381.93767
381.93781
381.93793
381.93799
381.93805
381.93757
381.93759
381.93758
381.93762
381.93766
381.93776
381.9379
381.93799
381.93808
381.93811
381.9376
381.93762
381.93764
381.93765
381.93772
381.93782
381.93793
381.93805
381.93811
381.93813
389.15532
389.15532
389.15529
389.15528
389.15527
389.15529
389.15535
389.15544
389.15553
389.15556
389.15532
389.15529
389.15528
389.15524
389.15524
389.15526
389.15535
389.15544
389.15553
389.15558
389.15529
389.15528
389.15525
389.15521
389.1552
389.15525
389.15534
389.15546
389.15554
389.15557
389.15528
389.15524
389.15521
389.1552
389.15519
389.15524
389.15538
389.15547
389.15555
389.15561
389.15527
389.15524
389.1552
389.15519
389.1552
389.15528
389.15539
389.15553
389.15562
389.15568
389.15529
389.15526
389.15525
389.15524
389.15528
389.15535
389.15549
389.15563
389.15572
389.15578
389.15535
389.15535
389.15534
389.15538
389.15539
389.15549
389.15562
389.15576
389.15585
389.15591
389.15544
389.15544
389.15546
389.15547
389.15553
389.15563
389.15576
389.15588
389.15597
389.156
389.15553
389.15553
389.15554
389.15555
389.15562
389.15572
389.15585
389.15597
389.15603
389.15606
389.15556
389.15558
389.15557
389.15561
389.15568
389.15578
389.15591
389.156
389.15606
389.15609
396.42707
396.42707
396.42704
396.42702
396.42701
396.42704
396.42713
396.42721
396.42727
396.4273
396.42707
396.42704
396.427
396.42699
396.42698
396.42701
396.42712
396.42721
396.4273
396.42733
396.42704
396.427
396.42699
396.42695
396.42694
396.427
396.42711
396.4272
396.42729
396.42734
396.42702
396.42699
396.42695
396.42694
396.42693
396.42701
396.42712
396.42724
396.42732
396.42738
396.42701
396.42698
396.42694
396.42693
396.42694
396.42702
396.42716
396.42727
396.42739
396.42745
396.42704
396.42701
396.427
396.42701
396.42702
396.42712
396.42726
396.4274
396.42749
396.42755
396.42713
396.42712
396.42711
396.42712
396.42716
396.42726
396.42739
396.42753
396.42762
396.42768
396.42721
396.42721
396.4272
396.42724
396.42727
396.4274
396.42753
396.42765
396.42774
396.42777
396.42727
396.4273
396.42729
396.42732
396.42739
396.42749
396.42762
396.42774
396.4278
396.42786
396.4273
396.42733
396.42734
396.42738
396.42745
396.42755
396.42768
396.42777
396.42786
396.42789
403.75347
403.75347
403.75343
403.75342
403.75341
403.75346
403.75352
403.75364
403.7537
403.75372
403.75347
403.75344
403.75343
403.75339
403.75338
403.75343
403.75352
403.75363
403.75372
403.75375
403.75343
403.75343
403.75339
403.75338
403.75337
403.75342
403.75353
403.75362
403.75371
403.75376
403.75342
403.75339
403.75338
403.75334
403.75335
403.75343
403.75354
403.75366
403.75374
403.7538
403.75341
403.75338
403.75337
403.75335
403.75336
403.75344
403.75358
403.75372
403.75381
403.75386
403.75346
403.75343
403.75342
403.75343
403.75344
403.75354
403.75367
403.75382
403.75393
403.75399
403.75352
403.75352
403.75353
403.75354
403.75358
403.75367
403.75383
403.75395
403.75407
403.75413
403.75364
403.75363
403.75362
403.75366
403.75372
403.75382
403.75395
403.7541
403.75419
403.75422
403.7537
403.75372
403.75371
403.75374
403.75381
403.75393
403.75407
403.75419
403.75425
403.75428
403.75372
403.75375
403.75376
403.7538
403.75386
403.75399
403.75413
403.75422
403.75428
403.75431
411.13501
411.135
411.13497
411.13496
411.13495
411.135
411.13508
411.13517
411.13526
411.13529
411.135
411.13497
411.13496
411.13492
411.13494
411.13496
411.13508
411.13517
411.13525
411.13531
411.13497
411.13496
411.13493
411.13491
411.1349
411.13495
411.13507
411.13518
411.13527
411.13532
411.13496
411.13492
411.13491
411.1349
411.13488
411.13496
411.1351
411.13522
411.1353
411.13536
411.13495
411.13494
411.1349
411.13488
411.13492
411.135
411.13513
411.13525
411.13537
411.13542
411.135
411.13496
411.13495
411.13496
411.135
411.1351
411.13523
411.13537
411.13549
411.13555
411.13508
411.13508
411.13507
411.1351
411.13513
411.13523
411.13537
411.13551
411.13563
411.13569
411.13517
411.13517
411.13518
411.13522
411.13525
411.13537
411.13551
411.13565
411.13574
411.13578
411.13526
411.13525
411.13527
411.1353
411.13537
411.13549
411.13563
411.13574
411.13581
411.13584
411.13529
411.13531
411.13532
411.13536
411.13542
411.13555
411.13569
411.13578
411.13584
411.13586
418.57174
418.57174
418.57171
418.57169
418.57171
418.57173
418.57182
418.57193
418.57199
418.57202
418.57174
418.57171
418.5717
418.57169
418.57167
418.57173
418.57181
418.57193
418.57201
418.57204
418.57171
418.5717
418.57166
418.57165
418.57164
418.57171
418.57183
418.57191
418.57203
418.57206
418.57169
418.57169
418.57165
418.57163
418.57165
418.57172
418.57183
418.57195
418.57206
418.57212
418.57171
418.57167
418.57164
418.57165
418.57166
418.57176
418.57189
418.57201
418.57212
418.57218
418.57173
418.57173
418.57171
418.57172
418.57176
418.57185
418.57199
418.57213
418.57225
418.57231
418.57182
418.57181
418.57183
418.57183
418.57189
418.57199
418.57215
418.57227
418.57238
418.57244
418.57193
418.57193
418.57191
418.57195
418.57201
418.57213
418.57227
418.57241
418.5725
418.57253
418.57199
418.57201
418.57203
418.57206
418.57212
418.57225
418.57238
418.5725
418.57257
418.57262
418.57202
418.57204
418.57206
418.57212
418.57218
418.57231
418.57244
418.57253
418.57262
418.57262
426.06335
426.06335
426.06334
426.06333
426.06331
426.06336
426.06345
426.06356
426.06362
426.06365
426.06335
426.06334
426.06331
426.06329
426.0633
426.06335
426.06344
426.06356
426.06364
426.06367
426.06334
426.06331
426.06329
426.06328
426.06327
426.06334
426.06345
426.06357
426.06366
426.06371
426.06333
426.06329
426.06328
426.06326
426.06327
426.06335
426.06346
426.0636
426.06369
426.06375
426.06331
426.0633
426.06327
426.06327
426.06328
426.06338
426.06352
426.06366
426.06375
426.06381
426.06336
426.06335
426.06334
426.06335
426.06338
426.06348
426.06362
426.06376
426.06387
426.06393
426.06345
426.06344
426.06345
426.06346
426.06352
426.06362
426.06378
426.06392
426.06401
426.06407
426.06356
426.06356
426.06357
426.0636
426.06366
426.06376
426.06392
426.06404
426.06413
426.06416
426.06362
426.06364
426.06366
426.06369
426.06375
426.06387
426.06401
426.06413
426.06422
426.06425
426.06365
426.06367
426.06371
426.06375
426.06381
426.06393
426.06407
426.06416
426.06425
426.06428
433.60912
433.60912
433.60909
433.60907
433.60909
433.60914
433.60922
433.60931
433.60939
433.60942
433.60912
433.60909
433.60908
433.60907
433.60905
433.60913
433.60921
433.60933
433.60941
433.60944
433.60909
433.60908
433.60904
433.60903
433.60904
433.60911
433.60923
433.60931
433.6094
433.60946
433.60907
433.60907
433.60903
433.60904
433.60905
433.60912
433.60923
433.60938
433.60946
433.60952
433.60909
433.60905
433.60904
433.60905
433.60906
433.60915
433.60929
433.60943
433.60952
433.60958
433.60914
433.60913
433.60911
433.60912
433.60915
433.60925
433.60939
433.60953
433.60964
433.6097
433.60922
433.60921
433.60923
433.60923
433.60929
433.60939
433.60955
433.60969
433.60978
433.60984
433.60931
433.60933
433.60931
433.60938
433.60943
433.60953
433.60969
433.60981
433.6099
433.60993
433.60939
433.60941
433.6094
433.60946
433.60952
433.60964
433.60978
433.6099
433.60999
433.61002
433.60942
433.60944
433.60946
433.60952
433.60958
433.6097
433.60984
433.60993
433.61002
433.61005
441.20784
441.20784
441.20783
441.20782
441.20783
441.20788
441.20796
441.20805
441.20814
441.20816
441.20784
441.20781
441.2078
441.20778
441.2078
441.20784
441.20796
441.20804
441.20813
441.20819
441.20783
441.2078
441.20779
441.20777
441.20778
441.20786
441.20797
441.20806
441.20814
441.2082
441.20782
441.20778
441.20777
441.20775
441.20779
441.20786
441.20798
441.20812
441.2082
441.20826
441.20783
441.2078
441.20778
441.20779
441.2078
441.2079
441.20803
441.20818
441.20826
441.20832
441.20788
441.20784
441.20786
441.20786
441.2079
441.20799
441.20815
441.20827
441.20839
441.20845
441.20796
441.20796
441.20797
441.20798
441.20803
441.20815
441.20829
441.20843
441.20852
441.20858
441.20805
441.20804
441.20806
441.20812
441.20818
441.20827
441.20843
441.20855
441.20864
441.20867
441.20814
441.20813
441.20814
441.2082
441.20826
441.20839
441.20852
441.20864
441.2087
441.20876
441.20816
441.20819
441.2082
441.20826
441.20832
441.20845
441.20858
441.20867
441.20876
441.20876
448.85797
448.85797
448.85793
448.85795
448.85796
448.85801
448.85809
448.85818
448.85826
448.85829
448.85797
448.85794
448.85793
448.85791
448.85792
448.858
448.85808
448.8582
448.85828
448.85831
448.85793
448.85793
448.85792
448.8579
448.85791
448.85798
448.85809
448.85821
448.85829
448.85832
448.85795
448.85791
448.8579
448.85791
448.85792
448.85799
448.85813
448.85824
448.85833
448.85838
448.85796
448.85792
448.85791
448.85792
448.85795
448.85805
448.85818
448.8583
448.85841
448.85847
448.85801
448.858
448.85798
448.85799
448.85805
448.85814
448.85828
448.85842
448.85851
448.85857
448.85809
448.85808
448.85809
448.85813
448.85818
448.85828
448.85844
448.85856
448.85865
448.85871
448.85818
448.8582
448.85821
448.85824
448.8583
448.85842
448.85856
448.8587
448.85876
448.8588
448.85826
448.85828
448.85829
448.85833
448.85841
448.85851
448.85865
448.85876
448.85885
448.85888
448.85829
448.85831
448.85832
448.85838
448.85847
448.85857
448.85871
448.8588
448.85888
448.85888
456.5575
456.55749
456.55748
456.55747
456.55748
456.55753
456.55761
456.55772
456.55778
456.55783
456.55749
456.55749
456.55745
456.55746
456.55747
456.55752
456.55763
456.55772
456.5578
456.55786
456.55748
456.55745
456.55744
456.55745
456.55746
456.55753
456.55764
456.55773
456.55781
456.55787
456.55747
456.55746
456.55745
456.55743
456.55746
456.55754
456.55765
456.55776
456.55787
456.5579
456.55748
456.55747
456.55746
456.55746
456.5575
456.55757
456.5577
456.55785
456.55793
456.55799
456.55753
456.55752
456.55753
456.55754
456.55757
456.55766
456.55782
456.55794
456.55805
456.55811
456.55761
456.55763
456.55764
456.55765
456.5577
456.55782
456.55796
456.5581
456.55819
456.55823
456.55772
456.55772
456.55773
456.55776
456.55785
456.55794
456.5581
456.55822
456.55828
456.55831
456.55778
456.5578
456.55781
456.55787
456.55793
456.55805
456.55819
456.55828
456.55837
456.5584
456.55783
456.55786
456.55787
456.5579
456.55799
456.55811
456.55823
456.55831
456.5584
456.5584
464.30403
464.30402
464.30401
464.30403
464.30404
464.30408
464.30416
464.30425
464.30434
464.30436
464.30402
464.30402
464.30401
464.30399
464.304
464.30407
464.30416
464.30427
464.30436
464.30438
464.30401
464.30401
464.30399
464.30398
464.30401
464.30406
464.30417
464.30428
464.30437
464.3044
464.30403
464.30399
464.30398
464.30399
464.30402
464.30409
464.3042
464.30432
464.3044
464.30446
464.30404
464.304
464.30401
464.30402
464.30405
464.30412
464.30426
464.30437
464.30449
464.30452
464.30408
464.30407
464.30406
464.30409
464.30412
464.30422
464.30435
464.30449
464.30458
464.30464
464.30416
464.30416
464.30417
464.3042
464.30426
464.30435
464.30451
464.30463
464.30472
464.30478
464.30425
464.30427
464.30428
464.30432
464.30437
464.30449
464.30463
464.30475
464.30484
464.30487
464.30434
464.30436
464.30437
464.3044
464.30449
464.30458
464.30472
464.30484
464.3049
464.30493
464.30436
464.30438
464.3044
464.30446
464.30452
464.30464
464.30478
464.30487
464.30493
464.30493
472.09486
472.09485
472.09484
472.09483
472.09484
472.09489
472.09499
472.09508
472.09514
472.09516
472.09485
472.09482
472.09481
472.09482
472.09483
472.09488
472.09498
472.09507
472.09516
472.09518
472.09484
472.09481
472.0948
472.09481
472.09482
472.09489
472.095
472.09508
472.09517
472.09522
472.09483
472.09482
472.09481
472.09482
472.09482
472.09492
472.09503
472.09514
472.0952
472.09526
472.09484
472.09483
472.09482
472.09482
472.09486
472.09495
472.09509
472.0952
472.09529
472.09535
472.09489
472.09488
472.09489
472.09492
472.09495
472.09504
472.09518
472.0953
472.09538
472.09544
472.09499
472.09498
472.095
472.09503
472.09509
472.09518
472.09531
472.09543
472.09552
472.09556
472.09508
472.09507
472.09508
472.09514
472.0952
472.0953
472.09543
472.09555
472.09561
472.09564
472.09514
472.09516
472.09517
472.0952
472.09529
472.09538
472.09552
472.09561
472.09567
472.0957
472.09516
472.09518
472.09522
472.09526
472.09535
472.09544
472.09556
472.09564
472.0957
472.09573
479.92684
479.92683
479.92682
479.92684
479.92685
479.92689
479.92697
479.92706
479.92714
479.92717
479.92683
479.92683
479.92682
479.92683
479.92684
479.92688
479.92699
479.92708
479.92714
479.92719
479.92682
479.92682
479.92681
479.92682
479.92683
479.9269
479.927
479.92709
479.92717
479.9272
479.92684
479.92683
479.92682
479.9268
479.92683
479.9269
479.92704
479.92712
479.92721