/*--------------------------------*- C++ -*----------------------------------*\
| =========                 |                                                 |
| \\      /  F ield         | OpenFOAM: The Open Source CFD Toolbox           |
|  \\    /   O peration     | Version:  v2106                                 |
|   \\  /    A nd           | Website:  www.openfoam.com                      |
|    \\/     M anipulation  |                                                 |
\*---------------------------------------------------------------------------*/
FoamFile
{
    version     2.0;
    format      ascii;
    arch        "LSB;label=32;scalar=64";
    class       volVectorField;
    location    "17.5";
    object      flux;
}
// * * * * * * * * * * * * * * * * * * * * * * * * * * * * * * * * * * * * * //

dimensions      [0 1 -1 1 0 0 0];

internalField   nonuniform List<vector> 
4000
(
(-2.1790949e-07 -2.1790948e-07 1.6200291)
(-8.1142754e-07 -5.1396682e-07 1.6200283)
(7.6650052e-07 2.7989173e-07 1.6200269)
(8.6108875e-07 -9.9929181e-08 1.6200311)
(-8.5754949e-07 -1.9714528e-07 1.6200296)
(-6.9293314e-07 -1.8521252e-07 1.6200279)
(-2.8862713e-07 -1.5257623e-07 1.620027)
(-8.0505783e-08 -1.3040762e-07 1.6200268)
(-3.5107623e-08 -9.9781524e-08 1.6200267)
(-1.19135e-08 -9.194227e-09 1.6200265)
(-5.1396683e-07 -8.1142754e-07 1.6200283)
(-6.4725721e-08 -6.4725725e-08 1.6200263)
(1.387557e-06 6.4174488e-07 1.6200285)
(1.4553324e-07 -1.2493839e-07 1.6200308)
(-9.8547451e-07 -2.8012406e-07 1.6200288)
(-6.2607956e-07 -2.0955609e-07 1.6200272)
(-2.0641978e-07 -1.1171075e-07 1.6200265)
(-1.3137247e-09 -9.206821e-08 1.6200264)
(1.4671247e-07 -1.2942791e-07 1.6200265)
(7.8673798e-08 4.5547247e-10 1.6200269)
(2.7989173e-07 7.6650052e-07 1.6200269)
(6.4174488e-07 1.387557e-06 1.6200285)
(7.0628785e-07 7.0628784e-07 1.6200293)
(-6.0780185e-08 4.7447432e-07 1.6200309)
(-9.4216719e-07 5.0555872e-07 1.6200289)
(-5.2451983e-07 6.3366249e-07 1.6200274)
(-1.7113925e-07 7.7092601e-07 1.6200269)
(-9.8222948e-08 8.1241242e-07 1.6200267)
(5.741606e-08 6.7286368e-07 1.6200265)
(7.4675424e-08 4.9648924e-07 1.6200269)
(-9.9929189e-08 8.6108876e-07 1.6200311)
(-1.249384e-07 1.4553324e-07 1.6200308)
(4.7447432e-07 -6.0780183e-08 1.6200309)
(-5.5195883e-08 -5.51959e-08 1.6200323)
(-8.2628634e-07 4.6518323e-08 1.6200305)
(-3.6071227e-07 1.9694703e-07 1.6200293)
(-2.7669846e-08 3.7814109e-07 1.6200292)
(-9.9376062e-08 5.4374738e-07 1.6200292)
(-1.6921071e-07 5.9780898e-07 1.6200288)
(-3.8909159e-08 5.1051767e-07 1.6200286)
(-1.9714529e-07 -8.575495e-07 1.6200296)
(-2.8012406e-07 -9.8547451e-07 1.6200288)
(5.0555871e-07 -9.421672e-07 1.6200289)
(4.6518321e-08 -8.2628634e-07 1.6200305)
(-6.9002427e-07 -6.900243e-07 1.6200289)
(-1.9289707e-07 -5.4812256e-07 1.620028)
(1.756611e-07 -3.9066462e-07 1.6200283)
(1.2144494e-07 -2.1360882e-07 1.6200287)
(2.4186349e-08 -3.628643e-08 1.6200287)
(1.6481219e-08 1.0512788e-07 1.6200288)
(-1.8521253e-07 -6.9293314e-07 1.6200279)
(-2.095561e-07 -6.2607956e-07 1.6200272)
(6.3366249e-07 -5.2451984e-07 1.6200274)
(1.9694701e-07 -3.6071226e-07 1.6200293)
(-5.4812256e-07 -1.9289707e-07 1.620028)
(-6.1352585e-08 -6.1352608e-08 1.6200274)
(3.0684389e-07 4.6496531e-08 1.6200279)
(2.5500213e-07 1.40499e-07 1.6200286)
(1.4952598e-07 2.2240651e-07 1.6200289)
(5.5367045e-08 2.8563677e-07 1.6200292)
(-1.5257624e-07 -2.8862714e-07 1.620027)
(-1.1171077e-07 -2.0641977e-07 1.6200265)
(7.7092601e-07 -1.7113925e-07 1.6200269)
(3.781411e-07 -2.7669849e-08 1.6200292)
(-3.9066462e-07 1.7566113e-07 1.6200283)
(4.6496531e-08 3.0684388e-07 1.6200279)
(3.7751271e-07 3.775127e-07 1.6200286)
(2.9735492e-07 4.0369742e-07 1.6200294)
(1.6932412e-07 3.9747556e-07 1.6200297)
(5.8634726e-08 3.7251315e-07 1.62003)
(-1.3040762e-07 -8.0505788e-08 1.6200268)
(-9.2068206e-08 -1.3137225e-09 1.6200264)
(8.1241242e-07 -9.822295e-08 1.6200267)
(5.4374739e-07 -9.937605e-08 1.6200292)
(-2.1360883e-07 1.2144495e-07 1.6200287)
(1.4049899e-07 2.5500213e-07 1.6200286)
(4.0369743e-07 2.9735493e-07 1.6200294)
(2.7496498e-07 2.7496499e-07 1.6200302)
(1.1834171e-07 2.1426836e-07 1.6200304)
(3.8725436e-08 1.4686266e-07 1.6200306)
(-9.9781527e-08 -3.5107606e-08 1.6200267)
(-1.2942793e-07 1.4671247e-07 1.6200265)
(6.7286368e-07 5.7416057e-08 1.6200265)
(5.9780899e-07 -1.692107e-07 1.6200288)
(-3.6286439e-08 2.4186332e-08 1.6200287)
(2.2240651e-07 1.4952597e-07 1.6200289)
(3.9747557e-07 1.6932411e-07 1.6200297)
(2.1426835e-07 1.1834171e-07 1.6200304)
(4.1221789e-08 4.122181e-08 1.6200305)
(1.369759e-08 -8.6175049e-09 1.6200305)
(-9.1942335e-09 -1.1913496e-08 1.6200265)
(4.5545789e-10 7.8673798e-08 1.6200269)
(4.9648925e-07 7.467543e-08 1.6200269)
(5.1051767e-07 -3.8909159e-08 1.6200286)
(1.0512785e-07 1.6481211e-08 1.6200288)
(2.8563677e-07 5.5367031e-08 1.6200292)
(3.7251316e-07 5.8634715e-08 1.62003)
(1.4686268e-07 3.8725427e-08 1.6200306)
(-8.6175001e-09 1.3697598e-08 1.6200305)
(5.4992266e-09 5.4992345e-09 1.6200306)
(-7.1552478e-08 -7.155247e-08 1.6217278)
(-7.9074093e-07 -5.3068586e-07 1.6217288)
(1.8516145e-06 7.9009927e-07 1.6217288)
(1.4769955e-06 1.8536355e-09 1.6217306)
(-2.2823696e-06 -1.9577975e-07 1.6217293)
(-1.8170085e-06 -1.4785022e-07 1.621728)
(-7.7236849e-07 -6.0955952e-08 1.6217274)
(-2.6408421e-07 -1.1509172e-08 1.6217272)
(-2.4063408e-07 1.121455e-07 1.6217271)
(-1.041655e-07 3.9622604e-07 1.6217265)
(-5.3068587e-07 -7.9074094e-07 1.6217288)
(5.0173667e-07 5.0173669e-07 1.6217289)
(2.6504237e-06 1.6017956e-06 1.6217299)
(-1.8230324e-09 -4.4314609e-09 1.6217308)
(-2.5069254e-06 -3.0933972e-07 1.6217293)
(-1.6147728e-06 -8.2473055e-08 1.6217281)
(-5.6785692e-07 1.8768151e-07 1.6217276)
(-4.4320316e-09 1.976436e-07 1.6217274)
(3.7096875e-07 1.3806944e-07 1.6217276)
(1.7991504e-07 5.7659373e-07 1.6217279)
(7.9009928e-07 1.8516145e-06 1.6217288)
(1.6017956e-06 2.6504237e-06 1.6217299)
(1.3454463e-06 1.3454463e-06 1.6217303)
(-4.3413979e-07 8.4306275e-07 1.6217308)
(-2.3604112e-06 9.4917525e-07 1.6217293)
(-1.3199873e-06 1.3241457e-06 1.6217283)
(-4.9225184e-07 1.7246404e-06 1.6217281)
(-3.1369628e-07 1.8166086e-06 1.6217278)
(1.3831606e-07 1.4237173e-06 1.6217276)
(1.8818402e-07 1.0375125e-06 1.6217279)
(1.8536322e-09 1.4769955e-06 1.6217306)
(-4.4314774e-09 -1.8230301e-09 1.6217308)
(8.4306274e-07 -4.3413978e-07 1.6217308)
(-3.9809411e-07 -3.9809409e-07 1.6217312)
(-2.0258425e-06 -1.075609e-07 1.6217299)
(-8.3930762e-07 3.3290668e-07 1.6217292)
(-7.5393942e-08 8.6587723e-07 1.6217293)
(-3.0535516e-07 1.3333527e-06 1.6217292)
(-4.0812739e-07 1.4745956e-06 1.621729)
(-7.7554838e-08 1.2788364e-06 1.6217289)
(-1.9577975e-07 -2.2823696e-06 1.6217293)
(-3.0933972e-07 -2.5069254e-06 1.6217293)
(9.4917526e-07 -2.3604112e-06 1.6217293)
(-1.0756091e-07 -2.0258425e-06 1.6217299)
(-1.6294104e-06 -1.6294104e-06 1.6217288)
(-3.4654914e-07 -1.2098807e-06 1.6217284)
(5.0819422e-07 -7.4546945e-07 1.6217289)
(2.9502213e-07 -2.4035176e-07 1.6217292)
(8.379971e-08 2.3567837e-07 1.6217292)
(5.7677853e-08 5.9169323e-07 1.6217294)
(-1.4785022e-07 -1.8170085e-06 1.621728)
(-8.2473046e-08 -1.6147728e-06 1.6217281)
(1.3241457e-06 -1.3199873e-06 1.6217283)
(3.3290667e-07 -8.3930765e-07 1.6217292)
(-1.2098808e-06 -3.4654915e-07 1.6217284)
(4.4633336e-08 4.4633339e-08 1.6217283)
(8.9413504e-07 3.6374167e-07 1.621729)
(6.7579266e-07 6.3450539e-07 1.6217295)
(4.239176e-07 8.56237e-07 1.6217298)
(1.597884e-07 1.0061078e-06 1.6217301)
(-6.0955942e-08 -7.7236849e-07 1.6217274)
(1.876815e-07 -5.6785694e-07 1.6217276)
(1.7246404e-06 -4.9225187e-07 1.6217281)
(8.6587724e-07 -7.5393963e-08 1.6217293)
(-7.4546944e-07 5.0819421e-07 1.6217289)
(3.6374168e-07 8.9413505e-07 1.621729)
(1.0980663e-06 1.0980663e-06 1.6217298)
(7.8751745e-07 1.1623561e-06 1.6217305)
(4.5540209e-07 1.1213834e-06 1.6217308)
(1.575917e-07 1.0089232e-06 1.621731)
(-1.1509182e-08 -2.640842e-07 1.6217272)
(1.9764357e-07 -4.4320458e-09 1.6217274)
(1.8166086e-06 -3.1369626e-07 1.6217278)
(1.3333528e-06 -3.0535515e-07 1.6217292)
(-2.4035175e-07 2.9502212e-07 1.6217292)
(6.3450539e-07 6.7579265e-07 1.6217295)
(1.1623561e-06 7.8751745e-07 1.6217305)
(6.9910982e-07 6.9910984e-07 1.621731)
(2.7048464e-07 4.9922535e-07 1.6217312)
(8.4814888e-08 2.939005e-07 1.6217313)
(1.121455e-07 -2.4063407e-07 1.6217271)
(1.3806944e-07 3.7096877e-07 1.6217276)
(1.4237173e-06 1.3831608e-07 1.6217276)
(1.4745956e-06 -4.0812738e-07 1.621729)
(2.3567835e-07 8.3799721e-08 1.6217292)
(8.5623701e-07 4.2391759e-07 1.6217298)
(1.1213835e-06 4.5540208e-07 1.6217308)
(4.9922535e-07 2.7048465e-07 1.6217312)
(5.0192751e-08 5.019277e-08 1.6217312)
(2.0708473e-08 8.7169215e-09 1.6217312)
(3.9622604e-07 -1.041655e-07 1.6217265)
(5.7659372e-07 1.7991505e-07 1.6217279)
(1.0375125e-06 1.8818402e-07 1.6217279)
(1.2788364e-06 -7.755484e-08 1.6217289)
(5.9169322e-07 5.7677866e-08 1.6217294)
(1.0061077e-06 1.5978841e-07 1.6217301)
(1.0089232e-06 1.5759169e-07 1.621731)
(2.9390051e-07 8.4814878e-08 1.6217313)
(8.7169144e-09 2.0708471e-08 1.6217312)
(5.7164322e-08 5.716432e-08 1.6217313)
(4.6466785e-07 4.6466786e-07 1.6248568)
(1.294305e-07 -4.6547181e-07 1.6248581)
(2.4873049e-06 1.0475631e-06 1.6248581)
(1.3742859e-06 2.7013965e-08 1.624859)
(-3.4657288e-06 -2.0928561e-07 1.6248579)
(-2.6133715e-06 -1.1195076e-07 1.6248569)
(-1.0849696e-06 1.4773286e-08 1.6248566)
(-3.7540398e-07 4.0418687e-08 1.6248565)
(-6.474203e-07 2.9378992e-07 1.6248565)
(-3.5250204e-07 8.8942025e-07 1.6248558)
(-4.6547182e-07 1.2943051e-07 1.6248581)
(1.0037734e-06 1.0037734e-06 1.6248582)
(3.2260335e-06 2.1517229e-06 1.6248587)
(-5.1098714e-07 7.6920188e-08 1.624859)
(-3.6741759e-06 -2.5041846e-07 1.6248578)
(-2.2772831e-06 1.703942e-07 1.6248571)
(-8.564154e-07 6.0502227e-07 1.6248568)
(4.3120972e-08 5.0040881e-07 1.6248566)
(6.2608205e-07 4.3313734e-07 1.6248569)
(2.4312829e-07 1.3683541e-06 1.6248571)
(1.0475631e-06 2.4873049e-06 1.6248581)
(2.1517229e-06 3.2260335e-06 1.6248587)
(1.5604517e-06 1.5604517e-06 1.6248589)
(-1.0278554e-06 9.3303939e-07 1.624859)
(-3.3722548e-06 1.1570878e-06 1.6248579)
(-1.7579307e-06 1.8001019e-06 1.6248574)
(-7.5495497e-07 2.488522e-06 1.6248574)
(-5.4728891e-07 2.6190197e-06 1.6248569)
(2.2052501e-07 1.9787511e-06 1.6248569)
(2.7097581e-07 1.5044227e-06 1.6248572)
(2.701397e-08 1.3742859e-06 1.624859)
(7.6920185e-08 -5.1098712e-07 1.624859)
(9.3303938e-07 -1.0278554e-06 1.624859)
(-9.1435098e-07 -9.1435098e-07 1.6248591)
(-2.8071134e-06 -4.2882741e-07 1.6248582)
(-9.4584897e-07 3.0088287e-07 1.6248579)
(-3.7497633e-08 1.1895969e-06 1.6248583)
(-4.6664994e-07 1.9591177e-06 1.6248581)
(-4.8851494e-07 2.2100009e-06 1.624858)
(-7.3090642e-08 2.0009708e-06 1.6248581)
(-2.0928561e-07 -3.4657288e-06 1.6248579)
(-2.5041847e-07 -3.6741759e-06 1.6248578)
(1.1570878e-06 -3.3722548e-06 1.6248579)
(-4.2882742e-07 -2.8071134e-06 1.6248582)
(-2.157021e-06 -2.157021e-06 1.6248575)
(-1.3950645e-07 -1.4692948e-06 1.6248575)
(9.032799e-07 -7.1206044e-07 1.6248582)
(4.7311516e-07 9.1293058e-08 1.6248584)
(2.6237806e-07 8.1903785e-07 1.6248585)
(1.3162237e-07 1.3437526e-06 1.6248588)
(-1.1195076e-07 -2.6133715e-06 1.6248569)
(1.703942e-07 -2.2772831e-06 1.6248571)
(1.8001019e-06 -1.7579307e-06 1.6248574)
(3.0088288e-07 -9.4584897e-07 1.6248579)
(-1.4692948e-06 -1.3950644e-07 1.6248575)
(4.9911155e-07 4.9911157e-07 1.6248578)
(1.5230902e-06 1.0122371e-06 1.6248587)
(1.0644484e-06 1.4295091e-06 1.6248591)
(7.6394463e-07 1.7419759e-06 1.6248594)
(2.7671922e-07 1.908104e-06 1.6248598)
(1.4773282e-08 -1.0849696e-06 1.6248566)
(6.0502226e-07 -8.5641541e-07 1.6248568)
(2.488522e-06 -7.5495498e-07 1.6248574)
(1.1895969e-06 -3.7497633e-08 1.6248583)
(-7.1206043e-07 9.0327988e-07 1.6248582)
(1.0122371e-06 1.5230902e-06 1.6248587)
(1.8336774e-06 1.8336774e-06 1.6248598)
(1.2028539e-06 1.8955143e-06 1.6248602)
(7.40973e-07 1.7646977e-06 1.6248605)
(2.4237446e-07 1.4915493e-06 1.6248608)
(4.0418691e-08 -3.7540399e-07 1.6248565)
(5.0040881e-07 4.3120984e-08 1.6248566)
(2.6190197e-06 -5.4728891e-07 1.6248569)
(1.9591177e-06 -4.6664997e-07 1.6248581)
(9.1293067e-08 4.7311514e-07 1.6248584)
(1.4295091e-06 1.0644483e-06 1.6248591)
(1.8955143e-06 1.2028539e-06 1.6248602)
(9.9546862e-07 9.9546861e-07 1.6248605)
(3.5997963e-07 6.2696398e-07 1.6248606)
(9.4620325e-08 3.2093844e-07 1.6248606)
(2.9378993e-07 -6.4742028e-07 1.6248565)
(4.3313734e-07 6.2608207e-07 1.6248569)
(1.978751e-06 2.2052501e-07 1.6248569)
(2.2100009e-06 -4.8851494e-07 1.624858)
(8.1903786e-07 2.6237806e-07 1.6248585)
(1.7419759e-06 7.6394464e-07 1.6248594)
(1.7646977e-06 7.40973e-07 1.6248605)
(6.2696398e-07 3.5997964e-07 1.6248606)
(6.6442827e-08 6.6442818e-08 1.6248605)
(3.8357427e-08 4.0207963e-08 1.6248608)
(8.8942026e-07 -3.5250203e-07 1.6248558)
(1.3683541e-06 2.431283e-07 1.6248571)
(1.5044226e-06 2.7097581e-07 1.6248572)
(2.0009708e-06 -7.3090624e-08 1.6248581)
(1.3437526e-06 1.3162238e-07 1.6248588)
(1.908104e-06 2.7671924e-07 1.6248598)
(1.4915493e-06 2.4237446e-07 1.6248608)
(3.2093844e-07 9.4620339e-08 1.6248606)
(4.0207951e-08 3.8357427e-08 1.6248608)
(7.7130421e-08 7.7130421e-08 1.6248608)
(7.6467396e-07 7.6467397e-07 1.6295269)
(4.8190291e-07 -4.6552528e-07 1.6295275)
(2.7893624e-06 1.2362385e-06 1.6295272)
(1.2860486e-06 3.0976867e-08 1.629528)
(-4.3321334e-06 -2.2225524e-07 1.6295272)
(-3.1111031e-06 -6.3296884e-08 1.6295266)
(-1.2698042e-06 1.0416256e-07 1.6295265)
(-3.9994678e-07 5.8506041e-08 1.6295264)
(-9.1837972e-07 3.809699e-07 1.6295264)
(-5.6056381e-07 1.2534434e-06 1.6295258)
(-4.6552528e-07 4.8190293e-07 1.6295275)
(1.1892497e-06 1.1892497e-06 1.6295273)
(3.5341156e-06 2.4269426e-06 1.6295276)
(-9.0169191e-07 -6.1194285e-09 1.6295279)
(-4.473544e-06 -3.0596543e-07 1.6295271)
(-2.6214764e-06 3.3878232e-07 1.6295267)
(-1.0870998e-06 9.5677136e-07 1.6295267)
(1.5264232e-08 6.8188048e-07 1.6295264)
(8.7402636e-07 5.6085097e-07 1.6295267)
(3.1190971e-07 2.0074677e-06 1.6295269)
(1.2362385e-06 2.7893623e-06 1.6295272)
(2.4269426e-06 3.5341156e-06 1.6295276)
(1.5939933e-06 1.5939933e-06 1.6295276)
(-1.4468594e-06 9.0066924e-07 1.6295278)
(-3.9872317e-06 1.2665032e-06 1.629527)
(-1.8483663e-06 2.1894657e-06 1.6295269)
(-9.2670602e-07 3.1808637e-06 1.6295272)
(-7.9586717e-07 3.3557412e-06 1.6295267)
(4.0720748e-07 2.5136776e-06 1.6295267)
(4.0384732e-07 2.0435277e-06 1.6295271)
(3.0976876e-08 1.2860486e-06 1.629528)
(-6.1194143e-09 -9.0169189e-07 1.6295279)
(9.0066923e-07 -1.4468594e-06 1.6295278)
(-1.2291819e-06 -1.2291819e-06 1.629528)
(-3.1847476e-06 -5.417877e-07 1.6295274)
(-7.0711596e-07 4.7406014e-07 1.6295276)
(7.9175678e-08 1.7086962e-06 1.6295282)
(-6.5192183e-07 2.7542609e-06 1.629528)
(-4.3818716e-07 3.0921165e-06 1.6295278)
(-1.5235789e-09 2.8735127e-06 1.629528)
(-2.2225522e-07 -4.3321334e-06 1.6295272)
(-3.0596541e-07 -4.473544e-06 1.6295271)
(1.2665032e-06 -3.9872317e-06 1.629527)
(-5.4178771e-07 -3.1847476e-06 1.6295274)
(-2.2839896e-06 -2.2839896e-06 1.6295271)
(4.021176e-07 -1.3367445e-06 1.6295275)
(1.3534947e-06 -3.0254621e-07 1.6295285)
(5.8755314e-07 7.676555e-07 1.6295286)
(5.2645932e-07 1.7004724e-06 1.6295287)
(2.5811149e-07 2.3429999e-06 1.629529)
(-6.3296879e-08 -3.1111031e-06 1.6295266)
(3.3878234e-07 -2.6214764e-06 1.6295267)
(2.1894657e-06 -1.8483663e-06 1.6295269)
(4.7406013e-07 -7.0711595e-07 1.6295276)
(-1.3367445e-06 4.0211759e-07 1.6295275)
(1.2743274e-06 1.2743274e-06 1.6295282)
(2.1835757e-06 1.9606684e-06 1.6295294)
(1.3510968e-06 2.4896025e-06 1.6295296)
(1.1371572e-06 2.8406769e-06 1.6295299)
(4.2682808e-07 2.9565812e-06 1.6295303)
(1.0416255e-07 -1.2698042e-06 1.6295265)
(9.5677135e-07 -1.0870998e-06 1.6295267)
(3.1808637e-06 -9.2670604e-07 1.6295272)
(1.7086962e-06 7.9175659e-08 1.6295282)
(-3.0254622e-07 1.3534947e-06 1.6295285)
(1.9606684e-06 2.1835757e-06 1.6295294)
(2.5687698e-06 2.5687698e-06 1.6295307)
(1.4675616e-06 2.5801837e-06 1.6295309)
(9.9343803e-07 2.3024115e-06 1.6295311)
(3.3538105e-07 1.8174551e-06 1.6295313)
(5.8506038e-08 -3.9994679e-07 1.6295264)
(6.8188047e-07 1.5264234e-08 1.6295264)
(3.3557412e-06 -7.9586719e-07 1.6295267)
(2.7542609e-06 -6.5192185e-07 1.629528)
(7.676555e-07 5.8755315e-07 1.6295286)
(2.4896025e-06 1.3510967e-06 1.6295296)
(2.5801837e-06 1.4675616e-06 1.6295309)
(1.0847385e-06 1.0847385e-06 1.6295311)
(3.7442859e-07 5.5282899e-07 1.6295309)
(1.0352378e-07 3.1696372e-07 1.6295308)
(3.809699e-07 -9.1837974e-07 1.6295264)
(5.6085095e-07 8.7402636e-07 1.6295267)
(2.5136776e-06 4.0720747e-07 1.6295267)
(3.0921165e-06 -4.3818716e-07 1.6295278)
(1.7004724e-06 5.2645933e-07 1.6295287)
(2.8406769e-06 1.1371572e-06 1.6295299)
(2.3024116e-06 9.9343803e-07 1.6295311)
(5.52829e-07 3.7442857e-07 1.6295309)
(2.2566327e-07 2.2566326e-07 1.6295307)
(1.7813753e-07 1.8190596e-07 1.6295311)
(1.2534434e-06 -5.6056382e-07 1.6295258)
(2.0074677e-06 3.1190972e-07 1.6295269)
(2.0435276e-06 4.0384733e-07 1.6295271)
(2.8735127e-06 -1.5235836e-09 1.629528)
(2.3429999e-06 2.5811149e-07 1.629529)
(2.9565812e-06 4.268281e-07 1.6295303)
(1.8174551e-06 3.3538105e-07 1.6295313)
(3.1696372e-07 1.0352377e-07 1.6295308)
(1.8190597e-07 1.7813753e-07 1.6295311)
(7.4352243e-08 7.435224e-08 1.6295311)
(8.5629133e-07 8.5629132e-07 1.6357081)
(4.5630793e-07 -5.6961633e-07 1.6357083)
(3.0597477e-06 1.334761e-06 1.635708)
(1.3854012e-06 -3.4322933e-08 1.6357089)
(-4.8685094e-06 -2.950683e-07 1.6357084)
(-3.3029373e-06 -6.5209246e-08 1.6357082)
(-1.3120921e-06 1.5888394e-07 1.6357083)
(-4.6109382e-07 5.3730195e-08 1.6357083)
(-1.205369e-06 4.5041337e-07 1.6357083)
(-7.4630928e-07 1.5687361e-06 1.6357078)
(-5.6961632e-07 4.5630793e-07 1.6357083)
(1.1740124e-06 1.1740124e-06 1.635708)
(3.8626878e-06 2.5508921e-06 1.6357083)
(-1.0593427e-06 -1.9118446e-07 1.6357088)
(-4.9148389e-06 -4.4258155e-07 1.6357082)
(-2.622009e-06 4.4196659e-07 1.6357082)
(-1.133683e-06 1.2695293e-06 1.6357085)
(-2.3799667e-08 8.4424445e-07 1.6357083)
(1.0671399e-06 6.9811241e-07 1.6357086)
(3.7201347e-07 2.6139914e-06 1.6357088)
(1.334761e-06 3.0597477e-06 1.635708)
(2.5508921e-06 3.8626878e-06 1.6357083)
(1.6945508e-06 1.6945509e-06 1.6357083)
(-1.6080724e-06 9.6297391e-07 1.6357086)
(-4.2353584e-06 1.4800904e-06 1.6357082)
(-1.5908265e-06 2.6826751e-06 1.6357085)
(-9.0981428e-07 3.9730331e-06 1.635709)
(-1.0325107e-06 4.1819339e-06 1.6357087)
(5.6437793e-07 3.1531567e-06 1.6357087)
(5.3094339e-07 2.6931487e-06 1.6357091)
(-3.4322933e-08 1.3854012e-06 1.6357089)
(-1.9118447e-07 -1.0593427e-06 1.6357088)
(9.6297389e-07 -1.6080724e-06 1.6357086)
(-1.2738031e-06 -1.2738031e-06 1.635709)
(-3.1951378e-06 -3.8280193e-07 1.6357088)
(-1.2906631e-07 9.1280929e-07 1.6357093)
(3.6557581e-07 2.4790226e-06 1.6357103)
(-8.4367606e-07 3.7734381e-06 1.6357101)
(-4.2164529e-07 4.1739454e-06 1.63571)
(6.5341477e-08 3.9311903e-06 1.6357102)
(-2.9506829e-07 -4.8685095e-06 1.6357084)
(-4.4258152e-07 -4.9148389e-06 1.6357082)
(1.4800904e-06 -4.2353584e-06 1.6357082)
(-3.8280196e-07 -3.1951377e-06 1.6357088)
(-2.048746e-06 -2.048746e-06 1.6357088)
(1.270998e-06 -8.5181954e-07 1.6357096)
(1.9508145e-06 4.4278823e-07 1.6357108)
(6.624121e-07 1.7512914e-06 1.635711)
(7.2213011e-07 2.8510346e-06 1.6357111)
(3.6910666e-07 3.5731249e-06 1.6357114)
(-6.520924e-08 -3.3029373e-06 1.6357082)
(4.4196662e-07 -2.622009e-06 1.6357082)
(2.6826751e-06 -1.5908265e-06 1.6357085)
(9.1280926e-07 -1.290663e-07 1.6357093)
(-8.5181956e-07 1.270998e-06 1.6357096)
(2.3624679e-06 2.3624679e-06 1.6357106)
(2.9686868e-06 3.2015193e-06 1.635712)
(1.5645703e-06 3.809103e-06 1.6357123)
(1.4001882e-06 4.1506216e-06 1.6357125)
(5.4673503e-07 4.1586963e-06 1.6357129)
(1.5888392e-07 -1.3120922e-06 1.6357083)
(1.2695293e-06 -1.133683e-06 1.6357085)
(3.9730331e-06 -9.0981432e-07 1.635709)
(2.4790226e-06 3.6557581e-07 1.6357103)
(4.4278823e-07 1.9508145e-06 1.6357108)
(3.2015193e-06 2.9686868e-06 1.635712)
(3.3974496e-06 3.3974496e-06 1.6357135)
(1.6115143e-06 3.3082291e-06 1.6357138)
(1.0717235e-06 2.81486e-06 1.6357139)
(3.7448982e-07 2.0496787e-06 1.6357139)
(5.3730201e-08 -4.6109385e-07 1.6357083)
(8.4424445e-07 -2.3799672e-08 1.6357083)
(4.1819339e-06 -1.0325107e-06 1.6357087)
(3.7734381e-06 -8.4367607e-07 1.6357101)
(1.7512914e-06 6.624121e-07 1.635711)
(3.809103e-06 1.5645703e-06 1.6357123)
(3.3082291e-06 1.6115143e-06 1.6357138)
(9.819807e-07 9.8198067e-07 1.6357139)
(1.4163777e-07 2.4379977e-07 1.6357136)
(3.6614144e-08 2.0222248e-07 1.6357133)
(4.5041338e-07 -1.205369e-06 1.6357083)
(6.9811241e-07 1.0671399e-06 1.6357086)
(3.1531567e-06 5.6437792e-07 1.6357087)
(4.1739454e-06 -4.2164531e-07 1.63571)
(2.8510346e-06 7.221301e-07 1.6357111)
(4.1506215e-06 1.4001882e-06 1.6357125)
(2.81486e-06 1.0717234e-06 1.6357139)
(2.437998e-07 1.4163775e-07 1.6357136)
(2.9196526e-07 2.9196522e-07 1.6357132)
(3.4677163e-07 3.4356608e-07 1.6357137)
(1.5687361e-06 -7.4630928e-07 1.6357078)
(2.6139914e-06 3.7201347e-07 1.6357088)
(2.6931487e-06 5.3094339e-07 1.6357091)
(3.9311903e-06 6.5341477e-08 1.6357102)
(3.5731249e-06 3.6910666e-07 1.6357114)
(4.1586963e-06 5.4673503e-07 1.6357129)
(2.0496787e-06 3.7448983e-07 1.6357139)
(2.0222249e-07 3.6614149e-08 1.6357133)
(3.435661e-07 3.4677162e-07 1.6357137)
(7.101472e-08 7.1014712e-08 1.6357136)
(9.0609623e-07 9.0609623e-07 1.6433627)
(4.0688225e-07 -6.807483e-07 1.6433629)
(3.4350706e-06 1.4234088e-06 1.6433627)
(1.6936352e-06 -9.7070865e-08 1.6433638)
(-5.1022255e-06 -3.6179654e-07 1.6433635)
(-3.1893444e-06 -6.0115053e-08 1.6433635)
(-1.1145935e-06 2.2377037e-07 1.643364)
(-3.9514735e-07 6.3447246e-08 1.6433641)
(-1.4062855e-06 5.360436e-07 1.6433643)
(-8.9661018e-07 1.8810566e-06 1.6433638)
(-6.807483e-07 4.0688225e-07 1.6433629)
(1.1828511e-06 1.1828511e-06 1.6433626)
(4.3105868e-06 2.7120819e-06 1.643363)
(-9.8417272e-07 -3.1064826e-07 1.6433636)
(-5.0467918e-06 -5.0630252e-07 1.6433633)
(-2.3109941e-06 6.1707929e-07 1.6433636)
(-9.2925001e-07 1.6551132e-06 1.6433642)
(7.3262493e-08 1.0826279e-06 1.6433642)
(1.3201285e-06 9.2040466e-07 1.6433645)
(4.4840281e-07 3.267281e-06 1.6433648)
(1.4234088e-06 3.4350706e-06 1.6433627)
(2.7120819e-06 4.3105868e-06 1.643363)
(1.9415713e-06 1.9415713e-06 1.6433631)
(-1.5247492e-06 1.1857623e-06 1.6433636)
(-4.174498e-06 1.8558243e-06 1.6433635)
(-1.0279287e-06 3.3315571e-06 1.643364)
(-6.490448e-07 4.9094647e-06 1.6433648)
(-1.1298559e-06 5.138431e-06 1.6433647)
(7.7836748e-07 3.9244086e-06 1.6433648)
(6.6797402e-07 3.4625074e-06 1.6433652)
(-9.7070861e-08 1.6936352e-06 1.6433638)
(-3.1064827e-07 -9.8417271e-07 1.6433636)
(1.1857623e-06 -1.5247492e-06 1.6433636)
(-1.0699197e-06 -1.0699197e-06 1.6433642)
(-2.9009971e-06 2.174194e-08 1.6433642)
(7.4264636e-07 1.5879958e-06 1.643365)
(8.7762395e-07 3.4702323e-06 1.6433662)
(-9.1179367e-07 4.9907054e-06 1.6433662)
(-3.557951e-07 5.4354696e-06 1.6433662)
(1.4046873e-07 5.1547516e-06 1.6433664)
(-3.6179653e-07 -5.1022255e-06 1.6433635)
(-5.0630251e-07 -5.0467918e-06 1.6433633)
(1.8558243e-06 -4.174498e-06 1.6433635)
(2.1741923e-08 -2.9009971e-06 1.6433642)
(-1.5165824e-06 -1.5165824e-06 1.6433645)
(2.4205617e-06 -8.0872624e-08 1.6433655)
(2.7536648e-06 1.4585479e-06 1.643367)
(8.353814e-07 2.982627e-06 1.6433673)
(9.4241366e-07 4.22252e-06 1.6433674)
(4.8082867e-07 4.9993033e-06 1.6433678)
(-6.0115042e-08 -3.1893444e-06 1.6433635)
(6.1707929e-07 -2.3109941e-06 1.6433636)
(3.331557e-06 -1.0279287e-06 1.643364)
(1.5879959e-06 7.4264638e-07 1.643365)
(-8.0872619e-08 2.4205617e-06 1.6433655)
(3.7177767e-06 3.7177767e-06 1.6433668)
(3.9411236e-06 4.6930439e-06 1.6433684)
(1.8521784e-06 5.3560432e-06 1.6433689)
(1.6608812e-06 5.6563112e-06 1.6433691)
(6.583243e-07 5.519936e-06 1.6433694)
(2.2377037e-07 -1.1145934e-06 1.643364)
(1.6551132e-06 -9.2925001e-07 1.6433642)
(4.9094647e-06 -6.4904479e-07 1.6433648)
(3.4702324e-06 8.7762398e-07 1.6433662)
(1.4585479e-06 2.7536648e-06 1.643367)
(4.6930439e-06 3.9411236e-06 1.6433684)
(4.3919313e-06 4.3919313e-06 1.6433701)
(1.7986487e-06 4.1690702e-06 1.6433705)
(1.1063065e-06 3.4107046e-06 1.6433706)
(3.8991189e-07 2.3052343e-06 1.6433706)
(6.3447244e-08 -3.9514736e-07 1.6433641)
(1.0826279e-06 7.3262475e-08 1.6433642)
(5.138431e-06 -1.1298559e-06 1.6433647)
(4.9907054e-06 -9.1179367e-07 1.6433662)
(2.982627e-06 8.3538142e-07 1.6433673)
(5.3560431e-06 1.8521784e-06 1.6433689)
(4.1690701e-06 1.7986487e-06 1.6433705)
(8.7095174e-07 8.7095174e-07 1.6433707)
(-2.0295462e-07 -1.3262628e-07 1.6433704)
(-7.8655892e-08 3.3418781e-08 1.64337)
(5.360436e-07 -1.4062856e-06 1.6433643)
(9.2040464e-07 1.3201285e-06 1.6433645)
(3.9244086e-06 7.7836747e-07 1.6433648)
(5.4354697e-06 -3.5579514e-07 1.6433662)
(4.22252e-06 9.4241364e-07 1.6433674)
(5.6563112e-06 1.6608812e-06 1.6433691)
(3.4107046e-06 1.1063065e-06 1.6433706)
(-1.3262626e-07 -2.0295465e-07 1.6433704)
(2.6877355e-07 2.6877354e-07 1.6433699)
(5.0060859e-07 4.7398472e-07 1.6433703)
(1.8810566e-06 -8.9661019e-07 1.6433638)
(3.267281e-06 4.484028e-07 1.6433648)
(3.4625074e-06 6.6797403e-07 1.6433652)
(5.1547516e-06 1.4046872e-07 1.6433664)
(4.9993034e-06 4.8082866e-07 1.6433678)
(5.519936e-06 6.583243e-07 1.6433694)
(2.3052343e-06 3.8991188e-07 1.6433706)
(3.3418786e-08 -7.8655914e-08 1.64337)
(4.7398476e-07 5.0060858e-07 1.6433703)
(5.8151566e-08 5.8151556e-08 1.6433702)
(9.639574e-07 9.639574e-07 1.6524446)
(4.308042e-07 -7.6937312e-07 1.6524448)
(3.9270886e-06 1.5237378e-06 1.6524447)
(2.1751764e-06 -1.3782554e-07 1.6524458)
(-5.0912258e-06 -4.0456885e-07 1.6524458)
(-2.831997e-06 -3.2681974e-08 1.652446)
(-7.0711563e-07 3.097441e-07 1.6524467)
(-1.8377257e-07 9.4974208e-08 1.652447)
(-1.5110602e-06 6.4041762e-07 1.6524472)
(-1.0177253e-06 2.1985992e-06 1.6524469)
(-7.6937313e-07 4.3080421e-07 1.6524448)
(1.2704747e-06 1.2704747e-06 1.6524445)
(4.8744099e-06 2.9484743e-06 1.652445)
(-7.1728348e-07 -3.3297546e-07 1.6524457)
(-4.9335105e-06 -4.7024233e-07 1.6524457)
(-1.7605276e-06 8.8538102e-07 1.6524462)
(-5.1563136e-07 2.1268533e-06 1.652447)
(3.1223771e-07 1.4062093e-06 1.6524471)
(1.6443774e-06 1.2265882e-06 1.6524475)
(5.4045629e-07 3.9762782e-06 1.6524478)
(1.5237377e-06 3.9270886e-06 1.6524447)
(2.9484743e-06 4.87441e-06 1.652445)
(2.3236384e-06 2.3236384e-06 1.6524452)
(-1.2435402e-06 1.5516561e-06 1.6524459)
(-3.8728694e-06 2.3721056e-06 1.6524459)
(-2.3490137e-07 4.1113969e-06 1.6524467)
(-1.862873e-07 5.9637703e-06 1.6524477)
(-1.0840377e-06 6.2025847e-06 1.6524477)
(1.0590087e-06 4.8041373e-06 1.6524479)
(8.1540139e-07 4.3324157e-06 1.6524483)
(-1.3782553e-07 2.1751764e-06 1.6524458)
(-3.3297547e-07 -7.1728345e-07 1.6524457)
(1.5516561e-06 -1.2435402e-06 1.6524459)
(-6.6881627e-07 -6.6881626e-07 1.6524466)
(-2.3737697e-06 6.17272e-07 1.6524468)
(1.8311371e-06 2.4429239e-06 1.6524478)
(1.5755564e-06 4.6252096e-06 1.6524491)
(-8.4739534e-07 6.3532603e-06 1.6524493)
(-2.2579157e-07 6.8297499e-06 1.6524494)
(2.2597525e-07 6.5032625e-06 1.6524496)
(-4.0456885e-07 -5.0912258e-06 1.6524458)
(-4.7024234e-07 -4.9335105e-06 1.6524457)
(2.3721056e-06 -3.8728694e-06 1.6524459)
(6.1727199e-07 -2.3737697e-06 1.6524468)
(-7.6112923e-07 -7.6112923e-07 1.6524473)
(3.7730362e-06 9.0138128e-07 1.6524485)
(3.7240492e-06 2.6705902e-06 1.6524501)
(1.1205026e-06 4.3917176e-06 1.6524505)
(1.2090109e-06 5.7528953e-06 1.6524508)
(5.9774312e-07 6.5690933e-06 1.6524511)
(-3.2681978e-08 -2.831997e-06 1.652446)
(8.85381e-07 -1.7605276e-06 1.6524462)
(4.1113969e-06 -2.3490138e-07 1.6524467)
(2.4429239e-06 1.8311371e-06 1.6524478)
(9.0138128e-07 3.7730362e-06 1.6524485)
(5.2628565e-06 5.2628565e-06 1.6524499)
(5.0658927e-06 6.3606602e-06 1.6524517)
(2.2349097e-06 7.0633689e-06 1.6524523)
(1.9515842e-06 7.3046529e-06 1.6524525)
(7.7010728e-07 7.0067196e-06 1.6524529)
(3.097441e-07 -7.0711566e-07 1.6524467)
(2.1268533e-06 -5.1563137e-07 1.652447)
(5.9637703e-06 -1.8628729e-07 1.6524477)
(4.6252096e-06 1.5755564e-06 1.6524491)
(2.6705902e-06 3.7240492e-06 1.6524501)
(6.3606602e-06 5.0658927e-06 1.6524517)
(5.5245615e-06 5.5245615e-06 1.6524535)
(2.0644953e-06 5.1509743e-06 1.6524541)
(1.1523616e-06 4.1042414e-06 1.6524541)
(3.9912092e-07 2.629054e-06 1.6524542)
(9.4974216e-08 -1.837726e-07 1.652447)
(1.4062094e-06 3.1223768e-07 1.6524471)
(6.2025847e-06 -1.0840377e-06 1.6524477)
(6.3532604e-06 -8.4739533e-07 1.6524493)
(4.3917176e-06 1.1205026e-06 1.6524505)
(7.0633689e-06 2.2349097e-06 1.6524523)
(5.1509743e-06 2.0644953e-06 1.6524541)
(8.145896e-07 8.1458961e-07 1.6524543)
(-5.7033612e-07 -4.8844546e-07 1.652454)
(-2.1335097e-07 -1.3097018e-07 1.6524536)
(6.4041762e-07 -1.5110602e-06 1.6524472)
(1.2265882e-06 1.6443774e-06 1.6524475)
(4.8041373e-06 1.0590087e-06 1.6524479)
(6.8297499e-06 -2.2579159e-07 1.6524494)
(5.7528953e-06 1.2090108e-06 1.6524508)
(7.3046529e-06 1.9515841e-06 1.6524525)
(4.1042414e-06 1.1523616e-06 1.6524541)
(-4.8844545e-07 -5.7033612e-07 1.652454)
(2.0680177e-07 2.0680178e-07 1.6524535)
(6.3743777e-07 5.7921139e-07 1.6524539)
(2.1985992e-06 -1.0177253e-06 1.6524469)
(3.9762782e-06 5.4045629e-07 1.6524478)
(4.3324157e-06 8.1540139e-07 1.6524483)
(6.5032625e-06 2.2597524e-07 1.6524496)
(6.5690933e-06 5.9774312e-07 1.6524511)
(7.0067196e-06 7.7010727e-07 1.6524529)
(2.629054e-06 3.9912094e-07 1.6524542)
(-1.3097019e-07 -2.1335098e-07 1.6524536)
(5.7921139e-07 6.3743778e-07 1.6524539)
(3.4922103e-08 3.4922106e-08 1.6524538)
(1.0339034e-06 1.0339034e-06 1.6628979)
(5.2681841e-07 -8.3489516e-07 1.6628982)
(4.5073227e-06 1.6334162e-06 1.6628982)
(2.7842736e-06 -1.5887355e-07 1.6628994)
(-4.8901576e-06 -4.2604222e-07 1.6628995)
(-2.2930162e-06 1.3609616e-08 1.6628999)
(-1.439731e-07 4.1225037e-07 1.6629007)
(1.432767e-07 1.4371296e-07 1.6629012)
(-1.5377119e-06 7.5787653e-07 1.6629014)
(-1.1166782e-06 2.5175715e-06 1.6629012)
(-8.3489517e-07 5.2681842e-07 1.6628982)
(1.4260876e-06 1.4260876e-06 1.662898)
(5.5213551e-06 3.2437816e-06 1.6628985)
(-3.04914e-07 -2.7544196e-07 1.6628993)
(-4.6314329e-06 -3.5337313e-07 1.6628995)
(-1.0355773e-06 1.2256176e-06 1.6629001)
(5.1181915e-08 2.6615521e-06 1.662901)
(6.6171594e-07 1.7938993e-06 1.6629013)
(2.0230759e-06 1.5949006e-06 1.6629018)
(6.430167e-07 4.7245139e-06 1.6629021)
(1.6334162e-06 4.5073227e-06 1.6628982)