/*--------------------------------*- C++ -*----------------------------------*\
| =========                 |                                                 |
| \\      /  F ield         | OpenFOAM: The Open Source CFD Toolbox           |
|  \\    /   O peration     | Version:  v2106                                 |
|   \\  /    A nd           | Website:  www.openfoam.com                      |
|    \\/     M anipulation  |                                                 |
\*---------------------------------------------------------------------------*/
FoamFile
{
    version     2.0;
    format      ascii;
    arch        "LSB;label=32;scalar=64";
    class       volVectorField;
    location    "17.5";
    object      gradT;
}
// * * * * * * * * * * * * * * * * * * * * * * * * * * * * * * * * * * * * * //

dimensions      [0 -1 0 1 0 0 0];

internalField   nonuniform List<vector> 
4000
(
(-8.7163795e-05 -8.7163793e-05 648.01163)
(-0.00032457102 -0.00020558673 648.01134)
(0.00030660021 0.00011195669 648.01077)
(0.0003444355 -3.9971673e-05 648.01244)
(-0.0003430198 -7.8858112e-05 648.01185)
(-0.00027717326 -7.408501e-05 648.01115)
(-0.00011545085 -6.1030492e-05 648.01081)
(-3.2202313e-05 -5.2163049e-05 648.01071)
(-1.4043049e-05 -3.991261e-05 648.01067)
(-4.7653998e-06 -3.6776908e-06 648.01062)
(-0.00020558673 -0.00032457102 648.01134)
(-2.5890288e-05 -2.589029e-05 648.01051)
(0.00055502279 0.00025669795 648.01142)
(5.8213294e-05 -4.9975356e-05 648.01232)
(-0.0003941898 -0.00011204962 648.01153)
(-0.00025043183 -8.3822437e-05 648.01087)
(-8.2567912e-05 -4.4684299e-05 648.0106)
(-5.2548988e-07 -3.6827284e-05 648.01055)
(5.8684988e-05 -5.1771165e-05 648.0106)
(3.1469519e-05 1.8218899e-07 648.01077)
(0.00011195669 0.00030660021 648.01077)
(0.00025669795 0.00055502279 648.01142)
(0.00028251514 0.00028251514 648.01171)
(-2.4312074e-05 0.00018978973 648.01234)
(-0.00037686688 0.00020222349 648.01154)
(-0.00020980793 0.000253465 648.01096)
(-6.84557e-05 0.00030837041 648.01077)
(-3.9289179e-05 0.00032496497 648.01069)
(2.2966424e-05 0.00026914547 648.01061)
(2.9870169e-05 0.0001985957 648.01077)
(-3.9971676e-05 0.00034443551 648.01244)
(-4.997536e-05 5.8213296e-05 648.01232)
(0.00018978973 -2.4312073e-05 648.01234)
(-2.2078353e-05 -2.207836e-05 648.01293)
(-0.00033051454 1.8607329e-05 648.01219)
(-0.00014428491 7.8778811e-05 648.01173)
(-1.1067939e-05 0.00015125643 648.01168)
(-3.9750425e-05 0.00021749895 648.01168)
(-6.7684284e-05 0.00023912359 648.01152)
(-1.5563664e-05 0.00020420707 648.01144)
(-7.8858116e-05 -0.0003430198 648.01185)
(-0.00011204963 -0.0003941898 648.01153)
(0.00020222348 -0.00037686688 648.01154)
(1.8607328e-05 -0.00033051453 648.01219)
(-0.00027600971 -0.00027600972 648.01155)
(-7.7158828e-05 -0.00021924902 648.0112)
(7.0264441e-05 -0.00015626585 648.0113)
(4.8577977e-05 -8.5443527e-05 648.01148)
(9.6745396e-06 -1.4514572e-05 648.01148)
(6.5924875e-06 4.2051151e-05 648.01152)
(-7.4085011e-05 -0.00027717326 648.01115)
(-8.3822439e-05 -0.00025043182 648.01087)
(0.000253465 -0.00020980794 648.01096)
(7.8778804e-05 -0.0001442849 648.01173)
(-0.00021924902 -7.7158828e-05 648.0112)
(-2.4541034e-05 -2.4541043e-05 648.01097)
(0.00012273756 1.8598612e-05 648.01117)
(0.00010200085 5.6199599e-05 648.01145)
(5.9810393e-05 8.8962604e-05 648.01155)
(2.2146818e-05 0.00011425471 648.01168)
(-6.1030495e-05 -0.00011545086 648.01081)
(-4.4684308e-05 -8.2567909e-05 648.0106)
(0.0003083704 -6.8455699e-05 648.01077)
(0.00015125644 -1.1067939e-05 648.01168)
(-0.00015626585 7.0264453e-05 648.0113)
(1.8598612e-05 0.00012273755 648.01117)
(0.00015100508 0.00015100508 648.01144)
(0.00011894197 0.00016147897 648.01176)
(6.7729649e-05 0.00015899022 648.01189)
(2.345389e-05 0.00014900526 648.01202)
(-5.2163047e-05 -3.2202315e-05 648.01071)
(-3.6827282e-05 -5.2548899e-07 648.01055)
(0.00032496497 -3.928918e-05 648.01069)
(0.00021749896 -3.975042e-05 648.01168)
(-8.544353e-05 4.8577979e-05 648.01148)
(5.6199594e-05 0.00010200085 648.01145)
(0.00016147897 0.00011894197 648.01176)
(0.00010998599 0.000109986 648.01208)
(4.7336685e-05 8.5707343e-05 648.01217)
(1.5490175e-05 5.8745062e-05 648.01225)
(-3.9912611e-05 -1.4043042e-05 648.01067)
(-5.1771173e-05 5.8684987e-05 648.0106)
(0.00026914547 2.2966423e-05 648.01061)
(0.0002391236 -6.768428e-05 648.01152)
(-1.4514576e-05 9.6745328e-06 648.01148)
(8.8962604e-05 5.9810388e-05 648.01155)
(0.00015899023 6.7729645e-05 648.01189)
(8.5707342e-05 4.7336683e-05 648.01217)
(1.6488715e-05 1.6488724e-05 648.01219)
(5.4790361e-06 -3.447002e-06 648.01221)
(-3.6776934e-06 -4.7653985e-06 648.01062)
(1.8218316e-07 3.1469519e-05 648.01077)
(0.0001985957 2.9870172e-05 648.01077)
(0.00020420707 -1.5563664e-05 648.01144)
(4.2051138e-05 6.5924843e-06 648.01152)
(0.00011425471 2.2146812e-05 648.01168)
(0.00014900527 2.3453886e-05 648.01202)
(5.8745072e-05 1.5490171e-05 648.01225)
(-3.447e-06 5.4790393e-06 648.01221)
(2.1996906e-06 2.1996938e-06 648.01224)
(-2.8620991e-05 -2.8620988e-05 648.69113)
(-0.00031629637 -0.00021227434 648.69154)
(0.00074064579 0.00031603971 648.6915)
(0.0005907982 7.4145419e-07 648.69223)
(-0.00091294784 -7.8311899e-05 648.69171)
(-0.0007268034 -5.9140087e-05 648.69118)
(-0.0003089474 -2.4382381e-05 648.69094)
(-0.00010563368 -4.6036689e-06 648.69086)
(-9.625363e-05 4.4858201e-05 648.69082)
(-4.1666201e-05 0.00015849042 648.69062)
(-0.00021227435 -0.00031629638 648.69154)
(0.00020069467 0.00020069468 648.69157)
(0.0010601695 0.00064071823 648.69196)
(-7.2921296e-07 -1.7725844e-06 648.6923)
(-0.0010027702 -0.00012373589 648.6917)
(-0.00064590912 -3.2989222e-05 648.69123)
(-0.00022714277 7.5072606e-05 648.69104)
(-1.7728127e-06 7.9057439e-05 648.69097)
(0.0001483875 5.5227777e-05 648.69106)
(7.1966015e-05 0.00023063749 648.69116)
(0.00031603971 0.00074064579 648.6915)
(0.00064071823 0.0010601695 648.69196)
(0.00053817853 0.00053817853 648.69211)
(-0.00017365592 0.0003372251 648.69231)
(-0.00094416448 0.0003796701 648.69172)
(-0.00052799491 0.00052965826 648.69133)
(-0.00019690073 0.00068985618 648.69123)
(-0.00012547851 0.00072664345 648.6911)
(5.5326423e-05 0.00056948692 648.69105)
(7.5273609e-05 0.000415005 648.69117)
(7.4145289e-07 0.0005907982 648.69223)
(-1.772591e-06 -7.2921206e-07 648.6923)
(0.00033722509 -0.00017365591 648.69231)
(-0.00015923764 -0.00015923764 648.69249)
(-0.00081033699 -4.302436e-05 648.69196)
(-0.00033572305 0.00013316267 648.69169)
(-3.0157577e-05 0.00034635089 648.69173)
(-0.00012214207 0.00053334109 648.69169)
(-0.00016325095 0.00058983826 648.69158)
(-3.1021935e-05 0.00051153455 648.69156)
(-7.8311901e-05 -0.00091294784 648.69171)
(-0.00012373589 -0.0010027702 648.6917)
(0.0003796701 -0.00094416447 648.69172)
(-4.3024365e-05 -0.00081033699 648.69196)
(-0.00065176417 -0.00065176416 648.69153)
(-0.00013861966 -0.0004839523 648.69138)
(0.00020327769 -0.00029818778 648.69155)
(0.00011800885 -9.6140704e-05 648.69167)
(3.3519884e-05 9.4271348e-05 648.69169)
(2.3071141e-05 0.00023667729 648.69176)
(-5.9140088e-05 -0.00072680341 648.69118)
(-3.2989218e-05 -0.00064590912 648.69123)
(0.00052965826 -0.00052799492 648.69133)
(0.00013316267 -0.00033572306 648.69169)
(-0.0004839523 -0.00013861966 648.69138)
(1.7853334e-05 1.7853336e-05 648.69132)
(0.00035765402 0.00014549667 648.6916)
(0.00027031706 0.00025380216 648.69181)
(0.00016956704 0.0003424948 648.69192)
(6.391536e-05 0.00040244311 648.69206)
(-2.4382377e-05 -0.0003089474 648.69094)
(7.5072599e-05 -0.00022714278 648.69104)
(0.00068985617 -0.00019690075 648.69123)
(0.0003463509 -3.0157585e-05 648.69173)
(-0.00029818778 0.00020327768 648.69155)
(0.00014549667 0.00035765402 648.6916)
(0.00043922651 0.00043922651 648.69194)
(0.00031500698 0.00046494245 648.69218)
(0.00018216083 0.00044855337 648.6923)
(6.3036681e-05 0.00040356926 648.69241)
(-4.6036727e-06 -0.00010563368 648.69086)
(7.905743e-05 -1.7728183e-06 648.69097)
(0.00072664346 -0.0001254785 648.6911)
(0.0005333411 -0.00012214206 648.69169)
(-9.6140699e-05 0.00011800885 648.69167)
(0.00025380216 0.00027031706 648.69181)
(0.00046494245 0.00031500698 648.69218)
(0.00027964393 0.00027964394 648.69241)
(0.00010819386 0.00019969014 648.69247)
(3.3925955e-05 0.0001175602 648.6925)
(4.4858198e-05 -9.6253627e-05 648.69082)
(5.5227775e-05 0.00014838751 648.69106)
(0.00056948693 5.5326431e-05 648.69105)
(0.00058983825 -0.00016325095 648.69158)
(9.4271341e-05 3.3519889e-05 648.69169)
(0.0003424948 0.00016956704 648.69192)
(0.00044855339 0.00018216083 648.6923)
(0.00019969014 0.00010819386 648.69247)
(2.00771e-05 2.0077108e-05 648.69247)
(8.2833891e-06 3.4867686e-06 648.69248)
(0.00015849042 -4.16662e-05 648.69062)
(0.00023063749 7.1966019e-05 648.69116)
(0.000415005 7.5273608e-05 648.69117)
(0.00051153456 -3.1021936e-05 648.69156)
(0.00023667729 2.3071146e-05 648.69176)
(0.0004024431 6.3915364e-05 648.69206)
(0.00040356927 6.3036678e-05 648.69241)
(0.00011756021 3.3925951e-05 648.6925)
(3.4867657e-06 8.2833885e-06 648.69248)
(2.2865729e-05 2.2865728e-05 648.69252)
(0.00018586714 0.00018586714 649.94272)
(5.17722e-05 -0.00018618872 649.94322)
(0.00099492194 0.00041902524 649.94323)
(0.00054971437 1.0805586e-05 649.9436)
(-0.0013862915 -8.3714245e-05 649.94316)
(-0.0010453486 -4.4780305e-05 649.94278)
(-0.00043398783 5.9093143e-06 649.94264)
(-0.00015016159 1.6167475e-05 649.94258)
(-0.00025896812 0.00011751597 649.94258)
(-0.00014100082 0.0003557681 649.94231)
(-0.00018618873 5.1772202e-05 649.94322)
(0.00040150934 0.00040150935 649.94326)
(0.0012904134 0.00086068914 649.9435)
(-0.00020439486 3.0768075e-05 649.94362)
(-0.0014696704 -0.00010016738 649.94314)
(-0.00091091324 6.8157681e-05 649.94283)
(-0.00034256616 0.00024200891 649.94274)
(1.7248389e-05 0.00020016352 649.94262)
(0.00025043282 0.00017325494 649.94274)
(9.7251316e-05 0.00054734165 649.94282)
(0.00041902524 0.00099492194 649.94323)
(0.00086068914 0.0012904134 649.9435)
(0.00062418067 0.00062418067 649.94356)
(-0.00041114216 0.00037321576 649.9436)
(-0.0013489019 0.00046283513 649.94316)
(-0.00070317229 0.00072004076 649.94295)
(-0.00030198199 0.00099540879 649.94295)
(-0.00021891556 0.0010476079 649.94277)
(8.8210006e-05 0.00079150043 649.94275)
(0.00010839032 0.00060176907 649.94288)
(1.0805588e-05 0.00054971437 649.9436)
(3.0768074e-05 -0.00020439485 649.94362)
(0.00037321575 -0.00041114215 649.9436)
(-0.00036574039 -0.00036574039 649.94364)
(-0.0011228454 -0.00017153097 649.94327)
(-0.00037833959 0.00012035315 649.94318)
(-1.4999053e-05 0.00047583875 649.94332)
(-0.00018665998 0.0007836471 649.94324)
(-0.00019540598 0.00088400037 649.94318)
(-2.9236257e-05 0.00080038831 649.94323)
(-8.3714243e-05 -0.0013862915 649.94316)
(-0.00010016739 -0.0014696704 649.94314)
(0.00046283512 -0.0013489019 649.94316)
(-0.00017153097 -0.0011228454 649.94327)
(-0.00086280839 -0.00086280838 649.94298)
(-5.5802578e-05 -0.00058771793 649.943)
(0.00036131196 -0.00028482418 649.94328)
(0.00018924606 3.6517223e-05 649.94334)
(0.00010495122 0.00032761514 649.9434)
(5.264895e-05 0.00053750105 649.94352)
(-4.4780302e-05 -0.0010453486 649.94278)
(6.8157681e-05 -0.00091091325 649.94283)
(0.00072004075 -0.00070317229 649.94295)
(0.00012035315 -0.00037833959 649.94318)
(-0.00058771793 -5.5802576e-05 649.943)
(0.00019964462 0.00019964463 649.94313)
(0.0006092361 0.00040489485 649.9435)
(0.00042577934 0.00057180363 649.94364)
(0.00030557785 0.00069679035 649.94377)
(0.00011068769 0.0007632416 649.94393)
(5.909313e-06 -0.00043398783 649.94264)
(0.00024200891 -0.00034256617 649.94274)
(0.00099540879 -0.00030198199 649.94295)
(0.00047583875 -1.4999053e-05 649.94332)
(-0.00028482417 0.00036131195 649.94328)
(0.00040489485 0.0006092361 649.9435)
(0.00073347096 0.00073347096 649.94392)
(0.00048114157 0.00075820574 649.94408)
(0.0002963892 0.00070587907 649.94419)
(9.6949784e-05 0.00059661973 649.9443)
(1.6167477e-05 -0.00015016159 649.94258)
(0.00020016352 1.7248394e-05 649.94262)
(0.0010476079 -0.00021891556 649.94277)
(0.0007836471 -0.00018665999 649.94324)
(3.6517227e-05 0.00018924606 649.94334)
(0.00057180363 0.00042577933 649.94364)
(0.00075820573 0.00048114157 649.94408)
(0.00039818745 0.00039818744 649.94421)
(0.00014399185 0.00025078559 649.94424)
(3.784813e-05 0.00012837537 649.94425)
(0.00011751597 -0.00025896811 649.94258)
(0.00017325494 0.00025043283 649.94274)
(0.00079150041 8.8210005e-05 649.94275)
(0.00088400037 -0.00019540598 649.94318)
(0.00032761514 0.00010495122 649.9434)
(0.00069679036 0.00030557786 649.94377)
(0.00070587907 0.0002963892 649.94419)
(0.00025078559 0.00014399185 649.94424)
(2.6577131e-05 2.6577127e-05 649.94421)
(1.5342971e-05 1.6083185e-05 649.94431)
(0.0003557681 -0.00014100081 649.94231)
(0.00054734164 9.7251319e-05 649.94282)
(0.00060176906 0.00010839032 649.94288)
(0.00080038831 -2.923625e-05 649.94323)
(0.00053750106 5.2648952e-05 649.94352)
(0.0007632416 0.00011068769 649.94393)
(0.00059661973 9.6949783e-05 649.9443)
(0.00012837538 3.7848136e-05 649.94425)
(1.608318e-05 1.5342971e-05 649.94431)
(3.0852169e-05 3.0852169e-05 649.94432)
(0.00030586958 0.00030586959 651.81075)
(0.00019276116 -0.00018621011 651.81098)
(0.0011157449 0.00049449539 651.81088)
(0.00051441946 1.2390747e-05 651.81121)
(-0.0017328534 -8.8902096e-05 651.81088)
(-0.0012444412 -2.5318753e-05 651.81065)
(-0.00050792167 4.1665025e-05 651.81061)
(-0.00015997871 2.3402417e-05 651.81056)
(-0.00036735189 0.00015238796 651.81057)
(-0.00022422553 0.00050137737 651.81034)
(-0.00018621011 0.00019276117 651.81098)
(0.00047569986 0.00047569987 651.81092)
(0.0014136462 0.00097077704 651.81105)
(-0.00036067676 -2.4477714e-06 651.81118)
(-0.0017894176 -0.00012238617 651.81083)
(-0.0010485906 0.00013551293 651.81068)
(-0.00043483992 0.00038270854 651.81069)
(6.1056928e-06 0.00027275219 651.81057)
(0.00034961054 0.00022434039 651.81067)
(0.00012476389 0.00080298707 651.81074)
(0.00049449538 0.0011157449 651.81088)
(0.00097077703 0.0014136462 651.81105)
(0.0006375973 0.00063759731 651.81104)
(-0.00057874375 0.0003602677 651.8111)
(-0.0015948927 0.0005066013 651.81081)
(-0.00073934652 0.00087578628 651.81076)
(-0.00037068241 0.0012723455 651.81087)
(-0.00031834687 0.0013422965 651.8107)
(0.00016288299 0.001005471 651.81068)
(0.00016153893 0.00081741106 651.81084)
(1.239075e-05 0.00051441945 651.81121)
(-2.4477657e-06 -0.00036067676 651.81118)
(0.00036026769 -0.00057874375 651.8111)
(-0.00049167277 -0.00049167277 651.81119)
(-0.001273899 -0.00021671508 651.81096)
(-0.00028284638 0.00018962405 651.81103)
(3.1670271e-05 0.00068347847 651.81129)
(-0.00026076873 0.0011017044 651.81119)
(-0.00017527486 0.0012368466 651.81114)
(-6.0943156e-07 0.0011494051 651.81122)
(-8.8902088e-05 -0.0017328534 651.81088)
(-0.00012238616 -0.0017894176 651.81083)
(0.00050660129 -0.0015948927 651.81081)
(-0.00021671508 -0.001273899 651.81096)
(-0.00091359584 -0.00091359584 651.81082)
(0.00016084704 -0.00053469781 651.811)
(0.0005413979 -0.00012101848 651.81139)
(0.00023502126 0.0003070622 651.81142)
(0.00021058373 0.00068018896 651.81146)
(0.00010324459 0.00093719995 651.81161)
(-2.5318752e-05 -0.0012444412 651.81065)
(0.00013551294 -0.0010485906 651.81068)
(0.00087578628 -0.00073934652 651.81076)
(0.00018962405 -0.00028284638 651.81103)
(-0.00053469781 0.00016084703 651.811)
(0.00050973097 0.00050973097 651.81128)
(0.00087343027 0.00078426737 651.81175)
(0.00054043871 0.00099584101 651.81186)
(0.00045486289 0.0011362708 651.81195)
(0.00017073123 0.0011826325 651.81211)
(4.1665022e-05 -0.00050792167 651.81061)
(0.00038270854 -0.00043483992 651.81069)
(0.0012723455 -0.00037068241 651.81087)
(0.00068347847 3.1670263e-05 651.81129)
(-0.00012101849 0.00054139789 651.81139)
(0.00078426738 0.00087343027 651.81175)
(0.0010275079 0.0010275079 651.81226)
(0.00058702464 0.0010320735 651.81238)
(0.00039737521 0.00092096461 651.81243)
(0.00013415242 0.00072698203 651.81251)
(2.3402415e-05 -0.00015997872 651.81056)
(0.00027275219 6.1056937e-06 651.81057)
(0.0013422965 -0.00031834688 651.8107)
(0.0011017044 -0.00026076874 651.81119)
(0.0003070622 0.00023502126 651.81142)
(0.00099584101 0.0005404387 651.81186)
(0.0010320735 0.00058702464 651.81238)
(0.00043389539 0.00043389539 651.81242)
(0.00014977144 0.0002211316 651.81237)
(4.1409512e-05 0.00012678549 651.81233)
(0.00015238796 -0.00036735189 651.81057)
(0.00022434038 0.00034961055 651.81067)
(0.001005471 0.00016288299 651.81068)
(0.0012368466 -0.00017527487 651.81114)
(0.00068018895 0.00021058373 651.81146)
(0.0011362708 0.0004548629 651.81195)
(0.00092096462 0.00039737521 651.81243)
(0.0002211316 0.00014977143 651.81237)
(9.0265308e-05 9.0265306e-05 651.81227)
(7.1255012e-05 7.2762384e-05 651.81246)
(0.00050137738 -0.00022422553 651.81034)
(0.00080298707 0.00012476389 651.81074)
(0.00081741105 0.00016153893 651.81084)
(0.0011494051 -6.0943345e-07 651.81122)
(0.00093719996 0.00010324459 651.81161)
(0.0011826325 0.00017073124 651.81211)
(0.00072698202 0.00013415242 651.81251)
(0.00012678549 4.1409508e-05 651.81233)
(7.276239e-05 7.125501e-05 651.81246)
(2.9740897e-05 2.9740896e-05 651.81246)
(0.00034251653 0.00034251653 654.28324)
(0.00018252317 -0.00022784653 654.28332)
(0.0012238991 0.00053390439 654.28321)
(0.00055416049 -1.3729173e-05 654.28358)
(-0.0019474038 -0.00011802732 654.28337)
(-0.0013211749 -2.6083699e-05 654.28327)
(-0.00052483686 6.3553574e-05 654.28334)
(-0.00018443753 2.1492078e-05 654.28333)
(-0.00048214761 0.00018016535 654.28334)
(-0.00029852371 0.00062749445 654.28314)
(-0.00022784653 0.00018252317 654.28332)
(0.00046960496 0.00046960496 654.28319)
(0.0015450751 0.0010203568 654.28332)
(-0.00042373707 -7.6473784e-05 654.2835)
(-0.0019659356 -0.00017703262 654.28328)
(-0.0010488036 0.00017678664 654.28327)
(-0.00045347319 0.00050781171 654.28341)
(-9.5198667e-06 0.00033769778 654.28334)
(0.00042685595 0.00027924496 654.28343)
(0.00014880539 0.0010455966 654.28351)
(0.00053390439 0.0012238991 654.28321)
(0.0010203568 0.0015450751 654.28332)
(0.00067782034 0.00067782035 654.28332)
(-0.00064322895 0.00038518957 654.28346)
(-0.0016941434 0.00059203617 654.28329)
(-0.0006363306 0.00107307 654.28338)
(-0.00036392571 0.0015892132 654.28362)
(-0.00041300427 0.0016727735 654.28349)
(0.00022575117 0.0012612627 654.28348)
(0.00021237735 0.0010772595 654.28364)
(-1.3729173e-05 0.00055416049 654.28358)
(-7.6473788e-05 -0.00042373707 654.2835)
(0.00038518956 -0.00064322894 654.28346)
(-0.00050952125 -0.00050952124 654.28362)
(-0.0012780551 -0.00015312077 654.28352)
(-5.1626524e-05 0.00036512371 654.28373)
(0.00014623033 0.00099160903 654.2841)
(-0.00033747042 0.0015093752 654.28405)
(-0.00016865812 0.0016695781 654.284)
(2.6136591e-05 0.0015724761 654.28408)
(-0.00011802732 -0.0019474038 654.28337)
(-0.00017703261 -0.0019659356 654.28328)
(0.00059203616 -0.0016941433 654.28329)
(-0.00015312079 -0.0012780551 654.28352)
(-0.0008194984 -0.0008194984 654.28351)
(0.00050839921 -0.00034072782 654.28383)
(0.00078032582 0.00017711529 654.28432)
(0.00026496484 0.00070051657 654.28439)
(0.00028885204 0.0011404138 654.28442)
(0.00014764266 0.00142925 654.28455)
(-2.6083696e-05 -0.0013211749 654.28327)
(0.00017678665 -0.0010488036 654.28327)
(0.00107307 -0.0006363306 654.28338)
(0.0003651237 -5.1626521e-05 654.28373)
(-0.00034072782 0.00050839921 654.28383)
(0.00094498717 0.00094498717 654.28423)
(0.0011874747 0.0012806077 654.2848)
(0.00062582811 0.0015236412 654.28493)
(0.00056007528 0.0016602486 654.28501)
(0.00021869401 0.0016634785 654.28514)
(6.3553568e-05 -0.00052483686 654.28334)
(0.00050781172 -0.0004534732 654.28341)
(0.0015892132 -0.00036392573 654.28362)
(0.00099160902 0.00014623032 654.2841)
(0.00017711529 0.00078032582 654.28432)
(0.0012806077 0.0011874747 654.2848)
(0.0013589798 0.0013589798 654.28541)
(0.00064460574 0.0013232916 654.28553)
(0.00042868938 0.001125944 654.28555)
(0.00014979593 0.00081987147 654.28558)
(2.1492081e-05 -0.00018443754 654.28333)
(0.00033769778 -9.5198686e-06 654.28334)
(0.0016727735 -0.00041300429 654.28349)
(0.0015093752 -0.00033747043 654.28405)
(0.00070051656 0.00026496484 654.28439)
(0.0015236412 0.00062582811 654.28493)
(0.0013232916 0.00064460572 654.28553)
(0.00039279228 0.00039279227 654.28557)
(5.6655107e-05 9.7519908e-05 654.28545)
(1.4645658e-05 8.088899e-05 654.28534)
(0.00018016535 -0.00048214761 654.28334)
(0.00027924496 0.00042685594 654.28343)
(0.0012612627 0.00022575117 654.28348)
(0.0016695782 -0.00016865813 654.284)
(0.0011404138 0.00028885204 654.28442)
(0.0016602486 0.00056007529 654.28501)
(0.001125944 0.00042868937 654.28555)
(9.751992e-05 5.6655099e-05 654.28545)
(0.0001167861 0.00011678609 654.28527)
(0.00013870865 0.00013742643 654.28547)
(0.00062749445 -0.00029852371 654.28314)
(0.0010455966 0.00014880539 654.28351)
(0.0010772595 0.00021237736 654.28364)
(0.0015724761 2.6136591e-05 654.28408)
(0.00142925 0.00014764266 654.28455)
(0.0016634785 0.00021869401 654.28514)
(0.00081987146 0.00014979593 654.28558)
(8.0888995e-05 1.464566e-05 654.28534)
(0.00013742644 0.00013870865 654.28547)
(2.8405888e-05 2.8405885e-05 654.28546)
(0.00036243849 0.00036243849 657.3451)
(0.0001627529 -0.00027229932 657.34516)
(0.0013740282 0.00056936351 657.34508)
(0.0006774541 -3.8828346e-05 657.34551)
(-0.0020408902 -0.00014471861 657.3454)
(-0.0012757378 -2.4046021e-05 657.34542)
(-0.00044583738 8.9508148e-05 657.34559)
(-0.00015805894 2.5378898e-05 657.34566)
(-0.00056251421 0.00021441744 657.3457)
(-0.00035864407 0.00075242263 657.34554)
(-0.00027229932 0.0001627529 657.34516)
(0.00047314042 0.00047314043 657.34504)
(0.0017242347 0.0010848328 657.3452)
(-0.00039366909 -0.0001242593 657.34544)
(-0.0020187167 -0.00020252101 657.34534)
(-0.00092439763 0.00024683172 657.34544)
(-0.0003717 0.00066204528 657.34568)
(2.9304997e-05 0.00043305118 657.34568)
(0.00052805139 0.00036816186 657.34581)
(0.00017936112 0.0013069124 657.34592)
(0.00056936351 0.0013740282 657.34508)
(0.0010848328 0.0017242347 657.3452)
(0.00077662852 0.00077662852 657.34524)
(-0.00060989968 0.00047430493 657.34545)
(-0.0016697992 0.00074232972 657.34539)
(-0.00041117149 0.0013326228 657.34559)
(-0.00025961792 0.0019637859 657.34593)
(-0.00045194235 0.0020553724 657.34588)
(0.00031134699 0.0015697634 657.34591)
(0.00026718961 0.001385003 657.34608)
(-3.8828344e-05 0.0006774541 657.34551)
(-0.00012425931 -0.00039366908 657.34544)
(0.00047430492 -0.00060989967 657.34545)
(-0.00042796789 -0.0004279679 657.34568)
(-0.0011603988 8.696776e-06 657.34569)
(0.00029705854 0.00063519834 657.34601)
(0.00035104958 0.0013880929 657.34648)
(-0.00036471747 0.0019962822 657.34649)
(-0.00014231804 0.0021741879 657.34647)
(5.6187491e-05 0.0020619006 657.34657)
(-0.00014471861 -0.0020408902 657.3454)
(-0.00020252101 -0.0020187167 657.34534)
(0.0007423297 -0.0016697992 657.34539)
(8.6967693e-06 -0.0011603988 657.34569)
(-0.00060663296 -0.00060663296 657.34579)
(0.00096822467 -3.234905e-05 657.34621)
(0.0011014659 0.00058341915 657.34679)
(0.00033415256 0.0011930508 657.34692)
(0.00037696547 0.001689008 657.34697)
(0.00019233147 0.0019997213 657.34711)
(-2.4046017e-05 -0.0012757378 657.34542)
(0.00024683171 -0.00092439763 657.34544)
(0.0013326228 -0.0004111715 657.34559)
(0.00063519834 0.00029705855 657.34601)
(-3.2349048e-05 0.00096822468 657.34621)
(0.0014871107 0.0014871107 657.34671)
(0.0015764494 0.0018772176 657.34737)
(0.00074087137 0.0021424173 657.34755)
(0.00066435249 0.0022625245 657.34764)
(0.00026332972 0.0022079744 657.34777)
(8.9508148e-05 -0.00044583738 657.34559)
(0.00066204527 -0.00037170001 657.34568)
(0.0019637859 -0.00025961792 657.34593)
(0.0013880929 0.00035104959 657.34648)
(0.00058341916 0.0011014659 657.34679)
(0.0018772176 0.0015764494 657.34737)
(0.0017567725 0.0017567725 657.34805)
(0.00071945948 0.0016676281 657.34822)
(0.0004425226 0.0013642818 657.34824)
(0.00015596476 0.00092209372 657.34825)
(2.5378898e-05 -0.00015805894 657.34566)
(0.00043305118 2.930499e-05 657.34568)
(0.0020553724 -0.00045194236 657.34588)
(0.0019962822 -0.00036471747 657.34649)
(0.0011930508 0.00033415257 657.34692)
(0.0021424173 0.00074087137 657.34755)
(0.0016676281 0.00071945948 657.34822)
(0.00034838069 0.0003483807 657.34829)
(-8.118185e-05 -5.305051e-05 657.34815)
(-3.1462357e-05 1.3367512e-05 657.348)
(0.00021441744 -0.00056251422 657.3457)
(0.00036816186 0.00052805138 657.34581)
(0.0015697634 0.00031134699 657.34591)
(0.0021741879 -0.00014231806 657.34647)
(0.001689008 0.00037696545 657.34697)
(0.0022625245 0.00066435249 657.34764)
(0.0013642818 0.0004425226 657.34824)
(-5.3050506e-05 -8.1181862e-05 657.34815)
(0.00010750942 0.00010750942 657.34794)
(0.00020024344 0.00018959389 657.34812)
(0.00075242263 -0.00035864407 657.34554)
(0.0013069124 0.00017936112 657.34592)
(0.001385003 0.00026718961 657.34608)
(0.0020619006 5.6187486e-05 657.34657)
(0.0019997213 0.00019233147 657.34711)
(0.0022079744 0.00026332972 657.34777)
(0.00092209371 0.00015596475 657.34825)
(1.3367514e-05 -3.1462366e-05 657.348)
(0.0001895939 0.00020024343 657.34812)
(2.3260626e-05 2.3260623e-05 657.3481)
(0.00038558296 0.00038558296 660.97783)
(0.00017232168 -0.00030774925 660.9779)
(0.0015708354 0.0006094951 660.97788)
(0.00087007057 -5.5130215e-05 660.97833)
(-0.0020364903 -0.00016182754 660.97831)
(-0.0011327988 -1.3072789e-05 660.97842)
(-0.00028284625 0.00012389764 660.97867)
(-7.3509029e-05 3.7989683e-05 660.97881)
(-0.00060442406 0.00025616705 660.97889)
(-0.00040709013 0.00087943969 660.97875)
(-0.00030774925 0.00017232169 660.9779)
(0.00050818989 0.00050818989 660.97781)
(0.001949764 0.0011793897 660.978)
(-0.00028691339 -0.00013319019 660.9783)
(-0.0019734042 -0.00018809693 660.97827)
(-0.00070421104 0.00035415241 660.97846)
(-0.00020625254 0.00085074133 660.97878)
(0.00012489508 0.00056248374 660.97885)
(0.00065775095 0.00049063526 660.97902)
(0.00021618252 0.0015905113 660.97914)
(0.0006094951 0.0015708354 660.97788)
(0.0011793897 0.001949764 660.978)
(0.00092945535 0.00092945535 660.97809)
(-0.00049741607 0.00062066244 660.97835)
(-0.0015491477 0.00094884224 660.97837)
(-9.3960548e-05 0.0016445588 660.97866)
(-7.451492e-05 0.0023855081 660.97907)
(-0.0004336151 0.0024810339 660.97909)
(0.00042360349 0.0019216549 660.97916)
(0.00032616056 0.0017329663 660.97934)
(-5.5130213e-05 0.00087007058 660.97833)
(-0.00013319019 -0.00028691338 660.9783)
(0.00062066243 -0.00049741607 660.97835)
(-0.00026752651 -0.0002675265 660.97863)
(-0.00094950788 0.0002469088 660.97873)
(0.00073245486 0.00097716955 660.97912)
(0.00063022257 0.0018500838 660.97966)
(-0.00033895814 0.0025413041 660.97973)
(-9.0316627e-05 0.0027319 660.97975)
(9.0390098e-05 0.002601305 660.97986)
(-0.00016182754 -0.0020364903 660.97831)
(-0.00018809694 -0.0019734042 660.97827)
(0.00094884223 -0.0015491477 660.97837)
(0.0002469088 -0.00094950788 660.97873)
(-0.00030445169 -0.00030445169 660.9789)
(0.0015092145 0.00036055251 660.9794)
(0.0014896197 0.0010682361 660.98004)
(0.00044820102 0.001756687 660.98022)
(0.00048360434 0.0023011581 660.9803)
(0.00023909725 0.0026276373 660.98045)
(-1.3072791e-05 -0.0011327988 660.97842)
(0.0003541524 -0.00070421104 660.97846)
(0.0016445588 -9.396055e-05 660.97866)
(0.00097716955 0.00073245486 660.97912)
(0.00036055251 0.0015092145 660.9794)
(0.0021051426 0.0021051426 660.97997)
(0.0020263571 0.0025442641 660.98068)
(0.0008939639 0.0028253476 660.98091)
(0.00078063366 0.0029218612 660.98102)
(0.00030804291 0.0028026878 660.98115)
(0.00012389764 -0.00028284627 660.97867)
(0.00085074133 -0.00020625255 660.97878)
(0.0023855081 -7.4514917e-05 660.97907)
(0.0018500838 0.00063022258 660.97966)
(0.0010682361 0.0014896197 660.98004)
(0.0025442641 0.0020263571 660.98068)
(0.0022098246 0.0022098246 660.98142)
(0.0008257981 0.0020603897 660.98162)
(0.00046094463 0.0016416965 660.98166)
(0.00015964837 0.0010516216 660.98167)
(3.7989687e-05 -7.3509039e-05 660.97881)
(0.00056248375 0.00012489507 660.97885)
(0.0024810339 -0.0004336151 660.97909)
(0.0025413041 -0.00033895813 660.97973)
(0.001756687 0.00044820102 660.98022)
(0.0028253475 0.0008939639 660.98091)
(0.0020603897 0.0008257981 660.98162)
(0.00032583584 0.00032583585 660.98173)
(-0.00022813445 -0.00019537818 660.9816)
(-8.534039e-05 -5.2388073e-05 660.98144)
(0.00025616705 -0.00060442406 660.97889)
(0.00049063527 0.00065775095 660.97902)
(0.0019216549 0.00042360349 660.97916)
(0.0027319 -9.0316636e-05 660.97975)
(0.0023011581 0.00048360433 660.9803)
(0.0029218611 0.00078063365 660.98102)
(0.0016416965 0.00046094463 660.98166)
(-0.00019537818 -0.00022813445 660.9816)
(8.2720706e-05 8.2720711e-05 660.98139)
(0.00025497511 0.00023168456 660.98155)
(0.00087943969 -0.00040709013 660.97875)
(0.0015905113 0.00021618252 660.97914)
(0.0017329663 0.00032616055 660.97934)
(0.002601305 9.0390096e-05 660.97986)
(0.0026276373 0.00023909725 660.98045)
(0.0028026878 0.00030804291 660.98115)
(0.0010516216 0.00015964837 660.98167)
(-5.2388076e-05 -8.5340391e-05 660.98144)
(0.00023168456 0.00025497511 660.98155)
(1.3968841e-05 1.3968843e-05 660.98152)
(0.00041356136 0.00041356136 665.15918)
(0.00021072737 -0.00033395806 665.15927)
(0.0018029291 0.00065336648 665.15928)
(0.0011137095 -6.3549419e-05 665.15975)
(-0.001956063 -0.00017041689 665.1598)
(-0.00091720649 5.4438465e-06 665.15997)
(-5.7589239e-05 0.00016490015 665.16028)
(5.731068e-05 5.7485183e-05 665.16047)
(-0.00061508475 0.00030315061 665.16058)
(-0.0004466713 0.0010070286 665.16047)
(-0.00033395807 0.00021072737 665.15927)
(0.00057043505 0.00057043505 665.1592)
(0.002208542 0.0012975126 665.15941)
(-0.0001219656 -0.00011017679 665.15974)
(-0.0018525731 -0.00014134925 665.15978)
(-0.00041423094 0.00049024705 665.16004)
(2.0472766e-05 0.0010646209 665.16041)
(0.00026468638 0.00071755973 665.16053)
(0.00080923035 0.00063796025 665.16072)
(0.00025720668 0.0018898055 665.16085)
(0.00065336648 0.0018029291 665.15928)
(0.0012975126 0.002208542 665.15941)
(0.0011223172 0.0011223172 665.15953)
(-0.00032515244 0.00080934352 665.15982)
(-0.0013556392 0.0011957242 665.15992)
(0.00028876362 0.0019922214 665.16026)
(0.00016972344 0.0028374453 665.16073)
(-0.00036934993 0.0029343417 665.16079)