/*--------------------------------*- C++ -*----------------------------------*\
| =========                 |                                                 |
| \\      /  F ield         | OpenFOAM: The Open Source CFD Toolbox           |
|  \\    /   O peration     | Version:  v2106                                 |
|   \\  /    A nd           | Website:  www.openfoam.com                      |
|    \\/     M anipulation  |                                                 |
\*---------------------------------------------------------------------------*/
FoamFile
{
    version     2.0;
    format      ascii;
    arch        "LSB;label=32;scalar=64";
    class       volScalarField;
    location    "17.5";
    object      gradTz;
}
// * * * * * * * * * * * * * * * * * * * * * * * * * * * * * * * * * * * * * //

dimensions      [0 -1 0 1 0 0 0];

internalField   nonuniform List<scalar> 
4000
(
648.01163
648.01134
648.01077
648.01244
648.01185
648.01115
648.01081
648.01071
648.01067
648.01062
648.01134
648.01051
648.01142
648.01232
648.01153
648.01087
648.0106
648.01055
648.0106
648.01077
648.01077
648.01142
648.01171
648.01234
648.01154
648.01096
648.01077
648.01069
648.01061
648.01077
648.01244
648.01232
648.01234
648.01293
648.01219
648.01173
648.01168
648.01168
648.01152
648.01144
648.01185
648.01153
648.01154
648.01219
648.01155
648.0112
648.0113
648.01148
648.01148
648.01152
648.01115
648.01087
648.01096
648.01173
648.0112
648.01097
648.01117
648.01145
648.01155
648.01168
648.01081
648.0106
648.01077
648.01168
648.0113
648.01117
648.01144
648.01176
648.01189
648.01202
648.01071
648.01055
648.01069
648.01168
648.01148
648.01145
648.01176
648.01208
648.01217
648.01225
648.01067
648.0106
648.01061
648.01152
648.01148
648.01155
648.01189
648.01217
648.01219
648.01221
648.01062
648.01077
648.01077
648.01144
648.01152
648.01168
648.01202
648.01225
648.01221
648.01224
648.69113
648.69154
648.6915
648.69223
648.69171
648.69118
648.69094
648.69086
648.69082
648.69062
648.69154
648.69157
648.69196
648.6923
648.6917
648.69123
648.69104
648.69097
648.69106
648.69116
648.6915
648.69196
648.69211
648.69231
648.69172
648.69133
648.69123
648.6911
648.69105
648.69117
648.69223
648.6923
648.69231
648.69249
648.69196
648.69169
648.69173
648.69169
648.69158
648.69156
648.69171
648.6917
648.69172
648.69196
648.69153
648.69138
648.69155
648.69167
648.69169
648.69176
648.69118
648.69123
648.69133
648.69169
648.69138
648.69132
648.6916
648.69181
648.69192
648.69206
648.69094
648.69104
648.69123
648.69173
648.69155
648.6916
648.69194
648.69218
648.6923
648.69241
648.69086
648.69097
648.6911
648.69169
648.69167
648.69181
648.69218
648.69241
648.69247
648.6925
648.69082
648.69106
648.69105
648.69158
648.69169
648.69192
648.6923
648.69247
648.69247
648.69248
648.69062
648.69116
648.69117
648.69156
648.69176
648.69206
648.69241
648.6925
648.69248
648.69252
649.94272
649.94322
649.94323
649.9436
649.94316
649.94278
649.94264
649.94258
649.94258
649.94231
649.94322
649.94326
649.9435
649.94362
649.94314
649.94283
649.94274
649.94262
649.94274
649.94282
649.94323
649.9435
649.94356
649.9436
649.94316
649.94295
649.94295
649.94277
649.94275
649.94288
649.9436
649.94362
649.9436
649.94364
649.94327
649.94318
649.94332
649.94324
649.94318
649.94323
649.94316
649.94314
649.94316
649.94327
649.94298
649.943
649.94328
649.94334
649.9434
649.94352
649.94278
649.94283
649.94295
649.94318
649.943
649.94313
649.9435
649.94364
649.94377
649.94393
649.94264
649.94274
649.94295
649.94332
649.94328
649.9435
649.94392
649.94408
649.94419
649.9443
649.94258
649.94262
649.94277
649.94324
649.94334
649.94364
649.94408
649.94421
649.94424
649.94425
649.94258
649.94274
649.94275
649.94318
649.9434
649.94377
649.94419
649.94424
649.94421
649.94431
649.94231
649.94282
649.94288
649.94323
649.94352
649.94393
649.9443
649.94425
649.94431
649.94432
651.81075
651.81098
651.81088
651.81121
651.81088
651.81065
651.81061
651.81056
651.81057
651.81034
651.81098
651.81092
651.81105
651.81118
651.81083
651.81068
651.81069
651.81057
651.81067
651.81074
651.81088
651.81105
651.81104
651.8111
651.81081
651.81076
651.81087
651.8107
651.81068
651.81084
651.81121
651.81118
651.8111
651.81119
651.81096
651.81103
651.81129
651.81119
651.81114
651.81122
651.81088
651.81083
651.81081
651.81096
651.81082
651.811
651.81139
651.81142
651.81146
651.81161
651.81065
651.81068
651.81076
651.81103
651.811
651.81128
651.81175
651.81186
651.81195
651.81211
651.81061
651.81069
651.81087
651.81129
651.81139
651.81175
651.81226
651.81238
651.81243
651.81251
651.81056
651.81057
651.8107
651.81119
651.81142
651.81186
651.81238
651.81242
651.81237
651.81233
651.81057
651.81067
651.81068
651.81114
651.81146
651.81195
651.81243
651.81237
651.81227
651.81246
651.81034
651.81074
651.81084
651.81122
651.81161
651.81211
651.81251
651.81233
651.81246
651.81246
654.28324
654.28332
654.28321
654.28358
654.28337
654.28327
654.28334
654.28333
654.28334
654.28314
654.28332
654.28319
654.28332
654.2835
654.28328
654.28327
654.28341
654.28334
654.28343
654.28351
654.28321
654.28332
654.28332
654.28346
654.28329
654.28338
654.28362
654.28349
654.28348
654.28364
654.28358
654.2835
654.28346
654.28362
654.28352
654.28373
654.2841
654.28405
654.284
654.28408
654.28337
654.28328
654.28329
654.28352
654.28351
654.28383
654.28432
654.28439
654.28442
654.28455
654.28327
654.28327
654.28338
654.28373
654.28383
654.28423
654.2848
654.28493
654.28501
654.28514
654.28334
654.28341
654.28362
654.2841
654.28432
654.2848
654.28541
654.28553
654.28555
654.28558
654.28333
654.28334
654.28349
654.28405
654.28439
654.28493
654.28553
654.28557
654.28545
654.28534
654.28334
654.28343
654.28348
654.284
654.28442
654.28501
654.28555
654.28545
654.28527
654.28547
654.28314
654.28351
654.28364
654.28408
654.28455
654.28514
654.28558
654.28534
654.28547
654.28546
657.3451
657.34516
657.34508
657.34551
657.3454
657.34542
657.34559
657.34566
657.3457
657.34554
657.34516
657.34504
657.3452
657.34544
657.34534
657.34544
657.34568
657.34568
657.34581
657.34592
657.34508
657.3452
657.34524
657.34545
657.34539
657.34559
657.34593
657.34588
657.34591
657.34608
657.34551
657.34544
657.34545
657.34568
657.34569
657.34601
657.34648
657.34649
657.34647
657.34657
657.3454
657.34534
657.34539
657.34569
657.34579
657.34621
657.34679
657.34692
657.34697
657.34711
657.34542
657.34544
657.34559
657.34601
657.34621
657.34671
657.34737
657.34755
657.34764
657.34777
657.34559
657.34568
657.34593
657.34648
657.34679
657.34737
657.34805
657.34822
657.34824
657.34825
657.34566
657.34568
657.34588
657.34649
657.34692
657.34755
657.34822
657.34829
657.34815
657.348
657.3457
657.34581
657.34591
657.34647
657.34697
657.34764
657.34824
657.34815
657.34794
657.34812
657.34554
657.34592
657.34608
657.34657
657.34711
657.34777
657.34825
657.348
657.34812
657.3481
660.97783
660.9779
660.97788
660.97833
660.97831
660.97842
660.97867
660.97881
660.97889
660.97875
660.9779
660.97781
660.978
660.9783
660.97827
660.97846
660.97878
660.97885
660.97902
660.97914
660.97788
660.978
660.97809
660.97835
660.97837
660.97866
660.97907
660.97909
660.97916
660.97934
660.97833
660.9783
660.97835
660.97863
660.97873
660.97912
660.97966
660.97973
660.97975
660.97986
660.97831
660.97827
660.97837
660.97873
660.9789
660.9794
660.98004
660.98022
660.9803
660.98045
660.97842
660.97846
660.97866
660.97912
660.9794
660.97997
660.98068
660.98091
660.98102
660.98115
660.97867
660.97878
660.97907
660.97966
660.98004
660.98068
660.98142
660.98162
660.98166
660.98167
660.97881
660.97885
660.97909
660.97973
660.98022
660.98091
660.98162
660.98173
660.9816
660.98144
660.97889
660.97902
660.97916
660.97975
660.9803
660.98102
660.98166
660.9816
660.98139
660.98155
660.97875
660.97914
660.97934
660.97986
660.98045
660.98115
660.98167
660.98144
660.98155
660.98152
665.15918
665.15927
665.15928
665.15975
665.1598
665.15997
665.16028
665.16047
665.16058
665.16047
665.15927
665.1592
665.15941
665.15974
665.15978
665.16004
665.16041
665.16053
665.16072
665.16085
665.15928
665.15941
665.15953
665.15982
665.15992
665.16026
665.16073
665.16079
665.16089
665.16108
665.15975
665.15974
665.15982
665.16014
665.1603
665.16075
665.16133
665.16145
665.1615
665.16162
665.1598
665.15978
665.15992
665.1603
665.16054
665.16108
665.16176
665.16198
665.16209
665.16224
665.15997
665.16004
665.16026
665.16075
665.16108
665.1617
665.16244
665.1627
665.16283
665.16297
665.16028
665.16041
665.16073
665.16133
665.16176
665.16244
665.16321
665.16344
665.1635
665.16351
665.16047
665.16053
665.16079
665.16145
665.16198
665.1627
665.16344
665.16357
665.16347
665.1633
665.16058
665.16072
665.16089
665.1615
665.16209
665.16283
665.1635
665.16347
665.16327
665.16342
665.16047
665.16085
665.16108
665.16162
665.16224
665.16297
665.16351
665.1633
665.16342
665.16339
669.86344
669.86354
669.86358
669.86406
669.86416
669.86438
669.86473
669.86495
669.86508
669.865
669.86354
669.86349
669.86371
669.86406
669.86416
669.86446
669.86487
669.86503
669.86523
669.86537
669.86358
669.86371
669.86385
669.86417
669.86431
669.8647
669.8652
669.8653
669.86542
669.86561
669.86406
669.86406
669.86417
669.86451
669.86472
669.8652
669.86581
669.86596
669.86604
669.86616
669.86416
669.86416
669.86431
669.86472
669.865
669.86557
669.86627
669.86651
669.86664
669.86679
669.86438
669.86446
669.8647
669.8652
669.86557
669.86621
669.86697
669.86725
669.86739
669.86753
669.86473
669.86487
669.8652
669.86581
669.86627
669.86697
669.86774
669.868
669.86807
669.86808
669.86495
669.86503
669.8653
669.86596
669.86651
669.86725
669.868
669.86815
669.86806
669.86791
669.86508
669.86523
669.86542
669.86604
669.86664
669.86739
669.86807
669.86806
669.86788
669.86803
669.865
669.86537
669.86561
669.86616
669.86679
669.86753
669.86808
669.86791
669.86803
669.868
675.06169
675.06178
675.06184
675.06232
675.06246
675.06272
675.0631
675.06334
675.06349
675.06342
675.06178
675.06175
675.06198
675.06233
675.06247
675.06281
675.06324
675.06343
675.06364
675.06378
675.06184
675.06198
675.06213
675.06246
675.06264
675.06306
675.06357
675.06371
675.06384
675.06403
675.06232
675.06233
675.06246
675.06281
675.06306
675.06356
675.06418
675.06436
675.06445
675.06458
675.06246
675.06247
675.06264
675.06306
675.06337
675.06396
675.06466
675.06491
675.06506
675.06521
675.06272
675.06281
675.06306
675.06356
675.06396
675.06461
675.06536
675.06565
675.06581
675.06595
675.0631
675.06324
675.06357
675.06418
675.06466
675.06536
675.06613
675.0664
675.06648
675.0665
675.06334
675.06343
675.06371
675.06436
675.06491
675.06565
675.0664
675.06656
675.06649
675.06634
675.06349
675.06364
675.06384
675.06445
675.06506
675.06581
675.06648
675.06649
675.06633
675.06647
675.06342
675.06378
675.06403
675.06458
675.06521
675.06595
675.0665
675.06634
675.06647
675.06644
680.72195
680.72204
680.72212
680.72258
680.72275
680.72305
680.72344
680.72369
680.72385
680.7238
680.72204
680.72202
680.72225
680.7226
680.72277
680.72314
680.72358
680.72378
680.72401
680.72414
680.72212
680.72225
680.7224
680.72274
680.72295
680.72339
680.72391
680.72407
680.72421
680.7244
680.72258
680.7226
680.72274
680.72309
680.72337
680.72389
680.7245
680.72469
680.7248
680.72493
680.72275
680.72277
680.72295
680.72337
680.7237
680.72429
680.72499
680.72525
680.7254
680.72555
680.72305
680.72314
680.72339
680.72389
680.72429
680.72495
680.72569
680.72598
680.72614
680.72627
680.72344
680.72358
680.72391
680.7245
680.72499
680.72569
680.72644
680.7267
680.72679
680.72681
680.72369
680.72378
680.72407
680.72469
680.72525
680.72598
680.7267
680.72688
680.72682
680.72668
680.72385
680.72401
680.72421
680.7248
680.7254
680.72614
680.72679
680.72682
680.72668
680.72682
680.7238
680.72414
680.7244
680.72493
680.72555
680.72627
680.72681
680.72668
680.72682
680.72679
686.80942
686.80951
686.8096
686.81004
686.81024
686.81055
686.81095
686.81122
686.81138
686.81134
686.80951
686.80951
686.80972
686.81006
686.81027
686.81064
686.8111
686.81131
686.81153
686.81166
686.8096
686.80972
686.80988
686.81021
686.81045
686.8109
686.81142
686.81158
686.81174
686.81192
686.81004
686.81006
686.81021
686.81056
686.81085
686.81138
686.81198
686.81218
686.8123
686.81243
686.81024
686.81027
686.81045
686.81085
686.8112
686.81179
686.81247
686.81273
686.81289
686.81303
686.81055
686.81064
686.8109
686.81138
686.81179
686.81243
686.81315
686.81344
686.8136
686.81373
686.81095
686.8111
686.81142
686.81198
686.81247
686.81315
686.81387
686.81414
686.81423
686.81425
686.81122
686.81131
686.81158
686.81218
686.81273
686.81344
686.81414
686.81431
686.81427
686.81414
686.81138
686.81153
686.81174
686.8123
686.81289
686.8136
686.81423
686.81427
686.81414
686.81427
686.81134
686.81166
686.81192
686.81243
686.81303
686.81373
686.81425
686.81414
686.81427
686.81426
693.28667
693.28675
693.28686
693.28726
693.28748
693.28781
693.28821
693.28848
693.28865
693.28862
693.28675
693.28676
693.28696
693.28729
693.28752
693.2879
693.28835
693.28857
693.28879
693.28892
693.28686
693.28696
693.28712
693.28744
693.2877
693.28815
693.28866
693.28884
693.28899
693.28917
693.28726
693.28729
693.28744
693.28778
693.28809
693.28861
693.28919
693.2894
693.28952
693.28965
693.28748
693.28752
693.2877
693.28809
693.28845
693.28902
693.28967
693.28993
693.29009
693.29023
693.28781
693.2879
693.28815
693.28861
693.28902
693.28965
693.29033
693.29062
693.29077
693.2909
693.28821
693.28835
693.28866
693.28919
693.28967
693.29033
693.29102
693.29128
693.29137
693.29139
693.28848
693.28857
693.28884
693.2894
693.28993
693.29062
693.29128
693.29145
693.29141
693.2913
693.28865
693.28879
693.28899
693.28952
693.29009
693.29077
693.29137
693.29141
693.2913
693.29143
693.28862
693.28892
693.28917
693.28965
693.29023
693.2909
693.29139
693.2913
693.29143
693.29141
700.11385
700.11393
700.11404
700.11441
700.11464
700.11498
700.11538
700.11565
700.11582
700.1158
700.11393
700.11394
700.11413
700.11444
700.11469
700.11508
700.11552
700.11574
700.11595
700.11607
700.11404
700.11413
700.11428
700.11459
700.11487
700.11532
700.11581
700.11599
700.11615
700.11631
700.11441
700.11444
700.11459
700.11492
700.11524
700.11574
700.1163
700.11651
700.11664
700.11676
700.11464
700.11469
700.11487
700.11524
700.1156
700.11616
700.11677
700.11703
700.11718
700.11731
700.11498
700.11508
700.11532
700.11574
700.11616
700.11675
700.1174
700.11767
700.11782
700.11794
700.11538
700.11552
700.11581
700.1163
700.11677
700.1174
700.11805
700.11829
700.11838
700.11841
700.11565
700.11574
700.11599
700.11651
700.11703
700.11767
700.11829
700.11846
700.11843
700.11832
700.11582
700.11595
700.11615
700.11664
700.11718
700.11782
700.11838
700.11843
700.11833
700.11846
700.1158
700.11607
700.11631
700.11676
700.11731
700.11794
700.11841
700.11832
700.11846
700.11844
707.24897
707.24904
707.24915
707.24948
707.24973
707.25008
707.25047
707.25073
707.25089
707.25089
707.24904
707.24906
707.24923
707.24952
707.24978
707.25017
707.25059
707.25081
707.25101
707.25113
707.24915
707.24923
707.24938
707.24966
707.24995
707.2504
707.25087
707.25106
707.25121
707.25136
707.24948
707.24952
707.24966
707.24997
707.2503
707.25079
707.25132
707.25152
707.25165
707.25177
707.24973
707.24978
707.24995
707.2503
707.25066
707.25119
707.25177
707.25201
707.25216
707.25229
707.25008
707.25017
707.2504
707.25079
707.25119
707.25176
707.25236
707.25262
707.25276
707.25287
707.25047
707.25059
707.25087
707.25132
707.25177
707.25236
707.25296
707.25319
707.25328
707.2533
707.25073
707.25081
707.25106
707.25152
707.25201
707.25262
707.25319
707.25335
707.25333
707.25323
707.25089
707.25101
707.25121
707.25165
707.25216
707.25276
707.25328
707.25333
707.25325
707.25336
707.25089
707.25113
707.25136
707.25177
707.25229
707.25287
707.2533
707.25323
707.25336
707.25335
714.64811
714.64817
714.64829
714.64857
714.64883
714.64918
714.64956
714.64981
714.64997
714.64998
714.64817
714.6482
714.64835
714.64861
714.64888
714.64927
714.64968
714.64989
714.65008
714.65019
714.64829
714.64835
714.64849
714.64875
714.64905
714.64948
714.64993
714.65012
714.65027
714.6504
714.64857
714.64861
714.64875
714.64904
714.64937
714.64984
714.65033
714.65053
714.65066
714.65077
714.64883
714.64888
714.64905
714.64937
714.64973
714.65023
714.65076
714.65099
714.65113
714.65125
714.64918
714.64927
714.64948
714.64984
714.65023
714.65076
714.65131
714.65155
714.65168
714.65178
714.64956
714.64968
714.64993
714.65033
714.65076
714.65131
714.65186
714.65207
714.65215
714.65217
714.64981
714.64989
714.65012
714.65053
714.65099
714.65155
714.65207
714.65222
714.65221
714.65212
714.64997
714.65008
714.65027
714.65066
714.65113
714.65168
714.65215
714.65221
714.65214
714.65224
714.64998
714.65019
714.6504
714.65077
714.65125
714.65178
714.65217
714.65212
714.65224
714.65223
722.26573
722.26578
722.2659
722.26614
722.26641
722.26675
722.26711
722.26735
722.26751
722.26753
722.26578
722.26582
722.26594
722.26618
722.26646
722.26684
722.26722
722.26743
722.26761
722.2677
722.2659
722.26594
722.26607
722.26632
722.26662
722.26703
722.26745
722.26764
722.26778
722.2679
722.26614
722.26618
722.26632
722.26658
722.2669
722.26735
722.2678
722.268
722.26813
722.26823
722.26641
722.26646
722.26662
722.2669
722.26726
722.26773
722.26821
722.26842
722.26856
722.26866
722.26675
722.26684
722.26703
722.26735
722.26773
722.26822
722.26871
722.26893
722.26905
722.26913
722.26711
722.26722
722.26745
722.2678
722.26821
722.26871
722.2692
722.26939
722.26947
722.26948
722.26735
722.26743
722.26764
722.268
722.26842
722.26893
722.26939
722.26953
722.26952
722.26944
722.26751
722.26761
722.26778
722.26813
722.26856
722.26905
722.26947
722.26952
722.26947
722.26955
722.26753
722.2677
722.2679
722.26823
722.26866
722.26913
722.26948
722.26944
722.26955
722.26955
730.05493
730.05496
730.05509
730.05528
730.05555
730.05589
730.05623
730.05646
730.0566
730.05664
730.05496
730.05501
730.05511
730.05531
730.0556
730.05597
730.05633
730.05653
730.05669
730.05677
730.05509
730.05511
730.05523
730.05545
730.05575
730.05615
730.05653
730.05671
730.05685
730.05696
730.05528
730.05531
730.05545
730.05568
730.056
730.05642
730.05683
730.05702
730.05714
730.05724
730.05555
730.0556
730.05575
730.056
730.05634
730.05678
730.0572
730.0574
730.05753
730.05762
730.05589
730.05597
730.05615
730.05642
730.05678
730.05722
730.05766
730.05785
730.05796
730.05803
730.05623
730.05633
730.05653
730.05683
730.0572
730.05766
730.05808
730.05826
730.05833
730.05834
730.05646
730.05653
730.05671
730.05702
730.0574
730.05785
730.05826
730.05838
730.05838
730.05831
730.0566
730.05669
730.05685
730.05714
730.05753
730.05796
730.05833
730.05838
730.05833
730.05841
730.05664
730.05677
730.05696
730.05724
730.05762
730.05803
730.05834
730.05831
730.05841
730.05841
737.96772
737.96774
737.96787
737.96801
737.96828
737.96861
737.96893
737.96915
737.96928
737.96933
737.96774
737.9678
737.96788
737.96805
737.96834
737.96869
737.96902
737.96921
737.96936
737.96943
737.96787
737.96788
737.96798
737.96817
737.96848
737.96885
737.9692
737.96937
737.9695
737.96959
737.96801
737.96805
737.96817
737.96838
737.96869
737.96908
737.96944
737.96962
737.96974
737.96982
737.96828
737.96834
737.96848
737.96869
737.96902
737.96941
737.96978
737.96996
737.97007
737.97015
737.96861
737.96869
737.96885
737.96908
737.96941
737.96981
737.97018
737.97035
737.97045
737.9705
737.96893
737.96902
737.9692
737.96944
737.96978
737.97018
737.97054
737.97069
737.97075
737.97076
737.96915
737.96921
737.96937
737.96962
737.96996
737.97035
737.97069
737.9708
737.9708
737.97074
737.96928
737.96936
737.9695
737.96974
737.97007
737.97045
737.97075
737.9708
737.97077
737.97084
737.96933
737.96943
737.96959
737.96982
737.97015
737.9705
737.97076
737.97074
737.97084
737.97083
745.95536
745.95537
745.9555
745.95558
745.95586
745.95618
745.95647
745.95667
745.95679
745.95685
745.95537
745.95543
745.95549
745.95562
745.95591
745.95625
745.95655
745.95673
745.95685
745.95691
745.9555
745.95549
745.95558
745.95574
745.95604
745.95638
745.95669
745.95686
745.95699
745.95705
745.95558
745.95562
745.95574
745.95591
745.95622
745.95656
745.95688
745.95704
745.95716
745.95723
745.95586
745.95591
745.95604
745.95622
745.95653
745.95687
745.95719
745.95734
745.95744
745.95751
745.95618
745.95625
745.95638
745.95656
745.95687
745.95722
745.95753
745.95767
745.95776
745.9578
745.95647
745.95655
745.95669
745.95688
745.95719
745.95753
745.95782
745.95795
745.958
745.958
745.95667
745.95673
745.95686
745.95704
745.95734
745.95767
745.95795
745.95804
745.95805
745.958
745.95679
745.95685
745.95699
745.95716
745.95744
745.95776
745.958
745.95805
745.95803
745.95808
745.95685
745.95691
745.95705
745.95723
745.95751
745.9578
745.958
745.958
745.95808
745.95808
753.96862
753.96862
753.96874
753.96877
753.96904
753.96935
753.96962
753.9698
753.96991
753.96997
753.96862
753.96868
753.96871
753.96881
753.9691
753.96941
753.96968
753.96985
753.96995
753.97
753.96874
753.96871
753.96879
753.96892
753.96921
753.96953
753.96979
753.96996
753.97007
753.97012
753.96877
753.96881
753.96892
753.96905
753.96935
753.96966
753.96992
753.97007
753.97018
753.97024
753.96904
753.9691
753.96921
753.96935
753.96964
753.96994
753.97019
753.97032
753.97041
753.97046
753.96935
753.96941
753.96953
753.96966
753.96994
753.97023
753.97047
753.97059
753.97066
753.97068
753.96962
753.96968
753.96979
753.96992
753.97019
753.97047
753.97069
753.97079
753.97084
753.97084
753.9698
753.96985
753.96996
753.97007
753.97032
753.97059
753.97079
753.97087
753.97088
753.97084
753.96991
753.96995
753.97007
753.97018
753.97041
753.97066
753.97084
753.97088
753.97087
753.97091
753.96997
753.97
753.97012
753.97024
753.97046
753.97068
753.97084
753.97084
753.97091
753.97091
761.95809
761.95807
761.95819
761.95817
761.95843
761.95872
761.95896
761.95912
761.95922
761.95929
761.95807
761.95814
761.95814
761.95821
761.95849
761.95878
761.95902
761.95917
761.95925
761.95928
761.95819
761.95814
761.9582
761.9583
761.95859
761.95887
761.9591
761.95925
761.95935
761.95938
761.95817
761.95821
761.9583
761.95841
761.95869
761.95895
761.95916
761.9593
761.9594
761.95945
761.95843
761.95849
761.95859
761.95869
761.95896
761.95921
761.95939
761.9595
761.95958
761.95961
761.95872
761.95878
761.95887
761.95895
761.95921
761.95944
761.95961
761.9597
761.95975
761.95976
761.95896
761.95902
761.9591
761.95916
761.95939
761.95961
761.95976
761.95983
761.95987
761.95986
761.95912
761.95917
761.95925
761.9593
761.9595
761.9597
761.95983
761.95989
761.95991
761.95988
761.95922
761.95925
761.95935
761.9594
761.95958
761.95975
761.95987
761.95991
761.95991
761.95993
761.95929
761.95928
761.95938
761.95945
761.95961
761.95976
761.95986
761.95988
761.95993
761.95993
769.87449
769.87446
769.87458
769.8745
769.87476
769.87503
769.87524
769.87538
769.87546
769.87554
769.87446
769.87454
769.87451
769.87454
769.87481
769.87508
769.87528
769.87541
769.87547
769.87549
769.87458
769.87451
769.87456
769.87462
769.8749
769.87515
769.87533
769.87547
769.87555
769.87556
769.8745
769.87454
769.87462
769.87469
769.87495
769.87518
769.87533
769.87545
769.87554
769.87558
769.87476
769.87481
769.8749
769.87495
769.8752
769.8754
769.87552
769.8756
769.87566
769.87568
769.87503
769.87508
769.87515
769.87518
769.8754
769.87557
769.87567
769.87573
769.87577
769.87576
769.87524
769.87528
769.87533
769.87533
769.87552
769.87567
769.87575
769.87579
769.87582
769.87581
769.87538
769.87541
769.87547
769.87545
769.8756
769.87573
769.87579
769.87583
769.87585
769.87583
769.87546
769.87547
769.87555
769.87554
769.87566
769.87577
769.87582
769.87585
769.87587
769.87587
769.87554
769.87549
769.87556
769.87558
769.87568
769.87576
769.87581
769.87583
769.87587
769.87587
777.669
777.66895
777.66906
777.66893
777.66918
777.66943
777.6696
777.66972
777.66978
777.66987
777.66895
777.66903
777.66898
777.66896
777.66923
777.66947
777.66963
777.66975
777.66978
777.66978
777.66906
777.66898
777.66901
777.66903
777.6693
777.66951
777.66964
777.66977
777.66984
777.66984
777.66893
777.66896
777.66903
777.66907
777.66931
777.66949
777.66958
777.66968
777.66977
777.6698
777.66918
777.66923
777.6693
777.66931
777.66953
777.66968
777.66973
777.66979
777.66983
777.66983
777.66943
777.66947
777.66951
777.66949
777.66968
777.66979
777.66981
777.66984
777.66986
777.66984
777.6696
777.66963
777.66964
777.66958
777.66973
777.66981
777.66982
777.66983
777.66985
777.66983
777.66972
777.66975
777.66977
777.66968
777.66979
777.66984
777.66983
777.66985
777.66987
777.66987
777.66978
777.66978
777.66984
777.66977
777.66983
777.66986
777.66985
777.66987
777.6699
777.66989
777.66987
777.66978
777.66984
777.6698
777.66983
777.66984
777.66983
777.66987
777.66989
777.66989
785.29349
785.29344
785.29354
785.29336
785.29359
785.29382
785.29395
785.29404
785.2941
785.29419
785.29344
785.29352
785.29344
785.29339
785.29364
785.29385
785.29396
785.29406
785.29408
785.29406
785.29354
785.29344
785.29345
785.29344
785.29369
785.29386
785.29395
785.29406
785.29412
785.29409
785.29336
785.29339
785.29344
785.29344
785.29366
785.29379
785.29382
785.2939
785.29398
785.29399
785.29359
785.29364
785.29369
785.29366
785.29385
785.29394
785.29392
785.29395
785.29398
785.29397
785.29382
785.29385
785.29386
785.29379
785.29394
785.29399
785.29394
785.29394
785.29394
785.2939
785.29395
785.29396
785.29395
785.29382
785.29392
785.29394
785.29387
785.29385
785.29386
785.29383
785.29404
785.29406
785.29406
785.2939
785.29395
785.29394
785.29385
785.29385
785.29387
785.29388
785.2941
785.29408
785.29412
785.29398
785.29398
785.29394
785.29386
785.29387
785.29391
785.29389
785.29419
785.29406
785.29409
785.29399
785.29397
785.2939
785.29383
785.29388
785.29389
785.29389
792.70092
792.70085
792.70094
792.70071
792.70092
792.70113
792.70122
792.70129
792.70132
792.70142
792.70085
792.70093
792.70082
792.70073
792.70097
792.70115
792.70122
792.7013
792.70129
792.70126
792.70094
792.70082
792.70082
792.70077
792.701
792.70113
792.70117
792.70126
792.70131
792.70126
792.70071
792.70073
792.70077
792.70073
792.70093
792.70101
792.70098
792.70104
792.7011
792.7011
792.70092
792.70097
792.701
792.70093
792.70109
792.70112
792.70103
792.70103
792.70104
792.70101
792.70113
792.70115
792.70113
792.70101
792.70112
792.70111
792.70098
792.70094
792.70093
792.70088
792.70122
792.70122
792.70117
792.70098
792.70103
792.70098
792.70083
792.70078
792.70078
792.70075
792.70129
792.7013
792.70126
792.70104
792.70103
792.70094
792.70078
792.70076
792.70079
792.7008
792.70132
792.70129
792.70131
792.7011
792.70104
792.70093
792.70078
792.70079
792.70083
792.70079
792.70142
792.70126
792.70126
792.7011
792.70101
792.70088
792.70075
792.7008
792.70079
792.7008
799.84553
799.84545
799.84553
799.84524
799.84544
799.84561
799.84567
799.8457
799.84572
799.84582
799.84545
799.84553
799.84539
799.84526
799.84548
799.84562
799.84565
799.8457
799.84567
799.84562
799.84553
799.84539
799.84537
799.84528
799.84549
799.84558
799.84556
799.84564
799.84566
799.8456
799.84524
799.84526
799.84528
799.8452
799.84537
799.8454
799.84531
799.84535
799.8454
799.84538
799.84544
799.84548
799.84549
799.84537
799.8455
799.84547
799.84531
799.84528
799.84528
799.84523
799.84561
799.84562
799.84558
799.8454
799.84547
799.84539
799.84519
799.84512
799.84508
799.84502
799.84567
799.84565
799.84556
799.84531
799.84531
799.84519
799.84496
799.84489
799.84486
799.84483
799.8457
799.8457
799.84564
799.84535
799.84528
799.84512
799.84489
799.84484
799.84486
799.84489
799.84572
799.84567
799.84566
799.8454
799.84528
799.84508
799.84486
799.84486
799.84492
799.84486
799.84582
799.84562
799.8456
799.84538
799.84523
799.84502
799.84483
799.84489
799.84486
799.84487
806.68319
806.6831
806.68317
806.68282
806.683
806.68314
806.68316
806.68316
806.68316
806.68326
806.6831
806.68318
806.68301
806.68284
806.68304
806.68314
806.68312
806.68315
806.68309
806.68303
806.68317
806.68301
806.68297
806.68285
806.68303
806.68307
806.68299
806.68305
806.68306
806.68297
806.68282
806.68284
806.68285
806.68272
806.68286
806.68284
806.68268
806.6827
806.68273
806.6827
806.683
806.68304
806.68303
806.68286
806.68295
806.68286
806.68263
806.68257
806.68255
806.68248
806.68314
806.68314
806.68307
806.68284
806.68286
806.68272
806.68244
806.68233
806.68227
806.68219
806.68316
806.68312
806.68299
806.68268
806.68263
806.68244
806.68213
806.68202
806.68199
806.68195
806.68316
806.68315
806.68305
806.6827
806.68257
806.68233
806.68202
806.68195
806.68197
806.68201
806.68316
806.68309
806.68306
806.68273
806.68255
806.68227
806.68199
806.68197
806.68204
806.68197
806.68326
806.68303
806.68297
806.6827
806.68248
806.68219
806.68195
806.68201
806.68197
806.68196
813.17167
813.17156
813.17161
813.17121
813.17137
813.17147
813.17144
813.17141
813.17138
813.17149
813.17156
813.17164
813.17144
813.17122
813.1714
813.17146
813.17138
813.17139
813.1713
813.17122
813.17161
813.17144
813.17137
813.17121
813.17136
813.17135
813.17122
813.17126
813.17124
813.17113
813.17121
813.17122
813.17121
813.17104
813.17115
813.17107
813.17084
813.17083
813.17085
813.17081
813.17137
813.1714
813.17136
813.17115
813.1712
813.17105
813.17074
813.17064
813.1706
813.17051
813.17147
813.17146
813.17135
813.17107
813.17105
813.17083
813.17047
813.17033
813.17025
813.17015
813.17144
813.17138
813.17122
813.17084
813.17074
813.17047
813.17009
813.16994
813.16989
813.16985
813.17141
813.17139
813.17126
813.17083
813.17064
813.17033
813.16994
813.16984
813.16987
813.16991
813.17138
813.1713
813.17124
813.17085
813.1706
813.17025
813.16989
813.16987
813.16993
813.16984
813.17149
813.17122
813.17113
813.17081
813.17051
813.17015
813.16985
813.16991
813.16984
813.16984
819.27085
819.27073
819.27076
819.27031
819.27043
819.27049
819.27041
819.27035
819.2703
819.27041
819.27073
819.2708
819.27058
819.27031
819.27046
819.27047
819.27034
819.27031
819.27019
819.2701
819.27076
819.27058
819.27048
819.27027
819.27039
819.27033
819.27014
819.27015
819.27011
819.26998
819.27031
819.27031
819.27027
819.27006
819.27013
819.26999
819.2697
819.26965
819.26965
819.26959
819.27043
819.27046