/*--------------------------------*- C++ -*----------------------------------*\
| =========                 |                                                 |
| \\      /  F ield         | OpenFOAM: The Open Source CFD Toolbox           |
|  \\    /   O peration     | Version:  v2106                                 |
|   \\  /    A nd           | Website:  www.openfoam.com                      |
|    \\/     M anipulation  |                                                 |
\*---------------------------------------------------------------------------*/
FoamFile
{
    version     2.0;
    format      ascii;
    arch        "LSB;label=32;scalar=64";
    class       volScalarField;
    location    "17.5";
    object      gradTx;
}
// * * * * * * * * * * * * * * * * * * * * * * * * * * * * * * * * * * * * * //

dimensions      [0 -1 0 1 0 0 0];

internalField   nonuniform List<scalar> 
4000
(
-8.7163795e-05
-0.00032457102
0.00030660021
0.0003444355
-0.0003430198
-0.00027717326
-0.00011545085
-3.2202313e-05
-1.4043049e-05
-4.7653998e-06
-0.00020558673
-2.5890288e-05
0.00055502279
5.8213294e-05
-0.0003941898
-0.00025043183
-8.2567912e-05
-5.2548988e-07
5.8684988e-05
3.1469519e-05
0.00011195669
0.00025669795
0.00028251514
-2.4312074e-05
-0.00037686688
-0.00020980793
-6.84557e-05
-3.9289179e-05
2.2966424e-05
2.9870169e-05
-3.9971676e-05
-4.997536e-05
0.00018978973
-2.2078353e-05
-0.00033051454
-0.00014428491
-1.1067939e-05
-3.9750425e-05
-6.7684284e-05
-1.5563664e-05
-7.8858116e-05
-0.00011204963
0.00020222348
1.8607328e-05
-0.00027600971
-7.7158828e-05
7.0264441e-05
4.8577977e-05
9.6745396e-06
6.5924875e-06
-7.4085011e-05
-8.3822439e-05
0.000253465
7.8778804e-05
-0.00021924902
-2.4541034e-05
0.00012273756
0.00010200085
5.9810393e-05
2.2146818e-05
-6.1030495e-05
-4.4684308e-05
0.0003083704
0.00015125644
-0.00015626585
1.8598612e-05
0.00015100508
0.00011894197
6.7729649e-05
2.345389e-05
-5.2163047e-05
-3.6827282e-05
0.00032496497
0.00021749896
-8.544353e-05
5.6199594e-05
0.00016147897
0.00010998599
4.7336685e-05
1.5490175e-05
-3.9912611e-05
-5.1771173e-05
0.00026914547
0.0002391236
-1.4514576e-05
8.8962604e-05
0.00015899023
8.5707342e-05
1.6488715e-05
5.4790361e-06
-3.6776934e-06
1.8218316e-07
0.0001985957
0.00020420707
4.2051138e-05
0.00011425471
0.00014900527
5.8745072e-05
-3.447e-06
2.1996906e-06
-2.8620991e-05
-0.00031629637
0.00074064579
0.0005907982
-0.00091294784
-0.0007268034
-0.0003089474
-0.00010563368
-9.625363e-05
-4.1666201e-05
-0.00021227435
0.00020069467
0.0010601695
-7.2921296e-07
-0.0010027702
-0.00064590912
-0.00022714277
-1.7728127e-06
0.0001483875
7.1966015e-05
0.00031603971
0.00064071823
0.00053817853
-0.00017365592
-0.00094416448
-0.00052799491
-0.00019690073
-0.00012547851
5.5326423e-05
7.5273609e-05
7.4145289e-07
-1.772591e-06
0.00033722509
-0.00015923764
-0.00081033699
-0.00033572305
-3.0157577e-05
-0.00012214207
-0.00016325095
-3.1021935e-05
-7.8311901e-05
-0.00012373589
0.0003796701
-4.3024365e-05
-0.00065176417
-0.00013861966
0.00020327769
0.00011800885
3.3519884e-05
2.3071141e-05
-5.9140088e-05
-3.2989218e-05
0.00052965826
0.00013316267
-0.0004839523
1.7853334e-05
0.00035765402
0.00027031706
0.00016956704
6.391536e-05
-2.4382377e-05
7.5072599e-05
0.00068985617
0.0003463509
-0.00029818778
0.00014549667
0.00043922651
0.00031500698
0.00018216083
6.3036681e-05
-4.6036727e-06
7.905743e-05
0.00072664346
0.0005333411
-9.6140699e-05
0.00025380216
0.00046494245
0.00027964393
0.00010819386
3.3925955e-05
4.4858198e-05
5.5227775e-05
0.00056948693
0.00058983825
9.4271341e-05
0.0003424948
0.00044855339
0.00019969014
2.00771e-05
8.2833891e-06
0.00015849042
0.00023063749
0.000415005
0.00051153456
0.00023667729
0.0004024431
0.00040356927
0.00011756021
3.4867657e-06
2.2865729e-05
0.00018586714
5.17722e-05
0.00099492194
0.00054971437
-0.0013862915
-0.0010453486
-0.00043398783
-0.00015016159
-0.00025896812
-0.00014100082
-0.00018618873
0.00040150934
0.0012904134
-0.00020439486
-0.0014696704
-0.00091091324
-0.00034256616
1.7248389e-05
0.00025043282
9.7251316e-05
0.00041902524
0.00086068914
0.00062418067
-0.00041114216
-0.0013489019
-0.00070317229
-0.00030198199
-0.00021891556
8.8210006e-05
0.00010839032
1.0805588e-05
3.0768074e-05
0.00037321575
-0.00036574039
-0.0011228454
-0.00037833959
-1.4999053e-05
-0.00018665998
-0.00019540598
-2.9236257e-05
-8.3714243e-05
-0.00010016739
0.00046283512
-0.00017153097
-0.00086280839
-5.5802578e-05
0.00036131196
0.00018924606
0.00010495122
5.264895e-05
-4.4780302e-05
6.8157681e-05
0.00072004075
0.00012035315
-0.00058771793
0.00019964462
0.0006092361
0.00042577934
0.00030557785
0.00011068769
5.909313e-06
0.00024200891
0.00099540879
0.00047583875
-0.00028482417
0.00040489485
0.00073347096
0.00048114157
0.0002963892
9.6949784e-05
1.6167477e-05
0.00020016352
0.0010476079
0.0007836471
3.6517227e-05
0.00057180363
0.00075820573
0.00039818745
0.00014399185
3.784813e-05
0.00011751597
0.00017325494
0.00079150041
0.00088400037
0.00032761514
0.00069679036
0.00070587907
0.00025078559
2.6577131e-05
1.5342971e-05
0.0003557681
0.00054734164
0.00060176906
0.00080038831
0.00053750106
0.0007632416
0.00059661973
0.00012837538
1.608318e-05
3.0852169e-05
0.00030586958
0.00019276116
0.0011157449
0.00051441946
-0.0017328534
-0.0012444412
-0.00050792167
-0.00015997871
-0.00036735189
-0.00022422553
-0.00018621011
0.00047569986
0.0014136462
-0.00036067676
-0.0017894176
-0.0010485906
-0.00043483992
6.1056928e-06
0.00034961054
0.00012476389
0.00049449538
0.00097077703
0.0006375973
-0.00057874375
-0.0015948927
-0.00073934652
-0.00037068241
-0.00031834687
0.00016288299
0.00016153893
1.239075e-05
-2.4477657e-06
0.00036026769
-0.00049167277
-0.001273899
-0.00028284638
3.1670271e-05
-0.00026076873
-0.00017527486
-6.0943156e-07
-8.8902088e-05
-0.00012238616
0.00050660129
-0.00021671508
-0.00091359584
0.00016084704
0.0005413979
0.00023502126
0.00021058373
0.00010324459
-2.5318752e-05
0.00013551294
0.00087578628
0.00018962405
-0.00053469781
0.00050973097
0.00087343027
0.00054043871
0.00045486289
0.00017073123
4.1665022e-05
0.00038270854
0.0012723455
0.00068347847
-0.00012101849
0.00078426738
0.0010275079
0.00058702464
0.00039737521
0.00013415242
2.3402415e-05
0.00027275219
0.0013422965
0.0011017044
0.0003070622
0.00099584101
0.0010320735
0.00043389539
0.00014977144
4.1409512e-05
0.00015238796
0.00022434038
0.001005471
0.0012368466
0.00068018895
0.0011362708
0.00092096462
0.0002211316
9.0265308e-05
7.1255012e-05
0.00050137738
0.00080298707
0.00081741105
0.0011494051
0.00093719996
0.0011826325
0.00072698202
0.00012678549
7.276239e-05
2.9740897e-05
0.00034251653
0.00018252317
0.0012238991
0.00055416049
-0.0019474038
-0.0013211749
-0.00052483686
-0.00018443753
-0.00048214761
-0.00029852371
-0.00022784653
0.00046960496
0.0015450751
-0.00042373707
-0.0019659356
-0.0010488036
-0.00045347319
-9.5198667e-06
0.00042685595
0.00014880539
0.00053390439
0.0010203568
0.00067782034
-0.00064322895
-0.0016941434
-0.0006363306
-0.00036392571
-0.00041300427
0.00022575117
0.00021237735
-1.3729173e-05
-7.6473788e-05
0.00038518956
-0.00050952125
-0.0012780551
-5.1626524e-05
0.00014623033
-0.00033747042
-0.00016865812
2.6136591e-05
-0.00011802732
-0.00017703261
0.00059203616
-0.00015312079
-0.0008194984
0.00050839921
0.00078032582
0.00026496484
0.00028885204
0.00014764266
-2.6083696e-05
0.00017678665
0.00107307
0.0003651237
-0.00034072782
0.00094498717
0.0011874747
0.00062582811
0.00056007528
0.00021869401
6.3553568e-05
0.00050781172
0.0015892132
0.00099160902
0.00017711529
0.0012806077
0.0013589798
0.00064460574
0.00042868938
0.00014979593
2.1492081e-05
0.00033769778
0.0016727735
0.0015093752
0.00070051656
0.0015236412
0.0013232916
0.00039279228
5.6655107e-05
1.4645658e-05
0.00018016535
0.00027924496
0.0012612627
0.0016695782
0.0011404138
0.0016602486
0.001125944
9.751992e-05
0.0001167861
0.00013870865
0.00062749445
0.0010455966
0.0010772595
0.0015724761
0.00142925
0.0016634785
0.00081987146
8.0888995e-05
0.00013742644
2.8405888e-05
0.00036243849
0.0001627529
0.0013740282
0.0006774541
-0.0020408902
-0.0012757378
-0.00044583738
-0.00015805894
-0.00056251421
-0.00035864407
-0.00027229932
0.00047314042
0.0017242347
-0.00039366909
-0.0020187167
-0.00092439763
-0.0003717
2.9304997e-05
0.00052805139
0.00017936112
0.00056936351
0.0010848328
0.00077662852
-0.00060989968
-0.0016697992
-0.00041117149
-0.00025961792
-0.00045194235
0.00031134699
0.00026718961
-3.8828344e-05
-0.00012425931
0.00047430492
-0.00042796789
-0.0011603988
0.00029705854
0.00035104958
-0.00036471747
-0.00014231804
5.6187491e-05
-0.00014471861
-0.00020252101
0.0007423297
8.6967693e-06
-0.00060663296
0.00096822467
0.0011014659
0.00033415256
0.00037696547
0.00019233147
-2.4046017e-05
0.00024683171
0.0013326228
0.00063519834
-3.2349048e-05
0.0014871107
0.0015764494
0.00074087137
0.00066435249
0.00026332972
8.9508148e-05
0.00066204527
0.0019637859
0.0013880929
0.00058341916
0.0018772176
0.0017567725
0.00071945948
0.0004425226
0.00015596476
2.5378898e-05
0.00043305118
0.0020553724
0.0019962822
0.0011930508
0.0021424173
0.0016676281
0.00034838069
-8.118185e-05
-3.1462357e-05
0.00021441744
0.00036816186
0.0015697634
0.0021741879
0.001689008
0.0022625245
0.0013642818
-5.3050506e-05
0.00010750942
0.00020024344
0.00075242263
0.0013069124
0.001385003
0.0020619006
0.0019997213
0.0022079744
0.00092209371
1.3367514e-05
0.0001895939
2.3260626e-05
0.00038558296
0.00017232168
0.0015708354
0.00087007057
-0.0020364903
-0.0011327988
-0.00028284625
-7.3509029e-05
-0.00060442406
-0.00040709013
-0.00030774925
0.00050818989
0.001949764
-0.00028691339
-0.0019734042
-0.00070421104
-0.00020625254
0.00012489508
0.00065775095
0.00021618252
0.0006094951
0.0011793897
0.00092945535
-0.00049741607
-0.0015491477
-9.3960548e-05
-7.451492e-05
-0.0004336151
0.00042360349
0.00032616056
-5.5130213e-05
-0.00013319019
0.00062066243
-0.00026752651
-0.00094950788
0.00073245486
0.00063022257
-0.00033895814
-9.0316627e-05
9.0390098e-05
-0.00016182754
-0.00018809694
0.00094884223
0.0002469088
-0.00030445169
0.0015092145
0.0014896197
0.00044820102
0.00048360434
0.00023909725
-1.3072791e-05
0.0003541524
0.0016445588
0.00097716955
0.00036055251
0.0021051426
0.0020263571
0.0008939639
0.00078063366
0.00030804291
0.00012389764
0.00085074133
0.0023855081
0.0018500838
0.0010682361
0.0025442641
0.0022098246
0.0008257981
0.00046094463
0.00015964837
3.7989687e-05
0.00056248375
0.0024810339
0.0025413041
0.001756687
0.0028253475
0.0020603897
0.00032583584
-0.00022813445
-8.534039e-05
0.00025616705
0.00049063527
0.0019216549
0.0027319
0.0023011581
0.0029218611
0.0016416965
-0.00019537818
8.2720706e-05
0.00025497511
0.00087943969
0.0015905113
0.0017329663
0.002601305
0.0026276373
0.0028026878
0.0010516216
-5.2388076e-05
0.00023168456
1.3968841e-05
0.00041356136
0.00021072737
0.0018029291
0.0011137095
-0.001956063
-0.00091720649
-5.7589239e-05
5.731068e-05
-0.00061508475
-0.0004466713
-0.00033395807
0.00057043505
0.002208542
-0.0001219656
-0.0018525731
-0.00041423094
2.0472766e-05
0.00026468638
0.00080923035
0.00025720668
0.00065336648
0.0012975126
0.0011223172
-0.00032515244
-0.0013556392
0.00028876362
0.00016972344
-0.00036934993
0.00055716106
0.00038789223
-6.3549418e-05
-0.00011017678
0.00080934351
-4.855862e-05
-0.00066969522
0.0012274902
0.00096259298
-0.00026996513
-1.5962368e-05
0.00012811008
-0.00017041689
-0.00014134926
0.0011957242
0.00054028952
6.2072226e-05
0.0021039434
0.0019239241
0.00059842517
0.00060697696
0.00028784219
5.4438443e-06
0.00049024705
0.0019922214
0.0013691528
0.00081263216
0.0027716935
0.002517014
0.0010779608
0.00090937328
0.00035356836
0.00016490014
0.0010646209
0.0028374453
0.0023554694
0.0016062755
0.0032550183
0.0026996703
0.00095980787
0.00048963265
0.00016363842
5.7485183e-05
0.00071755973
0.0029343417
0.0031233535
0.0023670532
0.0035474397
0.0024868067
0.00032809383
-0.00036867772
-0.00014046345
0.00030315061
0.00063796025
0.0023027938
0.0033232445
0.0029542014
0.003616401
0.0019498034
-0.00031790988
5.6972746e-05
0.00030586763
0.0010070286
0.0018898055
0.0021091489
0.0031731694
0.0032923888
0.0034300954
0.0012087557
-0.00010456606
0.00027165722
2.6595359e-06
0.00044444243
0.00027032334
0.0020575026
0.0013922618
-0.0018170871
-0.00064853931
0.00021153922
0.0002216239
-0.0006014151
-0.00047897762
-0.0003527226
0.00065159186
0.002487311
8.5428047e-05
-0.0016739826
-7.4504189e-05
0.00029021102
0.00043616093
0.00097552415
0.00030086864
0.00069862145
0.0014301571
0.0013419519
-0.00010919341
-0.0011076017
0.00071650563
0.00045530617
-0.00027045121
0.00070612016
0.00045112707
-6.6183713e-05
-6.3958865e-05
0.001026755
0.00021229521
-0.00033990957
0.0017611537
0.0013304628
-0.00016812362
7.6234701e-05
0.00016860063
-0.00017260108
-7.1298189e-05
0.0014688191
0.00087160974
0.00047348556
0.0027310455
0.0023866656
0.00077487029
0.00074326622
0.00033807171
2.921926e-05
0.00064552648
0.0023608281
0.0017933825
0.0013041187
0.0034653673
0.0030310704
0.0012837328
0.0010478897
0.00039981771
0.00021008901
0.0012937468
0.003304477
0.0028861496
0.0021776992
0.0039884898
0.0032100357
0.0011142966
0.00052868943
0.0001689014
8.1667124e-05
0.00088929343
0.0034010799
0.003724742
0.0030047262
0.0042887374
0.0029327916
0.00035174974
-0.00049722773
-0.00019376799
0.00035311369
0.00080167165
0.0027001925
0.0039314711
0.0036295556
0.0043279161
0.0022780527
-0.0004189926
3.7255973e-05
0.00035510732
0.00113296
0.0021968287
0.0025017904
0.003761888
0.0039763812
0.0040741607
0.0013876742
-0.00013968372
0.00031496945
-8.6256705e-06
0.00047640589
0.00034441153
0.0023239993
0.0016929373
-0.001632893
-0.00034150301
0.0005106921
0.00040922522
-0.00056876869
-0.000504955
-0.00036553301
0.00074484341
0.0027753318
0.00032291494
-0.0014511709
0.00029989424
0.0005892617
0.00062932433
0.0011507822
0.00034595224
0.00074336048
0.0015701023
0.0015778602
0.00013796536
-0.00081901582
0.0011737502
0.00076874285
-0.0001460351
0.00086523051
0.00051471715
-6.4644667e-05
-1.2957131e-06
0.001262294
0.00050218515
2.5379587e-05
0.002317426
0.0017201908
-4.2064613e-05
0.00018189256
0.00021102604
-0.00016998776
1.5130335e-05
0.0017571304
0.0012275828
0.00091490818
0.0033741439
0.0028640031
0.00096895779
0.00088831532
0.00038904038
5.6503378e-05
0.00081258147
0.0027388445
0.0022361092
0.0018198409
0.0041696985
0.0035548353
0.0015031099
0.0011925946
0.0004462475
0.00025761041
0.0015303835
0.0037746622
0.0034279765
0.0027671807
0.0047284329
0.0037279092
0.0012822869
0.00057613883
0.00017548444
0.00010888311
0.0010706322
0.0038697736
0.0043313694
0.0036544853
0.0050336046
0.0033867075
0.00039208783
-0.0006127165
-0.00024407965
0.00040434315
0.00097512321
0.0031032732
0.0045429694
0.0043123552
0.005041762
0.002616887
-0.00050049678
2.5582725e-05
0.00040350344
0.0012552504
0.0025046314
0.0029008839
0.0043544542
0.0046651874
0.0047214281
0.0015813963
-0.00015846828
0.00036355705
-1.8763425e-05
0.00050814622
0.00042804519
0.0025941898
0.0020057436
-0.0014136831
-7.2887066e-06
0.00082943396
0.00061228502
-0.0005212935
-0.0005252791
-0.00037339737
0.00084515418
0.003064241
0.0005809038
-0.0011945475
0.00069741002
0.0009072755
0.00083644026
0.0013301568
0.00039141432
0.00078621888
0.0017120039
0.0018219655
0.00040665722
-0.00050067223
0.0016485121
0.0010997585
-3.1946594e-06
0.0010299713
0.00057758189
-6.0029918e-05
7.292992e-05
0.0015078606
0.00081118366
0.00041496426
0.0028838355
0.0021212428
0.00010137545
0.00029707015
0.0002545123
-0.00016367436
0.00011291745
0.0020522454
0.0015979243
0.0013747733
0.0040204117
0.0033451148
0.0011737224
0.0010381891
0.0004398902
8.6060489e-05
0.00098594078
0.0031173724
0.0026866292
0.0023479524
0.0048717288
0.0040775108
0.0017293124
0.0013398486
0.00049210911
0.00030612479
0.0017687183
0.0042386709
0.0039698239
0.0033626666
0.005461989
0.0042429321
0.0014577911
0.00062940779
0.0001830283
0.00013795485
0.0012562653
0.0043313397
0.0049319856
0.0043042203
0.0057695461
0.0038391249
0.00044462037
-0.00071583099
-0.00029108739
0.00045556162
0.0011532386
0.0035036061
0.0051467409
0.0049906035
0.0057460577
0.0029582401
-0.00056519383
2.153108e-05
0.00045098662
0.001372255
0.0028075301
0.0032982531
0.0049402034
0.0053469987
0.0053607648
0.0017834454
-0.00016325633
0.00041708618
-2.7383995e-05
0.00053872052
0.00051755152
0.0028616168
0.0023227825
-0.001167431
0.00034533593
0.0011596636
0.00082471833
-0.00046224896
-0.0005404714
-0.00037700756
0.00094875628
0.0033474663
0.00085184544
-0.00091229405
0.0011089201
0.0012362036
0.0010514593
0.0015096451
0.00043635235
0.00082619036
0.0018518322
0.0020679703
0.00068927887
-0.00016109847
0.0021312549
0.0014403191
0.00015253153
0.0011965364
0.00063874353
-5.3107859e-05
0.00015510978
0.0017571577
0.00113147
0.00081994101
0.0034503799
0.002525288
0.00025680439
0.00041839364
0.00029823636
-0.00015443436
0.00021832851
0.0023475948
0.0019744986
0.0018438462
0.0046594949
0.0038213473
0.0013835686
0.0011894333
0.00048978627
0.00011698346
0.0011614423
0.0034893927
0.0031364146
0.0028789418
0.0055609434
0.0045903961
0.0019568189
0.0014863703
0.00053663792
0.00035462174
0.0020042475
0.0046890546
0.0045027385
0.0039544097
0.0061786683
0.0047467035
0.0016358657
0.00068602179
0.00019106809
0.00016801007
0.0014420978
0.0047784772
0.0055174428
0.0049440499
0.0064862996
0.0042823278
0.00050551821
-0.00080769514
-0.00033478908
0.00050578236
0.0013320607
0.0038943997
0.0057337756
0.0056544242
0.0064309654
0.0032954028
-0.00061574665
2.3812902e-05
0.0004971054
0.0014826061
0.0031008831
0.0036872257
0.0055103397
0.0060120266
0.0059828882
0.0019882623
-0.00015669067
0.00047422087
-3.4517113e-05
0.00056741371
0.0006101066
0.003121122
0.0026377048
-0.00090051893
0.00070930523
0.0014948996
0.0010416928
-0.00039421625
-0.00055093492
-0.00037686588
0.0010527397
0.0036197546
0.0011296865
-0.00061099703
0.0015270203
0.0015696021
0.0012695649
0.0016859526
0.00048000133
0.00086250244
0.0019864548
0.0023108609
0.00097972505
0.00019279936
0.0026141834
0.00178397
0.00031675787
0.0013617651
0.00069735192
-4.4444149e-05
0.00024247858
0.0020051719
0.0014567429
0.0012330566
0.0040088225
0.0029255694
0.00041992868
0.00054305171
0.00034147387
-0.00014284306
0.00032847512
0.0026379173
0.0023507153
0.0023145607
0.0052828134
0.0042856144
0.0015939772
0.0013391301
0.00053798465
0.00014857046
0.0013357969
0.0038492255
0.0035785042
0.0034049693
0.0062285835
0.0050863195
0.0021811306
0.0016293618
0.00057914438
0.0004023003
0.0022333533
0.0051197195
0.0050193454
0.0045343218
0.0068696913
0.0052322682
0.0018124707
0.0007438547
0.0001991693
0.00019837209
0.0016248672
0.0052051929
0.0060801487
0.0055657193
0.0071752372
0.004709907
0.00057164785
-0.00088934552
-0.00037524613
0.00055421506
0.0015084183
0.0042700832
0.0062965646
0.0062955237
0.0070881848
0.0036227855
-0.00065439535
3.1018192e-05
0.00054130709
0.0015851513
0.0033808486
0.004062292
0.0060575137
0.0066520294
0.0065799618
0.0021911997
-0.00014118864
0.00053337499
-4.0341607e-05
0.00059366544
0.00070347596
0.0033685196
0.0029453238
-0.00061817773
0.0010787829
0.001829823
0.0012592891
-0.0003192601
-0.00055697922
-0.00037335499
0.0011548001
0.0038768447
0.0014094808
-0.00029608513
0.0019455582
0.0019021834
0.0014868499
0.0018563605
0.00052172131
0.0008945482
0.0021133823
0.0025465714
0.0012729921
0.00055529621
0.0030907808
0.0021254008
0.00048594944
0.0015230379
0.00075268262
-3.4471603e-05
0.00033285191
0.0022478271
0.0017818163
0.0016482649
0.0045522352
0.0033164872
0.00058727692
0.00066871733
0.00038360587
-0.00012934715
0.00044105062
0.002918907
0.0027211204
0.002780577
0.0058831124
0.0047319993
0.001801255
0.0014848463
0.00058384696
0.00018025679
0.0015063258
0.0041921771
0.0040070971
0.0039194304
0.0068672101
0.0055592614
0.0023985507
0.001766486
0.00061903769
0.00044850306
0.0024530485
0.0055255839
0.0055134519
0.0050955519
0.0075275732
0.0056937724
0.0019842956
0.00080115998
0.000206969
0.00022849706
0.0018019037
0.0056064809
0.0066136956
0.0061622047
0.0078289831
0.0051164689
0.00064047988
-0.00096158568
-0.00041249859
0.00060021027
0.0016797089
0.0046260109
0.0068287575
0.0069068256
0.0077106138
0.0039357016
-0.00068292371
4.1889698e-05
0.00058305788
0.0016789108
0.0036442017
0.0044188378
0.006575504
0.0072599734
0.0071452968
0.0023883972
-0.00011879038
0.00059304697
-4.5060411e-05
0.00061703021
0.00079585415
0.0036003697
0.0032413399
-0.00032479929
0.0014488394
0.0021599734
0.0014742638
-0.00023905998
-0.00055884538
-0.00036677803
0.0012530798
0.0041152406
0.0016871108
2.7859943e-05
0.0023593142
0.0022295152
0.0017000847
0.0020186076
0.00056097779
0.00092184733
0.0022306076
0.0027717512
0.0015648967
0.00092153816
0.0035554945
0.002460152
0.00065719977
0.0016781686
0.00080412158
-2.3530708e-05
0.00042446139
0.0024817484
0.0021023362
0.0020604194
0.0050746907
0.0036933159
0.00075599031
0.00079345088
0.00042410652
-0.00011430537
0.00055416449
0.0031869766
0.0030811143
0.0032364783
0.0064541632
0.005155485
0.0020023415
0.0016245484
0.00062683128
0.00021157544
0.0016707988
0.0045143078
0.0044172764
0.0044166622
0.0074704176
0.0060041011
0.0026060077
0.001895797
0.00065582056
0.00049267786
0.0026608196
0.0059023531
0.0059797829
0.0056322052
0.0081458535
0.0061262304
0.0021486066
0.00085652224
0.00021417673
0.00025793665
0.0019709775
0.0059781084
0.0071126094
0.0067274475
0.0084411629
0.0054974287
0.0007099723
-0.0010249894
-0.00044654799
0.00064322518
0.0018437556
0.0049582587
0.0073249246
0.0074822225
0.0082921186
0.004230195
-0.00070272234
5.5384698e-05
0.00062188147
0.0017630484
0.003888206
0.0047529517
0.0070589892
0.0078297936
0.0076731368
0.0025766422
-9.1165228e-05
0.00065192693
-4.8853167e-05
0.00063715239
0.00088575626
0.0038138166
0.0035221385
-2.4162694e-05
0.0018152237
0.0024815381
0.0016838814
-0.00015501346
-0.00055672843
-0.00035738474
0.0013460588
0.0043320496
0.0019590851
0.00035687872
0.0027637763
0.0025478115
0.0019065524
0.0021707929
0.00059732198
0.00094402075
0.0023364971
0.0029836009
0.0018518728
0.0012873201
0.004003515
0.0027844101
0.00082806849
0.0018253124
0.00085114748
-1.1896062e-05
0.00051584308
0.0027040971
0.0024145789
0.0024650541
0.0055710485
0.0040520078
0.0009236676
0.00091561294
0.00046252655
-9.8014819e-05
0.00066623143
0.0034390946
0.0034267538
0.0036775585
0.0069905581
0.0055517683
0.0021946632
0.0017565233
0.00066647733
0.00024213155
0.0018273258
0.0048122726
0.0048048173
0.0048917381
0.0080326385
0.0064164417
0.0028009214
0.0020156672
0.00068907584
0.00053435355
0.0028545227
0.0062463668
0.0064137969
0.0061391486
0.0087189126
0.0065253623
0.0023031245
0.00090879348
0.00022056325
0.00028631375
0.0021301978
0.0063164689
0.0075721755
0.0072561721
0.0090062325
0.0058488624
0.0007784646
-0.0010799483
-0.00047736317
0.00068280095
0.0019987099
0.005263482
0.0077803916
0.0080164024
0.0088273738
0.0045029054
-0.00071487302
7.0658544e-05
0.00065736504
0.0018368514
0.0041105237
0.0050612889
0.0075033864
0.0083562263
0.0081585027
0.002753247
-5.9670333e-05
0.00070890522
-5.1865378e-05
0.00065374834
0.00097193982
0.0040064717
0.0037846434
0.00028040033
0.0021741994
0.0027912018
0.0018857927
-6.8314506e-05
-0.00055079566
-0.00034539004
0.0014324766
0.0045248643
0.0022223899
0.00068747015
0.0031549784
0.0028537832
0.0021039283
0.0023113026
0.00063037462
0.00096077286
0.0024297126
0.0031797533
0.0021308242
0.0016489244
0.0044306187
0.0030948615
0.00099646301
0.0019628949
0.00089331667
2.0500769e-07
0.00060575828
0.0029124528
0.0027153053
0.0028582271
0.0060368028
0.004389053
0.0010882512
0.0010337951
0.00049847864
-8.0729459e-05
0.00077589336
0.0036726688
0.0037546101
0.0040996701
0.0074875653
0.0059171275
0.0023760275
0.0018793133
0.00070239284
0.00027158489
0.0019742824
0.0050832097
0.005166051
0.0053403232
0.0085490061
0.0067924864
0.0029811033
0.0021247267
0.0007184537
0.00057312321
0.0030323127
0.0065544932
0.0068115567
0.0066118734
0.0092418424
0.0068874782
0.0024459316
0.00095703594
0.00022594812
0.00031330581
0.0022779421
0.0066184796
0.007988317
0.0077437566
0.0095193568
0.0061673984
0.00084459081
-0.0011267237
-0.00050489144
0.00071854696
0.002142983
0.005538816
0.0081911211
0.0085047256
0.0093117465
0.0047509657
-0.00072022748
8.7027115e-05
0.00068915443
0.0018997172
0.0043091515
0.0053409721
0.0079047354
0.0088346881
0.0085970795
0.002915948
-2.5418015e-05
0.0007630472
-5.4211375e-05
0.00066659333
0.001053347
0.0041763255
0.004026207
0.00058588403
0.0025224253
0.0030860379
0.0020779472
1.9988121e-05
-0.00054120064
-0.00033098782
0.0015112744
0.0046916755
0.0024743796
0.0010164718
0.0035293839
0.003144531
0.002290193
0.0024387545
0.00065981349
0.00097187829
0.0025091542
0.003358187
0.0023990161
0.0020030042
0.0048330542
0.0033885874
0.0011605518
0.0020895575
0.00093025148
1.2578822e-05
0.00069313597
0.0031047266
0.0030016556
0.0032364062
0.0064679734
0.0047013785
0.001247943
0.0011467674
0.00053162595
-6.2673337e-05
0.00088196327
0.0038854631
0.0040616666
0.0044991146
0.0079410246
0.0062483269
0.0025445426
0.0019916666
0.0007342427
0.00029963737
0.0021102562
0.0053246609
0.005497766
0.0057585697
0.0090152562
0.0071289483
0.0031446812
0.0022218166
0.00074366132
0.00060863235
0.0031925921
0.0068240526
0.007169637
0.0070463974
0.0097103543
0.0072093931
0.0025754006
0.0010004759
0.00023018902
0.00033863276
0.0024128056
0.0068815084
0.0083575055
0.0081861395
0.0099763224
0.0064501358
0.00090721036
-0.0011654932
-0.00052906952
0.00075012957
0.0022751968
0.0057818026
0.0085536278
0.0089431357
0.0097412123
0.0049719223
-0.0007194745
0.0001039287
0.00071694747
0.0019511437
0.004482375
0.0055895213
0.0082596146
0.0092611887
0.0089851317
0.003062826
1.066318e-05
0.00081356122
-5.5981172e-05
0.00067551145
0.0011290613
0.0043216832
0.0042445299
0.00088951896
0.0028568681
0.0033634293
0.0022585274
0.00010894747
-0.00052809366
-0.00031436112
0.001581552
0.0048308077
0.0027126963
0.0013409718
0.0038837993
0.003417466
0.0024635675
0.0025519575
0.00068536408
0.00097717192
0.0025739177
0.0035171614
0.0026539961
0.0023464967
0.0052074589
0.0036629858
0.0013187
0.0022041182
0.00096163151
2.5055222e-05
0.00077703015
0.0032790986
0.0032710711
0.0035963857
0.0068610261
0.0049862732
0.0014011419
0.0012534388
0.00056167338
-4.4050472e-05
0.00098338385
0.0040755362
0.0043452433
0.0048725629
0.008347272
0.0065425458
0.0026985586
0.0020924996
0.00076174068
0.00032602376
0.0022340079
0.0055345126
0.0057971372
0.0061430411
0.009427655
0.0074229834
0.0032900432
0.0023059526
0.00076445462
0.00064057036
0.0033339747
0.0070527629
0.0074850564
0.0074391918
0.01012071
0.007488363
0.0026901391
0.0010384671
0.00023317319
0.0003620482
0.0025335644
0.0071033199
0.0086766973
0.0085797512
0.010373472
0.0066945825
0.00096535315
-0.0011963879
-0.00054983276
0.0007772638
0.0023941474
0.0059903373
0.008864915
0.0093280931
0.010112291
0.005163673
-0.00071319477
0.00012089075
0.00074048754
0.0019907215
0.0046287351
0.0058048012
0.0085650788
0.009632265
0.0093194397
0.0031922419
4.7776746e-05
0.00085976849
-5.7247595e-05
0.00068036779
0.0011982742
0.0044411141
0.0044375979
0.0011887043
0.003174736
0.003621008
0.0024259001
0.00019768519
-0.00051162992
-0.00029569006
0.0016425342
0.0049408689
0.0029352078
0.0016582419
0.0042153104
0.0036702498
0.0026224647
0.0026498802
0.00070679239
0.00097654109
0.0026232613
0.0036551673
0.0028935328
0.002676559
0.0055507971
0.0039157131
0.00146942
0.0023055405
0.00098718686
3.7479778e-05
0.00085658729
0.0034339694
0.0035212353
0.0039352244
0.0072128128
0.0052413319
0.0015463954
0.0013528268
0.00058836091
-2.5052312e-05
0.0010791962
0.0042411948
0.0046029404
0.0052169948
0.0087030822
0.0067973252
0.002836621
0.0021808678
0.00078464294
0.00035050481
0.002344442
0.0057109519
0.0060616711
0.0064906541
0.0097829449
0.0076721389
0.0034157926
0.0023762964
0.00078063192
0.00066866399
0.0034552573
0.0072386972
0.0077552254
0.0077871269
0.010469672
0.0077220349
0.0027889459
0.0010704616
0.00023481048
0.00038333267
0.0026391471
0.0072820341
0.0089432832
0.008921461
0.010707655
0.0068986057
0.0010181748
-0.0012195246
-0.00056712293
0.00079970703
0.0024987772
0.0061626279
0.0091224264
0.0096565241
0.010421997
0.0053244171
-0.00070190662
0.00013750174
0.00075955816
0.0020181293
0.0047470024
0.0059849807
0.0088186105
0.0099449306
0.0095972484
0.0033027848
8.5214901e-05
0.00090107715
-5.8072652e-05
0.00068106195
0.0012602583
0.0045334113
0.0046036327
0.0014809548
0.0034734275
0.0038566075
0.0025785771
0.00028536523
-0.00049197586
-0.00027515798
0.001693544
0.0050207096
0.0031399586
0.0019656861
0.0045212313
0.0039007473
0.0027654495
0.002731626
0.00072389915
0.00096991904
0.0026565789
0.0037708877
0.0031155686
0.002990517
0.0058603104
0.0041446372
0.0016113324
0.002392909
0.0010066927
4.9707563e-05
0.00093102036
0.0035679211
0.0037500275
0.0042501957
0.007520524
0.0054644095
0.0016823614
0.0014440328
0.00061145818
-5.863664e-06
0.0011685148
0.0043809565
0.0048325929
0.0055296518
0.0090056229
0.0070105232
0.0029574331
0.0022559417
0.00080274269
0.00037286176
0.0024405826
0.0058524308
0.0062891623
0.0067986334
0.0100783
0.0078743112
0.0035207118
0.0024321317
0.00079202853
0.00069267218
0.0035553978
0.0073802493
0.0079779054
0.0080874281
0.010754457
0.0079084054
0.0028707747
0.0010959846
0.00023502741
0.00040228825
0.0027286122
0.007416093
0.0091550483
0.0092085351
0.010976182
0.0070603908
0.001064919
-0.0012350317
-0.00058089493
0.00081725378
0.0025881531
0.0062971612
0.009324006
0.0099257784
0.010667798
0.0054526127
-0.00068610479
0.00015338698
0.00077397818
0.0020331288
0.004836156
0.0061284998
0.009018081
0.010196634
0.0098162255
0.0033932275
0.00012232136
0.00093695955
-5.8513209e-05
0.00067752238
0.001314344
0.0045975555
0.0047410484
0.0017638556
0.0037504868
0.0040682223
0.0027151807
0.00037117129
-0.0004693145
-0.00025295673
0.001733979
0.0050693872
0.0033251282
0.0022607962
0.0047990608
0.0041069857
0.0028912051
0.0027964112
0.00073651477
0.00095727909
0.0026733762
0.0038631628
0.0033181784
0.0032858227
0.0061334755
0.0043477972
0.0017431318
0.0024654073
0.0010199644
6.159778e-05
0.00099958637
0.0036796843
0.0039554824
0.0045387461
0.0077816477
0.0056535818
0.0018077738