/*--------------------------------*- C++ -*----------------------------------*\
| =========                 |                                                 |
| \\      /  F ield         | OpenFOAM: The Open Source CFD Toolbox           |
|  \\    /   O peration     | Version:  v2106                                 |
|   \\  /    A nd           | Website:  www.openfoam.com                      |
|    \\/     M anipulation  |                                                 |
\*---------------------------------------------------------------------------*/
FoamFile
{
    version     2.0;
    format      ascii;
    arch        "LSB;label=32;scalar=64";
    class       volVectorField;
    location    "0.8";
    object      U;
}
// * * * * * * * * * * * * * * * * * * * * * * * * * * * * * * * * * * * * * //

dimensions      [0 1 -1 0 0 0 0];

internalField   nonuniform List<vector> 
400
(
(0.000244115 0 0)
(0.000725462 0 0)
(0.00118658 0 0)
(0.00161521 0 0)
(0.00200057 0 0)
(0.00233371 0 0)
(0.0026076 0 0)
(0.00281704 0 0)
(0.00295843 0 0)
(0.00302958 0 0)
(0.00302946 0 0)
(0.00295808 0 0)
(0.00281647 0 0)
(0.00260685 0 0)
(0.00233282 0 0)
(0.00199959 0 0)
(0.00161422 0 0)
(0.00118568 0 0)
(0.000724774 0 0)
(0.000243824 0 0)
(0.000755213 0 0)
(0.00224424 0 0)
(0.00367042 0 0)
(0.00499566 0 0)
(0.00618665 0 0)
(0.00721577 0 0)
(0.00806146 0 0)
(0.00870785 0 0)
(0.00914411 0 0)
(0.00936362 0 0)
(0.00936329 0 0)
(0.00914313 0 0)
(0.00870628 0 0)
(0.00805938 0 0)
(0.0072133 0 0)
(0.00618395 0 0)
(0.00499296 0 0)
(0.00366796 0 0)
(0.00224239 0 0)
(0.000754444 0 0)
(0.00133599 0 0)
(0.00396975 0 0)
(0.00649129 0 0)
(0.0088328 0 0)
(0.0109353 0 0)
(0.0127503 0 0)
(0.0142403 0 0)
(0.0153783 0 0)
(0.0161458 0 0)
(0.0165319 0 0)
(0.0165314 0 0)
(0.0161443 0 0)
(0.0153759 0 0)
(0.0142372 0 0)
(0.0127466 0 0)
(0.0109312 0 0)
(0.00882877 0 0)
(0.00648767 0 0)
(0.00396705 0 0)
(0.00133488 0 0)
(0.00203635 0 0)
(0.0060499 0 0)
(0.00988988 0 0)
(0.0134519 0 0)
(0.016646 0 0)
(0.0193994 0 0)
(0.0216564 0 0)
(0.0233779 0 0)
(0.0245378 0 0)
(0.0251209 0 0)
(0.0251202 0 0)
(0.0245359 0 0)
(0.0233749 0 0)
(0.0216525 0 0)
(0.0193947 0 0)
(0.016641 0 0)
(0.0134469 0 0)
(0.0098854 0 0)
(0.00604657 0 0)
(0.00203498 0 0)
(0.0029113 0 0)
(0.00864749 0 0)
(0.0141304 0 0)
(0.0192089 0 0)
(0.0237543 0 0)
(0.0276643 0 0)
(0.0308631 0 0)
(0.0332984 0 0)
(0.0349369 0 0)
(0.0357599 0 0)
(0.0357592 0 0)
(0.0349347 0 0)
(0.0332949 0 0)
(0.0308586 0 0)
(0.027659 0 0)
(0.0237485 0 0)
(0.0192031 0 0)
(0.0141253 0 0)
(0.0086437 0 0)
(0.00290974 0 0)
(0.00402318 0 0)
(0.0119466 0 0)
(0.0195105 0 0)
(0.0265023 0 0)
(0.0327447 0 0)
(0.0380998 0 0)
(0.042469 0 0)
(0.0457872 0 0)
(0.0480156 0 0)
(0.0491336 0 0)
(0.0491329 0 0)
(0.0480132 0 0)
(0.0457834 0 0)
(0.042464 0 0)
(0.038094 0 0)
(0.0327384 0 0)
(0.0264961 0 0)
(0.0195049 0 0)
(0.0119425 0 0)
(0.00402147 0 0)
(0.00544421 0 0)
(0.01616 0 0)
(0.0263719 0 0)
(0.0357867 0 0)
(0.0441648 0 0)
(0.0513265 0 0)
(0.0571491 0 0)
(0.0615573 0 0)
(0.0645106 0 0)
(0.0659902 0 0)
(0.0659893 0 0)
(0.0645082 0 0)
(0.0615535 0 0)
(0.057144 0 0)
(0.0513205 0 0)
(0.0441584 0 0)
(0.0357804 0 0)
(0.0263662 0 0)
(0.0161557 0 0)
(0.00544242 0 0)
(0.00725978 0 0)
(0.0215379 0 0)
(0.0351139 0 0)
(0.0475869 0 0)
(0.0586389 0 0)
(0.0680427 0 0)
(0.0756538 0 0)
(0.0813932 0 0)
(0.0852263 0 0)
(0.087143 0 0)
(0.0871422 0 0)
(0.085224 0 0)
(0.0813894 0 0)
(0.0756489 0 0)
(0.0680369 0 0)
(0.0586326 0 0)
(0.0475806 0 0)
(0.0351083 0 0)
(0.0215337 0 0)
(0.00725798 0 0)
(0.00957317 0 0)
(0.0283813 0 0)
(0.0462106 0 0)
(0.0625163 0 0)
(0.0768839 0 0)
(0.0890359 0 0)
(0.0988144 0 0)
(0.106151 0 0)
(0.111032 0 0)
(0.113466 0 0)
(0.113465 0 0)
(0.111029 0 0)
(0.106147 0 0)
(0.0988098 0 0)
(0.0890304 0 0)
(0.076878 0 0)
(0.0625104 0 0)
(0.0462053 0 0)
(0.0283773 0 0)
(0.00957143 0 0)
(0.0125129 0 0)
(0.0370612 0 0)
(0.0602372 0 0)
(0.0813034 0 0)
(0.0997295 0 0)
(0.115194 0 0)
(0.127545 0 0)
(0.136753 0 0)
(0.142848 0 0)
(0.145879 0 0)
(0.145879 0 0)
(0.142846 0 0)
(0.13675 0 0)
(0.127541 0 0)
(0.115189 0 0)
(0.0997245 0 0)
(0.0812983 0 0)
(0.0602326 0 0)
(0.0370577 0 0)
(0.0125113 0 0)
(0.0162453 0 0)
(0.0480523 0 0)
(0.0779128 0 0)
(0.104831 0 0)
(0.128147 0 0)
(0.147518 0 0)
(0.162844 0 0)
(0.174175 0 0)
(0.18163 0 0)
(0.185323 0 0)
(0.185323 0 0)
(0.181629 0 0)
(0.174173 0 0)
(0.162841 0 0)
(0.147514 0 0)
(0.128143 0 0)
(0.104827 0 0)
(0.0779091 0 0)
(0.0480493 0 0)
(0.0162439 0 0)
(0.0209971 0 0)
(0.0619899 0 0)
(0.10017 0 0)
(0.134199 0 0)
(0.163291 0 0)
(0.187141 0 0)
(0.205783 0 0)
(0.219425 0 0)
(0.22833 0 0)
(0.232721 0 0)
(0.23272 0 0)
(0.228329 0 0)
(0.219423 0 0)
(0.205781 0 0)
(0.187139 0 0)
(0.163288 0 0)
(0.134196 0 0)
(0.100168 0 0)
(0.0619878 0 0)
(0.0209961 0 0)
(0.0270985 0 0)
(0.0797759 0 0)
(0.128278 0 0)
(0.170822 0 0)
(0.206555 0 0)
(0.235345 0 0)
(0.257498 0 0)
(0.273502 0 0)
(0.28385 0 0)
(0.288922 0 0)
(0.288922 0 0)
(0.28385 0 0)
(0.273502 0 0)
(0.257497 0 0)
(0.235344 0 0)
(0.206554 0 0)
(0.170821 0 0)
(0.128277 0 0)
(0.0797748 0 0)
(0.0270979 0 0)
(0.0350694 0 0)
(0.102778 0 0)
(0.164051 0 0)
(0.216586 0 0)
(0.259655 0 0)
(0.293573 0 0)
(0.319157 0 0)
(0.337347 0 0)
(0.348971 0 0)
(0.354629 0 0)
(0.354629 0 0)
(0.348972 0 0)
(0.337347 0 0)
(0.319158 0 0)
(0.293574 0 0)
(0.259656 0 0)
(0.216587 0 0)
(0.164052 0 0)
(0.102778 0 0)
(0.0350692 0 0)
(0.0458101 0 0)
(0.133226 0 0)
(0.21022 0 0)
(0.274076 0 0)
(0.324717 0 0)
(0.363422 0 0)
(0.391895 0 0)
(0.411747 0 0)
(0.424258 0 0)
(0.430297 0 0)
(0.430297 0 0)
(0.424259 0 0)
(0.411749 0 0)
(0.391897 0 0)
(0.363424 0 0)
(0.32472 0 0)
(0.274079 0 0)
(0.210222 0 0)
(0.133227 0 0)
(0.0458103 0 0)
(0.0610718 0 0)
(0.175041 0 0)
(0.271071 0 0)
(0.346892 0 0)
(0.404335 0 0)
(0.446569 0 0)
(0.476692 0 0)
(0.49721 0 0)
(0.509934 0 0)
(0.516018 0 0)
(0.516018 0 0)
(0.509936 0 0)
(0.497212 0 0)
(0.476695 0 0)
(0.446573 0 0)
(0.404339 0 0)
(0.346895 0 0)
(0.271074 0 0)
(0.175043 0 0)
(0.0610724 0 0)
(0.0847896 0 0)
(0.23563 0 0)
(0.353503 0 0)
(0.439956 0 0)
(0.501488 0 0)
(0.544549 0 0)
(0.574142 0 0)
(0.593769 0 0)
(0.605725 0 0)
(0.611384 0 0)
(0.611384 0 0)
(0.605727 0 0)
(0.593771 0 0)
(0.574145 0 0)
(0.544553 0 0)
(0.501492 0 0)
(0.439961 0 0)
(0.353507 0 0)
(0.235633 0 0)
(0.0847904 0 0)
(0.12748 0 0)
(0.329881 0 0)
(0.468494 0 0)
(0.559496 0 0)
(0.619039 0 0)
(0.658256 0 0)
(0.684089 0 0)
(0.700738 0 0)
(0.710697 0 0)
(0.715363 0 0)
(0.715364 0 0)
(0.710699 0 0)
(0.700741 0 0)
(0.684092 0 0)
(0.65826 0 0)
(0.619044 0 0)
(0.559501 0 0)
(0.468498 0 0)
(0.329884 0 0)
(0.127481 0 0)
(0.222903 0 0)
(0.488441 0 0)
(0.631951 0 0)
(0.711661 0 0)
(0.758365 0 0)
(0.78704 0 0)
(0.805116 0 0)
(0.816454 0 0)
(0.823126 0 0)
(0.826224 0 0)
(0.826224 0 0)
(0.823127 0 0)
(0.816456 0 0)
(0.805119 0 0)
(0.787043 0 0)
(0.758368 0 0)
(0.711664 0 0)
(0.631954 0 0)
(0.488444 0 0)
(0.222904 0 0)
(0.498703 0 0)
(0.769354 0 0)
(0.859736 0 0)
(0.897554 0 0)
(0.916617 0 0)
(0.927472 0 0)
(0.93406 0 0)
(0.93811 0 0)
(0.940467 0 0)
(0.941556 0 0)
(0.941556 0 0)
(0.940468 0 0)
(0.938111 0 0)
(0.934061 0 0)
(0.927473 0 0)
(0.916619 0 0)
(0.897555 0 0)
(0.859737 0 0)
(0.769355 0 0)
(0.498704 0 0)
)
;

boundaryField
{
    movingWall
    {
        type            fixedValue;
        value           uniform (1 0 0);
    }
    fixedWalls
    {
        type            noSlip;
    }
    frontAndBack
    {
        type            empty;
    }
}


// ************************************************************************* //
