/*--------------------------------*- C++ -*----------------------------------*\
| =========                 |                                                 |
| \\      /  F ield         | OpenFOAM: The Open Source CFD Toolbox           |
|  \\    /   O peration     | Version:  v2106                                 |
|   \\  /    A nd           | Website:  www.openfoam.com                      |
|    \\/     M anipulation  |                                                 |
\*---------------------------------------------------------------------------*/
FoamFile
{
    version     2.0;
    format      ascii;
    arch        "LSB;label=32;scalar=64";
    class       volVectorField;
    location    "3";
    object      flux;
}
// * * * * * * * * * * * * * * * * * * * * * * * * * * * * * * * * * * * * * //

dimensions      [0 1 -1 1 0 0 0];

internalField   nonuniform List<vector> 
5712
(
(-0.243325 0.430636 0.264728)
(-0.310525 0.248229 0.870665)
(-0.578994 0.698916 0.209827)
(-0.843332 0.457355 0.893815)
(-0.864565 0.760979 0.157249)
(-1.48674 0.56257 0.925869)
(-0.668984 1.19099 0.248849)
(-1.68862 1.47512 1.4284)
(-0.541661 1.56357 0.306802)
(-1.18406 1.91345 1.96297)
(-0.806814 1.01328 0.304458)
(-1.22491 0.879981 1.42929)
(-0.723303 0.644417 0.29348)
(-0.947034 0.510334 1.18522)
(-0.317999 0.323698 0.304928)
(-0.363139 0.218841 1.05808)
(-0.548163 0.724787 0.184106)
(-0.630792 0.747065 0.113955)
(-0.705166 0.622471 0.494075)
(-0.703699 0.735527 0.293227)
(-0.56478 0.975878 0.180375)
(-0.704918 0.878782 0.0987873)
(-0.822201 1.12319 0.541758)
(-0.747203 0.914898 0.271527)
(-0.197292 0.305126 0.200713)
(-0.147291 0.221575 0.144014)
(-0.245204 0.171052 0.64473)
(-0.164127 0.127252 0.450151)
(-0.45784 0.365877 0.151386)
(-0.363707 0.299742 0.10753)
(-0.780942 0.22117 0.634966)
(-0.56344 0.178804 0.458111)
(-0.608715 0.662586 0.356322)
(-0.63327 0.690814 0.150122)
(-0.676165 0.679061 0.307335)
(-0.642913 0.578088 0.1364)
(-0.233104 0.533559 0.139771)
(-0.184114 0.413306 0.330896)
(-1.44028 0.41226 1.24283)
(-1.92898 0.468293 0.337297)
(-0.935751 0.6675 0.445051)
(-1.14755 0.663608 0.15109)
(-1.93945 1.3919 1.60258)
(-2.51645 1.4398 0.43566)
(-1.01424 0.990187 0.419192)
(-1.15864 1.01908 0.145634)
(-1.06648 0.564706 0.885476)
(-1.50759 0.476251 0.275201)
(-0.93266 0.616448 0.454272)
(-1.2361 0.439772 0.158804)
(-0.541578 0.286834 0.767288)
(-0.875983 0.294155 0.244533)
(-0.102939 0.231999 0.203884)
(-0.0346013 0.315951 0.101015)
(-0.108426 0.121164 0.311997)
(-0.0389859 0.143709 0.120617)
(-0.311416 0.319004 0.220645)
(-0.125145 0.426912 0.119428)
(-0.427669 0.189308 0.305176)
(-0.156798 0.218627 0.116)
(-0.305114 0.355798 0.284207)
(-0.11695 0.584185 0.160952)
(-0.326462 0.245608 0.263161)
(-0.104345 0.397744 0.113192)
(-0.55648 0.0939706 0.394548)
(-0.176699 0.237656 0.140967)
(-0.718485 0.0782544 0.136076)
(-0.241885 0.178013 0.0472443)
(-0.900738 0.666053 0.453841)
(-0.449081 0.826632 0.313209)
(-0.822123 0.682455 0.280427)
(-0.492614 0.81971 0.205364)
(-0.857773 0.813464 0.522393)
(-0.559909 0.827975 0.431515)
(-0.751513 0.822527 0.283385)
(-0.573631 0.813591 0.248039)
(-0.640286 0.578966 0.260642)
(-0.382476 0.787292 0.174176)
(-0.640631 0.599124 0.36447)
(-0.326214 0.779942 0.240032)
(-0.845809 0.670024 0.185314)
(-0.548794 0.812207 0.136688)
(-0.846846 0.668719 0.0955574)
(-0.554434 0.809541 0.0785113)
(-0.789624 0.826038 0.182809)
(-0.606982 0.801015 0.159719)
(-0.797967 0.821749 0.096305)
(-0.610351 0.792576 0.0931991)
(-0.690744 0.533712 0.174913)
(-0.442865 0.789504 0.113739)
(-0.715163 0.514722 0.0907501)
(-0.454222 0.791882 0.0577881)
(-0.649044 0.645549 0.229552)
(-0.279129 0.749434 0.123765)
(-0.299702 0.817842 0.169782)
(-0.360568 1.12784 0.207049)
(-0.65265 0.68349 0.310644)
(-0.304533 0.85944 0.219836)
(-0.25977 0.809963 0.242805)
(-0.362624 1.21683 0.35126)
(-0.687353 0.612463 0.153203)
(-0.278489 0.662581 0.0719727)
(-0.340937 0.821795 0.100778)
(-0.364976 1.08851 0.119397)
(-0.721566 0.606202 0.0768684)
(-0.285567 0.62143 0.0315641)
(-0.371557 0.83107 0.0438603)
(-0.382378 1.08235 0.044339)
(-0.133595 0.183318 0.261201)
(-0.145714 0.23662 0.469401)
(-0.0445587 0.464737 0.178312)
(-0.0853766 0.797255 0.525568)
(-0.393101 0.230294 0.309281)
(-0.415478 0.259405 0.461552)
(-0.149944 0.605234 0.220684)
(-0.261383 0.917998 0.553469)
(-0.503963 0.291399 0.355868)
(-0.563018 0.293791 0.421359)
(-0.237514 0.776821 0.287311)
(-0.401627 1.04283 0.545443)
(-0.473192 0.925179 0.450878)
(-0.0442149 1.00036 0.557535)
(-0.51317 0.772061 0.323987)
(-0.623269 0.734533 0.305364)
(-0.332896 1.03706 0.335773)
(-0.0309747 1.01329 0.557296)
(-0.291903 0.95185 0.493186)
(-0.457098 0.791667 0.466261)
(-0.731068 0.677937 0.467258)
(-0.49035 1.17564 0.678517)
(-0.379712 0.918169 0.452304)
(-0.449319 0.902933 0.333438)
(-0.384433 0.796087 0.276808)
(-0.325141 0.776597 0.305454)
(-0.505082 1.35904 0.485809)
(-0.130499 0.0728393 0.539499)
(-0.109185 0.0869902 0.477956)
(-0.0740193 0.153255 0.627529)
(-0.0738347 0.33619 0.597573)
(-0.369852 0.10436 0.49434)
(-0.317255 0.116677 0.45499)
(-0.218778 0.215786 0.622054)
(-0.209243 0.384833 0.587063)
(-0.464535 0.158232 0.429637)
(-0.402103 0.133761 0.415607)
(-0.285998 0.2983 0.586645)
(-0.258366 0.452317 0.568337)
(-0.229969 1.01559 0.406292)
(-0.294633 1.02631 0.31682)
(-0.472349 0.911509 0.357814)
(-0.490537 0.916478 0.306015)
(-0.532733 0.768779 0.378143)
(-0.487747 0.7215 0.329083)
(-0.598947 0.576348 0.396904)
(-0.527355 0.518308 0.372861)
(-0.393232 0.397503 0.54586)
(-0.331122 0.540397 0.549866)
(-0.353455 0.91849 0.379262)
(-0.378842 0.906493 0.324961)
(-0.459004 0.920733 0.345426)
(-0.373384 0.922789 0.321162)
(-0.412957 0.791375 0.344508)
(-0.311207 0.753793 0.35272)
(-0.353067 0.645016 0.381401)
(-0.25224 0.584479 0.416102)
(-0.40277 0.425776 0.497874)
(-0.268129 0.551954 0.562344)
(-0.396896 0.90492 0.305145)
(-0.198437 1.0297 0.238217)
(-0.340948 0.900176 0.211178)
(-0.373794 1.05201 0.270043)
(-0.493048 0.87901 0.427712)
(-0.651031 0.924704 0.525565)
(-0.543954 0.855621 0.297912)
(-0.793688 0.92715 0.473393)
(-0.266913 0.814115 0.173546)
(-0.301795 0.832992 0.230757)
(-0.347862 0.808295 0.256277)
(-0.126291 0.81014 0.209573)
(-0.304364 0.892165 0.0504081)
(-0.584462 1.05532 0.180013)
(-0.288906 0.887217 0.0269371)
(-0.624311 1.05324 0.0650367)
(-0.538997 0.829178 0.15357)
(-0.976501 0.936305 0.319768)
(-0.548466 0.821531 0.0573116)
(-1.03326 0.933113 0.111313)
(-0.225332 0.817217 0.0206005)
(-0.495602 0.831381 0.149056)
(-0.204248 0.816502 0.0125885)
(-0.525975 0.83046 0.0523006)
(-0.305706 0.678567 0.167498)
(-0.237625 0.64705 0.170654)
(-0.41967 0.435213 0.189475)
(-0.171734 0.481332 0.114952)
(-0.318572 0.673194 0.263435)
(-0.0788186 0.628925 0.20817)
(-0.368188 0.427849 0.308901)
(-0.0431195 0.479563 0.208878)
(-0.292466 0.688771 0.035951)
(-0.350348 0.646099 0.0932461)
(-0.439106 0.445182 0.0933969)
(-0.205765 0.485132 0.0512067)
(-0.241098 0.691699 0.0532067)
(-0.411046 0.639915 0.0698756)
(-0.387521 0.459239 0.07605)
(-0.268462 0.486303 0.0571517)
(-0.0889737 0.0615122 0.376454)
(-0.0798469 0.0436721 0.22678)
(-0.0735294 0.0313601 0.0703962)
(-0.0635066 0.0368 0.427786)
(-0.0592861 0.0268041 0.243121)
(-0.0542537 0.0252881 0.0791734)
(-0.265621 0.0848537 0.3609)
(-0.225078 0.0542088 0.224507)
(-0.199884 0.0424966 0.0748965)
(-0.167629 0.0736617 0.42259)
(-0.139877 0.0613969 0.243809)
(-0.124617 0.0545078 0.0791311)
(-0.33205 0.10185 0.332926)
(-0.294648 0.0904385 0.206112)
(-0.275975 0.0931723 0.0672356)
(-0.202911 0.130676 0.414478)
(-0.171977 0.110864 0.246144)
(-0.165397 0.101591 0.0819213)
(-0.265344 1.01248 0.202938)
(-0.242 0.945797 0.106499)
(-0.239008 0.893595 0.0276596)
(-0.4354 0.922588 0.24418)
(-0.34437 0.881464 0.159264)
(-0.295991 0.842282 0.0555836)
(-0.401452 0.656602 0.281235)
(-0.309402 0.628297 0.193909)
(-0.257659 0.613224 0.0667826)
(-0.422315 0.438042 0.318886)
(-0.345465 0.394821 0.204346)
(-0.306046 0.377398 0.0674568)
(-0.251034 0.19831 0.412237)
(-0.172716 0.153217 0.254322)
(-0.138442 0.132945 0.0890924)
(-0.630469 0.908736 0.243178)
(-0.560863 0.87237 0.133258)
(-0.495927 0.832483 0.041025)
(-0.396048 0.922074 0.224639)
(-0.341418 0.86955 0.159974)
(-0.292684 0.822352 0.0598503)
(-0.342964 0.674685 0.257665)
(-0.277833 0.602489 0.189954)
(-0.230686 0.56016 0.0690736)
(-0.280956 0.434879 0.321319)
(-0.212075 0.363709 0.224212)
(-0.170543 0.335224 0.0794799)
(-0.278124 0.211403 0.41627)
(-0.160505 0.153089 0.256239)
(-0.0954878 0.126071 0.0902116)
(-0.406539 0.987956 0.0102452)
(-0.556422 0.978658 0.0779536)
(-0.31851 1.07013 0.103588)
(-0.416953 0.968241 0.158352)
(-0.429366 1.10845 0.078629)
(-0.635265 0.976948 0.0943815)
(-0.379993 1.33368 0.199424)
(-0.556703 1.02232 0.195644)
(-0.00849362 0.757364 0.0227977)
(-0.0353616 0.770162 0.0409906)
(0.0128841 0.744018 0.0243845)
(-0.0090995 0.683459 0.0427854)
(-0.127315 0.855361 0.0171702)
(-0.144589 0.805255 0.0536327)
(-0.0574135 0.832735 0.0325687)
(-0.0361194 0.703012 0.0713662)
(-0.0468732 0.815206 0.120388)
(-0.120284 0.818211 0.0607961)
(-0.37943 0.766195 0.160017)
(-0.555643 0.834244 0.0936338)
(-0.265608 1.0272 0.0849602)
(-0.14122 0.904733 0.143456)
(-0.384592 1.01627 0.131164)
(-0.380237 1.03042 0.0371271)
(-0.578767 1.10648 0.227343)
(-0.634047 1.14319 0.056673)
(0.00990453 0.827244 -0.0680497)
(0.137516 0.861256 0.0267698)
(-0.302924 0.753223 0.0737064)
(-0.284042 0.732812 0.052335)
(-0.256474 0.900802 0.045283)
(-0.197666 0.921556 0.0429722)
(-0.0462981 0.577257 0.39677)
(-0.0264562 0.257161 0.204922)
(-0.0283054 0.528153 0.109327)
(-0.0113979 0.291888 0.0751901)
(-0.100558 0.587091 0.404939)
(-0.0293792 0.258379 0.214248)
(-0.00523919 0.523999 0.1337)
(0.0171112 0.286755 0.0918342)
(-0.373244 0.588804 0.405738)
(-0.115503 0.260331 0.232434)
(-0.249127 0.532675 0.195255)
(-0.0799091 0.303501 0.146927)
(-0.333242 0.515145 0.130719)
(-0.106797 0.321358 0.0982446)
(-0.396996 0.520399 0.0657661)
(-0.132133 0.318164 0.0650792)
(-0.372673 0.786974 0.505887)
(-0.484584 0.677678 0.451854)
(-0.340995 0.772894 0.238303)
(-0.474458 0.672545 0.249862)
(-0.559014 0.873739 0.527875)
(-0.58906 0.795852 0.497284)
(-0.529005 0.874635 0.258693)
(-0.559392 0.78378 0.263917)
(-0.252458 0.748706 0.220846)
(-0.402985 0.55081 0.230449)
(-0.290229 0.792862 0.448282)
(-0.398389 0.5473 0.380604)
(-0.355086 0.784795 0.142541)
(-0.458939 0.666951 0.150456)
(-0.385905 0.792503 0.0814517)
(-0.464355 0.65875 0.0915574)
(-0.546705 0.892634 0.159592)
(-0.550181 0.774884 0.160394)
(-0.569957 0.891388 0.0894427)
(-0.553225 0.764192 0.0956943)
(-0.250589 0.734702 0.129912)
(-0.392801 0.550333 0.14093)
(-0.267301 0.729332 0.074893)
(-0.40086 0.546377 0.0890611)
(-0.0490344 0.465837 0.205285)
(-0.102545 0.256747 0.157441)
(-0.339369 0.413671 0.210764)
(-0.253148 0.19769 0.167515)
(-0.0300774 0.435512 0.321308)
(-0.0871322 0.221127 0.216931)
(-0.314911 0.398177 0.312762)
(-0.227806 0.176573 0.234741)
(-0.0599605 0.475491 0.123903)
(-0.106177 0.279075 0.109373)
(-0.34815 0.419328 0.132042)
(-0.27204 0.206976 0.107309)
(-0.0740948 0.474662 0.0709848)
(-0.113661 0.293872 0.0672127)
(-0.352552 0.417196 0.0816755)
(-0.283915 0.208546 0.0600777)
(0.0126083 0.072978 0.496412)
(0.0160937 0.0266815 0.402932)
(-0.0140149 0.0987017 0.284466)
(-0.010415 0.00375056 0.327192)
(0.0745157 0.0791485 0.497929)
(0.0769139 0.0386096 0.406475)
(-0.0145282 0.106284 0.287798)
(-0.0131043 0.0200318 0.326306)
(-0.0246039 0.10315 0.515311)
(0.0276161 0.0719673 0.408151)
(-0.106352 0.124239 0.292663)
(-0.089271 0.0562536 0.314902)
(0.383985 0.482934 0.557128)
(0.367265 0.771869 0.582897)
(0.185879 0.329701 0.522384)
(0.115058 0.305527 0.372429)
(-0.0252317 0.156625 0.245089)
(0.406051 0.761835 0.557347)
(0.417461 0.519162 0.540555)
(0.144216 0.281533 0.529496)
(0.19802 0.279261 0.467299)
(-0.0192963 0.110331 0.356981)
(-0.404932 0.788882 0.518148)
(-0.338193 0.615196 0.484259)
(-0.321658 0.47874 0.4057)
(-0.31755 0.349011 0.33571)
(-0.2333 0.140284 0.246314)
(0.0209004 0.00355141 0.39317)
(0.0233065 -0.000892304 0.389382)
(-0.0088058 -0.040678 0.397018)
(-0.0172815 -0.0535372 0.4959)
(0.0682178 0.0172889 0.389955)
(0.0810276 0.00578146 0.370132)
(-0.0297357 -0.0188975 0.393328)
(-0.0475139 -0.0313032 0.480683)
(0.0641575 0.049551 0.383594)
(0.104428 0.0421176 0.343648)
(-0.074333 0.0170131 0.385766)
(-0.101904 -0.00229965 0.459213)
(0.198199 0.787727 0.42379)
(0.0919333 0.788068 0.303261)
(0.313209 0.529217 0.419024)
(0.19788 0.533638 0.304396)
(0.113231 0.328981 0.360346)
(0.0865711 0.362876 0.308643)
(0.115008 0.2661 0.364947)
(0.106987 0.271253 0.33898)
(-0.081585 0.076475 0.352547)
(-0.136446 0.0485774 0.443341)
(-0.156202 0.734037 0.351849)
(-0.101219 0.690088 0.309157)
(-0.0632602 0.567451 0.3311)
(0.0251945 0.52312 0.29935)
(-0.0795809 0.435057 0.307195)
(0.000211709 0.415072 0.294436)
(-0.127952 0.307599 0.302272)
(-0.0718723 0.306826 0.323509)
(-0.16749 0.114342 0.286835)
(-0.196473 0.145303 0.426329)
(-0.234936 0.578685 0.294901)
(-0.2203 0.493983 0.209966)
(-0.422844 0.581043 0.195406)
(-0.271611 0.478951 0.124938)
(-0.331383 0.69429 0.36309)
(-0.338819 0.596251 0.284427)
(-0.498031 0.690472 0.252426)
(-0.411397 0.583088 0.205588)
(-0.362279 0.483856 0.172949)
(-0.241334 0.420545 0.119616)
(-0.204533 0.468472 0.25307)
(-0.207949 0.42442 0.204569)
(-0.491367 0.580616 0.192201)
(-0.241697 0.4696 0.0980759)
(-0.537988 0.577006 0.0708429)
(-0.267961 0.468917 0.0428409)
(-0.553027 0.687085 0.19735)
(-0.421313 0.591526 0.145486)
(-0.589297 0.679995 0.0697011)
(-0.449858 0.589217 0.0585085)
(-0.426956 0.493485 0.173864)
(-0.211043 0.413021 0.0905951)
(-0.473633 0.493011 0.0681325)
(-0.237272 0.420271 0.0394925)
(-0.333372 0.35458 0.164036)
(-0.298011 0.327712 0.171587)
(-0.312032 0.162175 0.165695)
(-0.459678 0.219579 0.258586)
(-0.238771 0.34032 0.231366)
(-0.275289 0.321614 0.244193)
(-0.275141 0.147941 0.218742)
(-0.425617 0.206981 0.341556)
(-0.373115 0.372992 0.149759)
(-0.303239 0.336792 0.115284)
(-0.346707 0.169012 0.110106)
(-0.522929 0.241555 0.166517)
(-0.430431 0.385444 0.0508598)
(-0.328732 0.34036 0.0307235)
(-0.402153 0.181441 0.0210752)
(-0.541815 0.247937 0.0392496)
(0.0310114 0.0995222 0.279527)
(0.0381526 0.0887419 0.116292)
(0.0454464 0.0730301 0.0334871)
(-0.00734157 0.496072 0.338869)
(0.0121726 0.245839 0.0861373)
(0.0152874 0.19484 0.022504)
(0.119636 0.0915314 0.273291)
(0.142354 0.0941592 0.122251)
(0.147584 0.0834228 0.0369295)
(-0.0100475 0.518014 0.331827)
(0.0362742 0.281367 0.0883188)
(0.0397096 0.232952 0.0239453)
(0.148129 0.123223 0.240601)
(0.186604 0.142572 0.114602)
(0.198783 0.145988 0.0298162)
(-0.0643055 0.542804 0.316304)
(0.0318824 0.339302 0.0878495)
(0.0515264 0.297936 0.0205251)
(0.0541233 0.776917 0.188181)
(0.0500193 0.756744 0.094379)
(0.0388933 0.735152 0.0202078)
(0.15655 0.547354 0.190977)
(0.172346 0.558187 0.093383)
(0.165693 0.560294 0.0219604)
(0.121347 0.414315 0.210484)
(0.157122 0.432792 0.103511)
(0.161368 0.442028 0.0281601)
(0.150255 0.382546 0.232026)
(0.186069 0.385355 0.110194)
(0.19014 0.380344 0.0237397)
(-0.114015 0.591586 0.306917)
(0.00626156 0.408562 0.0835228)
(0.0203597 0.366648 0.0135289)
(-0.142362 0.65878 0.239963)
(-0.0764622 0.636761 0.120499)
(-0.0355976 0.616743 0.031518)
(0.0331905 0.509788 0.238556)
(0.0974507 0.502338 0.121179)
(0.131381 0.49429 0.0333673)
(0.0214475 0.446617 0.240571)
(0.108813 0.438831 0.121162)
(0.146754 0.428337 0.0353789)
(-0.0124042 0.465211 0.255642)
(0.0877517 0.42646 0.109006)
(0.1175 0.398168 0.0266471)
(-0.169961 0.714961 0.326726)
(0.0153199 0.457743 0.0742801)
(0.0399717 0.409624 0.0176815)
(-0.00178162 0.0802847 0.0861112)
(0.000299601 0.01632 0.0337056)
(0.00101613 -0.00019154 0.0139567)
(0.000992171 -0.00579656 0.00755997)
(0.00920103 0.107512 0.0350352)
(0.00569104 0.0285133 0.0144128)
(0.0039579 0.00389441 0.00610391)
(0.00271186 -0.00425683 0.00307926)
(-0.00757564 0.0793591 0.0911332)
(-0.000427624 0.0153134 0.0365868)
(0.00187198 0.000179025 0.0157579)
(0.00183567 -0.00517335 0.00879373)
(0.0127912 0.111087 0.0431917)
(0.00961373 0.0307866 0.0190844)
(0.00762665 0.00581837 0.00909476)
(0.00546785 -0.00289799 0.00492552)
(-0.0224568 0.0752319 0.0983611)
(-0.00475109 0.0122344 0.0404871)
(0.000926752 0.000570679 0.0185257)
(0.00121671 -0.0041538 0.01068)
(-0.00374858 0.11337 0.0723518)
(0.00491842 0.0312942 0.0354373)
(0.00755098 0.00763286 0.0191559)
(0.00705307 -0.00133731 0.012426)
(-0.00463752 0.130757 0.0516302)
(0.00293484 0.0399081 0.0305467)
(0.00466412 0.00995969 0.0191545)
(0.0039957 -0.000137739 0.0134878)
(-0.0142761 0.137621 0.0477141)
(-0.00300781 0.0454061 0.0329399)
(0.000962347 0.0131238 0.0226374)
(0.00148812 0.00244897 0.0159086)
(-0.0591499 0.0858344 0.080245)
(-0.0173812 0.0189582 0.0371087)
(-0.00265967 0.00374948 0.0196275)
(0.00165769 -0.00239561 0.0128993)
(-0.0880441 0.0321248 0.0705305)
(-0.0248432 -0.00345114 0.0310282)
(-0.00671746 -0.0028722 0.0178561)
(-0.00278694 -0.00356196 0.0131402)
(-0.0466697 0.055604 0.0986763)
(-0.0117278 0.00485237 0.0402112)
(-0.000433294 -0.00149974 0.0192384)
(0.00266666 -0.00440389 0.0120779)
(-0.0747953 0.0156322 0.089983)
(-0.0201543 -0.010209 0.035492)
(-0.00544576 -0.00509257 0.0188302)
(-0.00312527 -0.00442047 0.0143603)
(-0.0600611 0.105277 0.0620999)
(-0.0184972 0.0294027 0.0330769)
(-0.00361773 0.00772341 0.0195403)
(8.91979e-05 -0.000261666 0.0131133)
(-0.0966735 0.0414772 0.052742)
(-0.0282734 0.00164781 0.0266714)
(-0.00770636 -0.000832958 0.0168235)
(-0.00276465 -0.00232477 0.0124247)
(-0.0640427 0.11569 0.0438669)
(-0.0214517 0.0362403 0.0279113)
(-0.00571259 0.0110919 0.0187205)
(-0.00141466 0.0021234 0.0133841)
(-0.10248 0.0447705 0.0344449)
(-0.031119 0.00516751 0.0216697)
(-0.0092288 0.00119313 0.0153916)
(-0.00350279 -0.000479892 0.0119219)
(-0.00269343 0.0253738 0.114039)
(-0.000359079 -0.00442394 0.0418638)
(0.000311733 -0.00651531 0.0171269)
(0.000217087 -0.00783691 0.0102879)
(-0.00118357 -0.0426775 0.119229)
(0.000328991 -0.0307357 0.0398505)
(0.000531514 -0.0146422 0.0155228)
(0.000149127 -0.0104283 0.011519)
(-0.00466454 0.0229746 0.113672)
(8.83394e-05 -0.0059188 0.0420756)
(0.00133512 -0.00643934 0.0177163)
(0.00101606 -0.00734263 0.0109445)
(0.00029279 -0.0404627 0.115425)
(0.0021519 -0.0300192 0.038646)
(0.00194882 -0.0140616 0.0153702)
(0.00069794 -0.0100164 0.0115617)
(-0.0326248 0.0226047 0.111358)
(-0.00868498 -0.00744643 0.0417849)
(-0.0017494 -0.00613332 0.0181454)
(-0.00087835 -0.00669689 0.0111637)
(-0.0220476 -0.0287789 0.107178)
(-0.00427884 -0.0265103 0.0363273)
(0.000268788 -0.0125554 0.0148318)
(-0.000284587 -0.0090346 0.0116492)
(-0.0187883 0.0135624 0.0957772)
(-0.000958629 -0.0126682 0.0370757)
(0.00275095 -0.00776054 0.0177486)
(0.002253 -0.00667853 0.0120271)
(-0.0134397 -0.019855 0.116902)
(-0.000473227 -0.0246129 0.0400208)
(0.00126377 -0.010679 0.0177823)
(-0.00126996 -0.00710208 0.0151216)
(-0.0682132 -0.00699485 0.0875359)
(-0.0173405 -0.0183911 0.0330361)
(-0.00462772 -0.00838575 0.0170547)
(-0.00410454 -0.00570289 0.0137115)
(0.00175295 -0.122832 0.0990227)
(0.00125745 -0.0530644 0.0284052)
(0.00072364 -0.018911 0.0110531)
(0.000339314 -0.00363059 0.00894203)
(0.00639354 -0.226483 0.0405126)
(0.00253871 -0.0670946 0.0103499)
(0.00116702 -0.0228159 0.00429293)
(0.000732798 -0.00556841 0.0030725)
(0.00180535 -0.111882 0.10005)
(0.0026014 -0.0496523 0.0295172)
(0.00193952 -0.0179402 0.0118006)
(0.00104402 -0.00353814 0.00934107)
(0.0157857 -0.20989 0.04131)
(0.0066394 -0.0630616 0.0108928)
(0.00326822 -0.0217952 0.00463839)
(0.00207105 -0.0053592 0.0033279)
(-0.00554045 -0.0916496 0.0985471)
(0.00171698 -0.0437003 0.0304508)
(0.00219683 -0.0158519 0.012504)
(0.0011585 -0.00284006 0.00974438)
(0.0179067 -0.182913 0.0404898)
(0.00895678 -0.0564525 0.011313)
(0.00471397 -0.0197342 0.00517565)
(0.00302033 -0.00479614 0.00386222)
(-0.0187285 -0.0682422 0.0878453)
(-0.000151385 -0.0371717 0.0283333)
(0.00209435 -0.0143176 0.0120964)
(0.000833599 -0.00269308 0.00947444)
(0.00890448 -0.157097 0.0382698)
(0.00892689 -0.0497595 0.0113429)
(0.00537176 -0.0176778 0.00552843)
(0.00350752 -0.004304 0.00430291)
(-0.0427053 -0.0558611 0.0789119)
(-0.00547534 -0.0321192 0.0273262)
(0.00118133 -0.0126464 0.0128248)
(0.00123644 -0.00285378 0.00966223)
(-0.00711551 -0.158975 0.0326656)
(0.00676196 -0.0457403 0.0112545)
(0.0054871 -0.0157958 0.0061246)
(0.00398607 -0.00387198 0.00498722)
(-0.0780661 -0.0539219 0.0546459)
(-0.0131532 -0.0278056 0.0214331)
(-0.000784167 -0.0101128 0.0128442)
(0.000658451 -0.00250257 0.0105626)
(-0.0293015 -0.189005 0.0286161)
(-0.000756636 -0.0439428 0.0136337)
(0.0026136 -0.0131744 0.00931975)
(0.00253947 -0.00313056 0.00784615)
(-0.0650054 -0.0547973 0.064449)
(-0.00900798 -0.0297372 0.0224871)
(0.000881066 -0.0114906 0.0119603)
(0.00143315 -0.00270807 0.00975439)
(-0.0236739 -0.18877 0.0295453)
(0.002338 -0.0449103 0.0120417)
(0.00412505 -0.0142227 0.00759978)
(0.00352427 -0.00342768 0.00641819)
(-0.0897111 -0.0550073 0.0424171)
(-0.0179485 -0.0263802 0.0199986)
(-0.00338367 -0.00823467 0.0133588)
(-0.000915739 -0.00177646 0.0110814)
(-0.0347974 -0.194622 0.0251618)
(-0.00377027 -0.0428788 0.0143229)
(0.000587017 -0.0117356 0.0104872)
(0.00100918 -0.00260634 0.00883488)
(-0.0979032 -0.0532512 0.0281498)
(-0.0226919 -0.0244988 0.0175279)
(-0.00628578 -0.00627933 0.0128949)
(-0.00254916 -0.000967831 0.01088)
(-0.0401058 -0.18927 0.0204332)
(-0.00728829 -0.040961 0.0143237)
(-0.00173089 -0.0102112 0.010877)
(-0.000533509 -0.00202151 0.00915411)
(0.000994938 -0.00706905 0.00229487)
(0.000695731 -0.0045944 0.000977387)
(0.000451176 -0.00267851 0.000535743)
(0.000306679 -0.00137224 0.00034729)
(0.000241846 -0.000420274 0.000270757)
(0.00187411 -0.00610435 0.00108629)
(0.00119934 -0.00429617 0.000503946)
(0.000761412 -0.00256165 0.000284752)
(0.000514911 -0.00132134 0.000186193)
(0.000405603 -0.000405421 0.000145475)
(0.0022876 -0.00658214 0.00334697)
(0.00160236 -0.00418924 0.00167164)
(0.00103878 -0.00244028 0.000981029)
(0.000705978 -0.00125021 0.000649391)
(0.000556712 -0.000382941 0.000508947)
(0.00413513 -0.00529004 0.0024009)
(0.00266573 -0.00373549 0.00133715)
(0.00169578 -0.00223215 0.000812839)
(0.00114746 -0.00115235 0.000543283)
(0.000904014 -0.00035369 0.000426778)
(0.00274559 -0.00609365 0.00470237)
(0.0019675 -0.00371295 0.00253907)
(0.00127817 -0.0021465 0.00153414)
(0.000868928 -0.00109782 0.00102424)
(0.000685269 -0.000336168 0.000804498)
(0.00546743 -0.00436833 0.00694851)
(0.00351821 -0.00308582 0.00411533)
(0.00223565 -0.00184471 0.00255384)
(0.00151239 -0.000952702 0.00171722)
(0.00119153 -0.000292492 0.00135111)
(0.00275882 -0.00278344 0.00791702)
(0.00178107 -0.0020932 0.00479535)
(0.00113369 -0.0012763 0.00299795)
(0.00076764 -0.000663568 0.002021)
(0.000605032 -0.000204156 0.0015916)
(0.00131269 -0.000587051 0.00978136)
(0.000896052 -0.000702349 0.00606448)
(0.000579696 -0.000467675 0.00382345)
(0.000394287 -0.000249573 0.0025851)
(0.000311083 -7.73945e-05 0.00203786)
(0.00302852 -0.00441532 0.00608959)
(0.00206468 -0.00285301 0.00347563)
(0.00132853 -0.0016592 0.00213852)
(0.000901363 -0.000850611 0.00143525)
(0.000710584 -0.000260699 0.00112879)
(0.00105626 -0.00505392 0.00548469)
(0.000774853 -0.00264615 0.00314701)
(0.000505055 -0.00147279 0.00194053)
(0.000343651 -0.000747201 0.00130326)
(0.000271101 -0.00022848 0.0010251)
(0.00403589 -0.00598389 0.00516879)
(0.00260722 -0.00344336 0.00283134)
(0.00165369 -0.00195765 0.00172435)
(0.00111775 -0.000997324 0.0011541)
(0.000880425 -0.000305143 0.000907074)
(0.00117434 -0.00648178 0.00531037)
(0.000820911 -0.00318132 0.0030674)
(0.000529061 -0.00175744 0.00189659)
(0.000358883 -0.000889498 0.00127427)
(0.000282907 -0.000271784 0.00100229)
(0.0015944 -0.00276834 0.0068945)
(0.0011812 -0.0019306 0.00405109)
(0.000774264 -0.00114107 0.00251322)
(0.000527827 -0.000588251 0.00169111)
(0.000416559 -0.000180616 0.00133126)
(0.000890391 -0.00348633 0.00612805)
(0.000661783 -0.00180921 0.00363745)
(0.00043253 -0.00100595 0.00226463)
(0.000294573 -0.000511246 0.00152543)
(0.000232421 -0.000156468 0.00120104)
(0.000489808 -0.000733411 0.00798836)
(0.000501709 -0.000630351 0.00491128)
(0.00034818 -0.000389958 0.00309039)
(0.000240488 -0.000204225 0.0020887)
(0.000190235 -6.30554e-05 0.00164649)
(0.000137498 -0.00160858 0.00666146)
(0.00020139 -0.000669483 0.00405827)
(0.00014392 -0.000355725 0.00254842)
(9.99079e-05 -0.000179728 0.00172165)
(7.90861e-05 -5.50306e-05 0.00135694)
(0.00068941 -0.00862055 0.00216226)
(0.000508628 -0.00496392 0.000797668)
(0.000331529 -0.00279981 0.000419075)
(0.000225434 -0.00142125 0.000268741)
(0.000177763 -0.000434255 0.000209004)
(0.000677357 -0.0107393 0.000934521)
(0.000446241 -0.00525782 0.000313372)
(0.000283196 -0.00287889 0.000161381)
(0.000191259 -0.0014516 0.000103141)
(0.000150564 -0.00044282 8.01798e-05)
(0.0019277 -0.00830555 0.00278205)
(0.0013442 -0.00467122 0.00121824)
(0.000864391 -0.00262722 0.000689881)
(0.000585752 -0.00133298 0.000452584)
(0.000461485 -0.000407272 0.000353989)
(0.00191105 -0.0104133 0.00115648)
(0.00121934 -0.00502146 0.000464428)
(0.0007678 -0.00274454 0.000258488)
(0.00051752 -0.00138356 0.000169004)
(0.00040718 -0.000422068 0.00013211)
(0.00207455 -0.00787509 0.00336372)
(0.00155717 -0.00421612 0.00165364)
(0.00101286 -0.00235547 0.000977426)
(0.000688122 -0.00119385 0.000649131)
(0.000542443 -0.000364727 0.000509287)
(0.00276265 -0.00977769 0.00187116)
(0.00172781 -0.00458068 0.00095324)
(0.00108348 -0.00249746 0.000571793)
(0.000729818 -0.00125901 0.000381291)
(0.000574166 -0.000384127 0.000299403)
(0.00331523 -0.00773508 0.00479953)
(0.00208662 -0.00380831 0.00261592)
(0.00131202 -0.00209694 0.00159515)
(0.000884722 -0.00105993 0.00106805)
(0.000696517 -0.00032366 0.000839827)
(0.00232102 -0.00911852 0.00293991)
(0.00138511 -0.00404447 0.00160478)
(0.000860839 -0.0022044 0.000981053)
(0.000578831 -0.00111186 0.000657263)
(0.00045524 -0.000339313 0.000516806)
(0.0019358 -0.00775239 0.00532047)
(0.00117845 -0.00353053 0.00312132)
(0.000736476 -0.00193624 0.00193639)
(0.000496015 -0.000978202 0.00130191)
(0.000390511 -0.000298723 0.00102439)
(-0.0148172 0.329501 0.0553)
(-0.0188333 0.502328 0.126742)
(-0.0344801 0.348627 0.0550042)
(-0.0464795 0.516172 0.124968)
(-0.0386532 0.377672 0.0591408)
(-0.0589097 0.535517 0.123465)
(-0.0207828 0.400206 0.0707824)
(-0.0499537 0.550848 0.128752)
(0.0034471 0.389702 0.0746221)
(-0.0161287 0.536373 0.133849)
(-0.0314132 0.369086 0.0288086)
(-0.0489852 0.414491 0.04682)
(-0.00111346 0.366702 0.0486466)
(-0.00370848 0.42929 0.0798106)
(-0.0443864 0.372838 0.0146728)
(-0.0685006 0.413723 0.0222709)
(-0.0543906 0.380174 0.00478396)
(-0.0769899 0.420161 0.00702185)
(-0.0216304 0.289395 0.291593)
(-0.00497189 0.0493358 0.0693408)
(-0.0011118 0.0104804 0.0158128)
(-0.000243914 0.00233651 0.00351297)
(-6.07352e-05 0.000411732 0.000867277)
(-0.00803624 0.321178 0.0791238)
(-0.00336171 0.091081 0.0212412)
(-0.000485023 0.0220054 0.00563061)
(-0.000125045 0.00496473 0.00127423)
(-5.24548e-05 0.000874674 0.000274991)
(-0.0664816 0.294221 0.289441)
(-0.0152221 0.0492068 0.0682346)
(-0.00341578 0.0103685 0.0155394)
(-0.000745724 0.00230148 0.00342213)
(-0.000185924 0.000404337 0.000850901)
(-0.0194454 0.326208 0.0804448)
(-0.00505881 0.0911857 0.0236982)
(-0.00120035 0.0219282 0.00581854)
(-0.000249905 0.00492112 0.00134648)
(-6.58519e-05 0.000859247 0.000332441)
(-0.112165 0.300352 0.278684)
(-0.025744 0.0494791 0.0651869)
(-0.00579152 0.010325 0.0147794)
(-0.00126826 0.00227987 0.00324885)
(-0.000315471 0.000399488 0.000808408)
(-0.0304643 0.332122 0.07809)
(-0.00846297 0.0916779 0.0229476)
(-0.00201176 0.021902 0.00562067)
(-0.000458654 0.004893 0.00129433)
(-0.000113642 0.000852636 0.0003207)
(-0.151534 0.301815 0.258089)
(-0.034893 0.0486103 0.0597811)
(-0.00788047 0.0100424 0.0135028)
(-0.00173049 0.00221006 0.00296396)
(-0.000430858 0.000386799 0.000737365)
(-0.0352981 0.332499 0.076187)
(-0.0105978 0.0908103 0.0219235)
(-0.00260298 0.0215949 0.00529857)
(-0.000601087 0.00481266 0.00120904)
(-0.000148856 0.000837359 0.000297843)
(-0.190879 0.290497 0.218886)
(-0.0444002 0.0456135 0.050407)
(-0.010096 0.00939874 0.0113853)
(-0.00222771 0.00207356 0.00250144)
(-0.000556854 0.000363588 0.000622845)
(-0.0386579 0.318951 0.0725721)
(-0.0127748 0.0872223 0.0203031)
(-0.00323598 0.0207984 0.00485028)
(-0.000758218 0.00464626 0.0010993)
(-0.00019009 0.000809367 0.000269871)
(-0.229637 0.264944 0.105797)
(-0.0551105 0.0432783 0.0254741)
(-0.0127064 0.00920893 0.00584895)
(-0.00282687 0.00206445 0.00129354)
(-0.000709536 0.000364683 0.000322348)
(-0.0574491 0.270914 0.03547)
(-0.0174165 0.0776225 0.0100832)
(-0.00426843 0.0189877 0.00238647)
(-0.000972781 0.00430961 0.000530825)
(-0.000241612 0.000757583 0.000129854)
(-0.212421 0.271772 0.156195)
(-0.0507567 0.0436657 0.0370756)
(-0.011649 0.00917917 0.00844869)
(-0.00258093 0.00204465 0.0018599)
(-0.000645855 0.000360012 0.000462914)
(-0.045713 0.283705 0.052252)
(-0.0149286 0.0811061 0.0146638)
(-0.00375648 0.019665 0.00350374)
(-0.000871319 0.00442833 0.000793472)
(-0.000216524 0.000774411 0.000196056)
(-0.237968 0.262865 0.0624382)
(-0.0572397 0.0433675 0.0151588)
(-0.0132264 0.00927483 0.00349618)
(-0.0029475 0.00208478 0.000776793)
(-0.000740945 0.000368684 0.00019387)
(-0.0644276 0.267506 0.0197014)
(-0.0189781 0.0762682 0.00583528)
(-0.0045898 0.0186812 0.0013697)
(-0.00103249 0.00425439 0.000304082)
(-0.000255919 0.000750033 7.50139e-05)
(-0.248684 0.262725 0.0215239)
(-0.0593447 0.0431815 0.00519115)
(-0.0137364 0.00923153 0.00119874)
(-0.00306038 0.00207659 0.00026694)
(-0.000768988 0.000366993 6.65719e-05)
(-0.0665383 0.268864 0.00780533)
(-0.0196941 0.0761539 0.00207028)
(-0.00480922 0.0186138 0.000442895)
(-0.00100509 0.0042505 0.000125826)
(-0.000263787 0.000748286 2.33873e-05)
(-0.0276695 1.22249 0.00340359)
(-0.262345 1.73962 0.0176908)
(-0.240766 1.699 0.167213)
(-0.0927551 1.1857 -0.0308779)
(0.0546067 0.692641 0.0277783)
(0.0972397 0.728104 0.0297735)