/*--------------------------------*- C++ -*----------------------------------*\
| =========                 |                                                 |
| \\      /  F ield         | OpenFOAM: The Open Source CFD Toolbox           |
|  \\    /   O peration     | Version:  v2106                                 |
|   \\  /    A nd           | Website:  www.openfoam.com                      |
|    \\/     M anipulation  |                                                 |
\*---------------------------------------------------------------------------*/
FoamFile
{
    version     2.0;
    format      ascii;
    arch        "LSB;label=32;scalar=64";
    class       volScalarField;
    location    "42.5";
    object      calFieldValue;
}
// * * * * * * * * * * * * * * * * * * * * * * * * * * * * * * * * * * * * * //

dimensions      [0 0 0 1 0 0 0];

internalField   nonuniform List<scalar> 
4000
(
276.56293
276.56293
276.56293
276.56293
276.56293
276.56293
276.56293
276.56293
276.56293
276.56293
276.56293
276.56293
276.56293
276.56293
276.56293
276.56293
276.56293
276.56293
276.56293
276.56293
276.56293
276.56293
276.56293
276.56293
276.56293
276.56293
276.56293
276.56293
276.56293
276.56293
276.56293
276.56293
276.56293
276.56292
276.56292
276.56292
276.56293
276.56293
276.56293
276.56293
276.56293
276.56293
276.56293
276.56292
276.56292
276.56292
276.56293
276.56293
276.56293
276.56293
276.56293
276.56293
276.56293
276.56292
276.56292
276.56293
276.56293
276.56293
276.56293
276.56293
276.56293
276.56293
276.56293
276.56293
276.56293
276.56293
276.56293
276.56293
276.56293
276.56293
276.56293
276.56293
276.56293
276.56293
276.56293
276.56293
276.56293
276.56293
276.56293
276.56293
276.56293
276.56293
276.56293
276.56293
276.56293
276.56293
276.56293
276.56293
276.56293
276.56293
276.56293
276.56293
276.56293
276.56293
276.56293
276.56293
276.56293
276.56293
276.56293
276.56293
283.83236
283.83236
283.83236
283.83236
283.83236
283.83233
283.83233
283.83236
283.83237
283.83237
283.83236
283.83236
283.83236
283.83236
283.83236
283.83233
283.83233
283.83234
283.83236
283.83237
283.83236
283.83236
283.83236
283.83235
283.83233
283.83233
283.83233
283.83233
283.83236
283.83236
283.83236
283.83236
283.83235
283.83232
283.83232
283.83233
283.83233
283.83233
283.83236
283.83236
283.83236
283.83236
283.83233
283.83232
283.83232
283.83233
283.83233
283.83233
283.83233
283.83236
283.83233
283.83233
283.83233
283.83233
283.83233
283.83233
283.83233
283.83233
283.83236
283.83236
283.83233
283.83233
283.83233
283.83233
283.83233
283.83233
283.83233
283.83236
283.83236
283.83236
283.83236
283.83234
283.83233
283.83233
283.83233
283.83233
283.83236
283.83236
283.83236
283.83239
283.83237
283.83236
283.83236
283.83236
283.83233
283.83236
283.83236
283.83236
283.83239
283.83239
283.83237
283.83237
283.83236
283.83236
283.83236
283.83236
283.83236
283.83239
283.83239
283.83239
291.10472
291.10472
291.10472
291.10471
291.10468
291.10468
291.10469
291.10469
291.10469
291.1047
291.10472
291.10472
291.10471
291.1047
291.10468
291.10468
291.10469
291.10469
291.10469
291.10472
291.10472
291.10471
291.10471
291.10467
291.10467
291.10465
291.10468
291.10469
291.10469
291.10469
291.10471
291.1047
291.10467
291.10467
291.10464
291.10465
291.10465
291.10468
291.10468
291.10469
291.10468
291.10468
291.10467
291.10464
291.10464
291.10465
291.10465
291.10468
291.10468
291.10468
291.10468
291.10468
291.10465
291.10465
291.10465
291.10465
291.10465
291.10468
291.10468
291.10471
291.10469
291.10469
291.10468
291.10465
291.10465
291.10465
291.10468
291.10468
291.10471
291.10471
291.10469
291.10469
291.10469
291.10468
291.10468
291.10468
291.10468
291.10471
291.10474
291.10474
291.10469
291.10469
291.10469
291.10468
291.10468
291.10468
291.10471
291.10474
291.10474
291.10474
291.1047
291.10472
291.10469
291.10469
291.10468
291.10471
291.10471
291.10474
291.10474
291.10477
298.38191
298.38191
298.38188
298.38187
298.38184
298.38184
298.38185
298.38185
298.38189
298.38189
298.38191
298.38191
298.38187
298.38186
298.38184
298.38184
298.38185
298.38185
298.38188
298.38189
298.38188
298.38187
298.38187
298.38183
298.38181
298.38181
298.38182
298.38185
298.38185
298.38188
298.38187
298.38186
298.38183
298.38183
298.3818
298.3818
298.38181
298.38184
298.38185
298.38188
298.38184
298.38184
298.38181
298.3818
298.38177
298.38178
298.38181
298.38184
298.38184
298.38187
298.38184
298.38184
298.38181
298.3818
298.38178
298.38178
298.38181
298.38184
298.38187
298.38187
298.38185
298.38185
298.38182
298.38181
298.38181
298.38181
298.38183
298.38187
298.3819
298.3819
298.38185
298.38185
298.38185
298.38184
298.38184
298.38184
298.38187
298.3819
298.38193
298.38193
298.38189
298.38188
298.38185
298.38185
298.38184
298.38187
298.3819
298.38193
298.38193
298.38196
298.38189
298.38189
298.38188
298.38188
298.38187
298.38187
298.3819
298.38193
298.38196
298.38196
305.66574
305.66574
305.66571
305.6657
305.66567
305.66567
305.66568
305.66569
305.66572
305.66572
305.66574
305.66571
305.6657
305.66567
305.66564
305.66565
305.66565
305.66569
305.66572
305.66572
305.66571
305.6657
305.66567
305.66566
305.66563
305.66564
305.66565
305.66568
305.66569
305.66572
305.6657
305.66567
305.66566
305.66563
305.6656
305.6656
305.66564
305.66567
305.66568
305.66571
305.66567
305.66564
305.66563
305.6656
305.6656
305.6656
305.66563
305.66567
305.6657
305.6657
305.66567
305.66565
305.66564
305.6656
305.6656
305.6656
305.66563
305.66567
305.6657
305.66573
305.66568
305.66565
305.66565
305.66564
305.66563
305.66563
305.66566
305.66569
305.66573
305.66576
305.66569
305.66569
305.66568
305.66567
305.66567
305.66567
305.66569
305.66575
305.66576
305.66579
305.66572
305.66572
305.66569
305.66568
305.6657
305.6657
305.66573
305.66576
305.66579
305.66582
305.66572
305.66572
305.66572
305.66571
305.6657
305.66573
305.66576
305.66579
305.66582
305.66582
312.95797
312.95797
312.95794
312.95792
312.95789
312.9579
312.95791
312.95794
312.95795
312.95795
312.95797
312.95797
312.95793
312.95789
312.95787
312.95787
312.95791
312.95792
312.95795
312.95798
312.95794
312.95793
312.95789
312.95789
312.95786
312.95787
312.95787
312.95791
312.95794
312.95794
312.95792
312.95789
312.95789
312.95785
312.95782
312.95783
312.95786
312.9579
312.95793
312.95796
312.95789
312.95787
312.95786
312.95782
312.95779
312.95782
312.95786
312.95789
312.95793
312.95796
312.9579
312.95787
312.95787
312.95783
312.95782
312.95782
312.95788
312.95792
312.95795
312.95798
312.95791
312.95791
312.95787
312.95786
312.95786
312.95788
312.95791
312.95794
312.958
312.95801
312.95794
312.95792
312.95791
312.9579
312.95789
312.95792
312.95794
312.95801
312.95804
312.95807
312.95795
312.95795
312.95794
312.95793
312.95793
312.95795
312.958
312.95804
312.95807
312.9581
312.95795
312.95798
312.95794
312.95796
312.95796
312.95798
312.95801
312.95807
312.9581
312.9581
320.26025
320.26025
320.26021
320.2602
320.26017
320.26015
320.26019
320.26022
320.26023
320.26026
320.26025
320.26022
320.26021
320.26017
320.26014
320.26015
320.26016
320.26019
320.26023
320.26026
320.26021
320.26021
320.26017
320.26013
320.26011
320.26011
320.26015
320.26019
320.26022
320.26025
320.2602
320.26017
320.26013
320.2601
320.2601
320.2601
320.26013
320.26017
320.26021
320.26024
320.26017
320.26014
320.26011
320.2601
320.26007
320.26007
320.26013
320.26016
320.26023
320.26026
320.26015
320.26015
320.26011
320.2601
320.26007
320.26009
320.26015
320.26021
320.26025
320.26028
320.26019
320.26016
320.26015
320.26013
320.26013
320.26015
320.26021
320.26024
320.2603
320.26034
320.26022
320.26019
320.26019
320.26017
320.26016
320.26021
320.26024
320.2603
320.26034
320.26037
320.26023
320.26023
320.26022
320.26021
320.26023
320.26025
320.2603
320.26034
320.2604
320.26041
320.26026
320.26026
320.26025
320.26024
320.26026
320.26028
320.26034
320.26037
320.26041
320.26044
327.57406
327.57405
327.57402
327.57398
327.57395
327.57395
327.57399
327.57403
327.57406
327.57407
327.57405
327.57402
327.57401
327.57397
327.57394
327.57395
327.57396
327.57402
327.57406
327.57409
327.57402
327.57401
327.57397
327.57394
327.57391
327.57391
327.57395
327.57399
327.57405
327.57405
327.57398
327.57397
327.57394
327.5739
327.57387
327.5739
327.57393
327.574
327.57404
327.57407
327.57395
327.57394
327.57391
327.57387
327.57386
327.57387
327.57392
327.57399
327.57405
327.57408
327.57395
327.57395
327.57391
327.5739
327.57387
327.57389
327.57395
327.57401
327.57407
327.57411
327.57399
327.57396
327.57395
327.57393
327.57392
327.57395
327.574
327.57409
327.57413
327.57416
327.57403
327.57402
327.57399
327.574
327.57399
327.57401
327.57409
327.57416
327.5742
327.57423
327.57406
327.57406
327.57405
327.57404
327.57405
327.57407
327.57413
327.5742
327.57423
327.57426
327.57407
327.57409
327.57405
327.57407
327.57408
327.57411
327.57416
327.57423
327.57426
327.57429
334.90073
334.9007
334.90066
334.90065
334.90062
334.90062
334.90066
334.9007
334.90073
334.90077
334.9007
334.9007
334.90066
334.90061
334.90059
334.90059
334.90063
334.9007
334.90073
334.90076
334.90066
334.90066
334.90062
334.90058
334.90055
334.90058
334.90062
334.90069
334.90072
334.90075
334.90065
334.90061
334.90058
334.90054
334.90053
334.90054
334.9006
334.90067
334.9007
334.90074
334.90062
334.90059
334.90055
334.90053
334.9005
334.90053
334.90059
334.90065
334.90072
334.90075
334.90062
334.90059
334.90058
334.90054
334.90053
334.90055
334.90064
334.9007
334.90077
334.9008
334.90066
334.90063
334.90062
334.9006
334.90059
334.90064
334.90069
334.90078
334.90082
334.90088
334.9007
334.9007
334.90069
334.90067
334.90065
334.9007
334.90078
334.90085
334.90092
334.90092
334.90073
334.90073
334.90072
334.9007
334.90072
334.90077
334.90082
334.90092
334.90096
334.90098
334.90077
334.90076
334.90075
334.90074
334.90075
334.9008
334.90088
334.90092
334.90098
334.90099
342.24137
342.24137
342.24133
342.24131
342.24128
342.24129
342.24132
342.24136
342.24143
342.24143
342.24137
342.24136
342.24132
342.24128
342.24125
342.24126
342.24132
342.24136
342.24142
342.24145
342.24133
342.24132
342.24128
342.24124
342.24121
342.24124
342.24128
342.24135
342.24141
342.24144
342.24131
342.24128
342.24124
342.2412
342.24117
342.2412
342.24126
342.24133
342.24139
342.24142
342.24128
342.24125
342.24121
342.24117
342.24116
342.24119
342.24127
342.24134
342.24141
342.24144
342.24129
342.24126
342.24124
342.2412
342.24119
342.24124
342.24129
342.24139
342.24145
342.24151
342.24132
342.24132
342.24128
342.24126
342.24127
342.24129
342.24137
342.24147
342.24153
342.24157
342.24136
342.24136
342.24135
342.24133
342.24134
342.24139
342.24147
342.24156
342.2416
342.24164
342.24143
342.24142
342.24141
342.24139
342.24141
342.24145
342.24153
342.2416
342.24167
342.2417
342.24143
342.24145
342.24144
342.24142
342.24144
342.24151
342.24157
342.24164
342.2417
342.2417
349.59699
349.59699
349.59695
349.5969
349.5969
349.5969
349.59694
349.59701
349.59704
349.59708
349.59699
349.59696
349.59692
349.5969
349.59687
349.59687
349.59694
349.59698
349.59704
349.59707
349.59695
349.59692
349.59687
349.59686
349.59683
349.59683
349.59689
349.59696
349.59703
349.59706
349.5969
349.5969
349.59686
349.59681
349.59678
349.59681
349.5969
349.59697
349.59703
349.59707
349.5969
349.59687
349.59683
349.59678
349.59677
349.5968
349.59688
349.59698
349.59704
349.59708
349.5969
349.59687
349.59683
349.59681
349.5968
349.59685
349.59693
349.59702
349.59709
349.59715
349.59694
349.59694
349.59689
349.5969
349.59688
349.59693
349.59701
349.5971
349.5972
349.59723
349.59701
349.59698
349.59696
349.59697
349.59698
349.59702
349.5971
349.5972
349.59727
349.5973
349.59704
349.59704
349.59703
349.59703
349.59704
349.59709
349.5972
349.59727
349.59734
349.59737
349.59708
349.59707
349.59706
349.59707
349.59708
349.59715
349.59723
349.5973
349.59737
349.59737
356.96828
356.96825
356.96822
356.96819
356.96816
356.96817
356.96823
356.9683
356.96834
356.96837
356.96825
356.96825
356.96821
356.96816
356.96813
356.96816
356.96822
356.96829
356.96836
356.96839
356.96822
356.96821
356.96817
356.96812
356.96809
356.96812
356.96818
356.96828
356.96834
356.96837
356.96819
356.96816
356.96812
356.96807
356.96807
356.96809
356.96818
356.96825
356.96832
356.96838
356.96816
356.96813
356.96809
356.96807
356.96806
356.96808
356.96817
356.96826
356.96836
356.96839
356.96817
356.96816
356.96812
356.96809
356.96808
356.96813
356.96824
356.96833
356.96843
356.96846
356.96823
356.96822
356.96818
356.96818
356.96817
356.96824
356.96832
356.96844
356.96851
356.96854
356.9683
356.96829
356.96828
356.96825
356.96826
356.96833
356.96844
356.96853
356.96861
356.96864
356.96834
356.96836
356.96834
356.96832
356.96836
356.96843
356.96851
356.96861
356.96868
356.9687
356.96837
356.96839
356.96837
356.96838
356.96839
356.96846
356.96854
356.96864
356.9687
356.96871
364.35573
364.3557
364.35566
364.35564
364.3556
364.35563
364.35567
364.35574
364.3558
364.35584
364.3557
364.35569
364.35565
364.3556
364.35557
364.3556
364.35566
364.35573
364.3558
364.35585
364.35566
364.35565
364.35561
364.35556
364.35552
364.35555
364.35564
364.35572
364.35578
364.35584
364.35564
364.3556
364.35556
364.35551
364.3555
364.35553
364.35562
364.35572
364.35581
364.35584
364.3556
364.35557
364.35552
364.3555
364.35549
364.35554
364.35562
364.35575
364.35582
364.35588
364.35563
364.3556
364.35555
364.35553
364.35554
364.35559
364.35569
364.35579
364.35588
364.35594
364.35567
364.35566
364.35564
364.35562
364.35562
364.35569
364.3558
364.3559
364.35599
364.35603
364.35574
364.35573
364.35572
364.35572
364.35575
364.35579
364.3559
364.35602
364.35609
364.35613
364.3558
364.3558
364.35578
364.35581
364.35582
364.35588
364.35599
364.35609
364.35616
364.35619
364.35584
364.35585
364.35584
364.35584
364.35588
364.35594
364.35603
364.35613
364.35619
364.35622
371.75958
371.75957
371.75953
371.75951
371.75947
371.75947
371.75954
371.75961
371.75967
371.75971
371.75957
371.75954
371.75949
371.75947
371.75944
371.75947
371.75953
371.7596
371.75969
371.75972
371.75953
371.75949
371.75945
371.7594
371.75939
371.75942
371.75951
371.75958
371.75968
371.75971
371.75951
371.75947
371.7594
371.75938
371.75937
371.75939
371.75948
371.75958
371.75968
371.75971
371.75947
371.75944
371.75939
371.75937
371.75935
371.7594
371.75949
371.75961
371.75971
371.75977
371.75947
371.75947
371.75942
371.75939
371.7594
371.75945
371.75955
371.75968
371.75977
371.75983
371.75954
371.75953
371.75951
371.75948
371.75949
371.75955
371.75966
371.75978
371.75988
371.75994
371.75961
371.7596
371.75958
371.75958
371.75961
371.75968
371.75978
371.75991
371.75998
371.76002
371.75967
371.75969
371.75968
371.75968
371.75971
371.75977
371.75988
371.75998
371.76005
371.76008
371.75971
371.75972
371.75971
371.75971
371.75977
371.75983
371.75994
371.76002
371.76008
371.76011
379.17986
379.17983
379.17981
379.17976
379.17975
379.17975
379.17982
379.17991
379.17998
379.18001
379.17983
379.17982
379.17978
379.17972
379.17971
379.17974
379.17981
379.17991
379.17997
379.18003
379.17981
379.17978
379.17973
379.17968
379.17967
379.1797
379.17979
379.17989
379.17995
379.18001
379.17976
379.17972
379.17968
379.17966
379.17964
379.17967
379.17978
379.17988
379.17998
379.18001
379.17975
379.17971
379.17967
379.17964
379.17963
379.17967
379.17978
379.17991
379.18001
379.18007
379.17975
379.17974
379.1797
379.17967
379.17967
379.17974
379.17985
379.17997
379.18007
379.18013
379.17982
379.17981
379.17979
379.17978
379.17978
379.17985
379.17998
379.18011
379.18021
379.18024
379.17991
379.17991
379.17989
379.17988
379.17991
379.17997
379.18011
379.18021
379.18031
379.18035
379.17998
379.17997
379.17995
379.17998
379.18001
379.18007
379.18021
379.18031
379.18038
379.18041
379.18001
379.18003
379.18001
379.18001
379.18007
379.18013
379.18024
379.18035
379.18041
379.18044
386.61631
386.61628
386.61627
386.61621
386.6162
386.61623
386.61629
386.61639
386.61646
386.61649
386.61628
386.61628
386.61623
386.61618
386.61616
386.61619
386.61629
386.61636
386.61645
386.61648
386.61627
386.61623
386.61618
386.61613
386.61612
386.61617
386.61626
386.61636
386.61643
386.61649
386.61621
386.61618
386.61613
386.61611
386.61609
386.61614
386.61626
386.61636
386.61645
386.61648
386.6162
386.61616
386.61612
386.61609
386.61607
386.61615
386.61626
386.61638
386.61648
386.61654
386.61623
386.61619
386.61617
386.61614
386.61615
386.61621
386.61632
386.61644
386.61657
386.61663
386.61629
386.61629
386.61626
386.61626
386.61626
386.61632
386.61645
386.61658
386.61667
386.61674
386.61639
386.61636
386.61636
386.61636
386.61638
386.61644
386.61658
386.6167
386.6168
386.61684
386.61646
386.61645
386.61643
386.61645
386.61648
386.61657
386.61667
386.6168
386.61688
386.61691
386.61649
386.61648
386.61649
386.61648
386.61654
386.61663
386.61674
386.61684
386.61691
386.61694
394.06845
394.06844
394.0684
394.06838
394.06836
394.06839
394.06845
394.06855
394.06861
394.06865
394.06844
394.06841
394.06839
394.06834
394.06832
394.06835
394.06844
394.06854
394.06863
394.06866
394.0684
394.06839
394.06834
394.06829
394.06828
394.06833
394.06842
394.06852
394.06861
394.06867
394.06838
394.06834
394.06829
394.06826
394.06825
394.0683
394.06841
394.06854
394.06863
394.06867
394.06836
394.06832
394.06828
394.06825
394.06825
394.0683
394.06843
394.06856
394.06866
394.06872
394.06839
394.06835
394.06833
394.0683
394.0683
394.06836
394.0685
394.06865
394.06874
394.06881
394.06845
394.06844
394.06842
394.06841
394.06843
394.0685
394.06863
394.06878
394.06888
394.06892
394.06855
394.06854
394.06852
394.06854
394.06856
394.06865
394.06878
394.06891
394.06898
394.06905
394.06861
394.06863
394.06861
394.06863
394.06866
394.06874
394.06888
394.06898
394.06908
394.06911
394.06865
394.06866
394.06867
394.06867
394.06872
394.06881
394.06892
394.06905
394.06911
394.06915
401.53562
401.53562
401.53557
401.53555
401.53553
401.53556
401.53562
401.53572
401.53581
401.53584
401.53562
401.53558
401.53556
401.53551
401.53549
401.53552
401.53561
401.53571
401.5358
401.53586
401.53557
401.53556
401.53551
401.53546
401.53544
401.5355
401.53558
401.53571
401.53581
401.53583
401.53555
401.53551
401.53546
401.53543
401.53541
401.53546
401.5356
401.5357
401.5358
401.53586
401.53553
401.53549
401.53544
401.53541
401.53542
401.53549
401.53559
401.53575
401.53584
401.53591
401.53556
401.53552
401.5355
401.53546
401.53549
401.53555
401.53568
401.53583
401.53593
401.53599
401.53562
401.53561
401.53558
401.5356
401.53559
401.53568
401.53581
401.53597
401.53607
401.53613
401.53572
401.53571
401.53571
401.5357
401.53575
401.53583
401.53597
401.53609
401.5362
401.53624
401.53581
401.5358
401.53581
401.5358
401.53584
401.53593
401.53607
401.5362
401.53627
401.5363
401.53584
401.53586
401.53583
401.53586
401.53591
401.53599
401.53613
401.53624
401.5363
401.53633
409.0169
409.0169
409.01685
409.01682
409.0168
409.01683
409.01692
409.01702
409.01708
409.01712
409.0169
409.01686
409.01681
409.01678
409.01677
409.01679
409.01691
409.01701
409.0171
409.01713
409.01685
409.01681
409.01679
409.01673
409.01672
409.01677
409.01688
409.01698
409.01708
409.01713
409.01682
409.01678
409.01673
409.0167
409.01668
409.01676
409.01687
409.017
409.01709
409.01715
409.0168
409.01677
409.01672
409.01668
409.01669
409.01675
409.01689
409.01702
409.01714
409.0172
409.01683
409.01679
409.01677
409.01676
409.01675
409.01684
409.01698
409.01713
409.01722
409.01729
409.01692
409.01691
409.01688
409.01687
409.01689
409.01698
409.01711
409.01726
409.01736
409.01743
409.01702
409.01701
409.01698
409.017
409.01702
409.01713
409.01726
409.01739
409.01749
409.01753
409.01708
409.0171
409.01708
409.01709
409.01714
409.01722
409.01736
409.01749
409.01757
409.01762
409.01712
409.01713
409.01713
409.01715
409.0172
409.01729
409.01743
409.01753
409.01762
409.01765
416.51123
416.51122
416.51118
416.51115
416.51112
416.51118
416.51124
416.51136
416.51143
416.51146
416.51122
416.51119
416.51116
416.5111
416.51108
416.51114
416.51123
416.51135
416.51144
416.51147
416.51118
416.51116
416.51111
416.51108
416.51106
416.51111
416.51123
416.51133
416.51142
416.51148
416.51115
416.5111
416.51108
416.51102
416.51103
416.5111
416.51121
416.51134
416.51144
416.51149
416.51112
416.51108
416.51106
416.51103
416.51103
416.51109
416.51123
416.51138
416.51148
416.51154
416.51118
416.51114
416.51111
416.5111
416.51109
416.51118
416.51131
416.51146
416.51159
416.51165
416.51124
416.51123
416.51123
416.51121
416.51123
416.51131
416.51147
416.51159
416.51172
416.51179
416.51136
416.51135
416.51133
416.51134
416.51138
416.51146
416.51159
416.51175
416.51186
416.51189
416.51143
416.51144
416.51142
416.51144
416.51148
416.51159
416.51172
416.51186
416.51193
416.51196
416.51146
416.51147
416.51148
416.51149
416.51154
416.51165
416.51179
416.51189
416.51196
416.51199
424.01745
424.01744
424.0174
424.01737
424.01734
424.0174
424.01748
424.01758
424.01767
424.0177
424.01744
424.01741
424.01739
424.01733
424.01733
424.01736
424.01747
424.01757
424.01766
424.01772
424.0174
424.01739
424.01733
424.0173
424.01728
424.01733
424.01744
424.01757
424.01766
424.01772
424.01737
424.01733
424.0173
424.01727
424.01724
424.01732
424.01746
424.01758
424.01768
424.01774
424.01734
424.01733
424.01728
424.01724
424.01727
424.01733
424.01747
424.01759
424.01772
424.01778
424.0174
424.01736
424.01733
424.01732
424.01733
424.01742
424.01755
424.0177
424.01783
424.01789
424.01748
424.01747
424.01744
424.01746
424.01747
424.01755
424.01768
424.01783
424.01796
424.01803
424.01758
424.01757
424.01757
424.01758
424.01759
424.0177
424.01783
424.01799
424.01809
424.01813
424.01767
424.01766
424.01766
424.01768
424.01772
424.01783
424.01796
424.01809
424.01817
424.0182
424.0177
424.01772
424.01772
424.01774
424.01778
424.01789
424.01803
424.01813
424.0182
424.01823
431.53434
431.53433
431.53428
431.53425
431.53426
431.53428
431.53437
431.53449
431.53455
431.53459
431.53433
431.5343
431.53427
431.53424
431.53422
431.53426
431.53435
431.53448
431.53457
431.5346
431.53428
431.53427
431.53422
431.53419
431.53416
431.53424
431.53435
431.53445
431.53457
431.5346
431.53425
431.53424
431.53419
431.53415
431.53415
431.53422
431.53433
431.53446
431.53458
431.53464
431.53426
431.53422
431.53416
431.53415
431.53415
431.53424
431.53437
431.5345
431.53462
431.53468
431.53428
431.53426
431.53424
431.53422
431.53424
431.53432
431.53445
431.53461
431.53473
431.5348
431.53437
431.53435
431.53435
431.53433
431.53437
431.53445
431.53461
431.53474
431.53486
431.53493
431.53449
431.53448
431.53445
431.53446
431.5345
431.53461
431.53474
431.53489
431.535
431.53504
431.53455
431.53457
431.53457
431.53458
431.53462
431.53473
431.53486
431.535
431.53507
431.53513
431.53459
431.5346
431.5346
431.53464
431.53468
431.5348
431.53493
431.53504
431.53513
431.53514
439.0607
439.06069
439.06067
439.06064
439.06061
439.06066
439.06075
439.06087
439.06093
439.06096
439.06069
439.06068
439.06063
439.06059
439.0606
439.06064
439.06073
439.06086
439.06095
439.06098
439.06067
439.06063
439.0606
439.06057
439.06054
439.06062
439.06073
439.06085
439.06095
439.061
439.06064
439.06059
439.06057
439.06053
439.06053
439.0606
439.06071
439.06087
439.06096
439.06102
439.06061
439.0606
439.06054
439.06053
439.06052
439.06061
439.06075
439.0609
439.061
439.06106
439.06066
439.06064
439.06062
439.0606
439.06061
439.0607
439.06083
439.06098
439.0611
439.06117
439.06075
439.06073
439.06073
439.06071
439.06075
439.06083
439.06098
439.06114
439.06124
439.06131
439.06087
439.06086
439.06085
439.06087
439.0609
439.06098
439.06114
439.06127
439.06137
439.06141
439.06093
439.06095
439.06095
439.06096
439.061
439.0611
439.06124
439.06137
439.06147
439.0615
439.06096
439.06098
439.061
439.06102
439.06106
439.06117
439.06131
439.06141
439.0615
439.06154
446.5955
446.59549
446.59544
446.59541
446.59541
446.59546
446.59554
446.59564
446.59573
446.59576
446.59549
446.59545
446.59543
446.5954
446.59537
446.59544
446.59553
446.59565
446.59574
446.59577
446.59544
446.59543
446.59538
446.59534
446.59534
446.59541
446.59553
446.59562
446.59571
446.59577
446.59541
446.5954
446.59534
446.59533
446.59533
446.5954
446.59551
446.59566
446.59575
446.59581
446.59541
446.59537
446.59534
446.59533
446.59532
446.59541
446.59554
446.59569
446.59579
446.59585
446.59546
446.59544
446.59541
446.5954
446.59541
446.59549
446.59562
446.59577
446.5959
446.59596
446.59554
446.59553
446.59553
446.59551
446.59554
446.59562
446.59578
446.59593
446.59603
446.5961
446.59564
446.59565
446.59562
446.59566
446.59569
446.59577
446.59593
446.59606
446.59616
446.5962
446.59573
446.59574
446.59571
446.59575
446.59579
446.5959
446.59603
446.59616
446.59626
446.59629
446.59576
446.59577
446.59577
446.59581
446.59585
446.59596
446.5961
446.5962
446.59629
446.59633
454.13784
454.13783
454.13781
454.13778
454.13778
454.13782
454.13791
454.138
454.13809
454.13812
454.13783
454.1378
454.13777
454.13774
454.13774
454.13778
454.13789
454.13799
454.13808
454.13814
454.13781
454.13777
454.13775
454.13771
454.13771
454.13778
454.13789
454.13799
454.13808
454.13813
454.13778
454.13774
454.13771
454.13767
454.1377
454.13776
454.13787
454.13802
454.13812
454.13817
454.13778
454.13774
454.13771
454.1377
454.13768
454.13777
454.1379
454.13806
454.13815
454.13821
454.13782
454.13778
454.13778
454.13776
454.13777
454.13785
454.13801
454.13813
454.13826
454.13832
454.13791
454.13789
454.13789
454.13787
454.1379
454.13801
454.13814
454.13829
454.13839
454.13846
454.138
454.13799
454.13799
454.13802
454.13806
454.13813
454.13829
454.13842
454.13852
454.13856
454.13809
454.13808
454.13808
454.13812
454.13815
454.13826
454.13839
454.13852
454.1386
454.13865
454.13812
454.13814
454.13813
454.13817
454.13821
454.13832
454.13846
454.13856
454.13865
454.13866
461.68729
461.68728
461.68723
461.68723
461.68722
461.68727
461.68735
461.68744
461.68753
461.68756
461.68728
461.68724
461.68722
461.68718
461.68718
461.68725
461.68734
461.68746
461.68755
461.68758
461.68723
461.68722
461.68719
461.68716
461.68715
461.68722
461.68733
461.68745
461.68754
461.68757
461.68723
461.68718
461.68716
461.68715
461.68714
461.6872
461.68734
461.68746
461.68756
461.68761
461.68722
461.68718
461.68715
461.68714
461.68715
461.68724
461.68737
461.6875
461.68762
461.68768
461.68727
461.68725
461.68722
461.6872
461.68724
461.68732
461.68745
461.6876
461.68769
461.68776
461.68735
461.68734
461.68733
461.68734
461.68737
461.68745
461.6876
461.68773
461.68783
461.6879
461.68744
461.68746
461.68745
461.68746
461.6875
461.6876
461.68773
461.68788
461.68796
461.688
461.68753
461.68755
461.68754
461.68756
461.68762
461.68769
461.68783
461.68796
461.68806
461.68809
461.68756
461.68758
461.68757
461.68761
461.68768
461.68776
461.6879
461.688
461.68809
461.6881
469.24382
469.24381
469.24379
469.24376
469.24376
469.2438
469.24388
469.244
469.24406
469.24412
469.24381
469.2438
469.24375
469.24374
469.24374
469.24378
469.24389
469.24399
469.24408
469.24413
469.24379
469.24375
469.24373
469.24372
469.24371
469.24378
469.24389
469.24398
469.24407
469.24413
469.24376
469.24374
469.24372
469.24368
469.2437
469.24376
469.24387
469.24399
469.24411
469.24414
469.24376
469.24374
469.24371
469.2437
469.24371
469.24377
469.2439
469.24405
469.24415
469.24421
469.2438
469.24378
469.24378
469.24376
469.24377
469.24385
469.24401
469.24413
469.24425
469.24432
469.24388
469.24389
469.24389
469.24387
469.2439
469.24401
469.24413
469.24428
469.24439
469.24443
469.244
469.24399
469.24398
469.24399
469.24405
469.24413
469.24428
469.24441
469.24449
469.24453
469.24406
469.24408
469.24407
469.24411
469.24415
469.24425
469.24439
469.24449
469.24459
469.24462
469.24412
469.24413
469.24413
469.24414
469.24421
469.24432
469.24443
469.24453
469.24462
469.24463
476.80808
476.80807
476.80805
476.80805
476.80804
476.80808
476.80817
476.80826
476.80835
476.80837
476.80807
476.80806
476.80804
476.808
476.808
476.80807
476.80815
476.80827
476.80836
476.80839
476.80805
476.80804
476.80801
476.80798
476.808
476.80804
476.80815
476.80827
476.80836
476.80839
476.80805
476.808
476.80798
476.80797
476.80799
476.80805
476.80816
476.80828
476.80837
476.80843
476.80804
476.808
476.808
476.80799
476.808
476.80805
476.80819
476.80831
476.80843
476.80846
476.80808
476.80807
476.80804
476.80805
476.80805
476.80813
476.80826
476.80841
476.80851
476.80857
476.80817
476.80815
476.80815
476.80816
476.80819
476.80826
476.80842
476.80854
476.80864
476.80871
476.80826
476.80827
476.80827
476.80828
476.80831
476.80841
476.80854
476.80867
476.80877
476.80881
476.80835
476.80836
476.80836
476.80837
476.80843
476.80851
476.80864
476.80877
476.80884
476.80888
476.80837
476.80839
476.80839
476.80843
476.80846
476.80857
476.80871
476.80881
476.80888
476.80888
484.3815
484.3815
484.38148
484.38145
484.38144
484.38148
484.38159
484.38168
484.38174
484.38177
484.3815
484.38146
484.38144
484.38143
484.38143
484.38147
484.38157
484.38166
484.38175
484.38178
484.38148
484.38144
484.38141
484.3814
484.3814
484.38146
484.38157
484.38166
484.38175
484.38181
484.38145
484.38143
484.3814
484.38139
484.38138
484.38147
484.38158
484.3817
484.38176
484.38182
484.38144
484.38143
484.3814
484.38138
484.3814
484.38148
484.38161
484.38173
484.38183
484.38189
484.38148
484.38147
484.38146
484.38147
484.38148
484.38156
484.38169
484.38181
484.3819
484.38197
484.38159
484.38157
484.38157
484.38158
484.38161
484.38169
484.38182
484.38194
484.38204
484.38208
484.38168
484.38166
484.38166
484.3817
484.38173
484.38181
484.38194
484.38207
484.38214
484.38218
484.38174
484.38175
484.38175
484.38176
484.38183
484.3819
484.38204
484.38214
484.38221
484.38224
484.38177
484.38178
484.38181
484.38182
484.38189
484.38197
484.38208
484.38218
484.38224
484.38228
491.96627
491.96627
491.96625
491.96625
491.96624
491.96628
491.96636
491.96645
491.96654
491.96656
491.96627
491.96626
491.96624
491.96623
491.96623
491.96626
491.96637
491.96646
491.96652
491.96658
491.96625
491.96624
491.96621
491.9662
491.9662
491.96626
491.96637
491.96646
491.96655
491.96658
491.96625
491.96623
491.9662
491.96617
491.96619
491.96625
491.96638
491.96647
491.96656