/*--------------------------------*- C++ -*----------------------------------*\
| =========                 |                                                 |
| \\      /  F ield         | OpenFOAM: The Open Source CFD Toolbox           |
|  \\    /   O peration     | Version:  v2106                                 |
|   \\  /    A nd           | Website:  www.openfoam.com                      |
|    \\/     M anipulation  |                                                 |
\*---------------------------------------------------------------------------*/
FoamFile
{
    version     2.0;
    format      ascii;
    arch        "LSB;label=32;scalar=64";
    class       volScalarField;
    location    "57.5";
    object      gradTz;
}
// * * * * * * * * * * * * * * * * * * * * * * * * * * * * * * * * * * * * * //

dimensions      [0 -1 0 1 0 0 0];

internalField   nonuniform List<scalar> 
4000
(
574.89083
574.88945
574.89035
574.89069
574.89087
574.89092
574.89086
574.89073
574.89063
574.89066
574.88945
574.88913
574.88993
574.89027
574.89044
574.89047
574.89039
574.89022
574.89004
574.89009
574.89035
574.88993
574.89071
574.89104
574.8912
574.89122
574.89111
574.89089
574.89062
574.89053
574.89069
574.89027
574.89104
574.89136
574.89151
574.89152
574.89138
574.89114
574.89084
574.89071
574.89087
574.89044
574.8912
574.89151
574.89165
574.89163
574.89148
574.89122
574.89089
574.89075
574.89092
574.89047
574.89122
574.89152
574.89163
574.8916
574.89144
574.89116
574.89082
574.89068
574.89086
574.89039
574.89111
574.89138
574.89148
574.89144
574.89126
574.89097
574.89063
574.89049
574.89073
574.89022
574.89089
574.89114
574.89122
574.89116
574.89097
574.89068
574.89035
574.8902
574.89063
574.89004
574.89062
574.89084
574.89089
574.89082
574.89063
574.89035
574.89002
574.8899
574.89066
574.89009
574.89053
574.89071
574.89075
574.89068
574.89049
574.8902
574.8899
574.88983
849.44034
849.43913
849.44011
849.44059
849.44084
849.44089
849.44077
849.44056
849.44039
849.44062
849.43913
849.43883
849.43976
849.44023
849.44047
849.4405
849.44035
849.44006
849.43973
849.44
849.44011
849.43976
849.44067
849.44113
849.44135
849.44136
849.44118
849.44082
849.44036
849.44044
849.44059
849.44023
849.44113
849.44158
849.44178
849.44176
849.44155
849.44115
849.44064
849.44067
849.44084
849.44047
849.44135
849.44178
849.44196
849.44192
849.44167
849.44124
849.44071
849.44072
849.44089
849.4405
849.44136
849.44176
849.44192
849.44186
849.44159
849.44114
849.44059
849.44059
849.44077
849.44035
849.44118
849.44155
849.44167
849.44159
849.44131
849.44085
849.44029
849.44029
849.44056
849.44006
849.44082
849.44115
849.44124
849.44114
849.44085
849.44038
849.43983
849.43984
849.44039
849.43973
849.44036
849.44064
849.44071
849.44059
849.44029
849.43983
849.43931
849.43937
849.44062
849.44
849.44044
849.44067
849.44072
849.44059
849.44029
849.43984
849.43937
849.43965
843.76598
843.76527
843.76605
843.76647
843.76668
843.76669
843.76654
843.76626
843.76601
843.76633
843.76527
843.76516
843.76592
843.76633
843.76652
843.76652
843.76634
843.76598
843.76554
843.76588
843.76605
843.76592
843.76666
843.76706
843.76724
843.76722
843.767
843.76658
843.76602
843.76618
843.76647
843.76633
843.76706
843.76745
843.76761
843.76756
843.76731
843.76685
843.76624
843.76636
843.76668
843.76652
843.76724
843.76761
843.76775
843.76768
843.7674
843.76691
843.76627
843.76637
843.76669
843.76652
843.76722
843.76756
843.76768
843.76759
843.76729
843.76678
843.76612
843.76621
843.76654
843.76634
843.767
843.76731
843.7674
843.76729
843.76697
843.76645
843.76579
843.76588
843.76626
843.76598
843.76658
843.76685
843.76691
843.76678
843.76645
843.76593
843.76528
843.76538
843.76601
843.76554
843.76602
843.76624
843.76627
843.76612
843.76579
843.76528
843.76466
843.76484
843.76633
843.76588
843.76618
843.76636
843.76637
843.76621
843.76588
843.76538
843.76484
843.76544
838.14287
838.14225
838.14297
838.14333
838.1435
838.14347
838.14328
838.14295
838.1426
838.14284
838.14225
838.14216
838.14284
838.1432
838.14335
838.14332
838.14309
838.14268
838.14216
838.14244
838.14297
838.14284
838.14351
838.14385
838.14399
838.14394
838.14368
838.14321
838.14257
838.14269
838.14333
838.1432
838.14385
838.14419
838.14431
838.14423
838.14394
838.14343
838.14274
838.14282
838.1435
838.14335
838.14399
838.14431
838.14441
838.14431
838.14399
838.14346
838.14274
838.1428
838.14347
838.14332
838.14394
838.14423
838.14431
838.14418
838.14384
838.14329
838.14256
838.14261
838.14328
838.14309
838.14368
838.14394
838.14399
838.14384
838.14349
838.14293
838.14219
838.14224
838.14295
838.14268
838.14321
838.14343
838.14346
838.14329
838.14293
838.14237
838.14164
838.1417
838.1426
838.14216
838.14257
838.14274
838.14274
838.14256
838.14219
838.14164
838.14094
838.14108
838.14284
838.14244
838.14269
838.14282
838.1428
838.14261
838.14224
838.1417
838.14108
838.14175
832.57021
832.56965
832.57032
832.57064
832.57077
832.57072
832.57049
832.57012
832.56972
832.5699
832.56965
832.56957
832.57021
832.57052
832.57064
832.57057
832.57031
832.56987
832.56931
832.56953
832.57032
832.57021
832.57082
832.57113
832.57123
832.57114
832.57085
832.57035
832.56967
832.56975
832.57064
832.57052
832.57113
832.57142
832.57151
832.57139
832.57107
832.57054
832.56981
832.56985
832.57077
832.57064
832.57123
832.57151
832.57158
832.57144
832.57109
832.57053
832.56978
832.56979
832.57072
832.57057
832.57114
832.57139
832.57144
832.57128
832.57092
832.57034
832.56957
832.56958
832.57049
832.57031
832.57085
832.57107
832.57109
832.57092
832.57054
832.56995
832.56918
832.56918
832.57012
832.56987
832.57035
832.57054
832.57053
832.57034
832.56995
832.56936
832.56859
832.56862
832.56972
832.56931
832.56967
832.56981
832.56978
832.56957
832.56918
832.56859
832.56786
832.56796
832.5699
832.56953
832.56975
832.56985
832.56979
832.56958
832.56918
832.56862
832.56796
832.5686
827.0482
827.0477
827.04832
827.04861
827.04871
827.04863
827.04837
827.04798
827.04755
827.04768
827.0477
827.04764
827.04823
827.04851
827.0486
827.0485
827.04822
827.04776
827.04717
827.04734
827.04832
827.04823
827.04881
827.04908
827.04915
827.04904
827.04872
827.0482
827.04751
827.04754
827.04861
827.04851
827.04908
827.04934
827.04939
827.04925
827.04891
827.04836
827.04762
827.04761
827.04871
827.0486
827.04915
827.04939
827.04943
827.04927
827.0489
827.04832
827.04756
827.04753
827.04863
827.0485
827.04904
827.04925
827.04927
827.04909
827.0487
827.04811
827.04733
827.0473
827.04837
827.04822
827.04872
827.04891
827.0489
827.0487
827.04831
827.0477
827.04692
827.04688
827.04798
827.04776
827.0482
827.04836
827.04832
827.04811
827.0477
827.04709
827.04632
827.0463
827.04755
827.04717
827.04751
827.04762
827.04756
827.04733
827.04692
827.04632
827.04557
827.04562
827.04768
827.04734
827.04754
827.04761
827.04753
827.0473
827.04688
827.0463
827.04562
827.04622
821.57735
821.57691
821.57749
821.57776
821.57783
821.57772
821.57745
821.57704
821.5766
821.57669
821.57691
821.57687
821.57743
821.57768
821.57774
821.57762
821.57733
821.57685
821.57625
821.57637
821.57749
821.57743
821.57796
821.57821
821.57826
821.57812
821.57779
821.57726
821.57656
821.57655
821.57776
821.57768
821.57821
821.57844
821.57847
821.57831
821.57795
821.57739
821.57665
821.5766
821.57783
821.57774
821.57826
821.57847
821.57848
821.5783
821.57792
821.57734
821.57657
821.57651
821.57772
821.57762
821.57812
821.57831
821.5783
821.5781
821.57771
821.5771
821.57632
821.57626
821.57745
821.57733
821.57779
821.57795
821.57792
821.57771
821.5773
821.57669
821.5759
821.57584
821.57704
821.57685
821.57726
821.57739
821.57734
821.5771
821.57669
821.57608
821.5753
821.57524
821.5766
821.57625
821.57656
821.57665
821.57657
821.57632
821.5759
821.5753
821.57455
821.57456
821.57669
821.57637
821.57655
821.5766
821.57651
821.57626
821.57584
821.57524
821.57456
821.57509
816.15848
816.1581
816.15864
816.15888
816.15893
816.15881
816.15852
816.15811
816.15765
816.15771
816.1581
816.15809
816.1586
816.15883
816.15887
816.15874
816.15843
816.15795
816.15735
816.15743
816.15864
816.1586
816.1591
816.15932
816.15935
816.15919
816.15886
816.15833
816.15763
816.15759
816.15888
816.15883
816.15932
816.15952
816.15954
816.15936
816.159
816.15844
816.1577
816.15763
816.15893
816.15887
816.15935
816.15954
816.15953
816.15934
816.15895
816.15837
816.15761
816.15752
816.15881
816.15874
816.15919
816.15936
816.15934
816.15913
816.15872
816.15813
816.15735
816.15726
816.15852
816.15843
816.15886
816.159
816.15895
816.15872
816.15831
816.1577
816.15693
816.15683
816.15811
816.15795
816.15833
816.15844
816.15837
816.15813
816.1577
816.1571
816.15633
816.15624
816.15765
816.15735
816.15763
816.1577
816.15761
816.15735
816.15693
816.15633
816.15559
816.15556
816.15771
816.15743
816.15759
816.15763
816.15752
816.15726
816.15683
816.15624
816.15556
816.15603
810.79267
810.79234
810.79285
810.79306
810.79309
810.79296
810.79267
810.79225
810.7918
810.79182
810.79234
810.79236
810.79283
810.79304
810.79306
810.79291
810.7926
810.79212
810.79153
810.79157
810.79285
810.79283
810.7933
810.79349
810.7935
810.79333
810.79299
810.79247
810.79179
810.79172
810.79306
810.79304
810.79349
810.79367
810.79366
810.79348
810.79312
810.79256
810.79184
810.79174
810.79309
810.79306
810.7935
810.79366
810.79364
810.79344
810.79306
810.79248
810.79174
810.79162
810.79296
810.79291
810.79333
810.79348
810.79344
810.79322
810.79282
810.79223
810.79148
810.79136
810.79267
810.7926
810.79299
810.79312
810.79306
810.79282
810.79241
810.79182
810.79106
810.79094
810.79225
810.79212
810.79247
810.79256
810.79248
810.79223
810.79182
810.79122
810.79047
810.79036
810.7918
810.79153
810.79179
810.79184
810.79174
810.79148
810.79106
810.79047
810.78974
810.78968
810.79182
810.79157
810.79172
810.79174
810.79162
810.79136
810.79094
810.79036
810.78968
810.79009
805.48122
805.48096
805.48142
805.48161
805.48162
805.48148
805.48119
805.48077
805.48033
805.48032
805.48096
805.48099
805.48143
805.48161
805.48161
805.48146
805.48115
805.48068
805.4801
805.48011
805.48142
805.48143
805.48185
805.48201
805.48201
805.48184
805.4815
805.481
805.48033
805.48024
805.48161
805.48161
805.48201
805.48217
805.48215
805.48196
805.48161
805.48107
805.48037
805.48025
805.48162
805.48161
805.48201
805.48215
805.48212
805.48191
805.48154
805.48098
805.48026
805.48012
805.48148
805.48146
805.48184
805.48196
805.48191
805.48169
805.4813
805.48073
805.48
805.47986
805.48119
805.48115
805.4815
805.48161
805.48154
805.4813
805.4809
805.48032
805.47959
805.47944
805.48077
805.48068
805.481
805.48107
805.48098
805.48073
805.48032
805.47974
805.47902
805.47888
805.48033
805.4801
805.48033
805.48037
805.48026
805.48
805.47959
805.47902
805.47831
805.47823
805.48032
805.48011
805.48024
805.48025
805.48012
805.47986
805.47944
805.47888
805.47823
805.47857
800.22564
800.22544
800.22586
800.22602
800.22602
800.22587
800.22559
800.22518
800.22475
800.22471
800.22544
800.22549
800.22589
800.22604
800.22603
800.22588
800.22557
800.22512
800.22456
800.22454
800.22586
800.22589
800.22626
800.22641
800.22639
800.22622
800.22589
800.2254
800.22477
800.22465
800.22602
800.22604
800.22641
800.22654
800.22651
800.22632
800.22597
800.22546
800.22479
800.22465
800.22602
800.22603
800.22639
800.22651
800.22647
800.22626
800.2259
800.22536
800.22468
800.22452
800.22587
800.22588
800.22622
800.22632
800.22626
800.22604
800.22566
800.22512
800.22442
800.22426
800.22559
800.22557
800.22589
800.22597
800.2259
800.22566
800.22527
800.22472
800.22402
800.22386
800.22518
800.22512
800.2254
800.22546
800.22536
800.22512
800.22472
800.22417
800.22348
800.22332
800.22475
800.22456
800.22477
800.22479
800.22468
800.22442
800.22402
800.22348
800.2228
800.22269
800.22471
800.22454
800.22465
800.22465
800.22452
800.22426
800.22386
800.22332
800.22269
800.22297
795.02761
795.02747
795.02784
795.02798
795.02796
795.02781
795.02754
795.02715
795.02673
795.02667
795.02747
795.02754
795.02789
795.02802
795.028
795.02784
795.02754
795.02711
795.02658
795.02653
795.02784
795.02789
795.02822
795.02834
795.02831
795.02814
795.02782
795.02736
795.02676
795.02662
795.02798
795.02802
795.02834
795.02845
795.02841
795.02822
795.02789
795.0274
795.02677
795.02661
795.02796
795.028
795.02831
795.02841
795.02836
795.02816
795.02781
795.0273
795.02666
795.02648
795.02781
795.02784
795.02814
795.02822
795.02816
795.02794
795.02758
795.02706
795.02641
795.02623
795.02754
795.02754
795.02782
795.02789
795.02781
795.02758
795.02721
795.02669
795.02603
795.02585
795.02715
795.02711
795.02736
795.0274
795.0273
795.02706
795.02669
795.02616
795.02551
795.02534
795.02673
795.02658
795.02676
795.02677
795.02666
795.02641
795.02603
795.02551
795.02487
795.02474
795.02667
795.02653
795.02662
795.02661
795.02648
795.02623
795.02585
795.02534
795.02474
795.02497
789.88894
789.88885
789.88917
789.88929
789.88926
789.88911
789.88885
789.88848
789.88808
789.888
789.88885
789.88894
789.88924
789.88935
789.88932
789.88916
789.88888
789.88847
789.88797
789.88789
789.88917
789.88924
789.88953
789.88963
789.88959
789.88942
789.88912
789.88868
789.88812
789.88797
789.88929
789.88935
789.88963
789.88971
789.88966
789.88948
789.88916
789.88871
789.88812
789.88795
789.88926
789.88932
789.88959
789.88966
789.8896
789.88941
789.88908
789.88861
789.88801
789.88782
789.88911
789.88916
789.88942
789.88948
789.88941
789.8892
789.88886
789.88838
789.88777
789.88758
789.88885
789.88888
789.88912
789.88916
789.88908
789.88886
789.88851
789.88802
789.88741
789.88722
789.88848
789.88847
789.88868
789.88871
789.88861
789.88838
789.88802
789.88753
789.88693
789.88674
789.88808
789.88797
789.88812
789.88812
789.88801
789.88777
789.88741
789.88693
789.88633
789.88618
789.888
789.88789
789.88797
789.88795
789.88782
789.88758
789.88722
789.88674
789.88618
789.88635
784.81154
784.81151
784.81178
784.81187
784.81184
784.81169
784.81144
784.81109
784.81072
784.81062
784.81151
784.81161
784.81186
784.81195
784.81191
784.81175
784.81149
784.81111
784.81065
784.81054
784.81178
784.81186
784.8121
784.81218
784.81213
784.81197
784.81168
784.81128
784.81077
784.8106
784.81187
784.81195
784.81218
784.81224
784.81219
784.81201
784.81172
784.8113
784.81076
784.81058
784.81184
784.81191
784.81213
784.81219
784.81212
784.81193
784.81163
784.81119
784.81064
784.81045
784.81169
784.81175
784.81197
784.81201
784.81193
784.81174
784.81142
784.81098
784.81042
784.81023
784.81144
784.81149
784.81168
784.81172
784.81163
784.81142
784.81109
784.81065
784.81009
784.80989
784.81109
784.81111
784.81128
784.8113
784.81119
784.81098
784.81065
784.8102
784.80964
784.80945
784.81072
784.81065
784.81077
784.81076
784.81064
784.81042
784.81009
784.80964
784.80909
784.80893
784.81062
784.81054
784.8106
784.81058
784.81045
784.81023
784.80989
784.80945
784.80893
784.80905
779.79742
779.79744
779.79766
779.79772
779.79768
779.79754
779.7973
779.79698
779.79663
779.79652
779.79744
779.79755
779.79775
779.79781
779.79776
779.79761
779.79737
779.79702
779.7966
779.79648
779.79766
779.79775
779.79794
779.79799
779.79794
779.79778
779.79752
779.79716
779.79669
779.79652
779.79772
779.79781
779.79799
779.79804
779.79797
779.79781
779.79754
779.79716
779.79667
779.79649
779.79768
779.79776
779.79794
779.79797
779.7979
779.79773
779.79744
779.79705
779.79656
779.79637
779.79754
779.79761
779.79778
779.79781
779.79773
779.79754
779.79725
779.79685
779.79635
779.79616
779.7973
779.79737
779.79752
779.79754
779.79744
779.79725
779.79696
779.79655
779.79605
779.79585
779.79698
779.79702
779.79716
779.79716
779.79705
779.79685
779.79655
779.79615
779.79565
779.79545
779.79663
779.7966
779.79669
779.79667
779.79656
779.79635
779.79605
779.79565
779.79515
779.79498
779.79652
779.79648
779.79652
779.79649
779.79637
779.79616
779.79585
779.79545
779.79498
779.79505
774.84861
774.84869
774.84885
774.84889
774.84883
774.8487
774.84848
774.8482
774.84788
774.84775
774.84869
774.8488
774.84895
774.84899
774.84893
774.84879
774.84856
774.84826
774.84788
774.84774
774.84885
774.84895
774.84909
774.84912
774.84906
774.84891
774.84868
774.84835
774.84794
774.84776
774.84889
774.84899
774.84912
774.84914
774.84907
774.84892
774.84867
774.84834
774.84791
774.84772
774.84883
774.84893
774.84906
774.84907
774.849
774.84883
774.84858
774.84824
774.8478
774.84761
774.8487
774.84879
774.84891
774.84892
774.84883
774.84866
774.8484
774.84805
774.84761
774.84741
774.84848
774.84856
774.84868
774.84867
774.84858
774.8484
774.84814
774.84778
774.84734
774.84714
774.8482
774.84826
774.84835
774.84834
774.84824
774.84805
774.84778
774.84742
774.84698
774.84679
774.84788
774.84788
774.84794
774.84791
774.8478
774.84761
774.84734
774.84698
774.84655
774.84636
774.84775
774.84774
774.84776
774.84772
774.84761
774.84741
774.84714
774.84679
774.84636
774.84639
769.96719
769.96731
769.96742
769.96743
769.96737
769.96724
769.96705
769.9668
769.96651
769.96638
769.96731
769.96743
769.96753
769.96754
769.96748
769.96734
769.96714
769.96687
769.96654
769.96639
769.96742
769.96753
769.96762
769.96762
769.96756
769.96742
769.96721
769.96693
769.96657
769.9664
769.96743
769.96754
769.96762
769.96762
769.96755
769.96741
769.96719
769.9669
769.96654
769.96635
769.96737
769.96748
769.96756
769.96755
769.96747
769.96732
769.9671
769.9668
769.96643
769.96624
769.96724
769.96734
769.96742
769.96741
769.96732
769.96717
769.96694
769.96664
769.96626
769.96607
769.96705
769.96714
769.96721
769.96719
769.9671
769.96694
769.96671
769.9664
769.96602
769.96583
769.9668
769.96687
769.96693
769.9669
769.9668
769.96664
769.9664
769.9661
769.96572
769.96552
769.96651
769.96654
769.96657
769.96654
769.96643
769.96626
769.96602
769.96572
769.96534
769.96516
769.96638
769.96639
769.9664
769.96635
769.96624
769.96607
769.96583
769.96552
769.96516
769.96514
765.15522
765.15538
765.15543
765.15542
765.15536
765.15524
765.15506
765.15485
765.1546
765.15446
765.15538
765.15551
765.15555
765.15554
765.15547
765.15534
765.15517
765.15494
765.15466
765.1545
765.15543
765.15555
765.15559
765.15557
765.1555
765.15537
765.15519
765.15496
765.15466
765.15449
765.15542
765.15554
765.15557
765.15555
765.15547
765.15534
765.15516
765.15491
765.15461
765.15443
765.15536
765.15547
765.1555
765.15547
765.15539
765.15526
765.15507
765.15482
765.15452
765.15433
765.15524
765.15534
765.15537
765.15534
765.15526
765.15512
765.15492
765.15468
765.15437
765.15418
765.15506
765.15517
765.15519
765.15516
765.15507
765.15492
765.15473
765.15448
765.15417
765.15398
765.15485
765.15494
765.15496
765.15491
765.15482
765.15468
765.15448
765.15422
765.15391
765.15373
765.1546
765.15466
765.15466
765.15461
765.15452
765.15437
765.15417
765.15391
765.1536
765.15342
765.15446
765.1545
765.15449
765.15443
765.15433
765.15418
765.15398
765.15373
765.15342
765.15336
760.41474
760.41494
760.41493
760.4149
760.41482
760.41471
760.41457
760.41439
760.41418
760.41404
760.41494
760.41506
760.41505
760.41502
760.41494
760.41483
760.41468
760.4145
760.41427
760.41411
760.41493
760.41505
760.41504
760.415
760.41492
760.41481
760.41466
760.41447
760.41424
760.41407
760.4149
760.41502
760.415
760.41496
760.41488
760.41476
760.41461
760.41442
760.41418
760.41401
760.41482
760.41494
760.41492
760.41488
760.41479
760.41467
760.41452
760.41433
760.41409
760.41392
760.41471
760.41483
760.41481
760.41476
760.41467
760.41455
760.4144
760.4142
760.41397
760.41379
760.41457
760.41468
760.41466
760.41461
760.41452
760.4144
760.41424
760.41404
760.41381
760.41363
760.41439
760.4145
760.41447
760.41442
760.41433
760.4142
760.41404
760.41385
760.41361
760.41343
760.41418
760.41427
760.41424
760.41418
760.41409
760.41397
760.41381
760.41361
760.41336
760.41318
760.41404
760.41411
760.41407
760.41401
760.41392
760.41379
760.41363
760.41343
760.41318
760.41309
755.74774
755.74797
755.74791
755.74785
755.74777
755.74767
755.74755
755.74741
755.74725
755.7471
755.74797
755.74809
755.74803
755.74797
755.74789
755.74779
755.74767
755.74753
755.74736
755.74719
755.74791
755.74803
755.74796
755.7479
755.74782
755.74772
755.7476
755.74746
755.7473
755.74714
755.74785
755.74797
755.7479
755.74783
755.74775
755.74765
755.74754
755.7474
755.74723
755.74707
755.74777
755.74789
755.74782
755.74775
755.74767
755.74757
755.74745
755.74731
755.74715
755.74699
755.74767
755.74779
755.74772
755.74765
755.74757
755.74747
755.74735
755.74721
755.74705
755.74689
755.74755
755.74767
755.7476
755.74754
755.74745
755.74735
755.74723
755.74709
755.74693
755.74677
755.74741
755.74753
755.74746
755.7474
755.74731
755.74721
755.74709
755.74695
755.74678
755.74662
755.74725
755.74736
755.7473
755.74723
755.74715
755.74705
755.74693
755.74678
755.74661
755.74644
755.7471
755.74719
755.74714
755.74707
755.74699
755.74689
755.74677
755.74662
755.74644
755.74631
751.15613
751.15639
751.15627
751.15619
751.1561
751.15602
751.15593
751.15583
751.15571
751.15556
751.15639
751.15651
751.15639
751.15631
751.15622
751.15614
751.15605
751.15596
751.15585
751.15568
751.15627
751.15639
751.15628
751.15619
751.15611
751.15602
751.15594
751.15585
751.15575
751.1556
751.15619
751.15631
751.15619
751.1561
751.15602
751.15594
751.15586
751.15577
751.15568
751.15553
751.1561
751.15622
751.15611
751.15602
751.15594
751.15586
751.15578
751.1557
751.1556
751.15546
751.15602
751.15614
751.15602
751.15594
751.15586
751.15578
751.1557
751.15562
751.15553
751.15538
751.15593
751.15605
751.15594
751.15586
751.15578
751.1557
751.15562
751.15554
751.15545
751.1553
751.15583
751.15596
751.15585
751.15577
751.1557
751.15562
751.15554
751.15546
751.15536
751.15522
751.15571
751.15585
751.15575
751.15568
751.1556
751.15553
751.15545
751.15536
751.15526
751.1551
751.15556
751.15568
751.1556
751.15553
751.15546
751.15538
751.1553
751.15522
751.1551
751.15494
746.64174
746.64203
746.64186
746.64175
746.64166
746.64159
746.64152
746.64147
746.64139
746.64125
746.64203
746.64214
746.64197
746.64186
746.64178
746.6417
746.64165
746.6416
746.64155
746.64138
746.64186
746.64197
746.64181
746.6417
746.64161
746.64154
746.64149
746.64146
746.64143
746.6413
746.64175
746.64186
746.6417
746.64159
746.64151
746.64144
746.6414
746.64137
746.64135
746.64122
746.64166
746.64178
746.64161
746.64151
746.64143
746.64137
746.64132
746.6413
746.64128
746.64116
746.64159
746.6417
746.64154
746.64144
746.64137
746.64131
746.64127
746.64125
746.64123
746.64111
746.64152
746.64165
746.64149
746.6414
746.64132
746.64127
746.64123
746.64121
746.64119
746.64107
746.64147
746.6416
746.64146
746.64137
746.6413
746.64125
746.64121
746.64119
746.64117
746.64104
746.64139
746.64155
746.64143
746.64135
746.64128
746.64123
746.64119
746.64117
746.64114
746.641
746.64125
746.64138
746.6413
746.64122
746.64116
746.64111
746.64107
746.64104
746.641
746.64081
742.20629
742.2066
742.20638
742.20625
742.20615
742.20609
742.20606
742.20605
742.20602
742.20588
742.2066
742.2067
742.20649
742.20636
742.20627
742.20621
742.20619
742.20619
742.2062
742.20604
742.20638
742.20649
742.20627
742.20615
742.20606
742.20601
742.20599
742.20601
742.20605
742.20593
742.20625
742.20636
742.20615
742.20602
742.20594
742.20589
742.20588
742.20591
742.20596
742.20585
742.20615
742.20627
742.20606
742.20594
742.20586
742.20582
742.20581
742.20585
742.2059
742.2058
742.20609
742.20621
742.20601
742.20589
742.20582
742.20578
742.20578
742.20582
742.20588
742.20578
742.20606
742.20619
742.20599
742.20588
742.20581
742.20578
742.20578
742.20582
742.20588
742.20578
742.20605
742.20619
742.20601
742.20591
742.20585
742.20582
742.20582
742.20586
742.20592
742.20581
742.20602
742.2062
742.20605
742.20596
742.2059
742.20588
742.20588
742.20592
742.20597
742.20584
742.20588
742.20604
742.20593
742.20585
742.2058
742.20578
742.20578
742.20581
742.20584
742.20563
737.85137
737.85171
737.85143
737.85127
737.85118
737.85113
737.85113
737.85116
737.85118
737.85105
737.85171
737.85179
737.85153
737.85138
737.85129
737.85125
737.85125
737.85131
737.85138
737.85122
737.85143
737.85153
737.85127
737.85112
737.85103
737.851
737.85102
737.85109
737.8512
737.8511
737.85127
737.85138
737.85112
737.85098
737.8509
737.85087
737.8509
737.85098
737.8511
737.85102
737.85118
737.85129
737.85103
737.8509
737.85082
737.8508
737.85083
737.85093
737.85106
737.85098
737.85113
737.85125
737.851
737.85087
737.8508
737.85078
737.85083
737.85092
737.85106
737.85098
737.85113
737.85125
737.85102
737.8509
737.85083
737.85083
737.85087
737.85097
737.85111
737.85103
737.85116
737.85131
737.85109
737.85098
737.85093
737.85092
737.85097
737.85107
737.85121
737.85112
737.85118
737.85138
737.8512
737.8511
737.85106
737.85106
737.85111
737.85121
737.85133
737.85122
737.85105
737.85122
737.8511
737.85102
737.85098
737.85098
737.85103
737.85112
737.85122
737.85099
733.57843
733.57879
733.57846
733.57828
733.57819
733.57816
733.57819
733.57826
733.57833
733.57821
733.57879
733.57886
733.57855
733.57838
733.57829
733.57826
733.5783
733.57841
733.57854
733.57839
733.57846
733.57855
733.57824
733.57808
733.57799
733.57797
733.57803
733.57815
733.57833
733.57825
733.57828
733.57838
733.57808
733.57792
733.57784
733.57783
733.5779
733.57804
733.57823
733.57817
733.57819
733.57829
733.57799
733.57784
733.57776
733.57777
733.57784
733.57799
733.5782
733.57814
733.57816
733.57826
733.57797
733.57783
733.57777
733.57778
733.57786
733.57802
733.57823
733.57818
733.57819
733.5783
733.57803
733.5779
733.57784
733.57786
733.57795
733.57811
733.57832
733.57827
733.57826
733.57841
733.57815
733.57804
733.57799
733.57802
733.57811
733.57827
733.57848
733.57842
733.57833
733.57854
733.57833
733.57823
733.5782
733.57823
733.57832
733.57848
733.57867
733.57858
733.57821
733.57839
733.57825
733.57817
733.57814
733.57818
733.57827
733.57842
733.57858
733.57834
729.38877
729.38914
729.38876
729.38857
729.38847
729.38846
729.38852
729.38864
729.38876
729.38865
729.38914
729.3892
729.38884
729.38866
729.38856
729.38856
729.38863
729.38878
729.38897
729.38884
729.38876
729.38884
729.3885
729.38831
729.38823
729.38823
729.38832
729.3885
729.38874
729.38869
729.38857
729.38866
729.38831
729.38814
729.38806
729.38807
729.38818
729.38837
729.38864
729.3886
729.38847
729.38856
729.38823
729.38806
729.38799
729.38802
729.38813
729.38834
729.38862
729.38859
729.38846
729.38856
729.38823
729.38807
729.38802
729.38805
729.38817
729.38839
729.38867
729.38865
729.38852
729.38863
729.38832
729.38818
729.38813
729.38817
729.3883
729.38852
729.38881
729.38879
729.38864
729.38878
729.3885
729.38837
729.38834
729.38839
729.38852
729.38874
729.38903
729.389
729.38876
729.38897
729.38874
729.38864
729.38862
729.38867
729.38881
729.38903
729.38929
729.38923
729.38865
729.38884
729.38869
729.3886
729.38859
729.38865
729.38879
729.389
729.38923
729.38898
725.28352
725.28389
725.28347
725.28326
725.28317
725.28317
725.28326
725.28342
725.28359
725.28349
725.28389
725.28394
725.28354
725.28334
725.28325
725.28326
725.28337
725.28357
725.28381
725.2837
725.28347
725.28354
725.28315
725.28296
725.28287
725.28289
725.28302
725.28325
725.28356
725.28353
725.28326
725.28334
725.28296
725.28277
725.28269
725.28273
725.28287
725.28312
725.28345
725.28345
725.28317
725.28325
725.28287
725.28269
725.28263
725.28268
725.28283
725.28309
725.28344
725.28345
725.28317
725.28326
725.28289
725.28273
725.28268
725.28273
725.2829
725.28317
725.28353
725.28354
725.28326
725.28337
725.28302
725.28287
725.28283
725.2829
725.28307
725.28335
725.28371
725.28372
725.28342
725.28357
725.28325
725.28312
725.28309
725.28317
725.28335
725.28363
725.28398
725.28398
725.28359
725.28381
725.28356
725.28345
725.28344
725.28353
725.28371
725.28398
725.28433
725.28429
725.28349
725.2837
725.28353
725.28345
725.28345
725.28354
725.28372
725.28398
725.28429
725.28403
721.26362
721.264
721.26353
721.26331
721.26322
721.26324
721.26336
721.26357
721.26378
721.2637
721.264
721.26402
721.26359
721.26337
721.26328
721.26331
721.26346
721.2637
721.26401
721.26392
721.26353
721.26359
721.26316
721.26295
721.26287
721.26292
721.26308
721.26336
721.26374
721.26373
721.26331
721.26337
721.26295
721.26275
721.26268
721.26274
721.26292
721.26322
721.26363
721.26365
721.26322
721.26328
721.26287
721.26268
721.26263
721.2627
721.26289
721.26321
721.26363
721.26366
721.26324
721.26331
721.26292
721.26274
721.2627
721.26278
721.26298
721.26332
721.26374
721.26378
721.26336
721.26346
721.26308
721.26292
721.26289
721.26298
721.2632
721.26354
721.26397
721.264
721.26357
721.2637
721.26336
721.26322
721.26321
721.26332
721.26354
721.26387
721.2643
721.26433
721.26378
721.26401
721.26374
721.26363
721.26363
721.26374
721.26397
721.2643
721.26471
721.2647
721.2637
721.26392
721.26373
721.26365
721.26366
721.26378
721.264
721.26433
721.2647
721.26444
717.32983
717.33021
717.32971
717.32947
717.32938
717.32942
717.32958
717.32983
717.33009
717.33002
717.33021
717.33022
717.32975
717.32952
717.32944
717.32949
717.32967
717.32996
717.33033
717.33025
717.32971
717.32975
717.32929
717.32907
717.329
717.32906
717.32926
717.32959
717.33003
717.33006
717.32947
717.32952
717.32907
717.32886
717.3288
717.32888
717.3291
717.32945
717.32992
717.32997
717.32938
717.32944
717.329
717.3288
717.32875
717.32884
717.32908
717.32945
717.32994
717.33
717.32942
717.32949
717.32906
717.32888
717.32884
717.32895
717.3292
717.32958
717.33008
717.33015
717.32958
717.32967
717.32926
717.3291
717.32908
717.3292
717.32945
717.32985
717.33035
717.33042
717.32983
717.32996
717.32959
717.32945
717.32945
717.32958
717.32985
717.33024
717.33074
717.3308
717.33009
717.33033
717.33003
717.32992
717.32994
717.33008
717.33035
717.33074
717.33122
717.33124
717.33002
717.33025
717.33006
717.32997
717.33
717.33015
717.33042
717.3308
717.33124
717.33097
713.48272
713.48311
713.48257
713.48232
713.48224
713.4823
713.48249
713.48278
713.48309
713.48304
713.48311
713.4831
713.4826
713.48236
713.48228
713.48235
713.48256
713.4829
713.48333
713.48327
713.48257
713.4826
713.48211
713.48188
713.48181
713.4819
713.48213
713.48251
713.48302
713.48307
713.48232
713.48236
713.48188
713.48166
713.48161
713.48171
713.48196
713.48237
713.48291
713.48299