/*--------------------------------*- C++ -*----------------------------------*\
| =========                 |                                                 |
| \\      /  F ield         | OpenFOAM: The Open Source CFD Toolbox           |
|  \\    /   O peration     | Version:  v2106                                 |
|   \\  /    A nd           | Website:  www.openfoam.com                      |
|    \\/     M anipulation  |                                                 |
\*---------------------------------------------------------------------------*/
FoamFile
{
    version     2.0;
    format      ascii;
    arch        "LSB;label=32;scalar=64";
    class       volScalarField;
    location    "67.5";
    object      gradTy;
}
// * * * * * * * * * * * * * * * * * * * * * * * * * * * * * * * * * * * * * //

dimensions      [0 -1 0 1 0 0 0];

internalField   nonuniform List<scalar> 
4000
(
-0.00034988202
-0.00031021356
-0.00030101821
-0.00029744731
-0.00029535238
-0.00029343444
-0.00029082236
-0.00028602077
-0.00027520804
-0.00024890655
-0.00076874519
-0.00069544948
-0.0006724335
-0.00066107362
-0.00065333383
-0.00064601598
-0.00063671595
-0.00062183288
-0.00059408296
-0.00054030886
-0.00038707871
-0.00036792933
-0.00035270284
-0.00034127945
-0.00033172738
-0.00032233989
-0.00031149234
-0.00029737843
-0.00027853979
-0.00025794581
-0.00020970308
-0.00020120432
-0.00019060341
-0.00018022885
-0.00017033131
-0.00016043442
-0.00014987701
-0.00013820598
-0.00012595812
-0.00011629569
-6.6986762e-05
-6.0967457e-05
-5.1929125e-05
-4.2027903e-05
-3.2134694e-05
-2.2356147e-05
-1.2563675e-05
-2.8658555e-06
5.8732382e-06
1.1595078e-05
5.7154129e-05
6.3949154e-05
7.3772007e-05
8.4184185e-05
9.4226309e-05
0.00010375521
0.0001128476
0.00012135771
0.00012855513
0.00013296631
0.00016308207
0.00017420259
0.00018726518
0.00019916405
0.00020949362
0.00021865433
0.00022709612
0.00023497703
0.00024185534
0.0002463409
0.00024042821
0.0002638497
0.00028306121
0.00029680225
0.00030698011
0.00031523915
0.00032268762
0.00032999838
0.00033724476
0.00034301252
0.00025679318
0.00031246449
0.00033831718
0.00035189711
0.00036022748
0.00036635804
0.00037183608
0.00037772192
0.00038485022
0.00039265467
8.1235117e-05
0.0001075366
0.00011708451
0.00012126591
0.00012352613
0.00012508048
0.00012646693
0.00012807085
0.00013031209
0.00013327382
-0.0015268498
-0.001334803
-0.0012922349
-0.0012754578
-0.0012653497
-0.0012560011
-0.0012431879
-0.001219214
-0.0011621338
-0.00099774633
-0.003422153
-0.0030702307
-0.0029634314
-0.0029095506
-0.0028721077
-0.0028364437
-0.002790919
-0.0027172756
-0.0025747708
-0.0022598123
-0.0018132149
-0.0017241972
-0.0016525347
-0.0015976015
-0.0015512243
-0.0015054639
-0.0014524718
-0.0013833493
-0.0012907467
-0.0011919334
-0.00099881781
-0.00095849003
-0.00090749416
-0.00085717968
-0.00080899541
-0.00076072152
-0.00070916946
-0.00065213984
-0.00059228823
-0.00054530868
-0.00031435266
-0.00028516757
-0.00024124579
-0.00019302997
-0.00014478762
-9.7056459e-05
-4.9217552e-05
-1.8080464e-06
4.0931809e-05
6.8905413e-05
0.00029061887
0.00032386164
0.00037180757
0.00042261422
0.00047163351
0.00051818429
0.00056265807
0.00060436403
0.00063974004
0.00066150525
0.00081378268
0.00086896331
0.00093295073
0.00099107788
0.0010415324
0.0010863263
0.0011277121
0.0011665576
0.0012008275
0.0012236149
0.0012113366
0.0013329177
0.0014274848
0.0014946428
0.001544366
0.0015847921
0.0016214479
0.0016579075
0.0016951662
0.0017268621
0.0013488113
0.0016810128
0.0018062747
0.0018724288
0.0019131058
0.0019431422
0.001970247
0.0020001995
0.0020392017
0.0020911565
0.00044251146
0.00060689893
0.00065248382
0.00067277447
0.00068380352
0.00069142353
0.00069831366
0.00070661512
0.00071944429
0.00074125164
-0.0024632009
-0.0021536812
-0.0020839582
-0.0020555402
-0.0020379306
-0.0020213839
-0.0019985079
-0.0019553442
-0.0018514173
-0.0015481595
-0.0055938478
-0.0050249839
-0.0048481404
-0.0047559955
-0.0046905034
-0.0046273539
-0.0045462107
-0.0044142008
-0.0041568741
-0.0035831072
-0.0030596883
-0.0029124769
-0.0027907
-0.0026953463
-0.0026137608
-0.0025326533
-0.0024383537
-0.0023151087
-0.0021501967
-0.0019779032
-0.0016959618
-0.0016269203
-0.0015383248
-0.0014499811
-0.0013648037
-0.0012791131
-0.001187382
-0.0010858052
-0.000979352
-0.00089659349
-0.00050624153
-0.00045500712
-0.00037759992
-0.00029231409
-0.00020673187
-0.00012185213
-3.6606474e-05
4.8010914e-05
0.0001243476
0.00017422124
0.0005682858
0.00062741977
0.00071257847
0.00080282682
0.0008900002
0.00097295221
0.001052449
0.0011273421
0.0011912969
0.0012309918
0.0015218165
0.0016208761
0.0017349696
0.0018384208
0.0019282775
0.0020082838
0.0020826674
0.0021533576
0.0022172222
0.0022615522
0.0023005402
0.0025211762
0.0026898768
0.0028093332
0.0028979068
0.0029702873
0.0030367546
0.0031048421
0.0031790359
0.0032512291
0.002753273
0.0033640501
0.0035843666
0.0037012555
0.0037735783
0.0038274659
0.003877228
0.0039356605
0.004023615
0.0041891064
0.00095689466
0.0012601525
0.0013394059
0.0013750148
0.0013945783
0.0014082639
0.0014210416
0.0014378173
0.0014691703
0.0015481449
-0.0032985361
-0.0028846264
-0.0027910486
-0.0027521517
-0.0027275371
-0.0027040676
-0.0026713522
-0.0026092648
-0.0024589515
-0.0020180007
-0.0075211893
-0.006759958
-0.0065211595
-0.006394208
-0.0063023637
-0.0062127656
-0.0060968783
-0.005907536
-0.0055370481
-0.004707885
-0.0041527727
-0.0039540606
-0.0037870227
-0.0036542014
-0.0035392144
-0.0034240245
-0.0032895208
-0.0031133839
-0.0028778544
-0.0026345649
-0.0022922923
-0.0021970251
-0.0020734966
-0.0019492168
-0.0018285945
-0.0017066907
-0.0015758243
-0.0014307336
-0.001278816
-0.001161463
-0.00062866401
-0.0005565379
-0.00044722168
-0.000326361
-0.00020469557
-8.3685189e-05
3.8147597e-05
0.00015931349
0.00026871865
0.00034010337
0.00090128688
0.00098556426
0.0011067723
0.0012352578
0.0013595426
0.001478101
0.0015921272
0.0017000681
0.0017928119
0.0018507699
0.0022875681
0.0024297725
0.0025927977
0.0027404131
0.0028687549
0.0029834118
0.0030907219
0.0031938854
0.0032888071
0.0033564077
0.0034671297
0.0037857307
0.0040269598
0.0041973972
0.0043239681
0.0044279682
0.0045246528
0.0046260533
0.0047408726
0.0048585612
0.0042559407
0.0051428369
0.0054555918
0.0056216559
0.0057248624
0.0058024458
0.0058755643
0.0059649681
0.0061080721
0.0063965817
0.001506222
0.0019471728
0.0020589974
0.0021093659
0.0021372328
0.0021569557
0.0021758715
0.0022020228
0.0022543305
0.0023943625
-0.0040764304
-0.0035634301
-0.0034477086
-0.0033991138
-0.003367913
-0.0033378127
-0.0032955664
-0.0032150697
-0.0030196091
-0.0024448365
-0.0092943191
-0.0083512365
-0.0080550891
-0.0078958376
-0.0077791501
-0.0076642172
-0.00751472
-0.0072696878
-0.0067892043
-0.005712095
-0.0051251372
-0.0048786628
-0.0046697383
-0.004501891
-0.0043552461
-0.0042073661
-0.0040340107
-0.0038065956
-0.0035026041
-0.003190738
-0.00279733
-0.0026776365
-0.0025213911
-0.0023631443
-0.002208696
-0.002051951
-0.0018832212
-0.0016959182
-0.0014999041
-0.0013491132
-0.00068416966
-0.00059221806
-0.00045254927
-0.00029769316
-0.00014135598
1.4569976e-05
0.00017193891
0.0003287329
0.00047042528
0.00056278853
0.0012846418
0.0013931617
0.001549072
0.0017143971
0.0018745468
0.002027692
0.0021754795
0.0023159623
0.002437235
0.00251336
0.0030946876
0.0032788021
0.003489217
0.0036795726
0.0038452497
0.0039937355
0.00413352
0.0042691158
0.0043954124
0.0044866383
0.0046702111
0.005084147
0.0053957268
0.0056155536
0.0057790439
0.0059140399
0.0060407994
0.0061759323
0.0063322658
0.0064960378
0.005782813
0.0069381628
0.0073404057
0.0075540203
0.0076872108
0.007788076
0.0078846085
0.0080055984
0.0082047139
0.0086144441
0.0020602295
0.0026350021
0.0027783024
0.0028429128
0.0028788296
0.0029044883
0.0029295796
0.0029653056
0.0030387609
0.003238459
-0.0048068247
-0.0041991722
-0.0040625612
-0.0040048702
-0.0039674531
-0.0039310286
-0.0038796296
-0.0037814145
-0.0035425051
-0.0028390455
-0.010941561
-0.0098251655
-0.0094750841
-0.009285536
-0.0091453806
-0.0090062879
-0.0088245373
-0.0085259352
-0.0079396382
-0.0066242085
-0.0059981783
-0.0057067252
-0.0054585487
-0.0052577731
-0.0050811465
-0.0049020698
-0.0046914441
-0.0044147304
-0.0040449237
-0.0036672698
-0.0032239772
-0.003081315
-0.0028942737
-0.0027039128
-0.0025172949
-0.0023272255
-0.0021221299
-0.0018942027
-0.0016557508
-0.0014728395
-0.00068238964
-0.00057162724
-0.00040314162
-0.00021592387
-2.6454272e-05
0.00016298129
0.00035458773
0.00054579812
0.00071870986
0.00083133829
0.0017065022
0.0018382375
0.0020273455
0.0022279399
0.0024225105
0.0026089819
0.0027894549
0.0029615834
0.0031106875
0.0032045511
0.0039239445
0.0041483656
0.0044042972
0.0046357049
0.00483732
0.0050185218
0.0051899215
0.005357306
0.0055144912
0.0056289778
0.0058791931
0.0063848798
0.0067640922
0.0070314002
0.0072304714
0.0073955223
0.007551704
0.0077200919
0.0079174153
0.0081264286
0.0072952984
0.008708852
0.0091970251
0.0094563126
0.0096183884
0.0097418527
0.0098613561
0.010013525
0.010267693
0.010795406
0.0026055205
0.0033089801
0.0034824735
0.0035607493
0.0036044144
0.003635835
0.0036669902
0.0037121594
0.0038063324
0.0040639685
-0.0054911411
-0.0047935748
-0.0046372548
-0.0045710143
-0.0045277369
-0.004485314
-0.004425198
-0.0043100854
-0.0040297385
-0.0032035672
-0.012471553
-0.011190723
-0.010789857
-0.010571845
-0.010409561
-0.010247559
-0.010035103
-0.0096854291
-0.0089982471
-0.0074556665
-0.0067843887
-0.006450548
-0.00616551
-0.0059337747
-0.0057288428
-0.0055201719
-0.0052740694
-0.0049503638
-0.0045178302
-0.0040775801
-0.0035835844
-0.0034193077
-0.0032032883
-0.0029826404
-0.0027655736
-0.0025438418
-0.0023040945
-0.0020374051
-0.0017584638
-0.0015449495
-0.00063448968
-0.00050593921
-0.00031020408
-9.2336386e-05
0.00012859459
0.00034994766
0.00057425524
0.00079839618
0.001001195
0.0011332063
0.0021535612
0.0023073696
0.0025280187
0.002762143
0.0029894978
0.0032078037
0.0034196024
0.0036221463
0.0037980456
0.0039089893
0.0047576956
0.0050205386
0.0053198255
0.0055903467
0.0058262622
0.0060387952
0.0062406048
0.0064386874
0.0066257684
0.0067627649
0.0070714488
0.0076646381
0.008108305
0.0084208772
0.0086539357
0.008847817
0.0090323788
0.0092329806
0.0094700419
0.0097228211
0.0087691823
0.01042896
0.010998945
0.011301743
0.011491401
0.011636553
0.011778244
0.011960631
0.012268084
0.012909663
0.0031342767
0.0039604479
0.0041626637
0.004253948
0.0043050067
0.0043419556
0.0043789691
0.0044332866
0.0045474886
0.004861006
-0.0061281822
-0.0053459151
-0.0051711133
-0.0050968724
-0.0050480984
-0.0050000268
-0.0049316798
-0.0048005972
-0.004481081
-0.0035389028
-0.013885432
-0.012449828
-0.012001396
-0.011756753
-0.011573714
-0.011390144
-0.011148704
-0.010750775
-0.0099682621
-0.0082110502
-0.0074908212
-0.0071172572
-0.0067977465
-0.0065370296
-0.0063055281
-0.0060689882
-0.0057893999
-0.0054212998
-0.0049295186
-0.0044302373
-0.0038850049
-0.0037004827
-0.0034573222
-0.0032082643
-0.002962566
-0.0027109833
-0.0024385016
-0.0021351618
-0.0018179438
-0.0015755349
-0.00055076358
-0.00040549515
-0.00018415381
6.2546241e-05
0.00031312715
0.00056462672
0.00081988221
0.0010752264
0.0013063523
0.0014567194
0.0026134483
0.0027880761
0.0030384577
0.0033042043
0.0035625221
0.0038109594
0.0040524792
0.0042839374
0.0044853395
0.0046125394
0.0055808932
0.0058800376
0.006220262
0.006527726
0.0067960835
0.0070383257
0.0072690616
0.007496427
0.0077120749
0.0078705891
0.0082296401
0.0089055384
0.0094100824
0.0097654198
0.01003064
0.01025189
0.010463501
0.010694903
0.010970009
0.011264681
0.010187185
0.012079727
0.01272691
0.013070789
0.013286537
0.013452282
0.013615139
0.013826444
0.014184917
0.014935463
0.0036410455
0.0045832237
0.0048125201
0.0049160779
0.0049741261
0.0050163226
0.005058926
0.0051219988
0.0052553739
0.0056223631
-0.0067159011
-0.0058546278
-0.0056626524
-0.0055809852
-0.0055270967
-0.005473752
-0.005397706
-0.0052516744
-0.0048954838
-0.0038446657
-0.015181273
-0.0136014
-0.013108805
-0.012839441
-0.012637087
-0.012433387
-0.012164845
-0.011721758
-0.010850023
-0.0088919235
-0.0081213909
-0.007710927
-0.0073594313
-0.0070717905
-0.0068155487
-0.006552994
-0.0062420948
-0.0058324576
-0.0052852562
-0.0047308467
-0.0041348626
-0.003931529
-0.0036631441
-0.0033876464
-0.0031152509
-0.002835778
-0.0025326664
-0.0021950115
-0.0018419644
-0.0015725419
-0.00043990074
-0.00027905101
-3.3847063e-05
0.00023974547
0.00051802131
0.00079772796
0.0010819844
0.0013665956
0.0016242951
0.0017918683
0.0030754979
0.0032695839
0.0035477396
0.0038430378
0.0041303241
0.0044070008
0.0046764285
0.0049350806
0.005160492
0.0053029979
0.0063809932
0.0067141097
0.0070926219
0.0074346461
0.0077333883
0.0080035137
0.0082614681
0.0085164543
0.0087590959
0.0089379609
0.0093399618
0.010093295
0.010654784
0.011050134
0.011345486
0.011592444
0.01182955
0.012090072
0.012401215
0.0127356
0.011535797
0.01364631
0.014365632
0.014747921
0.014988102
0.015173194
0.015356019
0.0155947
0.016001547
0.016855461
0.0041215489
0.005172367
0.0054269484
0.0055419734
0.0056065634
0.0056536889
0.0057015674
0.0057729322
0.0059244908
0.0063422081
-0.0072520502
-0.006317916
-0.0061101621
-0.0060216747
-0.0059630759
-0.0059048599
-0.0058216886
-0.0056618124
-0.0052716464
-0.0041201559
-0.016355971
-0.014643138
-0.014109992
-0.013817917
-0.013597773
-0.01337548
-0.013081863
-0.012596968
-0.011642613
-0.0094984785
-0.0086782229
-0.008233861
-0.0078530013
-0.0075406017
-0.0072615555
-0.0069749682
-0.0066351018
-0.0061870179
-0.0055885341
-0.004983202
-0.004338064
-0.0041174346
-0.003825845
-0.0035259888
-0.0032289533
-0.0029236939
-0.0025922276
-0.0022227915
-0.0018365705
-0.0015421683
-0.00030897469
-0.00013375258
0.00013346202
0.00043188094
0.00073575696
0.0010415761
0.0013527148
0.0016644762
0.0019468302
0.002130355
0.0035308027
0.0037428836
0.0040467127
0.0043693373
0.0046834384
0.0049862951
0.0052816394
0.0055655825
0.0058133463
0.005970106
0.0071475911
0.0075121624
0.0079261032
0.0083001127
0.0086270056
0.0089230128
0.009206293
0.0094870412
0.0097549105
0.0099528196
0.010391109
0.011216172
0.011830358
0.01226274
0.012586015
0.012856855
0.013117722
0.013405473
0.013750393
0.014122053
0.012803889
0.015116373
0.015902378
0.016320189
0.016583001
0.016786068
0.016987525
0.017251847
0.017704106
0.01865515
0.00457222
0.0057237105
0.0060016432
0.0061272652
0.0061979113
0.0062496151
0.0063024177
0.0063815545
0.0065501912
0.0070155839
-0.0077344562
-0.0067340144
-0.0065119592
-0.0064172903
-0.0063544079
-0.006291747
-0.0062020617
-0.0060295196
-0.0056082589
-0.0043646013
-0.01740611
-0.015572364
-0.01500248
-0.014689812
-0.014453485
-0.01421423
-0.013897695
-0.013374567
-0.012344638
-0.01003031
-0.0091624376
-0.0086873515
-0.008279886
-0.0079450052
-0.0076451975
-0.0073366798
-0.0069703426
-0.006487109
-0.0058417558
-0.0051899749
-0.0044982711
-0.0042619442
-0.0039492762
-0.0036272557
-0.0033077564
-0.0029789467
-0.0026215536
-0.0022230449
-0.0018064876
-0.0014892741
-0.00016367754
2.4637524e-05
0.00031190499
0.00063296283
0.00096021399
0.0012899109
0.0016256622
0.0019623005
0.0022672476
0.0024653794
0.0039720097
0.0042005289
0.0045277995
0.0048753839
0.0052140022
0.0055408321
0.0058599487
0.006167126
0.0064354482
0.0066053233
0.0078720494
0.0082653904
0.0087117125
0.0091149612
0.0094676144
0.0097873509
0.010093908
0.010398396
0.010689567
0.010905096
0.011373667
0.012264372
0.012926724
0.013392958
0.01374179
0.014034544
0.01431729
0.014630203
0.015006428
0.015412699
0.013982058
0.016479435
0.017326314
0.017776569
0.018060085
0.018279648
0.018498282
0.018786347
0.019280778
0.020322135
0.0049900074
0.006233665
0.0065328928
0.0066681856
0.0067443685
0.0068002734
0.0068576185
0.0069439591
0.0071284653
0.0076381975
-0.0081611516
-0.0071013166
-0.0068665107
-0.0067663294
-0.0066996107
-0.0066329534
-0.006537399
-0.0063534348
-0.0059041198
-0.0045772741
-0.018328424
-0.016386462
-0.01578384
-0.015452796
-0.01520197
-0.014947466
-0.01461029
-0.014052698
-0.012954628
-0.01048682
-0.0095746241
-0.0090721434
-0.0086409574
-0.0082859786
-0.0079675519
-0.0076393149
-0.007249138
-0.0067342329
-0.0060466635
-0.0053531416
-0.0046182766
-0.0043679267
-0.0040364066
-0.0036945212
-0.0033548437
-0.0030048388
-0.0026240812
-0.0021993608
-0.0017554631
-0.0014177236
-8.598335e-06
0.00019146572
0.00049673103
0.00083812952
0.0011864134
0.0015376295
0.0018955925
0.0022546998
0.0025800561
0.0027913724
0.0043930641
0.0046363816
0.004984744
0.0053547955
0.0057155066
0.0060639746
0.0064045878
0.0067328115
0.0070197814
0.0072015602
0.0085471859
0.0089664637
0.0094419547
0.0098715456
0.010247433
0.010588616
0.01091627
0.011242337
0.011554747
0.011786369
0.012279742
0.013229661
0.013935404
0.014432136
0.014804022
0.015116599
0.015419216
0.015755077
0.016159951
0.016597965
0.015062298
0.01772654
0.018628176
0.019107631
0.019409813
0.019644304
0.019878562
0.020188335
0.02072145
0.021845782
0.0053722858
0.0066991315
0.0070174915
0.0071614794
0.0072426511
0.007302357
0.007363837
0.0074567712
0.007655846
0.0082063256
-0.0085304458
-0.0074184433
-0.0071725007
-0.0070675022
-0.006997413
-0.0069272271
-0.0068264772
-0.0066323907
-0.0061581993
-0.0047575521
-0.019120049
-0.017083132
-0.016451929
-0.01610481
-0.01584124
-0.015573275
-0.015217834
-0.014629715
-0.01347127
-0.010867442
-0.0099151401
-0.0093887284
-0.0089368187
-0.008564219
-0.0082294032
-0.0078837525
-0.0074724839
-0.0069295404
-0.0062046137
-0.0054742578
-0.0047002854
-0.0044376539
-0.0040895962
-0.0037302384
-0.0033727646
-0.0030040223
-0.0026025779
-0.0021546373
-0.0016865298
-0.0013306493
0.00015252846
0.00036294107
0.00068406379
0.0010434076
0.0014102798
0.0017805497
0.0021582112
0.0025372646
0.0028807425
0.0031037551
0.0047889731
0.0050453768
0.0054123797
0.0058022961
0.0061825664
0.0065502275
0.0069099501
0.0072569211
0.0075605288
0.0077529372
0.0091670305
0.0096092851
0.01011059
0.010563497
0.010959975
0.011320212
0.011666669
0.012012039
0.012343508
0.012589608
0.013102715
0.014105132
0.014849278
0.015373002
0.015765326
0.016095533
0.016415905
0.016772373
0.017203079
0.017669792
0.016037817
0.018850075
0.01980009
0.020305358
0.020624078
0.020871848
0.021120094
0.021449417
0.022017513
0.023217013
0.0057168092
0.0071174564
0.0074526945
0.0076043603
0.0076899482
0.0077530354
0.0078182204
0.0079171015
0.0081293623
0.008716768
-0.0088409658
-0.007684282
-0.0074288691
-0.0073197702
-0.0072467916
-0.0071735612
-0.0070683134
-0.0068654511
-0.0063696757
-0.0049049544
-0.019778677
-0.017660532
-0.01700504
-0.01664422
-0.016369717
-0.016090139
-0.015718892
-0.015104327
-0.01389355
-0.011171787
-0.010184308
-0.0096375405
-0.0091679961
-0.0087803311
-0.0084314299
-0.0080707509
-0.0076412352
-0.0070740157
-0.0063167611
-0.0055546427
-0.0047461218
-0.0044730056
-0.0041107985
-0.0037364393
-0.0033636319
-0.0029786966
-0.0025593396
-0.0020912781
-0.0016022038
-0.0012306495
0.00031662272
0.00053593614
0.0008707042
0.0012455163
0.0016284469
0.002015216
0.002409969
0.0028063504
0.0031655756
0.0033987413
0.0051556142
0.0054233316
0.0058064383
0.0062135263
0.0066107306
0.0069950484
0.0073714
0.0077347266
0.0080528796
0.0082545907
0.0097266411
0.010188806
0.010712453
0.011185541
0.011599871
0.011976676
0.012339549
0.012701845
0.013050096
0.013308983
0.013837081
0.014885038
0.015662424
0.016209512
0.01661956
0.016965119
0.01730104
0.017675665
0.018129249
0.018621463
0.016902918
0.019843663
0.020835458
0.021363036
0.021696087
0.021955426
0.022215951
0.022562564
0.023161748
0.024428201
0.0060216852
0.0074864066
0.0078361939
0.0079944855
0.0080838967
0.0081499293
0.0082183707
0.0083225203
0.0085465132
0.0091668223
-0.0090916807
-0.0078980106
-0.0076348348
-0.0075223694
-0.0074469946
-0.0073712168
-0.0072621877
-0.0070519335
-0.0065379585
-0.0050191636
-0.020302652
-0.018117383
-0.017441993
-0.017069904
-0.016786323
-0.01649703
-0.016112507
-0.015475685
-0.014220839
-0.011399724
-0.010382549
-0.0098190868
-0.0093350691
-0.0089349561
-0.008574332
-0.0082010734
-0.007756233
-0.0071686027
-0.0063841852
-0.0055955053
-0.0047573792
-0.0044756189
-0.0041017091
-0.0037148818
-0.0033292678
-0.0029307531
-0.0024963346
-0.0020113383
-0.0015046291
-0.0011199337
0.00048110496
0.00070783386
0.0010539781
0.0014417165
0.0018381067
0.002238749
0.0026479115
0.0030589263
0.0034314552
0.0036731868
0.0054895858
0.0057667962
0.006163402
0.0065848951
0.0069963352
0.0073946999
0.007785125
0.0081623404
0.0084928787
0.0087025226
0.010221965
0.01070089
0.01124331
0.011733361
0.012162725
0.012553538
0.012930366
0.01330713
0.013669803
0.013939723
0.014478336
0.01556468
0.016370004
0.016936728
0.01736171
0.017720272
0.018069463
0.018459709
0.018933101
0.019447485
0.017652928
0.020702083
0.02172889
0.022275181
0.022620294
0.022889441
0.023160477
0.023522034
0.024148253
0.025473095
0.0062853585
0.0078041535
0.0081661019
0.00832994
0.0084225655
0.0084910944
0.0085623281
0.0086710412
0.0089052513
0.009554269
-0.0092819162
-0.0080591115
-0.0077899097
-0.0076748239
-0.0075975549
-0.0075197363
-0.0074076569
-0.0071914226
-0.0066627011
-0.0051000384
-0.020691029
-0.01845302
-0.017762198
-0.01738131
-0.017090542
-0.016793469
-0.016398245
-0.015743443
-0.014452956
-0.011551444
-0.010510468
-0.009934037
-0.0094387584
-0.0090288597
-0.0086589184
-0.0082755761
-0.0078183912
-0.0072142918
-0.0064079774
-0.0055980314
-0.0047355281
-0.0044469958
-0.0040638721
-0.0036671557
-0.0032713102
-0.0028618811
-0.0024153099
-0.0019166296
-0.0013956841
-0.0010004282
0.00064378125
0.00087641263
0.0012316218
0.0016296962
0.0020368964
0.0024487319
0.0028695653
0.0032924608
0.0036757975
0.0039244747
0.0057880929
0.0060729397
0.0064803895
0.0069134669
0.0073363898
0.0077461358
0.008148022
0.0085366019
0.0088773129
0.0090934862
0.010649736
0.011142207
0.011699763
0.012203491
0.012645014
0.01304722
0.01343548
0.013824194
0.014198862
0.014478011
0.015022889
0.016140323
0.016968178
0.017550737
0.017987804
0.018356969
0.018717095
0.019120351
0.019610387
0.020143505
0.018284148
0.021421224
0.022476146
0.023037485
0.023392348
0.023669498
0.023949232
0.024323316
0.024972386
0.026346762
0.0065065987
0.0080692614
0.00844094
0.0086092254
0.0087044439
0.0087750102
0.0088485594
0.0089611095
0.0092039716
0.0098773601
-0.0094113611
-0.008167378
-0.0078939054
-0.0077769525
-0.0076982967
-0.0076189504
-0.0075045612
-0.0072837771
-0.006743808
-0.0051476211
-0.020943613
-0.01866743
-0.017965687
-0.017578495
-0.017282451
-0.016979556
-0.016576242
-0.015907789
-0.0145902
-0.011627494
-0.010568921
-0.0099832833
-0.0094799869
-0.0090629923
-0.0086861669
-0.0082952676
-0.0078287565
-0.0072121805
-0.0063893007
-0.0055634437
-0.0046819929
-0.0043885798
-0.0039987572
-0.0035947598
-0.0031912887
-0.0027736443
-0.0023178676
-0.0018087972
-0.001277058
-0.00087385351
0.00080275791
0.0010397611
0.001401697
0.0018074857
0.0022228125
0.0026431254
0.0030728528
0.0035048369
0.0038964493
0.0041504293
0.0060488619
0.0063394651
0.0067550705
0.0071968755
0.0076284916
0.0080469158
0.008457611
0.0088549901
0.0092036243
0.0094248993
0.011007395
0.011510155
0.012079162
0.012593242
0.013044009
0.013454953
0.013852083
0.01425018
0.01463437
0.014920905
0.015468
0.01660913
0.017454042
0.018048586
0.018494852
0.018872182
0.019240865
0.019654469
0.020157911
0.020706241
0.018793803
0.021998037
0.023074098
0.023646774
0.024009042
0.024292366
0.024578951
0.024963091
0.025630722
0.027045549
0.0066844908
0.0082806777
0.0086596286
0.008831249
0.0089284316
0.009000569
0.0090759483
0.0091915918
0.0094415013
0.010134809
-0.0094800694
-0.0082229167
-0.0079469355
-0.0078288711
-0.0077493384
-0.0076689801
-0.0075530263
-0.007329132
-0.0067814377
-0.0051621409
-0.021060972
-0.018761271
-0.018053132
-0.017662141
-0.01736274
-0.017055992
-0.016647215
-0.015969468
-0.01463337
-0.011628794
-0.010559049
-0.0099679802
-0.0094599187
-0.0090385282
-0.0086572638
-0.0082613486
-0.0077885483
-0.0071635129
-0.0063294308
-0.0054930431
-0.0045982064
-0.0043018108
-0.0039078143
-0.0034991559
-0.0030906795
-0.0026675355
-0.00220552
-0.0016893751
-0.0011503066
-0.00074177984
0.00095637838
0.0011962148
0.0015625275
0.0019733944
0.0023941479
0.002820204
0.0032560281
0.0036942873
0.0040916241
0.0043492521
0.0062700749
0.006564543
0.0069856
0.0074332585
0.0078707595
0.0082951388
0.0087119686
0.009115558
0.0094698429
0.009694777
0.011293026
0.011802799
0.012379551
0.012900634
0.013357711
0.013774718
0.01417813
0.014583014
0.014974221
0.01526627
0.015811728
0.016969111
0.017825573
0.018428229
0.018880786
0.019263824
0.019638661
0.020059915
0.020573476
0.021133433
0.019180013
0.022430499
0.023520687
0.024100969
0.024468282
0.024755934
0.025047501
0.02543919
0.02612102
0.027567045
0.0068184267
0.0084377235
0.0088214776
0.0089953153
0.0090938288
0.0091670674
0.0092437849
0.0093617668
0.00961709
0.010325784
-0.009488457
-0.0082261456
-0.0079494135
-0.007830991
-0.0077510902
-0.0076702355
-0.0075534622
-0.0073278974
-0.0067760013
-0.0051440136
-0.021044442
-0.018735877
-0.018025855
-0.01763356
-0.017332719
-0.017024085
-0.016612471
-0.015929787
-0.014583772
-0.011556652
-0.010482301
-0.0098895689
-0.0093799841
-0.0089568911
-0.0085736292
-0.0081752378
-0.0076991846
-0.0070697064
-0.006229783
-0.0053882365
-0.004485648
-0.0041881632
-0.0037925117
-0.0033818082
-0.0029709445
-0.0025450161
-0.0020797288
-0.0015598259
-0.0010168925
-0.00060566776
0.0011031761
0.0013443093
0.0017126515
0.0021259626
0.0025494436
0.0029785078
0.0034176287
0.003859346
0.0042598526
0.0045194726
0.0064503188
0.0067467609
0.0071705669
0.0076212055
0.0080617826
0.0084893906
0.0089096755
0.009316879
0.0096745341
0.0099016791
0.011505313
0.01201882
0.012599612
0.013124352
0.013584802
0.01400519
0.01441229
0.014821354
0.015217053
0.015512733
0.016052888
0.01721908
0.018081587
0.018688481
0.019144423
0.019530705
0.019909282
0.020335468
0.020855832
0.021423797
0.019441758
0.022717584
0.023814893
0.024399054
0.024769051
0.02505918
0.025353851
0.025750559
0.026442179
0.027910044
0.0069080963
0.0085400839
0.0089261764
0.0091011148
0.0092003262
0.0092741949
0.0093517562
0.0094713144
0.0097303995
0.010449891
-0.0094372962
-0.0081777885
-0.0079020482
-0.0077840139
-0.0077042499
-0.0076234107
-0.0075065583
-0.0072807541
-0.0067281586
-0.0050938396
-0.020896124
-0.018593252
-0.017885818
-0.017494694
-0.017194312
-0.016885747
-0.016473905
-0.015790614
-0.014443222
-0.011412765
-0.010340453
-0.0097497908
-0.0092418941
-0.0088197688
-0.0084369324
-0.0080385871
-0.0075622982
-0.0069323685
-0.0060919291
-0.0052505544
-0.00434587
-0.0040491726
-0.0036543639
-0.0032442109
-0.0028335595
-0.0024075442
-0.0019419347
-0.0014215707
-0.00087821493
-0.00046689839
0.0012418385
0.0014827432
0.0018507852
0.0022639249
0.0026874518
0.0031168047
0.0035564374
0.0039988098
0.0043999442
0.0046599088
0.0065885442
0.0068850816
0.0073089519
0.0077597158
0.0082005767
0.0086287014
0.0090497734
0.0094580036
0.0098167546
0.010044665
0.011643491
0.012157476
0.012738624
0.013263695
0.013724598
0.0141457
0.0145539
0.014964539
0.01536221
0.015659632
0.016191013
0.017358613
0.018221695
0.018828982
0.019285415
0.019672489
0.020052396
0.020480798
0.021004638
0.021576975
0.019578848
0.02285922
0.023956696
0.024541034
0.024911369
0.025202133
0.025498031
0.025897225
0.026594208
0.028074505
0.0069534784
0.0085877973
0.008973783
0.0091487138
0.009247994
0.0093220235
0.0093999346
0.0095203049
0.0097814928
0.01050717
-0.0093277063
-0.0080788675
-0.0078058361
-0.0076889249
-0.0076097952
-0.0075294769
-0.0074132766
-0.0071886468
-0.0066388125
-0.0050123994
-0.020618866
-0.01833606
-0.017635618
-0.017248099
-0.016950052
-0.016643484
-0.01623399
-0.015554369
-0.014214035
-0.011199214
-0.010135609
-0.0095506946
-0.0090476472
-0.0086291206
-0.0082490994
-0.0078532903
-0.0073797452
-0.0067533057
-0.0059176083
-0.0050816627
-0.0041805169
-0.0038864556
-0.0034949509
-0.0030879079
-0.0026800343
-0.0022565965
-0.0017935783
-0.0012760104
-0.00073563296
-0.00032679679
0.0013711781
0.0016103501
0.0019757934
0.0023861803
0.0028071047
0.0032340594
0.0036714505
0.0041117062
0.0045109545
0.004769635
0.00668403
0.0069788079
0.0074000921
0.0078481622
0.008286548
0.008712508
0.0091317268
0.009538421
0.0098960138
0.010123258
0.011707312
0.012218557
0.012796427
0.013318542
0.013777013
0.014196189
0.014602926
0.015012557
0.01540969
0.015706977
0.016226314
0.01738801
0.018246269
0.018850147
0.019304214
0.019689651
0.020068501
0.020496416
0.021020419
0.021593502
0.019591886
0.022856257
0.023947041
0.0245279
0.024896255
0.025185829
0.025481092
0.025880249
0.026578178
0.028061515
0.0069548312
0.0085812443
0.0089647118
0.0091385414
0.0092372692
0.0093109951
0.0093887651
0.0095091861
0.0097708205
0.010498077
-0.0091611423
-0.0079306934
-0.0076620523
-0.0075469831
-0.0074689754
-0.0073896737
-0.0072748433
-0.0070527759
-0.0065091008
-0.0049006479
-0.020216241
-0.017967606
-0.017278465
-0.016896935
-0.016603059
-0.01630038
-0.015895764
-0.015224011
-0.013899014
-0.010918456
-0.0098702024
-0.009294637
-0.0087995317
-0.0083871799
-0.0080123167
-0.0076214865
-0.0071536096
-0.0065345293
-0.0057087335
-0.0048833701
-0.0039913394
-0.0037017242
-0.0033159337
-0.0029145091
-0.0025119296
-0.002093684
-0.0016361181
-0.0011245446
-0.00059048376
-0.00018665123
0.0014901084
0.0017260725
0.0020866637
0.0024917659
0.0029074888
0.0033294066
0.0037618507
0.0041972653
0.0045921565
0.0048479526
0.006736352
0.0070275501
0.0074436476
0.0078862571
0.0083194591
0.0087406191
0.0091553879
0.0095580236
0.0099122375
0.010137402
0.011697007
0.012202354
0.012773376
0.013289311
0.013742515
0.01415717
0.01455992
0.014965995
0.015360115
0.015655408
0.016159646
0.01730826
0.018156395
0.018753136
0.01920203
0.019583442
0.019958879
0.020383637
0.020904524
0.021474757
0.01948224
0.022710431
0.023787795
0.024361591
0.024725688
0.025012278
0.025305067
0.025701691
0.026396187
0.027873241
0.0069126812
0.0085211341
0.0088997202
0.0090713764
0.0091689418
0.0092419072
0.0093190516
0.0094387694
0.0096992073
0.010423472
-0.0089393819
-0.0077348543
-0.007472239
-0.0073597112
-0.0072833
-0.0072054982
-0.007092738
-0.0068745871
-0.0063403875
-0.0047597081
-0.019692528