/*--------------------------------*- C++ -*----------------------------------*\
| =========                 |                                                 |
| \\      /  F ield         | OpenFOAM: The Open Source CFD Toolbox           |
|  \\    /   O peration     | Version:  v2106                                 |
|   \\  /    A nd           | Website:  www.openfoam.com                      |
|    \\/     M anipulation  |                                                 |
\*---------------------------------------------------------------------------*/
FoamFile
{
    version     2.0;
    format      ascii;
    arch        "LSB;label=32;scalar=64";
    class       volScalarField;
    location    "67.5";
    object      laplacianT;
}
// * * * * * * * * * * * * * * * * * * * * * * * * * * * * * * * * * * * * * //

dimensions      [0 -2 0 1 0 0 0];

internalField   nonuniform List<scalar> 
4000
(
40959.698
40959.728
40959.615
40959.561
40959.536
40959.536
40959.557
40959.597
40959.648
40959.694
40959.728
40959.738
40959.633
40959.581
40959.557
40959.558
40959.581
40959.623
40959.68
40959.726
40959.615
40959.633
40959.531
40959.482
40959.46
40959.462
40959.487
40959.533
40959.594
40959.645
40959.561
40959.581
40959.482
40959.434
40959.414
40959.418
40959.445
40959.493
40959.557
40959.61
40959.536
40959.557
40959.46
40959.414
40959.395
40959.402
40959.431
40959.48
40959.546
40959.601
40959.536
40959.558
40959.462
40959.418
40959.402
40959.41
40959.441
40959.492
40959.559
40959.615
40959.557
40959.581
40959.487
40959.445
40959.431
40959.441
40959.473
40959.526
40959.595
40959.651
40959.597
40959.623
40959.533
40959.493
40959.48
40959.492
40959.526
40959.58
40959.65
40959.707
40959.648
40959.68
40959.594
40959.557
40959.546
40959.559
40959.595
40959.65
40959.721
40959.78
40959.694
40959.726
40959.645
40959.61
40959.601
40959.615
40959.651
40959.707
40959.78
40959.84
-542.15992
-541.34039
-541.44503
-541.44556
-541.44456
-541.44453
-541.44543
-541.44715
-541.44947
-541.48272
-541.34039
-540.73624
-540.8226
-540.82218
-540.82117
-540.82122
-540.82229
-540.82426
-540.82702
-541.0265
-541.44503
-540.8226
-540.90716
-540.90678
-540.90585
-540.90597
-540.90711
-540.9092
-540.91215
-541.10026
-541.44556
-540.82218
-540.90678
-540.90648
-540.90563
-540.90584
-540.90707
-540.90927
-540.91234
-541.10091
-541.44456
-540.82117
-540.90585
-540.90563
-540.90486
-540.90515
-540.90647
-540.90875
-540.91192
-541.10059
-541.44453
-540.82122
-540.90597
-540.90584
-540.90515
-540.90552
-540.90692
-540.90928
-540.91251
-541.10123
-541.44543
-540.82229
-540.90711
-540.90707
-540.90647
-540.90692
-540.90839
-540.91082
-540.91411
-541.10285
-541.44715
-540.82426
-540.9092
-540.90927
-540.90875
-540.90928
-540.91082
-540.91332
-540.91667
-541.10543
-541.44947
-540.82702
-540.91215
-540.91234
-540.91192
-540.91251
-540.91411
-540.91667
-540.92009
-541.10888
-541.48272
-541.0265
-541.10026
-541.10091
-541.10059
-541.10123
-541.10285
-541.10543
-541.10888
-541.30464
-529.32138
-528.10011
-528.27209
-528.27407
-528.27292
-528.27297
-528.27423
-528.27658
-528.27982
-528.48891
-528.10011
-527.21235
-527.35316
-527.35349
-527.35231
-527.35249
-527.35399
-527.35672
-527.3606
-527.879
-528.27209
-527.35316
-527.49077
-527.49109
-527.49002
-527.49028
-527.49187
-527.49474
-527.49886
-527.99075
-528.27407
-527.35349
-527.49109
-527.49152
-527.49055
-527.49092
-527.49263
-527.49564
-527.49993
-527.99237
-528.27292
-527.35231
-527.49002
-527.49055
-527.48969
-527.49016
-527.49199
-527.49512
-527.49951
-527.99212
-528.27297
-527.35249
-527.49028
-527.49092
-527.49016
-527.49074
-527.49267
-527.4959
-527.50038
-527.99304
-528.27423
-527.35399
-527.49187
-527.49263
-527.49199
-527.49267
-527.4947
-527.49802
-527.50258
-527.99524
-528.27658
-527.35672
-527.49474
-527.49564
-527.49512
-527.4959
-527.49802
-527.50143
-527.50607
-527.9987
-528.27982
-527.3606
-527.49886
-527.49993
-527.49951
-527.50038
-527.50258
-527.50607
-527.51083
-528.00344
-528.48891
-527.879
-527.99075
-527.99237
-527.99212
-527.99304
-527.99524
-527.9987
-528.00344
-528.57085
-516.96431
-515.35846
-515.59286
-515.59616
-515.59492
-515.59509
-515.59673
-515.59972
-515.60386
-515.97458
-515.35846
-514.19474
-514.38642
-514.38746
-514.38618
-514.38652
-514.38848
-514.39198
-514.39696
-515.21934
-515.59286
-514.38642
-514.57367
-514.57467
-514.57351
-514.57396
-514.57603
-514.57969
-514.58496
-515.36546
-515.59616
-514.38746
-514.57467
-514.57579
-514.57476
-514.57534
-514.57755
-514.58139
-514.58685
-515.36794
-515.59492
-514.38618
-514.57351
-514.57476
-514.57386
-514.57457
-514.57692
-514.5809
-514.5865
-515.36779
-515.59509
-514.38652
-514.57396
-514.57534
-514.57457
-514.5754
-514.57788
-514.58198
-514.58768
-515.36904
-515.59673
-514.38848
-514.57603
-514.57755
-514.57692
-514.57788
-514.58048
-514.58469
-514.59049
-515.37183
-515.59972
-514.39198
-514.57969
-514.58139
-514.5809
-514.58198
-514.58469
-514.58902
-514.59493
-515.37618
-515.60386
-514.39696
-514.58496
-514.58685
-514.5865
-514.58768
-514.59049
-514.59493
-514.60098
-515.38216
-515.97458
-515.21934
-515.36546
-515.36794
-515.36779
-515.36904
-515.37183
-515.37618
-515.38216
-516.30042
-505.05972
-503.08165
-503.37616
-503.38077
-503.37947
-503.37979
-503.38182
-503.38544
-503.39044
-503.91826
-503.08165
-501.65108
-501.89183
-501.89359
-501.89226
-501.8928
-501.89523
-501.89949
-501.90551
-503.02297
-503.37616
-501.89183
-502.12698
-502.12867
-502.12747
-502.12813
-502.13069
-502.13514
-502.14149
-503.20203
-503.38077
-501.89359
-502.12867
-502.13051
-502.12946
-502.13026
-502.13299
-502.13764
-502.14423
-503.20536
-503.37947
-501.89226
-502.12747
-502.12946
-502.12856
-502.12951
-502.1324
-502.13722
-502.14396
-503.20534
-503.37979
-501.8928
-502.12813
-502.13026
-502.12951
-502.13062
-502.13366
-502.13862
-502.14548
-503.20693
-503.38182
-501.89523
-502.13069
-502.13299
-502.1324
-502.13366
-502.13684
-502.14193
-502.14891
-503.21031
-503.38544
-501.89949
-502.13514
-502.13764
-502.13722
-502.13862
-502.14193
-502.14715
-502.15426
-503.21553
-503.39044
-501.90551
-502.14149
-502.14423
-502.14396
-502.14548
-502.14891
-502.15426
-502.16155
-503.22268
-503.91826
-503.02297
-503.20203
-503.20536
-503.20534
-503.20693
-503.21031
-503.21553
-503.22268
-504.47989
-493.59623
-491.26228
-491.61456
-491.62046
-491.61914
-491.61963
-491.62205
-491.62628
-491.63208
-492.31192
-491.26228
-489.57697
-489.8649
-489.86739
-489.86603
-489.86679
-489.8697
-489.87469
-489.88169
-491.28375
-491.61456
-489.8649
-490.14607
-490.14847
-490.14726
-490.14814
-490.15119
-490.15639
-490.16377
-491.49435
-491.62046
-489.86739
-490.14847
-490.15102
-490.14998
-490.15103
-490.15427
-490.1597
-490.16735
-491.49854
-491.61914
-489.86603
-490.14726
-490.14998
-490.14911
-490.15033
-490.15375
-490.15937
-490.1672
-491.49866
-491.61963
-489.86679
-490.14814
-490.15103
-490.15033
-490.15173
-490.15532
-490.1611
-490.16906
-491.50059
-491.62205
-489.8697
-490.15119
-490.15427
-490.15375
-490.15532
-490.15907
-490.165
-490.1731
-491.50454
-491.62628
-489.87469
-490.15639
-490.1597
-490.15937
-490.1611
-490.165
-490.17109
-490.17934
-491.51059
-491.63208
-489.88169
-490.16377
-490.16735
-490.1672
-490.16906
-490.1731
-490.17934
-490.1878
-491.51884
-492.31192
-491.28375
-491.49435
-491.49854
-491.49866
-491.50059
-491.50454
-491.51059
-491.51884
-493.10316
-482.56803
-479.89686
-480.30424
-480.3114
-480.31009
-480.31074
-480.31354
-480.31836
-480.32492
-481.15068
-479.89686
-477.97054
-478.30345
-478.30666
-478.30531
-478.30629
-478.30966
-478.31535
-478.32329
-479.9977
-480.30424
-478.30345
-478.6285
-478.63159
-478.6304
-478.63152
-478.63504
-478.64095
-478.64931
-480.2383
-480.3114
-478.30666
-478.63159
-478.63486
-478.63385
-478.63516
-478.63889
-478.64506
-478.65371
-480.24331
-480.31009
-478.30531
-478.6304
-478.63385
-478.63303
-478.63453
-478.63846
-478.64484
-478.65369
-480.24359
-480.31074
-478.30629
-478.63152
-478.63516
-478.63453
-478.63621
-478.64033
-478.6469
-478.6559
-480.24585
-480.31354
-478.30966
-478.63504
-478.63889
-478.63846
-478.64033
-478.64464
-478.65137
-478.66052
-480.25036
-480.31836
-478.31535
-478.64095
-478.64506
-478.64484
-478.6469
-478.65137
-478.65827
-478.6676
-480.25719
-480.32492
-478.32329
-478.64931
-478.65371
-478.65369
-478.6559
-478.66052
-478.6676
-478.67715
-480.26646
-481.15068
-479.9977
-480.2383
-480.24331
-480.24359
-480.24585
-480.25036
-480.25719
-480.26646
-482.1642
-471.96937
-468.98162
-469.44109
-469.44949
-469.44819
-469.44901
-469.45218
-469.45755
-469.46482
-470.42955
-468.98162
-466.82941
-467.20484
-467.20877
-467.20744
-467.20864
-467.21245
-467.2188
-467.22762
-469.16053
-469.44109
-467.20484
-467.57135
-467.57513
-467.57397
-467.57532
-467.57929
-467.58589
-467.59515
-469.42939
-469.44949
-467.20877
-467.57513
-467.57911
-467.57815
-467.5797
-467.58391
-467.59078
-467.60036
-469.4352
-469.44819
-467.20744
-467.57397
-467.57815
-467.57739
-467.57915
-467.58358
-467.59068
-467.60048
-469.43564
-469.44901
-467.20864
-467.57532
-467.5797
-467.57915
-467.58112
-467.58575
-467.59305
-467.60302
-469.43823
-469.45218
-467.21245
-467.57929
-467.58391
-467.58358
-467.58575
-467.59058
-467.59806
-467.60819
-469.44325
-469.45755
-467.2188
-467.58589
-467.59078
-467.59068
-467.59305
-467.59806
-467.60574
-467.61606
-469.45081
-469.46482
-467.22762
-467.59515
-467.60036
-467.60048
-467.60302
-467.60819
-467.61606
-467.62664
-469.46104
-470.42955
-469.16053
-469.42939
-469.4352
-469.43564
-469.43823
-469.44325
-469.45081
-469.46104
-471.65662
-461.79419
-458.51228
-459.02053
-459.03011
-459.02884
-459.02984
-459.03335
-459.03922
-459.04715
-460.14309
-458.51228
-456.15056
-456.56578
-456.57042
-456.56913
-456.57055
-456.57478
-456.58174
-456.59136
-458.76744
-459.02053
-456.56578
-456.97109
-456.97555
-456.97444
-456.97601
-456.98041
-456.98763
-456.99773
-459.06264
-459.03011
-456.57042
-456.97555
-456.98021
-456.97931
-456.98111
-456.98576
-456.99328
-457.00372
-459.06922
-459.02884
-456.56913
-456.97444
-456.97931
-456.97863
-456.98065
-456.98554
-456.99331
-457.00398
-459.06983
-459.02984
-456.57055
-456.97601
-456.98111
-456.98065
-456.98289
-456.988
-456.99598
-457.00684
-459.07273
-459.03335
-456.57478
-456.98041
-456.98576
-456.98554
-456.988
-456.99332
-457.0015
-457.01254
-459.07824
-459.03922
-456.58174
-456.98763
-456.99328
-456.99331
-456.99598
-457.0015
-457.00989
-457.02113
-459.08647
-459.04715
-456.59136
-456.99773
-457.00372
-457.00398
-457.00684
-457.01254
-457.02113
-457.03265
-459.09756
-460.14309
-458.76744
-459.06264
-459.06922
-459.06983
-459.07273
-459.07824
-459.08647
-459.09756
-461.57371
-452.03599
-448.48398
-449.03738
-449.0481
-449.04687
-449.04804
-449.05187
-449.05821
-449.06673
-450.28536
-448.48398
-445.93024
-446.3823
-446.38762
-446.38638
-446.38801
-446.39263
-446.40016
-446.4105
-448.81305
-449.03738
-446.3823
-446.82351
-446.82862
-446.82757
-446.82937
-446.83416
-446.84195
-446.85281
-449.13254
-449.0481
-446.38762
-446.82862
-446.83395
-446.83312
-446.83515
-446.84021
-446.84833
-446.85955
-449.13985
-449.04687
-446.38638
-446.82757
-446.83312
-446.83253
-446.83479
-446.84011
-446.84848
-446.85995
-449.14062
-449.04804
-446.38801
-446.82937
-446.83515
-446.83479
-446.8373
-446.84285
-446.85145
-446.86311
-449.1438
-449.05187
-446.39263
-446.83416
-446.84021
-446.84011
-446.84285
-446.84862
-446.85744
-446.86929
-449.14976
-449.05821
-446.40016
-446.84195
-446.84833
-446.84848
-446.85145
-446.85744
-446.86648
-446.87855
-449.1586
-449.06673
-446.4105
-446.85281
-446.85955
-446.85995
-446.86311
-446.86929
-446.87855
-446.89093
-449.17048
-450.28536
-448.81305
-449.13254
-449.13985
-449.14062
-449.1438
-449.14976
-449.1586
-449.17048
-451.90832
-442.68781
-438.89118
-439.48588
-439.49765
-439.49649
-439.49782
-439.50194
-439.5087
-439.51774
-440.84989
-438.89118
-436.16391
-436.64965
-436.65562
-436.65444
-436.65628
-436.66126
-436.66929
-436.68029
-439.29138
-439.48588
-436.64965
-437.12367
-437.1294
-437.12842
-437.13043
-437.13558
-437.14389
-437.15543
-439.63295
-439.49765
-436.65562
-437.1294
-437.13536
-437.13461
-437.13686
-437.1423
-437.15095
-437.16287
-439.64094
-439.49649
-436.65444
-437.12842
-437.13461
-437.13411
-437.13661
-437.14232
-437.15124
-437.16342
-439.64187
-439.49782
-436.65628
-437.13043
-437.13686
-437.13661
-437.13936
-437.14531
-437.15448
-437.16686
-439.64532
-439.50194
-436.66126
-437.13558
-437.1423
-437.14232
-437.14531
-437.1515
-437.16089
-437.17348
-439.65167
-439.5087
-436.66929
-437.14389
-437.15095
-437.15124
-437.15448
-437.16089
-437.17052
-437.18334
-439.66106
-439.51774
-436.68029
-437.15543
-437.16287
-437.16342
-437.16686
-437.17348
-437.18334
-437.19647
-439.67364
-440.84989
-439.29138
-439.63295
-439.64094
-439.64187
-439.64532
-439.65167
-439.66106
-439.67364
-442.65285
-433.7422
-429.72768
-430.35957
-430.37234
-430.37124
-430.37272
-430.37711
-430.38424
-430.39375
-431.82962
-429.72768
-426.84624
-427.3623
-427.36888
-427.36778
-427.36981
-427.37511
-427.38359
-427.39517
-430.19577
-430.35957
-427.3623
-427.86584
-427.87217
-427.87127
-427.87346
-427.87895
-427.88772
-427.89985
-430.55709
-430.37234
-427.36888
-427.87217
-427.87872
-427.87806
-427.88052
-427.88629
-427.89542
-427.90794
-430.56572
-430.37124
-427.36778
-427.87127
-427.87806
-427.87766
-427.88037
-427.88643
-427.89584
-427.90864
-430.56679
-430.37272
-427.36981
-427.87346
-427.88052
-427.88037
-427.88335
-427.88966
-427.89932
-427.91234
-430.57049
-430.37711
-427.37511
-427.87895
-427.88629
-427.88643
-427.88966
-427.89622
-427.90612
-427.91934
-430.5772
-430.38424
-427.38359
-427.88772
-427.89542
-427.89584
-427.89932
-427.90612
-427.91626
-427.92973
-430.58706
-430.39375
-427.39517
-427.89985
-427.90794
-427.90864
-427.91234
-427.91934
-427.92973
-427.94353
-430.60024
-431.82962
-430.19577
-430.55709
-430.56572
-430.56679
-430.57049
-430.5772
-430.58706
-430.60024
-433.79923
-425.19121
-420.98658
-421.65136
-421.66504
-421.66401
-421.66564
-421.67026
-421.67771
-421.68762
-423.21688
-420.98658
-417.97104
-418.5139
-418.52105
-418.52003
-418.52224
-418.52783
-418.5367
-418.54877
-421.5189
-421.65136
-418.5139
-419.04353
-419.0504
-419.04958
-419.05196
-419.05774
-419.0669
-419.07954
-421.89753
-421.66504
-418.52105
-419.0504
-419.0575
-419.05694
-419.05958
-419.06566
-419.07519
-419.08824
-421.90674
-421.66401
-418.52003
-419.04958
-419.05694
-419.05664
-419.05955
-419.06591
-419.07574
-419.08907
-421.90796
-421.66564
-418.52224
-419.05196
-419.05958
-419.05955
-419.06274
-419.06936
-419.07945
-419.093
-421.91187
-421.67026
-418.52783
-419.05774
-419.06566
-419.06591
-419.06936
-419.07625
-419.08658
-419.10035
-421.91889
-421.67771
-418.5367
-419.0669
-419.07519
-419.07574
-419.07945
-419.08658
-419.09717
-419.11119
-421.92916
-421.68762
-418.54877
-419.07954
-419.08824
-419.08907
-419.093
-419.10035
-419.11119
-419.12557
-421.94286
-423.21688
-421.5189
-421.89753
-421.90674
-421.90796
-421.91187
-421.91889
-421.92916
-421.94286
-425.33889
-417.02633
-412.66025
-413.35345
-413.36794
-413.367
-413.36875
-413.37358
-413.38129
-413.39153
-415.00341
-412.66025
-409.53125
-410.09725
-410.10493
-410.104
-410.10637
-410.1122
-410.12141
-410.13389
-413.25277
-413.35345
-410.09725
-410.64939
-410.65677
-410.65604
-410.65859
-410.66461
-410.67411
-410.68717
-413.64618
-413.36794
-410.10493
-410.65677
-410.66438
-410.66392
-410.66673
-410.67306
-410.68294
-410.69642
-413.65592
-413.367
-410.104
-410.65604
-410.66392
-410.66372
-410.66681
-410.67343
-410.68361
-410.69738
-413.65727
-413.36875
-410.10637
-410.65859
-410.66673
-410.66681
-410.67018
-410.67708
-410.68752
-410.70152
-413.66136
-413.37358
-410.1122
-410.66461
-410.67306
-410.67343
-410.67708
-410.68424
-410.69494
-410.70916
-413.66865
-413.38129
-410.12141
-410.67411
-410.68294
-410.68361
-410.68752
-410.69494
-410.70589
-410.72038
-413.67925
-413.39153
-410.13389
-410.68717
-410.69642
-410.69738
-410.70152
-410.70916
-410.72038
-410.73523
-413.69337
-415.00341
-413.25277
-413.64618
-413.65592
-413.65727
-413.66136
-413.66865
-413.67925
-413.69337
-417.26274
-409.23854
-404.74031
-405.45732
-405.47254
-405.47168
-405.47356
-405.47855
-405.48649
-405.49698
-407.18031
-404.74031
-401.51894
-402.10431
-402.11248
-402.11164
-402.11415
-402.1202
-402.12967
-402.14248
-405.38865
-405.45732
-402.10431
-402.6753
-402.68313
-402.6825
-402.68519
-402.69142
-402.70119
-402.71458
-405.79425
-405.47254
-402.11248
-402.68313
-402.6912
-402.69083
-402.6938
-402.70035
-402.7105
-402.72432
-405.80444
-405.47168
-402.11164
-402.6825
-402.69083
-402.69074
-402.69399
-402.70083
-402.71129
-402.72541
-405.80592
-405.47356
-402.11415
-402.68519
-402.6938
-402.69399
-402.69752
-402.70464
-402.71537
-402.72972
-405.81018
-405.47855
-402.1202
-402.69142
-402.70035
-402.70083
-402.70464
-402.71203
-402.72302
-402.7376
-405.81767
-405.48649
-402.12967
-402.70119
-402.7105
-402.71129
-402.71537
-402.72302
-402.73428
-402.74912
-405.82854
-405.49698
-402.14248
-402.71458
-402.72432
-402.72541
-402.72972
-402.7376
-402.74912
-402.76434
-405.84298
-407.18031
-405.38865
-405.79425
-405.80444
-405.80592
-405.81018
-405.81767
-405.82854
-405.84298
-409.56121
-401.81829
-397.2177
-397.95379
-397.96964
-397.96887
-397.97085
-397.97598
-397.98408
-397.99476
-399.73808
-397.2177
-393.92533
-394.52622
-394.53481
-394.53407
-394.53671
-394.54293
-394.5526
-394.56565
-397.91714
-397.95379
-394.52622
-395.11228
-395.12052
-395.11998
-395.1228
-395.1292
-395.13917
-395.15281
-398.33229
-397.96964
-394.53481
-395.12052
-395.12899
-395.12873
-395.13182
-395.13854
-395.1489
-395.16297
-398.34287
-397.96887
-394.53407
-395.11998
-395.12873
-395.12873
-395.13212
-395.13913
-395.1498
-395.16417
-398.34446
-397.97085
-394.53671
-395.1228
-395.13182
-395.13212
-395.13578
-395.14308
-395.15403
-395.16863
-398.34885
-397.97598
-394.54293
-395.1292
-395.13854
-395.13913
-395.14308
-395.15066
-395.16186
-395.1767
-398.35651
-397.98408
-394.5526
-395.13917
-395.1489
-395.14981
-395.15403
-395.16186
-395.17334
-395.18845
-398.36757
-397.99476
-394.56565
-395.15281
-395.16297
-395.16417
-395.16863
-395.1767
-395.18845
-395.20394
-398.38223
-399.73808
-397.91714
-398.33229
-398.34287
-398.34446
-398.34885
-398.35651
-398.36757
-398.38223
-402.22422
-394.75551
-390.08259
-390.83297
-390.84935
-390.84867
-390.85075
-390.85598
-390.86419
-390.87499
-392.6666
-390.08259
-386.74077
-387.35326
-387.36222
-387.36158
-387.36434
-387.37067
-387.38049
-387.3937
-390.82818
-390.83297
-387.35326
-387.95057
-387.95916
-387.95872
-387.96165
-387.96817
-387.97828
-387.99207
-391.25017
-390.84935
-387.36222
-387.95916
-387.96798
-387.96782
-387.97102
-387.97786
-387.98836
-388.00259
-391.26108
-390.84867
-387.36158
-387.95872
-387.96782
-387.96793
-387.97142
-387.97856
-387.98938
-388.0039
-391.26277
-390.85075
-387.36434
-387.96165
-387.97102
-387.97142
-387.9752
-387.98263
-387.99372
-388.00848
-391.26727
-390.85598
-387.37067
-387.96817
-387.97786
-387.97856
-387.98263
-387.99033
-388.00168
-388.01668
-391.27503
-390.86419
-387.38049
-387.97828
-387.98836
-387.98938
-387.99372
-388.00168
-388.01331
-388.02858
-391.28621
-390.87499
-387.3937
-387.99207
-388.00259
-388.0039
-388.00848
-388.01668
-388.02858
-388.04424
-391.30101
-392.6666
-390.82818
-391.25017
-391.26108
-391.26277
-391.26727
-391.27503
-391.28621
-391.30101
-395.24116
-388.0396
-383.32449
-384.08432
-384.10112
-384.10054
-384.10269
-384.10799
-384.11625
-384.12711
-385.95518
-383.32449
-379.95478
-380.57492
-380.58418
-380.58365
-380.5865
-380.59292
-380.60281
-380.61609
-384.11101
-384.08432
-380.57492
-381.17962
-381.1885
-381.18817
-381.19118
-381.19778
-381.20797
-381.22183
-384.53714
-384.10112
-380.58418
-381.1885
-381.19762
-381.19755
-381.20085
-381.20777
-381.21834
-381.23264
-384.5483
-384.10054
-380.58365
-381.18817
-381.19755
-381.19776
-381.20134
-381.20857
-381.21945
-381.23404
-384.55009
-384.10269
-380.5865
-381.19118
-381.20085
-381.20134
-381.20521
-381.21272
-381.22388
-381.23871
-384.55465
-384.10799
-380.59292
-381.19778
-381.20777
-381.20857
-381.21272
-381.2205
-381.23193
-381.24699
-384.56247
-384.11625
-380.60281
-381.20797
-381.21834
-381.21945
-381.22388
-381.23193
-381.24363
-381.25897
-384.57371
-384.12711
-380.61609
-381.22183
-381.23264
-381.23404
-381.23871
-381.24699
-381.25897
-381.27469
-384.58854
-385.95518
-384.11101
-384.53714
-384.5483
-384.55009
-384.55465
-384.56247
-384.57371
-384.58854
-388.60101
-381.6595
-376.93222
-377.69665
-377.71375
-377.71327
-377.71549
-377.72082
-377.72909
-377.73993
-379.59255
-376.93222
-373.55606
-374.17989
-374.1894
-374.18897
-374.19189
-374.19836
-374.20827
-374.22153
-377.75425
-377.69665
-374.17989
-374.78812
-374.79723
-374.797
-374.80009
-374.80673
-374.81692
-374.83076
-378.18182
-377.71375
-374.1894
-374.79723
-374.80658
-374.80661
-374.80998
-374.81693
-374.82751
-374.84179
-378.19316
-377.71327
-374.18897
-374.797
-374.80661
-374.80692
-374.81056
-374.81782
-374.82872
-374.84328
-378.19502
-377.71549
-374.19189
-374.80009
-374.80998
-374.81056
-374.81449
-374.82203
-374.8332
-374.848
-378.19962
-377.72082
-374.19836
-374.80673
-374.81693
-374.81782
-374.82203
-374.82985
-374.84128
-374.85631
-378.20746
-377.72909
-374.20827
-374.81692
-374.82751
-374.82872
-374.8332
-374.84128
-374.85298
-374.86829
-378.21867
-377.73993
-374.22153
-374.83076
-374.84179
-374.84328
-374.848
-374.85631
-374.86829
-374.88399
-378.23345
-379.59255
-377.75425
-378.18182
-378.19316
-378.19502
-378.19962
-378.20746
-378.21867
-378.23345
-382.29224
-375.60368
-370.89396
-371.65815
-371.67544
-371.67507
-371.67733
-371.68266
-371.69089
-371.70164
-373.56691
-370.89396
-367.53256
-368.15612
-368.16582
-368.1655
-368.16847
-368.17494
-368.1848
-368.19797
-371.74593
-371.65815
-368.15612
-368.76404
-368.77333
-368.77319
-368.77633
-368.78296
-368.79311
-368.80684
-372.17223
-371.67544
-368.16582
-368.77333
-368.78284
-368.78297
-368.78637
-368.79332
-368.80385
-368.81801
-372.18367
-371.67507
-368.1655
-368.77319
-368.78297
-368.78337
-368.78705
-368.7943
-368.80513
-368.81958
-372.1856
-371.67733
-368.16847
-368.77633
-368.78637
-368.78705
-368.79102
-368.79854
-368.80964
-368.82433
-372.19022
-371.68266
-368.17494
-368.78296
-368.79332
-368.7943
-368.79854
-368.80634
-368.8177
-368.83261
-372.19802
-371.69089
-368.1848
-368.79311
-368.80385
-368.80513
-368.80964
-368.8177
-368.82933
-368.84452
-372.20914
-371.70164
-368.19797
-368.80684
-368.81801
-368.81958
-368.82433
-368.83261
-368.84452
-368.86009
-372.22378
-373.56691
-371.74593
-372.17223
-372.18367
-372.1856
-372.19022
-372.19802
-372.20914
-372.22378
-376.30294
-369.86018
-365.19728
-365.95644
-365.97381
-365.97354
-365.97583
-365.98113
-365.98926
-365.99987
-367.86597
-365.19728
-361.87147
-362.49087
-362.50068
-362.50047
-362.50347
-362.5099
-362.51966
-362.53266
-366.07348
-365.95644
-362.49087
-363.09466
-363.10406
-363.10403
-363.10718
-363.11378
-363.1238
-363.13736
-366.49586
-365.97381
-362.50068
-363.10406
-363.11368
-363.1139
-363.11732
-363.12422
-363.13462
-363.14859
-366.50733
-365.97354
-362.50047
-363.10403
-363.1139
-363.11438
-363.11808
-363.12527
-363.13598
-363.15023
-366.5093
-365.97583
-362.50347
-363.10718
-363.11732
-363.11808
-363.12206
-363.12952
-363.14049
-363.15497
-366.51391
-365.98113
-362.5099
-363.11378
-363.12422
-363.12527
-363.12952
-363.13725
-363.14848
-363.16318
-366.52162
-365.98926
-362.51966
-363.1238
-363.13462
-363.13598
-363.14049
-363.14848
-363.15996
-363.17494
-366.53259
-365.99987
-362.53266
-363.13736
-363.14859
-363.15023
-363.15497
-363.16318
-363.17494
-363.1903
-366.547
-367.86597
-366.07348
-366.49586
-366.50733
-366.5093
-366.51391
-366.52162
-366.53259
-366.547
-370.62079
-364.41666
-359.82919
-360.5786
-360.59595
-360.59577
-360.59808
-360.60332
-360.61131
-360.6217
-362.47695
-359.82919
-356.55933
-357.17071
-357.18057
-357.18046
-357.18348
-357.18984
-357.19943
-357.21218
-360.72384
-360.5786
-357.17071
-357.76663
-357.77607
-357.77614
-357.7793
-357.78581
-357.79566
-357.80895
-361.13967
-360.59595
-357.18057
-357.77607
-357.78573
-357.78604
-357.78947
-357.79627
-357.80649
-357.82018
-361.15109
-360.59577
-357.18046
-357.77614
-357.78604
-357.78661
-357.7903
-357.79739
-357.8079
-357.82187
-361.1531
-360.59808
-357.18348
-357.7793
-357.78947
-357.7903
-357.79426
-357.80162
-357.81239
-357.82658
-361.15767
-360.60332
-357.18984
-357.78581
-357.79627
-357.79739
-357.80162
-357.80924
-357.82026
-357.83467
-361.16525
-360.61131
-357.19943
-357.79566
-357.80649
-357.8079
-357.81239
-357.82026
-357.83153
-357.84621
-361.17599
-360.6217
-357.21218
-357.80895
-357.82018
-357.82187
-357.82658
-357.83467
-357.84621
-357.86126
-361.19009
-362.47695
-360.72384
-361.13967
-361.15109
-361.1531
-361.15767
-361.16525
-361.17599
-361.19009
-365.23312
-359.26041
-354.77618
-355.51124
-355.52844
-355.52836
-355.53067
-355.53581
-355.54361
-355.55374
-357.38668
-354.77618
-351.582
-352.18162
-352.19146
-352.19145
-352.19446
-352.20071
-352.21008
-352.22251
-355.68343
-355.51124
-352.18162
-352.76601
-352.77543
-352.77558
-352.77874
-352.78512
-352.79474
-352.80769
-356.09017
-355.52844
-352.19146
-352.77543
-352.78506
-352.78545
-352.78885
-352.79553
-352.8055
-352.81884
-356.10147
-355.52836
-352.19145
-352.77558
-352.78545
-352.78609
-352.78976
-352.79671
-352.80697
-352.82057
-356.10351
-355.53067
-352.19446
-352.77874
-352.78885
-352.78976
-352.79368
-352.80089
-352.8114
-352.82522
-356.108
-355.53581
-352.20071
-352.78512
-352.79553
-352.79671
-352.80089
-352.80835
-352.8191
-352.83313
-356.1154
-355.54361
-352.21008
-352.79474
-352.8055
-352.80697
-352.8114
-352.8191
-352.8301
-352.8444
-356.12587
-355.55374
-352.22251
-352.80769
-352.81884
-352.82057
-352.82522
-352.83313
-352.8444
-352.85905
-356.13957
-357.38668
-355.68343
-356.09017
-356.10147
-356.10351
-356.108
-356.1154
-356.12587
-356.13957
-360.12695
-354.37841
-350.02428
-350.74051
-350.75745
-350.75746
-350.75976
-350.76477
-350.77234
-350.78214
-352.58159
-350.02428
-346.92481
-347.509
-347.51876
-347.51885
-347.52184
-347.52793
-347.53703
-347.54906
-350.93828
-350.74051
-347.509
-348.0783
-348.08764
-348.08788
-348.091
-348.09723
-348.10656
-348.11909
-351.33345
-350.75745
-347.51876
-348.08764
-348.09718
-348.09765
-348.10101
-348.10752
-348.11719
-348.13009
-351.34456
-350.75746
-347.51885
-348.08788
-348.09765
-348.09836
-348.10197
-348.10874
-348.11869
-348.13185
-351.3466
-350.75976
-347.52184
-348.091
-348.10101
-348.10197
-348.10583
-348.11285
-348.12304
-348.13641
-351.35099
-350.76477
-347.52793
-348.09723
-348.10752
-348.10874
-348.11285
-348.12011
-348.13053
-348.14411
-351.35818
-350.77234
-347.53703
-348.10656
-348.11719
-348.11869
-348.12304
-348.13053
-348.14119
-348.15502
-351.3683
-350.78214
-347.54906
-348.11909
-348.13009
-348.13185
-348.13641
-348.14411
-348.15502
-348.1692
-351.38153
-352.58159
-350.93828
-351.33345
-351.34456
-351.3466
-351.35099
-351.35818
-351.3683
-351.38153
-355.28902
-349.75738
-345.55908
-346.25215
-346.26872
-346.26883
-346.2711
-346.27595
-346.28324
-346.29266
-348.0478
-345.55908
-342.57254
-343.13778
-343.14739
-343.14757
-343.15052
-343.15642
-343.16519
-343.17677
-346.47401
-346.25215
-343.13778
-343.68856
-343.69776
-343.69809
-343.70115
-343.70718
-343.71617
-343.72822
-346.85523
-346.26872
-343.14739
-343.69776
-343.70714
-343.70768
-343.71098
-343.71727
-343.72659
-343.739
-346.86606
-346.26883
-343.14757
-343.69809
-343.70768
-343.70846
-343.71199
-343.71854
-343.72812
-343.74077
-346.8681
-346.2711
-343.15052
-343.70115
-343.71098
-343.71199
-343.71576
-343.72255
-343.73236
-343.74521
-346.87236
-346.27595
-343.15642
-343.70718
-343.71727
-343.71854
-343.72255
-343.72956
-343.7396
-343.75264
-346.87929
-346.28324
-343.16519
-343.71617
-343.72659
-343.72812
-343.73236
-343.7396
-343.74986
-343.76315
-346.88902
-346.29266
-343.17677
-343.72822
-343.739
-343.74077
-343.74521
-343.75264
-343.76315
-343.77677
-346.9017
-348.0478
-346.47401
-346.85523
-346.86606
-346.8681
-346.87236
-346.87929
-346.88902
-346.9017
-350.70585
-345.38379
-341.36582
-342.03161
-342.0477
-342.04789
-342.05011
-342.05478
-342.06176
-342.07075
-343.77116
-341.36582
-338.50951
-339.05244
-339.06183
-339.0621
-339.06498
-339.07066
-339.07906
-339.09011
-342.27592
-342.03161
-339.05244
-339.58142
-339.5904
-339.59081
-339.5938
-339.5996
-339.6082
-339.6197
-342.64091
-342.0477
-339.06183
-339.5904
-339.59956
-339.60017
-339.60338
-339.60943
-339.61834
-339.63018
-342.65141
-342.04789
-339.0621
-339.59081
-339.60017
-339.601
-339.60443
-339.61072
-339.61988
-339.63195
-342.65342
-342.05011
-339.06498
-339.5938
-339.60338
-339.60443
-339.60809
-339.61461
-339.62399
-339.63625
-342.65753
-342.05478
-339.07066
-339.5996
-339.60943
-339.61072
-339.61461
-339.62134
-339.63093
-339.64338
-342.66416
-342.06176
-339.07906
-339.6082
-339.61834
-339.61988
-339.62399
-339.63093
-339.64075
-339.65342
-342.67344
-342.07075
-339.09011
-339.6197
-339.63018
-339.63195
-339.63625
-339.64338
-339.65342
-339.66641
-342.68551
-343.77116
-342.27592
-342.64091
-342.65141
-342.65342
-342.65753
-342.66416
-342.67344
-342.68551
-346.36377
-341.24398
-337.42946
-338.06401
-338.07952
-338.07979
-338.08195
-338.08641
-338.09303
-338.10154
-339.73727
-337.42946
-334.71967
-335.23707
-335.24618
-335.24653
-335.24933
-335.25476
-335.26274
-335.27321
-338.32904
-338.06401
-335.23707
-335.74113
-335.74985
-335.75032
-335.75322
-335.75875
-335.76692
-335.77781
-338.67565
-338.07952
-335.24618
-335.74984
-335.75872
-335.75939
-335.76249
-335.76826
-335.77672
-335.78792
-338.68573
-338.07979
-335.24653
-335.75032
-335.75939
-335.76026
-335.76358
-335.76957
-335.77826
-335.78968
-338.68771
-338.08195
-335.24933
-335.75322
-335.76249
-335.76358
-335.7671
-335.77331
-335.78221
-335.79381
-338.69165
-338.08641
-335.25476
-335.75875
-335.76826
-335.76957
-335.77331
-335.77972
-335.78882
-335.80059
-338.69794
-338.09303
-335.26274
-335.76692
-335.77672
-335.77826
-335.78221
-335.78882
-335.79812
-335.81012