/*--------------------------------*- C++ -*----------------------------------*\
| =========                 |                                                 |
| \\      /  F ield         | OpenFOAM: The Open Source CFD Toolbox           |
|  \\    /   O peration     | Version:  v2106                                 |
|   \\  /    A nd           | Website:  www.openfoam.com                      |
|    \\/     M anipulation  |                                                 |
\*---------------------------------------------------------------------------*/
FoamFile
{
    version     2.0;
    format      ascii;
    arch        "LSB;label=32;scalar=64";
    class       volVectorField;
    location    "62.5";
    object      flux;
}
// * * * * * * * * * * * * * * * * * * * * * * * * * * * * * * * * * * * * * //

dimensions      [0 1 -1 1 0 0 0];

internalField   nonuniform List<vector> 
4000
(
(5.8249817e-07 5.8249817e-07 0.73023616)
(1.2799917e-06 5.1647353e-07 0.73024046)
(6.448267e-07 5.0117217e-07 0.73024253)
(3.496847e-07 4.9523279e-07 0.73024377)
(1.121738e-07 4.9174938e-07 0.73024435)
(-9.4490407e-08 4.885593e-07 0.73024435)
(-2.709103e-07 4.8421207e-07 0.73024384)
(-3.9981238e-07 4.7621794e-07 0.7302429)
(-4.2723551e-07 4.5821447e-07 0.73024169)
(-1.351811e-07 4.1442248e-07 0.73024055)
(5.1647353e-07 1.2799917e-06 0.73024046)
(1.1580027e-06 1.1580027e-06 0.73024424)
(6.1296558e-07 1.1197025e-06 0.73024619)
(3.3555052e-07 1.1008034e-06 0.73024738)
(1.0216358e-07 1.0879277e-06 0.73024793)
(-1.0579638e-07 1.0757509e-06 0.73024791)
(-2.8942234e-07 1.0602703e-06 0.73024736)
(-4.3880879e-07 1.0354905e-06 0.73024636)
(-5.1992871e-07 9.892852e-07 0.730245)
(-1.7897309e-07 8.9974979e-07 0.73024346)
(5.0117216e-07 6.4482669e-07 0.73024253)
(1.1197025e-06 6.1296558e-07 0.73024619)
(5.8762737e-07 5.8762737e-07 0.73024807)
(3.1790987e-07 5.6861748e-07 0.73024921)
(8.712137e-08 5.5272021e-07 0.73024972)
(-1.2214783e-07 5.3709409e-07 0.73024966)
(-3.1117076e-07 5.1903418e-07 0.73024906)
(-4.7079744e-07 4.9553328e-07 0.730248)
(-5.6297619e-07 4.6416378e-07 0.73024653)
(-1.9487138e-07 4.2987097e-07 0.73024486)
(4.9523279e-07 3.4968469e-07 0.73024377)
(1.1008034e-06 3.3555052e-07 0.73024738)
(5.6861748e-07 3.1790987e-07 0.73024921)
(3.0064337e-07 3.0064337e-07 0.7302503)
(7.0640189e-08 2.8416848e-07 0.73025077)
(-1.3948241e-07 2.6769216e-07 0.73025066)
(-3.3098315e-07 2.5011367e-07 0.73025002)
(-4.9367919e-07 2.3067886e-07 0.7302489)
(-5.8559102e-07 2.1028188e-07 0.73024737)
(-2.0183497e-07 1.9418902e-07 0.73024564)
(4.9174938e-07 1.1217381e-07 0.73024435)
(1.0879277e-06 1.0216359e-07 0.73024793)
(5.5272022e-07 8.7121373e-08 0.73024972)
(2.8416847e-07 7.064019e-08 0.73025077)
(5.4170163e-08 5.4170163e-08 0.73025119)
(-1.5620263e-07 3.788893e-08 0.73025104)
(-3.4818407e-07 2.1582541e-08 0.73025035)
(-5.1062924e-07 5.4320662e-09 0.73024919)
(-5.9946603e-07 -9.1234176e-09 0.73024762)
(-2.0559995e-07 -1.86554e-08 0.73024586)
(4.8855931e-07 -9.4490396e-08 0.73024435)
(1.0757509e-06 -1.0579638e-07 0.73024791)
(5.3709408e-07 -1.2214783e-07 0.73024966)
(2.6769216e-07 -1.3948242e-07 0.73025066)
(3.7888929e-08 -1.5620264e-07 0.73025104)
(-1.7207003e-07 -1.7207003e-07 0.73025085)
(-3.6344002e-07 -1.8721211e-07 0.73025012)
(-5.2438515e-07 -2.0138585e-07 0.73024891)
(-6.0967848e-07 -2.1337461e-07 0.73024731)
(-2.0818962e-07 -2.20724e-07 0.73024553)
(4.8421206e-07 -2.709103e-07 0.73024384)
(1.0602702e-06 -2.8942235e-07 0.73024736)
(5.1903418e-07 -3.1117076e-07 0.73024906)
(2.5011367e-07 -3.3098315e-07 0.73025002)
(2.1582555e-08 -3.4818406e-07 0.73025035)
(-1.8721211e-07 -3.6344002e-07 0.73025012)
(-3.7749989e-07 -3.7749988e-07 0.73024936)
(-5.3679173e-07 -3.9062642e-07 0.73024811)
(-6.1880418e-07 -4.0208363e-07 0.73024648)
(-2.1049955e-07 -4.0955608e-07 0.73024468)
(4.7621794e-07 -3.9981239e-07 0.7302429)
(1.0354905e-06 -4.3880878e-07 0.73024636)
(4.9553328e-07 -4.7079745e-07 0.730248)
(2.3067885e-07 -4.9367918e-07 0.7302489)
(5.4320543e-09 -5.1062924e-07 0.73024919)
(-2.0138585e-07 -5.2438515e-07 0.73024891)
(-3.9062641e-07 -5.3679173e-07 0.73024811)
(-5.489689e-07 -5.4896888e-07 0.73024683)
(-6.2860814e-07 -5.6103825e-07 0.73024517)
(-2.1317125e-07 -5.706444e-07 0.73024335)
(4.5821447e-07 -4.2723552e-07 0.73024169)
(9.8928519e-07 -5.1992871e-07 0.730245)
(4.6416377e-07 -5.6297619e-07 0.73024653)
(2.1028188e-07 -5.8559102e-07 0.73024737)
(-9.1234114e-09 -5.9946603e-07 0.73024762)
(-2.133746e-07 -6.0967847e-07 0.73024731)
(-4.0208362e-07 -6.1880418e-07 0.73024648)
(-5.6103826e-07 -6.2860814e-07 0.73024517)
(-6.4047969e-07 -6.4047968e-07 0.73024347)
(-2.1690364e-07 -6.5347548e-07 0.73024162)
(4.1442247e-07 -1.3518111e-07 0.73024055)
(8.9974979e-07 -1.789731e-07 0.73024346)
(4.2987097e-07 -1.9487137e-07 0.73024486)
(1.9418901e-07 -2.0183496e-07 0.73024564)
(-1.8655394e-08 -2.0559995e-07 0.73024586)
(-2.2072399e-07 -2.0818962e-07 0.73024553)
(-4.0955607e-07 -2.1049955e-07 0.73024468)
(-5.7064441e-07 -2.1317125e-07 0.73024335)
(-6.5347549e-07 -2.1690364e-07 0.73024162)
(-2.2183512e-07 -2.2183512e-07 0.73023972)
(2.5586092e-06 2.5586092e-06 1.0862074)
(5.7353655e-06 2.2368603e-06 1.0862128)
(3.0403946e-06 2.1655601e-06 1.0862156)
(1.6764807e-06 2.1374705e-06 1.0862173)
(5.2994825e-07 2.1205505e-06 1.0862181)
(-4.8376179e-07 2.1048971e-06 1.0862181)
(-1.3607666e-06 2.0834311e-06 1.0862172)
(-2.0276123e-06 2.0432554e-06 1.0862158)
(-2.2588635e-06 1.9475941e-06 1.0862138)
(-7.4123026e-07 1.6721024e-06 1.0862116)
(2.2368603e-06 5.7353655e-06 1.0862128)
(5.1457918e-06 5.1457918e-06 1.0862175)
(2.8913099e-06 4.9669047e-06 1.0862201)
(1.6089663e-06 4.8766745e-06 1.0862218)
(4.8108805e-07 4.8139739e-06 1.0862225)
(-5.3944093e-07 4.7542377e-06 1.0862224)
(-1.4532291e-06 4.6779598e-06 1.0862216)
(-2.2313679e-06 4.5545432e-06 1.08622)
(-2.8155931e-06 4.3157134e-06 1.0862178)
(-1.0167219e-06 3.7878758e-06 1.0862148)
(2.1655601e-06 3.0403946e-06 1.0862156)
(4.9669047e-06 2.8913099e-06 1.0862201)
(2.7712773e-06 2.7712773e-06 1.0862226)
(1.52355e-06 2.6792638e-06 1.0862242)
(4.0751137e-07 2.6015743e-06 1.0862249)
(-6.1977596e-07 2.5249042e-06 1.0862248)
(-1.560461e-06 2.4361015e-06 1.0862239)
(-2.3898587e-06 2.3202543e-06 1.0862222)
(-3.025531e-06 2.1650475e-06 1.0862198)
(-1.093122e-06 1.9994277e-06 1.0862167)
(2.1374705e-06 1.6764807e-06 1.0862173)
(4.8766745e-06 1.6089663e-06 1.0862218)
(2.6792638e-06 1.5235499e-06 1.0862242)
(1.4392633e-06 1.4392633e-06 1.0862257)
(3.2672847e-07 1.3585342e-06 1.0862264)
(-7.0491367e-07 1.2776426e-06 1.0862262)
(-1.6578791e-06 1.1912455e-06 1.0862252)
(-2.5024219e-06 1.0956581e-06 1.0862234)
(-3.1364196e-06 9.9533272e-07 1.0862209)
(-1.1271351e-06 9.1657381e-07 1.0862178)
(2.1205505e-06 5.2994824e-07 1.0862181)
(4.8139739e-06 4.8108805e-07 1.0862225)
(2.6015743e-06 4.0751138e-07 1.0862249)
(1.3585342e-06 3.2672847e-07 1.0862264)
(2.4589072e-07 2.4589071e-07 1.086227)
(-7.8706459e-07 1.6589932e-07 1.0862267)
(-1.7424455e-06 8.5717653e-08 1.0862256)
(-2.5857715e-06 6.2471545e-09 1.0862238)
(-3.2046153e-06 -6.5404084e-08 1.0862212)
(-1.1456279e-06 -1.123123e-07 1.086218)
(2.1048971e-06 -4.837618e-07 1.0862181)
(4.7542377e-06 -5.3944092e-07 1.0862224)
(2.5249043e-06 -6.1977596e-07 1.0862248)
(1.2776426e-06 -7.0491367e-07 1.0862262)
(1.6589932e-07 -7.8706459e-07 1.0862267)
(-8.6508674e-07 -8.6508672e-07 1.0862263)
(-1.8175312e-06 -9.3963537e-07 1.0862252)
(-2.6535436e-06 -1.0095512e-06 1.0862233)
(-3.254979e-06 -1.0688624e-06 1.0862207)
(-1.1584073e-06 -1.105364e-06 1.0862175)
(2.0834311e-06 -1.3607665e-06 1.0862172)
(4.6779598e-06 -1.4532291e-06 1.0862216)
(2.4361016e-06 -1.560461e-06 1.0862239)
(1.1912456e-06 -1.6578791e-06 1.0862252)
(8.5717663e-08 -1.7424455e-06 1.0862256)
(-9.3963537e-07 -1.8175312e-06 1.0862252)
(-1.88691e-06 -1.88691e-06 1.086224)
(-2.7149986e-06 -1.952034e-06 1.0862221)
(-3.300428e-06 -2.0094904e-06 1.0862195)
(-1.1699622e-06 -2.0477004e-06 1.0862162)
(2.0432554e-06 -2.0276123e-06 1.0862158)
(4.5545432e-06 -2.2313679e-06 1.08622)
(2.3202543e-06 -2.3898587e-06 1.0862222)
(1.0956581e-06 -2.5024219e-06 1.0862234)
(6.2471485e-09 -2.5857715e-06 1.0862238)
(-1.0095512e-06 -2.6535436e-06 1.0862233)
(-1.952034e-06 -2.7149986e-06 1.0862221)
(-2.776124e-06 -2.776124e-06 1.0862201)
(-3.3506454e-06 -2.8385858e-06 1.0862174)
(-1.1838806e-06 -2.8917192e-06 1.0862141)
(1.9475941e-06 -2.2588635e-06 1.0862138)
(4.3157134e-06 -2.8155931e-06 1.0862178)
(2.1650475e-06 -3.025531e-06 1.0862198)
(9.9533272e-07 -3.1364196e-06 1.0862209)
(-6.5404083e-08 -3.2046153e-06 1.0862212)
(-1.0688624e-06 -3.254979e-06 1.0862207)
(-2.0094904e-06 -3.300428e-06 1.0862195)
(-2.8385858e-06 -3.3506454e-06 1.0862174)
(-3.4160232e-06 -3.4160232e-06 1.0862147)
(-1.2053845e-06 -3.5031005e-06 1.0862113)
(1.6721024e-06 -7.4123025e-07 1.0862116)
(3.7878758e-06 -1.0167219e-06 1.0862148)
(1.9994277e-06 -1.093122e-06 1.0862167)
(9.1657381e-07 -1.1271351e-06 1.0862178)
(-1.123123e-07 -1.1456279e-06 1.086218)
(-1.1053639e-06 -1.1584073e-06 1.0862175)
(-2.0477004e-06 -1.1699622e-06 1.0862162)
(-2.8917192e-06 -1.1838806e-06 1.0862141)
(-3.5031005e-06 -1.2053845e-06 1.0862113)
(-1.2419321e-06 -1.2419321e-06 1.0862077)
(4.1541882e-06 4.1541882e-06 1.086123)
(9.4352578e-06 3.6322931e-06 1.0861275)
(5.1635061e-06 3.5147588e-06 1.08613)
(2.8650413e-06 3.4668716e-06 1.0861315)
(8.5940367e-07 3.4372028e-06 1.0861322)
(-9.5266432e-07 3.4093164e-06 1.0861321)
(-2.561367e-06 3.3707443e-06 1.0861312)
(-3.875864e-06 3.2979442e-06 1.0861296)
(-4.6410183e-06 3.1226527e-06 1.0861273)
(-1.6133091e-06 2.6111678e-06 1.0861246)
(3.6322931e-06 9.4352578e-06 1.0861275)
(8.4761137e-06 8.4761137e-06 1.0861315)
(4.9153738e-06 8.1780016e-06 1.0861339)
(2.7487071e-06 8.0226992e-06 1.0861353)
(7.7307092e-07 7.9123187e-06 1.086136)
(-1.052352e-06 7.8058612e-06 1.0861358)
(-2.7284253e-06 7.6690268e-06 1.0861349)
(-4.2480014e-06 7.446373e-06 1.0861331)
(-5.671183e-06 7.0123376e-06 1.0861307)
(-2.124794e-06 6.0445871e-06 1.0861272)
(3.5147588e-06 5.1635061e-06 1.08613)
(8.1780016e-06 4.9153738e-06 1.0861339)
(4.7100917e-06 4.7100916e-06 1.0861361)
(2.5993584e-06 4.5493474e-06 1.0861375)
(6.4256565e-07 4.4117988e-06 1.0861381)
(-1.1959563e-06 4.2750322e-06 1.0861379)
(-2.9208553e-06 4.115992e-06 1.0861369)
(-4.5325532e-06 3.90811e-06 1.086135)
(-6.0428041e-06 3.6299339e-06 1.0861324)
(-2.258476e-06 3.3392967e-06 1.0861288)
(3.4668716e-06 2.8650413e-06 1.0861315)
(8.0226992e-06 2.7487071e-06 1.0861353)
(4.5493474e-06 2.5993584e-06 1.0861375)
(2.4504143e-06 2.4504143e-06 1.0861389)
(4.9875577e-07 2.3067891e-06 1.0861394)
(-1.3481589e-06 2.1622766e-06 1.0861391)
(-3.0953475e-06 2.0075554e-06 1.086138)
(-4.7340596e-06 1.836209e-06 1.0861361)
(-6.2399964e-06 1.6566216e-06 1.0861334)
(-2.3185521e-06 1.5169845e-06 1.0861297)
(3.4372028e-06 8.5940366e-07 1.0861322)
(7.9123187e-06 7.7307092e-07 1.086136)
(4.4117988e-06 6.4256566e-07 1.0861381)
(2.3067891e-06 4.9875577e-07 1.0861394)
(3.5442795e-07 3.5442797e-07 1.0861399)
(-1.49519e-06 2.1126674e-07 1.0861395)
(-3.2469229e-06 6.7470993e-08 1.0861383)
(-4.883487e-06 -7.5280521e-08 1.0861364)
(-6.3620286e-06 -2.0407813e-07 1.0861336)
(-2.3515674e-06 -2.8825222e-07 1.0861299)
(3.4093164e-06 -9.5266432e-07 1.0861321)
(7.8058612e-06 -1.052352e-06 1.0861358)
(4.2750322e-06 -1.1959563e-06 1.0861379)
(2.1622766e-06 -1.3481589e-06 1.0861391)
(2.1126674e-07 -1.49519e-06 1.0861395)
(-1.6351158e-06 -1.6351158e-06 1.0861391)
(-3.3818948e-06 -1.7692271e-06 1.0861379)
(-5.0056087e-06 -1.8955843e-06 1.0861359)
(-6.452968e-06 -2.0034999e-06 1.086133)
(-2.3746681e-06 -2.0705014e-06 1.0861293)
(3.3707443e-06 -2.561367e-06 1.0861312)
(7.6690268e-06 -2.7284253e-06 1.0861349)
(4.115992e-06 -2.9208553e-06 1.0861369)
(2.0075554e-06 -3.0953475e-06 1.086138)
(6.7470983e-08 -3.2469229e-06 1.0861383)
(-1.7692271e-06 -3.3818948e-06 1.0861379)
(-3.5073914e-06 -3.5073914e-06 1.0861366)
(-5.1177598e-06 -3.6266639e-06 1.0861345)
(-6.5369457e-06 -3.7344256e-06 1.0861316)
(-2.3962351e-06 -3.8092357e-06 1.0861279)
(3.2979442e-06 -3.875864e-06 1.0861296)
(7.446373e-06 -4.2480014e-06 1.0861331)
(3.90811e-06 -4.5325532e-06 1.086135)
(1.836209e-06 -4.7340596e-06 1.0861361)
(-7.5280531e-08 -4.883487e-06 1.0861364)
(-1.8955843e-06 -5.0056087e-06 1.0861359)
(-3.6266639e-06 -5.1177598e-06 1.0861345)
(-5.2326429e-06 -5.2326429e-06 1.0861324)
(-6.6355398e-06 -5.3578211e-06 1.0861294)
(-2.4245415e-06 -5.4796154e-06 1.0861256)
(3.1226527e-06 -4.6410183e-06 1.0861273)
(7.0123376e-06 -5.671183e-06 1.0861307)
(3.6299339e-06 -6.0428041e-06 1.0861324)
(1.6566216e-06 -6.2399964e-06 1.0861334)
(-2.0407813e-07 -6.3620286e-06 1.0861336)
(-2.0034999e-06 -6.452968e-06 1.086133)
(-3.7344256e-06 -6.5369457e-06 1.0861316)
(-5.3578211e-06 -6.6355398e-06 1.0861294)
(-6.7839181e-06 -6.7839181e-06 1.0861264)
(-2.4774313e-06 -7.0630686e-06 1.0861225)
(2.6111678e-06 -1.6133091e-06 1.0861246)
(6.0445871e-06 -2.124794e-06 1.0861272)
(3.3392967e-06 -2.258476e-06 1.0861288)
(1.5169845e-06 -2.3185521e-06 1.0861297)
(-2.8825222e-07 -2.3515674e-06 1.0861299)
(-2.0705014e-06 -2.3746682e-06 1.0861293)
(-3.8092357e-06 -2.3962351e-06 1.0861279)
(-5.4796154e-06 -2.4245415e-06 1.0861256)
(-7.0630686e-06 -2.4774313e-06 1.0861225)
(-2.6106418e-06 -2.6106418e-06 1.0861183)
(5.5979305e-06 5.5979305e-06 1.0859889)
(1.2765892e-05 4.8956219e-06 1.0859932)
(7.0523413e-06 4.736882e-06 1.0859954)
(3.8970253e-06 4.6709232e-06 1.0859967)
(1.0748649e-06 4.6291892e-06 1.0859973)
(-1.5214547e-06 4.5893846e-06 1.0859971)
(-3.8749661e-06 4.5338728e-06 1.0859961)
(-5.878544e-06 4.4284958e-06 1.0859944)
(-7.2196409e-06 4.1733685e-06 1.085992)
(-2.5556151e-06 3.4249621e-06 1.0859891)
(4.8956219e-06 1.2765892e-05 1.0859932)
(1.1474319e-05 1.1474319e-05 1.0859968)
(6.7152932e-06 1.1069235e-05 1.0859989)
(3.735486e-06 1.085392e-05 1.0860003)
(9.5255699e-07 1.0698147e-05 1.0860008)
(-1.6644292e-06 1.0546147e-05 1.0860005)
(-4.1162994e-06 1.0349489e-05 1.0859995)
(-6.4193006e-06 1.0028124e-05 1.0859976)
(-8.7249416e-06 9.3992834e-06 1.085995)
(-3.3040215e-06 7.9919614e-06 1.0859915)
(4.736882e-06 7.0523413e-06 1.0859954)
(1.1069235e-05 6.7152932e-06 1.0859989)
(6.4319423e-06 6.4319423e-06 1.086001)
(3.5259375e-06 6.2066262e-06 1.0860022)
(7.6709204e-07 6.0115428e-06 1.0860027)
(-1.8701127e-06 5.8160806e-06 1.0860024)
(-4.3929895e-06 5.5878054e-06 1.0860012)
(-6.8287494e-06 5.2888381e-06 1.0859993)
(-9.255803e-06 4.8890425e-06 1.0859966)
(-3.4938297e-06 4.4760611e-06 1.0859928)
(4.6709232e-06 3.8970253e-06 1.0859967)
(1.085392e-05 3.7354861e-06 1.0860003)
(6.2066262e-06 3.5259375e-06 1.0860022)
(3.3150866e-06 3.3150866e-06 1.0860034)
(5.620114e-07 3.1104133e-06 1.0860038)
(-2.0881667e-06 2.9035343e-06 1.0860034)
(-4.6435419e-06 2.681414e-06 1.0860022)
(-7.1180634e-06 2.4351245e-06 1.0860002)
(-9.5377186e-06 2.1772245e-06 1.0859974)
(-3.5793424e-06 1.9779673e-06 1.0859936)
(4.6291892e-06 1.0748649e-06 1.0859973)
(1.0698147e-05 9.5255697e-07 1.0860008)
(6.0115428e-06 7.6709204e-07 1.0860027)
(3.1104133e-06 5.620114e-07 1.0860038)
(3.5553969e-07 3.555397e-07 1.0860042)
(-2.2991119e-06 1.5015381e-07 1.0860037)
(-4.8613993e-06 -5.6652813e-08 1.0860025)
(-7.332939e-06 -2.6234989e-07 1.0860004)
(-9.7129601e-06 -4.4810488e-07 1.0859975)
(-3.6266677e-06 -5.6934584e-07 1.0859936)
(4.5893846e-06 -1.5214547e-06 1.0859971)
(1.0546147e-05 -1.6644293e-06 1.0860005)
(5.8160806e-06 -1.8701127e-06 1.0860024)
(2.9035343e-06 -2.0881667e-06 1.0860034)
(1.501538e-07 -2.2991119e-06 1.0860037)
(-2.5003592e-06 -2.5003592e-06 1.0860032)
(-5.0560456e-06 -2.6939333e-06 1.0860019)
(-7.5095155e-06 -2.877195e-06 1.0859998)
(-9.8447145e-06 -3.034675e-06 1.0859968)
(-3.6601697e-06 -3.1331209e-06 1.0859929)
(4.5338728e-06 -3.8749661e-06 1.0859961)
(1.0349489e-05 -4.1162994e-06 1.0859995)
(5.5878054e-06 -4.3929895e-06 1.0860012)
(2.681414e-06 -4.6435419e-06 1.0860022)
(-5.6652813e-08 -4.8613993e-06 1.0860025)
(-2.6939333e-06 -5.0560456e-06 1.0860019)
(-5.238235e-06 -5.238235e-06 1.0860005)
(-7.6736807e-06 -5.4133952e-06 1.0859983)
(-9.968886e-06 -5.5745702e-06 1.0859953)
(-3.6922983e-06 -5.6893697e-06 1.0859914)
(4.4284958e-06 -5.878544e-06 1.0859944)
(1.0028124e-05 -6.4193006e-06 1.0859976)
(5.2888381e-06 -6.8287495e-06 1.0859993)
(2.4351245e-06 -7.1180634e-06 1.0860002)
(-2.6234989e-07 -7.332939e-06 1.0860004)
(-2.877195e-06 -7.5095155e-06 1.0859998)
(-5.4133952e-06 -7.6736807e-06 1.0859983)
(-7.8458507e-06 -7.8458507e-06 1.0859961)
(-1.0120689e-05 -8.0407927e-06 1.085993)
(-3.7367027e-06 -8.2405935e-06 1.0859891)
(4.1733685e-06 -7.2196409e-06 1.085992)
(9.3992834e-06 -8.7249416e-06 1.085995)
(4.8890425e-06 -9.255803e-06 1.0859966)
(2.1772245e-06 -9.5377186e-06 1.0859974)
(-4.4810486e-07 -9.7129601e-06 1.0859975)
(-3.034675e-06 -9.8447145e-06 1.0859968)
(-5.5745702e-06 -9.968886e-06 1.0859953)
(-8.0407927e-06 -1.0120689e-05 1.085993)
(-1.0363629e-05 -1.0363629e-05 1.0859899)
(-3.8254989e-06 -1.0853371e-05 1.0859858)
(3.4249621e-06 -2.5556151e-06 1.0859891)
(7.9919614e-06 -3.3040215e-06 1.0859915)
(4.4760611e-06 -3.4938296e-06 1.0859928)
(1.9779674e-06 -3.5793424e-06 1.0859936)
(-5.6934582e-07 -3.6266677e-06 1.0859936)
(-3.1331209e-06 -3.6601697e-06 1.0859929)
(-5.6893697e-06 -3.6922983e-06 1.0859914)
(-8.2405935e-06 -3.7367027e-06 1.0859891)
(-1.0853371e-05 -3.8254988e-06 1.0859858)
(-4.0631974e-06 -4.0631973e-06 1.0859814)
(6.9606603e-06 6.9606603e-06 1.0858075)
(1.5872555e-05 6.0848435e-06 1.0858114)
(8.7572959e-06 5.8873301e-06 1.0858135)
(4.7851824e-06 5.804417e-06 1.0858147)
(1.1783759e-06 5.751188e-06 1.0858151)
(-2.183295e-06 5.6998207e-06 1.0858148)
(-5.2752013e-06 5.6276932e-06 1.0858137)
(-7.9678283e-06 5.4902275e-06 1.085812)
(-9.8708767e-06 5.1564234e-06 1.0858095)
(-3.5173522e-06 4.174864e-06 1.0858066)
(6.0848435e-06 1.5872555e-05 1.0858114)
(1.4262559e-05 1.4262559e-05 1.0858149)
(8.3366561e-06 1.3757095e-05 1.0858169)
(4.5809693e-06 1.348533e-05 1.085818)
(1.0214814e-06 1.3286197e-05 1.0858184)
(-2.3685373e-06 1.309001e-05 1.0858181)
(-5.589591e-06 1.2834749e-05 1.0858169)
(-8.6747331e-06 1.2416295e-05 1.0858151)
(-1.1843922e-05 1.1595723e-05 1.0858124)
(-4.4989116e-06 9.7562845e-06 1.0858088)
(5.8873301e-06 8.7572959e-06 1.0858135)
(1.3757095e-05 8.3366561e-06 1.0858169)
(7.980067e-06 7.980067e-06 1.0858187)
(4.3142846e-06 7.693576e-06 1.0858198)
(7.8305614e-07 7.443246e-06 1.0858202)
(-2.6347431e-06 7.1907626e-06 1.0858197)
(-5.9489167e-06 6.8947327e-06 1.0858186)
(-9.2068541e-06 6.5063459e-06 1.0858166)
(-1.2530887e-05 5.9871575e-06 1.0858138)
(-4.7436446e-06 5.4545051e-06 1.08581)
(5.804417e-06 4.7851825e-06 1.0858147)
(1.348533e-05 4.5809693e-06 1.085818)
(7.693576e-06 4.3142846e-06 1.0858198)
(4.0441482e-06 4.0441482e-06 1.0858209)
(5.1866798e-07 3.78046e-06 1.0858211)
(-2.9170506e-06 3.5128104e-06 1.0858207)
(-6.2740078e-06 3.2246562e-06 1.0858194)
(-9.5823082e-06 2.9047494e-06 1.0858174)
(-1.2895763e-05 2.5699361e-06 1.0858145)
(-4.8540132e-06 2.3123237e-06 1.0858107)
(5.751188e-06 1.1783759e-06 1.0858151)
(1.3286197e-05 1.0214814e-06 1.0858184)
(7.4432459e-06 7.8305614e-07 1.0858202)
(3.78046e-06 5.1866798e-07 1.0858211)
(2.5171831e-07 2.5171832e-07 1.0858214)
(-3.1905469e-06 -1.4562681e-08 1.0858208)
(-6.5569776e-06 -2.8334022e-07 1.0858195)
(-9.8615742e-06 -5.5116503e-07 1.0858174)
(-1.3123313e-05 -7.9322511e-07 1.0858145)
(-4.9153862e-06 -9.510661e-07 1.0858106)
(5.6998207e-06 -2.183295e-06 1.0858148)
(1.309001e-05 -2.3685373e-06 1.0858181)
(7.1907626e-06 -2.6347431e-06 1.0858197)
(3.5128104e-06 -2.9170506e-06 1.0858207)
(-1.4562683e-08 -3.1905469e-06 1.0858208)
(-3.4521091e-06 -3.4521091e-06 1.0858203)
(-6.8106101e-06 -3.7045472e-06 1.0858189)
(-1.0092193e-05 -3.9445322e-06 1.0858167)
(-1.3295664e-05 -4.1517275e-06 1.0858137)
(-4.9592405e-06 -4.2818309e-06 1.0858098)
(5.6276932e-06 -5.2752013e-06 1.0858137)
(1.2834749e-05 -5.589591e-06 1.0858169)
(6.8947327e-06 -5.9489167e-06 1.0858186)
(3.2246562e-06 -6.2740078e-06 1.0858194)
(-2.8334023e-07 -6.5569776e-06 1.0858195)
(-3.7045472e-06 -6.8106101e-06 1.0858189)
(-7.0494007e-06 -7.0494008e-06 1.0858174)
(-1.0308754e-05 -7.2810511e-06 1.0858152)
(-1.3460612e-05 -7.4968269e-06 1.0858122)
(-5.0021218e-06 -7.6527053e-06 1.0858082)
(5.4902275e-06 -7.9678283e-06 1.085812)
(1.2416295e-05 -8.6747331e-06 1.0858151)
(6.5063459e-06 -9.2068541e-06 1.0858166)
(2.9047494e-06 -9.5823082e-06 1.0858174)
(-5.5116503e-07 -9.8615742e-06 1.0858174)
(-3.9445322e-06 -1.0092193e-05 1.0858167)
(-7.2810511e-06 -1.0308754e-05 1.0858152)
(-1.0539619e-05 -1.0539619e-05 1.0858129)
(-1.3667318e-05 -1.0806689e-05 1.0858098)
(-5.0631595e-06 -1.1086452e-05 1.0858058)
(5.1564234e-06 -9.8708767e-06 1.0858095)
(1.1595723e-05 -1.1843922e-05 1.0858124)
(5.9871575e-06 -1.2530887e-05 1.0858138)
(2.5699361e-06 -1.2895763e-05 1.0858145)
(-7.9322511e-07 -1.3123313e-05 1.0858145)
(-4.1517275e-06 -1.3295664e-05 1.0858137)
(-7.4968268e-06 -1.3460612e-05 1.0858122)
(-1.0806689e-05 -1.3667318e-05 1.0858098)
(-1.4007444e-05 -1.4007444e-05 1.0858066)
(-5.18863e-06 -1.4707286e-05 1.0858025)
(4.174864e-06 -3.5173522e-06 1.0858066)
(9.7562845e-06 -4.4989116e-06 1.0858088)
(5.4545051e-06 -4.7436446e-06 1.08581)
(2.3123237e-06 -4.8540132e-06 1.0858107)
(-9.510661e-07 -4.9153862e-06 1.0858106)
(-4.2818309e-06 -4.9592405e-06 1.0858098)
(-7.6527053e-06 -5.0021218e-06 1.0858082)
(-1.1086452e-05 -5.0631595e-06 1.0858058)
(-1.4707286e-05 -5.18863e-06 1.0858025)
(-5.5297207e-06 -5.5297207e-06 1.0857982)
(8.2573336e-06 8.2573336e-06 1.0855803)
(1.8798329e-05 7.2136425e-06 1.0855841)
(1.0310918e-05 6.9790651e-06 1.085586)
(5.5485755e-06 6.880036e-06 1.0855871)
(1.1843259e-06 6.8158145e-06 1.0855874)
(-2.9192862e-06 6.753277e-06 1.085587)
(-6.7300309e-06 6.6649912e-06 1.0855859)
(-1.0091831e-05 6.4962522e-06 1.0855841)
(-1.252856e-05 6.0857776e-06 1.0855817)
(-4.4754213e-06 4.8771818e-06 1.0855788)
(7.2136425e-06 1.8798329e-05 1.0855841)
(1.6880925e-05 1.6880925e-05 1.0855874)
(9.810508e-06 1.6279796e-05 1.0855892)
(5.3036996e-06 1.5954372e-05 1.0855902)
(9.9418735e-07 1.571374e-05 1.0855905)
(-3.1455211e-06 1.5474874e-05 1.0855901)
(-7.1155681e-06 1.5162661e-05 1.0855889)
(-1.0960652e-05 1.4649637e-05 1.085587)
(-1.4957166e-05 1.3642298e-05 1.0855844)
(-5.6840171e-06 1.1382272e-05 1.0855809)
(6.9790651e-06 1.0310918e-05 1.085586)
(1.6279796e-05 9.810508e-06 1.0855892)
(9.3843643e-06 9.3843643e-06 1.0855909)
(4.9825196e-06 9.0395964e-06 1.0855919)
(7.0482753e-07 8.7362603e-06 1.0855921)
(-3.470365e-06 8.4286614e-06 1.0855917)
(-7.5552677e-06 8.0668096e-06 1.0855904)
(-1.1612194e-05 7.5913698e-06 1.0855884)
(-1.5795925e-05 6.9559557e-06 1.0855856)
(-5.9821048e-06 6.3070439e-06 1.0855819)
(6.880036e-06 5.5485755e-06 1.0855871)
(1.5954372e-05 5.3036996e-06 1.0855902)
(9.0395964e-06 4.9825195e-06 1.0855919)
(4.6555956e-06 4.6555956e-06 1.0855928)
(3.8325241e-07 4.3350553e-06 1.085593)
(-3.8149718e-06 4.0085373e-06 1.0855925)
(-7.9528598e-06 3.6561577e-06 1.0855912)
(-1.2071506e-05 3.2645102e-06 1.0855891)
(-1.6241492e-05 2.8547446e-06 1.0855862)
(-6.1166249e-06 2.540368e-06 1.0855825)
(6.8158145e-06 1.1843259e-06 1.0855874)
(1.571374e-05 9.9418734e-07 1.0855905)
(8.7362603e-06 7.0482753e-07 1.0855921)
(4.3350553e-06 3.8325242e-07 1.085593)
(5.7769269e-08 5.7769284e-08 1.0855931)
(-4.1492626e-06 -2.6769661e-07 1.0855925)
(-8.2992949e-06 -5.9693191e-07 1.0855912)
(-1.2413607e-05 -9.2552239e-07 1.085589)
(-1.6520067e-05 -1.2227047e-06 1.0855861)
(-6.1916892e-06 -1.4163426e-06 1.0855823)
(6.753277e-06 -2.9192862e-06 1.085587)
(1.5474874e-05 -3.145521e-06 1.0855901)
(8.4286614e-06 -3.470365e-06 1.0855917)
(4.0085373e-06 -3.8149718e-06 1.0855925)
(-2.6769661e-07 -4.1492626e-06 1.0855925)
(-4.4696729e-06 -4.4696729e-06 1.0855919)
(-8.6106855e-06 -4.7798096e-06 1.0855905)
(-1.2697279e-05 -5.0756371e-06 1.0855883)
(-1.6732312e-05 -5.3319269e-06 1.0855853)
(-6.2457168e-06 -5.4933199e-06 1.0855815)
(6.6649912e-06 -6.7300309e-06 1.0855859)
(1.5162661e-05 -7.1155681e-06 1.0855889)
(8.0668096e-06 -7.5552677e-06 1.0855904)
(3.6561577e-06 -7.9528598e-06 1.0855912)
(-5.9693191e-07 -8.2992949e-06 1.0855912)
(-4.7798096e-06 -8.6106855e-06 1.0855905)
(-8.905259e-06 -8.905259e-06 1.085589)
(-1.2965725e-05 -9.1929519e-06 1.0855867)
(-1.693775e-05 -9.4631314e-06 1.0855837)
(-6.2992846e-06 -9.6599443e-06 1.0855799)
(6.4962522e-06 -1.0091831e-05 1.0855841)
(1.4649637e-05 -1.0960652e-05 1.085587)
(7.5913698e-06 -1.1612194e-05 1.0855884)
(3.2645102e-06 -1.2071506e-05 1.0855891)
(-9.255224e-07 -1.2413608e-05 1.085589)
(-5.0756371e-06 -1.2697279e-05 1.0855883)
(-9.1929519e-06 -1.2965725e-05 1.0855867)
(-1.3255151e-05 -1.3255151e-05 1.0855844)
(-1.7199305e-05 -1.3594297e-05 1.0855813)
(-6.3769254e-06 -1.3953519e-05 1.0855774)
(6.0857776e-06 -1.252856e-05 1.0855817)
(1.3642298e-05 -1.4957166e-05 1.0855844)
(6.9559557e-06 -1.5795925e-05 1.0855856)
(2.8547446e-06 -1.6241492e-05 1.0855862)
(-1.2227048e-06 -1.6520067e-05 1.0855861)
(-5.3319269e-06 -1.6732312e-05 1.0855853)
(-9.4631314e-06 -1.693775e-05 1.0855837)
(-1.3594297e-05 -1.7199305e-05 1.0855813)
(-1.7636118e-05 -1.7636118e-05 1.0855782)
(-6.5387656e-06 -1.8542987e-05 1.0855741)
(4.8771818e-06 -4.4754213e-06 1.0855788)
(1.1382272e-05 -5.6840171e-06 1.0855809)
(6.3070439e-06 -5.9821048e-06 1.0855819)
(2.540368e-06 -6.1166249e-06 1.0855825)
(-1.4163426e-06 -6.1916892e-06 1.0855823)
(-5.4933199e-06 -6.2457168e-06 1.0855815)
(-9.6599443e-06 -6.2992846e-06 1.0855799)
(-1.3953519e-05 -6.3769254e-06 1.0855774)
(-1.8542987e-05 -6.5387656e-06 1.0855741)
(-6.9815052e-06 -6.9815052e-06 1.0855698)
(9.4886566e-06 9.4886566e-06 1.0853095)
(2.1553609e-05 8.283418e-06 1.0853131)
(1.1731376e-05 8.0134061e-06 1.0853149)
(6.2042123e-06 7.8990267e-06 1.0853158)
(1.1102205e-06 7.8243049e-06 1.0853161)
(-3.7074755e-06 7.7510355e-06 1.0853156)
(-8.2093351e-06 7.6471636e-06 1.0853145)
(-1.2211158e-05 7.44822e-06 1.0853127)
(-1.5149788e-05 6.9636919e-06 1.0853103)
(-5.4158183e-06 5.5358399e-06 1.0853075)
(8.283418e-06 2.1553609e-05 1.0853131)
(1.9340732e-05 1.9340732e-05 1.0853162)
(1.1154789e-05 1.8648319e-05 1.0853179)
(5.9205604e-06 1.8271806e-05 1.0853188)
(8.882336e-07 1.7991526e-05 1.085319)
(-3.9731874e-06 1.7711665e-05 1.0853185)
(-8.6635586e-06 1.7344539e-05 1.0853173)
(-1.3236366e-05 1.6740204e-05 1.0853154)
(-1.8018358e-05 1.5552525e-05 1.0853128)
(-6.8436703e-06 1.2886504e-05 1.0853094)
(8.0134061e-06 1.1731376e-05 1.0853149)
(1.8648319e-05 1.1154789e-05 1.0853179)
(1.0662449e-05 1.0662449e-05 1.0853195)
(5.5474194e-06 1.0262157e-05 1.0853203)
(5.5007886e-07 9.9081203e-06 1.0853205)
(-4.3544622e-06 9.5475592e-06 1.08532)
(-9.1807955e-06 9.1222488e-06 1.0853187)
(-1.4003172e-05 8.5627689e-06 1.0853167)
(-1.9003488e-05 7.8151677e-06 1.085314)
(-7.1931656e-06 7.0542168e-06 1.0853104)
(7.8990267e-06 6.2042123e-06 1.0853158)
(1.8271806e-05 5.9205604e-06 1.0853188)
(1.0262157e-05 5.5474194e-06 1.0853203)
(5.1662314e-06 5.1662314e-06 1.0853211)
(1.7363571e-07 4.7911772e-06 1.0853213)
(-4.7590589e-06 4.4080047e-06 1.0853207)
(-9.6483488e-06 3.9936433e-06 1.0853193)
(-1.4543447e-05 3.5326706e-06 1.0853173)
(-1.9526911e-05 3.0504827e-06 1.0853145)
(-7.3509708e-06 2.681332e-06 1.0853108)
(7.8243049e-06 1.1102205e-06 1.0853161)
(1.7991526e-05 8.8823362e-07 1.085319)
(9.9081203e-06 5.5007887e-07 1.0853205)
(4.7911772e-06 1.7363571e-07 1.0853213)
(-2.0814783e-07 -2.0814781e-07 1.0853213)
(-5.1519961e-06 -5.9070967e-07 1.0853207)
(-1.005613e-05 -9.784247e-07 1.0853193)
(-1.4946333e-05 -1.3658938e-06 1.0853172)
(-1.9854827e-05 -1.716513e-06 1.0853143)
(-7.439266e-06 -1.9448225e-06 1.0853106)
(7.7510355e-06 -3.7074755e-06 1.0853156)
(1.7711664e-05 -3.9731874e-06 1.0853185)
(9.5475592e-06 -4.3544622e-06 1.08532)
(4.4080047e-06 -4.7590589e-06 1.0853207)
(-5.9070967e-07 -5.1519961e-06 1.0853207)
(-5.5293358e-06 -5.5293357e-06 1.08532)
(-1.0423533e-05 -5.8954684e-06 1.0853185)
(-1.5281535e-05 -6.2456393e-06 1.0853164)
(-2.0105839e-05 -6.5497855e-06 1.0853134)
(-7.5031772e-06 -6.7416815e-06 1.0853097)
(7.6471636e-06 -8.2093351e-06 1.0853145)
(1.7344539e-05 -8.6635586e-06 1.0853173)
(9.1222488e-06 -9.1807955e-06 1.0853187)
(3.9936433e-06 -9.6483488e-06 1.0853193)
(-9.7842471e-07 -1.005613e-05 1.0853193)
(-5.8954684e-06 -1.0423533e-05 1.0853185)
(-1.0772433e-05 -1.0772433e-05 1.085317)
(-1.560065e-05 -1.1114916e-05 1.0853148)
(-2.0350869e-05 -1.14384e-05 1.0853118)
(-7.5671967e-06 -1.1675314e-05 1.0853081)
(7.4482199e-06 -1.2211158e-05 1.0853127)
(1.6740204e-05 -1.3236366e-05 1.0853154)
(8.5627689e-06 -1.4003172e-05 1.0853167)
(3.5326707e-06 -1.4543447e-05 1.0853173)
(-1.3658938e-06 -1.4946333e-05 1.0853172)
(-6.2456393e-06 -1.5281535e-05 1.0853164)
(-1.1114916e-05 -1.560065e-05 1.0853148)
(-1.5947501e-05 -1.5947502e-05 1.0853125)
(-2.0666237e-05 -1.6357381e-05 1.0853095)
(-7.6611202e-06 -1.679442e-05 1.0853057)
(6.9636919e-06 -1.5149788e-05 1.0853103)
(1.5552525e-05 -1.8018358e-05 1.0853128)
(7.8151677e-06 -1.9003488e-05 1.085314)
(3.0504827e-06 -1.9526911e-05 1.0853145)
(-1.716513e-06 -1.9854827e-05 1.0853143)
(-6.5497855e-06 -2.0105839e-05 1.0853134)
(-1.14384e-05 -2.0350869e-05 1.0853118)
(-1.6357381e-05 -2.0666237e-05 1.0853095)
(-2.1197788e-05 -2.1197788e-05 1.0853064)
(-7.8585565e-06 -2.2306942e-05 1.0853025)
(5.5358399e-06 -5.4158183e-06 1.0853075)
(1.2886504e-05 -6.8436703e-06 1.0853094)
(7.0542168e-06 -7.1931656e-06 1.0853104)
(2.681332e-06 -7.3509708e-06 1.0853108)
(-1.9448225e-06 -7.439266e-06 1.0853106)
(-6.7416815e-06 -7.5031772e-06 1.0853097)
(-1.1675314e-05 -7.5671967e-06 1.0853081)
(-1.679442e-05 -7.6611202e-06 1.0853057)
(-2.2306942e-05 -7.8585565e-06 1.0853025)
(-8.400556e-06 -8.400556e-06 1.0852983)
(1.0650896e-05 1.0650896e-05 1.0849973)
(2.4136244e-05 9.2914399e-06 1.0850006)
(1.3027996e-05 8.9877474e-06 1.0850022)
(6.7653028e-06 8.858807e-06 1.0850031)
(9.7255987e-07 8.7741037e-06 1.0850033)
(-4.5269644e-06 8.6905944e-06 1.0850028)
(-9.6867799e-06 8.571813e-06 1.0850016)
(-1.4294699e-05 8.3439505e-06 1.0849998)
(-1.7702765e-05 7.7885098e-06 1.0849975)
(-6.3283506e-06 6.1506788e-06 1.0849948)
(9.2914399e-06 2.4136244e-05 1.0850006)
(2.1641521e-05 2.1641521e-05 1.0850036)