/*--------------------------------*- C++ -*----------------------------------*\
| =========                 |                                                 |
| \\      /  F ield         | OpenFOAM: The Open Source CFD Toolbox           |
|  \\    /   O peration     | Version:  v2106                                 |
|   \\  /    A nd           | Website:  www.openfoam.com                      |
|    \\/     M anipulation  |                                                 |
\*---------------------------------------------------------------------------*/
FoamFile
{
    version     2.0;
    format      ascii;
    arch        "LSB;label=32;scalar=64";
    class       volVectorField;
    location    "62.5";
    object      gradT;
}
// * * * * * * * * * * * * * * * * * * * * * * * * * * * * * * * * * * * * * //

dimensions      [0 -1 0 1 0 0 0];

internalField   nonuniform List<vector> 
4000
(
(0.00045679952 0.00045679953 572.65679)
(0.0010037793 0.00040502249 572.66015)
(0.00050567803 0.00039302305 572.66178)
(0.00027422541 0.00038836534 572.66274)
(8.7967553e-05 0.00038563363 572.6632)
(-7.4100099e-05 0.00038313194 572.6632)
(-0.00021244993 0.00037972281 572.6628)
(-0.00031353593 0.00037345375 572.66206)
(-0.00033504135 0.00035933529 572.66112)
(-0.00010601006 0.00032499328 572.66022)
(0.00040502249 0.0010037793 572.66015)
(0.00090811456 0.00090811456 572.66311)
(0.00048069229 0.00087807926 572.66464)
(0.00026314128 0.0008632584 572.66558)
(8.0117456e-05 0.00085316119 572.666)
(-8.296633e-05 0.00084361209 572.66599)
(-0.00022696721 0.00083147203 572.66556)
(-0.0003441172 0.00081203954 572.66478)
(-0.00040773206 0.00077580501 572.66371)
(-0.00014035207 0.00070559066 572.6625)
(0.00039302304 0.00050567802 572.66178)
(0.00087807925 0.00048069229 572.66464)
(0.00046082187 0.00046082187 572.66611)
(0.00024930734 0.00044591416 572.667)
(6.8321243e-05 0.00043344741 572.6674)
(-9.5789258e-05 0.00042119328 572.66735)
(-0.00024402249 0.00040703057 572.66689)
(-0.00036920295 0.00038860098 572.66605)
(-0.00044149023 0.00036400078 572.66491)
(-0.00015281962 0.0003371081 572.6636)
(0.00038836534 0.00027422541 572.66274)
(0.0008632584 0.00026314128 572.66558)
(0.00044591417 0.00024930735 572.667)
(0.00023576682 0.00023576682 572.66786)
(5.5396575e-05 0.00022284709 572.66822)
(-0.00010938317 0.00020992624 572.66814)
(-0.00025955951 0.00019614105 572.66764)
(-0.00038714699 0.00018090012 572.66676)
(-0.00045922495 0.00016490466 572.66556)
(-0.00015828052 0.00015228451 572.66421)
(0.00038563362 8.7967556e-05 572.6632)
(0.0008531612 8.0117465e-05 572.666)
(0.00043344741 6.8321246e-05 572.6674)
(0.00022284709 5.5396576e-05 572.66822)
(4.2480655e-05 4.2480655e-05 572.66855)
(-0.0001224953 2.9712788e-05 572.66844)
(-0.0002730486 1.6925193e-05 572.6679)
(-0.00040043934 4.2598678e-06 572.66698)
(-0.00047010584 -7.1546538e-06 572.66576)
(-0.00016123305 -1.4629707e-05 572.66438)
(0.00038313194 -7.410009e-05 572.6632)
(0.00084361209 -8.2966328e-05 572.66599)
(0.00042119328 -9.5789262e-05 572.66735)
(0.00020992623 -0.00010938318 572.66814)
(2.9712788e-05 -0.0001224953 572.66844)
(-0.00013493863 -0.00013493863 572.66828)
(-0.00028501243 -0.00014681316 572.66772)
(-0.00041122683 -0.00015792832 572.66677)
(-0.00047811452 -0.00016733 572.66552)
(-0.00016326389 -0.00017309345 572.66412)
(0.0003797228 -0.00021244992 572.6628)
(0.00083147202 -0.00022696722 572.66556)
(0.00040703057 -0.00024402248 572.66689)
(0.00019614105 -0.00025955951 572.66764)
(1.6925205e-05 -0.0002730486 572.6679)
(-0.00014681316 -0.00028501244 572.66772)
(-0.0002960383 -0.00029603829 572.66712)
(-0.00042095618 -0.00030633222 572.66614)
(-0.00048527096 -0.00031531706 572.66487)
(-0.00016507535 -0.000321177 572.66346)
(0.00037345375 -0.00031353593 572.66206)
(0.00081203953 -0.00034411719 572.66478)
(0.00038860098 -0.00036920295 572.66605)
(0.00018090012 -0.00038714698 572.66676)
(4.2598584e-06 -0.00040043934 572.66698)
(-0.00015792832 -0.00041122684 572.66677)
(-0.00030633221 -0.00042095617 572.66614)
(-0.0004305056 -0.00043050559 572.66514)
(-0.00049295931 -0.00043997048 572.66384)
(-0.00016717052 -0.0004475037 572.66242)
(0.00035933529 -0.00033504136 572.66112)
(0.00077580501 -0.00040773207 572.66371)
(0.00036400077 -0.00044149023 572.66491)
(0.00016490466 -0.00045922495 572.66556)
(-7.1546489e-06 -0.00047010584 572.66576)
(-0.00016732999 -0.00047811451 572.66552)
(-0.00031531705 -0.00048527096 572.66487)
(-0.00043997049 -0.0004929593 572.66384)
(-0.00050226907 -0.00050226906 572.66251)
(-0.00017009749 -0.00051246047 572.66106)
(0.00032499327 -0.00010601006 572.66022)
(0.00070559067 -0.00014035207 572.6625)
(0.0003371081 -0.00015281962 572.6636)
(0.00015228451 -0.00015828052 572.66421)
(-1.4629703e-05 -0.00016123305 572.66438)
(-0.00017309344 -0.00016326389 572.66412)
(-0.000321177 -0.00016507535 572.66346)
(-0.0004475037 -0.00016717052 572.66242)
(-0.00051246048 -0.0001700975 572.66106)
(-0.0001739648 -0.0001739648 572.65957)
(0.0019932104 0.0019932104 846.17845)
(0.0044679702 0.0017425612 846.18259)
(0.0023685313 0.0016870168 846.18475)
(0.0013060137 0.0016651344 846.18608)
(0.00041284081 0.0016519534 846.18669)
(-0.00037686059 0.001639759 846.18666)
(-0.0010600657 0.0016230366 846.18603)
(-0.0015795526 0.0015917389 846.18489)
(-0.0017597022 0.0015172167 846.18334)
(-0.00057743395 0.0013026029 846.18163)
(0.0017425612 0.0044679702 846.18259)
(0.0040086798 0.0040086798 846.1862)
(0.0022523911 0.0038693229 846.18824)
(0.0012534185 0.0037990317 846.18952)
(0.00037477767 0.0037501866 846.1901)
(-0.00042023579 0.0037036508 846.19004)
(-0.0011320959 0.0036442287 846.18937)
(-0.0017382824 0.0035480847 846.18815)
(-0.0021934061 0.0033620313 846.18643)
(-0.00079204772 0.0029508348 846.18417)
(0.0016870168 0.0023685312 846.18475)
(0.0038693229 0.0022523911 846.18824)
(0.0021588831 0.0021588831 846.1902)
(0.0011868773 0.0020872026 846.19142)
(0.00031745989 0.0020266808 846.19196)
(-0.00048281845 0.0019669533 846.19185)
(-0.0012156318 0.0018977741 846.19113)
(-0.00186175 0.0018075267 846.18984)
(-0.0023569521 0.0016866174 846.18799)
(-0.00085156494 0.0015575962 846.1856)
(0.0016651344 0.0013060137 846.18608)
(0.0037990317 0.0012534185 846.18952)
(0.0020872026 0.0011868773 846.19142)
(0.0011212162 0.0011212162 846.1926)
(0.00025452832 0.0010583266 846.19308)
(-0.00054914251 0.00099531034 846.19293)
(-0.0012915225 0.00092800522 846.19215)
(-0.0019494391 0.00085354061 846.19079)
(-0.0024433366 0.00077538505 846.18887)
(-0.0008780619 0.00071403023 846.18642)
(0.0016519534 0.0004128408 846.18669)
(0.0037501866 0.00037477767 846.1901)
(0.0020266808 0.0003174599 846.19196)
(0.0010583266 0.00025452832 846.19308)
(0.00019155401 0.00019155401 846.19352)
(-0.00061313979 0.00012923904 846.19332)
(-0.0013574015 6.6775846e-05 846.19249)
(-0.0020143702 4.8666642e-06 846.19108)
(-0.0024964625 -5.0951152e-05 846.18911)
(-0.00089246816 -8.7493641e-05 846.18662)
(0.001639759 -0.00037686059 846.18666)
(0.0037036508 -0.00042023578 846.19004)
(0.0019669533 -0.00048281845 846.19185)
(0.00099531034 -0.0005491425 846.19293)
(0.00012923904 -0.00061313979 846.19332)
(-0.00067392067 -0.00067392066 846.19306)
(-0.0014158949 -0.00073199562 846.19219)
(-0.0020671661 -0.00078646156 846.19073)
(-0.0025356969 -0.00083266624 846.18872)
(-0.00090242356 -0.00086110171 846.18621)
(0.0016230366 -0.0010600657 846.18603)
(0.0036442287 -0.0011320959 846.18937)
(0.0018977741 -0.0012156318 846.19113)
(0.00092800523 -0.0012915225 846.19215)
(6.6775854e-05 -0.0013574015 846.19249)
(-0.00073199562 -0.0014158949 846.19219)
(-0.0014699424 -0.0014699424 846.19127)
(-0.0021150408 -0.0015206754 846.18977)
(-0.0025711026 -0.0015654351 846.18773)
(-0.00091142514 -0.0015952016 846.18519)
(0.0015917389 -0.0015795526 846.18489)
(0.0035480847 -0.0017382824 846.18815)
(0.0018075267 -0.00186175 846.18984)
(0.00085354061 -0.0019494391 846.19079)
(4.8666595e-06 -0.0020143702 846.19108)
(-0.00078646156 -0.0020671661 846.19073)
(-0.0015206754 -0.0021150408 846.18977)
(-0.0021626588 -0.0021626588 846.18823)
(-0.0026102231 -0.0022113179 846.18615)
(-0.00092226784 -0.00225271 846.18358)
(0.0015172167 -0.0017597022 846.18334)
(0.0033620313 -0.0021934061 846.18643)
(0.0016866174 -0.0023569521 846.18799)
(0.00077538505 -0.0024433366 846.18887)
(-5.0951151e-05 -0.0024964625 846.18911)
(-0.00083266624 -0.0025356969 846.18872)
(-0.0015654351 -0.0025711026 846.18773)
(-0.0022113179 -0.002610223 846.18615)
(-0.0026611538 -0.0026611538 846.18402)
(-0.00093901983 -0.0027289889 846.1814)
(0.0013026029 -0.00057743394 846.18163)
(0.0029508348 -0.00079204772 846.18417)
(0.0015575962 -0.00085156495 846.1856)
(0.00071403022 -0.0008780619 846.18642)
(-8.7493639e-05 -0.00089246816 846.18662)
(-0.0008611017 -0.00090242356 846.18621)
(-0.0015952016 -0.00091142514 846.18519)
(-0.00225271 -0.00092226784 846.18358)
(-0.0027289889 -0.00093901983 846.1814)
(-0.00096749125 -0.00096749125 846.17863)
(0.003215077 0.003215077 840.58998)
(0.0073022879 0.0028111633 840.59344)
(0.0039962243 0.0027201991 840.59533)
(0.0022173591 0.0026831374 840.5965)
(0.00066512359 0.0026601756 840.59702)
(-0.00073730138 0.0026385933 840.59691)
(-0.0019823346 0.002608741 840.59622)
(-0.0029996715 0.0025523984 840.59499)
(-0.0035918521 0.002416734 840.59328)
(-0.0012485984 0.0020208774 840.5912)
(0.0028111633 0.0073022879 840.59344)
(0.0065599711 0.0065599711 840.59648)
(0.0038041855 0.0063292511 840.59826)
(0.0021273238 0.0062090569 840.59939)
(0.00059830752 0.0061236293 840.59988)
(-0.00081445325 0.006041238 840.59975)
(-0.002111627 0.005935337 840.59902)
(-0.0032876819 0.0057630173 840.59771)
(-0.0043891337 0.0054271018 840.59582)
(-0.001644455 0.0046781248 840.5932)
(0.0027201991 0.0039962243 840.59533)
(0.0063292511 0.0038041855 840.59826)
(0.0036453101 0.0036453101 840.59997)
(0.0020117373 0.0035209042 840.60105)
(0.00049730476 0.0034144504 840.60149)
(-0.00092559375 0.0033086018 840.60132)
(-0.0022605554 0.0031855148 840.60054)
(-0.0035079067 0.0030246276 840.59916)
(-0.0046767446 0.0028093371 840.59715)
(-0.0017479163 0.0025844025 840.59439)
(0.0026831374 0.0022173591 840.5965)
(0.0062090569 0.0021273238 840.59939)
(0.0035209042 0.0020117373 840.60105)
(0.0018964641 0.0018964641 840.60207)
(0.00038600509 0.0017853074 840.60247)
(-0.0010433888 0.0016734639 840.60225)
(-0.0023956012 0.0015537196 840.60142)
(-0.0036638597 0.0014211084 840.59997)
(-0.0048293587 0.0012821193 840.59789)
(-0.0017944113 0.0011740492 840.59508)
(0.0026601756 0.00066512358 840.59702)
(0.0061236293 0.00059830752 840.59988)
(0.0034144504 0.00049730476 840.60149)
(0.0017853074 0.00038600509 840.60247)
(0.00027430458 0.00027430459 840.60283)
(-0.0011571815 0.00016350695 840.60255)
(-0.0025129109 5.2218237e-05 840.60167)
(-0.0037795069 -5.8262314e-05 840.60017)
(-0.0049238038 -0.00015794344 840.59805)
(-0.0018199631 -0.00022308882 840.5952)
(0.0026385933 -0.00073730138 840.59691)
(0.006041238 -0.00081445325 840.59975)
(0.0033086018 -0.00092559376 840.60132)
(0.0016734639 -0.0010433888 840.60225)
(0.00016350695 -0.0011571815 840.60255)
(-0.0012654752 -0.0012654752 840.60224)
(-0.0026173705 -0.0013692687 840.60131)
(-0.0038740214 -0.0014670612 840.59977)
(-0.0049941852 -0.001550581 840.5976)
(-0.0018378416 -0.001602436 840.59473)
(0.002608741 -0.0019823346 840.59622)
(0.005935337 -0.002111627 840.59902)
(0.0031855149 -0.0022605554 840.60054)
(0.0015537196 -0.0023956012 840.60142)
(5.2218229e-05 -0.0025129109 840.60167)
(-0.0013692687 -0.0026173705 840.60131)
(-0.0027144969 -0.0027144969 840.60033)
(-0.0039608192 -0.0028068063 840.59875)
(-0.0050591786 -0.002890207 840.59655)
(-0.001854533 -0.0029481054 840.59365)
(0.0025523984 -0.0029996715 840.59499)
(0.0057630173 -0.0032876819 840.59771)
(0.0030246276 -0.0035079067 840.59916)
(0.0014211084 -0.0036638597 840.59997)
(-5.8262322e-05 -0.0037795069 840.60017)
(-0.0014670612 -0.0038740214 840.59977)
(-0.0028068063 -0.0039608192 840.59875)
(-0.0040497315 -0.0040497315 840.59712)
(-0.0051354843 -0.0041466116 840.59488)
(-0.0018764405 -0.0042408728 840.59195)
(0.002416734 -0.0035918521 840.59328)
(0.0054271018 -0.0043891337 840.59582)
(0.0028093371 -0.0046767446 840.59715)
(0.0012821193 -0.0048293587 840.59789)
(-0.00015794344 -0.0049238038 840.59805)
(-0.001550581 -0.0049941852 840.5976)
(-0.002890207 -0.0050591786 840.59655)
(-0.0041466116 -0.0051354843 840.59488)
(-0.0052503199 -0.0052503199 840.59257)
(-0.0019173738 -0.0054663648 840.58957)
(0.0020208774 -0.0012485983 840.5912)
(0.0046781248 -0.001644455 840.5932)
(0.0025844025 -0.0017479163 840.59439)
(0.0011740492 -0.0017944113 840.59508)
(-0.00022308882 -0.0018199631 840.5952)
(-0.001602436 -0.0018378416 840.59473)
(-0.0029481054 -0.001854533 840.59365)
(-0.0042408728 -0.0018764405 840.59195)
(-0.0054663648 -0.0019173738 840.58957)
(-0.0020204704 -0.0020204704 840.58633)
(0.0043045304 0.0043045304 835.07153)
(0.0098163354 0.0037644896 835.07469)
(0.0054228992 0.0036424263 835.07636)
(0.0029966182 0.0035917072 835.07738)
(0.00082651753 0.0035596158 835.0778)
(-0.0011699228 0.003529008 835.07762)
(-0.0029796559 0.0034863223 835.07687)
(-0.0045203076 0.0034052927 835.07557)
(-0.0055515445 0.0032091126 835.07378)
(-0.0019651409 0.0026336255 835.07162)
(0.0037644896 0.0098163354 835.07469)
(0.0088231793 0.0088231793 835.07744)
(0.0051637256 0.0085116894 835.07902)
(0.0028724024 0.0083461227 835.08001)
(0.00073246878 0.008226341 835.0804)
(-0.001279863 0.0081094607 835.08019)
(-0.0031652288 0.0079582406 835.0794)
(-0.0049361221 0.0077111269 835.07803)
(-0.0067090453 0.0072275806 835.07606)
(-0.002540628 0.0061454204 835.07337)
(0.0036424263 0.0054228992 835.07636)
(0.0085116894 0.0051637256 835.07902)
(0.0049458426 0.0049458426 835.08054)
(0.0027112699 0.0047725856 835.08148)
(0.00058985547 0.0046225762 835.08182)
(-0.0014380233 0.0044722755 835.08158)
(-0.0033779896 0.0042967434 835.08074)
(-0.0052509676 0.0040668526 835.07929)
(-0.007117251 0.0037594299 835.07721)
(-0.002686581 0.003441868 835.0744)
(0.0035917072 0.0029966182 835.07738)
(0.0083461227 0.0028724024 835.08001)
(0.0047725856 0.0027112699 835.08148)
(0.002549136 0.002549136 835.08237)
(0.00043215869 0.0023917524 835.08267)
(-0.0016056959 0.0022326728 835.08238)
(-0.0035706518 0.0020618735 835.08148)
(-0.0054734355 0.0018724892 835.07998)
(-0.0073340298 0.001674177 835.07783)
(-0.002752336 0.0015209583 835.07496)
(0.0035596158 0.00082651753 835.0778)
(0.008226341 0.00073246877 835.0804)
(0.0046225762 0.00058985547 835.08182)
(0.0023917524 0.00043215869 835.08267)
(0.00027339226 0.00027339227 835.08293)
(-0.0017679022 0.00011546077 835.08259)
(-0.0037381732 -4.3563184e-05 835.08165)
(-0.005638664 -0.00020173397 835.08009)
(-0.0074687818 -0.0003445703 835.07789)
(-0.0027887268 -0.00043779858 835.07499)
(0.003529008 -0.0011699228 835.07762)
(0.0081094607 -0.001279863 835.08019)
(0.0044722755 -0.0014380233 835.08158)
(0.0022326728 -0.0016056959 835.08238)
(0.00011546077 -0.0017679022 835.08259)
(-0.0019226513 -0.0019226513 835.0822)
(-0.0038878465 -0.0020715002 835.08122)
(-0.0057744426 -0.0022124193 835.07962)
(-0.0075700945 -0.0023335137 835.07738)
(-0.0028144881 -0.0024092138 835.07445)
(0.0034863223 -0.0029796559 835.07687)
(0.0079582406 -0.0031652288 835.0794)
(0.0042967434 -0.0033779896 835.08074)
(0.0020618735 -0.0035706518 835.08148)
(-4.3563184e-05 -0.0037381732 835.08165)
(-0.0020715002 -0.0038878465 835.08122)
(-0.0040279412 -0.0040279412 835.08019)
(-0.0059006776 -0.0041626308 835.07854)
(-0.0076655763 -0.0042865666 835.07627)
(-0.0028391935 -0.004374842 835.07332)
(0.0034052927 -0.0045203076 835.07557)
(0.0077111269 -0.0049361221 835.07803)
(0.0040668526 -0.0052509676 835.07929)
(0.0018724892 -0.0054734355 835.07998)
(-0.00020173397 -0.005638664 835.08009)
(-0.0022124193 -0.0057744426 835.07962)
(-0.0041626308 -0.0059006776 835.07854)
(-0.006033068 -0.006033068 835.07686)
(-0.0077823056 -0.006182969 835.07454)
(-0.0028733384 -0.0063366063 835.07155)
(0.0032091126 -0.0055515445 835.07378)
(0.0072275806 -0.0067090453 835.07606)
(0.0037594299 -0.007117251 835.07721)
(0.001674177 -0.0073340298 835.07783)
(-0.00034457029 -0.0074687818 835.07789)
(-0.0023335137 -0.0075700944 835.07738)
(-0.0042865666 -0.0076655763 835.07627)
(-0.006182969 -0.0077823056 835.07454)
(-0.0079691147 -0.0079691147 835.07216)
(-0.0029416184 -0.0083457025 835.06909)
(0.0026336255 -0.0019651409 835.07162)
(0.0061454204 -0.002540628 835.07337)
(0.003441868 -0.002686581 835.0744)
(0.0015209583 -0.002752336 835.07496)
(-0.00043779857 -0.0027887267 835.07499)
(-0.0024092138 -0.0028144881 835.07445)
(-0.004374842 -0.0028391935 835.07332)
(-0.0063366063 -0.0028733384 835.07155)
(-0.0083457025 -0.0029416184 835.06909)
(-0.0031243969 -0.0031243969 835.06578)
(0.0053183633 0.0053183633 829.62223)
(0.012127585 0.004649186 829.62517)
(0.0066910998 0.0044982736 829.62668)
(0.0036561665 0.0044349228 829.62758)
(0.00090034985 0.0043942526 829.6279)
(-0.0016681684 0.0043550049 829.62765)
(-0.0040305703 0.0042998953 829.62685)
(-0.0060878992 0.0041948634 829.62552)
(-0.0075419428 0.0039398173 829.62371)
(-0.0026874686 0.0031898471 829.62156)
(0.004649186 0.012127585 829.62517)
(0.010897451 0.010897451 829.62774)
(0.006369705 0.010511245 829.62917)
(0.003500135 0.0103036 829.63003)
(0.00078047297 0.010151451 829.63032)
(-0.0018097044 0.010001552 829.63005)
(-0.0042707825 0.0098065175 829.62921)
(-0.0066280162 0.0094867939 829.62781)
(-0.0090494673 0.0088598284 829.62583)
(-0.0034374387 0.0074543874 829.62317)
(0.0044982736 0.0066910998 829.62668)
(0.010511245 0.006369705 829.62917)
(0.0060972493 0.0060972493 829.63053)
(0.0032963717 0.0058783528 829.63135)
(0.00059830177 0.0056870855 829.6316)
(-0.0020131014 0.0054941732 829.63129)
(-0.0045453286 0.0052679887 829.63041)
(-0.0070345883 0.0049712381 829.62893)
(-0.0095743494 0.0045745474 829.62684)
(-0.0036244293 0.0041675693 829.62406)
(0.0044349228 0.0036561665 829.62758)
(0.0103036 0.003500135 829.63003)
(0.0058783528 0.0032963718 829.63135)
(0.0030899713 0.0030899713 829.63212)
(0.00039629337 0.0028884977 829.63233)
(-0.0022288012 0.0026839973 829.63198)
(-0.0047937176 0.0024638304 829.63104)
(-0.0073214575 0.0022194026 829.62951)
(-0.009853136 0.0019635853 829.62735)
(-0.0037087574 0.0017667541 829.62451)
(0.0043942526 0.00090034985 829.6279)
(0.010151451 0.00078047297 829.63032)
(0.0056870855 0.00059830177 829.6316)
(0.0028884977 0.00039629337 829.63233)
(0.00019232785 0.00019232785 829.6325)
(-0.0024377688 -1.112676e-05 829.6321)
(-0.0050099234 -0.00021648889 829.63112)
(-0.0075348333 -0.0004211231 829.62954)
(-0.010026998 -0.00060607154 829.62733)
(-0.00375565 -0.00072667158 829.62447)
(0.0043550049 -0.0016681684 829.62765)
(0.010001552 -0.0018097044 829.63005)
(0.0054941732 -0.0020131015 829.63129)
(0.0026839973 -0.0022288012 829.63198)
(-1.1126761e-05 -0.0024377688 829.6321)
(-0.0026376179 -0.0026376179 829.63166)
(-0.0052037139 -0.0028304958 829.63063)
(-0.0077110401 -0.0030138589 829.62901)
(-0.010158685 -0.0031721687 829.62677)
(-0.0037891574 -0.0032715758 829.62387)
(0.0042998953 -0.0040305703 829.62685)
(0.0098065175 -0.0042707825 829.62921)
(0.0052679887 -0.0045453286 829.63041)
(0.0024638304 -0.0047937176 829.63104)
(-0.0002164889 -0.0050099234 829.63112)
(-0.0028304958 -0.0052037139 829.63063)
(-0.0053861644 -0.0053861644 829.62956)
(-0.0078765062 -0.0055631594 829.6279)
(-0.010284715 -0.0057280254 829.62562)
(-0.0038219214 -0.0058471264 829.6227)
(0.0041948634 -0.0060878992 829.62552)
(0.0094867939 -0.0066280162 829.62781)
(0.0049712381 -0.0070345883 829.62893)
(0.0022194026 -0.0073214575 829.62951)
(-0.0004211231 -0.0075348334 829.62954)
(-0.0030138589 -0.0077110401 829.62901)
(-0.0055631594 -0.0078765062 829.6279)
(-0.0080529012 -0.0080529012 829.62619)
(-0.010442652 -0.0082569594 829.62387)
(-0.0038685581 -0.0084707154 829.62091)
(0.0039398173 -0.0075419428 829.62371)
(0.0088598284 -0.0090494673 829.62583)
(0.0045745474 -0.0095743494 829.62684)
(0.0019635853 -0.0098531361 829.62735)
(-0.00060607154 -0.010026998 829.62733)
(-0.0031721687 -0.010158685 829.62677)
(-0.0057280254 -0.010284715 829.62562)
(-0.0082569594 -0.010442652 829.62387)
(-0.010702529 -0.010702529 829.62148)
(-0.0039644254 -0.011237251 829.61845)
(0.0031898471 -0.0026874686 829.62156)
(0.0074543874 -0.0034374387 829.62317)
(0.0041675693 -0.0036244293 829.62406)
(0.0017667541 -0.0037087574 829.62451)
(-0.00072667158 -0.00375565 829.62447)
(-0.0032715758 -0.0037891574 829.62387)
(-0.0058471264 -0.0038219214 829.6227)
(-0.0084707154 -0.0038685581 829.62091)
(-0.011237251 -0.0039644254 829.61845)
(-0.0042250397 -0.0042250397 829.61518)
(0.0062694883 0.0062694883 824.24103)
(0.014272874 0.0054770514 824.24379)
(0.0078286971 0.0052989451 824.24517)
(0.0042128273 0.0052237558 824.24595)
(0.00089921461 0.0051749946 824.24619)
(-0.0022165055 0.0051275123 824.24589)
(-0.0051098625 0.0050604803 824.24506)
(-0.0076623532 0.0049323633 824.24373)
(-0.0095124716 0.0046207055 824.24194)
(-0.0033980218 0.0037030637 824.23984)
(0.0054770514 0.014272874 824.24379)
(0.012817059 0.012817059 824.24619)
(0.0074487537 0.012360643 824.24749)
(0.0040269016 0.01211356 824.24824)
(0.00075484942 0.011930857 824.24846)
(-0.002388277 0.011749495 824.24813)
(-0.005402586 0.011512444 824.24727)
(-0.0083220155 0.011122924 824.24586)
(-0.011356421 0.01035809 824.24391)
(-0.0043156636 0.0086421374 824.24132)
(0.0052989451 0.0078286971 824.24517)
(0.012360643 0.0074487537 824.24749)
(0.0071251982 0.0071251982 824.24873)
(0.0037830413 0.0068634284 824.24944)
(0.00053514925 0.0066331166 824.24962)
(-0.0026349187 0.0063995683 824.24925)
(-0.0057364332 0.0061248279 824.24834)
(-0.0088167069 0.0057638445 824.24687)
(-0.011993259 0.0052813986 824.24481)
(-0.0045419903 0.0047887045 824.24211)
(0.0052237558 0.0042128273 824.24595)
(0.01211356 0.0040269016 824.24824)
(0.0068634284 0.0037830413 824.24944)
(0.00353482 0.00353482 824.25011)
(0.00029098925 0.0032914456 824.25025)
(-0.0028965657 0.0030435328 824.24984)
(-0.0060383098 0.0027759842 824.24888)
(-0.0091654447 0.0024786209 824.24735)
(-0.012331561 0.0021675014 824.24523)
(-0.0046441263 0.0019288071 824.24247)
(0.0051749946 0.00089921461 824.24619)
(0.011930857 0.00075484941 824.24846)
(0.0066331166 0.00053514925 824.24962)
(0.0032914457 0.00029098925 824.25025)
(4.3862049e-05 4.3862061e-05 824.25034)
(-0.0031503802 -0.00020325204 824.2499)
(-0.006301345 -0.00045322813 824.24889)
(-0.0094251897 -0.00070271467 824.24732)
(-0.012543072 -0.00092835424 824.24515)
(-0.0047011199 -0.0010753764 824.24236)
(0.0051275123 -0.0022165055 824.24589)
(0.011749495 -0.002388277 824.24813)
(0.0063995683 -0.0026349187 824.24925)
(0.0030435328 -0.0028965657 824.24984)
(-0.00020325204 -0.0031503802 824.2499)
(-0.0033936559 -0.0033936558 824.24941)
(-0.0065377724 -0.0036291312 824.24836)
(-0.0096405709 -0.0038537422 824.24675)
(-0.012704223 -0.0040483339 824.24454)
(-0.0047421411 -0.004170874 824.24173)
(0.0050604803 -0.0051098625 824.24506)
(0.011512444 -0.005402586 824.24727)
(0.0061248279 -0.0057364332 824.24834)
(0.0027759842 -0.0060383098 824.24888)
(-0.00045322813 -0.006301345 824.24889)
(-0.0036291312 -0.0065377724 824.24836)
(-0.0067614313 -0.0067614313 824.24727)
(-0.0098443924 -0.0069798663 824.24562)
(-0.012860204 -0.0071850042 824.24338)
(-0.0047828133 -0.0073344377 824.24055)
(0.0049323633 -0.0076623532 824.24373)
(0.011122924 -0.0083220155 824.24586)
(0.0057638445 -0.0088167069 824.24687)
(0.0024786209 -0.0091654447 824.24735)
(-0.00070271468 -0.0094251897 824.24732)
(-0.0038537422 -0.0096405709 824.24675)
(-0.0069798663 -0.0098443924 824.24562)
(-0.010064144 -0.010064144 824.24392)
(-0.013058794 -0.010321646 824.24164)
(-0.0048417634 -0.01059439 824.23877)
(0.0046207055 -0.0095124716 824.24194)
(0.01035809 -0.011356421 824.24391)
(0.0052813986 -0.011993259 824.24481)
(0.0021675014 -0.012331561 824.24523)
(-0.00092835425 -0.012543072 824.24515)
(-0.0040483339 -0.012704223 824.24454)
(-0.0071850042 -0.012860204 824.24338)
(-0.010321646 -0.013058794 824.24164)
(-0.013390451 -0.013390451 824.23929)
(-0.0049646432 -0.014079005 824.23635)
(0.0037030637 -0.0033980218 824.23984)
(0.0086421374 -0.0043156636 824.24132)
(0.0047887045 -0.0045419903 824.24211)
(0.0019288071 -0.0046441263 824.24247)
(-0.0010753764 -0.0047011198 824.24236)
(-0.004170874 -0.0047421411 824.24173)
(-0.0073344377 -0.0047828133 824.24055)
(-0.01059439 -0.0048417634 824.23877)
(-0.014079005 -0.0049646432 824.23635)
(-0.0053007996 -0.0053007996 824.23318)
(0.007159725 0.007159725 818.92707)
(0.016263407 0.0062503037 818.92965)
(0.0088519804 0.006046564 818.9309)
(0.0046814257 0.0059602581 818.93159)
(0.00083772351 0.0059038761 818.93176)
(-0.0027974979 0.0058485904 818.93142)
(-0.0061944033 0.0057702134 818.93058)
(-0.0092140033 0.0056200996 818.92927)
(-0.011431365 0.0052544964 818.92753)
(-0.0040865393 0.0041771023 818.92551)
(0.0062503037 0.016263407 818.92965)
(0.014593666 0.014593666 818.93189)
(0.0084169121 0.0140712 818.93306)
(0.0044673938 0.013787099 818.93372)
(0.0006702219 0.013575612 818.93387)
(-0.002997992 0.013364441 818.93351)
(-0.0065371395 0.013087425 818.93264)
(-0.0099875787 0.012631421 818.93126)
(-0.013595861 0.011735252 818.92936)
(-0.0051639334 0.0097235904 818.92687)
(0.006046564 0.0088519804 818.9309)
(0.0140712 0.0084169121 818.93306)
(0.0080454139 0.0080454139 818.93419)
(0.0041858378 0.0077433707 818.93481)
(0.00041506522 0.0074762301 818.93492)
(-0.0032856849 0.0072041667 818.93452)
(-0.0069274232 0.0068832465 818.93361)
(-0.010566176 0.0064610881 818.93216)
(-0.014339196 0.0058969817 818.93016)
(-0.0054276469 0.0053228022 818.92757)
(0.0059602581 0.0046814257 818.93159)
(0.013787099 0.0044673938 818.93372)
(0.0077433707 0.0041858378 818.93481)
(0.00389821 0.00389821 818.93539)
(0.00013101783 0.0036152106 818.93546)
(-0.0035909756 0.0033260856 818.93503)
(-0.0072802181 0.0030134269 818.93406)
(-0.010973844 0.0026655975 818.93257)
(-0.014734147 0.00230176 818.93051)
(-0.0055467197 0.0020232153 818.92786)
(0.0059038761 0.00083772352 818.93176)
(0.013575612 0.00067022191 818.93387)
(0.0074762301 0.00041506522 818.93492)
(0.0036152106 0.00013101783 818.93546)
(-0.00015705915 -0.00015705914 818.9355)
(-0.0038874686 -0.00044572342 818.93502)
(-0.0075879113 -0.00073827607 818.93402)
(-0.011277843 -0.0010306432 818.93248)
(-0.014981578 -0.0012952051 818.93038)
(-0.0056133433 -0.0014674776 818.9277)
(0.0058485904 -0.0027974979 818.93142)
(0.013364441 -0.002997992 818.93351)
(0.0072041667 -0.0032856849 818.93452)
(0.0033260856 -0.0035909756 818.93503)
(-0.00044572342 -0.0038874686 818.93502)
(-0.0041721925 -0.0041721925 818.93451)
(-0.0078651378 -0.0044484602 818.93346)
(-0.011530773 -0.0047126841 818.93188)
(-0.015170981 -0.0049421799 818.92974)
(-0.005661568 -0.0050869768 818.92705)
(0.0057702134 -0.0061944033 818.93058)
(0.013087425 -0.0065371395 818.93264)
(0.0068832465 -0.0069274232 818.93361)
(0.0030134269 -0.0072802181 818.93406)
(-0.00073827608 -0.0075879113 818.93402)
(-0.0044484602 -0.0078651378 818.93346)
(-0.0081284029 -0.0081284029 818.93238)
(-0.011771563 -0.0083868262 818.93076)
(-0.015355871 -0.0086309134 818.92859)
(-0.0057098746 -0.0088096799 818.92587)
(0.0056200996 -0.0092140033 818.92927)
(0.012631421 -0.0099875787 818.93126)
(0.0064610881 -0.010566176 818.93216)
(0.0026655975 -0.010973844 818.93257)
(-0.0010306432 -0.011277843 818.93248)
(-0.0047126841 -0.011530773 818.93188)
(-0.0083868262 -0.011771563 818.93076)
(-0.012033283 -0.012033283 818.9291)
(-0.015593835 -0.012342561 818.92689)
(-0.0057807457 -0.012672334 818.92413)
(0.0052544964 -0.011431365 818.92753)
(0.011735252 -0.013595861 818.92936)
(0.0058969817 -0.014339196 818.93016)
(0.00230176 -0.014734147 818.93051)
(-0.0012952051 -0.014981578 818.93038)
(-0.0049421799 -0.015170981 818.92974)
(-0.0086309134 -0.015355871 818.92859)
(-0.012342561 -0.015593835 818.92689)
(-0.015994922 -0.015994922 818.92462)
(-0.0059297231 -0.016831843 818.92179)
(0.0041771023 -0.0040865393 818.92551)
(0.0097235904 -0.0051639334 818.92687)
(0.0053228022 -0.0054276469 818.92757)
(0.0020232153 -0.0055467197 818.92786)
(-0.0014674776 -0.0056133433 818.9277)
(-0.0050869768 -0.005661568 818.92705)
(-0.0088096799 -0.0057098746 818.92587)
(-0.012672334 -0.0057807457 818.92413)
(-0.016831843 -0.0059297231 818.92179)
(-0.0063386932 -0.0063386931 818.91875)
(0.0079875021 0.0079875021 813.67971)
(0.018100662 0.0069679944 813.6821)
(0.0097701752 0.0067402435 813.68323)
(0.00507355 0.006643546 813.68383)
(0.00072935849 0.0065800237 813.68395)
(-0.0033949375 0.0065173971 813.68358)
(-0.0072644736 0.0064283188 813.68275)
(-0.010720123 0.0062574368 813.68147)
(-0.013275959 0.0058408918 813.6798)
(-0.0047458648 0.0046126222 813.67787)
(0.0069679944 0.018100662 813.6821)
(0.016229774 0.016229774 813.68416)
(0.0092835026 0.015645513 813.68523)
(0.0048332203 0.015326816 813.6858)
(0.00054013511 0.015088359 813.68589)
(-0.0036224949 0.014849152 813.68551)
(-0.0076544141 0.014534451 813.68464)
(-0.011601264 0.014015693 813.6833)
(-0.015743181 0.012995544 813.68149)
(-0.0059741344 0.010704749 813.67912)
(0.0067402435 0.0097701752 813.68323)
(0.015645513 0.0092835026 813.68523)
(0.0088672175 0.0088672175 813.68624)
(0.0045163957 0.0085275144 813.68678)
(0.00025169468 0.0082258393 813.68684)
(-0.0039488454 0.0079175429 813.68642)
(-0.0080979331 0.0075530787 813.68551)
(-0.01225903 0.0070731848 813.68411)
(-0.016586903 0.0064320254 813.6822)
(-0.0062730611 0.0057810815 813.67974)
(0.006643546 0.00507355 813.68383)
(0.015326816 0.0048332204 813.6858)
(0.0085275143 0.0045163957 813.68678)
(0.0041918421 0.0041918421 813.68728)
(-6.9836345e-05 0.0038716211 813.6873)
(-0.0042952554 0.0035436809 813.68685)
(-0.0084987721 0.0031884505 813.6859)
(-0.012722317 0.0027929518 813.68445)
(-0.017035284 0.0023793272 813.68248)
(-0.006408097 0.0020631959 813.67997)
(0.0065800237 0.00072935848 813.68395)
(0.015088359 0.00054013511 813.68589)
(0.0082258393 0.00025169467 813.68684)
(0.0038716211 -6.9836341e-05 813.6873)
(-0.00039646656 -0.00039646654 813.68729)