/*--------------------------------*- C++ -*----------------------------------*\
| =========                 |                                                 |
| \\      /  F ield         | OpenFOAM: The Open Source CFD Toolbox           |
|  \\    /   O peration     | Version:  v2106                                 |
|   \\  /    A nd           | Website:  www.openfoam.com                      |
|    \\/     M anipulation  |                                                 |
\*---------------------------------------------------------------------------*/
FoamFile
{
    version     2.0;
    format      ascii;
    arch        "LSB;label=32;scalar=64";
    class       volScalarField;
    location    "62.5";
    object      gradTz;
}
// * * * * * * * * * * * * * * * * * * * * * * * * * * * * * * * * * * * * * //

dimensions      [0 -1 0 1 0 0 0];

internalField   nonuniform List<scalar> 
4000
(
572.65679
572.66015
572.66178
572.66274
572.6632
572.6632
572.6628
572.66206
572.66112
572.66022
572.66015
572.66311
572.66464
572.66558
572.666
572.66599
572.66556
572.66478
572.66371
572.6625
572.66178
572.66464
572.66611
572.667
572.6674
572.66735
572.66689
572.66605
572.66491
572.6636
572.66274
572.66558
572.667
572.66786
572.66822
572.66814
572.66764
572.66676
572.66556
572.66421
572.6632
572.666
572.6674
572.66822
572.66855
572.66844
572.6679
572.66698
572.66576
572.66438
572.6632
572.66599
572.66735
572.66814
572.66844
572.66828
572.66772
572.66677
572.66552
572.66412
572.6628
572.66556
572.66689
572.66764
572.6679
572.66772
572.66712
572.66614
572.66487
572.66346
572.66206
572.66478
572.66605
572.66676
572.66698
572.66677
572.66614
572.66514
572.66384
572.66242
572.66112
572.66371
572.66491
572.66556
572.66576
572.66552
572.66487
572.66384
572.66251
572.66106
572.66022
572.6625
572.6636
572.66421
572.66438
572.66412
572.66346
572.66242
572.66106
572.65957
846.17845
846.18259
846.18475
846.18608
846.18669
846.18666
846.18603
846.18489
846.18334
846.18163
846.18259
846.1862
846.18824
846.18952
846.1901
846.19004
846.18937
846.18815
846.18643
846.18417
846.18475
846.18824
846.1902
846.19142
846.19196
846.19185
846.19113
846.18984
846.18799
846.1856
846.18608
846.18952
846.19142
846.1926
846.19308
846.19293
846.19215
846.19079
846.18887
846.18642
846.18669
846.1901
846.19196
846.19308
846.19352
846.19332
846.19249
846.19108
846.18911
846.18662
846.18666
846.19004
846.19185
846.19293
846.19332
846.19306
846.19219
846.19073
846.18872
846.18621
846.18603
846.18937
846.19113
846.19215
846.19249
846.19219
846.19127
846.18977
846.18773
846.18519
846.18489
846.18815
846.18984
846.19079
846.19108
846.19073
846.18977
846.18823
846.18615
846.18358
846.18334
846.18643
846.18799
846.18887
846.18911
846.18872
846.18773
846.18615
846.18402
846.1814
846.18163
846.18417
846.1856
846.18642
846.18662
846.18621
846.18519
846.18358
846.1814
846.17863
840.58998
840.59344
840.59533
840.5965
840.59702
840.59691
840.59622
840.59499
840.59328
840.5912
840.59344
840.59648
840.59826
840.59939
840.59988
840.59975
840.59902
840.59771
840.59582
840.5932
840.59533
840.59826
840.59997
840.60105
840.60149
840.60132
840.60054
840.59916
840.59715
840.59439
840.5965
840.59939
840.60105
840.60207
840.60247
840.60225
840.60142
840.59997
840.59789
840.59508
840.59702
840.59988
840.60149
840.60247
840.60283
840.60255
840.60167
840.60017
840.59805
840.5952
840.59691
840.59975
840.60132
840.60225
840.60255
840.60224
840.60131
840.59977
840.5976
840.59473
840.59622
840.59902
840.60054
840.60142
840.60167
840.60131
840.60033
840.59875
840.59655
840.59365
840.59499
840.59771
840.59916
840.59997
840.60017
840.59977
840.59875
840.59712
840.59488
840.59195
840.59328
840.59582
840.59715
840.59789
840.59805
840.5976
840.59655
840.59488
840.59257
840.58957
840.5912
840.5932
840.59439
840.59508
840.5952
840.59473
840.59365
840.59195
840.58957
840.58633
835.07153
835.07469
835.07636
835.07738
835.0778
835.07762
835.07687
835.07557
835.07378
835.07162
835.07469
835.07744
835.07902
835.08001
835.0804
835.08019
835.0794
835.07803
835.07606
835.07337
835.07636
835.07902
835.08054
835.08148
835.08182
835.08158
835.08074
835.07929
835.07721
835.0744
835.07738
835.08001
835.08148
835.08237
835.08267
835.08238
835.08148
835.07998
835.07783
835.07496
835.0778
835.0804
835.08182
835.08267
835.08293
835.08259
835.08165
835.08009
835.07789
835.07499
835.07762
835.08019
835.08158
835.08238
835.08259
835.0822
835.08122
835.07962
835.07738
835.07445
835.07687
835.0794
835.08074
835.08148
835.08165
835.08122
835.08019
835.07854
835.07627
835.07332
835.07557
835.07803
835.07929
835.07998
835.08009
835.07962
835.07854
835.07686
835.07454
835.07155
835.07378
835.07606
835.07721
835.07783
835.07789
835.07738
835.07627
835.07454
835.07216
835.06909
835.07162
835.07337
835.0744
835.07496
835.07499
835.07445
835.07332
835.07155
835.06909
835.06578
829.62223
829.62517
829.62668
829.62758
829.6279
829.62765
829.62685
829.62552
829.62371
829.62156
829.62517
829.62774
829.62917
829.63003
829.63032
829.63005
829.62921
829.62781
829.62583
829.62317
829.62668
829.62917
829.63053
829.63135
829.6316
829.63129
829.63041
829.62893
829.62684
829.62406
829.62758
829.63003
829.63135
829.63212
829.63233
829.63198
829.63104
829.62951
829.62735
829.62451
829.6279
829.63032
829.6316
829.63233
829.6325
829.6321
829.63112
829.62954
829.62733
829.62447
829.62765
829.63005
829.63129
829.63198
829.6321
829.63166
829.63063
829.62901
829.62677
829.62387
829.62685
829.62921
829.63041
829.63104
829.63112
829.63063
829.62956
829.6279
829.62562
829.6227
829.62552
829.62781
829.62893
829.62951
829.62954
829.62901
829.6279
829.62619
829.62387
829.62091
829.62371
829.62583
829.62684
829.62735
829.62733
829.62677
829.62562
829.62387
829.62148
829.61845
829.62156
829.62317
829.62406
829.62451
829.62447
829.62387
829.6227
829.62091
829.61845
829.61518
824.24103
824.24379
824.24517
824.24595
824.24619
824.24589
824.24506
824.24373
824.24194
824.23984
824.24379
824.24619
824.24749
824.24824
824.24846
824.24813
824.24727
824.24586
824.24391
824.24132
824.24517
824.24749
824.24873
824.24944
824.24962
824.24925
824.24834
824.24687
824.24481
824.24211
824.24595
824.24824
824.24944
824.25011
824.25025
824.24984
824.24888
824.24735
824.24523
824.24247
824.24619
824.24846
824.24962
824.25025
824.25034
824.2499
824.24889
824.24732
824.24515
824.24236
824.24589
824.24813
824.24925
824.24984
824.2499
824.24941
824.24836
824.24675
824.24454
824.24173
824.24506
824.24727
824.24834
824.24888
824.24889
824.24836
824.24727
824.24562
824.24338
824.24055
824.24373
824.24586
824.24687
824.24735
824.24732
824.24675
824.24562
824.24392
824.24164
824.23877
824.24194
824.24391
824.24481
824.24523
824.24515
824.24454
824.24338
824.24164
824.23929
824.23635
824.23984
824.24132
824.24211
824.24247
824.24236
824.24173
824.24055
824.23877
824.23635
824.23318
818.92707
818.92965
818.9309
818.93159
818.93176
818.93142
818.93058
818.92927
818.92753
818.92551
818.92965
818.93189
818.93306
818.93372
818.93387
818.93351
818.93264
818.93126
818.92936
818.92687
818.9309
818.93306
818.93419
818.93481
818.93492
818.93452
818.93361
818.93216
818.93016
818.92757
818.93159
818.93372
818.93481
818.93539
818.93546
818.93503
818.93406
818.93257
818.93051
818.92786
818.93176
818.93387
818.93492
818.93546
818.9355
818.93502
818.93402
818.93248
818.93038
818.9277
818.93142
818.93351
818.93452
818.93503
818.93502
818.93451
818.93346
818.93188
818.92974
818.92705
818.93058
818.93264
818.93361
818.93406
818.93402
818.93346
818.93238
818.93076
818.92859
818.92587
818.92927
818.93126
818.93216
818.93257
818.93248
818.93188
818.93076
818.9291
818.92689
818.92413
818.92753
818.92936
818.93016
818.93051
818.93038
818.92974
818.92859
818.92689
818.92462
818.92179
818.92551
818.92687
818.92757
818.92786
818.9277
818.92705
818.92587
818.92413
818.92179
818.91875
813.67971
813.6821
813.68323
813.68383
813.68395
813.68358
813.68275
813.68147
813.6798
813.67787
813.6821
813.68416
813.68523
813.6858
813.68589
813.68551
813.68464
813.6833
813.68149
813.67912
813.68323
813.68523
813.68624
813.68678
813.68684
813.68642
813.68551
813.68411
813.6822
813.67974
813.68383
813.6858
813.68678
813.68728
813.6873
813.68685
813.6859
813.68445
813.68248
813.67997
813.68395
813.68589
813.68684
813.6873
813.68729
813.6868
813.68581
813.68432
813.68231
813.67977
813.68358
813.68551
813.68642
813.68685
813.6868
813.68627
813.68524
813.68371
813.68167
813.67911
813.68275
813.68464
813.68551
813.6859
813.68581
813.68524
813.68418
813.68261
813.68054
813.67796
813.68147
813.6833
813.68411
813.68445
813.68432
813.68371
813.68261
813.68101
813.6789
813.67629
813.6798
813.68149
813.6822
813.68248
813.68231
813.68167
813.68054
813.6789
813.67673
813.67405
813.67787
813.67912
813.67974
813.67997
813.67977
813.67911
813.67796
813.67629
813.67405
813.67116
808.4985
808.50069
808.50171
808.50223
808.50229
808.50191
808.5011
808.49988
808.4983
808.49648
808.50069
808.50258
808.50353
808.50403
808.50407
808.50367
808.50283
808.50156
808.49983
808.49761
808.50171
808.50353
808.50444
808.5049
808.50492
808.50449
808.50361
808.50227
808.50047
808.49815
808.50223
808.50403
808.5049
808.50533
808.50531
808.50485
808.50393
808.50255
808.50069
808.49833
808.50229
808.50407
808.50492
808.50531
808.50526
808.50476
808.50381
808.50239
808.50049
808.49811
808.50191
808.50367
808.50449
808.50485
808.50476
808.50423
808.50324
808.50178
808.49986
808.49745
808.5011
808.50283
808.50361
808.50393
808.50381
808.50324
808.50221
808.50072
808.49877
808.49634
808.49988
808.50156
808.50227
808.50255
808.50239
808.50178
808.50072
808.4992
808.4972
808.49475
808.4983
808.49983
808.50047
808.50069
808.50049
808.49986
808.49877
808.4972
808.49516
808.49263
808.49648
808.49761
808.49815
808.49833
808.49811
808.49745
808.49634
808.49475
808.49263
808.48992
803.38322
803.3852
803.3861
803.38654
803.38657
803.38618
803.38541
803.38425
803.38277
803.38108
803.3852
803.3869
803.38775
803.38817
803.38817
803.38777
803.38697
803.38576
803.38415
803.38209
803.3861
803.38775
803.38855
803.38894
803.38892
803.38849
803.38765
803.38639
803.3847
803.38255
803.38654
803.38817
803.38894
803.3893
803.38925
803.38879
803.38791
803.38661
803.38487
803.38268
803.38657
803.38817
803.38892
803.38925
803.38917
803.38867
803.38776
803.38642
803.38465
803.38244
803.38618
803.38777
803.38849
803.38879
803.38867
803.38815
803.3872
803.38583
803.38404
803.38181
803.38541
803.38697
803.38765
803.38791
803.38776
803.3872
803.38623
803.38483
803.383
803.38075
803.38425
803.38576
803.38639
803.38661
803.38642
803.38583
803.38483
803.38339
803.38153
803.37925
803.38277
803.38415
803.3847
803.38487
803.38465
803.38404
803.383
803.38153
803.37962
803.37728
803.38108
803.38209
803.38255
803.38268
803.38244
803.38181
803.38075
803.37925
803.37728
803.37476
798.3338
798.33556
798.33635
798.33672
798.33671
798.33633
798.33559
798.33452
798.33315
798.33159
798.33556
798.33708
798.33781
798.33816
798.33814
798.33774
798.33698
798.33586
798.33437
798.33248
798.33635
798.33781
798.33851
798.33883
798.33878
798.33836
798.33757
798.3364
798.33484
798.33287
798.33672
798.33816
798.33883
798.33912
798.33905
798.3386
798.33777
798.33656
798.33496
798.33295
798.33671
798.33814
798.33878
798.33905
798.33894
798.33846
798.33761
798.33636
798.33473
798.3327
798.33633
798.33774
798.33836
798.3386
798.33846
798.33795
798.33707
798.3358
798.33414
798.3321
798.33559
798.33698
798.33757
798.33777
798.33761
798.33707
798.33615
798.33485
798.33317
798.33111
798.33452
798.33586
798.3364
798.33656
798.33636
798.3358
798.33485
798.33352
798.33181
798.32972
798.33315
798.33437
798.33484
798.33496
798.33473
798.33414
798.33317
798.33181
798.33005
798.3279
798.33159
798.33248
798.33287
798.33295
798.3327
798.3321
798.33111
798.32972
798.3279
798.32559
793.35035
793.35189
793.35256
793.35286
793.35282
793.35245
793.35176
793.35078
793.34953
793.34812
793.35189
793.35322
793.35384
793.35412
793.35406
793.35368
793.35297
793.35194
793.35059
793.34888
793.35256
793.35384
793.35443
793.35468
793.35461
793.3542
793.35346
793.35239
793.35098
793.34919
793.35286
793.35412
793.35468
793.35491
793.35481
793.35438
793.35361
793.35251
793.35105
793.34924
793.35282
793.35406
793.35461
793.35481
793.35469
793.35423
793.35344
793.3523
793.35082
793.34899
793.35245
793.35368
793.3542
793.35438
793.35423
793.35375
793.35292
793.35176
793.35026
793.34841
793.35176
793.35297
793.35346
793.35361
793.35344
793.35292
793.35208
793.35089
793.34936
793.3475
793.35078
793.35194
793.35239
793.35251
793.3523
793.35176
793.35089
793.34968
793.34812
793.34623
793.34953
793.35059
793.35098
793.35105
793.35082
793.35026
793.34936
793.34812
793.34652
793.34458
793.34812
793.34888
793.34919
793.34924
793.34899
793.34841
793.3475
793.34623
793.34458
793.34249
788.43311
788.43442
788.43498
788.43521
788.43514
788.43478
788.43415
788.43326
788.43214
788.43088
788.43442
788.43555
788.43606
788.43627
788.43619
788.43583
788.43518
788.43425
788.43304
788.43152
788.43498
788.43606
788.43655
788.43674
788.43664
788.43625
788.43558
788.43461
788.43335
788.43176
788.43521
788.43627
788.43674
788.43691
788.43679
788.43638
788.43568
788.43468
788.43338
788.43177
788.43514
788.43619
788.43664
788.43679
788.43665
788.43621
788.43549
788.43447
788.43315
788.43152
788.43478
788.43583
788.43625
788.43638
788.43621
788.43576
788.43501
788.43397
788.43263
788.43098
788.43415
788.43518
788.43558
788.43568
788.43549
788.43501
788.43424
788.43317
788.43181
788.43016
788.43326
788.43425
788.43461
788.43468
788.43447
788.43397
788.43317
788.43208
788.4307
788.42902
788.43214
788.43304
788.43335
788.43338
788.43315
788.43263
788.43181
788.4307
788.42927
788.42755
788.43088
788.43152
788.43176
788.43177
788.43152
788.43098
788.43016
788.42902
788.42755
788.42569
783.58244
783.58351
783.58395
783.58411
783.58402
783.58368
783.58311
783.58232
783.58134
783.58024
783.58351
783.58443
783.58484
783.58498
783.58488
783.58454
783.58395
783.58313
783.58207
783.58074
783.58395
783.58484
783.58521
783.58534
783.58523
783.58486
783.58426
783.5834
783.5823
783.58092
783.58411
783.58498
783.58534
783.58545
783.58532
783.58494
783.58431
783.58343
783.5823
783.58089
783.58402
783.58488
783.58523
783.58532
783.58517
783.58476
783.58412
783.58322
783.58206
783.58065
783.58368
783.58454
783.58486
783.58494
783.58476
783.58434
783.58368
783.58276
783.58158
783.58016
783.58311
783.58395
783.58426
783.58431
783.58412
783.58368
783.58299
783.58205
783.58086
783.57942
783.58232
783.58313
783.5834
783.58343
783.58322
783.58276
783.58205
783.58109
783.57988
783.57842
783.58134
783.58207
783.5823
783.5823
783.58206
783.58158
783.58086
783.57988
783.57863
783.57713
783.58024
783.58074
783.58092
783.58089
783.58065
783.58016
783.57942
783.57842
783.57713
783.57552
778.79877
778.79961
778.79993
778.80002
778.79991
778.7996
778.79909
778.79841
778.79757
778.79664
778.79961
778.80033
778.80062
778.8007
778.80058
778.80026
778.79974
778.79903
778.79813
778.79701
778.79993
778.80062
778.80089
778.80096
778.80082
778.80049
778.79996
778.79922
778.79828
778.79712
778.80002
778.8007
778.80096
778.80101
778.80086
778.80051
778.79996
778.79921
778.79824
778.79706
778.79991
778.80058
778.80082
778.80086
778.8007
778.80033
778.79977
778.79899
778.79801
778.79682
778.7996
778.80026
778.80049
778.80051
778.80033
778.79995
778.79937
778.79858
778.79758
778.79638
778.79909
778.79974
778.79996
778.79996
778.79977
778.79937
778.79877
778.79796
778.79695
778.79574
778.79841
778.79903
778.79922
778.79921
778.79899
778.79858
778.79796
778.79714
778.79611
778.79488
778.79757
778.79813
778.79828
778.79824
778.79801
778.79758
778.79695
778.79611
778.79505
778.79378
778.79664
778.79701
778.79712
778.79706
778.79682
778.79638
778.79574
778.79488
778.79378
778.79241
774.08263
774.08324
774.08344
774.08347
774.08334
774.08305
774.08262
774.08204
774.08135
774.08059
774.08324
774.08375
774.08393
774.08395
774.08381
774.08352
774.08308
774.08248
774.08174
774.08083
774.08344
774.08393
774.0841
774.08411
774.08396
774.08366
774.0832
774.08259
774.08181
774.08087
774.08347
774.08395
774.08411
774.0841
774.08395
774.08363
774.08316
774.08253
774.08174
774.08078
774.08334
774.08381
774.08396
774.08395
774.08378
774.08345
774.08296
774.08232
774.08151
774.08055
774.08305
774.08352
774.08366
774.08363
774.08345
774.08311
774.08261
774.08195
774.08114
774.08016
774.08262
774.08308
774.0832
774.08316
774.08296
774.08261
774.0821
774.08143
774.0806
774.07962
774.08204
774.08248
774.08259
774.08253
774.08232
774.08195
774.08143
774.08075
774.0799
774.07891
774.08135
774.08174
774.08181
774.08174
774.08151
774.08114
774.0806
774.0799
774.07904
774.07801
774.08059
774.08083
774.08087
774.08078
774.08055
774.08016
774.07962
774.07891
774.07801
774.0769
769.43461
769.43498
769.43506
769.43503
769.43488
769.43462
769.43426
769.4338
769.43326
769.43266
769.43498
769.43528
769.43535
769.43531
769.43516
769.4349
769.43453
769.43406
769.43348
769.43277
769.43506
769.43535
769.43542
769.43537
769.43521
769.43494
769.43456
769.43408
769.43347
769.43275
769.43503
769.43531
769.43537
769.43531
769.43515
769.43487
769.43448
769.43398
769.43337
769.43263
769.43488
769.43516
769.43521
769.43515
769.43497
769.43469
769.43429
769.43378
769.43315
769.43241
769.43462
769.4349
769.43494
769.43487
769.43469
769.43439
769.43398
769.43346
769.43283
769.43208
769.43426
769.43453
769.43456
769.43448
769.43429
769.43398
769.43357
769.43304
769.4324
769.43164
769.4338
769.43406
769.43408
769.43398
769.43378
769.43346
769.43304
769.4325
769.43184
769.43108
769.43326
769.43348
769.43347
769.43337
769.43315
769.43283
769.4324
769.43184
769.43117
769.43038
769.43266
769.43277
769.43275
769.43263
769.43241
769.43208
769.43164
769.43108
769.43038
769.42953
764.85531
764.85545
764.85542
764.85532
764.85516
764.85493
764.85465
764.8543
764.85391
764.85348
764.85545
764.85555
764.85551
764.85541
764.85525
764.85502
764.85473
764.85437
764.85396
764.85347
764.85542
764.85551
764.85547
764.85537
764.8552
764.85497
764.85467
764.85431
764.85388
764.85338
764.85532
764.85541
764.85537
764.85526
764.85509
764.85485
764.85455
764.85418
764.85374
764.85323
764.85516
764.85525
764.8552
764.85509
764.85491
764.85467
764.85436
764.85398
764.85354
764.85303
764.85493
764.85502
764.85497
764.85485
764.85467
764.85442
764.8541
764.85372
764.85327
764.85276
764.85465
764.85473
764.85467
764.85455
764.85436
764.8541
764.85378
764.8534
764.85294
764.85242
764.8543
764.85437
764.85431
764.85418
764.85398
764.85372
764.8534
764.853
764.85254
764.85201
764.85391
764.85396
764.85388
764.85374
764.85354
764.85327
764.85294
764.85254
764.85206
764.85152
764.85348
764.85347
764.85338
764.85323
764.85303
764.85276
764.85242
764.85201
764.85152
764.85092
760.34538
760.34528
760.34514
760.34498
760.34481
760.34461
760.3444
760.34417
760.34393
760.34368
760.34528
760.34517
760.34504
760.34488
760.3447
760.34451
760.3443
760.34406
760.34381
760.34354
760.34514
760.34504
760.3449
760.34474
760.34457
760.34437
760.34416
760.34392
760.34366
760.34339
760.34498
760.34488
760.34474
760.34458
760.34441
760.34421
760.34399
760.34376
760.3435
760.34322
760.34481
760.3447
760.34457
760.34441
760.34423
760.34403
760.34381
760.34357
760.34331
760.34303
760.34461
760.34451
760.34437
760.34421
760.34403
760.34383
760.34361
760.34337
760.3431
760.34282
760.3444
760.3443
760.34416
760.34399
760.34381
760.34361
760.34338
760.34314
760.34287
760.34259
760.34417
760.34406
760.34392
760.34376
760.34357
760.34337
760.34314
760.34289
760.34262
760.34233
760.34393
760.34381
760.34366
760.3435
760.34331
760.3431
760.34287
760.34262
760.34234
760.34204
760.34368
760.34354
760.34339
760.34322
760.34303
760.34282
760.34259
760.34233
760.34204
760.34171
755.90544
755.90511
755.90486
755.90465
755.90446
755.9043
755.90417
755.90406
755.90396
755.90389
755.90511
755.90481
755.90457
755.90436
755.90417
755.90402
755.90388
755.90377
755.90368
755.90362
755.90486
755.90457
755.90434
755.90413
755.90395
755.90379
755.90366
755.90355
755.90347
755.90341
755.90465
755.90436
755.90413
755.90392
755.90374
755.90359
755.90346
755.90335
755.90327
755.90322
755.90446
755.90417
755.90395
755.90374
755.90356
755.90341
755.90328
755.90318
755.9031
755.90305
755.9043
755.90402
755.90379
755.90359
755.90341
755.90326
755.90313
755.90303
755.90295
755.9029
755.90417
755.90388
755.90366
755.90346
755.90328
755.90313
755.90301
755.9029
755.90283
755.90277
755.90406
755.90377
755.90355
755.90335
755.90318
755.90303
755.9029
755.9028
755.90272
755.90267
755.90396
755.90368
755.90347
755.90327
755.9031
755.90295
755.90283
755.90272
755.90264
755.90258
755.90389
755.90362
755.90341
755.90322
755.90305
755.9029
755.90277
755.90267
755.90258
755.90251
751.53613
751.53557
751.53522
751.53495
751.53475
751.53463
751.53457
751.53458
751.53463
751.53472
751.53557
751.53508
751.53474
751.53448
751.53428
751.53416
751.53411
751.53412
751.53419
751.53434
751.53522
751.53474
751.53441
751.53415
751.53397
751.53385
751.5338
751.53382
751.53391
751.53407
751.53495
751.53448
751.53415
751.5339
751.53372
751.53361
751.53357
751.5336
751.53369
751.53386
751.53475
751.53428
751.53397
751.53372
751.53355
751.53344
751.5334
751.53344
751.53354
751.53371
751.53463
751.53416
751.53385
751.53361
751.53344
751.53334
751.53331
751.53334
751.53345
751.53362
751.53457
751.53411
751.5338
751.53357
751.5334
751.53331
751.53328
751.53332
751.53343
751.5336
751.53458
751.53412
751.53382
751.5336
751.53344
751.53334
751.53332
751.53336
751.53347
751.53365
751.53463
751.53419
751.53391
751.53369
751.53354
751.53345
751.53343
751.53347
751.53358
751.53376
751.53472
751.53434
751.53407
751.53386
751.53371
751.53362
751.5336
751.53365
751.53376
751.53394
747.23803
747.23726
747.2368
747.23648
747.23628
747.23619
747.23621
747.23633
747.23653
747.23679
747.23726
747.23657
747.23614
747.23583
747.23563
747.23555
747.23557
747.23571
747.23594
747.23629
747.2368
747.23614
747.23573
747.23542
747.23523
747.23516
747.23519
747.23534
747.23559
747.23597
747.23648
747.23583
747.23542
747.23513
747.23495
747.23488
747.23493
747.23508
747.23535
747.23574
747.23628
747.23563
747.23523
747.23495
747.23478
747.23472
747.23477
747.23494
747.23521
747.23561
747.23619
747.23555
747.23516
747.23488
747.23472
747.23467
747.23473
747.2349
747.23519
747.23558
747.23621
747.23557
747.23519
747.23493
747.23477
747.23473
747.2348
747.23498
747.23527
747.23567
747.23633
747.23571
747.23534
747.23508
747.23494
747.2349
747.23498
747.23516
747.23546
747.23586
747.23653
747.23594
747.23559
747.23535
747.23521
747.23519
747.23527
747.23546
747.23576
747.23617
747.23679
747.23629
747.23597
747.23574
747.23561
747.23558
747.23567
747.23586
747.23617
747.23661
743.0117
743.01072
743.01017
743.00981
743.0096
743.00954
743.00964
743.00987
743.01022
743.01064
743.01072
743.00986
743.00934
743.00898
743.00878
743.00873
743.00884
743.00909
743.00948
743.01003
743.01017
743.00934
743.00884
743.00849
743.0083
743.00827
743.00838
743.00865
743.00907
743.00966
743.00981
743.00898
743.00849
743.00816
743.00798
743.00796
743.00809
743.00837
743.00881
743.00941
743.0096
743.00878
743.0083
743.00798
743.00782
743.0078
743.00795
743.00824
743.00869
743.0093
743.00954
743.00873
743.00827
743.00796
743.0078
743.0078
743.00796
743.00826
743.00872
743.00934
743.00964
743.00884
743.00838
743.00809
743.00795
743.00796
743.00812
743.00844
743.0089
743.00952
743.00987
743.00909
743.00865
743.00837
743.00824
743.00826
743.00844
743.00876
743.00924
743.00986
743.01022
743.00948
743.00907
743.00881
743.00869
743.00872
743.0089
743.00924
743.00973
743.01037
743.01064
743.01003
743.00966
743.00941
743.0093
743.00934
743.00952
743.00986
743.01037
743.01105
738.85765
738.85647
738.85583
738.85542
738.85521
738.85519
738.85536
738.8557
738.85619
738.85677
738.85647
738.85544
738.85483
738.85443
738.85423
738.85422
738.8544
738.85477
738.85531
738.85606
738.85583
738.85483
738.85425
738.85386
738.85368
738.85368
738.85388
738.85427
738.85485
738.85564
738.85542
738.85443
738.85386
738.8535
738.85332
738.85334
738.85356
738.85396
738.85457
738.85537
738.85521
738.85423
738.85368
738.85332
738.85316
738.8532
738.85343
738.85385
738.85447
738.85529
738.85519
738.85422
738.85368
738.85334
738.8532
738.85325
738.85349
738.85393
738.85456
738.85538
738.85536
738.8544
738.85388
738.85356
738.85343
738.85349
738.85375
738.8542
738.85484
738.85567
738.8557
738.85477
738.85427
738.85396
738.85385
738.85393
738.8542
738.85466
738.85532
738.85616
738.85619
738.85531
738.85485
738.85457
738.85447
738.85456
738.85484
738.85532
738.85599
738.85685
738.85677
738.85606
738.85564
738.85537
738.85529
738.85538
738.85567
738.85616
738.85685
738.85777
734.77632
734.77495
734.77422
734.77376
734.77355
734.77357
734.77381
734.77426
734.77489
734.77562
734.77495
734.77375
734.77306
734.77262
734.77242
734.77245
734.77271
734.77318
734.77387
734.77481
734.77422
734.77306
734.7724
734.77198
734.7718
734.77184
734.77212
734.77262
734.77336
734.77434
734.77376
734.77262
734.77198
734.77158
734.77141
734.77148
734.77177
734.7723
734.77306
734.77407
734.77355
734.77242
734.7718
734.77141
734.77126
734.77134
734.77166
734.77221
734.77299
734.77401
734.77357
734.77245
734.77184
734.77148
734.77134
734.77144
734.77178
734.77234
734.77314
734.77416
734.77381
734.77271
734.77212
734.77177
734.77166
734.77178
734.77213
734.7727
734.77351
734.77455
734.77426
734.77318
734.77262
734.7723
734.77221
734.77234
734.7727
734.7733
734.77412
734.77517
734.77489
734.77387
734.77336
734.77306
734.77299
734.77314
734.77351
734.77412
734.77497
734.77605
734.77562
734.77481
734.77434
734.77407
734.77401
734.77416
734.77455
734.77517
734.77605
734.77719
730.76805
730.7665
730.7657
730.7652
730.76499
730.76505
730.76536
730.76591
730.76667
730.76755
730.7665
730.76515
730.76439
730.76391
730.76371
730.76378
730.76411
730.7647
730.76553
730.76665
730.7657
730.76439
730.76366
730.76321
730.76303
730.76311
730.76347
730.76408
730.76497
730.76614
730.7652
730.76391
730.76321
730.76277
730.76261
730.76272
730.7631
730.76374
730.76466
730.76586
730.76499
730.76371
730.76303
730.76261
730.76247
730.7626
730.763
730.76367
730.76461
730.76582
730.76505
730.76378
730.76311
730.76272
730.7626
730.76275
730.76317
730.76386
730.76481
730.76603
730.76536
730.76411
730.76347
730.7631
730.763
730.76317
730.76361
730.76431
730.76528
730.76652
730.76591
730.7647
730.76408
730.76374
730.76367
730.76386
730.76431
730.76504
730.76603
730.76727
730.76667
730.76553
730.76497
730.76466
730.76461
730.76481
730.76528
730.76603
730.76704
730.76832
730.76755
730.76665
730.76614
730.76586
730.76582
730.76603
730.76652
730.76727
730.76832
730.76969
726.83313
726.83141
726.83054
726.83001
726.8298
726.8299
726.83028
726.83093
726.83181
726.83283
726.83141
726.82992
726.82909
726.82858
726.82839
726.8285
726.8289
726.82959
726.83056
726.83184
726.83054
726.82909
726.8283
726.82782
726.82764
726.82777
726.8282
726.82892
726.82995
726.8313
726.83001
726.82858
726.82782
726.82736
726.82721
726.82736
726.82782
726.82857
726.82963
726.83101
726.8298
726.82839
726.82764
726.82721
726.82708
726.82726
726.82774
726.82852
726.8296
726.831
726.8299
726.8285
726.82777
726.82736
726.82726
726.82746
726.82796
726.82876
726.82987
726.83127
726.83028
726.8289
726.8282
726.82782
726.82774
726.82796
726.82848
726.82931
726.83043
726.83185
726.83093
726.82959
726.82892
726.82857
726.82852
726.82876
726.82931
726.83015
726.8313
726.83273
726.83181
726.83056
726.82995
726.82963
726.8296
726.82987
726.83043
726.8313
726.83247
726.83395
726.83283
726.83184
726.8313
726.83101
726.831
726.83127
726.83185
726.83273
726.83395
726.83552
722.97174
722.96987
722.96893
722.96837
722.96817
722.9683
722.96875
722.9695
722.9705
722.97165
722.96987
722.96824
722.96735
722.96682
722.96663
722.96678
722.96725
722.96804
722.96914
722.97059
722.96893
722.96735
722.9665
722.966
722.96583
722.966
722.9665
722.96733
722.96849
722.97001
722.96837
722.96682
722.966
722.96552
722.96538
722.96558
722.96611
722.96697
722.96817
722.96972
722.96817
722.96663
722.96583
722.96538
722.96527
722.96549
722.96605
722.96694
722.96817
722.96973
722.9683
722.96678
722.966
722.96558
722.96549
722.96574
722.96632
722.96724
722.96849
722.97007
722.96875
722.96725
722.9665
722.96611
722.96605
722.96632
722.96693
722.96787
722.96914
722.97073
722.9695
722.96804
722.96733
722.96697
722.96694
722.96724
722.96787
722.96883
722.97013
722.97174
722.9705
722.96914
722.96849
722.96817
722.96817
722.96849
722.96914
722.97013
722.97145
722.97311
722.97165
722.97059
722.97001
722.96972
722.96973
722.97007
722.97073
722.97174
722.97311
722.97488
719.18396
719.18195
719.18095
719.18037
719.18018
719.18035
719.18087
719.18171
719.18282
719.1841
719.18195
719.1802
719.17926
719.17871
719.17853
719.17872
719.17926
719.18014
719.18136
719.18296
719.18095
719.17926
719.17836
719.17784
719.17768
719.1779
719.17847
719.17939
719.18068
719.18236
719.18037
719.17871
719.17784
719.17734
719.17722
719.17746
719.17806
719.17903
719.18036
719.18207
719.18018
719.17853
719.17768
719.17722
719.17712
719.17739
719.17802
719.17902
719.18038
719.18211
719.18035
719.17872
719.1779
719.17746
719.17739
719.17769
719.17835
719.17937
719.18075
719.1825
719.18087
719.17926
719.17847
719.17806
719.17802
719.17835
719.17903
719.18008
719.18149
719.18325
719.18171
719.18014
719.17939
719.17903
719.17902
719.17937
719.18008
719.18116
719.18259
719.18437
719.18282
719.18136
719.18068
719.18036
719.18038
719.18075
719.18149
719.18259
719.18406
719.18589
719.1841
719.18296
719.18236
719.18207
719.18211
719.1825
719.18325
719.18437
719.18589
719.18785
715.46977
715.46763
715.46658
715.46599
715.46581
715.46602
715.4666
715.46752
715.46874
715.47014
715.46763
715.46577
715.46479
715.46422
715.46406
715.46428
715.46489
715.46586
715.4672
715.46894
715.46658
715.46479
715.46384
715.46331
715.46317
715.46342
715.46406
715.46509
715.4665
715.46832
715.46599
715.46422
715.46331
715.4628
715.46269
715.46298
715.46365
715.46472
715.46617