/*--------------------------------*- C++ -*----------------------------------*\
| =========                 |                                                 |
| \\      /  F ield         | OpenFOAM: The Open Source CFD Toolbox           |
|  \\    /   O peration     | Version:  v2106                                 |
|   \\  /    A nd           | Website:  www.openfoam.com                      |
|    \\/     M anipulation  |                                                 |
\*---------------------------------------------------------------------------*/
FoamFile
{
    version     2.0;
    format      ascii;
    arch        "LSB;label=32;scalar=64";
    class       volScalarField;
    location    "62.5";
    object      gradTy;
}
// * * * * * * * * * * * * * * * * * * * * * * * * * * * * * * * * * * * * * //

dimensions      [0 -1 0 1 0 0 0];

internalField   nonuniform List<scalar> 
4000
(
0.00045679953
0.00040502249
0.00039302305
0.00038836534
0.00038563363
0.00038313194
0.00037972281
0.00037345375
0.00035933529
0.00032499328
0.0010037793
0.00090811456
0.00087807926
0.0008632584
0.00085316119
0.00084361209
0.00083147203
0.00081203954
0.00077580501
0.00070559066
0.00050567802
0.00048069229
0.00046082187
0.00044591416
0.00043344741
0.00042119328
0.00040703057
0.00038860098
0.00036400078
0.0003371081
0.00027422541
0.00026314128
0.00024930735
0.00023576682
0.00022284709
0.00020992624
0.00019614105
0.00018090012
0.00016490466
0.00015228451
8.7967556e-05
8.0117465e-05
6.8321246e-05
5.5396576e-05
4.2480655e-05
2.9712788e-05
1.6925193e-05
4.2598678e-06
-7.1546538e-06
-1.4629707e-05
-7.410009e-05
-8.2966328e-05
-9.5789262e-05
-0.00010938318
-0.0001224953
-0.00013493863
-0.00014681316
-0.00015792832
-0.00016733
-0.00017309345
-0.00021244992
-0.00022696722
-0.00024402248
-0.00025955951
-0.0002730486
-0.00028501244
-0.00029603829
-0.00030633222
-0.00031531706
-0.000321177
-0.00031353593
-0.00034411719
-0.00036920295
-0.00038714698
-0.00040043934
-0.00041122684
-0.00042095617
-0.00043050559
-0.00043997048
-0.0004475037
-0.00033504136
-0.00040773207
-0.00044149023
-0.00045922495
-0.00047010584
-0.00047811451
-0.00048527096
-0.0004929593
-0.00050226906
-0.00051246047
-0.00010601006
-0.00014035207
-0.00015281962
-0.00015828052
-0.00016123305
-0.00016326389
-0.00016507535
-0.00016717052
-0.0001700975
-0.0001739648
0.0019932104
0.0017425612
0.0016870168
0.0016651344
0.0016519534
0.001639759
0.0016230366
0.0015917389
0.0015172167
0.0013026029
0.0044679702
0.0040086798
0.0038693229
0.0037990317
0.0037501866
0.0037036508
0.0036442287
0.0035480847
0.0033620313
0.0029508348
0.0023685312
0.0022523911
0.0021588831
0.0020872026
0.0020266808
0.0019669533
0.0018977741
0.0018075267
0.0016866174
0.0015575962
0.0013060137
0.0012534185
0.0011868773
0.0011212162
0.0010583266
0.00099531034
0.00092800522
0.00085354061
0.00077538505
0.00071403023
0.0004128408
0.00037477767
0.0003174599
0.00025452832
0.00019155401
0.00012923904
6.6775846e-05
4.8666642e-06
-5.0951152e-05
-8.7493641e-05
-0.00037686059
-0.00042023578
-0.00048281845
-0.0005491425
-0.00061313979
-0.00067392066
-0.00073199562
-0.00078646156
-0.00083266624
-0.00086110171
-0.0010600657
-0.0011320959
-0.0012156318
-0.0012915225
-0.0013574015
-0.0014158949
-0.0014699424
-0.0015206754
-0.0015654351
-0.0015952016
-0.0015795526
-0.0017382824
-0.00186175
-0.0019494391
-0.0020143702
-0.0020671661
-0.0021150408
-0.0021626588
-0.0022113179
-0.00225271
-0.0017597022
-0.0021934061
-0.0023569521
-0.0024433366
-0.0024964625
-0.0025356969
-0.0025711026
-0.002610223
-0.0026611538
-0.0027289889
-0.00057743394
-0.00079204772
-0.00085156495
-0.0008780619
-0.00089246816
-0.00090242356
-0.00091142514
-0.00092226784
-0.00093901983
-0.00096749125
0.003215077
0.0028111633
0.0027201991
0.0026831374
0.0026601756
0.0026385933
0.002608741
0.0025523984
0.002416734
0.0020208774
0.0073022879
0.0065599711
0.0063292511
0.0062090569
0.0061236293
0.006041238
0.005935337
0.0057630173
0.0054271018
0.0046781248
0.0039962243
0.0038041855
0.0036453101
0.0035209042
0.0034144504
0.0033086018
0.0031855148
0.0030246276
0.0028093371
0.0025844025
0.0022173591
0.0021273238
0.0020117373
0.0018964641
0.0017853074
0.0016734639
0.0015537196
0.0014211084
0.0012821193
0.0011740492
0.00066512358
0.00059830752
0.00049730476
0.00038600509
0.00027430459
0.00016350695
5.2218237e-05
-5.8262314e-05
-0.00015794344
-0.00022308882
-0.00073730138
-0.00081445325
-0.00092559376
-0.0010433888
-0.0011571815
-0.0012654752
-0.0013692687
-0.0014670612
-0.001550581
-0.001602436
-0.0019823346
-0.002111627
-0.0022605554
-0.0023956012
-0.0025129109
-0.0026173705
-0.0027144969
-0.0028068063
-0.002890207
-0.0029481054
-0.0029996715
-0.0032876819
-0.0035079067
-0.0036638597
-0.0037795069
-0.0038740214
-0.0039608192
-0.0040497315
-0.0041466116
-0.0042408728
-0.0035918521
-0.0043891337
-0.0046767446
-0.0048293587
-0.0049238038
-0.0049941852
-0.0050591786
-0.0051354843
-0.0052503199
-0.0054663648
-0.0012485983
-0.001644455
-0.0017479163
-0.0017944113
-0.0018199631
-0.0018378416
-0.001854533
-0.0018764405
-0.0019173738
-0.0020204704
0.0043045304
0.0037644896
0.0036424263
0.0035917072
0.0035596158
0.003529008
0.0034863223
0.0034052927
0.0032091126
0.0026336255
0.0098163354
0.0088231793
0.0085116894
0.0083461227
0.008226341
0.0081094607
0.0079582406
0.0077111269
0.0072275806
0.0061454204
0.0054228992
0.0051637256
0.0049458426
0.0047725856
0.0046225762
0.0044722755
0.0042967434
0.0040668526
0.0037594299
0.003441868
0.0029966182
0.0028724024
0.0027112699
0.002549136
0.0023917524
0.0022326728
0.0020618735
0.0018724892
0.001674177
0.0015209583
0.00082651753
0.00073246877
0.00058985547
0.00043215869
0.00027339227
0.00011546077
-4.3563184e-05
-0.00020173397
-0.0003445703
-0.00043779858
-0.0011699228
-0.001279863
-0.0014380233
-0.0016056959
-0.0017679022
-0.0019226513
-0.0020715002
-0.0022124193
-0.0023335137
-0.0024092138
-0.0029796559
-0.0031652288
-0.0033779896
-0.0035706518
-0.0037381732
-0.0038878465
-0.0040279412
-0.0041626308
-0.0042865666
-0.004374842
-0.0045203076
-0.0049361221
-0.0052509676
-0.0054734355
-0.005638664
-0.0057744426
-0.0059006776
-0.006033068
-0.006182969
-0.0063366063
-0.0055515445
-0.0067090453
-0.007117251
-0.0073340298
-0.0074687818
-0.0075700944
-0.0076655763
-0.0077823056
-0.0079691147
-0.0083457025
-0.0019651409
-0.002540628
-0.002686581
-0.002752336
-0.0027887267
-0.0028144881
-0.0028391935
-0.0028733384
-0.0029416184
-0.0031243969
0.0053183633
0.004649186
0.0044982736
0.0044349228
0.0043942526
0.0043550049
0.0042998953
0.0041948634
0.0039398173
0.0031898471
0.012127585
0.010897451
0.010511245
0.0103036
0.010151451
0.010001552
0.0098065175
0.0094867939
0.0088598284
0.0074543874
0.0066910998
0.006369705
0.0060972493
0.0058783528
0.0056870855
0.0054941732
0.0052679887
0.0049712381
0.0045745474
0.0041675693
0.0036561665
0.003500135
0.0032963718
0.0030899713
0.0028884977
0.0026839973
0.0024638304
0.0022194026
0.0019635853
0.0017667541
0.00090034985
0.00078047297
0.00059830177
0.00039629337
0.00019232785
-1.112676e-05
-0.00021648889
-0.0004211231
-0.00060607154
-0.00072667158
-0.0016681684
-0.0018097044
-0.0020131015
-0.0022288012
-0.0024377688
-0.0026376179
-0.0028304958
-0.0030138589
-0.0031721687
-0.0032715758
-0.0040305703
-0.0042707825
-0.0045453286
-0.0047937176
-0.0050099234
-0.0052037139
-0.0053861644
-0.0055631594
-0.0057280254
-0.0058471264
-0.0060878992
-0.0066280162
-0.0070345883
-0.0073214575
-0.0075348334
-0.0077110401
-0.0078765062
-0.0080529012
-0.0082569594
-0.0084707154
-0.0075419428
-0.0090494673
-0.0095743494
-0.0098531361
-0.010026998
-0.010158685
-0.010284715
-0.010442652
-0.010702529
-0.011237251
-0.0026874686
-0.0034374387
-0.0036244293
-0.0037087574
-0.00375565
-0.0037891574
-0.0038219214
-0.0038685581
-0.0039644254
-0.0042250397
0.0062694883
0.0054770514
0.0052989451
0.0052237558
0.0051749946
0.0051275123
0.0050604803
0.0049323633
0.0046207055
0.0037030637
0.014272874
0.012817059
0.012360643
0.01211356
0.011930857
0.011749495
0.011512444
0.011122924
0.01035809
0.0086421374
0.0078286971
0.0074487537
0.0071251982
0.0068634284
0.0066331166
0.0063995683
0.0061248279
0.0057638445
0.0052813986
0.0047887045
0.0042128273
0.0040269016
0.0037830413
0.00353482
0.0032914456
0.0030435328
0.0027759842
0.0024786209
0.0021675014
0.0019288071
0.00089921461
0.00075484941
0.00053514925
0.00029098925
4.3862061e-05
-0.00020325204
-0.00045322813
-0.00070271467
-0.00092835424
-0.0010753764
-0.0022165055
-0.002388277
-0.0026349187
-0.0028965657
-0.0031503802
-0.0033936558
-0.0036291312
-0.0038537422
-0.0040483339
-0.004170874
-0.0051098625
-0.005402586
-0.0057364332
-0.0060383098
-0.006301345
-0.0065377724
-0.0067614313
-0.0069798663
-0.0071850042
-0.0073344377
-0.0076623532
-0.0083220155
-0.0088167069
-0.0091654447
-0.0094251897
-0.0096405709
-0.0098443924
-0.010064144
-0.010321646
-0.01059439
-0.0095124716
-0.011356421
-0.011993259
-0.012331561
-0.012543072
-0.012704223
-0.012860204
-0.013058794
-0.013390451
-0.014079005
-0.0033980218
-0.0043156636
-0.0045419903
-0.0046441263
-0.0047011198
-0.0047421411
-0.0047828133
-0.0048417634
-0.0049646432
-0.0053007996
0.007159725
0.0062503037
0.006046564
0.0059602581
0.0059038761
0.0058485904
0.0057702134
0.0056200996
0.0052544964
0.0041771023
0.016263407
0.014593666
0.0140712
0.013787099
0.013575612
0.013364441
0.013087425
0.012631421
0.011735252
0.0097235904
0.0088519804
0.0084169121
0.0080454139
0.0077433707
0.0074762301
0.0072041667
0.0068832465
0.0064610881
0.0058969817
0.0053228022
0.0046814257
0.0044673938
0.0041858378
0.00389821
0.0036152106
0.0033260856
0.0030134269
0.0026655975
0.00230176
0.0020232153
0.00083772352
0.00067022191
0.00041506522
0.00013101783
-0.00015705914
-0.00044572342
-0.00073827607
-0.0010306432
-0.0012952051
-0.0014674776
-0.0027974979
-0.002997992
-0.0032856849
-0.0035909756
-0.0038874686
-0.0041721925
-0.0044484602
-0.0047126841
-0.0049421799
-0.0050869768
-0.0061944033
-0.0065371395
-0.0069274232
-0.0072802181
-0.0075879113
-0.0078651378
-0.0081284029
-0.0083868262
-0.0086309134
-0.0088096799
-0.0092140033
-0.0099875787
-0.010566176
-0.010973844
-0.011277843
-0.011530773
-0.011771563
-0.012033283
-0.012342561
-0.012672334
-0.011431365
-0.013595861
-0.014339196
-0.014734147
-0.014981578
-0.015170981
-0.015355871
-0.015593835
-0.015994922
-0.016831843
-0.0040865393
-0.0051639334
-0.0054276469
-0.0055467197
-0.0056133433
-0.005661568
-0.0057098746
-0.0057807457
-0.0059297231
-0.0063386931
0.0079875021
0.0069679944
0.0067402435
0.006643546
0.0065800237
0.0065173971
0.0064283188
0.0062574368
0.0058408918
0.0046126222
0.018100662
0.016229774
0.015645513
0.015326816
0.015088359
0.014849152
0.014534451
0.014015693
0.012995544
0.010704749
0.0097701752
0.0092835026
0.0088672175
0.0085275144
0.0082258393
0.0079175429
0.0075530787
0.0070731848
0.0064320254
0.0057810815
0.00507355
0.0048332204
0.0045163957
0.0041918421
0.0038716211
0.0035436809
0.0031884505
0.0027929518
0.0023793272
0.0020631959
0.00072935848
0.00054013511
0.00025169467
-6.9836341e-05
-0.00039646654
-0.00072433665
-0.0010571439
-0.0013901029
-0.0016915198
-0.0018876811
-0.0033949375
-0.0036224949
-0.0039488454
-0.0042952554
-0.004632016
-0.0049559327
-0.0052708664
-0.0055727133
-0.0058353991
-0.0060013602
-0.0072644736
-0.0076544141
-0.0080979331
-0.0084987722
-0.0088486622
-0.0091645384
-0.0094654427
-0.0097619768
-0.01004325
-0.010250034
-0.010720123
-0.011601264
-0.01225903
-0.012722317
-0.013068154
-0.013356693
-0.013632686
-0.0139345
-0.014293309
-0.014677626
-0.013275959
-0.015743181
-0.016586903
-0.017035284
-0.017316659
-0.017532862
-0.017745305
-0.018020919
-0.018488431
-0.019467226
-0.0047458648
-0.0059741344
-0.0062730611
-0.006408097
-0.0064838153
-0.0065388712
-0.006594456
-0.0066767269
-0.0068506674
-0.0073292571
0.0087501674
0.0076280994
0.007378065
0.0072717335
0.0072015754
0.0071321044
0.0070330284
0.0068427289
0.0063785423
0.00500914
0.019782185
0.017724031
0.017082468
0.016731695
0.016468171
0.016202831
0.015852932
0.015275517
0.014139467
0.011587715
0.010588446
0.010053897
0.0095961098
0.0092214639
0.0088876707
0.0085455922
0.0081404599
0.00760661
0.0068934598
0.0061709129
0.0053978977
0.0051331632
0.0047836009
0.0044247241
0.0040698372
0.0037056736
0.0033106547
0.0028705759
0.0024104021
0.0020591727
0.00058551082
0.00037606725
5.6646822e-05
-0.00029980436
-0.0006624036
-0.0010269151
-0.0013974016
-0.001768391
-0.0021043425
-0.0023228708
-0.0039948538
-0.0042476742
-0.0046100935
-0.004994885
-0.0053692759
-0.005729883
-0.0060810836
-0.0064182765
-0.0067121757
-0.0068980431
-0.0083036489
-0.0087377122
-0.0092309623
-0.0096766944
-0.01006606
-0.01041817
-0.010754454
-0.011086898
-0.011403275
-0.011636531
-0.012162639
-0.013144368
-0.013876104
-0.014391368
-0.014776356
-0.015098309
-0.015407448
-0.015747131
-0.016152811
-0.016588787
-0.015028562
-0.017778945
-0.018716364
-0.019214642
-0.019527767
-0.019769122
-0.020007534
-0.020318755
-0.02084919
-0.021962445
-0.0053703948
-0.0067397971
-0.0070715626
-0.007221495
-0.0073057155
-0.0073671805
-0.0074296271
-0.0075226844
-0.0077202781
-0.0082648544
0.0094448334
0.0082283157
0.0079578377
0.0078426713
0.0077664106
0.0076906257
0.0075823099
0.007374052
0.0068657888
0.0053657769
0.021304037
0.019073544
0.018379441
0.017999244
0.017712664
0.017423219
0.017040799
0.016409154
0.015165924
0.01237283
0.011309653
0.010731187
0.010235353
0.0098286205
0.0094652639
0.00909202
0.0086493147
0.0080655907
0.0072859151
0.0064973195
0.0056609391
0.0053737984
0.0049941628
0.0046037089
0.0042168712
0.0038192619
0.0033874593
0.0029061471
0.0024029318
0.0020192915
0.00041546246
0.00018739398
-0.0001605623
-0.00054920648
-0.00094500926
-0.0013433962
-0.0017487635
-0.0021549866
-0.0025229373
-0.0027621747
-0.0045855861
-0.0048617372
-0.0052574514
-0.0056776863
-0.0060868633
-0.0064814406
-0.0068662775
-0.0072363021
-0.007559225
-0.007763608
-0.0092983276
-0.009773188
-0.010312393
-0.010799617
-0.011225508
-0.011611208
-0.011980369
-0.012346268
-0.012695415
-0.012953416
-0.013526784
-0.014601566
-0.015401659
-0.015964965
-0.016386186
-0.016739139
-0.017079134
-0.017454184
-0.017903749
-0.018388162
-0.016674642
-0.019687054
-0.020710965
-0.021255326
-0.021597821
-0.021862514
-0.022125127
-0.022469661
-0.023059104
-0.02429857
-0.0059554729
-0.0074554848
-0.0078175356
-0.0079812152
-0.0080732958
-0.0081407068
-0.0082095512
-0.0083127078
-0.008532493
-0.0091390186
0.010068734
0.0087664032
0.0084774268
0.0083542667
0.0082724652
0.0081909284
0.0080741794
0.0078495181
0.0073009778
0.0056815734
0.022661936
0.020274974
0.019533355
0.019126523
0.018819005
0.018507603
0.01809551
0.017414347
0.016073231
0.013059687
0.011935372
0.011317167
0.01078692
0.0103511
0.0099608724
0.0095592347
0.0090822483
0.0084529986
0.0076126178
0.0067638728
0.0058675323
0.0055600899
0.005153182
0.0047340421
0.004318122
0.0038900153
0.0034246308
0.0029056577
0.0023631436
0.0019499527
0.00022668911
-1.8318315e-05
-0.00039223024
-0.00081018411
-0.001236257
-0.0016655726
-0.0021028274
-0.0025412856
-0.0029385159
-0.0031966881
-0.0051575208
-0.0054549496
-0.0058810159
-0.0063335737
-0.0067745071
-0.0072001441
-0.0076157889
-0.0080159317
-0.0083655111
-0.0085869077
-0.010237246
-0.010749361
-0.011330502
-0.011855597
-0.01231486
-0.01273131
-0.013130647
-0.013527332
-0.013906706
-0.014187573
-0.014800305
-0.015960108
-0.016822584
-0.017429738
-0.017884071
-0.018265427
-0.018633793
-0.019041485
-0.019531671
-0.020061002
-0.018201978
-0.021453895
-0.022556638
-0.023143021
-0.023512343
-0.023798423
-0.024083319
-0.024458664
-0.025102836
-0.026459511
-0.0064971354
-0.0081165398
-0.0085061648
-0.0086823698
-0.0087816254
-0.0088544846
-0.0089292232
-0.0090417292
-0.0092821103
-0.0099461792
0.010619396
0.0092403483
0.0089349124
0.0088046378
0.0087178841
0.0086311857
0.0085068526
0.008267426
0.0076826127
0.005955639
0.023851839
0.021325113
0.020541235
0.020110681
0.019784441
0.019453339
0.019014568
0.018288853
0.016859638
0.01364765
0.012466507
0.011812942
0.011252075
0.010790303
0.010376022
0.0099489006
0.0094410977
0.0087709021
0.0078759431
0.0069732465
0.0060214087
0.0056958663
0.0052646142
0.0048198134
0.0043778188
0.0039223146
0.0034267217
0.0028738553
0.0022959873
0.0018562555
2.5221208e-05
-0.00023495691
-0.0006321203
-0.0010763592
-0.0015296191
-0.0019867582
-0.0024527389
-0.002920261
-0.0033438947
-0.0036191281
-0.0057027568
-0.0060193041
-0.0064726294
-0.0069542286
-0.0074237265
-0.0078773485
-0.0083208041
-0.0087481832
-0.0091219021
-0.0093587161
-0.011111071
-0.011656711
-0.012275558
-0.012834709
-0.013324017
-0.013768212
-0.014194852
-0.014619477
-0.01502636
-0.015328081
-0.015972974
-0.017209334
-0.018127904
-0.018774488
-0.019258638
-0.019665644
-0.020059736
-0.020497152
-0.021024458
-0.021594928
-0.019600224
-0.023067905
-0.024241427
-0.02486556
-0.025259027
-0.025564428
-0.02586956
-0.026273032
-0.026967336
-0.02843154
-0.0069919929
-0.0087189666
-0.0091333186
-0.0093207643
-0.0094264732
-0.0095042533
-0.0095843491
-0.0097054005
-0.0099646625
-0.010681537
0.011094725
0.0096484507
0.0093286738
0.009192197
0.0091011025
0.0090098573
0.0088788256
0.0086263427
0.0080094341
0.0061872304
0.024870271
0.022221194
0.021400516
0.020949261
0.020606601
0.020258148
0.019795823
0.019030732
0.017523628
0.014136147
0.012903681
0.012219301
0.011631748
0.011147275
0.010711871
0.010262295
0.0097272874
0.0090209217
0.0080777714
0.0071275724
0.0061255381
0.0057841812
0.0053316238
0.0048643046
0.0043993646
0.003919693
0.0033974113
0.0028145838
0.0022054778
0.0017423404
-0.00018403338
-0.00045754282
-0.0008751459
-0.0013425228
-0.0018197575
-0.0023014798
-0.0027928826
-0.0032861519
-0.003733181
-0.0040235184
-0.006214799
-0.0065482144
-0.0070255771
-0.0075327981
-0.0080275303
-0.0085059232
-0.0089740508
-0.0094256431
-0.0098208583
-0.010071414
-0.011912084
-0.012487356
-0.0131395
-0.01372873
-0.014244609
-0.014713402
-0.015164329
-0.015613897
-0.016045423
-0.016365874
-0.01703627
-0.018340357
-0.019308465
-0.019989873
-0.020500399
-0.020930171
-0.021347206
-0.021811266
-0.022371985
-0.022979588
-0.020860664
-0.024519333
-0.02575525
-0.026412682
-0.026827493
-0.027150049
-0.027473264
-0.027902025
-0.028641586
-0.030203041
-0.0074371689
-0.0092593726
-0.0096954895
-0.0098928386
-0.010004248
-0.010086397
-0.010171285
-0.01030003
-0.010576353
-0.011341001
0.011493057
0.0099893717
0.0096574371
0.0095156972
0.0094208924
0.0093257354
0.0091889204
0.0089251484
0.0082804654
0.0063757965
0.025714516
0.022961086
0.022109227
0.021640382
0.021283677
0.020920297
0.020437647
0.019638533
0.018064092
0.014524849
0.013247483
0.012536971
0.011926779
0.011422956
0.010969448
0.010500547
0.0099420666
0.0092044677
0.0082197254
0.0072286772
0.0061823954
0.0058275783
0.005356846
0.0048702478
0.0043855919
0.0038850907
0.0033397602
0.0027310388
0.0020949503
0.0016116451
-0.00039702927
-0.00068197193
-0.001117114
-0.0016043804
-0.0021022711
-0.002605225
-0.003118629
-0.0036342093
-0.0041015174
-0.0044049332
-0.0066883067
-0.0070362647
-0.0075343373
-0.0080636465
-0.0085801689
-0.0090800044
-0.0095695485
-0.010042214
-0.010456178
-0.010718733
-0.012633935
-0.013234815
-0.013915699
-0.014530895
-0.015069751
-0.015559879
-0.01603196
-0.016503353
-0.016956529
-0.017293488
-0.017983165
-0.019345847
-0.020356719
-0.021068188
-0.021601529
-0.022051077
-0.022488159
-0.022975646
-0.023565897
-0.024206429
-0.02197606
-0.025800088
-0.027089744
-0.027775878
-0.028209138
-0.028546602
-0.028885657
-0.029336738
-0.03011644
-0.031764347
-0.0078302637
-0.0097349326
-0.010189759
-0.010395631
-0.010511963
-0.010597909
-0.010686999
-0.010822548
-0.01111402
-0.011921153
0.011813189
0.010262162
0.0099203029
0.0097742594
0.0096763895
0.0095779713
0.0094363118
0.0091630634
0.0084950392
0.0065210045
0.026382735
0.023543405
0.02266611
0.022182854
0.021814533
0.021438711
0.020939045
0.020111399
0.018480445
0.014813779
0.013498637
0.012766782
0.012138086
0.011618336
0.011149817
0.010664797
0.010086671
0.0093229008
0.0083033312
0.0072782441
0.0061941537
0.0058282836
0.0053425771
0.004840015
0.0043389514
0.0038210426
0.0032563973
0.0026259553
0.0019672487
0.001467093
-0.0006103837
-0.00090481587
-0.0013545269
-0.0018583551
-0.0023734994
-0.0028942456
-0.0034261377
-0.0039604988
-0.0044448847
-0.0047592989
-0.0071188975
-0.007479014
-0.0079943857
-0.0085421608
-0.0090769398
-0.0095947992
-0.010102412
-0.010592918
-0.0110228
-0.011295558
-0.013271461
-0.013893823
-0.014598774
-0.015235719
-0.015793861
-0.016301972
-0.01679198
-0.017281976
-0.017753708
-0.018104876
-0.018807967
-0.020219875
-0.021266566
-0.022003215
-0.022555715
-0.023021962
-0.023476103
-0.02398369
-0.024599446
-0.025268539
-0.022940548
-0.026903636
-0.028238168
-0.028948293
-0.02939703
-0.029747093
-0.03009967
-0.030569993
-0.031384519
-0.033107638
-0.0081693311
-0.010143366
-0.010613775
-0.010826757
-0.010947213
-0.011036367
-0.011129051
-0.011270479
-0.011575113
-0.012419224
0.01205439
0.010466277
0.01011676
0.0099673871
0.0098671074
0.00976609
0.0096205416
0.0093396626
0.0086528118
0.0066227545
0.026874034
0.023967589
0.023070687
0.022576246
0.022198777
0.02181304
0.021299727
0.020449136
0.01877269
0.01500338
0.013658116
0.012909781
0.012266773
0.011734573
0.011254185
0.010756307
0.01016243
0.0093776426
0.0083301295
0.0072779243
0.0061628226
0.0057883431
0.0052909124
0.004775755
0.004261648
0.0037298146
0.0031496571
0.0025017442
0.0018248627
0.0013112304
-0.00082122661
-0.0011231722
-0.001584433
-0.0021014383
-0.0026303734
-0.0031654089
-0.0037122087
-0.0042617513
-0.0047599505
-0.0050832441
-0.0075029967
-0.0078728454
-0.0084020464
-0.0089646004
-0.0095140373
-0.010046436
-0.010568701
-0.011073746
-0.011516651
-0.011797777
-0.013820548
-0.014460189
-0.015184451
-0.015838853
-0.016412522
-0.016935195
-0.017439832
-0.017945134
-0.018432248
-0.018795262
-0.019506205
-0.020957799
-0.022033242
-0.0227901
-0.023358036
-0.023837842
-0.024305987
-0.024830257
-0.025467375
-0.026160527
-0.023749562
-0.027824924
-0.029195318
-0.029924643
-0.030385832
-0.030746135
-0.031109862
-0.031596263
-0.032440132
-0.034226862
-0.00845286
-0.010482917
-0.010965733
-0.011184387
-0.011308155
-0.011399916
-0.011495571
-0.011641926
-0.011957673
-0.012833079
0.012216408
0.010601581
0.010246694
0.010094972
0.0099929437
0.009889996
0.0097415246
0.0094548813
0.0087537697
0.0066811874
0.027188502
0.024233931
0.023323298
0.022820923
0.022436795
0.022043697
0.021520143
0.020652257
0.018941459
0.015094561
0.013727216
0.012967301
0.012314208
0.011773062
0.011283978
0.010776537
0.010170847
0.0093702508
0.0083017503
0.0072294122
0.0060903465
0.0057097213
0.005203844
0.0046794911
0.004155739
0.0036135018
0.0030216772
0.0023605915
0.0016700274
0.0011463266
-0.0010270893
-0.0013345532
-0.0018043151
-0.0023310787
-0.0028703044
-0.003416086
-0.0039741696
-0.0045352495
-0.0050439572
-0.0053739855
-0.0078377239
-0.0082148526
-0.0087543763
-0.0093279829
-0.0098884381
-0.010431848
-0.010965303
-0.011481539
-0.01193453
-0.012222157
-0.014278019
-0.014930691
-0.015669459
-0.016336977
-0.01692237
-0.017456141
-0.017972061
-0.018489317
-0.01898858
-0.019361031
-0.020074539
-0.021556172
-0.022653224
-0.023425269
-0.024004873
-0.024495056
-0.0249741
-0.025511575
-0.026165824
-0.02687843
-0.024399773
-0.028560314
-0.029957469
-0.030701152
-0.031171734
-0.031539888
-0.031912352
-0.032411602
-0.033279207
-0.035117669
-0.0086797594
-0.010752342
-0.011244358
-0.011467234
-0.011593492
-0.011687253
-0.011785243
-0.011935554
-0.012260314
-0.013161195
0.012299468
0.010668348
0.010310381
0.010157293
0.010054179
0.0099499724
0.0097995482
0.0095090154
0.0087982304
0.0066966864
0.027327226
0.024343596
0.023425117
0.022918063
0.022529774
0.022131877
0.021601501
0.020721994
0.018988034
0.015088715
0.013707598
0.012941015
0.012282065
0.011735486
0.011240886
0.01072719
0.010113642
0.009302468
0.0082199638
0.0071344974
0.0059786731
0.0055943704
0.0050833307
0.0045531914
0.0040232044
0.0034740989
0.0028744702
0.0022045298
0.0015047947
0.00097444567
-0.0012258219
-0.0015368027
-0.0020120075
-0.0025450985
-0.0030911
-0.0036440675
-0.0042097915
-0.0047787438
-0.0052946362
-0.0056292432
-0.0081208042
-0.0085027509
-0.0090490773
-0.0096299946
-0.010197812
-0.010748686
-0.011289848
-0.0118139
-0.012274014
-0.012566263
-0.014641557
-0.015302993
-0.01605144
-0.016727715
-0.017321009
-0.017862392
-0.018386223
-0.01891205
-0.019420193
-0.019799642
-0.02051069
-0.022012667
-0.023124157
-0.023906345
-0.024493832
-0.02499119
-0.025477999
-0.02602516
-0.02669225
-0.027419634
-0.024889032
-0.029107525
-0.030522311
-0.031275496
-0.031752396
-0.032125995
-0.032504759
-0.033013587
-0.033899233
-0.03577735
-0.0088493441
-0.010950888
-0.011448891
-0.011674532
-0.011802457
-0.011897604
-0.011997289
-0.012150569
-0.012482212
-0.013402648
0.012304264
0.010667254
0.010308489
0.010155012
0.010051473
0.0099466767
0.0097952677
0.0095027166
0.0087868377
0.0066698753
0.027292286
0.024298624
0.023378154
0.02286966
0.022479698
0.022079558
0.021545772
0.020660307
0.018914352
0.014987729
0.013601323
0.012832959
0.01217236
0.011623844
0.011126899
0.010610247
0.0099927864
0.0091762543
0.0080867134
0.0069950983
0.005829802
0.0054442787
0.0049313466
0.0043988177
0.0038659966
0.0033135505
0.002709974
0.0020354896
0.0013310865
0.00079750007
-0.0014155309
-0.0017280338
-0.0022056334
-0.0027416302
-0.0032909006
-0.003847499
-0.004417224
-0.0049903861
-0.0055101414
-0.0058471733
-0.0083504998
-0.0087348083
-0.0092844261
-0.0098689205
-0.010440449
-0.010995244
-0.011540628
-0.012069119
-0.01253339
-0.012828376
-0.014909629
-0.015575569
-0.01632888
-0.017009562
-0.017606941
-0.018152449
-0.018680816
-0.01921182
-0.01972556
-0.020109551
-0.020813369
-0.022326014
-0.023444789
-0.024232087
-0.024823676
-0.025325005
-0.025816439
-0.026369749
-0.027045361
-0.027782806
-0.025216321
-0.029465583
-0.030888899
-0.031646739
-0.032126888
-0.032503526
-0.032886145
-0.033401257
-0.034299202
-0.03620478
-0.008961321
-0.011078283
-0.01157907
-0.011806027
-0.011934794
-0.012030715
-0.012131451
-0.012286709
-0.012623081
-0.013557094
0.012231948
0.010599369
0.010242063
0.010089164
0.0099858539
0.009881131
0.0097296972
0.0094369839
0.0087205547
0.0066016136
0.027086739
0.024101911
0.023185242
0.022678513
0.02228934
0.021889489
0.021355677
0.020469869
0.018722997
0.014793987
0.013410858
0.012645549
0.011987459
0.011440466
0.010944316
0.01042798
0.0098105189
0.0089938059
0.0079041356
0.0068132842
0.0056458178
0.0052615043
0.0047499159
0.0042183612
0.0036860761
0.003133788
0.0025300893
0.0018553377
0.0011507329
0.00061728968
-0.001594532
-0.0019065811
-0.0023835556
-0.0029190672
-0.0034681288
-0.0040248309
-0.0045949433
-0.0051686781
-0.0056889974
-0.0060263157
-0.008525553
-0.008909788
-0.0094592161
-0.010043586
-0.010615203
-0.0111704
-0.011716543
-0.012246115
-0.01271159
-0.013007435
-0.015081427
-0.015747648
-0.016501047
-0.017181821
-0.017779497
-0.018325669
-0.018855212
-0.019388012
-0.01990407
-0.020290151
-0.020982229
-0.022495942
-0.023614908
-0.024402326
-0.024994265
-0.02549638
-0.025989311
-0.026545238
-0.027225049
-0.027967828
-0.025381707
-0.029634762
-0.03105759
-0.031815284
-0.032295638
-0.032672921
-0.033056957
-0.03357506
-0.034479547
-0.036400353
-0.0090157738
-0.011134715
-0.011635114
-0.011861949
-0.011990743
-0.012086828
-0.012187973
-0.012344215
-0.012683159
-0.013624753
0.012084116
0.010466143
0.010112516
0.0099611439
0.0098587062
0.0097547106
0.0096041982
0.0093131527
0.0086006536
0.006492989
0.026714594
0.023757193
0.022850018
0.022348201
0.021962241
0.021565175
0.021034671
0.020154057
0.018417187
0.014510352
0.013139084
0.012381586
0.011730093
0.011188023
0.010695761
0.010182961
0.0095693567
0.0087575655
0.0076745725
0.0065912889
0.0054289138
0.0050481996
0.0045411375
0.0040138678
0.0034854382
0.0029367564
0.0023367075
0.001665906
0.00096550237
0.00043553266
-0.0017613113
-0.0020709612
-0.0025443374
-0.0030760237
-0.0036214488
-0.0041747761
-0.0047417106
-0.0053124279
-0.0058300547
-0.0061655493
-0.0086451378
-0.0090268997
-0.0095727082
-0.010153304
-0.010721439
-0.011273566
-0.011817048
-0.012344379
-0.012808136
-0.013102982
-0.015156818
-0.015819154
-0.016567935
-0.01724455
-0.017838786
-0.018382201
-0.0189096
-0.019440845
-0.019955971
-0.020341703
-0.021017802
-0.022523119
-0.023635286
-0.024417903
-0.025006491
-0.025506247
-0.025997579
-0.026552618
-0.027232328
-0.027975735
-0.025386284
-0.02961653
-0.031029989
-0.031782806
-0.032260362
-0.032635928
-0.033018965
-0.033536786
-0.034442081
-0.036365923
-0.0090131481
-0.011120813
-0.011617705
-0.011843002
-0.011971018
-0.012066665
-0.012167582
-0.01232382
-0.012663186
-0.013606381
0.011862789
0.01026939
0.0099216115
0.009772695
0.0096717583
0.0095691299
0.009420466
0.0091328813
0.0084287033
0.0063453088
0.02618078
0.023269014
0.022376892
0.021883064
0.021502687
0.021110848
0.020586919
0.019716923
0.018000754
0.014140164
0.012789296
0.012044254
0.011403347
0.010869527
0.010384176
0.0098780676
0.0092720981
0.0084702277
0.0074005783
0.0063315189
0.0051814091
0.0048066293
0.0043072043
0.0037874581
0.0032661335
0.0027244357
0.0021317333
0.0014690151
0.00077712663
0.00025389108
-0.0019144921
-0.0022198396
-0.0026867079
-0.003211299
-0.0037497302
-0.004296273
-0.0048565329
-0.0054207106
-0.0059324504
-0.0062640518
-0.0087088153
-0.0090857538
-0.0096245839
-0.010197831
-0.010758984
-0.011304634
-0.011842098
-0.012363927
-0.012823092
-0.013115111
-0.015136287
-0.01579066
-0.016530213
-0.0171985
-0.017785634
-0.018322938
-0.018844926
-0.01937132
-0.019882306
-0.020265284
-0.020921451
-0.022409095
-0.023507616
-0.024280615
-0.024862222
-0.025356532
-0.025843216
-0.026393912
-0.027069273
-0.027808648
-0.025232129
-0.029413488
-0.030808888
-0.031552197
-0.032024012
-0.032395538
-0.032775197
-0.033289502
-0.034189934
-0.036104731
-0.0089542344
-0.011037629
-0.011527961
-0.011750335
-0.011876785
-0.011971403
-0.012071465
-0.012226722
-0.012564382
-0.013503253
0.011570392
0.010011274
0.009671451
0.0095258897
0.0094270655
0.0093264268
0.0091805136
0.008898136
0.0082065561
0.0061600897
0.025491104