/*--------------------------------*- C++ -*----------------------------------*\
| =========                 |                                                 |
| \\      /  F ield         | OpenFOAM: The Open Source CFD Toolbox           |
|  \\    /   O peration     | Version:  v2106                                 |
|   \\  /    A nd           | Website:  www.openfoam.com                      |
|    \\/     M anipulation  |                                                 |
\*---------------------------------------------------------------------------*/
FoamFile
{
    version     2.0;
    format      ascii;
    arch        "LSB;label=32;scalar=64";
    class       volScalarField;
    location    "62.5";
    object      T;
}
// * * * * * * * * * * * * * * * * * * * * * * * * * * * * * * * * * * * * * //

dimensions      [0 0 0 1 0 0 0];

internalField   nonuniform List<scalar> 
4000
(
275.17245
275.17246
275.17247
275.17247
275.17248
275.17248
275.17247
275.17247
275.17247
275.17246
275.17246
275.17248
275.17248
275.17249
275.17249
275.17249
275.17249
275.17248
275.17248
275.17247
275.17247
275.17248
275.17249
275.17249
275.17249
275.17249
275.17249
275.17249
275.17248
275.17248
275.17247
275.17249
275.17249
275.17249
275.1725
275.1725
275.17249
275.17249
275.17249
275.17248
275.17248
275.17249
275.17249
275.1725
275.1725
275.1725
275.17249
275.17249
275.17249
275.17248
275.17248
275.17249
275.17249
275.1725
275.1725
275.1725
275.17249
275.17249
275.17249
275.17248
275.17247
275.17249
275.17249
275.17249
275.17249
275.17249
275.17249
275.17249
275.17248
275.17248
275.17247
275.17248
275.17249
275.17249
275.17249
275.17249
275.17249
275.17248
275.17248
275.17247
275.17247
275.17248
275.17248
275.17249
275.17249
275.17249
275.17248
275.17248
275.17247
275.17247
275.17246
275.17247
275.17248
275.17248
275.17248
275.17248
275.17248
275.17247
275.17247
275.17246
283.66235
283.66241
283.66244
283.66246
283.66247
283.66247
283.66246
283.66245
283.66243
283.66241
283.66241
283.66247
283.66249
283.66251
283.66252
283.66252
283.66251
283.6625
283.66247
283.66245
283.66244
283.66249
283.66252
283.66254
283.66254
283.66254
283.66253
283.66252
283.6625
283.66247
283.66246
283.66251
283.66254
283.66255
283.66256
283.66256
283.66255
283.66253
283.66251
283.66248
283.66247
283.66252
283.66254
283.66256
283.66256
283.66256
283.66255
283.66254
283.66251
283.66249
283.66247
283.66252
283.66254
283.66256
283.66256
283.66256
283.66255
283.66253
283.66251
283.66248
283.66246
283.66251
283.66253
283.66255
283.66255
283.66255
283.66254
283.66252
283.6625
283.66247
283.66245
283.6625
283.66252
283.66253
283.66254
283.66253
283.66252
283.6625
283.66248
283.66245
283.66243
283.66247
283.6625
283.66251
283.66251
283.66251
283.6625
283.66248
283.66245
283.66242
283.66241
283.66245
283.66247
283.66248
283.66249
283.66248
283.66247
283.66245
283.66242
283.66239
292.09602
292.09612
292.09617
292.0962
292.09621
292.09621
292.09619
292.09617
292.09613
292.0961
292.09612
292.0962
292.09625
292.09628
292.09629
292.09629
292.09627
292.09625
292.09621
292.09616
292.09617
292.09625
292.09629
292.09632
292.09633
292.09633
292.09631
292.09628
292.09624
292.09619
292.0962
292.09628
292.09632
292.09635
292.09636
292.09635
292.09634
292.09631
292.09626
292.09621
292.09621
292.09629
292.09633
292.09636
292.09637
292.09636
292.09634
292.09631
292.09627
292.09621
292.09621
292.09629
292.09633
292.09635
292.09636
292.09636
292.09634
292.09631
292.09626
292.09621
292.09619
292.09627
292.09631
292.09634
292.09634
292.09634
292.09632
292.09628
292.09624
292.09618
292.09617
292.09625
292.09628
292.09631
292.09631
292.09631
292.09628
292.09625
292.0962
292.09615
292.09613
292.09621
292.09624
292.09626
292.09627
292.09626
292.09624
292.0962
292.09616
292.0961
292.0961
292.09616
292.09619
292.09621
292.09621
292.09621
292.09618
292.09615
292.0961
292.09604
300.47415
300.47428
300.47435
300.47439
300.47441
300.47441
300.47439
300.47435
300.4743
300.47424
300.47428
300.47439
300.47446
300.4745
300.47452
300.47451
300.47449
300.47445
300.47439
300.47432
300.47435
300.47446
300.47452
300.47456
300.47457
300.47457
300.47454
300.4745
300.47444
300.47436
300.47439
300.4745
300.47456
300.47459
300.47461
300.4746
300.47458
300.47453
300.47447
300.47438
300.47441
300.47452
300.47457
300.47461
300.47462
300.47461
300.47459
300.47454
300.47447
300.47439
300.47441
300.47451
300.47457
300.4746
300.47461
300.4746
300.47458
300.47453
300.47446
300.47438
300.47439
300.47449
300.47454
300.47458
300.47459
300.47458
300.47454
300.47449
300.47443
300.47434
300.47435
300.47445
300.4745
300.47453
300.47454
300.47453
300.47449
300.47444
300.47437
300.47429
300.4743
300.47439
300.47444
300.47447
300.47447
300.47446
300.47443
300.47437
300.4743
300.47421
300.47424
300.47432
300.47436
300.47438
300.47439
300.47438
300.47434
300.47429
300.47421
300.47412
308.79745
308.79761
308.79769
308.79774
308.79777
308.79776
308.79773
308.79768
308.79761
308.79753
308.79761
308.79775
308.79783
308.79788
308.7979
308.79789
308.79786
308.79781
308.79773
308.79763
308.79769
308.79783
308.7979
308.79795
308.79797
308.79796
308.79793
308.79787
308.79779
308.79768
308.79774
308.79788
308.79795
308.79799
308.79801
308.798
308.79797
308.79791
308.79782
308.79771
308.79777
308.7979
308.79797
308.79801
308.79803
308.79801
308.79798
308.79791
308.79783
308.79771
308.79776
308.79789
308.79796
308.798
308.79801
308.798
308.79796
308.7979
308.79781
308.79769
308.79773
308.79786
308.79793
308.79797
308.79798
308.79796
308.79792
308.79785
308.79776
308.79765
308.79768
308.79781
308.79787
308.79791
308.79791
308.7979
308.79785
308.79779
308.79769
308.79758
308.79761
308.79773
308.79779
308.79782
308.79783
308.79781
308.79776
308.79769
308.7976
308.79748
308.79753
308.79763
308.79768
308.79771
308.79771
308.79769
308.79765
308.79758
308.79748
308.79735
317.0666
317.06679
317.06688
317.06694
317.06697
317.06696
317.06692
317.06686
317.06677
317.06667
317.06679
317.06695
317.06704
317.0671
317.06712
317.06711
317.06707
317.06701
317.06691
317.06678
317.06688
317.06704
317.06713
317.06718
317.06721
317.06719
317.06715
317.06708
317.06698
317.06684
317.06694
317.0671
317.06718
317.06724
317.06725
317.06724
317.0672
317.06712
317.06701
317.06687
317.06697
317.06712
317.06721
317.06725
317.06727
317.06726
317.06721
317.06713
317.06702
317.06688
317.06696
317.06711
317.06719
317.06724
317.06726
317.06724
317.06719
317.06711
317.06699
317.06685
317.06692
317.06707
317.06715
317.0672
317.06721
317.06719
317.06714
317.06705
317.06694
317.0668
317.06686
317.06701
317.06708
317.06712
317.06713
317.06711
317.06705
317.06697
317.06685
317.06671
317.06677
317.06691
317.06698
317.06701
317.06702
317.06699
317.06694
317.06685
317.06673
317.06658
317.06667
317.06678
317.06684
317.06687
317.06688
317.06685
317.0668
317.06671
317.06658
317.06642
325.28227
325.28249
325.2826
325.28266
325.28269
325.28268
325.28263
325.28256
325.28245
325.28233
325.28249
325.28267
325.28278
325.28284
325.28287
325.28285
325.28281
325.28272
325.28261
325.28245
325.2826
325.28278
325.28288
325.28294
325.28296
325.28295
325.2829
325.28281
325.28268
325.28252
325.28266
325.28284
325.28294
325.283
325.28302
325.283
325.28294
325.28285
325.28272
325.28256
325.28269
325.28287
325.28296
325.28302
325.28303
325.28301
325.28296
325.28286
325.28273
325.28256
325.28268
325.28285
325.28295
325.283
325.28301
325.28299
325.28293
325.28283
325.2827
325.28253
325.28263
325.28281
325.2829
325.28294
325.28296
325.28293
325.28287
325.28277
325.28263
325.28246
325.28256
325.28272
325.28281
325.28285
325.28286
325.28283
325.28277
325.28266
325.28253
325.28235
325.28245
325.28261
325.28268
325.28272
325.28273
325.2827
325.28263
325.28253
325.28238
325.28221
325.28233
325.28245
325.28252
325.28256
325.28256
325.28253
325.28246
325.28235
325.28221
325.28202
333.44514
333.44538
333.4455
333.44557
333.4456
333.44559
333.44553
333.44544
333.44532
333.44518
333.44538
333.44559
333.4457
333.44577
333.4458
333.44578
333.44573
333.44563
333.4455
333.44532
333.4455
333.4457
333.44581
333.44588
333.4459
333.44589
333.44582
333.44572
333.44558
333.44539
333.44557
333.44577
333.44588
333.44594
333.44596
333.44594
333.44588
333.44577
333.44562
333.44543
333.4456
333.4458
333.4459
333.44596
333.44598
333.44596
333.44589
333.44578
333.44563
333.44543
333.44559
333.44578
333.44589
333.44594
333.44596
333.44593
333.44586
333.44574
333.44559
333.44539
333.44553
333.44573
333.44582
333.44588
333.44589
333.44586
333.44578
333.44567
333.44551
333.44531
333.44544
333.44563
333.44572
333.44577
333.44578
333.44574
333.44567
333.44555
333.44539
333.44519
333.44532
333.4455
333.44558
333.44562
333.44563
333.44559
333.44551
333.44539
333.44522
333.44502
333.44518
333.44532
333.44539
333.44543
333.44543
333.44539
333.44531
333.44519
333.44502
333.4448
341.55586
341.55613
341.55626
341.55634
341.55637
341.55635
341.55629
341.55618
341.55605
341.55588
341.55613
341.55636
341.55648
341.55656
341.55658
341.55656
341.5565
341.55639
341.55624
341.55603
341.55626
341.55648
341.5566
341.55667
341.5567
341.55667
341.55661
341.55649
341.55633
341.55612
341.55634
341.55656
341.55667
341.55674
341.55676
341.55674
341.55666
341.55654
341.55637
341.55616
341.55637
341.55658
341.5567
341.55676
341.55678
341.55675
341.55667
341.55655
341.55638
341.55616
341.55635
341.55656
341.55667
341.55674
341.55675
341.55672
341.55663
341.55651
341.55633
341.55611
341.55629
341.5565
341.55661
341.55666
341.55667
341.55663
341.55655
341.55642
341.55624
341.55602
341.55618
341.55639
341.55649
341.55654
341.55655
341.55651
341.55642
341.55628
341.5561
341.55588
341.55605
341.55624
341.55633
341.55637
341.55638
341.55633
341.55624
341.5561
341.55592
341.55569
341.55588
341.55603
341.55612
341.55616
341.55616
341.55611
341.55602
341.55588
341.55569
341.55544
349.61511
349.61539
349.61553
349.61562
349.61565
349.61563
349.61556
349.61544
349.61529
349.61511
349.61539
349.61564
349.61577
349.61585
349.61588
349.61586
349.61578
349.61566
349.61549
349.61527
349.61553
349.61577
349.6159
349.61598
349.616
349.61597
349.6159
349.61577
349.61559
349.61535
349.61562
349.61585
349.61598
349.61605
349.61607
349.61604
349.61596
349.61582
349.61564
349.6154
349.61565
349.61588
349.616
349.61607
349.61609
349.61605
349.61596
349.61583
349.61564
349.61539
349.61563
349.61586
349.61597
349.61604
349.61605
349.61601
349.61592
349.61578
349.61559
349.61534
349.61556
349.61578
349.6159
349.61596
349.61596
349.61592
349.61583
349.61568
349.61549
349.61524
349.61544
349.61566
349.61577
349.61582
349.61583
349.61578
349.61568
349.61553
349.61533
349.61508
349.61529
349.61549
349.61559
349.61564
349.61564
349.61559
349.61549
349.61533
349.61513
349.61487
349.61511
349.61527
349.61535
349.6154
349.61539
349.61534
349.61524
349.61508
349.61487
349.6146
357.62353
357.62383
357.62398
357.62407
357.6241
357.62407
357.624
357.62387
357.6237
357.62351
357.62383
357.62409
357.62424
357.62432
357.62435
357.62432
357.62424
357.62411
357.62392
357.62368
357.62398
357.62424
357.62437
357.62445
357.62448
357.62444
357.62436
357.62422
357.62402
357.62377
357.62407
357.62432
357.62445
357.62453
357.62455
357.62451
357.62442
357.62427
357.62407
357.62381
357.6241
357.62435
357.62448
357.62455
357.62456
357.62452
357.62443
357.62428
357.62407
357.62381
357.62407
357.62432
357.62444
357.62451
357.62452
357.62448
357.62438
357.62422
357.62401
357.62375
357.624
357.62424
357.62436
357.62442
357.62443
357.62438
357.62427
357.62412
357.6239
357.62363
357.62387
357.62411
357.62422
357.62427
357.62428
357.62422
357.62412
357.62395
357.62373
357.62346
357.6237
357.62392
357.62402
357.62407
357.62407
357.62401
357.6239
357.62373
357.62351
357.62323
357.62351
357.62368
357.62377
357.62381
357.62381
357.62375
357.62363
357.62346
357.62323
357.62293
365.58178
365.5821
365.58226
365.58235
365.58238
365.58235
365.58227
365.58213
365.58195
365.58174
365.5821
365.58238
365.58253
365.58262
365.58264
365.58261
365.58252
365.58238
365.58218
365.58192
365.58226
365.58253
365.58267
365.58275
365.58278
365.58274
365.58265
365.5825
365.58229
365.58201
365.58235
365.58262
365.58275
365.58283
365.58285
365.58281
365.58271
365.58255
365.58234
365.58206
365.58238
365.58264
365.58278
365.58285
365.58287
365.58282
365.58272
365.58255
365.58233
365.58205
365.58235
365.58261
365.58274
365.58281
365.58282
365.58277
365.58266
365.5825
365.58227
365.58198
365.58227
365.58252
365.58265
365.58271
365.58272
365.58266
365.58255
365.58238
365.58215
365.58186
365.58213
365.58238
365.5825
365.58255
365.58255
365.5825
365.58238
365.5822
365.58197
365.58168
365.58195
365.58218
365.58229
365.58234
365.58233
365.58227
365.58215
365.58197
365.58173
365.58143
365.58174
365.58192
365.58201
365.58206
365.58205
365.58198
365.58186
365.58168
365.58143
365.58111
373.49054
373.49087
373.49103
373.49113
373.49116
373.49112
373.49103
373.49089
373.49069
373.49047
373.49087
373.49116
373.49131
373.4914
373.49143
373.49139
373.4913
373.49114
373.49093
373.49065
373.49103
373.49131
373.49146
373.49155
373.49157
373.49153
373.49143
373.49127
373.49104
373.49075
373.49113
373.4914
373.49155
373.49163
373.49164
373.4916
373.49149
373.49132
373.49109
373.4908
373.49116
373.49143
373.49157
373.49164
373.49166
373.49161
373.4915
373.49132
373.49109
373.49079
373.49112
373.49139
373.49153
373.4916
373.49161
373.49155
373.49144
373.49126
373.49102
373.49072
373.49103
373.4913
373.49143
373.49149
373.4915
373.49144
373.49132
373.49113
373.49089
373.49058
373.49089
373.49114
373.49127
373.49132
373.49132
373.49126
373.49113
373.49095
373.4907
373.49039
373.49069
373.49093
373.49104
373.49109
373.49109
373.49102
373.49089
373.4907
373.49044
373.49012
373.49047
373.49065
373.49075
373.4908
373.49079
373.49072
373.49058
373.49039
373.49012
373.48978
381.35045
381.35079
381.35096
381.35106
381.35108
381.35105
381.35095
381.3508
381.35059
381.35036
381.35079
381.35109
381.35125
381.35134
381.35137
381.35133
381.35123
381.35106
381.35084
381.35055
381.35096
381.35125
381.3514
381.35149
381.35151
381.35147
381.35136
381.35119
381.35095
381.35065
381.35106
381.35134
381.35149
381.35157
381.35159
381.35154
381.35143
381.35125
381.351
381.35069
381.35108
381.35137
381.35151
381.35159
381.3516
381.35154
381.35143
381.35124
381.35099
381.35068
381.35105
381.35133
381.35147
381.35154
381.35154
381.35149
381.35136
381.35118
381.35092
381.3506
381.35095
381.35123
381.35136
381.35143
381.35143
381.35136
381.35124
381.35104
381.35079
381.35046
381.3508
381.35106
381.35119
381.35125
381.35124
381.35118
381.35104
381.35085
381.35058
381.35026
381.35059
381.35084
381.35095
381.351
381.35099
381.35092
381.35079
381.35058
381.35031
381.34998
381.35036
381.35055
381.35065
381.35069
381.35068
381.3506
381.35046
381.35026
381.34998
381.34962
389.16218
389.16254
389.16271
389.16281
389.16284
389.1628
389.16269
389.16253
389.16232
389.16207
389.16254
389.16285
389.16301
389.1631
389.16313
389.16308
389.16298
389.16281
389.16257
389.16227
389.16271
389.16301
389.16317
389.16325
389.16327
389.16323
389.16311
389.16293
389.16269
389.16237
389.16281
389.1631
389.16325
389.16333
389.16335
389.1633
389.16318
389.16299
389.16274
389.16241
389.16284
389.16313
389.16327
389.16335
389.16336
389.1633
389.16318
389.16299
389.16273
389.1624
389.1628
389.16308
389.16323
389.1633
389.1633
389.16324
389.16311
389.16291
389.16265
389.16232
389.16269
389.16298
389.16311
389.16318
389.16318
389.16311
389.16298
389.16277
389.16251
389.16217
389.16253
389.16281
389.16293
389.16299
389.16299
389.16291
389.16277
389.16257
389.16229
389.16196
389.16232
389.16257
389.16269
389.16274
389.16273
389.16265
389.16251
389.16229
389.16201
389.16167
389.16207
389.16227
389.16237
389.16241
389.1624
389.16232
389.16217
389.16196
389.16167
389.16129
396.92642
396.92678
396.92696
396.92706
396.92708
396.92704
396.92693
396.92676
396.92654
396.92629
396.92678
396.9271
396.92726
396.92736
396.92738
396.92733
396.92722
396.92704
396.9268
396.92649
396.92696
396.92726
396.92742
396.92751
396.92753
396.92748
396.92736
396.92717
396.92692
396.92659
396.92706
396.92736
396.92751
396.92759
396.9276
396.92755
396.92742
396.92723
396.92697
396.92663
396.92708
396.92738
396.92753
396.9276
396.92761
396.92755
396.92742
396.92722
396.92695
396.92662
396.92704
396.92733
396.92748
396.92755
396.92755
396.92749
396.92735
396.92715
396.92687
396.92653
396.92693
396.92722
396.92736
396.92742
396.92742
396.92735
396.92721
396.927
396.92672
396.92638
396.92676
396.92704
396.92717
396.92723
396.92722
396.92715
396.927
396.92679
396.92651
396.92616
396.92654
396.9268
396.92692
396.92697
396.92695
396.92687
396.92672
396.92651
396.92622
396.92586
396.92629
396.92649
396.92659
396.92663
396.92662
396.92653
396.92638
396.92616
396.92586
396.92547
404.64384
404.6442
404.64438
404.64448
404.6445
404.64446
404.64435
404.64417
404.64394
404.64368
404.6442
404.64452
404.64469
404.64478
404.6448
404.64475
404.64464
404.64446
404.64421
404.64388
404.64438
404.64469
404.64485
404.64494
404.64495
404.6449
404.64478
404.64459
404.64432
404.64399
404.64448
404.64478
404.64494
404.64502
404.64503
404.64497
404.64484
404.64464
404.64437
404.64403
404.6445
404.6448
404.64495
404.64503
404.64503
404.64497
404.64484
404.64463
404.64436
404.64401
404.64446
404.64475
404.6449
404.64497
404.64497
404.6449
404.64476
404.64455
404.64427
404.64392
404.64435
404.64464
404.64478
404.64484
404.64484
404.64476
404.64462
404.6444
404.64412
404.64376
404.64417
404.64446
404.64459
404.64464
404.64463
404.64455
404.6444
404.64418
404.64389
404.64353
404.64394
404.64421
404.64432
404.64437
404.64436
404.64427
404.64412
404.64389
404.6436
404.64323
404.64368
404.64388
404.64399
404.64403
404.64401
404.64392
404.64376
404.64353
404.64323
404.64283
412.31511
412.31548
412.31566
412.31576
412.31578
412.31573
412.31562
412.31544
412.31521
412.31494
412.31548
412.3158
412.31597
412.31606
412.31608
412.31603
412.31591
412.31573
412.31547
412.31514
412.31566
412.31597
412.31613
412.31622
412.31623
412.31618
412.31605
412.31585
412.31559
412.31524
412.31576
412.31606
412.31622
412.3163
412.31631
412.31625
412.31611
412.31591
412.31564
412.31529
412.31578
412.31608
412.31623
412.31631
412.31631
412.31625
412.31611
412.3159
412.31562
412.31526
412.31573
412.31603
412.31618
412.31625
412.31625
412.31617
412.31603
412.31582
412.31553
412.31517
412.31562
412.31591
412.31605
412.31611
412.31611
412.31603
412.31588
412.31566
412.31537
412.31501
412.31544
412.31573
412.31585
412.31591
412.3159
412.31582
412.31566
412.31544
412.31514
412.31478
412.31521
412.31547
412.31559
412.31564
412.31562
412.31553
412.31537
412.31514
412.31484
412.31446
412.31494
412.31514
412.31524
412.31529
412.31526
412.31517
412.31501
412.31478
412.31446
412.31406
419.94094
419.94131
419.94149
419.94159
419.94161
419.94156
419.94144
419.94126
419.94102
419.94075
419.94131
419.94163
419.9418
419.94189
419.94191
419.94186
419.94173
419.94154
419.94129
419.94095
419.94149
419.9418
419.94196
419.94204
419.94206
419.942
419.94187
419.94167
419.9414
419.94105
419.94159
419.94189
419.94204
419.94212
419.94213
419.94207
419.94193
419.94173
419.94145
419.94109
419.94161
419.94191
419.94206
419.94213
419.94213
419.94206
419.94192
419.94171
419.94143
419.94107
419.94156
419.94186
419.942
419.94207
419.94206
419.94199
419.94184
419.94163
419.94134
419.94098
419.94144
419.94173
419.94187
419.94193
419.94192
419.94184
419.94169
419.94147
419.94118
419.94081
419.94126
419.94154
419.94167
419.94173
419.94171
419.94163
419.94147
419.94124
419.94094
419.94058
419.94102
419.94129
419.9414
419.94145
419.94143
419.94134
419.94118
419.94094
419.94064
419.94026
419.94075
419.94095
419.94105
419.94109
419.94107
419.94098
419.94081
419.94058
419.94026
419.93985
427.52202
427.52239
427.52256
427.52266
427.52268
427.52263
427.52251
427.52232
427.52209
427.52182
427.52239
427.52271
427.52287
427.52296
427.52298
427.52292
427.5228
427.52261
427.52235
427.52201
427.52256
427.52287
427.52303
427.52311
427.52312
427.52306
427.52293
427.52273
427.52246
427.52211
427.52266
427.52296
427.52311
427.52319
427.5232
427.52313
427.52299
427.52279
427.52251
427.52215
427.52268
427.52298
427.52312
427.5232
427.5232
427.52313
427.52298
427.52277
427.52248
427.52212
427.52263
427.52292
427.52306
427.52313
427.52313
427.52305
427.5229
427.52268
427.52239
427.52203
427.52251
427.5228
427.52293
427.52299
427.52298
427.5229
427.52275
427.52253
427.52223
427.52186
427.52232
427.52261
427.52273
427.52279
427.52277
427.52268
427.52253
427.5223
427.52199
427.52162
427.52209
427.52235
427.52246
427.52251
427.52248
427.52239
427.52223
427.52199
427.52169
427.5213
427.52182
427.52201
427.52211
427.52215
427.52212
427.52203
427.52186
427.52162
427.5213
427.5209
435.05905
435.05942
435.05959
435.05968
435.0597
435.05964
435.05952
435.05934
435.0591
435.05883
435.05942
435.05973
435.05989
435.05998
435.05999
435.05994
435.05981
435.05962
435.05936
435.05903
435.05959
435.05989
435.06004
435.06012
435.06013
435.06007
435.05994
435.05974
435.05947
435.05912
435.05968
435.05998
435.06012
435.0602
435.06021
435.06014
435.06
435.05979
435.05951
435.05916
435.0597
435.05999
435.06013
435.06021
435.0602
435.06013
435.05999
435.05978
435.05949
435.05913
435.05964
435.05994
435.06007
435.06014
435.06013
435.06006
435.05991
435.05969
435.0594
435.05904
435.05952
435.05981
435.05994
435.06
435.05999
435.05991
435.05975
435.05953
435.05923
435.05887
435.05934
435.05962
435.05974
435.05979
435.05978
435.05969
435.05953
435.0593
435.059
435.05863
435.0591
435.05936
435.05947
435.05951
435.05949
435.0594
435.05923
435.059
435.05869
435.05831
435.05883
435.05903
435.05912
435.05916
435.05913
435.05904
435.05887
435.05863
435.05831
435.0579
442.55274
442.5531
442.55327
442.55336
442.55337
442.55332
442.5532
442.55302
442.55278
442.55251
442.5531
442.55341
442.55357
442.55365
442.55366
442.55361
442.55348
442.55329
442.55303
442.5527
442.55327
442.55357
442.55372
442.55379
442.5538
442.55374
442.55361
442.55341
442.55314
442.55279
442.55336
442.55365
442.55379
442.55387
442.55387
442.5538
442.55367
442.55346
442.55318
442.55283
442.55337
442.55366
442.5538
442.55387
442.55387
442.55379
442.55365
442.55344
442.55315
442.5528
442.55332
442.55361
442.55374
442.5538
442.55379
442.55372
442.55357
442.55335
442.55306
442.5527
442.5532
442.55348
442.55361
442.55367
442.55365
442.55357
442.55342
442.55319
442.5529
442.55254
442.55302
442.55329
442.55341
442.55346
442.55344
442.55335
442.55319
442.55296
442.55266
442.5523
442.55278
442.55303
442.55314
442.55318
442.55315
442.55306
442.5529
442.55266
442.55236
442.55198
442.55251
442.5527
442.55279
442.55283
442.5528
442.5527
442.55254
442.5523
442.55198
442.55157
450.00381
450.00416
450.00432
450.00441
450.00442
450.00437
450.00425
450.00407
450.00383
450.00357
450.00416
450.00446
450.00461
450.00469
450.0047
450.00465
450.00452
450.00433
450.00408
450.00375
450.00432
450.00461
450.00476
450.00483
450.00484
450.00478
450.00465
450.00445
450.00418
450.00384
450.00441
450.00469
450.00483
450.0049
450.0049
450.00484
450.0047
450.0045
450.00422
450.00387
450.00442
450.0047
450.00484
450.0049
450.0049
450.00483
450.00469
450.00447
450.00419
450.00384
450.00437
450.00465
450.00478
450.00484
450.00483
450.00475
450.0046
450.00439
450.0041
450.00375
450.00425
450.00452
450.00465
450.0047
450.00469
450.0046
450.00445
450.00423
450.00394
450.00358
450.00407
450.00433
450.00445
450.0045
450.00447
450.00439
450.00423
450.004
450.00371
450.00335
450.00383
450.00408
450.00418
450.00422
450.00419
450.0041
450.00394
450.00371
450.0034
450.00303
450.00357
450.00375
450.00384
450.00387
450.00384
450.00375
450.00358
450.00335
450.00303
450.00263
457.41298
457.41332
457.41347
457.41355
457.41356
457.41351
457.41339
457.41321
457.41298
457.41272
457.41332
457.41361
457.41375
457.41383
457.41384
457.41378
457.41366
457.41347
457.41322
457.4129
457.41347
457.41375
457.41389
457.41396
457.41397
457.41391
457.41378
457.41358
457.41332
457.41299
457.41355
457.41383
457.41396
457.41403
457.41403
457.41396
457.41383
457.41363
457.41336
457.41302
457.41356
457.41384
457.41397
457.41403
457.41402
457.41395
457.41381
457.4136
457.41333
457.41298
457.41351
457.41378
457.41391
457.41396
457.41395
457.41387
457.41373
457.41352
457.41324
457.41289
457.41339
457.41366
457.41378
457.41383
457.41381
457.41373
457.41358
457.41336
457.41308
457.41273
457.41321
457.41347
457.41358
457.41363
457.4136
457.41352
457.41336
457.41314
457.41285
457.41249
457.41298
457.41322
457.41332
457.41336
457.41333
457.41324
457.41308
457.41285
457.41255
457.41219
457.41272
457.4129
457.41299
457.41302
457.41298
457.41289
457.41273
457.41249
457.41219
457.4118
464.78097
464.78129
464.78144
464.78152
464.78153
464.78147
464.78135
464.78118
464.78096
464.7807
464.78129
464.78157
464.78171
464.78178
464.78179
464.78173
464.78161
464.78143
464.78119
464.78087
464.78144
464.78171
464.78184
464.78191
464.78191
464.78185
464.78172
464.78153
464.78128
464.78095
464.78152
464.78178
464.78191
464.78197
464.78197
464.7819
464.78177
464.78158
464.78131
464.78098
464.78153
464.78179
464.78191
464.78197
464.78196
464.78189
464.78175
464.78155
464.78128
464.78095
464.78147
464.78173
464.78185
464.7819
464.78189
464.78181
464.78167
464.78146
464.78119
464.78085
464.78135
464.78161
464.78172
464.78177
464.78175
464.78167
464.78152
464.78131
464.78104
464.7807
464.78118
464.78143
464.78153
464.78158
464.78155
464.78146
464.78131
464.7811
464.78081
464.78047
464.78096
464.78119
464.78128
464.78131
464.78128
464.78119
464.78104
464.78081
464.78052
464.78017
464.7807
464.78087
464.78095
464.78098
464.78095
464.78085
464.7807
464.78047
464.78017
464.77979
472.10851
472.10881
472.10896
472.10903
472.10903
472.10898
472.10887
472.1087
472.10848
472.10824
472.10881
472.10908
472.10921
472.10928
472.10929
472.10923
472.10911
472.10893
472.1087
472.1084
472.10896
472.10921
472.10934
472.1094
472.1094
472.10934
472.10922
472.10904
472.10879
472.10847
472.10903
472.10928
472.1094
472.10946
472.10946
472.10939
472.10926
472.10907
472.10882
472.1085
472.10903
472.10929
472.1094
472.10946
472.10945
472.10938
472.10924
472.10905
472.10879
472.10846
472.10898
472.10923
472.10934
472.10939
472.10938
472.1093
472.10916
472.10896
472.1087
472.10837
472.10887
472.10911
472.10922
472.10926
472.10924
472.10916
472.10902
472.10881
472.10855
472.10822
472.1087
472.10893
472.10904
472.10907
472.10905
472.10896
472.10881
472.1086
472.10833
472.108
472.10848
472.1087
472.10879
472.10882
472.10879
472.1087
472.10855
472.10833
472.10805
472.10771
472.10824
472.1084
472.10847
472.1085
472.10846
472.10837
472.10822
472.108
472.10771
472.10734
479.39633
479.39662
479.39675
479.39682
479.39683
479.39677
479.39666
479.3965
479.39629
479.39605
479.39662
479.39687
479.397
479.39706
479.39706
479.39701
479.39689
479.39672
479.3965
479.39621
479.39675
479.397
479.39712
479.39717
479.39717
479.39711
479.39699
479.39682
479.39658
479.39628
479.39682
479.39706
479.39717
479.39723
479.39722
479.39716
479.39703
479.39685
479.39661
479.3963
479.39683
479.39706
479.39717
479.39722
479.39721
479.39714
479.39701
479.39683
479.39658
479.39627
479.39677
479.39701
479.39711
479.39716
479.39714
479.39707
479.39694
479.39674
479.39649
479.39618
479.39666
479.39689
479.39699
479.39703
479.39701
479.39694
479.3968
479.3966
479.39634
479.39603
479.3965
479.39672
479.39682
479.39685
479.39683
479.39674
479.3966
479.3964
479.39613
479.39581
479.39629
479.3965
479.39658
479.39661
479.39658
479.39649
479.39634
479.39613
479.39586
479.39554
479.39605
479.39621
479.39628
479.3963
479.39627
479.39618
479.39603
479.39581
479.39554
479.39518
486.64517
486.64544
486.64557
486.64563
486.64563
486.64558
486.64547
486.64532
486.64512
486.64489
486.64544
486.64568
486.6458
486.64585
486.64585
486.6458
486.64569
486.64553
486.64531
486.64503
486.64557
486.6458
486.64591
486.64596
486.64596
486.6459
486.64578
486.64561
486.64539
486.6451
486.64563
486.64585
486.64596
486.64601
486.646
486.64594
486.64582
486.64564
486.64541
486.64512
486.64563
486.64585
486.64596
486.646
486.64599
486.64592
486.6458
486.64562
486.64538
486.64508
486.64558
486.6458
486.6459
486.64594
486.64592
486.64585
486.64572
486.64554
486.6453
486.645
486.64547
486.64569
486.64578
486.64582
486.6458
486.64572
486.64559
486.6454
486.64516
486.64485
486.64532
486.64553
486.64561
486.64564
486.64562
486.64554
486.6454
486.64521
486.64496
486.64465
486.64512
486.64531
486.64539
486.64541
486.64538
486.6453
486.64516
486.64496
486.6447
486.64439
486.64489
486.64503
486.6451
486.64512
486.64508
486.645
486.64485
486.64465
486.64439
486.64405
493.85576
493.85602
493.85613
493.85619
493.85619
493.85614
493.85604
493.85589
493.8557
493.85549
493.85602
493.85624
493.85634
493.8564
493.8564
493.85634
493.85624
493.85608
493.85588
493.85562
493.85613
493.85634
493.85645
493.85649
493.85649
493.85643
493.85632
493.85616
493.85595
493.85568
493.85619
493.8564
493.85649
493.85654
493.85653
493.85647
493.85636
493.85619
493.85597
493.85569
493.85619
493.8564
493.85649
493.85653
493.85652
493.85645
493.85634
493.85616
493.85594
493.85566
493.85614
493.85634
493.85643
493.85647
493.85645
493.85638
493.85626
493.85609
493.85586
493.85558
493.85604
493.85624
493.85632
493.85636
493.85634
493.85626
493.85614
493.85596
493.85572
493.85544
493.85589
493.85608
493.85616
493.85619
493.85616
493.85609
493.85596
493.85577
493.85554
493.85525
493.8557
493.85588
493.85595
493.85597
493.85594
493.85586
493.85572
493.85554
493.85529
493.855
493.85549
493.85562
493.85568
493.85569
493.85566
493.85558
493.85544
493.85525
493.855
493.85468
501.02885
501.02908
501.02919
501.02924
501.02923
501.02919
501.02909
501.02895
501.02877
501.02857
501.02908
501.02928
501.02938
501.02943
501.02942
501.02937
501.02927
501.02913
501.02894
501.02869
501.02919
501.02938
501.02947
501.02952
501.02951
501.02946
501.02935
501.0292
501.029
501.02875
501.02924
501.02943
501.02952
501.02956
501.02955
501.02949
501.02938
501.02922
501.02902
501.02876
501.02923
501.02942