/*--------------------------------*- C++ -*----------------------------------*\
| =========                 |                                                 |
| \\      /  F ield         | OpenFOAM: The Open Source CFD Toolbox           |
|  \\    /   O peration     | Version:  v2106                                 |
|   \\  /    A nd           | Website:  www.openfoam.com                      |
|    \\/     M anipulation  |                                                 |
\*---------------------------------------------------------------------------*/
FoamFile
{
    version     2.0;
    format      ascii;
    arch        "LSB;label=32;scalar=64";
    class       volVectorField;
    location    "2.5";
    object      flux;
}
// * * * * * * * * * * * * * * * * * * * * * * * * * * * * * * * * * * * * * //

dimensions      [0 1 -1 1 0 0 0];

internalField   nonuniform List<vector> 
4000
(
(-8.6716799e-10 -8.6716799e-10 9.4003185e-05)
(-4.3998764e-09 -2.3660415e-09 9.3996932e-05)
(-1.7597964e-09 3.5039941e-11 9.3982691e-05)
(-1.510818e-09 -1.1042273e-09 9.3987114e-05)
(-5.573706e-09 -1.405358e-09 9.397229e-05)
(-4.5197761e-09 -1.4124808e-09 9.3957988e-05)
(-2.7911423e-09 -1.353974e-09 9.3948421e-05)
(-1.4291144e-09 -1.2871118e-09 9.3943074e-05)
(-5.3574423e-10 -1.1868016e-09 9.3940719e-05)
(-6.7704007e-11 -9.8141986e-10 9.394009e-05)
(-2.3660415e-09 -4.3998764e-09 9.3996932e-05)
(-3.0465645e-09 -3.0465609e-09 9.3982654e-05)
(1.329248e-10 -1.0992753e-09 9.3982685e-05)
(-3.6714149e-09 -3.4280554e-09 9.3979602e-05)
(-6.0360864e-09 -3.9801642e-09 9.3962705e-05)
(-4.4427001e-09 -3.9175677e-09 9.3948373e-05)
(-2.6030887e-09 -3.7142422e-09 9.3939256e-05)
(-1.1783558e-09 -3.5566059e-09 9.3934425e-05)
(-7.7206303e-11 -3.4354471e-09 9.3932963e-05)
(1.3767776e-10 -3.0215998e-09 9.3934012e-05)
(3.5042353e-11 -1.7597928e-09 9.3982691e-05)
(-1.0992753e-09 1.329248e-10 9.3982685e-05)
(-2.1412909e-09 -2.1412873e-09 9.3975879e-05)
(-4.3917068e-09 -2.9269326e-09 9.3969841e-05)
(-6.0632184e-09 -2.994645e-09 9.39524e-05)
(-4.2538542e-09 -2.7841376e-09 9.393844e-05)
(-2.4301804e-09 -2.4691146e-09 9.3929924e-05)
(-1.1503193e-09 -2.2354371e-09 9.392536e-05)
(-7.3808959e-13 -2.2749827e-09 9.3923779e-05)
(2.0819422e-10 -2.418769e-09 9.3925498e-05)
(-1.1042297e-09 -1.5108288e-09 9.3987114e-05)
(-3.428059e-09 -3.6714186e-09 9.3979602e-05)
(-2.9269326e-09 -4.3917032e-09 9.3969841e-05)
(-4.5247727e-09 -4.5247727e-09 9.3962906e-05)
(-5.8932914e-09 -4.3844489e-09 9.3945606e-05)
(-3.9171697e-09 -4.0810472e-09 9.3932372e-05)
(-2.0543881e-09 -3.6507014e-09 9.3924919e-05)
(-9.8422388e-10 -3.1783858e-09 9.3921269e-05)
(-2.6053826e-10 -2.8630553e-09 9.3919637e-05)
(4.1820231e-11 -2.8332676e-09 9.3920185e-05)
(-1.4053508e-09 -5.5737133e-09 9.397229e-05)
(-3.9801497e-09 -6.0360827e-09 9.3962705e-05)
(-2.994645e-09 -6.063222e-09 9.39524e-05)
(-4.3844525e-09 -5.893295e-09 9.3945606e-05)
(-5.6194929e-09 -5.6194893e-09 9.3928869e-05)
(-3.5201067e-09 -5.2798705e-09 9.3916526e-05)
(-1.527519e-09 -4.861913e-09 9.3910312e-05)
(-3.6267316e-10 -4.3620638e-09 9.390822e-05)
(3.4438013e-10 -3.8285194e-09 9.3908246e-05)
(2.2805268e-10 -3.3762118e-09 9.3910172e-05)
(-1.412476e-09 -4.5197653e-09 9.3957988e-05)
(-3.9175677e-09 -4.4427001e-09 9.3948373e-05)
(-2.7841449e-09 -4.253865e-09 9.393844e-05)
(-4.08104e-09 -3.9171733e-09 9.3932372e-05)
(-5.2798669e-09 -3.520103e-09 9.3916526e-05)
(-3.1595935e-09 -3.1595899e-09 9.3905121e-05)
(-1.1365814e-09 -2.820854e-09 9.3899917e-05)
(4.9169767e-11 -2.4933088e-09 9.3898921e-05)
(7.2531376e-10 -2.1920019e-09 9.3900051e-05)
(3.4335862e-10 -1.9659911e-09 9.3902882e-05)
(-1.353974e-09 -2.7911423e-09 9.3948421e-05)
(-3.7142494e-09 -2.6030959e-09 9.3939256e-05)
(-2.4691183e-09 -2.4301804e-09 9.3929924e-05)
(-3.6506906e-09 -2.0543845e-09 9.3924919e-05)
(-4.8619094e-09 -1.5275227e-09 9.3910312e-05)
(-2.8208576e-09 -1.136585e-09 9.3899917e-05)
(-8.6123795e-10 -8.6124519e-10 9.3895533e-05)
(2.6617885e-10 -6.7295284e-10 9.3895202e-05)
(8.7169783e-10 -5.6263745e-10 9.389683e-05)
(3.787266e-10 -5.284574e-10 9.3899934e-05)
(-1.2871118e-09 -1.4291144e-09 9.3943074e-05)
(-3.5566059e-09 -1.1783558e-09 9.3934425e-05)
(-2.2354334e-09 -1.1503157e-09 9.392536e-05)
(-3.1783822e-09 -9.8422388e-10 9.3921269e-05)
(-4.3620675e-09 -3.6266954e-10 9.390822e-05)
(-2.493316e-09 4.9173385e-11 9.3898921e-05)
(-6.7294922e-10 2.6617885e-10 9.3895202e-05)
(3.4777751e-10 3.4777389e-10 9.3895214e-05)
(8.6980919e-10 3.3309894e-10 9.3896923e-05)
(3.6614532e-10 2.6368237e-10 9.3899905e-05)
(-1.1868016e-09 -5.3574061e-10 9.3940719e-05)
(-3.4354507e-09 -7.7202684e-11 9.3932963e-05)
(-2.2749863e-09 -7.3447128e-13 9.3923779e-05)
(-2.8630444e-09 -2.6053826e-10 9.3919637e-05)
(-3.8285122e-09 3.4438374e-10 9.3908247e-05)
(-2.1920092e-09 7.2531738e-10 9.3900051e-05)
(-5.6263745e-10 8.7170507e-10 9.389683e-05)
(3.3309894e-10 8.6982005e-10 9.3896923e-05)
(7.8760632e-10 7.8761355e-10 9.3898454e-05)
(3.3244889e-10 7.0206033e-10 9.3901171e-05)
(-9.8141986e-10 -6.7704007e-11 9.394009e-05)
(-3.0215998e-09 1.3767776e-10 9.3934012e-05)
(-2.418769e-09 2.0819664e-10 9.3925498e-05)
(-2.833264e-09 4.1822643e-11 9.3920185e-05)
(-3.3762118e-09 2.2805027e-10 9.3910172e-05)
(-1.9659947e-09 3.4335621e-10 9.3902882e-05)
(-5.2844655e-10 3.787266e-10 9.3899934e-05)
(2.6368599e-10 3.6615014e-10 9.3899905e-05)
(7.0204947e-10 3.324513e-10 9.3901171e-05)
(3.0910983e-10 3.0911224e-10 9.3903792e-05)
(-3.6518226e-09 -3.6518251e-09 0.00016638264)
(-1.7540955e-08 -7.179844e-09 0.0001663779)
(-9.4468991e-09 -1.1145398e-10 0.00016636045)
(-1.1068551e-08 -4.1995746e-09 0.00016636073)
(-2.6967919e-08 -5.3694253e-09 0.00016633733)
(-2.2245414e-08 -5.3776142e-09 0.00016631478)
(-1.3997701e-08 -5.1032088e-09 0.0001662994)
(-7.2658725e-09 -4.7875982e-09 0.00016629066)
(-2.8682317e-09 -4.1952039e-09 0.00016628685)
(-4.251277e-10 -3.1338138e-09 0.00016628512)
(-7.1798416e-09 -1.7540955e-08 0.0001663779)
(-1.2230399e-08 -1.2230406e-08 0.00016636364)
(-4.976495e-09 -6.9201352e-09 0.00016635931)
(-1.8955508e-08 -1.5625815e-08 0.00016635103)
(-2.8734978e-08 -1.7895271e-08 0.0001663251)
(-2.1846089e-08 -1.7568627e-08 0.00016630262)
(-1.3112677e-08 -1.6601707e-08 0.00016628791)
(-5.9038651e-09 -1.5900533e-08 0.00016627983)
(-3.8755507e-10 -1.5102491e-08 0.00016627804)
(6.3626241e-10 -1.2822904e-08 0.00016627983)
(-1.1145639e-10 -9.4468991e-09 0.00016636045)
(-6.9201352e-09 -4.9765058e-09 0.00016635931)
(-1.2842308e-08 -1.2842311e-08 0.00016634784)
(-2.2043687e-08 -1.6263173e-08 0.00016633569)
(-2.8910731e-08 -1.6664383e-08 0.00016630897)
(-2.095185e-08 -1.5649274e-08 0.00016628712)
(-1.2329607e-08 -1.409815e-08 0.00016627341)
(-5.7666563e-09 -1.3027695e-08 0.00016626554)
(2.0939682e-10 -1.316456e-08 0.00016626327)
(1.0945969e-09 -1.3484037e-08 0.00016626611)
(-4.1995794e-09 -1.1068559e-08 0.00016636073)
(-1.5625811e-08 -1.8955505e-08 0.00016635103)
(-1.6263163e-08 -2.2043687e-08 0.00016633569)
(-2.277758e-08 -2.2777573e-08 0.00016632217)
(-2.8121079e-08 -2.2143094e-08 0.00016629565)
(-1.9279855e-08 -2.0627929e-08 0.00016627504)
(-1.0491097e-08 -1.8467215e-08 0.00016626316)
(-4.9702755e-09 -1.617529e-08 0.00016625686)
(-8.4389722e-10 -1.4710059e-08 0.00016625471)
(4.2327766e-10 -1.4490307e-08 0.00016625627)
(-5.3694205e-09 -2.6967915e-08 0.00016633733)
(-1.7895264e-08 -2.8734971e-08 0.0001663251)
(-1.6664376e-08 -2.8910727e-08 0.00016630897)
(-2.2143094e-08 -2.8121083e-08 0.00016629565)
(-2.6761087e-08 -2.676108e-08 0.00016627005)
(-1.727597e-08 -2.5036703e-08 0.00016625093)
(-7.8769674e-09 -2.2916348e-08 0.00016624112)
(-2.0095003e-09 -2.0435371e-08 0.00016623735)
(1.89438e-09 -1.7892453e-08 0.00016623777)
(1.2410981e-09 -1.5826611e-08 0.0001662414)
(-5.3776167e-09 -2.2245406e-08 0.00016631478)
(-1.7568623e-08 -2.1846082e-08 0.00016630262)
(-1.5649274e-08 -2.0951857e-08 0.00016628712)
(-2.0627933e-08 -1.9279866e-08 0.00016627504)
(-2.5036699e-08 -1.7275967e-08 0.00016625093)
(-1.5435123e-08 -1.5435127e-08 0.00016623337)
(-5.8897654e-09 -1.3705634e-08 0.00016622526)
(5.3620058e-11 -1.2046708e-08 0.0001662233)
(3.7648626e-09 -1.0549019e-08 0.0001662255)
(1.8005051e-09 -9.4581441e-09 0.00016623054)
(-5.103204e-09 -1.3997701e-08 0.0001662994)
(-1.6601714e-08 -1.3112666e-08 0.00016628791)
(-1.4098161e-08 -1.232961e-08 0.00016627341)
(-1.8467204e-08 -1.0491094e-08 0.00016626316)
(-2.2916348e-08 -7.8769711e-09 0.00016624112)
(-1.3705638e-08 -5.8897654e-09 0.00016622526)
(-4.4885488e-09 -4.4885488e-09 0.00016621852)
(1.1471147e-09 -3.5414746e-09 0.00016621763)
(4.4829444e-09 -3.0042899e-09 0.0001662206)
(1.9683482e-09 -2.880374e-09 0.00016622599)
(-4.7875934e-09 -7.2658688e-09 0.00016629066)
(-1.5900533e-08 -5.9038651e-09 0.00016627983)
(-1.3027702e-08 -5.7666491e-09 0.00016626554)
(-1.6175294e-08 -4.9702719e-09 0.00016625686)
(-2.0435371e-08 -2.0094931e-09 0.00016623735)
(-1.2046701e-08 5.3623676e-11 0.0001662233)
(-3.5414746e-09 1.1471255e-09 0.00016621763)
(1.537879e-09 1.5378826e-09 0.00016621726)
(4.4259631e-09 1.4376616e-09 0.00016622027)
(1.8831157e-09 1.0636273e-09 0.0001662253)
(-4.1952015e-09 -2.8682245e-09 0.00016628685)
(-1.5102495e-08 -3.8755507e-10 0.00016627804)
(-1.3164567e-08 2.0940044e-10 0.00016626327)
(-1.4710048e-08 -8.4390084e-10 0.00016625471)
(-1.7892453e-08 1.8943872e-09 0.00016623777)
(-1.0549019e-08 3.7648626e-09 0.0001662255)
(-3.0042899e-09 4.482948e-09 0.0001662206)
(1.4376507e-09 4.4259704e-09 0.00016622027)
(4.0086891e-09 4.0086963e-09 0.00016622293)
(1.718992e-09 3.7246873e-09 0.00016622764)
(-3.1338138e-09 -4.2512529e-10 0.00016628512)
(-1.2822908e-08 6.3626241e-10 0.00016627983)
(-1.3484048e-08 1.0945993e-09 0.00016626611)
(-1.4490307e-08 4.2327524e-10 0.00016625627)
(-1.5826608e-08 1.2410933e-09 0.0001662414)
(-9.4581405e-09 1.8005051e-09 0.00016623054)
(-2.8803668e-09 1.9683458e-09 0.00016622599)
(1.0636273e-09 1.8831205e-09 0.0001662253)
(3.7246801e-09 1.7189968e-09 0.00016622764)
(1.6937764e-09 1.6937812e-09 0.00016623232)
(-4.0235521e-09 -4.0235521e-09 0.00023364425)
(-2.6592396e-08 -1.1872925e-08 0.00023364187)
(-1.8929386e-08 -7.2314319e-10 0.0002336217)
(-2.4628669e-08 -7.5721403e-09 0.00023362117)
(-5.1530571e-08 -9.5541575e-09 0.00023359289)
(-4.2447743e-08 -9.5193394e-09 0.00023356563)
(-2.6909221e-08 -9.0148954e-09 0.00023354687)
(-1.3977546e-08 -8.5054633e-09 0.00023353598)
(-6.0775331e-09 -7.0632219e-09 0.00023353164)
(-1.2237906e-09 -4.5037934e-09 0.0002335289)
(-1.1872925e-08 -2.6592392e-08 0.00023364187)
(-2.1641783e-08 -2.1641783e-08 0.00023362527)
(-1.2478209e-08 -1.3706388e-08 0.00023362043)
(-3.7875191e-08 -2.8470916e-08 0.00023361011)
(-5.445137e-08 -3.2341645e-08 0.00023357898)
(-4.1638849e-08 -3.1571614e-08 0.0002335519)
(-2.5388407e-08 -2.969936e-08 0.0002335339)
(-1.1050036e-08 -2.8680151e-08 0.00023352338)
(-7.502837e-11 -2.7015025e-08 0.00023352168)
(1.3356379e-09 -2.2032037e-08 0.00023352415)
(-7.231456e-10 -1.892939e-08 0.0002336217)
(-1.3706392e-08 -1.2478213e-08 0.00023362043)
(-2.575852e-08 -2.5758523e-08 0.00023360732)
(-4.3263926e-08 -3.1789105e-08 0.00023359254)
(-5.4631269e-08 -3.2445437e-08 0.00023356055)
(-3.9805457e-08 -3.0365671e-08 0.00023353439)
(-2.4017758e-08 -2.721609e-08 0.00023351775)
(-1.1293211e-08 -2.5209681e-08 0.00023350729)
(5.7058031e-10 -2.5603644e-08 0.00023350471)
(2.0982014e-09 -2.5979346e-08 0.00023350849)
(-7.5721403e-09 -2.462868e-08 0.00023362117)
(-2.8470916e-08 -3.7875194e-08 0.00023361011)
(-3.1789101e-08 -4.3263933e-08 0.00023359254)
(-4.4562105e-08 -4.4562108e-08 0.00023357618)
(-5.3027937e-08 -4.3296988e-08 0.00023354452)
(-3.6409502e-08 -4.027811e-08 0.00023351998)
(-2.0232416e-08 -3.5944957e-08 0.00023350577)
(-9.4375899e-09 -3.1368758e-08 0.00023349737)
(-8.4469418e-10 -2.83658e-08 0.00023349499)
(1.0851695e-09 -2.7536787e-08 0.00023349739)
(-9.5541551e-09 -5.1530575e-08 0.00023359289)
(-3.2341645e-08 -5.445137e-08 0.00023357898)
(-3.2445434e-08 -5.4631265e-08 0.00023356055)
(-4.3296981e-08 -5.3027933e-08 0.00023354452)
(-5.0347271e-08 -5.0347271e-08 0.00023351405)
(-3.2453426e-08 -4.6941792e-08 0.00023349145)
(-1.5108406e-08 -4.276036e-08 0.00023347989)
(-3.7140545e-09 -3.7921379e-08 0.0002334747)
(4.402552e-09 -3.303888e-08 0.00023347552)
(2.650877e-09 -2.9106362e-08 0.00023348047)
(-9.519337e-09 -4.2447739e-08 0.00023356563)
(-3.1571607e-08 -4.1638842e-08 0.0002335519)
(-3.0365664e-08 -3.9805454e-08 0.00023353439)
(-4.027811e-08 -3.6409502e-08 0.00023351998)
(-4.6941796e-08 -3.2453426e-08 0.00023349145)
(-2.8822591e-08 -2.8822595e-08 0.00023347087)
(-1.1212003e-08 -2.5425558e-08 0.00023346148)
(2.8388995e-10 -2.2205496e-08 0.00023345858)
(7.9703234e-09 -1.9360919e-08 0.00023346159)
(3.7068484e-09 -1.738344e-08 0.00023346824)
(-9.0148906e-09 -2.6909218e-08 0.00023354687)
(-2.969936e-08 -2.5388403e-08 0.0002335339)
(-2.7216093e-08 -2.4017755e-08 0.00023351775)
(-3.5944953e-08 -2.0232416e-08 0.00023350577)
(-4.2760364e-08 -1.510841e-08 0.00023347989)
(-2.5425558e-08 -1.1212007e-08 0.00023346148)
(-8.4913069e-09 -8.4913141e-09 0.00023345382)
(2.3505838e-09 -6.7111406e-09 0.00023345223)
(9.2246073e-09 -5.7925396e-09 0.00023345611)
(3.9691963e-09 -5.7747278e-09 0.00023346301)
(-8.5054609e-09 -1.3977543e-08 0.00023353598)
(-2.8680143e-08 -1.1050036e-08 0.00023352338)
(-2.5209677e-08 -1.1293201e-08 0.00023350729)
(-3.1368765e-08 -9.4375826e-09 0.00023349737)
(-3.7921387e-08 -3.7140508e-09 0.0002334747)
(-2.2205496e-08 2.8389357e-10 0.00023345858)
(-6.711137e-09 2.350591e-09 0.00023345223)
(2.9826644e-09 2.9826608e-09 0.00023345117)
(8.9067362e-09 2.6664324e-09 0.00023345496)
(3.718723e-09 1.9173245e-09 0.00023346125)
(-7.0632195e-09 -6.0775331e-09 0.00023353164)
(-2.7015018e-08 -7.5031988e-11 0.00023352168)
(-2.560364e-08 5.7058031e-10 0.00023350471)
(-2.8365804e-08 -8.446978e-10 0.00023349499)
(-3.3038888e-08 4.4025556e-09 0.00023347552)
(-1.9360916e-08 7.9703306e-09 0.00023346159)
(-5.7925396e-09 9.2246217e-09 0.00023345611)
(2.6664251e-09 8.9067326e-09 0.00023345496)
(8.159271e-09 8.159271e-09 0.00023345836)
(3.469791e-09 7.7206244e-09 0.00023346479)
(-4.5037934e-09 -1.223793e-09 0.0002335289)
(-2.203203e-08 1.3356331e-09 0.00023352415)
(-2.5979343e-08 2.098199e-09 0.00023350849)
(-2.753679e-08 1.0851646e-09 0.00023349739)
(-2.9106358e-08 2.6508746e-09 0.00023348047)
(-1.738343e-08 3.7068508e-09 0.00023346824)
(-5.774735e-09 3.9691987e-09 0.00023346301)
(1.9173137e-09 3.7187206e-09 0.00023346125)
(7.720628e-09 3.469791e-09 0.00023346479)
(3.4262919e-09 3.4262919e-09 0.0002334703)
(-5.2413649e-09 -5.2413625e-09 0.00035556678)
(-4.0098096e-08 -1.8246285e-08 0.00035556215)
(-3.0142563e-08 -9.5465929e-10 0.0003555347)
(-3.9871578e-08 -1.1573582e-08 0.00035553873)
(-8.2507683e-08 -1.4644365e-08 0.00035550244)
(-6.8273575e-08 -1.4533958e-08 0.00035546659)
(-4.3654379e-08 -1.3746836e-08 0.00035544163)
(-2.2492992e-08 -1.3182439e-08 0.00035542662)
(-9.948619e-09 -1.0831748e-08 0.00035542057)
(-2.2527002e-09 -6.296219e-09 0.00035541666)
(-1.8246288e-08 -4.0098103e-08 0.00035556215)
(-3.3668041e-08 -3.3668048e-08 0.00035553908)
(-2.0133507e-08 -2.1297507e-08 0.00035553502)
(-6.0406137e-08 -4.4262863e-08 0.00035552519)
(-8.6948247e-08 -5.0240124e-08 0.00035548488)
(-6.6927281e-08 -4.8808674e-08 0.00035544931)
(-4.1627101e-08 -4.5719253e-08 0.00035542542)
(-1.8120361e-08 -4.4587114e-08 0.00035541063)
(3.8071075e-10 -4.2034726e-08 0.0003554079)
(2.2828293e-09 -3.3226604e-08 0.00035541103)
(-9.546617e-10 -3.014257e-08 0.0003555347)
(-2.12975e-08 -2.0133514e-08 0.00035553502)
(-4.0737378e-08 -4.0737396e-08 0.00035551933)
(-6.8814195e-08 -5.0199761e-08 0.00035550329)
(-8.7053494e-08 -5.1130205e-08 0.00035546182)
(-6.3752703e-08 -4.7564682e-08 0.00035542757)
(-3.9432818e-08 -4.22284e-08 0.00035540554)
(-1.8808465e-08 -3.9043055e-08 0.0003553907)
(1.4118904e-09 -3.9859819e-08 0.00035538668)
(3.6193812e-09 -4.0247252e-08 0.00035539186)
(-1.1573584e-08 -3.9871581e-08 0.00035553873)
(-4.4262867e-08 -6.0406133e-08 0.00035552519)
(-5.0199753e-08 -6.8814198e-08 0.00035550329)
(-7.0798946e-08 -7.0798946e-08 0.00035548509)
(-8.4313168e-08 -6.864282e-08 0.00035544411)
(-5.8025475e-08 -6.3576773e-08 0.00035541212)
(-3.3105474e-08 -5.6321022e-08 0.00035539343)
(-1.575178e-08 -4.8765782e-08 0.00035538125)
(-8.2348635e-10 -4.3895507e-08 0.00035537713)
(2.0245405e-09 -4.2509515e-08 0.0003553799)
(-1.4644363e-08 -8.250769e-08 0.00035550244)
(-5.0240117e-08 -8.6948239e-08 0.00035548488)
(-5.1130191e-08 -8.7053497e-08 0.00035546182)
(-6.8642816e-08 -8.4313168e-08 0.00035544411)
(-7.9831321e-08 -7.983131e-08 0.00035540481)
(-5.1430905e-08 -7.4153064e-08 0.0003553755)
(-2.4621826e-08 -6.7201359e-08 0.00035536051)
(-6.3829508e-09 -5.9229838e-08 0.00035535273)
(7.6681571e-09 -5.1289206e-08 0.00035535294)
(4.5433759e-09 -4.4980209e-08 0.00035535909)
(-1.453395e-08 -6.8273564e-08 0.00035546659)
(-4.8808674e-08 -6.692727e-08 0.00035544931)
(-4.7564682e-08 -6.3752703e-08 0.00035542757)
(-6.3576759e-08 -5.8025486e-08 0.00035541212)
(-7.4153064e-08 -5.1430905e-08 0.0003553755)
(-4.5395523e-08 -4.5395516e-08 0.00035534901)
(-1.8182249e-08 -3.9779931e-08 0.00035533701)
(1.6037219e-10 -3.4517534e-08 0.00035533236)
(1.3426143e-08 -2.9958011e-08 0.00035533554)
(6.2305385e-09 -2.692061e-08 0.00035534395)
(-1.3746833e-08 -4.3654368e-08 0.00035544163)
(-4.5719256e-08 -4.1627097e-08 0.00035542542)
(-4.2228407e-08 -3.9432804e-08 0.00035540554)
(-5.6321018e-08 -3.3105474e-08 0.00035539343)
(-6.7201351e-08 -2.4621826e-08 0.00035536051)
(-3.9779931e-08 -1.8182252e-08 0.00035533701)
(-1.3743845e-08 -1.3743845e-08 0.00035532734)
(3.4389696e-09 -1.0942474e-08 0.00035532444)
(1.5265081e-08 -9.6327554e-09 0.00035532871)
(6.5683096e-09 -9.8624359e-09 0.00035533732)
(-1.3182436e-08 -2.2492988e-08 0.00035542662)
(-4.458711e-08 -1.8120365e-08 0.00035541063)
(-3.9043059e-08 -1.8808458e-08 0.0003553907)
(-4.8765782e-08 -1.575178e-08 0.00035538125)
(-5.9229842e-08 -6.3829508e-09 0.00035535273)
(-3.4517542e-08 1.6037581e-10 0.00035533236)
(-1.0942471e-08 3.4389732e-09 0.00035532444)
(4.2714614e-09 4.2714614e-09 0.00035532215)
(1.4506181e-08 3.6823627e-09 0.00035532614)
(6.0774181e-09 2.8458548e-09 0.00035533383)
(-1.0831751e-08 -9.948619e-09 0.00035542057)
(-4.2034726e-08 3.8070351e-10 0.0003554079)
(-3.9859822e-08 1.4118904e-09 0.00035538668)
(-4.3895511e-08 -8.2348273e-10 0.00035537713)
(-5.1289195e-08 7.6681571e-09 0.00035535294)
(-2.9958007e-08 1.342615e-08 0.00035533554)
(-9.632759e-09 1.5265088e-08 0.00035532871)
(3.6823591e-09 1.4506181e-08 0.00035532614)
(1.3839475e-08 1.3839478e-08 0.00035532967)
(6.0106377e-09 1.2774234e-08 0.00035533847)
(-6.2962214e-09 -2.2527026e-09 0.00035541666)
(-3.3226601e-08 2.2828269e-09 0.00035541103)
(-4.0247245e-08 3.6193812e-09 0.00035539186)
(-4.2509515e-08 2.0245453e-09 0.0003553799)
(-4.4980209e-08 4.5433783e-09 0.00035535909)
(-2.692061e-08 6.230536e-09 0.00035534395)
(-9.8624395e-09 6.5683096e-09 0.00035533732)
(2.8458512e-09 6.0774157e-09 0.00035533383)
(1.2774234e-08 6.0106377e-09 0.00035533847)
(5.3672554e-09 5.3672554e-09 0.00035534502)
(-7.1045645e-09 -7.1045645e-09 0.00055682524)
(-5.8670583e-08 -2.725495e-08 0.00055681971)
(-4.2350584e-08 -5.1080444e-10 0.0005567829)
(-5.6886668e-08 -1.6602459e-08 0.00055679514)
(-1.2367191e-07 -2.1262302e-08 0.00055674707)
(-1.0325613e-07 -2.1039487e-08 0.00055669819)
(-6.6876719e-08 -1.9825081e-08 0.00055666377)
(-3.5042932e-08 -1.9164839e-08 0.00055664243)
(-1.6041988e-08 -1.5509166e-08 0.00055663304)
(-3.827818e-09 -8.255622e-09 0.00055662689)
(-2.725495e-08 -5.8670587e-08 0.00055681971)
(-4.8779943e-08 -4.8779943e-08 0.00055678774)
(-2.6371848e-08 -2.9072469e-08 0.00055678646)
(-8.8013914e-08 -6.3916864e-08 0.00055677855)
(-1.3032745e-07 -7.2961804e-08 0.00055672459)
(-1.011003e-07 -7.0595916e-08 0.00055667607)
(-6.4064747e-08 -6.5789134e-08 0.00055664316)
(-2.8569059e-08 -6.4601953e-08 0.00055662207)
(3.2183791e-10 -6.0896302e-08 0.00055661746)
(3.4257257e-09 -4.6833459e-08 0.00055662127)
(-5.1080203e-10 -4.2350587e-08 0.0005567829)
(-2.9072465e-08 -2.6371855e-08 0.00055678646)
(-5.7487505e-08 -5.7487512e-08 0.00055676851)
(-1.00776e-07 -7.1885468e-08 0.00055675158)
(-1.3035096e-07 -7.3213614e-08 0.00055669592)
(-9.6083462e-08 -6.7554506e-08 0.00055664925)
(-6.0882755e-08 -5.9197759e-08 0.00055661887)
(-3.01501e-08 -5.4592357e-08 0.00055659734)
(1.7265067e-09 -5.6374904e-08 0.00055659049)
(5.5474105e-09 -5.7115777e-08 0.00055659707)
(-1.6602461e-08 -5.6886675e-08 0.00055679514)
(-6.3916868e-08 -8.8013921e-08 0.00055677855)
(-7.1885461e-08 -1.00776e-07 0.00055675158)
(-1.0374002e-07 -1.0374002e-07 0.00055673153)
(-1.2599649e-07 -1.0031074e-07 0.00055667656)
(-8.7084447e-08 -9.2341138e-08 0.00055663312)
(-5.1102598e-08 -8.0977407e-08 0.00055660745)
(-2.5746205e-08 -6.9341949e-08 0.00055658945)
(-2.2015823e-09 -6.2113194e-08 0.00055658191)
(2.9318105e-09 -6.0300099e-08 0.00055658441)
(-2.1262299e-08 -1.2367191e-07 0.00055674707)
(-7.2961793e-08 -1.3032744e-07 0.00055672459)
(-7.3213599e-08 -1.3035096e-07 0.00055669592)
(-1.0031074e-07 -1.2599648e-07 0.00055667656)
(-1.1895208e-07 -1.1895207e-07 0.000556624)
(-7.6750133e-08 -1.1005134e-07 0.0005565844)
(-3.7883566e-08 -9.9185592e-08 0.00055656401)
(-1.1285887e-08 -8.6816884e-08 0.00055655227)
(1.0768357e-08 -7.4624701e-08 0.00055655082)
(6.7561407e-09 -6.5050725e-08 0.00055655802)
(-2.1039487e-08 -1.0325611e-07 0.00055669819)
(-7.0595924e-08 -1.0110029e-07 0.00055667607)
(-6.7554499e-08 -9.6083462e-08 0.00055664925)
(-9.2341123e-08 -8.7084451e-08 0.00055663312)
(-1.1005134e-07 -7.6750137e-08 0.0005565844)
(-6.7317969e-08 -6.7317961e-08 0.00055654883)
(-2.7868141e-08 -5.8589298e-08 0.0005565327)
(-1.1853138e-09 -5.0491546e-08 0.00055652539)
(1.9564577e-08 -4.3590455e-08 0.00055652815)
(9.3144612e-09 -3.9154145e-08 0.00055653852)
(-1.9825086e-08 -6.6876715e-08 0.00055666377)
(-6.5789145e-08 -6.4064744e-08 0.00055664316)
(-5.9197759e-08 -6.0882741e-08 0.00055661887)
(-8.0977411e-08 -5.1102601e-08 0.00055660745)
(-9.9185592e-08 -3.7883566e-08 0.00055656401)
(-5.8589295e-08 -2.7868141e-08 0.0005565327)
(-2.1057151e-08 -2.1057148e-08 0.00055651988)
(3.7129564e-09 -1.6917349e-08 0.00055651501)
(2.2105759e-08 -1.5196997e-08 0.00055651921)
(9.7136808e-09 -1.5900299e-08 0.00055652975)
(-1.9164839e-08 -3.5042947e-08 0.00055664243)
(-6.4601949e-08 -2.8569059e-08 0.00055662207)
(-5.4592357e-08 -3.01501e-08 0.00055659734)
(-6.9341949e-08 -2.5746208e-08 0.00055658945)
(-8.6816884e-08 -1.1285876e-08 0.00055655227)
(-5.049155e-08 -1.1853174e-09 0.00055652539)
(-1.6917349e-08 3.7129636e-09 0.00055651501)
(4.6748375e-09 4.6748375e-09 0.00055651088)
(2.0581627e-08 3.6292695e-09 0.00055651452)
(8.845593e-09 3.0591933e-09 0.0005565236)
(-1.5509161e-08 -1.6041988e-08 0.00055663304)
(-6.0896298e-08 3.218343e-10 0.00055661746)
(-5.6374908e-08 1.7264995e-09 0.00055659049)
(-6.2113187e-08 -2.2015787e-09 0.00055658191)
(-7.4624701e-08 1.0768353e-08 0.00055655082)
(-4.3590455e-08 1.9564581e-08 0.00055652815)
(-1.5196997e-08 2.2105762e-08 0.00055651921)
(3.6292623e-09 2.0581624e-08 0.00055651452)
(2.0490114e-08 2.0490114e-08 0.00055651747)
(9.3336299e-09 1.8912609e-08 0.00055652871)
(-8.2556244e-09 -3.8278156e-09 0.00055662689)
(-4.6833462e-08 3.4257208e-09 0.00055662127)
(-5.711577e-08 5.5474081e-09 0.00055659707)
(-6.0300095e-08 2.9318129e-09 0.00055658441)
(-6.5050725e-08 6.7561359e-09 0.00055655802)
(-3.9154141e-08 9.3144636e-09 0.00055653852)
(-1.5900306e-08 9.7136784e-09 0.00055652975)
(3.0591896e-09 8.8455906e-09 0.0005565236)
(1.8912612e-08 9.3336299e-09 0.00055652871)
(7.7939225e-09 7.7939225e-09 0.00055653684)
(-8.9305356e-09 -8.930538e-09 0.00087663311)
(-8.2442603e-08 -3.9559897e-08 0.00087662849)
(-5.4714579e-08 1.4224964e-09 0.00087657959)
(-7.5697622e-08 -2.2633631e-08 0.00087660514)
(-1.7945742e-07 -2.963452e-08 0.00087654098)
(-1.5157284e-07 -2.927546e-08 0.00087647366)
(-9.941428e-08 -2.7485027e-08 0.00087642567)
(-5.3224863e-08 -2.6751578e-08 0.00087639519)
(-2.5485471e-08 -2.1219572e-08 0.00087638101)
(-6.3530813e-09 -1.0040168e-08 0.00087637108)
(-3.9559895e-08 -8.2442606e-08 0.00087662849)
(-6.6913051e-08 -6.6913058e-08 0.00087658509)
(-2.9325179e-08 -3.568289e-08 0.00087658922)
(-1.2228315e-07 -8.7821163e-08 0.00087658561)
(-1.8942016e-07 -1.013932e-07 0.00087651282)
(-1.483486e-07 -9.7749451e-08 0.00087644594)
(-9.5628457e-08 -9.0617805e-08 0.00087639995)
(-4.3826681e-08 -8.9675646e-08 0.00087636952)
(-4.1835631e-10 -8.4586814e-08 0.00087636217)
(4.8263226e-09 -6.3042857e-08 0.00087636674)
(1.4224964e-09 -5.4714582e-08 0.00087657959)
(-3.5682887e-08 -2.932519e-08 0.00087658922)
(-7.5622683e-08 -7.5622694e-08 0.0008765695)
(-1.4140793e-07 -9.7218948e-08 0.00087655281)
(-1.893857e-07 -9.9158996e-08 0.00087647751)
(-1.4079744e-07 -9.0521603e-08 0.00087641322)
(-9.1340474e-08 -7.7943513e-08 0.00087637068)
(-4.7193872e-08 -7.1664312e-08 0.00087633906)
(1.1473176e-09 -7.5407271e-08 0.00087632783)
(8.0095568e-09 -7.7110513e-08 0.00087633619)
(-2.2633633e-08 -7.5697625e-08 0.00087660514)
(-8.7821163e-08 -1.2228315e-07 0.00087658561)
(-9.7218937e-08 -1.4140794e-07 0.00087655281)
(-1.4581945e-07 -1.4581944e-07 0.00087653158)
(-1.8272281e-07 -1.4056535e-07 0.00087645725)
(-1.2713312e-07 -1.2841992e-07 0.0008763976)
(-7.6771166e-08 -1.1118172e-07 0.00087636175)
(-4.1290438e-08 -9.3837167e-08 0.00087633489)
(-5.8645575e-09 -8.3566738e-08 0.00087632197)
(3.6908278e-09 -8.1564277e-08 0.00087632366)
(-2.9634518e-08 -1.7945741e-07 0.00087654098)
(-1.013932e-07 -1.8942015e-07 0.00087651282)
(-9.9158981e-08 -1.893857e-07 0.00087647751)
(-1.4056535e-07 -1.827228e-07 0.00087645725)
(-1.7198618e-07 -1.7198617e-07 0.0008763864)
(-1.1141381e-07 -1.5844479e-07 0.00087633229)
(-5.6757721e-08 -1.4195178e-07 0.00087630403)
(-1.9578893e-08 -1.2328734e-07 0.00087628612)
(1.3420207e-08 -1.0505249e-07 0.00087628183)
(9.3445308e-09 -9.0874536e-08 0.0008762901)
(-2.9275458e-08 -1.5157283e-07 0.00087647366)
(-9.7749447e-08 -1.483486e-07 0.00087644594)
(-9.0521592e-08 -1.4079745e-07 0.00087641322)
(-1.2841992e-07 -1.2713312e-07 0.0008763976)
(-1.584448e-07 -1.1141381e-07 0.00087633229)
(-9.7098724e-08 -9.709872e-08 0.00087628396)
(-4.1613717e-08 -8.3912262e-08 0.00087626183)
(-4.3911493e-09 -7.1776177e-08 0.00087625029)
(2.6548244e-08 -6.156739e-08 0.00087625199)
(1.3142795e-08 -5.518831e-08 0.00087626478)
(-2.7485029e-08 -9.941428e-08 0.00087642567)
(-9.0617816e-08 -9.5628449e-08 0.00087639995)
(-7.794351e-08 -9.1340474e-08 0.00087637068)
(-1.1118171e-07 -7.6771169e-08 0.00087636175)
(-1.4195178e-07 -5.6757711e-08 0.00087630403)
(-8.3912262e-08 -4.1613717e-08 0.00087626183)
(-3.1435178e-08 -3.1435178e-08 0.00087624442)
(2.765979e-09 -2.5452087e-08 0.00087623632)
(3.0008074e-08 -2.3257373e-08 0.00087624002)
(1.3597251e-08 -2.4773591e-08 0.00087625296)
(-2.6751571e-08 -5.3224871e-08 0.00087639519)
(-8.9675642e-08 -4.3826691e-08 0.00087636952)
(-7.1664312e-08 -4.7193872e-08 0.00087633906)
(-9.3837156e-08 -4.1290445e-08 0.00087633489)
(-1.2328735e-07 -1.9578893e-08 0.00087628612)
(-7.1776191e-08 -4.3911638e-09 0.00087625029)
(-2.5452087e-08 2.7659753e-09 0.00087623632)
(3.786655e-09 3.786655e-09 0.00087622918)
(2.722674e-08 1.9473895e-09 0.00087623195)
(1.2131983e-08 1.8015357e-09 0.00087624266)
(-2.1219577e-08 -2.5485475e-08 0.00087638101)
(-8.4586818e-08 -4.1837078e-10 0.00087636217)
(-7.5407263e-08 1.147314e-09 0.00087632783)
(-8.3566731e-08 -5.8645647e-09 0.00087632197)
(-1.0505249e-07 1.3420197e-08 0.00087628183)
(-6.1567393e-08 2.6548248e-08 0.00087625199)
(-2.3257359e-08 3.0008078e-08 0.00087624002)
(1.9473931e-09 2.722674e-08 0.00087623195)
(2.8022955e-08 2.8022962e-08 0.00087623366)
(1.3500015e-08 2.6007216e-08 0.00087624771)
(-1.0040168e-08 -6.3530837e-09 0.00087637108)
(-6.3042853e-08 4.8263251e-09 0.00087636674)
(-7.7110506e-08 8.0095592e-09 0.00087633619)
(-8.1564274e-08 3.6908303e-09 0.00087632366)
(-9.0874532e-08 9.3445308e-09 0.0008762901)
(-5.518831e-08 1.3142805e-08 0.00087626478)
(-2.4773595e-08 1.3597253e-08 0.00087625296)
(1.8015394e-09 1.2131981e-08 0.00087624266)
(2.6007216e-08 1.3500017e-08 0.00087624771)
(1.0788152e-08 1.0788155e-08 0.00087625758)
(-1.0187317e-08 -1.0187315e-08 0.0013745652)
(-1.121967e-07 -5.6189058e-08 0.0013745633)
(-6.5693335e-08 5.9118083e-09 0.0013744989)
(-9.5487635e-08 -2.962673e-08 0.0013745458)
(-2.551596e-07 -4.0040523e-08 0.0013744607)
(-2.1857049e-07 -3.9517455e-08 0.0013743683)
(-1.4534312e-07 -3.6970745e-08 0.0013743014)
(-7.9705911e-08 -3.6276268e-08 0.0013742577)
(-4.0157023e-08 -2.8067111e-08 0.0013742363)
(-1.044887e-08 -1.1146249e-08 0.0013742204)
(-5.618906e-08 -1.121967e-07 0.0013745633)
(-8.8048019e-08 -8.8048019e-08 0.001374505)
(-2.5849843e-08 -3.9155494e-08 0.0013745186)
(-1.6441613e-07 -1.1624979e-07 0.0013745237)
(-2.6999569e-07 -1.3643275e-07 0.0013744262)
(-2.1396583e-07 -1.3103058e-07 0.0013743343)
(-1.4048134e-07 -1.2077722e-07 0.00137427)
(-6.6350459e-08 -1.2072877e-07 0.0013742258)
(-2.4619933e-09 -1.1407806e-07 0.0013742142)
(6.4719915e-09 -8.1724377e-08 0.0013742194)
(5.9118059e-09 -6.5693331e-08 0.0013744989)
(-3.9155494e-08 -2.5849846e-08 0.0013745186)
(-9.3895104e-08 -9.3895111e-08 0.0013744985)
(-1.9276489e-07 -1.2591601e-07 0.0013744849)
(-2.6994039e-07 -1.2877759e-07 0.0013743836)
(-2.0291497e-07 -1.1589272e-07 0.0013742954)
(-1.3504131e-07 -9.7398822e-08 0.0013742358)
(-7.3006742e-08 -8.9223761e-08 0.0013741891)
(-1.1526258e-09 -9.657772e-08 0.0013741709)
(1.1120249e-08 -1.0019861e-07 0.0013741814)
(-2.9626737e-08 -9.5487631e-08 0.0013745458)
(-1.162498e-07 -1.6441613e-07 0.0013745237)
(-1.2591601e-07 -1.9276489e-07 0.0013744849)
(-1.9929861e-07 -1.9929861e-07 0.0013744646)
(-2.599724e-07 -1.9142917e-07 0.0013743648)
(-1.8258706e-07 -1.7327599e-07 0.0013742832)
(-1.1381238e-07 -1.47627e-07 0.0013742331)
(-6.5529357e-08 -1.2228276e-07 0.0013741927)
(-1.3436846e-08 -1.0811341e-07 0.0013741712)
(4.0580628e-09 -1.0638569e-07 0.0013741711)
(-4.0040526e-08 -2.551596e-07 0.0013744607)
(-1.3643276e-07 -2.6999568e-07 0.0013744262)
(-1.2877759e-07 -2.6994038e-07 0.0013743836)
(-1.9142916e-07 -2.599724e-07 0.0013743648)