/*--------------------------------*- C++ -*----------------------------------*\
| =========                 |                                                 |
| \\      /  F ield         | OpenFOAM: The Open Source CFD Toolbox           |
|  \\    /   O peration     | Version:  v2106                                 |
|   \\  /    A nd           | Website:  www.openfoam.com                      |
|    \\/     M anipulation  |                                                 |
\*---------------------------------------------------------------------------*/
FoamFile
{
    version     2.0;
    format      ascii;
    arch        "LSB;label=32;scalar=64";
    class       volVectorField;
    location    "2.5";
    object      gradT;
}
// * * * * * * * * * * * * * * * * * * * * * * * * * * * * * * * * * * * * * //

dimensions      [0 -1 0 1 0 0 0];

internalField   nonuniform List<vector> 
4000
(
(-6.8120016e-07 -6.8120016e-07 0.073843806)
(-3.4563044e-06 -1.8586339e-06 0.073838894)
(-1.3824007e-06 2.7525478e-08 0.073827707)
(-1.1868167e-06 -8.674211e-07 0.073831181)
(-4.3784013e-06 -1.1039731e-06 0.073819537)
(-3.5504911e-06 -1.1095684e-06 0.073808302)
(-2.19257e-06 -1.0636086e-06 0.073800786)
(-1.1226348e-06 -1.0110853e-06 0.073796586)
(-4.2085162e-07 -9.3228702e-07 0.073794736)
(-5.3184597e-08 -7.7095024e-07 0.073794242)
(-1.8586339e-06 -3.4563044e-06 0.073838894)
(-2.3932159e-06 -2.3932131e-06 0.073827678)
(1.0441852e-07 -8.6353111e-07 0.073827702)
(-2.8840645e-06 -2.6928944e-06 0.07382528)
(-4.7416222e-06 -3.1266012e-06 0.073812007)
(-3.4899443e-06 -3.0774288e-06 0.073800749)
(-2.0448454e-06 -2.9177073e-06 0.073793586)
(-9.2565244e-07 -2.7938768e-06 0.073789792)
(-6.0649086e-08 -2.698701e-06 0.073788643)
(1.0815218e-07 -2.373605e-06 0.073789468)
(2.7527373e-08 -1.3823978e-06 0.073827707)
(-8.6353111e-07 1.0441852e-07 0.073827702)
(-1.682082e-06 -1.6820792e-06 0.073822356)
(-3.4498868e-06 -2.2992396e-06 0.073817613)
(-4.7629356e-06 -2.3524308e-06 0.073803912)
(-3.3415972e-06 -2.1870676e-06 0.073792946)
(-1.909018e-06 -1.9396026e-06 0.073786256)
(-9.0362846e-07 -1.7560382e-06 0.073782671)
(-5.7980317e-10 -1.7871031e-06 0.073781429)
(1.635461e-07 -1.9000538e-06 0.07378278)
(-8.6742299e-07 -1.1868252e-06 0.073831181)
(-2.6928973e-06 -2.8840674e-06 0.07382528)
(-2.2992396e-06 -3.4498839e-06 0.073817613)
(-3.5544161e-06 -3.5544161e-06 0.073812165)
(-4.6294502e-06 -3.4441854e-06 0.073798575)
(-3.0771162e-06 -3.2058495e-06 0.073788179)
(-1.6138159e-06 -2.8677931e-06 0.073782324)
(-7.7315292e-07 -2.4967676e-06 0.073779457)
(-2.0466473e-07 -2.249061e-06 0.073778175)
(3.2851707e-08 -2.2256614e-06 0.073778606)
(-1.1039674e-06 -4.378407e-06 0.073819537)
(-3.1265898e-06 -4.7416194e-06 0.073812007)
(-2.3524308e-06 -4.7629385e-06 0.073803912)
(-3.4441882e-06 -4.6294531e-06 0.073798575)
(-4.414369e-06 -4.4143661e-06 0.073785427)
(-2.765205e-06 -4.1475801e-06 0.073775732)
(-1.1999362e-06 -3.8192553e-06 0.07377085)
(-2.8489637e-07 -3.4266009e-06 0.073769207)
(2.7052636e-07 -3.0074773e-06 0.073769227)
(1.7914582e-07 -2.652169e-06 0.07377074)
(-1.1095646e-06 -3.5504826e-06 0.073808302)
(-3.0774288e-06 -3.4899443e-06 0.073800749)
(-2.1870733e-06 -3.3416057e-06 0.073792946)
(-3.2058438e-06 -3.077119e-06 0.073788179)
(-4.1475772e-06 -2.7652021e-06 0.073775732)
(-2.4820054e-06 -2.4820025e-06 0.073766772)
(-8.9283674e-07 -2.2159099e-06 0.073762684)
(3.8625103e-08 -1.9586082e-06 0.073761902)
(5.6976717e-07 -1.7219179e-06 0.07376279)
(2.6972392e-07 -1.544376e-06 0.073765013)
(-1.0636086e-06 -2.19257e-06 0.073800786)
(-2.917713e-06 -2.044851e-06 0.073793586)
(-1.9396055e-06 -1.909018e-06 0.073786256)
(-2.8677846e-06 -1.6138131e-06 0.073782324)
(-3.8192525e-06 -1.199939e-06 0.07377085)
(-2.2159128e-06 -8.9283958e-07 0.073762684)
(-6.7654184e-07 -6.7654753e-07 0.07375924)
(2.0909567e-07 -5.2863527e-07 0.073758981)
(6.8475856e-07 -4.4197748e-07 0.073760259)
(2.9750709e-07 -4.1512749e-07 0.073762698)
(-1.0110853e-06 -1.1226348e-06 0.073796586)
(-2.7938768e-06 -9.2565244e-07 0.073789792)
(-1.7560353e-06 -9.0362562e-07 0.073782671)
(-2.4967648e-06 -7.7315292e-07 0.073779457)
(-3.4266037e-06 -2.8489353e-07 0.073769207)
(-1.9586139e-06 3.8627945e-08 0.073761902)
(-5.2863243e-07 2.0909567e-07 0.073758981)
(2.7319516e-07 2.7319231e-07 0.07375899)
(6.8327495e-07 2.6166447e-07 0.073760332)
(2.8762391e-07 2.0713458e-07 0.073762675)
(-9.3228702e-07 -4.2084878e-07 0.073794736)
(-2.6987038e-06 -6.0646243e-08 0.073788643)
(-1.7871059e-06 -5.7696082e-10 0.073781429)
(-2.2490525e-06 -2.0466473e-07 0.073778175)
(-3.0074716e-06 2.705292e-07 0.073769227)
(-1.7219236e-06 5.6977001e-07 0.07376279)
(-4.4197748e-07 6.8476425e-07 0.073760259)
(2.6166447e-07 6.8328347e-07 0.073760332)
(6.1870082e-07 6.1870651e-07 0.073761535)
(2.6115382e-07 5.5150053e-07 0.073763669)
(-7.7095024e-07 -5.3184598e-08 0.073794242)
(-2.373605e-06 1.0815218e-07 0.073789468)
(-1.9000538e-06 1.6354799e-07 0.07378278)
(-2.2256586e-06 3.2853601e-08 0.073778606)
(-2.652169e-06 1.7914393e-07 0.07377074)
(-1.5443788e-06 2.6972202e-07 0.073765013)
(-4.1511896e-07 2.9750709e-07 0.073762698)
(2.0713742e-07 2.876277e-07 0.073762675)
(5.5149201e-07 2.6115572e-07 0.073763669)
(2.4281993e-07 2.4282182e-07 0.073765728)
(-2.8686713e-06 -2.8686732e-06 0.13070106)
(-1.3779211e-05 -5.6400912e-06 0.13069734)
(-7.4209652e-06 -8.7552129e-08 0.13068363)
(-8.6948461e-06 -3.2989552e-06 0.13068386)
(-2.1184516e-05 -4.2179257e-06 0.13066547)
(-1.7474775e-05 -4.2243585e-06 0.13064776)
(-1.0995825e-05 -4.0088006e-06 0.13063568)
(-5.7076704e-06 -3.7608743e-06 0.13062881)
(-2.2531253e-06 -3.2955218e-06 0.13062582)
(-3.3395698e-07 -2.461752e-06 0.13062446)
(-5.6400893e-06 -1.3779211e-05 0.13069734)
(-9.6075297e-06 -9.6075354e-06 0.13068614)
(-3.9092612e-06 -5.4360783e-06 0.13068274)
(-1.4890406e-05 -1.2274782e-05 0.13067624)
(-2.2572621e-05 -1.4057542e-05 0.13065587)
(-1.7161088e-05 -1.3800948e-05 0.1306382)
(-1.0300599e-05 -1.3041389e-05 0.13062665)
(-4.6377522e-06 -1.2490585e-05 0.13062031)
(-3.0444198e-07 -1.1863688e-05 0.1306189)
(4.9981281e-07 -1.0072969e-05 0.13062031)
(-8.7554024e-08 -7.4209652e-06 0.13068363)
(-5.4360783e-06 -3.9092697e-06 0.13068274)
(-1.0088212e-05 -1.0088215e-05 0.13067373)
(-1.731631e-05 -1.2775456e-05 0.13066419)
(-2.2710682e-05 -1.3090624e-05 0.13064319)
(-1.6458623e-05 -1.2293211e-05 0.13062603)
(-9.685462e-06 -1.1074732e-05 0.13061526)
(-4.5299686e-06 -1.0233842e-05 0.13060907)
(1.6449064e-07 -1.0341356e-05 0.1306073)
(8.5985524e-07 -1.0592319e-05 0.13060952)
(-3.298959e-06 -8.6948518e-06 0.13068386)
(-1.2274779e-05 -1.4890404e-05 0.13067624)
(-1.2775448e-05 -1.731631e-05 0.13066419)
(-1.7892816e-05 -1.789281e-05 0.13065356)
(-2.2090376e-05 -1.7394399e-05 0.13063273)
(-1.5145196e-05 -1.6204169e-05 0.13061654)
(-8.2412299e-06 -1.450683e-05 0.13060721)
(-3.9043755e-06 -1.270642e-05 0.13060226)
(-6.6291932e-07 -1.1555414e-05 0.13060057)
(3.3250368e-07 -1.1382789e-05 0.1306018)
(-4.2179219e-06 -2.1184513e-05 0.13066547)
(-1.4057537e-05 -2.2572615e-05 0.13065587)
(-1.3090619e-05 -2.271068e-05 0.13064319)
(-1.7394399e-05 -2.2090379e-05 0.13063273)
(-2.1022041e-05 -2.1022035e-05 0.13061262)
(-1.3571054e-05 -1.9667459e-05 0.1305976)
(-6.1877131e-06 -1.8001825e-05 0.1305899)
(-1.5785531e-06 -1.6052905e-05 0.13058693)
(1.4881209e-06 -1.4055328e-05 0.13058726)
(9.7493853e-07 -1.2432517e-05 0.13059012)
(-4.2243604e-06 -1.747477e-05 0.13064776)
(-1.3800945e-05 -1.7161082e-05 0.1306382)
(-1.2293211e-05 -1.6458628e-05 0.13062603)
(-1.6204172e-05 -1.5145204e-05 0.13061654)
(-1.9667456e-05 -1.3571051e-05 0.1305976)
(-1.2124985e-05 -1.2124988e-05 0.13058381)
(-4.6266763e-06 -1.0766394e-05 0.13057744)
(4.2120973e-08 -9.4632327e-06 0.1305759)
(2.9574693e-06 -8.2867302e-06 0.13057762)
(1.4143779e-06 -7.4297986e-06 0.13058159)
(-4.0087968e-06 -1.0995825e-05 0.13063568)
(-1.3041395e-05 -1.030059e-05 0.13062665)
(-1.1074741e-05 -9.6854649e-06 0.13061526)
(-1.4506821e-05 -8.2412271e-06 0.13060721)
(-1.8001825e-05 -6.1877159e-06 0.1305899)
(-1.0766396e-05 -4.6266763e-06 0.13057744)
(-3.5259575e-06 -3.5259575e-06 0.13057214)
(9.011103e-07 -2.781988e-06 0.13057145)
(3.521555e-06 -2.3600052e-06 0.13057378)
(1.5462263e-06 -2.2626637e-06 0.13057801)
(-3.7608705e-06 -5.7076676e-06 0.13062881)
(-1.2490585e-05 -4.6377522e-06 0.13062031)
(-1.0233848e-05 -4.5299629e-06 0.13060907)
(-1.2706423e-05 -3.9043726e-06 0.13060226)
(-1.6052905e-05 -1.5785474e-06 0.13058693)
(-9.463227e-06 4.2123816e-08 0.1305759)
(-2.781988e-06 9.0111882e-07 0.13057145)
(1.2080733e-06 1.2080761e-06 0.13057115)
(3.4767936e-06 1.129348e-06 0.13057352)
(1.4792723e-06 8.355272e-07 0.13057747)
(-3.2955199e-06 -2.2531196e-06 0.13062582)
(-1.186369e-05 -3.0444198e-07 0.1306189)
(-1.0341361e-05 1.6449349e-07 0.1306073)
(-1.1555406e-05 -6.6292216e-07 0.13060057)
(-1.4055328e-05 1.4881266e-06 0.13058726)
(-8.2867302e-06 2.9574693e-06 0.13057762)
(-2.3600052e-06 3.5215578e-06 0.13057378)
(1.1293395e-06 3.4767993e-06 0.13057352)
(3.149006e-06 3.1490117e-06 0.13057561)
(1.3503457e-06 2.9259098e-06 0.13057931)
(-2.461752e-06 -3.3395509e-07 0.13062446)
(-1.0072972e-05 4.9981281e-07 0.13062031)
(-1.0592328e-05 8.5985713e-07 0.13060952)
(-1.1382789e-05 3.3250179e-07 0.1306018)
(-1.2432514e-05 9.7493474e-07 0.13059012)
(-7.4297958e-06 1.4143779e-06 0.13058159)
(-2.262658e-06 1.5462244e-06 0.13057801)
(8.355272e-07 1.4792761e-06 0.13057747)
(2.9259041e-06 1.3503495e-06 0.13057931)
(1.3305377e-06 1.3305415e-06 0.13058298)
(-3.1606779e-06 -3.1606779e-06 0.18353788)
(-2.0889502e-05 -9.3267071e-06 0.18353601)
(-1.4869869e-05 -5.6806092e-07 0.18352016)
(-1.9346908e-05 -5.9482507e-06 0.18351975)
(-4.047954e-05 -7.5052128e-06 0.18349754)
(-3.3344577e-05 -7.4778616e-06 0.18347612)
(-2.1138382e-05 -7.0815986e-06 0.18346138)
(-1.097998e-05 -6.6814171e-06 0.18345283)
(-4.7741707e-06 -5.5484729e-06 0.18344942)
(-9.6134158e-07 -3.5379287e-06 0.18344726)
(-9.3267071e-06 -2.0889499e-05 0.18353601)
(-1.7000576e-05 -1.7000576e-05 0.18352297)
(-9.8021843e-06 -1.0766973e-05 0.18351917)
(-2.9752636e-05 -2.2365163e-05 0.18351106)
(-4.2773956e-05 -2.5405791e-05 0.18348661)
(-3.2709156e-05 -2.4800897e-05 0.18346533)
(-1.9943715e-05 -2.3330159e-05 0.18345119)
(-8.6802913e-06 -2.2529525e-05 0.18344293)
(-5.8938099e-08 -2.1221496e-05 0.1834416)
(1.0492026e-06 -1.7307138e-05 0.18344354)
(-5.6806281e-07 -1.4869872e-05 0.18352016)
(-1.0766976e-05 -9.8021872e-06 0.18351917)
(-2.0234455e-05 -2.0234458e-05 0.18350887)
(-3.3985725e-05 -2.4971746e-05 0.18349726)
(-4.2915275e-05 -2.5487324e-05 0.18347213)
(-3.1268945e-05 -2.3853576e-05 0.18345158)
(-1.886701e-05 -2.1379441e-05 0.18343851)
(-8.8713165e-06 -1.9803318e-05 0.18343029)
(4.4821604e-07 -2.0112793e-05 0.18342826)
(1.6482299e-06 -2.0407924e-05 0.18343124)
(-5.9482507e-06 -1.9346916e-05 0.18351975)
(-2.2365163e-05 -2.9752638e-05 0.18351106)
(-2.4971743e-05 -3.3985731e-05 0.18349726)
(-3.5005502e-05 -3.5005505e-05 0.1834844)
(-4.1655787e-05 -3.4011697e-05 0.18345953)
(-2.8601272e-05 -3.1640235e-05 0.18344026)
(-1.5893457e-05 -2.8236352e-05 0.1834291)
(-7.4136437e-06 -2.4641545e-05 0.1834225)
(-6.635446e-07 -2.2282589e-05 0.18342063)
(8.5244854e-07 -2.1631362e-05 0.18342251)
(-7.5052109e-06 -4.0479543e-05 0.18349754)
(-2.5405791e-05 -4.2773956e-05 0.18348661)
(-2.5487321e-05 -4.2915272e-05 0.18347213)
(-3.4011691e-05 -4.1655784e-05 0.18345953)
(-3.9550005e-05 -3.9550005e-05 0.1834356)
(-2.54936e-05 -3.6874852e-05 0.18341784)
(-1.186832e-05 -3.3590152e-05 0.18340877)
(-2.9175538e-06 -2.9788919e-05 0.18340469)
(3.4583991e-06 -2.59535e-05 0.18340534)
(2.082381e-06 -2.2864333e-05 0.18340923)
(-7.4778598e-06 -3.3344574e-05 0.18347612)
(-2.4800892e-05 -3.270915e-05 0.18346533)
(-2.385357e-05 -3.1268942e-05 0.18345158)
(-3.1640235e-05 -2.8601272e-05 0.18344026)
(-3.6874854e-05 -2.54936e-05 0.18341784)
(-2.2641419e-05 -2.2641422e-05 0.18340168)
(-8.807524e-06 -1.9972899e-05 0.18339431)
(2.230081e-07 -1.7443398e-05 0.18339202)
(6.2610411e-06 -1.5208857e-05 0.18339439)
(2.9118932e-06 -1.365546e-05 0.18339961)
(-7.0815948e-06 -2.1138379e-05 0.18346138)
(-2.3330159e-05 -1.9943712e-05 0.18345119)
(-2.1379444e-05 -1.8867007e-05 0.18343851)
(-2.8236349e-05 -1.5893457e-05 0.1834291)
(-3.3590155e-05 -1.1868323e-05 0.18340877)
(-1.9972899e-05 -8.8075268e-06 0.18339431)
(-6.6702967e-06 -6.6703024e-06 0.18338829)
(1.8464874e-06 -5.2718974e-06 0.18338704)
(7.2463365e-06 -4.5502958e-06 0.18339009)
(3.117979e-06 -4.5363038e-06 0.18339551)
(-6.6814152e-06 -1.0979977e-05 0.18345283)
(-2.252952e-05 -8.6802913e-06 0.18344293)
(-1.9803315e-05 -8.871308e-06 0.18343029)
(-2.4641551e-05 -7.4136381e-06 0.1834225)
(-2.9788924e-05 -2.917551e-06 0.18340469)
(-1.7443398e-05 2.2301094e-07 0.18339202)
(-5.2718946e-06 1.8464931e-06 0.18338704)
(2.3430147e-06 2.3430118e-06 0.18338621)
(6.9966347e-06 2.0946004e-06 0.18338919)
(2.9212212e-06 1.5061431e-06 0.18339413)
(-5.548471e-06 -4.7741707e-06 0.18344942)
(-2.122149e-05 -5.8940941e-08 0.1834416)
(-2.011279e-05 4.4821604e-07 0.18342826)
(-2.2282592e-05 -6.6354744e-07 0.18342063)
(-2.5953506e-05 3.4584019e-06 0.18340534)
(-1.5208855e-05 6.2610468e-06 0.18339439)
(-4.5502958e-06 7.2463479e-06 0.18339009)
(2.0945947e-06 6.9966319e-06 0.18338919)
(6.4094678e-06 6.4094678e-06 0.18339185)
(2.7256741e-06 6.0648915e-06 0.18339691)
(-3.5379287e-06 -9.6134348e-07 0.18344726)
(-1.7307133e-05 1.0491988e-06 0.18344354)
(-2.0407921e-05 1.648228e-06 0.18343124)
(-2.1631365e-05 8.5244475e-07 0.18342251)
(-2.286433e-05 2.0823791e-06 0.18340923)
(-1.3655452e-05 2.9118951e-06 0.18339961)
(-4.5363095e-06 3.1179809e-06 0.18339551)
(1.5061346e-06 2.9212193e-06 0.18339413)
(6.0648944e-06 2.7256741e-06 0.18339691)
(2.6915037e-06 2.6915037e-06 0.18340124)
(-4.1173166e-06 -4.1173147e-06 0.27931293)
(-3.1498772e-05 -1.4333239e-05 0.2793093)
(-2.3678274e-05 -7.4992575e-07 0.27928773)
(-3.1320832e-05 -9.091544e-06 0.2792909)
(-6.4813318e-05 -1.1503776e-05 0.27926239)
(-5.3631817e-05 -1.1417046e-05 0.27923423)
(-3.4292384e-05 -1.0798728e-05 0.27921462)
(-1.7669208e-05 -1.035537e-05 0.27920283)
(-7.8150663e-06 -8.5088023e-06 0.27919808)
(-1.7695925e-06 -4.9459497e-06 0.27919501)
(-1.433324e-05 -3.1498777e-05 0.2793093)
(-2.6447688e-05 -2.6447694e-05 0.27929117)
(-1.5815732e-05 -1.6730104e-05 0.27928798)
(-4.7451607e-05 -3.4770375e-05 0.27928026)
(-6.8301571e-05 -3.9465769e-05 0.27924859)
(-5.2574245e-05 -3.8341304e-05 0.27922066)
(-3.269987e-05 -3.5914431e-05 0.27920189)
(-1.423432e-05 -3.5025087e-05 0.27919027)
(2.990646e-07 -3.3020078e-05 0.27918812)
(1.7932602e-06 -2.6100921e-05 0.27919059)
(-7.4992765e-07 -2.367828e-05 0.27928773)
(-1.6730098e-05 -1.5815738e-05 0.27928798)
(-3.2000955e-05 -3.2000969e-05 0.27927566)
(-5.4056497e-05 -3.9434062e-05 0.27926306)
(-6.8384247e-05 -4.0164966e-05 0.27923048)
(-5.0080479e-05 -3.7364094e-05 0.27920358)
(-3.0976167e-05 -3.3172216e-05 0.27918627)
(-1.4774855e-05 -3.0669992e-05 0.27917462)
(1.1091004e-06 -3.1311595e-05 0.27917146)
(2.843179e-06 -3.161594e-05 0.27917552)
(-9.0915459e-06 -3.1320835e-05 0.2792909)
(-3.4770378e-05 -4.7451604e-05 0.27928026)
(-3.9434056e-05 -5.40565e-05 0.27926306)
(-5.5615604e-05 -5.5615604e-05 0.27924876)
(-6.6231604e-05 -5.3921875e-05 0.27921657)
(-4.5581496e-05 -4.9942278e-05 0.27919144)
(-2.6005767e-05 -4.4242574e-05 0.27917676)
(-1.2373698e-05 -3.830761e-05 0.27916719)
(-6.4688379e-07 -3.4481801e-05 0.27916395)
(1.5903633e-06 -3.3393044e-05 0.27916613)
(-1.1503774e-05 -6.4813324e-05 0.27926239)
(-3.9465763e-05 -6.8301566e-05 0.27924859)
(-4.0164954e-05 -6.838425e-05 0.27923048)
(-5.3921872e-05 -6.6231604e-05 0.27921657)
(-6.2710922e-05 -6.2710913e-05 0.27918569)
(-4.0401179e-05 -5.8250407e-05 0.27916268)
(-1.9341499e-05 -5.2789545e-05 0.2791509)
(-5.0140812e-06 -4.6527575e-05 0.27914479)
(6.0236658e-06 -4.0289868e-05 0.27914495)
(3.5690164e-06 -3.5333881e-05 0.27914979)
(-1.141704e-05 -5.3631808e-05 0.27923423)
(-3.8341304e-05 -5.2574237e-05 0.27922066)
(-3.7364094e-05 -5.0080479e-05 0.27920358)
(-4.9942267e-05 -4.5581504e-05 0.27919144)
(-5.8250407e-05 -4.0401179e-05 0.27916268)
(-3.5660128e-05 -3.5660122e-05 0.27914187)
(-1.4282935e-05 -3.124884e-05 0.27913244)
(1.2597923e-07 -2.7115001e-05 0.27912878)
(1.054681e-05 -2.35333e-05 0.27913128)
(4.8943548e-06 -2.1147292e-05 0.27913789)
(-1.0798726e-05 -3.4292376e-05 0.27921462)
(-3.5914434e-05 -3.2699867e-05 0.27920189)
(-3.3172222e-05 -3.0976156e-05 0.27918627)
(-4.4242572e-05 -2.6005767e-05 0.27917676)
(-5.2789539e-05 -1.9341499e-05 0.2791509)
(-3.124884e-05 -1.4282938e-05 0.27913244)
(-1.0796379e-05 -1.0796379e-05 0.27912485)
(2.7014579e-06 -8.5957822e-06 0.27912257)
(1.1991375e-05 -7.5669419e-06 0.27912592)
(5.1596885e-06 -7.7473658e-06 0.27913269)
(-1.0355368e-05 -1.7669205e-05 0.27920283)
(-3.5025084e-05 -1.4234323e-05 0.27919027)
(-3.0669995e-05 -1.4774849e-05 0.27917462)
(-3.830761e-05 -1.2373698e-05 0.27916719)
(-4.6527578e-05 -5.0140812e-06 0.27914479)
(-2.7115007e-05 1.2598207e-07 0.27912878)
(-8.5957794e-06 2.7014607e-06 0.27912257)
(3.3554159e-06 3.3554159e-06 0.27912077)
(1.1395227e-05 2.8926536e-06 0.2791239)
(4.7740722e-06 2.2355408e-06 0.27912994)
(-8.5088042e-06 -7.8150663e-06 0.27919808)
(-3.3020078e-05 2.9905891e-07 0.27918812)
(-3.1311598e-05 1.1091004e-06 0.27917146)
(-3.4481803e-05 -6.4688095e-07 0.27916395)
(-4.0289859e-05 6.0236658e-06 0.27914495)
(-2.3533298e-05 1.0546816e-05 0.27913128)
(-7.5669448e-06 1.1991381e-05 0.27912592)
(2.8926507e-06 1.1395227e-05 0.2791239)
(1.08715e-05 1.0871503e-05 0.27912667)
(4.7216133e-06 1.0034708e-05 0.27913358)
(-4.9459516e-06 -1.7695944e-06 0.27919501)
(-2.6100918e-05 1.7932583e-06 0.27919059)
(-3.1615934e-05 2.843179e-06 0.27917552)
(-3.3393044e-05 1.5903671e-06 0.27916613)
(-3.5333881e-05 3.5690183e-06 0.27914979)
(-2.1147292e-05 4.8943529e-06 0.27913789)
(-7.7473686e-06 5.1596885e-06 0.27913269)
(2.235538e-06 4.7740703e-06 0.27912994)
(1.0034708e-05 4.7216133e-06 0.27913358)
(4.216209e-06 4.216209e-06 0.27913873)
(-5.5809248e-06 -5.5809248e-06 0.43740891)
(-4.6088132e-05 -2.1409873e-05 0.43740456)
(-3.3268108e-05 -4.0125769e-07 0.43737564)
(-4.4686794e-05 -1.3041908e-05 0.43738526)
(-9.7149319e-05 -1.6702404e-05 0.4373475)
(-8.1111898e-05 -1.6527374e-05 0.4373091)
(-5.2534386e-05 -1.5573409e-05 0.43728207)
(-2.7527651e-05 -1.5054762e-05 0.4372653)
(-1.2601635e-05 -1.2183081e-05 0.43725792)
(-3.006907e-06 -6.4851273e-06 0.43725309)
(-2.1409873e-05 -4.6088135e-05 0.43740456)
(-3.8318632e-05 -3.8318632e-05 0.43737944)
(-2.0716161e-05 -2.2837608e-05 0.43737844)
(-6.9138514e-05 -5.02093e-05 0.43737222)
(-0.00010237752 -5.7314469e-05 0.43732984)
(-7.9418405e-05 -5.5455968e-05 0.43729173)
(-5.0325468e-05 -5.1680044e-05 0.43726588)
(-2.244216e-05 -5.0747465e-05 0.43724931)
(2.5281679e-07 -4.7836525e-05 0.43724568)
(2.691047e-06 -3.6789589e-05 0.43724868)
(-4.012558e-07 -3.3268111e-05 0.43737564)
(-2.2837605e-05 -2.0716166e-05 0.43737844)
(-4.5158777e-05 -4.5158782e-05 0.43736434)
(-7.9163655e-05 -5.6468963e-05 0.43735104)
(-0.00010239599 -5.7512275e-05 0.43730732)
(-7.5477473e-05 -5.3066816e-05 0.43727065)
(-4.7825884e-05 -4.6502251e-05 0.4372468)
(-2.3684132e-05 -4.288452e-05 0.43722988)
(1.3562413e-06 -4.4284783e-05 0.4372245)
(4.3577169e-06 -4.4866769e-05 0.43722967)
(-1.304191e-05 -4.46868e-05 0.43738526)
(-5.0209303e-05 -6.913852e-05 0.43737222)
(-5.6468957e-05 -7.9163655e-05 0.43735104)
(-8.1492007e-05 -8.1492007e-05 0.43733529)
(-9.8975372e-05 -7.8798169e-05 0.43729211)
(-6.840838e-05 -7.2537725e-05 0.43725798)
(-4.0143172e-05 -6.3611051e-05 0.43723782)
(-2.0224692e-05 -5.4470925e-05 0.43722368)
(-1.7294326e-06 -4.8792444e-05 0.43721776)
(2.3030566e-06 -4.7368184e-05 0.43721972)
(-1.6702402e-05 -9.7149319e-05 0.4373475)
(-5.731446e-05 -0.00010237752 0.43732984)
(-5.7512264e-05 -0.00010239599 0.43730732)
(-7.8798169e-05 -9.8975369e-05 0.43729211)
(-9.3441705e-05 -9.3441696e-05 0.43725082)
(-6.0290355e-05 -8.6449811e-05 0.43721972)
(-2.9759084e-05 -7.7914322e-05 0.4372037)
(-8.8655241e-06 -6.8198199e-05 0.43719447)
(8.4589828e-06 -5.8620742e-05 0.43719334)
(5.3072237e-06 -5.1099994e-05 0.43719899)
(-1.6527374e-05 -8.1111881e-05 0.4373091)
(-5.5455973e-05 -7.9418396e-05 0.43729173)
(-5.306681e-05 -7.5477473e-05 0.43727065)
(-7.2537713e-05 -6.8408383e-05 0.43725798)
(-8.6449813e-05 -6.0290358e-05 0.43721972)
(-5.2881006e-05 -5.2881001e-05 0.43719177)
(-2.189156e-05 -4.602428e-05 0.4371791)
(-9.3111225e-07 -3.9663166e-05 0.43717336)
(1.5368772e-05 -3.4242078e-05 0.43717553)
(7.3168887e-06 -3.0757175e-05 0.43718367)
(-1.5573412e-05 -5.2534384e-05 0.43728207)
(-5.1680053e-05 -5.0325465e-05 0.43726588)
(-4.6502251e-05 -4.7825873e-05 0.4372468)
(-6.3611054e-05 -4.0143175e-05 0.43723782)
(-7.7914322e-05 -2.9759084e-05 0.4372037)
(-4.6024277e-05 -2.189156e-05 0.4371791)
(-1.654125e-05 -1.6541247e-05 0.43716903)
(2.9166785e-06 -1.3289267e-05 0.43716521)
(1.7364974e-05 -1.193786e-05 0.43716851)
(7.6304919e-06 -1.2490332e-05 0.43717679)
(-1.5054762e-05 -2.7527662e-05 0.4372653)
(-5.0747462e-05 -2.244216e-05 0.43724931)
(-4.288452e-05 -2.3684132e-05 0.43722988)
(-5.4470925e-05 -2.0224695e-05 0.43722368)
(-6.8198199e-05 -8.8655156e-06 0.43719447)
(-3.9663169e-05 -9.311151e-07 0.43717336)
(-1.3289267e-05 2.9166841e-06 0.43716521)
(3.6722753e-06 3.6722753e-06 0.43716197)
(1.6167706e-05 2.850939e-06 0.43716483)
(6.9485736e-06 2.4031209e-06 0.43717196)
(-1.2183078e-05 -1.2601635e-05 0.43725792)
(-4.7836522e-05 2.5281395e-07 0.43724568)
(-4.4284786e-05 1.3562357e-06 0.4372245)
(-4.8792438e-05 -1.7294298e-06 0.43721776)
(-5.8620742e-05 8.45898e-06 0.43719334)
(-3.4242078e-05 1.5368775e-05 0.43717553)
(-1.193786e-05 1.7364977e-05 0.43716851)
(2.8509334e-06 1.6167704e-05 0.43716483)
(1.6095819e-05 1.6095819e-05 0.43716714)
(7.3319465e-06 1.4856624e-05 0.43717597)
(-6.4851292e-06 -3.0069051e-06 0.43725309)
(-3.6789592e-05 2.6910432e-06 0.43724868)
(-4.4866763e-05 4.357715e-06 0.43722967)
(-4.7368181e-05 2.3030585e-06 0.43721972)
(-5.1099994e-05 5.3072199e-06 0.43719899)
(-3.0757172e-05 7.3168906e-06 0.43718367)
(-1.2490338e-05 7.63049e-06 0.43717679)
(2.4031181e-06 6.9485717e-06 0.43717196)
(1.4856627e-05 7.3319465e-06 0.43717597)
(6.1224436e-06 6.1224436e-06 0.43718235)
(-7.0152699e-06 -7.0152718e-06 0.68862812)
(-6.476175e-05 -3.107578e-05 0.68862449)
(-4.2980349e-05 1.1174241e-06 0.68858607)
(-5.9463315e-05 -1.7779564e-05 0.68860615)
(-0.00014097052 -2.3279025e-05 0.68855575)
(-0.00011906614 -2.299697e-05 0.68850286)
(-7.8093638e-05 -2.1590517e-05 0.68846517)
(-4.1810122e-05 -2.1014366e-05 0.68844123)
(-2.0019792e-05 -1.6668768e-05 0.68843008)
(-4.9905831e-06 -7.8869277e-06 0.68842228)
(-3.1075778e-05 -6.4761753e-05 0.68862449)
(-5.2562706e-05 -5.2562712e-05 0.68859039)
(-2.3036026e-05 -2.8030246e-05 0.68859364)
(-9.6057988e-05 -6.898681e-05 0.6885908)
(-0.00014879662 -7.9648154e-05 0.68853362)
(-0.00011653338 -7.6785852e-05 0.68848109)
(-7.5119732e-05 -7.1183678e-05 0.68844497)
(-3.4427498e-05 -7.0443576e-05 0.68842106)
(-3.2863454e-07 -6.6446108e-05 0.68841529)
(3.7912571e-06 -4.9522524e-05 0.68841888)
(1.1174241e-06 -4.2980352e-05 0.68858607)
(-2.8030243e-05 -2.3036034e-05 0.68859364)
(-5.9404448e-05 -5.9404456e-05 0.68857815)
(-0.00011108122 -7.6369122e-05 0.68856504)
(-0.00014876956 -7.7893102e-05 0.68850589)
(-0.00011060166 -7.1108107e-05 0.68845539)
(-7.1751361e-05 -6.1227547e-05 0.68842197)
(-3.7072553e-05 -5.6294999e-05 0.68839714)
(9.0126093e-07 -5.9235234e-05 0.68838831)
(6.2918067e-06 -6.0573194e-05 0.68839487)
(-1.7779566e-05 -5.9463318e-05 0.68860615)
(-6.898681e-05 -9.6057988e-05 0.6885908)
(-7.6369113e-05 -0.00011108123 0.68856504)
(-0.00011454663 -0.00011454663 0.68854836)
(-0.00014353561 -0.00011041934 0.68848998)
(-9.9867822e-05 -0.00010087865 0.68844312)
(-6.0306624e-05 -8.7337401e-05 0.68841496)
(-3.2435184e-05 -7.3712607e-05 0.68839386)
(-4.6068294e-06 -6.5644801e-05 0.68838371)
(2.8992834e-06 -6.4071793e-05 0.68838503)
(-2.3279023e-05 -0.00014097051 0.68855575)
(-7.9648152e-05 -0.00014879662 0.68853362)
(-7.7893091e-05 -0.00014876955 0.68850589)
(-0.00011041934 -0.0001435356 0.68848998)
(-0.00013510158 -0.00013510157 0.68843432)
(-8.7519717e-05 -0.00012446431 0.68839181)
(-4.4585315e-05 -0.00011150843 0.68836962)
(-1.5379953e-05 -9.6846819e-05 0.68835555)
(1.0542075e-05 -8.2522661e-05 0.68835217)
(7.3404787e-06 -7.138535e-05 0.68835867)
(-2.2996968e-05 -0.00011906613 0.68850286)
(-7.678585e-05 -0.00011653337 0.68848109)
(-7.1108099e-05 -0.00011060166 0.68845539)
(-0.00010087865 -9.9867827e-05 0.68844312)
(-0.00012446432 -8.7519717e-05 0.68839181)
(-7.6274682e-05 -7.6274679e-05 0.68835385)
(-3.2689132e-05 -6.5916223e-05 0.68833647)
(-3.4494121e-06 -5.6382873e-05 0.6883274)
(2.085464e-05 -4.8363489e-05 0.68832874)
(1.0324158e-05 -4.3352483e-05 0.68833878)
(-2.1590519e-05 -7.8093638e-05 0.68846517)
(-7.1183686e-05 -7.5119726e-05 0.68844497)
(-6.1227544e-05 -7.1751361e-05 0.68842197)
(-8.7337395e-05 -6.0306627e-05 0.68841496)
(-0.00011150843 -4.4585306e-05 0.68836962)
(-6.5916223e-05 -3.2689132e-05 0.68833647)
(-2.4693509e-05 -2.4693509e-05 0.68832279)
(2.17278e-06 -1.9993567e-05 0.68831642)
(2.3572466e-05 -1.8269537e-05 0.68831933)
(1.0681149e-05 -1.9460583e-05 0.6883295)
(-2.101436e-05 -4.1810128e-05 0.68844123)
(-7.0443573e-05 -3.4427507e-05 0.68842106)
(-5.6294999e-05 -3.7072553e-05 0.68839714)
(-7.3712599e-05 -3.243519e-05 0.68839386)
(-9.6846824e-05 -1.5379953e-05 0.68835555)
(-5.6382885e-05 -3.4494235e-06 0.6883274)
(-1.9993567e-05 2.1727772e-06 0.68831642)
(2.9745593e-06 2.9745593e-06 0.68831082)
(2.1387623e-05 1.5297474e-06 0.688313)
(9.530127e-06 1.4151738e-06 0.68832141)
(-1.6668772e-05 -2.0019795e-05 0.68843008)
(-6.6446111e-05 -3.2864591e-07 0.68841529)
(-5.9235228e-05 9.0125809e-07 0.68838831)
(-6.5644795e-05 -4.6068351e-06 0.68838371)
(-8.2522666e-05 1.0542067e-05 0.68835217)
(-4.8363492e-05 2.0854642e-05 0.68832874)
(-1.8269526e-05 2.3572468e-05 0.68831933)
(1.5297502e-06 2.1387623e-05 0.688313)
(2.201308e-05 2.2013086e-05 0.68831433)
(1.0604767e-05 2.0429641e-05 0.68832537)
(-7.8869277e-06 -4.990585e-06 0.68842228)
(-4.9522521e-05 3.791259e-06 0.68841888)
(-6.0573188e-05 6.2918086e-06 0.68839487)
(-6.407179e-05 2.8992853e-06 0.68838503)
(-7.1385347e-05 7.3404787e-06 0.68835867)
(-4.3352483e-05 1.0324165e-05 0.68833878)
(-1.9460586e-05 1.0681151e-05 0.6883295)
(1.4151766e-06 9.5301251e-06 0.68832141)
(2.0429641e-05 1.0604769e-05 0.68832537)
(8.4744973e-06 8.4744992e-06 0.68833312)
(-8.0024658e-06 -8.0024639e-06 1.0797652)
(-8.8134126e-05 -4.4138316e-05 1.0797638)
(-5.1604232e-05 4.6439159e-06 1.0797132)
(-7.5008614e-05 -2.3272751e-05 1.07975)
(-0.00020043609 -3.1453122e-05 1.0796832)
(-0.00017169417 -3.1042235e-05 1.0796106)
(-0.0001141717 -2.9041712e-05 1.079558)
(-6.2611562e-05 -2.8496178e-05 1.0795237)
(-3.1544636e-05 -2.204762e-05 1.0795069)
(-8.2079244e-06 -8.7557377e-06 1.0794944)
(-4.4138318e-05 -8.8134126e-05 1.0797638)
(-6.9164557e-05 -6.9164557e-05 1.079718)
(-2.0305885e-05 -3.0757903e-05 1.0797287)
(-0.00012915417 -9.1317955e-05 1.0797327)
(-0.00021209031 -0.00010717232 1.079656)
(-0.00016807705 -0.00010292874 1.0795839)
(-0.00011035262 -9.4874403e-05 1.0795334)
(-5.2120424e-05 -9.4836344e-05 1.0794987)
(-1.9339751e-06 -8.961199e-05 1.0794895)
(5.0839579e-06 -6.4197133e-05 1.0794936)
(4.6439141e-06 -5.1604229e-05 1.0797132)
(-3.0757903e-05 -2.0305887e-05 1.0797287)
(-7.375763e-05 -7.3757636e-05 1.0797129)
(-0.00015142303 -9.8911084e-05 1.0797022)
(-0.00021204688 -0.00010115895 1.0796226)
(-0.00015939625 -9.1037469e-05 1.0795533)
(-0.0001060793 -7.6509914e-05 1.0795065)
(-5.7349149e-05 -7.008814e-05 1.0794698)
(-9.0542471e-07 -7.5864912e-05 1.0794556)
(8.7353139e-06 -7.870924e-05 1.0794638)
(-2.3272757e-05 -7.5008612e-05 1.07975)
(-9.1317963e-05 -0.00012915417 1.0797327)
(-9.8911082e-05 -0.00015142304 1.0797022)
(-0.00015655548 -0.00015655548 1.0796863)
(-0.0002042167 -0.00015037378 1.0796078)
(-0.00014342802 -0.00013611387 1.0795438)
(-8.9403289e-05 -0.00011596577 1.0795044)
(-5.1475422e-05 -9.6057047e-05 1.0794727)
(-1.0555075e-05 -8.4926569e-05 1.0794558)
(3.1877391e-06 -8.356939e-05 1.0794557)
(-3.1453123e-05 -0.00020043609 1.0796832)
(-0.00010717233 -0.00021209031 1.079656)
(-0.00010115895 -0.00021204687 1.0796226)
(-0.00015037378 -0.0002042167 1.0796078)
(-0.00019160527 -0.00019160526 1.0795333)
(-0.00012498823 -0.0001757182 1.0794755)
(-6.6022477e-05 -0.00015640459 1.0794446)
(-2.6309951e-05 -0.00013465918 1.079423)
(1.1582233e-05 -0.00011358842 1.0794156)
(9.6401e-06 -9.735277e-05 1.0794227)
(-3.1042237e-05 -0.00017169417 1.0796106)
(-0.00010292874 -0.00016807705 1.0795839)
(-9.1037469e-05 -0.00015939625 1.0795533)
(-0.00013611387 -0.00014342802 1.0795438)
(-0.0001757182 -0.00012498823 1.0794755)
(-0.00010822735 -0.00010822734 1.0794241)
(-4.8344273e-05 -9.2849669e-05 1.0794002)
(-8.6592536e-06 -7.8788477e-05 1.0793857)
(2.6751334e-05 -6.7082161e-05 1.079385)
(1.4011505e-05 -5.9931205e-05 1.0793971)
(-2.9041714e-05 -0.00011417171 1.079558)
(-9.4874406e-05 -0.00011035262 1.0795334)
(-7.6509914e-05 -0.00010607931 1.0795065)
(-0.00011596576 -8.9403284e-05 1.0795044)
(-0.00015640459 -6.6022477e-05 1.0794446)
(-9.2849675e-05 -4.8344276e-05 1.0794002)
(-3.6583612e-05 -3.6583612e-05 1.0793815)
(-5.4244253e-07 -2.986562e-05 1.0793708)
(3.0439506e-05 -2.7680449e-05 1.0793723)
(1.4407404e-05 -2.9862585e-05 1.0793844)
(-2.8496176e-05 -6.2611562e-05 1.0795237)
(-9.4836346e-05 -5.212043e-05 1.0794987)
(-7.0088134e-05 -5.7349152e-05 1.0794698)
(-9.6057039e-05 -5.1475428e-05 1.0794727)
(-0.00013465919 -2.6309957e-05 1.079423)
(-7.878848e-05 -8.6592564e-06 1.0793857)
(-2.9865618e-05 -5.4244253e-07 1.0793708)
(2.4390943e-07 2.4391227e-07 1.0793611)
(2.675437e-05 -2.1480417e-06 1.0793614)
(1.2556747e-05 -1.72287e-06 1.079371)
(-2.2047626e-05 -3.154463e-05 1.0795069)
(-8.9611996e-05 -1.9339808e-06 1.0794895)
(-7.5864912e-05 -9.0542471e-07 1.0794556)
(-8.4926566e-05 -1.055509e-05 1.0794558)
(-0.00011358842 1.1582227e-05 1.0794156)
(-6.7082161e-05 2.675134e-05 1.079385)
(-2.7680443e-05 3.0439506e-05 1.0793723)
(-2.1480417e-06 2.6754375e-05 1.0793614)