/*--------------------------------*- C++ -*----------------------------------*\
| =========                 |                                                 |
| \\      /  F ield         | OpenFOAM: The Open Source CFD Toolbox           |
|  \\    /   O peration     | Version:  v2106                                 |
|   \\  /    A nd           | Website:  www.openfoam.com                      |
|    \\/     M anipulation  |                                                 |
\*---------------------------------------------------------------------------*/
FoamFile
{
    version     2.0;
    format      ascii;
    arch        "LSB;label=32;scalar=64";
    class       volScalarField;
    location    "2.5";
    object      gradTy;
}
// * * * * * * * * * * * * * * * * * * * * * * * * * * * * * * * * * * * * * //

dimensions      [0 -1 0 1 0 0 0];

internalField   nonuniform List<scalar> 
4000
(
-6.8120016e-07
-1.8586339e-06
2.7525478e-08
-8.674211e-07
-1.1039731e-06
-1.1095684e-06
-1.0636086e-06
-1.0110853e-06
-9.3228702e-07
-7.7095024e-07
-3.4563044e-06
-2.3932131e-06
-8.6353111e-07
-2.6928944e-06
-3.1266012e-06
-3.0774288e-06
-2.9177073e-06
-2.7938768e-06
-2.698701e-06
-2.373605e-06
-1.3823978e-06
1.0441852e-07
-1.6820792e-06
-2.2992396e-06
-2.3524308e-06
-2.1870676e-06
-1.9396026e-06
-1.7560382e-06
-1.7871031e-06
-1.9000538e-06
-1.1868252e-06
-2.8840674e-06
-3.4498839e-06
-3.5544161e-06
-3.4441854e-06
-3.2058495e-06
-2.8677931e-06
-2.4967676e-06
-2.249061e-06
-2.2256614e-06
-4.378407e-06
-4.7416194e-06
-4.7629385e-06
-4.6294531e-06
-4.4143661e-06
-4.1475801e-06
-3.8192553e-06
-3.4266009e-06
-3.0074773e-06
-2.652169e-06
-3.5504826e-06
-3.4899443e-06
-3.3416057e-06
-3.077119e-06
-2.7652021e-06
-2.4820025e-06
-2.2159099e-06
-1.9586082e-06
-1.7219179e-06
-1.544376e-06
-2.19257e-06
-2.044851e-06
-1.909018e-06
-1.6138131e-06
-1.199939e-06
-8.9283958e-07
-6.7654753e-07
-5.2863527e-07
-4.4197748e-07
-4.1512749e-07
-1.1226348e-06
-9.2565244e-07
-9.0362562e-07
-7.7315292e-07
-2.8489353e-07
3.8627945e-08
2.0909567e-07
2.7319231e-07
2.6166447e-07
2.0713458e-07
-4.2084878e-07
-6.0646243e-08
-5.7696082e-10
-2.0466473e-07
2.705292e-07
5.6977001e-07
6.8476425e-07
6.8328347e-07
6.1870651e-07
5.5150053e-07
-5.3184598e-08
1.0815218e-07
1.6354799e-07
3.2853601e-08
1.7914393e-07
2.6972202e-07
2.9750709e-07
2.876277e-07
2.6115572e-07
2.4282182e-07
-2.8686732e-06
-5.6400912e-06
-8.7552129e-08
-3.2989552e-06
-4.2179257e-06
-4.2243585e-06
-4.0088006e-06
-3.7608743e-06
-3.2955218e-06
-2.461752e-06
-1.3779211e-05
-9.6075354e-06
-5.4360783e-06
-1.2274782e-05
-1.4057542e-05
-1.3800948e-05
-1.3041389e-05
-1.2490585e-05
-1.1863688e-05
-1.0072969e-05
-7.4209652e-06
-3.9092697e-06
-1.0088215e-05
-1.2775456e-05
-1.3090624e-05
-1.2293211e-05
-1.1074732e-05
-1.0233842e-05
-1.0341356e-05
-1.0592319e-05
-8.6948518e-06
-1.4890404e-05
-1.731631e-05
-1.789281e-05
-1.7394399e-05
-1.6204169e-05
-1.450683e-05
-1.270642e-05
-1.1555414e-05
-1.1382789e-05
-2.1184513e-05
-2.2572615e-05
-2.271068e-05
-2.2090379e-05
-2.1022035e-05
-1.9667459e-05
-1.8001825e-05
-1.6052905e-05
-1.4055328e-05
-1.2432517e-05
-1.747477e-05
-1.7161082e-05
-1.6458628e-05
-1.5145204e-05
-1.3571051e-05
-1.2124988e-05
-1.0766394e-05
-9.4632327e-06
-8.2867302e-06
-7.4297986e-06
-1.0995825e-05
-1.030059e-05
-9.6854649e-06
-8.2412271e-06
-6.1877159e-06
-4.6266763e-06
-3.5259575e-06
-2.781988e-06
-2.3600052e-06
-2.2626637e-06
-5.7076676e-06
-4.6377522e-06
-4.5299629e-06
-3.9043726e-06
-1.5785474e-06
4.2123816e-08
9.0111882e-07
1.2080761e-06
1.129348e-06
8.355272e-07
-2.2531196e-06
-3.0444198e-07
1.6449349e-07
-6.6292216e-07
1.4881266e-06
2.9574693e-06
3.5215578e-06
3.4767993e-06
3.1490117e-06
2.9259098e-06
-3.3395509e-07
4.9981281e-07
8.5985713e-07
3.3250179e-07
9.7493474e-07
1.4143779e-06
1.5462244e-06
1.4792761e-06
1.3503495e-06
1.3305415e-06
-3.1606779e-06
-9.3267071e-06
-5.6806092e-07
-5.9482507e-06
-7.5052128e-06
-7.4778616e-06
-7.0815986e-06
-6.6814171e-06
-5.5484729e-06
-3.5379287e-06
-2.0889499e-05
-1.7000576e-05
-1.0766973e-05
-2.2365163e-05
-2.5405791e-05
-2.4800897e-05
-2.3330159e-05
-2.2529525e-05
-2.1221496e-05
-1.7307138e-05
-1.4869872e-05
-9.8021872e-06
-2.0234458e-05
-2.4971746e-05
-2.5487324e-05
-2.3853576e-05
-2.1379441e-05
-1.9803318e-05
-2.0112793e-05
-2.0407924e-05
-1.9346916e-05
-2.9752638e-05
-3.3985731e-05
-3.5005505e-05
-3.4011697e-05
-3.1640235e-05
-2.8236352e-05
-2.4641545e-05
-2.2282589e-05
-2.1631362e-05
-4.0479543e-05
-4.2773956e-05
-4.2915272e-05
-4.1655784e-05
-3.9550005e-05
-3.6874852e-05
-3.3590152e-05
-2.9788919e-05
-2.59535e-05
-2.2864333e-05
-3.3344574e-05
-3.270915e-05
-3.1268942e-05
-2.8601272e-05
-2.54936e-05
-2.2641422e-05
-1.9972899e-05
-1.7443398e-05
-1.5208857e-05
-1.365546e-05
-2.1138379e-05
-1.9943712e-05
-1.8867007e-05
-1.5893457e-05
-1.1868323e-05
-8.8075268e-06
-6.6703024e-06
-5.2718974e-06
-4.5502958e-06
-4.5363038e-06
-1.0979977e-05
-8.6802913e-06
-8.871308e-06
-7.4136381e-06
-2.917551e-06
2.2301094e-07
1.8464931e-06
2.3430118e-06
2.0946004e-06
1.5061431e-06
-4.7741707e-06
-5.8940941e-08
4.4821604e-07
-6.6354744e-07
3.4584019e-06
6.2610468e-06
7.2463479e-06
6.9966319e-06
6.4094678e-06
6.0648915e-06
-9.6134348e-07
1.0491988e-06
1.648228e-06
8.5244475e-07
2.0823791e-06
2.9118951e-06
3.1179809e-06
2.9212193e-06
2.7256741e-06
2.6915037e-06
-4.1173147e-06
-1.4333239e-05
-7.4992575e-07
-9.091544e-06
-1.1503776e-05
-1.1417046e-05
-1.0798728e-05
-1.035537e-05
-8.5088023e-06
-4.9459497e-06
-3.1498777e-05
-2.6447694e-05
-1.6730104e-05
-3.4770375e-05
-3.9465769e-05
-3.8341304e-05
-3.5914431e-05
-3.5025087e-05
-3.3020078e-05
-2.6100921e-05
-2.367828e-05
-1.5815738e-05
-3.2000969e-05
-3.9434062e-05
-4.0164966e-05
-3.7364094e-05
-3.3172216e-05
-3.0669992e-05
-3.1311595e-05
-3.161594e-05
-3.1320835e-05
-4.7451604e-05
-5.40565e-05
-5.5615604e-05
-5.3921875e-05
-4.9942278e-05
-4.4242574e-05
-3.830761e-05
-3.4481801e-05
-3.3393044e-05
-6.4813324e-05
-6.8301566e-05
-6.838425e-05
-6.6231604e-05
-6.2710913e-05
-5.8250407e-05
-5.2789545e-05
-4.6527575e-05
-4.0289868e-05
-3.5333881e-05
-5.3631808e-05
-5.2574237e-05
-5.0080479e-05
-4.5581504e-05
-4.0401179e-05
-3.5660122e-05
-3.124884e-05
-2.7115001e-05
-2.35333e-05
-2.1147292e-05
-3.4292376e-05
-3.2699867e-05
-3.0976156e-05
-2.6005767e-05
-1.9341499e-05
-1.4282938e-05
-1.0796379e-05
-8.5957822e-06
-7.5669419e-06
-7.7473658e-06
-1.7669205e-05
-1.4234323e-05
-1.4774849e-05
-1.2373698e-05
-5.0140812e-06
1.2598207e-07
2.7014607e-06
3.3554159e-06
2.8926536e-06
2.2355408e-06
-7.8150663e-06
2.9905891e-07
1.1091004e-06
-6.4688095e-07
6.0236658e-06
1.0546816e-05
1.1991381e-05
1.1395227e-05
1.0871503e-05
1.0034708e-05
-1.7695944e-06
1.7932583e-06
2.843179e-06
1.5903671e-06
3.5690183e-06
4.8943529e-06
5.1596885e-06
4.7740703e-06
4.7216133e-06
4.216209e-06
-5.5809248e-06
-2.1409873e-05
-4.0125769e-07
-1.3041908e-05
-1.6702404e-05
-1.6527374e-05
-1.5573409e-05
-1.5054762e-05
-1.2183081e-05
-6.4851273e-06
-4.6088135e-05
-3.8318632e-05
-2.2837608e-05
-5.02093e-05
-5.7314469e-05
-5.5455968e-05
-5.1680044e-05
-5.0747465e-05
-4.7836525e-05
-3.6789589e-05
-3.3268111e-05
-2.0716166e-05
-4.5158782e-05
-5.6468963e-05
-5.7512275e-05
-5.3066816e-05
-4.6502251e-05
-4.288452e-05
-4.4284783e-05
-4.4866769e-05
-4.46868e-05
-6.913852e-05
-7.9163655e-05
-8.1492007e-05
-7.8798169e-05
-7.2537725e-05
-6.3611051e-05
-5.4470925e-05
-4.8792444e-05
-4.7368184e-05
-9.7149319e-05
-0.00010237752
-0.00010239599
-9.8975369e-05
-9.3441696e-05
-8.6449811e-05
-7.7914322e-05
-6.8198199e-05
-5.8620742e-05
-5.1099994e-05
-8.1111881e-05
-7.9418396e-05
-7.5477473e-05
-6.8408383e-05
-6.0290358e-05
-5.2881001e-05
-4.602428e-05
-3.9663166e-05
-3.4242078e-05
-3.0757175e-05
-5.2534384e-05
-5.0325465e-05
-4.7825873e-05
-4.0143175e-05
-2.9759084e-05
-2.189156e-05
-1.6541247e-05
-1.3289267e-05
-1.193786e-05
-1.2490332e-05
-2.7527662e-05
-2.244216e-05
-2.3684132e-05
-2.0224695e-05
-8.8655156e-06
-9.311151e-07
2.9166841e-06
3.6722753e-06
2.850939e-06
2.4031209e-06
-1.2601635e-05
2.5281395e-07
1.3562357e-06
-1.7294298e-06
8.45898e-06
1.5368775e-05
1.7364977e-05
1.6167704e-05
1.6095819e-05
1.4856624e-05
-3.0069051e-06
2.6910432e-06
4.357715e-06
2.3030585e-06
5.3072199e-06
7.3168906e-06
7.63049e-06
6.9485717e-06
7.3319465e-06
6.1224436e-06
-7.0152718e-06
-3.107578e-05
1.1174241e-06
-1.7779564e-05
-2.3279025e-05
-2.299697e-05
-2.1590517e-05
-2.1014366e-05
-1.6668768e-05
-7.8869277e-06
-6.4761753e-05
-5.2562712e-05
-2.8030246e-05
-6.898681e-05
-7.9648154e-05
-7.6785852e-05
-7.1183678e-05
-7.0443576e-05
-6.6446108e-05
-4.9522524e-05
-4.2980352e-05
-2.3036034e-05
-5.9404456e-05
-7.6369122e-05
-7.7893102e-05
-7.1108107e-05
-6.1227547e-05
-5.6294999e-05
-5.9235234e-05
-6.0573194e-05
-5.9463318e-05
-9.6057988e-05
-0.00011108123
-0.00011454663
-0.00011041934
-0.00010087865
-8.7337401e-05
-7.3712607e-05
-6.5644801e-05
-6.4071793e-05
-0.00014097051
-0.00014879662
-0.00014876955
-0.0001435356
-0.00013510157
-0.00012446431
-0.00011150843
-9.6846819e-05
-8.2522661e-05
-7.138535e-05
-0.00011906613
-0.00011653337
-0.00011060166
-9.9867827e-05
-8.7519717e-05
-7.6274679e-05
-6.5916223e-05
-5.6382873e-05
-4.8363489e-05
-4.3352483e-05
-7.8093638e-05
-7.5119726e-05
-7.1751361e-05
-6.0306627e-05
-4.4585306e-05
-3.2689132e-05
-2.4693509e-05
-1.9993567e-05
-1.8269537e-05
-1.9460583e-05
-4.1810128e-05
-3.4427507e-05
-3.7072553e-05
-3.243519e-05
-1.5379953e-05
-3.4494235e-06
2.1727772e-06
2.9745593e-06
1.5297474e-06
1.4151738e-06
-2.0019795e-05
-3.2864591e-07
9.0125809e-07
-4.6068351e-06
1.0542067e-05
2.0854642e-05
2.3572468e-05
2.1387623e-05
2.2013086e-05
2.0429641e-05
-4.990585e-06
3.791259e-06
6.2918086e-06
2.8992853e-06
7.3404787e-06
1.0324165e-05
1.0681151e-05
9.5301251e-06
1.0604769e-05
8.4744992e-06
-8.0024639e-06
-4.4138316e-05
4.6439159e-06
-2.3272751e-05
-3.1453122e-05
-3.1042235e-05
-2.9041712e-05
-2.8496178e-05
-2.204762e-05
-8.7557377e-06
-8.8134126e-05
-6.9164557e-05
-3.0757903e-05
-9.1317955e-05
-0.00010717232
-0.00010292874
-9.4874403e-05
-9.4836344e-05
-8.961199e-05
-6.4197133e-05
-5.1604229e-05
-2.0305887e-05
-7.3757636e-05
-9.8911084e-05
-0.00010115895
-9.1037469e-05
-7.6509914e-05
-7.008814e-05
-7.5864912e-05
-7.870924e-05
-7.5008612e-05
-0.00012915417
-0.00015142304
-0.00015655548
-0.00015037378
-0.00013611387
-0.00011596577
-9.6057047e-05
-8.4926569e-05
-8.356939e-05
-0.00020043609
-0.00021209031
-0.00021204687
-0.0002042167
-0.00019160526
-0.0001757182
-0.00015640459
-0.00013465918
-0.00011358842
-9.735277e-05
-0.00017169417
-0.00016807705
-0.00015939625
-0.00014342802
-0.00012498823
-0.00010822734
-9.2849669e-05
-7.8788477e-05
-6.7082161e-05
-5.9931205e-05
-0.00011417171
-0.00011035262
-0.00010607931
-8.9403284e-05
-6.6022477e-05
-4.8344276e-05
-3.6583612e-05
-2.986562e-05
-2.7680449e-05
-2.9862585e-05
-6.2611562e-05
-5.212043e-05
-5.7349152e-05
-5.1475428e-05
-2.6309957e-05
-8.6592564e-06
-5.4244253e-07
2.4391227e-07
-2.1480417e-06
-1.72287e-06
-3.154463e-05
-1.9339808e-06
-9.0542471e-07
-1.055509e-05
1.1582227e-05
2.675134e-05
3.0439506e-05
2.6754375e-05
2.8472729e-05
2.657238e-05
-8.2079244e-06
5.0839579e-06
8.735312e-06
3.1877372e-06
9.6400981e-06
1.4011509e-05
1.4407404e-05
1.2556749e-05
1.4690854e-05
1.128985e-05
-7.9694208e-06
-6.1626211e-05
1.1428157e-05
-2.9332042e-05
-4.1367019e-05
-4.0797941e-05
-3.8027906e-05
-3.7707112e-05
-2.8274731e-05
-8.4068688e-06
-0.0001167767
-8.7680326e-05
-2.8356934e-05
-0.00011685743
-0.00014018497
-0.00013403329
-0.00012271482
-0.00012432117
-0.00011781108
-8.0136039e-05
-5.6752887e-05
-8.3116333e-06
-8.5929992e-05
-0.0001227937
-0.0001260984
-0.00011123925
-9.0238379e-05
-8.2271097e-05
-9.2977265e-05
-9.851075e-05
-8.9507361e-05
-0.00016870013
-0.0002013354
-0.00020886854
-0.00019975442
-0.00017874885
-0.00014920649
-0.00012056961
-0.00010560941
-0.00010516261
-0.00028041496
-0.00029761381
-0.00029759082
-0.00028605935
-0.00026747112
-0.00024407737
-0.00021568769
-0.00018387944
-0.00015331117
-0.00012996846
-0.00024421231
-0.00023920364
-0.00022674216
-0.00020334362
-0.00017619423
-0.00015156018
-0.00012904445
-0.00010857672
-9.16929e-05
-8.1586273e-05
-0.00016497202
-0.00016033577
-0.00015525989
-0.00013136762
-9.7080652e-05
-7.116968e-05
-5.4097183e-05
-4.4599338e-05
-4.1866699e-05
-4.555888e-05
-9.2905219e-05
-7.8275465e-05
-8.8001485e-05
-8.1014352e-05
-4.4404405e-05
-1.8637826e-05
-7.05285e-06
-6.4073305e-06
-1.0174435e-05
-8.7627541e-06
-4.9348068e-05
-5.3977089e-06
-5.1629456e-06
-2.1637368e-05
1.0244057e-05
3.2273613e-05
3.7234503e-05
3.1314084e-05
3.4879085e-05
3.2766016e-05
-1.3360316e-05
6.5075464e-06
1.1756379e-05
2.8185563e-06
1.2054251e-05
1.8380361e-05
1.8792e-05
1.5918912e-05
1.9733121e-05
1.4510198e-05
-5.9843406e-06
-8.4736466e-05
2.3348673e-05
-3.5456384e-05
-5.2954361e-05
-5.2189161e-05
-4.8442187e-05
-4.8714488e-05
-3.5083728e-05
-5.707227e-06
-0.00015080129
-0.00010680177
-1.6425275e-05
-0.00014421302
-0.00017813333
-0.0001693537
-0.00015375553
-0.00015864454
-0.00015097075
-9.5718184e-05
-5.4210307e-05
1.9709822e-05
-9.1621547e-05
-0.00014499554
-0.00014979985
-0.00012827018
-9.8350375e-05
-8.9057082e-05
-0.00010799652
-0.00011806344
-9.9359249e-05
-0.0002138138
-0.0002610673
-0.0002719921
-0.00025872251
-0.00022816958
-0.00018541211
-0.00014481402
-0.000125249
-0.00012695992
-0.00038649058
-0.00041158975
-0.00041163127
-0.00039486438
-0.00036780875
-0.00033379327
-0.00029258874
-0.00024665571
-0.00020289537
-0.0001697948
-0.00034303498
-0.00033626671
-0.00031865718
-0.00028481724
-0.00024534678
-0.00020959723
-0.00017704687
-0.00014762985
-0.00012358509
-0.0001094849
-0.00023592328
-0.00023071126
-0.00022521411
-0.00019149816
-0.00014185854
-0.0001043606
-7.9891154e-05
-6.6636164e-05
-6.3320331e-05
-6.9312173e-05
-0.00013674851
-0.00011671083
-0.00013396374
-0.00012635697
-7.3800638e-05
-3.666359e-05
-2.0338848e-05
-2.0092756e-05
-2.5829419e-05
-2.25918e-05
-7.6533834e-05
-1.2022954e-05
-1.3607487e-05
-4.1029304e-05
4.2466183e-06
3.5831602e-05
4.2391565e-05
3.3155601e-05
3.9892532e-05
3.7868884e-05
-2.1460321e-05
7.9161831e-06
1.5374728e-05
1.2049062e-06
1.4234126e-05
2.3271946e-05
2.3634252e-05
1.9277383e-05
2.5792662e-05
1.7928287e-05
-5.9442489e-07
-0.00011480349
4.3128612e-05
-4.0675997e-05
-6.5803429e-05
-6.4794917e-05
-5.9841814e-05
-6.1354196e-05
-4.1876729e-05
1.1080734e-06
-0.0001894949
-0.00012391034
1.1856284e-05
-0.00017039544
-0.00021910111
-0.00020672795
-0.00018563038
-0.0001965229
-0.00018814526
-0.00010792666
-3.7160856e-05
7.4030388e-05
-8.3645958e-05
-0.0001599541
-0.00016683065
-0.00013600871
-9.3965426e-05
-8.4086119e-05
-0.00011635223
-0.00013376289
-9.8392539e-05
-0.0002617906
-0.00032934993
-0.00034497529
-0.00032587086
-0.00028196159
-0.00022084629
-0.00016411264
-0.0001393123
-0.00014529832
-0.00052487049
-0.00056104888
-0.00056120299
-0.00053710349
-0.0004981893
-0.00044932597
-0.00039025601
-0.00032476527
-0.00026295589
-0.00021668326
-0.00047595039
-0.00046700797
-0.00044247966
-0.00039414275
-0.00033745509
-0.00028620946
-0.00023973855
-0.00019800023
-0.00016421676
-0.0001448479
-0.00033400176
-0.00032884067
-0.00032379671
-0.00027691808
-0.00020594776
-0.00015235738
-0.00011773852
-9.9512937e-05
-9.5692903e-05
-0.00010517105
-0.0001996403
-0.00017269267
-0.00020215519
-0.00019507947
-0.00012062118
-6.7779348e-05
-4.5099387e-05
-4.5733719e-05
-5.4261139e-05
-4.774349e-05
-0.00011749399
-2.3800584e-05
-2.8897747e-05
-7.3477347e-05
-1.0083428e-05
3.4604651e-05
4.3068889e-05
2.894655e-05
4.105913e-05
3.9785618e-05
-3.3960403e-05
9.0244005e-06
1.9518664e-05
-2.5827035e-06
1.5527981e-05
2.8265706e-05
2.8440547e-05
2.1946943e-05
3.2785651e-05
2.1097939e-05
1.0345544e-05
-0.00015325197
7.4571028e-05
-4.3367064e-05
-7.8989107e-05
-7.7679135e-05
-7.12898e-05
-7.5118409e-05
-4.7589742e-05
1.4653784e-05
-0.00023089068
-0.00013455245
6.6505592e-05
-0.00019014422
-0.00025916329
-0.00024191993
-0.00021392362
-0.00023516844
-0.00022710957
-0.00011179461
4.7339483e-06
0.0001695613
-5.0857821e-05
-0.00015853453
-0.00016819925
-0.00012458426
-6.6305179e-05
-5.7464405e-05
-0.00011072053
-0.00013964476
-7.688752e-05
-0.00030722772
-0.0004025564
-0.00042456915
-0.00039735523
-0.00033499429
-0.0002487206
-0.00017059097
-0.00014031978
-0.00015400794
-0.00070215799
-0.00075362609
-0.0007539337
-0.00071967582
-0.00066435884
-0.00059500941
-0.00051136979
-0.00041919085
-0.00033308324
-0.00026935024
-0.00065223786
-0.0006406889
-0.00060699819
-0.00053879483
-0.00045836356
-0.00038580577
-0.00032029603
-0.0002618538
-0.00021505996
-0.0001889163
-0.00046808351
-0.00046424242
-0.00046133202
-0.00039712257
-0.0002969287
-0.00022130401
-0.00017297671
-0.00014832511
-0.00014428892
-0.0001590001
-0.00028896093
-0.00025341084
-0.00030214689
-0.00029782619
-0.00019374607
-0.00011953964
-8.8509992e-05
-9.0851836e-05
-0.00010327874
-9.1075916e-05
-0.00017834664
-4.3688348e-05
-5.4972816e-05
-0.00012586871
-3.8389788e-05
2.397191e-05
3.4547708e-05
1.3296921e-05
3.4323631e-05
3.5054953e-05
-5.2905926e-05
9.3375983e-06
2.3970709e-05
-9.9452222e-06
1.4845269e-05
3.2543445e-05
3.2274374e-05
2.273599e-05
4.0409587e-05
2.3223536e-05
2.9856415e-05
-0.0002015196
0.00012279945
-4.1042385e-05
-9.0874181e-05
-8.9189624e-05
-8.1168308e-05
-8.9027522e-05
-5.0540293e-05
3.8639483e-05
-0.0002712591
-0.00013184455
0.00016158334
-0.00019514716
-0.00029161858
-0.00026783626
-0.00023142329
-0.00026974022
-0.00026389152
-9.9770173e-05
8.6375778e-05
0.00032709161
2.3073162e-05
-0.00012682197
-0.00014013169
-7.9119167e-05
5.6378438e-07
5.3383786e-06
-8.0159961e-05
-0.00012661686
-2.045054e-05
-0.00034096098
-0.00047365246
-0.00050416583
-0.00046580098
-0.00037828153
-0.00025801495
-0.00015202935
-0.00011682926
-0.00014354483
-0.00092496132
-0.00099718219
-0.00099765041
-0.00094947938
-0.00087176612
-0.00077453407
-0.0006575823
-0.00052953697
-0.00041127112
-0.00032483837
-0.00088269533
-0.00086813651
-0.00082250002
-0.00072744104
-0.000614714
-0.00051325722
-0.00042209258
-0.00034136836
-0.00027751771
-0.00024290777
-0.00064930093
-0.00064905778
-0.00065120489
-0.00056460023
-0.0004249527
-0.00031960313
-0.00025306384
-0.00022031171
-0.00021669595
-0.00023915977
-0.00041447284
-0.00036853082
-0.00044694108
-0.00044925456
-0.00030575538
-0.00020294339
-0.00016118052
-0.0001665755
-0.00018435857
-0.00016262169
-0.00026744316
-7.5942654e-05
-9.7473122e-05
-0.00020789788
-8.89886e-05
-3.199284e-06
9.4719866e-06
-2.2047334e-05
1.3425793e-05
1.8354061e-05
-8.1111475e-05
8.0682961e-06
2.8302753e-05
-2.2902964e-05
1.0492378e-05
3.4718875e-05
3.3565669e-05
1.9743004e-05
4.8056921e-05
2.3028508e-05
6.2008619e-05
-0.00026094655
0.00019446678
-3.0141344e-05
-9.88983e-05
-9.6742472e-05
-8.6981345e-05
-0.00010150355
-4.8275918e-05
7.8118827e-05
-0.00030455803
-0.00010587079
0.00031599114
-0.00017323189
-0.0003061671
-0.00027368352
-0.00022732688
-0.00029278354
-0.00029229937
-6.1061434e-05
0.00022828157
0.00057448938
0.00016092046
-4.4843569e-05
-6.276405e-05
2.1613084e-05
0.00012905801
0.00012462969
-9.2323319e-06
-8.1670046e-05
9.1155093e-05
-0.00034889253
-0.00053100315
-0.00057257704
-0.00051904501
-0.0003976819
-0.00023215272
-9.0598309e-05
-5.2337276e-05
-0.00010006011
-0.0011993341
-0.0012992358
-0.0012997857
-0.0012327791
-0.0011248906
-0.00099023869
-0.00082878162
-0.0006532948
-0.00049322447
-0.00037788809
-0.0011795471
-0.0011616717
-0.0011007069
-0.00096984964
-0.00081381462
-0.0006737407
-0.00054853465
-0.00043858576
-0.00035281742
-0.00030797166
-0.00089137461
-0.00089851623
-0.00091047463
-0.00079549962
-0.00060339104
-0.00045855573
-0.0003682361
-0.00032555815
-0.00032354748
-0.00035732959
-0.00058885433
-0.00053079619
-0.00065382683
-0.00066908653
-0.00047401138
-0.00033352938
-0.00027829415
-0.00028884076
-0.00031383926
-0.0002765794
-0.00039591889
-0.00012648532
-0.00016419679
-0.00033278506
-0.00017365858
-5.7378352e-05
-4.3044489e-05
-8.914979e-05
-3.0783113e-05
-1.8044267e-05
-0.00012235245
4.0422928e-06
3.1806174e-05
-4.4249517e-05
-9.047572e-09
3.2641399e-05
2.988812e-05
1.0119993e-05
5.4728035e-05
1.8612561e-05
0.00011205001
-0.00033263465
0.00029787437
-5.8611249e-06
-9.93896e-05
-9.6625479e-05
-8.5179196e-05
-0.00011027448
-3.7454068e-05
0.00013970433
-0.00032192259
-4.3186046e-05
0.00055404298
-0.0001076726
-0.00028816174
-0.00024419229
-0.00018652222
-0.00029376641
-0.00030354061
1.8933099e-05
0.00045746328
0.00094762356
0.00039297673
0.00011458408
9.1058354e-05
0.00020642152
0.00034928279
0.00032749083
0.00012273682
1.279941e-05
0.00028503072
-0.00031086524
-0.00055717401
-0.00061278361
-0.00053884476
-0.00037257621
-0.00014767542
3.8372946e-05
7.5760676e-05
-4.5297441e-06
-0.0015300683
-0.0016662148
-0.001666588
-0.0015743774
-0.0014263805
-0.0012422279
-0.001022206
-0.00078499226
-0.00057159377
-0.00042027138
-0.0015561993
-0.0015348837
-0.0014545598
-0.0012766593
-0.0010633905
-0.00087248477
-0.0007028234
-0.00055521539
-0.00044188384
-0.00038514952
-0.0012108712
-0.0012313447
-0.0012604454
-0.0011102754
-0.00084949622
-0.00065303981
-0.00053222683
-0.00047778027
-0.00047938202
-0.00052943589
-0.00082821215
-0.00075662446
-0.00094523054
-0.00098317042
-0.00072179444
-0.00053255817
-0.00046085489
-0.00047971336
-0.00051422869
-0.00045236588
-0.0005782304
-0.00020326218
-0.00026553089
-0.00051795359
-0.00030843358
-0.00015323273
-0.00013836771
-0.00020488835
-0.00011102023
-8.4781087e-05
-0.00018155217
-4.393767e-06
3.3430301e-05
-7.7685373e-05
-2.009665e-05
2.3196213e-05
1.7726236e-05
-1.0173032e-05
5.8968108e-05
7.3197327e-06
0.00018643545
-0.00041728524
0.0004429223
3.7910259e-05
-8.7452285e-05
-8.3871909e-05
-7.1053006e-05
-0.00011235096
-1.379644e-05
0.00023169144
-0.00031131892
7.3411366e-05
0.00090555403
2.3172933e-05
-0.00021813235
-0.00015910276
-8.9130316e-05
-0.00025887194
-0.00028606919
0.00015895408
0.00080786198
0.0014906552
0.00075762356
0.00038657788
0.00035657733
0.00051252414
0.00069981864
0.00064835654
0.00034203184
0.00017936227
0.00059572696
-0.00019983492
-0.00052795941
-0.00060088114
-0.00049977967
-0.00027475317
2.6844688e-05
0.00026735748
0.00029693309
0.00016786679
-0.0019198989
-0.0021025722
-0.0021021746
-0.0019766259
-0.0017760466
-0.0015273684
-0.0012314714
-0.00091530263
-0.00063521654
-0.00044017191
-0.0020268085
-0.0020022096
-0.0018978065
-0.0016589683
-0.0013711821
-0.001114393
-0.00088762429
-0.00069237894
-0.00054518729
-0.00047533906
-0.0016273093
-0.0016700279
-0.0017270785
-0.0015341955
-0.0011849679
-0.00092212977
-0.00076295379
-0.00069509798
-0.00070350612
-0.00077658787
-0.0011524766
-0.0010665917
-0.0013494154
-0.0014243785
-0.001079327
-0.00082812369
-0.00073689004
-0.00076867601
-0.00081546423
-0.00071557435
-0.0008325797
-0.00031651611
-0.00041475369
-0.00078551038
-0.00051424437
-0.00031037966
-0.0002972045
-0.00039186956
-0.00024410284
-0.00019575189
-0.00026493052
-1.9442645e-05
3.1751659e-05
-0.00012788902
-5.4292538e-05
2.1407383e-06
-7.7270518e-06
-4.6580438e-05
5.8866203e-05
-1.4346466e-05
0.00029269416
-0.00051503019
0.00064079541
0.00010848008
-5.700093e-05
-5.2272829e-05
-3.8762513e-05
-0.00010412592
2.7829405e-05
0.00036401949
-0.00025752499
0.00026462687
0.0014051222
0.00024560996
-7.1851559e-05
6.8243054e-06
8.9442014e-05
-0.00017124797
-0.00022583054
0.00038177374
0.0013199756
0.002255241
0.0013009587
0.00081406547
0.00077710333
0.00098555641
0.0012276851
0.0011288149
0.00068026184
0.00044537316
0.0010650002
1.830567e-05
-0.00041197362
-0.00050554967
-0.00036867399
-6.7837891e-05
0.00033131348
0.00063698913
0.00064770203
0.00044786787
-0.002368724
-0.0026098533
-0.0026075096
-0.0024383624
-0.0021697978
-0.0018382596
-0.0014456172
-0.0010302255
-0.00066848219
-0.00042172502
-0.0026056281
-0.0025782705
-0.0024443346
-0.0021276888
-0.0017443471
-0.0014035081
-0.0011046155
-0.00085027249
-0.0006625455
-0.00057923942
-0.0021629958
-0.0022407755
-0.0023410681
-0.002097517
-0.0016362411
-0.001289483
-0.0010830054
-0.0010006292
-0.0010206887
-0.0011258452
-0.0015855286
-0.0014856408
-0.0019008012
-0.002033064
-0.0015844126
-0.001255929
-0.0011423427
-0.0011936122
-0.0012558581
-0.0010985858
-0.0011810735
-0.00047885537
-0.00062805178
-0.0011622971
-0.00081717304
-0.00055379657
-0.00054613999
-0.0006790126
-0.00045111364
-0.00036808064
-0.00038006327
-4.3873179e-05
2.5006252e-05
-0.00020046563
-0.00010821652
-3.5960848e-05
-5.2679136e-05
-0.00010606519
5.2169016e-05
-5.0709868e-05
0.00043906581
-0.00062527336
0.0009032834
0.0002139678
-1.0233255e-06
5.39308e-06
1.8432055e-05
-8.1649036e-05
9.3146165e-05
0.00054798796
-0.0001426242
0.00055370217
0.0020902411
0.00058940478
0.00017873926
0.0002829596
0.00037765153
-1.1932983e-05
-0.00010708207
0.00071343184
0.0020392573
0.0032981191
0.0020749599
0.0014463102
0.0014026802
0.0016782608
0.0019869945
0.0018162016
0.0011730851
0.00084195114
0.0017402696
0.00038380951
-0.00017123226
-0.00028847018
-0.00010496476
0.00029230772
0.00081361463
0.0011954078
0.0011709029
0.00087145692
-0.0028729851
-0.0031858472
-0.0031794303
-0.0029538966
-0.0025986524
-0.0021623178
-0.0016483176
-0.0011104894
-0.00065096361
-0.00034484984
-0.003306092
-0.0032769089
-0.0031071797
-0.0026925946
-0.0021886003
-0.0017422598
-0.0013538625
-0.0010276955
-0.00079282702
-0.00069721964
-0.0028424307
-0.0029729939
-0.0031373233
-0.0028350531
-0.0022342232
-0.0017832247
-0.0015196588
-0.0014226335
-0.0014614114
-0.0016105356
-0.0021548468
-0.0020427756
-0.0026395804
-0.002856685
-0.0022822922
-0.001859331
-0.0017212567
-0.0018010837
-0.0018823304
-0.001640472
-0.0016494085
-0.00070495302
-0.00092404369
-0.0016792035
-0.0012479946
-0.0009135639
-0.00091751878
-0.001101466
-0.00075690713
-0.00062147197
-0.00053578327
-8.0941476e-05
1.1225999e-05
-0.00030169746
-0.00018840462
-9.762161e-05
-0.00012466638
-0.00019703772
3.6572523e-05
-0.00010674761
0.00063384484
-0.00074655938
0.0012416485
0.00036257013
8.7849626e-05
9.6836487e-05
0.00010766934
-4.1114581e-05
0.00018797709
0.00079564915
5.2812337e-05
0.00096451782
0.0029979083
0.0010853075
0.00056342536
0.00070080835
0.0008058913
0.00023835459
8.6070679e-05
0.0011816162
0.0030128597
0.0046765539
0.0031336494
0.0023355518
0.0022869021
0.0026473271
0.003035788
0.002760562
0.0018576307
0.0014018646
0.0026712867
0.0009405884
0.00023680376
9.3841157e-05
0.00033751076
0.0008557344
0.0015276245
0.0019961496
0.0019136455
0.0014781038
-0.0034253778
-0.0038239783
-0.003809877
-0.0035122029
-0.0030479838
-0.0024811395
-0.0018174267
-0.0011313413
-0.00055746447
-0.00018549928
-0.0041395816
-0.0041098521
-0.0038971157
-0.0033609662
-0.002707002
-0.0021304091
-0.0016329341
-0.0012213588
-0.00093346046
-0.0008290022
-0.0036910647
-0.0038979913
-0.0041535185
-0.0037847565
-0.0030131033
-0.0024349583
-0.002104053
-0.0019938235
-0.0020612853
-0.002269726
-0.0028903963
-0.0027699346
-0.0036102169
-0.003948092
-0.0032241958
-0.0026881297
-0.0025247222
-0.002645362
-0.0027494044
-0.0023857245
-0.0022658238
-0.0010106782
-0.0013225621
-0.0023693756
-0.0018406079
-0.0014235335
-0.0014482514
-0.001699436
-0.0011886139
-0.0009766546
-0.00074184037
-0.0001341683
-1.1476686e-05
-0.0004380124
-0.00030183783
-0.0001900356
-0.00023219899
-0.00032899607
1.0254261e-05
-0.00018768989
0.00088440032
-0.00087648046
0.0016649977
0.00056142294
0.00021641449
0.00022939077
0.00023568013
2.0432268e-05
0.00031751752
0.0011188223
0.00034773851
0.0015186346
0.0041595202
0.00176107
0.0011102005
0.0012906344
0.0014032957
0.00059648159
0.00036738448
0.0018130697
0.0042843941
0.0064412492
0.0045268294
0.0035313224
0.003481436
0.0039479383
0.004430634
0.0040096601
0.0027684182
0.0021561622
0.0039046188
0.0017317439
0.00085529898
0.00068635044
0.0010068717
0.0016746649
0.002529311
0.0030941958
0.00292368
0.0023077054
-0.0040150417
-0.00451309
-0.0044854773
-0.0040964741
-0.0034971628
-0.0027703084
-0.0019250227
-0.0010628745
-0.00035860155
8.3588105e-05
-0.0051138048
-0.0050849064
-0.0048207096
-0.0041357084
-0.0032982704
-0.0025635682
-0.0019356351
-0.0014248391
-0.0010796013
-0.00097299269
-0.0047331522
-0.0050465899
-0.005427305
-0.004984868
-0.0040077741
-0.0032774341
-0.002869045
-0.0027493597
-0.0028591406
-0.0031463494
-0.0038224397
-0.0036996836
-0.0048583509
-0.0053618994
-0.0044639818
-0.0037954783
-0.003607948
-0.0037855739
-0.0039163486
-0.0033812887
-0.0030590344
-0.0014114494
-0.0018424463
-0.0032649473
-0.0026289367
-0.0021184847
-0.0021770903
-0.0025154744
-0.001772805
-0.0014526579
-0.001008231
-0.00020692619
-4.4440829e-05
-0.00061509686
-0.00045509059
-0.00032030375
-0.00038401815
-0.00051177627
-2.7311518e-05
-0.00029834489
0.0011958875
-0.0010116242
0.0021781961
0.00081507167
0.00038960915
0.00040880411
0.00040769059
0.00010422164
0.00048540584
0.0015277196
0.00075783971
0.0022313027
0.0055940955
0.0026359411
0.0018402961
0.0020766652
0.0021932755
0.0010733316
0.00074557298
0.0026300604
0.0058866107
0.0086266546
0.0062912492
0.0050722621
0.005028058
0.005625826
0.0062188219
0.0056019633
0.0039318099
0.0031295954
0.0054758008
0.0027929203
0.0017220014
0.0015297291
0.0019474367
0.0027976008
0.0038706655
0.004539983
0.0042440555
0.0033961849
-0.004628303
-0.0052377044
-0.005187579
-0.0046841405
-0.0039197073
-0.0029997609
-0.0019380579
-0.00087097785
-2.1965906e-05
0.00049163649
-0.0062306837
-0.0062035615
-0.0058777042
-0.0050127976
-0.0039544755
-0.0030311482
-0.0022502015
-0.00162701
-0.0012227635
-0.0011250344
-0.005988419
-0.0064452927
-0.0069917527
-0.0064691554
-0.0052493704
-0.0043403723
-0.0038452322
-0.0037230011
-0.0038932525
-0.0042834446
-0.0049779442
-0.0048613713
-0.0064256467
-0.0071483833
-0.0060522566
-0.0052322912
-0.0050248186
-0.0052803116
-0.0054418556
-0.0046714186
-0.004054888
-0.0019196411
-0.0024981591
-0.004392009
-0.0036419572
-0.0030293947
-0.0031399816
-0.0035898382
-0.0025310886
-0.0020627882
-0.0013441205
-0.00030180678
-8.7795542e-05
-0.00083661647
-0.00065304261
-0.00049421488
-0.00058788987
-0.00075434292
-7.4265201e-05
-0.00044214265
0.0015697342
-0.0011475641
0.002779467
0.0011236543
0.00060895544
0.00063777143
0.00062612651
0.00020884035
0.00069269768
0.002029242
0.0012920937
0.0031066929
0.0073002497
0.0037139634