/*--------------------------------*- C++ -*----------------------------------*\
| =========                 |                                                 |
| \\      /  F ield         | OpenFOAM: The Open Source CFD Toolbox           |
|  \\    /   O peration     | Version:  v2106                                 |
|   \\  /    A nd           | Website:  www.openfoam.com                      |
|    \\/     M anipulation  |                                                 |
\*---------------------------------------------------------------------------*/
FoamFile
{
    version     2.0;
    format      ascii;
    arch        "LSB;label=32;scalar=64";
    class       volScalarField;
    location    "2.5";
    object      gradTx;
}
// * * * * * * * * * * * * * * * * * * * * * * * * * * * * * * * * * * * * * //

dimensions      [0 -1 0 1 0 0 0];

internalField   nonuniform List<scalar> 
4000
(
-6.8120016e-07
-3.4563044e-06
-1.3824007e-06
-1.1868167e-06
-4.3784013e-06
-3.5504911e-06
-2.19257e-06
-1.1226348e-06
-4.2085162e-07
-5.3184597e-08
-1.8586339e-06
-2.3932159e-06
1.0441852e-07
-2.8840645e-06
-4.7416222e-06
-3.4899443e-06
-2.0448454e-06
-9.2565244e-07
-6.0649086e-08
1.0815218e-07
2.7527373e-08
-8.6353111e-07
-1.682082e-06
-3.4498868e-06
-4.7629356e-06
-3.3415972e-06
-1.909018e-06
-9.0362846e-07
-5.7980317e-10
1.635461e-07
-8.6742299e-07
-2.6928973e-06
-2.2992396e-06
-3.5544161e-06
-4.6294502e-06
-3.0771162e-06
-1.6138159e-06
-7.7315292e-07
-2.0466473e-07
3.2851707e-08
-1.1039674e-06
-3.1265898e-06
-2.3524308e-06
-3.4441882e-06
-4.414369e-06
-2.765205e-06
-1.1999362e-06
-2.8489637e-07
2.7052636e-07
1.7914582e-07
-1.1095646e-06
-3.0774288e-06
-2.1870733e-06
-3.2058438e-06
-4.1475772e-06
-2.4820054e-06
-8.9283674e-07
3.8625103e-08
5.6976717e-07
2.6972392e-07
-1.0636086e-06
-2.917713e-06
-1.9396055e-06
-2.8677846e-06
-3.8192525e-06
-2.2159128e-06
-6.7654184e-07
2.0909567e-07
6.8475856e-07
2.9750709e-07
-1.0110853e-06
-2.7938768e-06
-1.7560353e-06
-2.4967648e-06
-3.4266037e-06
-1.9586139e-06
-5.2863243e-07
2.7319516e-07
6.8327495e-07
2.8762391e-07
-9.3228702e-07
-2.6987038e-06
-1.7871059e-06
-2.2490525e-06
-3.0074716e-06
-1.7219236e-06
-4.4197748e-07
2.6166447e-07
6.1870082e-07
2.6115382e-07
-7.7095024e-07
-2.373605e-06
-1.9000538e-06
-2.2256586e-06
-2.652169e-06
-1.5443788e-06
-4.1511896e-07
2.0713742e-07
5.5149201e-07
2.4281993e-07
-2.8686713e-06
-1.3779211e-05
-7.4209652e-06
-8.6948461e-06
-2.1184516e-05
-1.7474775e-05
-1.0995825e-05
-5.7076704e-06
-2.2531253e-06
-3.3395698e-07
-5.6400893e-06
-9.6075297e-06
-3.9092612e-06
-1.4890406e-05
-2.2572621e-05
-1.7161088e-05
-1.0300599e-05
-4.6377522e-06
-3.0444198e-07
4.9981281e-07
-8.7554024e-08
-5.4360783e-06
-1.0088212e-05
-1.731631e-05
-2.2710682e-05
-1.6458623e-05
-9.685462e-06
-4.5299686e-06
1.6449064e-07
8.5985524e-07
-3.298959e-06
-1.2274779e-05
-1.2775448e-05
-1.7892816e-05
-2.2090376e-05
-1.5145196e-05
-8.2412299e-06
-3.9043755e-06
-6.6291932e-07
3.3250368e-07
-4.2179219e-06
-1.4057537e-05
-1.3090619e-05
-1.7394399e-05
-2.1022041e-05
-1.3571054e-05
-6.1877131e-06
-1.5785531e-06
1.4881209e-06
9.7493853e-07
-4.2243604e-06
-1.3800945e-05
-1.2293211e-05
-1.6204172e-05
-1.9667456e-05
-1.2124985e-05
-4.6266763e-06
4.2120973e-08
2.9574693e-06
1.4143779e-06
-4.0087968e-06
-1.3041395e-05
-1.1074741e-05
-1.4506821e-05
-1.8001825e-05
-1.0766396e-05
-3.5259575e-06
9.011103e-07
3.521555e-06
1.5462263e-06
-3.7608705e-06
-1.2490585e-05
-1.0233848e-05
-1.2706423e-05
-1.6052905e-05
-9.463227e-06
-2.781988e-06
1.2080733e-06
3.4767936e-06
1.4792723e-06
-3.2955199e-06
-1.186369e-05
-1.0341361e-05
-1.1555406e-05
-1.4055328e-05
-8.2867302e-06
-2.3600052e-06
1.1293395e-06
3.149006e-06
1.3503457e-06
-2.461752e-06
-1.0072972e-05
-1.0592328e-05
-1.1382789e-05
-1.2432514e-05
-7.4297958e-06
-2.262658e-06
8.355272e-07
2.9259041e-06
1.3305377e-06
-3.1606779e-06
-2.0889502e-05
-1.4869869e-05
-1.9346908e-05
-4.047954e-05
-3.3344577e-05
-2.1138382e-05
-1.097998e-05
-4.7741707e-06
-9.6134158e-07
-9.3267071e-06
-1.7000576e-05
-9.8021843e-06
-2.9752636e-05
-4.2773956e-05
-3.2709156e-05
-1.9943715e-05
-8.6802913e-06
-5.8938099e-08
1.0492026e-06
-5.6806281e-07
-1.0766976e-05
-2.0234455e-05
-3.3985725e-05
-4.2915275e-05
-3.1268945e-05
-1.886701e-05
-8.8713165e-06
4.4821604e-07
1.6482299e-06
-5.9482507e-06
-2.2365163e-05
-2.4971743e-05
-3.5005502e-05
-4.1655787e-05
-2.8601272e-05
-1.5893457e-05
-7.4136437e-06
-6.635446e-07
8.5244854e-07
-7.5052109e-06
-2.5405791e-05
-2.5487321e-05
-3.4011691e-05
-3.9550005e-05
-2.54936e-05
-1.186832e-05
-2.9175538e-06
3.4583991e-06
2.082381e-06
-7.4778598e-06
-2.4800892e-05
-2.385357e-05
-3.1640235e-05
-3.6874854e-05
-2.2641419e-05
-8.807524e-06
2.230081e-07
6.2610411e-06
2.9118932e-06
-7.0815948e-06
-2.3330159e-05
-2.1379444e-05
-2.8236349e-05
-3.3590155e-05
-1.9972899e-05
-6.6702967e-06
1.8464874e-06
7.2463365e-06
3.117979e-06
-6.6814152e-06
-2.252952e-05
-1.9803315e-05
-2.4641551e-05
-2.9788924e-05
-1.7443398e-05
-5.2718946e-06
2.3430147e-06
6.9966347e-06
2.9212212e-06
-5.548471e-06
-2.122149e-05
-2.011279e-05
-2.2282592e-05
-2.5953506e-05
-1.5208855e-05
-4.5502958e-06
2.0945947e-06
6.4094678e-06
2.7256741e-06
-3.5379287e-06
-1.7307133e-05
-2.0407921e-05
-2.1631365e-05
-2.286433e-05
-1.3655452e-05
-4.5363095e-06
1.5061346e-06
6.0648944e-06
2.6915037e-06
-4.1173166e-06
-3.1498772e-05
-2.3678274e-05
-3.1320832e-05
-6.4813318e-05
-5.3631817e-05
-3.4292384e-05
-1.7669208e-05
-7.8150663e-06
-1.7695925e-06
-1.433324e-05
-2.6447688e-05
-1.5815732e-05
-4.7451607e-05
-6.8301571e-05
-5.2574245e-05
-3.269987e-05
-1.423432e-05
2.990646e-07
1.7932602e-06
-7.4992765e-07
-1.6730098e-05
-3.2000955e-05
-5.4056497e-05
-6.8384247e-05
-5.0080479e-05
-3.0976167e-05
-1.4774855e-05
1.1091004e-06
2.843179e-06
-9.0915459e-06
-3.4770378e-05
-3.9434056e-05
-5.5615604e-05
-6.6231604e-05
-4.5581496e-05
-2.6005767e-05
-1.2373698e-05
-6.4688379e-07
1.5903633e-06
-1.1503774e-05
-3.9465763e-05
-4.0164954e-05
-5.3921872e-05
-6.2710922e-05
-4.0401179e-05
-1.9341499e-05
-5.0140812e-06
6.0236658e-06
3.5690164e-06
-1.141704e-05
-3.8341304e-05
-3.7364094e-05
-4.9942267e-05
-5.8250407e-05
-3.5660128e-05
-1.4282935e-05
1.2597923e-07
1.054681e-05
4.8943548e-06
-1.0798726e-05
-3.5914434e-05
-3.3172222e-05
-4.4242572e-05
-5.2789539e-05
-3.124884e-05
-1.0796379e-05
2.7014579e-06
1.1991375e-05
5.1596885e-06
-1.0355368e-05
-3.5025084e-05
-3.0669995e-05
-3.830761e-05
-4.6527578e-05
-2.7115007e-05
-8.5957794e-06
3.3554159e-06
1.1395227e-05
4.7740722e-06
-8.5088042e-06
-3.3020078e-05
-3.1311598e-05
-3.4481803e-05
-4.0289859e-05
-2.3533298e-05
-7.5669448e-06
2.8926507e-06
1.08715e-05
4.7216133e-06
-4.9459516e-06
-2.6100918e-05
-3.1615934e-05
-3.3393044e-05
-3.5333881e-05
-2.1147292e-05
-7.7473686e-06
2.235538e-06
1.0034708e-05
4.216209e-06
-5.5809248e-06
-4.6088132e-05
-3.3268108e-05
-4.4686794e-05
-9.7149319e-05
-8.1111898e-05
-5.2534386e-05
-2.7527651e-05
-1.2601635e-05
-3.006907e-06
-2.1409873e-05
-3.8318632e-05
-2.0716161e-05
-6.9138514e-05
-0.00010237752
-7.9418405e-05
-5.0325468e-05
-2.244216e-05
2.5281679e-07
2.691047e-06
-4.012558e-07
-2.2837605e-05
-4.5158777e-05
-7.9163655e-05
-0.00010239599
-7.5477473e-05
-4.7825884e-05
-2.3684132e-05
1.3562413e-06
4.3577169e-06
-1.304191e-05
-5.0209303e-05
-5.6468957e-05
-8.1492007e-05
-9.8975372e-05
-6.840838e-05
-4.0143172e-05
-2.0224692e-05
-1.7294326e-06
2.3030566e-06
-1.6702402e-05
-5.731446e-05
-5.7512264e-05
-7.8798169e-05
-9.3441705e-05
-6.0290355e-05
-2.9759084e-05
-8.8655241e-06
8.4589828e-06
5.3072237e-06
-1.6527374e-05
-5.5455973e-05
-5.306681e-05
-7.2537713e-05
-8.6449813e-05
-5.2881006e-05
-2.189156e-05
-9.3111225e-07
1.5368772e-05
7.3168887e-06
-1.5573412e-05
-5.1680053e-05
-4.6502251e-05
-6.3611054e-05
-7.7914322e-05
-4.6024277e-05
-1.654125e-05
2.9166785e-06
1.7364974e-05
7.6304919e-06
-1.5054762e-05
-5.0747462e-05
-4.288452e-05
-5.4470925e-05
-6.8198199e-05
-3.9663169e-05
-1.3289267e-05
3.6722753e-06
1.6167706e-05
6.9485736e-06
-1.2183078e-05
-4.7836522e-05
-4.4284786e-05
-4.8792438e-05
-5.8620742e-05
-3.4242078e-05
-1.193786e-05
2.8509334e-06
1.6095819e-05
7.3319465e-06
-6.4851292e-06
-3.6789592e-05
-4.4866763e-05
-4.7368181e-05
-5.1099994e-05
-3.0757172e-05
-1.2490338e-05
2.4031181e-06
1.4856627e-05
6.1224436e-06
-7.0152699e-06
-6.476175e-05
-4.2980349e-05
-5.9463315e-05
-0.00014097052
-0.00011906614
-7.8093638e-05
-4.1810122e-05
-2.0019792e-05
-4.9905831e-06
-3.1075778e-05
-5.2562706e-05
-2.3036026e-05
-9.6057988e-05
-0.00014879662
-0.00011653338
-7.5119732e-05
-3.4427498e-05
-3.2863454e-07
3.7912571e-06
1.1174241e-06
-2.8030243e-05
-5.9404448e-05
-0.00011108122
-0.00014876956
-0.00011060166
-7.1751361e-05
-3.7072553e-05
9.0126093e-07
6.2918067e-06
-1.7779566e-05
-6.898681e-05
-7.6369113e-05
-0.00011454663
-0.00014353561
-9.9867822e-05
-6.0306624e-05
-3.2435184e-05
-4.6068294e-06
2.8992834e-06
-2.3279023e-05
-7.9648152e-05
-7.7893091e-05
-0.00011041934
-0.00013510158
-8.7519717e-05
-4.4585315e-05
-1.5379953e-05
1.0542075e-05
7.3404787e-06
-2.2996968e-05
-7.678585e-05
-7.1108099e-05
-0.00010087865
-0.00012446432
-7.6274682e-05
-3.2689132e-05
-3.4494121e-06
2.085464e-05
1.0324158e-05
-2.1590519e-05
-7.1183686e-05
-6.1227544e-05
-8.7337395e-05
-0.00011150843
-6.5916223e-05
-2.4693509e-05
2.17278e-06
2.3572466e-05
1.0681149e-05
-2.101436e-05
-7.0443573e-05
-5.6294999e-05
-7.3712599e-05
-9.6846824e-05
-5.6382885e-05
-1.9993567e-05
2.9745593e-06
2.1387623e-05
9.530127e-06
-1.6668772e-05
-6.6446111e-05
-5.9235228e-05
-6.5644795e-05
-8.2522666e-05
-4.8363492e-05
-1.8269526e-05
1.5297502e-06
2.201308e-05
1.0604767e-05
-7.8869277e-06
-4.9522521e-05
-6.0573188e-05
-6.407179e-05
-7.1385347e-05
-4.3352483e-05
-1.9460586e-05
1.4151766e-06
2.0429641e-05
8.4744973e-06
-8.0024658e-06
-8.8134126e-05
-5.1604232e-05
-7.5008614e-05
-0.00020043609
-0.00017169417
-0.0001141717
-6.2611562e-05
-3.1544636e-05
-8.2079244e-06
-4.4138318e-05
-6.9164557e-05
-2.0305885e-05
-0.00012915417
-0.00021209031
-0.00016807705
-0.00011035262
-5.2120424e-05
-1.9339751e-06
5.0839579e-06
4.6439141e-06
-3.0757903e-05
-7.375763e-05
-0.00015142303
-0.00021204688
-0.00015939625
-0.0001060793
-5.7349149e-05
-9.0542471e-07
8.7353139e-06
-2.3272757e-05
-9.1317963e-05
-9.8911082e-05
-0.00015655548
-0.0002042167
-0.00014342802
-8.9403289e-05
-5.1475422e-05
-1.0555075e-05
3.1877391e-06
-3.1453123e-05
-0.00010717233
-0.00010115895
-0.00015037378
-0.00019160527
-0.00012498823
-6.6022477e-05
-2.6309951e-05
1.1582233e-05
9.6401e-06
-3.1042237e-05
-0.00010292874
-9.1037469e-05
-0.00013611387
-0.0001757182
-0.00010822735
-4.8344273e-05
-8.6592536e-06
2.6751334e-05
1.4011505e-05
-2.9041714e-05
-9.4874406e-05
-7.6509914e-05
-0.00011596576
-0.00015640459
-9.2849675e-05
-3.6583612e-05
-5.4244253e-07
3.0439506e-05
1.4407404e-05
-2.8496176e-05
-9.4836346e-05
-7.0088134e-05
-9.6057039e-05
-0.00013465919
-7.878848e-05
-2.9865618e-05
2.4390943e-07
2.675437e-05
1.2556747e-05
-2.2047626e-05
-8.9611996e-05
-7.5864912e-05
-8.4926566e-05
-0.00011358842
-6.7082161e-05
-2.7680443e-05
-2.1480417e-06
2.8472724e-05
1.4690852e-05
-8.7557434e-06
-6.4197141e-05
-7.8709243e-05
-8.3569387e-05
-9.7352759e-05
-5.9931202e-05
-2.9862582e-05
-1.7228672e-06
2.6572374e-05
1.1289848e-05
-7.9694189e-06
-0.00011677669
-5.6752887e-05
-8.9507367e-05
-0.00028041496
-0.00024421231
-0.00016497201
-9.2905219e-05
-4.9348071e-05
-1.3360316e-05
-6.1626209e-05
-8.7680323e-05
-8.3116333e-06
-0.00016870013
-0.00029761381
-0.00023920364
-0.00016033576
-7.8275457e-05
-5.3977061e-06
6.5075464e-06
1.1428161e-05
-2.8356928e-05
-8.5929992e-05
-0.0002013354
-0.00029759082
-0.00022674216
-0.00015525989
-8.8001477e-05
-5.1629428e-06
1.1756377e-05
-2.933204e-05
-0.00011685743
-0.0001227937
-0.00020886854
-0.00028605936
-0.00020334361
-0.00013136762
-8.1014343e-05
-2.1637359e-05
2.8185563e-06
-4.1367017e-05
-0.00014018497
-0.0001260984
-0.00019975442
-0.00026747113
-0.00017619423
-9.7080652e-05
-4.4404399e-05
1.0244059e-05
1.2054248e-05
-4.0797941e-05
-0.00013403329
-0.00011123925
-0.00017874885
-0.00024407738
-0.00015156019
-7.116968e-05
-1.8637817e-05
3.2273618e-05
1.8380363e-05
-3.8027902e-05
-0.00012271482
-9.0238385e-05
-0.00014920649
-0.00021568769
-0.00012904445
-5.4097188e-05
-7.0528472e-06
3.7234503e-05
1.8791998e-05
-3.770711e-05
-0.00012432116
-8.2271097e-05
-0.00012056961
-0.00018387943
-0.00010857672
-4.4599338e-05
-6.4073333e-06
3.1314076e-05
1.5918909e-05
-2.8274733e-05
-0.00011781108
-9.2977271e-05
-0.00010560941
-0.00015331116
-9.1692894e-05
-4.1866693e-05
-1.0174432e-05
3.4879079e-05
1.9733119e-05
-8.4068707e-06
-8.0136041e-05
-9.8510756e-05
-0.0001051626
-0.00012996845
-8.1586271e-05
-4.5558866e-05
-8.7627512e-06
3.2766008e-05
1.4510196e-05
-5.9843406e-06
-0.0001508013
-5.4210309e-05
-9.9359252e-05
-0.00038649058
-0.00034303497
-0.00023592326
-0.00013674851
-7.6533843e-05
-2.1460318e-05
-8.4736466e-05
-0.00010680178
1.9709813e-05
-0.0002138138
-0.00041158975
-0.00033626671
-0.00023071125
-0.00011671082
-1.2022952e-05
7.9161831e-06
2.3348673e-05
-1.6425278e-05
-9.1621553e-05
-0.00026106731
-0.00041163127
-0.00031865717
-0.0002252141
-0.00013396374
-1.360749e-05
1.5374729e-05
-3.545638e-05
-0.00014421302
-0.00014499555
-0.00027199211
-0.00039486438
-0.00028481724
-0.00019149816
-0.00012635696
-4.1029307e-05
1.2049024e-06
-5.2954361e-05
-0.00017813333
-0.00014979986
-0.00025872251
-0.00036780875
-0.00024534678
-0.00014185854
-7.3800626e-05
4.2466155e-06
1.4234121e-05
-5.2189157e-05
-0.0001693537
-0.00012827019
-0.00022816959
-0.00033379326
-0.00020959723
-0.0001043606
-3.666359e-05
3.5831607e-05
2.327195e-05
-4.8442185e-05
-0.00015375553
-9.8350378e-05
-0.00018541211
-0.00029258874
-0.00017704688
-7.9891154e-05
-2.0338842e-05
4.2391568e-05
2.3634251e-05
-4.8714478e-05
-0.00015864453
-8.9057087e-05
-0.00014481402
-0.0002466557
-0.00014762985
-6.6636164e-05
-2.0092767e-05
3.3155598e-05
1.9277388e-05
-3.508373e-05
-0.00015097075
-0.00010799652
-0.00012524901
-0.00020289536
-0.00012358509
-6.332032e-05
-2.5829414e-05
3.9892524e-05
2.5792663e-05
-5.7072252e-06
-9.5718181e-05
-0.00011806344
-0.00012695991
-0.0001697948
-0.0001094849
-6.9312165e-05
-2.25918e-05
3.7868881e-05
1.7928289e-05
-5.94423e-07
-0.0001894949
-3.7160862e-05
-9.8392536e-05
-0.00052487049
-0.00047595039
-0.00033400175
-0.00019964029
-0.00011749399
-3.3960403e-05
-0.00011480349
-0.00012391034
7.4030379e-05
-0.0002617906
-0.00056104887
-0.00046700797
-0.00032884067
-0.00017269267
-2.3800584e-05
9.0243987e-06
4.3128616e-05
1.1856287e-05
-8.3645958e-05
-0.00032934993
-0.000561203
-0.00044247966
-0.00032379671
-0.00020215518
-2.889775e-05
1.951866e-05
-4.0675993e-05
-0.00017039544
-0.00015995411
-0.00034497529
-0.00053710348
-0.00039414275
-0.00027691808
-0.00019507947
-7.3477352e-05
-2.5827092e-06
-6.5803423e-05
-0.0002191011
-0.00016683065
-0.00032587087
-0.00049818929
-0.00033745509
-0.00020594776
-0.00012062118
-1.0083434e-05
1.5527979e-05
-6.4794919e-05
-0.00020672795
-0.00013600872
-0.00028196159
-0.00044932596
-0.00028620946
-0.00015235738
-6.7779348e-05
3.4604656e-05
2.8265708e-05
-5.9841811e-05
-0.00018563037
-9.3965434e-05
-0.0002208463
-0.000390256
-0.00023973855
-0.00011773852
-4.5099392e-05
4.3068891e-05
2.8440551e-05
-6.1354192e-05
-0.0001965229
-8.4086125e-05
-0.00016411264
-0.00032476526
-0.00019800022
-9.951294e-05
-4.5733731e-05
2.8946548e-05
2.1946947e-05
-4.1876727e-05
-0.00018814526
-0.00011635223
-0.00013931229
-0.00026295588
-0.00016421675
-9.5692894e-05
-5.4261145e-05
4.1059121e-05
3.2785651e-05
1.1080772e-06
-0.00010792666
-0.00013376289
-0.00014529832
-0.00021668327
-0.0001448479
-0.00010517104
-4.774349e-05
3.9785616e-05
2.1097939e-05
1.0345546e-05
-0.00023089068
4.7339455e-06
-7.688752e-05
-0.00070215799
-0.00065223786
-0.0004680835
-0.00028896093
-0.00017834664
-5.2905926e-05
-0.00015325197
-0.00013455245
0.0001695613
-0.00030722772
-0.0007536261
-0.0006406889
-0.00046424241
-0.00025341084
-4.3688351e-05
9.3376002e-06
7.457103e-05
6.6505595e-05
-5.0857818e-05
-0.0004025564
-0.00075393371
-0.00060699819
-0.00046133201
-0.00030214688
-5.4972816e-05
2.3970711e-05
-4.3367064e-05
-0.00019014422
-0.00015853453
-0.00042456915
-0.00071967582
-0.00053879483
-0.00039712256
-0.00029782619
-0.00012586871
-9.9452222e-06
-7.8989101e-05
-0.00025916328
-0.00016819925
-0.00039735523
-0.00066435884
-0.00045836356
-0.0002969287
-0.00019374606
-3.8389786e-05
1.4845267e-05
-7.7679132e-05
-0.00024191993
-0.00012458426
-0.00033499429
-0.00059500942
-0.00038580578
-0.00022130401
-0.00011953963
2.397191e-05
3.2543443e-05
-7.1289799e-05
-0.00021392361
-6.6305179e-05
-0.0002487206
-0.00051136979
-0.00032029603
-0.00017297672
-8.8509989e-05
3.454771e-05
3.2274373e-05
-7.5118409e-05
-0.00023516844
-5.7464402e-05
-0.00017059097
-0.00041919085
-0.00026185379
-0.00014832511
-9.0851839e-05
1.3296918e-05
2.2735988e-05
-4.7589738e-05
-0.00022710957
-0.00011072053
-0.00014031978
-0.00033308323
-0.00021505996
-0.00014428892
-0.00010327873
3.4323631e-05
4.0409587e-05
1.4653786e-05
-0.00011179461
-0.00013964476
-0.00015400794
-0.00026935023
-0.0001889163
-0.0001590001
-9.1075916e-05
3.505495e-05
2.3223536e-05
2.9856415e-05
-0.0002712591
8.6375778e-05
-2.045054e-05
-0.00092496132
-0.00088269532
-0.00064930093
-0.00041447284
-0.00026744316
-8.1111474e-05
-0.0002015196
-0.00013184455
0.0003270916
-0.00034096098
-0.00099718218
-0.00086813651
-0.00064905778
-0.00036853082
-7.5942651e-05
8.0683018e-06
0.00012279945
0.00016158334
2.3073164e-05
-0.00047365246
-0.00099765042
-0.00082250002
-0.00065120489
-0.00044694107
-9.7473114e-05
2.8302757e-05
-4.1042381e-05
-0.00019514717
-0.00012682198
-0.00050416583
-0.00094947937
-0.00072744104
-0.00056460023
-0.00044925456
-0.00020789789
-2.2902962e-05
-9.0874179e-05
-0.00029161859
-0.00014013169
-0.00046580097
-0.00087176612
-0.000614714
-0.0004249527
-0.00030575539
-8.89886e-05
1.0492378e-05
-8.9189623e-05
-0.00026783626
-7.911917e-05
-0.00037828154
-0.00077453407
-0.00051325721
-0.00031960313
-0.00020294339
-3.1992812e-06
3.4718875e-05
-8.1168304e-05
-0.00023142328
5.6378155e-07
-0.00025801496
-0.0006575823
-0.00042209257
-0.00025306384
-0.00016118052
9.4719894e-06
3.3565671e-05
-8.9027522e-05
-0.00026974022
5.3383786e-06
-0.00015202935
-0.00052953697
-0.00034136835
-0.00022031171
-0.0001665755
-2.2047337e-05
1.9743e-05
-5.0540291e-05
-0.00026389152
-8.0159961e-05
-0.00011682926
-0.00041127113
-0.00027751771
-0.00021669595
-0.00018435857
1.3425802e-05
4.8056925e-05
3.8639481e-05
-9.9770179e-05
-0.00012661685
-0.00014354482
-0.00032483837
-0.00024290777
-0.00023915976
-0.0001626217
1.8354058e-05
2.3028512e-05
6.2008621e-05
-0.00030455803
0.00022828156
9.1155093e-05
-0.0011993341
-0.0011795471
-0.0008913746
-0.00058885433
-0.00039591889
-0.00012235245
-0.00026094655
-0.00010587079
0.00057448937
-0.00034889253
-0.0012992358
-0.0011616717
-0.00089851622
-0.00053079619
-0.00012648532
4.0422928e-06
0.00019446678
0.00031599114
0.00016092046
-0.00053100315
-0.0012997857
-0.0011007069
-0.00091047462
-0.00065382682
-0.00016419678
3.1806172e-05
-3.0141344e-05
-0.0001732319
-4.4843574e-05
-0.00057257704
-0.0012327791
-0.00096984964
-0.00079549962
-0.00066908653
-0.00033278506
-4.4249517e-05
-9.8898297e-05
-0.0003061671
-6.2764056e-05
-0.00051904501
-0.0011248906
-0.00081381462
-0.00060339104
-0.00047401138
-0.00017365858
-9.0475824e-09
-9.674247e-05
-0.00027368352
2.1613081e-05
-0.0003976819
-0.00099023869
-0.0006737407
-0.00045855573
-0.00033352939
-5.7378344e-05
3.2641405e-05
-8.6981343e-05
-0.00022732687
0.00012905801
-0.00023215272
-0.00082878162
-0.00054853465
-0.0003682361
-0.00027829414
-4.3044477e-05
2.9888124e-05
-0.00010150355
-0.00029278353
0.00012462969
-9.0598314e-05
-0.0006532948
-0.00043858576
-0.00032555815
-0.00028884076
-8.9149785e-05
1.0119997e-05
-4.8275914e-05
-0.00029229937
-9.2323347e-06
-5.2337276e-05
-0.00049322447
-0.00035281742
-0.00032354748
-0.00031383926
-3.0783113e-05
5.4728035e-05
7.8118831e-05
-6.1061428e-05
-8.1670049e-05
-0.00010006011
-0.0003778881
-0.00030797167
-0.00035732959
-0.00027657939
-1.8044261e-05
1.8612561e-05
0.00011205001
-0.00032192259
0.00045746328
0.00028503071
-0.0015300683
-0.0015561993
-0.0012108712
-0.00082821215
-0.0005782304
-0.00018155217
-0.00033263465
-4.3186051e-05
0.00094762356
-0.00031086524
-0.0016662148
-0.0015348837
-0.0012313447
-0.00075662445
-0.00020326218
-4.3937689e-06
0.00029787437
0.00055404298
0.00039297672
-0.00055717401
-0.001666588
-0.0014545598
-0.0012604454
-0.00094523054
-0.00026553089
3.3430304e-05
-5.8611192e-06
-0.00010767259
0.00011458407
-0.00061278362
-0.0015743774
-0.0012766593
-0.0011102754
-0.00098317042
-0.0005179536
-7.7685375e-05
-9.93896e-05
-0.00028816174
9.1058354e-05
-0.00053884476
-0.0014263806
-0.0010633905
-0.00084949621
-0.00072179444
-0.00030843358
-2.0096642e-05
-9.6625479e-05
-0.00024419228
0.00020642152
-0.00037257621
-0.0012422279
-0.00087248478
-0.0006530398
-0.00053255817
-0.00015323272
2.3196217e-05
-8.5179194e-05
-0.00018652221
0.00034928279
-0.00014767542
-0.001022206
-0.0007028234
-0.00053222683
-0.00046085489
-0.0001383677
1.7726239e-05
-0.00011027447
-0.0002937664
0.00032749083
3.8372943e-05
-0.00078499226
-0.00055521539
-0.00047778027
-0.00047971336
-0.00020488834
-1.0173028e-05
-3.7454068e-05
-0.00030354061
0.00012273682
7.5760678e-05
-0.00057159377
-0.00044188384
-0.00047938202
-0.00051422869
-0.00011102023
5.8968108e-05
0.00013970433
1.8933096e-05
1.2799416e-05
-4.5297469e-06
-0.00042027139
-0.00038514951
-0.00052943589
-0.00045236588
-8.4781081e-05
7.3197327e-06
0.00018643545
-0.00031131893
0.00080786198
0.00059572697
-0.0019198989
-0.0020268085
-0.0016273093
-0.0011524766
-0.0008325797
-0.00026493052
-0.00041728524
7.3411357e-05
0.0014906552
-0.00019983492
-0.0021025722
-0.0020022096
-0.0016700279
-0.0010665917
-0.00031651611
-1.9442643e-05
0.0004429223
0.00090555403
0.00075762355
-0.00052795941
-0.0021021746
-0.0018978065
-0.0017270785
-0.0013494154
-0.00041475368
3.1751665e-05
3.7910261e-05
2.3172933e-05
0.00038657787
-0.00060088114
-0.0019766259
-0.0016589683
-0.0015341955
-0.0014243785
-0.00078551038
-0.00012788902
-8.7452285e-05
-0.00021813235
0.00035657733
-0.00049977967
-0.0017760466
-0.0013711821
-0.0011849679
-0.001079327
-0.00051424437
-5.4292534e-05
-8.3871911e-05
-0.00015910276
0.00051252414
-0.00027475317
-0.0015273684
-0.001114393
-0.00092212977
-0.00082812368
-0.00031037966
2.1407364e-06
-7.1053e-05
-8.913031e-05
0.00069981864
2.6844685e-05
-0.0012314714
-0.00088762429
-0.00076295379
-0.00073689003
-0.00029720449
-7.727048e-06
-0.00011235096
-0.00025887194
0.00064835655
0.00026735748
-0.00091530263
-0.00069237894
-0.00069509797
-0.00076867601
-0.00039186955
-4.6580434e-05
-1.3796442e-05
-0.00028606919
0.00034203184
0.00029693309
-0.00063521655
-0.0005451873
-0.00070350611
-0.00081546422
-0.00024410284
5.8866203e-05
0.00023169144
0.00015895408
0.00017936227
0.00016786679
-0.00044017191
-0.00047533907
-0.00077658788
-0.00071557434
-0.00019575188
-1.4346466e-05
0.00029269417
-0.000257525
0.0013199756
0.0010650002
-0.002368724
-0.0026056281
-0.0021629958
-0.0015855286
-0.0011810735
-0.00038006327
-0.00051503019
0.00026462687
0.002255241
1.8305676e-05
-0.0026098533
-0.0025782705
-0.0022407755
-0.0014856407
-0.00047885536
-4.3873176e-05
0.00064079541
0.0014051222
0.0013009587
-0.00041197362
-0.0026075096
-0.0024443346
-0.0023410681
-0.0019008012
-0.00062805178
2.5006252e-05
0.00010848008
0.00024560997
0.00081406546
-0.00050554968
-0.0024383624
-0.0021276888
-0.002097517
-0.002033064
-0.0011622971
-0.00020046563
-5.700093e-05
-7.1851554e-05
0.00077710333
-0.000368674
-0.0021697978
-0.0017443471
-0.0016362411
-0.0015844126
-0.00081717304
-0.00010821652
-5.2272831e-05
6.8243025e-06
0.00098555641
-6.7837891e-05
-0.0018382596
-0.0014035081
-0.0012894829
-0.0012559289
-0.00055379658
-3.5960852e-05
-3.8762511e-05
8.9442008e-05
0.0012276851
0.00033131349
-0.0014456172
-0.0011046155
-0.0010830054
-0.0011423426
-0.00054613998
-5.2679136e-05
-0.00010412592
-0.00017124797
0.0011288149
0.00063698913
-0.0010302255
-0.00085027248
-0.0010006292
-0.0011936122
-0.00067901259
-0.0001060652
2.7829405e-05
-0.00022583054
0.00068026184
0.00064770203
-0.00066848219
-0.0006625455
-0.0010206887
-0.0012558581
-0.00045111363
5.2169016e-05
0.00036401949
0.00038177374
0.00044537316
0.00044786787
-0.00042172501
-0.00057923942
-0.0011258452
-0.0010985858
-0.00036808064
-5.0709868e-05
0.00043906582
-0.0001426242
0.0020392573
0.0017402696
-0.0028729851
-0.003306092
-0.0028424307
-0.0021548468
-0.0016494085
-0.00053578327
-0.00062527336
0.00055370218
0.0032981191
0.00038380951
-0.0031858472
-0.0032769089
-0.0029729939
-0.0020427756
-0.00070495302
-8.0941476e-05
0.0009032834
0.0020902411
0.0020749599
-0.00017123226
-0.0031794303
-0.0031071797
-0.0031373233
-0.0026395804
-0.00092404369
1.1226003e-05
0.00021396781
0.00058940478
0.0014463102
-0.00028847018
-0.0029538966
-0.0026925946
-0.0028350531
-0.002856685
-0.0016792034
-0.00030169746
-1.0233275e-06
0.00017873925
0.0014026802
-0.00010496476
-0.0025986524
-0.0021886003
-0.0022342232
-0.0022822921
-0.0012479946
-0.00018840463
5.3930762e-06
0.0002829596
0.0016782608
0.00029230772
-0.0021623178
-0.0017422598
-0.0017832247
-0.001859331
-0.00091356391
-9.7621616e-05
1.8432056e-05
0.00037765153
0.0019869945
0.00081361464
-0.0016483176
-0.0013538625
-0.0015196588
-0.0017212567
-0.00091751878
-0.00012466638
-8.1649036e-05
-1.1932983e-05
0.0018162016
0.0011954079
-0.0011104894
-0.0010276955
-0.0014226335
-0.0018010837
-0.001101466
-0.00019703772
9.3146161e-05
-0.00010708207
0.0011730851
0.0011709029
-0.00065096361
-0.00079282701
-0.0014614114
-0.0018823304
-0.00075690713
3.6572519e-05
0.00054798796
0.00071343184
0.00084195114
0.00087145692
-0.00034484983
-0.00069721964
-0.0016105356
-0.001640472
-0.00062147196
-0.00010674761
0.00063384484
5.2812342e-05
0.0030128597
0.0026712867
-0.0034253778
-0.0041395816
-0.0036910647
-0.0028903963
-0.0022658238
-0.00074184037
-0.00074655938
0.00096451782
0.0046765539
0.0009405884
-0.0038239783
-0.0041098521
-0.0038979913
-0.0027699346
-0.0010106782
-0.0001341683
0.0012416485
0.0029979083
0.0031336494
0.00023680377
-0.003809877
-0.0038971157
-0.0041535185
-0.0036102169
-0.0013225621
-1.1476686e-05
0.00036257013
0.0010853076
0.0023355518
9.384116e-05
-0.0035122029
-0.0033609662
-0.0037847565
-0.003948092
-0.0023693756
-0.00043801239
8.7849622e-05
0.00056342535
0.0022869021
0.00033751076
-0.0030479838
-0.002707002
-0.0030131033
-0.0032241958
-0.0018406079
-0.00030183783
9.6836485e-05
0.00070080834
0.0026473271
0.00085573441
-0.0024811395
-0.0021304091
-0.0024349583
-0.0026881297
-0.0014235335
-0.0001900356
0.00010766934
0.0008058913
0.003035788
0.0015276245
-0.0018174267
-0.0016329341
-0.002104053
-0.0025247222
-0.0014482514
-0.00023219899
-4.111458e-05
0.00023835458
0.002760562
0.0019961496
-0.0011313413
-0.0012213588
-0.0019938235
-0.002645362
-0.001699436
-0.00032899607
0.00018797709
8.6070676e-05
0.0018576307
0.0019136455
-0.00055746446
-0.00093346046
-0.0020612853
-0.0027494044
-0.0011886139
1.0254259e-05
0.00079564916
0.0011816162
0.0014018646
0.0014781038
-0.00018549927
-0.0008290022
-0.002269726
-0.0023857245
-0.0009766546
-0.00018768989
0.00088440032
0.00034773851
0.0042843941
0.0039046188
-0.0040150417
-0.0051138048
-0.0047331522
-0.0038224397
-0.0030590344
-0.001008231
-0.00087648046
0.0015186346
0.0064412492
0.0017317439
-0.00451309
-0.0050849064
-0.0050465899
-0.0036996836
-0.0014114494
-0.00020692619
0.0016649977
0.0041595202
0.0045268294
0.00085529898
-0.0044854773
-0.0048207096
-0.005427305
-0.0048583509
-0.0018424463
-4.4440827e-05
0.00056142294
0.00176107
0.0035313224
0.00068635045
-0.0040964741
-0.0041357084
-0.004984868
-0.0053618994
-0.0032649473
-0.00061509686
0.00021641449
0.0011102005
0.003481436
0.0010068717
-0.0034971628
-0.0032982704
-0.0040077741
-0.0044639818
-0.0026289367
-0.00045509059
0.00022939077
0.0012906344
0.0039479383
0.0016746649
-0.0027703084
-0.0025635682
-0.0032774341
-0.0037954783
-0.0021184847
-0.00032030376
0.00023568013
0.0014032956
0.004430634
0.002529311
-0.0019250227
-0.0019356351
-0.002869045
-0.003607948
-0.0021770903
-0.00038401814
2.0432274e-05
0.0005964816
0.0040096601
0.0030941958
-0.0010628745
-0.0014248391
-0.0027493597
-0.0037855739
-0.0025154744
-0.00051177627
0.00031751752
0.00036738448
0.0027684182
0.00292368
-0.00035860155
-0.0010796013
-0.0028591406
-0.0039163486
-0.001772805
-2.7311514e-05
0.0011188223
0.0018130697
0.0021561622
0.0023077054
8.3588108e-05
-0.00097299268
-0.0031463494
-0.0033812887
-0.0014526579
-0.00029834489
0.0011958875
0.00075783971
0.0058866107
0.0054758008
-0.004628303
-0.0062306837
-0.005988419
-0.0049779441
-0.004054888
-0.0013441205
-0.0010116242
0.0022313027
0.0086266546
0.0027929203
-0.0052377044
-0.0062035615
-0.0064452927
-0.0048613713
-0.0019196411
-0.00030180678
0.0021781961
0.0055940955
0.0062912492
0.0017220014
-0.005187579
-0.0058777042
-0.0069917527
-0.0064256467
-0.0024981591
-8.7795543e-05
0.00081507166
0.0026359411
0.0050722621
0.0015297291
-0.0046841405
-0.0050127976
-0.0064691554
-0.0071483833
-0.004392009
-0.00083661647
0.00038960915
0.0018402961
0.005028058
0.0019474367
-0.0039197073
-0.0039544755
-0.0052493705
-0.0060522566
-0.0036419572
-0.0006530426
0.00040880411
0.0020766652
0.005625826
0.0027976008
-0.0029997609
-0.0030311482
-0.0043403723
-0.0052322912
-0.0030293947
-0.00049421487
0.00040769059
0.0021932755
0.0062188219
0.0038706655
-0.0019380579
-0.0022502015
-0.0038452322
-0.0050248186
-0.0031399816
-0.00058788987
0.00010422165
0.0010733316
0.0056019633
0.004539983
-0.00087097785
-0.00162701
-0.0037230012
-0.0052803116
-0.0035898382
-0.00075434292
0.00048540584
0.00074557299
0.0039318099
0.0042440555
-2.1965903e-05
-0.0012227635
-0.0038932526
-0.0054418556
-0.0025310886
-7.4265203e-05
0.0015277196
0.0026300604
0.0031295953
0.0033961849
0.00049163649
-0.0011250344
-0.0042834446
-0.0046714186
-0.0020627882
-0.00044214265
0.0015697342
0.0012920937
0.0078322877
0.0073994585
-0.0052498875
-0.0074836279
-0.0074673059
-0.0063753374
-0.005271586
-0.0017563182
-0.0011475641
0.0031066929
0.011239115
0.0041436912