/*--------------------------------*- C++ -*----------------------------------*\
| =========                 |                                                 |
| \\      /  F ield         | OpenFOAM: The Open Source CFD Toolbox           |
|  \\    /   O peration     | Version:  v2106                                 |
|   \\  /    A nd           | Website:  www.openfoam.com                      |
|    \\/     M anipulation  |                                                 |
\*---------------------------------------------------------------------------*/
FoamFile
{
    version     2.0;
    format      ascii;
    arch        "LSB;label=32;scalar=64";
    class       volScalarField;
    location    "2.5";
    object      gradTz;
}
// * * * * * * * * * * * * * * * * * * * * * * * * * * * * * * * * * * * * * //

dimensions      [0 -1 0 1 0 0 0];

internalField   nonuniform List<scalar> 
4000
(
0.073843806
0.073838894
0.073827707
0.073831181
0.073819537
0.073808302
0.073800786
0.073796586
0.073794736
0.073794242
0.073838894
0.073827678
0.073827702
0.07382528
0.073812007
0.073800749
0.073793586
0.073789792
0.073788643
0.073789468
0.073827707
0.073827702
0.073822356
0.073817613
0.073803912
0.073792946
0.073786256
0.073782671
0.073781429
0.07378278
0.073831181
0.07382528
0.073817613
0.073812165
0.073798575
0.073788179
0.073782324
0.073779457
0.073778175
0.073778606
0.073819537
0.073812007
0.073803912
0.073798575
0.073785427
0.073775732
0.07377085
0.073769207
0.073769227
0.07377074
0.073808302
0.073800749
0.073792946
0.073788179
0.073775732
0.073766772
0.073762684
0.073761902
0.07376279
0.073765013
0.073800786
0.073793586
0.073786256
0.073782324
0.07377085
0.073762684
0.07375924
0.073758981
0.073760259
0.073762698
0.073796586
0.073789792
0.073782671
0.073779457
0.073769207
0.073761902
0.073758981
0.07375899
0.073760332
0.073762675
0.073794736
0.073788643
0.073781429
0.073778175
0.073769227
0.07376279
0.073760259
0.073760332
0.073761535
0.073763669
0.073794242
0.073789468
0.07378278
0.073778606
0.07377074
0.073765013
0.073762698
0.073762675
0.073763669
0.073765728
0.13070106
0.13069734
0.13068363
0.13068386
0.13066547
0.13064776
0.13063568
0.13062881
0.13062582
0.13062446
0.13069734
0.13068614
0.13068274
0.13067624
0.13065587
0.1306382
0.13062665
0.13062031
0.1306189
0.13062031
0.13068363
0.13068274
0.13067373
0.13066419
0.13064319
0.13062603
0.13061526
0.13060907
0.1306073
0.13060952
0.13068386
0.13067624
0.13066419
0.13065356
0.13063273
0.13061654
0.13060721
0.13060226
0.13060057
0.1306018
0.13066547
0.13065587
0.13064319
0.13063273
0.13061262
0.1305976
0.1305899
0.13058693
0.13058726
0.13059012
0.13064776
0.1306382
0.13062603
0.13061654
0.1305976
0.13058381
0.13057744
0.1305759
0.13057762
0.13058159
0.13063568
0.13062665
0.13061526
0.13060721
0.1305899
0.13057744
0.13057214
0.13057145
0.13057378
0.13057801
0.13062881
0.13062031
0.13060907
0.13060226
0.13058693
0.1305759
0.13057145
0.13057115
0.13057352
0.13057747
0.13062582
0.1306189
0.1306073
0.13060057
0.13058726
0.13057762
0.13057378
0.13057352
0.13057561
0.13057931
0.13062446
0.13062031
0.13060952
0.1306018
0.13059012
0.13058159
0.13057801
0.13057747
0.13057931
0.13058298
0.18353788
0.18353601
0.18352016
0.18351975
0.18349754
0.18347612
0.18346138
0.18345283
0.18344942
0.18344726
0.18353601
0.18352297
0.18351917
0.18351106
0.18348661
0.18346533
0.18345119
0.18344293
0.1834416
0.18344354
0.18352016
0.18351917
0.18350887
0.18349726
0.18347213
0.18345158
0.18343851
0.18343029
0.18342826
0.18343124
0.18351975
0.18351106
0.18349726
0.1834844
0.18345953
0.18344026
0.1834291
0.1834225
0.18342063
0.18342251
0.18349754
0.18348661
0.18347213
0.18345953
0.1834356
0.18341784
0.18340877
0.18340469
0.18340534
0.18340923
0.18347612
0.18346533
0.18345158
0.18344026
0.18341784
0.18340168
0.18339431
0.18339202
0.18339439
0.18339961
0.18346138
0.18345119
0.18343851
0.1834291
0.18340877
0.18339431
0.18338829
0.18338704
0.18339009
0.18339551
0.18345283
0.18344293
0.18343029
0.1834225
0.18340469
0.18339202
0.18338704
0.18338621
0.18338919
0.18339413
0.18344942
0.1834416
0.18342826
0.18342063
0.18340534
0.18339439
0.18339009
0.18338919
0.18339185
0.18339691
0.18344726
0.18344354
0.18343124
0.18342251
0.18340923
0.18339961
0.18339551
0.18339413
0.18339691
0.18340124
0.27931293
0.2793093
0.27928773
0.2792909
0.27926239
0.27923423
0.27921462
0.27920283
0.27919808
0.27919501
0.2793093
0.27929117
0.27928798
0.27928026
0.27924859
0.27922066
0.27920189
0.27919027
0.27918812
0.27919059
0.27928773
0.27928798
0.27927566
0.27926306
0.27923048
0.27920358
0.27918627
0.27917462
0.27917146
0.27917552
0.2792909
0.27928026
0.27926306
0.27924876
0.27921657
0.27919144
0.27917676
0.27916719
0.27916395
0.27916613
0.27926239
0.27924859
0.27923048
0.27921657
0.27918569
0.27916268
0.2791509
0.27914479
0.27914495
0.27914979
0.27923423
0.27922066
0.27920358
0.27919144
0.27916268
0.27914187
0.27913244
0.27912878
0.27913128
0.27913789
0.27921462
0.27920189
0.27918627
0.27917676
0.2791509
0.27913244
0.27912485
0.27912257
0.27912592
0.27913269
0.27920283
0.27919027
0.27917462
0.27916719
0.27914479
0.27912878
0.27912257
0.27912077
0.2791239
0.27912994
0.27919808
0.27918812
0.27917146
0.27916395
0.27914495
0.27913128
0.27912592
0.2791239
0.27912667
0.27913358
0.27919501
0.27919059
0.27917552
0.27916613
0.27914979
0.27913789
0.27913269
0.27912994
0.27913358
0.27913873
0.43740891
0.43740456
0.43737564
0.43738526
0.4373475
0.4373091
0.43728207
0.4372653
0.43725792
0.43725309
0.43740456
0.43737944
0.43737844
0.43737222
0.43732984
0.43729173
0.43726588
0.43724931
0.43724568
0.43724868
0.43737564
0.43737844
0.43736434
0.43735104
0.43730732
0.43727065
0.4372468
0.43722988
0.4372245
0.43722967
0.43738526
0.43737222
0.43735104
0.43733529
0.43729211
0.43725798
0.43723782
0.43722368
0.43721776
0.43721972
0.4373475
0.43732984
0.43730732
0.43729211
0.43725082
0.43721972
0.4372037
0.43719447
0.43719334
0.43719899
0.4373091
0.43729173
0.43727065
0.43725798
0.43721972
0.43719177
0.4371791
0.43717336
0.43717553
0.43718367
0.43728207
0.43726588
0.4372468
0.43723782
0.4372037
0.4371791
0.43716903
0.43716521
0.43716851
0.43717679
0.4372653
0.43724931
0.43722988
0.43722368
0.43719447
0.43717336
0.43716521
0.43716197
0.43716483
0.43717196
0.43725792
0.43724568
0.4372245
0.43721776
0.43719334
0.43717553
0.43716851
0.43716483
0.43716714
0.43717597
0.43725309
0.43724868
0.43722967
0.43721972
0.43719899
0.43718367
0.43717679
0.43717196
0.43717597
0.43718235
0.68862812
0.68862449
0.68858607
0.68860615
0.68855575
0.68850286
0.68846517
0.68844123
0.68843008
0.68842228
0.68862449
0.68859039
0.68859364
0.6885908
0.68853362
0.68848109
0.68844497
0.68842106
0.68841529
0.68841888
0.68858607
0.68859364
0.68857815
0.68856504
0.68850589
0.68845539
0.68842197
0.68839714
0.68838831
0.68839487
0.68860615
0.6885908
0.68856504
0.68854836
0.68848998
0.68844312
0.68841496
0.68839386
0.68838371
0.68838503
0.68855575
0.68853362
0.68850589
0.68848998
0.68843432
0.68839181
0.68836962
0.68835555
0.68835217
0.68835867
0.68850286
0.68848109
0.68845539
0.68844312
0.68839181
0.68835385
0.68833647
0.6883274
0.68832874
0.68833878
0.68846517
0.68844497
0.68842197
0.68841496
0.68836962
0.68833647
0.68832279
0.68831642
0.68831933
0.6883295
0.68844123
0.68842106
0.68839714
0.68839386
0.68835555
0.6883274
0.68831642
0.68831082
0.688313
0.68832141
0.68843008
0.68841529
0.68838831
0.68838371
0.68835217
0.68832874
0.68831933
0.688313
0.68831433
0.68832537
0.68842228
0.68841888
0.68839487
0.68838503
0.68835867
0.68833878
0.6883295
0.68832141
0.68832537
0.68833312
1.0797652
1.0797638
1.0797132
1.07975
1.0796832
1.0796106
1.079558
1.0795237
1.0795069
1.0794944
1.0797638
1.079718
1.0797287
1.0797327
1.079656
1.0795839
1.0795334
1.0794987
1.0794895
1.0794936
1.0797132
1.0797287
1.0797129
1.0797022
1.0796226
1.0795533
1.0795065
1.0794698
1.0794556
1.0794638
1.07975
1.0797327
1.0797022
1.0796863
1.0796078
1.0795438
1.0795044
1.0794727
1.0794558
1.0794557
1.0796832
1.079656
1.0796226
1.0796078
1.0795333
1.0794755
1.0794446
1.079423
1.0794156
1.0794227
1.0796106
1.0795839
1.0795533
1.0795438
1.0794755
1.0794241
1.0794002
1.0793857
1.079385
1.0793971
1.079558
1.0795334
1.0795065
1.0795044
1.0794446
1.0794002
1.0793815
1.0793708
1.0793723
1.0793844
1.0795237
1.0794987
1.0794698
1.0794727
1.079423
1.0793857
1.0793708
1.0793611
1.0793614
1.079371
1.0795069
1.0794895
1.0794556
1.0794558
1.0794156
1.079385
1.0793723
1.0793614
1.0793606
1.0793743
1.0794944
1.0794936
1.0794638
1.0794557
1.0794227
1.0793971
1.0793844
1.079371
1.0793743
1.0793833
1.680117
1.68012
1.6800543
1.6801174
1.6800299
1.6799313
1.6798586
1.6798096
1.6797845
1.6797646
1.68012
1.6800591
1.6800824
1.6800991
1.6799977
1.6798996
1.6798295
1.6797792
1.6797649
1.6797692
1.6800543
1.6800824
1.6800686
1.6800645
1.679959
1.6798649
1.6797997
1.6797458
1.6797231
1.6797331
1.6801174
1.6800991
1.6800645
1.680053
1.6799491
1.6798624
1.6798077
1.6797603
1.6797328
1.6797298
1.6800299
1.6799977
1.679959
1.6799491
1.6798506
1.6797728
1.6797303
1.679697
1.6796828
1.6796897
1.6799313
1.6798996
1.6798649
1.6798624
1.6797728
1.6797043
1.6796715
1.6796483
1.6796435
1.6796574
1.6798586
1.6798295
1.6797997
1.6798077
1.6797303
1.6796715
1.6796461
1.6796282
1.6796263
1.6796401
1.6798096
1.6797792
1.6797458
1.6797603
1.679697
1.6796483
1.6796282
1.6796115
1.6796078
1.6796179
1.6797845
1.6797649
1.6797231
1.6797328
1.6796828
1.6796435
1.6796263
1.6796078
1.6796026
1.6796193
1.6797646
1.6797692
1.6797331
1.6797298
1.6796897
1.6796574
1.6796401
1.6796179
1.6796193
1.6796292
2.5904214
2.5904325
2.5903487
2.590452
2.5903398
2.5902076
2.590108
2.5900386
2.5900013
2.5899704
2.5904325
2.5903527
2.5903962
2.590435
2.5903031
2.5901716
2.5900753
2.5900031
2.5899809
2.5899847
2.5903487
2.5903962
2.5903889
2.5903985
2.5902609
2.5901349
2.5900451
2.5899664
2.589931
2.5899426
2.590452
2.590435
2.5903985
2.5903979
2.5902624
2.5901468
2.5900716
2.5900013
2.5899575
2.5899494
2.5903398
2.5903031
2.5902609
2.5902624
2.5901348
2.5900317
2.5899735
2.5899228
2.5898973
2.5899025
2.5902076
2.5901716
2.5901349
2.5901468
2.5900317
2.5899416
2.589897
2.5898604
2.5898479
2.5898627
2.590108
2.5900753
2.5900451
2.5900716
2.5899735
2.589897
2.5898628
2.5898334
2.5898248
2.5898392
2.5900386
2.5900031
2.5899664
2.5900013
2.5899228
2.5898604
2.5898334
2.5898055
2.5897941
2.5898031
2.5900013
2.5899809
2.589931
2.5899575
2.5898973
2.5898479
2.5898248
2.5897941
2.5897807
2.5898002
2.5899704
2.5899847
2.5899426
2.5899494
2.5899025
2.5898627
2.5898392
2.5898031
2.5898002
2.5898101
3.9547799
3.9548044
3.9546998
3.9548633
3.9547223
3.9545477
3.9544131
3.9543155
3.9542609
3.9542137
3.9548044
3.9547016
3.9547766
3.9548515
3.9546832
3.9545094
3.9543788
3.9542759
3.9542421
3.9542442
3.9546998
3.9547766
3.9547827
3.9548174
3.9546413
3.9544751
3.9543529
3.954239
3.9541847
3.9541976
3.9548633
3.9548515
3.9548174
3.9548379
3.9546648
3.9545131
3.9544109
3.9543075
3.9542394
3.9542227
3.9547223
3.9546832
3.9546413
3.9546648
3.9545026
3.9543683
3.9542896
3.9542132
3.9541697
3.9541706
3.9545477
3.9545094
3.9544751
3.9545131
3.9543683
3.9542519
3.9541921
3.954135
3.9541092
3.9541231
3.9544131
3.9543788
3.9543529
3.9544109
3.9542896
3.9541921
3.9541464
3.954099
3.9540782
3.9540911
3.9543155
3.9542759
3.954239
3.9543075
3.9542132
3.954135
3.954099
3.9540533
3.9540282
3.9540334
3.9542609
3.9542421
3.9541847
3.9542394
3.9541697
3.9541092
3.9540782
3.9540282
3.9540007
3.9540227
3.9542137
3.9542442
3.9541976
3.9542227
3.9541706
3.9541231
3.9540911
3.9540334
3.9540227
3.9540306
5.9761321
5.9761777
5.9760503
5.9763013
5.9761282
5.9759012
5.9757215
5.9755859
5.9755067
5.9754359
5.9761777
5.9760477
5.9761698
5.9763007
5.9760906
5.9758646
5.9756895
5.9755444
5.9754937
5.9754922
5.9760503
5.9761698
5.9762
5.9762765
5.9760557
5.9758401
5.9756757
5.9755127
5.9754309
5.9754441
5.9763013
5.9763007
5.9762765
5.9763339
5.9761173
5.9759215
5.975784
5.9756338
5.9755299
5.9754994
5.9761282
5.9760906
5.9760557
5.9761173
5.9759158
5.9757438
5.9756385
5.9755248
5.9754534
5.9754459
5.9759012
5.9758646
5.9758401
5.9759215
5.9757438
5.9755963
5.9755167
5.975429
5.9753816
5.9753912
5.9757215
5.9756895
5.9756757
5.975784
5.9756385
5.9755167
5.9754562
5.9753814
5.9753401
5.9753478
5.9755859
5.9755444
5.9755127
5.9756338
5.9755248
5.975429
5.9753814
5.9753082
5.9752606
5.9752572
5.9755067
5.9754937
5.9754309
5.9755299
5.9754534
5.9753816
5.9753401
5.9752606
5.97521
5.9752329
5.9754359
5.9754922
5.9754441
5.9754994
5.9754459
5.9753912
5.9753478
5.9752572
5.9752329
5.9752358
8.9357793
8.9358568
8.9357056
8.9360803
8.9358737
8.9355831
8.9353463
8.9351599
8.9350465
8.9349423
8.9358568
8.9356952
8.9358855
8.9361002
8.9358438
8.9355546
8.9353228
8.9351203
8.9350454
8.9350375
8.9357056
8.9358855
8.9359551
8.9360972
8.9358267
8.9355514
8.9353329
8.9351022
8.9349813
8.934993
8.9360803
8.9361002
8.9360972
8.9362139
8.9359492
8.9357008
8.9355182
8.9353024
8.9351469
8.9350955
8.9358737
8.9358438
8.9358267
8.9359492
8.935705
8.9354887
8.9353495
8.9351822
8.9350692
8.935047
8.9355831
8.9355546
8.9355514
8.9357008
8.9354887
8.9353055
8.9352008
8.9350683
8.9349868
8.9349869
8.9353463
8.9353228
8.9353329
8.9355182
8.9353495
8.9352008
8.9351213
8.9350055
8.9349315
8.9349279
8.9351599
8.9351203
8.9351022
8.9353024
8.9351822
8.9350683
8.9350055
8.934891
8.9348075
8.9347886
8.9350465
8.9350454
8.9349813
8.9351469
8.9350692
8.9349868
8.9349315
8.9348075
8.9347209
8.9347424
8.9349423
8.9350375
8.934993
8.9350955
8.935047
8.9349869
8.9349279
8.9347886
8.9347424
8.9347355
13.217242
13.217365
13.217191
13.217736
13.217497
13.217131
13.216823
13.21657
13.216409
13.216259
13.217365
13.217169
13.217454
13.217789
13.217484
13.21712
13.216817
13.216538
13.216429
13.21641
13.217191
13.217454
13.217584
13.217824
13.2175
13.217155
13.216868
13.216546
13.21637
13.216378
13.217736
13.217789
13.217824
13.21803
13.217715
13.217406
13.217166
13.21686
13.216632
13.21655
13.217497
13.217484
13.2175
13.217715
13.217427
13.217161
13.216978
13.216736
13.216562
13.216517
13.217131
13.21712
13.217155
13.217406
13.217161
13.216938
13.216801
13.216604
13.216472
13.216454
13.216823
13.216817
13.216868
13.217166
13.216978
13.216801
13.216698
13.216522
13.216398
13.216374
13.21657
13.216538
13.216546
13.21686
13.216736
13.216604
13.216522
13.216347
13.216209
13.216164
13.216409
13.216429
13.21637
13.216632
13.216562
13.216472
13.216398
13.216209
13.216068
13.216085
13.216259
13.21641
13.216378
13.21655
13.216517
13.216454
13.216374
13.216164
13.216085
13.216061
19.334329
19.334516
19.334322
19.335095
19.334827
19.334375
19.33398
19.333639
19.333416
19.333202
19.334516
19.334281
19.334695
19.335198
19.334844
19.334394
19.334004
19.333623
19.333468
19.333433
19.334322
19.334695
19.334912
19.335292
19.334915
19.334489
19.334118
19.333673
19.333422
19.333422
19.335095
19.335198
19.335292
19.335629
19.335264
19.334885
19.334574
19.334146
19.333819
19.333694
19.334827
19.334844
19.334915
19.335264
19.334934
19.334612
19.334377
19.334031
19.333772
19.33369
19.334375
19.334394
19.334489
19.334885
19.334612
19.334348
19.334172
19.333884
19.333677
19.333631
19.33398
19.334004
19.334118
19.334574
19.334377
19.334172
19.334038
19.333777
19.333579
19.333523
19.333639
19.333623
19.333673
19.334146
19.334031
19.333884
19.333777
19.333515
19.333297
19.333212
19.333416
19.333468
19.333422
19.333819
19.333772
19.333677
19.333579
19.333297
19.333078
19.333084
19.333202
19.333433
19.333422
19.333694
19.33369
19.333631
19.333523
19.333212
19.333084
19.333034
27.962637
27.962908
27.962702
27.963771
27.963482
27.962932
27.962432
27.96198
27.961675
27.961377
27.962908
27.962635
27.963216
27.963942
27.963545
27.962999
27.962502
27.961989
27.961773
27.961714
27.962702
27.963216
27.963553
27.964124
27.963698
27.963183
27.962708
27.962103
27.961753
27.96174
27.963771
27.963942
27.964124
27.964642
27.964231
27.963778
27.96338
27.962791
27.96233
27.962146
27.963482
27.963545
27.963698
27.964231
27.963868
27.963488
27.963187
27.962701
27.962325
27.962192
27.962932
27.962999
27.963183
27.963778
27.963488
27.963182
27.962957
27.962545
27.962234
27.962145
27.962432
27.962502
27.962708
27.96338
27.963187
27.962957
27.962785
27.962406
27.962104
27.961998
27.96198
27.961989
27.962103
27.962791
27.962701
27.962545
27.962406
27.962023
27.961692
27.961548
27.961675
27.961773
27.961753
27.96233
27.962325
27.962234
27.962104
27.961692
27.961362
27.961352
27.961377
27.961714
27.96174
27.962146
27.962192
27.962145
27.961998
27.961548
27.961352
27.961265
39.972707
39.973086
39.972875
39.974317
39.97402
39.973364
39.972741
39.972149
39.971738
39.971332
39.973086
39.972774
39.973566
39.974581
39.97415
39.973498
39.972875
39.972195
39.971899
39.971807
39.972875
39.973566
39.97406
39.974883
39.974417
39.973806
39.973208
39.972396
39.971917
39.971887
39.974317
39.974581
39.974883
39.975641
39.975196
39.974664
39.974162
39.973363
39.97273
39.972469
39.97402
39.97415
39.974417
39.975196
39.974812
39.974373
39.973994
39.973324
39.972791
39.97259
39.973364
39.973498
39.973806
39.974664
39.974373
39.974029
39.973745
39.973168
39.972714
39.972564
39.972741
39.972875
39.973208
39.974162
39.973994
39.973745
39.973528
39.972989
39.972544
39.972368
39.972149
39.972195
39.972396
39.973363
39.973324
39.973168
39.972989
39.97244
39.971956
39.97173
39.971738
39.971899
39.971917
39.97273
39.972791
39.972714
39.972544
39.971956
39.971477
39.971443
39.971332
39.971807
39.971887
39.972469
39.97259
39.972564
39.972368
39.97173
39.971443
39.971305
56.461726
56.462238
56.462036
56.463931
56.463643
56.462874
56.462109
56.461346
56.460804
56.460261
56.462238
56.46189
56.462938
56.464312
56.46386
56.463098
56.462328
56.46144
56.461044
56.460909
56.462036
56.462938
56.463629
56.46477
56.464278
56.463568
56.462825
56.461755
56.461116
56.461061
56.463931
56.464312
56.46477
56.465833
56.46537
56.464759
56.464136
56.463072
56.462221
56.461865
56.463643
56.46386
56.464278
56.46537
56.464984
56.464491
56.464021
56.463115
56.462382
56.462091
56.462874
56.463098
56.463568
56.464759
56.464491
56.464116
56.463765
56.462971
56.462332
56.462101
56.462109
56.462328
56.462825
56.464136
56.464021
56.463765
56.463493
56.462743
56.462111
56.461841
56.461346
56.46144
56.461755
56.463072
56.463115
56.462971
56.462743
56.461978
56.461292
56.460957
56.460804
56.461044
56.461116
56.462221
56.462382
56.462332
56.462111
56.461292
56.460617
56.460554
56.460261
56.460909
56.461061
56.461865
56.462091
56.462101
56.461841
56.460957
56.460554
56.460349
78.778971
78.779639
78.779462
78.781884
78.781626
78.780742
78.779818
78.778852
78.778151
78.777442
78.779639
78.779262
78.780604
78.782406
78.781952
78.781078
78.780144
78.779005
78.778487
78.778298
78.779462
78.780604
78.781531
78.783056
78.782557
78.78175
78.780844
78.77946
78.778625
78.778542
78.781884
78.782406
78.783056
78.784491
78.784031
78.783348
78.782588
78.781198
78.780083
78.779612
78.781626
78.781952
78.782557
78.784031
78.783669
78.783132
78.78256
78.781359
78.780378
78.779978
78.780742
78.781078
78.78175
78.783348
78.783132
78.78274
78.782311
78.781246
78.780375
78.780041
78.779818
78.780144
78.780844
78.782588
78.78256
78.782311
78.781978
78.780962
78.780091
78.779702
78.778852
78.779005
78.77946
78.781198
78.781359
78.781246
78.780962
78.779919
78.778977
78.778505
78.778151
78.778487
78.778625
78.780083
78.780378
78.780375
78.780091
78.778977
78.778057
78.777961
78.777442
78.778298
78.778542
78.779612
78.779978
78.780041
78.779702
78.778505
78.777961
78.777674
108.53821
108.53905
108.53892
108.54193
108.54172
108.54072
108.53963
108.53843
108.53754
108.53664
108.53905
108.53866
108.54032
108.54261
108.54217
108.54119
108.54008
108.53865
108.53799
108.53774
108.53892
108.54032
108.54151
108.54348
108.543
108.5421
108.54102
108.53926
108.5382
108.53809
108.54193
108.54261
108.54348
108.54534
108.54491
108.54417
108.54326
108.54149
108.54006
108.53946
108.54172
108.54217
108.543
108.54491
108.54461
108.54404
108.54336
108.54181
108.54053
108.54001
108.54072
108.54119
108.5421
108.54417
108.54404
108.54365
108.54314
108.54175
108.5406
108.54014
108.53963
108.54008
108.54102
108.54326
108.54336
108.54314
108.54274
108.5414
108.54024
108.53971
108.53843
108.53865
108.53926
108.54149
108.54181
108.54175
108.5414
108.54002
108.53877
108.53813
108.53754
108.53799
108.5382
108.54006
108.54053
108.5406
108.54024
108.53877
108.53755
108.53742
108.53664
108.53774
108.53809
108.53946
108.54001
108.54014
108.53971
108.53813
108.53742
108.53704
147.6083
147.60933
147.60925
147.61288
147.61274
147.61165
147.61037
147.60891
147.60782
147.6067
147.60933
147.60893
147.61092
147.61372
147.61333
147.61226
147.61096
147.60919
147.60838
147.60806
147.60925
147.61092
147.61239
147.61483
147.6144
147.61343
147.61216
147.60998
147.60867
147.60853
147.61288
147.61372
147.61483
147.61717
147.6168
147.61602
147.61496
147.61274
147.61097
147.61024
147.61274
147.61333
147.6144
147.6168
147.61658
147.61601
147.61522
147.61326
147.61166
147.61099
147.61165
147.61226
147.61343
147.61602
147.61601
147.61565
147.61506
147.61329
147.61182
147.61123
147.61037
147.61096
147.61216
147.61496
147.61522
147.61506
147.6146
147.61288
147.61139
147.61069
147.60891
147.60919
147.60998
147.61274
147.61326
147.61329
147.61288
147.61109
147.60948
147.60866
147.60782
147.60838
147.60867
147.61097
147.61166
147.61182
147.61139
147.60948
147.60793
147.60778
147.6067
147.60806
147.60853
147.61024
147.61099
147.61123
147.61069
147.60866
147.60778
147.6073
198.07161
198.07282
198.0728
198.07704
198.07699
198.0758
198.07436
198.07263
198.07132
198.06997
198.07282
198.07242
198.07472
198.07804
198.07771
198.07656
198.07509
198.07297
198.072
198.07162
198.0728
198.07472
198.07646
198.07938
198.07901
198.078
198.07655
198.07393
198.07236
198.0722
198.07704
198.07804
198.07938
198.08219
198.08191
198.08112
198.07992
198.07723
198.07511
198.07425
198.07699
198.07771
198.07901
198.08191
198.08182
198.08128
198.08039
198.07799
198.07604
198.07525
198.0758
198.07656
198.078
198.08112
198.08128
198.08099
198.08033
198.07814
198.07633
198.0756
198.07436
198.07509
198.07655
198.07992
198.08039
198.08033
198.07982
198.07768
198.07583
198.07496
198.07263
198.07297
198.07393
198.07723
198.07799
198.07814
198.07768
198.07545
198.07344
198.07242
198.07132
198.072
198.07236
198.07511
198.07604
198.07633
198.07583
198.07344
198.07152
198.07138
198.06997
198.07162
198.0722
198.07425
198.07525
198.0756
198.07496
198.07242
198.07138
198.0708
262.13927
262.14064
262.14069
262.14545
262.14548
262.14424
262.14266
262.14066
262.13915
262.13757
262.14064
262.14026
262.14281
262.14657
262.14632
262.14513
262.14351
262.14103
262.13993
262.13949
262.14069
262.14281
262.14476
262.14811
262.14783
262.14681
262.14522
262.14214
262.14034
262.14018
262.14545
262.14657
262.14811
262.15136
262.1512
262.15044
262.14914
262.14597
262.14351
262.14256
262.14548
262.14632
262.14783
262.1512
262.15125
262.15079
262.14984
262.147
262.14471
262.14381
262.14424
262.14513
262.14681
262.15044
262.15079
262.15061
262.14993
262.1473
262.14517
262.14432
262.14266
262.14351
262.14522
262.14914
262.14984
262.14993
262.1494
262.14682
262.14462
262.14358
262.14066
262.14103
262.14214
262.14597
262.147
262.1473
262.14682
262.14412
262.14172
262.1405
262.13915
262.13993
262.14034
262.14351
262.14471
262.14517
262.14462
262.14172
262.13944
262.13934
262.13757
262.13949
262.14018
262.14256
262.14381
262.14432
262.14358
262.1405
262.13934
262.13868
342.01367
342.01516
342.01528
342.02041
342.02051
342.01926
342.01758
342.01535
342.01368
342.01189
342.01516
342.01482
342.01751
342.0216
342.02142
342.02024
342.01852
342.01573
342.01453
342.01405
342.01528
342.01751
342.01959
342.02327
342.02308
342.02211
342.02044
342.01694
342.01496
342.01483
342.02041
342.0216
342.02327
342.02685
342.02682
342.02616
342.02481
342.02121
342.01847
342.01747
342.02051
342.02142
342.02308
342.02682
342.02704
342.02672
342.02578
342.02252
342.01996
342.019
342.01926
342.02024
342.02211
342.02616
342.02672
342.02671
342.02606
342.02304
342.02063
342.01971
342.01758
342.01852
342.02044
342.02481
342.02578
342.02606
342.02556
342.02258
342.02007
342.01891
342.01535
342.01573
342.01694
342.02121
342.02252
342.02304
342.02258
342.01944
342.01669
342.01529
342.01368
342.01453
342.01496
342.01847
342.01996
342.02063
342.02007
342.01669
342.01407
342.01407
342.01189
342.01405
342.01483
342.01747
342.019
342.01971
342.01891
342.01529
342.01407
342.01336
439.69295
439.69448
439.69465
439.69991
439.70006
439.69884
439.69716
439.69478
439.69301
439.69107
439.69448
439.69421
439.69687
439.70109
439.70097
439.69987
439.69814
439.69512
439.69389
439.69342
439.69465
439.69687
439.69895
439.70277
439.70269
439.70183
439.70018
439.69637
439.6943
439.69425
439.69991
439.70109
439.70277
439.70652
439.70663
439.70614
439.70485
439.70093
439.69804
439.69707
439.70006
439.70097
439.70269
439.70663
439.70704
439.70693
439.70608
439.70253
439.69981
439.69885
439.69884
439.69987
439.70183
439.70614
439.70693
439.70716
439.70663
439.70332
439.70074
439.6998
439.69716
439.69814
439.70018
439.70485
439.70608
439.70663
439.70626
439.70296
439.70024
439.69901
439.69478
439.69512
439.69637
439.70093
439.70253
439.70332
439.70296
439.69946
439.69644
439.69493
439.69301
439.69389
439.6943
439.69804
439.69981
439.70074
439.70024
439.69644
439.69359
439.69376
439.69107
439.69342
439.69425
439.69707
439.69885
439.6998
439.69901
439.69493
439.69376
439.69304
556.72011
556.7216
556.72179
556.72685
556.72701
556.72591
556.72432
556.72193
556.72016
556.71816
556.7216
556.7214
556.72384
556.7279
556.72784
556.7269
556.72529
556.72218
556.72103
556.72062
556.72179
556.72384
556.72574
556.72945
556.72947
556.72883
556.72733
556.72338
556.72137
556.72145
556.72685
556.7279
556.72945
556.73315
556.7334
556.73317
556.73208
556.72802
556.72516
556.72432
556.72701
556.72784
556.72947
556.7334
556.73399
556.73418
556.73357
556.72989
556.72719
556.72635
556.72591
556.7269
556.72883
556.73317
556.73418
556.73473
556.73446
556.73102
556.72845
556.72759
556.72432
556.72529
556.72733
556.73208
556.73357
556.73446
556.73433
556.73089
556.72812
556.7269
556.72193
556.72218
556.72338
556.72802
556.72989
556.73102
556.73089
556.72718
556.72404
556.72249
556.72016
556.72103
556.72137
556.72516
556.72719
556.72845
556.72812
556.72404
556.7211
556.72152
556.71816
556.72062
556.72145
556.72432
556.72635
556.72759
556.7269
556.72249
556.72152
556.72085
693.89196
693.89329
693.89345
693.89793
693.89806
693.89717
693.89584
693.8936
693.892
693.89006
693.89329
693.89317
693.89516
693.89874
693.89871
693.89803
693.89672
693.89372
693.89279
693.8925
693.89345
693.89516
693.89668
693.89998
693.90009
693.89977
693.89862
693.89478
693.89301
693.89328
693.89793
693.89874
693.89998
693.90333
693.90372
693.90386
693.90316
693.89923
693.89664
693.89606
693.89806
693.89871
693.90009
693.90372
693.90449
693.90508
693.90488
693.90134
693.8989
693.8983
693.89717
693.89803
693.89977
693.90386
693.90508
693.90606
693.90619
693.90289
693.90054
693.89989
693.89584
693.89672
693.89862
693.90316
693.90488
693.90619
693.90647
693.90311
693.90052
693.89943
693.8936
693.89372
693.89478
693.89923
693.90134
693.90289
693.90311
693.89944
693.8964
693.89491
693.892
693.89279
693.89301
693.89664
693.8989
693.90054
693.90052
693.8964
693.89355
693.89431
693.89006
693.8925
693.89328
693.89606
693.8983
693.89989
693.89943
693.89491
693.89431
693.89376
850.95777
850.95881
850.9589
850.96236
850.96242
850.96186
850.96099
850.95913
850.95787
850.95614
850.95881
850.95876
850.96004
850.96278
850.96278
850.9625
850.96169
850.95908
850.95852
850.95842
850.9589
850.96004
850.96097
850.96355
850.96375
850.96388
850.96329
850.9599
850.9586
850.95912
850.96236
850.96278
850.96355
850.96624
850.96677
850.9674
850.96731
850.96386
850.96183
850.96164
850.96242
850.96278
850.96375
850.96677
850.96771
850.96881
850.96923
850.96616
850.96427
850.96405
850.96186
850.9625
850.96388
850.9674
850.96881
850.9703
850.97105
850.96819
850.96634
850.96602
850.96099
850.96169
850.96329
850.96731
850.96923
850.97105
850.97191
850.96895
850.96679
850.96596
850.95913
850.95908
850.9599
850.96386
850.96616
850.96819
850.96895
850.9656
850.96293
850.96163
850.95787
850.95852
850.9586
850.96183
850.96427
850.96634
850.96679
850.96293
850.96042
850.96158
850.95614
850.95842
850.95912
850.96164
850.96405
850.96602
850.96596
850.96163
850.96158
850.9612
1026.3529
1026.3535
1026.3534
1026.3555
1026.3554
1026.3554
1026.3551
1026.3539
1026.3532
1026.3519
1026.3535
1026.3535
1026.3538
1026.3554
1026.3554
1026.3557
1026.3556
1026.3537
1026.3537
1026.3538
1026.3534
1026.3538
1026.354
1026.3555
1026.3558
1026.3565
1026.3567
1026.3542
1026.3536
1026.3544
1026.3555
1026.3554
1026.3555
1026.3572
1026.3579
1026.3592
1026.3599
1026.3573
1026.3562
1026.3565
1026.3554
1026.3554
1026.3558
1026.3579
1026.359
1026.3608
1026.362
1026.3598
1026.3587
1026.359
1026.3554
1026.3557
1026.3565
1026.3592
1026.3608
1026.3629
1026.3644
1026.3623
1026.3613
1026.3614
1026.3551
1026.3556
1026.3567
1026.3599
1026.362
1026.3644
1026.366
1026.3638
1026.3624
1026.3619
1026.3539
1026.3537
1026.3542
1026.3573
1026.3598
1026.3623
1026.3638
1026.3611
1026.3591
1026.3581
1026.3532
1026.3537
1026.3536
1026.3562
1026.3587
1026.3613
1026.3624
1026.3591
1026.3572
1026.3588
1026.3519
1026.3538
1026.3544
1026.3565
1026.359
1026.3614
1026.3619
1026.3581
1026.3588
1026.3586
1217.0224
1217.0224
1217.0221
1217.0225
1217.0224
1217.0229
1217.0236
1217.0232
1217.0232
1217.0225
1217.0224
1217.0224
1217.0216
1217.0217
1217.0219
1217.0228
1217.0237
1217.0227
1217.0234
1217.024
1217.0221
1217.0216
1217.0208
1217.0211
1217.0216
1217.023
1217.0243
1217.0229
1217.0232
1217.0244
1217.0225
1217.0217
1217.0211
1217.0217
1217.0225
1217.0245
1217.0263
1217.025
1217.025
1217.0259
1217.0224
1217.0219
1217.0216
1217.0225
1217.0238
1217.0262
1217.0285
1217.0275
1217.0276
1217.0285
1217.0229
1217.0228
1217.023
1217.0245
1217.0262
1217.029
1217.0315
1217.0306
1217.0306
1217.0313
1217.0236
1217.0237
1217.0243
1217.0263
1217.0285
1217.0315
1217.034
1217.0329