/*--------------------------------*- C++ -*----------------------------------*\
| =========                 |                                                 |
| \\      /  F ield         | OpenFOAM: The Open Source CFD Toolbox           |
|  \\    /   O peration     | Version:  v2106                                 |
|   \\  /    A nd           | Website:  www.openfoam.com                      |
|    \\/     M anipulation  |                                                 |
\*---------------------------------------------------------------------------*/
FoamFile
{
    version     2.0;
    format      ascii;
    arch        "LSB;label=32;scalar=64";
    class       volScalarField;
    location    "2.5";
    object      laplacianT;
}
// * * * * * * * * * * * * * * * * * * * * * * * * * * * * * * * * * * * * * //

dimensions      [0 -2 0 1 0 0 0];

internalField   nonuniform List<scalar> 
4000
(
5.9018004
5.9011215
5.9022327
5.9003884
5.9001889
5.8995098
5.8989424
5.8985982
5.8984402
5.8984
5.9011215
5.9032155
5.9011498
5.9006191
5.9003547
5.8996397
5.8990726
5.898739
5.8986147
5.898526
5.9022327
5.9011498
5.901009
5.9001854
5.8997989
5.8990789
5.8985376
5.8982337
5.898175
5.8980826
5.9003884
5.9006191
5.9001854
5.8992265
5.8988185
5.8981279
5.8976274
5.8973472
5.8973276
5.8974103
5.9001889
5.9003547
5.8997989
5.8988185
5.8984365
5.8977969
5.8973589
5.897128
5.8971092
5.8971166
5.8995098
5.8996397
5.8990789
5.8981279
5.8977969
5.8972168
5.8968424
5.8966774
5.896717
5.8967509
5.8989424
5.8990726
5.8985376
5.8976274
5.8973589
5.8968424
5.8965206
5.8963987
5.8964721
5.8965261
5.8985982
5.898739
5.8982337
5.8973472
5.897128
5.8966774
5.8963988
5.8963003
5.896383
5.8964407
5.8984402
5.8986147
5.898175
5.8973276
5.8971092
5.896717
5.8964721
5.896383
5.896463
5.8965242
5.8984
5.898526
5.8980826
5.8974103
5.8971166
5.8967509
5.8965261
5.8964407
5.8965242
5.8966021
3.5001183
3.4996814
3.504762
3.4985753
3.5006509
3.5010398
3.5008784
3.5006728
3.5005882
3.5005843
3.4996814
3.5053616
3.5010148
3.4997118
3.5018573
3.5021065
3.5018495
3.5015735
3.5013251
3.5007195
3.504762
3.5010148
3.5025388
3.5008499
3.5027148
3.5028795
3.5026026
3.5024408
3.502471
3.5014914
3.4985753
3.4997118
3.5008499
3.4989188
3.500694
3.5008161
3.5004603
3.5002196
3.5005056
3.5004908
3.5006509
3.5018573
3.5027148
3.500694
3.502455
3.5025829
3.5021925
3.501791
3.5017339
3.5011867
3.5010398
3.5021065
3.5028795
3.5008161
3.5025829
3.502742
3.5023819
3.5019946
3.5019143
3.5012465
3.5008784
3.5018495
3.5026026
3.5004603
3.5021925
3.5023819
3.5020512
3.5016889
3.5016302
3.5009802
3.5006728
3.5015734
3.5024408
3.5002196
3.501791
3.5019946
3.5016889
3.5013446
3.5013075
3.500728
3.5005882
3.501325
3.502471
3.5005056
3.5017339
3.5019143
3.5016302
3.5013075
3.5013127
3.5008458
3.5005843
3.5007195
3.5014914
3.5004908
3.5011867
3.5012465
3.5009802
3.500728
3.5008458
3.5003214
7.0636278
7.0602453
7.0681394
7.0588876
7.0624627
7.0630745
7.0627206
7.0623015
7.0621066
7.0625659
7.0602453
7.0693206
7.0623452
7.0607667
7.0643982
7.0647493
7.0642359
7.0638027
7.062907
7.0615859
7.0681394
7.0623452
7.064536
7.0623034
7.0654628
7.0656458
7.0650592
7.0649584
7.0649412
7.063251
7.0588876
7.0607667
7.0623034
7.0596724
7.0626833
7.0627806
7.0619971
7.0616533
7.0619687
7.0617419
7.0624627
7.0643982
7.0654628
7.0626833
7.0656769
7.0657895
7.0649426
7.0643032
7.064005
7.0628162
7.0630745
7.0647493
7.0656458
7.0627806
7.0657895
7.0659625
7.0651724
7.0645582
7.0642149
7.0628049
7.0627206
7.0642359
7.0650592
7.0619971
7.0649426
7.0651724
7.064438
7.0638711
7.0635711
7.0622344
7.0623015
7.0638027
7.0649584
7.0616533
7.0643032
7.0645582
7.0638712
7.0633447
7.0631054
7.0619993
7.0621066
7.062907
7.0649412
7.0619687
7.064005
7.0642149
7.0635711
7.0631054
7.0630037
7.0620671
7.0625659
7.0615859
7.063251
7.0617419
7.0628162
7.0628049
7.0622343
7.0619993
7.0620671
7.0609171
12.087015
12.081204
12.093858
12.079527
12.085183
12.086164
12.085588
12.084922
12.084287
12.085257
12.081204
12.095333
12.084768
12.082292
12.088033
12.088579
12.087754
12.08735
12.085642
12.08338
12.093858
12.084768
12.088344
12.084883
12.089891
12.090148
12.089136
12.089269
12.089059
12.086127
12.079527
12.082292
12.084883
12.080815
12.085594
12.085708
12.084346
12.084053
12.084378
12.08378
12.085183
12.088033
12.089891
12.085594
12.090349
12.090488
12.089015
12.088231
12.087562
12.085434
12.086164
12.088579
12.090148
12.085708
12.090488
12.090723
12.089339
12.088588
12.087836
12.085354
12.085588
12.087754
12.089136
12.084346
12.089015
12.089339
12.088042
12.087367
12.086688
12.084376
12.084922
12.08735
12.089269
12.084053
12.088231
12.088588
12.087367
12.086766
12.086222
12.084401
12.084287
12.085642
12.089059
12.084378
12.087562
12.087836
12.086688
12.086222
12.085985
12.083958
12.085257
12.08338
12.086127
12.08378
12.085434
12.085354
12.084376
12.084401
12.083958
12.082437
19.526362
19.517427
19.537206
19.515065
19.523825
19.525422
19.524577
19.523687
19.522693
19.524364
19.517427
19.539307
19.523256
19.519219
19.528131
19.529032
19.527753
19.527414
19.524695
19.521175
19.537206
19.523256
19.528801
19.523328
19.531133
19.531574
19.52996
19.530493
19.530184
19.525543
19.515065
19.519219
19.523328
19.516946
19.524405
19.524616
19.522428
19.522282
19.522851
19.521915
19.523825
19.528131
19.531133
19.524405
19.531826
19.53207
19.529692
19.528757
19.527761
19.524466
19.525422
19.529032
19.531574
19.524616
19.53207
19.532458
19.530209
19.529311
19.528167
19.524322
19.524577
19.527753
19.52996
19.522428
19.529692
19.530209
19.528088
19.527302
19.526276
19.522757
19.523687
19.527414
19.530493
19.522282
19.528757
19.529311
19.527302
19.526646
19.525891
19.523312
19.522693
19.524695
19.530184
19.522851
19.527761
19.528167
19.526276
19.525891
19.525786
19.522127
19.524364
19.521175
19.525543
19.521915
19.524466
19.524322
19.522757
19.523312
19.522127
19.520085
30.709923
30.696201
30.726627
30.692754
30.70615
30.708742
30.707535
30.706296
30.704809
30.707561
30.696201
30.729513
30.705291
30.698751
30.712426
30.713947
30.712051
30.711794
30.707585
30.70228
30.726627
30.705291
30.713689
30.70509
30.717113
30.717921
30.715476
30.716622
30.716214
30.709117
30.692754
30.698751
30.70509
30.695152
30.706655
30.707099
30.703736
30.70383
30.704845
30.703572
30.70615
30.712426
30.717113
30.706655
30.718098
30.71858
30.7149
30.713747
30.712335
30.70748
30.708742
30.713947
30.717921
30.707099
30.71858
30.71927
30.71577
30.714649
30.712983
30.707278
30.707535
30.712051
30.715476
30.703736
30.7149
30.71577
30.712453
30.711492
30.710001
30.704853
30.706296
30.711794
30.716622
30.70383
30.713747
30.714649
30.711492
30.710736
30.709725
30.706226
30.704809
30.707585
30.716214
30.704845
30.712335
30.712983
30.710001
30.709725
30.709933
30.704074
30.707561
30.70228
30.709117
30.703572
30.70748
30.707278
30.704853
30.706226
30.704074
30.701311
47.50849
47.487531
47.533762
47.482499
47.502738
47.506899
47.505239
47.503526
47.50134
47.505826
47.487531
47.53757
47.501399
47.490932
47.511667
47.514215
47.511505
47.511458
47.505059
47.497244
47.533762
47.501399
47.513939
47.500561
47.518861
47.52032
47.516741
47.518913
47.518429
47.5078
47.482499
47.490932
47.500561
47.485235
47.50276
47.503648
47.498631
47.499197
47.500988
47.49941
47.502738
47.511667
47.518861
47.50276
47.520188
47.521113
47.515574
47.514197
47.512275
47.505325
47.506899
47.514215
47.52032
47.503648
47.521113
47.522332
47.517038
47.515675
47.513323
47.505075
47.505239
47.511505
47.516741
47.498631
47.515574
47.517038
47.512001
47.51086
47.508764
47.501409
47.503526
47.511458
47.518913
47.499197
47.514197
47.515675
47.51086
47.510033
47.50872
47.504066
47.50134
47.505059
47.518429
47.500988
47.512275
47.513323
47.508764
47.50872
47.509476
47.500575
47.505826
47.497244
47.5078
47.49941
47.505325
47.505075
47.501409
47.504066
47.500575
47.49687
72.552271
72.520577
72.589983
72.513248
72.543443
72.550011
72.547792
72.545473
72.542306
72.549537
72.520577
72.594831
72.541423
72.524873
72.555916
72.560092
72.556311
72.55674
72.547147
72.535821
72.589983
72.541423
72.55991
72.539304
72.566796
72.569327
72.564197
72.568091
72.567593
72.551903
72.513248
72.524873
72.539304
72.515893
72.542248
72.543894
72.536538
72.538015
72.541107
72.539322
72.543443
72.555916
72.566796
72.542248
72.568445
72.570113
72.56192
72.560407
72.557885
72.548142
72.550011
72.560092
72.569327
72.543894
72.570113
72.57219
72.564323
72.562778
72.559554
72.547848
72.547792
72.556311
72.564197
72.536538
72.56192
72.564323
72.55681
72.555572
72.552715
72.542401
72.545473
72.55674
72.568091
72.538015
72.560407
72.562778
72.555572
72.554807
72.553188
72.547129
72.542306
72.547147
72.567593
72.541107
72.557885
72.559554
72.552715
72.553188
72.554898
72.541708
72.549537
72.535821
72.551903
72.539322
72.548142
72.547848
72.542401
72.547129
72.541708
72.536828
109.50024
109.45286
109.55579
109.4422
109.48667
109.49684
109.49393
109.49087
109.48634
109.49784
109.45286
109.56173
109.48378
109.45793
109.5038
109.51047
109.50528
109.50666
109.49245
109.47625
109.55579
109.48378
109.51068
109.47926
109.52001
109.52422
109.51697
109.5237
109.52332
109.50043
109.4422
109.45793
109.47926
109.44385
109.48295
109.48581
109.47516
109.4783
109.48351
109.48173
109.48667
109.5038
109.52001
109.48295
109.5218
109.52464
109.51267
109.51127
109.5081
109.49467
109.49684
109.51047
109.52422
109.48581
109.52464
109.52805
109.5165
109.51497
109.51068
109.49432
109.49393
109.50528
109.51697
109.47516
109.51267
109.5165
109.50543
109.50432
109.50055
109.48633
109.49087
109.50666
109.5237
109.4783
109.51127
109.51497
109.50432
109.50392
109.50208
109.49441
109.48634
109.49245
109.52332
109.48351
109.5081
109.51068
109.50055
109.50208
109.50544
109.48617
109.49784
109.47625
109.50043
109.48173
109.49467
109.49432
109.48633
109.49441
109.48617
109.47989
163.36751
163.29755
163.44828
163.28205
163.34666
163.36211
163.35838
163.35442
163.34804
163.36606
163.29755
163.45522
163.34281
163.30294
163.3698
163.38018
163.37315
163.3763
163.35547
163.33261
163.44828
163.34281
163.38141
163.33401
163.39359
163.40034
163.3902
163.40151
163.40147
163.36844
163.28205
163.30294
163.33401
163.28101
163.33821
163.34292
163.32767
163.33371
163.34229
163.34091
163.34666
163.3698
163.39359
163.33821
163.39503
163.39965
163.38233
163.38156
163.37779
163.35959
163.36211
163.38018
163.40034
163.34292
163.39965
163.40503
163.38825
163.38719
163.38165
163.35915
163.35838
163.37315
163.3902
163.32767
163.38233
163.38825
163.37211
163.37162
163.36682
163.34755
163.35442
163.3763
163.40151
163.33371
163.38156
163.38719
163.37162
163.37218
163.37032
163.361
163.34804
163.35547
163.40147
163.34229
163.37779
163.38165
163.36682
163.37032
163.37649
163.34863
163.36606
163.33261
163.36844
163.34091
163.35959
163.35915
163.34755
163.361
163.34863
163.34079
240.90877
240.80677
241.02465
240.78424
240.87684
240.89988
240.89516
240.89021
240.88133
240.90917
240.80677
241.03227
240.87214
240.81144
240.90757
240.92334
240.91394
240.92015
240.88998
240.85808
241.02465
240.87214
240.92679
240.85605
240.94194
240.95243
240.93839
240.95693
240.95764
240.91047
240.78424
240.81144
240.85605
240.77757
240.86008
240.86753
240.84589
240.8568
240.87064
240.87035
240.87684
240.90757
240.94194
240.86008
240.94201
240.94924
240.92443
240.92527
240.92112
240.89685
240.89988
240.92334
240.95243
240.86753
240.94924
240.95747
240.93332
240.93359
240.92671
240.89619
240.89516
240.91394
240.93839
240.84589
240.92443
240.93332
240.91002
240.91105
240.90521
240.87953
240.89021
240.92015
240.95693
240.8568
240.92527
240.93359
240.91105
240.91362
240.91224
240.90147
240.88133
240.88998
240.95764
240.87064
240.92112
240.92671
240.90521
240.91224
240.92304
240.88309
240.90917
240.85808
240.91047
240.87035
240.89685
240.89619
240.87953
240.90147
240.88309
240.87366
351.04479
350.89805
351.20883
350.86535
350.99622
351.02995
351.02408
351.01812
351.00593
351.04829
350.89805
351.21641
350.99121
350.90004
351.0363
351.05974
351.0473
351.05863
351.01541
350.97145
351.20883
350.99121
351.06748
350.96317
351.08521
351.10105
351.08178
351.11151
351.11363
351.04698
350.86535
350.90004
350.96317
350.84828
350.96559
350.97695
350.94653
350.96538
350.98722
350.98911
350.99622
351.0363
351.08521
350.96559
351.08202
351.09295
351.05776
351.0619
351.05789
351.02605
351.02995
351.05974
351.10105
350.97695
351.09295
351.10517
351.07076
351.07388
351.06574
351.02496
351.02408
351.0473
351.08178
350.94653
351.05776
351.07076
351.03745
351.04156
351.03489
351.00128
351.01812
351.05863
351.11151
350.96538
351.0619
351.07388
351.04156
351.04793
351.04793
351.03641
351.00593
351.01541
351.11363
350.98722
351.05789
351.06574
351.03489
351.04793
351.0662
351.00934
351.04829
350.97145
351.04698
350.98911
351.02605
351.02496
351.00128
351.03641
351.00934
350.99852
505.30285
505.09461
505.53186
505.04731
505.22963
505.27812
505.27092
505.26407
505.24762
505.31108
505.09461
505.53812
505.22555
505.09056
505.28094
505.31503
505.29874
505.31831
505.25713
505.19728
505.53186
505.22555
505.3305
505.17858
505.34947
505.37273
505.34655
505.39326
505.39779
505.30462
505.04731
505.09056
505.17858
505.0124
505.17675
505.19354
505.15119
505.18261
505.21638
505.22211
505.22963
505.28094
505.34947
505.17675
505.33981
505.35581
505.30639
505.31662
505.31376
505.27269
505.27812
505.31503
505.37273
505.19354
505.35581
505.37346
505.32493
505.33342
505.32441
505.27073
505.27092
505.29874
505.34655
505.15119
505.30639
505.32493
505.27778
505.28756
505.2806
505.23744
505.26407
505.31831
505.39326
505.18261
505.31662
505.33342
505.28756
505.30062
505.30355
505.29272
505.24762
505.25713
505.39779
505.21638
505.31376
505.32441
505.2806
505.30355
505.33354
505.25318
505.31108
505.19728
505.30462
505.22211
505.27269
505.27073
505.23744
505.29272
505.25318
505.24159
718.21905
717.92772
718.53427
717.85963
718.10992
718.17837
718.16968
718.16236
718.14048
718.23413
717.92772
718.53712
718.10921
717.91228
718.17435
718.22289
718.20177
718.23423
718.14864
718.06815
718.53427
718.10921
718.25151
718.03316
718.26887
718.30221
718.26693
718.33895
718.3474
718.21854
717.85963
717.91228
718.03316
717.79584
718.02265
718.04673
717.98835
718.03917
718.09041
718.10232
718.10992
718.17435
718.26887
718.02265
718.24759
718.27035
718.20165
718.22237
718.22241
718.17028
718.17837
718.22289
718.30221
718.04673
718.27035
718.29515
718.22741
718.24531
718.23636
718.16672
718.16968
718.20177
718.26693
717.98835
718.20165
718.22741
718.16138
718.18094
718.1748
718.12045
718.16236
718.23423
718.33895
718.03917
718.22237
718.24531
718.18094
718.20521
718.21354
718.206
718.14048
718.14864
718.3474
718.09041
718.22241
718.23636
718.1748
718.21354
718.26151
718.1487
718.23413
718.06815
718.21854
718.10232
718.17028
718.16672
718.12045
718.206
718.1487
718.13754
1007.6217
1007.2201
1008.0493
1007.1227
1007.4612
1007.5561
1007.5458
1007.5388
1007.5102
1007.6462
1007.2201
1008.0456
1007.4681
1007.1852
1007.5405
1007.6082
1007.5811
1007.6332
1007.5149
1007.408
1008.0493
1007.4681
1007.6582
1007.3487
1007.6688
1007.7155
1007.6683
1007.7774
1007.7919
1007.6156
1007.1227
1007.1852
1007.3487
1007.0143
1007.3225
1007.3561
1007.2764
1007.3565
1007.4327
1007.454
1007.4612
1007.5405
1007.6688
1007.3225
1007.6281
1007.6595
1007.5651
1007.603
1007.6087
1007.5436
1007.5561
1007.6082
1007.7155
1007.3561
1007.6595
1007.6935
1007.5999
1007.6335
1007.6262
1007.5372
1007.5458
1007.5811
1007.6683
1007.2764
1007.5651
1007.5999
1007.5085
1007.5441
1007.5407
1007.4737
1007.5388
1007.6332
1007.7774
1007.3565
1007.603
1007.6335
1007.5441
1007.5864
1007.604
1007.6039
1007.5102
1007.5149
1007.7919
1007.4327
1007.6087
1007.6262
1007.5407
1007.604
1007.6789
1007.5215
1007.6462
1007.408
1007.6156
1007.454
1007.5436
1007.5372
1007.4737
1007.6039
1007.5215
1007.5128
1394.6797
1394.1345
1395.2511
1393.9965
1394.4473
1394.5765
1394.5643
1394.5592
1394.5224
1394.7169
1394.1345
1395.2362
1394.4684
1394.0685
1394.5429
1394.6354
1394.6009
1394.6821
1394.5206
1394.3803
1395.2511
1394.4684
1394.7186
1394.2863
1394.7144
1394.778
1394.7157
1394.8778
1394.9013
1394.6628
1393.9965
1394.0685
1394.2863
1393.8218
1394.2341
1394.2796
1394.1721
1394.2952
1394.4065
1394.4412
1394.4473
1394.5429
1394.7144
1394.2341
1394.6426
1394.6849
1394.5565
1394.6214
1394.637
1394.557
1394.5765
1394.6354
1394.778
1394.2796
1394.6849
1394.7302
1394.6025
1394.6608
1394.6581
1394.5459
1394.5643
1394.6009
1394.7157
1394.1721
1394.5565
1394.6025
1394.4772
1394.5381
1394.5407
1394.4597
1394.5592
1394.6821
1394.8778
1394.2952
1394.6214
1394.6608
1394.5381
1394.6085
1394.641
1394.6547
1394.5224
1394.5206
1394.9013
1394.4065
1394.637
1394.6581
1394.5407
1394.641
1394.7553
1394.5372
1394.7169
1394.3803
1394.6628
1394.4412
1394.557
1394.5459
1394.4597
1394.6547
1394.5372
1394.5341
1903.5632
1902.8347
1904.3152
1902.6412
1903.2322
1903.405
1903.3908
1903.3899
1903.3435
1903.6172
1902.8347
1904.2828
1903.2777
1902.7217
1903.3452
1903.4689
1903.4254
1903.5488
1903.3311
1903.1494
1904.3152
1903.2777
1903.6021
1903.0074
1903.5707
1903.6556
1903.5738
1903.8105
1903.8469
1903.5278
1902.6412
1902.7217
1903.0074
1902.3718
1902.9144
1902.9745
1902.8309
1903.016
1903.1754
1903.2284
1903.2322
1903.3452
1903.5707
1902.9144
1903.452
1903.5073
1903.3345
1903.4407
1903.4719
1903.3752
1903.405
1903.4689
1903.6556
1902.9745
1903.5073
1903.5661
1903.3936
1903.49
1903.4959
1903.3565
1903.3908
1903.4254
1903.5738
1902.8309
1903.3345
1903.3936
1903.2241
1903.3236
1903.3367
1903.2411
1903.3899
1903.5488
1903.8105
1903.016
1903.4407
1903.49
1903.3236
1903.4363
1903.4916
1903.5281
1903.3435
1903.3311
1903.8469
1903.1754
1903.4719
1903.4959
1903.3367
1903.4916
1903.6624
1903.3618
1903.6172
1903.1494
1903.5278
1903.2284
1903.3752
1903.3565
1903.2411
1903.5281
1903.3618
1903.3691
2560.5296
2559.5723
2561.5035
2559.3043
2560.0668
2560.2936
2560.2771
2560.284
2560.2267
2560.6054
2559.5723
2561.4451
2560.1509
2559.3915
2560.1974
2560.3595
2560.3051
2560.4883
2560.1987
2559.966
2561.5035
2560.1509
2560.5651
2559.7602
2560.4894
2560.5998
2560.4935
2560.8331
2560.8874
2560.4653
2559.3043
2559.3915
2559.7602
2558.9043
2559.6067
2559.6838
2559.494
2559.7664
2559.9903
2560.0672
2560.0668
2560.1974
2560.4894
2559.6067
2560.3025
2560.3726
2560.143
2560.3097
2560.3648
2560.2491
2560.2936
2560.3595
2560.5998
2559.6838
2560.3726
2560.4467
2560.2167
2560.3693
2560.39
2560.2188
2560.2771
2560.3051
2560.4935
2559.494
2560.143
2560.2167
2559.99
2560.1465
2560.1766
2560.0663
2560.284
2560.4883
2560.8331
2559.7664
2560.3097
2560.3693
2560.1465
2560.3211
2560.4101
2560.4819
2560.2267
2560.1987
2560.8874
2559.9903
2560.3648
2560.39
2560.1766
2560.4101
2560.66
2560.2485
2560.6054
2559.966
2560.4653
2560.0672
2560.2491
2560.2188
2560.0663
2560.4819
2560.2485
2560.2726
3392.2293
3390.9929
3393.4696
3390.6271
3391.5946
3391.887
3391.8677
3391.8876
3391.8181
3392.3333
3390.9929
3393.3746
3391.7364
3390.718
3391.7427
3391.9507
3391.883
3392.1489
3391.7686
3391.4743
3393.4696
3391.7364
3392.2574
3391.1867
3392.1147
3392.2548
3392.1179
3392.5964
3392.6745
3392.1229
3390.6271
3390.718
3391.1867
3390.0532
3390.9472
3391.0433
3390.7952
3391.1878
3391.4958
3391.6023
3391.5946
3391.7427
3392.1147
3390.9472
3391.8325
3391.9186
3391.6173
3391.8705
3391.9599
3391.8227
3391.887
3391.9507
3392.2548
3391.0433
3391.9186
3392.0092
3391.7063
3391.9399
3391.9832
3391.7751
3391.8677
3391.883
3392.1179
3390.7952
3391.6173
3391.7063
3391.4069
3391.6452
3391.7011
3391.5765
3391.8876
3392.1489
3392.5964
3391.1878
3391.8705
3391.9399
3391.6452
3391.9081
3392.0449
3392.1681
3391.8181
3391.7686
3392.6745
3391.4958
3391.9599
3391.9832
3391.7011
3392.0449
3392.4027
3391.8433
3392.3333
3391.4743
3392.1229
3391.6023
3391.8227
3391.7751
3391.5765
3392.1681
3391.8433
3391.8926
4423.0376
4421.4693
4424.59
4420.9781
4422.1853
4422.5549
4422.5324
4422.5724
4422.4899
4423.1784
4421.4693
4424.445
4422.409
4421.0695
4422.3499
4422.611
4422.5274
4422.9049
4422.4123
4422.0446
4424.59
4422.409
4423.0542
4421.6558
4422.8164
4422.9897
4422.8148
4423.4771
4423.5856
4422.8736
4420.9781
4421.0695
4421.6558
4420.1812
4421.2994
4421.4153
4421.095
4421.6489
4422.0639
4422.2049
4422.1853
4422.3499
4422.8164
4421.2994
4422.4064
4422.5087
4422.1179
4422.4914
4422.6279
4422.466
4422.5549
4422.611
4422.9897
4421.4153
4422.5087
4422.6157
4422.2216
4422.5683
4422.6442
4422.3934
4422.5324
4422.5274
4422.8148
4421.095
4422.1179
4422.2216
4421.8314
4422.1835
4422.2761
4422.1382
4422.5724
4422.9049
4423.4771
4421.6489
4422.4914
4422.5683
4422.1835
4422.5687
4422.771
4422.966
4422.4899
4422.4123
4423.5856
4422.0639
4422.6279
4422.6442
4422.2761
4422.771
4423.2727
4422.5177
4423.1784
4422.0446
4422.8736
4422.2049
4422.466
4422.3934
4422.1382
4422.966
4422.5177
4422.6033
5671.2837
5669.3317
5673.1917
5668.6837
5670.1643
5670.6225
5670.5959
5670.6652
5670.5693
5671.473
5669.3317
5672.9805
5670.4985
5668.7721
5670.3444
5670.6649
5670.5617
5671.0864
5670.457
5670.0032
5673.1917
5670.4985
5671.2856
5669.4942
5670.9201
5671.1288
5670.9072
5671.8068
5671.9526
5671.0452
5668.6837
5668.7721
5669.4942
5667.6119
5668.9858
5669.1207
5668.7118
5669.4772
5670.0244
5670.2028
5670.1643
5670.3444
5670.9201
5668.9858
5670.3454
5670.4622
5669.9618
5670.4974
5670.6958
5670.5044
5670.6225
5670.6649
5671.1288
5669.1207
5670.4622
5670.5839
5670.0778
5670.5775
5670.6977
5670.3972
5670.5959
5670.5617
5670.9072
5668.7118
5669.9618
5670.0778
5669.5756
5670.0817
5670.2238
5670.074
5670.6652
5671.0864
5671.8068
5669.4772
5670.4974
5670.5775
5670.0817
5670.6316
5670.9204
5671.2117
5670.5693
5670.457
5671.9526
5670.0244
5670.6958
5670.6977
5670.2238
5670.9204
5671.6091
5670.5989
5671.473
5670.0032
5671.0452
5670.2028
5670.5044
5670.3972
5670.074
5671.2117
5670.5989
5670.7341
7144.3904
7142.0085
7146.6905
7141.1701
7142.9541
7143.511
7143.4789
7143.5891
7143.4798
7144.6437
7142.0085
7146.3946
7143.4303
7141.253
7143.149
7143.533
7143.4061
7144.1196
7143.3266
7142.7738
7146.6905
7143.4303
7144.3762
7142.1281
7143.8483
7144.0922
7143.8136
7145.0125
7145.2019
7144.0612
7141.1701
7141.253
7142.1281
7139.7736
7141.4309
7141.5818
7141.0656
7142.101
7142.8062
7143.0215
7142.9541
7143.149
7143.8483
7141.4309
7143.0706
7143.1976
7142.565
7143.3128
7143.5889
7143.3609
7143.511
7143.533
7144.0922
7141.5818
7143.1976
7143.3296
7142.6881
7143.3888
7143.5661
7143.2068
7143.4789
7143.4061
7143.8136
7141.0656
7142.565
7142.6881
7142.0502
7142.7584
7142.964
7142.8032
7143.5891
7144.1196
7145.0125
7142.101
7143.3128
7143.3888
7142.7584
7143.5239
7143.9226
7144.3384
7143.4798
7143.3266
7145.2019
7142.8062
7143.5889
7143.5661
7142.964
7143.9226
7144.8479
7143.5092
7144.6437
7142.7738
7144.0612
7143.0215
7143.3609
7143.2068
7142.8032
7144.3384
7143.5092
7143.7104
8833.1813
8830.3342
8835.8975
8829.2721
8831.3835
8832.0465
8832.0066
8832.1712
8832.0491
8833.5191
8830.3342
8835.4962
8832.0324
8829.3486
8831.5929
8832.0418
8831.8854
8832.8347
8831.85
8831.1853
8835.8975
8832.0324
8833.1522
8830.3925
8832.429
8832.7049
8832.3571
8833.9235
8834.1609
8832.7477
8829.2721
8829.3486
8830.3925
8827.5102
8829.4721
8829.6326
8828.9886
8830.3591
8831.246
8831.4926
8831.3835
8831.5929
8832.429
8829.4721
8831.4124
8831.5425
8830.7528
8831.7697
8832.1386
8831.8639
8832.0465
8832.0418
8832.7049
8829.6326
8831.5425
8831.6772
8830.8745
8831.8312
8832.0774
8831.6482
8832.0066
8831.8854
8832.3571
8828.9886
8830.7528
8830.8745
8830.075
8831.0403
8831.3229
8831.1512
8832.1712
8832.8347
8833.9235
8830.3591
8831.7697
8831.8312
8831.0403
8832.0793
8832.6124
8833.1837
8832.0491
8831.85
8834.1609
8831.246
8832.1386
8832.0774
8831.3229
8832.6124
8833.8285
8832.074
8833.5191
8831.1853
8832.7477
8831.4926
8831.8639
8831.6482
8831.1512
8833.1837
8832.074
8832.3608
10705.958
10702.628
10709.096
10701.313
10703.766
10704.539
10704.488
10704.722
10704.588
10706.407
10702.628
10708.567
10704.614
10701.386
10703.992
10704.503
10704.309
10705.544
10704.339
10703.551
10709.096
10704.614
10705.92
10702.611
10704.976
10705.276
10704.845
10706.849
10707.136
10705.412
10701.313
10701.386
10702.611
10699.163
10701.441
10701.601
10700.806
10702.58
10703.667
10703.932
10703.766
10703.992
10704.976
10701.441
10703.693
10703.815
10702.841
10704.188
10704.662
10704.326
10704.539
10704.503
10705.276
10701.601
10703.815
10703.941
10702.949
10704.221
10704.545
10704.032
10704.488
10704.309
10704.845
10700.806
10702.841
10702.949
10701.96
10703.242
10703.612
10703.428
10704.722
10705.544
10706.849
10702.58
10704.188
10704.221
10703.242
10704.617
10705.307
10706.067
10704.588
10704.339
10707.136
10703.667
10704.662
10704.545
10703.612
10705.307
10706.87
10704.6
10706.407
10703.551
10705.412
10703.932
10704.326
10704.032
10703.428
10706.067
10704.6
10704.995
12703.371
12699.565
12706.912
12697.976
12700.772
12701.653
12701.585
12701.904
12701.758
12703.962
12699.565
12706.234
12701.834
12698.05
12701.018
12701.582
12701.342
12702.912
12701.46
12700.54
12706.912
12701.834
12703.334
12699.465
12702.157
12702.47
12701.938
12704.448
12704.779
12702.713
12697.976
12698.05
12699.465
12695.442
12698.034
12698.179
12697.209
12699.452
12700.748
12701.012
12700.772
12701.018
12702.157
12698.034
12700.596
12700.695
12699.51
12701.247
12701.831
12701.416
12701.653
12701.582
12702.47
12698.179
12700.695
12700.796
12699.587
12701.232
12701.639
12701.024
12701.585
12701.342
12701.938
12697.209
12699.51
12699.587
12698.38
12700.036
12700.5
12700.3
12701.904
12702.912
12704.448
12699.452
12701.247
12701.232
12700.036
12701.808
12702.674
12703.655
12701.758
12701.46
12704.779
12700.748
12701.831
12701.639
12700.5
12702.674
12704.637
12701.743
12703.962
12700.54
12702.713
12701.012
12701.416
12701.024
12700.3
12703.655
12701.743
12702.275
14735.491
14731.243
14739.387
14729.374
14732.5
14733.48
14733.39
14733.806
14733.649
14736.259
14731.243
14738.541
14733.775
14729.463
14732.773
14733.377
14733.076
14735.024
14733.302
14732.246
14739.387
14733.775
14735.472
14731.069
14734.07
14734.379
14733.726
14736.797
14737.161
14734.732
14729.374
14729.463
14731.069
14726.498
14729.387
14729.498
14728.328
14731.094
14732.593
14732.828
14732.5
14732.773
14734.07
14729.387
14732.241
14732.297
14730.873
14733.053
14733.743
14733.226
14733.48
14733.377
14734.379
14729.498
14732.297
14732.354
14730.899
14732.969
14733.452
14732.717
14733.39
14733.076
14733.726
14728.328
14730.873
14730.899
14729.443
14731.526
14732.079
14731.858
14733.806
14735.024
14736.797
14731.094
14733.053
14732.969
14731.526
14733.751
14734.8
14736.035
14733.649
14733.302
14737.161
14732.593
14733.743
14733.452
14732.079
14734.8
14737.21
14733.58
14736.259
14732.246
14734.732
14732.828
14733.226
14732.717
14731.858
14736.035
14733.58
14734.281
16682.695
16678.074
16686.868
16675.939
16679.363
16680.426
16680.302
16680.826
16680.656
16683.676
16678.074
16685.84
16680.83
16676.06
16679.675
16680.295
16679.917
16682.274
16680.266
16679.077
16686.868
16680.83
16682.72
16677.852
16681.127
16681.407
16680.61
16684.279
16684.657
16681.857
16675.939
16676.06
16677.852
16672.805
16675.956
16676.009
16674.611
16677.937
16679.617
16679.787
16679.363
16679.675
16681.127
16675.956
16679.068
16679.057
16677.365
16680.026
16680.805
16680.162
16680.426
16680.295
16681.407
16676.009
16679.057
16679.045
16677.316
16679.847
16680.39
16679.515
16680.302
16679.917
16680.61
16674.611
16677.365
16677.316
16675.583
16678.128
16678.757
16678.507
16680.826
16682.274
16684.279
16677.937
16680.026
16679.847
16678.128
16680.845
16682.075
16683.592
16680.656
16680.266
16684.657
16679.617
16680.805
16680.39
16678.757
16682.075
16684.961
16680.495
16683.676
16679.077
16681.857
16679.787
16680.162
16679.515
16678.507
16683.592
16680.495
16681.404
18401.763
18396.874
18406.108
18394.513
18398.184
18399.305
18399.135
18399.769
18399.581
18402.99
18396.874
18404.896
18399.802
18394.693
18398.55
18399.159
18398.682
18401.458
18399.158
18397.845
18406.108
18399.802
18401.871
18396.656
18400.147
18400.371
18399.403
18403.676
18404.038
18400.883
18394.513
18394.693
18396.656
18391.252
18394.61
18394.578
18392.927
18396.819
18398.635
18398.701
18398.184
18398.55
18400.147
18394.61
18397.926
18397.821
18395.838
18398.991
18399.827
18399.032
18399.305
18399.159
18400.371
18394.578
18397.821
18397.713
18395.684
18398.689
18399.262
18398.229
18399.135
18398.682
18399.403
18392.927
18395.838
18395.684
18393.65
18396.669
18397.344
18397.058
18399.769
18401.458
18403.676
18396.819
18398.991
18398.689
18396.669
18399.892
18401.283
18403.107
18399.581
18399.158
18404.038
18398.635
18399.827
18399.262
18397.344
18401.283
18404.657
18399.274
18402.99
18397.845
18400.883
18398.701
18399.032
18398.229
18397.058
18403.107
18399.274
18400.433
19737.814
19732.795
19742.207
19730.277
19734.124
19735.269
19735.036
19735.775
19735.563
19739.311
19732.795
19740.824
19735.836
19730.549
19734.567
19735.129
19734.527
19737.707
19735.121
19733.703
19742.207
19735.836
19738.06
19732.659
19736.291
19736.426
19735.26
19740.1
19740.41
19736.938
19730.277
19730.549
19732.659
19727.064
19730.555
19730.408
19728.481
19732.906
19734.793
19734.713
19734.124
19734.567
19736.291
19730.555
19734.003
19733.774
19731.479
19735.104
19735.949
19734.98
19735.269
19735.129
19736.426
19730.408
19733.774
19733.541
19731.193
19734.651
19735.21
19734.004
19735.036
19734.527
19735.26
19728.481
19731.479
19731.193
19728.836
19732.309
19732.987
19732.659
19735.775
19737.707
19740.1
19732.906
19735.104
19734.651
19732.309
19736.018
19737.533
19739.681
19735.563
19735.121
19740.41
19734.793
19735.949
19735.21
19732.987
19737.533
19741.381
19735.037
19739.311
19733.703
19736.938
19734.713
19734.98
19734.004
19732.659
19739.681
19735.037
19736.492
20541.322
20536.343
20545.632
20533.767
20537.696
20538.825
20538.51
20539.334
20539.091
20543.097
20536.343
20544.113
20539.438
20534.171
20538.246
20538.72
20537.965
20541.499
20538.65
20537.152
20545.632
20539.438
20541.783
20536.391
20540.069
20540.08
20538.688
20544.016
20544.23
20540.503
20533.767
20534.171
20536.391
20530.806
20534.339
20534.046
20531.825
20536.708
20538.58
20538.314
20537.696