/*--------------------------------*- C++ -*----------------------------------*\
| =========                 |                                                 |
| \\      /  F ield         | OpenFOAM: The Open Source CFD Toolbox           |
|  \\    /   O peration     | Version:  v2106                                 |
|   \\  /    A nd           | Website:  www.openfoam.com                      |
|    \\/     M anipulation  |                                                 |
\*---------------------------------------------------------------------------*/
FoamFile
{
    version     2.0;
    format      ascii;
    arch        "LSB;label=32;scalar=64";
    class       volScalarField;
    location    "2.5";
    object      T;
}
// * * * * * * * * * * * * * * * * * * * * * * * * * * * * * * * * * * * * * //

dimensions      [0 0 0 1 0 0 0];

internalField   nonuniform List<scalar> 
4000
(
273.00027
273.00027
273.00027
273.00027
273.00027
273.00027
273.00027
273.00027
273.00027
273.00027
273.00027
273.00027
273.00027
273.00027
273.00027
273.00027
273.00027
273.00027
273.00027
273.00027
273.00027
273.00027
273.00027
273.00027
273.00027
273.00027
273.00027
273.00027
273.00027
273.00027
273.00027
273.00027
273.00027
273.00027
273.00027
273.00027
273.00027
273.00027
273.00027
273.00027
273.00027
273.00027
273.00027
273.00027
273.00027
273.00027
273.00027
273.00027
273.00027
273.00027
273.00027
273.00027
273.00027
273.00027
273.00027
273.00027
273.00027
273.00027
273.00027
273.00027
273.00027
273.00027
273.00027
273.00027
273.00027
273.00027
273.00027
273.00027
273.00027
273.00027
273.00027
273.00027
273.00027
273.00027
273.00027
273.00027
273.00027
273.00027
273.00027
273.00027
273.00027
273.00027
273.00027
273.00027
273.00027
273.00027
273.00027
273.00027
273.00027
273.00027
273.00027
273.00027
273.00027
273.00027
273.00027
273.00027
273.00027
273.00027
273.00027
273.00027
273.0014
273.0014
273.0014
273.0014
273.0014
273.0014
273.0014
273.0014
273.0014
273.0014
273.0014
273.0014
273.0014
273.0014
273.0014
273.0014
273.0014
273.0014
273.0014
273.0014
273.0014
273.0014
273.0014
273.0014
273.0014
273.0014
273.0014
273.0014
273.0014
273.0014
273.0014
273.0014
273.0014
273.0014
273.0014
273.0014
273.0014
273.0014
273.0014
273.0014
273.0014
273.0014
273.0014
273.0014
273.0014
273.0014
273.0014
273.0014
273.0014
273.0014
273.0014
273.0014
273.0014
273.0014
273.0014
273.0014
273.0014
273.0014
273.0014
273.0014
273.0014
273.0014
273.0014
273.0014
273.0014
273.0014
273.0014
273.0014
273.0014
273.0014
273.0014
273.0014
273.0014
273.0014
273.0014
273.0014
273.0014
273.0014
273.0014
273.0014
273.0014
273.0014
273.0014
273.0014
273.0014
273.0014
273.0014
273.0014
273.0014
273.0014
273.0014
273.0014
273.0014
273.0014
273.0014
273.0014
273.0014
273.0014
273.0014
273.0014
273.00288
273.00288
273.00288
273.00288
273.00288
273.00288
273.00288
273.00288
273.00288
273.00288
273.00288
273.00288
273.00288
273.00288
273.00288
273.00288
273.00288
273.00288
273.00288
273.00288
273.00288
273.00288
273.00288
273.00288
273.00288
273.00288
273.00288
273.00288
273.00288
273.00288
273.00288
273.00288
273.00288
273.00288
273.00288
273.00288
273.00288
273.00288
273.00288
273.00288
273.00288
273.00288
273.00288
273.00288
273.00288
273.00288
273.00288
273.00288
273.00288
273.00288
273.00288
273.00288
273.00288
273.00288
273.00288
273.00288
273.00288
273.00288
273.00288
273.00288
273.00288
273.00288
273.00288
273.00288
273.00288
273.00288
273.00288
273.00288
273.00288
273.00288
273.00288
273.00288
273.00288
273.00288
273.00288
273.00288
273.00288
273.00288
273.00288
273.00288
273.00288
273.00288
273.00288
273.00288
273.00288
273.00288
273.00288
273.00288
273.00288
273.00288
273.00288
273.00288
273.00288
273.00288
273.00288
273.00288
273.00288
273.00288
273.00288
273.00288
273.00507
273.00507
273.00507
273.00507
273.00507
273.00507
273.00507
273.00507
273.00507
273.00507
273.00507
273.00507
273.00507
273.00507
273.00507
273.00507
273.00507
273.00507
273.00507
273.00507
273.00507
273.00507
273.00507
273.00507
273.00507
273.00507
273.00507
273.00507
273.00507
273.00507
273.00507
273.00507
273.00507
273.00507
273.00507
273.00507
273.00507
273.00507
273.00507
273.00507
273.00507
273.00507
273.00507
273.00507
273.00507
273.00507
273.00507
273.00507
273.00507
273.00507
273.00507
273.00507
273.00507
273.00507
273.00507
273.00507
273.00507
273.00507
273.00507
273.00507
273.00507
273.00507
273.00507
273.00507
273.00507
273.00507
273.00507
273.00507
273.00507
273.00507
273.00507
273.00507
273.00507
273.00507
273.00507
273.00507
273.00507
273.00507
273.00507
273.00507
273.00507
273.00507
273.00507
273.00507
273.00507
273.00507
273.00507
273.00507
273.00507
273.00507
273.00507
273.00507
273.00507
273.00507
273.00507
273.00507
273.00507
273.00507
273.00507
273.00507
273.00847
273.00847
273.00847
273.00847
273.00847
273.00847
273.00847
273.00847
273.00847
273.00847
273.00847
273.00847
273.00847
273.00847
273.00847
273.00847
273.00847
273.00847
273.00847
273.00847
273.00847
273.00847
273.00847
273.00847
273.00847
273.00847
273.00847
273.00847
273.00847
273.00847
273.00847
273.00847
273.00847
273.00847
273.00847
273.00847
273.00847
273.00847
273.00847
273.00847
273.00847
273.00847
273.00847
273.00847
273.00847
273.00847
273.00847
273.00847
273.00847
273.00847
273.00847
273.00847
273.00847
273.00847
273.00847
273.00847
273.00846
273.00846
273.00846
273.00846
273.00847
273.00847
273.00847
273.00847
273.00847
273.00846
273.00846
273.00846
273.00846
273.00846
273.00847
273.00847
273.00847
273.00847
273.00847
273.00846
273.00846
273.00846
273.00846
273.00846
273.00847
273.00847
273.00847
273.00847
273.00847
273.00846
273.00846
273.00846
273.00846
273.00846
273.00847
273.00847
273.00847
273.00847
273.00847
273.00846
273.00846
273.00846
273.00846
273.00846
273.01382
273.01382
273.01382
273.01382
273.01382
273.01382
273.01382
273.01382
273.01382
273.01382
273.01382
273.01382
273.01382
273.01382
273.01382
273.01382
273.01382
273.01382
273.01382
273.01382
273.01382
273.01382
273.01382
273.01382
273.01382
273.01382
273.01382
273.01381
273.01381
273.01381
273.01382
273.01382
273.01382
273.01382
273.01382
273.01382
273.01381
273.01381
273.01381
273.01381
273.01382
273.01382
273.01382
273.01382
273.01382
273.01381
273.01381
273.01381
273.01381
273.01381
273.01382
273.01382
273.01382
273.01382
273.01381
273.01381
273.01381
273.01381
273.01381
273.01381
273.01382
273.01382
273.01382
273.01381
273.01381
273.01381
273.01381
273.01381
273.01381
273.01381
273.01382
273.01382
273.01381
273.01381
273.01381
273.01381
273.01381
273.01381
273.01381
273.01381
273.01382
273.01382
273.01381
273.01381
273.01381
273.01381
273.01381
273.01381
273.01381
273.01381
273.01382
273.01382
273.01381
273.01381
273.01381
273.01381
273.01381
273.01381
273.01381
273.01381
273.02224
273.02224
273.02224
273.02224
273.02224
273.02224
273.02224
273.02224
273.02224
273.02224
273.02224
273.02224
273.02224
273.02224
273.02224
273.02224
273.02224
273.02224
273.02224
273.02224
273.02224
273.02224
273.02224
273.02224
273.02224
273.02224
273.02224
273.02223
273.02223
273.02223
273.02224
273.02224
273.02224
273.02224
273.02224
273.02224
273.02223
273.02223
273.02223
273.02223
273.02224
273.02224
273.02224
273.02224
273.02224
273.02223
273.02223
273.02223
273.02223
273.02223
273.02224
273.02224
273.02224
273.02224
273.02223
273.02223
273.02223
273.02223
273.02223
273.02223
273.02224
273.02224
273.02224
273.02223
273.02223
273.02223
273.02223
273.02223
273.02223
273.02223
273.02224
273.02224
273.02223
273.02223
273.02223
273.02223
273.02223
273.02223
273.02223
273.02223
273.02224
273.02224
273.02223
273.02223
273.02223
273.02223
273.02223
273.02223
273.02223
273.02223
273.02224
273.02224
273.02223
273.02223
273.02223
273.02223
273.02223
273.02223
273.02223
273.02223
273.03542
273.03542
273.03541
273.03542
273.03541
273.03541
273.03541
273.03541
273.03541
273.03541
273.03542
273.03541
273.03542
273.03541
273.03541
273.03541
273.03541
273.03541
273.03541
273.03541
273.03541
273.03542
273.03541
273.03541
273.03541
273.03541
273.03541
273.0354
273.0354
273.0354
273.03542
273.03541
273.03541
273.03541
273.03541
273.03541
273.03541
273.0354
273.0354
273.0354
273.03541
273.03541
273.03541
273.03541
273.03541
273.0354
273.0354
273.0354
273.0354
273.0354
273.03541
273.03541
273.03541
273.03541
273.0354
273.0354
273.0354
273.0354
273.0354
273.0354
273.03541
273.03541
273.03541
273.03541
273.0354
273.0354
273.0354
273.0354
273.0354
273.0354
273.03541
273.03541
273.0354
273.0354
273.0354
273.0354
273.0354
273.0354
273.0354
273.0354
273.03541
273.03541
273.0354
273.0354
273.0354
273.0354
273.0354
273.0354
273.0354
273.0354
273.03541
273.03541
273.0354
273.0354
273.0354
273.0354
273.0354
273.0354
273.0354
273.0354
273.05585
273.05585
273.05584
273.05584
273.05584
273.05584
273.05583
273.05583
273.05583
273.05583
273.05585
273.05584
273.05584
273.05584
273.05584
273.05584
273.05583
273.05583
273.05583
273.05583
273.05584
273.05584
273.05584
273.05584
273.05584
273.05583
273.05583
273.05583
273.05583
273.05583
273.05584
273.05584
273.05584
273.05584
273.05584
273.05583
273.05583
273.05583
273.05583
273.05583
273.05584
273.05584
273.05584
273.05584
273.05583
273.05583
273.05583
273.05583
273.05583
273.05583
273.05584
273.05584
273.05583
273.05583
273.05583
273.05583
273.05582
273.05582
273.05582
273.05582
273.05583
273.05583
273.05583
273.05583
273.05583
273.05582
273.05582
273.05582
273.05582
273.05582
273.05583
273.05583
273.05583
273.05583
273.05583
273.05582
273.05582
273.05582
273.05582
273.05582
273.05583
273.05583
273.05583
273.05583
273.05583
273.05582
273.05582
273.05582
273.05582
273.05582
273.05583
273.05583
273.05583
273.05583
273.05583
273.05582
273.05582
273.05582
273.05582
273.05582
273.08723
273.08723
273.08722
273.08722
273.08722
273.08721
273.08721
273.08721
273.08721
273.08721
273.08723
273.08722
273.08722
273.08722
273.08722
273.08721
273.08721
273.08721
273.0872
273.08721
273.08722
273.08722
273.08722
273.08722
273.08722
273.08721
273.08721
273.0872
273.0872
273.0872
273.08722
273.08722
273.08722
273.08722
273.08721
273.08721
273.08721
273.0872
273.0872
273.0872
273.08722
273.08722
273.08722
273.08721
273.08721
273.0872
273.0872
273.0872
273.0872
273.0872
273.08721
273.08721
273.08721
273.08721
273.0872
273.0872
273.0872
273.0872
273.0872
273.0872
273.08721
273.08721
273.08721
273.08721
273.0872
273.0872
273.0872
273.0872
273.0872
273.0872
273.08721
273.08721
273.0872
273.0872
273.0872
273.0872
273.0872
273.0872
273.0872
273.0872
273.08721
273.0872
273.0872
273.0872
273.0872
273.0872
273.0872
273.0872
273.0872
273.0872
273.08721
273.08721
273.0872
273.0872
273.0872
273.0872
273.0872
273.0872
273.0872
273.0872
273.13494
273.13494
273.13494
273.13494
273.13494
273.13493
273.13492
273.13492
273.13492
273.13492
273.13494
273.13494
273.13494
273.13494
273.13493
273.13493
273.13492
273.13492
273.13492
273.13492
273.13494
273.13494
273.13494
273.13494
273.13493
273.13492
273.13492
273.13491
273.13491
273.13491
273.13494
273.13494
273.13494
273.13494
273.13493
273.13492
273.13492
273.13492
273.13491
273.13491
273.13494
273.13493
273.13493
273.13493
273.13492
273.13492
273.13491
273.13491
273.13491
273.13491
273.13493
273.13493
273.13492
273.13492
273.13492
273.13491
273.13491
273.13491
273.13491
273.13491
273.13492
273.13492
273.13492
273.13492
273.13491
273.13491
273.13491
273.13491
273.1349
273.13491
273.13492
273.13492
273.13491
273.13492
273.13491
273.13491
273.13491
273.1349
273.1349
273.1349
273.13492
273.13492
273.13491
273.13491
273.13491
273.13491
273.1349
273.1349
273.1349
273.1349
273.13492
273.13492
273.13491
273.13491
273.13491
273.13491
273.13491
273.1349
273.1349
273.1349
273.20675
273.20675
273.20674
273.20675
273.20674
273.20673
273.20672
273.20672
273.20672
273.20671
273.20675
273.20674
273.20675
273.20675
273.20674
273.20673
273.20672
273.20672
273.20671
273.20672
273.20674
273.20675
273.20675
273.20675
273.20674
273.20673
273.20672
273.20671
273.20671
273.20671
273.20675
273.20675
273.20675
273.20675
273.20674
273.20673
273.20672
273.20672
273.20671
273.20671
273.20674
273.20674
273.20674
273.20674
273.20673
273.20672
273.20671
273.20671
273.20671
273.20671
273.20673
273.20673
273.20673
273.20673
273.20672
273.20671
273.20671
273.20671
273.2067
273.20671
273.20672
273.20672
273.20672
273.20672
273.20671
273.20671
273.20671
273.2067
273.2067
273.2067
273.20672
273.20672
273.20671
273.20672
273.20671
273.20671
273.2067
273.2067
273.2067
273.2067
273.20672
273.20671
273.20671
273.20671
273.20671
273.2067
273.2067
273.2067
273.2067
273.2067
273.20671
273.20672
273.20671
273.20671
273.20671
273.20671
273.2067
273.2067
273.2067
273.2067
273.31366
273.31366
273.31365
273.31366
273.31365
273.31364
273.31363
273.31362
273.31362
273.31361
273.31366
273.31365
273.31366
273.31366
273.31365
273.31364
273.31363
273.31362
273.31362
273.31362
273.31365
273.31366
273.31366
273.31366
273.31365
273.31363
273.31362
273.31362
273.31361
273.31361
273.31366
273.31366
273.31366
273.31366
273.31365
273.31364
273.31363
273.31362
273.31362
273.31361
273.31365
273.31365
273.31365
273.31365
273.31364
273.31363
273.31362
273.31361
273.31361
273.31361
273.31364
273.31364
273.31363
273.31364
273.31363
273.31362
273.31361
273.31361
273.31361
273.31361
273.31363
273.31363
273.31362
273.31363
273.31362
273.31361
273.31361
273.31361
273.3136
273.3136
273.31362
273.31362
273.31362
273.31362
273.31361
273.31361
273.31361
273.3136
273.3136
273.3136
273.31362
273.31362
273.31361
273.31362
273.31361
273.31361
273.3136
273.3136
273.3136
273.3136
273.31361
273.31362
273.31361
273.31361
273.31361
273.31361
273.3136
273.3136
273.3136
273.3136
273.47109
273.4711
273.47109
273.47111
273.47109
273.47107
273.47106
273.47105
273.47104
273.47104
273.4711
273.47109
273.4711
273.47111
273.47109
273.47107
273.47106
273.47105
273.47104
273.47104
273.47109
273.4711
273.4711
273.4711
273.47109
273.47107
273.47106
273.47104
273.47104
273.47104
273.47111
273.47111
273.4711
273.47111
273.47109
273.47108
273.47107
273.47105
273.47105
273.47104
273.47109
273.47109
273.47109
273.47109
273.47108
273.47106
273.47105
273.47105
273.47104
273.47104
273.47107
273.47107
273.47107
273.47108
273.47106
273.47105
273.47105
273.47104
273.47103
273.47104
273.47106
273.47106
273.47106
273.47107
273.47105
273.47105
273.47104
273.47103
273.47103
273.47103
273.47105
273.47105
273.47104
273.47105
273.47105
273.47104
273.47103
273.47103
273.47102
273.47102
273.47104
273.47104
273.47104
273.47105
273.47104
273.47103
273.47103
273.47102
273.47102
273.47102
273.47104
273.47104
273.47104
273.47104
273.47104
273.47104
273.47103
273.47102
273.47102
273.47102
273.70034
273.70035
273.70034
273.70037
273.70035
273.70033
273.70031
273.70029
273.70029
273.70028
273.70035
273.70034
273.70035
273.70037
273.70035
273.70032
273.70031
273.70029
273.70029
273.70028
273.70034
273.70035
273.70036
273.70037
273.70035
273.70032
273.70031
273.70029
273.70028
273.70028
273.70037
273.70037
273.70037
273.70037
273.70035
273.70033
273.70032
273.7003
273.70029
273.70029
273.70035
273.70035
273.70035
273.70035
273.70034
273.70032
273.70031
273.70029
273.70029
273.70028
273.70033
273.70032
273.70032
273.70033
273.70032
273.7003
273.7003
273.70029
273.70028
273.70028
273.70031
273.70031
273.70031
273.70032
273.70031
273.7003
273.70029
273.70028
273.70028
273.70027
273.70029
273.70029
273.70029
273.7003
273.70029
273.70029
273.70028
273.70027
273.70027
273.70026
273.70029
273.70029
273.70028
273.70029
273.70029
273.70028
273.70028
273.70027
273.70026
273.70026
273.70028
273.70028
273.70028
273.70029
273.70028
273.70028
273.70027
273.70026
273.70026
273.70026
274.03035
274.03035
274.03034
274.03038
274.03036
274.03033
274.03031
274.03029
274.03028
274.03027
274.03035
274.03034
274.03036
274.03038
274.03036
274.03033
274.03031
274.03029
274.03028
274.03028
274.03034
274.03036
274.03037
274.03039
274.03036
274.03033
274.03031
274.03029
274.03027
274.03027
274.03038
274.03038
274.03039
274.0304
274.03038
274.03035
274.03033
274.03031
274.03029
274.03029
274.03036
274.03036
274.03036
274.03038
274.03035
274.03033
274.03032
274.0303
274.03029
274.03028
274.03033
274.03033
274.03033
274.03035
274.03033
274.03031
274.0303
274.03029
274.03028
274.03028
274.03031
274.03031
274.03031
274.03033
274.03032
274.0303
274.0303
274.03028
274.03027
274.03027
274.03029
274.03029
274.03029
274.03031
274.0303
274.03029
274.03028
274.03027
274.03026
274.03026
274.03028
274.03028
274.03027
274.03029
274.03029
274.03028
274.03027
274.03026
274.03025
274.03025
274.03027
274.03028
274.03027
274.03029
274.03028
274.03028
274.03027
274.03026
274.03025
274.03025
274.4998
274.49981
274.4998
274.49985
274.49983
274.49979
274.49976
274.49974
274.49972
274.4997
274.49981
274.49979
274.49982
274.49986
274.49983
274.49979
274.49976
274.49974
274.49972
274.49972
274.4998
274.49982
274.49984
274.49986
274.49983
274.4998
274.49977
274.49974
274.49972
274.49972
274.49985
274.49986
274.49986
274.49989
274.49986
274.49983
274.4998
274.49977
274.49975
274.49974
274.49983
274.49983
274.49983
274.49986
274.49983
274.49981
274.49979
274.49976
274.49974
274.49974
274.49979
274.49979
274.4998
274.49983
274.49981
274.49978
274.49977
274.49975
274.49973
274.49973
274.49976
274.49976
274.49977
274.4998
274.49979
274.49977
274.49976
274.49974
274.49973
274.49972
274.49974
274.49974
274.49974
274.49977
274.49976
274.49975
274.49974
274.49972
274.4997
274.4997
274.49972
274.49972
274.49972
274.49975
274.49974
274.49973
274.49973
274.4997
274.49969
274.49969
274.4997
274.49972
274.49972
274.49974
274.49974
274.49973
274.49972
274.4997
274.49969
274.49969
275.15958
275.1596
275.15958
275.15966
275.15963
275.15959
275.15955
275.15952
275.15949
275.15947
275.1596
275.15958
275.15962
275.15967
275.15964
275.15959
275.15956
275.15952
275.1595
275.1595
275.15958
275.15962
275.15964
275.15968
275.15965
275.1596
275.15957
275.15952
275.1595
275.1595
275.15966
275.15967
275.15968
275.15972
275.15968
275.15965
275.15962
275.15957
275.15954
275.15952
275.15963
275.15964
275.15965
275.15968
275.15965
275.15962
275.1596
275.15956
275.15953
275.15953
275.15959
275.15959
275.1596
275.15965
275.15962
275.1596
275.15958
275.15955
275.15953
275.15952
275.15955
275.15956
275.15957
275.15962
275.1596
275.15958
275.15957
275.15954
275.15952
275.15951
275.15952
275.15952
275.15952
275.15957
275.15956
275.15955
275.15954
275.15951
275.15948
275.15947
275.15949
275.1595
275.1595
275.15954
275.15953
275.15953
275.15952
275.15948
275.15946
275.15946
275.15947
275.1595
275.1595
275.15952
275.15953
275.15952
275.15951
275.15947
275.15946
275.15946
276.07538
276.0754
276.07538
276.07549
276.07546
276.07541
276.07536
276.07531
276.07528
276.07525
276.0754
276.07538
276.07543
276.07551
276.07547
276.07542
276.07537
276.07532
276.07529
276.07529
276.07538
276.07543
276.07547
276.07552
276.07548
276.07544
276.07539
276.07533
276.07529
276.07529
276.07549
276.07551
276.07552
276.07558
276.07554
276.0755
276.07546
276.0754
276.07535
276.07533
276.07546
276.07547
276.07548
276.07554
276.0755
276.07547
276.07544
276.07539
276.07535
276.07534
276.07541
276.07542
276.07544
276.0755
276.07547
276.07544
276.07542
276.07537
276.07534
276.07533
276.07536
276.07537
276.07539
276.07546
276.07544
276.07542
276.0754
276.07536
276.07533
276.07532
276.07531
276.07532
276.07533
276.0754
276.07539
276.07537
276.07536
276.07532
276.07528
276.07527
276.07528
276.07529
276.07529
276.07535
276.07535
276.07534
276.07533
276.07528
276.07525
276.07525
276.07525
276.07529
276.07529
276.07533
276.07534
276.07533
276.07532
276.07527
276.07525
276.07524
277.33034
277.33038
277.33036
277.3305
277.33047
277.33041
277.33034
277.33029
277.33024
277.3302
277.33038
277.33035
277.33042
277.33052
277.33048
277.33042
277.33036
277.33029
277.33026
277.33025
277.33036
277.33042
277.33047
277.33055
277.33051
277.33045
277.33039
277.33031
277.33026
277.33026
277.3305
277.33052
277.33055
277.33062
277.33058
277.33053
277.33048
277.3304
277.33034
277.33031
277.33047
277.33048
277.33051
277.33058
277.33054
277.3305
277.33047
277.3304
277.33034
277.33033
277.33041
277.33042
277.33045
277.33053
277.3305
277.33047
277.33044
277.33038
277.33034
277.33032
277.33034
277.33036
277.33039
277.33048
277.33047
277.33044
277.33042
277.33037
277.33032
277.3303
277.33029
277.33029
277.33031
277.3304
277.3304
277.33038
277.33037
277.33031
277.33026
277.33024
277.33024
277.33026
277.33026
277.33034
277.33034
277.33034
277.33032
277.33026
277.33021
277.33021
277.3302
277.33025
277.33026
277.33031
277.33033
277.33032
277.3303
277.33024
277.33021
277.3302
279.02754
279.02759
279.02757
279.02775
279.02772
279.02764
279.02757
279.02749
279.02744
279.02739
279.02759
279.02756
279.02765
279.02778
279.02774
279.02766
279.02759
279.0275
279.02746
279.02745
279.02757
279.02765
279.02772
279.02782
279.02777
279.0277
279.02763
279.02753
279.02746
279.02746
279.02775
279.02778
279.02782
279.02792
279.02787
279.02782
279.02775
279.02765
279.02757
279.02753
279.02772
279.02774
279.02777
279.02787
279.02784
279.02779
279.02774
279.02765
279.02758
279.02756
279.02764
279.02766
279.0277
279.02782
279.02779
279.02775
279.02772
279.02764
279.02758
279.02756
279.02757
279.02759
279.02763
279.02775
279.02774
279.02772
279.02769
279.02762
279.02756
279.02753
279.02749
279.0275
279.02753
279.02765
279.02765
279.02764
279.02762
279.02754
279.02747
279.02744
279.02744
279.02746
279.02746
279.02757
279.02758
279.02758
279.02756
279.02747
279.02741
279.0274
279.02739
279.02745
279.02746
279.02753
279.02756
279.02756
279.02753
279.02744
279.0274
279.02739
281.29178
281.29184
281.29182
281.29204
281.29201
281.29192
281.29183
281.29174
281.29167
281.2916
281.29184
281.2918
281.29192
281.29208
281.29203
281.29195
281.29186
281.29175
281.2917
281.29168
281.29182
281.29192
281.292
281.29214
281.29209
281.29201
281.29192
281.29179
281.29171
281.2917
281.29204
281.29208
281.29214
281.29227
281.29222
281.29215
281.29208
281.29195
281.29184
281.2918
281.29201
281.29203
281.29209
281.29222
281.29218
281.29213
281.29207
281.29196
281.29187
281.29183
281.29192
281.29195
281.29201
281.29215
281.29213
281.29209
281.29205
281.29195
281.29186
281.29183
281.29183
281.29186
281.29192
281.29208
281.29207
281.29205
281.29202
281.29192
281.29184
281.2918
281.29174
281.29175
281.29179
281.29195
281.29196
281.29195
281.29192
281.29182
281.29173
281.29169
281.29167
281.2917
281.29171
281.29184
281.29187
281.29186
281.29184
281.29173
281.29164
281.29164
281.2916
281.29168
281.2917
281.2918
281.29183
281.29183
281.2918
281.29169
281.29164
281.29161
284.27033
284.2704
284.27038
284.27066
284.27063
284.27053
284.27042
284.27031
284.27022
284.27014
284.2704
284.27036
284.27051
284.27071
284.27066
284.27056
284.27046
284.27032
284.27026
284.27024
284.27038
284.27051
284.27061
284.27078
284.27073
284.27064
284.27054
284.27037
284.27027
284.27026
284.27066
284.27071
284.27078
284.27095
284.2709
284.27082
284.27074
284.27057
284.27044
284.27039
284.27063
284.27066
284.27073
284.2709
284.27086
284.2708
284.27074
284.27059
284.27048
284.27043
284.27053
284.27056
284.27064
284.27082
284.2708
284.27076
284.27072
284.27059
284.27048
284.27044
284.27042
284.27046
284.27054
284.27074
284.27074
284.27072
284.27068
284.27055
284.27045
284.2704
284.27031
284.27032
284.27037
284.27057
284.27059
284.27059
284.27055
284.27042
284.27031
284.27025
284.27022
284.27026
284.27027
284.27044
284.27048
284.27048
284.27045
284.27031
284.2702
284.27019
284.27014
284.27024
284.27026
284.27039
284.27043
284.27044
284.2704
284.27025
284.27019
284.27016
288.13205
288.13214
288.13212
288.13245
288.13242
288.13231
288.13218
288.13205
288.13194
288.13184
288.13214
288.13209
288.13227
288.13252
288.13246
288.13235
288.13223
288.13206
288.13199
288.13196
288.13212
288.13227
288.13239
288.1326
288.13255
288.13245
288.13233
288.13212
288.13201
288.132
288.13245
288.13252
288.1326
288.1328
288.13276
288.13268
288.13258
288.13237
288.13221
288.13215
288.13242
288.13246
288.13255
288.13276
288.13272
288.13266
288.13259
288.13241
288.13226
288.13221
288.13231
288.13235
288.13245
288.13268
288.13266
288.13262
288.13257
288.13241
288.13228
288.13223
288.13218
288.13223
288.13233
288.13258
288.13259
288.13257
288.13253
288.13237
288.13224
288.13218
288.13205
288.13206
288.13212
288.13237
288.13241
288.13241
288.13237
288.13221
288.13206
288.13199
288.13194
288.13199
288.13201
288.13221
288.13226
288.13228
288.13224
288.13206
288.13192
288.13192
288.13184
288.13196
288.132
288.13215
288.13221
288.13223
288.13218
288.13199
288.13192
288.13188
293.06419
293.06429
293.06428
293.06465
293.06463
293.0645
293.06436
293.0642
293.06408
293.06396
293.06429
293.06425
293.06445
293.06473
293.06468
293.06456
293.06442
293.06422
293.06414
293.06411
293.06428
293.06445
293.06459
293.06484
293.06478
293.06468
293.06454
293.0643
293.06416
293.06415
293.06465
293.06473
293.06484
293.06508
293.06503
293.06495
293.06483
293.06459
293.0644
293.06433
293.06463
293.06468
293.06478
293.06503
293.065
293.06494
293.06486
293.06464
293.06447
293.06441
293.0645
293.06456
293.06468
293.06495
293.06494
293.06491
293.06485
293.06465
293.0645
293.06444
293.06436
293.06442
293.06454
293.06483
293.06486
293.06485
293.06481
293.06461
293.06445
293.06438
293.0642
293.06422
293.0643
293.06459
293.06464
293.06465
293.06461
293.06441
293.06424
293.06415
293.06408
293.06414
293.06416
293.0644
293.06447
293.0645
293.06445
293.06424
293.06407
293.06407
293.06396
293.06411
293.06415
293.06433
293.06441
293.06444
293.06438
293.06415
293.06407
293.06402
299.26645
299.26657
299.26656
299.26698
299.26696
299.26682
299.26667
299.26648
299.26635
299.2662
299.26657
299.26652
299.26675
299.26707
299.26702
299.26689
299.26673
299.26651
299.26641
299.26638
299.26656
299.26675
299.26691
299.26719
299.26714
299.26703
299.26687
299.26659
299.26643
299.26643
299.26698
299.26707
299.26719
299.26747
299.26742
299.26734
299.26722
299.26693
299.26671
299.26663
299.26696
299.26702
299.26714
299.26742
299.2674
299.26735
299.26726
299.26701
299.26681
299.26674
299.26682
299.26689
299.26703
299.26734
299.26735
299.26732
299.26726
299.26703
299.26685
299.26678
299.26667
299.26673
299.26687
299.26722
299.26726
299.26726
299.26722
299.26699
299.2668
299.26672
299.26648
299.26651
299.26659
299.26693
299.26701
299.26703
299.26699
299.26675
299.26654
299.26644
299.26635
299.26641
299.26643
299.26671
299.26681
299.26685
299.2668
299.26654
299.26635
299.26635
299.2662
299.26638
299.26643
299.26663
299.26674
299.26678
299.26672
299.26644
299.26635
299.2663
306.94203
306.94216
306.94215
306.94261
306.94259
306.94245
306.94228
306.94207
306.94192
306.94176
306.94216
306.94211
306.94235
306.94271
306.94266
306.94252
306.94235
306.9421
306.94199
306.94196
306.94215
306.94235
306.94252
306.94284
306.94278
306.94267
306.94251
306.94219
306.94202
306.94201
306.94261
306.94271
306.94284
306.94314
306.94311
306.94302
306.9429
306.94257
306.94233
306.94225
306.94259
306.94266
306.94278
306.94311
306.94309
306.94304
306.94296
306.94267
306.94245
306.94238
306.94245
306.94252
306.94267
306.94302
306.94304
306.94303
306.94297
306.94271
306.94251
306.94244
306.94228
306.94235
306.94251
306.9429
306.94296
306.94297
306.94293
306.94268
306.94246
306.94237
306.94207
306.9421
306.94219
306.94257
306.94267
306.94271
306.94268
306.9424
306.94217
306.94205
306.94192
306.94199
306.94202
306.94233
306.94245
306.94251
306.94246
306.94217
306.94194
306.94195
306.94176
306.94196
306.94201
306.94225
306.94238
306.94244
306.94237
306.94205
306.94195
306.9419
316.28561
316.28575
316.28573
316.28623
316.28621
316.28606
316.28589
316.28567
316.28551
316.28533
316.28575
316.2857
316.28595
316.28633
316.28628
316.28614
316.28597
316.28569
316.28558
316.28554
316.28573
316.28595
316.28613
316.28646
316.28641
316.2863
316.28614
316.28579
316.28561
316.28561
316.28623
316.28633
316.28646
316.28679
316.28676
316.28669
316.28656
316.28621
316.28595
316.28587
316.28621
316.28628
316.28641
316.28676
316.28676
316.28672
316.28665
316.28633
316.28609
316.28602
316.28606
316.28614
316.2863
316.28669
316.28672
316.28672
316.28668
316.28639
316.28617
316.2861
316.28589
316.28597
316.28614
316.28656
316.28665
316.28668
316.28665
316.28637
316.28614
316.28604
316.28567
316.28569
316.28579
316.28621
316.28633
316.28639
316.28637
316.28606
316.2858
316.28567
316.28551
316.28558
316.28561
316.28595
316.28609
316.28617
316.28614
316.2858
316.28555
316.28558
316.28533
316.28554
316.28561
316.28587
316.28602
316.2861
316.28604
316.28567
316.28558
316.28552
327.46908
327.46923
327.46921
327.46972
327.4697
327.46955
327.46938
327.46915
327.46899
327.4688
327.46923
327.46918
327.46943
327.46982
327.46976
327.46964
327.46947
327.46917
327.46907
327.46903
327.46921
327.46943
327.4696
327.46995
327.4699
327.4698
327.46965
327.46928
327.46909
327.4691
327.46972
327.46982
327.46995
327.47029
327.47026
327.47021
327.4701
327.46972
327.46946
327.46938
327.4697
327.46976
327.4699
327.47026
327.47027
327.47026
327.4702
327.46987
327.46963
327.46956
327.46955
327.46964
327.4698
327.47021
327.47026
327.47029
327.47026
327.46996
327.46973
327.46967
327.46938
327.46947
327.46965
327.4701
327.4702
327.47026
327.47025
327.46995
327.46971
327.46961
327.46915
327.46917
327.46928
327.46972
327.46987
327.46996
327.46995
327.46962
327.46935
327.46921
327.46899
327.46907
327.46909
327.46946
327.46963
327.46973
327.46971
327.46935
327.46908
327.46913
327.4688
327.46903
327.4691
327.46938
327.46956
327.46967
327.46961
327.46921
327.46913
327.46907
340.62606
340.6262
340.62618
340.62668
340.62666
340.62652
340.62636
340.62613
340.62597
340.62578
340.6262
340.62615
340.62638
340.62676
340.62671
340.6266
340.62644
340.62614
340.62605
340.62602
340.62618
340.62638
340.62654
340.62689
340.62684
340.62676
340.62663
340.62625
340.62607
340.6261
340.62668
340.62676
340.62689
340.62723
340.62721
340.62718
340.62709
340.62671
340.62645
340.62639
340.62666
340.62671
340.62684
340.62721
340.62723
340.62725
340.62721
340.62688
340.62665