/*--------------------------------*- C++ -*----------------------------------*\
| =========                 |                                                 |
| \\      /  F ield         | OpenFOAM: The Open Source CFD Toolbox           |
|  \\    /   O peration     | Version:  v2106                                 |
|   \\  /    A nd           | Website:  www.openfoam.com                      |
|    \\/     M anipulation  |                                                 |
\*---------------------------------------------------------------------------*/
FoamFile
{
    version     2.0;
    format      ascii;
    arch        "LSB;label=32;scalar=64";
    class       volVectorField;
    location    "20";
    object      flux;
}
// * * * * * * * * * * * * * * * * * * * * * * * * * * * * * * * * * * * * * //

dimensions      [0 1 -1 1 0 0 0];

internalField   nonuniform List<vector> 
500
(
(2.99744e-06 2.99744e-06 1.70135)
(-1.13473e-06 -7.82633e-07 1.70136)
(-5.60977e-06 -4.02893e-07 1.70135)
(-1.97906e-06 6.5758e-08 1.70134)
(-5.01456e-07 3.86794e-07 1.70134)
(-7.82633e-07 -1.13473e-06 1.70136)
(-4.53506e-06 -4.53506e-06 1.70136)
(-4.76138e-06 -3.6665e-06 1.70134)
(-1.18938e-06 -2.54205e-06 1.70134)
(-1.8042e-07 -1.31722e-06 1.70134)
(-4.02893e-07 -5.60977e-06 1.70135)
(-3.6665e-06 -4.76138e-06 1.70134)
(-3.61676e-06 -3.61676e-06 1.70133)
(3.7022e-07 -2.55265e-06 1.70133)
(7.23372e-07 -1.38482e-06 1.70133)
(6.5758e-08 -1.97906e-06 1.70134)
(-2.54205e-06 -1.18938e-06 1.70134)
(-2.55265e-06 3.7022e-07 1.70133)
(1.04257e-06 1.04257e-06 1.70133)
(9.87409e-07 1.32713e-06 1.70134)
(3.86794e-07 -5.01456e-07 1.70134)
(-1.31722e-06 -1.8042e-07 1.70134)
(-1.38482e-06 7.23372e-07 1.70133)
(1.32713e-06 9.87409e-07 1.70134)
(1.00794e-06 1.00794e-06 1.70134)
(5.48582e-06 5.48582e-06 1.70562)
(-4.34066e-06 -1.90159e-06 1.70563)
(-1.3591e-05 -9.42338e-07 1.70562)
(-5.50272e-06 5.87028e-07 1.70561)
(-1.73816e-06 1.33018e-06 1.70561)
(-1.90159e-06 -4.34066e-06 1.70563)
(-1.07688e-05 -1.07688e-05 1.70562)
(-1.11024e-05 -8.37958e-06 1.70562)
(-3.2302e-06 -4.9114e-06 1.70561)
(-9.95009e-07 -1.79679e-06 1.70561)
(-9.42338e-07 -1.3591e-05 1.70562)
(-8.37958e-06 -1.11024e-05 1.70562)
(-7.73362e-06 -7.73362e-06 1.70561)
(1.08008e-06 -4.60742e-06 1.70561)
(1.37645e-06 -1.55809e-06 1.70561)
(5.87028e-07 -5.50272e-06 1.70561)
(-4.9114e-06 -3.2302e-06 1.70561)
(-4.60742e-06 1.08008e-06 1.70561)
(2.94533e-06 2.94533e-06 1.70561)
(2.05433e-06 3.28535e-06 1.70562)
(1.33018e-06 -1.73816e-06 1.70561)
(-1.79679e-06 -9.95009e-07 1.70561)
(-1.55809e-06 1.37645e-06 1.70561)
(3.28535e-06 2.05433e-06 1.70562)
(1.71646e-06 1.71646e-06 1.70562)
(5.91537e-06 5.91537e-06 1.71406)
(-7.80738e-06 -3.43176e-06 1.71406)
(-1.85195e-05 -1.80247e-06 1.71406)
(-7.809e-06 1.0767e-06 1.71406)
(-3.01225e-06 2.45744e-06 1.71406)
(-3.43176e-06 -7.80738e-06 1.71406)
(-1.55252e-05 -1.55252e-05 1.71406)
(-1.4011e-05 -1.15618e-05 1.71406)
(-3.54909e-06 -5.54979e-06 1.71406)
(-1.63151e-06 -6.11131e-07 1.71406)
(-1.80247e-06 -1.85195e-05 1.71406)
(-1.15618e-05 -1.4011e-05 1.71406)
(-8.54407e-06 -8.54407e-06 1.71405)
(3.14168e-06 -3.55983e-06 1.71406)
(1.92641e-06 8.44439e-07 1.71406)
(1.0767e-06 -7.809e-06 1.71406)
(-5.54979e-06 -3.54909e-06 1.71406)
(-3.55983e-06 3.14168e-06 1.71406)
(5.83942e-06 5.83942e-06 1.71406)
(2.77275e-06 4.86077e-06 1.71406)
(2.45744e-06 -3.01225e-06 1.71406)
(-6.11131e-07 -1.63151e-06 1.71406)
(8.44439e-07 1.92641e-06 1.71406)
(4.86077e-06 2.77275e-06 1.71406)
(9.4776e-07 9.4776e-07 1.71406)
(6.49151e-06 6.49151e-06 1.72646)
(-9.88351e-06 -4.36881e-06 1.72647)
(-2.09968e-05 -2.07163e-06 1.72646)
(-8.05483e-06 2.07745e-06 1.72646)
(-3.43303e-06 3.88237e-06 1.72646)
(-4.36881e-06 -9.88351e-06 1.72647)
(-1.84466e-05 -1.84466e-05 1.72646)
(-1.45506e-05 -1.29602e-05 1.72646)
(-2.10083e-06 -4.58582e-06 1.72646)
(-1.62811e-06 1.77698e-06 1.72646)
(-2.07163e-06 -2.09968e-05 1.72646)
(-1.29602e-05 -1.45506e-05 1.72646)
(-7.136e-06 -7.136e-06 1.72646)
(6.68231e-06 -4.92179e-07 1.72646)
(2.92978e-06 4.94881e-06 1.72647)
(2.07745e-06 -8.05483e-06 1.72646)
(-4.58582e-06 -2.10083e-06 1.72646)
(-4.92179e-07 6.68231e-06 1.72646)
(9.98398e-06 9.98398e-06 1.72647)
(3.81288e-06 6.92108e-06 1.72647)
(3.88237e-06 -3.43303e-06 1.72646)
(1.77698e-06 -1.62811e-06 1.72646)
(4.94881e-06 2.92978e-06 1.72647)
(6.92108e-06 3.81288e-06 1.72647)
(-1.33119e-07 -1.33119e-07 1.72647)
(7.17696e-06 7.17696e-06 1.74252)
(-1.09442e-05 -4.89053e-06 1.74252)
(-2.18918e-05 -1.96954e-06 1.74252)
(-7.15992e-06 3.33973e-06 1.74252)
(-3.38935e-06 5.46674e-06 1.74252)
(-4.89053e-06 -1.09442e-05 1.74252)
(-2.00907e-05 -2.00907e-05 1.74252)
(-1.36615e-05 -1.32043e-05 1.74252)
(2.76367e-07 -2.69861e-06 1.74253)
(-1.26234e-06 4.83346e-06 1.74253)
(-1.96954e-06 -2.18918e-05 1.74252)
(-1.32043e-05 -1.36615e-05 1.74252)
(-4.49964e-06 -4.49964e-06 1.74252)
(1.08779e-05 3.59189e-06 1.74253)
(4.14272e-06 9.85044e-06 1.74253)
(3.33973e-06 -7.15992e-06 1.74252)
(-2.69861e-06 2.76366e-07 1.74253)
(3.59189e-06 1.08779e-05 1.74253)
(1.46264e-05 1.46264e-05 1.74254)
(4.99621e-06 9.32886e-06 1.74254)
(5.46674e-06 -3.38935e-06 1.74252)
(4.83346e-06 -1.26234e-06 1.74253)
(9.85044e-06 4.14272e-06 1.74253)
(9.32886e-06 4.99621e-06 1.74254)
(-1.15485e-06 -1.15485e-06 1.74254)
(7.85056e-06 7.85056e-06 1.76185)
(-1.12885e-05 -5.11998e-06 1.76185)
(-2.16664e-05 -1.64513e-06 1.76185)
(-5.59758e-06 4.68924e-06 1.76185)
(-3.07018e-06 7.07062e-06 1.76185)
(-5.11998e-06 -1.12885e-05 1.76185)
(-2.07842e-05 -2.07842e-05 1.76185)
(-1.18572e-05 -1.26688e-05 1.76185)
(3.11817e-06 -3.04784e-07 1.76185)
(-6.88808e-07 8.18e-06 1.76185)
(-1.64513e-06 -2.16664e-05 1.76185)
(-1.26688e-05 -1.18572e-05 1.76185)
(-1.18705e-06 -1.18705e-06 1.76185)
(1.52512e-05 8.12649e-06 1.76185)
(5.4146e-06 1.50144e-05 1.76186)
(4.68924e-06 -5.59758e-06 1.76185)
(-3.04784e-07 3.11817e-06 1.76185)
(8.12649e-06 1.52512e-05 1.76185)
(1.93196e-05 1.93196e-05 1.76186)
(6.19912e-06 1.18536e-05 1.76186)
(7.07062e-06 -3.07018e-06 1.76185)
(8.18e-06 -6.88808e-07 1.76185)
(1.50144e-05 5.4146e-06 1.76186)
(1.18536e-05 6.19912e-06 1.76186)
(-2.05148e-06 -2.05148e-06 1.76186)
(8.42538e-06 8.42538e-06 1.78395)
(-1.11036e-05 -5.12801e-06 1.78396)
(-2.05895e-05 -1.1853e-06 1.78396)
(-3.63442e-06 6.01585e-06 1.78396)
(-2.57394e-06 8.58857e-06 1.78396)
(-5.12801e-06 -1.11036e-05 1.78396)
(-2.07143e-05 -2.07143e-05 1.78396)
(-9.44561e-06 -1.15729e-05 1.78396)
(6.13945e-06 2.33745e-06 1.78396)
(-1.22086e-09 1.15557e-05 1.78396)
(-1.1853e-06 -2.05895e-05 1.78396)
(-1.15729e-05 -9.44561e-06 1.78396)
(2.46227e-06 2.46227e-06 1.78396)
(1.94942e-05 1.27559e-05 1.78396)
(6.64433e-06 2.00905e-05 1.78397)
(6.01585e-06 -3.63442e-06 1.78396)
(2.33745e-06 6.13945e-06 1.78396)
(1.27559e-05 1.94942e-05 1.78396)
(2.37677e-05 2.37677e-05 1.78397)
(7.33339e-06 1.42976e-05 1.78397)
(8.58857e-06 -2.57394e-06 1.78396)
(1.15557e-05 -1.22087e-09 1.78396)
(2.00905e-05 6.64433e-06 1.78397)
(1.42976e-05 7.33339e-06 1.78397)
(-2.82576e-06 -2.82576e-06 1.78397)
(8.84526e-06 8.84526e-06 1.80831)
(-1.05071e-05 -4.95746e-06 1.80831)
(-1.88325e-05 -6.44557e-07 1.80831)
(-1.4402e-06 7.24493e-06 1.80831)
(-1.96003e-06 9.94423e-06 1.80831)
(-4.95746e-06 -1.05071e-05 1.80831)
(-1.99969e-05 -1.99969e-05 1.80831)
(-6.63013e-06 -1.00568e-05 1.80831)
(9.14858e-06 5.05393e-06 1.80831)
(7.39272e-07 1.47751e-05 1.80832)
(-6.44557e-07 -1.88325e-05 1.80831)
(-1.00568e-05 -6.63013e-06 1.80831)
(6.21831e-06 6.21831e-06 1.80831)
(2.33916e-05 1.72329e-05 1.80832)
(7.76112e-06 2.48286e-05 1.80832)
(7.24493e-06 -1.4402e-06 1.80831)
(5.05393e-06 9.14858e-06 1.80831)
(1.72329e-05 2.33916e-05 1.80832)
(2.77589e-05 2.77589e-05 1.80832)
(8.33498e-06 1.65116e-05 1.80832)
(9.94423e-06 -1.96003e-06 1.80831)
(1.47751e-05 7.39272e-07 1.80832)
(2.48286e-05 7.76112e-06 1.80832)
(1.65116e-05 8.33498e-06 1.80832)
(-3.48616e-06 -3.48616e-06 1.80832)
(9.07547e-06 9.07547e-06 1.8343)
(-9.578e-06 -4.63691e-06 1.8343)
(-1.65199e-05 -6.03894e-08 1.8343)
(8.64333e-07 8.32267e-06 1.83431)
(-1.26924e-06 1.10816e-05 1.83431)
(-4.63691e-06 -9.578e-06 1.8343)
(-1.87139e-05 -1.87139e-05 1.8343)
(-3.56031e-06 -8.22091e-06 1.83431)
(1.20063e-05 7.71652e-06 1.83431)
(1.48965e-06 1.76998e-05 1.83431)
(-6.03893e-08 -1.65199e-05 1.8343)
(-8.22091e-06 -3.56031e-06 1.83431)
(9.91049e-06 9.91049e-06 1.83431)
(2.67851e-05 2.13725e-05 1.83431)
(8.71404e-06 2.90403e-05 1.83432)
(8.32267e-06 8.64333e-07 1.83431)
(7.71652e-06 1.20063e-05 1.83431)
(2.13725e-05 2.67851e-05 1.83431)
(3.11361e-05 3.11361e-05 1.83432)
(9.15749e-06 1.83862e-05 1.83432)
(1.10816e-05 -1.26924e-06 1.83431)
(1.76998e-05 1.48965e-06 1.83431)
(2.90403e-05 8.71404e-06 1.83432)
(1.83862e-05 9.15749e-06 1.83432)
(-4.03583e-06 -4.03583e-06 1.83432)
(9.09582e-06 9.09582e-06 1.8613)
(-8.37724e-06 -4.18865e-06 1.8613)
(-1.37558e-05 5.3863e-07 1.8613)
(3.18387e-06 9.20866e-06 1.86131)
(-5.33374e-07 1.1959e-05 1.86131)
(-4.18865e-06 -8.37724e-06 1.8613)
(-1.69344e-05 -1.69344e-05 1.8613)
(-3.58505e-07 -6.14759e-06 1.86131)
(1.46042e-05 1.02235e-05 1.86131)
(2.21697e-06 2.02226e-05 1.86131)
(5.3863e-07 -1.37558e-05 1.8613)
(-6.14759e-06 -3.58505e-07 1.86131)
(1.34021e-05 1.34021e-05 1.86131)
(2.9554e-05 2.50283e-05 1.86131)
(9.46568e-06 3.25786e-05 1.86131)
(9.20866e-06 3.18387e-06 1.86131)
(1.02235e-05 1.46042e-05 1.86131)
(2.50283e-05 2.9554e-05 1.86131)
(3.37807e-05 3.37807e-05 1.86132)
(9.76735e-06 1.98412e-05 1.86132)
(1.1959e-05 -5.33374e-07 1.86131)
(2.02226e-05 2.21697e-06 1.86131)
(3.25786e-05 9.46568e-06 1.86131)
(1.98412e-05 9.76735e-06 1.86132)
(-4.47386e-06 -4.47386e-06 1.86132)
(8.89617e-06 8.89617e-06 1.88864)
(-6.95942e-06 -3.6332e-06 1.88864)
(-1.06393e-05 1.12834e-06 1.88864)
(5.4361e-06 9.87176e-06 1.88865)
(2.19841e-07 1.25457e-05 1.88865)
(-3.6332e-06 -6.95942e-06 1.88864)
(-1.47272e-05 -1.47272e-05 1.88864)
(2.86564e-06 -3.9124e-06 1.88864)
(1.68535e-05 1.2489e-05 1.88865)
(2.89381e-06 2.22573e-05 1.88865)
(1.12834e-06 -1.06393e-05 1.88864)
(-3.9124e-06 2.86564e-06 1.88864)
(1.65769e-05 1.65769e-05 1.88865)
(3.16058e-05 2.80805e-05 1.88865)
(9.98819e-06 3.53271e-05 1.88865)
(9.87176e-06 5.4361e-06 1.88865)
(1.2489e-05 1.68535e-05 1.88865)
(2.80805e-05 3.16058e-05 1.88865)
(3.56037e-05 3.56037e-05 1.88865)
(1.01405e-05 2.08173e-05 1.88865)
(1.25457e-05 2.19841e-07 1.88865)
(2.22573e-05 2.89381e-06 1.88865)
(3.53271e-05 9.98819e-06 1.88865)
(2.08173e-05 1.01405e-05 1.88865)
(-4.79826e-06 -4.79826e-06 1.88865)
(8.47325e-06 8.47325e-06 1.91564)
(-5.38066e-06 -2.99235e-06 1.91564)
(-7.27331e-06 1.68614e-06 1.91565)
(7.5444e-06 1.02876e-05 1.91565)
(9.63793e-07 1.28193e-05 1.91565)
(-2.99235e-06 -5.38066e-06 1.91564)
(-1.21678e-05 -1.21678e-05 1.91564)
(6.00666e-06 -1.59138e-06 1.91565)
(1.86776e-05 1.44363e-05 1.91565)
(3.49549e-06 2.37332e-05 1.91565)
(1.68614e-06 -7.27331e-06 1.91565)
(-1.59138e-06 6.00666e-06 1.91565)
(1.93307e-05 1.93307e-05 1.91565)
(3.2869e-05 3.04283e-05 1.91565)
(1.02608e-05 3.71926e-05 1.91565)
(1.02876e-05 7.5444e-06 1.91565)
(1.44363e-05 1.86776e-05 1.91565)
(3.04283e-05 3.2869e-05 1.91565)
(3.65395e-05 3.65395e-05 1.91565)
(1.02598e-05 2.127e-05 1.91565)
(1.28193e-05 9.63793e-07 1.91565)
(2.37332e-05 3.49549e-06 1.91565)
(3.71926e-05 1.02608e-05 1.91565)
(2.127e-05 1.02598e-05 1.91565)
(-5.0087e-06 -5.0087e-06 1.91565)
(7.82786e-06 7.82786e-06 1.94165)
(-3.70489e-06 -2.2915e-06 1.94165)
(-3.77145e-06 2.18864e-06 1.94165)
(9.43203e-06 1.04363e-05 1.94165)
(1.67074e-06 1.27633e-05 1.94166)
(-2.2915e-06 -3.70489e-06 1.94165)
(-9.34411e-06 -9.34411e-06 1.94165)
(8.95632e-06 7.33205e-07 1.94165)
(2.00067e-05 1.59923e-05 1.94165)
(3.9978e-06 2.45889e-05 1.94166)
(2.18864e-06 -3.77145e-06 1.94165)
(7.33205e-07 8.95632e-06 1.94165)
(2.1565e-05 2.1565e-05 1.94166)
(3.32877e-05 3.19832e-05 1.94166)
(1.02673e-05 3.80987e-05 1.94166)
(1.04363e-05 9.43203e-06 1.94165)
(1.59923e-05 2.00067e-05 1.94165)
(3.19832e-05 3.32877e-05 1.94166)
(3.65405e-05 3.65405e-05 1.94166)
(1.01133e-05 2.11641e-05 1.94166)
(1.27633e-05 1.67074e-06 1.94166)
(2.45889e-05 3.9978e-06 1.94166)
(3.80987e-05 1.02673e-05 1.94166)
(2.11641e-05 1.01133e-05 1.94166)
(-5.10907e-06 -5.10907e-06 1.94166)
(6.96142e-06 6.96142e-06 1.96601)
(-2.01123e-06 -1.56267e-06 1.96601)
(-2.66535e-07 2.60855e-06 1.96602)
(1.10153e-05 1.02991e-05 1.96602)
(2.30917e-06 1.23642e-05 1.96602)
(-1.56267e-06 -2.01123e-06 1.96601)
(-6.3641e-06 -6.3641e-06 1.96601)
(1.15952e-05 2.96559e-06 1.96602)
(2.0771e-05 1.70803e-05 1.96602)
(4.37428e-06 2.47649e-05 1.96602)
(2.60855e-06 -2.66535e-07 1.96602)
(2.96559e-06 1.15952e-05 1.96602)
(2.31779e-05 2.31779e-05 1.96602)
(3.28146e-05 3.26607e-05 1.96602)
(9.99378e-06 3.79771e-05 1.96602)
(1.02991e-05 1.10153e-05 1.96602)
(1.70803e-05 2.0771e-05 1.96602)
(3.26607e-05 3.28146e-05 1.96602)
(3.55702e-05 3.55702e-05 1.96602)
(9.69069e-06 2.04661e-05 1.96602)
(1.23642e-05 2.30917e-06 1.96602)
(2.47649e-05 4.37428e-06 1.96602)
(3.79771e-05 9.99378e-06 1.96602)
(2.04661e-05 9.69069e-06 1.96602)
(-5.1103e-06 -5.1103e-06 1.96602)
(5.87126e-06 5.87126e-06 1.98814)
(-4.05448e-07 -8.49411e-07 1.98814)
(3.07619e-06 2.90948e-06 1.98814)
(1.21927e-05 9.85319e-06 1.98814)
(2.83984e-06 1.16054e-05 1.98814)
(-8.49411e-07 -4.05448e-07 1.98814)
(-3.36722e-06 -3.36722e-06 1.98814)
(1.37788e-05 4.98403e-06 1.98814)
(2.08887e-05 1.76068e-05 1.98814)
(4.5921e-06 2.41906e-05 1.98814)
(2.90948e-06 3.07619e-06 1.98814)
(4.98403e-06 1.37788e-05 1.98814)
(2.40502e-05 2.40502e-05 1.98815)
(3.13993e-05 3.23655e-05 1.98814)
(9.42366e-06 3.67535e-05 1.98814)
(9.85319e-06 1.21927e-05 1.98814)
(1.76068e-05 2.08887e-05 1.98814)
(3.23655e-05 3.13993e-05 1.98814)
(3.3592e-05 3.3592e-05 1.98814)
(8.98006e-06 1.91343e-05 1.98814)
(1.16054e-05 2.83984e-06 1.98814)
(2.41906e-05 4.5921e-06 1.98814)
(3.67535e-05 9.42366e-06 1.98814)
(1.91343e-05 8.98006e-06 1.98814)
(-5.03402e-06 -5.03402e-06 1.98814)
(4.54482e-06 4.54482e-06 2.00748)
(9.61386e-07 -2.16299e-07 2.00748)
(6.03441e-06 3.03581e-06 2.00748)
(1.28271e-05 9.06044e-06 2.00748)
(3.20929e-06 1.04563e-05 2.00748)
(-2.16299e-07 9.61386e-07 2.00748)
(-5.47622e-07 -5.47622e-07 2.00748)
(1.53111e-05 6.61667e-06 2.00748)
(2.02477e-05 1.74365e-05 2.00748)
(4.6052e-06 2.27587e-05 2.00748)
(3.03581e-06 6.03441e-06 2.00748)
(6.61667e-06 1.53111e-05 2.00748)
(2.40186e-05 2.40186e-05 2.00748)
(2.89692e-05 3.09662e-05 2.00748)
(8.53148e-06 3.43227e-05 2.00748)
(9.06044e-06 1.28271e-05 2.00748)
(1.74365e-05 2.02477e-05 2.00748)
(3.09662e-05 2.89692e-05 2.00748)
(3.05518e-05 3.05518e-05 2.00748)
(7.96169e-06 1.71034e-05 2.00747)
(1.04563e-05 3.20929e-06 2.00748)
(2.27587e-05 4.6052e-06 2.00748)
(3.43227e-05 8.53148e-06 2.00748)
(1.71034e-05 7.96169e-06 2.00747)
(-4.91695e-06 -4.91695e-06 2.00747)
(2.96118e-06 2.96118e-06 2.02356)
(1.86673e-06 2.31845e-07 2.02355)
(8.28121e-06 2.89256e-06 2.02356)
(1.27156e-05 7.84591e-06 2.02356)
(3.33998e-06 8.84928e-06 2.02356)
(2.31845e-07 1.86673e-06 2.02355)
(1.79811e-06 1.79811e-06 2.02355)
(1.58953e-05 7.59247e-06 2.02356)
(1.86724e-05 1.6343e-05 2.02355)
(4.34335e-06 2.02758e-05 2.02355)
(2.89256e-06 8.28121e-06 2.02356)
(7.59247e-06 1.58953e-05 2.02356)
(2.28261e-05 2.28261e-05 2.02356)
(2.5399e-05 2.82489e-05 2.02355)
(7.27278e-06 3.05071e-05 2.02355)
(7.84591e-06 1.27156e-05 2.02356)
(1.6343e-05 1.86724e-05 2.02355)
(2.82489e-05 2.5399e-05 2.02355)
(2.63534e-05 2.63534e-05 2.02355)
(6.60154e-06 1.42682e-05 2.02354)
(8.84928e-06 3.33998e-06 2.02356)
(2.02758e-05 4.34335e-06 2.02355)
(3.05071e-05 7.27278e-06 2.02355)
(1.42682e-05 6.60154e-06 2.02354)
(-4.8124e-06 -4.8124e-06 2.02354)
(1.14603e-06 1.14603e-06 2.03598)
(2.00915e-06 3.18929e-07 2.03598)
(9.29e-06 2.31321e-06 2.03598)
(1.15464e-05 6.06233e-06 2.03598)
(3.11953e-06 6.64271e-06 2.03597)
(3.18929e-07 2.00915e-06 2.03598)
(3.17633e-06 3.17633e-06 2.03598)
(1.50334e-05 7.44668e-06 2.03598)
(1.58759e-05 1.3913e-05 2.03597)
(3.69992e-06 1.637e-05 2.03597)
(2.31321e-06 9.29e-06 2.03598)
(7.44668e-06 1.50334e-05 2.03598)
(2.00266e-05 2.00266e-05 2.03598)
(2.04697e-05 2.38305e-05 2.03597)
(5.5766e-06 2.49843e-05 2.03597)
(6.06233e-06 1.15464e-05 2.03598)
(1.3913e-05 1.58759e-05 2.03597)
(2.38305e-05 2.04697e-05 2.03597)
(2.08335e-05 2.08335e-05 2.03596)
(4.85368e-06 1.04893e-05 2.03596)
(6.64271e-06 3.11953e-06 2.03597)
(1.637e-05 3.69992e-06 2.03597)
(2.49843e-05 5.5766e-06 2.03597)
(1.04893e-05 4.85368e-06 2.03596)
(-4.76764e-06 -4.76764e-06 2.03596)
(-5.4111e-07 -5.4111e-07 2.04444)
(1.18627e-06 -1.53774e-07 2.04444)
(8.17654e-06 1.10092e-06 2.04444)
(8.8547e-06 3.52378e-06 2.04443)
(2.40554e-06 3.67606e-06 2.04443)
(-1.53773e-07 1.18627e-06 2.04444)
(2.8283e-06 2.8283e-06 2.04444)
(1.18541e-05 5.45009e-06 2.04443)
(1.14298e-05 9.47496e-06 2.04443)
(2.55783e-06 1.0468e-05 2.04442)
(1.10092e-06 8.17654e-06 2.04444)
(5.45009e-06 1.18541e-05 2.04443)
(1.48232e-05 1.48232e-05 2.04443)
(1.38727e-05 1.70137e-05 2.04442)
(3.39863e-06 1.71969e-05 2.04442)
(3.52378e-06 8.8547e-06 2.04443)
(9.47496e-06 1.14298e-05 2.04443)
(1.70137e-05 1.38727e-05 2.04442)
(1.38036e-05 1.38036e-05 2.04441)
(2.74106e-06 5.75567e-06 2.0444)
(3.67606e-06 2.40554e-06 2.04443)
(1.0468e-05 2.55783e-06 2.04442)
(1.71969e-05 3.39863e-06 2.04442)
(5.75567e-06 2.74106e-06 2.0444)
(-4.64928e-06 -4.64928e-06 2.04441)
(-6.6256e-07 -6.6256e-07 2.04872)
(3.24124e-07 -3.59798e-07 2.04872)
(3.95349e-06 7.50818e-08 2.04872)
(4.06467e-06 1.02794e-06 2.04871)
(1.09787e-06 1.09299e-06 2.04871)
(-3.59798e-07 3.24124e-07 2.04872)
(1.06177e-06 1.06177e-06 2.04872)
(5.34123e-06 1.94295e-06 2.04872)
(5.08259e-06 3.41618e-06 2.04871)
(1.16292e-06 3.66319e-06 2.0487)
(7.50818e-08 3.95349e-06 2.04872)
(1.94295e-06 5.34123e-06 2.04872)
(6.3079e-06 6.3079e-06 2.04871)
(5.78491e-06 7.02104e-06 2.0487)
(1.34488e-06 6.91412e-06 2.04869)
(1.02794e-06 4.06467e-06 2.04871)
(3.41618e-06 5.08259e-06 2.04871)
(7.02104e-06 5.78491e-06 2.0487)
(5.6888e-06 5.6888e-06 2.04868)
(1.056e-06 1.39118e-06 2.04868)
(1.09299e-06 1.09787e-06 2.04871)
(3.66319e-06 1.16292e-06 2.0487)
(6.91412e-06 1.34488e-06 2.04869)
(1.39118e-06 1.056e-06 2.04868)
(-2.95274e-06 -2.95274e-06 2.04868)
)
;

boundaryField
{
    wall_minX
    {
        type            calculated;
        value           nonuniform List<vector> 
100
(
(0 2.99744e-06 1.70135)
(0 -1.13473e-06 1.70136)
(0 -5.60977e-06 1.70135)
(0 -1.97906e-06 1.70134)
(0 -5.01456e-07 1.70134)
(0 5.48582e-06 1.70562)
(0 -4.34066e-06 1.70563)
(0 -1.3591e-05 1.70562)
(0 -5.50272e-06 1.70561)
(0 -1.73816e-06 1.70561)
(0 5.91537e-06 1.71406)
(0 -7.80738e-06 1.71406)
(0 -1.85195e-05 1.71406)
(0 -7.809e-06 1.71406)
(0 -3.01225e-06 1.71406)
(0 6.49151e-06 1.72646)
(0 -9.88351e-06 1.72647)
(0 -2.09968e-05 1.72646)
(0 -8.05483e-06 1.72646)
(0 -3.43303e-06 1.72646)
(0 7.17696e-06 1.74252)
(0 -1.09442e-05 1.74252)
(0 -2.18918e-05 1.74252)
(0 -7.15992e-06 1.74252)
(0 -3.38935e-06 1.74252)
(0 7.85056e-06 1.76185)
(0 -1.12885e-05 1.76185)
(0 -2.16664e-05 1.76185)
(0 -5.59758e-06 1.76185)
(0 -3.07018e-06 1.76185)
(0 8.42538e-06 1.78395)
(0 -1.11036e-05 1.78396)
(0 -2.05895e-05 1.78396)
(0 -3.63442e-06 1.78396)
(0 -2.57394e-06 1.78396)
(0 8.84526e-06 1.80831)
(0 -1.05071e-05 1.80831)
(0 -1.88325e-05 1.80831)
(0 -1.4402e-06 1.80831)
(0 -1.96003e-06 1.80831)
(0 9.07547e-06 1.8343)
(0 -9.578e-06 1.8343)
(0 -1.65199e-05 1.8343)
(0 8.64333e-07 1.83431)
(0 -1.26924e-06 1.83431)
(0 9.09582e-06 1.8613)
(0 -8.37724e-06 1.8613)
(0 -1.37558e-05 1.8613)
(0 3.18387e-06 1.86131)
(0 -5.33374e-07 1.86131)
(0 8.89617e-06 1.88864)
(0 -6.95942e-06 1.88864)
(0 -1.06393e-05 1.88864)
(0 5.4361e-06 1.88865)
(0 2.19841e-07 1.88865)
(0 8.47325e-06 1.91564)
(0 -5.38066e-06 1.91564)
(0 -7.27331e-06 1.91565)
(0 7.5444e-06 1.91565)
(0 9.63793e-07 1.91565)
(0 7.82786e-06 1.94165)
(0 -3.70489e-06 1.94165)
(0 -3.77145e-06 1.94165)
(0 9.43203e-06 1.94165)
(0 1.67074e-06 1.94166)
(0 6.96142e-06 1.96601)
(0 -2.01123e-06 1.96601)
(0 -2.66535e-07 1.96602)
(0 1.10153e-05 1.96602)
(0 2.30917e-06 1.96602)
(0 5.87126e-06 1.98814)
(0 -4.05448e-07 1.98814)
(0 3.07619e-06 1.98814)
(0 1.21927e-05 1.98814)
(0 2.83984e-06 1.98814)
(0 4.54482e-06 2.00748)
(0 9.61386e-07 2.00748)
(0 6.03441e-06 2.00748)
(0 1.28271e-05 2.00748)
(0 3.20929e-06 2.00748)
(0 2.96118e-06 2.02356)
(0 1.86673e-06 2.02355)
(0 8.28121e-06 2.02356)
(0 1.27156e-05 2.02356)
(0 3.33998e-06 2.02356)
(0 1.14603e-06 2.03598)
(0 2.00915e-06 2.03598)
(0 9.29e-06 2.03598)
(0 1.15464e-05 2.03598)
(0 3.11953e-06 2.03597)
(0 -5.4111e-07 2.04444)
(0 1.18627e-06 2.04444)
(0 8.17654e-06 2.04444)
(0 8.8547e-06 2.04443)
(0 2.40554e-06 2.04443)
(0 -6.6256e-07 2.04872)
(0 3.24124e-07 2.04872)
(0 3.95349e-06 2.04872)
(0 4.06467e-06 2.04871)
(0 1.09787e-06 2.04871)
)
;
    }
    wall_maxX
    {
        type            calculated;
        value           nonuniform List<vector> 
100
(
(0 3.86794e-07 1.70134)
(0 -1.31722e-06 1.70134)
(0 -1.38482e-06 1.70133)
(0 1.32713e-06 1.70134)
(0 1.00794e-06 1.70134)
(0 1.33018e-06 1.70561)
(0 -1.79679e-06 1.70561)
(0 -1.55809e-06 1.70561)
(0 3.28535e-06 1.70562)
(0 1.71646e-06 1.70562)
(0 2.45744e-06 1.71406)
(0 -6.11131e-07 1.71406)
(0 8.44439e-07 1.71406)
(0 4.86077e-06 1.71406)
(0 9.4776e-07 1.71406)
(0 3.88237e-06 1.72646)
(0 1.77698e-06 1.72646)
(0 4.94881e-06 1.72647)
(0 6.92108e-06 1.72647)
(0 -1.33119e-07 1.72647)
(0 5.46674e-06 1.74252)
(0 4.83346e-06 1.74253)
(0 9.85044e-06 1.74253)
(0 9.32886e-06 1.74254)
(0 -1.15485e-06 1.74254)
(0 7.07062e-06 1.76185)
(0 8.18e-06 1.76185)
(0 1.50144e-05 1.76186)
(0 1.18536e-05 1.76186)
(0 -2.05148e-06 1.76186)
(0 8.58857e-06 1.78396)
(0 1.15557e-05 1.78396)
(0 2.00905e-05 1.78397)
(0 1.42976e-05 1.78397)
(0 -2.82576e-06 1.78397)
(0 9.94423e-06 1.80831)
(0 1.47751e-05 1.80832)
(0 2.48286e-05 1.80832)
(0 1.65116e-05 1.80832)
(0 -3.48616e-06 1.80832)
(0 1.10816e-05 1.83431)
(0 1.76998e-05 1.83431)
(0 2.90403e-05 1.83432)
(0 1.83862e-05 1.83432)
(0 -4.03583e-06 1.83432)
(0 1.1959e-05 1.86131)
(0 2.02226e-05 1.86131)
(0 3.25786e-05 1.86131)
(0 1.98412e-05 1.86132)
(0 -4.47386e-06 1.86132)
(0 1.25457e-05 1.88865)
(0 2.22573e-05 1.88865)
(0 3.53271e-05 1.88865)
(0 2.08173e-05 1.88865)
(0 -4.79826e-06 1.88865)
(0 1.28193e-05 1.91565)
(0 2.37332e-05 1.91565)
(0 3.71926e-05 1.91565)
(0 2.127e-05 1.91565)
(0 -5.0087e-06 1.91565)
(0 1.27633e-05 1.94166)
(0 2.45889e-05 1.94166)
(0 3.80987e-05 1.94166)
(0 2.11641e-05 1.94166)
(0 -5.10907e-06 1.94166)
(0 1.23642e-05 1.96602)
(0 2.47649e-05 1.96602)
(0 3.79771e-05 1.96602)
(0 2.04661e-05 1.96602)
(0 -5.1103e-06 1.96602)
(0 1.16054e-05 1.98814)
(0 2.41906e-05 1.98814)
(0 3.67535e-05 1.98814)
(0 1.91343e-05 1.98814)
(0 -5.03402e-06 1.98814)
(0 1.04563e-05 2.00748)
(0 2.27587e-05 2.00748)
(0 3.43227e-05 2.00748)
(0 1.71034e-05 2.00747)
(0 -4.91695e-06 2.00747)
(0 8.84928e-06 2.02356)
(0 2.02758e-05 2.02355)
(0 3.05071e-05 2.02355)
(0 1.42682e-05 2.02354)
(0 -4.8124e-06 2.02354)
(0 6.64271e-06 2.03597)
(0 1.637e-05 2.03597)
(0 2.49843e-05 2.03597)
(0 1.04893e-05 2.03596)
(0 -4.76764e-06 2.03596)
(0 3.67606e-06 2.04443)
(0 1.0468e-05 2.04442)
(0 1.71969e-05 2.04442)
(0 5.75567e-06 2.0444)
(0 -4.64928e-06 2.04441)
(0 1.09299e-06 2.04871)
(0 3.66319e-06 2.0487)
(0 6.91412e-06 2.04869)
(0 1.39118e-06 2.04868)
(0 -2.95274e-06 2.04868)
)
;
    }
    wall_minY
    {
        type            calculated;
        value           nonuniform List<vector> 
100
(
(2.99744e-06 0 1.70135)
(5.48582e-06 0 1.70562)
(5.91537e-06 0 1.71406)
(6.49151e-06 0 1.72646)
(7.17696e-06 0 1.74252)
(7.85056e-06 0 1.76185)
(8.42538e-06 0 1.78395)
(8.84526e-06 0 1.80831)
(9.07547e-06 0 1.8343)
(9.09582e-06 0 1.8613)
(8.89617e-06 0 1.88864)
(8.47325e-06 0 1.91564)
(7.82786e-06 0 1.94165)
(6.96142e-06 0 1.96601)
(5.87126e-06 0 1.98814)
(4.54482e-06 0 2.00748)
(2.96118e-06 0 2.02356)
(1.14603e-06 0 2.03598)
(-5.4111e-07 0 2.04444)
(-6.6256e-07 0 2.04872)
(-1.13473e-06 0 1.70136)
(-4.34066e-06 0 1.70563)
(-7.80738e-06 0 1.71406)
(-9.88351e-06 0 1.72647)
(-1.09442e-05 0 1.74252)
(-1.12885e-05 0 1.76185)
(-1.11036e-05 0 1.78396)
(-1.05071e-05 0 1.80831)
(-9.578e-06 0 1.8343)
(-8.37724e-06 0 1.8613)
(-6.95942e-06 0 1.88864)
(-5.38066e-06 0 1.91564)
(-3.70489e-06 0 1.94165)
(-2.01123e-06 0 1.96601)
(-4.05448e-07 0 1.98814)
(9.61386e-07 0 2.00748)
(1.86673e-06 0 2.02355)
(2.00915e-06 0 2.03598)
(1.18627e-06 0 2.04444)
(3.24124e-07 0 2.04872)
(-5.60977e-06 0 1.70135)
(-1.3591e-05 0 1.70562)
(-1.85195e-05 0 1.71406)
(-2.09968e-05 0 1.72646)
(-2.18918e-05 0 1.74252)
(-2.16664e-05 0 1.76185)
(-2.05895e-05 0 1.78396)
(-1.88325e-05 0 1.80831)
(-1.65199e-05 0 1.8343)
(-1.37558e-05 0 1.8613)
(-1.06393e-05 0 1.88864)
(-7.27331e-06 0 1.91565)
(-3.77145e-06 0 1.94165)
(-2.66535e-07 0 1.96602)
(3.07619e-06 0 1.98814)
(6.03441e-06 0 2.00748)
(8.28121e-06 0 2.02356)
(9.29e-06 0 2.03598)
(8.17654e-06 0 2.04444)
(3.95349e-06 0 2.04872)
(-1.97906e-06 0 1.70134)
(-5.50272e-06 0 1.70561)
(-7.809e-06 0 1.71406)
(-8.05483e-06 0 1.72646)
(-7.15992e-06 0 1.74252)
(-5.59758e-06 0 1.76185)
(-3.63442e-06 0 1.78396)
(-1.4402e-06 0 1.80831)
(8.64333e-07 0 1.83431)
(3.18387e-06 0 1.86131)
(5.4361e-06 0 1.88865)
(7.5444e-06 0 1.91565)
(9.43203e-06 0 1.94165)
(1.10153e-05 0 1.96602)
(1.21927e-05 0 1.98814)
(1.28271e-05 0 2.00748)
(1.27156e-05 0 2.02356)
(1.15464e-05 0 2.03598)
(8.8547e-06 0 2.04443)
(4.06467e-06 0 2.04871)
(-5.01456e-07 0 1.70134)
(-1.73816e-06 0 1.70561)
(-3.01225e-06 0 1.71406)
(-3.43303e-06 0 1.72646)
(-3.38935e-06 0 1.74252)
(-3.07018e-06 0 1.76185)
(-2.57394e-06 0 1.78396)
(-1.96003e-06 0 1.80831)
(-1.26924e-06 0 1.83431)
(-5.33374e-07 0 1.86131)
(2.19841e-07 0 1.88865)
(9.63793e-07 0 1.91565)
(1.67074e-06 0 1.94166)
(2.30917e-06 0 1.96602)
(2.83984e-06 0 1.98814)
(3.20929e-06 0 2.00748)
(3.33998e-06 0 2.02356)
(3.11953e-06 0 2.03597)
(2.40554e-06 0 2.04443)
(1.09787e-06 0 2.04871)
)
;
    }
    wall_maxY
    {
        type            calculated;
        value           nonuniform List<vector> 
100
(
(3.86794e-07 0 1.70134)
(1.33018e-06 0 1.70561)
(2.45744e-06 0 1.71406)
(3.88237e-06 0 1.72646)
(5.46674e-06 0 1.74252)
(7.07062e-06 0 1.76185)
(8.58857e-06 0 1.78396)
(9.94423e-06 0 1.80831)
(1.10816e-05 0 1.83431)
(1.1959e-05 0 1.86131)
(1.25457e-05 0 1.88865)
(1.28193e-05 0 1.91565)
(1.27633e-05 0 1.94166)
(1.23642e-05 0 1.96602)
(1.16054e-05 0 1.98814)
(1.04563e-05 0 2.00748)
(8.84928e-06 0 2.02356)
(6.64271e-06 0 2.03597)
(3.67606e-06 0 2.04443)
(1.09299e-06 0 2.04871)
(-1.31722e-06 0 1.70134)
(-1.79679e-06 0 1.70561)
(-6.11131e-07 0 1.71406)
(1.77698e-06 0 1.72646)
(4.83346e-06 0 1.74253)
(8.18e-06 0 1.76185)
(1.15557e-05 0 1.78396)
(1.47751e-05 0 1.80832)
(1.76998e-05 0 1.83431)
(2.02226e-05 0 1.86131)
(2.22573e-05 0 1.88865)
(2.37332e-05 0 1.91565)
(2.45889e-05 0 1.94166)
(2.47649e-05 0 1.96602)
(2.41906e-05 0 1.98814)
(2.27587e-05 0 2.00748)
(2.02758e-05 0 2.02355)
(1.637e-05 0 2.03597)
(1.0468e-05 0 2.04442)
(3.66319e-06 0 2.0487)
(-1.38482e-06 0 1.70133)
(-1.55809e-06 0 1.70561)
(8.44439e-07 0 1.71406)
(4.94881e-06 0 1.72647)
(9.85044e-06 0 1.74253)
(1.50144e-05 0 1.76186)
(2.00905e-05 0 1.78397)
(2.48286e-05 0 1.80832)
(2.90403e-05 0 1.83432)
(3.25786e-05 0 1.86131)
(3.53271e-05 0 1.88865)
(3.71926e-05 0 1.91565)
(3.80987e-05 0 1.94166)
(3.79771e-05 0 1.96602)
(3.67535e-05 0 1.98814)
(3.43227e-05 0 2.00748)
(3.05071e-05 0 2.02355)
(2.49843e-05 0 2.03597)
(1.71969e-05 0 2.04442)
(6.91412e-06 0 2.04869)
(1.32713e-06 0 1.70134)
(3.28535e-06 0 1.70562)
(4.86077e-06 0 1.71406)
(6.92108e-06 0 1.72647)
(9.32886e-06 0 1.74254)
(1.18536e-05 0 1.76186)
(1.42976e-05 0 1.78397)
(1.65116e-05 0 1.80832)
(1.83862e-05 0 1.83432)
(1.98412e-05 0 1.86132)
(2.08173e-05 0 1.88865)
(2.127e-05 0 1.91565)
(2.11641e-05 0 1.94166)
(2.04661e-05 0 1.96602)
(1.91343e-05 0 1.98814)
(1.71034e-05 0 2.00747)
(1.42682e-05 0 2.02354)
(1.04893e-05 0 2.03596)
(5.75567e-06 0 2.0444)
(1.39118e-06 0 2.04868)
(1.00794e-06 0 1.70134)
(1.71646e-06 0 1.70562)
(9.4776e-07 0 1.71406)
(-1.33119e-07 0 1.72647)
(-1.15485e-06 0 1.74254)
(-2.05148e-06 0 1.76186)
(-2.82576e-06 0 1.78397)
(-3.48616e-06 0 1.80832)
(-4.03583e-06 0 1.83432)
(-4.47386e-06 0 1.86132)
(-4.79826e-06 0 1.88865)
(-5.0087e-06 0 1.91565)
(-5.10907e-06 0 1.94166)
(-5.1103e-06 0 1.96602)
(-5.03402e-06 0 1.98814)
(-4.91695e-06 0 2.00747)
(-4.8124e-06 0 2.02354)
(-4.76764e-06 0 2.03596)
(-4.64928e-06 0 2.04441)
(-2.95274e-06 0 2.04868)
)
;
    }
    inlet_minZ
    {
        type            calculated;
        value           nonuniform List<vector> 
25
(
(2.99744e-06 2.99744e-06 1.70028)
(-7.82633e-07 -1.13473e-06 1.70029)
(-4.02893e-07 -5.60977e-06 1.70027)
(6.5758e-08 -1.97906e-06 1.70027)
(3.86794e-07 -5.01456e-07 1.70026)
(-1.13473e-06 -7.82633e-07 1.70029)
(-4.53506e-06 -4.53506e-06 1.70029)
(-3.6665e-06 -4.76138e-06 1.70027)
(-2.54205e-06 -1.18938e-06 1.70027)
(-1.31722e-06 -1.8042e-07 1.70027)
(-5.60977e-06 -4.02893e-07 1.70027)
(-4.76138e-06 -3.6665e-06 1.70027)
(-3.61676e-06 -3.61676e-06 1.70026)
(-2.55265e-06 3.7022e-07 1.70026)
(-1.38482e-06 7.23372e-07 1.70026)
(-1.97906e-06 6.5758e-08 1.70027)
(-1.18938e-06 -2.54205e-06 1.70027)
(3.7022e-07 -2.55265e-06 1.70026)
(1.04257e-06 1.04257e-06 1.70026)
(1.32713e-06 9.87409e-07 1.70026)
(-5.01456e-07 3.86794e-07 1.70026)
(-1.8042e-07 -1.31722e-06 1.70027)
(7.23372e-07 -1.38482e-06 1.70026)
(9.87409e-07 1.32713e-06 1.70026)
(1.00794e-06 1.00794e-06 1.70026)
)
;
    }
    outlet_maxZ
    {
        type            calculated;
        value           nonuniform List<vector> 
25
(
(-6.6256e-07 -6.6256e-07 2.0498)
(-3.59798e-07 3.24124e-07 2.0498)
(7.50818e-08 3.95349e-06 2.0498)
(1.02794e-06 4.06467e-06 2.04978)
(1.09299e-06 1.09787e-06 2.04978)
(3.24124e-07 -3.59798e-07 2.0498)
(1.06177e-06 1.06177e-06 2.0498)
(1.94295e-06 5.34123e-06 2.0498)
(3.41618e-06 5.08259e-06 2.04978)
(3.66319e-06 1.16292e-06 2.04978)
(3.95349e-06 7.50818e-08 2.0498)
(5.34123e-06 1.94295e-06 2.0498)
(6.3079e-06 6.3079e-06 2.04979)
(7.02104e-06 5.78491e-06 2.04977)
(6.91412e-06 1.34488e-06 2.04977)
(4.06467e-06 1.02794e-06 2.04978)
(5.08259e-06 3.41618e-06 2.04978)
(5.78491e-06 7.02104e-06 2.04977)