/*--------------------------------*- C++ -*----------------------------------*\
| =========                 |                                                 |
| \\      /  F ield         | OpenFOAM: The Open Source CFD Toolbox           |
|  \\    /   O peration     | Version:  v2106                                 |
|   \\  /    A nd           | Website:  www.openfoam.com                      |
|    \\/     M anipulation  |                                                 |
\*---------------------------------------------------------------------------*/
FoamFile
{
    version     2.0;
    format      ascii;
    arch        "LSB;label=32;scalar=64";
    class       volScalarField;
    location    "20";
    object      gradTx;
}
// * * * * * * * * * * * * * * * * * * * * * * * * * * * * * * * * * * * * * //

dimensions      [0 -1 0 1 0 0 0];

internalField   nonuniform List<scalar> 
500
(
0.00119897
-0.000453892
-0.00224391
-0.000791625
-0.000200582
-0.000313053
-0.00181402
-0.00190455
-0.00047575
-7.2168e-05
-0.000161157
-0.0014666
-0.0014467
0.000148088
0.000289349
2.63032e-05
-0.00101682
-0.00102106
0.000417026
0.000394964
0.000154718
-0.000526887
-0.000553928
0.000530853
0.000403176
0.00219433
-0.00173626
-0.00543641
-0.00220109
-0.000695264
-0.000760638
-0.00430753
-0.00444096
-0.00129208
-0.000398003
-0.000376935
-0.00335183
-0.00309345
0.000432031
0.000550579
0.000234811
-0.00196456
-0.00184297
0.00117813
0.000821732
0.000532072
-0.000718717
-0.000623234
0.00131414
0.000686585
0.00236615
-0.00312295
-0.0074078
-0.0031236
-0.0012049
-0.0013727
-0.00621009
-0.00560442
-0.00141963
-0.000652605
-0.000720989
-0.00462473
-0.00341763
0.00125667
0.000770565
0.000430681
-0.00221992
-0.00142393
0.00233577
0.0011091
0.000982975
-0.000244453
0.000337776
0.00194431
0.000379104
0.0025966
-0.00395341
-0.00839873
-0.00322193
-0.00137321
-0.00174752
-0.00737866
-0.00582023
-0.000840332
-0.000651242
-0.00082865
-0.00518406
-0.0028544
0.00267292
0.00117191
0.00083098
-0.00183433
-0.000196872
0.00399359
0.00152515
0.00155295
0.000710794
0.00197952
0.00276843
-5.32475e-05
0.00287079
-0.00437769
-0.0087567
-0.00286397
-0.00135574
-0.00195621
-0.00803629
-0.0054646
0.000110547
-0.000504934
-0.000787818
-0.00528173
-0.00179985
0.00435115
0.00165709
0.00133589
-0.00107944
0.00143675
0.00585058
0.00199849
0.0021867
0.00193339
0.00394017
0.00373154
-0.000461942
0.00314022
-0.00451539
-0.00866657
-0.00223903
-0.00122807
-0.00204799
-0.00831366
-0.00474288
0.00124727
-0.000275523
-0.000658053
-0.00506751
-0.000474818
0.00610048
0.00216584
0.0018757
-0.000121914
0.0032506
0.00772786
0.00247965
0.00282825
0.003272
0.00600577
0.00474142
-0.000820593
0.00337015
-0.00444144
-0.00823579
-0.00145377
-0.00102958
-0.0020512
-0.00828572
-0.00377824
0.00245578
-4.88342e-07
-0.00047412
-0.00462916
0.000984907
0.00779768
0.00265773
0.00240634
0.000934979
0.00510235
0.00950706
0.00293336
0.00343543
0.00462229
0.00803619
0.00571903
-0.00113031
0.0035381
-0.00420283
-0.00753301
-0.000576082
-0.000784012
-0.00198298
-0.00799876
-0.00265205
0.00365943
0.000295709
-0.000257823
-0.00402271
0.00248732
0.00935665
0.00310445
0.00289797
0.00202157
0.00689316
0.0111036
0.00333399
0.00397769
0.00591003
0.00993144
0.00660464
-0.00139446
0.00363019
-0.0038312
-0.00660796
0.000345733
-0.000507697
-0.00185477
-0.00748554
-0.00142412
0.00480252
0.00059586
-2.41557e-05
-0.00328836
0.0039642
0.010714
0.00348562
0.00332907
0.00308661
0.00854899
0.0124544
0.003663
0.00443263
0.00707992
0.0116161
0.0073545
-0.00161433
0.00363833
-0.0033509
-0.00550232
0.00127355
-0.00021335
-0.00167546
-0.00677377
-0.000143402
0.0058417
0.000886787
0.000215452
-0.00245904
0.00536085
0.0118216
0.00378627
0.00368346
0.00408941
0.0100113
0.0135123
0.00390694
0.0047836
0.00808903
0.0130315
0.00793649
-0.00178954
0.00355847
-0.00278377
-0.00425573
0.00217444
8.79363e-05
-0.00145328
-0.0058909
0.00114626
0.0067414
0.00115752
0.000451334
-0.00156496
0.00663076
0.0126423
0.00399528
0.00394871
0.00499559
0.0112322
0.0142415
0.00405619
0.00501829
0.00890293
0.0141308
0.00832691
-0.0019193
0.0033893
-0.00215227
-0.00290932
0.00301776
0.000385517
-0.00119694
-0.00486711
0.00240266
0.00747103
0.0013982
0.000674456
-0.000636552
0.00773229
0.0131476
0.00410431
0.00411505
0.0057745
0.0121713
0.0146158
0.00410394
0.00512773
0.00949329
0.014877
0.008508
-0.00200348
0.00313114
-0.00148196
-0.00150858
0.00377281
0.000668295
-0.000916599
-0.00373764
0.00358253
0.0080027
0.00159912
0.000875455
0.000293282
0.00862599
0.0133151
0.00410693
0.00417451
0.00639692
0.0127933
0.0146162
0.00404531
0.00510534
0.00983556
0.0152395
0.00846564
-0.00204363
0.00278457
-0.000804491
-0.000106614
0.00440611
0.000923667
-0.000625069
-0.00254564
0.0046381
0.00830838
0.00174971
0.00104342
0.00118624
0.00927116
0.0131259
0.00399751
0.00411964
0.00683213
0.0130643
0.0142281
0.00387628
0.00494569
0.00990597
0.0151909
0.00818645
-0.00204412
0.0023485
-0.000162179
0.00123048
0.0048771
0.00113594
-0.000339765
-0.00134689
0.00551152
0.00835548
0.00183684
0.00116379
0.00199361
0.00962007
0.0125597
0.00376946
0.00394128
0.00704271
0.0129462
0.0134368
0.00359203
0.00464218
0.00967623
0.0147014
0.00765372
-0.00201361
0.00181793
0.000384554
0.00241376
0.00513086
0.00128372
-8.65196e-05
-0.000219049
0.00612446
0.00809907
0.00184208
0.00121433
0.00264667
0.00960743
0.0115877
0.00341259
0.00362417
0.00697462
0.0123865
0.0122207
0.00318468
0.00418254
0.00910349
0.0137291
0.00684135
-0.00196678
0.00118447
0.00074669
0.00331248
0.00508626
0.00133599
9.27381e-05
0.000719242
0.00635811
0.00746894
0.00173734
0.00115702
0.00303699
0.00913045
0.0101596
0.00290911
0.00313836
0.00653721
0.0112996
0.0105413
0.00264062
0.00353971
0.00811033
0.0122028
0.00570727
-0.00192496
0.000458411
0.00080366
0.003716
0.00461856
0.00124781
0.000127572
0.00127053
0.00601336
0.00635037
0.00147997
0.000925283
0.00297867
0.00801065
0.0081879
0.00223064
0.00242493
0.00556518
0.0095322
0.00833342
0.00194147
0.00265709
0.00654801
0.0099937
0.00419572
-0.00190706
-0.000216444
0.000474509
0.00327062
0.00354188
0.000962218
-6.15094e-05
0.00113132
0.00474164
0.00457194
0.00102313
0.000440367
0.00218004
0.00592928
0.00554906
0.00135945
0.00140951
0.00378998
0.00680548
0.00552143
0.00109642
0.00147042
0.00418722
0.00687878
0.00230227
-0.00185971
-0.000265024
0.00012965
0.0015814
0.00162587
0.000439147
-0.000143919
0.000424706
0.00213649
0.00203303
0.00046517
3.00327e-05
0.000777181
0.00252316
0.00231396
0.000537952
0.000411175
0.00136647
0.00280841
0.00227552
0.000422401
0.000437198
0.00146527
0.00276565
0.000556474
-0.0011811
)
;

boundaryField
{
    wall_minX
    {
        type            calculated;
        value           uniform 0;
    }
    wall_maxX
    {
        type            calculated;
        value           uniform 0;
    }
    wall_minY
    {
        type            calculated;
        value           nonuniform List<scalar> 
100
(
0.00119897
0.00219433
0.00236615
0.0025966
0.00287079
0.00314022
0.00337015
0.0035381
0.00363019
0.00363833
0.00355847
0.0033893
0.00313114
0.00278457
0.0023485
0.00181793
0.00118447
0.000458411
-0.000216444
-0.000265024
-0.000453892
-0.00173626
-0.00312295
-0.00395341
-0.00437769
-0.00451539
-0.00444144
-0.00420283
-0.0038312
-0.0033509
-0.00278377
-0.00215227
-0.00148196
-0.000804491
-0.000162179
0.000384554
0.00074669
0.00080366
0.000474509
0.00012965
-0.00224391
-0.00543641
-0.0074078
-0.00839873
-0.0087567
-0.00866657
-0.00823579
-0.00753301
-0.00660796
-0.00550232
-0.00425573
-0.00290932
-0.00150858
-0.000106614
0.00123048
0.00241376
0.00331248
0.003716
0.00327062
0.0015814
-0.000791625
-0.00220109
-0.0031236
-0.00322193
-0.00286397
-0.00223903
-0.00145377
-0.000576082
0.000345733
0.00127355
0.00217444
0.00301776
0.00377281
0.00440611
0.0048771
0.00513086
0.00508626
0.00461856
0.00354188
0.00162587
-0.000200582
-0.000695264
-0.0012049
-0.00137321
-0.00135574
-0.00122807
-0.00102958
-0.000784012
-0.000507697
-0.00021335
8.79363e-05
0.000385517
0.000668295
0.000923667
0.00113594
0.00128372
0.00133599
0.00124781
0.000962218
0.000439147
)
;
    }
    wall_maxY
    {
        type            calculated;
        value           nonuniform List<scalar> 
100
(
0.000154718
0.000532072
0.000982975
0.00155295
0.0021867
0.00282825
0.00343543
0.00397769
0.00443263
0.0047836
0.00501829
0.00512773
0.00510534
0.00494569
0.00464218
0.00418254
0.00353971
0.00265709
0.00147042
0.000437198
-0.000526887
-0.000718717
-0.000244453
0.000710794
0.00193339
0.003272
0.00462229
0.00591003
0.00707992
0.00808903
0.00890293
0.00949329
0.00983556
0.00990597
0.00967623
0.00910349
0.00811033
0.00654801
0.00418722
0.00146527
-0.000553928
-0.000623234
0.000337776
0.00197952
0.00394017
0.00600577
0.00803619
0.00993144
0.0116161
0.0130315
0.0141308
0.014877
0.0152395
0.0151909
0.0147014
0.0137291
0.0122028
0.0099937
0.00687878
0.00276565
0.000530853
0.00131414
0.00194431
0.00276843
0.00373154
0.00474142
0.00571903
0.00660464
0.0073545
0.00793649
0.00832691
0.008508
0.00846564
0.00818645
0.00765372
0.00684135
0.00570727
0.00419572
0.00230227
0.000556474
0.000403176
0.000686585
0.000379104
-5.32475e-05
-0.000461942
-0.000820593
-0.00113031
-0.00139446
-0.00161433
-0.00178954
-0.0019193
-0.00200348
-0.00204363
-0.00204412
-0.00201361
-0.00196678
-0.00192496
-0.00190706
-0.00185971
-0.0011811
)
;
    }
    inlet_minZ
    {
        type            calculated;
        value           nonuniform List<scalar> 
25
(
0.00119897
-0.000313053
-0.000161157
2.63032e-05
0.000154718
-0.000453892
-0.00181402
-0.0014666
-0.00101682
-0.000526887
-0.00224391
-0.00190455
-0.0014467
-0.00102106
-0.000553928
-0.000791625
-0.00047575
0.000148088
0.000417026
0.000530853
-0.000200582
-7.2168e-05
0.000289349
0.000394964
0.000403176
)
;
    }
    outlet_maxZ
    {
        type            calculated;
        value           nonuniform List<scalar> 
25
(
-0.000265024
-0.000143919
3.00327e-05
0.000411175
0.000437198
0.00012965
0.000424706
0.000777181
0.00136647
0.00146527
0.0015814
0.00213649
0.00252316
0.00280841
0.00276565
0.00162587
0.00203303
0.00231396
0.00227552
0.000556474
0.000439147
0.00046517
0.000537952
0.000422401
-0.0011811
)
;
    }
}


// ************************************************************************* //
