/*--------------------------------*- C++ -*----------------------------------*\
| =========                 |                                                 |
| \\      /  F ield         | OpenFOAM: The Open Source CFD Toolbox           |
|  \\    /   O peration     | Version:  v2106                                 |
|   \\  /    A nd           | Website:  www.openfoam.com                      |
|    \\/     M anipulation  |                                                 |
\*---------------------------------------------------------------------------*/
FoamFile
{
    version     2.0;
    format      ascii;
    arch        "LSB;label=32;scalar=64";
    class       volVectorField;
    location    "20";
    object      gradT;
}
// * * * * * * * * * * * * * * * * * * * * * * * * * * * * * * * * * * * * * //

dimensions      [0 -1 0 1 0 0 0];

internalField   nonuniform List<vector> 
500
(
(0.00119897 0.00119897 680.54)
(-0.000453892 -0.000313053 680.544)
(-0.00224391 -0.000161157 680.538)
(-0.000791625 2.63032e-05 680.536)
(-0.000200582 0.000154718 680.535)
(-0.000313053 -0.000453892 680.544)
(-0.00181402 -0.00181402 680.543)
(-0.00190455 -0.0014666 680.538)
(-0.00047575 -0.00101682 680.536)
(-7.2168e-05 -0.000526887 680.536)
(-0.000161157 -0.00224391 680.538)
(-0.0014666 -0.00190455 680.538)
(-0.0014467 -0.0014467 680.533)
(0.000148088 -0.00102106 680.533)
(0.000289349 -0.000553928 680.534)
(2.63032e-05 -0.000791625 680.536)
(-0.00101682 -0.00047575 680.536)
(-0.00102106 0.000148088 680.533)
(0.000417026 0.000417026 680.533)
(0.000394964 0.000530853 680.535)
(0.000154718 -0.000200582 680.535)
(-0.000526887 -7.2168e-05 680.536)
(-0.000553928 0.000289349 680.534)
(0.000530853 0.000394964 680.535)
(0.000403176 0.000403176 680.536)
(0.00219433 0.00219433 682.249)
(-0.00173626 -0.000760638 682.251)
(-0.00543641 -0.000376935 682.247)
(-0.00220109 0.000234811 682.245)
(-0.000695264 0.000532072 682.244)
(-0.000760638 -0.00173626 682.251)
(-0.00430753 -0.00430753 682.25)
(-0.00444096 -0.00335183 682.246)
(-0.00129208 -0.00196456 682.246)
(-0.000398003 -0.000718717 682.245)
(-0.000376935 -0.00543641 682.247)
(-0.00335183 -0.00444096 682.246)
(-0.00309345 -0.00309345 682.244)
(0.000432031 -0.00184297 682.244)
(0.000550579 -0.000623234 682.245)
(0.000234811 -0.00220109 682.245)
(-0.00196456 -0.00129208 682.246)
(-0.00184297 0.000432031 682.244)
(0.00117813 0.00117813 682.245)
(0.000821732 0.00131414 682.246)
(0.000532072 -0.000695264 682.244)
(-0.000718717 -0.000398003 682.245)
(-0.000623234 0.000550579 682.245)
(0.00131414 0.000821732 682.246)
(0.000686585 0.000686585 682.246)
(0.00236615 0.00236615 685.626)
(-0.00312295 -0.0013727 685.626)
(-0.0074078 -0.000720989 685.623)
(-0.0031236 0.000430681 685.623)
(-0.0012049 0.000982975 685.622)
(-0.0013727 -0.00312295 685.626)
(-0.00621009 -0.00621009 685.625)
(-0.00560442 -0.00462473 685.623)
(-0.00141963 -0.00221992 685.624)
(-0.000652605 -0.000244453 685.623)
(-0.000720989 -0.0074078 685.623)
(-0.00462473 -0.00560442 685.623)
(-0.00341763 -0.00341763 685.621)
(0.00125667 -0.00142393 685.623)
(0.000770565 0.000337776 685.624)
(0.000430681 -0.0031236 685.623)
(-0.00221992 -0.00141963 685.624)
(-0.00142393 0.00125667 685.623)
(0.00233577 0.00233577 685.625)
(0.0011091 0.00194431 685.626)
(0.000982975 -0.0012049 685.622)
(-0.000244453 -0.000652605 685.623)
(0.000337776 0.000770565 685.624)
(0.00194431 0.0011091 685.626)
(0.000379104 0.000379104 685.625)
(0.0025966 0.0025966 690.586)
(-0.00395341 -0.00174752 690.586)
(-0.00839873 -0.00082865 690.584)
(-0.00322193 0.00083098 690.585)
(-0.00137321 0.00155295 690.585)
(-0.00174752 -0.00395341 690.586)
(-0.00737866 -0.00737866 690.586)
(-0.00582023 -0.00518406 690.584)
(-0.000840332 -0.00183433 690.586)
(-0.000651242 0.000710794 690.586)
(-0.00082865 -0.00839873 690.584)
(-0.00518406 -0.00582023 690.584)
(-0.0028544 -0.0028544 690.584)
(0.00267292 -0.000196872 690.586)
(0.00117191 0.00197952 690.587)
(0.00083098 -0.00322193 690.585)
(-0.00183433 -0.000840332 690.586)
(-0.000196872 0.00267292 690.586)
(0.00399359 0.00399359 690.589)
(0.00152515 0.00276843 690.59)
(0.00155295 -0.00137321 690.585)
(0.000710794 -0.000651242 690.586)
(0.00197952 0.00117191 690.587)
(0.00276843 0.00152515 690.59)
(-5.32475e-05 -5.32475e-05 690.589)
(0.00287079 0.00287079 697.009)
(-0.00437769 -0.00195621 697.01)
(-0.0087567 -0.000787818 697.009)
(-0.00286397 0.00133589 697.01)
(-0.00135574 0.0021867 697.01)
(-0.00195621 -0.00437769 697.01)
(-0.00803629 -0.00803629 697.01)
(-0.0054646 -0.00528173 697.009)
(0.000110547 -0.00107944 697.011)
(-0.000504934 0.00193339 697.011)
(-0.000787818 -0.0087567 697.009)
(-0.00528173 -0.0054646 697.009)
(-0.00179985 -0.00179985 697.009)
(0.00435115 0.00143675 697.011)
(0.00165709 0.00394017 697.012)
(0.00133589 -0.00286397 697.01)
(-0.00107944 0.000110547 697.011)
(0.00143675 0.00435115 697.011)
(0.00585058 0.00585058 697.014)
(0.00199849 0.00373154 697.015)
(0.0021867 -0.00135574 697.01)
(0.00193339 -0.000504934 697.011)
(0.00394017 0.00165709 697.012)
(0.00373154 0.00199849 697.015)
(-0.000461942 -0.000461942 697.014)
(0.00314022 0.00314022 704.738)
(-0.00451539 -0.00204799 704.739)
(-0.00866657 -0.000658053 704.738)
(-0.00223903 0.0018757 704.739)
(-0.00122807 0.00282825 704.74)
(-0.00204799 -0.00451539 704.739)
(-0.00831366 -0.00831366 704.739)
(-0.00474288 -0.00506751 704.739)
(0.00124727 -0.000121914 704.74)
(-0.000275523 0.003272 704.741)
(-0.000658053 -0.00866657 704.738)
(-0.00506751 -0.00474288 704.739)
(-0.000474818 -0.000474818 704.739)
(0.00610048 0.0032506 704.741)
(0.00216584 0.00600577 704.742)
(0.0018757 -0.00223903 704.739)
(-0.000121914 0.00124727 704.74)
(0.0032506 0.00610048 704.741)
(0.00772786 0.00772786 704.744)
(0.00247965 0.00474142 704.745)
(0.00282825 -0.00122807 704.74)
(0.003272 -0.000275523 704.741)
(0.00600577 0.00216584 704.742)
(0.00474142 0.00247965 704.745)
(-0.000820593 -0.000820593 704.744)
(0.00337015 0.00337015 713.582)
(-0.00444144 -0.0020512 713.582)
(-0.00823579 -0.00047412 713.582)
(-0.00145377 0.00240634 713.584)
(-0.00102958 0.00343543 713.584)
(-0.0020512 -0.00444144 713.582)
(-0.00828572 -0.00828572 713.582)
(-0.00377824 -0.00462916 713.583)
(0.00245578 0.000934979 713.585)
(-4.88342e-07 0.00462229 713.585)
(-0.00047412 -0.00823579 713.582)
(-0.00462916 -0.00377824 713.583)
(0.000984907 0.000984907 713.583)
(0.00779768 0.00510235 713.586)
(0.00265773 0.00803619 713.587)
(0.00240634 -0.00145377 713.584)
(0.000934979 0.00245578 713.585)
(0.00510235 0.00779768 713.586)
(0.00950706 0.00950706 713.588)
(0.00293336 0.00571903 713.589)
(0.00343543 -0.00102958 713.584)
(0.00462229 -4.88349e-07 713.585)
(0.00803619 0.00265773 713.587)
(0.00571903 0.00293336 713.589)
(-0.00113031 -0.00113031 713.588)
(0.0035381 0.0035381 723.323)
(-0.00420283 -0.00198298 723.323)
(-0.00753301 -0.000257823 723.323)
(-0.000576082 0.00289797 723.325)
(-0.000784012 0.00397769 723.325)
(-0.00198298 -0.00420283 723.323)
(-0.00799876 -0.00799876 723.323)
(-0.00265205 -0.00402271 723.324)
(0.00365943 0.00202157 723.326)
(0.000295709 0.00591003 723.326)
(-0.000257823 -0.00753301 723.323)
(-0.00402271 -0.00265205 723.324)
(0.00248732 0.00248732 723.325)
(0.00935665 0.00689316 723.327)
(0.00310445 0.00993144 723.328)
(0.00289797 -0.000576082 723.325)
(0.00202157 0.00365943 723.326)
(0.00689316 0.00935665 723.327)
(0.0111036 0.0111036 723.329)
(0.00333399 0.00660464 723.33)
(0.00397769 -0.000784012 723.325)
(0.00591003 0.000295709 723.326)
(0.00993144 0.00310445 723.328)
(0.00660464 0.00333399 723.33)
(-0.00139446 -0.00139446 723.329)
(0.00363019 0.00363019 733.721)
(-0.0038312 -0.00185477 733.721)
(-0.00660796 -2.41557e-05 733.722)
(0.000345733 0.00332907 733.723)
(-0.000507697 0.00443263 733.724)
(-0.00185477 -0.0038312 733.721)
(-0.00748554 -0.00748554 733.722)
(-0.00142412 -0.00328836 733.722)
(0.00480252 0.00308661 733.724)
(0.00059586 0.00707992 733.725)
(-2.41557e-05 -0.00660796 733.722)
(-0.00328836 -0.00142412 733.722)
(0.0039642 0.0039642 733.724)
(0.010714 0.00854899 733.725)
(0.00348562 0.0116161 733.726)
(0.00332907 0.000345733 733.723)
(0.00308661 0.00480252 733.724)
(0.00854899 0.010714 733.725)
(0.0124544 0.0124544 733.727)
(0.003663 0.0073545 733.728)
(0.00443263 -0.000507697 733.724)
(0.00707992 0.00059586 733.725)
(0.0116161 0.00348562 733.726)
(0.0073545 0.003663 733.728)
(-0.00161433 -0.00161433 733.727)
(0.00363833 0.00363833 744.521)
(-0.0033509 -0.00167546 744.521)
(-0.00550232 0.000215452 744.522)
(0.00127355 0.00368346 744.523)
(-0.00021335 0.0047836 744.524)
(-0.00167546 -0.0033509 744.521)
(-0.00677377 -0.00677377 744.521)
(-0.000143402 -0.00245904 744.522)
(0.0058417 0.00408941 744.524)
(0.000886787 0.00808903 744.524)
(0.000215452 -0.00550232 744.522)
(-0.00245904 -0.000143402 744.522)
(0.00536085 0.00536085 744.524)
(0.0118216 0.0100113 744.525)
(0.00378627 0.0130315 744.526)
(0.00368346 0.00127355 744.523)
(0.00408941 0.0058417 744.524)
(0.0100113 0.0118216 744.525)
(0.0135123 0.0135123 744.526)
(0.00390694 0.00793649 744.527)
(0.0047836 -0.00021335 744.524)
(0.00808903 0.000886787 744.524)
(0.0130315 0.00378627 744.526)
(0.00793649 0.00390694 744.527)
(-0.00178954 -0.00178954 744.527)
(0.00355847 0.00355847 755.456)
(-0.00278377 -0.00145328 755.456)
(-0.00425573 0.000451334 755.457)
(0.00217444 0.00394871 755.459)
(8.79363e-05 0.00501829 755.459)
(-0.00145328 -0.00278377 755.456)
(-0.0058909 -0.0058909 755.456)
(0.00114626 -0.00156496 755.458)
(0.0067414 0.00499559 755.459)
(0.00115752 0.00890293 755.459)
(0.000451334 -0.00425573 755.457)
(-0.00156496 0.00114626 755.458)
(0.00663076 0.00663076 755.459)
(0.0126423 0.0112322 755.46)
(0.00399528 0.0141308 755.461)
(0.00394871 0.00217444 755.459)
(0.00499559 0.0067414 755.459)
(0.0112322 0.0126423 755.46)
(0.0142415 0.0142415 755.461)
(0.00405619 0.00832691 755.461)
(0.00501829 8.79363e-05 755.459)
(0.00890293 0.00115752 755.459)
(0.0141308 0.00399528 755.461)
(0.00832691 0.00405619 755.461)
(-0.0019193 -0.0019193 755.461)
(0.0033893 0.0033893 766.258)
(-0.00215227 -0.00119694 766.257)
(-0.00290932 0.000674456 766.259)
(0.00301776 0.00411505 766.26)
(0.000385517 0.00512773 766.261)
(-0.00119694 -0.00215227 766.257)
(-0.00486711 -0.00486711 766.258)
(0.00240266 -0.000636552 766.259)
(0.00747103 0.0057745 766.26)
(0.0013982 0.00949329 766.261)
(0.000674456 -0.00290932 766.259)
(-0.000636552 0.00240266 766.259)
(0.00773229 0.00773229 766.261)
(0.0131476 0.0121713 766.261)
(0.00410431 0.014877 766.262)
(0.00411505 0.00301776 766.26)
(0.0057745 0.00747103 766.26)
(0.0121713 0.0131476 766.261)
(0.0146158 0.0146158 766.262)
(0.00410394 0.008508 766.262)
(0.00512773 0.000385517 766.261)
(0.00949329 0.0013982 766.261)
(0.014877 0.00410431 766.262)
(0.008508 0.00410394 766.262)
(-0.00200348 -0.00200348 766.262)
(0.00313114 0.00313114 776.66)
(-0.00148196 -0.000916599 776.659)
(-0.00150858 0.000875455 776.661)
(0.00377281 0.00417451 776.662)
(0.000668295 0.00510534 776.662)
(-0.000916599 -0.00148196 776.659)
(-0.00373764 -0.00373764 776.66)
(0.00358253 0.000293282 776.661)
(0.0080027 0.00639692 776.662)
(0.00159912 0.00983556 776.662)
(0.000875455 -0.00150858 776.661)
(0.000293282 0.00358253 776.661)
(0.00862599 0.00862599 776.663)
(0.0133151 0.0127933 776.663)
(0.00410693 0.0152395 776.663)
(0.00417451 0.00377281 776.662)
(0.00639692 0.0080027 776.662)
(0.0127933 0.0133151 776.663)
(0.0146162 0.0146162 776.663)
(0.00404531 0.00846564 776.663)
(0.00510534 0.000668295 776.662)
(0.00983556 0.00159912 776.662)
(0.0152395 0.00410693 776.663)
(0.00846564 0.00404531 776.663)
(-0.00204363 -0.00204363 776.662)
(0.00278457 0.00278457 786.406)
(-0.000804491 -0.000625069 786.405)
(-0.000106614 0.00104342 786.407)
(0.00440611 0.00411964 786.408)
(0.000923667 0.00494569 786.408)
(-0.000625069 -0.000804491 786.405)
(-0.00254564 -0.00254564 786.405)
(0.0046381 0.00118624 786.407)
(0.00830838 0.00683213 786.407)
(0.00174971 0.00990597 786.408)
(0.00104342 -0.000106614 786.407)
(0.00118624 0.0046381 786.407)
(0.00927116 0.00927116 786.409)
(0.0131259 0.0130643 786.408)
(0.00399751 0.0151909 786.408)
(0.00411964 0.00440611 786.408)
(0.00683213 0.00830838 786.407)
(0.0130643 0.0131259 786.408)
(0.0142281 0.0142281 786.408)
(0.00387628 0.00818645 786.407)
(0.00494569 0.000923667 786.408)
(0.00990597 0.00174971 786.408)
(0.0151909 0.00399751 786.408)
(0.00818645 0.00387628 786.407)
(-0.00204412 -0.00204412 786.407)
(0.0023485 0.0023485 795.256)
(-0.000162179 -0.000339765 795.255)
(0.00123048 0.00116379 795.257)
(0.0048771 0.00394128 795.257)
(0.00113594 0.00464218 795.258)
(-0.000339765 -0.000162179 795.255)
(-0.00134689 -0.00134689 795.255)
(0.00551152 0.00199361 795.257)
(0.00835548 0.00704271 795.257)
(0.00183684 0.00967623 795.257)
(0.00116379 0.00123048 795.257)
(0.00199361 0.00551152 795.257)
(0.00962007 0.00962007 795.258)
(0.0125597 0.0129462 795.257)
(0.00376946 0.0147014 795.257)
(0.00394128 0.0048771 795.257)
(0.00704271 0.00835548 795.257)
(0.0129462 0.0125597 795.257)
(0.0134368 0.0134368 795.256)
(0.00359203 0.00765372 795.255)
(0.00464218 0.00113594 795.258)
(0.00967623 0.00183684 795.257)
(0.0147014 0.00376946 795.257)
(0.00765372 0.00359203 795.255)
(-0.00201361 -0.00201361 795.255)
(0.00181793 0.00181793 802.992)
(0.000384554 -8.65196e-05 802.99)
(0.00241376 0.00121433 802.993)
(0.00513086 0.00362417 802.993)
(0.00128372 0.00418254 802.993)
(-8.65196e-05 0.000384554 802.99)
(-0.000219049 -0.000219049 802.991)
(0.00612446 0.00264667 802.993)
(0.00809907 0.00697462 802.992)
(0.00184208 0.00910349 802.992)
(0.00121433 0.00241376 802.993)
(0.00264667 0.00612446 802.993)
(0.00960743 0.00960743 802.994)
(0.0115877 0.0123865 802.992)
(0.00341259 0.0137291 802.991)
(0.00362417 0.00513086 802.993)
(0.00697462 0.00809907 802.992)
(0.0123865 0.0115877 802.992)
(0.0122207 0.0122207 802.99)
(0.00318468 0.00684135 802.989)
(0.00418254 0.00128372 802.993)
(0.00910349 0.00184208 802.992)
(0.0137291 0.00341259 802.991)
(0.00684135 0.00318468 802.989)
(-0.00196678 -0.00196678 802.989)
(0.00118447 0.00118447 809.423)
(0.00074669 9.27381e-05 809.422)
(0.00331248 0.00115702 809.424)
(0.00508626 0.00313836 809.423)
(0.00133599 0.00353971 809.423)
(9.27381e-05 0.00074669 809.422)
(0.000719242 0.000719242 809.422)
(0.00635811 0.00303699 809.423)
(0.00746894 0.00653721 809.422)
(0.00173734 0.00811033 809.421)
(0.00115702 0.00331248 809.424)
(0.00303699 0.00635811 809.423)
(0.00913045 0.00913045 809.424)
(0.0101596 0.0112996 809.422)
(0.00290911 0.0122028 809.42)
(0.00313836 0.00508626 809.423)
(0.00653721 0.00746894 809.422)
(0.0112996 0.0101596 809.422)
(0.0105413 0.0105413 809.419)
(0.00264062 0.00570727 809.418)
(0.00353971 0.00133599 809.423)
(0.00811033 0.00173734 809.421)
(0.0122028 0.00290911 809.42)
(0.00570727 0.00264062 809.418)
(-0.00192496 -0.00192496 809.418)
(0.000458411 0.000458411 814.392)
(0.00080366 0.000127572 814.39)
(0.003716 0.000925283 814.391)
(0.00461856 0.00242493 814.39)
(0.00124781 0.00265709 814.39)
(0.000127572 0.00080366 814.39)
(0.00127053 0.00127053 814.39)
(0.00601336 0.00297867 814.391)
(0.00635037 0.00556518 814.389)
(0.00147997 0.00654801 814.388)
(0.000925283 0.003716 814.391)
(0.00297867 0.00601336 814.391)
(0.00801065 0.00801065 814.391)
(0.0081879 0.0095322 814.388)
(0.00223064 0.0099937 814.386)
(0.00242493 0.00461856 814.39)
(0.00556518 0.00635037 814.389)
(0.0095322 0.0081879 814.388)
(0.00833342 0.00833342 814.384)
(0.00194147 0.00419572 814.383)
(0.00265709 0.00124781 814.39)
(0.00654801 0.00147997 814.388)
(0.0099937 0.00223064 814.386)
(0.00419572 0.00194147 814.383)
(-0.00190706 -0.00190706 814.383)
(-0.000216444 -0.000216444 817.775)
(0.000474509 -6.15094e-05 817.774)
(0.00327062 0.000440367 817.774)
(0.00354188 0.00140951 817.772)
(0.000962218 0.00147042 817.771)
(-6.15094e-05 0.000474509 817.774)
(0.00113132 0.00113132 817.774)
(0.00474164 0.00218004 817.773)
(0.00457194 0.00378998 817.77)
(0.00102313 0.00418722 817.769)
(0.000440367 0.00327062 817.774)
(0.00218004 0.00474164 817.773)
(0.00592928 0.00592928 817.772)
(0.00554906 0.00680548 817.768)
(0.00135945 0.00687878 817.766)
(0.00140951 0.00354188 817.772)
(0.00378998 0.00457194 817.77)
(0.00680548 0.00554906 817.768)
(0.00552143 0.00552143 817.763)
(0.00109642 0.00230227 817.762)
(0.00147042 0.000962218 817.771)
(0.00418722 0.00102313 817.769)
(0.00687878 0.00135945 817.766)
(0.00230227 0.00109642 817.762)
(-0.00185971 -0.00185971 817.763)
(-0.000265024 -0.000265024 819.488)
(0.00012965 -0.000143919 819.489)
(0.0015814 3.00327e-05 819.488)
(0.00162587 0.000411175 819.484)
(0.000439147 0.000437198 819.482)
(-0.000143919 0.00012965 819.489)
(0.000424706 0.000424706 819.489)
(0.00213649 0.000777181 819.487)
(0.00203303 0.00136647 819.482)
(0.00046517 0.00146527 819.481)
(3.00327e-05 0.0015814 819.488)
(0.000777181 0.00213649 819.487)
(0.00252316 0.00252316 819.485)
(0.00231396 0.00280841 819.479)
(0.000537952 0.00276565 819.477)
(0.000411175 0.00162587 819.484)
(0.00136647 0.00203303 819.482)
(0.00280841 0.00231396 819.479)
(0.00227552 0.00227552 819.472)
(0.000422401 0.000556474 819.471)
(0.000437198 0.000439147 819.482)
(0.00146527 0.00046517 819.481)
(0.00276565 0.000537952 819.477)
(0.000556474 0.000422401 819.471)
(-0.0011811 -0.0011811 819.474)
)
;

boundaryField
{
    wall_minX
    {
        type            extrapolatedCalculated;
        value           nonuniform List<vector> 
100
(
(0 0.00119897 680.54)
(0 -0.000453892 680.544)
(0 -0.00224391 680.538)
(0 -0.000791625 680.536)
(0 -0.000200582 680.535)
(0 0.00219433 682.249)
(0 -0.00173626 682.251)
(0 -0.00543641 682.247)
(0 -0.00220109 682.245)
(0 -0.000695264 682.244)
(0 0.00236615 685.626)
(0 -0.00312295 685.626)
(0 -0.0074078 685.623)
(0 -0.0031236 685.623)
(0 -0.0012049 685.622)
(0 0.0025966 690.586)
(0 -0.00395341 690.586)
(0 -0.00839873 690.584)
(0 -0.00322193 690.585)
(0 -0.00137321 690.585)
(0 0.00287079 697.009)
(0 -0.00437769 697.01)
(0 -0.0087567 697.009)
(0 -0.00286397 697.01)
(0 -0.00135574 697.01)
(0 0.00314022 704.738)
(0 -0.00451539 704.739)
(0 -0.00866657 704.738)
(0 -0.00223903 704.739)
(0 -0.00122807 704.74)
(0 0.00337015 713.582)
(0 -0.00444144 713.582)
(0 -0.00823579 713.582)
(0 -0.00145377 713.584)
(0 -0.00102958 713.584)
(0 0.0035381 723.323)
(0 -0.00420283 723.323)
(0 -0.00753301 723.323)
(0 -0.000576082 723.325)
(0 -0.000784012 723.325)
(0 0.00363019 733.721)
(0 -0.0038312 733.721)
(0 -0.00660796 733.722)
(0 0.000345733 733.723)
(0 -0.000507697 733.724)
(0 0.00363833 744.521)
(0 -0.0033509 744.521)
(0 -0.00550232 744.522)
(0 0.00127355 744.523)
(0 -0.00021335 744.524)
(0 0.00355847 755.456)
(0 -0.00278377 755.456)
(0 -0.00425573 755.457)
(0 0.00217444 755.459)
(0 8.79363e-05 755.459)
(0 0.0033893 766.258)
(0 -0.00215227 766.257)
(0 -0.00290932 766.259)
(0 0.00301776 766.26)
(0 0.000385517 766.261)
(0 0.00313114 776.66)
(0 -0.00148196 776.659)
(0 -0.00150858 776.661)
(0 0.00377281 776.662)
(0 0.000668295 776.662)
(0 0.00278457 786.406)
(0 -0.000804491 786.405)
(0 -0.000106614 786.407)
(0 0.00440611 786.408)
(0 0.000923667 786.408)
(0 0.0023485 795.256)
(0 -0.000162179 795.255)
(0 0.00123048 795.257)
(0 0.0048771 795.257)
(0 0.00113594 795.258)
(0 0.00181793 802.992)
(0 0.000384554 802.99)
(0 0.00241376 802.993)
(0 0.00513086 802.993)
(0 0.00128372 802.993)
(0 0.00118447 809.423)
(0 0.00074669 809.422)
(0 0.00331248 809.424)
(0 0.00508626 809.423)
(0 0.00133599 809.423)
(0 0.000458411 814.392)
(0 0.00080366 814.39)
(0 0.003716 814.391)
(0 0.00461856 814.39)
(0 0.00124781 814.39)
(0 -0.000216444 817.775)
(0 0.000474509 817.774)
(0 0.00327062 817.774)
(0 0.00354188 817.772)
(0 0.000962218 817.771)
(0 -0.000265024 819.488)
(0 0.00012965 819.489)
(0 0.0015814 819.488)
(0 0.00162587 819.484)
(0 0.000439147 819.482)
)
;
    }
    wall_maxX
    {
        type            extrapolatedCalculated;
        value           nonuniform List<vector> 
100
(
(0 0.000154718 680.535)
(0 -0.000526887 680.536)
(0 -0.000553928 680.534)
(0 0.000530853 680.535)
(0 0.000403176 680.536)
(0 0.000532072 682.244)
(0 -0.000718717 682.245)
(0 -0.000623234 682.245)
(0 0.00131414 682.246)
(0 0.000686585 682.246)
(0 0.000982975 685.622)
(0 -0.000244453 685.623)
(0 0.000337776 685.624)
(0 0.00194431 685.626)
(0 0.000379104 685.625)
(0 0.00155295 690.585)
(0 0.000710794 690.586)
(0 0.00197952 690.587)
(0 0.00276843 690.59)
(0 -5.32475e-05 690.589)
(0 0.0021867 697.01)
(0 0.00193339 697.011)
(0 0.00394017 697.012)
(0 0.00373154 697.015)
(0 -0.000461942 697.014)
(0 0.00282825 704.74)
(0 0.003272 704.741)
(0 0.00600577 704.742)
(0 0.00474142 704.745)
(0 -0.000820593 704.744)
(0 0.00343543 713.584)
(0 0.00462229 713.585)
(0 0.00803619 713.587)
(0 0.00571903 713.589)
(0 -0.00113031 713.588)
(0 0.00397769 723.325)
(0 0.00591003 723.326)
(0 0.00993144 723.328)
(0 0.00660464 723.33)
(0 -0.00139446 723.329)
(0 0.00443263 733.724)
(0 0.00707992 733.725)
(0 0.0116161 733.726)
(0 0.0073545 733.728)
(0 -0.00161433 733.727)
(0 0.0047836 744.524)
(0 0.00808903 744.524)
(0 0.0130315 744.526)
(0 0.00793649 744.527)
(0 -0.00178954 744.527)
(0 0.00501829 755.459)
(0 0.00890293 755.459)
(0 0.0141308 755.461)
(0 0.00832691 755.461)
(0 -0.0019193 755.461)
(0 0.00512773 766.261)
(0 0.00949329 766.261)
(0 0.014877 766.262)
(0 0.008508 766.262)
(0 -0.00200348 766.262)
(0 0.00510534 776.662)
(0 0.00983556 776.662)
(0 0.0152395 776.663)
(0 0.00846564 776.663)
(0 -0.00204363 776.662)
(0 0.00494569 786.408)
(0 0.00990597 786.408)
(0 0.0151909 786.408)
(0 0.00818645 786.407)
(0 -0.00204412 786.407)
(0 0.00464218 795.258)
(0 0.00967623 795.257)
(0 0.0147014 795.257)
(0 0.00765372 795.255)
(0 -0.00201361 795.255)
(0 0.00418254 802.993)
(0 0.00910349 802.992)
(0 0.0137291 802.991)
(0 0.00684135 802.989)
(0 -0.00196678 802.989)
(0 0.00353971 809.423)
(0 0.00811033 809.421)
(0 0.0122028 809.42)
(0 0.00570727 809.418)
(0 -0.00192496 809.418)
(0 0.00265709 814.39)
(0 0.00654801 814.388)
(0 0.0099937 814.386)
(0 0.00419572 814.383)
(0 -0.00190706 814.383)
(0 0.00147042 817.771)
(0 0.00418722 817.769)
(0 0.00687878 817.766)
(0 0.00230227 817.762)
(0 -0.00185971 817.763)
(0 0.000437198 819.482)
(0 0.00146527 819.481)
(0 0.00276565 819.477)
(0 0.000556474 819.471)
(0 -0.0011811 819.474)
)
;
    }
    wall_minY
    {
        type            extrapolatedCalculated;
        value           nonuniform List<vector> 
100
(
(0.00119897 0 680.54)
(0.00219433 0 682.249)
(0.00236615 0 685.626)
(0.0025966 0 690.586)
(0.00287079 0 697.009)
(0.00314022 0 704.738)
(0.00337015 0 713.582)
(0.0035381 0 723.323)
(0.00363019 0 733.721)
(0.00363833 0 744.521)
(0.00355847 0 755.456)
(0.0033893 0 766.258)
(0.00313114 0 776.66)
(0.00278457 0 786.406)
(0.0023485 0 795.256)
(0.00181793 0 802.992)
(0.00118447 0 809.423)
(0.000458411 0 814.392)
(-0.000216444 0 817.775)
(-0.000265024 0 819.488)
(-0.000453892 0 680.544)
(-0.00173626 0 682.251)
(-0.00312295 0 685.626)
(-0.00395341 0 690.586)
(-0.00437769 0 697.01)
(-0.00451539 0 704.739)
(-0.00444144 0 713.582)
(-0.00420283 0 723.323)
(-0.0038312 0 733.721)
(-0.0033509 0 744.521)
(-0.00278377 0 755.456)
(-0.00215227 0 766.257)
(-0.00148196 0 776.659)
(-0.000804491 0 786.405)
(-0.000162179 0 795.255)
(0.000384554 0 802.99)
(0.00074669 0 809.422)
(0.00080366 0 814.39)
(0.000474509 0 817.774)
(0.00012965 0 819.489)
(-0.00224391 0 680.538)
(-0.00543641 0 682.247)
(-0.0074078 0 685.623)
(-0.00839873 0 690.584)
(-0.0087567 0 697.009)
(-0.00866657 0 704.738)
(-0.00823579 0 713.582)
(-0.00753301 0 723.323)
(-0.00660796 0 733.722)
(-0.00550232 0 744.522)
(-0.00425573 0 755.457)
(-0.00290932 0 766.259)
(-0.00150858 0 776.661)
(-0.000106614 0 786.407)
(0.00123048 0 795.257)
(0.00241376 0 802.993)
(0.00331248 0 809.424)
(0.003716 0 814.391)
(0.00327062 0 817.774)
(0.0015814 0 819.488)
(-0.000791625 0 680.536)
(-0.00220109 0 682.245)
(-0.0031236 0 685.623)
(-0.00322193 0 690.585)
(-0.00286397 0 697.01)
(-0.00223903 0 704.739)
(-0.00145377 0 713.584)
(-0.000576082 0 723.325)
(0.000345733 0 733.723)
(0.00127355 0 744.523)
(0.00217444 0 755.459)
(0.00301776 0 766.26)
(0.00377281 0 776.662)
(0.00440611 0 786.408)
(0.0048771 0 795.257)
(0.00513086 0 802.993)
(0.00508626 0 809.423)
(0.00461856 0 814.39)
(0.00354188 0 817.772)
(0.00162587 0 819.484)
(-0.000200582 0 680.535)
(-0.000695264 0 682.244)
(-0.0012049 0 685.622)
(-0.00137321 0 690.585)
(-0.00135574 0 697.01)
(-0.00122807 0 704.74)
(-0.00102958 0 713.584)
(-0.000784012 0 723.325)
(-0.000507697 0 733.724)
(-0.00021335 0 744.524)
(8.79363e-05 0 755.459)
(0.000385517 0 766.261)
(0.000668295 0 776.662)
(0.000923667 0 786.408)
(0.00113594 0 795.258)
(0.00128372 0 802.993)
(0.00133599 0 809.423)
(0.00124781 0 814.39)
(0.000962218 0 817.771)
(0.000439147 0 819.482)
)
;
    }
    wall_maxY
    {
        type            extrapolatedCalculated;
        value           nonuniform List<vector> 
100
(
(0.000154718 0 680.535)
(0.000532072 0 682.244)
(0.000982975 0 685.622)
(0.00155295 0 690.585)
(0.0021867 0 697.01)
(0.00282825 0 704.74)
(0.00343543 0 713.584)
(0.00397769 0 723.325)
(0.00443263 0 733.724)
(0.0047836 0 744.524)
(0.00501829 0 755.459)
(0.00512773 0 766.261)
(0.00510534 0 776.662)
(0.00494569 0 786.408)
(0.00464218 0 795.258)
(0.00418254 0 802.993)
(0.00353971 0 809.423)
(0.00265709 0 814.39)
(0.00147042 0 817.771)
(0.000437198 0 819.482)
(-0.000526887 0 680.536)
(-0.000718717 0 682.245)
(-0.000244453 0 685.623)
(0.000710794 0 690.586)
(0.00193339 0 697.011)
(0.003272 0 704.741)
(0.00462229 0 713.585)
(0.00591003 0 723.326)
(0.00707992 0 733.725)
(0.00808903 0 744.524)
(0.00890293 0 755.459)
(0.00949329 0 766.261)
(0.00983556 0 776.662)
(0.00990597 0 786.408)
(0.00967623 0 795.257)
(0.00910349 0 802.992)
(0.00811033 0 809.421)
(0.00654801 0 814.388)
(0.00418722 0 817.769)
(0.00146527 0 819.481)
(-0.000553928 0 680.534)
(-0.000623234 0 682.245)
(0.000337776 0 685.624)
(0.00197952 0 690.587)
(0.00394017 0 697.012)
(0.00600577 0 704.742)
(0.00803619 0 713.587)
(0.00993144 0 723.328)
(0.0116161 0 733.726)
(0.0130315 0 744.526)
(0.0141308 0 755.461)
(0.014877 0 766.262)
(0.0152395 0 776.663)
(0.0151909 0 786.408)
(0.0147014 0 795.257)
(0.0137291 0 802.991)
(0.0122028 0 809.42)
(0.0099937 0 814.386)
(0.00687878 0 817.766)
(0.00276565 0 819.477)
(0.000530853 0 680.535)
(0.00131414 0 682.246)
(0.00194431 0 685.626)
(0.00276843 0 690.59)
(0.00373154 0 697.015)
(0.00474142 0 704.745)
(0.00571903 0 713.589)
(0.00660464 0 723.33)
(0.0073545 0 733.728)
(0.00793649 0 744.527)
(0.00832691 0 755.461)
(0.008508 0 766.262)
(0.00846564 0 776.663)
(0.00818645 0 786.407)
(0.00765372 0 795.255)
(0.00684135 0 802.989)
(0.00570727 0 809.418)
(0.00419572 0 814.383)
(0.00230227 0 817.762)
(0.000556474 0 819.471)
(0.000403176 0 680.536)
(0.000686585 0 682.246)
(0.000379104 0 685.625)
(-5.32475e-05 0 690.589)
(-0.000461942 0 697.014)
(-0.000820593 0 704.744)
(-0.00113031 0 713.588)
(-0.00139446 0 723.329)
(-0.00161433 0 733.727)
(-0.00178954 0 744.527)
(-0.0019193 0 755.461)
(-0.00200348 0 766.262)
(-0.00204363 0 776.662)
(-0.00204412 0 786.407)
(-0.00201361 0 795.255)
(-0.00196678 0 802.989)
(-0.00192496 0 809.418)
(-0.00190706 0 814.383)
(-0.00185971 0 817.763)
(-0.0011811 0 819.474)
)
;
    }
    inlet_minZ
    {
        type            extrapolatedCalculated;
        value           nonuniform List<vector> 
25
(
(0.00119897 0.00119897 680.111)
(-0.000313053 -0.000453892 680.115)
(-0.000161157 -0.00224391 680.109)
(2.63032e-05 -0.000791625 680.106)
(0.000154718 -0.000200582 680.106)
(-0.000453892 -0.000313053 680.115)
(-0.00181402 -0.00181402 680.114)
(-0.0014666 -0.00190455 680.108)
(-0.00101682 -0.00047575 680.107)
(-0.000526887 -7.2168e-05 680.106)
(-0.00224391 -0.000161157 680.109)
(-0.00190455 -0.0014666 680.108)
(-0.0014467 -0.0014467 680.103)
(-0.00102106 0.000148088 680.102)
(-0.000553928 0.000289349 680.104)
(-0.000791625 2.63032e-05 680.106)
(-0.00047575 -0.00101682 680.107)
(0.000148088 -0.00102106 680.102)
(0.000417026 0.000417026 680.102)
(0.000530853 0.000394964 680.104)
(-0.000200582 0.000154718 680.106)
(-7.2168e-05 -0.000526887 680.106)
(0.000289349 -0.000553928 680.104)
(0.000394964 0.000530853 680.104)
(0.000403176 0.000403176 680.106)
)
;
    }
    outlet_maxZ
    {
        type            extrapolatedCalculated;
        value           nonuniform List<vector> 
25
(
(-0.000265024 -0.000265024 819.919)
(-0.000143919 0.00012965 819.92)
(3.00327e-05 0.0015814 819.919)
(0.000411175 0.00162587 819.914)
(0.000437198 0.000439147 819.912)
(0.00012965 -0.000143919 819.92)
(0.000424706 0.000424706 819.921)
(0.000777181 0.00213649 819.918)
(0.00136647 0.00203303 819.912)
(0.00146527 0.00046517 819.91)
(0.0015814 3.00327e-05 819.919)
(0.00213649 0.000777181 819.918)
(0.00252316 0.00252316 819.915)
(0.00280841 0.00231396 819.908)
(0.00276565 0.000537952 819.906)
(0.00162587 0.000411175 819.914)
(0.00203303 0.00136647 819.912)
(0.00231396 0.00280841 819.908)
(0.00227552 0.00227552 819.901)
(0.000556474 0.000422401 819.899)
(0.000439147 0.000437198 819.912)
(0.00046517 0.00146527 819.91)
(0.000537952 0.00276565 819.906)
(0.000422401 0.000556474 819.899)
(-0.0011811 -0.0011811 819.904)
)
;
    }
}


// ************************************************************************* //
