/*--------------------------------*- C++ -*----------------------------------*\
| =========                 |                                                 |
| \\      /  F ield         | OpenFOAM: The Open Source CFD Toolbox           |
|  \\    /   O peration     | Version:  v2106                                 |
|   \\  /    A nd           | Website:  www.openfoam.com                      |
|    \\/     M anipulation  |                                                 |
\*---------------------------------------------------------------------------*/
FoamFile
{
    version     2.0;
    format      ascii;
    arch        "LSB;label=32;scalar=64";
    class       volVectorField;
    location    "87.5";
    object      flux;
}
// * * * * * * * * * * * * * * * * * * * * * * * * * * * * * * * * * * * * * //

dimensions      [0 1 -1 1 0 0 0];

internalField   nonuniform List<vector> 
4000
(
(-7.3881931e-08 -7.3881931e-08 0.72466703)
(-1.6233405e-07 -6.5504875e-08 0.72466648)
(-8.1746256e-08 -6.3562853e-08 0.72466622)
(-4.4294173e-08 -6.2808648e-08 0.72466606)
(-1.4159611e-08 -6.2366249e-08 0.72466599)
(1.2053514e-08 -6.1961327e-08 0.72466599)
(3.4421752e-08 -6.1409932e-08 0.72466606)
(5.0755745e-08 -6.0396301e-08 0.72466617)
(5.4214532e-08 -5.8113465e-08 0.72466633)
(1.7150991e-08 -5.25602e-08 0.72466647)
(-6.5504874e-08 -1.6233405e-07 0.72466648)
(-1.4685543e-07 -1.4685544e-07 0.724666)
(-7.7701916e-08 -1.4199467e-07 0.72466576)
(-4.2499266e-08 -1.3959556e-07 0.7246656)
(-1.288863e-08 -1.3796117e-07 0.72466553)
(1.3487989e-08 -1.3641612e-07 0.72466554)
(3.6769292e-08 -1.3445276e-07 0.72466561)
(5.5700446e-08 -1.3131073e-07 0.72466573)
(6.5968683e-08 -1.2545199e-07 0.72466591)
(2.2704256e-08 -1.140983e-07 0.7246661)
(-6.3562854e-08 -8.1746252e-08 0.72466622)
(-1.4199467e-07 -7.7701919e-08 0.72466576)
(-7.4486376e-08 -7.4486378e-08 0.72466552)
(-4.0260665e-08 -7.2074077e-08 0.72466537)
(-1.0980172e-08 -7.0057071e-08 0.72466531)
(1.5561924e-08 -6.8074977e-08 0.72466532)
(3.9527143e-08 -6.5784734e-08 0.72466539)
(5.9756516e-08 -6.2804893e-08 0.72466553)
(7.1426957e-08 -5.8827518e-08 0.72466571)
(2.4720113e-08 -5.4479552e-08 0.72466593)
(-6.2808652e-08 -4.4294182e-08 0.72466606)
(-1.3959556e-07 -4.2499267e-08 0.7246656)
(-7.2074074e-08 -4.0260668e-08 0.72466537)
(-3.8069958e-08 -3.8069963e-08 0.72466523)
(-8.8895297e-09 -3.5980068e-08 0.72466518)
(1.7760326e-08 -3.3890402e-08 0.72466519)
(4.2039376e-08 -3.1661346e-08 0.72466527)
(6.2657662e-08 -2.9197206e-08 0.72466541)
(7.4294025e-08 -2.6611323e-08 0.72466561)
(2.56029e-08 -2.4571354e-08 0.72466583)
(-6.2366244e-08 -1.415961e-08 0.72466599)
(-1.3796116e-07 -1.2888622e-08 0.72466553)
(-7.0057072e-08 -1.0980162e-08 0.72466531)
(-3.5980065e-08 -8.8895287e-09 0.72466518)
(-6.8006117e-09 -6.8006226e-09 0.72466512)
(1.9880645e-08 -4.7359267e-09 0.72466514)
(4.4220339e-08 -2.6683253e-09 0.72466523)
(6.4806538e-08 -6.2073047e-10 0.72466538)
(7.6052808e-08 1.2244215e-09 0.72466558)
(2.6080093e-08 2.4325025e-09 0.7246658)
(-6.1961327e-08 1.2053518e-08 0.72466599)
(-1.3641611e-07 1.3487988e-08 0.72466554)
(-6.8074981e-08 1.5561918e-08 0.72466532)
(-3.3890419e-08 1.7760332e-08 0.72466519)
(-4.7359277e-09 1.9880645e-08 0.72466514)
(2.1892623e-08 2.1892626e-08 0.72466517)
(4.6154572e-08 2.3812447e-08 0.72466526)
(6.6550409e-08 2.5609377e-08 0.72466541)
(7.7347258e-08 2.7129135e-08 0.72466562)
(2.6408287e-08 2.8060608e-08 0.72466584)
(-6.1409931e-08 3.4421745e-08 0.72466606)
(-1.3445276e-07 3.6769286e-08 0.72466561)
(-6.5784728e-08 3.9527137e-08 0.72466539)
(-3.1661338e-08 4.2039371e-08 0.72466527)
(-2.668318e-09 4.4220344e-08 0.72466523)
(2.3812446e-08 4.6154575e-08 0.72466526)
(4.7937091e-08 4.7937092e-08 0.72466536)
(6.8123227e-08 4.9601253e-08 0.72466551)
(7.8504039e-08 5.1053763e-08 0.72466572)
(2.6701074e-08 5.2001058e-08 0.72466595)
(-6.03963e-08 5.0755749e-08 0.72466617)
(-1.3131072e-07 5.5700454e-08 0.72466573)
(-6.2804896e-08 5.9756528e-08 0.72466553)
(-2.9197211e-08 6.265765e-08 0.72466541)
(-6.2072424e-10 6.4806545e-08 0.72466538)
(2.5609371e-08 6.6550399e-08 0.72466541)
(4.9601251e-08 6.8123236e-08 0.72466551)
(6.9667079e-08 6.9667079e-08 0.72466568)
(7.9747062e-08 7.1197433e-08 0.72466589)
(2.7039817e-08 7.2415577e-08 0.72466612)
(-5.8113462e-08 5.4214537e-08 0.72466633)
(-1.2545198e-07 6.5968685e-08 0.72466591)
(-5.8827532e-08 7.1426959e-08 0.72466571)
(-2.6611321e-08 7.4294026e-08 0.72466561)
(1.2244314e-09 7.6052818e-08 0.72466558)
(2.7129138e-08 7.7347255e-08 0.72466562)
(5.1053771e-08 7.8504052e-08 0.72466572)
(7.1197424e-08 7.9747071e-08 0.72466589)
(8.1252536e-08 8.1252551e-08 0.7246661)
(2.751317e-08 8.2900845e-08 0.72466634)
(-5.2560201e-08 1.7150993e-08 0.72466647)
(-1.140983e-07 2.2704253e-08 0.7246661)
(-5.4479555e-08 2.4720114e-08 0.72466593)
(-2.4571353e-08 2.5602904e-08 0.72466583)
(2.4325051e-09 2.6080093e-08 0.7246658)
(2.8060605e-08 2.6408287e-08 0.72466584)
(5.2001066e-08 2.6701071e-08 0.72466595)
(7.2415578e-08 2.7039817e-08 0.72466612)
(8.2900837e-08 2.7513174e-08 0.72466634)
(2.813868e-08 2.8138684e-08 0.72466658)
(-3.2454538e-07 -3.2454538e-07 1.0779563)
(-7.2742616e-07 -2.8372226e-07 1.0779556)
(-3.8545937e-07 -2.7467291e-07 1.0779553)
(-2.1236854e-07 -2.7110621e-07 1.0779551)
(-6.6890185e-08 -2.6895758e-07 1.077955)
(6.1696024e-08 -2.6697086e-07 1.077955)
(1.7289828e-07 -2.6424819e-07 1.0779551)
(2.5740702e-07 -2.5915373e-07 1.0779553)
(2.866425e-07 -2.4702305e-07 1.0779555)
(9.4043217e-08 -2.120855e-07 1.0779558)
(-2.8372226e-07 -7.2742616e-07 1.0779556)
(-6.5261747e-07 -6.5261747e-07 1.077955)
(-3.665353e-07 -6.2991385e-07 1.0779547)
(-2.0379554e-07 -6.1845981e-07 1.0779545)
(-6.0687148e-08 -6.1050103e-07 1.0779544)
(6.8760114e-08 -6.0292149e-07 1.0779544)
(1.8462396e-07 -5.9324716e-07 1.0779545)
(2.8324472e-07 -5.7759724e-07 1.0779547)
(3.5724485e-07 -5.4731204e-07 1.077955)
(1.2898077e-07 -4.8037391e-07 1.0779554)
(-2.7467292e-07 -3.8545938e-07 1.0779553)
(-6.2991385e-07 -3.6653529e-07 1.0779547)
(-3.5130171e-07 -3.5130171e-07 1.0779544)
(-1.9295572e-07 -3.3962482e-07 1.0779542)
(-5.1351866e-08 -3.2976733e-07 1.0779541)
(7.894989e-08 -3.2004164e-07 1.0779541)
(1.9822253e-07 -3.0877953e-07 1.0779542)
(3.0334214e-07 -2.9408956e-07 1.0779544)
(3.8386583e-07 -2.7440954e-07 1.0779547)
(1.3866864e-07 -2.5340962e-07 1.0779551)
(-2.711062e-07 -2.1236855e-07 1.0779551)
(-6.184598e-07 -2.0379554e-07 1.0779545)
(-3.3962482e-07 -1.9295572e-07 1.0779542)
(-1.8226116e-07 -1.8226116e-07 1.077954)
(-4.1103967e-08 -1.7201981e-07 1.0779539)
(8.9747918e-08 -1.6175983e-07 1.0779539)
(2.1057603e-07 -1.5080347e-07 1.0779541)
(3.176147e-07 -1.3868318e-07 1.0779543)
(3.9792479e-07 -1.2596333e-07 1.0779546)
(1.4298071e-07 -1.1597943e-07 1.077955)
(-2.6895757e-07 -6.6890167e-08 1.077955)
(-6.1050102e-07 -6.068715e-08 1.0779544)
(-3.2976733e-07 -5.1351859e-08 1.0779541)
(-1.7201981e-07 -4.1103962e-08 1.0779539)
(-3.0850538e-08 -3.0850544e-08 1.0779538)
(1.0016623e-07 -2.0705883e-08 1.0779539)
(2.2129918e-07 -1.0538421e-08 1.077954)
(3.2818228e-07 -4.6231557e-10 1.0779542)
(4.0656958e-07 8.6212748e-09 1.0779546)
(1.4532458e-07 1.4566403e-08 1.077955)
(-2.6697086e-07 6.1696036e-08 1.077955)
(-6.0292149e-07 6.8760115e-08 1.0779544)
(-3.2004163e-07 7.8949899e-08 1.0779541)
(-1.6175984e-07 8.9747932e-08 1.0779539)
(-2.0705888e-08 1.0016624e-07 1.0779539)
(1.1006004e-07 1.1006004e-07 1.0779539)
(2.308196e-07 1.1951254e-07 1.0779541)
(3.367744e-07 1.283769e-07 1.0779543)
(4.1295351e-07 1.3589601e-07 1.0779546)
(1.4694413e-07 1.4052235e-07 1.077955)
(-2.6424819e-07 1.7289828e-07 1.0779551)
(-5.9324716e-07 1.8462396e-07 1.0779545)
(-3.0877952e-07 1.9822254e-07 1.0779542)
(-1.5080347e-07 2.1057603e-07 1.0779541)
(-1.0538429e-08 2.212992e-07 1.077954)
(1.1951253e-07 2.308196e-07 1.0779541)
(2.3961604e-07 2.3961605e-07 1.0779542)
(3.4456574e-07 2.4787291e-07 1.0779545)
(4.1871504e-07 2.5515757e-07 1.0779548)
(1.484088e-07 2.6000188e-07 1.0779552)
(-2.5915374e-07 2.5740701e-07 1.0779553)
(-5.7759724e-07 2.8324472e-07 1.0779547)
(-2.9408956e-07 3.0334215e-07 1.0779544)
(-1.3868318e-07 3.1761469e-07 1.0779543)
(-4.6231426e-10 3.2818226e-07 1.0779542)
(1.283769e-07 3.367744e-07 1.0779543)
(2.4787291e-07 3.4456575e-07 1.0779545)
(3.5231592e-07 3.5231592e-07 1.0779547)
(4.2508248e-07 3.6023643e-07 1.0779551)
(1.5017367e-07 3.6697489e-07 1.0779555)
(-2.4702305e-07 2.866425e-07 1.0779555)
(-5.4731203e-07 3.5724484e-07 1.077955)
(-2.7440954e-07 3.8386583e-07 1.0779547)
(-1.2596335e-07 3.979248e-07 1.0779546)
(8.6212763e-09 4.0656959e-07 1.0779546)
(1.3589602e-07 4.1295351e-07 1.0779546)
(2.5515756e-07 4.1871505e-07 1.0779548)
(3.6023641e-07 4.2508249e-07 1.0779551)
(4.3337401e-07 4.3337401e-07 1.0779554)
(1.5290111e-07 4.4441893e-07 1.0779558)
(-2.1208551e-07 9.4043216e-08 1.0779558)
(-4.803739e-07 1.2898076e-07 1.0779554)
(-2.5340961e-07 1.3866864e-07 1.0779551)
(-1.1597943e-07 1.4298072e-07 1.077955)
(1.4566398e-08 1.4532458e-07 1.077955)
(1.4052236e-07 1.4694413e-07 1.077955)
(2.6000189e-07 1.484088e-07 1.0779552)
(3.6697488e-07 1.5017368e-07 1.0779555)
(4.4441892e-07 1.5290111e-07 1.0779558)
(1.5753696e-07 1.5753696e-07 1.0779563)
(-5.2701913e-07 -5.2701913e-07 1.0779664)
(-1.1968714e-06 -4.607923e-07 1.0779658)
(-6.5471735e-07 -4.4587295e-07 1.0779655)
(-3.6297133e-07 -4.3979192e-07 1.0779653)
(-1.0844633e-07 -4.3602425e-07 1.0779652)
(1.2144058e-07 -4.3248481e-07 1.0779652)
(3.2544801e-07 -4.27592e-07 1.0779653)
(4.9206431e-07 -4.1835949e-07 1.0779655)
(5.8894632e-07 -3.9612814e-07 1.0779658)
(2.0469322e-07 -3.3125395e-07 1.0779662)
(-4.607923e-07 -1.1968714e-06 1.0779658)
(-1.0751522e-06 -1.0751521e-06 1.0779653)
(-6.2321677e-07 -1.0373117e-06 1.077965)
(-3.4819828e-07 -1.0175952e-06 1.0779648)
(-9.7485671e-08 -1.0035831e-06 1.0779647)
(1.3408897e-07 -9.9007429e-07 1.0779647)
(3.46636e-07 -9.7271762e-07 1.0779649)
(5.3926009e-07 -9.4448023e-07 1.0779651)
(7.1960462e-07 -8.8943447e-07 1.0779654)
(2.6956741e-07 -7.6669268e-07 1.0779658)
(-4.4587295e-07 -6.5471735e-07 1.0779655)
(-1.0373117e-06 -6.2321677e-07 1.077965)
(-5.9716035e-07 -5.9716036e-07 1.0779647)
(-3.2924276e-07 -5.7675863e-07 1.0779645)
(-8.0925468e-08 -5.5930391e-07 1.0779644)
(1.5230609e-07 -5.4195273e-07 1.0779645)
(3.7104207e-07 -5.2178038e-07 1.0779646)
(5.7534746e-07 -4.9541651e-07 1.0779648)
(7.6673387e-07 -4.601394e-07 1.0779652)
(2.8652108e-07 -4.2328334e-07 1.0779656)
(-4.3979192e-07 -3.6297133e-07 1.0779653)
(-1.0175952e-06 -3.481983e-07 1.0779648)
(-5.7675863e-07 -3.2924276e-07 1.0779645)
(-3.1034183e-07 -3.1034184e-07 1.0779643)
(-6.267978e-08 -2.9211908e-07 1.0779643)
(1.7161249e-07 -2.7378726e-07 1.0779643)
(3.9317222e-07 -2.5416381e-07 1.0779645)
(6.0090107e-07 -2.3243452e-07 1.0779647)
(7.9173779e-07 -2.096624e-07 1.077965)
(2.9413811e-07 -1.9195959e-07 1.0779655)
(-4.3602426e-07 -1.0844633e-07 1.0779652)
(-1.0035831e-06 -9.7485678e-08 1.0779647)
(-5.5930389e-07 -8.0925457e-08 1.0779644)
(-2.9211908e-07 -6.2679778e-08 1.0779643)
(-4.4370888e-08 -4.4370888e-08 1.0779642)
(1.9026136e-07 -2.6212481e-08 1.0779643)
(4.1239481e-07 -7.9759567e-09 1.0779644)
(6.1984887e-07 1.0126045e-08 1.0779647)
(8.072088e-07 2.6456458e-08 1.077965)
(2.9832295e-07 3.7125495e-08 1.0779655)
(-4.3248481e-07 1.2144058e-07 1.0779652)
(-9.9007429e-07 1.3408898e-07 1.0779647)
(-5.4195273e-07 1.523061e-07 1.0779645)
(-2.7378726e-07 1.716125e-07 1.0779643)
(-2.6212483e-08 1.9026137e-07 1.0779643)
(2.0800743e-07 2.0800742e-07 1.0779643)
(4.2951075e-07 2.2501456e-07 1.0779645)
(6.3533348e-07 2.4103707e-07 1.0779647)
(8.1873724e-07 2.5471978e-07 1.0779651)
(3.012508e-07 2.6321272e-07 1.0779656)
(-4.2759199e-07 3.2544801e-07 1.0779653)
(-9.7271762e-07 3.46636e-07 1.0779649)
(-5.2178037e-07 3.7104208e-07 1.0779646)
(-2.5416381e-07 3.9317223e-07 1.0779645)
(-7.9759707e-09 4.1239482e-07 1.0779644)
(2.2501455e-07 4.2951075e-07 1.0779645)
(4.4542447e-07 4.4542447e-07 1.0779646)
(6.495541e-07 4.6054869e-07 1.0779649)
(8.2938445e-07 4.7421332e-07 1.0779653)
(3.0398491e-07 4.8369932e-07 1.0779657)
(-4.1835949e-07 4.9206431e-07 1.0779655)
(-9.4448022e-07 5.392601e-07 1.0779651)
(-4.954165e-07 5.7534747e-07 1.0779648)
(-2.3243453e-07 6.0090106e-07 1.0779647)
(1.0126036e-08 6.1984887e-07 1.0779647)
(2.4103707e-07 6.3533349e-07 1.0779647)
(4.6054869e-07 6.4955411e-07 1.0779649)
(6.6412234e-07 6.6412233e-07 1.0779652)
(8.4188787e-07 6.7999784e-07 1.0779655)
(3.075748e-07 6.9544611e-07 1.077966)
(-3.9612813e-07 5.8894632e-07 1.0779658)
(-8.8943445e-07 7.1960463e-07 1.0779654)
(-4.601394e-07 7.6673387e-07 1.0779652)
(-2.0966241e-07 7.9173778e-07 1.077965)
(2.645646e-08 8.0720881e-07 1.077965)
(2.5471979e-07 8.1873724e-07 1.0779651)
(4.7421331e-07 8.2938446e-07 1.0779653)
(6.7999783e-07 8.4188787e-07 1.0779655)
(8.6070823e-07 8.6070823e-07 1.0779659)
(3.1428376e-07 8.9611722e-07 1.0779664)
(-3.3125395e-07 2.0469323e-07 1.0779662)
(-7.6669267e-07 2.6956741e-07 1.0779658)
(-4.2328335e-07 2.8652108e-07 1.0779656)
(-1.9195959e-07 2.9413811e-07 1.0779655)
(3.7125498e-08 2.9832296e-07 1.0779655)
(2.6321273e-07 3.012508e-07 1.0779656)
(4.8369932e-07 3.0398491e-07 1.0779657)
(6.954461e-07 3.0757481e-07 1.077966)
(8.9611721e-07 3.1428376e-07 1.0779664)
(3.311808e-07 3.311808e-07 1.077967)
(-7.1035658e-07 -7.1035657e-07 1.0779827)
(-1.6197656e-06 -6.2121513e-07 1.0779822)
(-8.9442753e-07 -6.0106062e-07 1.0779819)
(-4.9381547e-07 -5.9268314e-07 1.0779817)
(-1.3558625e-07 -5.8738251e-07 1.0779817)
(1.9386534e-07 -5.8232958e-07 1.0779817)
(4.9238814e-07 -5.7528668e-07 1.0779818)
(7.4640593e-07 -5.6191999e-07 1.077982)
(9.1629188e-07 -5.2955669e-07 1.0779823)
(3.2429412e-07 -4.3461279e-07 1.0779827)
(-6.2121513e-07 -1.6197656e-06 1.0779822)
(-1.4558217e-06 -1.4558217e-06 1.0779817)
(-8.5162955e-07 -1.404391e-06 1.0779815)
(-4.732983e-07 -1.3770499e-06 1.0779813)
(-1.2005591e-07 -1.3572721e-06 1.0779812)
(2.1200908e-07 -1.3379806e-06 1.0779813)
(5.2300252e-07 -1.3130307e-06 1.0779814)
(8.1500091e-07 -1.272266e-06 1.0779816)
(1.1072527e-06 -1.1924975e-06 1.0779819)
(4.1923802e-07 -1.0139662e-06 1.0779824)
(-6.0106063e-07 -8.9442754e-07 1.0779819)
(-1.404391e-06 -8.5162954e-07 1.0779815)
(-8.1565577e-07 -8.1565577e-07 1.0779812)
(-4.4669656e-07 -7.8705244e-07 1.077981)
(-9.6516986e-08 -7.6229156e-07 1.077981)
(2.3810665e-07 -7.3748878e-07 1.077981)
(5.5810279e-07 -7.0852873e-07 1.0779812)
(8.6693914e-07 -6.7060519e-07 1.0779814)
(1.1745917e-06 -6.1989386e-07 1.0779818)
(4.4331502e-07 -5.6751171e-07 1.0779822)
(-5.9268313e-07 -4.9381548e-07 1.0779817)
(-1.3770499e-06 -4.7329829e-07 1.0779813)
(-7.8705245e-07 -4.4669655e-07 1.077981)
(-4.1993409e-07 -4.1993408e-07 1.0779809)
(-7.0492249e-08 -3.939603e-07 1.0779808)
(2.6577192e-07 -3.6771159e-07 1.0779809)
(5.8988611e-07 -3.3953388e-07 1.077981)
(9.0363578e-07 -3.08294e-07 1.0779813)
(1.2103462e-06 -2.755846e-07 1.0779817)
(4.5415945e-07 -2.5031813e-07 1.0779821)
(-5.873825e-07 -1.3558625e-07 1.0779817)
(-1.3572721e-06 -1.2005592e-07 1.0779812)
(-7.6229156e-07 -9.651698e-08 1.077981)
(-3.939603e-07 -7.0492254e-08 1.0779808)
(-4.4294499e-08 -4.4294496e-08 1.0779808)
(2.9253307e-07 -1.8238069e-08 1.0779808)
(6.1752039e-07 7.9952168e-09 1.077981)
(9.3088842e-07 3.4084771e-08 1.0779813)
(1.2325676e-06 5.7641877e-08 1.0779816)
(4.6015934e-07 7.3012191e-08 1.0779821)
(-5.8232958e-07 1.9386534e-07 1.0779817)
(-1.3379806e-06 2.1200907e-07 1.0779813)
(-7.3748878e-07 2.3810666e-07 1.077981)
(-3.677116e-07 2.6577191e-07 1.0779809)
(-1.8238064e-08 2.9253308e-07 1.0779808)
(3.1806163e-07 3.1806162e-07 1.0779809)
(6.4220895e-07 3.4261464e-07 1.0779811)
(9.5328244e-07 3.6585775e-07 1.0779813)
(1.2492736e-06 3.8582898e-07 1.0779817)
(4.6440633e-07 3.9831033e-07 1.0779822)
(-5.7528668e-07 4.9238814e-07 1.0779818)
(-1.3130307e-06 5.2300253e-07 1.0779814)
(-7.0852872e-07 5.5810279e-07 1.0779812)
(-3.3953388e-07 5.8988612e-07 1.077981)
(7.9952131e-09 6.175204e-07 1.077981)
(3.4261464e-07 6.4220895e-07 1.0779811)
(6.6531652e-07 6.6531652e-07 1.0779813)
(9.7410276e-07 6.8753215e-07 1.0779815)
(1.2650201e-06 7.0797403e-07 1.0779819)
(4.6848024e-07 7.2253384e-07 1.0779824)
(-5.6191999e-07 7.4640593e-07 1.077982)
(-1.272266e-06 8.1500092e-07 1.0779816)
(-6.7060519e-07 8.6693914e-07 1.0779814)
(-3.0829399e-07 9.0363578e-07 1.0779813)
(3.4084763e-08 9.3088842e-07 1.0779813)
(3.6585775e-07 9.5328245e-07 1.0779813)
(6.8753215e-07 9.7410276e-07 1.0779815)
(9.9593995e-07 9.9593995e-07 1.0779818)
(1.2842753e-06 1.0206679e-06 1.0779822)
(4.7411287e-07 1.0460149e-06 1.0779827)
(-5.2955669e-07 9.1629189e-07 1.0779823)
(-1.1924975e-06 1.1072527e-06 1.0779819)
(-6.1989387e-07 1.1745917e-06 1.0779818)
(-2.755846e-07 1.2103462e-06 1.0779817)
(5.7641887e-08 1.2325676e-06 1.0779816)
(3.8582898e-07 1.2492736e-06 1.0779817)
(7.0797402e-07 1.2650201e-06 1.0779819)
(1.0206679e-06 1.2842753e-06 1.0779822)
(1.3150951e-06 1.3150951e-06 1.0779826)
(4.8537823e-07 1.3772253e-06 1.0779831)
(-4.3461279e-07 3.2429412e-07 1.0779827)
(-1.0139662e-06 4.1923802e-07 1.0779824)
(-5.6751171e-07 4.4331502e-07 1.0779822)
(-2.5031812e-07 4.5415946e-07 1.0779821)
(7.3012188e-08 4.6015935e-07 1.0779821)
(3.9831032e-07 4.6440633e-07 1.0779822)
(7.2253383e-07 4.6848024e-07 1.0779824)
(1.0460149e-06 4.7411286e-07 1.0779827)
(1.3772253e-06 4.8537823e-07 1.0779831)
(5.1553299e-07 5.1553299e-07 1.0779837)
(-8.8357744e-07 -8.8357744e-07 1.0780051)
(-2.0146203e-06 -7.723785e-07 1.0780046)
(-1.1110293e-06 -7.4729323e-07 1.0780044)
(-6.0654449e-07 -7.3675934e-07 1.0780042)
(-1.4857466e-07 -7.2999702e-07 1.0780042)
(2.7811866e-07 -7.2347463e-07 1.0780042)
(6.7041188e-07 -7.1432114e-07 1.0780043)
(1.0118873e-06 -6.9687912e-07 1.0780046)
(1.2530463e-06 -6.5452334e-07 1.0780049)
(4.4643127e-07 -5.2996576e-07 1.0780052)
(-7.7237851e-07 -2.0146203e-06 1.0780046)
(-1.810194e-06 -1.810194e-06 1.0780042)
(-1.0576006e-06 -1.7459986e-06 1.0780039)
(-5.8060019e-07 -1.7114794e-06 1.0780038)
(-1.286476e-07 -1.6861894e-06 1.0780037)
(3.0163249e-07 -1.6612832e-06 1.0780038)
(7.1030515e-07 -1.6288892e-06 1.0780039)
(1.101584e-06 -1.5757934e-06 1.0780042)
(1.5034163e-06 -1.4716735e-06 1.0780045)
(5.7098886e-07 -1.2382566e-06 1.078005)
(-7.4729323e-07 -1.1110293e-06 1.0780044)
(-1.7459986e-06 -1.0576006e-06 1.0780039)
(-1.0123147e-06 -1.0123147e-06 1.0780037)
(-5.4673526e-07 -9.759346e-07 1.0780036)
(-9.8378446e-08 -9.4415244e-07 1.0780035)
(3.3541891e-07 -9.1210496e-07 1.0780036)
(7.5590162e-07 -8.7453837e-07 1.0780037)
(1.169103e-06 -8.2525766e-07 1.078004)
(1.5905831e-06 -7.5938264e-07 1.0780043)
(6.0204252e-07 -6.9180097e-07 1.0780048)
(-7.3675934e-07 -6.065445e-07 1.0780042)
(-1.7114794e-06 -5.8060018e-07 1.0780038)
(-9.759346e-07 -5.4673525e-07 1.0780036)
(-5.1243795e-07 -5.1243795e-07 1.0780034)
(-6.4817953e-08 -4.7896534e-07 1.0780034)
(3.7124656e-07 -4.4499631e-07 1.0780035)
(7.9715245e-07 -4.0843106e-07 1.0780036)
(1.2167397e-06 -3.6784152e-07 1.0780039)
(1.636873e-06 -3.2536468e-07 1.0780042)
(6.1604331e-07 -2.9268876e-07 1.0780047)
(-7.2999702e-07 -1.4857466e-07 1.0780042)
(-1.6861894e-06 -1.2864762e-07 1.0780037)
(-9.4415244e-07 -9.8378449e-08 1.0780035)
(-4.7896535e-07 -6.4817959e-08 1.0780034)
(-3.0936806e-08 -3.0936812e-08 1.0780034)
(4.059532e-07 2.854863e-09 1.0780034)
(8.330564e-07 3.6958981e-08 1.0780036)
(1.2521693e-06 7.0938337e-08 1.0780039)
(1.6657358e-06 1.0164491e-07 1.0780042)
(6.2382647e-07 1.2166107e-07 1.0780047)
(-7.2347464e-07 2.7811867e-07 1.0780042)
(-1.6612832e-06 3.0163249e-07 1.0780038)
(-9.1210495e-07 3.354189e-07 1.0780036)
(-4.4499631e-07 3.7124656e-07 1.0780035)
(2.8548689e-09 4.059532e-07 1.0780034)
(4.3914235e-07 4.3914234e-07 1.0780035)
(8.6523592e-07 4.7117088e-07 1.0780037)
(1.2814256e-06 5.016169e-07 1.078004)
(1.6875957e-06 5.2790037e-07 1.0780043)
(6.2938741e-07 5.4440016e-07 1.0780048)
(-7.1432114e-07 6.7041188e-07 1.0780043)
(-1.6288892e-06 7.1030517e-07 1.0780039)
(-8.7453837e-07 7.5590163e-07 1.0780037)
(-4.0843106e-07 7.9715245e-07 1.0780036)
(3.6958973e-08 8.3305641e-07 1.0780036)
(4.7117088e-07 8.6523593e-07 1.0780037)
(8.9553096e-07 8.9553095e-07 1.0780039)
(1.3088988e-06 9.2491944e-07 1.0780042)
(1.7085191e-06 9.5229377e-07 1.0780045)
(6.3482633e-07 9.7206892e-07 1.078005)
(-6.9687911e-07 1.0118873e-06 1.0780046)
(-1.5757934e-06 1.101584e-06 1.0780042)
(-8.2525766e-07 1.1691029e-06 1.078004)
(-3.6784153e-07 1.2167397e-06 1.0780039)
(7.0938341e-08 1.2521693e-06 1.0780039)
(5.016169e-07 1.2814256e-06 1.078004)
(9.2491943e-07 1.3088988e-06 1.0780042)
(1.3381885e-06 1.3381885e-06 1.0780044)
(1.7347452e-06 1.3720743e-06 1.0780048)
(6.4257085e-07 1.4075737e-06 1.0780053)
(-6.5452334e-07 1.2530463e-06 1.0780049)
(-1.4716735e-06 1.5034163e-06 1.0780045)
(-7.5938265e-07 1.5905831e-06 1.0780043)
(-3.2536468e-07 1.636873e-06 1.0780042)
(1.0164492e-07 1.6657359e-06 1.0780042)
(5.2790037e-07 1.6875957e-06 1.0780043)
(9.5229377e-07 1.7085191e-06 1.0780045)
(1.3720743e-06 1.7347452e-06 1.0780048)
(1.7779043e-06 1.7779043e-06 1.0780052)
(6.5849259e-07 1.8667074e-06 1.0780058)
(-5.2996575e-07 4.4643128e-07 1.0780052)
(-1.2382566e-06 5.7098887e-07 1.078005)
(-6.9180098e-07 6.0204252e-07 1.0780048)
(-2.9268875e-07 6.1604332e-07 1.0780047)
(1.2166107e-07 6.2382648e-07 1.0780047)
(5.4440014e-07 6.2938741e-07 1.0780048)
(9.7206892e-07 6.3482632e-07 1.078005)
(1.4075737e-06 6.4257084e-07 1.0780053)
(1.8667074e-06 6.5849259e-07 1.0780058)
(7.0177293e-07 7.0177293e-07 1.0780063)
(-1.0486079e-06 -1.0486079e-06 1.0780334)
(-2.3869651e-06 -9.1604332e-07 1.0780329)
(-1.3086844e-06 -8.862391e-07 1.0780327)
(-7.0359191e-07 -8.7365309e-07 1.0780325)
(-1.4923447e-07 -8.6549147e-07 1.0780325)
(3.7182398e-07 -8.5754805e-07 1.0780325)
(8.5549437e-07 -8.4633992e-07 1.0780327)
(1.2819847e-06 -8.2492202e-07 1.0780329)
(1.5908899e-06 -7.728187e-07 1.0780332)
(5.682012e-07 -6.1939547e-07 1.0780336)
(-9.1604333e-07 -2.3869651e-06 1.0780329)
(-2.1434119e-06 -2.1434119e-06 1.0780325)
(-1.2450991e-06 -2.0670369e-06 1.0780322)
(-6.7247046e-07 -2.0256866e-06 1.0780321)
(-1.250769e-07 -1.9951153e-06 1.0780321)
(4.0055131e-07 -1.9647801e-06 1.0780321)
(9.0443341e-07 -1.9251443e-06 1.0780323)
(1.3922666e-06 -1.8600251e-06 1.0780325)
(1.8991797e-06 -1.7321599e-06 1.0780329)
(7.2162442e-07 -1.4452677e-06 1.0780333)
(-8.8623911e-07 -1.3086844e-06 1.0780327)
(-2.0670369e-06 -1.2450991e-06 1.0780322)
(-1.1909591e-06 -1.1909591e-06 1.078032)
(-6.3167031e-07 -1.1471624e-06 1.0780319)
(-8.8328029e-08 -1.1086364e-06 1.0780319)
(4.4179499e-07 -1.069579e-06 1.0780319)
(9.6024939e-07 -1.0236427e-06 1.0780321)
(1.4749692e-06 -9.6329395e-07 1.0780323)
(2.0056472e-06 -8.8264207e-07 1.0780327)
(7.5946262e-07 -8.0027816e-07 1.0780332)
(-8.736531e-07 -7.0359192e-07 1.0780325)
(-2.0256866e-06 -6.7247048e-07 1.0780321)
(-1.1471623e-06 -6.3167031e-07 1.0780319)
(-5.9014781e-07 -5.9014782e-07 1.0780318)
(-4.7493536e-08 -5.4944354e-07 1.0780318)
(4.8554501e-07 -5.0798807e-07 1.0780318)
(1.0107184e-06 -4.6325661e-07 1.078032)
(1.5332672e-06 -4.1354635e-07 1.0780323)
(2.0621955e-06 -3.6154116e-07 1.0780326)
(7.765337e-07 -3.2164995e-07 1.0780331)
(-8.6549148e-07 -1.4923448e-07 1.0780325)
(-1.9951153e-06 -1.250769e-07 1.0780321)
(-1.1086364e-06 -8.8328027e-08 1.0780319)
(-5.4944354e-07 -4.7493542e-08 1.0780318)
(-6.1682873e-09 -6.1682985e-09 1.0780317)
(5.2798191e-07 3.5149076e-08 1.0780318)
(1.0546911e-06 7.6939596e-08 1.078032)
(1.5766846e-06 1.1864357e-07 1.0780323)
(2.0975436e-06 1.5635653e-07 1.0780326)
(7.8605676e-07 1.8092137e-07 1.0780331)
(-8.5754805e-07 3.7182399e-07 1.0780325)
(-1.9647801e-06 4.0055133e-07 1.0780321)
(-1.069579e-06 4.4179498e-07 1.0780319)
(-5.0798808e-07 4.8554502e-07 1.0780318)
(3.5149082e-08 5.2798191e-07 1.0780318)
(5.6865291e-07 5.6865291e-07 1.0780319)
(1.0942129e-06 6.0801618e-07 1.0780321)
(1.6126842e-06 6.4556009e-07 1.0780324)
(2.1244733e-06 6.7808296e-07 1.0780327)
(7.9291026e-07 6.985583e-07 1.0780332)
(-8.4633992e-07 8.5549437e-07 1.0780327)
(-1.9251443e-06 9.0443343e-07 1.0780323)
(-1.0236427e-06 9.6024939e-07 1.0780321)
(-4.6325661e-07 1.0107185e-06 1.078032)
(7.6939601e-08 1.0546911e-06 1.078032)
(6.0801618e-07 1.094213e-06 1.0780321)
(1.1315983e-06 1.1315983e-06 1.0780323)
(1.6467514e-06 1.1681093e-06 1.0780326)
(2.1505418e-06 1.2023971e-06 1.0780329)
(7.9970699e-07 1.2273736e-06 1.0780334)
(-8.2492201e-07 1.2819847e-06 1.0780329)
(-1.8600251e-06 1.3922666e-06 1.0780325)
(-9.6329396e-07 1.4749692e-06 1.0780323)
(-4.1354635e-07 1.5332672e-06 1.0780323)
(1.1864358e-07 1.5766846e-06 1.0780323)
(6.455601e-07 1.6126842e-06 1.0780324)
(1.1681093e-06 1.6467514e-06 1.0780326)
(1.683483e-06 1.683483e-06 1.0780329)
(2.1837376e-06 1.7265274e-06 1.0780332)
(8.0956127e-07 1.7721232e-06 1.0780337)
(-7.728187e-07 1.5908899e-06 1.0780332)
(-1.7321599e-06 1.8991797e-06 1.0780329)
(-8.8264207e-07 2.0056472e-06 1.0780327)
(-3.6154116e-07 2.0621955e-06 1.0780326)
(1.5635652e-07 2.0975436e-06 1.0780326)
(6.7808296e-07 2.1244732e-06 1.0780327)
(1.2023971e-06 2.1505418e-06 1.0780329)
(1.7265274e-06 2.1837376e-06 1.0780332)
(2.2391821e-06 2.239182e-06 1.0780337)
(8.3010421e-07 2.3542879e-06 1.0780342)
(-6.1939547e-07 5.682012e-07 1.0780336)
(-1.4452677e-06 7.2162443e-07 1.0780333)
(-8.0027817e-07 7.5946262e-07 1.0780332)
(-3.2164995e-07 7.765337e-07 1.0780331)
(1.8092137e-07 7.8605676e-07 1.0780331)
(6.985583e-07 7.9291026e-07 1.0780332)
(1.2273736e-06 7.9970699e-07 1.0780334)
(1.7721232e-06 8.0956128e-07 1.0780337)
(2.3542879e-06 8.301042e-07 1.0780342)
(8.8629851e-07 8.8629851e-07 1.0780347)
(-1.2055594e-06 -1.2055594e-06 1.0780672)
(-2.7381655e-06 -1.0524057e-06 1.0780667)
(-1.4897183e-06 -1.0180835e-06 1.0780665)
(-7.8712141e-07 -1.0035402e-06 1.0780664)
(-1.3977809e-07 -9.9404009e-07 1.0780664)
(4.7221976e-07 -9.8472955e-07 1.0780664)
(1.0438533e-06 -9.7153696e-07 1.0780666)
(1.5517542e-06 -9.4627405e-07 1.0780668)
(1.9244455e-06 -8.8474395e-07 1.0780671)
(6.878508e-07 -7.0340932e-07 1.0780675)
(-1.0524057e-06 -2.7381655e-06 1.0780667)
(-2.4569517e-06 -2.4569516e-06 1.0780663)
(-1.4164201e-06 -2.3689382e-06 1.0780661)
(-7.5105624e-07 -2.3210748e-06 1.078066)
(-1.1156215e-07 -2.2854511e-06 1.078066)
(5.0597446e-07 -2.2498942e-06 1.078066)
(1.1015365e-06 -2.2032667e-06 1.0780662)
(1.6819437e-06 -2.1265234e-06 1.0780664)
(2.2887426e-06 -1.9757006e-06 1.0780668)
(8.6918543e-07 -1.6371228e-06 1.0780672)
(-1.0180835e-06 -1.4897183e-06 1.0780665)
(-2.3689382e-06 -1.4164201e-06 1.0780661)
(-1.3538415e-06 -1.3538415e-06 1.0780659)
(-7.0363426e-07 -1.3029686e-06 1.0780658)
(-6.8597477e-08 -1.2579836e-06 1.0780658)
(5.5440407e-07 -1.2121812e-06 1.0780659)
(1.1672242e-06 -1.1581653e-06 1.078066)
(1.7793203e-06 -1.0871177e-06 1.0780663)
(2.413846e-06 -9.9218384e-07 1.0780666)
(9.135693e-07 -8.955552e-07 1.0780671)
(-1.0035402e-06 -7.8712142e-07 1.0780664)
(-2.3210748e-06 -7.5105626e-07 1.078066)
(-1.3029686e-06 -7.0363427e-07 1.0780658)
(-6.551983e-07 -6.5519829e-07 1.0780657)
(-2.0774726e-08 -6.075506e-07 1.0780657)
(6.0579273e-07 -5.5888088e-07 1.0780658)
(1.2266e-06 -5.0625835e-07 1.0780659)
(1.8479251e-06 -4.4772316e-07 1.0780662)
(2.4803051e-06 -3.8649925e-07 1.0780666)
(9.3360452e-07 -3.396364e-07 1.078067)
(-9.940401e-07 -1.3977809e-07 1.0780664)
(-2.2854511e-06 -1.1156216e-07 1.078066)
(-1.2579836e-06 -6.8597497e-08 1.0780658)
(-6.0755059e-07 -2.0774722e-08 1.0780657)
(2.771993e-08 2.7719913e-08 1.0780657)
(6.5569632e-07 7.6306661e-08 1.0780658)
(1.2783819e-06 1.255415e-07 1.078066)
(1.8990794e-06 1.7473962e-07 1.0780662)
(2.5219327e-06 2.1925328e-07 1.0780666)
(9.4481121e-07 2.4822953e-07 1.0780671)
(-9.8472955e-07 4.7221974e-07 1.0780664)
(-2.2498942e-06 5.0597447e-07 1.078066)
(-1.2121812e-06 5.5440407e-07 1.0780659)
(-5.5888089e-07 6.0579273e-07 1.0780658)
(7.6306657e-08 6.5569631e-07 1.0780658)
(7.0361432e-07 7.036143e-07 1.0780659)
(1.325033e-06 7.5010463e-07 1.078066)
(1.9416369e-06 7.9456426e-07 1.0780663)
(2.553795e-06 8.3317635e-07 1.0780667)
(9.5292202e-07 8.5753191e-07 1.0780672)
(-9.7153695e-07 1.0438533e-06 1.0780666)
(-2.2032667e-06 1.1015365e-06 1.0780662)
(-1.1581653e-06 1.1672242e-06 1.078066)
(-5.0625835e-07 1.2266001e-06 1.0780659)
(1.255415e-07 1.2783819e-06 1.078066)
(7.5010465e-07 1.325033e-06 1.078066)
(1.3693319e-06 1.3693318e-06 1.0780662)
(1.9821511e-06 1.4128142e-06 1.0780665)
(2.5849004e-06 1.4538831e-06 1.0780669)
(9.6104825e-07 1.4839607e-06 1.0780674)
(-9.4627405e-07 1.5517542e-06 1.0780668)
(-2.1265233e-06 1.6819437e-06 1.0780664)
(-1.0871177e-06 1.7793203e-06 1.0780663)
(-4.4772315e-07 1.8479251e-06 1.0780662)
(1.747396e-07 1.8990794e-06 1.0780662)
(7.9456425e-07 1.9416369e-06 1.0780663)
(1.4128142e-06 1.9821511e-06 1.0780665)
(2.0261882e-06 2.0261882e-06 1.0780668)
(2.6249415e-06 2.0782298e-06 1.0780672)
(9.7297369e-07 2.1337234e-06 1.0780677)
(-8.8474396e-07 1.9244455e-06 1.0780671)
(-1.9757006e-06 2.2887426e-06 1.0780668)
(-9.9218383e-07 2.413846e-06 1.0780666)
(-3.8649926e-07 2.480305e-06 1.0780666)
(2.1925327e-07 2.5219327e-06 1.0780666)
(8.3317635e-07 2.553795e-06 1.0780667)
(1.4538831e-06 2.5849004e-06 1.0780669)
(2.0782298e-06 2.6249415e-06 1.0780672)
(2.6924356e-06 2.6924356e-06 1.0780676)
(9.9804397e-07 2.8332667e-06 1.0780681)
(-7.0340932e-07 6.878508e-07 1.0780675)
(-1.6371228e-06 8.6918543e-07 1.0780672)
(-8.955552e-07 9.135693e-07 1.0780671)
(-3.396364e-07 9.3360452e-07 1.078067)
(2.4822953e-07 9.4481121e-07 1.0780671)
(8.575319e-07 9.5292202e-07 1.0780672)
(1.4839607e-06 9.6104825e-07 1.0780674)
(2.1337234e-06 9.729737e-07 1.0780677)
(2.8332667e-06 9.9804396e-07 1.0780681)
(1.0668611e-06 1.0668611e-06 1.0780686)
(-1.3539723e-06 -1.3539723e-06 1.0781063)
(-3.0679768e-06 -1.181131e-06 1.0781059)
(-1.6553234e-06 -1.1425073e-06 1.0781057)
(-8.5880716e-07 -1.1261041e-06 1.0781056)
(-1.2228632e-07 -1.1153296e-06 1.0781056)
(5.7667819e-07 -1.1047125e-06 1.0781056)
(1.2321826e-06 -1.0896186e-06 1.0781058)
(1.8172947e-06 -1.0606686e-06 1.078106)
(2.2497339e-06 -9.9009763e-07 1.0781063)
(8.0410623e-07 -7.8199206e-07 1.0781066)
(-1.181131e-06 -3.0679768e-06 1.0781059)
(-2.7507792e-06 -2.7507792e-06 1.0781055)
(-1.572783e-06 -2.6516975e-06 1.0781053)