/*--------------------------------*- C++ -*----------------------------------*\
| =========                 |                                                 |
| \\      /  F ield         | OpenFOAM: The Open Source CFD Toolbox           |
|  \\    /   O peration     | Version:  v2106                                 |
|   \\  /    A nd           | Website:  www.openfoam.com                      |
|    \\/     M anipulation  |                                                 |
\*---------------------------------------------------------------------------*/
FoamFile
{
    version     2.0;
    format      ascii;
    arch        "LSB;label=32;scalar=64";
    class       volScalarField;
    location    "87.5";
    object      gradTz;
}
// * * * * * * * * * * * * * * * * * * * * * * * * * * * * * * * * * * * * * //

dimensions      [0 -1 0 1 0 0 0];

internalField   nonuniform List<scalar> 
4000
(
568.29683
568.2964
568.2962
568.29607
568.29602
568.29602
568.29607
568.29616
568.29628
568.29639
568.2964
568.29603
568.29583
568.29571
568.29566
568.29566
568.29572
568.29582
568.29595
568.2961
568.2962
568.29583
568.29565
568.29553
568.29548
568.29549
568.29555
568.29565
568.2958
568.29596
568.29607
568.29571
568.29553
568.29542
568.29538
568.29539
568.29545
568.29556
568.29572
568.29589
568.29602
568.29566
568.29548
568.29538
568.29534
568.29535
568.29542
568.29554
568.29569
568.29587
568.29602
568.29566
568.29549
568.29539
568.29535
568.29537
568.29544
568.29556
568.29572
568.2959
568.29607
568.29572
568.29555
568.29545
568.29542
568.29544
568.29552
568.29564
568.2958
568.29598
568.29616
568.29582
568.29565
568.29556
568.29554
568.29556
568.29564
568.29577
568.29593
568.29612
568.29628
568.29595
568.2958
568.29572
568.29569
568.29572
568.2958
568.29593
568.2961
568.29629
568.29639
568.2961
568.29596
568.29589
568.29587
568.2959
568.29598
568.29612
568.29629
568.29648
839.80367
839.80314
839.80287
839.8027
839.80262
839.80263
839.80271
839.80285
839.80305
839.80327
839.80314
839.80269
839.80243
839.80227
839.80219
839.8022
839.80228
839.80244
839.80266
839.80294
839.80287
839.80243
839.80218
839.80202
839.80196
839.80197
839.80206
839.80223
839.80246
839.80276
839.8027
839.80227
839.80202
839.80188
839.80181
839.80183
839.80193
839.8021
839.80235
839.80266
839.80262
839.80219
839.80196
839.80181
839.80176
839.80178
839.80189
839.80207
839.80232
839.80263
839.80263
839.8022
839.80197
839.80183
839.80178
839.80182
839.80193
839.80211
839.80237
839.80269
839.80271
839.80228
839.80206
839.80193
839.80189
839.80193
839.80204
839.80224
839.80249
839.80282
839.80285
839.80244
839.80223
839.8021
839.80207
839.80211
839.80224
839.80243
839.80269
839.80302
839.80305
839.80266
839.80246
839.80235
839.80232
839.80237
839.80249
839.80269
839.80296
839.8033
839.80327
839.80294
839.80276
839.80266
839.80263
839.80269
839.80282
839.80302
839.8033
839.80365
834.37033
834.36989
834.36965
834.36951
834.36944
834.36945
834.36954
834.3697
834.36991
834.37018
834.36989
834.36951
834.36928
834.36914
834.36908
834.36909
834.36919
834.36935
834.36959
834.36992
834.36965
834.36928
834.36906
834.36893
834.36887
834.36889
834.36899
834.36917
834.36942
834.36977
834.36951
834.36914
834.36893
834.3688
834.36875
834.36878
834.36888
834.36906
834.36933
834.36969
834.36944
834.36908
834.36887
834.36875
834.3687
834.36874
834.36885
834.36904
834.36931
834.36967
834.36945
834.36909
834.36889
834.36878
834.36874
834.36878
834.3689
834.36909
834.36937
834.36973
834.36954
834.36919
834.36899
834.36888
834.36885
834.3689
834.36902
834.36922
834.3695
834.36987
834.3697
834.36935
834.36917
834.36906
834.36904
834.36909
834.36922
834.36943
834.36971
834.37008
834.36991
834.36959
834.36942
834.36933
834.36931
834.36937
834.3695
834.36971
834.37
834.37039
834.37018
834.36992
834.36977
834.36969
834.36967
834.36973
834.36987
834.37008
834.37039
834.3708
829.04609
829.04569
829.04548
829.04535
829.0453
829.04532
829.04542
829.04558
829.04581
829.04608
829.04569
829.04534
829.04514
829.04502
829.04497
829.04499
829.04509
829.04527
829.04552
829.04586
829.04548
829.04514
829.04495
829.04483
829.04479
829.04482
829.04492
829.04511
829.04537
829.04573
829.04535
829.04502
829.04483
829.04472
829.04468
829.04472
829.04483
829.04502
829.04529
829.04566
829.0453
829.04497
829.04479
829.04468
829.04465
829.04469
829.04481
829.04501
829.04529
829.04566
829.04532
829.04499
829.04482
829.04472
829.04469
829.04474
829.04486
829.04507
829.04535
829.04572
829.04542
829.04509
829.04492
829.04483
829.04481
829.04486
829.045
829.0452
829.04549
829.04587
829.04558
829.04527
829.04511
829.04502
829.04501
829.04507
829.0452
829.04542
829.04571
829.04609
829.04581
829.04552
829.04537
829.04529
829.04529
829.04535
829.04549
829.04571
829.04601
829.0464
829.04608
829.04586
829.04573
829.04566
829.04566
829.04572
829.04587
829.04609
829.0464
829.04682
823.82734
823.82696
823.82677
823.82666
823.82662
823.82665
823.82675
823.82692
823.82715
823.82742
823.82696
823.82664
823.82646
823.82635
823.82631
823.82634
823.82645
823.82663
823.82688
823.82722
823.82677
823.82646
823.82628
823.82618
823.82615
823.82619
823.8263
823.82649
823.82675
823.82711
823.82666
823.82635
823.82618
823.82608
823.82605
823.8261
823.82622
823.82641
823.82669
823.82705
823.82662
823.82631
823.82615
823.82605
823.82603
823.82608
823.82621
823.82641
823.82669
823.82705
823.82665
823.82634
823.82619
823.8261
823.82608
823.82614
823.82627
823.82648
823.82676
823.82713
823.82675
823.82645
823.8263
823.82622
823.82621
823.82627
823.82641
823.82662
823.82691
823.82728
823.82692
823.82663
823.82649
823.82641
823.82641
823.82648
823.82662
823.82684
823.82713
823.82751
823.82715
823.82688
823.82675
823.82669
823.82669
823.82676
823.82691
823.82713
823.82743
823.82782
823.82742
823.82722
823.82711
823.82705
823.82705
823.82713
823.82728
823.82751
823.82782
823.82823
818.71064
818.71029
818.71011
818.71001
818.70998
818.71002
818.71012
818.71029
818.71052
818.71079
818.71029
818.70998
818.70982
818.70972
818.70969
818.70973
818.70984
818.71002
818.71027
818.7106
818.71011
818.70982
818.70966
818.70957
818.70954
818.70959
818.70971
818.70989
818.71016
818.7105
818.71001
818.70972
818.70957
818.70948
818.70946
818.70952
818.70964
818.70983
818.7101
818.71045
818.70998
818.70969
818.70954
818.70946
818.70945
818.70951
818.70964
818.70984
818.71011
818.71047
818.71002
818.70973
818.70959
818.70952
818.70951
818.70957
818.7097
818.70991
818.71019
818.71055
818.71012
818.70984
818.70971
818.70964
818.70964
818.7097
818.70984
818.71005
818.71034
818.7107
818.71029
818.71002
818.70989
818.70983
818.70984
818.70991
818.71005
818.71027
818.71056
818.71093
818.71052
818.71027
818.71016
818.7101
818.71011
818.71019
818.71034
818.71056
818.71086
818.71123
818.71079
818.7106
818.7105
818.71045
818.71047
818.71055
818.7107
818.71093
818.71123
818.71164
813.69269
813.69237
813.69221
813.69212
813.6921
813.69214
813.69225
813.69241
813.69264
813.69289
813.69237
813.69208
813.69193
813.69185
813.69183
813.69187
813.69198
813.69216
813.6924
813.69272
813.69221
813.69193
813.69179
813.69171
813.69169
813.69174
813.69186
813.69204
813.6923
813.69263
813.69212
813.69185
813.69171
813.69163
813.69162
813.69168
813.6918
813.69199
813.69225
813.69259
813.6921
813.69183
813.69169
813.69162
813.69162
813.69168
813.69181
813.692
813.69227
813.69261
813.69214
813.69187
813.69174
813.69168
813.69168
813.69175
813.69188
813.69208
813.69235
813.6927
813.69225
813.69198
813.69186
813.6918
813.69181
813.69188
813.69202
813.69222
813.6925
813.69285
813.69241
813.69216
813.69204
813.69199
813.692
813.69208
813.69222
813.69243
813.69272
813.69307
813.69264
813.6924
813.6923
813.69225
813.69227
813.69235
813.6925
813.69272
813.69301
813.69337
813.69289
813.69272
813.69263
813.69259
813.69261
813.6927
813.69285
813.69307
813.69337
813.69375
808.77033
808.77002
808.76988
808.7698
808.76979
808.76983
808.76994
808.7701
808.77031
808.77056
808.77002
808.76976
808.76962
808.76955
808.76954
808.76959
808.7697
808.76987
808.7701
808.7704
808.76988
808.76962
808.76949
808.76942
808.76942
808.76947
808.76958
808.76976
808.77001
808.77032
808.7698
808.76955
808.76942
808.76936
808.76936
808.76941
808.76953
808.76972
808.76997
808.77029
808.76979
808.76954
808.76942
808.76936
808.76936
808.76942
808.76955
808.76974
808.76999
808.77032
808.76983
808.76959
808.76947
808.76941
808.76942
808.76949
808.76962
808.76981
808.77007
808.7704
808.76994
808.7697
808.76958
808.76953
808.76955
808.76962
808.76975
808.76995
808.77022
808.77055
808.7701
808.76987
808.76976
808.76972
808.76974
808.76981
808.76995
808.77016
808.77043
808.77076
808.77031
808.7701
808.77001
808.76997
808.76999
808.77007
808.77022
808.77043
808.7707
808.77105
808.77056
808.7704
808.77032
808.77029
808.77032
808.7704
808.77055
808.77076
808.77105
808.77142
803.94047
803.94019
803.94006
803.93999
803.93998
803.94003
803.94013
803.94029
803.94049
803.94072
803.94019
803.93995
803.93982
803.93976
803.93975
803.9398
803.93991
803.94008
803.9403
803.94058
803.94006
803.93982
803.93971
803.93965
803.93964
803.9397
803.93981
803.93998
803.94021
803.94051
803.93999
803.93976
803.93965
803.93959
803.93959
803.93965
803.93977
803.93995
803.94019
803.94049
803.93998
803.93975
803.93964
803.93959
803.9396
803.93966
803.93979
803.93997
803.94021
803.94052
803.94003
803.9398
803.9397
803.93965
803.93966
803.93973
803.93986
803.94005
803.94029
803.9406
803.94013
803.93991
803.93981
803.93977
803.93979
803.93986
803.93999
803.94018
803.94043
803.94074
803.94029
803.94008
803.93998
803.93995
803.93997
803.94005
803.94018
803.94038
803.94063
803.94094
803.94049
803.9403
803.94021
803.94019
803.94021
803.94029
803.94043
803.94063
803.94089
803.94122
803.94072
803.94058
803.94051
803.94049
803.94052
803.9406
803.94074
803.94094
803.94122
803.94156
799.20015
799.1999
799.19978
799.19973
799.19972
799.19977
799.19987
799.20002
799.20021
799.20042
799.1999
799.19968
799.19957
799.19952
799.19952
799.19957
799.19967
799.19982
799.20003
799.20029
799.19978
799.19957
799.19947
799.19942
799.19942
799.19947
799.19958
799.19974
799.19996
799.20024
799.19973
799.19952
799.19942
799.19937
799.19938
799.19944
799.19955
799.19971
799.19994
799.20022
799.19972
799.19952
799.19942
799.19938
799.19939
799.19945
799.19957
799.19974
799.19996
799.20025
799.19977
799.19957
799.19947
799.19944
799.19945
799.19952
799.19964
799.19981
799.20004
799.20033
799.19987
799.19967
799.19958
799.19955
799.19957
799.19964
799.19976
799.19994
799.20018
799.20046
799.20002
799.19982
799.19974
799.19971
799.19974
799.19981
799.19994
799.20013
799.20036
799.20066
799.20021
799.20003
799.19996
799.19994
799.19996
799.20004
799.20018
799.20036
799.20061
799.20091
799.20042
799.20029
799.20024
799.20022
799.20025
799.20033
799.20046
799.20066
799.20091
799.20123
794.54652
794.54629
794.54619
794.54614
794.54614
794.54619
794.54629
794.54642
794.5466
794.5468
794.54629
794.54609
794.546
794.54595
794.54596
794.54601
794.54611
794.54625
794.54644
794.54668
794.54619
794.546
794.54591
794.54587
794.54587
794.54593
794.54603
794.54618
794.54638
794.54663
794.54614
794.54595
794.54587
794.54583
794.54584
794.5459
794.546
794.54616
794.54636
794.54662
794.54614
794.54596
794.54587
794.54584
794.54585
794.54591
794.54602
794.54618
794.54639
794.54665
794.54619
794.54601
794.54593
794.5459
794.54591
794.54598
794.54609
794.54626
794.54647
794.54673
794.54629
794.54611
794.54603
794.546
794.54602
794.54609
794.54621
794.54638
794.54659
794.54686
794.54642
794.54625
794.54618
794.54616
794.54618
794.54626
794.54638
794.54655
794.54677
794.54704
794.5466
794.54644
794.54638
794.54636
794.54639
794.54647
794.54659
794.54677
794.54699
794.54727
794.5468
794.54668
794.54663
794.54662
794.54665
794.54673
794.54686
794.54704
794.54727
794.54757
789.9768
789.9766
789.97651
789.97647
789.97647
789.97652
789.97661
789.97674
789.9769
789.97708
789.9766
789.97642
789.97634
789.97631
789.97631
789.97636
789.97645
789.97659
789.97676
789.97698
789.97651
789.97634
789.97627
789.97623
789.97624
789.97629
789.97639
789.97653
789.97671
789.97694
789.97647
789.97631
789.97623
789.9762
789.97622
789.97627
789.97637
789.97651
789.9767
789.97693
789.97647
789.97631
789.97624
789.97622
789.97623
789.97629
789.97639
789.97654
789.97673
789.97697
789.97652
789.97636
789.97629
789.97627
789.97629
789.97635
789.97646
789.97661
789.9768
789.97704
789.97661
789.97645
789.97639
789.97637
789.97639
789.97646
789.97657
789.97672
789.97692
789.97716
789.97674
789.97659
789.97653
789.97651
789.97654
789.97661
789.97672
789.97688
789.97708
789.97732
789.9769
789.97676
789.97671
789.9767
789.97673
789.9768
789.97692
789.97708
789.97728
789.97753
789.97708
789.97698
789.97694
789.97693
789.97697
789.97704
789.97716
789.97732
789.97753
789.9778
785.48831
785.48814
785.48807
785.48804
785.48805
785.48809
785.48817
785.48829
785.48843
785.48859
785.48814
785.48799
785.48793
785.4879
785.48791
785.48795
785.48804
785.48816
785.48831
785.48851
785.48807
785.48793
785.48786
785.48784
785.48785
785.4879
785.48799
785.48811
785.48827
785.48848
785.48804
785.4879
785.48784
785.48781
785.48783
785.48788
785.48797
785.4881
785.48827
785.48848
785.48805
785.48791
785.48785
785.48783
785.48785
785.4879
785.488
785.48813
785.4883
785.48851
785.48809
785.48795
785.4879
785.48788
785.4879
785.48796
785.48806
785.48819
785.48837
785.48858
785.48817
785.48804
785.48799
785.48797
785.488
785.48806
785.48816
785.4883
785.48847
785.48869
785.48829
785.48816
785.48811
785.4881
785.48813
785.48819
785.4883
785.48844
785.48862
785.48883
785.48843
785.48831
785.48827
785.48827
785.4883
785.48837
785.48847
785.48862
785.4888
785.48902
785.48859
785.48851
785.48848
785.48848
785.48851
785.48858
785.48869
785.48883
785.48902
785.48926
781.07848
781.07834
781.07828
781.07826
781.07827
781.07831
781.07839
781.07849
781.07862
781.07876
781.07834
781.07822
781.07816
781.07814
781.07816
781.0782
781.07828
781.07838
781.07852
781.07869
781.07828
781.07816
781.07811
781.07809
781.07811
781.07816
781.07823
781.07835
781.07849
781.07867
781.07826
781.07814
781.07809
781.07808
781.0781
781.07815
781.07823
781.07834
781.07849
781.07867
781.07827
781.07816
781.07811
781.0781
781.07812
781.07817
781.07825
781.07837
781.07852
781.0787
781.07831
781.0782
781.07816
781.07815
781.07817
781.07822
781.07831
781.07843
781.07858
781.07877
781.07839
781.07828
781.07823
781.07823
781.07825
781.07831
781.0784
781.07852
781.07867
781.07886
781.07849
781.07838
781.07835
781.07834
781.07837
781.07843
781.07852
781.07864
781.0788
781.07899
781.07862
781.07852
781.07849
781.07849
781.07852
781.07858
781.07867
781.0788
781.07896
781.07916
781.07876
781.07869
781.07867
781.07867
781.0787
781.07877
781.07886
781.07899
781.07916
781.07937
776.7448
776.74469
776.74465
776.74463
776.74465
776.74469
776.74475
776.74484
776.74495
776.74507
776.74469
776.74459
776.74455
776.74454
776.74456
776.7446
776.74467
776.74476
776.74488
776.74502
776.74465
776.74455
776.74452
776.74451
776.74452
776.74457
776.74464
776.74473
776.74486
776.74501
776.74463
776.74454
776.74451
776.7445
776.74452
776.74456
776.74464
776.74473
776.74486
776.74501
776.74465
776.74456
776.74452
776.74452
776.74454
776.74459
776.74466
776.74476
776.74489
776.74505
776.74469
776.7446
776.74457
776.74456
776.74459
776.74464
776.74471
776.74482
776.74495
776.7451
776.74475
776.74467
776.74464
776.74464
776.74466
776.74471
776.74479
776.7449
776.74503
776.74519
776.74484
776.74476
776.74473
776.74473
776.74476
776.74482
776.7449
776.745
776.74514
776.7453
776.74495
776.74488
776.74486
776.74486
776.74489
776.74495
776.74503
776.74514
776.74528
776.74544
776.74507
776.74502
776.74501
776.74501
776.74505
776.7451
776.74519
776.7453
776.74544
776.74562
772.48486
772.48478
772.48475
772.48475
772.48477
772.4848
772.48486
772.48493
772.48503
772.48513
772.48478
772.48471
772.48469
772.48468
772.4847
772.48474
772.4848
772.48488
772.48497
772.48509
772.48475
772.48469
772.48466
772.48466
772.48468
772.48472
772.48478
772.48486
772.48496
772.48509
772.48475
772.48468
772.48466
772.48466
772.48468
772.48472
772.48478
772.48487
772.48497
772.4851
772.48477
772.4847
772.48468
772.48468
772.4847
772.48475
772.48481
772.48489
772.485
772.48513
772.4848
772.48474
772.48472
772.48472
772.48475
772.48479
772.48485
772.48494
772.48505
772.48518
772.48486
772.4848
772.48478
772.48478
772.48481
772.48485
772.48492
772.48501
772.48512
772.48525
772.48493
772.48488
772.48486
772.48487
772.48489
772.48494
772.48501
772.4851
772.48521
772.48534
772.48503
772.48497
772.48496
772.48497
772.485
772.48505
772.48512
772.48521
772.48532
772.48546
772.48513
772.48509
772.48509
772.4851
772.48513
772.48518
772.48525
772.48534
772.48546
772.48561
768.29634
768.29628
768.29627
768.29628
768.29629
768.29633
768.29637
768.29644
768.29651
768.29659
768.29628
768.29624
768.29623
768.29624
768.29625
768.29629
768.29634
768.2964
768.29648
768.29657
768.29627
768.29623
768.29622
768.29623
768.29625
768.29628
768.29633
768.2964
768.29648
768.29657
768.29628
768.29624
768.29623
768.29623
768.29625
768.29629
768.29634
768.29641
768.29649
768.29659
768.29629
768.29625
768.29625
768.29625
768.29628
768.29631
768.29637
768.29643
768.29652
768.29662
768.29633
768.29629
768.29628
768.29629
768.29631
768.29635
768.29641
768.29647
768.29656
768.29666
768.29637
768.29634
768.29633
768.29634
768.29637
768.29641
768.29646
768.29653
768.29662
768.29672
768.29644
768.2964
768.2964
768.29641
768.29643
768.29647
768.29653
768.2966
768.29669
768.29679
768.29651
768.29648
768.29648
768.29649
768.29652
768.29656
768.29662
768.29669
768.29678
768.29688
768.29659
768.29657
768.29657
768.29659
768.29662
768.29666
768.29672
768.29679
768.29688
768.297
764.17697
764.17695
764.17695
764.17696
764.17698
764.17701
764.17705
764.17709
764.17715
764.1772
764.17695
764.17693
764.17693
764.17694
764.17696
764.17699
764.17703
764.17708
764.17714
764.1772
764.17695
764.17693
764.17694
764.17695
764.17697
764.177
764.17704
764.17709
764.17715
764.17721
764.17696
764.17694
764.17695
764.17696
764.17698
764.17701
764.17705
764.1771
764.17716
764.17723
764.17698
764.17696
764.17697
764.17698
764.17701
764.17704
764.17708
764.17713
764.17719
764.17726
764.17701
764.17699
764.177
764.17701
764.17704
764.17707
764.17711
764.17716
764.17722
764.17729
764.17705
764.17703
764.17704
764.17705
764.17708
764.17711
764.17715
764.17721
764.17727
764.17734
764.17709
764.17708
764.17709
764.1771
764.17713
764.17716
764.17721
764.17726
764.17732
764.17739
764.17715
764.17714
764.17715
764.17716
764.17719
764.17722
764.17727
764.17732
764.17739
764.17746
764.1772
764.1772
764.17721
764.17723
764.17726
764.17729
764.17734
764.17739
764.17746
764.17754
760.12458
760.12459
760.12461
760.12463
760.12465
760.12467
760.1247
760.12473
760.12477
760.1248
760.12459
760.1246
760.12462
760.12464
760.12466
760.12468
760.12471
760.12475
760.12478
760.12482
760.12461
760.12462
760.12463
760.12465
760.12468
760.1247
760.12473
760.12476
760.1248
760.12484
760.12463
760.12464
760.12465
760.12467
760.12469
760.12472
760.12475
760.12478
760.12482
760.12486
760.12465
760.12466
760.12468
760.12469
760.12472
760.12474
760.12477
760.12481
760.12484
760.12488
760.12467
760.12468
760.1247
760.12472
760.12474
760.12477
760.1248
760.12483
760.12487
760.12491
760.1247
760.12471
760.12473
760.12475
760.12477
760.1248
760.12483
760.12486
760.1249
760.12494
760.12473
760.12475
760.12476
760.12478
760.12481
760.12483
760.12486
760.1249
760.12494
760.12498
760.12477
760.12478
760.1248
760.12482
760.12484
760.12487
760.1249
760.12494
760.12498
760.12502
760.1248
760.12482
760.12484
760.12486
760.12488
760.12491
760.12494
760.12498
760.12502
760.12507
756.13709
756.13713
756.13716
756.13718
756.13721
756.13723
756.13725
756.13726
756.13728
756.13729
756.13713
756.13716
756.13719
756.13722
756.13724
756.13726
756.13728
756.1373
756.13731
756.13732
756.13716
756.13719
756.13722
756.13724
756.13727
756.13729
756.13731
756.13732
756.13734
756.13735
756.13718
756.13722
756.13724
756.13727
756.13729
756.13731
756.13733
756.13735
756.13736
756.13737
756.13721
756.13724
756.13727
756.13729
756.13732
756.13734
756.13735
756.13737
756.13738
756.13739
756.13723
756.13726
756.13729
756.13731
756.13734
756.13736
756.13737
756.13739
756.1374
756.13741
756.13725
756.13728
756.13731
756.13733
756.13735
756.13737
756.13739
756.13741
756.13742
756.13743
756.13726
756.1373
756.13732
756.13735
756.13737
756.13739
756.13741
756.13742
756.13744
756.13745
756.13728
756.13731
756.13734
756.13736
756.13738
756.1374
756.13742
756.13744
756.13745
756.13746
756.13729
756.13732
756.13735
756.13737
756.13739
756.13741
756.13743
756.13745
756.13746
756.13748
752.21246
752.21252
752.21257
752.2126
752.21263
752.21264
752.21265
752.21265
752.21265
752.21264
752.21252
752.21258
752.21263
752.21266
752.21268
752.2127
752.21271
752.21271
752.2127
752.21269
752.21257
752.21263
752.21267
752.2127
752.21272
752.21274
752.21275
752.21275
752.21274
752.21272
752.2126
752.21266
752.2127
752.21273
752.21275
752.21277
752.21278
752.21277
752.21277
752.21275
752.21263
752.21268
752.21272
752.21275
752.21278
752.21279
752.2128
752.2128
752.21279
752.21277
752.21264
752.2127
752.21274
752.21277
752.21279
752.2128
752.21281
752.21281
752.2128
752.21278
752.21265
752.21271
752.21275
752.21278
752.2128
752.21281
752.21282
752.21281
752.2128
752.21278
752.21265
752.21271
752.21275
752.21277
752.2128
752.21281
752.21281
752.21281
752.2128
752.21278
752.21265
752.2127
752.21274
752.21277
752.21279
752.2128
752.2128
752.2128
752.21279
752.21277
752.21264
752.21269
752.21272
752.21275
752.21277
752.21278
752.21278
752.21278
752.21277
752.21275
748.34874
748.34884
748.3489
748.34894
748.34896
748.34897
748.34897
748.34896
748.34894
748.34891
748.34884
748.34892
748.34898
748.34902
748.34904
748.34905
748.34905
748.34904
748.34901
748.34897
748.3489
748.34898
748.34903
748.34907
748.34909
748.3491
748.3491
748.34908
748.34905
748.34901
748.34894
748.34902
748.34907
748.3491
748.34913
748.34914
748.34913
748.34912
748.34908
748.34904
748.34896
748.34904
748.34909
748.34913
748.34915
748.34916
748.34915
748.34913
748.3491
748.34906
748.34897
748.34905
748.3491
748.34914
748.34916
748.34917
748.34916
748.34914
748.34911
748.34906
748.34897
748.34905
748.3491
748.34913
748.34915
748.34916
748.34915
748.34913
748.3491
748.34905
748.34896
748.34904
748.34908
748.34912
748.34913
748.34914
748.34913
748.34911
748.34908
748.34903
748.34894
748.34901
748.34905
748.34908
748.3491
748.34911
748.3491
748.34908
748.34904
748.34899
748.34891
748.34897
748.34901
748.34904
748.34906
748.34906
748.34905
748.34903
748.34899
748.34894
744.54407
744.54419
744.54426
744.54431
744.54433
744.54434
744.54433
744.5443
744.54426
744.54421
744.54419
744.5443
744.54437
744.54441
744.54444
744.54444
744.54443
744.5444
744.54435
744.54429
744.54426
744.54437
744.54443
744.54447
744.5445
744.5445
744.54449
744.54446
744.54441
744.54433
744.54431
744.54441
744.54447
744.54451
744.54454
744.54454
744.54453
744.54449
744.54444
744.54437
744.54433
744.54444
744.5445
744.54454
744.54456
744.54456
744.54454
744.54451
744.54445
744.54438
744.54434
744.54444
744.5445
744.54454
744.54456
744.54456
744.54454
744.54451
744.54445
744.54438
744.54433
744.54443
744.54449
744.54453
744.54454
744.54454
744.54452
744.54449
744.54443
744.54435
744.5443
744.5444
744.54446
744.54449
744.54451
744.54451
744.54449
744.54445
744.54439
744.54431
744.54426
744.54435
744.54441
744.54444
744.54445
744.54445
744.54443
744.54439
744.54433
744.54425
744.54421
744.54429
744.54433
744.54437
744.54438
744.54438
744.54435
744.54431
744.54425
744.54417
740.79663
740.79678
740.79686
740.79691
740.79694
740.79694
740.79692
740.79688
740.79682
740.79675
740.79678
740.79691
740.79698
740.79703
740.79706
740.79706
740.79704
740.797
740.79693
740.79684
740.79686
740.79698
740.79706
740.79711
740.79713
740.79713
740.79711
740.79706
740.79699
740.79689
740.79691
740.79703
740.79711
740.79715
740.79718
740.79717
740.79715
740.7971
740.79702
740.79692
740.79694
740.79706
740.79713
740.79718
740.7972
740.79719
740.79716
740.79711
740.79704
740.79693
740.79694
740.79706
740.79713
740.79717
740.79719
740.79719
740.79716
740.7971
740.79702
740.79692
740.79692
740.79704
740.79711
740.79715
740.79716
740.79716
740.79713
740.79707
740.79699
740.79689
740.79688
740.797
740.79706
740.7971
740.79711
740.7971
740.79707
740.79701
740.79693
740.79683
740.79682
740.79693
740.79699
740.79702
740.79704
740.79702
740.79699
740.79693
740.79685
740.79674
740.79675
740.79684
740.79689
740.79692
740.79693
740.79692
740.79689
740.79683
740.79674
740.79663
737.10468
737.10485
737.10495
737.105
737.10503
737.10503
737.105
737.10494
737.10487
737.10477
737.10485
737.10501
737.10509
737.10515
737.10517
737.10517
737.10514
737.10508
737.10499
737.10488
737.10495
737.10509
737.10518
737.10523
737.10525
737.10525
737.10521
737.10515
737.10506
737.10494
737.105
737.10515
737.10523
737.10528
737.1053
737.10529
737.10526
737.10519
737.1051
737.10497
737.10503
737.10517
737.10525
737.1053
737.10532
737.10531
737.10527
737.1052
737.10511
737.10498
737.10503
737.10517
737.10525
737.10529
737.10531
737.1053
737.10526
737.10519
737.10509
737.10496
737.105
737.10514
737.10521
737.10526
737.10527
737.10526
737.10522
737.10514
737.10504
737.10491
737.10494
737.10508
737.10515
737.10519
737.1052
737.10519
737.10514
737.10507
737.10497
737.10483
737.10487
737.10499
737.10506
737.1051
737.10511
737.10509
737.10504
737.10497
737.10486
737.10472
737.10477
737.10488
737.10494
737.10497
737.10498
737.10496
737.10491
737.10483
737.10472
737.10458
733.46656
733.46675
733.46686
733.46692
733.46695
733.46694
733.4669
733.46683
733.46674
733.46662
733.46675
733.46693
733.46702
733.46708
733.46711
733.4671
733.46706
733.46699
733.46688
733.46674
733.46686
733.46702
733.46712
733.46717
733.4672
733.46719
733.46714
733.46706
733.46695
733.4668
733.46692
733.46708
733.46717
733.46723
733.46725
733.46724
733.46719
733.46711
733.46699
733.46684
733.46695
733.46711
733.4672
733.46725
733.46727
733.46725
733.4672
733.46712
733.467
733.46685
733.46694
733.4671
733.46719
733.46724
733.46725
733.46723
733.46718
733.46709
733.46697
733.46682
733.4669
733.46706
733.46714
733.46719
733.4672
733.46718
733.46712
733.46704
733.46691
733.46676
733.46683
733.46699
733.46706
733.46711
733.46712
733.46709
733.46704
733.46695
733.46682
733.46666
733.46674
733.46688
733.46695
733.46699
733.467
733.46697
733.46691
733.46682
733.46669
733.46653
733.46662
733.46674
733.4668
733.46684
733.46685
733.46682
733.46676
733.46666
733.46653
733.46636
729.88065
729.88087
729.88098
729.88105
729.88108
729.88107
729.88102
729.88094
729.88082
729.88069
729.88087
729.88106
729.88117
729.88123
729.88126
729.88124
729.88119
729.88111
729.88098
729.88082
729.88098
729.88117
729.88127
729.88133
729.88135
729.88134
729.88128
729.88119
729.88106
729.88089
729.88105
729.88123
729.88133
729.88139
729.88141
729.88139
729.88133
729.88124
729.8811
729.88093
729.88108
729.88126
729.88135
729.88141
729.88143
729.8814
729.88134
729.88124
729.88111
729.88093
729.88107
729.88124
729.88134
729.88139
729.8814
729.88138
729.88132
729.88121
729.88107
729.88089
729.88102
729.88119
729.88128
729.88133
729.88134
729.88132
729.88125
729.88114
729.881
729.88082
729.88094
729.88111
729.88119
729.88124
729.88124
729.88121
729.88114
729.88104
729.88089
729.88071
729.88082
729.88098
729.88106
729.8811
729.88111
729.88107
729.881
729.88089
729.88074
729.88056
729.88069
729.88082
729.88089
729.88093
729.88093
729.88089
729.88082
729.88071
729.88056
729.88036
726.34543
726.34567
726.34579
726.34586
726.34589
726.34587
726.34581
726.34572
726.34559
726.34544
726.34567
726.34588
726.34599
726.34606
726.34608
726.34607
726.34601
726.34591
726.34577
726.34558
726.34579
726.34599
726.3461
726.34617
726.34619
726.34617
726.3461
726.346
726.34585
726.34566
726.34586
726.34606
726.34617
726.34623
726.34625
726.34622
726.34615
726.34604
726.34589
726.34569
726.34589
726.34608
726.34619
726.34625
726.34626
726.34623
726.34616
726.34605
726.34589
726.34569
726.34587
726.34607
726.34617
726.34622
726.34623
726.3462
726.34613
726.34601
726.34585
726.34565
726.34581
726.34601
726.3461
726.34615
726.34616
726.34613
726.34605
726.34593
726.34577
726.34556
726.34572
726.34591
726.346
726.34604
726.34605
726.34601
726.34593
726.34581
726.34564
726.34544
726.34559
726.34577
726.34585
726.34589
726.34589
726.34585
726.34577
726.34564
726.34547
726.34526
726.34544
726.34558
726.34566
726.34569
726.34569
726.34565
726.34556
726.34544
726.34526
726.34504
722.85942
722.85967
722.8598
722.85988
722.8599
722.85988
722.85981
722.85971
722.85956
722.8594
722.85967
722.8599
722.86002
722.86009
722.86011
722.86009
722.86002
722.85991
722.85975
722.85955
722.8598
722.86002
722.86013
722.8602
722.86022
722.86019
722.86012
722.86
722.85984
722.85962
722.85988
722.86009
722.8602
722.86027
722.86028
722.86025
722.86017
722.86005
722.85988
722.85966
722.8599
722.86011
722.86022
722.86028
722.86029
722.86026
722.86018
722.86005
722.85988
722.85966
722.85988
722.86009
722.86019
722.86025
722.86026
722.86022
722.86014
722.86001
722.85983
722.85961
722.85981
722.86002
722.86012
722.86017
722.86018
722.86014
722.86005
722.85992
722.85974
722.85951
722.85971
722.85991
722.86
722.86005
722.86005
722.86001
722.85992
722.85978
722.8596
722.85937
722.85956
722.85975
722.85984
722.85988
722.85988
722.85983
722.85974
722.8596
722.85941
722.85917
722.8594
722.85955
722.85962
722.85966
722.85966
722.85961
722.85951
722.85937
722.85917
722.85892
719.42119
719.42147
719.4216
719.42168
719.4217
719.42168
719.4216
719.42148
719.42133
719.42115
719.42147
719.42171
719.42184
719.42191
719.42193
719.4219
719.42182
719.4217
719.42153
719.4213
719.4216
719.42184
719.42196
719.42203
719.42204
719.42201
719.42193
719.4218
719.42162
719.42138
719.42168
719.42191
719.42203
719.42209
719.42211
719.42207
719.42198
719.42185
719.42166
719.42142
719.4217
719.42193