/*--------------------------------*- C++ -*----------------------------------*\
| =========                 |                                                 |
| \\      /  F ield         | OpenFOAM: The Open Source CFD Toolbox           |
|  \\    /   O peration     | Version:  v2106                                 |
|   \\  /    A nd           | Website:  www.openfoam.com                      |
|    \\/     M anipulation  |                                                 |
\*---------------------------------------------------------------------------*/
FoamFile
{
    version     2.0;
    format      ascii;
    arch        "LSB;label=32;scalar=64";
    class       volScalarField;
    location    "87.5";
    object      gradTy;
}
// * * * * * * * * * * * * * * * * * * * * * * * * * * * * * * * * * * * * * //

dimensions      [0 -1 0 1 0 0 0];

internalField   nonuniform List<scalar> 
4000
(
-5.793953e-05
-5.1370093e-05
-4.9847125e-05
-4.9255664e-05
-4.8908727e-05
-4.859118e-05
-4.8158766e-05
-4.7363858e-05
-4.5573617e-05
-4.1218648e-05
-0.00012730526
-0.00011516666
-0.00011135476
-0.00010947333
-0.00010819161
-0.00010697996
-0.00010544025
-0.00010297622
-9.8381688e-05
-8.9477927e-05
-6.4106871e-05
-6.0935233e-05
-5.8413549e-05
-5.6521779e-05
-5.4940006e-05
-5.3385613e-05
-5.1589564e-05
-4.9252719e-05
-4.613359e-05
-4.2723838e-05
-3.4736289e-05
-3.3328684e-05
-3.1573135e-05
-2.9855145e-05
-2.8216212e-05
-2.6577459e-05
-2.4829393e-05
-2.289697e-05
-2.0869075e-05
-1.9269295e-05
-1.1104219e-05
-1.0107487e-05
-8.6108392e-06
-6.9713272e-06
-5.3331697e-06
-3.7139984e-06
-2.0925484e-06
-4.8678792e-07
9.6021323e-07
1.9076119e-06
9.4525843e-06
1.0577521e-05
1.2203934e-05
1.392797e-05
1.5590757e-05
1.7168588e-05
1.8674146e-05
2.0083331e-05
2.1275152e-05
2.200563e-05
2.6994147e-05
2.8835131e-05
3.0997887e-05
3.2968026e-05
3.4678384e-05
3.6195242e-05
3.7593124e-05
3.8898189e-05
4.0037273e-05
4.0780159e-05
3.9803565e-05
4.3681291e-05
4.6862137e-05
4.9137248e-05
5.082245e-05
5.2190012e-05
5.3423459e-05
5.4634168e-05
5.5834299e-05
5.6789589e-05
4.2516009e-05
5.1733822e-05
5.6014297e-05
5.8262702e-05
5.9641978e-05
6.06571e-05
6.156428e-05
6.2539077e-05
6.3719702e-05
6.5012324e-05
1.3450115e-05
1.7805081e-05
1.9385955e-05
2.0078255e-05
2.0452475e-05
2.070985e-05
2.0939457e-05
2.1205108e-05
2.1576323e-05
2.2066859e-05
-0.00025284364
-0.00022103957
-0.00021398949
-0.00021121078
-0.00020953684
-0.00020798905
-0.0002058679
-0.00020189896
-0.00019244831
-0.0001652295
-0.00056671606
-0.00050843484
-0.00049074713
-0.00048182363
-0.00047562318
-0.00046971819
-0.00046218121
-0.00044998882
-0.00042639452
-0.00037424501
-0.00030029993
-0.00028555674
-0.00027368871
-0.00026459159
-0.00025691191
-0.00024933491
-0.00024056094
-0.00022911643
-0.00021378431
-0.00019742389
-0.00016545002
-0.00015877104
-0.00015032606
-0.00014199424
-0.00013401552
-0.00012602227
-0.00011748649
-0.00010804394
-9.8134284e-05
-9.0356119e-05
-5.2112138e-05
-4.7279552e-05
-4.0006705e-05
-3.2022874e-05
-2.4034741e-05
-1.6131337e-05
-8.21017e-06
-3.601763e-07
6.7165786e-06
1.1348251e-05
4.8065545e-05
5.3568959e-05
6.1507516e-05
6.9919943e-05
7.803654e-05
8.5744503e-05
9.3108666e-05
0.00010001462
0.00010587253
0.00010947678
0.0001346999
0.00014383503
0.00015442928
0.00016405352
0.00017240762
0.00017982468
0.00018667773
0.00019311041
0.00019878567
0.00020255973
0.00020053814
0.00022066753
0.00023632484
0.00024744415
0.00025567704
0.00026237091
0.00026844092
0.00027447885
0.00028064948
0.00028589921
0.00022331464
0.00027831882
0.00029905845
0.00031001137
0.00031674626
0.00032171979
0.00032620843
0.00033116912
0.00033762879
0.00034623356
7.326627e-05
0.00010048507
0.00010803261
0.00011139202
0.00011321806
0.0001144798
0.00011562088
0.00011699584
0.00011912071
0.00012273235
-0.00040792472
-0.00035666366
-0.00034511575
-0.00034040889
-0.00033749263
-0.00033475303
-0.00033096588
-0.0003238197
-0.00030661214
-0.00025639805
-0.00092640555
-0.00083219208
-0.00080290273
-0.00078764167
-0.00077679605
-0.00076633991
-0.00075290545
-0.00073104906
-0.0006884424
-0.00059343747
-0.00050676603
-0.00048238388
-0.00046221563
-0.00044642423
-0.00043291388
-0.00041948368
-0.00040386982
-0.00038346359
-0.0003561583
-0.00032763088
-0.00028094802
-0.00026951336
-0.00025484135
-0.00024021161
-0.00022610678
-0.00021191754
-0.00019672854
-0.00017990958
-0.00016228344
-0.00014858106
-8.3939914e-05
-7.545612e-05
-6.2638135e-05
-4.8515566e-05
-3.4344072e-05
-2.0289053e-05
-6.173571e-06
7.8377883e-06
2.0477897e-05
2.8735973e-05
9.3997755e-05
0.0001037879
0.00011788837
0.00013283196
0.0001472666
0.00016100245
0.00017416636
0.00018656815
0.00019715887
0.0002037326
0.00025190412
0.00026830411
0.00028719497
0.0003043242
0.00031920292
0.00033245104
0.00034476862
0.00035647511
0.00036705184
0.00037439422
0.0003808689
0.00041739951
0.00044533196
0.00046511102
0.00047977705
0.0004917625
0.00050276958
0.00051404571
0.00052633371
0.00053829102
0.00045585777
0.00055699026
0.00059346936
0.00061282296
0.00062479788
0.00063372115
0.00064196234
0.00065164026
0.00066620763
0.00069361499
0.00015843718
0.00020865127
0.0002217738
0.00022766955
0.00023090872
0.00023317494
0.0002352912
0.00023806986
0.00024326274
0.00025634143
-0.0005463152
-0.00047775903
-0.00046225877
-0.00045581589
-0.00045173932
-0.00044785326
-0.00044243676
-0.00043215682
-0.00040726711
-0.00033424843
-0.001245716
-0.0011196314
-0.0010800775
-0.0010590503
-0.0010438397
-0.0010290032
-0.0010098149
-0.0009784639
-0.00091711622
-0.00077981278
-0.000687879
-0.00065496427
-0.00062729786
-0.00060529985
-0.00058625695
-0.00056718183
-0.00054490947
-0.00051574354
-0.00047674289
-0.00043645725
-0.00037977956
-0.00036400037
-0.00034354173
-0.00032295947
-0.00030298376
-0.00028279662
-0.00026112594
-0.00023710022
-0.00021194435
-0.00019251261
-0.00010427556
-9.2331625e-05
-7.4228489e-05
-5.4213606e-05
-3.4065649e-05
-1.4026385e-05
6.1488959e-06
2.6213637e-05
4.4330743e-05
5.6151617e-05
0.00014909637
0.0001630502
0.00018312112
0.00020439768
0.00022497894
0.00024461223
0.00026349527
0.00028137088
0.00029673019
0.00030632924
0.00037868183
0.0004022265
0.00042922112
0.00045366479
0.00047491753
0.0004939048
0.00051167618
0.00052876159
0.00054448286
0.0005556804
0.00057403975
0.00062679423
0.00066673845
0.0006949608
0.00071592004
0.00073314266
0.00074915497
0.00076594934
0.00078496691
0.00080446056
0.00070469424
0.00085155682
0.00090334536
0.00093084311
0.00094793297
0.00096078109
0.00097289133
0.00098769989
0.0010114025
0.0010591851
0.00024940546
0.00032242414
0.00034094108
0.00034928123
0.00035389558
0.00035716181
0.00036029494
0.00036462683
0.00037329071
0.00039648188
-0.00067524284
-0.00059026299
-0.00057109246
-0.00056304231
-0.00055787445
-0.00055288994
-0.00054589471
-0.00053256526
-0.00050019635
-0.00040500761
-0.0015396024
-0.0013833769
-0.0013343178
-0.0013079377
-0.0012886107
-0.001269577
-0.001244821
-0.0012042445
-0.0011246745
-0.00094629389
-0.00084906492
-0.00080823389
-0.00077362576
-0.00074582357
-0.00072153518
-0.00069704402
-0.00066833508
-0.00063067403
-0.00058033137
-0.00052868446
-0.00046353022
-0.0004437032
-0.00041782312
-0.00039161262
-0.00036603236
-0.00034007272
-0.00031212902
-0.0002811099
-0.00024864847
-0.00022367705
-0.00011354294
-9.8314399e-05
-7.5182258e-05
-4.9534838e-05
-2.3642366e-05
2.1817283e-06
2.8244597e-05
5.421212e-05
7.7678532e-05
9.2975175e-05
0.00021254237
0.00023051199
0.00025633206
0.00028371208
0.0003102354
0.00033559904
0.00036007572
0.00038334301
0.00040342922
0.0004160386
0.00051233861
0.00054282565
0.00057767114
0.00060919563
0.00063663396
0.00066122602
0.00068437792
0.00070683703
0.00072775689
0.00074286934
0.00077329912
0.00084184666
0.00089344566
0.00092985036
0.00095692621
0.00097928432
0.0010002797
0.0010226633
0.0010485593
0.0010756884
0.00095759635
0.0011489328
0.001215547
0.0012509224
0.0012729798
0.0012896854
0.0013056754
0.0013257178
0.0013587006
0.0014265652
0.00034116933
0.00043635808
0.00046008974
0.00047078935
0.00047673736
0.0004809871
0.0004851436
0.00049106207
0.0005032297
0.00053630517
-0.00079636353
-0.00069568757
-0.00067305282
-0.0006634944
-0.00065729607
-0.00065126345
-0.00064275145
-0.00062648566
-0.00058691587
-0.00047039885
-0.0018127767
-0.0016278106
-0.0015698078
-0.0015384043
-0.001515187
-0.0014921491
-0.0014620477
-0.001412593
-0.0013154859
-0.0010976062
-0.00099387822
-0.00094558845
-0.00090447193
-0.00087121057
-0.00084195213
-0.00081229001
-0.0007774038
-0.00073157201
-0.00067032106
-0.00060776992
-0.00053434172
-0.0005107066
-0.00047972099
-0.0004481868
-0.000417274
-0.00038579071
-0.00035181948
-0.0003140671
-0.00027457184
-0.00024427652
-0.00011333588
-9.4989448e-05
-6.7080576e-05
-3.6068893e-05
-4.6845042e-06
2.6693908e-05
5.8431651e-05
9.0103667e-05
0.00011874471
0.00013740043
0.00028238111
0.00030419805
0.00033552047
0.00036874637
0.000400975
0.00043186252
0.00046175689
0.00049026955
0.00051496899
0.00053051894
0.00064970379
0.00068687048
0.00072925983
0.00076758848
0.00080098345
0.00083099824
0.00085939048
0.00088711867
0.0009131585
0.00093212686
0.00097360119
0.0010573546
0.0011201629
0.0011644373
0.0011974106
0.0012247503
0.0012506227
0.0012785184
0.0013112083
0.001345836
0.0012081987
0.0014423289
0.0015231855
0.0015661309
0.0015929761
0.0016134277
0.0016332254
0.0016584359
0.0017005431
0.00178796
0.00043151945
0.00054803647
0.00057677263
0.00058973723
0.00059696951
0.00060217438
0.00060733614
0.00061481996
0.00063042124
0.0006730979
-0.00090991999
-0.00079432417
-0.00076841886
-0.00075744197
-0.00075027159
-0.00074324427
-0.0007332869
-0.00071421921
-0.00066777813
-0.0005309122
-0.002066685
-0.0018544333
-0.0017880034
-0.0017518776
-0.0017249898
-0.0016981526
-0.0016629596
-0.0016050359
-0.0014911994
-0.0012356511
-0.0011243946
-0.0010690713
-0.0010218389
-0.00098344158
-0.00094948822
-0.00091491796
-0.00087414838
-0.00082052378
-0.00074887055
-0.00067593815
-0.0005940956
-0.00056687471
-0.00053108201
-0.00049452399
-0.00045856095
-0.00042182651
-0.0003821086
-0.00033792799
-0.00029171802
-0.00025634735
-0.0001055003
-8.4203765e-05
-5.1775331e-05
-1.5680137e-05
2.0922158e-05
5.7593977e-05
9.4754958e-05
0.00013188822
0.00016548579
0.00018735619
0.00035641727
0.00038189433
0.00041844754
0.00045723416
0.00049489988
0.00053106695
0.00056615645
0.00059971323
0.00062885647
0.00064723931
0.0007878691
0.0008314067
0.00088098575
0.00092580089
0.00096488428
0.0010000951
0.0010335306
0.0010663497
0.0010973473
0.0011200489
0.0011712174
0.0012694806
0.0013429775
0.0013947584
0.0014333681
0.0014654892
0.0014960681
0.001529306
0.0015685854
0.0016104703
0.0014525136
0.0017274741
0.0018218984
0.0018720597
0.0019034791
0.0019275277
0.0019510051
0.0019812269
0.0020321694
0.0021384645
0.00051916909
0.00065603503
0.00068953465
0.00070465663
0.0007131151
0.0007192369
0.00072537032
0.00073437129
0.00075329356
0.00080523467
-0.0010157186
-0.00088605709
-0.00085708245
-0.00084477717
-0.00083669442
-0.00082872972
-0.00081740658
-0.00079568897
-0.00074274826
-0.00058663228
-0.002301525
-0.0020635708
-0.001989242
-0.0019486945
-0.0019183615
-0.0018879448
-0.0018479422
-0.0017820111
-0.0016523553
-0.0013611903
-0.0012417852
-0.0011798654
-0.001126909
-0.0010837002
-0.0010453366
-0.001006141
-0.00095981433
-0.0008988225
-0.00081733709
-0.00073460768
-0.00064425721
-0.00061367517
-0.00057337675
-0.00053210279
-0.00049138752
-0.00044969885
-0.00040454844
-0.00035428557
-0.0003017234
-0.00026155727
-9.1736356e-05
-6.7665184e-05
-3.0986638e-05
9.8940177e-06
5.1417298e-05
9.3092278e-05
0.00013538927
0.00017770083
0.00021599944
0.0002409163
0.00043261059
0.00046154237
0.0005030299
0.00054706462
0.00058986899
0.00063103659
0.00067105842
0.00070941355
0.00074278897
0.00076386979
0.00092435482
0.00097391595
0.0010302885
0.0010812344
0.0011257018
0.001165843
0.0012040787
0.0012417571
0.0012774951
0.0013037674
0.0013632923
0.0014752798
0.0015588792
0.001617757
0.0016617042
0.0016983672
0.0017334348
0.0017717835
0.0018173753
0.0018662106
0.0016876981
0.0020012831
0.0021085189
0.002165498
0.0022012472
0.0022287135
0.0022557034
0.0022907237
0.0023501305
0.0024745017
0.00060322182
0.0007593378
0.00079733181
0.00081449074
0.00082410923
0.00083110198
0.00083816309
0.00084861686
0.00087071997
0.00093153098
-0.0011134224
-0.00097062874
-0.00093879939
-0.0009252599
-0.00091632743
-0.00090748692
-0.00089488517
-0.00087068495
-0.00081165359
-0.00063749529
-0.0025169815
-0.002255047
-0.0021733774
-0.0021287215
-0.0020951797
-0.0020614194
-0.0020169154
-0.0019434846
-0.0017990107
-0.0014744823
-0.0013466978
-0.0012786445
-0.0012203723
-0.0011726897
-0.0011302158
-0.0010866989
-0.0010351716
-0.00096728093
-0.00087659072
-0.00078470415
-0.00068592057
-0.00065221265
-0.00060772288
-0.00056205615
-0.00051690585
-0.00047058439
-0.00042034644
-0.00036438409
-0.00030587089
-0.00026121758
-7.3477741e-05
-4.6818282e-05
-6.1755583e-06
3.9172468e-05
8.5296195e-05
0.00013165645
0.00017877034
0.00022594289
0.00026865518
0.00029643008
0.00050920257
0.00054136596
0.0005874668
0.00063641012
0.00068402621
0.00072988427
0.00077454127
0.00081741285
0.00085477575
0.00087839882
0.0010570937
0.0011122967
0.0011750284
0.0012317146
0.0012812287
0.0013260011
0.0013687573
0.0014110226
0.0014512431
0.0014808949
0.0015475521
0.0016723995
0.0017654568
0.0018309804
0.0018799324
0.0019208652
0.0019601668
0.002003351
0.0020549262
0.0021103549
0.0019115291
0.0022613135
0.0023805314
0.0024438903
0.0024836979
0.0025143775
0.0025446839
0.0025842498
0.0026516877
0.0027932176
0.00068297404
0.00085713234
0.00089932633
0.00091839006
0.00092909521
0.00093690666
0.00094484391
0.00095667453
0.00098179634
0.0010510278
-0.0012026583
-0.0010477408
-0.0010132857
-0.00099861149
-0.00098889565
-0.0009792452
-0.00096545888
-0.00093895712
-0.00087427772
-0.00068338393
-0.0027125369
-0.002428478
-0.0023400602
-0.0022916262
-0.0022551255
-0.0022182736
-0.0021696007
-0.0020892195
-0.0019310105
-0.0015755546
-0.0014394803
-0.0013657863
-0.0013026285
-0.0012508273
-0.0012045608
-0.0011570478
-0.0011007043
-0.0010264215
-0.00092720512
-0.00082685118
-0.00071989341
-0.00068330833
-0.00063495867
-0.00058524068
-0.00053599282
-0.00048538365
-0.00043043128
-0.00036918497
-0.0003051562
-0.00025634926
-5.1890145e-05
-2.2840691e-05
2.14624e-05
7.093886e-05
0.00012131943
0.0001720214
0.00022360475
0.00027529114
0.0003221024
0.0003525296
0.00058472468
0.00061987982
0.00067024942
0.0007237364
0.00077581096
0.00082602172
0.00087498736
0.00092206333
0.00096314203
0.00098913472
0.0011843702
0.0012448023
0.0013134244
0.0013754286
0.001429623
0.0014786983
0.0015256646
0.0015722122
0.0016166256
0.0016494426
0.0017221329
0.0018589046
0.0019607231
0.0020324038
0.0020859982
0.0021309014
0.0021741529
0.0022218624
0.0022790505
0.0023406727
0.0021221721
0.0025055319
0.002635837
0.0027051022
0.0027486727
0.0027823407
0.0028157441
0.0028595711
0.0029345544
0.0030922208
0.00075783811
0.0009487319
0.0009948087
0.0010156345
0.0010273466
0.0010359193
0.0010446751
0.0010577973
0.0010857566
0.0011629083
-0.0012830631
-0.0011170978
-0.0010802596
-0.0010645557
-0.0010541264
-0.001043736
-0.0010288654
-0.0010002555
-0.00093040082
-0.00072416753
-0.002887617
-0.0025834117
-0.0024888726
-0.0024370081
-0.0023978124
-0.0023581366
-0.0023056489
-0.0022189036
-0.0020481158
-0.0016643327
-0.0015203111
-0.0014414979
-0.0013739075
-0.0013183618
-0.0012686381
-0.0012174739
-0.0011567239
-0.0010765901
-0.00096957185
-0.00086148491
-0.00074677579
-0.00070757604
-0.00065571566
-0.00060230666
-0.00054931851
-0.00049478869
-0.00043552041
-0.00036943467
-0.00030035602
-0.00024775136
-2.791055e-05
3.3189167e-06
5.0960996e-05
0.0001042068
0.00015847897
0.00021315587
0.00026883617
0.00032466331
0.0003752352
0.000408094
0.00065796434
0.00069585586
0.00075012788
0.00080777008
0.00086392601
0.00091812729
0.00097104966
0.0010219925
0.0010664925
0.0010946679
0.0013047585
0.0013699792
0.0014439915
0.001510863
0.0015693455
0.0016223704
0.0016732107
0.0017237085
0.0017719988
0.0018077471
0.0018854798
0.0020331767
0.0021430129
0.0022203287
0.0022781773
0.0023267278
0.0023736201
0.0024255159
0.0024879112
0.0025552896
0.002318074
0.0027322059
0.0028726448
0.0029473112
0.0029943281
0.0030307419
0.0030670036
0.0031147804
0.0031967773
0.0033694623
0.00082730987
0.0010335432
0.0010831652
0.0011056011
0.001118235
0.001127507
0.0011370187
0.0011513392
0.0011819376
0.0012664625
-0.0013543048
-0.0011784283
-0.0011394621
-0.0011228383
-0.0011117693
-0.0011007125
-0.0010848636
-0.0010543498
-0.00097981916
-0.00075972134
-0.003041666
-0.0027194019
-0.0026193988
-0.0025644683
-0.0025228545
-0.0024806362
-0.0024247074
-0.0023322172
-0.0021500715
-0.0017407068
-0.0015892777
-0.0015058927
-0.0014343442
-0.0013754457
-0.0013226168
-0.0012681648
-0.0012034404
-0.0011180271
-0.0010039713
-0.0008889248
-0.00076702256
-0.00072548343
-0.00067047827
-0.00061375613
-0.00055740326
-0.00049933966
-0.00043617637
-0.0003657212
-0.00029208481
-0.00023605785
-2.2934819e-06
3.0895197e-05
8.1538601e-05
0.00013817614
0.00019595507
0.00025421941
0.00031360225
0.00037317458
0.00042714836
0.00046220508
0.00072792209
0.00076828069
0.00082606921
0.0008874571
0.00094729611
0.0010051043
0.0010616096
0.0011160598
0.0011636673
0.0011938264
0.0014170704
0.0014866146
0.0015654894
0.0016367523
0.0016991078
0.0017557074
0.0018100633
0.0018641567
0.001915985
0.0019544137
0.0020362847
0.0021938513
0.0023109206
0.0023933205
0.0024550122
0.0025068666
0.0025570699
0.0026127883
0.0026799545
0.0027526184
0.0024979069
0.0029398495
0.0030894173
0.0031689517
0.0032190806
0.0032579822
0.0032968472
0.0033482393
0.0034366773
0.003623176
0.00089095369
0.0011110515
0.0011638635
0.0011877492
0.0012012148
0.0012111203
0.0012213209
0.0012367394
0.0012697635
0.0013610719
-0.001416095
-0.0012314966
-0.0011906679
-0.0011732388
-0.0011616066
-0.0011499604
-0.0011332437
-0.0011010397
-0.0010223557
-0.00078993686
-0.0031741895
-0.0028360488
-0.0027312665
-0.0026736487
-0.0026299054
-0.0025854384
-0.0025264592
-0.0024288717
-0.0022366449
-0.0018045699
-0.0016464269
-0.0015590403
-0.0014840267
-0.0014221831
-0.0013666159
-0.0013092552
-0.0012410084
-0.0011509128
-0.0010306185
-0.0009094195
-0.00078099031
-0.00073739833
-0.0006796292
-0.00061998754
-0.00056066174
-0.00049946861
-0.00043285064
-0.00035851791
-0.00028083863
-0.00022178159
2.4347444e-05
5.9265063e-05
0.00011255772
0.00017219301
0.00023307667
0.00029452302
0.00035719509
0.00042009777
0.00047709721
0.00051410706
0.00079377244
0.0008363167
0.00089721859
0.00096192427
0.0010250297
0.0010860427
0.0011457383
0.0012033179
0.0012537023
0.0012856355
0.0015203152
0.0015936963
0.001676882
0.0017520386
0.0018178327
0.0018776134
0.0019351079
0.0019924221
0.0020474302
0.0020882737
0.0021734466
0.0023397787
0.0024632609
0.0025501685
0.002615273
0.0026700707
0.002723237
0.002782393
0.0028538671
0.0029313161
0.0026605382
0.0031271925
0.00328484
0.0033686858
0.0034215763
0.003462695
0.0035038939
0.0035585466
0.003652817
0.0038518467
0.00094839485
0.0011808137
0.0012364449
0.001261613
0.0012758162
0.0012862862
0.001297105
0.0013135153
0.0013487376
0.0014462017
-0.0014681957
-0.0012761088
-0.0012336924
-0.0012155761
-0.0012034599
-0.001191304
-0.0011738344
-0.0011401618
-0.0010578664
-0.00081472791
-0.0032847805
-0.0029330257
-0.002824171
-0.0027642572
-0.0027186826
-0.0026722714
-0.0026106467
-0.0025086332
-0.0023076493
-0.0018558413
-0.0016917972
-0.0016009981
-0.0015230287
-0.0014586609
-0.0014007349
-0.0013408582
-0.0012695573
-0.0011753988
-0.001049694
-0.00092317761
-0.00078897184
-0.00074362306
-0.0006834834
-0.00062132925
-0.00055943603
-0.00049553233
-0.00042591643
-0.00034821644
-0.00026702815
-0.00020534729
5.1506362e-05
8.7914563e-05
0.00014349218
0.00020571733
0.00026928911
0.00033349685
0.00039902895
0.00046483092
0.00052446512
0.00056317398
0.000854832
0.00089927022
0.00096286783
0.0010304478
0.0010963874
0.0011601877
0.0012226652
0.0012829804
0.0013357972
0.0013692859
0.0016136692
0.0016903825
0.0017773074
0.0018558418
0.0019246233
0.0019871759
0.002047416
0.00210756
0.0021653728
0.0022083528
0.0022960444
0.0024699964
0.0025990418
0.0026898597
0.00275793
0.0028152959
0.0028710621
0.0029332526
0.0030085484
0.003090256
0.0028050121
0.003293163
0.003457804
0.0035453842
0.0036006732
0.0036437272
0.0036869787
0.00374452
0.0038439821
0.0040541915
0.00099931533
0.0012424538
0.0013005207
0.0013267981
0.0013416413
0.001352604
0.0013639671
0.0013812574
0.0014184388
0.001521397
-0.0015104234
-0.001312118
-0.0012683957
-0.0012497133
-0.0012371944
-0.0012246107
-0.0012065063
-0.0011715931
-0.0010862441
-0.00083403439
-0.0033731356
-0.003010094
-0.002897892
-0.0028360833
-0.0027889835
-0.002740941
-0.0026770874
-0.0025713386
-0.0023629598
-0.001894482
-0.0017254416
-0.0016318345
-0.0015514308
-0.0014849707
-0.0014250754
-0.0013630864
-0.0012892131
-0.001191629
-0.0010613652
-0.00093038884
-0.00079122135
-0.00074441941
-0.00068231282
-0.00061806396
-0.00055402005
-0.00048783665
-0.00041569283
-0.00033515081
-0.00025100281
-0.00018711569
7.875939e-05
0.0001164133
0.00017390172
0.00023829756
0.00030412902
0.00037066519
0.00043861519
0.00050687223
0.00056873837
0.00060888453
0.00091053464
0.00095656676
0.0010224307
0.001092429
0.0011607579
0.0012269152
0.0012917533
0.0013543976
0.0014092907
0.001444109
0.0016964527
0.0017759789
0.0018660549
0.0019474364
0.0020187408
0.0020836434
0.0021462232
0.002208792
0.0022690204
0.0023138478
0.0024033182
0.0025837115
0.0027174458
0.0028115594
0.0028821358
0.0029416826
0.0029996731
0.0030644798
0.0031430914
0.0032285091
0.0029305372
0.0034368753
0.0036073938
0.0036981155
0.003755429
0.0038001277
0.0038451404
0.0039051835
0.0040091696
0.0042291483
0.0010434511
0.0012956609
0.0013557697
0.0013829784
0.0013983611
0.0014097425
0.0014215733
0.0014396275
0.0014785184
0.0015862799
-0.0015426525
-0.001339426
-0.0012946848
-0.0012755596
-0.001262721
-0.001249793
-0.0012311745
-0.0011952538
-0.0011074211
-0.00084782467
-0.0034390664
-0.0030671149
-0.0029523037
-0.0028890083
-0.0028406955
-0.002791341
-0.0027256839
-0.0026169055
-0.0024025229
-0.0019205042
-0.0017474428
-0.0016516432
-0.0015693362
-0.0015012235
-0.0014397562
-0.0013760671
-0.0013001134
-0.0011997542
-0.0010658007
-0.00093123873
-0.00078797247
-0.00074002667
-0.00067636428
-0.00061044667
-0.00054467729
-0.00047665421
-0.00040246269
-0.00031961524
-0.0002330686
-0.00016740129
0.00010574562
0.00014439544
0.00020341301
0.00026955184
0.00033720547
0.00040562763
0.00047554343
0.00054580115
0.00060948713
0.00065080307
0.00096041277
0.0010077324
0.0010754244
0.0011473752
0.001217639
0.0012857131
0.0013524808
0.0014170372
0.0014736414
0.0015095577
0.0017681131
0.001849922
0.0019425486
0.0020262349
0.0020995876
0.0021664084
0.0022309117
0.0022954893
0.0023577331
0.00240411
0.0024946558
0.002680286
0.0028178167
0.0029145987
0.0029872108
0.0030485424
0.0031083715
0.0031753638
0.0032567691
0.0033453296
0.0030364782
0.0035576218
0.0037328794
0.0038261374
0.0038850934
0.0039311393
0.0039776139
0.0040397599
0.0041475797
0.0043758674
0.0010805905
0.0013401869
0.0014019363
0.0014298949
0.0014457145
0.0014574388
0.0014696587
0.0014883567
0.0015286991
0.0016405485
-0.0015648159
-0.0013579852
-0.0013125157
-0.0012930723
-0.0012799979
-0.0012668106
-0.0012478003
-0.0012111084
-0.0011213704
-0.00085609705
-0.0034825055
-0.0031040552
-0.0029873814
-0.0029230123
-0.0028738025
-0.0028234596
-0.0027564305
-0.0026453381
-0.0024263634
-0.001933978
-0.0017579235
-0.0016605543
-0.0015768807
-0.0015075605
-0.0014449236
-0.0013799522
-0.001302417
-0.0011999428
-0.001063181
-0.00092591892
-0.00077945142
-0.00073067464
-0.00066587253
-0.00059871755
-0.00053165366
-0.0004622372
-0.00038648525
-0.00030187695
-0.00021350083
-0.00014648524
0.0001321528
0.00017154543
0.00023170549
0.00029915376
0.00036818585
0.00043804497
0.00050946744
0.00058126422
0.00064635146
0.0006885655
0.0010040832
0.0010523797
0.0011214552
0.0011948862
0.0012666236
0.0013361678
0.0014044264
0.0014704711
0.0015284144
0.0015651926
0.0018282125
0.0019117658
0.0020063339
0.0020917751
0.0021666942
0.0022349943
0.0023009975
0.0023671598
0.0024310101
0.0024786317
0.0025695824
0.0027592273
0.0028996496
0.0029984633
0.003072634
0.0031353473
0.0031966221
0.0032653599
0.0033490241
0.0034401457
0.0031223498
0.0036548667
0.0038337098
0.0039288907
0.0039891016
0.004036192
0.0040838231
0.0041476638
0.0042586089
0.0044937055
0.0011105726
0.0013758459
0.0014388294
0.0014673539
0.0014835065
0.0014954966
0.0015080253
0.0015272444
0.001568773
0.0016839755
-0.0015769066
-0.0013677992
-0.0013218936
-0.0013022573
-0.0012890315
-0.0012756702
-0.0012563915
-0.0012191667
-0.0011281065
-0.00085888043
-0.0035035108
-0.0031209913
-0.0030032052
-0.0029381774
-0.0028883886
-0.0028373835
-0.0027694173
-0.0026567323
-0.0024345878
-0.0019350355
-0.0017570537
-0.0016587409
-0.0015742398
-0.0015041595
-0.0014407581
-0.0013749252
-0.0012963115
-0.0011923875
-0.0010537054
-0.00091463426
-0.00076588613
-0.00071659293
-0.00065106949
-0.0005831112
-0.00051518684
-0.00044482672
-0.00036800559
-0.00028218548
-0.00019255357
-0.00012462462
0.00015770691
0.00019758758
0.00025850085
0.00032682192
0.00039678533
0.00046762865
0.0005400946
0.00061296457
0.00067903058
0.0007218687
0.0010412367
0.0010901967
0.001160208
0.0012346433
0.0013073893
0.0013779525
0.0014472593
0.0015143636
0.0015732699
0.001610671
0.0018764173
0.0019611725
0.0020570685
0.0021437102
0.0022197098
0.0022890461
0.0023561208
0.0024234382
0.0024884801
0.0025370368
0.0026277528
0.0028201802
0.0029625822
0.0030627864
0.0031380343
0.0032017223
0.0032640449
0.0033340816
0.0034194607
0.0035125505
0.0031878112
0.0037282406
0.0039095079
0.0040059938
0.0040670688
0.004114898
0.0041633763
0.0042284966
0.0043418452
0.0045822206
0.0011332862
0.0014025122
0.0014663211
0.0014952263
0.001511607
0.0015237851
0.0015365411
0.0015561563
0.0015986009
0.0017164066
-0.0015789768
-0.0013689228
-0.0013228731
-0.0013031689
-0.0012898762
-0.0012764264
-0.0012570028
-0.0012194839
-0.0011276858
-0.00085623462
-0.0035022668
-0.0031181113
-0.0029999622
-0.00293469
-0.0028846402
-0.0028332992
-0.0027648313
-0.0026512763
-0.0024273871
-0.0019238726
-0.0017450548
-0.0016464239
-0.0015616336
-0.0014912403
-0.0014274794
-0.0013612063
-0.0012820177
-0.00117731
-0.0010375967
-0.00089760767
-0.0007475129
-0.00069801756
-0.00063219087
-0.00056386337
-0.00049551286
-0.00042465949
-0.00034726129
-0.00026077941
-0.00017046627
-0.00010205933
0.0001821643
0.00022227809
0.00028355517
0.00035231207
0.00042275905
0.00049413288
0.00056717792
0.0006406539
0.00070727502
0.00075046249
0.0010716292
0.0011209393
0.0011914381
0.001266401
0.0013396897
0.0014108198
0.0014807304
0.0015484637
0.0016079549
0.0016457388
0.0019124909
0.0019979046
0.0020945138
0.0021818009
0.0022583939
0.0023283219
0.0023960378
0.0024640779
0.0025298932
0.0025790727
0.0026689446
0.0028629202
0.0030063888
0.0031073411
0.0031831839
0.0032474382
0.0033104084
0.0033812937
0.003467838
0.0035622961
0.0032326617
0.0037775357
0.0039600654
0.004057238
0.0041187855
0.0041670466
0.0042160605
0.0042820414
0.004397063
0.0046411671
0.0011486686
0.0014201197
0.0014843449
0.0015134458
0.0015299495
0.0015422374
0.0015551388
0.0015750237
0.0016181109
0.0017377598
-0.0015711379
-0.0013614618
-0.0013155577
-0.0012959098
-0.001282634
-0.0012691808
-0.0012497353
-0.00121216
-0.0011202057
-0.00084825016
-0.0034790848
-0.0030957144
-0.0029779462
-0.002912841
-0.0028628461
-0.0028114938
-0.0027429577
-0.002629252
-0.0024050365
-0.0019007504
-0.0017222025
-0.0016238744
-0.001539329
-0.0014690666
-0.001405349
-0.0013390548
-0.0012597926
-0.0011549643
-0.0010151046
-0.00087508338
-0.00072458099
-0.00067519551
-0.00060948081
-0.00054121554
-0.0004728709
-0.00040197252
-0.00032448729
-0.00023789136
-0.00014746897
-7.9017099e-05
0.00020530575
0.00024539925
0.00030665292
0.00037541099
0.00044589594
0.00051734846
0.00059050992
0.00066412628
0.00073088021
0.00077414331
0.001095076
0.0011444241
0.0012149643
0.0012899805
0.0013633479
0.0014345945
0.0015046656
0.0015725983
0.0016322965
0.0016702231
0.001936287
0.0020218181
0.0021185289
0.0022059087
0.00228261
0.0023526865
0.0024206138
0.0024889443
0.0025551142
0.0026046031
0.0026930529
0.0028873473
0.0030309741
0.0031320353
0.0032079924
0.0032724056
0.0033356233
0.003406906
0.0034940636
0.0035892868
0.0032568363
0.0038027011
0.0039853379
0.004082582
0.0041442122
0.004192599
0.004241837
0.0043082578
0.0044242179
0.0046704902
0.0011567045
0.00142866
0.0014928952
0.0015220075
0.0015385298
0.0015508496
0.0015638142
0.0015838421
0.0016272964
0.0017480236
-0.0015535594
-0.0013455713
-0.001300099
-0.0012806298
-0.0012674539
-0.0012540813
-0.0012347356
-0.0011973392
-0.0011058045
-0.00083504783
-0.0034344011
-0.0030542106
-0.0029375569
-0.0028730243
-0.0028233964
-0.002772354
-0.0027041785
-0.0025910336
-0.0023678954
-0.0018659946
-0.0016888281
-0.0015914158
-0.0015076418
-0.0014379485
-0.0013746722
-0.0013087714
-0.0012299313
-0.0011256384
-0.00098650735
-0.00084732906
-0.00069735599
-0.00064838829
-0.00058319547
-0.0005154186
-0.00044750693
-0.00037700698
-0.00029991961
-0.0002137517
-0.00012378601
-5.5717359e-05
0.0002269318
0.00026675457
0.00032760218
0.0003959317
0.0004660138
0.00053709781
0.00060991752
0.00068321299
0.00074968139
0.00079274905
0.0011114456
0.001160523
0.0012306635
0.0013052638
0.0013782508
0.0014491675
0.0015189599
0.0015866655
0.0016461958
0.0016840268
0.0019477438
0.002032857
0.0021290641
0.00221599
0.0022923194
0.0023621051
0.0024298174
0.0024980084
0.002564116
0.0026136019
0.0027000841
0.0028934809
0.0030363672
0.0031369049
0.0032125008
0.0032766688
0.0033397367
0.0034109674
0.0034981876
0.0035935732
0.0032604009
0.003803838
0.0039854399
0.0040821473
0.0041434743
0.0041916834
0.0042408356
0.0043072768
0.0044234413
0.0046703209
0.0011574245
0.0014281811
0.001492025
0.0015209666
0.0015374041
0.0015496784
0.0015626248
0.001582669
0.0016262152
0.0017472554
-0.0015264669
-0.0013214556
-0.0012766957
-0.0012575251
-0.0012445304
-0.0012313211
-0.0012121949
-0.0011752087