/*--------------------------------*- C++ -*----------------------------------*\
| =========                 |                                                 |
| \\      /  F ield         | OpenFOAM: The Open Source CFD Toolbox           |
|  \\    /   O peration     | Version:  v2106                                 |
|   \\  /    A nd           | Website:  www.openfoam.com                      |
|    \\/     M anipulation  |                                                 |
\*---------------------------------------------------------------------------*/
FoamFile
{
    version     2.0;
    format      ascii;
    arch        "LSB;label=32;scalar=64";
    class       volScalarField;
    location    "87.5";
    object      laplacianT;
}
// * * * * * * * * * * * * * * * * * * * * * * * * * * * * * * * * * * * * * //

dimensions      [0 -2 0 1 0 0 0];

internalField   nonuniform List<scalar> 
4000
(
41137.653
41137.658
41137.639
41137.63
41137.626
41137.626
41137.629
41137.636
41137.644
41137.652
41137.658
41137.659
41137.642
41137.633
41137.629
41137.629
41137.633
41137.64
41137.65
41137.657
41137.639
41137.642
41137.625
41137.617
41137.613
41137.614
41137.618
41137.625
41137.635
41137.644
41137.63
41137.633
41137.617
41137.609
41137.606
41137.606
41137.611
41137.619
41137.629
41137.638
41137.626
41137.629
41137.613
41137.606
41137.602
41137.604
41137.608
41137.617
41137.627
41137.637
41137.626
41137.629
41137.614
41137.606
41137.604
41137.605
41137.61
41137.618
41137.63
41137.639
41137.629
41137.633
41137.618
41137.611
41137.608
41137.61
41137.615
41137.624
41137.635
41137.645
41137.636
41137.64
41137.625
41137.619
41137.617
41137.618
41137.624
41137.633
41137.645
41137.654
41137.644
41137.65
41137.635
41137.629
41137.627
41137.63
41137.635
41137.645
41137.656
41137.666
41137.652
41137.657
41137.644
41137.638
41137.637
41137.639
41137.645
41137.654
41137.666
41137.676
-549.03323
-548.89753
-548.91486
-548.91495
-548.91478
-548.91478
-548.91493
-548.91521
-548.91559
-548.9211
-548.89753
-548.79749
-548.81179
-548.81173
-548.81156
-548.81157
-548.81174
-548.81207
-548.81252
-548.84555
-548.91486
-548.81179
-548.8258
-548.82574
-548.82558
-548.8256
-548.82579
-548.82613
-548.82662
-548.85777
-548.91495
-548.81173
-548.82574
-548.82569
-548.82555
-548.82558
-548.82579
-548.82615
-548.82666
-548.85788
-548.91478
-548.81156
-548.82558
-548.82555
-548.82542
-548.82547
-548.82569
-548.82606
-548.82658
-548.85782
-548.91478
-548.81157
-548.8256
-548.82558
-548.82547
-548.82553
-548.82576
-548.82615
-548.82668
-548.85793
-548.91493
-548.81174
-548.82579
-548.82579
-548.82569
-548.82576
-548.826
-548.8264
-548.82695
-548.8582
-548.91521
-548.81207
-548.82613
-548.82615
-548.82606
-548.82615
-548.8264
-548.82682
-548.82737
-548.85862
-548.91559
-548.81252
-548.82662
-548.82666
-548.82658
-548.82668
-548.82695
-548.82737
-548.82793
-548.85919
-548.9211
-548.84555
-548.85777
-548.85788
-548.85782
-548.85793
-548.8582
-548.85862
-548.85919
-548.8916
-538.03053
-537.82829
-537.85678
-537.85711
-537.85692
-537.85693
-537.85713
-537.85752
-537.85805
-537.89267
-537.82829
-537.68129
-537.70461
-537.70467
-537.70447
-537.7045
-537.70475
-537.7052
-537.70584
-537.79167
-537.85678
-537.70461
-537.7274
-537.72746
-537.72728
-537.72733
-537.72759
-537.72806
-537.72874
-537.81018
-537.85711
-537.70467
-537.72746
-537.72753
-537.72737
-537.72743
-537.72772
-537.72821
-537.72892
-537.81045
-537.85692
-537.70447
-537.72728
-537.72737
-537.72723
-537.72731
-537.72761
-537.72813
-537.72885
-537.81041
-537.85693
-537.7045
-537.72733
-537.72743
-537.72731
-537.72741
-537.72772
-537.72825
-537.72899
-537.81056
-537.85713
-537.70475
-537.72759
-537.72772
-537.72761
-537.72772
-537.72806
-537.7286
-537.72935
-537.81092
-537.85752
-537.7052
-537.72806
-537.72821
-537.72813
-537.72825
-537.7286
-537.72916
-537.72993
-537.81149
-537.85805
-537.70584
-537.72874
-537.72892
-537.72885
-537.72899
-537.72935
-537.72993
-537.73071
-537.81227
-537.89267
-537.79167
-537.81018
-537.81045
-537.81041
-537.81056
-537.81092
-537.81149
-537.81227
-537.90622
-527.38985
-527.12391
-527.16273
-527.16328
-527.16308
-527.16311
-527.16338
-527.16387
-527.16455
-527.22593
-527.12391
-526.93119
-526.96294
-526.96312
-526.96291
-526.96296
-526.96329
-526.96386
-526.96468
-527.10085
-527.16273
-526.96294
-526.99396
-526.99413
-526.99394
-526.99401
-526.99435
-526.99495
-526.99582
-527.12505
-527.16328
-526.96312
-526.99413
-526.99432
-526.99415
-526.99424
-526.99461
-526.99524
-526.99614
-527.12547
-527.16308
-526.96291
-526.99394
-526.99415
-526.994
-526.99412
-526.9945
-526.99516
-526.99608
-527.12544
-527.16311
-526.96296
-526.99401
-526.99424
-526.99412
-526.99425
-526.99466
-526.99533
-526.99627
-527.12565
-527.16338
-526.96329
-526.99435
-526.99461
-526.9945
-526.99466
-526.99509
-526.99578
-526.99673
-527.12611
-527.16387
-526.96386
-526.99495
-526.99524
-526.99516
-526.99533
-526.99578
-526.99649
-526.99746
-527.12682
-527.16455
-526.96468
-526.99582
-526.99614
-526.99608
-526.99627
-526.99673
-526.99746
-526.99845
-527.1278
-527.22593
-527.10085
-527.12505
-527.12547
-527.12544
-527.12565
-527.12611
-527.12682
-527.1278
-527.27985
-517.09395
-516.76631
-516.8151
-516.81587
-516.81566
-516.81571
-516.81605
-516.81664
-516.81746
-516.90486
-516.76631
-516.52937
-516.56926
-516.56955
-516.56934
-516.56942
-516.56982
-516.57052
-516.57151
-516.75656
-516.8151
-516.56926
-516.60822
-516.6085
-516.60831
-516.60841
-516.60883
-516.60956
-516.6106
-516.78622
-516.81587
-516.56955
-516.6085
-516.60881
-516.60864
-516.60877
-516.60922
-516.60998
-516.61106
-516.78678
-516.81566
-516.56934
-516.60831
-516.60864
-516.60849
-516.60865
-516.60912
-516.60991
-516.61102
-516.78678
-516.81571
-516.56942
-516.60841
-516.60877
-516.60865
-516.60883
-516.60933
-516.61014
-516.61127
-516.78704
-516.81605
-516.56982
-516.60883
-516.60922
-516.60912
-516.60933
-516.60985
-516.61068
-516.61183
-516.78759
-516.81664
-516.57052
-516.60956
-516.60998
-516.60991
-516.61014
-516.61068
-516.61154
-516.61271
-516.78845
-516.81746
-516.57151
-516.6106
-516.61106
-516.61102
-516.61127
-516.61183
-516.61271
-516.6139
-516.78962
-516.90486
-516.75656
-516.78622
-516.78678
-516.78678
-516.78704
-516.78759
-516.78845
-516.78962
-516.99782
-507.12917
-506.74252
-506.8009
-506.80188
-506.80166
-506.80174
-506.80214
-506.80283
-506.80379
-506.91637
-506.74252
-506.46334
-506.51105
-506.51147
-506.51125
-506.51137
-506.51185
-506.51267
-506.51382
-506.74602
-506.8009
-506.51105
-506.55764
-506.55805
-506.55785
-506.55799
-506.55849
-506.55935
-506.56056
-506.78092
-506.80188
-506.51147
-506.55805
-506.55848
-506.5583
-506.55848
-506.55901
-506.5599
-506.56115
-506.78162
-506.80166
-506.51125
-506.55785
-506.5583
-506.55816
-506.55836
-506.55892
-506.55984
-506.56113
-506.78164
-506.80174
-506.51137
-506.55799
-506.55848
-506.55836
-506.55859
-506.55918
-506.56013
-506.56143
-506.78195
-506.80214
-506.51185
-506.55849
-506.55901
-506.55892
-506.55918
-506.55979
-506.56077
-506.56209
-506.7826
-506.80283
-506.51267
-506.55935
-506.5599
-506.55984
-506.56013
-506.56077
-506.56176
-506.56312
-506.7836
-506.80379
-506.51382
-506.56056
-506.56115
-506.56113
-506.56143
-506.56209
-506.56312
-506.5645
-506.78495
-506.91637
-506.74602
-506.78092
-506.78162
-506.78164
-506.78195
-506.7826
-506.7836
-506.78495
-507.04734
-497.48345
-497.04085
-497.10837
-497.10956
-497.10934
-497.10945
-497.10991
-497.1107
-497.11178
-497.24855
-497.04085
-496.72168
-496.77686
-496.7774
-496.77718
-496.77733
-496.77789
-496.77882
-496.78012
-497.05748
-497.10837
-496.77686
-496.83073
-496.83125
-496.83105
-496.83123
-496.83181
-496.83278
-496.83415
-497.09736
-497.10956
-496.7774
-496.83125
-496.83179
-496.83163
-496.83184
-496.83245
-496.83347
-496.83488
-497.09819
-497.10934
-496.77718
-496.83105
-496.83163
-496.83149
-496.83174
-496.83238
-496.83343
-496.83488
-497.09823
-497.10945
-496.77733
-496.83123
-496.83184
-496.83174
-496.83201
-496.83269
-496.83377
-496.83524
-497.09861
-497.10991
-496.77789
-496.83181
-496.83245
-496.83238
-496.83269
-496.8334
-496.8345
-496.836
-497.09934
-497.1107
-496.77882
-496.83278
-496.83347
-496.83343
-496.83377
-496.8345
-496.83563
-496.83716
-497.10046
-497.11178
-496.78012
-496.83415
-496.83488
-496.83488
-496.83524
-496.836
-496.83716
-496.83873
-497.10198
-497.24855
-497.05748
-497.09736
-497.09819
-497.09823
-497.09861
-497.09934
-497.10046
-497.10198
-497.41634
-488.14535
-487.65018
-487.72634
-487.72774
-487.72753
-487.72766
-487.72818
-487.72906
-487.73025
-487.89007
-487.65018
-487.2935
-487.35573
-487.35639
-487.35617
-487.35637
-487.35699
-487.35803
-487.35948
-487.67972
-487.72634
-487.35573
-487.41649
-487.41712
-487.41693
-487.41715
-487.4178
-487.41888
-487.4204
-487.72429
-487.72774
-487.35639
-487.41712
-487.41779
-487.41763
-487.41788
-487.41857
-487.4197
-487.42127
-487.72525
-487.72753
-487.35617
-487.41693
-487.41763
-487.4175
-487.41779
-487.41852
-487.41968
-487.42129
-487.72533
-487.72766
-487.35637
-487.41715
-487.41788
-487.41779
-487.41811
-487.41887
-487.42007
-487.4217
-487.72575
-487.72818
-487.35699
-487.4178
-487.41857
-487.41852
-487.41887
-487.41966
-487.42089
-487.42255
-487.72657
-487.72906
-487.35803
-487.41888
-487.4197
-487.41968
-487.42007
-487.42089
-487.42215
-487.42384
-487.72781
-487.73025
-487.35948
-487.4204
-487.42127
-487.42129
-487.4217
-487.42255
-487.42384
-487.42558
-487.72949
-487.89007
-487.67972
-487.72429
-487.72525
-487.72533
-487.72575
-487.72657
-487.72781
-487.72949
-488.09325
-479.10393
-478.55987
-478.64414
-478.64573
-478.64553
-478.64569
-478.64626
-478.64723
-478.64853
-478.83012
-478.55987
-478.16836
-478.23721
-478.23799
-478.23777
-478.23801
-478.2387
-478.23984
-478.24142
-478.60202
-478.64414
-478.23721
-478.30441
-478.30516
-478.30498
-478.30523
-478.30595
-478.30714
-478.30879
-478.65097
-478.64573
-478.23799
-478.30516
-478.30594
-478.30579
-478.30608
-478.30685
-478.30808
-478.30979
-478.65207
-478.64553
-478.23777
-478.30498
-478.30579
-478.30568
-478.30601
-478.30681
-478.30808
-478.30983
-478.65217
-478.64569
-478.23801
-478.30523
-478.30608
-478.30601
-478.30638
-478.30721
-478.30852
-478.3103
-478.65264
-478.64626
-478.2387
-478.30595
-478.30685
-478.30681
-478.30721
-478.30808
-478.30943
-478.31124
-478.65355
-478.64723
-478.23984
-478.30714
-478.30808
-478.30808
-478.30852
-478.30943
-478.3108
-478.31265
-478.6549
-478.64853
-478.24142
-478.30879
-478.30979
-478.30983
-478.3103
-478.31124
-478.31265
-478.31453
-478.65672
-478.83012
-478.60202
-478.65097
-478.65207
-478.65217
-478.65264
-478.65355
-478.6549
-478.65672
-479.06705
-470.34874
-469.75973
-469.85151
-469.85329
-469.85309
-469.85328
-469.85391
-469.85495
-469.85635
-470.05832
-469.75973
-469.33627
-469.41125
-469.41213
-469.41193
-469.4122
-469.41295
-469.41419
-469.41589
-469.81412
-469.85151
-469.41125
-469.48442
-469.48527
-469.4851
-469.48539
-469.48618
-469.48746
-469.48924
-469.86711
-469.85329
-469.41213
-469.48527
-469.48616
-469.48603
-469.48636
-469.48719
-469.48852
-469.49036
-469.86833
-469.85309
-469.41193
-469.4851
-469.48603
-469.48593
-469.4863
-469.48717
-469.48854
-469.49043
-469.86845
-469.85328
-469.4122
-469.48539
-469.48636
-469.4863
-469.48671
-469.48762
-469.48903
-469.49094
-469.86898
-469.85391
-469.41295
-469.48618
-469.48719
-469.48717
-469.48762
-469.48857
-469.49001
-469.49196
-469.86995
-469.85495
-469.41419
-469.48746
-469.48852
-469.48854
-469.48903
-469.49001
-469.4915
-469.49348
-469.8714
-469.85635
-469.41589
-469.48924
-469.49036
-469.49043
-469.49094
-469.49196
-469.49348
-469.49551
-469.87335
-470.05832
-469.81412
-469.86711
-469.86833
-469.86845
-469.86898
-469.86995
-469.8714
-469.87335
-470.32717
-461.86973
-461.23996
-461.33862
-461.34058
-461.34038
-461.3406
-461.34128
-461.34239
-461.34387
-461.56472
-461.23996
-460.78758
-460.86817
-460.86916
-460.86897
-460.86927
-460.87009
-460.8714
-460.87321
-461.30613
-461.33862
-460.86817
-460.94681
-460.94776
-460.9476
-460.94793
-460.94877
-460.95014
-460.95203
-461.36281
-461.34058
-460.86916
-460.94776
-460.94876
-460.94863
-460.949
-460.94989
-460.95131
-460.95327
-461.36413
-461.34038
-460.86897
-460.9476
-460.94863
-460.94855
-460.94896
-460.94989
-460.95136
-460.95336
-461.36429
-461.3406
-460.86927
-460.94793
-460.949
-460.94896
-460.94941
-460.95039
-460.95189
-460.95392
-461.36485
-461.34128
-460.87009
-460.94877
-460.94989
-460.94989
-460.95039
-460.9514
-460.95294
-460.95501
-461.36589
-461.34239
-460.8714
-460.95014
-460.95131
-460.95136
-460.95189
-460.95294
-460.95452
-460.95663
-461.36744
-461.34387
-460.87321
-460.95203
-460.95327
-460.95336
-460.95392
-460.95501
-460.95663
-460.95878
-461.3695
-461.56472
-461.30613
-461.36281
-461.36413
-461.36429
-461.36485
-461.36589
-461.36744
-461.3695
-461.86347
-453.65726
-452.99112
-453.09598
-453.0981
-453.09792
-453.09816
-453.09888
-453.10005
-453.10162
-453.33973
-452.99112
-452.51301
-452.59865
-452.59974
-452.59956
-452.59989
-452.60076
-452.60216
-452.60406
-453.06855
-453.09598
-452.59865
-452.68221
-452.68326
-452.68311
-452.68347
-452.68437
-452.68581
-452.68781
-453.12852
-453.0981
-452.59974
-452.68326
-452.68435
-452.68425
-452.68465
-452.6856
-452.68709
-452.68915
-453.12995
-453.09792
-452.59956
-452.68311
-452.68425
-452.68418
-452.68462
-452.68562
-452.68716
-452.68927
-453.13012
-453.09816
-452.59989
-452.68347
-452.68465
-452.68462
-452.68511
-452.68615
-452.68773
-452.68987
-453.13073
-453.09888
-452.60076
-452.68437
-452.6856
-452.68562
-452.68615
-452.68722
-452.68885
-452.69102
-453.13183
-453.10005
-452.60216
-452.68581
-452.68709
-452.68716
-452.68773
-452.68885
-452.69052
-452.69273
-453.13345
-453.10162
-452.60406
-452.68781
-452.68915
-452.68927
-452.68987
-452.69102
-452.69273
-452.695
-453.13562
-453.33973
-453.06855
-453.12852
-453.12995
-453.13012
-453.13073
-453.13183
-453.13345
-453.13562
-453.66619
-445.70202
-445.00409
-445.11444
-445.11672
-445.11655
-445.11681
-445.11757
-445.1188
-445.12043
-445.37411
-445.00409
-444.50354
-444.59366
-444.59485
-444.59468
-444.59504
-444.59596
-444.59742
-444.59941
-445.09217
-445.11444
-444.59366
-444.68158
-444.68273
-444.68259
-444.68298
-444.68393
-444.68544
-444.68752
-445.15504
-445.11672
-444.59485
-444.68273
-444.68391
-444.68381
-444.68425
-444.68525
-444.68681
-444.68896
-445.15657
-445.11655
-444.59468
-444.68259
-444.68381
-444.68376
-444.68424
-444.68529
-444.6869
-444.6891
-445.15677
-445.11681
-444.59504
-444.68298
-444.68425
-444.68424
-444.68476
-444.68585
-444.68751
-444.68974
-445.15741
-445.11757
-444.59596
-444.68393
-444.68525
-444.68529
-444.68585
-444.68699
-444.68868
-444.69095
-445.15856
-445.1188
-444.59742
-444.68544
-444.68681
-444.6869
-444.68751
-444.68868
-444.69043
-444.69273
-445.16025
-445.12043
-444.59941
-444.68752
-444.68896
-444.6891
-444.68974
-444.69095
-444.69273
-444.6951
-445.16251
-445.37411
-445.09217
-445.15504
-445.15657
-445.15677
-445.15741
-445.15856
-445.16025
-445.16251
-445.72594
-437.99505
-437.27004
-437.38516
-437.38757
-437.38741
-437.3877
-437.38849
-437.38976
-437.39145
-437.65892
-437.27004
-436.75047
-436.84446
-436.84574
-436.84559
-436.84597
-436.84693
-436.84845
-436.8505
-437.36813
-437.38516
-436.84446
-436.93615
-436.93738
-436.93726
-436.93768
-436.93867
-436.94023
-436.94238
-437.43348
-437.38757
-436.84574
-436.93738
-436.93865
-436.93857
-436.93903
-436.94007
-436.9417
-436.94392
-437.43509
-437.38741
-436.84559
-436.93726
-436.93857
-436.93853
-436.93904
-436.94013
-436.94181
-436.94408
-437.43531
-437.3877
-436.84597
-436.93768
-436.93903
-436.93904
-436.9396
-436.94073
-436.94245
-436.94476
-437.43599
-437.38849
-436.84693
-436.93867
-436.94007
-436.94013
-436.94073
-436.94191
-436.94367
-436.94601
-437.43719
-437.38976
-436.84845
-436.94023
-436.9417
-436.94181
-436.94245
-436.94367
-436.94548
-436.94786
-437.43893
-437.39145
-436.8505
-436.94238
-436.94392
-436.94408
-436.94476
-436.94601
-436.94786
-436.95031
-437.44126
-437.65892
-437.36813
-437.43348
-437.43509
-437.43531
-437.43599
-437.43719
-437.43893
-437.44126
-438.03366
-430.52767
-429.78043
-429.89954
-429.90207
-429.90193
-429.90224
-429.90306
-429.90437
-429.9061
-430.18553
-429.78043
-429.24531
-429.34255
-429.34391
-429.34377
-429.34418
-429.34518
-429.34674
-429.34885
-429.88781
-429.89954
-429.34255
-429.43741
-429.43871
-429.4386
-429.43905
-429.44007
-429.44168
-429.44389
-429.9552
-429.90207
-429.34391
-429.43871
-429.44005
-429.43999
-429.44048
-429.44156
-429.44323
-429.44551
-429.95689
-429.90193
-429.34377
-429.4386
-429.43999
-429.43997
-429.44051
-429.44163
-429.44336
-429.44569
-429.95713
-429.90224
-429.34418
-429.43905
-429.44048
-429.44051
-429.44109
-429.44226
-429.44403
-429.44639
-429.95784
-429.90306
-429.34518
-429.44007
-429.44156
-429.44163
-429.44226
-429.44348
-429.44529
-429.44769
-429.95907
-429.90437
-429.34674
-429.44168
-429.44323
-429.44336
-429.44403
-429.44529
-429.44714
-429.44959
-429.96086
-429.9061
-429.34885
-429.44389
-429.44551
-429.44569
-429.44639
-429.44769
-429.44959
-429.4521
-429.96324
-430.18553
-429.88781
-429.9552
-429.95689
-429.95713
-429.95784
-429.95907
-429.96086
-429.96324
-430.58058
-423.2915
-422.52694
-422.64927
-422.6519
-422.65177
-422.6521
-422.65294
-422.65428
-422.65604
-422.94555
-422.52694
-421.9798
-422.07966
-422.08109
-422.08096
-422.0814
-422.08242
-422.08402
-422.08617
-422.64283
-422.64927
-422.07966
-422.17705
-422.17842
-422.17833
-422.1788
-422.17985
-422.1815
-422.18375
-422.71184
-422.6519
-422.08109
-422.17842
-422.17983
-422.17979
-422.1803
-422.1814
-422.18311
-422.18544
-422.71359
-422.65177
-422.08096
-422.17833
-422.17979
-422.17979
-422.18034
-422.1815
-422.18326
-422.18563
-422.71386
-422.6521
-422.0814
-422.1788
-422.1803
-422.18034
-422.18095
-422.18215
-422.18396
-422.18637
-422.71458
-422.65294
-422.08242
-422.17985
-422.1814
-422.1815
-422.18215
-422.1834
-422.18525
-422.1877
-422.71584
-422.65428
-422.08402
-422.1815
-422.18311
-422.18326
-422.18396
-422.18525
-422.18714
-422.18964
-422.71767
-422.65604
-422.08617
-422.18375
-422.18544
-422.18563
-422.18637
-422.1877
-422.18964
-422.1922
-422.72009
-422.94555
-422.64283
-422.71184
-422.71359
-422.71386
-422.71458
-422.71584
-422.71767
-422.72009
-423.35822
-416.27837
-415.50147
-415.62623
-415.62895
-415.62883
-415.62918
-415.63004
-415.6314
-415.63318
-415.93083
-415.50147
-414.94588
-415.04771
-415.0492
-415.04909
-415.04954
-415.05059
-415.05221
-415.0544
-415.62507
-415.62623
-415.04771
-415.14701
-415.14844
-415.14837
-415.14885
-415.14993
-415.1516
-415.15388
-415.69524
-415.62895
-415.0492
-415.14844
-415.14991
-415.14988
-415.15041
-415.15154
-415.15327
-415.15563
-415.69705
-415.62883
-415.04909
-415.14837
-415.14988
-415.14989
-415.15047
-415.15165
-415.15344
-415.15584
-415.69733
-415.62918
-415.04954
-415.14885
-415.15041
-415.15047
-415.15109
-415.15232
-415.15415
-415.1566
-415.69807
-415.63004
-415.05059
-415.14993
-415.15154
-415.15165
-415.15232
-415.15359
-415.15547
-415.15795
-415.69936
-415.6314
-415.05221
-415.1516
-415.15327
-415.15344
-415.15415
-415.15547
-415.15739
-415.15992
-415.70121
-415.63318
-415.0544
-415.15388
-415.15563
-415.15584
-415.1566
-415.15795
-415.15992
-415.16251
-415.70365
-415.93083
-415.62507
-415.69524
-415.69705
-415.69733
-415.69807
-415.69936
-415.70121
-415.70365
-416.35835
-409.4804
-408.69615
-408.82253
-408.82532
-408.82522
-408.82557
-408.82645
-408.82782
-408.82962
-409.13344
-408.69615
-408.13568
-408.23882
-408.24036
-408.24027
-408.24074
-408.2418
-408.24344
-408.24564
-408.8266
-408.82253
-408.23882
-408.3394
-408.34087
-408.34082
-408.34131
-408.3424
-408.34409
-408.34639
-408.89749
-408.82532
-408.24036
-408.34087
-408.34239
-408.34237
-408.34292
-408.34406
-408.34581
-408.34818
-408.89934
-408.82522
-408.24027
-408.34082
-408.34237
-408.34241
-408.343
-408.34419
-408.346
-408.34841
-408.89963
-408.82557
-408.24074
-408.34131
-408.34292
-408.343
-408.34364
-408.34488
-408.34673
-408.34918
-408.90039
-408.82645
-408.2418
-408.3424
-408.34406
-408.34419
-408.34488
-408.34617
-408.34806
-408.35055
-408.90168
-408.82782
-408.24344
-408.34409
-408.34581
-408.346
-408.34673
-408.34806
-408.35
-408.35254
-408.90354
-408.82962
-408.24564
-408.34639
-408.34818
-408.34841
-408.34918
-408.35055
-408.35254
-408.35514
-408.906
-409.13344
-408.8266
-408.89749
-408.89934
-408.89963
-408.90039
-408.90168
-408.90354
-408.906
-409.57299
-402.88989
-402.10327
-402.23046
-402.23331
-402.23323
-402.23359
-402.23447
-402.23585
-402.23764
-402.54568
-402.10327
-401.54149
-401.64529
-401.64687
-401.64679
-401.64727
-401.64835
-401.64999
-401.65219
-402.23968
-402.23046
-401.64529
-401.74649
-401.748
-401.74796
-401.74847
-401.74957
-401.75126
-401.75356
-402.31084
-402.23331
-401.64687
-401.748
-401.74956
-401.74956
-401.75011
-401.75127
-401.75302
-401.75539
-402.31272
-402.23323
-401.64679
-401.74796
-401.74956
-401.74961
-401.75021
-401.75141
-401.75322
-401.75564
-402.31303
-402.23359
-401.64727
-401.74847
-401.75011
-401.75021
-401.75086
-401.75211
-401.75396
-401.75642
-402.31379
-402.23447
-401.64835
-401.74957
-401.75127
-401.75141
-401.75211
-401.7534
-401.7553
-401.75779
-402.31509
-402.23585
-401.64999
-401.75126
-401.75302
-401.75322
-401.75396
-401.7553
-401.75724
-401.75978
-402.31695
-402.23764
-401.65219
-401.75356
-401.75539
-401.75564
-401.75642
-401.75779
-401.75978
-401.76239
-402.3194
-402.54568
-402.23968
-402.31084
-402.31272
-402.31303
-402.31379
-402.31509
-402.31695
-402.3194
-402.99437
-396.49935
-395.71532
-395.84252
-395.8454
-395.84533
-395.84571
-395.84659
-395.84796
-395.84974
-396.16002
-395.71532
-395.15575
-395.25954
-395.26115
-395.2611
-395.26159
-395.26266
-395.2643
-395.26649
-395.85676
-395.84252
-395.25954
-395.36073
-395.36228
-395.36225
-395.36277
-395.36387
-395.36556
-395.36784
-395.92774
-395.8454
-395.26115
-395.36228
-395.36386
-395.36388
-395.36444
-395.36559
-395.36734
-395.36969
-395.92964
-395.84533
-395.2611
-395.36225
-395.36388
-395.36394
-395.36455
-395.36575
-395.36755
-395.36995
-395.92996
-395.84571
-395.26159
-395.36277
-395.36444
-395.36455
-395.36521
-395.36645
-395.3683
-395.37074
-395.93073
-395.84659
-395.26266
-395.36387
-395.36559
-395.36575
-395.36645
-395.36775
-395.36964
-395.37212
-395.93202
-395.84796
-395.2643
-395.36556
-395.36734
-395.36755
-395.3683
-395.36964
-395.37157
-395.37409
-395.93387
-395.84974
-395.26649
-395.36784
-395.36969
-395.36995
-395.37074
-395.37212
-395.37409
-395.37668
-395.9363
-396.16002
-395.85676
-395.92774
-395.92964
-395.92996
-395.93073
-395.93202
-395.93387
-395.9363
-396.61495
-390.3015
-389.52492
-389.65134
-389.65423
-389.65418
-389.65456
-389.65544
-389.6568
-389.65856
-389.96911
-389.52492
-388.97104
-389.07418
-389.07581
-389.07577
-389.07627
-389.07734
-389.07896
-389.08113
-389.67047
-389.65134
-389.07418
-389.17473
-389.17629
-389.17628
-389.1768
-389.1779
-389.17957
-389.18182
-389.74082
-389.65423
-389.07581
-389.17629
-389.17789
-389.17792
-389.17849
-389.17964
-389.18137
-389.18369
-389.74273
-389.65418
-389.07577
-389.17628
-389.17792
-389.178
-389.17861
-389.17981
-389.18159
-389.18396
-389.74306
-389.65456
-389.07627
-389.1768
-389.17849
-389.17861
-389.17927
-389.18051
-389.18234
-389.18475
-389.74382
-389.65544
-389.07734
-389.1779
-389.17964
-389.17981
-389.18051
-389.1818
-389.18367
-389.18611
-389.7451
-389.6568
-389.07896
-389.17957
-389.18137
-389.18159
-389.18234
-389.18367
-389.18558
-389.18807
-389.74693
-389.65856
-389.08113
-389.18182
-389.18369
-389.18396
-389.18475
-389.18611
-389.18807
-389.19063
-389.74933
-389.96911
-389.67047
-389.74082
-389.74273
-389.74306
-389.74382
-389.7451
-389.74693
-389.74933
-390.42738
-384.28922
-383.52488
-383.64973
-383.65262
-383.65259
-383.65297
-383.65384
-383.65517
-383.6569
-383.96578
-383.52488
-382.98008
-383.08193
-383.08357
-383.08355
-383.08405
-383.08511
-383.08671
-383.08883
-383.67358
-383.64973
-383.08193
-383.18121
-383.18278
-383.18278
-383.18331
-383.18439
-383.18604
-383.18825
-383.74287
-383.65262
-383.08357
-383.18278
-383.18438
-383.18443
-383.185
-383.18613
-383.18784
-383.19012
-383.74477
-383.65259
-383.08355
-383.18278
-383.18443
-383.18452
-383.18513
-383.18632
-383.18807
-383.1904
-383.7451
-383.65297
-383.08405
-383.18331
-383.185
-383.18513
-383.18579
-383.18702
-383.18881
-383.19118
-383.74586
-383.65384
-383.08511
-383.18439
-383.18613
-383.18632
-383.18702
-383.18829
-383.19013
-383.19253
-383.74712
-383.65517
-383.08671
-383.18604
-383.18784
-383.18807
-383.18881
-383.19013
-383.19201
-383.19445
-383.74892
-383.6569
-383.08883
-383.18825
-383.19012
-383.1904
-383.19118
-383.19253
-383.19445
-383.19696
-383.75127
-383.96578
-383.67358
-383.74287
-383.74477
-383.7451
-383.74586
-383.74712
-383.74892
-383.75127
-384.42449
-378.4556
-377.70814
-377.83065
-377.83351
-377.83349
-377.83388
-377.83473
-377.83604
-377.83773
-378.14302
-377.70814
-377.17572
-377.27565
-377.27729
-377.27728
-377.27778
-377.27883
-377.28039
-377.28247
-377.85901
-377.83065
-377.27565
-377.37305
-377.37461
-377.37464
-377.37516
-377.37623
-377.37783
-377.37999
-377.92681
-377.83351
-377.27729
-377.37461
-377.37621
-377.37628
-377.37684
-377.37796
-377.37962
-377.38185
-377.9287
-377.83349
-377.27728
-377.37464
-377.37628
-377.37638
-377.37699
-377.37815
-377.37986
-377.38214
-377.92903
-377.83388
-377.27778
-377.37516
-377.37684
-377.37699
-377.37764
-377.37885
-377.3806
-377.38291
-377.92978
-377.83473
-377.27883
-377.37623
-377.37796
-377.37815
-377.37885
-377.38009
-377.38189
-377.38423
-377.93102
-377.83604
-377.28039
-377.37783
-377.37962
-377.37986
-377.3806
-377.38189
-377.38372
-377.38611
-377.93277
-377.83773
-377.28247
-377.37999
-377.38185
-377.38214
-377.38291
-377.38423
-377.38611
-377.38856
-377.93506
-378.14302
-377.85901
-377.92681
-377.9287
-377.92903
-377.92978
-377.93102
-377.93277
-377.93506
-378.59929
-372.79385
-372.06778
-372.18719
-372.19001
-372.19001
-372.19039
-372.19123
-372.1925
-372.19414
-372.49398
-372.06778
-371.55093
-371.64833
-371.64995
-371.64996
-371.65046
-371.65148
-371.653
-371.65501
-372.21985
-372.18719
-371.64833
-371.74324
-371.7448
-371.74483
-371.74535
-371.74639
-371.74796
-371.75005
-372.28575
-372.19001
-371.64995
-371.7448
-371.74638
-371.74646
-371.74702
-371.7481
-371.74972
-371.75188
-372.2876
-372.19001
-371.64996
-371.74483
-371.74646
-371.74657
-371.74718
-371.74831
-371.74997
-371.75217
-372.28794
-372.19039
-371.65046
-371.74535
-371.74702
-371.74718
-371.74782
-371.74899
-371.7507
-371.75294
-372.28867
-372.19123
-371.65148
-371.74639
-371.7481
-371.74831
-371.74899
-371.75021
-371.75195
-371.75422
-372.28988
-372.1925
-371.653
-371.74796
-371.74972
-371.74997
-371.7507
-371.75195
-371.75373
-371.75605
-372.29157
-372.19414
-371.65501
-371.75005
-371.75188
-371.75217
-371.75294
-371.75422
-371.75605
-371.75842
-372.29379
-372.49398
-372.21985
-372.28575
-372.2876
-372.28794
-372.28867
-372.28988
-372.29157
-372.29379
-372.94499
-367.29737
-366.597
-366.7126
-366.71536
-366.71538
-366.71576
-366.71657
-366.71779
-366.71937
-367.01196
-366.597
-366.09878
-366.19306
-366.19466
-366.19468
-366.19518
-366.19616
-366.19763
-366.19958
-366.74932
-366.7126
-366.19306
-366.28493
-366.28645
-366.28651
-366.28702
-366.28803
-366.28953
-366.29155
-366.81292
-366.71536
-366.19466
-366.28645
-366.28801
-366.2881
-366.28865
-366.28971
-366.29127
-366.29335
-366.81472
-366.71538
-366.19468
-366.28651
-366.2881
-366.28823
-366.28882
-366.28991
-366.29152
-366.29364
-366.81506
-366.71576
-366.19518
-366.28702
-366.28865
-366.28882
-366.28945
-366.29058
-366.29223
-366.29438
-366.81577
-366.71657
-366.19616
-366.28803
-366.28971
-366.28991
-366.29058
-366.29176
-366.29344
-366.29563
-366.81693
-366.71779
-366.19763
-366.28953
-366.29127
-366.29152
-366.29223
-366.29344
-366.29516
-366.29739
-366.81856
-366.71937
-366.19958
-366.29155
-366.29335
-366.29364
-366.29438
-366.29563
-366.29739
-366.29967
-366.82069
-367.01196
-366.74932
-366.81292
-366.81472
-366.81506
-366.81577
-366.81693
-366.81856
-366.82069
-367.45494
-361.95972
-361.28917
-361.40026
-361.40294
-361.40297
-361.40334
-361.40412
-361.40529
-361.4068
-361.69039
-361.28917
-360.81249
-360.90308
-360.90464
-360.90468
-360.90516
-360.90611
-360.90752
-360.90938
-361.44076
-361.40026
-360.90308
-360.99134
-360.99283
-360.9929
-360.9934
-360.99437
-360.99581
-360.99775
-361.50167
-361.40294
-360.90464
-360.99283
-360.99435
-360.99445
-360.99499
-360.99601
-360.9975
-360.99949
-361.50342
-361.40297
-360.90468
-360.9929
-360.99445
-360.99459
-360.99516
-360.99622
-360.99776
-360.99979
-361.50376
-361.40334
-360.90516
-360.9934
-360.99499
-360.99516
-360.99578
-360.99687
-360.99845
-361.0005
-361.50445
-361.40412
-360.90611
-360.99437
-360.99601
-360.99622
-360.99687
-360.998
-360.99961
-361.0017
-361.50556
-361.40529
-360.90752
-360.99581
-360.9975
-360.99776
-360.99845
-360.99961
-361.00126
-361.00339
-361.50712
-361.4068
-360.90938
-360.99775
-360.99949
-360.99979
-361.0005
-361.0017
-361.00339
-361.00557
-361.50915
-361.69039
-361.44076
-361.50167
-361.50342
-361.50376
-361.50445
-361.50556
-361.50712
-361.50915
-362.12266
-356.77459
-356.13776
-356.24367
-356.24626
-356.2463
-356.24666
-356.24741
-356.24852
-356.24995
-356.52286
-356.13776
-355.68536
-355.77172
-355.77323
-355.77329
-355.77376
-355.77467
-355.77601
-355.77777
-356.28768
-356.24367
-355.77172
-355.85585
-355.8573
-355.85738
-355.85786
-355.85879
-355.86017
-355.862
-356.34554
-356.24626
-355.77323
-355.8573
-355.85877
-355.85888
-355.85941
-355.86037
-355.8618
-355.86368
-356.34722
-356.2463
-355.77329
-355.85738
-355.85888
-355.85903
-355.85958
-355.86059
-355.86205
-355.86398
-356.34755
-356.24666
-355.77376
-355.85786
-355.85941
-355.85958
-355.86018
-355.86122
-355.86272
-355.86467
-356.34821
-356.24741
-355.77467
-355.85879
-355.86037
-355.86059
-355.86122
-355.8623
-355.86383
-355.86581
-356.34927
-356.24852
-355.77601
-355.86017
-355.8618
-355.86205
-355.86272
-355.86383
-355.86539
-355.86741