/*--------------------------------*- C++ -*----------------------------------*\
| =========                 |                                                 |
| \\      /  F ield         | OpenFOAM: The Open Source CFD Toolbox           |
|  \\    /   O peration     | Version:  v2106                                 |
|   \\  /    A nd           | Website:  www.openfoam.com                      |
|    \\/     M anipulation  |                                                 |
\*---------------------------------------------------------------------------*/
FoamFile
{
    version     2.0;
    format      ascii;
    arch        "LSB;label=32;scalar=64";
    class       volVectorField;
    location    "7.5";
    object      flux;
}
// * * * * * * * * * * * * * * * * * * * * * * * * * * * * * * * * * * * * * //

dimensions      [0 1 -1 1 0 0 0];

internalField   nonuniform List<vector> 
4000
(
(-1.2038846e-08 -1.2038839e-08 0.06149618)
(-2.3651833e-07 -2.1006252e-07 0.061496112)
(1.7493838e-07 4.9725129e-08 0.061495349)
(4.2955321e-07 -1.0502977e-08 0.061497111)
(-9.7057931e-09 -3.1484199e-08 0.061497309)
(-1.0366156e-07 -3.5950952e-08 0.061497088)
(-1.1629578e-07 -3.8415072e-08 0.061496788)
(-1.0846663e-07 -4.2210629e-08 0.061496476)
(-7.9535721e-08 -4.0287664e-08 0.061496207)
(-1.9709248e-08 -2.0646212e-08 0.061496034)
(-2.1006253e-07 -2.3651833e-07 0.061496112)
(-1.4387238e-07 -1.4387237e-07 0.061495098)
(4.742777e-07 1.6767618e-07 0.061495813)
(3.0773922e-07 3.9286516e-08 0.061497208)
(-4.7877755e-08 -2.2393241e-09 0.06149727)
(-1.1405786e-07 -1.1518904e-08 0.061497018)
(-1.2568529e-07 -2.1151521e-08 0.061496697)
(-1.1127552e-07 -4.4937768e-08 0.061496353)
(-4.7189095e-08 -6.675495e-08 0.061496113)
(-6.7795693e-11 -2.8957459e-08 0.061496087)
(4.9725126e-08 1.7493837e-07 0.061495349)
(1.6767618e-07 4.742777e-07 0.061495813)
(3.5809727e-07 3.5809727e-07 0.061496258)
(2.5963771e-07 3.0728226e-07 0.061497489)
(-6.0511214e-08 2.9496739e-07 0.061497502)
(-1.2257375e-07 2.9404775e-07 0.061497236)
(-1.4971464e-07 2.8885184e-07 0.061496881)
(-1.5407006e-07 2.6074131e-07 0.06149644)
(-6.3555412e-08 2.006123e-07 0.06149608)
(5.4890796e-09 1.5373035e-07 0.061496108)
(-1.0502977e-08 4.2955321e-07 0.061497111)
(3.928652e-08 3.0773923e-07 0.061497208)
(3.0728226e-07 2.5963771e-07 0.061497489)
(2.4460933e-07 2.4460933e-07 0.061498659)
(-6.1112267e-08 2.4390289e-07 0.061498659)
(-1.2017341e-07 2.4949543e-07 0.0614984)
(-1.5899174e-07 2.5650614e-07 0.061498049)
(-1.9951506e-07 2.5446416e-07 0.061497551)
(-1.5420006e-07 2.2609422e-07 0.061497013)
(-3.1322431e-08 1.7537157e-07 0.061496782)
(-3.1484197e-08 -9.7057931e-09 0.061497309)
(-2.2393278e-09 -4.7877748e-08 0.06149727)
(2.9496738e-07 -6.0511217e-08 0.061497502)
(2.4390289e-07 -6.111226e-08 0.061498659)
(-5.5625111e-08 -5.5625115e-08 0.061498666)
(-1.099705e-07 -4.7447276e-08 0.061498428)
(-1.4474592e-07 -3.6314169e-08 0.061498108)
(-1.8448197e-07 -2.2492546e-08 0.061497648)
(-1.42648e-07 -8.8101967e-09 0.061497137)
(-2.8326022e-08 2.1593893e-09 0.061496918)
(-3.5950947e-08 -1.0366156e-07 0.061497088)
(-1.1518904e-08 -1.1405787e-07 0.061497018)
(2.9404775e-07 -1.2257375e-07 0.061497236)
(2.4949543e-07 -1.2017341e-07 0.0614984)
(-4.7447283e-08 -1.099705e-07 0.061498428)
(-1.0086246e-07 -1.0086246e-07 0.061498212)
(-1.3403701e-07 -9.2464802e-08 0.061497918)
(-1.7201109e-07 -8.3858043e-08 0.061497488)
(-1.2954812e-07 -7.5014425e-08 0.061497009)
(-2.4009373e-08 -6.7038167e-08 0.06149682)
(-3.8415069e-08 -1.1629578e-07 0.061496788)
(-2.1151518e-08 -1.2568531e-07 0.061496697)
(2.8885184e-07 -1.4971464e-07 0.061496881)
(2.5650614e-07 -1.5899174e-07 0.061498049)
(-3.6314154e-08 -1.4474591e-07 0.061498108)
(-9.2464802e-08 -1.34037e-07 0.061497918)
(-1.2774151e-07 -1.277415e-07 0.061497642)
(-1.6703159e-07 -1.2415581e-07 0.061497226)
(-1.2582812e-07 -1.221319e-07 0.061496758)
(-2.3008517e-08 -1.2146399e-07 0.061496575)
(-4.2210627e-08 -1.0846663e-07 0.061496476)
(-4.4937758e-08 -1.1127552e-07 0.061496353)
(2.6074132e-07 -1.5407006e-07 0.06149644)
(2.5446416e-07 -1.9951505e-07 0.061497551)
(-2.2492546e-08 -1.8448197e-07 0.061497648)
(-8.3858046e-08 -1.7201109e-07 0.061497488)
(-1.2415582e-07 -1.6703159e-07 0.061497226)
(-1.6640149e-07 -1.6640148e-07 0.061496815)
(-1.268563e-07 -1.6689847e-07 0.061496345)
(-2.35641e-08 -1.6683735e-07 0.061496158)
(-4.0287664e-08 -7.9535707e-08 0.061496207)
(-6.675495e-08 -4.7189084e-08 0.061496113)
(2.0061231e-07 -6.3555412e-08 0.06149608)
(2.2609423e-07 -1.5420007e-07 0.061497013)
(-8.8101967e-09 -1.42648e-07 0.061497137)
(-7.5014421e-08 -1.2954813e-07 0.061497009)
(-1.221319e-07 -1.2582812e-07 0.061496758)
(-1.6689848e-07 -1.2685629e-07 0.061496345)
(-1.2626399e-07 -1.2626398e-07 0.061495876)
(-2.2967766e-08 -1.1944408e-07 0.0614957)
(-2.0646212e-08 -1.970924e-08 0.061496034)
(-2.8957462e-08 -6.7788463e-11 0.061496087)
(1.5373034e-07 5.4890845e-09 0.061496108)
(1.7537157e-07 -3.1322435e-08 0.061496782)
(2.1593964e-09 -2.8326021e-08 0.061496918)
(-6.7038163e-08 -2.4009373e-08 0.06149682)
(-1.2146398e-07 -2.3008517e-08 0.061496575)
(-1.6683735e-07 -2.3564097e-08 0.061496158)
(-1.1944409e-07 -2.2967764e-08 0.0614957)
(-1.9017499e-08 -1.9017497e-08 0.061495571)
(-3.1884525e-08 -3.1884525e-08 0.093899571)
(-5.3610459e-07 -3.8332078e-07 0.093899927)
(9.7526732e-07 3.1471477e-07 0.093899831)
(1.6517147e-06 1.2811926e-07 0.093901617)
(-5.8605692e-09 5.557103e-08 0.093901868)
(-4.7120366e-07 3.7752813e-08 0.093901582)
(-5.6961439e-07 2.4073296e-08 0.093901138)
(-5.4587621e-07 4.1496514e-09 0.093900646)
(-4.2414946e-07 2.7330317e-08 0.093900233)
(-1.138094e-07 1.1510838e-07 0.093899843)
(-3.8332078e-07 -5.3610459e-07 0.093899927)
(-1.6205636e-08 -1.620564e-08 0.093899695)
(1.7424274e-06 8.6019607e-07 0.093900545)
(1.2629991e-06 4.4943246e-07 0.093902029)
(-1.4141024e-07 2.9681818e-07 0.093902158)
(-5.1845026e-07 2.564488e-07 0.093901838)
(-6.2001914e-07 2.0404515e-07 0.093901351)
(-5.4099068e-07 8.0410849e-08 0.093900788)
(-2.5771136e-07 1.0250709e-08 0.093900497)
(-2.6031329e-08 1.981857e-07 0.093900398)
(3.1471477e-07 9.7526732e-07 0.093899831)
(8.6019607e-07 1.7424274e-06 0.093900545)
(1.4409054e-06 1.4409054e-06 0.093901246)
(1.0883368e-06 1.25475e-06 0.09390258)
(-1.9884422e-07 1.1984779e-06 0.093902655)
(-5.6397669e-07 1.1918117e-06 0.093902319)
(-7.4565235e-07 1.1617653e-06 0.093901781)
(-7.3967065e-07 1.0147483e-06 0.09390104)
(-3.0637462e-07 7.469862e-07 0.093900549)
(1.1480594e-08 5.8126911e-07 0.093900509)
(1.2811926e-07 1.6517147e-06 0.093901617)
(4.4943246e-07 1.2629991e-06 0.093902029)
(1.25475e-06 1.0883368e-06 0.09390258)
(1.0205715e-06 1.0205715e-06 0.093903844)
(-2.0434853e-07 1.0144122e-06 0.093903903)
(-5.5516286e-07 1.0400963e-06 0.093903583)
(-7.9708253e-07 1.0711346e-06 0.093903054)
(-9.5576977e-07 1.050287e-06 0.093902237)
(-6.9119053e-07 9.0744195e-07 0.09390152)
(-1.3650939e-07 6.8925277e-07 0.093901202)
(5.5571037e-08 -5.8605655e-09 0.093901868)
(2.9681818e-07 -1.4141024e-07 0.093902158)
(1.1984779e-06 -1.9884421e-07 0.093902655)
(1.0144122e-06 -2.0434853e-07 0.093903903)
(-1.7931948e-07 -1.7931947e-07 0.093903973)
(-5.072543e-07 -1.3979858e-07 0.093903683)
(-7.3546159e-07 -8.6908447e-08 0.0939032)
(-9.0336325e-07 -2.7290235e-08 0.093902429)
(-6.6740886e-07 2.0996025e-08 0.093901732)
(-1.3397886e-07 4.9739274e-08 0.093901412)
(3.7752811e-08 -4.7120365e-07 0.093901582)
(2.5644881e-07 -5.1845027e-07 0.093901838)
(1.1918117e-06 -5.6397668e-07 0.093902319)
(1.0400963e-06 -5.5516286e-07 0.093903583)
(-1.3979858e-07 -5.072543e-07 0.093903683)
(-4.6275183e-07 -4.6275182e-07 0.093903426)
(-6.8457418e-07 -4.2186355e-07 0.09390298)
(-8.4786529e-07 -3.816316e-07 0.093902248)
(-6.1416102e-07 -3.4357935e-07 0.093901589)
(-1.1734722e-07 -3.1344017e-07 0.093901298)
(2.4073296e-08 -5.696144e-07 0.093901138)
(2.0404515e-07 -6.2001914e-07 0.093901351)
(1.1617653e-06 -7.4565235e-07 0.093901781)
(1.0711345e-06 -7.9708253e-07 0.093903054)
(-8.690844e-08 -7.354616e-07 0.0939032)
(-4.2186355e-07 -6.8457419e-07 0.09390298)
(-6.5434137e-07 -6.5434136e-07 0.093902559)
(-8.2507905e-07 -6.3774052e-07 0.093901844)
(-5.9921744e-07 -6.2909817e-07 0.093901195)
(-1.1388607e-07 -6.2806813e-07 0.093900903)
(4.1496514e-09 -5.4587621e-07 0.093900646)
(8.0410856e-08 -5.4099067e-07 0.093900788)
(1.0147483e-06 -7.3967065e-07 0.09390104)
(1.050287e-06 -9.5576977e-07 0.093902237)
(-2.7290236e-08 -9.0336325e-07 0.093902429)
(-3.8163159e-07 -8.478653e-07 0.093902248)
(-6.3774052e-07 -8.2507905e-07 0.093901844)
(-8.226221e-07 -8.226221e-07 0.093901132)
(-6.0448863e-07 -8.2230822e-07 0.093900479)
(-1.1666053e-07 -8.1295223e-07 0.09390018)
(2.7330319e-08 -4.2414946e-07 0.093900233)
(1.0250713e-08 -2.5771136e-07 0.093900497)
(7.4698619e-07 -3.0637462e-07 0.093900549)
(9.0744194e-07 -6.9119053e-07 0.09390152)
(2.0996028e-08 -6.6740885e-07 0.093901732)
(-3.4357935e-07 -6.1416101e-07 0.093901589)
(-6.2909817e-07 -5.9921743e-07 0.093901195)
(-8.2230822e-07 -6.0448864e-07 0.093900479)
(-5.8954757e-07 -5.8954756e-07 0.093899841)
(-1.0764875e-07 -5.2207911e-07 0.093899605)
(1.1510838e-07 -1.1380939e-07 0.093899843)
(1.9818569e-07 -2.6031332e-08 0.093900398)
(5.8126911e-07 1.1480592e-08 0.093900509)
(6.8925278e-07 -1.3650939e-07 0.093901202)
(4.9739285e-08 -1.3397885e-07 0.093901412)
(-3.1344017e-07 -1.1734722e-07 0.093901298)
(-6.2806815e-07 -1.1388607e-07 0.093900903)
(-8.1295223e-07 -1.1666054e-07 0.09390018)
(-5.2207911e-07 -1.0764874e-07 0.093899605)
(-7.1681569e-08 -7.1681566e-08 0.093899448)
(2.250107e-07 2.250107e-07 0.099714363)
(2.3341286e-08 -3.6467433e-07 0.099715075)
(1.864951e-06 5.2548382e-07 0.099715356)
(2.4667117e-06 2.6439245e-07 0.099716713)
(-4.4751101e-08 1.6165168e-07 0.099716896)
(-8.3420748e-07 1.3499628e-07 0.099716617)
(-1.0516584e-06 1.040063e-07 0.099716147)
(-1.0130561e-06 5.2484665e-08 0.099715593)
(-8.8257041e-07 1.3578813e-07 0.099715207)
(-2.795349e-07 3.4933132e-07 0.09971473)
(-3.6467433e-07 2.334129e-08 0.099715075)
(4.7405096e-07 4.7405097e-07 0.099715152)
(2.8085511e-06 1.5825426e-06 0.099715993)
(1.9209635e-06 1.0026707e-06 0.099717138)
(-2.3884535e-07 7.8424038e-07 0.099717239)
(-9.2067554e-07 7.2628129e-07 0.099716939)
(-1.1754259e-06 6.2210548e-07 0.09971641)
(-9.6538334e-07 3.4836774e-07 0.099715718)
(-4.3730043e-07 2.4899189e-07 0.099715473)
(-6.5991702e-08 6.3684632e-07 0.099715357)
(5.2548382e-07 1.864951e-06 0.099715356)
(1.5825426e-06 2.8085511e-06 0.099715993)
(2.3935707e-06 2.3935707e-06 0.099716722)
(1.6684095e-06 2.1217197e-06 0.099717761)
(-3.2114048e-07 2.0398438e-06 0.099717827)
(-9.9634239e-07 2.0386569e-06 0.099717525)
(-1.429572e-06 1.9916596e-06 0.099716952)
(-1.3861697e-06 1.709554e-06 0.099716056)
(-5.9409184e-07 1.2230939e-06 0.099715591)
(-2.0965279e-08 9.5745388e-07 0.099715528)
(2.6439244e-07 2.4667117e-06 0.099716713)
(1.0026707e-06 1.9209635e-06 0.099717138)
(2.1217197e-06 1.6684095e-06 0.099717761)
(1.5672366e-06 1.5672366e-06 0.09971875)
(-3.2190821e-07 1.5622142e-06 0.09971881)
(-9.6885967e-07 1.6130631e-06 0.09971853)
(-1.5045287e-06 1.6757114e-06 0.099717978)
(-1.7339491e-06 1.6436885e-06 0.099717016)
(-1.1894005e-06 1.4095338e-06 0.099716355)
(-2.4308507e-07 1.0783543e-06 0.099716082)
(1.6165168e-07 -4.4751094e-08 0.099716896)
(7.8424039e-07 -2.3884534e-07 0.099717239)
(2.0398438e-06 -3.2114049e-07 0.099717827)
(1.5622142e-06 -3.219082e-07 0.09971881)
(-2.7531394e-07 -2.7531394e-07 0.099718885)
(-8.8284514e-07 -2.0411947e-07 0.099718638)
(-1.3989466e-06 -1.107717e-07 0.09971813)
(-1.6523473e-06 -1.1797822e-08 0.099717208)
(-1.1594261e-06 6.0224077e-08 0.099716558)
(-2.4175165e-07 9.781181e-08 0.099716278)
(1.3499628e-07 -8.3420748e-07 0.099716617)
(7.2628128e-07 -9.2067554e-07 0.099716939)
(2.0386569e-06 -9.9634239e-07 0.099717525)
(1.6130631e-06 -9.6885967e-07 0.09971853)
(-2.0411947e-07 -8.8284514e-07 0.099718638)
(-8.0431743e-07 -8.0431744e-07 0.099718422)
(-1.3122071e-06 -7.3394724e-07 0.09971795)
(-1.5629533e-06 -6.6851129e-07 0.09971706)
(-1.0797909e-06 -6.1219454e-07 0.099716437)
(-2.1802658e-07 -5.7582498e-07 0.099716172)
(1.040063e-07 -1.0516584e-06 0.099716147)
(6.2210548e-07 -1.1754259e-06 0.09971641)
(1.9916596e-06 -1.429572e-06 0.099716952)
(1.6757114e-06 -1.5045288e-06 0.099717978)
(-1.1077171e-07 -1.3989466e-06 0.09971813)
(-7.3394724e-07 -1.3122071e-06 0.09971795)
(-1.2631405e-06 -1.2631405e-06 0.099717498)
(-1.5305946e-06 -1.2401656e-06 0.099716619)
(-1.0667397e-06 -1.2318648e-06 0.099715995)
(-2.1750527e-07 -1.2390104e-06 0.099715713)
(5.2484668e-08 -1.0130561e-06 0.099715593)
(3.4836774e-07 -9.6538334e-07 0.099715718)
(1.709554e-06 -1.3861697e-06 0.099716056)
(1.6436885e-06 -1.733949e-06 0.099717016)
(-1.1797822e-08 -1.6523473e-06 0.099717208)
(-6.6851128e-07 -1.5629533e-06 0.09971706)
(-1.2401656e-06 -1.5305946e-06 0.099716619)
(-1.5316776e-06 -1.5316776e-06 0.099715734)
(-1.0786358e-06 -1.5206872e-06 0.099715105)
(-2.2279031e-07 -1.4654325e-06 0.099714822)
(1.3578813e-07 -8.8257041e-07 0.099715207)
(2.489919e-07 -4.3730042e-07 0.099715473)
(1.2230939e-06 -5.9409184e-07 0.099715591)
(1.4095338e-06 -1.1894005e-06 0.099716355)
(6.0224073e-08 -1.1594261e-06 0.099716558)
(-6.1219454e-07 -1.0797909e-06 0.099716437)
(-1.2318648e-06 -1.0667397e-06 0.099715995)
(-1.5206872e-06 -1.0786358e-06 0.099715105)
(-1.0004946e-06 -1.0004946e-06 0.099714529)
(-1.8066876e-07 -8.5115572e-07 0.099714425)
(3.4933132e-07 -2.7953489e-07 0.09971473)
(6.3684631e-07 -6.59917e-08 0.099715357)
(9.5745388e-07 -2.0965286e-08 0.099715528)
(1.0783543e-06 -2.4308507e-07 0.099716082)
(9.7811807e-08 -2.4175165e-07 0.099716278)
(-5.7582497e-07 -2.1802658e-07 0.099716172)
(-1.2390104e-06 -2.1750527e-07 0.099715713)
(-1.4654325e-06 -2.2279031e-07 0.099714822)
(-8.5115572e-07 -1.8066876e-07 0.099714425)
(-1.2323106e-07 -1.2323106e-07 0.09971424)
(4.4288483e-07 4.4288483e-07 0.10893879)
(4.5681255e-07 -3.3195365e-07 0.10893934)
(2.6132282e-06 7.3949456e-07 0.10893949)
(3.1911567e-06 4.1146823e-07 0.10894077)
(-1.0228027e-07 2.8450268e-07 0.10894094)
(-1.2192482e-06 2.5230973e-07 0.10894065)
(-1.5930288e-06 1.9930249e-07 0.10894014)
(-1.4863887e-06 8.7023178e-08 0.10893948)
(-1.2873695e-06 2.0451365e-07 0.10893907)
(-4.3163698e-07 5.3299031e-07 0.1089386)
(-3.3195365e-07 4.5681254e-07 0.10893934)
(9.0172714e-07 9.0172713e-07 0.10893936)
(3.7283611e-06 2.2257994e-06 0.10894008)
(2.5086689e-06 1.4969245e-06 0.10894117)
(-3.4101801e-07 1.2285826e-06 0.10894126)
(-1.3470484e-06 1.1645186e-06 0.10894097)
(-1.8409586e-06 1.0087196e-06 0.1089404)
(-1.478572e-06 5.4332274e-07 0.10893956)
(-6.1841882e-07 3.9419238e-07 0.10893925)
(-1.0316032e-07 9.9627566e-07 0.10893913)
(7.3949457e-07 2.6132282e-06 0.10893949)
(2.2257994e-06 3.728361e-06 0.10894008)
(3.2084256e-06 3.2084256e-06 0.10894069)
(2.1939399e-06 2.8662184e-06 0.10894168)
(-4.3468622e-07 2.7697786e-06 0.10894175)
(-1.4391112e-06 2.7836118e-06 0.10894147)
(-2.2142246e-06 2.7291453e-06 0.10894086)
(-2.1009159e-06 2.3126018e-06 0.10893982)
(-8.3441661e-07 1.6287508e-06 0.10893932)
(-3.0248127e-08 1.3056918e-06 0.10893928)
(4.1146822e-07 3.1911568e-06 0.10894077)
(1.4969245e-06 2.5086689e-06 0.10894117)
(2.8662185e-06 2.1939399e-06 0.10894168)
(2.0700219e-06 2.0700219e-06 0.10894263)
(-4.2362461e-07 2.0724752e-06 0.1089427)
(-1.3876817e-06 2.1526945e-06 0.10894244)
(-2.3119687e-06 2.2493177e-06 0.10894186)
(-2.5789665e-06 2.2017747e-06 0.10894074)
(-1.6253288e-06 1.8748196e-06 0.10894005)
(-3.1853296e-07 1.4390288e-06 0.10893981)
(2.8450268e-07 -1.0228026e-07 0.10894094)
(1.2285826e-06 -3.41018e-07 0.10894126)
(2.7697786e-06 -4.3468622e-07 0.10894175)
(2.0724752e-06 -4.2362461e-07 0.1089427)
(-3.5201363e-07 -3.5201362e-07 0.10894279)
(-1.2622686e-06 -2.4784457e-07 0.10894257)
(-2.1651444e-06 -1.1499435e-07 0.10894203)
(-2.475414e-06 1.7498268e-08 0.10894095)
(-1.5971625e-06 1.0362809e-07 0.10894025)
(-3.2077534e-07 1.3977322e-07 0.10894001)
(2.5230973e-07 -1.2192482e-06 0.10894065)
(1.1645186e-06 -1.3470484e-06 0.10894097)
(2.7836118e-06 -1.4391111e-06 0.10894147)
(2.1526945e-06 -1.3876817e-06 0.10894244)
(-2.4784457e-07 -1.2622686e-06 0.10894257)
(-1.1506625e-06 -1.1506625e-06 0.10894237)
(-2.0466258e-06 -1.0541734e-06 0.10894187)
(-2.3603441e-06 -9.7052601e-07 0.10894082)
(-1.5030539e-06 -9.0674297e-07 0.10894014)
(-2.944362e-07 -8.7843186e-07 0.10893989)
(1.9930249e-07 -1.5930288e-06 0.10894014)
(1.0087196e-06 -1.8409586e-06 0.1089404)
(2.7291453e-06 -2.2142246e-06 0.10894086)
(2.2493177e-06 -2.3119687e-06 0.10894186)
(-1.1499435e-07 -2.1651444e-06 0.10894203)
(-1.0541734e-06 -2.0466258e-06 0.10894187)
(-1.985008e-06 -1.985008e-06 0.10894138)
(-2.3279836e-06 -1.963864e-06 0.10894033)
(-1.5050683e-06 -1.9618402e-06 0.10893964)
(-3.0190126e-07 -1.9777587e-06 0.10893936)
(8.702318e-08 -1.4863887e-06 0.10893948)
(5.4332274e-07 -1.478572e-06 0.10893956)
(2.3126018e-06 -2.1009159e-06 0.10893982)
(2.2017747e-06 -2.5789665e-06 0.10894074)
(1.7498272e-08 -2.475414e-06 0.10894095)
(-9.7052601e-07 -2.3603441e-06 0.10894082)
(-1.963864e-06 -2.3279836e-06 0.10894033)
(-2.3371763e-06 -2.3371763e-06 0.10893926)
(-1.5169486e-06 -2.2882739e-06 0.10893856)
(-3.050485e-07 -2.1015924e-06 0.10893829)
(2.0451365e-07 -1.2873695e-06 0.10893907)
(3.9419238e-07 -6.1841883e-07 0.10893925)
(1.6287508e-06 -8.3441661e-07 0.10893932)
(1.8748196e-06 -1.6253288e-06 0.10894005)
(1.0362809e-07 -1.5971624e-06 0.10894025)
(-9.0674295e-07 -1.5030539e-06 0.10894014)
(-1.9618402e-06 -1.5050683e-06 0.10893964)
(-2.2882739e-06 -1.5169486e-06 0.10893856)
(-1.2694844e-06 -1.2694844e-06 0.10893796)
(-1.7744694e-07 -1.1044278e-06 0.10893802)
(5.3299031e-07 -4.3163698e-07 0.1089386)
(9.9627567e-07 -1.0316032e-07 0.10893913)
(1.3056918e-06 -3.0248125e-08 0.10893928)
(1.4390288e-06 -3.1853295e-07 0.10893981)
(1.3977322e-07 -3.2077532e-07 0.10894001)
(-8.7843185e-07 -2.944362e-07 0.10893989)
(-1.9777587e-06 -3.0190126e-07 0.10893936)
(-2.1015924e-06 -3.0504851e-07 0.10893829)
(-1.1044278e-06 -1.7744694e-07 0.10893802)
(-1.9501077e-07 -1.9501077e-07 0.10893782)
(5.8919403e-07 5.8919402e-07 0.12169773)
(7.1966641e-07 -3.4718615e-07 0.12169814)
(3.2990439e-06 9.2308373e-07 0.1216982)
(3.9155064e-06 5.2834285e-07 0.12169952)
(-1.6406371e-07 3.7897584e-07 0.12169969)
(-1.6306067e-06 3.450533e-07 0.1216994)
(-2.2223364e-06 2.7502628e-07 0.12169886)
(-2.0873418e-06 1.0262304e-07 0.1216981)
(-1.7613192e-06 2.5923812e-07 0.12169759)
(-5.8807231e-07 6.9682907e-07 0.12169712)
(-3.4718614e-07 7.1966641e-07 0.12169814)
(1.220501e-06 1.220501e-06 0.12169806)
(4.6123374e-06 2.7878664e-06 0.12169875)
(3.0993445e-06 1.9123981e-06 0.12169986)
(-4.3899804e-07 1.5997843e-06 0.12169996)
(-1.7865311e-06 1.5384218e-06 0.12169967)
(-2.5859818e-06 1.3407368e-06 0.12169907)
(-2.111024e-06 6.821983e-07 0.12169814)
(-8.7001013e-07 4.9749281e-07 0.12169776)
(-1.5048136e-07 1.3133168e-06 0.12169761)
(9.2308373e-07 3.2990439e-06 0.1216982)
(2.7878664e-06 4.6123374e-06 0.12169875)
(3.9909411e-06 3.9909411e-06 0.12169932)
(2.7274242e-06 3.5832044e-06 0.12170034)
(-5.3804008e-07 3.4776307e-06 0.12170042)
(-1.8896542e-06 3.5116331e-06 0.12170014)
(-3.0785598e-06 3.4526966e-06 0.12169951)
(-2.9305857e-06 2.8955721e-06 0.12169837)
(-1.1302007e-06 2.0171155e-06 0.12169779)
(-4.4189692e-08 1.6424922e-06 0.12169775)
(5.2834286e-07 3.9155064e-06 0.12169952)
(1.9123981e-06 3.0993445e-06 0.12169986)
(3.5832044e-06 2.7274242e-06 0.12170034)
(2.5860341e-06 2.5860341e-06 0.12170132)
(-5.1056932e-07 2.6003616e-06 0.1217014)
(-1.8114652e-06 2.7132166e-06 0.12170115)
(-3.2020428e-06 2.8448691e-06 0.12170055)
(-3.546605e-06 2.7761731e-06 0.12169933)
(-2.1230901e-06 2.3491691e-06 0.12169854)
(-4.0023026e-07 1.8034342e-06 0.12169829)
(3.7897584e-07 -1.6406371e-07 0.12169969)
(1.5997843e-06 -4.3899805e-07 0.12169996)
(3.4776308e-06 -5.3804009e-07 0.12170042)
(2.6003616e-06 -5.1056932e-07 0.1217014)
(-4.1085759e-07 -4.1085759e-07 0.12170151)
(-1.6451466e-06 -2.7222405e-07 0.1217013)
(-3.0156034e-06 -1.003819e-07 0.12170074)
(-3.4262858e-06 6.1214743e-08 0.12169955)
(-2.1029396e-06 1.5401074e-07 0.12169877)
(-4.0801296e-07 1.80782e-07 0.12169849)
(3.450533e-07 -1.6306067e-06 0.1216994)
(1.5384218e-06 -1.7865311e-06 0.12169967)
(3.5116331e-06 -1.8896542e-06 0.12170014)
(2.7132166e-06 -1.8114652e-06 0.12170115)
(-2.7222405e-07 -1.6451466e-06 0.1217013)
(-1.5009895e-06 -1.5009896e-06 0.12170112)
(-2.868604e-06 -1.3815148e-06 0.1217006)
(-3.2922124e-06 -1.2865839e-06 0.12169943)
(-2.0035228e-06 -1.2262334e-06 0.12169866)
(-3.8238274e-07 -1.2195719e-06 0.12169838)
(2.7502627e-07 -2.2223364e-06 0.12169886)
(1.3407368e-06 -2.5859818e-06 0.12169907)
(3.4526966e-06 -3.0785598e-06 0.12169951)
(2.8448691e-06 -3.2020428e-06 0.12170055)
(-1.003819e-07 -3.0156034e-06 0.12170074)
(-1.3815148e-06 -2.868604e-06 0.1217006)
(-2.8011978e-06 -2.8011978e-06 0.12170009)
(-3.2710043e-06 -2.7931394e-06 0.12169892)
(-2.0359276e-06 -2.8104358e-06 0.12169811)
(-4.0357195e-07 -2.8440132e-06 0.12169779)
(1.0262303e-07 -2.0873418e-06 0.1216981)
(6.821983e-07 -2.111024e-06 0.12169814)
(2.8955721e-06 -2.9305857e-06 0.12169837)
(2.7761731e-06 -3.5466051e-06 0.12169933)
(6.1214742e-08 -3.4262858e-06 0.12169955)
(-1.2865839e-06 -3.2922124e-06 0.12169943)
(-2.7931394e-06 -3.2710043e-06 0.12169892)
(-3.3014505e-06 -3.3014505e-06 0.12169771)
(-2.0543967e-06 -3.2044711e-06 0.12169689)
(-4.0476766e-07 -2.804032e-06 0.12169655)
(2.5923811e-07 -1.7613192e-06 0.12169759)
(4.974928e-07 -8.7001012e-07 0.12169776)
(2.0171155e-06 -1.1302007e-06 0.12169779)
(2.3491691e-06 -2.1230901e-06 0.12169854)
(1.5401073e-07 -2.1029396e-06 0.12169877)
(-1.2262334e-06 -2.0035228e-06 0.12169866)
(-2.8104358e-06 -2.0359275e-06 0.12169811)
(-3.2044711e-06 -2.0543967e-06 0.12169689)
(-1.538509e-06 -1.538509e-06 0.12169617)
(-1.3661252e-07 -1.3233203e-06 0.1216963)
(6.9682907e-07 -5.8807232e-07 0.12169712)
(1.3133168e-06 -1.5048135e-07 0.12169761)
(1.6424922e-06 -4.418969e-08 0.12169775)
(1.8034342e-06 -4.0023025e-07 0.12169829)
(1.8078201e-07 -4.0801295e-07 0.12169849)
(-1.2195719e-06 -3.8238273e-07 0.12169838)
(-2.8440132e-06 -4.0357194e-07 0.12169779)
(-2.804032e-06 -4.0476766e-07 0.12169655)
(-1.3233202e-06 -1.3661252e-07 0.1216963)
(-2.6130846e-07 -2.6130846e-07 0.1216961)
(7.1609114e-07 7.1609114e-07 0.13815758)
(9.2943238e-07 -3.8282725e-07 0.13815796)
(3.9897172e-06 1.1023539e-06 0.138158)
(4.6748668e-06 6.383251e-07 0.13815938)
(-2.2011041e-07 4.6622642e-07 0.13815956)
(-2.0506117e-06 4.3173182e-07 0.13815927)
(-2.8869039e-06 3.4587022e-07 0.13815871)
(-2.7481445e-06 1.1236702e-07 0.13815791)
(-2.2771475e-06 3.1302448e-07 0.13815735)
(-7.505671e-07 8.6192526e-07 0.13815685)
(-3.8282725e-07 9.2943237e-07 0.13815796)
(1.5088264e-06 1.5088264e-06 0.13815785)
(5.5214457e-06 3.343267e-06 0.13815855)
(3.7206755e-06 2.3168293e-06 0.13815971)
(-5.3000035e-07 1.9605017e-06 0.13815983)
(-2.231146e-06 1.9050204e-06 0.13815953)
(-3.3659511e-06 1.6669185e-06 0.13815893)
(-2.7974131e-06 8.0778379e-07 0.13815794)
(-1.1528101e-06 5.9256027e-07 0.13815752)
(-2.0166631e-07 1.627559e-06 0.13815736)
(1.1023539e-06 3.9897171e-06 0.138158)
(3.343267e-06 5.5214457e-06 0.13815855)
(4.7977201e-06 4.7977201e-06 0.13815913)
(3.2921015e-06 4.3248211e-06 0.1381602)
(-6.3191936e-07 4.2126732e-06 0.1381603)
(-2.3441949e-06 4.2698401e-06 0.13816002)
(-3.9841405e-06 4.2065725e-06 0.13815938)
(-3.8225027e-06 3.4990798e-06 0.13815817)
(-1.4573723e-06 2.4171119e-06 0.13815754)
(-6.0567968e-08 1.9861145e-06 0.13815749)
(6.383251e-07 4.6748668e-06 0.13815938)
(2.3168293e-06 3.7206755e-06 0.13815971)
(4.3248211e-06 3.2921015e-06 0.1381602)
(3.1356286e-06 3.1356286e-06 0.13816124)
(-5.8498132e-07 3.1647934e-06 0.13816134)
(-2.2372467e-06 3.3130335e-06 0.1381611)
(-4.1367114e-06 3.480832e-06 0.13816048)
(-4.5868737e-06 3.3863184e-06 0.13815918)
(-2.6657755e-06 2.8505613e-06 0.13815834)
(-4.8899794e-07 2.1856091e-06 0.13815806)
(4.6622643e-07 -2.2011041e-07 0.13815956)
(1.9605017e-06 -5.3000034e-07 0.13815983)
(4.2126732e-06 -6.3191936e-07 0.1381603)
(3.1647934e-06 -5.8498133e-07 0.13816134)
(-4.5451444e-07 -4.5451444e-07 0.13816147)
(-2.0281562e-06 -2.7970003e-07 0.13816126)
(-3.9108556e-06 -6.8470035e-08 0.13816069)
(-4.4527734e-06 1.1993727e-07 0.13815943)
(-2.6580816e-06 2.1471865e-07 0.13815858)
(-5.0386944e-07 2.2670851e-07 0.13815828)
(4.3173182e-07 -2.0506117e-06 0.13815927)
(1.9050204e-06 -2.231146e-06 0.13815953)
(4.2698401e-06 -2.3441949e-06 0.13816002)
(3.3130336e-06 -2.2372466e-06 0.1381611)
(-2.7970002e-07 -2.0281562e-06 0.13816126)
(-1.8512022e-06 -1.8512022e-06 0.13816109)
(-3.7370741e-06 -1.7105666e-06 0.13816056)
(-4.303685e-06 -1.6090202e-06 0.13815931)
(-2.5590042e-06 -1.5599189e-06 0.13815847)
(-4.810047e-07 -1.5851746e-06 0.13815816)
(3.4587022e-07 -2.8869039e-06 0.13815871)
(1.6669185e-06 -3.3659511e-06 0.13815893)
(4.2065725e-06 -3.9841405e-06 0.13815938)
(3.480832e-06 -4.1367114e-06 0.13816048)
(-6.8470043e-08 -3.9108556e-06 0.13816069)
(-1.7105666e-06 -3.7370741e-06 0.13816056)
(-3.6686735e-06 -3.6686735e-06 0.13816003)
(-4.3021258e-06 -3.6827558e-06 0.13815878)
(-2.6342361e-06 -3.732516e-06 0.1381579)
(-5.207066e-07 -3.798679e-06 0.13815753)
(1.1236702e-07 -2.7481445e-06 0.13815791)
(8.0778379e-07 -2.7974131e-06 0.13815794)
(3.4990798e-06 -3.8225027e-06 0.13815817)
(3.3863184e-06 -4.5868737e-06 0.13815918)
(1.1993727e-07 -4.4527734e-06 0.13815943)
(-1.6090202e-06 -4.303685e-06 0.13815931)
(-3.6827558e-06 -4.3021257e-06 0.13815878)
(-4.3675275e-06 -4.3675275e-06 0.13815748)
(-2.6749274e-06 -4.230216e-06 0.13815657)
(-5.2511339e-07 -3.5855634e-06 0.13815618)
(3.1302447e-07 -2.2771475e-06 0.13815735)
(5.9256026e-07 -1.1528101e-06 0.13815752)
(2.4171119e-06 -1.4573723e-06 0.13815754)
(2.8505613e-06 -2.6657755e-06 0.13815834)
(2.1471864e-07 -2.6580817e-06 0.13815858)
(-1.5599189e-06 -2.5590042e-06 0.13815847)
(-3.732516e-06 -2.6342361e-06 0.1381579)
(-4.230216e-06 -2.6749274e-06 0.13815657)
(-1.8522721e-06 -1.8522721e-06 0.13815576)
(-9.0938241e-08 -1.5563533e-06 0.13815589)
(8.6192527e-07 -7.505671e-07 0.13815685)
(1.627559e-06 -2.0166631e-07 0.13815736)
(1.9861145e-06 -6.0567968e-08 0.13815749)
(2.1856091e-06 -4.8899794e-07 0.13815806)
(2.2670851e-07 -5.0386944e-07 0.13815828)
(-1.5851746e-06 -4.810047e-07 0.13815816)
(-3.798679e-06 -5.2070661e-07 0.13815753)
(-3.5855634e-06 -5.2511339e-07 0.13815618)
(-1.5563533e-06 -9.0938241e-08 0.13815589)
(-3.2783418e-07 -3.2783418e-07 0.13815569)
(8.448095e-07 8.448095e-07 0.15852028)
(1.1348696e-06 -4.2509192e-07 0.15852067)
(4.7124762e-06 1.2893807e-06 0.1585207)
(5.4806392e-06 7.5225352e-07 0.15852216)
(-2.7198761e-07 5.563575e-07 0.15852236)
(-2.4826455e-06 5.2157605e-07 0.15852205)
(-3.57868e-06 4.1939285e-07 0.15852147)
(-3.4458828e-06 1.2180817e-07 0.15852064)
(-2.8246591e-06 3.6971678e-07 0.15852004)
(-9.2174431e-07 1.0355574e-06 0.15851951)
(-4.2509192e-07 1.1348696e-06 0.15852067)
(1.8017263e-06 1.8017263e-06 0.15852054)
(6.4784944e-06 3.9227614e-06 0.15852127)
(4.3811044e-06 2.7378257e-06 0.15852251)
(-6.1800382e-07 2.3364415e-06 0.15852263)
(-2.6880925e-06 2.2881963e-06 0.15852233)
(-4.1783318e-06 2.0079996e-06 0.1585217)
(-3.5203969e-06 9.3672535e-07 0.15852067)
(-1.4540353e-06 6.9005127e-07 0.15852022)
(-2.5590371e-07 1.9549862e-06 0.15852005)
(1.2893807e-06 4.7124762e-06 0.1585207)
(3.9227614e-06 6.4784944e-06 0.15852127)
(5.6485756e-06 5.6485756e-06 0.15852189)
(3.8943193e-06 5.1086488e-06 0.15852302)
(-7.2161693e-07 4.9911765e-06 0.15852313)
(-2.8110874e-06 5.0738487e-06 0.15852284)
(-4.930151e-06 5.0059103e-06 0.15852217)
(-4.7638311e-06 4.1375428e-06 0.1585209)
(-1.8063983e-06 2.8388203e-06 0.15852024)
(-7.845435e-08 2.3458826e-06 0.15852018)
(7.5225352e-07 5.4806392e-06 0.15852216)
(2.7378257e-06 4.3811044e-06 0.15852251)
(5.1086488e-06 3.8943193e-06 0.15852302)
(3.7237052e-06 3.7237052e-06 0.15852412)
(-6.5280391e-07 3.7699528e-06 0.15852424)
(-2.6733587e-06 3.9562757e-06 0.15852399)
(-5.1146377e-06 4.1619144e-06 0.15852335)
(-5.687487e-06 4.0381392e-06 0.15852198)
(-3.2456956e-06 3.3848401e-06 0.15852108)
(-5.8452881e-07 2.591066e-06 0.15852079)
(5.563575e-07 -2.7198762e-07 0.15852236)
(2.3364415e-06 -6.1800383e-07 0.15852263)
(4.9911765e-06 -7.2161693e-07 0.15852313)
(3.7699528e-06 -6.5280391e-07 0.15852424)
(-4.8904643e-07 -4.8904643e-07 0.15852438)
(-2.4191258e-06 -2.7598573e-07 0.15852417)
(-4.8482875e-06 -2.4054523e-08 0.15852358)
(-5.5409054e-06 1.9061977e-07 0.15852225)
(-3.2534715e-06 2.8480495e-07 0.15852134)
(-6.0763709e-07 2.7864669e-07 0.15852102)
(5.2157605e-07 -2.4826455e-06 0.15852205)
(2.2881964e-06 -2.6880925e-06 0.15852233)
(5.0738487e-06 -2.8110874e-06 0.15852284)
(3.9562757e-06 -2.6733587e-06 0.15852399)
(-2.7598573e-07 -2.4191258e-06 0.15852417)
(-2.2083668e-06 -2.2083667e-06 0.158524)
(-4.6480322e-06 -2.0471804e-06 0.15852344)
(-5.3786275e-06 -1.9415795e-06 0.15852213)
(-3.1576686e-06 -1.908296e-06 0.15852123)
(-5.8863431e-07 -1.9715669e-06 0.1585209)
(4.1939286e-07 -3.57868e-06 0.15852147)
(2.0079996e-06 -4.1783318e-06 0.1585217)
(5.0059103e-06 -4.930151e-06 0.15852217)
(4.1619144e-06 -5.1146377e-06 0.15852335)
(-2.4054512e-08 -4.8482875e-06 0.15852358)
(-2.0471804e-06 -4.6480322e-06 0.15852344)
(-4.5815003e-06 -4.5815003e-06 0.15852289)
(-5.4020209e-06 -4.6234962e-06 0.15852157)
(-3.2834589e-06 -4.7140486e-06 0.15852063)
(-6.4981771e-07 -4.822799e-06 0.15852023)
(1.2180816e-07 -3.4458828e-06 0.15852064)
(9.3672535e-07 -3.5203969e-06 0.15852067)
(4.1375428e-06 -4.7638311e-06 0.1585209)
(4.0381392e-06 -5.687487e-06 0.15852198)
(1.9061977e-07 -5.5409054e-06 0.15852225)
(-1.9415795e-06 -5.3786275e-06 0.15852213)
(-4.6234962e-06 -5.4020209e-06 0.15852157)
(-5.5111759e-06 -5.5111759e-06 0.1585202)
(-3.3569714e-06 -5.3396091e-06 0.15851921)
(-6.6113454e-07 -4.4376887e-06 0.15851878)
(3.6971677e-07 -2.8246591e-06 0.15852004)
(6.9005126e-07 -1.4540353e-06 0.15852022)
(2.8388203e-06 -1.8063983e-06 0.15852024)
(3.3848401e-06 -3.2456955e-06 0.15852108)
(2.8480495e-07 -3.2534715e-06 0.15852134)
(-1.908296e-06 -3.1576686e-06 0.15852123)
(-4.7140486e-06 -3.2834589e-06 0.15852063)