/*--------------------------------*- C++ -*----------------------------------*\
| =========                 |                                                 |
| \\      /  F ield         | OpenFOAM: The Open Source CFD Toolbox           |
|  \\    /   O peration     | Version:  v2106                                 |
|   \\  /    A nd           | Website:  www.openfoam.com                      |
|    \\/     M anipulation  |                                                 |
\*---------------------------------------------------------------------------*/
FoamFile
{
    version     2.0;
    format      ascii;
    arch        "LSB;label=32;scalar=64";
    class       volScalarField;
    location    "7.5";
    object      gradTz;
}
// * * * * * * * * * * * * * * * * * * * * * * * * * * * * * * * * * * * * * //

dimensions      [0 -1 0 1 0 0 0];

internalField   nonuniform List<scalar> 
4000
(
48.30117
48.301117
48.300518
48.301902
48.302057
48.301883
48.301648
48.301403
48.301192
48.301056
48.301117
48.300321
48.300882
48.301978
48.302026
48.301828
48.301576
48.301306
48.301118
48.301097
48.300518
48.300882
48.301231
48.302199
48.302209
48.302
48.301721
48.301374
48.301092
48.301114
48.301902
48.301978
48.302199
48.303117
48.303117
48.302914
48.302638
48.302247
48.301824
48.301643
48.302057
48.302026
48.302209
48.303117
48.303123
48.302936
48.302685
48.302323
48.301922
48.30175
48.301883
48.301828
48.302
48.302914
48.302936
48.302766
48.302535
48.302197
48.301821
48.301673
48.301648
48.301576
48.301721
48.302638
48.302685
48.302535
48.302319
48.301992
48.301624
48.301481
48.301403
48.301306
48.301374
48.302247
48.302323
48.302197
48.301992
48.301669
48.3013
48.301153
48.301192
48.301118
48.301092
48.301824
48.301922
48.301821
48.301624
48.3013
48.300932
48.300793
48.301056
48.301097
48.301114
48.301643
48.30175
48.301673
48.301481
48.301153
48.300793
48.300692
73.710138
73.710417
73.710343
73.711743
73.71194
73.711716
73.711367
73.710982
73.710658
73.710352
73.710417
73.710236
73.710902
73.712067
73.712168
73.711917
73.711535
73.711093
73.710865
73.710787
73.710343
73.710902
73.711452
73.712499
73.712557
73.712294
73.711872
73.711291
73.710906
73.710874
73.711743
73.712067
73.712499
73.71349
73.713536
73.713285
73.712871
73.71223
73.711667
73.711418
73.71194
73.712168
73.712557
73.713536
73.713591
73.713364
73.712985
73.71238
73.711834
73.711583
73.711716
73.711917
73.712294
73.713285
73.713364
73.713162
73.712812
73.712238
73.711721
73.711493
73.711367
73.711535
73.711872
73.712871
73.712985
73.712812
73.712482
73.711922
73.711412
73.711184
73.710982
73.711093
73.711291
73.71223
73.71238
73.712238
73.711922
73.711363
73.710851
73.710616
73.710658
73.710865
73.710906
73.711667
73.711834
73.711721
73.711412
73.710851
73.71035
73.710165
73.710352
73.710787
73.710874
73.711418
73.711583
73.711493
73.711184
73.710616
73.710165
73.710042
78.228438
78.228997
78.229217
78.23028
78.230423
78.230204
78.229836
78.229402
78.2291
78.228726
78.228997
78.229058
78.229716
78.230613
78.230692
78.230456
78.230043
78.2295
78.229308
78.229217
78.229217
78.229716
78.230287
78.231101
78.231153
78.230916
78.230467
78.229765
78.229401
78.229352
78.23028
78.230613
78.231101
78.231875
78.231922
78.231703
78.23127
78.230516
78.229999
78.229785
78.230423
78.230692
78.231153
78.231922
78.231981
78.231787
78.23139
78.230667
78.230158
78.229939
78.230204
78.230456
78.230916
78.231703
78.231787
78.231619
78.231248
78.230552
78.230063
78.229855
78.229836
78.230043
78.230467
78.23127
78.23139
78.231248
78.230895
78.230206
78.229717
78.229496
78.229402
78.2295
78.229765
78.230516
78.230667
78.230552
78.230206
78.229512
78.229019
78.228798
78.2291
78.229308
78.229401
78.229999
78.230158
78.230063
78.229717
78.229019
78.228568
78.228487
78.228726
78.229217
78.229352
78.229785
78.229939
78.229855
78.229496
78.228798
78.228487
78.228342
85.410863
85.411291
85.411409
85.412413
85.412541
85.412319
85.411918
85.411403
85.411078
85.410715
85.411291
85.411312
85.411875
85.412722
85.412796
85.412566
85.412119
85.411462
85.411223
85.411123
85.411409
85.411875
85.412352
85.413124
85.413179
85.412955
85.412481
85.411664
85.411272
85.411245
85.412413
85.412722
85.413124
85.413865
85.413921
85.413718
85.413262
85.412389
85.411843
85.411659
85.412541
85.412796
85.413179
85.413921
85.413991
85.413815
85.413395
85.41255
85.412007
85.411812
85.412319
85.412566
85.412955
85.413718
85.413815
85.413665
85.41327
85.412447
85.411917
85.411724
85.411918
85.412119
85.412481
85.413262
85.413395
85.41327
85.412888
85.412066
85.411526
85.411308
85.411403
85.411462
85.411664
85.412389
85.41255
85.412447
85.412066
85.411231
85.410681
85.410468
85.411078
85.411223
85.411272
85.411843
85.412007
85.411917
85.411526
85.410681
85.410209
85.410261
85.410715
85.411123
85.411245
85.411659
85.411812
85.411724
85.411308
85.410468
85.410261
85.410099
95.347167
95.347487
95.347536
95.348561
95.348694
95.348469
95.348045
95.347458
95.347059
95.346685
95.347487
95.347428
95.347961
95.348827
95.348907
95.348679
95.348216
95.347488
95.347186
95.34707
95.347536
95.347961
95.348408
95.349201
95.349266
95.349048
95.348559
95.347665
95.347213
95.347178
95.348561
95.348827
95.349201
95.349966
95.350033
95.34984
95.34937
95.348414
95.347801
95.347601
95.348694
95.348907
95.349266
95.350033
95.350118
95.349953
95.34952
95.348589
95.347975
95.347761
95.348469
95.348679
95.349048
95.34984
95.349953
95.349815
95.349406
95.348494
95.347888
95.347669
95.348045
95.348216
95.348559
95.34937
95.34952
95.349406
95.349008
95.348091
95.347465
95.347208
95.347458
95.347488
95.347665
95.348414
95.348589
95.348494
95.348091
95.347151
95.346504
95.346246
95.347059
95.347186
95.347213
95.347801
95.347975
95.347888
95.347465
95.346504
95.345947
95.346049
95.346685
95.34707
95.347178
95.347601
95.347761
95.347669
95.347208
95.346246
95.346049
95.345893
108.15745
108.15775
108.15778
108.15885
108.159
108.15877
108.15833
108.15771
108.15727
108.15688
108.15775
108.15766
108.1582
108.15911
108.1592
108.15898
108.1585
108.15773
108.1574
108.15728
108.15778
108.1582
108.15866
108.1595
108.15957
108.15935
108.15885
108.15791
108.15742
108.15738
108.15885
108.15911
108.1595
108.1603
108.16038
108.16019
108.15971
108.1587
108.15804
108.15783
108.159
108.1592
108.15957
108.16038
108.16048
108.16032
108.15988
108.15889
108.15823
108.158
108.15877
108.15898
108.15935
108.16019
108.16032
108.16019
108.15977
108.1588
108.15814
108.1579
108.15833
108.1585
108.15885
108.15971
108.15988
108.15977
108.15936
108.15838
108.1577
108.15741
108.15771
108.15773
108.15791
108.1587
108.15889
108.1588
108.15838
108.15737
108.15666
108.15636
108.15727
108.1574
108.15742
108.15804
108.15823
108.15814
108.1577
108.15666
108.15603
108.15613
108.15688
108.15728
108.15738
108.15783
108.158
108.1579
108.15741
108.15636
108.15613
108.15597
123.98659
123.9869
123.98692
123.98806
123.98821
123.98798
123.98752
123.98687
123.98641
123.986
123.9869
123.9868
123.98737
123.98833
123.98843
123.98819
123.9877
123.9869
123.98654
123.98641
123.98692
123.98737
123.98784
123.98873
123.98881
123.98859
123.98807
123.98708
123.98656
123.98652
123.98806
123.98833
123.98873
123.98958
123.98967
123.98948
123.98898
123.98792
123.98722
123.98699
123.98821
123.98843
123.98881
123.98967
123.98978
123.98962
123.98916
123.98812
123.98742
123.98717
123.98798
123.98819
123.98859
123.98948
123.98962
123.98949
123.98906
123.98804
123.98733
123.98707
123.98752
123.9877
123.98807
123.98898
123.98916
123.98906
123.98863
123.9876
123.98686
123.98655
123.98687
123.9869
123.98708
123.98792
123.98812
123.98804
123.9876
123.98653
123.98576
123.98543
123.98641
123.98654
123.98656
123.98722
123.98742
123.98733
123.98686
123.98576
123.98508
123.98518
123.986
123.98641
123.98652
123.98699
123.98717
123.98707
123.98655
123.98543
123.98518
123.985
142.99729
142.99761
142.99763
142.99883
142.99899
142.99874
142.99827
142.99759
142.9971
142.99666
142.99761
142.99751
142.9981
142.99911
142.99921
142.99897
142.99845
142.99761
142.99724
142.9971
142.99763
142.9981
142.9986
142.99953
142.99962
142.99939
142.99884
142.9978
142.99726
142.99721
142.99883
142.99911
142.99953
143.00043
143.00053
143.00033
142.99981
142.99869
142.99795
142.99771
142.99899
142.99921
142.99962
143.00053
143.00064
143.00048
143
142.99891
142.99817
142.9979
142.99874
142.99897
142.99939
143.00033
143.00048
143.00035
142.99989
142.99882
142.99808
142.9978
142.99827
142.99845
142.99884
142.99981
143
142.99989
142.99945
142.99836
142.99758
142.99725
142.99759
142.99761
142.9978
142.99869
142.99891
142.99882
142.99836
142.99723
142.99641
142.99606
142.9971
142.99724
142.99726
142.99795
142.99817
142.99808
142.99758
142.99641
142.99569
142.99578
142.99666
142.9971
142.99721
142.99771
142.9979
142.9978
142.99725
142.99606
142.99578
142.99559
165.36239
165.36273
165.36274
165.364
165.36416
165.3639
165.3634
165.36269
165.36218
165.36171
165.36273
165.36262
165.36324
165.36429
165.3644
165.36414
165.3636
165.36271
165.36233
165.36218
165.36274
165.36324
165.36375
165.36473
165.36481
165.36457
165.364
165.36291
165.36234
165.36229
165.364
165.36429
165.36473
165.36567
165.36577
165.36556
165.36502
165.36384
165.36306
165.36281
165.36416
165.3644
165.36481
165.36577
165.36589
165.36572
165.36522
165.36407
165.36329
165.36301
165.3639
165.36414
165.36457
165.36556
165.36572
165.36559
165.36511
165.36398
165.3632
165.36291
165.3634
165.3636
165.364
165.36502
165.36522
165.36511
165.36465
165.3635
165.36269
165.36234
165.36269
165.36271
165.36291
165.36384
165.36407
165.36398
165.3635
165.36231
165.36145
165.36108
165.36218
165.36233
165.36234
165.36306
165.36329
165.3632
165.36269
165.36145
165.36069
165.36079
165.36171
165.36218
165.36229
165.36281
165.36301
165.36291
165.36234
165.36108
165.36079
165.36058
191.25592
191.25628
191.25629
191.25759
191.25775
191.25748
191.25696
191.25621
191.25567
191.25518
191.25628
191.25616
191.2568
191.25789
191.25799
191.25772
191.25716
191.25623
191.25583
191.25568
191.25629
191.2568
191.25733
191.25834
191.25842
191.25817
191.25758
191.25643
191.25583
191.25579
191.25759
191.25789
191.25834
191.25931
191.25941
191.2592
191.25863
191.2574
191.25659
191.25633
191.25775
191.25799
191.25842
191.25941
191.25954
191.25937
191.25885
191.25764
191.25683
191.25654
191.25748
191.25772
191.25817
191.2592
191.25937
191.25923
191.25874
191.25755
191.25674
191.25644
191.25696
191.25716
191.25758
191.25863
191.25885
191.25874
191.25826
191.25706
191.2562
191.25584
191.25621
191.25623
191.25643
191.2574
191.25764
191.25755
191.25706
191.25581
191.25491
191.25451
191.25567
191.25583
191.25583
191.25659
191.25683
191.25674
191.2562
191.25491
191.2541
191.25421
191.25518
191.25568
191.25579
191.25633
191.25654
191.25644
191.25584
191.25451
191.25421
191.254
220.84292
220.84329
220.8433
220.84463
220.84479
220.8445
220.84396
220.84318
220.84262
220.84211
220.84329
220.84318
220.84383
220.84494
220.84504
220.84475
220.84417
220.84319
220.84278
220.84263
220.8433
220.84383
220.84436
220.84539
220.84547
220.84521
220.84459
220.84339
220.84278
220.84274
220.84463
220.84494
220.84539
220.84639
220.84649
220.84627
220.84568
220.84439
220.84356
220.84329
220.84479
220.84504
220.84547
220.84649
220.84662
220.84644
220.84591
220.84465
220.84381
220.84352
220.8445
220.84475
220.84521
220.84627
220.84644
220.8463
220.8458
220.84457
220.84373
220.84342
220.84396
220.84417
220.84459
220.84568
220.84591
220.8458
220.84531
220.84406
220.84317
220.84279
220.84318
220.84319
220.84339
220.84439
220.84465
220.84457
220.84406
220.84275
220.84182
220.84141
220.84262
220.84278
220.84278
220.84356
220.84381
220.84373
220.84317
220.84182
220.84098
220.84111
220.84211
220.84263
220.84274
220.84329
220.84352
220.84342
220.84279
220.84141
220.84111
220.84089
254.26825
254.26863
254.26864
254.26998
254.27013
254.26982
254.26926
254.26846
254.26788
254.26736
254.26863
254.26852
254.26916
254.27029
254.27037
254.27008
254.26947
254.26847
254.26805
254.26789
254.26864
254.26916
254.2697
254.27073
254.27081
254.27054
254.26991
254.26866
254.26804
254.268
254.26998
254.27029
254.27073
254.27174
254.27183
254.27161
254.27101
254.26968
254.26883
254.26856
254.27013
254.27037
254.27081
254.27183
254.27196
254.27178
254.27125
254.26995
254.26909
254.2688
254.26982
254.27008
254.27054
254.27161
254.27178
254.27165
254.27115
254.26987
254.26901
254.2687
254.26926
254.26947
254.26991
254.27101
254.27125
254.27115
254.27065
254.26936
254.26845
254.26807
254.26846
254.26847
254.26866
254.26968
254.26995
254.26987
254.26936
254.26801
254.26705
254.26663
254.26788
254.26805
254.26804
254.26883
254.26909
254.26901
254.26845
254.26705
254.26619
254.26633
254.26736
254.26789
254.268
254.26856
254.2688
254.2687
254.26807
254.26663
254.26633
254.26611
291.64461
291.64499
291.64499
291.64633
291.64646
291.64615
291.64558
291.64475
291.64417
291.64363
291.64499
291.64489
291.64552
291.64663
291.6467
291.6464
291.64579
291.64476
291.64434
291.64418
291.64499
291.64552
291.64604
291.64706
291.64712
291.64685
291.64621
291.64494
291.64431
291.64428
291.64633
291.64663
291.64706
291.64806
291.64814
291.64792
291.64733
291.64597
291.64511
291.64484
291.64646
291.6467
291.64712
291.64814
291.64826
291.6481
291.64756
291.64625
291.64538
291.64509
291.64615
291.6464
291.64685
291.64792
291.6481
291.64797
291.64748
291.64618
291.64532
291.64501
291.64558
291.64579
291.64621
291.64733
291.64756
291.64748
291.64699
291.64567
291.64476
291.64437
291.64475
291.64476
291.64494
291.64597
291.64625
291.64618
291.64567
291.6443
291.64332
291.64289
291.64417
291.64434
291.64431
291.64511
291.64538
291.64532
291.64476
291.64332
291.64245
291.64261
291.64363
291.64418
291.64428
291.64484
291.64509
291.64501
291.64437
291.64289
291.64261
291.64238
333.04021
333.04059
333.04058
333.04188
333.04199
333.04167
333.0411
333.04027
333.03969
333.03914
333.04059
333.04049
333.04109
333.04217
333.04222
333.04191
333.04131
333.04027
333.03985
333.0397
333.04058
333.04109
333.04158
333.04257
333.04262
333.04235
333.04172
333.04044
333.03982
333.0398
333.04188
333.04217
333.04257
333.04354
333.04361
333.0434
333.04282
333.04146
333.0406
333.04035
333.04199
333.04222
333.04262
333.04361
333.04373
333.04358
333.04306
333.04174
333.04088
333.04061
333.04167
333.04191
333.04235
333.0434
333.04358
333.04347
333.043
333.0417
333.04084
333.04054
333.0411
333.04131
333.04172
333.04282
333.04306
333.043
333.04253
333.04121
333.0403
333.03992
333.04027
333.04027
333.04044
333.04146
333.04174
333.0417
333.04121
333.03983
333.03885
333.03842
333.03969
333.03985
333.03982
333.0406
333.04088
333.04084
333.0403
333.03885
333.03798
333.03816
333.03914
333.0397
333.0398
333.04035
333.04061
333.04054
333.03992
333.03842
333.03816
333.03793
378.46644
378.46681
378.46679
378.46803
378.46811
378.46779
378.46723
378.46641
378.46585
378.4653
378.46681
378.46672
378.46728
378.4683
378.46832
378.46802
378.46743
378.4664
378.46601
378.46586
378.46679
378.46728
378.46773
378.46866
378.46869
378.46843
378.46783
378.46656
378.46596
378.46595
378.46803
378.4683
378.46866
378.46958
378.46964
378.46944
378.46889
378.46755
378.46672
378.46649
378.46811
378.46832
378.46869
378.46964
378.46975
378.46961
378.46913
378.46784
378.46701
378.46675
378.46779
378.46802
378.46843
378.46944
378.46961
378.46953
378.4691
378.46782
378.467
378.46672
378.46723
378.46743
378.46783
378.46889
378.46913
378.4691
378.46867
378.46737
378.46649
378.46612
378.46641
378.4664
378.46656
378.46755
378.46784
378.46782
378.46737
378.46601
378.46505
378.46462
378.46585
378.46601
378.46596
378.46672
378.46701
378.467
378.46649
378.46505
378.46419
378.46441
378.4653
378.46586
378.46595
378.46649
378.46675
378.46672
378.46612
378.46462
378.46441
378.46418
427.86623
427.86658
427.86656
427.8677
427.86775
427.86743
427.8669
427.86611
427.86557
427.86505
427.86658
427.8665
427.867
427.86793
427.86793
427.86764
427.86709
427.86609
427.86573
427.86559
427.86656
427.867
427.86739
427.86824
427.86825
427.86801
427.86745
427.86623
427.86567
427.86567
427.8677
427.86793
427.86824
427.86909
427.86913
427.86896
427.86846
427.86717
427.86639
427.86619
427.86775
427.86793
427.86825
427.86913
427.86923
427.86912
427.8687
427.86746
427.86669
427.86646
427.86743
427.86764
427.86801
427.86896
427.86912
427.86908
427.8687
427.86748
427.86671
427.86646
427.8669
427.86709
427.86745
427.86846
427.8687
427.8687
427.86834
427.86709
427.86626
427.86591
427.86611
427.86609
427.86623
427.86717
427.86746
427.86748
427.86709
427.86577
427.86486
427.86444
427.86557
427.86573
427.86567
427.86639
427.86669
427.86671
427.86626
427.86486
427.86404
427.86428
427.86505
427.86559
427.86567
427.86619
427.86646
427.86646
427.86591
427.86444
427.86428
427.86406
481.10362
481.10394
481.10389
481.10491
481.10492
481.10462
481.10414
481.1034
481.10291
481.10241
481.10394
481.10386
481.10428
481.1051
481.10507
481.10481
481.1043
481.10337
481.10305
481.10293
481.10389
481.10428
481.1046
481.10535
481.10533
481.10512
481.10463
481.10347
481.10298
481.103
481.10491
481.1051
481.10535
481.10609
481.10611
481.10598
481.10556
481.10435
481.10365
481.10348
481.10492
481.10507
481.10533
481.10611
481.1062
481.10614
481.1058
481.10464
481.10395
481.10376
481.10462
481.10481
481.10512
481.10598
481.10614
481.10614
481.10585
481.10472
481.10403
481.10382
481.10414
481.1043
481.10463
481.10556
481.1058
481.10585
481.10556
481.10441
481.10365
481.10333
481.1034
481.10337
481.10347
481.10435
481.10464
481.10472
481.10441
481.10317
481.10232
481.10193
481.10291
481.10305
481.10298
481.10365
481.10395
481.10403
481.10365
481.10232
481.10156
481.10184
481.10241
481.10293
481.103
481.10348
481.10376
481.10382
481.10333
481.10193
481.10184
481.10163
537.95528
537.95556
537.95549
537.95635
537.95632
537.95605
537.95564
537.95498
537.95455
537.95409
537.95556
537.95549
537.95581
537.95649
537.95643
537.9562
537.95577
537.95493
537.95468
537.95459
537.95549
537.95581
537.95604
537.95665
537.95661
537.95645
537.95605
537.955
537.95459
537.95464
537.95635
537.95649
537.95665
537.95727
537.95728
537.9572
537.95687
537.95579
537.95519
537.95508
537.95632
537.95643
537.95661
537.95728
537.95735
537.95735
537.95711
537.95608
537.9555
537.95537
537.95605
537.9562
537.95645
537.9572
537.95735
537.95741
537.95722
537.95622
537.95564
537.95548
537.95564
537.95577
537.95605
537.95687
537.95711
537.95722
537.95704
537.95601
537.95536
537.95509
537.95498
537.95493
537.955
537.95579
537.95608
537.95622
537.95601
537.9549
537.95414
537.9538
537.95455
537.95468
537.95459
537.95519
537.9555
537.95564
537.95536
537.95414
537.95347
537.95378
537.95409
537.95459
537.95464
537.95508
537.95537
537.95548
537.95509
537.9538
537.95378
537.9536
598.10476
598.10499
598.1049
598.10557
598.10549
598.10526
598.10494
598.10439
598.10404
598.10365
598.10499
598.10492
598.10513
598.10564
598.10555
598.10537
598.10504
598.10432
598.10415
598.1041
598.1049
598.10513
598.10525
598.10571
598.10565
598.10554
598.10525
598.10436
598.10405
598.10413
598.10557
598.10564
598.10571
598.10618
598.10617
598.10616
598.10595
598.10503
598.10457
598.10452
598.10549
598.10555
598.10565
598.10617
598.10624
598.1063
598.10619
598.10533
598.10489
598.10482
598.10526
598.10537
598.10554
598.10616
598.1063
598.10643
598.10637
598.10554
598.1051
598.10501
598.10494
598.10504
598.10525
598.10595
598.10619
598.10637
598.10632
598.10546
598.10494
598.10474
598.10439
598.10432
598.10436
598.10503
598.10533
598.10554
598.10546
598.10451
598.10388
598.10359
598.10404
598.10415
598.10405
598.10457
598.10489
598.1051
598.10494
598.10388
598.10332
598.10366
598.10365
598.1041
598.10413
598.10452
598.10482
598.10501
598.10474
598.10359
598.10366
598.10351
661.13992
661.14008
661.13996
661.14041
661.1403
661.14013
661.13991
661.1395
661.13926
661.13894
661.14008
661.14001
661.14009
661.14041
661.14029
661.14017
661.13997
661.13941
661.13934
661.13933
661.13996
661.14009
661.14009
661.14037
661.14029
661.14026
661.14011
661.13941
661.13922
661.13935
661.14041
661.14041
661.14037
661.14068
661.14066
661.14072
661.14067
661.13995
661.13966
661.13968
661.1403
661.14029
661.14029
661.14066
661.14072
661.14086
661.1409
661.14025
661.13998
661.14
661.14013
661.14017
661.14026
661.14072
661.14086
661.14107
661.14116
661.14055
661.14027
661.14026
661.13991
661.13997
661.14011
661.14067
661.1409
661.14116
661.14127
661.14062
661.14027
661.14014
661.1395
661.13941
661.13941
661.13995
661.14025
661.14055
661.14062
661.13988
661.1394
661.13917
661.13926
661.13934
661.13922
661.13966
661.13998
661.14027
661.14027
661.1394
661.13898
661.13935
661.13894
661.13933
661.13935
661.13968
661.14
661.14026
661.14014
661.13917
661.13935
661.13924
726.55416
726.55425
726.5541
726.55431
726.55416
726.55406
726.55398
726.55373
726.55362
726.55339
726.55425
726.55418
726.55411
726.55422
726.55408
726.55404
726.55399
726.55362
726.55367
726.55371
726.5541
726.55411
726.55398
726.55407
726.55398
726.55403
726.55405
726.55357
726.55354
726.55372
726.55431
726.55422
726.55407
726.5542
726.55417
726.55432
726.55444
726.55398
726.55387
726.55398
726.55416
726.55408
726.55398
726.55417
726.55422
726.55446
726.55467
726.55428
726.5542
726.55431
726.55406
726.55404
726.55403
726.55432
726.55446
726.55477
726.55503
726.55467
726.55459
726.55467
726.55398
726.55399
726.55405
726.55444
726.55467
726.55503
726.55531
726.55491
726.55475
726.55471
726.55373
726.55362
726.55357
726.55398
726.55428
726.55467
726.55491
726.55442
726.55413
726.55398
726.55362
726.55367
726.55354
726.55387
726.5542
726.55459
726.55475
726.55413
726.55387
726.55428
726.55339
726.55371
726.55372
726.55398
726.55431
726.55467
726.55471
726.55398
726.55428
726.55421
793.75181
793.7518
793.75162
793.75158
793.7514
793.75138
793.75145
793.75139
793.75143
793.75132
793.7518
793.75173
793.7515
793.75139
793.75123
793.75129
793.75142
793.75127
793.75145
793.75156
793.75162
793.7515
793.75124
793.75113
793.75103
793.75118
793.75139
793.75118
793.75132
793.75155
793.75158
793.75139
793.75113
793.75106
793.75103
793.75129
793.7516
793.75142
793.75153
793.75174
793.7514
793.75123
793.75103
793.75103
793.75109
793.75143
793.75183
793.75173
793.75187
793.75209
793.75138
793.75129
793.75118
793.75129
793.75143
793.75184
793.7523
793.75222
793.75236
793.75255
793.75145
793.75142
793.75139
793.7516
793.75183
793.7523
793.75276
793.75265
793.75271
793.75278
793.75139
793.75127
793.75118
793.75142
793.75173
793.75222
793.75265
793.75244
793.75237
793.75231
793.75143
793.75145
793.75132
793.75153
793.75187
793.75236
793.75271
793.75237
793.75229
793.75273
793.75132
793.75156
793.75155
793.75174
793.75209
793.75255
793.75278
793.75231
793.75273
793.75272
862.05755
862.05744
862.05722
862.05691
862.05672
862.0568
862.05704
862.0572
862.0574
862.05742
862.05744
862.05735
862.05697
862.05663
862.05647
862.05664
862.05695
862.05705
862.05738
862.05756
862.05722
862.05697
862.05657
862.05625
862.05616
862.05642
862.05683
862.05692
862.05725
862.05754
862.05691
862.05663
862.05625
862.05598
862.05596
862.05633
862.05685
862.057
862.05734
862.05765
862.05672
862.05647
862.05616
862.05596
862.05603
862.05648
862.05709
862.05731
862.05769
862.05802
862.0568
862.05664
862.05642
862.05633
862.05648
862.057
862.05766
862.0579
862.05828
862.05858
862.05704
862.05695
862.05683
862.05685
862.05709
862.05766
862.05833
862.05853
862.05883
862.05901
862.0572
862.05705
862.05692
862.057
862.05731
862.0579
862.05853
862.05864
862.0588
862.05884
862.0574
862.05738
862.05725
862.05734
862.05769
862.05828
862.05883
862.0588
862.05893
862.0594
862.05742
862.05756
862.05754
862.05765
862.05802
862.05858
862.05901
862.05884
862.0594
862.05945
930.72991
930.72969
930.72944
930.72886
930.72866
930.72886
930.72928
930.72967
930.73005
930.7302
930.72969
930.72959
930.72905
930.72848
930.72833
930.72862
930.72913
930.7295
930.72999
930.73025
930.72944
930.72905
930.72851
930.72799
930.72791
930.7283
930.72893
930.72933
930.72986
930.73022
930.72886
930.72848
930.72799
930.72752
930.72753
930.72802
930.72875
930.72924
930.72983
930.73025
930.72866
930.72833
930.72791
930.72753
930.72761
930.72818
930.729
930.72955
930.73019
930.73064
930.72886
930.72862
930.7283
930.72802
930.72818
930.72881
930.72968
930.73025
930.73088
930.7313
930.72928
930.72913
930.72893
930.72875
930.729
930.72968
930.73055
930.73109
930.73164
930.73194
930.72967
930.7295
930.72933
930.72924
930.72955
930.73025
930.73109
930.73153
930.73193
930.73209
930.73005
930.72999
930.72986
930.72983
930.73019
930.73088
930.73164
930.73193
930.73228
930.73278
930.7302
930.73025
930.73022
930.73025
930.73064
930.7313
930.73194
930.73209
930.73278
930.7329
998.97817
998.97784
998.97757
998.97673
998.97653
998.97685
998.97747
998.97809
998.97866
998.97896
998.97784
998.97772
998.97703
998.97624
998.97612
998.97653
998.97725
998.9779
998.97855
998.9789
998.97757
998.97703
998.97637
998.97565
998.97561
998.97612
998.97696
998.9777
998.97843
998.97885
998.97673
998.97624
998.97565
998.975
998.97504
998.97565
998.9766
998.97744
998.97828
998.97881
998.97653
998.97612
998.97561
998.97504
998.97514
998.97583
998.97686
998.97776
998.97865
998.97921
998.97685
998.97653
998.97612
998.97565
998.97583
998.97657
998.97764
998.97855
998.97943
998.97997
998.97747
998.97725
998.97696
998.9766
998.97686
998.97764
998.97871
998.97959
998.98039
998.98082
998.97809
998.9779
998.9777
998.97744
998.97776
998.97855
998.97959
998.98037
998.98103
998.9813
998.97866
998.97855
998.97843
998.97828
998.97865
998.97943
998.98039
998.98103
998.9816
998.98211
998.97896
998.9789
998.97885
998.97881
998.97921
998.97997
998.98082
998.9813
998.98211
998.98231
1065.982
1065.9816
1065.9813
1065.9802
1065.98
1065.9805
1065.9813
1065.9821
1065.9829
1065.9833
1065.9816
1065.9814
1065.9806
1065.9796
1065.9795
1065.9801
1065.981
1065.9819
1065.9827
1065.9832
1065.9813
1065.9806
1065.9798
1065.9789
1065.9789
1065.9796
1065.9806
1065.9817
1065.9826
1065.9831
1065.9802
1065.9796
1065.9789
1065.9781
1065.9782
1065.9789
1065.9801
1065.9813
1065.9824
1065.983
1065.98
1065.9795
1065.9789
1065.9782
1065.9783
1065.9791
1065.9804
1065.9816
1065.9827
1065.9834
1065.9805
1065.9801
1065.9796
1065.9789
1065.9791
1065.98
1065.9812
1065.9825
1065.9836
1065.9842
1065.9813
1065.981
1065.9806
1065.9801
1065.9804
1065.9812
1065.9825
1065.9837
1065.9847
1065.9853
1065.9821
1065.9819
1065.9817
1065.9813
1065.9816
1065.9825
1065.9837
1065.9848
1065.9857
1065.9861
1065.9829
1065.9827
1065.9826
1065.9824
1065.9827
1065.9836
1065.9847
1065.9857
1065.9865
1065.987
1065.9833
1065.9832
1065.9831
1065.983
1065.9834
1065.9842
1065.9853
1065.9861
1065.987
1065.9873
1130.9129
1130.9123
1130.912
1130.9107
1130.9106
1130.9112
1130.9122
1130.9132
1130.9142
1130.9148
1130.9123
1130.9122
1130.9112
1130.9101
1130.9101
1130.9107
1130.9118
1130.913
1130.914
1130.9145
1130.912
1130.9112
1130.9104
1130.9094
1130.9094
1130.9102
1130.9114
1130.9128
1130.9139
1130.9144
1130.9107
1130.9101
1130.9094
1130.9084
1130.9085
1130.9093
1130.9107
1130.9122
1130.9135
1130.9142
1130.9106
1130.9101
1130.9094
1130.9085
1130.9087
1130.9096
1130.911
1130.9125
1130.9139
1130.9146
1130.9112
1130.9107
1130.9102
1130.9093
1130.9096
1130.9105
1130.9119
1130.9135
1130.9148
1130.9155
1130.9122
1130.9118
1130.9114
1130.9107
1130.911
1130.9119
1130.9133
1130.9148
1130.9161
1130.9168
1130.9132
1130.913
1130.9128
1130.9122
1130.9125
1130.9135
1130.9148
1130.9163
1130.9174
1130.9179
1130.9142
1130.914
1130.9139
1130.9135
1130.9139
1130.9148
1130.9161
1130.9174
1130.9184
1130.9189
1130.9148
1130.9145
1130.9144
1130.9142
1130.9146
1130.9155
1130.9168
1130.9179
1130.9189
1130.9192
1192.9561
1192.9555
1192.9552
1192.9537
1192.9536
1192.9543
1192.9554
1192.9567
1192.9578
1192.9585
1192.9555
1192.9553
1192.9543
1192.953
1192.953
1192.9538
1192.9551
1192.9565
1192.9576
1192.9581
1192.9552
1192.9543
1192.9534
1192.9522
1192.9523
1192.9532
1192.9546
1192.9563
1192.9575
1192.9581
1192.9537
1192.953
1192.9522
1192.9511
1192.9513
1192.9522
1192.9537
1192.9555
1192.957
1192.9578
1192.9536
1192.953
1192.9523
1192.9513
1192.9515
1192.9525
1192.954
1192.9558
1192.9574
1192.9582
1192.9543
1192.9538
1192.9532
1192.9522
1192.9525
1192.9535
1192.955
1192.9568
1192.9583
1192.9591
1192.9554
1192.9551
1192.9546
1192.9537
1192.954
1192.955
1192.9565
1192.9583
1192.9597
1192.9605
1192.9567
1192.9565
1192.9563
1192.9555
1192.9558
1192.9568
1192.9583
1192.96
1192.9613
1192.9619
1192.9578
1192.9576
1192.9575
1192.957
1192.9574
1192.9583
1192.9597
1192.9613
1192.9625
1192.963
1192.9585
1192.9581
1192.9581
1192.9578
1192.9582
1192.9591
1192.9605
1192.9619
1192.963
1192.9634
1251.3324
1251.3317
1251.3314
1251.3298
1251.3298
1251.3306
1251.3318
1251.3333
1251.3345
1251.3353
1251.3317
1251.3315
1251.3305
1251.3291
1251.3292
1251.3301
1251.3315
1251.3331
1251.3342
1251.3348
1251.3314
1251.3305
1251.3295
1251.3283
1251.3285
1251.3294
1251.331
1251.3328
1251.3342
1251.3348
1251.3298
1251.3291
1251.3283
1251.3271
1251.3274
1251.3284
1251.3299
1251.332
1251.3336
1251.3345
1251.3298
1251.3292
1251.3285
1251.3274
1251.3276
1251.3286
1251.3302
1251.3323
1251.3339
1251.3348
1251.3306
1251.3301
1251.3294
1251.3284
1251.3286
1251.3296
1251.3312
1251.3332
1251.3349
1251.3357
1251.3318
1251.3315
1251.331
1251.3299
1251.3302
1251.3312
1251.3327
1251.3347
1251.3363
1251.3371
1251.3333
1251.3331
1251.3328
1251.332
1251.3323
1251.3332
1251.3347
1251.3367
1251.3382
1251.3388
1251.3345
1251.3342
1251.3342
1251.3336
1251.3339
1251.3349
1251.3363
1251.3382
1251.3395
1251.3399
1251.3353
1251.3348
1251.3348
1251.3345
1251.3348
1251.3357
1251.3371
1251.3388
1251.3399
1251.3403
1305.3181
1305.3173
1305.3171
1305.3154
1305.3154
1305.3163
1305.3176
1305.3192
1305.3204
1305.3214
1305.3173
1305.3172
1305.3161
1305.3147
1305.3148
1305.3158
1305.3173
1305.319
1305.3202
1305.3208
1305.3171
1305.3161
1305.3152
1305.3139
1305.3142
1305.3152
1305.3167
1305.3188
1305.3202
1305.3208
1305.3154
1305.3147
1305.3139
1305.3127
1305.313
1305.314
1305.3156
1305.3178
1305.3195
1305.3204
1305.3154
1305.3148
1305.3142
1305.313
1305.3133
1305.3143