/*--------------------------------*- C++ -*----------------------------------*\
| =========                 |                                                 |
| \\      /  F ield         | OpenFOAM: The Open Source CFD Toolbox           |
|  \\    /   O peration     | Version:  v2106                                 |
|   \\  /    A nd           | Website:  www.openfoam.com                      |
|    \\/     M anipulation  |                                                 |
\*---------------------------------------------------------------------------*/
FoamFile
{
    version     2.0;
    format      ascii;
    arch        "LSB;label=32;scalar=64";
    class       volScalarField;
    location    "7.5";
    object      gradTx;
}
// * * * * * * * * * * * * * * * * * * * * * * * * * * * * * * * * * * * * * //

dimensions      [0 -1 0 1 0 0 0];

internalField   nonuniform List<scalar> 
4000
(
-9.4557151e-06
-0.00018576946
0.00013740249
0.00033738555
-7.6232567e-06
-8.1419276e-05
-9.1342619e-05
-8.5193341e-05
-6.2470033e-05
-1.5480307e-05
-0.00016499019
-0.00011300221
0.00037251368
0.00024170874
-3.7604801e-05
-8.9584887e-05
-9.8717461e-05
-8.7399536e-05
-3.7063904e-05
-5.324902e-08
3.9055789e-05
0.00013169852
0.00028126165
0.0002039282
-4.7527544e-05
-9.6273552e-05
-0.00011759092
-0.00012101181
-4.9918561e-05
4.311308e-06
-8.2493916e-06
3.0856955e-05
0.00024134983
0.0001921244
-4.7999632e-05
-9.4388241e-05
-0.00012487746
-0.00015670584
-0.00012111392
-2.4601691e-05
-2.4728748e-05
-1.7588434e-06
0.00023167731
0.00019156954
-4.3689835e-05
-8.6374533e-05
-0.00011368832
-0.00014489835
-0.00011204054
-2.2248211e-05
-2.8237084e-05
-9.0473349e-06
0.000230955
0.00019596211
-3.7266693e-05
-7.9220774e-05
-0.00010527718
-0.0001351033
-0.00010175146
-1.885777e-05
-3.0172489e-05
-1.6613114e-05
0.00022687396
0.00020146856
-2.8522359e-05
-7.2624968e-05
-0.00010033248
-0.00013119224
-9.8829642e-05
-1.8071664e-05
-3.3153648e-05
-3.5295628e-05
0.00020479501
0.00019986472
-1.7666403e-05
-6.5864933e-05
-9.7516158e-05
-0.00013069733
-9.9637208e-05
-1.8508037e-05
-3.1643288e-05
-5.2431585e-05
0.00015756766
0.00017758202
-6.9198251e-06
-5.8918852e-05
-9.5926504e-05
-0.00013108768
-9.9171987e-05
-1.8039657e-05
-1.621623e-05
-2.2744166e-05
0.00012074498
0.00013774273
1.6960627e-06
-5.265403e-05
-9.5401901e-05
-0.00013103967
-9.3815407e-05
-1.4936984e-05
-2.5029004e-05
-0.00042083625
0.0007655742
0.001296578
-4.6004827e-06
-0.00036988972
-0.00044714108
-0.00042850686
-0.0003329527
-8.9339134e-05
-0.00030090263
-1.2721247e-05
0.0013677865
0.00099144046
-0.00011100549
-0.00040697779
-0.00048670825
-0.00042467177
-0.00020230061
-2.0434309e-05
0.00024704766
0.00067524453
0.001131095
0.00085433248
-0.00015609054
-0.00044271554
-0.00058532895
-0.00058063338
-0.00024050073
9.0121411e-06
0.00010057222
0.00035279957
0.000984965
0.00080113748
-0.00016041136
-0.00043579677
-0.00062570107
-0.00075026882
-0.00054257702
-0.00010715838
4.3622657e-05
0.00023299903
0.00094079203
0.00079630245
-0.00014076383
-0.00039818908
-0.00057732931
-0.00070913027
-0.00052390866
-0.00010517194
2.9635544e-05
0.00020130951
0.00093555913
0.00081646419
-0.00010974036
-0.00036325513
-0.00053738325
-0.00066556499
-0.00048210969
-9.2116289e-05
1.8897275e-05
0.00016017322
0.00091197305
0.0008408289
-6.8222175e-05
-0.00033115827
-0.00051365082
-0.00064767804
-0.00047037914
-8.9399322e-05
3.2574311e-06
6.3121644e-05
0.00079656631
0.00082446382
-2.1422537e-05
-0.00029957663
-0.00050061934
-0.00064574936
-0.00047451697
-9.1577243e-05
2.1454002e-05
8.0466975e-06
0.00058637601
0.00071233201
1.6481653e-05
-0.00026970603
-0.00049383519
-0.00064550297
-0.0004627884
-8.4503091e-05
9.0358822e-05
0.0001555736
0.00045628991
0.0005410559
3.9044795e-05
-0.00024604711
-0.00049302664
-0.00063815862
-0.0004098264
-5.6269249e-05
0.00017652658
1.8311829e-05
0.0014631012
0.0019351977
-3.5108368e-05
-0.00065445684
-0.00082505262
-0.00079476809
-0.00069239879
-0.00021930219
-0.00028609623
0.00037190496
0.0022033793
0.0015070444
-0.00018738021
-0.00072229321
-0.00092215128
-0.00075736762
-0.00034307323
-5.1772158e-05
0.00041225534
0.0012415446
0.0018778167
0.0013089094
-0.00025194282
-0.00078165576
-0.0011215353
-0.0010874851
-0.00046608006
-1.6447791e-05
0.00020742255
0.00078662046
0.0016645427
0.0012295366
-0.00025254511
-0.00076009486
-0.0011803408
-0.0013603268
-0.00093311477
-0.00019070638
0.00012681983
0.00061525639
0.0016003089
0.0012255964
-0.00021599073
-0.00069261429
-0.0010975089
-0.0012963081
-0.00090959902
-0.00018966027
0.00010590799
0.000569786
0.0015993778
0.0012654887
-0.00016013688
-0.00063100732
-0.0010294596
-0.0012261763
-0.00084712324
-0.00017104736
8.1595573e-05
0.00048805746
0.0015625073
0.0013146379
-8.6903199e-05
-0.00057580014
-0.00099096558
-0.0012007901
-0.00083688428
-0.00017063838
4.1175548e-05
0.0002733033
0.0013411883
0.0012895151
-9.2556888e-06
-0.00052446398
-0.0009729412
-0.0012016398
-0.00084621701
-0.00017478463
0.00010652922
0.00019534044
0.00095954809
0.0011058149
4.7247306e-05
-0.00048028207
-0.00096642907
-0.0011930176
-0.0007849133
-0.00014173921
0.00027405925
0.00049962202
0.00075114676
0.00084599617
7.6735833e-05
-0.00045174924
-0.00097203497
-0.0011496688
-0.00066775318
-9.6677883e-05
0.0003472333
0.00035815299
0.0020488393
0.0025019503
-8.0190401e-05
-0.00095592242
-0.0012489762
-0.0011653676
-0.0010093314
-0.00033841468
-0.00026026035
0.00070697767
0.0029231326
0.001966862
-0.00026736703
-0.0010561212
-0.0014433597
-0.0011592391
-0.00048485653
-8.0880388e-05
0.00057978309
0.0017450849
0.0025154895
0.0017201062
-0.00034080535
-0.0011283007
-0.00173601
-0.001647173
-0.00065420444
-2.3715323e-05
0.00032260184
0.0011736279
0.0022471901
0.0016229512
-0.00033213275
-0.0010879787
-0.0018126438
-0.0020219771
-0.0012743003
-0.00024973817
0.00022305754
0.00096324085
0.0021715788
0.0016248746
-0.00027598787
-0.00098965151
-0.0016975298
-0.0019407893
-0.0012522171
-0.00025149625
0.00019781742
0.00091301298
0.0021824244
0.0016877687
-0.00019431661
-0.0009021494
-0.0016046081
-0.0018505714
-0.0011784335
-0.00023084568
0.00015625836
0.00079086253
0.0021397212
0.0017635238
-9.0158571e-05
-0.00082649945
-0.0015562981
-0.0018252
-0.0011800129
-0.00023669848
6.8228449e-05
0.00042597924
0.0018131403
0.0017262489
1.3719102e-05
-0.00076091775
-0.0015397207
-0.0018324073
-0.0011893274
-0.00023916601
0.00016034405
0.00030905713
0.0012769832
0.0014699076
8.1247134e-05
-0.00071091017
-0.001538134
-0.0017940666
-0.00099530902
-0.00013912305
0.00041787835
0.00078110618
0.0010236966
0.0011282362
0.00010958585
-0.00068871354
-0.0015506145
-0.0016477035
-0.00086590032
-0.00015289355
0.00046161897
0.00056384086
0.0025847194
0.0030677024
-0.00012853986
-0.00127754
-0.0017411456
-0.0016353807
-0.0013799501
-0.00046074014
-0.00027201177
0.00095623236
0.0036136524
0.0024282597
-0.00034394411
-0.0013997029
-0.0020260528
-0.0016539351
-0.00068163144
-0.00011789843
0.00072321331
0.0021842245
0.0031268037
0.0021368693
-0.00042154109
-0.0014804973
-0.0024119755
-0.0022960415
-0.00088548435
-3.4621532e-05
0.00041394356
0.0014983166
0.002807352
0.0020260937
-0.00040001841
-0.0014192381
-0.0025087212
-0.0027786773
-0.0016633886
-0.00031357051
0.0002969182
0.0012533914
0.0027246376
0.0020373189
-0.00032189674
-0.0012889316
-0.0023626506
-0.0026844101
-0.0016476012
-0.00031966806
0.00027034073
0.0012053154
0.0027512777
0.002125738
-0.0002132808
-0.0011759881
-0.0022474802
-0.002579367
-0.0015697106
-0.00029958743
0.00021547629
0.0010504341
0.0027051024
0.0022288845
-7.8646735e-05
-0.0010823827
-0.0021946691
-0.002562751
-0.0015950989
-0.00031618865
8.0402611e-05
0.00053448551
0.0022686092
0.0021750629
4.7960236e-05
-0.0010080067
-0.0021883556
-0.0025866049
-0.0016095691
-0.00031712546
0.00020310665
0.00038977332
0.0015803602
0.0018405159
0.0001206636
-0.00096072353
-0.002201907
-0.002510624
-0.0012053839
-0.00010703254
0.00054594837
0.0010289512
0.0012868521
0.0014129461
0.00014163824
-0.00095550441
-0.0022282141
-0.0021968898
-0.0010367888
-0.00020472873
0.00056059605
0.00072761145
0.0031233729
0.003659746
-0.00017231469
-0.001605333
-0.0022600291
-0.0021514006
-0.0017826779
-0.00058758575
-0.0002996985
0.0011811934
0.0043224953
0.0029127519
-0.00041491377
-0.0017466653
-0.0026350539
-0.0021899708
-0.000902484
-0.00015787562
0.00086298403
0.0026172956
0.0037559224
0.0025772402
-0.00049470164
-0.0018351662
-0.003119007
-0.002992468
-0.0011409122
-4.741598e-05
0.00049971643
0.001813743
0.0033857106
0.0024547445
-0.00045795591
-0.0017514411
-0.0032384478
-0.0035908601
-0.0020869175
-0.00038281482
0.000364988
0.0015347899
0.003297915
0.0024775763
-0.00035581919
-0.0015877535
-0.0030616354
-0.0034858789
-0.0020808943
-0.00039445706
0.0003379837
0.001491356
0.0033426685
0.002593627
-0.00021896473
-0.0014492241
-0.0029255895
-0.0033691642
-0.002003331
-0.00037655727
0.00027076647
0.0013049566
0.0032931391
0.002724989
-5.3602159e-05
-0.0013391267
-0.0028720418
-0.0033679436
-0.0020622267
-0.00040763813
8.7967165e-05
0.00063237815
0.0027392745
0.0026509986
9.3893572e-05
-0.0012596306
-0.0028830663
-0.0034191438
-0.0020940822
-0.00041108802
0.00024505299
0.00046388918
0.0018922499
0.0022315781
0.00016809371
-0.0012211914
-0.0029220214
-0.0033116488
-0.0014500618
-7.1191524e-05
0.00067476313
0.0012741438
0.0015548411
0.0017110165
0.00017748004
-0.001240963
-0.0029738175
-0.0028069789
-0.0012184001
-0.00025664687
0.00066076753
0.00088763792
0.003685862
0.0042866802
-0.00021273503
-0.0019418004
-0.0027990635
-0.0026951963
-0.0022093064
-0.00072094208
-0.00033248553
0.0014092197
0.0050671526
0.0034266794
-0.00048337149
-0.0021024907
-0.003268081
-0.0027534775
-0.0011372733
-0.00020015502
0.0010084887
0.0030681867
0.0044180317
0.0030459405
-0.00056441244
-0.0021986911
-0.0038561161
-0.0037260291
-0.0014128739
-6.1363048e-05
0.00058837485
0.0021413895
0.0039957279
0.0029124947
-0.00051059033
-0.0020909665
-0.0040004121
-0.0044484661
-0.0025386198
-0.00045718904
0.00043515484
0.0018274469
0.003903847
0.0029486672
-0.00038250748
-0.0018921183
-0.0037920864
-0.0043338173
-0.0025447017
-0.00047526317
0.00040795055
0.001789712
0.0039685091
0.0030943996
-0.00021586213
-0.0017272732
-0.0036354568
-0.0042068918
-0.0024697696
-0.00046040016
0.000328028
0.0015705563
0.0039153711
0.0032552399
-1.8814228e-05
-0.0016012014
-0.0035834189
-0.004225189
-0.0025681564
-0.00050825474
9.5272221e-05
0.00073265947
0.0032361779
0.0031584293
0.00014909319
-0.0015186058
-0.0036162661
-0.0043105647
-0.0026256543
-0.00051710622
0.00028917388
0.00053972341
0.0022203825
0.0026474517
0.0002227601
-0.0014925731
-0.0036870918
-0.0041763739
-0.0017285289
-3.7963544e-05
0.00080996093
0.001529092
0.0018348315
0.0020266015
0.00021794342
-0.0015420605
-0.0037721509
-0.0034709371
-0.0014221568
-0.00031285819
0.00076612627
0.0010539601
0.0042778607
0.0049492045
-0.00025312163
-0.0022921944
-0.0033622892
-0.0032658269
-0.0026597004
-0.00086213626
-0.00036743585
0.0016474106
0.0058514301
0.0039700226
-0.00055299877
-0.0024730327
-0.0039304596
-0.0033444888
-0.0013841839
-0.00024485178
0.0011617599
0.0035420245
0.0051159092
0.0035423392
-0.00063458276
-0.0025769554
-0.0046288681
-0.0044976646
-0.0016994662
-7.60744e-05
0.00068161046
0.0024854592
0.0046394731
0.0033982928
-0.0005618891
-0.0024433939
-0.0047996619
-0.0053522772
-0.0030166313
-0.00053624964
0.00050897205
0.0021351592
0.0045441794
0.0034494099
-0.00040579807
-0.0022071646
-0.0045582802
-0.0052281292
-0.0030364327
-0.0005614325
0.00048169238
0.0021039981
0.0046305827
0.0036270775
-0.00020746171
-0.0020147504
-0.0043805949
-0.0050914621
-0.0029653776
-0.00055011734
0.00038841319
0.0018503982
0.0045738183
0.0038192007
2.2845407e-05
-0.0018725394
-0.0043314191
-0.0051320869
-0.0031073819
-0.00061632674
0.00010291207
0.00083741908
0.0037613804
0.0036976654
0.00021160532
-0.0017878893
-0.0043891964
-0.0052561713
-0.0031953535
-0.00063214667
0.00033597187
0.00061856044
0.0025660299
0.0030887361
0.00028366057
-0.0017764971
-0.0044961283
-0.0050972166
-0.002033551
-6.409209e-06
0.00095325636
0.0017976532
0.0021289331
0.002360699
0.00026285902
-0.0018588385
-0.0046191723
-0.0041823403
-0.0016465739
-0.00037416198
0.00087726431
0.0012284352
0.0048987405
0.005644126
-0.00029680571
-0.00266026
-0.0039536082
-0.0038651994
-0.003134569
-0.0010116317
-0.00040366561
0.0018964724
0.0066730708
0.0045396232
-0.00062692976
-0.0028619177
-0.0046264793
-0.003964948
-0.0016427309
-0.00029186498
0.0013226225
0.0040377458
0.0058470624
0.0040632625
-0.00070815628
-0.0029732558
-0.0054414367
-0.0053093852
-0.0019996293
-9.1062319e-05
0.00077922131
0.0028447944
0.0053143718
0.0039089934
-0.00061456572
-0.0028115622
-0.0056398353
-0.0063039068
-0.0035194256
-0.00061929446
0.0005862873
0.0024568823
0.0052164326
0.0039768221
-0.00042810923
-0.0025352649
-0.0053632513
-0.0061698405
-0.0035541097
-0.00065213706
0.00055913862
0.0024334438
0.0053267358
0.0041890405
-0.00019578083
-0.0023135619
-0.0051635006
-0.0060233538
-0.0034877483
-0.00064476969
0.00045184886
0.0021438865
0.0052667881
0.004414813
6.9891067e-05
-0.0021545508
-0.0051180405
-0.0060885815
-0.0036769449
-0.00073073342
0.00011055787
0.00094561522
0.0043133798
0.0042672259
0.00028055387
-0.0020683511
-0.0052032852
-0.0062550576
-0.0037987953
-0.00075449499
0.0003853498
0.00069970071
0.0029278293
0.0035543577
0.00035044402
-0.0020732918
-0.0053497443
-0.0060716482
-0.0023588589
2.5717626e-05
0.0011051166
0.0020805548
0.0024366851
0.0027127456
0.00031223117
-0.0021911863
-0.0055143322
-0.0049369716
-0.0018871177
-0.00044000087
0.00099386375
0.0014106167
0.0055446504
0.0063655911
-0.00034677863
-0.0030477703
-0.0045746495
-0.0044941527
-0.0036338447
-0.0011694078
-0.00044062183
0.0021549839
0.007526212
0.0051301378
-0.00070767944
-0.0032705099
-0.0053577542
-0.0046155611
-0.0019123102
-0.00034101025
0.0014901086
0.0045517049
0.0066058634
0.0046037288
-0.0007872135
-0.0033884076
-0.006294997
-0.0061614656
-0.0023121048
-0.00010589974
0.00088041921
0.0032161969
0.006015119
0.0044399261
-0.00067029856
-0.0031957368
-0.0065214852
-0.0073029394
-0.0040448291
-0.00070554117
0.00066647307
0.0027898426
0.0059156516
0.0045265765
-0.00045073212
-0.0028762235
-0.0062070607
-0.0071581032
-0.0040952335
-0.00074650498
0.00063981868
0.002775762
0.0060524999
0.0047764074
-0.00018169681
-0.0026231093
-0.0059838606
-0.0070014353
-0.0040342672
-0.00074348113
0.00051798001
0.0024492053
0.0059904246
0.0050387605
0.00012189546
-0.0024462842
-0.0059427179
-0.0070934159
-0.0042742819
-0.00085065024
0.00011774893
0.0010554146
0.0048887689
0.0048643437
0.00035592776
-0.0023587664
-0.0060578306
-0.0073058722
-0.0044331652
-0.00088319701
0.00043704108
0.00078189238
0.0033030463
0.0040421229
0.00042339954
-0.0023815969
-0.0062471548
-0.0070977213
-0.0026996179
6.0358445e-05
0.0012654387
0.0023771545
0.0027562499
0.003081215
0.00036648959
-0.0025378148
-0.0064567286
-0.0057312082
-0.002139292
-0.00050964636
0.0011151778
0.0015990624
0.0062093204
0.0071053648
-0.00040569069
-0.0034546195
-0.005224449
-0.0051514339
-0.0041561202
-0.001335031
-0.00047773849
0.0024203427
0.0084019844
0.0057342307
-0.00079722594
-0.0036980973
-0.0061229375
-0.005294865
-0.0021916344
-0.00039202152
0.0016626981
0.0050783797
0.0073840032
0.0051570319
-0.00087313911
-0.0038209728
-0.0071873657
-0.0070514709
-0.0026348701
-0.00012019504
0.00098403749
0.0035950256
0.0067340198
0.0049848827
-0.00072997023
-0.0035938682
-0.0074416529
-0.0083458426
-0.0045893491
-0.00079406249
0.00074860866
0.0031300468
0.0066346553
0.0050929134
-0.00047412051
-0.0032275527
-0.0070863262
-0.0081890066
-0.0046559952
-0.00084351638
0.00072301399
0.0031275771
0.0068012755
0.0053839013
-0.00016526243
-0.0029405627
-0.0068380315
-0.008021662
-0.004601155
-0.00084527085
0.00058629012
0.0027636935
0.0067388844
0.0056863336
0.00017918491
-0.0027446616
-0.0068017054
-0.0081426252
-0.0048959025
-0.00097522914
0.00012402171
0.0011646605
0.0054825601
0.0054849408
0.00043835892
-0.0026559419
-0.0069491748
-0.0084049188
-0.0050952875
-0.0010175008
0.0004906694
0.00086365653
0.0036879068
0.0045487978
0.00050336552
-0.0026982802
-0.0071849623
-0.008171786
-0.0030513756
9.9033565e-05
0.0014336789
0.0026859105
0.0030848454
0.0034638158
0.00042655298
-0.0028958493
-0.0074433072
-0.0065603919
-0.0023987872
-0.0005824419
0.0012400902
0.001791553
0.0068842237
0.0078528858
-0.00047584128
-0.003878842
-0.005899317
-0.0058332845
-0.0046982626
-0.0015075828
-0.00051440115
0.0026889057
0.0092886212
0.006342603
-0.00089703065
-0.0041419295
-0.006917553
-0.0059987881
-0.0024783471
-0.00044446823
0.0018383253
0.0056104394
0.0081705434
0.0057147189
-0.00096668701
-0.0042673158
-0.008112772
-0.0079737312
-0.0029647046
-0.00013349564
0.0010885305
0.0039752254
0.0074609836
0.0055360405
-0.00079377629
-0.004001666
-0.0083935992
-0.0094253531
-0.0051476443
-0.0008836581
0.00083147017
0.0034722725
0.0073639808
0.0056685181
-0.00049803192
-0.0035845587
-0.0079939284
-0.0092549022
-0.0052306724
-0.00094185091
0.00080773763
0.0034843797
0.0075642379
0.0060046956
-0.00014586269
-0.003260942
-0.0077187094
-0.0090763307
-0.005182774
-0.00094886946
0.00065607847
0.0030837987
0.0075042443
0.0063512752
0.0002426921
-0.0030445279
-0.0076876804
-0.0092286756
-0.0055365257
-0.0011033483
0.00012891361
0.0012709247
0.0060881917
0.0061235392
0.00052902712
-0.0029546941
-0.0078701889
-0.0095451022
-0.0057804732
-0.0011564937
0.00054574274
0.00094335196
0.0040776793
0.0050701042
0.00059171445
-0.0030183013
-0.0081564518
-0.0092872289
-0.0034091319
0.00014299877
0.0016088573
0.0030044827
0.0034188945
0.0038575713
0.0004938974
-0.0032605474
-0.0084678881
-0.0074177083
-0.0026609727
-0.00065772087
0.0013671028
0.0019850856
0.0075586236
0.00859535
-0.00055909694
-0.00431653
-0.006592674
-0.0065331665
-0.0052551336
-0.0016855771
-0.00054997599
0.0029559733
0.01017152
0.0069440671
-0.0010079731
-0.0045971425
-0.007733797
-0.0067203513
-0.0027687576
-0.00049767914
0.0020143613
0.0061387367
0.0089519553
0.0062666345
-0.0010679436
-0.0047215407
-0.0090616242
-0.0089189825
-0.0032968965
-0.00014521002
0.0011919547
0.0043493051
0.0081835348
0.0060839732
-0.0008612183
-0.0044125551
-0.0093665551
-0.010530067
-0.0057121789
-0.00097276107
0.00091350609
0.0038100212
0.0080918615
0.0062445021
-0.00052154371
-0.0039403083
-0.0089187504
-0.010343961
-0.0058112446
-0.0010397814
0.00089270399
0.0038404584
0.0083302896
0.0066303732
-0.00012224252
-0.0035770793
-0.0086146485
-0.010153598
-0.0057711945
-0.0010525964
0.0007264311
0.0034050105
0.0082764488
0.0070257346
0.00031393211
-0.0033385936
-0.0085894196
-0.010339916
-0.0061885607
-0.001233459
0.00013195526
0.0013715081
0.0066975315
0.006773247
0.00062966402
-0.0032477486
-0.0088098795
-0.010715279
-0.0064818752
-0.0012989023
0.00060164129
0.0010191946
0.0044667331
0.0056007559
0.00069040148
-0.0033345482
-0.0091511014
-0.010433733
-0.0037667821
0.00019336247
0.0017895393
0.0033297452
0.0037541102
0.0042588989
0.00057064847
-0.0036250647
-0.0095205602
-0.0082935008
-0.0029204621
-0.00073468894
0.0014943159
0.0021758267
0.0082196638
0.0093179044
-0.00065674011
-0.0047617056
-0.0072948837
-0.0072415572
-0.0058193959
-0.0018669003
-0.00058386041
0.0032157618
0.011033396
0.0075257319
-0.0011302168
-0.0050566408
-0.0085603513
-0.0074494486
-0.0030576632
-0.00055068711
0.002187606
0.0066523454
0.0097122672
0.0068010867
-0.0011762187
-0.0051753933
-0.010020313
-0.0098741205
-0.0036250595
-0.00015455545
0.0012919607
0.0047083652
0.008886938
0.0066177918
-0.00093102021
-0.0048175973
-0.010345529
-0.01164418
-0.0062730282
-0.0010593847
0.00099282426
0.0041355276
0.0088043272
0.0068105182
-0.00054299042
-0.0042855649
-0.0098454878
-0.011439905
-0.0063871831
-0.0011351157
0.00097630959
0.0041888866
0.0090861346
0.0072510201
-9.2457876e-05
-0.0038795594
-0.009510462
-0.011237187
-0.0063559588
-0.0011542932
0.00079620079
0.0037218399
0.0090433707
0.0077003465
0.00039504749
-0.0036173644
-0.009491574
-0.011460247
-0.0068418229
-0.001363502
0.00013266455
0.0014634575
0.0073009574
0.0074258452
0.00074260865
-0.0035256456
-0.0097531203
-0.011899873
-0.0071901426
-0.0014429891
0.00065760653
0.0010892767
0.0048486389
0.006134562
0.00080204087
-0.0036377061
-0.01015426
-0.011596849
-0.004116839
0.00025113786
0.0019738197
0.0036577939
0.0040855924
0.0046637216
0.00065967812
-0.0039802855
-0.010587304
-0.0091748895
-0.0031708649
-0.00081233962
0.0016194116
0.0023590696
0.0088525579
0.010003988
-0.0007692632
-0.0052061959
-0.0079931351
-0.0079458221
-0.0063813979
-0.0020487736
-0.00061554758
0.0034614019
0.011854583
0.0080733285
-0.0012630266
-0.0055109936
-0.0093822639
-0.0081727167
-0.0033382337
-0.00060218865
0.0023542998
0.0071386775
0.010433358
0.0073051498
-0.0012898904
-0.0056181858
-0.010971108
-0.010822078
-0.0039410275
-0.00016052066
0.0013858023
0.0050422025
0.0095544716
0.0071254219
-0.0010010017
-0.005205447
-0.011311228
-0.01274739
-0.0068178055
-0.001141098
0.0010671935
0.0044398394
0.0094854519
0.0073550123
-0.00055986127
-0.0046087651
-0.010754586
-0.012521913
-0.0069453818
-0.0012251737
0.0010566267
0.0045215753
0.0098164965
0.007855451
-5.3791883e-05
-0.0041567061
-0.01038656
-0.012306292
-0.0069239988
-0.0012512949
0.00086399507
0.0040278496
0.0097909985
0.0083644329
0.00048887964
-0.0038691274
-0.010374594
-0.012568997
-0.0074834187
-0.0014908671
0.0001305408
0.0015436023
0.0078875329
0.0080719727
0.00087087531
-0.0037767141
-0.010680551
-0.013078709
-0.0078932656
-0.0015864994
0.00071273199
0.0011515934
0.0052163252
0.0066645979
0.00092997743
-0.0039162109
-0.011147011
-0.012757806
-0.0044503306
0.00031725658
0.0021593169
0.0039839727
0.0044079611
0.0050676183
0.00076468203
-0.004314751
-0.011649818
-0.010045621
-0.0034046836
-0.00088940142
0.001739646
0.0025292151
0.0094409039
0.010635828
-0.00089612483
-0.0056395525
-0.0086714216
-0.0086301959
-0.0069291416
-0.0022277398
-0.00064470026
0.0036849842
0.012613502
0.0085716832
-0.0014045561
-0.0059483871
-0.010180951
-0.008873521
-0.0036019557
-0.00065051397
0.0025101587
0.0075836985
0.011095422
0.0077651089
-0.0014062289
-0.0060367943
-0.011892209
-0.011741859
-0.0042348242
-0.00016183707
0.0014703649
0.0053395028
0.010167864
0.0075940185
-0.0010679361
-0.0055623884
-0.012240157
-0.013814986
-0.0073317057
-0.0012150232
0.0011340623
0.0047129796
0.010117758
0.007865607
-0.00056868805
-0.0048960848
-0.011622365
-0.01356474
-0.0074702215
-0.0013067903
0.0011314107
0.0048293988
0.010504484
0.0084315593
-2.6684008e-06
-0.0043946666
-0.011219285
-0.013335694
-0.0074596954
-0.0013404316
0.00092817258
0.0043157378
0.010503756
0.0090063165
0.00059903379
-0.0040800437
-0.01121486
-0.013641022
-0.0080977788
-0.0016123851
0.00012505776
0.0016086113
0.0084452779
0.0087014033
0.0010182031
-0.003987161
-0.011568683
-0.014227078
-0.0085765716
-0.0017266415
0.00076595587
0.0012040746
0.0055622918
0.0071834358
0.001078326
-0.0041563262
-0.012106245
-0.013893547
-0.0047568228
0.00039256464
0.0023431817
0.0043029287
0.0047155279
0.0054660059
0.0008902134
-0.0046147183
-0.012685559
-0.010886122
-0.0036133191
-0.00096430567
0.001851855
0.0026797935
0.0099671392
0.011195094
-0.0010354906
-0.0060490519
-0.0093106645
-0.0092759077
-0.0074483535
-0.0023996763
-0.00067122746
0.0038776678
0.013287309
0.0090053339
-0.0015516308
-0.006354674
-0.010934368
-0.0095320969
-0.0038386511
-0.00069360917
0.0026504379
0.007972253
0.011677605
0.0081670402
-0.0015212244
-0.0064157695
-0.012757997
-0.012608764
-0.0044947196
-0.00015695903
0.0015422188
0.005588134
0.010707896
0.0080105083
-0.0011274208
-0.0058724993
-0.013104943
-0.014818178
-0.0077976806
-0.0012778561
0.001190598
0.0049441994
0.01068278
0.0083296056
-0.00056495226
-0.0051316396
-0.012421379
-0.014539079
-0.007943781
-0.0013763477
0.0011981254
0.0051024002
0.011132106
0.0089667805
6.5407971e-05
-0.0045776376
-0.01198129
-0.014296135
-0.0079450919
-0.0014180588
0.00098684998
0.0045774819
0.011164955
0.0096137354
0.00072990942
-0.0042343885
-0.011985058
-0.014647072
-0.0086668485
-0.0017243494
0.00011565605
0.0016550674
0.0089615322
0.0093033989
0.0011890604
-0.0041413164
-0.012390267
-0.015316072
-0.0092228696
-0.0018600919
0.00081605723
0.0012446255
0.005878873
0.0076834204
0.0012519532
-0.0043423813
-0.013004995
-0.014977014
-0.00502455
0.00047781102
0.0025221244
0.0046087014
0.0050025026
0.0058543375
0.0010416491
-0.0048643838
-0.013668045
-0.011673774
-0.003787166
-0.0010351693
0.0019524812
0.0028035488
0.010413142
0.011663692
-0.0011839854
-0.0064198145
-0.0098890212
-0.0098614883
-0.0079226827
-0.0025598417
-0.00069535363
0.0040298745
0.013852727
0.0093592733
-0.0016995534
-0.006713558
-0.0116174
-0.010125886
-0.0040365929
-0.00072903631
0.0027700317
0.0082885161
0.012158817
0.0084975063
-0.0016294479
-0.0067375989
-0.013539542
-0.013394859
-0.0047073978
-0.00014405822
0.0015977024
0.0057755493
0.01115517
0.0083622401
-0.001173788
-0.0061179778
-0.013874933
-0.015724707
-0.0081967696
-0.0013259142
0.0012337529
0.0051223308
0.011161784
0.0087345974
-0.00054303994
-0.0052978568
-0.013121066
-0.015412226
-0.0083462197
-0.0014298387
0.0012539905
0.0053300868
0.011680936
0.009448648
0.00015585763
-0.0046882686
-0.012642212
-0.015154998
-0.0083602833
-0.0014801228
0.001037924
0.0048045464
0.011757364
0.01017434
0.00088666931
-0.0043149753
-0.012654863
-0.015554451
-0.0091704546
-0.0018225719
0.0001017379
0.0016795664
0.009423403
0.0098671234
0.0013885783
-0.0042220652
-0.013114952
-0.016313202
-0.0098127601
-0.0019830311
0.00086165908
0.0012711761
0.0061585432
0.0081569722
0.0014563774
-0.0044572003
-0.013813067
-0.01597771
-0.005240656
0.00057363197
0.0026924644
0.0048948513
0.0052632264
0.0062283015
0.0012250645
-0.0050463001
-0.014567429
-0.012383404
-0.0039157987
-0.0010997929
0.0020376289
0.0028926077
0.010760978
0.012024668
-0.001336491
-0.0067350779
-0.01038242
-0.010363298
-0.0083340547
-0.0027029629
-0.00071766768
0.0041315868
0.01428704
0.0096197873
-0.0018419655
-0.0070069485
-0.012202502
-0.010630104
-0.0041827488
-0.00075399955
0.0028636149
0.0085165768
0.012518699
0.008744338
-0.0017239768
-0.0069831566
-0.014205398
-0.014069717
-0.0048582653
-0.00012104065
0.0016330404
0.0058893077
0.011491018
0.0086377121
-0.0012000879
-0.006279667
-0.014517115
-0.016499758
-0.0085086119
-0.0013552199
0.0012603613
0.005236247
0.011536623
0.0090691342
-0.0004962738
-0.0053760492
-0.013688723
-0.016149063
-0.0086563552
-0.0014629706
0.0012960574
0.0055018219
0.012132896
0.0098654151
0.00027494959
-0.0047082721
-0.013169674
-0.015877315
-0.0086840063
-0.0015222659
0.0010791142
0.0049881683
0.012263905
0.010676242
0.0010751211
-0.0043037899
-0.013191945
-0.016328021
-0.0095868739
-0.0019024802
8.2669038e-05
0.0016788433
0.0098182836
0.01038209
0.0016223897
-0.0042114934
-0.01371028
-0.017183356
-0.010325133
-0.0020912133
0.00090124295
0.0012817492
0.006394251
0.0085968952
0.0016975643
-0.0044827477
-0.014497985
-0.016862556
-0.0053915603
0.000680529
0.0028502063
0.0051546326
0.0054924204
0.0065840003
0.0014469954
-0.0051420121
-0.015351406
-0.012988042
-0.003988259
-0.0011556791
0.0021031575
0.0029387572
0.010993768
0.01226318
-0.0014860264
-0.006976656
-0.01076535
-0.010756302
-0.008663207
-0.0028233714
-0.00073913697
0.0041727691
0.014569229
0.0097753436
-0.001970801
-0.0072155165
-0.012660639
-0.011018582
-0.0042631817
-0.0007654078
0.0029258321
0.0086411579
0.012738713
0.008897455
-0.0017964201
-0.0071323662
-0.014722731
-0.014601472
-0.0049319318
-8.5597353e-05
0.0016445036
0.005917714
0.011698527
0.0088273334
-0.0011981756
-0.0063377985
-0.014997367
-0.017107235
-0.0087121681
-0.001361628
0.0012672747
0.0052754333
0.011790703
0.0093234357
-0.00041705176
-0.0053472128
-0.014090819
-0.016713398
-0.0088524602
-0.0014713157
0.0013213205
0.0056073203
0.012471153
0.010206702
0.00042961652
-0.0046192587
-0.013530631
-0.016427125
-0.008894451
-0.001539981
0.0011080344
0.0051197231
0.012668421
0.011108589
0.001301488
-0.0041828508
-0.013563322
-0.016931552
-0.0098936237
-0.0019592632
5.7794267e-05
0.0016499389
0.010134424
0.010838614
0.0018963524
-0.0040917622
-0.014143022
-0.017890096
-0.01073787
-0.0021800794
0.00093318082
0.001274553
0.0065797682
0.0089966629
0.0019815988
-0.0044010045
-0.015026294
-0.017597085
-0.0054634636
0.00079883586
0.0029911444
0.0053812141
0.0056854379
0.0069180854
0.0017140694
-0.0051329258
-0.015986442
-0.013459936
-0.0039934623
-0.0012000785
0.0021448219
0.0029338508
0.011096671
0.012367472
-0.0016237507
-0.00712561
-0.011011926
-0.011015122
-0.0088904276
-0.002915194
-0.00076107093
0.0041439256
0.014681196
0.0098174714
-0.002076368
-0.0073194716
-0.012962516
-0.011264882
-0.0042636385
-0.00075998446
0.0029515384
0.0086484646
0.012803316
0.0089496704
-0.0018370753
-0.0071650928
-0.01505876
-0.014958194
-0.0049128896
-3.5300081e-05
0.0016286123
0.0058505703
0.011763635
0.0089241644
-0.0011589301
-0.0062729675
-0.015282059
-0.017511361
-0.0087866651
-0.0013410052
0.0012515382
0.0052306634
0.011910009
0.0094900739
-0.00029711772
-0.0051930523
-0.014294652
-0.017069654
-0.0089132912
-0.001450517
0.0013268674
0.0056372457
0.012681073
0.010464122
0.00062713908
-0.0044037996
-0.013693057
-0.016769188
-0.0089703073
-0.0015288213
0.0011222971
0.0051911806
0.012956513
0.011462114
0.0015720501
-0.0039352966
-0.013737061
-0.017329429
-0.010068489
-0.0019880737
2.6473968e-05
0.0015904122
0.01036153
0.01122823
0.0022161412
-0.0038462093
-0.014380862
-0.018397312
-0.011028783
-0.0022449222
0.00095579049
0.0012481093
0.0067100345
0.0093506539
0.002314223
-0.0041950719
-0.015365186
-0.018146945
-0.0054430103
0.00092866697
0.0031110001
0.0055679502
0.0058385033
0.0072278285
0.002032499
-0.005001407
-0.016439337
-0.013771834
-0.0039207377
-0.0012300738
0.0021584654
0.0028703542
0.011057908
0.012329786
-0.0017391259
-0.0071631398
-0.011097231
-0.011115351
-0.0089965063
-0.002972604
-0.00078502173
0.0040367946
0.014609018
0.0097415616
-0.0021475945
-0.0072995662
-0.013080117
-0.01134371
-0.0041703445
-0.00073443389
0.0029360923
0.0085271411
0.012701133
0.0088974105
-0.0018352473
-0.0070622627