/*--------------------------------*- C++ -*----------------------------------*\
| =========                 |                                                 |
| \\      /  F ield         | OpenFOAM: The Open Source CFD Toolbox           |
|  \\    /   O peration     | Version:  v2106                                 |
|   \\  /    A nd           | Website:  www.openfoam.com                      |
|    \\/     M anipulation  |                                                 |
\*---------------------------------------------------------------------------*/
FoamFile
{
    version     2.0;
    format      ascii;
    arch        "LSB;label=32;scalar=64";
    class       volScalarField;
    location    "7.5";
    object      laplacianT;
}
// * * * * * * * * * * * * * * * * * * * * * * * * * * * * * * * * * * * * * //

dimensions      [0 -2 0 1 0 0 0];

internalField   nonuniform List<scalar> 
4000
(
3570.9939
3570.9196
3571.1347
3571.0126
3571.0634
3571.0645
3571.0494
3571.0316
3571.0177
3571.0109
3570.9196
3571.2116
3571.0894
3571.0731
3571.1246
3571.1229
3571.1058
3571.0866
3571.0748
3571.058
3571.1347
3571.0894
3571.1369
3571.1118
3571.1558
3571.1515
3571.1322
3571.1109
3571.1032
3571.0781
3571.0126
3571.0731
3571.1118
3571.0794
3571.1208
3571.1158
3571.0947
3571.069
3571.0616
3571.0589
3571.0634
3571.1246
3571.1558
3571.1208
3571.162
3571.1578
3571.1371
3571.1092
3571.0947
3571.0811
3571.0645
3571.1229
3571.1515
3571.1158
3571.1578
3571.1549
3571.1357
3571.1092
3571.0952
3571.0803
3571.0494
3571.1058
3571.1322
3571.0947
3571.1371
3571.1357
3571.1178
3571.0922
3571.0789
3571.0645
3571.0316
3571.0866
3571.1109
3571.069
3571.1092
3571.1092
3571.0922
3571.067
3571.0541
3571.0403
3571.0177
3571.0748
3571.1032
3571.0616
3571.0947
3571.0952
3571.0789
3571.0541
3571.042
3571.0301
3571.0109
3571.058
3571.0781
3571.0589
3571.0811
3571.0803
3571.0645
3571.0403
3571.0301
3571.0204
320.44595
320.36669
320.97636
320.36992
320.48478
320.52911
320.53575
320.53595
320.54731
320.56497
320.36669
320.92732
320.6679
320.37623
320.50946
320.54919
320.5534
320.55625
320.55442
320.51723
320.97636
320.6679
320.80906
320.51887
320.63995
320.67432
320.67878
320.70174
320.73369
320.62474
320.36992
320.37623
320.51887
320.22062
320.33687
320.3667
320.36353
320.38675
320.46884
320.49191
320.48478
320.50946
320.63995
320.33687
320.45134
320.47945
320.46994
320.47592
320.52924
320.52197
320.52911
320.54919
320.67432
320.3667
320.47945
320.50775
320.49801
320.5017
320.54917
320.53085
320.53575
320.5534
320.67878
320.36353
320.46994
320.49801
320.48871
320.49277
320.54046
320.5224
320.53595
320.55625
320.70174
320.38675
320.47592
320.5017
320.49277
320.49779
320.54754
320.53479
320.54731
320.55442
320.73369
320.46884
320.52924
320.54917
320.54046
320.54754
320.60213
320.59474
320.56497
320.51723
320.62474
320.49191
320.52197
320.53085
320.5224
320.53479
320.59474
320.55523
583.30489
583.00163
583.694
582.93279
583.10551
583.16961
583.17832
583.18117
583.19935
583.31175
583.00163
583.6851
583.30102
582.9432
583.13625
583.19193
583.20125
583.22724
583.16381
583.1028
583.694
583.30102
583.41915
583.06063
583.23584
583.28105
583.28845
583.36829
583.40681
583.27098
582.93279
582.9432
583.06063
582.69104
582.8593
582.89589
582.88523
582.95673
583.06372
583.10868
583.10551
583.13625
583.23584
582.8593
583.02523
583.0592
583.03788
583.0815
583.14474
583.14558
583.16961
583.19193
583.28105
582.89589
583.0592
583.09356
583.07173
583.11138
583.16518
583.14997
583.17832
583.20125
583.28845
582.88523
583.03788
583.07173
583.05064
583.0911
583.14588
583.13526
583.18117
583.22724
583.36829
582.95673
583.0815
583.11138
583.0911
583.13414
583.19484
583.19971
583.19935
583.16381
583.40681
583.06372
583.14474
583.16518
583.14588
583.19484
583.26906
583.2612
583.31175
583.1028
583.27098
583.10868
583.14558
583.14997
583.13526
583.19971
583.2612
583.1964
853.4944
853.05438
853.90801
852.97175
853.19375
853.27494
853.28621
853.29775
853.28204
853.46104
853.05438
853.85299
853.39883
852.95628
853.20122
853.2688
853.28518
853.37112
853.24585
853.15919
853.90801
853.39883
853.55222
853.10827
853.33015
853.381
853.38749
853.55121
853.57311
853.37757
852.97175
852.95628
853.10827
852.65076
852.86386
852.90244
852.88102
853.0311
853.14461
853.18036
853.19375
853.20122
853.33015
852.86386
853.07414
853.10922
853.07269
853.18469
853.24103
853.22176
853.27494
853.2688
853.381
852.90244
853.10922
853.14483
853.10739
853.21366
853.25716
853.2186
853.28621
853.28518
853.38749
852.88102
853.07269
853.10739
853.07094
853.17861
853.22462
853.19863
853.29775
853.37112
853.55121
853.0311
853.18469
853.21366
853.17861
853.29151
853.35019
853.35425
853.28204
853.24585
853.57311
853.14461
853.24103
853.25716
853.22462
853.35019
853.43406
853.33491
853.46104
853.15919
853.37757
853.18036
853.22176
853.2186
853.19863
853.35425
853.33491
853.30478
1134.2516
1133.7242
1134.7516
1133.623
1133.8931
1133.9902
1134.0045
1134.0418
1134.0215
1134.2617
1133.7242
1134.6741
1134.1451
1133.6061
1133.902
1133.978
1133.9954
1134.1523
1133.9825
1133.8735
1134.7516
1134.1451
1134.3362
1133.7956
1134.0634
1134.1169
1134.1168
1134.378
1134.3981
1134.1429
1133.623
1133.6061
1133.7956
1133.239
1133.4962
1133.5337
1133.4957
1133.7394
1133.8771
1133.9068
1133.8931
1133.902
1134.0634
1133.4962
1133.75
1133.7831
1133.7253
1133.9205
1133.9876
1133.9516
1133.9902
1133.978
1134.1169
1133.5337
1133.7831
1133.8168
1133.7576
1133.9452
1133.996
1133.9382
1134.0045
1133.9954
1134.1168
1133.4957
1133.7253
1133.7576
1133.6996
1133.8893
1133.9451
1133.9117
1134.0418
1134.1523
1134.378
1133.7394
1133.9205
1133.9452
1133.8893
1134.0884
1134.1687
1134.1907
1134.0215
1133.9825
1134.3981
1133.8771
1133.9876
1133.996
1133.9451
1134.1687
1134.2985
1134.0626
1134.2617
1133.8735
1134.1429
1133.9068
1133.9516
1133.9382
1133.9117
1134.1907
1134.0626
1134.0687
1428.419
1427.8023
1429.0108
1427.675
1427.9947
1428.107
1428.1204
1428.1806
1428.1591
1428.4584
1427.8023
1428.9136
1428.3015
1427.6574
1428.0061
1428.0897
1428.1036
1428.3298
1428.1138
1427.9789
1429.0108
1428.3015
1428.5296
1427.8839
1428.1992
1428.2542
1428.2432
1428.6032
1428.6216
1428.302
1427.675
1427.6574
1427.8839
1427.2197
1427.5225
1427.5576
1427.4983
1427.8374
1428.0011
1428.0239
1427.9947
1428.0061
1428.1992
1427.5225
1427.8214
1427.8511
1427.7669
1428.0466
1428.1258
1428.0717
1428.107
1428.0897
1428.2542
1427.5576
1427.8511
1427.8816
1427.7953
1428.0653
1428.1245
1428.0459
1428.1204
1428.1036
1428.2432
1427.4983
1427.7669
1427.7953
1427.7102
1427.983
1428.0496
1428.0096
1428.1806
1428.3298
1428.6032
1427.8374
1428.0466
1428.0653
1427.983
1428.2695
1428.3751
1428.4257
1428.1591
1428.1138
1428.6216
1428.0011
1428.1258
1428.1245
1428.0496
1428.3751
1428.5666
1428.1823
1428.4584
1427.9789
1428.302
1428.0239
1428.0717
1428.0459
1428.0096
1428.4257
1428.1823
1428.2239
1738.1418
1737.4283
1738.8278
1737.2709
1737.6428
1737.7709
1737.7823
1737.8645
1737.8417
1738.2025
1737.4283
1738.709
1738.0078
1737.2511
1737.6556
1737.747
1737.7562
1738.0534
1737.7882
1737.6256
1738.8278
1738.0078
1738.2741
1737.5159
1737.8814
1737.938
1737.9146
1738.3771
1738.3937
1738.0057
1737.2709
1737.2511
1737.5159
1736.7364
1737.0875
1737.1201
1737.0373
1737.4754
1737.667
1737.6827
1737.6428
1737.6556
1737.8814
1737.0875
1737.4341
1737.4602
1737.3471
1737.7143
1737.8064
1737.7335
1737.7709
1737.747
1737.938
1737.1201
1737.4602
1737.487
1737.3712
1737.7264
1737.7945
1737.6943
1737.7823
1737.7562
1737.9146
1737.0373
1737.3471
1737.3712
1737.2565
1737.615
1737.693
1737.6462
1737.8645
1738.0534
1738.3771
1737.4754
1737.7143
1737.7264
1737.615
1737.9915
1738.1239
1738.2078
1737.8417
1737.7882
1738.3937
1737.667
1737.8064
1737.7945
1737.693
1738.1239
1738.3834
1737.8452
1738.2025
1737.6256
1738.0057
1737.6827
1737.7335
1737.6943
1737.6462
1738.2078
1737.8452
1737.9232
2064.8533
2064.0362
2065.6374
2063.8462
2064.2734
2064.4182
2064.4274
2064.5323
2064.5079
2064.9346
2064.0362
2065.4949
2064.6997
2063.8234
2064.287
2064.3868
2064.3912
2064.7627
2064.4453
2064.2536
2065.6374
2064.6997
2065.0065
2064.1287
2064.5474
2064.6058
2064.5694
2065.14
2065.1545
2064.6943
2063.8462
2063.8234
2064.1287
2063.2268
2063.6289
2063.659
2063.5514
2064.094
2064.3152
2064.3238
2064.2734
2064.287
2064.5474
2063.6289
2064.026
2064.0483
2063.9047
2064.3641
2064.47
2064.3776
2064.4182
2064.3868
2064.6058
2063.659
2064.0483
2064.0715
2063.9243
2064.3692
2064.4468
2064.3241
2064.4274
2064.3912
2064.5694
2063.5514
2063.9047
2063.9243
2063.7783
2064.2269
2064.3168
2064.2632
2064.5323
2064.7627
2065.14
2064.094
2064.3641
2064.3692
2064.2269
2064.698
2064.8584
2064.9785
2064.5079
2064.4453
2065.1545
2064.3152
2064.47
2064.4468
2064.3168
2064.8584
2065.1902
2064.4914
2064.9346
2064.2536
2064.6943
2064.3238
2064.3776
2064.3241
2064.2632
2064.9785
2064.4914
2064.6078
2409.1524
2408.2259
2410.0391
2408.0008
2408.4862
2408.649
2408.656
2408.7848
2408.7586
2409.2556
2408.2259
2409.8704
2408.9774
2407.9747
2408.5005
2408.6094
2408.6088
2409.0591
2408.6859
2408.4637
2410.0391
2408.9774
2409.327
2408.3229
2408.7978
2408.8581
2408.808
2409.4932
2409.5055
2408.9688
2408.0008
2407.9747
2408.3229
2407.2918
2407.7478
2407.7751
2407.6412
2408.2946
2408.5472
2408.5483
2408.4862
2408.5005
2408.7978
2407.7478
2408.1981
2408.2164
2408.0404
2408.5976
2408.7181
2408.6051
2408.649
2408.6094
2408.8581
2407.7751
2408.2164
2408.2356
2408.0553
2408.5953
2408.6828
2408.5363
2408.656
2408.6088
2408.808
2407.6412
2408.0404
2408.0553
2407.8761
2408.4201
2408.5226
2408.4619
2408.7848
2409.0591
2409.4932
2408.2946
2408.5976
2408.5953
2408.4201
2408.9916
2409.1813
2409.3399
2408.7586
2408.6859
2409.5055
2408.5472
2408.7181
2408.6828
2408.5226
2409.1813
2409.5895
2408.7215
2409.2556
2408.4637
2408.9688
2408.5483
2408.6051
2408.5363
2408.4619
2409.3399
2408.7215
2408.8787
2770.6767
2769.6354
2771.6696
2769.3728
2769.9195
2770.1011
2770.1059
2770.2602
2770.232
2770.8038
2769.6354
2771.4724
2770.4783
2769.3431
2769.9344
2770.0526
2770.0467
2770.5809
2770.1483
2769.8942
2771.6696
2770.4783
2770.8732
2769.7368
2770.2706
2770.3327
2770.2681
2771.0751
2771.0846
2770.4672
2769.3728
2769.3431
2769.7368
2768.5702
2769.0827
2769.1069
2768.9452
2769.7162
2770.0016
2769.9946
2769.9195
2769.9344
2770.2706
2769.0827
2769.5889
2769.6028
2769.3925
2770.0534
2770.1891
2770.0543
2770.1011
2770.0526
2770.3327
2769.1069
2769.6028
2769.6176
2769.4021
2770.0431
2770.1409
2769.9692
2770.1059
2770.0467
2770.2681
2768.9452
2769.3925
2769.4021
2769.1876
2769.8331
2769.9486
2769.8803
2770.2602
2770.5809
2771.0751
2769.7162
2770.0534
2770.0431
2769.8331
2770.5111
2770.7317
2770.9311
2770.232
2770.1483
2771.0846
2770.0016
2770.1891
2770.1409
2769.9486
2770.7317
2771.2204
2770.1733
2770.8038
2769.8942
2770.4672
2769.9946
2770.0543
2769.9692
2769.8803
2770.9311
2770.1733
2770.3742
3147.9896
3146.8289
3149.0914
3146.5267
3147.1373
3147.3385
3147.341
3147.5224
3147.4918
3148.143
3146.8289
3148.8631
3147.7659
3146.4933
3147.1528
3147.2805
3147.2688
3147.892
3147.3963
3147.109
3149.0914
3147.7659
3148.2085
3146.9346
3147.5297
3147.5934
3147.5133
3148.4493
3148.4554
3147.7532
3146.5267
3146.4933
3146.9346
3145.6274
3146.1987
3146.2193
3146.0279
3146.9236
3147.2429
3147.2267
3147.1373
3147.1528
3147.5297
3146.1987
3146.7631
3146.772
3146.525
3147.2961
3147.4473
3147.2892
3147.3385
3147.2805
3147.5934
3146.2193
3146.772
3146.7818
3146.5287
3147.2768
3147.385
3147.1865
3147.341
3147.2688
3147.5133
3146.0279
3146.525
3146.5287
3146.2767
3147.0298
3147.1586
3147.0823
3147.5224
3147.892
3148.4493
3146.9236
3147.2961
3147.2768
3147.0298
3147.8207
3148.0737
3148.3167
3147.4918
3147.3963
3148.4554
3147.2429
3147.4473
3147.385
3147.1586
3148.0737
3148.6474
3147.4102
3148.143
3147.109
3147.7532
3147.2267
3147.2892
3147.1865
3147.0823
3148.3167
3147.4102
3147.6583
3538.4892
3537.2057
3539.7011
3536.8616
3537.5385
3537.7599
3537.7597
3537.9699
3537.9368
3538.6713
3537.2057
3539.4389
3538.238
3536.8245
3537.5544
3537.6915
3537.6735
3538.3907
3537.8285
3537.5069
3539.7011
3538.238
3538.7304
3537.3155
3537.974
3538.0387
3537.9416
3539.0138
3539.0157
3538.2251
3536.8616
3536.8245
3537.3155
3535.864
3536.4961
3536.5122
3536.289
3537.3162
3537.6703
3537.6438
3537.5385
3537.5544
3537.974
3536.4961
3537.1206
3537.1235
3536.8376
3537.7249
3537.8916
3537.7086
3537.7599
3537.6915
3538.0387
3536.5122
3537.1235
3537.1274
3536.8344
3537.6956
3537.8139
3537.5871
3537.7597
3537.6735
3537.9416
3536.289
3536.8376
3536.8344
3536.5422
3537.409
3537.551
3537.4665
3537.9699
3538.3907
3539.0138
3537.3162
3537.7249
3537.6956
3537.409
3538.3192
3538.6057
3538.8952
3537.9368
3537.8285
3539.0157
3537.6703
3537.8916
3537.8139
3537.551
3538.6057
3539.2689
3537.8302
3538.6713
3537.5069
3538.2251
3537.6438
3537.7086
3537.5871
3537.4665
3538.8952
3537.8302
3538.1297
3938.3471
3936.9387
3939.6686
3936.5512
3937.2961
3937.538
3937.5347
3937.7751
3937.7393
3938.5607
3936.9387
3939.3698
3938.0665
3936.5105
3937.3124
3937.4586
3937.4333
3938.2492
3937.6172
3937.2607
3939.6686
3938.0665
3938.6104
3937.0528
3937.776
3937.841
3937.7255
3938.9401
3938.9369
3938.0549
3936.5512
3936.5105
3937.0528
3935.4553
3936.1495
3936.1602
3935.9028
3937.0676
3937.4567
3937.4186
3937.2961
3937.3124
3937.776
3936.1495
3936.8353
3936.8313
3936.5037
3937.5128
3937.6948
3937.4854
3937.538
3937.4586
3937.841
3936.1602
3936.8313
3936.8283
3936.4926
3937.4723
3937.6002
3937.3435
3937.5347
3937.4333
3937.7255
3935.9028
3936.5037
3936.4926
3936.1576
3937.1434
3937.2983
3937.2054
3937.7751
3938.2492
3938.9401
3937.0676
3937.5128
3937.4723
3937.1434
3938.1788
3938.4997
3938.8391
3937.7393
3937.6172
3938.9369
3937.4567
3937.6948
3937.6002
3937.2983
3938.4997
3939.2567
3937.6054
3938.5607
3937.2607
3938.0549
3937.4186
3937.4854
3937.3435
3937.2054
3938.8391
3937.6054
3937.9607
4342.489
4340.9552
4343.9174
4340.5232
4341.3371
4341.5995
4341.5926
4341.8645
4341.8256
4342.7367
4340.9552
4343.5794
4342.177
4340.4793
4341.354
4341.5085
4341.4748
4342.3935
4341.6888
4341.2973
4343.9174
4342.177
4342.7737
4341.0741
4341.8626
4341.9268
4341.791
4343.1536
4343.1439
4342.1687
4340.5232
4340.4793
4341.0741
4339.3311
4340.0881
4340.0921
4339.7981
4341.1056
4341.5291
4341.4782
4341.3371
4341.354
4341.8626
4340.0881
4340.8359
4340.8237
4340.4517
4341.5873
4341.7836
4341.5463
4341.5995
4341.5085
4341.9268
4340.0921
4340.8237
4340.8125
4340.4312
4341.5341
4341.6706
4341.3826
4341.5926
4341.4748
4341.791
4339.7981
4340.4517
4340.4312
4340.0506
4341.1601
4341.327
4341.2256
4341.8645
4342.3935
4343.1536
4341.1056
4341.5873
4341.5341
4341.1601
4342.3254
4342.6811
4343.074
4341.8256
4341.6888
4343.1439
4341.5291
4341.7836
4341.6706
4341.327
4342.6811
4343.5358
4341.6616
4342.7367
4341.2973
4342.1687
4341.4782
4341.5463
4341.3826
4341.2256
4343.074
4341.6616
4342.0778
4744.6261
4742.9685
4746.1567
4742.4916
4743.3747
4743.6572
4743.646
4743.9502
4743.908
4744.9105
4742.9685
4745.777
4744.2808
4742.445
4743.3924
4743.5543
4743.5106
4744.5352
4743.7556
4743.3294
4746.1567
4744.2808
4744.9311
4743.0928
4743.9466
4744.0088
4743.8505
4745.3649
4745.3474
4744.2784
4742.4916
4742.445
4743.0928
4741.2079
4742.0274
4742.0233
4741.6901
4743.1439
4743.6006
4743.5353
4743.3747
4743.3924
4743.9466
4742.0274
4742.8371
4742.8152
4742.396
4743.6615
4743.8706
4743.6041
4743.6572
4743.5543
4744.0088
4742.0233
4742.8152
4742.7944
4742.3648
4743.5939
4743.7375
4743.4171
4743.646
4743.5106
4743.8505
4741.6901
4742.396
4742.3648
4741.9356
4743.172
4743.3496
4743.2396
4743.9502
4744.5352
4745.3649
4743.1439
4743.6615
4743.5939
4743.172
4744.4708
4744.8609
4745.3109
4743.908
4743.7556
4745.3474
4743.6006
4743.8706
4743.7375
4743.3496
4744.8609
4745.8165
4743.7106
4744.9105
4743.3294
4744.2784
4743.5353
4743.6041
4743.4171
4743.2396
4745.3109
4743.7106
4744.1927
5137.348
5135.5704
5138.9736
5135.0492
5136.0009
5136.3027
5136.2862
5136.6232
5136.5773
5137.6717
5135.5704
5138.5502
5136.9682
5135.001
5136.0198
5136.1877
5136.1324
5137.2644
5136.4087
5135.9487
5138.9736
5136.9682
5137.6724
5135.7019
5136.6197
5136.6783
5136.4952
5138.1632
5138.1362
5136.9741
5135.0492
5135.001
5135.7019
5133.6814
5134.5624
5134.5486
5134.1734
5135.7751
5136.2626
5136.1816
5136.0009
5136.0198
5136.6197
5134.5624
5135.4328
5135.3996
5134.9304
5136.3272
5136.5472
5136.2504
5136.3027
5136.1877
5136.6783
5134.5486
5135.3996
5135.3675
5134.8867
5136.2436
5136.3921
5136.0385
5136.2862
5136.1324
5136.4952
5134.1734
5134.9304
5134.8867
5134.4062
5135.7708
5135.9572
5135.8389
5136.6232
5137.2644
5138.1632
5135.7751
5136.3272
5136.2436
5135.7708
5137.2048
5137.6284
5138.1391
5136.5773
5136.4087
5138.1362
5136.2626
5136.5472
5136.3921
5135.9572
5137.6284
5138.6872
5136.3427
5137.6717
5135.9487
5136.9741
5136.1816
5136.2504
5136.0385
5135.8389
5138.1391
5136.3427
5136.8962
5512.2835
5510.3924
5513.9948
5509.8285
5510.847
5511.1669
5511.144
5511.5136
5511.4634
5512.6488
5510.3924
5513.5262
5511.8687
5509.7802
5510.8681
5511.0402
5510.9711
5512.2106
5511.2782
5510.7862
5513.9948
5511.8687
5512.6264
5510.5333
5511.5129
5511.5661
5511.3557
5513.1766
5513.1382
5511.8857
5509.8285
5509.7802
5510.5333
5508.3872
5509.3274
5509.3021
5508.8824
5510.631
5511.1461
5511.0478
5510.847
5510.8681
5511.5129
5509.3274
5510.2564
5510.2102
5509.6883
5511.2158
5511.4439
5511.1157
5511.1669
5511.0402
5511.5661
5509.3021
5510.2102
5510.1651
5509.6304
5511.1143
5511.2651
5510.8776
5511.144
5510.9711
5511.3557
5508.8824
5509.6883
5509.6304
5509.0957
5510.5879
5510.7803
5510.6542
5511.5136
5512.2106
5513.1766
5510.631
5511.2158
5511.1143
5510.5879
5512.1564
5512.6117
5513.1864
5511.4634
5511.2782
5513.1382
5511.1461
5511.4439
5511.2651
5510.7803
5512.6117
5513.7746
5511.1876
5512.6488
5510.7862
5511.8857
5511.0478
5511.1157
5510.8776
5510.6542
5513.1864
5511.1876
5511.8176
5860.3315
5858.3359
5862.1167
5857.7324
5858.8147
5859.1509
5859.1204
5859.5215
5859.4665
5860.7402
5858.3359
5861.6022
5859.8823
5857.6861
5858.8391
5859.0133
5858.9281
5860.2732
5859.2647
5858.7429
5862.1167
5859.8823
5860.6921
5858.4898
5859.5276
5859.5734
5859.3328
5861.3032
5861.2514
5859.9126
5857.7324
5857.6861
5858.4898
5856.2313
5857.2274
5857.1887
5856.7217
5858.6136
5859.152
5859.035
5858.8147
5858.8391
5859.5276
5857.2274
5858.2117
5858.1506
5857.5736
5859.2284
5859.4612
5859.101
5859.1509
5859.0133
5859.5734
5857.1887
5858.1506
5858.0906
5857.4995
5859.1072
5859.257
5858.8353
5859.1204
5858.9281
5859.3328
5856.7217
5857.5736
5857.4995
5856.9082
5858.5246
5858.7198
5858.5861
5859.5215
5860.2732
5861.3032
5858.6136
5859.2284
5859.1072
5858.5246
5860.2244
5860.7086
5861.3503
5859.4665
5859.2647
5861.2514
5859.152
5859.4612
5859.257
5858.7198
5860.7086
5861.9751
5859.145
5860.7402
5858.7429
5859.9126
5859.035
5859.101
5858.8353
5858.5861
5861.3503
5859.145
5859.8563
6171.9587
6169.8709
6173.8044
6169.2322
6170.3739
6170.7242
6170.6845
6171.1155
6171.055
6172.4123
6169.8709
6173.2443
6171.4775
6169.1905
6170.4034
6170.5772
6170.4734
6171.9197
6170.837
6170.2883
6173.8044
6171.4775
6172.3374
6170.0423
6171.1336
6171.1697
6170.8962
6173.0093
6172.9419
6171.5228
6169.2322
6169.1905
6170.0423
6167.6885
6168.7359
6168.6817
6168.165
6170.1931
6170.7494
6170.6122
6170.3739
6170.4034
6171.1336
6168.7359
6169.771
6169.693
6169.0586
6170.8347
6171.068
6170.6753
6170.7242
6170.5772
6171.1697
6168.6817
6169.693
6169.6161
6168.9665
6170.6919
6170.8367
6170.381
6170.6845
6170.4734
6170.8962
6168.165
6169.0586
6168.9665
6168.3163
6170.0508
6170.2448
6170.1041
6171.1155
6171.9197
6173.0093
6170.1931
6170.8347
6170.6919
6170.0508
6171.8757
6172.385
6173.096
6171.055
6170.837
6172.9419
6170.7494
6171.068
6170.8367
6170.2448
6172.385
6173.7527
6170.683
6172.4123
6170.2883
6171.5228
6170.6122
6170.6753
6170.381
6170.1041
6173.096
6170.683
6171.4798
6437.5569
6435.392
6439.4477
6434.724
6435.9196
6436.2811
6436.2307
6436.6889
6436.6219
6438.0563
6435.392
6438.8438
6437.0479
6434.6905
6435.9567
6436.1273
6436.002
6437.5426
6436.3889
6435.8168
6439.4477
6437.0479
6437.9549
6435.5871
6436.7258
6436.7498
6436.4405
6438.6859
6438.6006
6437.1089
6434.724
6434.6905
6435.5871
6433.1581
6434.2509
6434.1793
6433.6107
6435.7646
6436.3323
6436.1733
6435.9196
6435.9567
6436.7258
6434.2509
6435.331
6435.2342
6434.5409
6436.4288
6436.6577
6436.2324
6436.2811
6436.1273
6436.7498
6434.1793
6435.2342
6435.1386
6434.4287
6436.2627
6436.3979
6435.9085
6436.2307
6436.002
6436.4405
6433.6107
6434.5409
6434.4287
6433.7179
6435.5613
6435.7495
6435.602
6436.6889
6437.5426
6438.6859
6435.7646
6436.4288
6436.2627
6435.5613
6437.5018
6438.0314
6438.813
6436.6219
6436.3889
6438.6006
6436.3323
6436.6577
6436.3979
6435.7495
6438.0314
6439.4961
6436.1946
6438.0563
6435.8168
6437.1089
6436.1733
6436.2324
6435.9085
6435.602
6438.813
6436.1946
6437.0799
6647.8413
6645.6176
6649.7609
6644.9278
6646.1701
6646.5396
6646.4767
6646.9583
6646.884
6648.3865
6645.6176
6649.1163
6647.3112
6644.9068
6646.218
6646.3822
6646.2324
6647.858
6646.6379
6646.0461
6649.7609
6647.3112
6648.2614
6645.8438
6647.0223
6647.0318
6646.6839
6649.0477
6648.9419
6647.3872
6644.9278
6644.9068
6645.8438
6643.363
6644.494
6644.4029
6643.7807
6646.0464
6646.6179
6646.4356
6646.1701
6646.218
6647.0223
6644.494
6645.6121
6645.4946
6644.7412
6646.7284
6646.9474
6646.4895
6646.5396
6646.3822
6647.0318
6644.4029
6645.4946
6645.3783
6644.6071
6646.5373
6646.658
6646.1355
6646.4767
6646.2324
6646.6839
6643.7807
6644.7412
6644.6071
6643.8346
6645.7744
6645.9515
6645.7975
6646.9583
6647.858
6649.0477
6646.0464
6646.7284
6646.5373
6645.7744
6647.8177
6648.3617
6649.2141
6646.884
6646.6379
6648.9419
6646.6179
6646.9474
6646.658
6645.9515
6648.3617
6649.917
6646.3963
6648.3865
6646.0461
6647.3872
6646.4356
6646.4895
6646.1355
6645.7975
6649.2141
6646.3963
6647.372
6794.27
6792.0088
6796.2013
6791.3061
6792.5865
6792.9602
6792.883
6793.3835
6793.3008
6794.8603
6792.0088
6795.521
6793.7283
6791.3027
6792.6492
6792.8036
6792.6265
6794.3249
6793.0443
6792.4368
6796.2013
6793.7283
6794.7167
6792.2748
6793.4844
6793.4767
6793.0877
6795.5522
6795.4235
6793.8165
6791.3061
6791.3027
6792.2748
6789.7682
6790.929
6790.8165
6790.1396
6792.4994
6793.0662
6792.8589
6792.5865
6792.6492
6793.4844
6790.929
6792.0766
6791.9367
6791.1229
6793.1936
6793.3967
6792.9064
6792.9602
6792.8036
6793.4767
6790.8165
6791.9367
6791.798
6790.9653
6792.9761
6793.0769
6792.5222
6792.883
6792.6265
6793.0877
6790.1396
6791.1229
6790.9653
6790.1307
6792.1512
6792.3116
6792.1511
6793.3835
6794.3249
6795.5522
6792.4994
6793.1936
6792.9761
6792.1512
6794.2813
6794.8328
6795.7546
6793.3008
6793.0443
6795.4235
6793.0662
6793.3967
6793.0769
6792.3116
6794.8328
6796.47
6792.7477
6794.8603
6792.4368
6793.8165
6792.8589
6792.9064
6792.5222
6792.1511
6795.7546
6792.7477
6793.8138
6869.4571
6867.1829
6871.3831
6866.4773
6867.7857
6868.1594
6868.066
6868.58
6868.4876
6870.0907
6867.1829
6870.6741
6868.9165
6866.4975
6867.8678
6868.0091
6867.8017
6869.5583
6868.2246
6867.6053
6871.3831
6868.9165
6869.937
6867.4983
6868.7287
6868.7014
6868.2693
6870.8132
6870.6592
6869.0119
6866.4773
6866.4975
6867.4983
6864.9939
6866.1746
6866.039
6865.3071
6867.74
6868.293
6868.0587
6867.7857
6867.8678
6868.7287
6866.1746
6867.3422
6867.1784
6866.3047
6868.4401
6868.621
6868.0986
6868.1594
6868.0091
6868.7014
6866.039
6867.1784
6867.0157
6866.1222
6868.1952
6868.2705
6867.6846
6868.066
6867.8017
6868.2693
6865.3071
6866.3047
6866.1222
6865.2263
6867.3089
6867.4464
6867.2791
6868.58
6869.5583
6870.8132
6867.74
6868.4401
6868.1952
6867.3089
6869.5063
6870.0577
6871.0459
6868.4876
6868.2246
6870.6592
6868.293
6868.621
6868.2705
6867.4464
6870.0577
6871.7659
6867.8644
6870.0907
6867.6053
6869.0119
6868.0587
6868.0986
6867.6846
6867.2791
6871.0459
6867.8644
6869.0189
6867.5513
6865.291
6869.4557
6864.5937
6865.9187
6866.2877
6866.1765
6866.6975
6866.5943
6868.2255
6865.291
6868.7268
6867.0275
6864.644
6866.0255
6866.1499
6865.9098
6867.7076
6866.3294
6865.7023
6869.4557
6867.0275
6868.0729
6865.6661
6866.9059
6866.8567
6866.38
6868.9789
6868.7971
6867.1226
6864.5937
6864.644
6865.6661
6863.1933
6864.383
6864.2228
6863.4366
6865.9185
6866.448
6866.1847
6865.9187
6866.0255
6866.9059
6864.383
6865.5596
6865.3707
6864.4391
6866.6175
6866.7699
6866.2157
6866.2877
6866.1499
6866.8567
6864.2228
6865.3707
6865.183
6864.2306
6866.3446
6866.3887
6865.7729
6866.1765
6865.9098
6866.38
6863.4366
6864.4391
6864.2306
6863.2752
6865.3985
6865.5072
6865.3321
6866.6975
6867.7076
6868.9789
6865.9185
6866.6175
6866.3446
6865.3985
6867.6412
6868.1841
6869.2337
6866.5943
6866.3294
6868.7971
6866.448
6866.7699
6866.3887
6865.5072
6868.1841
6869.9501
6865.8968
6868.2255
6865.7023
6867.1226
6866.1847
6866.2157
6865.7729
6865.3321
6869.2337
6865.8968
6867.1352
6784.5516
6782.3344
6786.4187
6781.6569
6782.9855
6783.345
6783.2144
6783.7356
6783.6204
6785.2622
6782.3344
6785.6808
6784.0631
6781.7442
6783.1229
6783.227
6782.952
6784.7717
6783.3591
6782.7279
6786.4187
6784.0631
6785.1249
6782.7791
6784.0157
6783.9426
6783.4206
6786.0474
6785.8357
6784.1475
6781.6569
6781.7442
6782.7791
6780.3676
6781.5542
6781.3684
6780.5298
6783.0341
6783.5304
6783.2359
6782.9855
6783.1229
6784.0157
6781.5542
6782.728
6782.5133
6781.527
6783.7245
6783.842
6783.2568
6783.345
6783.227
6783.9426
6781.3684
6782.5133
6782.2997
6781.2919
6783.4235
6783.4311
6782.7867
6783.2144
6782.952
6783.4206
6780.5298
6781.527
6781.2919
6780.2803
6782.4207
6782.4946
6782.3106
6783.7356
6784.7717
6786.0474
6783.0341
6783.7245
6783.4235
6782.4207
6784.6841
6785.2098
6786.3136
6783.6204
6783.3591
6785.8357
6783.5304
6783.842
6783.4311
6782.4946
6785.2098
6787.0185
6782.8451
6785.2622
6782.7279
6784.1475
6783.2359
6783.2568
6782.7867
6782.3106
6786.3136
6782.8451
6784.1602
6618.5351
6616.3919
6620.3509
6615.7459
6617.0641
6617.4088
6617.2577
6617.7717
6617.6434
6619.2769
6616.3919
6619.6168
6618.1027
6615.8768
6617.2376
6617.3181
6617.0069
6618.828
6617.3922
6616.76
6620.3509
6618.1027
6619.1713
6616.9152
6618.1349
6618.0363
6617.4695
6620.0947
6619.8517
6618.1635
6615.7459
6615.8768
6616.9152
6614.5944
6615.7648
6615.5529
6614.6653
6617.1635
6617.6168
6617.2891
6617.0641
6617.2376
6618.1349
6615.7648
6616.9229
6616.6822
6615.6459
6617.8371
6617.914
6617.2987
6617.4088
6617.3181
6618.0363
6615.5529
6616.6822
6616.4426
6615.3841
6617.5085
6617.4749
6616.8036
6617.2577
6617.0069
6617.4695
6614.6653
6615.6459
6615.3841
6614.3212
6616.4537
6616.4875
6616.2929
6617.7717
6618.828
6620.0947
6617.1635
6617.8371
6617.5085
6616.4537
6618.7117
6619.2113
6620.3602
6617.6434
6617.3922
6619.8517
6617.6168
6617.914
6617.4749
6616.4875
6619.2113
6621.0458
6616.7878
6619.2769
6616.76
6618.1635
6617.2891
6617.2987
6616.8036
6616.2929
6620.3602
6616.7878
6618.17
6369.7817
6367.7439
6371.5333
6367.1406
6368.4332
6368.7581
6368.5856
6369.0848
6368.9428
6370.5476
6367.7439
6370.817
6369.4272
6367.3213
6368.6481
6368.702
6368.3542
6370.1549
6368.7083
6368.0779
6371.5333
6369.4272
6370.4917
6368.3525
6369.541
6369.4157
6368.8059
6371.399
6371.1235
6369.4495
6367.1406
6367.3213
6368.3525
6366.1504
6367.2909
6367.0531
6366.1213
6368.5839
6368.9852
6368.6224
6368.4332
6368.6481
6369.541
6367.2909
6368.4197
6368.1535
6367.0736
6369.2323
6369.2637
6368.6197
6368.7581
6368.702
6369.4157
6367.0531
6368.1535
6367.8882
6366.7858
6368.8773
6368.7986
6368.1026
6368.5856
6368.3542
6368.8059
6366.1213
6367.0736
6366.7858
6365.6782
6367.777
6367.766
6367.5592
6369.0848
6370.1549
6371.399
6368.5839
6369.2323
6368.8773
6367.777
6370.0024
6370.4674
6371.6503
6368.9428
6368.7083
6371.1235
6368.9852
6369.2637
6368.7986
6367.766
6370.4674
6372.3094
6368.0058
6370.5476
6368.0779
6369.4495
6368.6224
6368.6197
6368.1026
6367.5592
6371.6503
6368.0058
6369.4426
6040.7834
6038.8826
6042.4594
6038.3319
6039.5828
6039.8829
6039.6889
6040.166
6040.0098
6041.565
6038.8826
6041.7759
6040.5286
6038.5671
6039.8434
6039.8681
6039.4844
6041.2427
6039.7988
6039.1729
6042.4594
6040.5286
6041.5769
6039.5796
6040.722
6040.5696
6039.9199
6042.4498
6042.1417
6040.496
6038.3319
6038.5671
6039.5796
6037.5221
6038.6185
6038.3554
6037.3862
6039.7835
6040.1248
6039.7257
6039.5828
6039.8434
6040.722
6038.6185
6039.7038
6039.4132
6038.2981
6040.398
6040.3803
6039.7096
6039.8829
6039.8681
6040.5696
6038.3554
6039.4132
6039.1233
6037.9856
6040.0186
6039.8923
6039.1745
6039.6889
6039.4844
6039.9199
6037.3862
6038.2981
6037.9856
6036.8418
6038.8811
6038.822
6038.6014
6040.166
6041.2427
6042.4498
6039.7835
6040.398
6040.0186
6038.8811
6041.0468
6041.4694
6042.6735
6040.0098
6039.7988
6042.1417
6040.1248
6040.3803
6039.8923
6038.822
6041.4694
6043.2996
6038.9922
6041.565
6039.1729
6040.496
6039.7257
6039.7096
6039.1745
6038.6014
6042.6735
6038.9922
6040.4687
5636.143
5634.4092
5637.733
5633.9195
5635.1122
5635.3826
5635.1675
5635.6156
5635.4455
5636.93
5634.4092
5637.0972
5636.0077
5634.2119
5635.4205
5635.4143
5634.9966
5636.6909
5635.264
5634.6453
5637.733
5636.0077
5637.0265
5635.1932
5636.2743
5636.0949
5635.4103
5637.8466
5637.5067
5635.9034
5633.9195
5634.2119
5635.1932
5633.3032
5634.3408
5634.054
5633.056
5635.3592
5635.6341
5635.1983
5635.1122
5635.4205
5636.2743
5634.3408
5635.3683
5635.0551
5633.9151
5635.931
5635.862
5635.1679
5635.3826
5635.4143
5636.0949
5634.054
5635.0551
5634.7427
5633.58
5635.5301
5635.3553
5634.6196
5635.1675
5634.9966
5635.4103
5633.056
5633.9151
5633.58
5632.4105
5634.3656
5634.2567
5634.0213
5635.6156
5636.6909
5637.8466
5635.3592
5635.931
5635.5301
5634.3656
5636.4454
5636.819
5638.0303
5635.4455
5635.264
5637.5067
5635.6341
5635.862
5635.3553
5634.2567
5636.819
5638.6178
5634.3502
5636.93
5634.6453
5635.9034
5635.1983
5635.1679
5634.6196
5634.0213
5638.0303
5634.3502
5635.8496
5162.3691
5160.8301
5163.8632
5160.4074
5161.5251
5161.7612
5161.5265
5161.9395
5161.7563
5163.1499
5160.8301
5163.2896
5162.3696
5160.7568
5161.8809
5161.8425
5161.3943
5163.0041
5161.6095
5161.0011
5163.8632
5162.3696
5163.3444
5161.6934
5162.6981
5162.4928
5161.7799
5164.0936
5163.7243
5162.1777
5160.4074
5160.7568
5161.6934
5159.9903
5160.9546
5160.6466
5159.6302
5161.8123
5162.0163
5161.5449
5161.5251
5161.8809