/*--------------------------------*- C++ -*----------------------------------*\
| =========                 |                                                 |
| \\      /  F ield         | OpenFOAM: The Open Source CFD Toolbox           |
|  \\    /   O peration     | Version:  v2106                                 |
|   \\  /    A nd           | Website:  www.openfoam.com                      |
|    \\/     M anipulation  |                                                 |
\*---------------------------------------------------------------------------*/
FoamFile
{
    version     2.0;
    format      ascii;
    arch        "LSB;label=32;scalar=64";
    class       volScalarField;
    location    "7.5";
    object      T;
}
// * * * * * * * * * * * * * * * * * * * * * * * * * * * * * * * * * * * * * //

dimensions      [0 0 0 1 0 0 0];

internalField   nonuniform List<scalar> 
4000
(
273.18199
273.18199
273.18199
273.18199
273.18199
273.18199
273.18199
273.18199
273.18199
273.18199
273.18199
273.18198
273.18199
273.18199
273.18199
273.18199
273.18199
273.18199
273.18199
273.18199
273.18199
273.18199
273.18199
273.18199
273.18199
273.18199
273.18199
273.18199
273.18199
273.18199
273.18199
273.18199
273.18199
273.182
273.182
273.182
273.18199
273.18199
273.18199
273.18199
273.18199
273.18199
273.18199
273.182
273.182
273.182
273.18199
273.18199
273.18199
273.18199
273.18199
273.18199
273.18199
273.182
273.182
273.18199
273.18199
273.18199
273.18199
273.18199
273.18199
273.18199
273.18199
273.18199
273.18199
273.18199
273.18199
273.18199
273.18199
273.18199
273.18199
273.18199
273.18199
273.18199
273.18199
273.18199
273.18199
273.18199
273.18199
273.18199
273.18199
273.18199
273.18199
273.18199
273.18199
273.18199
273.18199
273.18199
273.18199
273.18199
273.18199
273.18199
273.18199
273.18199
273.18199
273.18199
273.18199
273.18199
273.18199
273.18199
273.90307
273.90307
273.90306
273.90308
273.90309
273.90308
273.90308
273.90307
273.90307
273.90307
273.90307
273.90306
273.90307
273.90309
273.90309
273.90308
273.90308
273.90307
273.90307
273.90307
273.90306
273.90307
273.90307
273.90309
273.90309
273.90309
273.90308
273.90307
273.90307
273.90307
273.90308
273.90309
273.90309
273.9031
273.90311
273.9031
273.9031
273.90309
273.90308
273.90308
273.90309
273.90309
273.90309
273.90311
273.90311
273.9031
273.9031
273.90309
273.90308
273.90308
273.90308
273.90308
273.90309
273.9031
273.9031
273.9031
273.9031
273.90309
273.90308
273.90308
273.90308
273.90308
273.90308
273.9031
273.9031
273.9031
273.90309
273.90308
273.90308
273.90308
273.90307
273.90307
273.90307
273.90309
273.90309
273.90309
273.90308
273.90308
273.90307
273.90307
273.90307
273.90307
273.90307
273.90308
273.90308
273.90308
273.90308
273.90307
273.90307
273.90306
273.90307
273.90307
273.90307
273.90308
273.90308
273.90308
273.90308
273.90307
273.90306
273.90306
274.65619
274.6562
274.65619
274.65623
274.65623
274.65623
274.65622
274.65621
274.6562
274.6562
274.6562
274.65619
274.6562
274.65623
274.65623
274.65623
274.65622
274.65621
274.65621
274.6562
274.65619
274.6562
274.65622
274.65624
274.65624
274.65624
274.65623
274.65621
274.65621
274.65621
274.65623
274.65623
274.65624
274.65627
274.65627
274.65626
274.65625
274.65624
274.65622
274.65622
274.65623
274.65623
274.65624
274.65627
274.65627
274.65626
274.65625
274.65624
274.65623
274.65622
274.65623
274.65623
274.65624
274.65626
274.65626
274.65626
274.65625
274.65624
274.65623
274.65622
274.65622
274.65622
274.65623
274.65625
274.65625
274.65625
274.65624
274.65623
274.65622
274.65621
274.65621
274.65621
274.65621
274.65624
274.65624
274.65624
274.65623
274.65622
274.65621
274.6562
274.6562
274.65621
274.65621
274.65622
274.65623
274.65623
274.65622
274.65621
274.65619
274.65619
274.6562
274.6562
274.65621
274.65622
274.65622
274.65622
274.65621
274.6562
274.65619
274.65619
275.46764
275.46765
275.46764
275.46769
275.46769
275.46769
275.46767
275.46766
275.46765
275.46764
275.46765
275.46764
275.46766
275.4677
275.4677
275.46769
275.46768
275.46766
275.46766
275.46765
275.46764
275.46766
275.46768
275.46771
275.46771
275.4677
275.46769
275.46767
275.46766
275.46766
275.46769
275.4677
275.46771
275.46774
275.46774
275.46774
275.46772
275.4677
275.46768
275.46767
275.46769
275.4677
275.46771
275.46774
275.46775
275.46774
275.46773
275.4677
275.46769
275.46768
275.46769
275.46769
275.4677
275.46774
275.46774
275.46773
275.46772
275.4677
275.46768
275.46768
275.46767
275.46768
275.46769
275.46772
275.46773
275.46772
275.46771
275.46769
275.46767
275.46767
275.46766
275.46766
275.46767
275.4677
275.4677
275.4677
275.46769
275.46767
275.46765
275.46765
275.46765
275.46766
275.46766
275.46768
275.46769
275.46768
275.46767
275.46765
275.46764
275.46763
275.46764
275.46765
275.46766
275.46767
275.46768
275.46768
275.46767
275.46765
275.46763
275.46763
276.36441
276.36442
276.36442
276.36447
276.36448
276.36447
276.36446
276.36444
276.36442
276.36441
276.36442
276.36441
276.36444
276.36449
276.36449
276.36448
276.36446
276.36444
276.36443
276.36443
276.36442
276.36444
276.36446
276.3645
276.36451
276.3645
276.36448
276.36445
276.36443
276.36443
276.36447
276.36449
276.3645
276.36454
276.36455
276.36454
276.36452
276.36449
276.36446
276.36445
276.36448
276.36449
276.36451
276.36455
276.36455
276.36454
276.36452
276.36449
276.36447
276.36446
276.36447
276.36448
276.3645
276.36454
276.36454
276.36453
276.36452
276.36449
276.36446
276.36445
276.36446
276.36446
276.36448
276.36452
276.36452
276.36452
276.3645
276.36447
276.36445
276.36444
276.36444
276.36444
276.36445
276.36449
276.36449
276.36449
276.36447
276.36444
276.36442
276.36441
276.36442
276.36443
276.36443
276.36446
276.36447
276.36446
276.36445
276.36442
276.3644
276.3644
276.36441
276.36443
276.36443
276.36445
276.36446
276.36445
276.36444
276.36441
276.3644
276.36439
277.37458
277.3746
277.37459
277.37466
277.37467
277.37466
277.37464
277.37461
277.37459
277.37457
277.3746
277.37459
277.37462
277.37467
277.37468
277.37467
277.37464
277.37461
277.3746
277.37459
277.37459
277.37462
277.37465
277.3747
277.3747
277.37469
277.37466
277.37462
277.3746
277.3746
277.37466
277.37467
277.3747
277.37474
277.37474
277.37473
277.37471
277.37467
277.37464
277.37463
277.37467
277.37468
277.3747
277.37474
277.37475
277.37474
277.37472
277.37468
277.37465
277.37463
277.37466
277.37467
277.37469
277.37473
277.37474
277.37473
277.37471
277.37467
277.37464
277.37463
277.37464
277.37464
277.37466
277.37471
277.37472
277.37471
277.37469
277.37465
277.37462
277.37461
277.37461
277.37461
277.37462
277.37467
277.37468
277.37467
277.37465
277.37461
277.37458
277.37457
277.37459
277.3746
277.3746
277.37464
277.37465
277.37464
277.37462
277.37458
277.37456
277.37455
277.37457
277.37459
277.3746
277.37463
277.37463
277.37463
277.37461
277.37457
277.37455
277.37455
278.52756
278.52758
278.52758
278.52765
278.52766
278.52765
278.52762
278.52759
278.52757
278.52755
278.52758
278.52757
278.52761
278.52767
278.52767
278.52766
278.52763
278.52759
278.52758
278.52757
278.52758
278.52761
278.52764
278.52769
278.5277
278.52768
278.52765
278.52761
278.52758
278.52758
278.52765
278.52767
278.52769
278.52775
278.52775
278.52774
278.52771
278.52766
278.52762
278.52761
278.52766
278.52767
278.5277
278.52775
278.52776
278.52775
278.52772
278.52767
278.52763
278.52762
278.52765
278.52766
278.52768
278.52774
278.52775
278.52773
278.52771
278.52766
278.52763
278.52761
278.52762
278.52763
278.52765
278.52771
278.52772
278.52771
278.52769
278.52764
278.5276
278.52759
278.52759
278.52759
278.52761
278.52766
278.52767
278.52766
278.52764
278.52759
278.52755
278.52754
278.52757
278.52758
278.52758
278.52762
278.52763
278.52763
278.5276
278.52755
278.52752
278.52752
278.52755
278.52757
278.52758
278.52761
278.52762
278.52761
278.52759
278.52754
278.52752
278.52751
279.85431
279.85433
279.85433
279.85442
279.85443
279.85441
279.85439
279.85435
279.85432
279.85429
279.85433
279.85432
279.85437
279.85444
279.85445
279.85443
279.8544
279.85435
279.85433
279.85432
279.85433
279.85437
279.8544
279.85447
279.85447
279.85446
279.85442
279.85436
279.85433
279.85433
279.85442
279.85444
279.85447
279.85453
279.85454
279.85452
279.85449
279.85443
279.85438
279.85437
279.85443
279.85445
279.85447
279.85454
279.85454
279.85453
279.8545
279.85444
279.85439
279.85438
279.85441
279.85443
279.85446
279.85452
279.85453
279.85452
279.85449
279.85443
279.85439
279.85437
279.85439
279.8544
279.85442
279.85449
279.8545
279.85449
279.85446
279.8544
279.85436
279.85434
279.85435
279.85435
279.85436
279.85443
279.85444
279.85443
279.8544
279.85434
279.8543
279.85428
279.85432
279.85433
279.85433
279.85438
279.85439
279.85439
279.85436
279.8543
279.85426
279.85426
279.85429
279.85432
279.85433
279.85437
279.85438
279.85437
279.85434
279.85428
279.85426
279.85425
281.3875
281.38753
281.38753
281.38763
281.38764
281.38762
281.38759
281.38754
281.38751
281.38748
281.38753
281.38752
281.38757
281.38765
281.38766
281.38764
281.3876
281.38755
281.38752
281.38751
281.38753
281.38757
281.38761
281.38769
281.38769
281.38767
281.38763
281.38756
281.38752
281.38752
281.38763
281.38765
281.38769
281.38776
281.38776
281.38775
281.38771
281.38763
281.38758
281.38756
281.38764
281.38766
281.38769
281.38776
281.38777
281.38775
281.38772
281.38765
281.3876
281.38758
281.38762
281.38764
281.38767
281.38775
281.38775
281.38774
281.38771
281.38764
281.38759
281.38757
281.38759
281.3876
281.38763
281.38771
281.38772
281.38771
281.38768
281.38761
281.38755
281.38753
281.38754
281.38755
281.38756
281.38763
281.38765
281.38764
281.38761
281.38753
281.38748
281.38746
281.38751
281.38752
281.38752
281.38758
281.3876
281.38759
281.38755
281.38748
281.38743
281.38743
281.38748
281.38751
281.38752
281.38756
281.38758
281.38757
281.38753
281.38746
281.38743
281.38742
283.16156
283.16159
283.16159
283.1617
283.16171
283.16169
283.16165
283.1616
283.16156
283.16153
283.16159
283.16158
283.16163
283.16173
283.16173
283.16171
283.16167
283.16161
283.16158
283.16157
283.16159
283.16163
283.16168
283.16176
283.16177
283.16175
283.1617
283.16162
283.16158
283.16158
283.1617
283.16173
283.16176
283.16185
283.16185
283.16183
283.16179
283.1617
283.16164
283.16162
283.16171
283.16173
283.16177
283.16185
283.16186
283.16184
283.1618
283.16172
283.16166
283.16164
283.16169
283.16171
283.16175
283.16183
283.16184
283.16183
283.16179
283.16171
283.16165
283.16163
283.16165
283.16167
283.1617
283.16179
283.1618
283.16179
283.16175
283.16167
283.16161
283.16159
283.1616
283.16161
283.16162
283.1617
283.16172
283.16171
283.16167
283.16159
283.16153
283.1615
283.16156
283.16158
283.16158
283.16164
283.16166
283.16165
283.16161
283.16153
283.16147
283.16147
283.16153
283.16157
283.16158
283.16162
283.16164
283.16163
283.16159
283.1615
283.16147
283.16146
285.21262
285.21266
285.21265
285.21278
285.2128
285.21277
285.21273
285.21267
285.21262
285.21258
285.21266
285.21264
285.2127
285.21281
285.21282
285.21279
285.21275
285.21267
285.21264
285.21263
285.21265
285.2127
285.21276
285.21285
285.21286
285.21283
285.21278
285.21269
285.21264
285.21264
285.21278
285.21281
285.21285
285.21294
285.21295
285.21293
285.21288
285.21278
285.21271
285.21269
285.2128
285.21282
285.21286
285.21295
285.21296
285.21294
285.2129
285.2128
285.21273
285.21271
285.21277
285.21279
285.21283
285.21293
285.21294
285.21293
285.21288
285.21279
285.21272
285.2127
285.21273
285.21275
285.21278
285.21288
285.2129
285.21288
285.21284
285.21275
285.21268
285.21265
285.21267
285.21267
285.21269
285.21278
285.2128
285.21279
285.21275
285.21265
285.21258
285.21255
285.21262
285.21264
285.21264
285.21271
285.21273
285.21272
285.21268
285.21258
285.21252
285.21252
285.21258
285.21263
285.21264
285.21269
285.21271
285.2127
285.21265
285.21255
285.21252
285.2125
287.57842
287.57845
287.57845
287.57859
287.57861
287.57858
287.57853
287.57847
287.57842
287.57837
287.57845
287.57844
287.57851
287.57863
287.57864
287.57861
287.57855
287.57847
287.57843
287.57842
287.57845
287.57851
287.57857
287.57867
287.57868
287.57865
287.57859
287.57849
287.57844
287.57843
287.57859
287.57863
287.57867
287.57877
287.57878
287.57876
287.5787
287.57859
287.57851
287.57849
287.57861
287.57864
287.57868
287.57878
287.57879
287.57877
287.57872
287.57861
287.57854
287.57851
287.57858
287.57861
287.57865
287.57876
287.57877
287.57876
287.57871
287.5786
287.57853
287.5785
287.57853
287.57855
287.57859
287.5787
287.57872
287.57871
287.57866
287.57855
287.57848
287.57844
287.57847
287.57847
287.57849
287.57859
287.57861
287.5786
287.57855
287.57844
287.57836
287.57833
287.57842
287.57843
287.57844
287.57851
287.57854
287.57853
287.57848
287.57836
287.57829
287.57829
287.57837
287.57842
287.57843
287.57849
287.57851
287.5785
287.57844
287.57833
287.57829
287.57828
290.29799
290.29803
290.29803
290.29818
290.2982
290.29817
290.29811
290.29804
290.29798
290.29793
290.29803
290.29801
290.29809
290.29822
290.29823
290.2982
290.29813
290.29804
290.298
290.29799
290.29803
290.29809
290.29815
290.29827
290.29828
290.29825
290.29818
290.29806
290.298
290.298
290.29818
290.29822
290.29827
290.29838
290.29839
290.29836
290.2983
290.29817
290.29809
290.29806
290.2982
290.29823
290.29828
290.29839
290.2984
290.29838
290.29832
290.2982
290.29811
290.29808
290.29817
290.2982
290.29825
290.29836
290.29838
290.29836
290.29831
290.29819
290.2981
290.29807
290.29811
290.29813
290.29818
290.2983
290.29832
290.29831
290.29825
290.29813
290.29805
290.29801
290.29804
290.29804
290.29806
290.29817
290.2982
290.29819
290.29813
290.29801
290.29792
290.29788
290.29798
290.298
290.298
290.29809
290.29811
290.2981
290.29805
290.29792
290.29784
290.29784
290.29793
290.29799
290.298
290.29806
290.29808
290.29807
290.29801
290.29788
290.29784
290.29782
293.41131
293.41135
293.41135
293.41152
293.41154
293.41151
293.41144
293.41136
293.4113
293.41124
293.41135
293.41134
293.41142
293.41156
293.41157
293.41154
293.41147
293.41136
293.41132
293.4113
293.41135
293.41142
293.41149
293.41161
293.41162
293.41159
293.41152
293.41139
293.41132
293.41132
293.41152
293.41156
293.41161
293.41174
293.41175
293.41172
293.41165
293.41151
293.41142
293.41138
293.41154
293.41157
293.41162
293.41175
293.41176
293.41173
293.41167
293.41154
293.41144
293.41141
293.41151
293.41154
293.41159
293.41172
293.41173
293.41172
293.41166
293.41152
293.41143
293.4114
293.41144
293.41147
293.41152
293.41165
293.41167
293.41166
293.4116
293.41147
293.41137
293.41133
293.41136
293.41136
293.41139
293.41151
293.41154
293.41152
293.41147
293.41133
293.41123
293.41119
293.4113
293.41132
293.41132
293.41142
293.41144
293.41143
293.41137
293.41123
293.41114
293.41115
293.41124
293.4113
293.41132
293.41138
293.41141
293.4114
293.41133
293.41119
293.41115
293.41112
296.95879
296.95884
296.95884
296.95902
296.95904
296.959
296.95893
296.95884
296.95878
296.95871
296.95884
296.95882
296.95891
296.95906
296.95907
296.95903
296.95896
296.95885
296.9588
296.95878
296.95884
296.95891
296.95898
296.95912
296.95913
296.95909
296.95902
296.95887
296.9588
296.95879
296.95902
296.95906
296.95912
296.95925
296.95926
296.95923
296.95916
296.959
296.9589
296.95887
296.95904
296.95907
296.95913
296.95926
296.95927
296.95925
296.95918
296.95903
296.95893
296.9589
296.959
296.95903
296.95909
296.95923
296.95925
296.95923
296.95917
296.95902
296.95892
296.95888
296.95893
296.95896
296.95902
296.95916
296.95918
296.95917
296.95911
296.95896
296.95885
296.95881
296.95884
296.95885
296.95887
296.959
296.95903
296.95902
296.95896
296.95881
296.9587
296.95865
296.95878
296.9588
296.9588
296.9589
296.95893
296.95892
296.95885
296.9587
296.9586
296.95861
296.95871
296.95878
296.95879
296.95887
296.9589
296.95888
296.95881
296.95865
296.95861
296.95858
300.98064
300.98069
300.98069
300.98088
300.9809
300.98086
300.98079
300.98069
300.98062
300.98055
300.98069
300.98067
300.98076
300.98092
300.98094
300.9809
300.98082
300.98069
300.98064
300.98062
300.98069
300.98076
300.98084
300.98099
300.981
300.98096
300.98088
300.98072
300.98064
300.98064
300.98088
300.98092
300.98099
300.98113
300.98114
300.98111
300.98103
300.98086
300.98075
300.98071
300.9809
300.98094
300.981
300.98114
300.98115
300.98113
300.98106
300.98089
300.98078
300.98075
300.98086
300.9809
300.98096
300.98111
300.98113
300.98111
300.98104
300.98088
300.98077
300.98073
300.98079
300.98082
300.98088
300.98103
300.98106
300.98104
300.98097
300.98081
300.9807
300.98065
300.98069
300.98069
300.98072
300.98086
300.98089
300.98088
300.98081
300.98065
300.98053
300.98048
300.98062
300.98064
300.98064
300.98075
300.98078
300.98077
300.9807
300.98053
300.98042
300.98044
300.98055
300.98062
300.98064
300.98071
300.98075
300.98073
300.98065
300.98048
300.98044
300.98041
305.51612
305.51617
305.51617
305.51637
305.51639
305.51635
305.51627
305.51616
305.51609
305.51602
305.51617
305.51615
305.51625
305.51642
305.51643
305.51639
305.5163
305.51617
305.51611
305.51609
305.51617
305.51625
305.51633
305.51648
305.51649
305.51645
305.51636
305.5162
305.51611
305.51611
305.51637
305.51642
305.51648
305.51663
305.51664
305.51661
305.51653
305.51635
305.51623
305.51619
305.51639
305.51643
305.51649
305.51664
305.51666
305.51663
305.51656
305.51638
305.51627
305.51622
305.51635
305.51639
305.51645
305.51661
305.51663
305.51661
305.51654
305.51637
305.51625
305.51621
305.51627
305.5163
305.51636
305.51653
305.51656
305.51654
305.51647
305.5163
305.51618
305.51613
305.51616
305.51617
305.5162
305.51635
305.51638
305.51637
305.5163
305.51612
305.51599
305.51594
305.51609
305.51611
305.51611
305.51623
305.51627
305.51625
305.51618
305.51599
305.51588
305.51589
305.51602
305.51609
305.51611
305.51619
305.51622
305.51621
305.51613
305.51594
305.51589
305.51586
310.60271
310.60277
310.60277
310.60298
310.603
310.60295
310.60287
310.60276
310.60267
310.6026
310.60277
310.60275
310.60285
310.60303
310.60304
310.60299
310.6029
310.60276
310.6027
310.60268
310.60277
310.60285
310.60293
310.60309
310.6031
310.60306
310.60297
310.60279
310.6027
310.6027
310.60298
310.60303
310.60309
310.60325
310.60326
310.60323
310.60314
310.60295
310.60282
310.60278
310.603
310.60304
310.6031
310.60326
310.60328
310.60325
310.60317
310.60299
310.60286
310.60282
310.60295
310.60299
310.60306
310.60323
310.60325
310.60323
310.60316
310.60298
310.60285
310.60281
310.60287
310.6029
310.60297
310.60314
310.60317
310.60316
310.60309
310.6029
310.60277
310.60272
310.60276
310.60276
310.60279
310.60295
310.60299
310.60298
310.6029
310.60271
310.60258
310.60252
310.60267
310.6027
310.6027
310.60282
310.60286
310.60285
310.60277
310.60258
310.60245
310.60247
310.6026
310.60268
310.6027
310.60278
310.60282
310.60281
310.60272
310.60252
310.60247
310.60244
316.27522
316.27528
316.27528
316.2755
316.27552
316.27547
316.27539
316.27526
316.27518
316.2751
316.27528
316.27526
316.27537
316.27555
316.27556
316.27551
316.27542
316.27527
316.27521
316.27518
316.27528
316.27537
316.27545
316.27562
316.27562
316.27558
316.27549
316.2753
316.2752
316.2752
316.2755
316.27555
316.27562
316.27578
316.27579
316.27575
316.27566
316.27546
316.27533
316.27529
316.27552
316.27556
316.27562
316.27579
316.27581
316.27578
316.2757
316.27551
316.27538
316.27533
316.27547
316.27551
316.27558
316.27575
316.27578
316.27576
316.27568
316.2755
316.27537
316.27532
316.27539
316.27542
316.27549
316.27566
316.2757
316.27568
316.27561
316.27542
316.27529
316.27523
316.27526
316.27527
316.2753
316.27546
316.27551
316.2755
316.27542
316.27522
316.27508
316.27501
316.27518
316.27521
316.2752
316.27533
316.27538
316.27537
316.27529
316.27508
316.27495
316.27497
316.2751
316.27518
316.2752
316.27529
316.27533
316.27532
316.27523
316.27501
316.27497
316.27493
322.56481
322.56487
322.56487
322.56509
322.56511
322.56506
322.56497
322.56484
322.56476
322.56467
322.56487
322.56485
322.56495
322.56514
322.56515
322.5651
322.565
322.56485
322.56478
322.56476
322.56487
322.56495
322.56504
322.56521
322.56522
322.56517
322.56507
322.56488
322.56478
322.56478
322.56509
322.56514
322.56521
322.56537
322.56538
322.56535
322.56526
322.56505
322.56492
322.56487
322.56511
322.56515
322.56522
322.56538
322.5654
322.56538
322.5653
322.56509
322.56496
322.56492
322.56506
322.5651
322.56517
322.56535
322.56538
322.56536
322.56528
322.56509
322.56495
322.56491
322.56497
322.565
322.56507
322.56526
322.5653
322.56528
322.56521
322.56501
322.56487
322.56481
322.56484
322.56485
322.56488
322.56505
322.56509
322.56509
322.56501
322.5648
322.56465
322.56459
322.56476
322.56478
322.56478
322.56492
322.56496
322.56495
322.56487
322.56465
322.56452
322.56455
322.56467
322.56476
322.56478
322.56487
322.56492
322.56491
322.56481
322.56459
322.56455
322.56451
329.49802
329.49808
329.49808
329.49831
329.49833
329.49827
329.49818
329.49805
329.49796
329.49788
329.49808
329.49806
329.49817
329.49836
329.49836
329.49831
329.49822
329.49805
329.49799
329.49797
329.49808
329.49817
329.49825
329.49842
329.49843
329.49839
329.49829
329.49809
329.49799
329.49799
329.49831
329.49836
329.49842
329.49859
329.4986
329.49857
329.49848
329.49826
329.49813
329.49809
329.49833
329.49836
329.49843
329.4986
329.49862
329.4986
329.49852
329.49831
329.49818
329.49813
329.49827
329.49831
329.49839
329.49857
329.4986
329.49858
329.49851
329.49831
329.49817
329.49813
329.49818
329.49822
329.49829
329.49848
329.49852
329.49851
329.49844
329.49823
329.49809
329.49803
329.49805
329.49805
329.49809
329.49826
329.49831
329.49831
329.49823
329.49802
329.49787
329.4978
329.49796
329.49799
329.49799
329.49813
329.49818
329.49817
329.49809
329.49787
329.49773
329.49776
329.49788
329.49797
329.49799
329.49809
329.49813
329.49813
329.49803
329.4978
329.49776
329.49772
337.09589
337.09595
337.09595
337.09618
337.09619
337.09614
337.09605
337.09592
337.09583
337.09574
337.09595
337.09593
337.09604
337.09622
337.09623
337.09618
337.09608
337.09592
337.09586
337.09583
337.09595
337.09604
337.09612
337.09629
337.0963
337.09625
337.09615
337.09595
337.09585
337.09585
337.09618
337.09622
337.09629
337.09646
337.09647
337.09643
337.09635
337.09613
337.09599
337.09595
337.09619
337.09623
337.0963
337.09647
337.09649
337.09646
337.09639
337.09618
337.09605
337.096
337.09614
337.09618
337.09625
337.09643
337.09646
337.09645
337.09638
337.09618
337.09605
337.096
337.09605
337.09608
337.09615
337.09635
337.09639
337.09638
337.09632
337.09611
337.09597
337.09591
337.09592
337.09592
337.09595
337.09613
337.09618
337.09618
337.09611
337.09589
337.09574
337.09567
337.09583
337.09586
337.09585
337.09599
337.09605
337.09605
337.09597
337.09574
337.0956
337.09563
337.09574
337.09583
337.09585
337.09595
337.096
337.096
337.09591
337.09567
337.09563
337.09559
345.37306
345.37312
345.37311
345.37334
345.37335
345.3733
345.37321
345.37308
345.37299
345.3729
345.37312
345.3731
345.3732
345.37338
345.37339
345.37334
345.37325
345.37308
345.37302
345.373
345.37311
345.3732
345.37328
345.37345
345.37345
345.37341
345.37332
345.37311
345.37301
345.37302
345.37334
345.37338
345.37345
345.37361
345.37362
345.37359
345.37351
345.37329
345.37316
345.37312
345.37335
345.37339
345.37345
345.37362
345.37364
345.37362
345.37355
345.37334
345.37321
345.37317
345.3733
345.37334
345.37341
345.37359
345.37362
345.37362
345.37355
345.37335
345.37322
345.37318
345.37321
345.37325
345.37332
345.37351
345.37355
345.37355
345.37349
345.37329
345.37315
345.37309
345.37308
345.37308
345.37311
345.37329
345.37334
345.37335
345.37329
345.37307
345.37291
345.37284
345.37299
345.37302
345.37301
345.37316
345.37321
345.37322
345.37315
345.37291
345.37277
345.37281
345.3729
345.373
345.37302
345.37312
345.37317
345.37318
345.37309
345.37284
345.37281
345.37277
354.33704
354.3371
354.33709
354.33731
354.33733
354.33728
354.33719
354.33706
354.33698
354.33689
354.3371
354.33708
354.33717
354.33736
354.33736
354.33731
354.33722
354.33706
354.337
354.33699
354.33709
354.33717
354.33725
354.33741
354.33742
354.33738
354.33729
354.33709
354.337
354.337
354.33731
354.33736
354.33741
354.33758
354.33759
354.33756
354.33748
354.33727
354.33714
354.33711
354.33733
354.33736
354.33742
354.33759
354.33761
354.33759
354.33753
354.33733
354.3372
354.33716
354.33728
354.33731
354.33738
354.33756
354.33759
354.33759
354.33754
354.33734
354.33721
354.33717
354.33719
354.33722
354.33729
354.33748
354.33753
354.33754
354.33748
354.33728
354.33714
354.33709
354.33706
354.33706
354.33709
354.33727
354.33733
354.33734
354.33728
354.33706
354.33691
354.33685
354.33698
354.337
354.337
354.33714
354.3372
354.33721
354.33714
354.33691
354.33678
354.33682
354.33689
354.33699
354.337
354.33711
354.33716
354.33717
354.33709
354.33685
354.33682
354.33678
363.98765
363.98771
363.9877
363.98792
363.98793
363.98788
363.9878
363.98767
363.98759
363.98751
363.98771
363.98769
363.98778
363.98795
363.98796
363.98791
363.98783
363.98767
363.98762
363.98761
363.9877
363.98778
363.98785
363.98801
363.98801
363.98798
363.98789
363.9877
363.98761
363.98762
363.98792
363.98795
363.98801
363.98816
363.98817
363.98815
363.98808
363.98787
363.98775
363.98773
363.98793
363.98796
363.98801
363.98817
363.98819
363.98819
363.98813
363.98794
363.98782
363.98779
363.98788
363.98791
363.98798
363.98815
363.98819
363.98819
363.98815
363.98796
363.98784
363.9878
363.9878
363.98783
363.98789
363.98808
363.98813
363.98815
363.9881
363.98791
363.98778
363.98773
363.98767
363.98767
363.9877
363.98787
363.98794
363.98796
363.98791
363.9877
363.98755
363.98749
363.98759
363.98762
363.98761
363.98775
363.98782
363.98784
363.98778
363.98755
363.98742
363.98747
363.98751
363.98761
363.98762
363.98773
363.98779
363.9878
363.98773
363.98749
363.98747
363.98743
374.3166
374.31666
374.31664
374.31685
374.31686
374.31681
374.31674
374.31662
374.31655
374.31647
374.31666
374.31663
374.31672
374.31688
374.31688
374.31684
374.31677
374.31662
374.31658
374.31656
374.31664
374.31672
374.31678
374.31693
374.31693
374.3169
374.31683
374.31664
374.31657
374.31658
374.31685
374.31688
374.31693
374.31708
374.31709
374.31707
374.31702
374.31682
374.3167
374.31668
374.31686
374.31688
374.31693
374.31709
374.31711
374.31711
374.31707
374.31688
374.31677
374.31675
374.31681
374.31684
374.3169
374.31707
374.31711
374.31712
374.31709
374.31691
374.3168
374.31677
374.31674
374.31677
374.31683
374.31702
374.31707
374.31709
374.31706
374.31687
374.31675
374.31671
374.31662
374.31662
374.31664
374.31682
374.31688
374.31691
374.31687
374.31667
374.31653
374.31647
374.31655
374.31658
374.31657
374.3167
374.31677
374.3168
374.31675
374.31653
374.31641
374.31646
374.31647
374.31656
374.31658
374.31668
374.31675
374.31677
374.31671
374.31647
374.31646
374.31643
385.30729
385.30735
385.30733
385.30752
385.30753
385.30749
385.30742
385.30732
385.30725
385.30717
385.30735
385.30732
385.30739
385.30755
385.30755
385.30751
385.30745
385.30731
385.30728
385.30727
385.30733
385.30739
385.30744
385.30758
385.30759
385.30757
385.30751
385.30733
385.30726
385.30728
385.30752
385.30755
385.30758
385.30772
385.30774
385.30773
385.30769
385.3075
385.3074
385.30739
385.30753
385.30755
385.30759
385.30774
385.30776
385.30777
385.30774
385.30757
385.30747
385.30745
385.30749
385.30751
385.30757
385.30773
385.30777
385.30779
385.30777
385.3076
385.30751
385.30749
385.30742
385.30745
385.30751
385.30769
385.30774
385.30777
385.30775
385.30758
385.30747
385.30743
385.30732
385.30731
385.30733
385.3075
385.30757
385.3076
385.30758
385.30739
385.30727
385.30721
385.30725
385.30728
385.30726
385.3074
385.30747
385.30751
385.30747
385.30727
385.30715
385.30721
385.30717
385.30727
385.30728
385.30739
385.30745
385.30749
385.30743
385.30721
385.30721
385.30718
396.93486
396.93491
396.93488
396.93506
396.93507
396.93504
396.93498
396.93489
396.93483
396.93476
396.93491
396.93488
396.93494
396.93508
396.93508
396.93506
396.935
396.93488
396.93485
396.93485
396.93488
396.93494
396.93498
396.93511
396.93512
396.93511
396.93506
396.9349
396.93484
396.93487
396.93506
396.93508
396.93511
396.93524
396.93526
396.93526
396.93523
396.93506
396.93498
396.93497
396.93507
396.93508
396.93512
396.93526
396.93528
396.9353
396.93529
396.93513
396.93505
396.93504
396.93504
396.93506
396.93511
396.93526
396.9353
396.93533
396.93533
396.93518
396.9351
396.93508
396.93498
396.935
396.93506
396.93523
396.93529
396.93533
396.93532
396.93517
396.93507
396.93504
396.93489
396.93488
396.9349
396.93506
396.93513
396.93518
396.93517
396.935
396.93488
396.93483
396.93483
396.93485
396.93484
396.93498
396.93505
396.9351
396.93507
396.93488
396.93478
396.93484
396.93476
396.93485
396.93487
396.93497
396.93504
396.93508
396.93504
396.93483
396.93484
396.93481
409.16642
409.16645
409.16643
409.16659
409.1666
409.16657
409.16653
409.16645
409.16641
409.16634
409.16645
409.16642
409.16648
409.1666
409.16661
409.16659
409.16655
409.16644
409.16643
409.16643
409.16643
409.16648
409.16651
409.16663
409.16663
409.16663
409.1666
409.16645
409.16641
409.16645
409.16659
409.1666
409.16663
409.16675
409.16676
409.16678
409.16676
409.16661
409.16654
409.16654
409.1666
409.16661
409.16663
409.16676
409.16679
409.16682
409.16682
409.16668
409.16662
409.16662
409.16657
409.16659
409.16663
409.16678
409.16682
409.16686
409.16687
409.16674
409.16668
409.16667
409.16653
409.16655
409.1666
409.16676
409.16682
409.16687
409.16688
409.16675
409.16667
409.16664
409.16645
409.16644
409.16645
409.16661
409.16668
409.16674
409.16675
409.16659
409.16649
409.16645
409.16641
409.16643
409.16641
409.16654
409.16662
409.16668
409.16667
409.16649
409.1664
409.16647
409.16634
409.16643
409.16645
409.16654
409.16662
409.16667
409.16664
409.16645
409.16647
409.16645
421.96151
421.96154
421.96151
421.96166
421.96167
421.96165
421.96162
421.96156
421.96152
421.96147
421.96154
421.96151
421.96155
421.96166
421.96167
421.96166
421.96163
421.96154
421.96154
421.96155
421.96151
421.96155
421.96158
421.96168
421.96169
421.9617
421.96168
421.96155
421.96153
421.96157
421.96166
421.96166
421.96168
421.96179
421.96181
421.96183
421.96183
421.9617
421.96165
421.96166
421.96167