/*--------------------------------*- C++ -*----------------------------------*\
| =========                 |                                                 |
| \\      /  F ield         | OpenFOAM: The Open Source CFD Toolbox           |
|  \\    /   O peration     | Version:  v2106                                 |
|   \\  /    A nd           | Website:  www.openfoam.com                      |
|    \\/     M anipulation  |                                                 |
\*---------------------------------------------------------------------------*/
FoamFile
{
    version     2.0;
    format      ascii;
    arch        "LSB;label=32;scalar=64";
    class       volVectorField;
    location    "87.5";
    object      flux;
}
// * * * * * * * * * * * * * * * * * * * * * * * * * * * * * * * * * * * * * //

dimensions      [0 1 -1 1 0 0 0];

internalField   nonuniform List<vector> 
4000
(
(6.1159295e-08 6.1159302e-08 0.72582199)
(1.3437971e-07 5.4224769e-08 0.72582244)
(6.7669161e-08 5.2617161e-08 0.72582266)
(3.6666232e-08 5.1992826e-08 0.72582279)
(1.1720737e-08 5.1626598e-08 0.72582285)
(-9.9785695e-09 5.1291404e-08 0.72582285)
(-2.8495014e-08 5.0834958e-08 0.72582279)
(-4.201626e-08 4.9995869e-08 0.72582269)
(-4.4879311e-08 4.8106124e-08 0.72582257)
(-1.419773e-08 4.3509116e-08 0.72582245)
(5.4224762e-08 1.3437971e-07 0.72582244)
(1.215665e-07 1.2156651e-07 0.72582284)
(6.4321248e-08 1.1754274e-07 0.72582304)
(3.5180387e-08 1.1555674e-07 0.72582317)
(1.0668603e-08 1.1420377e-07 0.72582322)
(-1.1166029e-08 1.1292478e-07 0.72582322)
(-3.0438316e-08 1.112995e-07 0.72582316)
(-4.6109511e-08 1.0869851e-07 0.72582306)
(-5.460944e-08 1.0384862e-07 0.72582292)
(-1.8794737e-08 9.4450001e-08 0.72582275)
(5.2617163e-08 6.7669159e-08 0.72582266)
(1.1754274e-07 6.4321252e-08 0.72582304)
(6.165939e-08 6.1659395e-08 0.72582324)
(3.3327259e-08 5.9662479e-08 0.72582336)
(9.0887825e-09 5.79928e-08 0.72582341)
(-1.2882839e-08 5.6352005e-08 0.7258234)
(-3.2721286e-08 5.4456116e-08 0.72582334)
(-4.946714e-08 5.1989388e-08 0.72582323)
(-5.9127823e-08 4.8696907e-08 0.72582308)
(-2.0463477e-08 4.5097639e-08 0.7258229)
(5.1992825e-08 3.6666234e-08 0.72582279)
(1.1555673e-07 3.5180382e-08 0.72582317)
(5.9662475e-08 3.3327264e-08 0.72582336)
(3.1513791e-08 3.1513787e-08 0.72582347)
(7.3581285e-09 2.9783748e-08 0.72582352)
(-1.4702713e-08 2.8053907e-08 0.72582351)
(-3.4800933e-08 2.6208679e-08 0.72582344)
(-5.1868721e-08 2.4168832e-08 0.72582332)
(-6.1501189e-08 2.2028224e-08 0.72582316)
(-2.119425e-08 2.0339531e-08 0.72582298)
(5.1626595e-08 1.1720734e-08 0.72582285)
(1.1420377e-07 1.0668597e-08 0.72582322)
(5.7992795e-08 9.0887819e-09 0.72582341)
(2.9783743e-08 7.3581223e-09 0.72582352)
(5.6289031e-09 5.6288922e-09 0.72582357)
(-1.6457909e-08 3.9197288e-09 0.72582355)
(-3.6606361e-08 2.2081471e-09 0.72582348)
(-5.3647595e-08 5.1313067e-10 0.72582335)
(-6.2957124e-08 -1.0142998e-09 0.72582319)
(-2.1589272e-08 -2.0143517e-09 0.72582301)
(5.1291399e-08 -9.978558e-09 0.72582285)
(1.1292478e-07 -1.1166024e-08 0.72582322)
(5.6352e-08 -1.2882838e-08 0.7258234)
(2.8053902e-08 -1.4702707e-08 0.72582351)
(3.9197351e-09 -1.6457923e-08 0.72582355)
(-1.8123458e-08 -1.8123456e-08 0.72582353)
(-3.8207531e-08 -1.9712716e-08 0.72582345)
(-5.5091168e-08 -2.1200212e-08 0.72582333)
(-6.4028671e-08 -2.2458293e-08 0.72582316)
(-2.1860951e-08 -2.3229364e-08 0.72582297)
(5.0834951e-08 -2.849501e-08 0.72582279)
(1.112995e-07 -3.0438316e-08 0.72582316)
(5.4456112e-08 -3.2721288e-08 0.72582334)
(2.6208658e-08 -3.4800931e-08 0.72582344)
(2.2081543e-09 -3.6606355e-08 0.72582348)
(-1.9712702e-08 -3.8207529e-08 0.72582345)
(-3.9683117e-08 -3.9683116e-08 0.72582337)
(-5.6393172e-08 -4.1060719e-08 0.72582324)
(-6.4986276e-08 -4.2263125e-08 0.72582307)
(-2.210332e-08 -4.3047313e-08 0.72582288)
(4.9995862e-08 -4.2016266e-08 0.72582269)
(1.086985e-07 -4.610951e-08 0.72582306)
(5.1989386e-08 -4.9467145e-08 0.72582323)
(2.4168834e-08 -5.1868719e-08 0.72582332)
(5.131369e-10 -5.3647585e-08 0.72582335)
(-2.1200219e-08 -5.5091174e-08 0.72582333)
(-4.1060722e-08 -5.6393169e-08 0.72582324)
(-5.7671177e-08 -5.7671177e-08 0.72582311)
(-6.6015266e-08 -5.8938014e-08 0.72582293)
(-2.2383743e-08 -5.9946418e-08 0.72582274)
(4.8106122e-08 -4.4879313e-08 0.72582257)
(1.0384862e-07 -5.460943e-08 0.72582292)
(4.8696903e-08 -5.912781e-08 0.72582308)
(2.2028218e-08 -6.1501184e-08 0.72582316)
(-1.0143008e-09 -6.2957126e-08 0.72582319)
(-2.2458286e-08 -6.4028674e-08 0.72582316)
(-4.226312e-08 -6.4986274e-08 0.72582307)
(-5.8938016e-08 -6.6015268e-08 0.72582293)
(-6.7261517e-08 -6.7261521e-08 0.72582275)
(-2.2775589e-08 -6.8625989e-08 0.72582256)
(4.3509118e-08 -1.4197731e-08 0.72582245)
(9.4450008e-08 -1.8794735e-08 0.72582275)
(4.5097632e-08 -2.046347e-08 0.7258229)
(2.0339518e-08 -2.119425e-08 0.72582298)
(-2.0143528e-09 -2.1589269e-08 0.72582301)
(-2.3229367e-08 -2.1860951e-08 0.72582297)
(-4.3047316e-08 -2.2103323e-08 0.72582288)
(-5.9946424e-08 -2.2383748e-08 0.72582274)
(-6.8625986e-08 -2.2775595e-08 0.72582256)
(-2.3293388e-08 -2.3293394e-08 0.72582236)
(2.6865779e-07 2.6865778e-07 1.0796675)
(6.0216081e-07 2.3486437e-07 1.0796681)
(3.1908064e-07 2.2737331e-07 1.0796684)
(1.7579585e-07 2.2442077e-07 1.0796686)
(5.5368654e-08 2.2264213e-07 1.0796687)
(-5.1075138e-08 2.209975e-07 1.0796687)
(-1.431283e-07 2.1874366e-07 1.0796686)
(-2.1308434e-07 2.1452646e-07 1.0796684)
(-2.3728485e-07 2.0448466e-07 1.0796682)
(-7.7849565e-08 1.7556333e-07 1.079668)
(2.3486437e-07 6.0216081e-07 1.0796681)
(5.4023409e-07 5.4023408e-07 1.0796686)
(3.0341525e-07 5.2143997e-07 1.0796689)
(1.6869907e-07 5.1195827e-07 1.079669)
(5.0233752e-08 5.0536993e-07 1.0796691)
(-5.692283e-08 4.9909555e-07 1.0796691)
(-1.5283487e-07 4.910871e-07 1.079669)
(-2.3447285e-07 4.7813203e-07 1.0796689)
(-2.9572954e-07 4.5306188e-07 1.0796686)
(-1.0677089e-07 3.9765046e-07 1.0796683)
(2.273733e-07 3.1908065e-07 1.0796684)
(5.2143996e-07 3.0341525e-07 1.0796689)
(2.9080483e-07 2.9080482e-07 1.0796691)
(1.5972581e-07 2.8113863e-07 1.0796693)
(4.2505942e-08 2.7297853e-07 1.0796694)
(-6.5357972e-08 2.6492755e-07 1.0796694)
(-1.6409182e-07 2.5560472e-07 1.0796693)
(-2.5110955e-07 2.434443e-07 1.0796691)
(-3.1776642e-07 2.2715313e-07 1.0796688)
(-1.1479051e-07 2.0976936e-07 1.0796685)
(2.2442077e-07 1.7579584e-07 1.0796686)
(5.1195825e-07 1.6869906e-07 1.079669)
(2.8113862e-07 1.597258e-07 1.0796693)
(1.5087279e-07 1.5087279e-07 1.0796695)
(3.4022673e-08 1.4239493e-07 1.0796695)
(-7.4296644e-08 1.3390165e-07 1.0796695)
(-1.7431812e-07 1.248319e-07 1.0796694)
(-2.6292444e-07 1.1479865e-07 1.0796692)
(-3.2940448e-07 1.0426911e-07 1.079669)
(-1.1836007e-07 9.6004396e-08 1.0796686)
(2.2264212e-07 5.536865e-08 1.0796687)
(5.0536993e-07 5.023375e-08 1.0796691)
(2.7297855e-07 4.2505949e-08 1.0796694)
(1.4239493e-07 3.4022675e-08 1.0796695)
(2.5534807e-08 2.5534802e-08 1.0796696)
(-8.2921002e-08 1.7136983e-08 1.0796696)
(-1.8319482e-07 8.7202734e-09 1.0796694)
(-2.7167233e-07 3.7920626e-10 1.0796693)
(-3.3656068e-07 -7.140253e-09 1.079669)
(-1.2030033e-07 -1.2061643e-08 1.0796686)
(2.209975e-07 -5.1075123e-08 1.0796687)
(4.9909555e-07 -5.6922814e-08 1.0796691)
(2.6492755e-07 -6.5357967e-08 1.0796694)
(1.3390164e-07 -7.4296655e-08 1.0796695)
(1.7136982e-08 -8.2921007e-08 1.0796696)
(-9.1111172e-08 -9.1111172e-08 1.0796695)
(-1.9107589e-07 -9.8936015e-08 1.0796694)
(-2.7878496e-07 -1.0627401e-07 1.0796692)
(-3.4184533e-07 -1.124984e-07 1.0796689)
(-1.21641e-07 -1.1632811e-07 1.0796686)
(2.1874365e-07 -1.431283e-07 1.0796686)
(4.9108709e-07 -1.5283488e-07 1.079669)
(2.5560471e-07 -1.6409183e-07 1.0796693)
(1.2483189e-07 -1.7431812e-07 1.0796694)
(8.7202908e-09 -1.8319481e-07 1.0796694)
(-9.893601e-08 -1.9107589e-07 1.0796694)
(-1.9835766e-07 -1.9835765e-07 1.0796693)
(-2.8523472e-07 -2.0519275e-07 1.0796691)
(-3.4661477e-07 -2.1122306e-07 1.0796688)
(-1.2285346e-07 -2.1523324e-07 1.0796685)
(2.1452645e-07 -2.1308435e-07 1.0796684)
(4.7813202e-07 -2.3447285e-07 1.0796689)
(2.434443e-07 -2.5110956e-07 1.0796691)
(1.1479866e-07 -2.6292443e-07 1.0796692)
(3.7921486e-10 -2.7167233e-07 1.0796693)
(-1.0627401e-07 -2.7878497e-07 1.0796692)
(-2.0519275e-07 -2.8523472e-07 1.0796691)
(-2.9165038e-07 -2.9165037e-07 1.0796689)
(-3.5188582e-07 -2.9820704e-07 1.0796686)
(-1.2431445e-07 -3.037852e-07 1.0796682)
(2.0448466e-07 -2.3728485e-07 1.0796682)
(4.5306188e-07 -2.9572952e-07 1.0796686)
(2.2715313e-07 -3.1776641e-07 1.0796688)
(1.0426912e-07 -3.2940447e-07 1.079669)
(-7.1402442e-09 -3.3656067e-07 1.079669)
(-1.124984e-07 -3.4184533e-07 1.0796689)
(-2.1122307e-07 -3.4661477e-07 1.0796688)
(-2.9820704e-07 -3.5188581e-07 1.0796686)
(-3.5874961e-07 -3.5874961e-07 1.0796683)
(-1.2657224e-07 -3.6789268e-07 1.0796679)
(1.7556334e-07 -7.7849561e-08 1.079668)
(3.9765046e-07 -1.0677088e-07 1.0796683)
(2.0976936e-07 -1.1479051e-07 1.0796685)
(9.6004401e-08 -1.1836006e-07 1.0796686)
(-1.2061648e-08 -1.2030032e-07 1.0796686)
(-1.1632811e-07 -1.21641e-07 1.0796686)
(-2.1523324e-07 -1.2285346e-07 1.0796685)
(-3.0378521e-07 -1.2431445e-07 1.0796682)
(-3.6789268e-07 -1.2657224e-07 1.0796679)
(-1.3040983e-07 -1.3040983e-07 1.0796676)
(4.3626552e-07 4.3626552e-07 1.0796581)
(9.9076655e-07 3.8144269e-07 1.0796586)
(5.4197024e-07 3.6909238e-07 1.0796589)
(3.0046246e-07 3.6405848e-07 1.079659)
(8.9766342e-08 3.6093958e-07 1.0796591)
(-1.0053424e-07 3.5800961e-07 1.0796591)
(-2.6941149e-07 3.5395931e-07 1.079659)
(-4.0733602e-07 3.4631661e-07 1.0796588)
(-4.8753397e-07 3.2791347e-07 1.0796586)
(-1.6944622e-07 2.7421055e-07 1.0796583)
(3.8144268e-07 9.9076655e-07 1.0796586)
(8.9000683e-07 8.9000684e-07 1.079659)
(5.1589394e-07 8.5868236e-07 1.0796593)
(2.8823326e-07 8.4236091e-07 1.0796594)
(8.069304e-08 8.3076165e-07 1.0796595)
(-1.1100464e-07 8.1957895e-07 1.0796595)
(-2.8695099e-07 8.0521103e-07 1.0796594)
(-4.4640478e-07 7.81836e-07 1.0796592)
(-5.9569305e-07 7.3626903e-07 1.0796589)
(-2.2314914e-07 6.3466326e-07 1.0796586)
(3.6909238e-07 5.4197025e-07 1.0796589)
(8.5868235e-07 5.1589394e-07 1.0796593)
(4.9432432e-07 4.9432432e-07 1.0796595)
(2.7254176e-07 4.7743564e-07 1.0796597)
(6.6984388e-08 4.6298651e-07 1.0796597)
(-1.2608487e-07 4.4862312e-07 1.0796597)
(-3.0715444e-07 4.3192433e-07 1.0796596)
(-4.7627802e-07 4.1010021e-07 1.0796594)
(-6.3470671e-07 3.8089772e-07 1.0796591)
(-2.371834e-07 3.5038823e-07 1.0796587)
(3.6405848e-07 3.0046245e-07 1.079659)
(8.423609e-07 2.8823326e-07 1.0796594)
(4.7743564e-07 2.7254176e-07 1.0796597)
(2.5689546e-07 2.5689545e-07 1.0796598)
(5.1880513e-08 2.4181054e-07 1.0796599)
(-1.4206683e-07 2.2663533e-07 1.0796598)
(-3.2547391e-07 2.103909e-07 1.0796597)
(-4.9743139e-07 1.9240329e-07 1.0796595)
(-6.5540502e-07 1.7355243e-07 1.0796592)
(-2.434888e-07 1.5889799e-07 1.0796588)
(3.6093959e-07 8.9766334e-08 1.0796591)
(8.3076166e-07 8.069304e-08 1.0796595)
(4.6298651e-07 6.6984392e-08 1.0796597)
(2.4181053e-07 5.1880515e-08 1.0796599)
(3.6724265e-08 3.6724262e-08 1.0796599)
(-1.575045e-07 2.1692606e-08 1.0796599)
(-3.4138649e-07 6.5962783e-09 1.0796598)
(-5.1311648e-07 -8.3886844e-09 1.0796595)
(-6.6821202e-07 -2.1907106e-08 1.0796593)
(-2.4695303e-07 -3.0738999e-08 1.0796589)
(3.5800962e-07 -1.0053424e-07 1.0796591)
(8.1957896e-07 -1.1100465e-07 1.0796595)
(4.4862311e-07 -1.2608488e-07 1.0796597)
(2.2663533e-07 -1.4206682e-07 1.0796598)
(2.1692604e-08 -1.5750449e-07 1.0796599)
(-1.7219481e-07 -1.7219481e-07 1.0796598)
(-3.555552e-07 -1.8627345e-07 1.0796597)
(-5.2593477e-07 -1.9953703e-07 1.0796595)
(-6.7775534e-07 -2.1086369e-07 1.0796592)
(-2.4937673e-07 -2.1789421e-07 1.0796588)
(3.5395931e-07 -2.6941151e-07 1.079659)
(8.0521102e-07 -2.8695101e-07 1.0796594)
(4.3192433e-07 -3.0715445e-07 1.0796596)
(2.1039092e-07 -3.2547391e-07 1.0796597)
(6.596279e-09 -3.4138649e-07 1.0796598)
(-1.8627346e-07 -3.5555519e-07 1.0796597)
(-3.6872871e-07 -3.687287e-07 1.0796596)
(-5.3770672e-07 -3.8124868e-07 1.0796593)
(-6.865692e-07 -3.9256037e-07 1.079659)
(-2.5164005e-07 -4.0041298e-07 1.0796586)
(3.4631661e-07 -4.0733602e-07 1.0796588)
(7.8183602e-07 -4.4640479e-07 1.0796592)
(4.1010021e-07 -4.7627801e-07 1.0796594)
(1.9240329e-07 -4.9743139e-07 1.0796595)
(-8.3886755e-09 -5.1311649e-07 1.0796595)
(-1.9953702e-07 -5.2593477e-07 1.0796595)
(-3.8124868e-07 -5.3770672e-07 1.0796593)
(-5.4976645e-07 -5.4976644e-07 1.0796591)
(-6.9691965e-07 -5.6290837e-07 1.0796588)
(-2.546118e-07 -5.7569658e-07 1.0796584)
(3.2791347e-07 -4.8753396e-07 1.0796586)
(7.3626903e-07 -5.9569304e-07 1.0796589)
(3.8089773e-07 -6.3470671e-07 1.0796591)
(1.7355244e-07 -6.5540503e-07 1.0796592)
(-2.1907097e-08 -6.6821201e-07 1.0796593)
(-2.1086369e-07 -6.7775534e-07 1.0796592)
(-3.9256038e-07 -6.865692e-07 1.079659)
(-5.6290837e-07 -6.9691965e-07 1.0796588)
(-7.1249934e-07 -7.1249934e-07 1.0796585)
(-2.6016553e-07 -7.4181119e-07 1.0796581)
(2.7421056e-07 -1.6944623e-07 1.0796583)
(6.3466326e-07 -2.2314914e-07 1.0796586)
(3.5038822e-07 -2.371834e-07 1.0796587)
(1.5889799e-07 -2.4348881e-07 1.0796588)
(-3.0738981e-08 -2.4695304e-07 1.0796589)
(-2.1789421e-07 -2.4937673e-07 1.0796588)
(-4.0041299e-07 -2.5164005e-07 1.0796586)
(-5.7569659e-07 -2.546118e-07 1.0796584)
(-7.4181119e-07 -2.6016553e-07 1.0796581)
(-2.7415304e-07 -2.7415304e-07 1.0796576)
(5.8803271e-07 5.8803272e-07 1.0796435)
(1.3408381e-06 5.1424078e-07 1.079644)
(7.4040027e-07 4.9755675e-07 1.0796442)
(4.0877285e-07 4.9062182e-07 1.0796444)
(1.1223021e-07 4.8623392e-07 1.0796444)
(-1.604901e-07 4.8205107e-07 1.0796444)
(-4.0760723e-07 4.7622093e-07 1.0796443)
(-6.1788265e-07 4.6515593e-07 1.0796441)
(-7.5851306e-07 4.3836553e-07 1.0796439)
(-2.6845262e-07 3.5977082e-07 1.0796436)
(5.1424077e-07 1.3408381e-06 1.079644)
(1.2051242e-06 1.2051241e-06 1.0796444)
(7.0497184e-07 1.1625495e-06 1.0796446)
(3.917886e-07 1.1399164e-06 1.0796447)
(9.937409e-08 1.1235442e-06 1.0796448)
(-1.7550959e-07 1.1075746e-06 1.0796448)
(-4.3294994e-07 1.086921e-06 1.0796447)
(-6.7466575e-07 1.0531758e-06 1.0796445)
(-9.1659073e-07 9.8714326e-07 1.0796442)
(-3.4704733e-07 8.3935476e-07 1.0796438)
(4.9755675e-07 7.4040027e-07 1.0796442)
(1.1625495e-06 7.0497183e-07 1.0796446)
(6.7519256e-07 6.7519255e-07 1.0796448)
(3.6976753e-07 6.5151453e-07 1.0796449)
(7.9888406e-08 6.3101731e-07 1.079645)
(-1.9711331e-07 6.1048541e-07 1.079645)
(-4.6200609e-07 5.8651212e-07 1.0796448)
(-7.1766036e-07 5.5511885e-07 1.0796446)
(-9.7233407e-07 5.1313987e-07 1.0796443)
(-3.6697829e-07 4.6977785e-07 1.079644)
(4.9062182e-07 4.0877285e-07 1.0796444)
(1.1399164e-06 3.9178862e-07 1.0796447)
(6.5151453e-07 3.6976753e-07 1.0796449)
(3.4761336e-07 3.4761337e-07 1.0796451)
(5.8344972e-08 3.2611208e-07 1.0796451)
(-2.2001477e-07 3.0438324e-07 1.0796451)
(-4.883165e-07 2.8105753e-07 1.0796449)
(-7.48038e-07 2.5519698e-07 1.0796447)
(-1.0019317e-06 2.2812001e-07 1.0796444)
(-3.7595534e-07 2.0720432e-07 1.079644)
(4.8623393e-07 1.1223021e-07 1.0796444)
(1.1235442e-06 9.9374092e-08 1.0796448)
(6.3101731e-07 7.9888413e-08 1.079645)
(3.2611208e-07 5.834497e-08 1.0796451)
(3.6658277e-08 3.6658284e-08 1.0796451)
(-2.4216787e-07 1.5088581e-08 1.0796451)
(-5.1119234e-07 -6.6275436e-09 1.079645)
(-7.7059788e-07 -2.8224654e-08 1.0796448)
(-1.0203267e-06 -4.7725382e-08 1.0796444)
(-3.8092208e-07 -6.0449017e-08 1.079644)
(4.8205107e-07 -1.6049009e-07 1.0796444)
(1.1075746e-06 -1.7550959e-07 1.0796448)
(6.1048541e-07 -1.9711332e-07 1.079645)
(3.0438323e-07 -2.2001479e-07 1.0796451)
(1.5088582e-08 -2.4216786e-07 1.0796451)
(-2.633006e-07 -2.6330059e-07 1.079645)
(-5.3162973e-07 -2.8362578e-07 1.0796449)
(-7.8913584e-07 -3.0286664e-07 1.0796447)
(-1.0341561e-06 -3.19399e-07 1.0796444)
(-3.8443776e-07 -3.2973115e-07 1.079644)
(4.7622092e-07 -4.0760723e-07 1.0796443)
(1.086921e-06 -4.3294994e-07 1.0796447)
(5.8651211e-07 -4.620061e-07 1.0796448)
(2.8105754e-07 -4.8831649e-07 1.0796449)
(-6.6275251e-09 -5.1119234e-07 1.079645)
(-2.836258e-07 -5.3162973e-07 1.0796449)
(-5.5075839e-07 -5.5075838e-07 1.0796448)
(-8.063711e-07 -5.691487e-07 1.0796445)
(-1.0471913e-06 -5.860707e-07 1.0796442)
(-3.8781018e-07 -5.9812346e-07 1.0796438)
(4.6515594e-07 -6.1788265e-07 1.0796441)
(1.0531758e-06 -6.7466575e-07 1.0796445)
(5.5511885e-07 -7.1766036e-07 1.0796446)
(2.5519698e-07 -7.4803799e-07 1.0796447)
(-2.8224651e-08 -7.705979e-07 1.0796448)
(-3.0286664e-07 -7.8913585e-07 1.0796447)
(-5.6914871e-07 -8.0637111e-07 1.0796445)
(-8.2444817e-07 -8.2444817e-07 1.0796443)
(-1.0631309e-06 -8.4491825e-07 1.079644)
(-3.9247293e-07 -8.6590077e-07 1.0796436)
(4.3836553e-07 -7.5851305e-07 1.0796439)
(9.8714326e-07 -9.1659072e-07 1.0796442)
(5.1313987e-07 -9.7233408e-07 1.0796443)
(2.2812001e-07 -1.0019317e-06 1.0796444)
(-4.772538e-08 -1.0203267e-06 1.0796444)
(-3.1939901e-07 -1.0341561e-06 1.0796444)
(-5.8607071e-07 -1.0471913e-06 1.0796442)
(-8.4491824e-07 -1.0631308e-06 1.079644)
(-1.0886439e-06 -1.0886439e-06 1.0796436)
(-4.0179853e-07 -1.1400759e-06 1.0796432)
(3.5977082e-07 -2.6845262e-07 1.0796436)
(8.3935475e-07 -3.4704732e-07 1.0796438)
(4.6977784e-07 -3.6697829e-07 1.079644)
(2.0720432e-07 -3.7595534e-07 1.079644)
(-6.0449008e-08 -3.8092208e-07 1.079644)
(-3.2973116e-07 -3.8443776e-07 1.079644)
(-5.9812346e-07 -3.8781018e-07 1.0796438)
(-8.6590078e-07 -3.9247293e-07 1.0796436)
(-1.1400759e-06 -4.0179854e-07 1.0796432)
(-4.2676097e-07 -4.2676098e-07 1.0796428)
(7.3142581e-07 7.3142582e-07 1.079624)
(1.6676993e-06 6.3937417e-07 1.0796244)
(9.1970123e-07 6.1860836e-07 1.0796246)
(5.0208754e-07 6.0988834e-07 1.0796248)
(1.2297941e-07 6.0429045e-07 1.0796248)
(-2.3023777e-07 5.9889117e-07 1.0796248)
(-5.5497815e-07 5.9131386e-07 1.0796246)
(-8.3765101e-07 5.7687528e-07 1.0796245)
(-1.0372812e-06 5.4181306e-07 1.0796242)
(-3.6955868e-07 4.3870401e-07 1.0796239)
(6.3937417e-07 1.6676993e-06 1.0796244)
(1.4984731e-06 1.4984731e-06 1.0796248)
(8.7547248e-07 1.4453317e-06 1.079625)
(4.8061067e-07 1.4167564e-06 1.0796251)
(1.0648365e-07 1.3958212e-06 1.0796251)
(-2.4970265e-07 1.3752037e-06 1.0796251)
(-5.8800198e-07 1.3483877e-06 1.079625)
(-9.1190221e-07 1.3044349e-06 1.0796248)
(-1.2445381e-06 1.2182441e-06 1.0796245)
(-4.7266773e-07 1.0250211e-06 1.0796241)
(6.1860837e-07 9.1970122e-07 1.0796246)
(1.4453317e-06 8.7547248e-07 1.079625)
(8.3798454e-07 8.3798455e-07 1.0796252)
(4.5257705e-07 8.0786887e-07 1.0796253)
(8.1426649e-08 7.8155937e-07 1.0796253)
(-2.7767125e-07 7.5503024e-07 1.0796253)
(-6.2574695e-07 7.239324e-07 1.0796252)
(-9.6779465e-07 6.8313761e-07 1.0796249)
(-1.3166949e-06 6.2860606e-07 1.0796247)
(-4.9837398e-07 5.7266182e-07 1.0796243)
(6.0988834e-07 5.0208755e-07 1.0796248)
(1.4167565e-06 4.8061068e-07 1.0796251)
(8.0786887e-07 4.5257705e-07 1.0796253)
(4.2418549e-07 4.241855e-07 1.0796254)
(5.3645024e-08 3.9647661e-07 1.0796254)
(-3.0732963e-07 3.6835679e-07 1.0796254)
(-6.5989461e-07 3.3808783e-07 1.0796252)
(-1.0072285e-06 3.044876e-07 1.079625)
(-1.3550139e-06 2.6932506e-07 1.0796247)
(-5.0996389e-07 2.422758e-07 1.0796243)
(6.0429045e-07 1.2297941e-07 1.0796248)
(1.3958212e-06 1.0648365e-07 1.0796251)
(7.8155936e-07 8.142663e-08 1.0796253)
(3.9647661e-07 5.3645018e-08 1.0796254)
(2.5597946e-08 2.5597936e-08 1.0796255)
(-3.3606003e-07 -2.3750617e-09 1.0796254)
(-6.8961614e-07 -3.0606713e-08 1.0796253)
(-1.0365574e-06 -5.8735087e-08 1.079625)
(-1.3789067e-06 -8.4154192e-08 1.0796247)
(-5.1640682e-07 -1.0072368e-07 1.0796243)
(5.9889117e-07 -2.3023777e-07 1.0796248)
(1.3752037e-06 -2.4970267e-07 1.0796251)
(7.5503024e-07 -2.7767127e-07 1.0796253)
(3.6835679e-07 -3.0732962e-07 1.0796254)
(-2.3750558e-09 -3.3606002e-07 1.0796254)
(-3.6353427e-07 -3.6353426e-07 1.0796253)
(-7.1625464e-07 -3.9004777e-07 1.0796252)
(-1.060776e-06 -4.1525127e-07 1.079625)
(-1.3970025e-06 -4.3700897e-07 1.0796246)
(-5.2101021e-07 -4.5066763e-07 1.0796242)
(5.9131385e-07 -5.5497816e-07 1.0796246)
(1.3483877e-06 -5.8800199e-07 1.079625)
(7.239324e-07 -6.2574695e-07 1.0796252)
(3.3808786e-07 -6.5989462e-07 1.0796252)
(-3.0606695e-08 -6.8961615e-07 1.0796253)
(-3.9004778e-07 -7.1625464e-07 1.0796252)
(-7.4133316e-07 -7.4133314e-07 1.079625)
(-1.0835186e-06 -7.6566123e-07 1.0796248)
(-1.4143231e-06 -7.8832203e-07 1.0796245)
(-5.255126e-07 -8.0469213e-07 1.0796241)
(5.7687529e-07 -8.37651e-07 1.0796245)
(1.3044349e-06 -9.119022e-07 1.0796248)
(6.8313761e-07 -9.6779463e-07 1.0796249)
(3.044876e-07 -1.0072286e-06 1.079625)
(-5.8735075e-08 -1.0365574e-06 1.079625)
(-4.1525127e-07 -1.060776e-06 1.079625)
(-7.6566123e-07 -1.0835186e-06 1.0796248)
(-1.1077649e-06 -1.1077649e-06 1.0796246)
(-1.4360334e-06 -1.1358161e-06 1.0796242)
(-5.3192361e-07 -1.1652029e-06 1.0796238)
(5.4181305e-07 -1.0372812e-06 1.0796242)
(1.2182441e-06 -1.2445381e-06 1.0796245)
(6.2860605e-07 -1.3166949e-06 1.0796247)
(2.6932506e-07 -1.3550139e-06 1.0796247)
(-8.4154182e-08 -1.3789067e-06 1.0796247)
(-4.3700897e-07 -1.3970025e-06 1.0796246)
(-7.8832205e-07 -1.4143231e-06 1.0796245)
(-1.135816e-06 -1.4360334e-06 1.0796242)
(-1.4717611e-06 -1.4717611e-06 1.0796239)
(-5.4510385e-07 -1.5452736e-06 1.0796235)
(4.3870401e-07 -3.6955869e-07 1.0796239)
(1.0250211e-06 -4.7266773e-07 1.0796241)
(5.7266181e-07 -4.9837399e-07 1.0796243)
(2.4227581e-07 -5.0996389e-07 1.0796243)
(-1.0072367e-07 -5.1640682e-07 1.0796243)
(-4.5066764e-07 -5.2101022e-07 1.0796242)
(-8.0469213e-07 -5.2551259e-07 1.0796241)
(-1.1652029e-06 -5.319236e-07 1.0796238)
(-1.5452736e-06 -5.4510386e-07 1.0796235)
(-5.8093194e-07 -5.8093194e-07 1.079623)
(8.6803929e-07 8.6803929e-07 1.0795996)
(1.9759274e-06 7.5830049e-07 1.0796)
(1.0833182e-06 7.3362824e-07 1.0796002)
(5.82421e-07 7.2320946e-07 1.0796004)
(1.2352296e-07 7.1645322e-07 1.0796004)
(-3.0780988e-07 7.0987758e-07 1.0796003)
(-7.0819247e-07 7.0059943e-07 1.0796002)
(-1.0612408e-06 6.8286959e-07 1.0796)
(-1.3169513e-06 6.3973829e-07 1.0795998)
(-4.7036089e-07 5.1273411e-07 1.0795995)
(7.5830049e-07 1.9759274e-06 1.0796)
(1.7743108e-06 1.7743108e-06 1.0796004)
(1.0306817e-06 1.7110869e-06 1.0796006)
(5.5665845e-07 1.6768568e-06 1.0796007)
(1.0352513e-07 1.6515497e-06 1.0796007)
(-3.3159056e-07 1.626438e-06 1.0796007)
(-7.4870444e-07 1.5936272e-06 1.0796006)
(-1.1525325e-06 1.5397213e-06 1.0796003)
(-1.5721545e-06 1.433874e-06 1.0796001)
(-5.9736507e-07 1.196384e-06 1.0795997)
(7.3362825e-07 1.0833182e-06 1.0796002)
(1.7110869e-06 1.0306817e-06 1.0796006)
(9.8586418e-07 9.8586419e-07 1.0796008)
(5.2288378e-07 9.4960891e-07 1.0796009)
(7.3104162e-08 9.1771685e-07 1.0796009)
(-3.6573233e-07 8.8538483e-07 1.0796008)
(-7.9490919e-07 8.4735851e-07 1.0796007)
(-1.2209941e-06 7.974015e-07 1.0796005)
(-1.6602886e-06 7.3063756e-07 1.0796002)
(-6.286876e-07 6.6245653e-07 1.0795998)
(7.2320946e-07 5.8242101e-07 1.0796004)
(1.6768568e-06 5.5665846e-07 1.0796007)
(9.4960891e-07 5.2288378e-07 1.0796009)
(4.8851111e-07 4.8851113e-07 1.079601)
(3.9301056e-08 4.5481579e-07 1.079601)
(-4.019489e-07 4.2049865e-07 1.0796009)
(-8.3668777e-07 3.8346962e-07 1.0796008)
(-1.2692535e-06 3.4231918e-07 1.0796006)
(-1.7070995e-06 2.9926899e-07 1.0796003)
(-6.428191e-07 2.6624688e-07 1.0795999)
(7.1645322e-07 1.2352296e-07 1.0796004)
(1.6515497e-06 1.0352514e-07 1.0796007)
(9.1771685e-07 7.3104156e-08 1.0796009)
(4.5481579e-07 3.9301046e-08 1.079601)
(5.0916814e-09 5.0916852e-09 1.079601)
(-4.3707849e-07 -2.9111186e-08 1.0796009)
(-8.7308866e-07 -6.3705716e-08 1.0796008)
(-1.3051947e-06 -9.8228598e-08 1.0796006)
(-1.7363609e-06 -1.2944765e-07 1.0796003)
(-6.5070233e-07 -1.4978258e-07 1.0795999)
(7.0987758e-07 -3.0780988e-07 1.0796003)
(1.626438e-06 -3.3159056e-07 1.0796007)
(8.8538481e-07 -3.6573232e-07 1.0796008)
(4.2049864e-07 -4.0194891e-07 1.0796009)
(-2.9111176e-08 -4.3707849e-07 1.0796009)
(-4.707463e-07 -4.7074631e-07 1.0796009)
(-9.0580519e-07 -5.0333158e-07 1.0796007)
(-1.3349954e-06 -5.344108e-07 1.0796005)
(-1.7586535e-06 -5.6133354e-07 1.0796002)
(-6.5637571e-07 -5.7828323e-07 1.0795998)
(7.0059943e-07 -7.0819247e-07 1.0796002)
(1.5936272e-06 -7.4870445e-07 1.0796006)
(8.473585e-07 -7.9490919e-07 1.0796007)
(3.8346963e-07 -8.3668776e-07 1.0796008)
(-6.3705715e-08 -8.7308865e-07 1.0796008)
(-5.0333159e-07 -9.0580518e-07 1.0796007)
(-9.3675316e-07 -9.3675316e-07 1.0796006)
(-1.3631966e-06 -9.6697737e-07 1.0796003)
(-1.7802333e-06 -9.9536128e-07 1.0796)
(-6.6200212e-07 -1.0160372e-06 1.0795996)
(6.8286959e-07 -1.0612408e-06 1.0796)
(1.5397213e-06 -1.1525326e-06 1.0796003)
(7.974015e-07 -1.2209941e-06 1.0796005)
(3.4231918e-07 -1.2692535e-06 1.0796006)
(-9.8228594e-08 -1.3051947e-06 1.0796006)
(-5.3441081e-07 -1.3349954e-06 1.0796005)
(-9.6697738e-07 -1.3631967e-06 1.0796003)
(-1.3936035e-06 -1.3936036e-06 1.0796001)
(-1.8077133e-06 -1.4292363e-06 1.0795997)
(-6.7015965e-07 -1.4669813e-06 1.0795993)
(6.3973829e-07 -1.3169513e-06 1.0795998)
(1.433874e-06 -1.5721545e-06 1.0796001)
(7.3063756e-07 -1.6602886e-06 1.0796002)
(2.99269e-07 -1.7070995e-06 1.0796003)
(-1.2944764e-07 -1.7363609e-06 1.0796003)
(-5.6133355e-07 -1.7586535e-06 1.0796002)
(-9.9536129e-07 -1.7802334e-06 1.0796)
(-1.4292363e-06 -1.8077133e-06 1.0795997)
(-1.8536111e-06 -1.8536111e-06 1.0795994)
(-6.8716543e-07 -1.9488977e-06 1.079599)
(5.1273411e-07 -4.7036089e-07 1.0795995)
(1.196384e-06 -5.9736507e-07 1.0795997)
(6.6245654e-07 -6.2868759e-07 1.0795998)
(2.6624689e-07 -6.4281909e-07 1.0795999)
(-1.4978258e-07 -6.5070233e-07 1.0795999)
(-5.7828324e-07 -6.5637571e-07 1.0795998)
(-1.0160372e-06 -6.6200212e-07 1.0795996)
(-1.4669813e-06 -6.7015965e-07 1.0795993)
(-1.9488977e-06 -6.8716543e-07 1.079599)
(-7.3368405e-07 -7.3368405e-07 1.0795985)
(9.979653e-07 9.979653e-07 1.0795707)
(2.2666527e-06 8.7118208e-07 1.0795711)
(1.2331763e-06 8.4276978e-07 1.0795713)
(6.5156441e-07 8.3073066e-07 1.0795714)
(1.1569231e-07 8.2286642e-07 1.0795714)
(-3.9092041e-07 8.1515908e-07 1.0795714)
(-8.6411913e-07 8.0423816e-07 1.0795712)
(-1.2845593e-06 7.833254e-07 1.079571)
(-1.5930721e-06 7.3239054e-07 1.0795708)
(-5.69408e-07 5.822811e-07 1.0795705)
(8.7118208e-07 2.2666527e-06 1.0795711)
(2.0338594e-06 2.0338594e-06 1.0795714)
(1.1724992e-06 1.9610009e-06 1.0795716)
(6.2170936e-07 1.9213792e-06 1.0795717)
(9.2334946e-08 1.8918896e-06 1.0795717)
(-4.188628e-07 1.8624554e-06 1.0795717)
(-9.1186965e-07 1.8238568e-06 1.0795715)
(-1.3923308e-06 1.7603283e-06 1.0795713)
(-1.8946386e-06 1.6354766e-06 1.0795711)
(-7.1951744e-07 1.3552008e-06 1.0795707)
(8.4276978e-07 1.2331763e-06 1.0795713)
(1.9610009e-06 1.1724992e-06 1.0795716)
(1.1206961e-06 1.1206961e-06 1.0795718)
(5.8245305e-07 1.0785831e-06 1.0795719)
(5.6768474e-08 1.0413441e-06 1.0795719)
(-4.5895315e-07 1.0034286e-06 1.0795718)
(-9.6624623e-07 9.5871385e-07 1.0795717)
(-1.4729396e-06 8.9990027e-07 1.0795715)
(-1.9981995e-06 8.2131362e-07 1.0795712)
(-7.562585e-07 7.4132418e-07 1.0795708)
(8.3073066e-07 6.515644e-07 1.0795714)
(1.9213792e-06 6.2170937e-07 1.0795717)
(1.0785831e-06 5.8245305e-07 1.0795719)
(5.4235734e-07 5.4235735e-07 1.0795719)
(1.7180398e-08 5.0291418e-07 1.079572)
(-5.0149307e-07 4.62625e-07 1.0795719)
(-1.0153979e-06 4.1906367e-07 1.0795718)
(-1.529731e-06 3.7060786e-07 1.0795715)
(-2.0532147e-06 3.1992635e-07 1.0795712)
(-7.7284374e-07 2.8113306e-07 1.0795709)
(8.2286642e-07 1.1569232e-07 1.0795714)
(1.8918896e-06 9.2334946e-08 1.0795717)
(1.0413441e-06 5.6768454e-08 1.0795719)
(5.0291417e-07 1.7180391e-08 1.079572)
(-2.296388e-08 -2.2963897e-08 1.079572)
(-5.4280366e-07 -6.3184429e-08 1.0795719)
(-1.0582634e-06 -1.0394145e-07 1.0795717)
(-1.5720769e-06 -1.4466806e-07 1.0795715)
(-2.0876743e-06 -1.8151682e-07 1.0795712)
(-7.8212069e-07 -2.0550356e-07 1.0795708)
(8.1515908e-07 -3.909204e-07 1.0795714)
(1.8624554e-06 -4.188628e-07 1.0795717)
(1.0034286e-06 -4.5895315e-07 1.0795718)
(4.6262499e-07 -5.0149306e-07 1.0795719)
(-6.3184422e-08 -5.4280365e-07 1.0795719)
(-5.8247062e-07 -5.8247063e-07 1.0795718)
(-1.0968816e-06 -6.2095578e-07 1.0795717)
(-1.6073063e-06 -6.5775992e-07 1.0795714)
(-2.1140502e-06 -6.8972342e-07 1.0795711)
(-7.888349e-07 -7.0988521e-07 1.0795707)
(8.0423816e-07 -8.6411912e-07 1.0795712)
(1.8238568e-06 -9.1186965e-07 1.0795715)
(9.5871385e-07 -9.6624622e-07 1.0795717)
(4.1906367e-07 -1.0153979e-06 1.0795718)
(-1.0394145e-07 -1.0582634e-06 1.0795717)
(-6.2095578e-07 -1.0968816e-06 1.0795717)
(-1.1335527e-06 -1.1335526e-06 1.0795715)
(-1.6408445e-06 -1.1695479e-06 1.0795713)
(-2.1397996e-06 -1.2035454e-06 1.079571)
(-7.9556188e-07 -1.228444e-06 1.0795706)
(7.833254e-07 -1.2845593e-06 1.079571)
(1.7603283e-06 -1.3923308e-06 1.0795713)
(8.9990027e-07 -1.4729396e-06 1.0795715)
(3.7060785e-07 -1.529731e-06 1.0795715)
(-1.4466805e-07 -1.5720769e-06 1.0795715)
(-6.5775991e-07 -1.6073064e-06 1.0795714)
(-1.1695479e-06 -1.6408445e-06 1.0795713)
(-1.6772991e-06 -1.6772991e-06 1.079571)
(-2.1729463e-06 -1.72038e-06 1.0795707)
(-8.0543397e-07 -1.7663186e-06 1.0795703)
(7.3239054e-07 -1.5930721e-06 1.0795708)
(1.6354766e-06 -1.8946386e-06 1.0795711)
(8.2131362e-07 -1.9981995e-06 1.0795712)
(3.1992635e-07 -2.0532147e-06 1.0795712)
(-1.8151681e-07 -2.0876743e-06 1.0795712)
(-6.8972342e-07 -2.1140502e-06 1.0795711)
(-1.2035454e-06 -2.1397996e-06 1.079571)
(-1.72038e-06 -2.1729463e-06 1.0795707)
(-2.2288192e-06 -2.2288192e-06 1.0795704)
(-8.2618763e-07 -2.345402e-06 1.07957)
(5.822811e-07 -5.69408e-07 1.0795705)
(1.3552009e-06 -7.1951745e-07 1.0795707)
(7.4132419e-07 -7.562585e-07 1.0795708)
(2.8113307e-07 -7.7284373e-07 1.0795709)
(-2.0550356e-07 -7.8212069e-07 1.0795708)
(-7.0988522e-07 -7.888349e-07 1.0795707)
(-1.228444e-06 -7.9556189e-07 1.0795706)
(-1.7663186e-06 -8.0543397e-07 1.0795703)
(-2.345402e-06 -8.2618762e-07 1.07957)
(-8.8315587e-07 -8.8315586e-07 1.0795695)
(1.1208234e-06 1.1208234e-06 1.0795374)
(2.5396727e-06 9.7774196e-07 1.0795378)
(1.3702626e-06 9.4576867e-07 1.079538)
(7.1090366e-07 9.3218995e-07 1.079538)
(1.0121006e-07 9.2327076e-07 1.0795381)
(-4.7739405e-07 9.1448183e-07 1.079538)
(-1.0200214e-06 9.0198696e-07 1.0795379)
(-1.5043773e-06 8.78022e-07 1.0795377)
(-1.8623496e-06 8.1960304e-07 1.0795375)
(-6.656455e-07 6.4733236e-07 1.0795372)
(9.7774196e-07 2.5396727e-06 1.0795378)
(2.2770907e-06 2.2770907e-06 1.0795381)