/*--------------------------------*- C++ -*----------------------------------*\
| =========                 |                                                 |
| \\      /  F ield         | OpenFOAM: The Open Source CFD Toolbox           |
|  \\    /   O peration     | Version:  v2106                                 |
|   \\  /    A nd           | Website:  www.openfoam.com                      |
|    \\/     M anipulation  |                                                 |
\*---------------------------------------------------------------------------*/
FoamFile
{
    version     2.0;
    format      ascii;
    arch        "LSB;label=32;scalar=64";
    class       volScalarField;
    location    "87.5";
    object      gradTz;
}
// * * * * * * * * * * * * * * * * * * * * * * * * * * * * * * * * * * * * * //

dimensions      [0 -1 0 1 0 0 0];

internalField   nonuniform List<scalar> 
4000
(
569.20103
569.20139
569.20156
569.20166
569.2017
569.2017
569.20166
569.20159
569.20149
569.20139
569.20139
569.2017
569.20186
569.20195
569.202
569.202
569.20195
569.20187
569.20176
569.20163
569.20156
569.20186
569.20201
569.2021
569.20215
569.20214
569.20209
569.202
569.20188
569.20175
569.20166
569.20195
569.2021
569.20219
569.20223
569.20222
569.20217
569.20208
569.20195
569.20181
569.2017
569.202
569.20215
569.20223
569.20227
569.20225
569.2022
569.2021
569.20197
569.20183
569.2017
569.202
569.20214
569.20222
569.20225
569.20224
569.20218
569.20208
569.20195
569.2018
569.20166
569.20195
569.20209
569.20217
569.2022
569.20218
569.20212
569.20201
569.20188
569.20173
569.20159
569.20187
569.202
569.20208
569.2021
569.20208
569.20201
569.20191
569.20177
569.20162
569.20149
569.20176
569.20188
569.20195
569.20197
569.20195
569.20188
569.20177
569.20163
569.20148
569.20139
569.20163
569.20175
569.20181
569.20183
569.2018
569.20173
569.20162
569.20148
569.20132
841.12582
841.12625
841.12648
841.12662
841.12668
841.12668
841.12661
841.12649
841.12633
841.12615
841.12625
841.12663
841.12685
841.12698
841.12704
841.12704
841.12697
841.12684
841.12666
841.12642
841.12648
841.12685
841.12705
841.12718
841.12724
841.12723
841.12715
841.12701
841.12682
841.12657
841.12662
841.12698
841.12718
841.1273
841.12736
841.12734
841.12726
841.12711
841.12691
841.12666
841.12668
841.12704
841.12724
841.12736
841.1274
841.12738
841.12729
841.12714
841.12694
841.12668
841.12668
841.12704
841.12723
841.12734
841.12738
841.12735
841.12726
841.12711
841.1269
841.12663
841.12661
841.12697
841.12715
841.12726
841.12729
841.12726
841.12716
841.12701
841.12679
841.12653
841.12649
841.12684
841.12701
841.12711
841.12714
841.12711
841.12701
841.12684
841.12663
841.12636
841.12633
841.12666
841.12682
841.12691
841.12694
841.1269
841.12679
841.12663
841.1264
841.12613
841.12615
841.12642
841.12657
841.12666
841.12668
841.12663
841.12653
841.12636
841.12613
841.12584
835.66047
835.66084
835.66104
835.66116
835.66121
835.6612
835.66113
835.661
835.66082
835.6606
835.66084
835.66116
835.66134
835.66146
835.66151
835.6615
835.66142
835.66129
835.66109
835.66081
835.66104
835.66134
835.66152
835.66164
835.66168
835.66167
835.66158
835.66144
835.66123
835.66094
835.66116
835.66146
835.66164
835.66175
835.66179
835.66176
835.66168
835.66152
835.66131
835.66101
835.66121
835.66151
835.66168
835.66179
835.66182
835.6618
835.6617
835.66155
835.66132
835.66102
835.6612
835.6615
835.66167
835.66176
835.6618
835.66176
835.66166
835.6615
835.66127
835.66097
835.66113
835.66142
835.66158
835.66168
835.6617
835.66166
835.66156
835.6614
835.66116
835.66086
835.661
835.66129
835.66144
835.66152
835.66155
835.6615
835.6614
835.66122
835.66099
835.66068
835.66082
835.66109
835.66123
835.66131
835.66132
835.66127
835.66116
835.66099
835.66075
835.66043
835.6606
835.66081
835.66094
835.66101
835.66102
835.66097
835.66086
835.66068
835.66043
835.66009
830.29618
830.29651
830.29669
830.2968
830.29684
830.29682
830.29674
830.29661
830.29642
830.29619
830.29651
830.2968
830.29697
830.29707
830.29711
830.29709
830.29701
830.29686
830.29666
830.29637
830.29669
830.29697
830.29713
830.29723
830.29726
830.29724
830.29715
830.297
830.29678
830.29648
830.2968
830.29707
830.29723
830.29732
830.29735
830.29732
830.29723
830.29707
830.29684
830.29654
830.29684
830.29711
830.29726
830.29735
830.29738
830.29734
830.29724
830.29708
830.29685
830.29654
830.29682
830.29709
830.29724
830.29732
830.29734
830.2973
830.2972
830.29703
830.2968
830.29649
830.29674
830.29701
830.29715
830.29723
830.29724
830.2972
830.29709
830.29692
830.29668
830.29637
830.29661
830.29686
830.297
830.29707
830.29708
830.29703
830.29692
830.29674
830.2965
830.29618
830.29642
830.29666
830.29678
830.29684
830.29685
830.2968
830.29668
830.2965
830.29625
830.29592
830.29619
830.29637
830.29648
830.29654
830.29654
830.29649
830.29637
830.29618
830.29592
830.29558
825.02988
825.03019
825.03035
825.03045
825.03048
825.03045
825.03037
825.03023
825.03004
825.02981
825.03019
825.03046
825.03061
825.0307
825.03074
825.03071
825.03062
825.03047
825.03026
825.02998
825.03035
825.03061
825.03076
825.03084
825.03087
825.03084
825.03074
825.03059
825.03037
825.03008
825.03045
825.0307
825.03084
825.03092
825.03095
825.03091
825.03081
825.03065
825.03042
825.03012
825.03048
825.03074
825.03087
825.03095
825.03096
825.03092
825.03082
825.03065
825.03042
825.03012
825.03045
825.03071
825.03084
825.03091
825.03092
825.03088
825.03077
825.0306
825.03036
825.03006
825.03037
825.03062
825.03074
825.03081
825.03082
825.03077
825.03065
825.03048
825.03024
825.02993
825.03023
825.03047
825.03059
825.03065
825.03065
825.0306
825.03048
825.0303
825.03006
825.02974
825.03004
825.03026
825.03037
825.03042
825.03042
825.03036
825.03024
825.03006
825.0298
825.02948
825.02981
825.02998
825.03008
825.03012
825.03012
825.03006
825.02993
825.02974
825.02948
825.02914
819.85863
819.85892
819.85907
819.85915
819.85918
819.85915
819.85906
819.85892
819.85873
819.85851
819.85892
819.85918
819.85931
819.85939
819.85942
819.85938
819.85929
819.85914
819.85894
819.85866
819.85907
819.85931
819.85945
819.85952
819.85954
819.8595
819.8594
819.85925
819.85903
819.85875
819.85915
819.85939
819.85952
819.85959
819.85961
819.85956
819.85946
819.8593
819.85908
819.85879
819.85918
819.85942
819.85954
819.85961
819.85962
819.85957
819.85946
819.8593
819.85907
819.85877
819.85915
819.85938
819.8595
819.85956
819.85957
819.85952
819.85941
819.85924
819.859
819.85871
819.85906
819.85929
819.8594
819.85946
819.85946
819.85941
819.85929
819.85912
819.85888
819.85858
819.85892
819.85914
819.85925
819.8593
819.8593
819.85924
819.85912
819.85894
819.8587
819.8584
819.85873
819.85894
819.85903
819.85908
819.85907
819.859
819.85888
819.8587
819.85845
819.85814
819.85851
819.85866
819.85875
819.85879
819.85877
819.85871
819.85858
819.8584
819.85814
819.85781
814.77963
814.7799
814.78003
814.78011
814.78012
814.78009
814.78
814.77986
814.77968
814.77946
814.7799
814.78014
814.78026
814.78033
814.78035
814.78031
814.78022
814.78007
814.77987
814.77961
814.78003
814.78026
814.78038
814.78045
814.78046
814.78042
814.78032
814.78017
814.77996
814.77968
814.78011
814.78033
814.78045
814.78051
814.78052
814.78047
814.78037
814.78021
814.77999
814.77971
814.78012
814.78035
814.78046
814.78052
814.78052
814.78047
814.78036
814.7802
814.77998
814.7797
814.78009
814.78031
814.78042
814.78047
814.78047
814.78041
814.7803
814.78014
814.77991
814.77963
814.78
814.78022
814.78032
814.78037
814.78036
814.7803
814.78019
814.78002
814.77979
814.7795
814.77986
814.78007
814.78017
814.78021
814.7802
814.78014
814.78002
814.77984
814.77961
814.77932
814.77968
814.77987
814.77996
814.77999
814.77998
814.77991
814.77979
814.77961
814.77937
814.77907
814.77946
814.77961
814.77968
814.77971
814.7797
814.77963
814.7795
814.77932
814.77907
814.77875
809.7902
809.79046
809.79058
809.79064
809.79065
809.79061
809.79052
809.79039
809.79021
809.79001
809.79046
809.79067
809.79079
809.79085
809.79086
809.79082
809.79073
809.79058
809.79039
809.79014
809.79058
809.79079
809.79089
809.79095
809.79096
809.79091
809.79082
809.79067
809.79047
809.79021
809.79064
809.79085
809.79095
809.791
809.79101
809.79096
809.79086
809.79071
809.7905
809.79023
809.79065
809.79086
809.79096
809.79101
809.79101
809.79095
809.79085
809.79069
809.79048
809.79021
809.79061
809.79082
809.79091
809.79096
809.79095
809.7909
809.79079
809.79063
809.79041
809.79014
809.79052
809.79073
809.79082
809.79086
809.79085
809.79079
809.79068
809.79051
809.79029
809.79002
809.79039
809.79058
809.79067
809.79071
809.79069
809.79063
809.79051
809.79034
809.79012
809.78984
809.79021
809.79039
809.79047
809.7905
809.79048
809.79041
809.79029
809.79012
809.78989
809.78961
809.79001
809.79014
809.79021
809.79023
809.79021
809.79014
809.79002
809.78984
809.78961
809.7893
804.88782
804.88805
804.88816
804.88821
804.88822
804.88818
804.8881
804.88797
804.8878
804.88761
804.88805
804.88825
804.88835
804.88841
804.88841
804.88837
804.88828
804.88814
804.88796
804.88773
804.88816
804.88835
804.88845
804.8885
804.8885
804.88845
804.88836
804.88822
804.88803
804.88778
804.88821
804.88841
804.8885
804.88854
804.88854
804.88849
804.8884
804.88825
804.88805
804.8878
804.88822
804.88841
804.8885
804.88854
804.88854
804.88848
804.88838
804.88823
804.88803
804.88778
804.88818
804.88837
804.88845
804.88849
804.88848
804.88843
804.88832
804.88817
804.88797
804.88771
804.8881
804.88828
804.88836
804.8884
804.88838
804.88832
804.88821
804.88806
804.88785
804.88759
804.88797
804.88814
804.88822
804.88825
804.88823
804.88817
804.88806
804.8879
804.88768
804.88742
804.8878
804.88796
804.88803
804.88805
804.88803
804.88797
804.88785
804.88768
804.88747
804.8872
804.88761
804.88773
804.88778
804.8878
804.88778
804.88771
804.88759
804.88742
804.8872
804.88691
800.07007
800.07028
800.07037
800.07042
800.07042
800.07038
800.0703
800.07018
800.07002
800.06984
800.07028
800.07046
800.07055
800.07059
800.0706
800.07055
800.07047
800.07034
800.07017
800.06995
800.07037
800.07055
800.07064
800.07068
800.07067
800.07063
800.07054
800.07041
800.07023
800.07
800.07042
800.07059
800.07068
800.07071
800.07071
800.07066
800.07057
800.07043
800.07025
800.07001
800.07042
800.0706
800.07067
800.07071
800.0707
800.07065
800.07055
800.07041
800.07022
800.06999
800.07038
800.07055
800.07063
800.07066
800.07065
800.07059
800.07049
800.07035
800.07016
800.06992
800.0703
800.07047
800.07054
800.07057
800.07055
800.07049
800.07039
800.07024
800.07005
800.06981
800.07018
800.07034
800.07041
800.07043
800.07041
800.07035
800.07024
800.07009
800.06989
800.06965
800.07002
800.07017
800.07023
800.07025
800.07022
800.07016
800.07005
800.06989
800.06969
800.06944
800.06984
800.06995
800.07
800.07001
800.06999
800.06992
800.06981
800.06965
800.06944
800.06917
795.33465
795.33484
795.33493
795.33497
795.33497
795.33493
795.33485
795.33473
795.33459
795.33442
795.33484
795.335
795.33508
795.33512
795.33512
795.33508
795.335
795.33488
795.33472
795.33452
795.33493
795.33508
795.33516
795.33519
795.33519
795.33514
795.33506
795.33493
795.33477
795.33456
795.33497
795.33512
795.33519
795.33522
795.33522
795.33517
795.33508
795.33495
795.33478
795.33457
795.33497
795.33512
795.33519
795.33522
795.3352
795.33515
795.33506
795.33493
795.33476
795.33454
795.33493
795.33508
795.33514
795.33517
795.33515
795.3351
795.33501
795.33487
795.33469
795.33448
795.33485
795.335
795.33506
795.33508
795.33506
795.33501
795.33491
795.33477
795.33459
795.33437
795.33473
795.33488
795.33493
795.33495
795.33493
795.33487
795.33477
795.33463
795.33445
795.33422
795.33459
795.33472
795.33477
795.33478
795.33476
795.33469
795.33459
795.33445
795.33426
795.33403
795.33442
795.33452
795.33456
795.33457
795.33454
795.33448
795.33437
795.33422
795.33403
795.33379
790.6794
790.67956
790.67963
790.67967
790.67966
790.67962
790.67955
790.67944
790.67931
790.67916
790.67956
790.6797
790.67977
790.6798
790.6798
790.67975
790.67968
790.67957
790.67943
790.67924
790.67963
790.67977
790.67983
790.67986
790.67985
790.67981
790.67973
790.67962
790.67947
790.67928
790.67967
790.6798
790.67986
790.67989
790.67988
790.67983
790.67975
790.67963
790.67948
790.67928
790.67966
790.6798
790.67985
790.67988
790.67986
790.67981
790.67973
790.67961
790.67945
790.67926
790.67962
790.67975
790.67981
790.67983
790.67981
790.67976
790.67968
790.67955
790.67939
790.67919
790.67955
790.67968
790.67973
790.67975
790.67973
790.67968
790.67959
790.67946
790.6793
790.6791
790.67944
790.67957
790.67962
790.67963
790.67961
790.67955
790.67946
790.67933
790.67916
790.67896
790.67931
790.67943
790.67947
790.67948
790.67945
790.67939
790.6793
790.67916
790.67899
790.67879
790.67916
790.67924
790.67928
790.67928
790.67926
790.67919
790.6791
790.67896
790.67879
790.67856
786.10221
786.10235
786.10241
786.10244
786.10243
786.10239
786.10233
786.10223
786.10211
786.10198
786.10235
786.10248
786.10253
786.10255
786.10255
786.10251
786.10244
786.10234
786.10221
786.10205
786.10241
786.10253
786.10258
786.1026
786.10259
786.10255
786.10248
786.10238
786.10224
786.10207
786.10244
786.10255
786.1026
786.10262
786.10261
786.10257
786.10249
786.10239
786.10225
786.10207
786.10243
786.10255
786.10259
786.10261
786.1026
786.10255
786.10247
786.10236
786.10222
786.10205
786.10239
786.10251
786.10255
786.10257
786.10255
786.1025
786.10242
786.10231
786.10217
786.10199
786.10233
786.10244
786.10248
786.10249
786.10247
786.10242
786.10234
786.10223
786.10208
786.1019
786.10223
786.10234
786.10238
786.10239
786.10236
786.10231
786.10223
786.10211
786.10196
786.10178
786.10211
786.10221
786.10224
786.10225
786.10222
786.10217
786.10208
786.10196
786.10181
786.10162
786.10198
786.10205
786.10207
786.10207
786.10205
786.10199
786.1019
786.10178
786.10162
786.10142
781.60112
781.60124
781.60128
781.6013
781.60129
781.60126
781.6012
781.60111
781.60101
781.60089
781.60124
781.60134
781.60138
781.6014
781.60139
781.60135
781.60129
781.6012
781.60108
781.60094
781.60128
781.60138
781.60142
781.60144
781.60142
781.60139
781.60132
781.60123
781.60111
781.60096
781.6013
781.6014
781.60144
781.60145
781.60143
781.60139
781.60133
781.60123
781.60111
781.60096
781.60129
781.60139
781.60142
781.60143
781.60142
781.60138
781.60131
781.60121
781.60109
781.60093
781.60126
781.60135
781.60139
781.60139
781.60138
781.60133
781.60126
781.60116
781.60103
781.60088
781.6012
781.60129
781.60132
781.60133
781.60131
781.60126
781.60119
781.60108
781.60096
781.6008
781.60111
781.6012
781.60123
781.60123
781.60121
781.60116
781.60108
781.60098
781.60085
781.60069
781.60101
781.60108
781.60111
781.60111
781.60109
781.60103
781.60096
781.60085
781.60072
781.60056
781.60089
781.60094
781.60096
781.60096
781.60093
781.60088
781.6008
781.60069
781.60056
781.60038
777.17422
777.17431
777.17435
777.17436
777.17435
777.17431
777.17426
777.17419
777.1741
777.174
777.17431
777.17439
777.17442
777.17443
777.17442
777.17439
777.17433
777.17426
777.17416
777.17404
777.17435
777.17442
777.17445
777.17446
777.17445
777.17441
777.17436
777.17428
777.17417
777.17405
777.17436
777.17443
777.17446
777.17447
777.17445
777.17442
777.17436
777.17428
777.17417
777.17404
777.17435
777.17442
777.17445
777.17445
777.17444
777.1744
777.17434
777.17425
777.17415
777.17402
777.17431
777.17439
777.17441
777.17442
777.1744
777.17436
777.17429
777.17421
777.1741
777.17397
777.17426
777.17433
777.17436
777.17436
777.17434
777.17429
777.17423
777.17414
777.17403
777.1739
777.17419
777.17426
777.17428
777.17428
777.17425
777.17421
777.17414
777.17405
777.17394
777.17381
777.1741
777.17416
777.17417
777.17417
777.17415
777.1741
777.17403
777.17394
777.17383
777.17369
777.174
777.17404
777.17405
777.17404
777.17402
777.17397
777.1739
777.17381
777.17369
777.17354
772.81971
772.81978
772.8198
772.8198
772.81979
772.81976
772.81971
772.81965
772.81957
772.81949
772.81978
772.81983
772.81985
772.81986
772.81984
772.81981
772.81976
772.8197
772.81962
772.81952
772.8198
772.81985
772.81987
772.81987
772.81986
772.81983
772.81978
772.81971
772.81963
772.81952
772.8198
772.81986
772.81987
772.81987
772.81986
772.81982
772.81977
772.8197
772.81962
772.81951
772.81979
772.81984
772.81986
772.81986
772.81984
772.81981
772.81975
772.81968
772.8196
772.81949
772.81976
772.81981
772.81983
772.81982
772.81981
772.81977
772.81971
772.81964
772.81955
772.81945
772.81971
772.81976
772.81978
772.81977
772.81975
772.81971
772.81966
772.81959
772.8195
772.81939
772.81965
772.8197
772.81971
772.8197
772.81968
772.81964
772.81959
772.81951
772.81942
772.81931
772.81957
772.81962
772.81963
772.81962
772.8196
772.81955
772.8195
772.81942
772.81933
772.81921
772.81949
772.81952
772.81952
772.81951
772.81949
772.81945
772.81939
772.81931
772.81921
772.81909
768.53585
768.53589
768.5359
768.5359
768.53588
768.53586
768.53582
768.53577
768.53571
768.53564
768.53589
768.53593
768.53594
768.53593
768.53592
768.53589
768.53585
768.5358
768.53573
768.53565
768.5359
768.53594
768.53594
768.53594
768.53592
768.53589
768.53585
768.5358
768.53573
768.53565
768.5359
768.53593
768.53594
768.53593
768.53592
768.53589
768.53584
768.53579
768.53572
768.53564
768.53588
768.53592
768.53592
768.53592
768.5359
768.53587
768.53582
768.53577
768.5357
768.53562
768.53586
768.53589
768.53589
768.53589
768.53587
768.53584
768.53579
768.53573
768.53566
768.53558
768.53582
768.53585
768.53585
768.53584
768.53582
768.53579
768.53575
768.53569
768.53562
768.53553
768.53577
768.5358
768.5358
768.53579
768.53577
768.53573
768.53569
768.53563
768.53556
768.53547
768.53571
768.53573
768.53573
768.53572
768.5357
768.53566
768.53562
768.53556
768.53548
768.5354
768.53564
768.53565
768.53565
768.53564
768.53562
768.53558
768.53553
768.53547
768.5354
768.5353
764.32098
764.321
764.321
764.32099
764.32097
764.32095
764.32092
764.32088
764.32083
764.32079
764.321
764.32101
764.32101
764.321
764.32098
764.32096
764.32093
764.32089
764.32084
764.32079
764.321
764.32101
764.32101
764.321
764.32098
764.32096
764.32092
764.32088
764.32083
764.32078
764.32099
764.321
764.321
764.32099
764.32097
764.32094
764.32091
764.32087
764.32082
764.32076
764.32097
764.32098
764.32098
764.32097
764.32095
764.32092
764.32089
764.32085
764.3208
764.32074
764.32095
764.32096
764.32096
764.32094
764.32092
764.3209
764.32086
764.32082
764.32077
764.32071
764.32092
764.32093
764.32092
764.32091
764.32089
764.32086
764.32083
764.32078
764.32073
764.32067
764.32088
764.32089
764.32088
764.32087
764.32085
764.32082
764.32078
764.32074
764.32069
764.32063
764.32083
764.32084
764.32083
764.32082
764.3208
764.32077
764.32073
764.32069
764.32063
764.32057
764.32079
764.32079
764.32078
764.32076
764.32074
764.32071
764.32067
764.32063
764.32057
764.32051
760.17352
760.17351
760.1735
760.17348
760.17346
760.17344
760.17342
760.17339
760.17337
760.17334
760.17351
760.1735
760.17349
760.17348
760.17346
760.17344
760.17341
760.17339
760.17336
760.17332
760.1735
760.17349
760.17348
760.17346
760.17344
760.17342
760.1734
760.17337
760.17334
760.17331
760.17348
760.17348
760.17346
760.17345
760.17343
760.17341
760.17338
760.17335
760.17332
760.17329
760.17346
760.17346
760.17344
760.17343
760.17341
760.17339
760.17336
760.17333
760.1733
760.17327
760.17344
760.17344
760.17342
760.17341
760.17339
760.17336
760.17334
760.17331
760.17328
760.17325
760.17342
760.17341
760.1734
760.17338
760.17336
760.17334
760.17331
760.17329
760.17326
760.17322
760.17339
760.17339
760.17337
760.17335
760.17333
760.17331
760.17329
760.17326
760.17323
760.17319
760.17337
760.17336
760.17334
760.17332
760.1733
760.17328
760.17326
760.17323
760.17319
760.17316
760.17334
760.17332
760.17331
760.17329
760.17327
760.17325
760.17322
760.17319
760.17316
760.17312
756.09193
756.0919
756.09187
756.09185
756.09183
756.09181
756.0918
756.09179
756.09177
756.09176
756.0919
756.09187
756.09185
756.09182
756.0918
756.09179
756.09177
756.09176
756.09175
756.09174
756.09187
756.09185
756.09182
756.0918
756.09178
756.09176
756.09175
756.09174
756.09172
756.09171
756.09185
756.09182
756.0918
756.09178
756.09176
756.09174
756.09173
756.09172
756.0917
756.09169
756.09183
756.0918
756.09178
756.09176
756.09174
756.09173
756.09171
756.0917
756.09169
756.09168
756.09181
756.09179
756.09176
756.09174
756.09173
756.09171
756.09169
756.09168
756.09167
756.09166
756.0918
756.09177
756.09175
756.09173
756.09171
756.09169
756.09168
756.09167
756.09165
756.09164
756.09179
756.09176
756.09174
756.09172
756.0917
756.09168
756.09167
756.09165
756.09164
756.09163
756.09177
756.09175
756.09172
756.0917
756.09169
756.09167
756.09165
756.09164
756.09163
756.09162
756.09176
756.09174
756.09171
756.09169
756.09168
756.09166
756.09164
756.09163
756.09162
756.09161
752.07475
752.07469
752.07465
752.07463
752.07461
752.07459
752.07458
752.07458
752.07459
752.07459
752.07469
752.07464
752.07461
752.07458
752.07456
752.07455
752.07454
752.07454
752.07454
752.07456
752.07465
752.07461
752.07457
752.07455
752.07453
752.07451
752.07451
752.07451
752.07451
752.07453
752.07463
752.07458
752.07455
752.07452
752.0745
752.07449
752.07448
752.07448
752.07449
752.07451
752.07461
752.07456
752.07453
752.0745
752.07448
752.07447
752.07447
752.07447
752.07447
752.07449
752.07459
752.07455
752.07451
752.07449
752.07447
752.07446
752.07445
752.07446
752.07446
752.07448
752.07458
752.07454
752.07451
752.07448
752.07447
752.07445
752.07445
752.07445
752.07446
752.07447
752.07458
752.07454
752.07451
752.07448
752.07447
752.07446
752.07445
752.07445
752.07446
752.07448
752.07459
752.07454
752.07451
752.07449
752.07447
752.07446
752.07446
752.07446
752.07447
752.07449
752.07459
752.07456
752.07453
752.07451
752.07449
752.07448
752.07447
752.07448
752.07449
752.0745
748.12055
748.12047
748.12042
748.12039
748.12037
748.12036
748.12036
748.12037
748.12039
748.12042
748.12047
748.1204
748.12036
748.12032
748.1203
748.12029
748.12029
748.12031
748.12033
748.12036
748.12042
748.12036
748.12031
748.12028
748.12026
748.12025
748.12026
748.12027
748.12029
748.12033
748.12039
748.12032
748.12028
748.12025
748.12023
748.12022
748.12023
748.12024
748.12027
748.12031
748.12037
748.1203
748.12026
748.12023
748.12021
748.12021
748.12021
748.12023
748.12025
748.12029
748.12036
748.12029
748.12025
748.12022
748.12021
748.1202
748.12021
748.12022
748.12025
748.12029
748.12036
748.12029
748.12026
748.12023
748.12021
748.12021
748.12021
748.12023
748.12026
748.1203
748.12037
748.12031
748.12027
748.12024
748.12023
748.12022
748.12023
748.12025
748.12027
748.12031
748.12039
748.12033
748.12029
748.12027
748.12025
748.12025
748.12026
748.12027
748.1203
748.12034
748.12042
748.12036
748.12033
748.12031
748.12029
748.12029
748.1203
748.12031
748.12034
748.12039
744.22797
744.22787
744.22782
744.22778
744.22776
744.22775
744.22776
744.22778
744.22782
744.22786
744.22787
744.22778
744.22773
744.22769
744.22767
744.22767
744.22768
744.2277
744.22774
744.2278
744.22782
744.22773
744.22768
744.22764
744.22762
744.22762
744.22763
744.22765
744.2277
744.22776
744.22778
744.22769
744.22764
744.22761
744.22759
744.22758
744.2276
744.22763
744.22767
744.22773
744.22776
744.22767
744.22762
744.22759
744.22757
744.22757
744.22758
744.22761
744.22766
744.22772
744.22775
744.22767
744.22762
744.22758
744.22757
744.22757
744.22758
744.22761
744.22766
744.22772
744.22776
744.22768
744.22763
744.2276
744.22758
744.22758
744.2276
744.22763
744.22768
744.22774
744.22778
744.2277
744.22765
744.22763
744.22761
744.22761
744.22763
744.22766
744.22771
744.22777
744.22782
744.22774
744.2277
744.22767
744.22766
744.22766
744.22768
744.22771
744.22776
744.22782
744.22786
744.2278
744.22776
744.22773
744.22772
744.22772
744.22774
744.22777
744.22782
744.22789
740.3957
740.39558
740.39551
740.39547
740.39545
740.39544
740.39546
740.3955
740.39555
740.3956
740.39558
740.39547
740.39541
740.39537
740.39534
740.39534
740.39536
740.3954
740.39545
740.39553
740.39551
740.39541
740.39535
740.39531
740.39529
740.39529
740.39531
740.39535
740.3954
740.39549
740.39547
740.39537
740.39531
740.39527
740.39525
740.39525
740.39527
740.39531
740.39538
740.39546
740.39545
740.39534
740.39529
740.39525
740.39523
740.39524
740.39526
740.3953
740.39536
740.39545
740.39544
740.39534
740.39529
740.39525
740.39524
740.39524
740.39526
740.39531
740.39537
740.39546
740.39546
740.39536
740.39531
740.39527
740.39526
740.39526
740.39529
740.39534
740.3954
740.39549
740.3955
740.3954
740.39535
740.39531
740.3953
740.39531
740.39534
740.39538
740.39545
740.39554
740.39555
740.39545
740.3954
740.39538
740.39536
740.39537
740.3954
740.39545
740.39552
740.39561
740.3956
740.39553
740.39549
740.39546
740.39545
740.39546
740.39549
740.39554
740.39561
740.3957
736.62245
736.62231
736.62223
736.62218
736.62216
736.62216
736.62219
736.62223
736.6223
736.62238
736.62231
736.62218
736.62211
736.62207
736.62204
736.62205
736.62207
736.62212
736.62219
736.62229
736.62223
736.62211
736.62204
736.622
736.62198
736.62198
736.62201
736.62206
736.62214
736.62224
736.62218
736.62207
736.622
736.62196
736.62194
736.62194
736.62197
736.62203
736.62211
736.62221
736.62216
736.62204
736.62198
736.62194
736.62192
736.62193
736.62196
736.62202
736.6221
736.6222
736.62216
736.62205
736.62198
736.62194
736.62193
736.62194
736.62197
736.62203
736.62211
736.62222
736.62219
736.62207
736.62201
736.62197
736.62196
736.62197
736.62201
736.62207
736.62215
736.62226
736.62223
736.62212
736.62206
736.62203
736.62202
736.62203
736.62207
736.62213
736.62222
736.62233
736.6223
736.62219
736.62214
736.62211
736.6221
736.62211
736.62215
736.62222
736.6223
736.62242
736.62238
736.62229
736.62224
736.62221
736.6222
736.62222
736.62226
736.62233
736.62242
736.62253
732.90699
732.90683
732.90674
732.90669
732.90667
732.90667
732.9067
732.90676
732.90684
732.90693
732.90683
732.90668
732.9066
732.90655
732.90653
732.90654
732.90657
732.90663
732.90672
732.90684
732.90674
732.9066
732.90653
732.90648
732.90646
732.90647
732.9065
732.90657
732.90666
732.90678
732.90669
732.90655
732.90648
732.90643
732.90641
732.90643
732.90647
732.90653
732.90663
732.90675
732.90667
732.90653
732.90646
732.90641
732.9064
732.90641
732.90645
732.90652
732.90662
732.90675
732.90667
732.90654
732.90647
732.90643
732.90641
732.90643
732.90647
732.90654
732.90664
732.90677
732.9067
732.90657
732.9065
732.90647
732.90645
732.90647
732.90652
732.90659
732.90669
732.90682
732.90676
732.90663
732.90657
732.90653
732.90652
732.90654
732.90659
732.90667
732.90677
732.9069
732.90684
732.90672
732.90666
732.90663
732.90662
732.90664
732.90669
732.90677
732.90688
732.90701
732.90693
732.90684
732.90678
732.90675
732.90675
732.90677
732.90682
732.9069
732.90701
732.90715
729.2481
729.24792
729.24783
729.24778
729.24775
729.24776
729.2478
729.24787
729.24796
729.24807
729.24792
729.24777
729.24768
729.24762
729.2476
729.24761
729.24766
729.24773
729.24783
729.24797
729.24783
729.24768
729.24759
729.24754
729.24752
729.24754
729.24758
729.24766
729.24777
729.24791
729.24778
729.24762
729.24754
729.24749
729.24748
729.24749
729.24754
729.24762
729.24773
729.24788
729.24775
729.2476
729.24752
729.24748
729.24746
729.24748
729.24753
729.24762
729.24773
729.24788
729.24776
729.24761
729.24754
729.24749
729.24748
729.2475
729.24756
729.24764
729.24776
729.2479
729.2478
729.24766
729.24758
729.24754
729.24753
729.24756
729.24761
729.2477
729.24782
729.24796
729.24787
729.24773
729.24766
729.24762
729.24762
729.24764
729.2477
729.24779
729.24791
729.24806
729.24796
729.24783
729.24777
729.24773
729.24773
729.24776
729.24782
729.24791
729.24803
729.24818
729.24807
729.24797
729.24791
729.24788
729.24788
729.2479
729.24796
729.24806
729.24818
729.24835
725.64463
725.64443
725.64433
725.64428
725.64425
725.64427
725.64432
725.64439
725.6445
725.64462
725.64443
725.64426
725.64417
725.64411
725.64409
725.64411
725.64416
725.64424
725.64436
725.64451
725.64433
725.64417
725.64408
725.64402
725.64401
725.64402
725.64408
725.64416
725.64429
725.64445
725.64428
725.64411
725.64402
725.64397
725.64396
725.64398
725.64403
725.64413
725.64425
725.64442
725.64425
725.64409
725.64401
725.64396
725.64395
725.64397
725.64403
725.64412
725.64425
725.64442
725.64427
725.64411
725.64402
725.64398
725.64397
725.644
725.64406
725.64415
725.64428
725.64445
725.64432
725.64416
725.64408
725.64403
725.64403
725.64406
725.64412
725.64422
725.64435
725.64452
725.64439
725.64424
725.64416
725.64413
725.64412
725.64415
725.64422
725.64432
725.64446
725.64463
725.6445
725.64436
725.64429
725.64425
725.64425
725.64428
725.64435
725.64446
725.6446
725.64477
725.64462
725.64451
725.64445
725.64442
725.64442
725.64445
725.64452
725.64463
725.64477
725.64496
722.09543
722.09522
722.09511
722.09505
722.09503
722.09505
722.0951
722.09519
722.09531
722.09544
722.09522
722.09503
722.09493
722.09487
722.09485
722.09487
722.09493
722.09502
722.09515
722.09532
722.09511
722.09493
722.09484
722.09478
722.09476
722.09479
722.09485
722.09494
722.09508
722.09526
722.09505
722.09487
722.09478
722.09473
722.09471
722.09474
722.0948
722.09491
722.09505
722.09523
722.09503
722.09485
722.09476
722.09471
722.0947
722.09473
722.0948
722.0949
722.09505
722.09523
722.09505
722.09487
722.09479
722.09474
722.09473
722.09476
722.09483
722.09494
722.09509
722.09527
722.0951
722.09493
722.09485
722.0948
722.0948
722.09483
722.09491
722.09502
722.09517
722.09535
722.09519
722.09502
722.09494
722.09491
722.0949
722.09494
722.09502
722.09513
722.09528
722.09547
722.09531
722.09515
722.09508
722.09505
722.09505
722.09509
722.09517
722.09528
722.09544
722.09563
722.09544
722.09532
722.09526
722.09523
722.09523
722.09527
722.09535
722.09547
722.09563
722.09584
718.59939
718.59916
718.59905
718.59899
718.59897
718.59899
718.59905
718.59915
718.59928
718.59942
718.59916
718.59896
718.59886
718.5988
718.59878
718.5988
718.59887
718.59897
718.59911
718.5993
718.59905
718.59886
718.59876
718.5987
718.59868
718.59871
718.59878
718.59889
718.59904
718.59923
718.59899
718.5988
718.5987
718.59865
718.59863
718.59866
718.59874
718.59885
718.599
718.5992
718.59897
718.59878