/*--------------------------------*- C++ -*----------------------------------*\
| =========                 |                                                 |
| \\      /  F ield         | OpenFOAM: The Open Source CFD Toolbox           |
|  \\    /   O peration     | Version:  v2106                                 |
|   \\  /    A nd           | Website:  www.openfoam.com                      |
|    \\/     M anipulation  |                                                 |
\*---------------------------------------------------------------------------*/
FoamFile
{
    version     2.0;
    format      ascii;
    arch        "LSB;label=32;scalar=64";
    class       volScalarField;
    location    "87.5";
    object      gradTx;
}
// * * * * * * * * * * * * * * * * * * * * * * * * * * * * * * * * * * * * * //

dimensions      [0 -1 0 1 0 0 0];

internalField   nonuniform List<scalar> 
4000
(
4.7962082e-05
0.00010538268
5.3067222e-05
2.8754236e-05
9.1915865e-06
-7.8253513e-06
-2.2346239e-05
-3.2949813e-05
-3.5195063e-05
-1.1134083e-05
4.2523912e-05
9.5334362e-05
5.0441735e-05
2.7589013e-05
8.3664864e-06
-8.756576e-06
-2.3870207e-05
-3.6159805e-05
-4.2825582e-05
-1.4739129e-05
4.1263207e-05
9.2178871e-05
4.8354264e-05
2.6135761e-05
7.1275663e-06
-1.0102925e-05
-2.5660547e-05
-3.879291e-05
-4.636897e-05
-1.6047781e-05
4.0773592e-05
9.0621411e-05
4.6788252e-05
2.4713611e-05
5.7703602e-06
-1.1530099e-05
-2.729144e-05
-4.0676267e-05
-4.8230201e-05
-1.6620864e-05
4.0486389e-05
8.9560398e-05
4.5478863e-05
2.335688e-05
4.4142744e-06
-1.2906551e-05
-2.8707284e-05
-4.2071289e-05
-4.9371968e-05
-1.6930647e-05
4.0223523e-05
8.8557392e-05
4.4192126e-05
2.2000311e-05
3.0739179e-06
-1.4212701e-05
-2.9962948e-05
-4.3203361e-05
-5.0212292e-05
-1.7143702e-05
3.9865569e-05
8.7282816e-05
4.270534e-05
2.0553242e-05
1.7316694e-06
-1.5459011e-05
-3.1120125e-05
-4.4224413e-05
-5.0963261e-05
-1.7333772e-05
3.9207542e-05
8.5243079e-05
4.0770895e-05
1.895358e-05
4.0241004e-07
-1.6625545e-05
-3.2200464e-05
-4.5226645e-05
-5.1770211e-05
-1.7553684e-05
3.7725578e-05
8.143972e-05
3.8188878e-05
1.7274875e-05
-7.9543065e-07
-1.7612142e-05
-3.3143404e-05
-4.622012e-05
-5.2747541e-05
-1.7860976e-05
3.4120535e-05
7.4069183e-05
3.5366273e-05
1.595057e-05
-1.5796871e-06
-1.8216835e-05
-3.3758383e-05
-4.7010929e-05
-5.3817579e-05
-1.8267042e-05
0.00020930054
0.00046911941
0.00024858297
0.00013695552
4.3135505e-05
-3.9790598e-05
-0.00011150554
-0.00016600549
-0.00018485914
-6.0649484e-05
0.00018297344
0.00042087478
0.00023637869
0.0001314267
3.9135108e-05
-4.4346301e-05
-0.00011906753
-0.00018266842
-0.00023039106
-8.3180932e-05
0.00017713745
0.00040623303
0.00022655442
0.00012443599
3.311468e-05
-5.0917782e-05
-0.00012783738
-0.00019562941
-0.00024755911
-8.9428701e-05
0.00017483725
0.00039884621
0.00021902386
0.00011753896
2.6505704e-05
-5.7881545e-05
-0.00013580427
-0.00020483391
-0.00025662586
-9.2209599e-05
0.00017345157
0.00039371351
0.00021266667
0.0001109342
1.9893147e-05
-6.4600437e-05
-0.00014271976
-0.00021164905
-0.00026220097
-9.3721173e-05
0.00017217032
0.00038882539
0.00020639446
0.00010431741
1.3350737e-05
-7.0981071e-05
-0.00014885959
-0.00021719022
-0.00026631803
-9.4765638e-05
0.00017041444
0.00038258631
0.00019913141
9.7251534e-05
6.7936298e-06
-7.707709e-05
-0.00015453252
-0.00022221497
-0.00027003371
-9.5710222e-05
0.00016712898
0.00037249354
0.00018965772
8.9435043e-05
2.9543113e-07
-8.279383e-05
-0.00015985747
-0.00022721315
-0.00027414017
-9.6848418e-05
0.00015930582
0.0003529624
0.00017696592
8.12319e-05
-5.5626787e-06
-8.7643009e-05
-0.00016455545
-0.00023232118
-0.00027948748
-9.8607371e-05
0.00013677438
0.00030979357
0.00016342292
7.479319e-05
-9.3967475e-06
-9.0626581e-05
-0.00016767961
-0.00023666691
-0.00028661048
-0.00010159708
0.00033767157
0.00076685796
0.00041948751
0.00023255935
6.947957e-05
-7.7813971e-05
-0.00020852576
-0.00031527999
-0.00037735358
-0.00013115217
0.00029523843
0.00068886947
0.00039930432
0.00022309389
6.2456791e-05
-8.5918114e-05
-0.00022210141
-0.00034551939
-0.00046106922
-0.00017271848
0.00028567923
0.00066462417
0.00038260934
0.0002109486
5.184623e-05
-9.7590276e-05
-0.00023773898
-0.00036864142
-0.00049126597
-0.00018358107
0.00028178297
0.00065199128
0.00036953742
0.00019883829
4.015576e-05
-0.00010996039
-0.00025191833
-0.00038501423
-0.00050728656
-0.00018846147
0.00027936893
0.00064301342
0.00035835373
0.00018716248
2.8424753e-05
-0.00012190922
-0.00026423474
-0.00039715456
-0.00051719923
-0.00019114281
0.00027710112
0.00063435795
0.00034723639
0.00017541681
1.6790177e-05
-0.00013327959
-0.00027520139
-0.00040707598
-0.00052458581
-0.00019301876
0.00027396617
0.00062323711
0.00033431146
0.00016284356
5.1055508e-06
-0.00014417653
-0.00028539775
-0.00041618752
-0.00053140778
-0.00019477058
0.00026805068
0.00060514474
0.00031741949
0.00014892105
-6.4928741e-06
-0.00015444259
-0.00029508826
-0.00042552181
-0.00053941908
-0.00019707073
0.00025380657
0.00056987568
0.00029481663
0.0001343304
-1.6956196e-05
-0.00016320949
-0.00030384357
-0.00043569372
-0.00055147783
-0.00020136934
0.00021224026
0.00049123234
0.00027120213
0.00012298779
-2.3792115e-05
-0.00016865114
-0.00030992153
-0.00044559187
-0.00057416535
-0.00021219574
0.00045222455
0.0010311669
0.00056940229
0.00031436536
8.6310258e-05
-0.00012342436
-0.00031346894
-0.00047518053
-0.00058333187
-0.00020645257
0.00039547511
0.00092679659
0.00054215617
0.00030130368
7.6423302e-05
-0.00013497504
-0.00033295866
-0.00051884938
-0.00070490096
-0.00026689556
0.00038264431
0.00089405471
0.00051925451
0.00028436844
6.1437904e-05
-0.00015158932
-0.00035530419
-0.00055191423
-0.00074777018
-0.00028222339
0.00037731102
0.00087664881
0.00050104501
0.00026733085
4.487e-05
-0.0001692016
-0.00037553812
-0.00057527605
-0.00077053216
-0.00028912716
0.00037393653
0.0008640578
0.00048528169
0.00025079537
2.8191922e-05
-0.00018623836
-0.00039313071
-0.00059262565
-0.00078467877
-0.00029294682
0.00037071972
0.00085177647
0.0004694917
0.00023408487
1.1603822e-05
-0.00020249042
-0.00040884802
-0.0006068822
-0.00079531419
-0.00029565054
0.00036623607
0.00083589283
0.00045105512
0.00021614634
-5.0968754e-06
-0.00021812144
-0.00042355884
-0.00062013692
-0.00080533884
-0.00029824409
0.00035772658
0.00080994121
0.00042691225
0.00019625836
-2.1706071e-05
-0.00023291855
-0.00043770186
-0.00063403903
-0.00081759714
-0.00030182997
0.00033712351
0.00075915914
0.00039462845
0.00017543491
-3.670304e-05
-0.00024563271
-0.00045071567
-0.00064978147
-0.00083721783
-0.00030900179
0.00027668052
0.00064550289
0.00036128104
0.00015934977
-4.6488102e-05
-0.00025357862
-0.0004599848
-0.00066591803
-0.0008767715
-0.00032819907
0.00055894289
0.0012744268
0.00070281967
0.00038368656
9.3978722e-05
-0.0001759437
-0.00042410465
-0.00064011832
-0.00079267222
-0.00028241032
0.00048859862
0.0011451071
0.00066902083
0.0003672743
8.1372954e-05
-0.00019081842
-0.00044934088
-0.0006968598
-0.00095105434
-0.00036120446
0.00047272975
0.0011044973
0.00064037319
0.0003458515
6.2224827e-05
-0.00021219153
-0.00047818492
-0.00073957182
-0.0010061953
-0.00038084873
0.00046606606
0.0010826606
0.00061735932
0.00032415516
4.0994593e-05
-0.00023485595
-0.00050427997
-0.00076970652
-0.001035478
-0.00038970553
0.00046178825
0.0010666623
0.00059725405
0.00030298052
1.9561504e-05
-0.00025681122
-0.00052699265
-0.00079211912
-0.0010537365
-0.00039462911
0.00045766221
0.0010509067
0.00057698096
0.00028149185
-1.8149763e-06
-0.00027780656
-0.00054734932
-0.00081062657
-0.001067565
-0.00039814694
0.00045187176
0.0010304144
0.00055321654
0.00025836085
-2.3389103e-05
-0.00029806772
-0.00056651389
-0.00082800606
-0.0010808011
-0.00040158759
0.00044083806
0.00099682644
0.00052204187
0.00023268412
-4.4884322e-05
-0.00031732779
-0.00058510499
-0.00084653467
-0.0010973917
-0.00040648677
0.00041404411
0.00093096093
0.00048036981
0.00020581352
-6.4309161e-05
-0.00033395465
-0.00060242199
-0.00086797086
-0.0011246942
-0.00041655888
0.00033524998
0.00078330332
0.00043761819
0.00018514296
-7.6971276e-05
-0.00034439237
-0.00061493173
-0.00089042782
-0.0011808712
-0.00044393809
0.00065919762
0.0015005388
0.00082268253
0.00044229625
9.3804554e-05
-0.00023375385
-0.00053780834
-0.00080591676
-0.0010001058
-0.00035719671
0.00057586088
0.0013474291
0.00078270981
0.00042273191
7.8618003e-05
-0.00025181314
-0.00056857353
-0.00087524457
-0.0011939096
-0.00045364493
0.00055712453
0.0012994163
0.00074867496
0.00039708309
5.551602e-05
-0.00027774073
-0.00060366187
-0.00092723491
-0.0012608395
-0.00047743156
0.0005492124
0.0012734216
0.00072114235
0.00037098015
2.9845609e-05
-0.00030524395
-0.00063538893
-0.00096388359
-0.0012963882
-0.00048816316
0.00054408164
0.0012542031
0.00069692321
0.00034539159
3.866673e-06
-0.00033192171
-0.00066303212
-0.0009911777
-0.0013186096
-0.00049414977
0.00053908803
0.001235133
0.00067236994
0.0003193308
-2.2107313e-05
-0.00035748938
-0.00068787737
-0.0010138087
-0.0013355388
-0.00049845819
0.00053204212
0.0012102162
0.00064349239
0.00029121061
-4.8378747e-05
-0.00038223497
-0.00071137957
-0.001035225
-0.0013519268
-0.00050273094
0.00051857791
0.0011692795
0.00060555455
0.00025996056
-7.4595761e-05
-0.00040583683
-0.00073433215
-0.0010583163
-0.0013727953
-0.00050892586
0.00048582357
0.0010888981
0.00055485337
0.00022726783
-9.8303817e-05
-0.00042628223
-0.00075588718
-0.0010853762
-0.0014076506
-0.00052184022
0.00038937535
0.00090854579
0.00050307603
0.00020219052
-0.00011374637
-0.000439154
-0.00077158867
-0.0011140401
-0.0014800122
-0.00055716692
0.00075318993
0.0017107007
0.00093070969
0.00049175231
8.7315943e-05
-0.00029503762
-0.00065217279
-0.00096948975
-0.0012023323
-0.00042974678
0.00065750339
0.0015350057
0.00088491509
0.00046921994
6.9687542e-05
-0.00031612645
-0.00068821132
-0.0010508276
-0.0014299322
-0.00054303821
0.00063605989
0.0014800175
0.000845818
0.00043959219
4.2844617e-05
-0.00034638366
-0.00072925071
-0.0011116651
-0.0015080922
-0.00057076762
0.00062697366
0.001450114
0.00081403422
0.00040933093
1.2966485e-05
-0.00037848962
-0.00076634676
-0.001154527
-0.0015496136
-0.00058328492
0.00062103831
0.0014278574
0.00078592899
0.00037956217
-1.7331427e-05
-0.00040966778
-0.00079869839
-0.0011864866
-0.0015756212
-0.00059028648
0.00061522139
0.0014056426
0.00075731316
0.00034915489
-4.7686896e-05
-0.00043960545
-0.00082784454
-0.0012130752
-0.0015955277
-0.00059535386
0.00060697909
0.0013765113
0.00072356583
0.00031627805
-7.8447269e-05
-0.00046865119
-0.00085552114
-0.0012383873
-0.0016149615
-0.00060043089
0.0005911957
0.0013285647
0.00067917772
0.00027970721
-0.00010918467
-0.0004964282
-0.00088268766
-0.0012659005
-0.0016399781
-0.00060788161
0.00055275387
0.001234336
0.00061986638
0.00024145659
-0.00013699538
-0.00052055188
-0.00090834645
-0.0012984148
-0.0016821468
-0.00062354494
0.00043946244
0.0010228047
0.00055949632
0.00021217831
-0.00015509879
-0.00053576852
-0.00092713807
-0.0013330858
-0.0017701349
-0.00066654034
0.00084075989
0.0019050771
0.001027871
0.00053326803
7.5920399e-05
-0.00035810617
-0.0007651456
-0.0011284741
-0.0013969987
-0.00049931868
0.00073343066
0.0017081072
0.00097661629
0.0005079536
5.5995388e-05
-0.0003820545
-0.00080616984
-0.0012211716
-0.0016565685
-0.00062854356
0.00070944662
0.001646581
0.00093278138
0.00047459638
2.5634584e-05
-0.00041639588
-0.00085283226
-0.001290371
-0.0017453327
-0.00065999298
0.00069926086
0.0016130176
0.00089701513
0.00044043169
-8.204525e-06
-0.00045284574
-0.00089500285
-0.0013391072
-0.0017924971
-0.00067419628
0.00069257033
0.0015879093
0.00086525949
0.00040672946
-4.2575582e-05
-0.00048827722
-0.00093181084
-0.0013754846
-0.0018220886
-0.000682158
0.00068597752
0.0015627318
0.00083281524
0.00037222153
-7.7072239e-05
-0.00052235391
-0.00096503793
-0.0014058326
-0.0018448239
-0.00068794628
0.00067660478
0.0015296196
0.00079446825
0.00033484813
-0.00011208376
-0.0005554822
-0.00099668786
-0.0014348601
-0.0018671651
-0.0006937912
0.00065862802
0.0014750451
0.00074398222
0.00029324296
-0.0001471073
-0.00058723091
-0.0010278765
-0.0014666037
-0.0018961537
-0.00070244446
0.00061480638
0.0013677226
0.00067653272
0.00024973457
-0.00017880913
-0.00061485767
-0.001057459
-0.001504343
-0.0019453287
-0.00072074071
0.0004855815
0.0011267112
0.00060805364
0.00021648705
-0.00019943414
-0.00063230748
-0.0010792063
-0.0015447672
-0.0020482792
-0.00077107815
0.00092162885
0.0020834077
0.0011147032
0.00056774928
6.0804705e-05
-0.00042150394
-0.00087501583
-0.0012809879
-0.0015822655
-0.00056533023
0.00080342977
0.0018665887
0.0010583718
0.00053984753
3.8737372e-05
-0.00044812711
-0.00092070983
-0.0013843296
-0.0018717976
-0.00070948873
0.00077708284
0.0017989863
0.0010101369
0.00050302114
5.0954185e-06
-0.00048628691
-0.00097263575
-0.0014613573
-0.0019704793
-0.00074441445
0.00076587551
0.0017620225
0.00097066766
0.00046522054
-3.2441351e-05
-0.00052679963
-0.0010195575
-0.0015155941
-0.0020229243
-0.00076019433
0.00075848167
0.0017342582
0.00093550995
0.00042784744
-7.0620201e-05
-0.00056621378
-0.0010605428
-0.001556114
-0.0020558748
-0.00076905548
0.00075116395
0.0017063132
0.00089948895
0.00038950493
-0.00010899486
-0.00060417277
-0.0010976031
-0.0015899962
-0.0020812699
-0.00077552142
0.0007407329
0.0016694752
0.00085683741
0.00034792057
-0.00014799335
-0.00064113763
-0.0011329946
-0.0016225283
-0.0021063562
-0.00078209153
0.0007207013
0.0016086933
0.0008006412
0.00030159792
-0.00018704037
-0.00067662465
-0.00116798
-0.0016582743
-0.0021391073
-0.00079188447
0.00067183843
0.0014891059
0.00072557291
0.00025316387
-0.00022239541
-0.00070755191
-0.0012012728
-0.0017009663
-0.0021949299
-0.00081267941
0.00052767993
0.0012204795
0.0006495145
0.00021620233
-0.00024538603
-0.00072710598
-0.0012258174
-0.0017468481
-0.0023120835
-0.00086998685
0.00099548839
0.0022452649
0.0011914947
0.00059586489
4.2933869e-05
-0.00048401552
-0.00098036378
-0.001425489
-0.0017566149
-0.0006272952
0.00086725403
0.0020101329
0.0011304945
0.00056558173
1.888835e-05
-0.00051311492
-0.0010303859
-0.0015387004
-0.0020739369
-0.00078530552
0.00083873376
0.0019369451
0.0010782158
0.00052556053
-1.7783259e-05
-0.00055480796
-0.0010871871
-0.0016229796
-0.0021817954
-0.00082344499
0.00082658723
0.001896854
0.0010353376
0.00048440672
-5.8737108e-05
-0.00059908141
-0.0011385106
-0.0016823126
-0.002239129
-0.00084068334
0.00081854497
0.0018666407
0.00099704081
0.0004436421
-0.00010043932
-0.00064218582
-0.0011833697
-0.001726675
-0.0022751941
-0.00085037796
0.00081055688
0.0018361369
0.00095771217
0.00040175067
-0.0001424076
-0.00068374753
-0.0012239916
-0.0017638434
-0.0023030626
-0.00085747396
0.00079914537
0.0017958483
0.00091107431
0.00035626423
-0.00018510544
-0.00072427867
-0.0012628679
-0.0017996448
-0.0023307124
-0.00086472159
0.00077720881
0.0017293135
0.00084958743
0.00030556808
-0.00022788856
-0.00076324568
-0.0013013976
-0.0018391366
-0.0023669905
-0.00087558359
0.00072367111
0.0015983577
0.00076746212
0.00025256884
-0.00026663631
-0.0007972485
-0.001338161
-0.0018864745
-0.0024290587
-0.00089872721
0.00056566078
0.001304133
0.00068439539
0.00021216938
-0.00029182223
-0.00081876394
-0.0013653255
-0.0019374829
-0.002559569
-0.00096259051
0.001062038
0.0023901739
0.0012583936
0.00061811179
2.3083495e-05
-0.00054463731
-0.0010800095
-0.0015606906
-0.0019187616
-0.0006847965
0.00092465916
0.0021383664
0.0011931561
0.0005856645
-2.7663907e-06
-0.00057600158
-0.0011339951
-0.0016829447
-0.0022615534
-0.0008555031
0.00089416639
0.0020601119
0.0011372087
0.00054273754
-4.220164e-05
-0.00062092461
-0.0011952577
-0.0017738599
-0.0023777994
-0.00089657691
0.00088116754
0.0020171815
0.0010912312
0.00049852872
-8.627533e-05
-0.0006686373
-0.0012506098
-0.0018378571
-0.0024396033
-0.00091514788
0.00087253486
0.0019847377
0.0010500729
0.0004546683
-0.00013119857
-0.00071511979
-0.0012990181
-0.0018857406
-0.0024785211
-0.00092560543
0.00086393427
0.0019518964
0.0010077223
0.00040953179
-0.00017645686
-0.00075998442
-0.001342909
-0.0019259279
-0.0025086623
-0.00093328023
0.00085162534
0.0019084504
0.00095743717
0.00036047311
-0.00022254569
-0.00080379051
-0.0013849917
-0.0019647428
-0.0025386779
-0.00094115351
0.00082794389
0.0018366482
0.00089110755
0.00030577144
-0.00026875609
-0.0008459581
-0.0014267912
-0.0020076997
-0.0025782253
-0.00095300739
0.00077012267
0.0016952811
0.00080252475
0.00024859247
-0.00031061647
-0.00088279276
-0.0014667635
-0.0020593477
-0.0026460989
-0.00097833553
0.00059941606
0.0013776104
0.00071305759
0.00020504972
-0.000337815
-0.00090611489
-0.0014963543
-0.0021151207
-0.0027890406
-0.0010483018
0.0011210033
0.0025176754
0.0013154727
0.0006348667
1.8781719e-06
-0.0006025422
-0.0011729698
-0.0016855106
-0.0020676073
-0.00073747372
0.00097542073
0.0022509203
0.0012464512
0.0006004831
-2.5593341e-05
-0.00063594843
-0.0012305338
-0.0018159336
-0.0024334174
-0.00091965573
0.00094316654
0.0021681434
0.0011872276
0.00055495325
-6.7512727e-05
-0.000683782
-0.0012958211
-0.0019128356
-0.0025572192
-0.00096336974
0.00092940639
0.0021226752
0.0011384751
0.00050800221
-0.00011439369
-0.00073459493
-0.0013548078
-0.0019810407
-0.0026230524
-0.00098314067
0.00092024415
0.0020882299
0.0010947467
0.00046135686
-0.00016221943
-0.00078412587
-0.0014064218
-0.0020321051
-0.0026645458
-0.00099428663
0.00091109204
0.0020532843
0.0010496747
0.00041329552
-0.00021044699
-0.00083197588
-0.0014532714
-0.002075027
-0.0026967462
-0.0010024858
0.00089797332
0.0020069901
0.00099610019
0.000361013
-0.00025960038
-0.00087874751
-0.0014982641
-0.0021165824
-0.0027289165
-0.0010109293
0.00087271605
0.001930433
0.0009254007
0.00030269482
-0.00030891061
-0.00092381818
-0.0015430395
-0.0021627032
-0.0027714564
-0.0010236921
0.00081102468
0.0017796652
0.00083099311
0.00024174349
-0.0003535867
-0.00096322486
-0.0015859403
-0.0022183003
-0.0028446615
-0.0010510279
0.00062884267
0.0014408211
0.0007357657
0.00019536817
-0.00038260442
-0.00098818886
-0.0016177497
-0.0022784482
-0.0029990372
-0.0011266092
0.0011721456
0.0026273607
0.0013627709
0.00064642485
-2.0174238e-05
-0.00065704707
-0.0012584249
-0.001799038
-0.002202215
-0.00078501691
0.0010193437
0.0023474642
0.0012904373
0.00061034217
-4.9076769e-05
-0.00069226234
-0.0013191646
-0.0019367159
-0.0025884784
-0.00097739677
0.00098554801
0.0022607315
0.0012283458
0.00056252462
-9.3188879e-05
-0.00074267276
-0.00138802
-0.0020389258
-0.0027189675
-0.0010234441
0.00097112128
0.0022130391
0.0011771556
0.00051315716
-0.00014255102
-0.00079623176
-0.0014502295
-0.0021108618
-0.0027883691
-0.0010442765
0.00096149288
0.0021768313
0.0011311608
0.00046405115
-0.00019294649
-0.00084846624
-0.0015046894
-0.0021647509
-0.0028321483
-0.001056033
0.00095185293
0.0021400245
0.0010836814
0.00041339955
-0.00024380774
-0.00089896886
-0.0015541721
-0.0022101089
-0.0028661838
-0.0010646994
0.00093801604
0.0020912056
0.0010271913
0.00035825767
-0.00029568358
-0.00094838106
-0.0016017625
-0.0022541168
-0.0029002859
-0.0010736546
0.00091135981
0.0020104295
0.00095261648
0.00029673011
-0.00034775028
-0.0009960419
-0.0016492039
-0.002303083
-0.0029455246
-0.0010872382
0.00084623077
0.0018513178
0.00085304542
0.00023243256
-0.00039493068
-0.001037747
-0.0016947366
-0.0023622458
-0.0030235573
-0.0011163937
0.00065385091
0.0014936769
0.00075272576
0.00018354932
-0.00042556497
-0.0010641794
-0.0017285447
-0.0024263544
-0.0031883053
-0.0011970702
0.0012152682
0.0027188933
0.0014003205
0.00065302878
-4.2655e-05
-0.0007075864
-0.0013356934
-0.0019005107
-0.0023217939
-0.00082716299
0.001056268
0.0024277281
0.0013251624
0.00061549202
-7.279125e-05
-0.00074436923
-0.0013991911
-0.0020444955
-0.0027258496
-0.0010284153
0.0010211581
0.0023376247
0.0012606244
0.00056571241
-0.0001187946
-0.00079701086
-0.0014711413
-0.0021513098
-0.0028621271
-0.0010764786
0.0010061626
0.002288032
0.001207345
0.00051426539
-0.00017030033
-0.00085294889
-0.0015361466
-0.0022264823
-0.0029346195
-0.0010982291
0.00099613363
0.0022503084
0.0011593977
0.00046303439
-0.0002229207
-0.0009075292
-0.0015930791
-0.0022828262
-0.0029803839
-0.0011105152
0.00098607179
0.0022118924
0.0011098359
0.00041013929
-0.00027606751
-0.00096033874
-0.001644856
-0.0023303099
-0.0030160212
-0.0011195895
0.00097161174
0.0021608839
0.0010508181
0.00035251608
-0.00033031055
-0.0010120535
-0.001694719
-0.0023764697
-0.0030518222
-0.0011289952
0.00094373998
0.0020764445
0.00097288049
0.00028820149
-0.00038477698
-0.0010619786
-0.0017445026
-0.0024279476
-0.0030994519
-0.0011433072
0.00087562185
0.0019100848
0.0008688313
0.00022099962
-0.00043413814
-0.0011056971
-0.0017923567
-0.0024902736
-0.0031817819
-0.0011740843
0.00067436955
0.0015361114
0.00076411056
0.0001699447
-0.00046617868
-0.001133417
-0.0018279333
-0.0025579073
-0.0033557837
-0.0012593084
0.0012502195
0.0027920224
0.0014281654
0.00065488891
-6.5213348e-05
-0.00075369172
-0.0014042128
-0.0019893001
-0.0024256894
-0.00086369359
0.001086072
0.0024915149
0.0013506831
0.00061614938
-9.6380646e-05
-0.00079179381
-0.0014700388
-0.0021386163
-0.0028447984
-0.001072454
0.0010498812
0.002398641
0.0012841303
0.00056474178
-0.00014396554
-0.00084631128
-0.0015445971
-0.0022493114
-0.0029859405
-0.0011222074
0.0010344171
0.0023474798
0.0012291192
0.00051156101
-0.00019726791
-0.00090425084
-0.0016119588
-0.0023272118
-0.0030610331
-0.0011447287
0.0010240548
0.0023084938
0.0011795419
0.00045854991
-0.00025175861
-0.00096080879
-0.0016709795
-0.0023856299
-0.0031084731
-0.0011574614
0.0010136389
0.0022687276
0.0011282319
0.00040376794
-0.00030683264
-0.0010155692
-0.0017247015
-0.0024349188
-0.0031454718
-0.0011668822
0.00099865345
0.0022158743
0.0010670849
0.00034405241
-0.00036307694
-0.0010692379
-0.0017765011
-0.0024829197
-0.0031827306
-0.0011766751
0.0009697549
0.0021283433
0.00098631192
0.0002773855
-0.0004195754
-0.0011210907
-0.0018282917
-0.002536563
-0.0032324311
-0.0011916193
0.00089910934
0.0019558629
0.00087848931
0.00020773395
-0.0004707839
-0.0011665277
-0.0018781453
-0.0026016336
-0.0033185057
-0.0012238114
0.00069034895
0.0015680922
0.00077007719
0.00015485292
-0.00050401408
-0.0011953482
-0.001915251
-0.0026723382
-0.0035005939
-0.0013130114
0.0012768954
0.0028465924
0.0014463744
0.00065219871
-8.7550552e-05
-0.00079497617
-0.0014635261
-0.0020648998
-0.0025133761
-0.00089443358
0.0011086745
0.0025387099
0.0013670773
0.0006125124
-0.00011954216
-0.00083414392
-0.0015312414
-0.0022185505
-0.0029447394
-0.0011093079
0.0010716404
0.0024436763
0.0012989491
0.00055981708
-0.00016839273
-0.00089017442
-0.0016079108
-0.002332388
-0.003089804
-0.0011604191
0.0010558098
0.0023912846
0.0012425702
0.00050525509
-0.00022313776
-0.00094973009
-0.0016771802
-0.0024124969
-0.0031669959
-0.0011835611
0.0010451829
0.0023512946
0.0011916918
0.00045081583
-0.00027913667
-0.0010078895
-0.0017378963
-0.0024726
-0.0032157954
-0.0011966555
0.0010344821
0.0023104424
0.0011389746
0.00039451116
-0.00033577173
-0.0010642366
-0.001793206
-0.0025233661
-0.0032539091
-0.0012063601
0.001019071
0.0022560964
0.0010761056
0.00033310075
-0.00039364311
-0.0011195023
-0.0018465976
-0.0025728889
-0.003292378
-0.001216475
0.00098933853
0.0021660577
0.00099303579
0.00026452567
-0.00045179754
-0.0011729378
-0.001900051
-0.0026283413
-0.0033438191
-0.0012319522
0.00091663726
0.0019886081
0.0008821592
0.00019288876
-0.00050451232
-0.0012197911
-0.0019515727
-0.0026957243
-0.003433067
-0.0012653457
0.00070176296
0.0015896298
0.00077077931
0.00013853429
-0.00053871072
-0.0012495204
-0.001989961
-0.0027690303
-0.0036220329
-0.0013579294
0.0012952407
0.0028825476
0.001455049
0.00064514542
-0.00010940823
-0.00083112267
-0.0015132708
-0.002126917
-0.0025844524
-0.00091924988
0.0011240363
0.0025692857
0.0013744527
0.0006047713
-0.00014201468
-0.00087109893
-0.00158243
-0.0022838907
-0.0030252296
-0.001138823
0.0010863994
0.0024727103
0.0013051933
0.00055113262
-0.00019181089
-0.00092827462
-0.0016607064
-0.0024001216
-0.0031732619
-0.0011909558
0.0010703054
0.0024194299
0.0012478148
0.00049554643
-0.00024763977
-0.00098905547
-0.0017314283
-0.0024819122
-0.0032520454
-0.0012145662
0.0010594833
0.0023786975
0.0011959684
0.00044003569
-0.00030477964
-0.0010484346
-0.001793441
-0.0025433053
-0.0033018836
-0.0012279361
0.0010485677
0.0023370273
0.0011421898
0.0003825777
-0.00036260409
-0.0011059984
-0.0018499751
-0.0025952151
-0.0033408618
-0.0012378607
0.0010328324
0.0022815456
0.0010780119
0.0003198757
-0.00042172258
-0.0011624982
-0.0019046082
-0.0026459345
-0.003380288
-0.0012482312
0.0010024616
0.0021895917
0.00099319141
0.00024984312
-0.0004811509
-0.0012171656
-0.0019593733
-0.0027028318
-0.0034331319
-0.0012641397
0.00092818333
0.002008341
0.00087999036
0.00017669194
-0.00053502552
-0.0012651274
-0.0020122248
-0.0027720845
-0.0035249667
-0.0012985151
0.00070861023
0.0016007822
0.00076637557
0.00012122147
-0.00056996732
-0.00129557
-0.0020516434
-0.0028475105
-0.0037195687
-0.0013938744
0.0013052493
0.0028999361
0.0014543299
0.00063391766
-0.00013055962
-0.00086187528
-0.0015531711
-0.0021750662
-0.0026386366
-0.00093805053
0.0011321603
0.0025833057
0.0013729525
0.00059311609
-0.00016357004
-0.00090240084
-0.0016233251
-0.0023343431
-0.0030859632
-0.0011608955
0.0010941623
0.0024858096
0.0013030081
0.0005388803
-0.00021398973
-0.00096035112
-0.0017027007
-0.0024522126
-0.0032360022
-0.0012137114
0.0010779087
0.0024319839
0.0012450005
0.00048262918
-0.00027054106
-0.0010219632
-0.0017744163
-0.0025351542
-0.0033158659
-0.001237637
0.0010669613
0.0023907722
0.0011925212
0.00042640617
-0.00032845185
-0.0010821772
-0.0018373234
-0.002597439
-0.0033664194
-0.0012511957
0.0010559017
0.0023485538
0.0011380295
0.00036816708
-0.00038709098
-0.0011405846
-0.0018947152
-0.0026501556
-0.0034060091
-0.0012612759
0.0010399442
0.0022922964
0.0010729588
0.00030458004
-0.00044707319
-0.001197952
-0.0019502353
-0.0027017423
-0.0034461365
-0.0012718346
0.0010091324
0.0021990242
0.00098693828
0.0002335444
-0.00050738985
-0.0012534965
-0.0020059565
-0.0027597147
-0.0035000396
-0.001288071
0.00093375963
0.0020151499
0.00087214775
0.00015935371
-0.00056207467
-0.0013022554
-0.0020597944
-0.0028303871
-0.003593864
-0.0013232047
0.00071091466
0.0016016586
0.00075703552
0.00010312724
-0.00059753305
-0.0013332137
-0.002099987
-0.0029074422
-0.0037928356
-0.0014207187
0.0013069646
0.0028989105
0.0014444003
0.00061871099
-0.00015080311
-0.00088703221
-0.0015830311
-0.0022091633
-0.0026757625
-0.00095078366
0.0011330919
0.0025809254
0.0013627595
0.00057774203
-0.00018400654
-0.00092784757
-0.0016537303
-0.0023697218
-0.0031267684
-0.0011754706
0.0010949746
0.0024831287
0.0012925756
0.00052325519
-0.0002347274
-0.00098620141
-0.0017336962
-0.0024884744
-0.0032778525
-0.0012286312
0.0010786647
0.0024291007
0.0012343088
0.00046669839
-0.00029163955
-0.0010482504
-0.0018059462
-0.0025720352
-0.0033582847
-0.0012527187
0.0010676619
0.0023876729
0.001181532
0.00041012259
-0.00034995067
-0.0011089136
-0.0018693445
-0.0026348125
-0.0034092293
-0.0012663793
0.0010565291
0.0023451764
0.0011266758
0.00035147513
-0.00040902898
-0.0011677903
-0.0019272261
-0.0026879979
-0.0034491767
-0.0012765504
0.0010404517
0.0022885037
0.0010611292
0.00028741039
-0.00046949062
-0.0012256576
-0.001983277
-0.0027401207
-0.0034897475
-0.0012872294
0.0010093963
0.0021945113
0.00097445991
0.00021582691
-0.00053030895
-0.0012817228
-0.0020395964
-0.0027987956
-0.003544363
-0.0013036892
0.00093341269
0.0020091926
0.00085881574
0.00014107228
-0.00058545329
-0.0013309658
-0.0020940746
-0.0028704325
-0.0036395723
-0.0013393547
0.00070872575
0.0015924213
0.0007429436
8.4450096e-05
-0.00062120088
-0.001362241
-0.0021347827
-0.0029486204
-0.0038416304
-0.0014383946
0.0013004789
0.0028797282
0.0014254883
0.00059973163
-0.00016995732
-0.00090644047
-0.0016027298
-0.0022291214
-0.0026957764
-0.00095743658
0.0011269185
0.0025623925
0.001344098
0.00055885354
-0.00020314401
-0.00094728735
-0.0016735262
-0.0023899441
-0.0031476032
-0.0011825414
0.0010889217
0.0024649109
0.0012741168
0.0005044593
-0.00025384559
-0.0010056756
-0.0017535764
-0.0025088278
-0.0032987762
-0.0012357104
0.0010726584
0.002411021
0.0012159582
0.0004479539
-0.00031075882
-0.0010677688
-0.0018259032
-0.002592479
-0.0033792678
-0.0012598074
0.0010616696
0.0023696385
0.0011632172
0.00039138287
-0.00036910147
-0.0011284973
-0.0018893913
-0.002655351
-0.0034302809
-0.0012734834
0.0010505339
0.0023271327
0.0011083434
0.00033269806
-0.000428245
-0.0011874704
-0.001947396
-0.002708668
-0.0034703324
-0.0012836809
0.0010344384
0.0022704034
0.0010427357
0.00026856115
-0.00048880312
-0.0012454708
-0.0020036219
-0.0027609958
-0.0035110887
-0.0012944123
0.0010033363
0.0021762861
0.00095596644
0.00019688313
-0.00054973776
-0.001301701
-0.0020601818
-0.0028199997
-0.0035660684
-0.0013109904
0.00092722322
0.001990697
0.00084020087
0.00012203794
-0.00060499213
-0.0013511155
-0.0021149536
-0.0028921444
-0.0036620547
-0.0013469598
0.00070211839
0.0015732862
0.00072430187
6.5378441e-05
-0.00064080238
-0.0013825089
-0.0021559178
-0.0029709656
-0.0038659078
-0.0014468925
0.001285932
0.0028427502
0.001397868
0.00057719931
-0.00018785722
-0.00091999132
-0.0016122159
-0.002234946
-0.0026987326
-0.00095803458
0.0011137687
0.0025280459
0.0013172356
0.00053666692
-0.00022081987
-0.00096061425
-0.0016826666
-0.002395026
-0.003148551
-0.0011821476
0.0010761291
0.0024314867
0.0012478928
0.00048270452
-0.00027118548
-0.0010186718
-0.0017623001
-0.0025132971
-0.0032988679
-0.0012349929
0.0010600137
0.0023780706
0.0011902052
0.00042660326
-0.00032774413
-0.0010804208
-0.0018342513
-0.0025965152
-0.0033789153
-0.0012589487
0.0010491075
0.0023369919
0.0011378291
0.00037039047
-0.00038575345
-0.0011408347
-0.0018974318
-0.0026590884
-0.0034296777
-0.0012725545
0.0010380386
0.0022947424
0.0010832809
0.0003120353
-0.00044459212
-0.0011995349
-0.0019551959
-0.0027122025
-0.0034695821
-0.0012827144
0.0010220256
0.0022383114
0.0010180225
0.00024822758
-0.00050486749
-0.0012573046
-0.002011244
-0.0027644065
-0.0035102675
-0.0012934306
0.00099107146