/*--------------------------------*- C++ -*----------------------------------*\
| =========                 |                                                 |
| \\      /  F ield         | OpenFOAM: The Open Source CFD Toolbox           |
|  \\    /   O peration     | Version:  v2106                                 |
|   \\  /    A nd           | Website:  www.openfoam.com                      |
|    \\/     M anipulation  |                                                 |
\*---------------------------------------------------------------------------*/
FoamFile
{
    version     2.0;
    format      ascii;
    arch        "LSB;label=32;scalar=64";
    class       volScalarField;
    location    "87.5";
    object      laplacianT;
}
// * * * * * * * * * * * * * * * * * * * * * * * * * * * * * * * * * * * * * //

dimensions      [0 -2 0 1 0 0 0];

internalField   nonuniform List<scalar> 
4000
(
41202.495
41202.491
41202.507
41202.514
41202.518
41202.518
41202.515
41202.509
41202.502
41202.496
41202.491
41202.49
41202.504
41202.512
41202.515
41202.515
41202.512
41202.506
41202.498
41202.492
41202.507
41202.504
41202.518
41202.525
41202.528
41202.528
41202.524
41202.518
41202.51
41202.503
41202.514
41202.512
41202.525
41202.532
41202.534
41202.534
41202.53
41202.524
41202.515
41202.508
41202.518
41202.515
41202.528
41202.534
41202.537
41202.536
41202.532
41202.525
41202.516
41202.509
41202.518
41202.515
41202.528
41202.534
41202.536
41202.535
41202.531
41202.524
41202.515
41202.507
41202.515
41202.512
41202.524
41202.53
41202.532
41202.531
41202.526
41202.519
41202.51
41202.502
41202.509
41202.506
41202.518
41202.524
41202.525
41202.524
41202.519
41202.512
41202.502
41202.494
41202.502
41202.498
41202.51
41202.515
41202.516
41202.515
41202.51
41202.502
41202.492
41202.484
41202.496
41202.492
41202.503
41202.508
41202.509
41202.507
41202.502
41202.494
41202.484
41202.476
-551.53917
-551.6515
-551.63716
-551.63708
-551.63722
-551.63722
-551.6371
-551.63687
-551.63655
-551.63199
-551.6515
-551.73431
-551.72247
-551.72253
-551.72267
-551.72266
-551.72251
-551.72224
-551.72187
-551.69453
-551.63716
-551.72247
-551.71088
-551.71093
-551.71106
-551.71104
-551.71089
-551.7106
-551.7102
-551.68442
-551.63708
-551.72253
-551.71093
-551.71097
-551.71109
-551.71106
-551.71089
-551.71059
-551.71017
-551.68432
-551.63722
-551.72267
-551.71106
-551.71109
-551.71119
-551.71115
-551.71097
-551.71066
-551.71023
-551.68437
-551.63722
-551.72266
-551.71104
-551.71106
-551.71115
-551.7111
-551.71091
-551.71059
-551.71015
-551.68428
-551.6371
-551.72251
-551.71089
-551.71089
-551.71097
-551.71091
-551.71071
-551.71038
-551.70993
-551.68406
-551.63687
-551.72224
-551.7106
-551.71059
-551.71066
-551.71059
-551.71038
-551.71004
-551.70958
-551.68371
-551.63655
-551.72187
-551.7102
-551.71017
-551.71023
-551.71015
-551.70993
-551.70958
-551.70911
-551.68324
-551.63199
-551.69453
-551.68442
-551.68433
-551.68437
-551.68428
-551.68406
-551.68371
-551.68324
-551.6564
-541.20168
-541.36909
-541.34551
-541.34524
-541.34539
-541.34539
-541.34521
-541.34489
-541.34445
-541.31579
-541.36909
-541.49078
-541.47147
-541.47142
-541.47158
-541.47156
-541.47135
-541.47098
-541.47045
-541.3994
-541.34551
-541.47147
-541.4526
-541.45256
-541.4527
-541.45267
-541.45245
-541.45206
-541.4515
-541.38408
-541.34524
-541.47142
-541.45256
-541.4525
-541.45263
-541.45258
-541.45234
-541.45193
-541.45135
-541.38386
-541.34539
-541.47158
-541.4527
-541.45263
-541.45274
-541.45268
-541.45243
-541.45201
-541.45141
-541.38389
-541.34539
-541.47156
-541.45267
-541.45258
-541.45268
-541.4526
-541.45234
-541.4519
-541.45129
-541.38376
-541.34521
-541.47135
-541.45245
-541.45234
-541.45243
-541.45234
-541.45206
-541.45161
-541.45099
-541.38346
-541.34489
-541.47098
-541.45206
-541.45193
-541.45201
-541.4519
-541.45161
-541.45115
-541.45051
-541.38299
-541.34445
-541.47045
-541.4515
-541.45135
-541.45141
-541.45129
-541.45099
-541.45051
-541.44986
-541.38235
-541.31579
-541.3994
-541.38408
-541.38386
-541.38389
-541.38376
-541.38346
-541.38299
-541.38235
-541.30458
-531.18297
-531.40311
-531.37097
-531.37052
-531.37069
-531.37066
-531.37044
-531.37003
-531.36947
-531.31866
-531.40311
-531.56264
-531.53636
-531.53621
-531.53638
-531.53634
-531.53607
-531.5356
-531.53492
-531.4222
-531.37097
-531.53636
-531.51068
-531.51054
-531.5107
-531.51064
-531.51036
-531.50986
-531.50914
-531.40216
-531.37052
-531.53621
-531.51054
-531.51038
-531.51052
-531.51045
-531.51014
-531.50962
-531.50888
-531.40182
-531.37069
-531.53638
-531.5107
-531.51052
-531.51065
-531.51055
-531.51023
-531.50969
-531.50893
-531.40184
-531.37066
-531.53634
-531.51064
-531.51045
-531.51055
-531.51044
-531.5101
-531.50954
-531.50877
-531.40167
-531.37044
-531.53607
-531.51036
-531.51014
-531.51023
-531.5101
-531.50975
-531.50917
-531.50838
-531.40129
-531.37003
-531.5356
-531.50986
-531.50962
-531.50969
-531.50954
-531.50917
-531.50858
-531.50778
-531.4007
-531.36947
-531.53492
-531.50914
-531.50888
-531.50893
-531.50877
-531.50838
-531.50778
-531.50696
-531.39988
-531.31866
-531.4222
-531.40216
-531.40182
-531.40184
-531.40167
-531.40129
-531.4007
-531.39988
-531.27402
-521.47013
-521.74134
-521.70095
-521.70031
-521.70049
-521.70044
-521.70017
-521.69968
-521.699
-521.62665
-521.74134
-521.93747
-521.90445
-521.90421
-521.90439
-521.90431
-521.90398
-521.9034
-521.90259
-521.74941
-521.70095
-521.90445
-521.8722
-521.87197
-521.87213
-521.87204
-521.87169
-521.87109
-521.87022
-521.72485
-521.70031
-521.90421
-521.87197
-521.87171
-521.87185
-521.87174
-521.87137
-521.87074
-521.86985
-521.72439
-521.70049
-521.90439
-521.87213
-521.87185
-521.87198
-521.87185
-521.87145
-521.8708
-521.86988
-521.72439
-521.70044
-521.90431
-521.87204
-521.87174
-521.87185
-521.8717
-521.87128
-521.87061
-521.86968
-521.72418
-521.70017
-521.90398
-521.87169
-521.87137
-521.87145
-521.87128
-521.87085
-521.87016
-521.86921
-521.72372
-521.69968
-521.9034
-521.87109
-521.87074
-521.8708
-521.87061
-521.87016
-521.86945
-521.86848
-521.72301
-521.699
-521.90259
-521.87022
-521.86985
-521.86988
-521.86968
-521.86921
-521.86848
-521.86749
-521.72204
-521.62665
-521.74941
-521.72485
-521.72439
-521.72439
-521.72418
-521.72372
-521.72301
-521.72204
-521.5497
-512.04878
-512.36883
-512.32051
-512.3197
-512.31988
-512.31981
-512.31948
-512.31891
-512.31812
-512.22493
-512.36883
-512.59993
-512.56043
-512.56009
-512.56027
-512.56017
-512.55977
-512.5591
-512.55814
-512.36593
-512.32051
-512.56043
-512.52187
-512.52153
-512.5217
-512.52158
-512.52116
-512.52046
-512.51946
-512.33704
-512.3197
-512.56009
-512.52153
-512.52118
-512.52132
-512.52118
-512.52074
-512.52
-512.51896
-512.33647
-512.31988
-512.56027
-512.5217
-512.52132
-512.52144
-512.52127
-512.52081
-512.52005
-512.51898
-512.33645
-512.31981
-512.56017
-512.52158
-512.52118
-512.52127
-512.52108
-512.5206
-512.51981
-512.51873
-512.33619
-512.31948
-512.55977
-512.52116
-512.52074
-512.52081
-512.5206
-512.52009
-512.51928
-512.51818
-512.33565
-512.31891
-512.5591
-512.52046
-512.52
-512.52005
-512.51981
-512.51928
-512.51846
-512.51733
-512.33483
-512.31812
-512.55814
-512.51946
-512.51896
-512.51898
-512.51873
-512.51818
-512.51733
-512.51619
-512.33371
-512.22493
-512.36593
-512.33704
-512.33647
-512.33645
-512.33619
-512.33565
-512.33483
-512.33371
-512.11651
-502.90466
-503.27102
-503.21513
-503.21415
-503.21432
-503.21424
-503.21386
-503.2132
-503.21231
-503.0991
-503.27102
-503.53521
-503.48954
-503.4891
-503.48928
-503.48915
-503.48869
-503.48792
-503.48684
-503.25726
-503.21513
-503.48954
-503.44495
-503.44452
-503.44468
-503.44453
-503.44405
-503.44325
-503.44212
-503.22425
-503.21415
-503.4891
-503.44452
-503.44407
-503.4442
-503.44403
-503.44352
-503.44268
-503.44151
-503.22356
-503.21432
-503.48928
-503.44468
-503.4442
-503.44432
-503.44411
-503.44358
-503.44271
-503.44151
-503.22352
-503.21424
-503.48915
-503.44453
-503.44403
-503.44411
-503.44389
-503.44333
-503.44244
-503.44121
-503.22321
-503.21386
-503.48869
-503.44405
-503.44352
-503.44358
-503.44333
-503.44274
-503.44183
-503.44059
-503.2226
-503.2132
-503.48792
-503.44325
-503.44268
-503.44271
-503.44244
-503.44183
-503.44089
-503.43963
-503.22167
-503.21231
-503.48684
-503.44212
-503.44151
-503.44151
-503.44121
-503.44059
-503.43963
-503.43833
-503.22041
-503.0991
-503.25726
-503.22425
-503.22356
-503.22352
-503.22321
-503.2226
-503.22167
-503.22041
-502.96021
-494.0243
-494.43417
-494.37113
-494.36997
-494.37015
-494.37003
-494.3696
-494.36888
-494.36789
-494.2356
-494.43417
-494.72941
-494.6779
-494.67735
-494.67753
-494.67737
-494.67685
-494.67599
-494.6748
-494.40972
-494.37113
-494.6779
-494.62761
-494.62708
-494.62724
-494.62706
-494.62652
-494.62562
-494.62437
-494.37283
-494.36997
-494.67735
-494.62708
-494.62653
-494.62666
-494.62645
-494.62588
-494.62495
-494.62365
-494.37203
-494.37015
-494.67753
-494.62724
-494.62666
-494.62677
-494.62653
-494.62593
-494.62496
-494.62363
-494.37197
-494.37003
-494.67737
-494.62706
-494.62645
-494.62653
-494.62626
-494.62563
-494.62464
-494.62329
-494.37161
-494.3696
-494.67685
-494.62652
-494.62588
-494.62593
-494.62563
-494.62498
-494.62396
-494.62259
-494.37093
-494.36888
-494.67599
-494.62562
-494.62495
-494.62496
-494.62464
-494.62396
-494.62292
-494.62152
-494.36991
-494.36789
-494.6748
-494.62437
-494.62365
-494.62363
-494.62329
-494.62259
-494.62152
-494.62008
-494.36852
-494.2356
-494.40972
-494.37283
-494.37203
-494.37197
-494.37161
-494.37093
-494.36991
-494.36852
-494.06741
-485.39504
-485.84539
-485.77563
-485.77431
-485.77449
-485.77435
-485.77387
-485.77308
-485.772
-485.62169
-485.84539
-486.16945
-486.11247
-486.11182
-486.112
-486.11181
-486.11123
-486.11029
-486.10898
-485.81049
-485.77563
-486.11247
-486.05684
-486.05622
-486.05637
-486.05616
-486.05556
-486.05458
-486.05321
-485.76997
-485.77431
-486.11182
-486.05622
-486.05558
-486.0557
-486.05546
-486.05482
-486.0538
-486.05239
-485.76907
-485.77449
-486.112
-486.05637
-486.0557
-486.05579
-486.05552
-486.05485
-486.0538
-486.05235
-485.76899
-485.77435
-486.11181
-486.05616
-486.05546
-486.05552
-486.05521
-486.05452
-486.05344
-486.05196
-485.76859
-485.77387
-486.11123
-486.05556
-486.05482
-486.05485
-486.05452
-486.0538
-486.05269
-486.05119
-485.76784
-485.77308
-486.11029
-486.05458
-486.0538
-486.0538
-486.05344
-486.05269
-486.05155
-486.05002
-485.76673
-485.772
-486.10898
-486.05321
-486.05239
-486.05235
-486.05196
-486.05119
-486.05002
-486.04846
-485.76522
-485.62169
-485.81049
-485.76997
-485.76907
-485.76899
-485.76859
-485.76784
-485.76673
-485.76522
-485.42556
-477.00501
-477.49256
-477.41659
-477.41511
-477.41528
-477.41512
-477.4146
-477.41374
-477.41258
-477.24541
-477.49256
-477.84308
-477.78101
-477.78028
-477.78045
-477.78023
-477.7796
-477.77858
-477.77717
-477.44754
-477.41659
-477.78101
-477.72044
-477.71974
-477.71988
-477.71964
-477.71899
-477.71793
-477.71645
-477.40367
-477.41511
-477.78028
-477.71974
-477.719
-477.71911
-477.71884
-477.71815
-477.71705
-477.71553
-477.40267
-477.41528
-477.78045
-477.71988
-477.71911
-477.7192
-477.71889
-477.71817
-477.71703
-477.71547
-477.40256
-477.41512
-477.78023
-477.71964
-477.71884
-477.71889
-477.71855
-477.7178
-477.71663
-477.71504
-477.40213
-477.4146
-477.7796
-477.71899
-477.71815
-477.71817
-477.7178
-477.71701
-477.71581
-477.7142
-477.40132
-477.41374
-477.77858
-477.71793
-477.71705
-477.71703
-477.71663
-477.71581
-477.71459
-477.71295
-477.40012
-477.41258
-477.77717
-477.71645
-477.71553
-477.71547
-477.71504
-477.7142
-477.71295
-477.71127
-477.39851
-477.24541
-477.44754
-477.40367
-477.40267
-477.40256
-477.40213
-477.40132
-477.40012
-477.39851
-477.02286
-468.84305
-469.36434
-469.28268
-469.28105
-469.28121
-469.28103
-469.28047
-469.27955
-469.27832
-469.09552
-469.36434
-469.73879
-469.67208
-469.67126
-469.67142
-469.67117
-469.6705
-469.6694
-469.66791
-469.30956
-469.28268
-469.67208
-469.60699
-469.6062
-469.60633
-469.60606
-469.60536
-469.60423
-469.60266
-469.26265
-469.28105
-469.67126
-469.6062
-469.60538
-469.60548
-469.60517
-469.60444
-469.60326
-469.60164
-469.26155
-469.28121
-469.67142
-469.60633
-469.60548
-469.60555
-469.60521
-469.60443
-469.60322
-469.60157
-469.26143
-469.28103
-469.67117
-469.60606
-469.60517
-469.60521
-469.60484
-469.60403
-469.60278
-469.6011
-469.26096
-469.28047
-469.6705
-469.60536
-469.60444
-469.60443
-469.60403
-469.60319
-469.60191
-469.6002
-469.26009
-469.27955
-469.6694
-469.60423
-469.60326
-469.60322
-469.60278
-469.60191
-469.6006
-469.59886
-469.25882
-469.27832
-469.66791
-469.60266
-469.60164
-469.60157
-469.6011
-469.6002
-469.59886
-469.59707
-469.25711
-469.09552
-469.30956
-469.26265
-469.26155
-469.26143
-469.26096
-469.26009
-469.25882
-469.25711
-468.84823
-460.89869
-461.45008
-461.36328
-461.36153
-461.36168
-461.36148
-461.36088
-461.35991
-461.35862
-461.16153
-461.45008
-461.84583
-461.77494
-461.77403
-461.77419
-461.77391
-461.77319
-461.77204
-461.77046
-461.38599
-461.36328
-461.77494
-461.70577
-461.7049
-461.70502
-461.70473
-461.70398
-461.70279
-461.70114
-461.33635
-461.36153
-461.77403
-461.7049
-461.704
-461.70409
-461.70375
-461.70297
-461.70173
-461.70002
-461.33516
-461.36168
-461.77419
-461.70502
-461.70409
-461.70414
-461.70377
-461.70295
-461.70167
-461.69993
-461.33502
-461.36148
-461.77391
-461.70473
-461.70375
-461.70377
-461.70337
-461.70251
-461.7012
-461.69943
-461.33452
-461.36088
-461.77319
-461.70398
-461.70297
-461.70295
-461.70251
-461.70162
-461.70028
-461.69848
-461.3336
-461.35991
-461.77204
-461.70279
-461.70173
-461.70167
-461.7012
-461.70028
-461.6989
-461.69706
-461.33226
-461.35862
-461.77046
-461.70114
-461.70002
-461.69993
-461.69943
-461.69848
-461.69706
-461.69519
-461.33047
-461.16153
-461.38599
-461.33635
-461.33516
-461.33502
-461.33452
-461.3336
-461.33226
-461.33047
-460.8913
-453.16213
-453.73983
-453.64848
-453.6466
-453.64674
-453.64652
-453.64589
-453.64488
-453.64353
-453.43355
-453.73983
-454.15415
-454.07955
-454.07857
-454.07871
-454.07841
-454.07765
-454.07644
-454.07479
-453.66692
-453.64848
-454.07955
-454.00677
-454.00583
-454.00594
-454.00562
-454.00483
-454.00358
-454.00186
-453.61488
-453.6466
-454.07857
-454.00583
-454.00485
-454.00493
-454.00457
-454.00374
-454.00244
-454.00067
-453.61361
-453.64674
-454.07871
-454.00594
-454.00493
-454.00497
-454.00457
-454.00371
-454.00237
-454.00055
-453.61345
-453.64652
-454.07841
-454.00562
-454.00457
-454.00457
-454.00414
-454.00324
-454.00187
-454.00002
-453.61292
-453.64589
-454.07765
-454.00483
-454.00374
-454.00371
-454.00324
-454.0023
-454.00089
-453.99902
-453.61196
-453.64488
-454.07644
-454.00358
-454.00244
-454.00237
-454.00187
-454.00089
-453.99945
-453.99754
-453.61056
-453.64353
-454.07479
-454.00186
-454.00067
-454.00055
-454.00002
-453.99902
-453.99754
-453.99559
-453.6087
-453.43355
-453.66692
-453.61488
-453.61361
-453.61345
-453.61292
-453.61196
-453.61056
-453.6087
-453.14233
-445.62416
-446.22427
-446.12899
-446.12699
-446.12712
-446.12688
-446.12623
-446.12517
-446.12378
-445.90238
-446.22427
-446.65434
-446.57654
-446.57548
-446.57561
-446.57528
-446.57449
-446.57324
-446.57153
-446.14308
-446.12899
-446.57654
-446.50064
-446.49962
-446.49972
-446.49938
-446.49856
-446.49726
-446.49548
-446.08899
-446.12699
-446.57548
-446.49962
-446.49857
-446.49864
-446.49826
-446.49739
-446.49605
-446.49421
-446.08765
-446.12712
-446.57561
-446.49972
-446.49864
-446.49867
-446.49825
-446.49734
-446.49596
-446.49408
-446.08747
-446.12688
-446.57528
-446.49938
-446.49826
-446.49825
-446.49779
-446.49685
-446.49543
-446.49352
-446.08691
-446.12623
-446.57449
-446.49856
-446.49739
-446.49734
-446.49685
-446.49587
-446.49441
-446.49248
-446.08592
-446.12517
-446.57324
-446.49726
-446.49605
-446.49596
-446.49543
-446.49441
-446.49292
-446.49095
-446.08447
-446.12378
-446.57153
-446.49548
-446.49421
-446.49408
-446.49352
-446.49248
-446.49095
-446.48892
-446.08255
-445.90238
-446.14308
-446.08899
-446.08765
-446.08747
-446.08691
-446.08592
-446.08447
-446.08255
-445.5922
-438.27619
-438.89471
-438.79611
-438.79401
-438.79413
-438.79388
-438.7932
-438.79211
-438.79068
-438.55939
-438.89471
-439.33764
-439.25715
-439.25602
-439.25614
-439.2558
-439.25497
-439.25368
-439.25193
-438.80582
-438.79611
-439.25715
-439.17863
-439.17755
-439.17764
-439.17727
-439.17642
-439.17509
-439.17326
-438.75004
-438.79401
-439.25602
-439.17755
-439.17644
-439.17649
-439.17609
-439.17519
-439.17381
-439.17192
-438.74864
-438.79413
-439.25614
-439.17764
-439.17649
-439.17651
-439.17606
-439.17513
-439.1737
-439.17178
-438.74844
-438.79388
-439.2558
-439.17727
-439.17609
-439.17606
-439.17558
-439.17461
-439.17315
-439.17119
-438.74786
-438.7932
-439.25497
-439.17642
-439.17519
-439.17513
-439.17461
-439.1736
-439.1721
-439.17011
-438.74683
-438.79211
-439.25368
-439.17509
-439.17381
-439.1737
-439.17315
-439.1721
-439.17057
-439.16854
-438.74535
-438.79068
-439.25193
-439.17326
-439.17192
-439.17178
-439.17119
-439.17011
-439.16854
-439.16646
-438.74338
-438.55939
-438.80582
-438.75004
-438.74864
-438.74844
-438.74786
-438.74683
-438.74535
-438.74338
-438.23239
-431.11016
-431.74301
-431.64175
-431.63957
-431.63967
-431.6394
-431.6387
-431.6376
-431.63614
-431.39651
-431.74301
-432.19589
-432.11323
-432.11205
-432.11215
-432.11179
-432.11094
-432.10962
-432.10784
-431.64708
-431.64175
-432.11323
-432.03261
-432.03147
-432.03155
-432.03117
-432.03029
-432.02893
-432.02707
-431.58996
-431.63957
-432.11205
-432.03147
-432.03031
-432.03035
-432.02992
-432.02901
-432.02759
-432.02567
-431.5885
-431.63967
-432.11215
-432.03155
-432.03035
-432.03035
-432.02989
-432.02893
-432.02747
-432.02551
-431.58828
-431.6394
-432.11179
-432.03117
-432.02992
-432.02989
-432.02939
-432.02839
-432.02689
-432.0249
-431.58769
-431.6387
-432.11094
-432.03029
-432.02901
-432.02893
-432.02839
-432.02736
-432.02582
-432.0238
-431.58664
-431.6376
-432.10962
-432.02893
-432.02759
-432.02747
-432.02689
-432.02582
-432.02426
-432.02219
-431.58513
-431.63614
-432.10784
-432.02707
-432.02567
-432.02551
-432.0249
-432.0238
-432.02219
-432.02007
-431.58312
-431.39651
-431.64708
-431.58996
-431.5885
-431.58828
-431.58769
-431.58664
-431.58513
-431.58312
-431.05493
-424.11855
-424.76162
-424.65835
-424.6561
-424.65619
-424.65591
-424.65519
-424.65407
-424.65259
-424.40622
-424.76162
-425.22149
-425.1372
-425.13597
-425.13606
-425.13568
-425.13482
-425.13348
-425.13167
-424.65931
-424.65835
-425.1372
-425.055
-425.05382
-425.05388
-425.05348
-425.05259
-425.05121
-425.04932
-424.60122
-424.6561
-425.13597
-425.05382
-425.05261
-425.05263
-425.05219
-425.05126
-425.04982
-425.04788
-424.59972
-424.65619
-425.13606
-425.05388
-425.05263
-425.05262
-425.05214
-425.05117
-425.04969
-425.0477
-424.59949
-424.65591
-425.13568
-425.05348
-425.05219
-425.05214
-425.05163
-425.05061
-425.04909
-425.04707
-424.59888
-424.65519
-425.13482
-425.05259
-425.05126
-425.05117
-425.05061
-425.04956
-425.048
-425.04595
-424.59782
-424.65407
-425.13348
-425.05121
-425.04982
-425.04969
-425.04909
-425.048
-425.04641
-425.04432
-424.59629
-424.65259
-425.13167
-425.04932
-425.04788
-425.0477
-425.04707
-425.04595
-425.04432
-425.04218
-424.59426
-424.40622
-424.65931
-424.60122
-424.59972
-424.59949
-424.59888
-424.59782
-424.59629
-424.59426
-424.05235
-417.29434
-417.94349
-417.83888
-417.83657
-417.83665
-417.83635
-417.83563
-417.8345
-417.83301
-417.58152
-417.94349
-418.4074
-418.32202
-418.32075
-418.32082
-418.32044
-418.31956
-418.3182
-418.31638
-417.83551
-417.83888
-418.32202
-418.23877
-418.23755
-418.2376
-418.23719
-418.23628
-418.23489
-418.23299
-417.77683
-417.83657
-418.32075
-418.23755
-418.2363
-418.23631
-418.23586
-418.23491
-418.23346
-418.2315
-417.7753
-417.83665
-418.32082
-418.2376
-418.23631
-418.23628
-418.23579
-418.2348
-418.23331
-418.23131
-417.77505
-417.83635
-418.32044
-418.23719
-418.23586
-418.23579
-418.23526
-418.23424
-418.23271
-418.23067
-417.77443
-417.83563
-418.31956
-418.23628
-418.23491
-418.2348
-418.23424
-418.23317
-418.2316
-418.22954
-417.77336
-417.8345
-418.3182
-418.23489
-418.23346
-418.23331
-418.23271
-418.2316
-418.23
-418.2279
-417.77182
-417.83301
-418.31638
-418.23299
-418.2315
-418.23131
-418.23067
-418.22954
-418.2279
-418.22574
-417.76978
-417.58152
-417.83551
-417.77683
-417.7753
-417.77505
-417.77443
-417.77336
-417.77182
-417.76978
-417.2177
-410.63097
-411.28207
-411.17679
-411.17443
-411.1745
-411.1742
-411.17347
-411.17233
-411.17085
-410.91588
-411.28207
-411.74708
-411.66116
-411.65985
-411.65991
-411.65951
-411.65862
-411.65726
-411.65544
-411.16916
-411.17679
-411.66116
-411.57739
-411.57613
-411.57617
-411.57575
-411.57483
-411.57344
-411.57153
-411.11026
-411.17443
-411.65985
-411.57613
-411.57485
-411.57484
-411.57439
-411.57343
-411.57198
-411.57002
-411.1087
-411.1745
-411.65991
-411.57617
-411.57484
-411.57481
-411.57431
-411.57331
-411.57182
-411.56982
-411.10845
-411.1742
-411.65951
-411.57575
-411.57439
-411.57431
-411.57377
-411.57273
-411.5712
-411.56917
-411.10782
-411.17347
-411.65862
-411.57483
-411.57343
-411.57331
-411.57273
-411.57166
-411.57009
-411.56803
-411.10674
-411.17233
-411.65726
-411.57344
-411.57198
-411.57182
-411.5712
-411.57009
-411.56849
-411.56638
-411.1052
-411.17085
-411.65544
-411.57153
-411.57002
-411.56982
-411.56917
-411.56803
-411.56638
-411.56423
-411.10317
-410.91588
-411.16916
-411.11026
-411.1087
-411.10845
-411.10782
-411.10674
-411.1052
-411.10317
-410.54448
-404.12233
-404.7713
-404.666
-404.66362
-404.66368
-404.66337
-404.66264
-404.66151
-404.66003
-404.4032
-404.7713
-405.23447
-405.14855
-405.14722
-405.14727
-405.14686
-405.14597
-405.14462
-405.1428
-404.65422
-404.666
-405.14855
-405.06479
-405.06351
-405.06354
-405.06311
-405.06219
-405.0608
-405.05891
-404.59547
-404.66362
-405.14722
-405.06351
-405.06221
-405.06219
-405.06172
-405.06077
-405.05932
-405.05737
-404.59389
-404.66368
-405.14727
-405.06354
-405.06219
-405.06214
-405.06163
-405.06064
-405.05915
-405.05716
-404.59363
-404.66337
-405.14686
-405.06311
-405.06172
-405.06163
-405.06109
-405.06006
-405.05853
-405.05651
-404.59299
-404.66264
-405.14597
-405.06219
-405.06077
-405.06064
-405.06006
-405.05898
-405.05742
-405.05537
-404.59192
-404.66151
-405.14462
-405.0608
-405.05932
-405.05915
-405.05853
-405.05742
-405.05582
-405.05373
-404.59039
-404.66003
-405.1428
-405.05891
-405.05737
-405.05716
-405.05651
-405.05537
-405.05373
-405.05159
-404.58838
-404.4032
-404.65422
-404.59547
-404.59389
-404.59363
-404.59299
-404.59192
-404.59039
-404.58838
-404.02664
-397.76273
-398.40553
-398.30089
-398.29849
-398.29853
-398.29822
-398.29749
-398.29637
-398.29491
-398.03786
-398.40553
-398.864
-398.77862
-398.77727
-398.7773
-398.77689
-398.77601
-398.77466
-398.77287
-398.28505
-398.30089
-398.77862
-398.69539
-398.6941
-398.69411
-398.69367
-398.69277
-398.69139
-398.68952
-398.22682
-398.29849
-398.77727
-398.6941
-398.69278
-398.69275
-398.69228
-398.69133
-398.6899
-398.68797
-398.22524
-398.29853
-398.7773
-398.69411
-398.69275
-398.69268
-398.69218
-398.69119
-398.68971
-398.68775
-398.22497
-398.29822
-398.77689
-398.69367
-398.69228
-398.69218
-398.69163
-398.6906
-398.68909
-398.6871
-398.22434
-398.29749
-398.77601
-398.69277
-398.69133
-398.69119
-398.6906
-398.68954
-398.68799
-398.68597
-398.22328
-398.29637
-398.77466
-398.69139
-398.6899
-398.68971
-398.68909
-398.68799
-398.68641
-398.68435
-398.22176
-398.29491
-398.77287
-398.68952
-398.68797
-398.68775
-398.6871
-398.68597
-398.68435
-398.68223
-398.21978
-398.03786
-398.28505
-398.22682
-398.22524
-398.22497
-398.22434
-398.22328
-398.22176
-398.21978
-397.65853
-391.54688
-392.17955
-392.07621
-392.07382
-392.07385
-392.07353
-392.07281
-392.07171
-392.07027
-391.81461
-392.17955
-392.63051
-392.5462
-392.54484
-392.54486
-392.54444
-392.54357
-392.54224
-392.54048
-392.05647
-392.07621
-392.5462
-392.46402
-392.46272
-392.46272
-392.46228
-392.46138
-392.46002
-392.45819
-391.99912
-392.07382
-392.54484
-392.46272
-392.46139
-392.46135
-392.46088
-392.45994
-392.45853
-392.45664
-391.99754
-392.07385
-392.54486
-392.46272
-392.46135
-392.46128
-392.46077
-392.45979
-392.45834
-392.45641
-391.99727
-392.07353
-392.54444
-392.46228
-392.46088
-392.46077
-392.46022
-392.45921
-392.45772
-392.45576
-391.99664
-392.07281
-392.54357
-392.46138
-392.45994
-392.45979
-392.45921
-392.45816
-392.45664
-392.45465
-391.99559
-392.07171
-392.54224
-392.46002
-392.45853
-392.45834
-392.45772
-392.45664
-392.45508
-392.45306
-391.99411
-392.07027
-392.54048
-392.45819
-392.45664
-392.45641
-392.45576
-392.45465
-392.45306
-392.45098
-391.99217
-391.81461
-392.05647
-391.99912
-391.99754
-391.99727
-391.99664
-391.99559
-391.99411
-391.99217
-391.43492
-385.46985
-386.08855
-385.98714
-385.98477
-385.98478
-385.98447
-385.98376
-385.98268
-385.98128
-385.72858
-386.08855
-386.52925
-386.44653
-386.44518
-386.44518
-386.44477
-386.4439
-386.44261
-386.44089
-385.96366
-385.98714
-386.44653
-386.36591
-386.36462
-386.3646
-386.36416
-386.36328
-386.36195
-386.36016
-385.90754
-385.98477
-386.44518
-386.36462
-386.36329
-386.36324
-386.36277
-386.36185
-386.36047
-386.35863
-385.90598
-385.98478
-386.44518
-386.3646
-386.36324
-386.36315
-386.36265
-386.36169
-386.36027
-386.35839
-385.9057
-385.98447
-386.44477
-386.36416
-386.36277
-386.36265
-386.36211
-386.36111
-386.35966
-386.35775
-385.90508
-385.98376
-386.4439
-386.36328
-386.36185
-386.36169
-386.36111
-386.36008
-386.3586
-386.35665
-385.90406
-385.98268
-386.44261
-386.36195
-386.36047
-386.36027
-386.35966
-386.3586
-386.35707
-386.3551
-385.90261
-385.98128
-386.44089
-386.36016
-386.35863
-386.35839
-386.35775
-386.35665
-386.3551
-386.35307
-385.90072
-385.72858
-385.96366
-385.90754
-385.90598
-385.9057
-385.90508
-385.90406
-385.90261
-385.90072
-385.3509
-379.52706
-380.12806
-380.02921
-380.02688
-380.02688
-380.02656
-380.02587
-380.02482
-380.02346
-379.77527
-380.12806
-380.55588
-380.47525
-380.47391
-380.4739
-380.47349
-380.47265
-380.47139
-380.46972
-380.00218
-380.02921
-380.47525
-380.39668
-380.3954
-380.39537
-380.39494
-380.39408
-380.39278
-380.39105
-379.94763
-380.02688
-380.47391
-380.3954
-380.39409
-380.39402
-380.39356
-380.39266
-380.39132
-380.38953
-379.9461
-380.02688
-380.4739
-380.39537
-380.39402
-380.39393
-380.39343
-380.39249
-380.39111
-380.38929
-379.94582
-380.02656
-380.47349
-380.39494
-380.39356
-380.39343
-380.3929
-380.39193
-380.39051
-380.38866
-379.94521
-380.02587
-380.47265
-380.39408
-380.39266
-380.39249
-380.39193
-380.39092
-380.38948
-380.3876
-379.94421
-380.02482
-380.47139
-380.39278
-380.39132
-380.39111
-380.39051
-380.38948
-380.388
-380.38608
-379.94281
-380.02346
-380.46972
-380.39105
-380.38953
-380.38929
-380.38866
-380.3876
-380.38608
-380.38412
-379.94098
-379.77527
-380.00218
-379.94763
-379.9461
-379.94582
-379.94521
-379.94421
-379.94281
-379.94098
-379.40195
-373.71426
-374.29399
-374.1983
-374.19602
-374.196
-374.19569
-374.19502
-374.19401
-374.1927
-373.95051
-374.29399
-374.70639
-374.62835
-374.62703
-374.627
-374.6266
-374.62578
-374.62456
-374.62296
-374.16791
-374.1983
-374.62835
-374.55231
-374.55104
-374.551
-374.55058
-374.54974
-374.54849
-374.54682
-374.11527
-374.19602
-374.62703
-374.55104
-374.54975
-374.54968
-374.54922
-374.54835
-374.54706
-374.54534
-374.11377
-374.196
-374.627
-374.551
-374.54968
-374.54957
-374.54908
-374.54818
-374.54685
-374.54509
-374.11349
-374.19569
-374.6266
-374.55058
-374.54922
-374.54908
-374.54856
-374.54762
-374.54626
-374.54448
-374.1129
-374.19502
-374.62578
-374.54974
-374.54835
-374.54818
-374.54762
-374.54665
-374.54526
-374.54345
-374.11194
-374.19401
-374.62456
-374.54849
-374.54706
-374.54685
-374.54626
-374.54526
-374.54383
-374.54199
-374.11059
-374.1927
-374.62296
-374.54682
-374.54534
-374.54509
-374.54448
-374.54345
-374.54199
-374.5401
-374.10883
-373.95051
-374.16791
-374.11527
-374.11377
-374.11349
-374.1129
-374.11194
-374.11059
-374.10883
-373.58383
-368.02751
-368.58256
-368.4906
-368.48838
-368.48836
-368.48805
-368.48741
-368.48644
-368.48519
-368.25045
-368.58256
-368.97713
-368.90215
-368.90086
-368.90082
-368.90042
-368.89963
-368.89847
-368.89693
-368.45708
-368.4906
-368.90215
-368.82909
-368.82785
-368.8278
-368.82738
-368.82658
-368.82538
-368.82378
-368.40666
-368.48838
-368.90086
-368.82785
-368.82659
-368.82651
-368.82606
-368.82522
-368.82398
-368.82234
-368.40521
-368.48836
-368.90082
-368.8278
-368.82651
-368.8264
-368.82592
-368.82505
-368.82377
-368.82209
-368.40493
-368.48805
-368.90042
-368.82738
-368.82606
-368.82592
-368.82541
-368.82451
-368.8232
-368.8215
-368.40436
-368.48741
-368.89963
-368.82658
-368.82522
-368.82505
-368.82451
-368.82357
-368.82224
-368.82051
-368.40344
-368.48644
-368.89847
-368.82538
-368.82398
-368.82377
-368.8232
-368.82224
-368.82087
-368.81911
-368.40215
-368.48519
-368.89693
-368.82378
-368.82234
-368.82209
-368.8215
-368.82051
-368.81911
-368.81731
-368.40047
-368.25045
-368.45708
-368.40666
-368.40521
-368.40493
-368.40436
-368.40344
-368.40215
-368.40047
-367.89264
-362.46315
-362.9903
-362.90262
-362.90048
-362.90045
-362.90015
-362.89953
-362.89861
-362.89742
-362.67152
-362.9903
-363.36477
-363.29329
-363.29203
-363.29198
-363.2916
-363.29084
-363.28973
-363.28827
-362.8662
-362.90262
-363.29329
-363.22364
-363.22244
-363.22238
-363.22198
-363.22121
-363.22007
-363.21855
-362.8183
-362.90048
-363.29203
-363.22244
-363.22122
-363.22113
-363.2207
-363.2199
-363.21872
-363.21716
-362.81691
-362.90045
-363.29198
-363.22238
-363.22113
-363.22101
-363.22055
-363.21972
-363.21851
-363.21691
-362.81663
-362.90015
-363.2916
-363.22198
-363.2207
-363.22055
-363.22006
-363.2192
-363.21796
-363.21634
-362.81609
-362.89953
-363.29084
-363.22121
-363.2199
-363.21972
-363.2192
-363.2183
-363.21704
-363.2154
-362.81521
-362.89861
-363.28973
-363.22007
-363.21872
-363.21851
-363.21796
-363.21704
-363.21574
-363.21407
-362.81399