/*--------------------------------*- C++ -*----------------------------------*\
| =========                 |                                                 |
| \\      /  F ield         | OpenFOAM: The Open Source CFD Toolbox           |
|  \\    /   O peration     | Version:  v2106                                 |
|   \\  /    A nd           | Website:  www.openfoam.com                      |
|    \\/     M anipulation  |                                                 |
\*---------------------------------------------------------------------------*/
FoamFile
{
    version     2.0;
    format      ascii;
    arch        "LSB;label=32;scalar=64";
    class       volVectorField;
    location    "50";
    object      flux;
}
// * * * * * * * * * * * * * * * * * * * * * * * * * * * * * * * * * * * * * //

dimensions      [0 1 -1 1 0 0 0];

internalField   nonuniform List<vector> 
4000
(
(-5.2622359e-07 -5.2622359e-07 0.7405759)
(-2.9874615e-07 -9.7642727e-08 0.74057242)
(6.5638916e-07 -1.4608365e-07 0.74057467)
(2.5233408e-07 -1.4843503e-07 0.74057554)
(1.0906145e-07 -1.5036748e-07 0.74057599)
(-5.7868394e-09 -1.5403424e-07 0.74057611)
(-8.5911423e-08 -1.6140853e-07 0.74057595)
(-1.0737791e-07 -1.7638871e-07 0.74057564)
(-4.8697863e-08 -2.0031238e-07 0.74057538)
(7.2184634e-10 -2.0592657e-07 0.74057547)
(-9.7642726e-08 -2.9874614e-07 0.74057242)
(2.7146375e-07 2.7146375e-07 0.74057162)
(5.8020071e-07 1.9259739e-07 0.74057362)
(2.4590833e-07 1.8596641e-07 0.74057447)
(1.0066262e-07 1.7825301e-07 0.74057491)
(-2.2348416e-08 1.6544192e-07 0.74057499)
(-1.1944312e-07 1.4268158e-07 0.74057478)
(-1.6573368e-07 9.9257849e-08 0.74057434)
(-9.3004661e-08 2.1589787e-08 0.74057389)
(-4.8923495e-09 -6.0551931e-08 0.74057402)
(-1.4608365e-07 6.5638916e-07 0.74057467)
(1.9259738e-07 5.8020071e-07 0.74057362)
(5.7089182e-07 5.7089182e-07 0.74057557)
(2.379897e-07 5.6317223e-07 0.74057641)
(8.8536956e-08 5.5218674e-07 0.74057682)
(-4.1358267e-08 5.3684366e-07 0.74057687)
(-1.5209549e-07 5.146479e-07 0.74057659)
(-2.2846971e-07 4.8043237e-07 0.74057605)
(-2.0850764e-07 4.2369733e-07 0.74057537)
(-5.4039299e-08 3.3773307e-07 0.74057512)
(-1.4843502e-07 2.5233407e-07 0.74057554)
(1.859664e-07 2.4590832e-07 0.74057447)
(5.6317223e-07 2.379897e-07 0.74057641)
(2.2720325e-07 2.2720326e-07 0.74057722)
(7.4334054e-08 2.1398376e-07 0.7405776)
(-5.9887256e-08 1.98043e-07 0.7405776)
(-1.7585441e-07 1.7854777e-07 0.74057727)
(-2.5668425e-07 1.5523409e-07 0.74057666)
(-2.3570396e-07 1.3034509e-07 0.7405759)
(-6.2201854e-08 1.1146253e-07 0.74057558)
(-1.5036748e-07 1.0906145e-07 0.74057599)
(1.7825301e-07 1.0066262e-07 0.74057491)
(5.5218675e-07 8.8536956e-08 0.74057682)
(2.1398376e-07 7.4334051e-08 0.7405776)
(5.9376701e-08 5.9376705e-08 0.74057794)
(-7.6794253e-08 4.3984012e-08 0.7405779)
(-1.9490441e-07 2.7885919e-08 0.74057752)
(-2.766724e-07 1.1246905e-08 0.74057686)
(-2.522792e-07 -4.1994677e-09 0.74057605)
(-6.6627672e-08 -1.4143725e-08 0.7405757)
(-1.5403424e-07 -5.7868462e-09 0.74057611)
(1.6544191e-07 -2.2348414e-08 0.74057499)
(5.3684366e-07 -4.1358273e-08 0.74057687)
(1.98043e-07 -5.9887265e-08 0.7405776)
(4.3984014e-08 -7.6794249e-08 0.7405779)
(-9.1378042e-08 -9.1378043e-08 0.74057782)
(-2.0859152e-07 -1.0390878e-07 0.74057741)
(-2.8876964e-07 -1.1429096e-07 0.74057671)
(-2.6109459e-07 -1.2192395e-07 0.74057587)
(-6.8831359e-08 -1.2594587e-07 0.7405755)
(-1.6140853e-07 -8.591143e-08 0.74057595)
(1.4268158e-07 -1.1944313e-07 0.74057478)
(5.146479e-07 -1.5209549e-07 0.74057659)
(1.7854778e-07 -1.7585441e-07 0.74057727)
(2.7885922e-08 -1.949044e-07 0.74057752)
(-1.0390879e-07 -2.0859152e-07 0.74057741)
(-2.1781733e-07 -2.1781732e-07 0.74057696)
(-2.9468757e-07 -2.2277904e-07 0.74057624)
(-2.6393412e-07 -2.2358499e-07 0.74057539)
(-6.9308954e-08 -2.2187036e-07 0.74057502)
(-1.7638871e-07 -1.0737791e-07 0.74057564)
(9.9257852e-08 -1.6573367e-07 0.74057434)
(4.8043238e-07 -2.2846971e-07 0.74057605)
(1.5523409e-07 -2.5668425e-07 0.74057666)
(1.1246904e-08 -2.766724e-07 0.74057686)
(-1.1429097e-07 -2.8876964e-07 0.74057671)
(-2.2277904e-07 -2.9468756e-07 0.74057624)
(-2.945373e-07 -2.945373e-07 0.74057551)
(-2.6018591e-07 -2.8783341e-07 0.74057467)
(-6.7688275e-08 -2.774436e-07 0.74057432)
(-2.0031237e-07 -4.8697862e-08 0.74057538)
(2.1589785e-08 -9.3004651e-08 0.74057389)
(4.2369731e-07 -2.0850764e-07 0.74057537)
(1.3034509e-07 -2.3570396e-07 0.7405759)
(-4.1994687e-09 -2.5227921e-07 0.74057605)
(-1.2192395e-07 -2.6109459e-07 0.74057587)
(-2.2358498e-07 -2.6393411e-07 0.74057539)
(-2.8783342e-07 -2.6018591e-07 0.74057467)
(-2.4684042e-07 -2.4684041e-07 0.74057386)
(-6.2382409e-08 -2.2336706e-07 0.74057356)
(-2.0592657e-07 7.2184558e-10 0.74057547)
(-6.0551921e-08 -4.892352e-09 0.74057402)
(3.3773307e-07 -5.4039292e-08 0.74057512)
(1.1146252e-07 -6.2201851e-08 0.74057558)
(-1.4143726e-08 -6.6627672e-08 0.7405757)
(-1.2594587e-07 -6.8831356e-08 0.7405755)
(-2.2187036e-07 -6.9308954e-08 0.74057502)
(-2.774436e-07 -6.7688274e-08 0.74057432)
(-2.2336706e-07 -6.238241e-08 0.74057356)
(-5.203937e-08 -5.203937e-08 0.74057337)
(-1.9089496e-06 -1.9089496e-06 1.1015158)
(-9.4840045e-07 -5.0211309e-07 1.1015127)
(2.7272044e-06 -6.1881035e-07 1.1015152)
(1.2304895e-06 -6.288401e-07 1.1015164)
(5.2101672e-07 -6.385629e-07 1.101517)
(-4.6610562e-08 -6.5657984e-07 1.1015172)
(-4.4467705e-07 -6.9323339e-07 1.1015169)
(-5.3447127e-07 -7.6970068e-07 1.1015163)
(-1.1479624e-07 -8.9163373e-07 1.1015159)
(8.2877505e-08 -8.2770737e-07 1.1015165)
(-5.0211309e-07 -9.4840045e-07 1.1015127)
(9.8680841e-07 9.8680842e-07 1.1015119)
(2.5371139e-06 7.7992286e-07 1.1015143)
(1.2008606e-06 7.4728061e-07 1.1015155)
(4.7940711e-07 7.0863751e-07 1.1015161)
(-1.2861629e-07 6.4559241e-07 1.1015162)
(-6.1435831e-07 5.3289266e-07 1.1015158)
(-8.3207178e-07 3.1356967e-07 1.101515)
(-2.0180627e-07 -8.2957464e-08 1.1015142)
(1.4680387e-07 -3.3061234e-07 1.1015149)
(-6.1881034e-07 2.7272044e-06 1.1015152)
(7.7992286e-07 2.5371139e-06 1.1015143)
(2.4876766e-06 2.4876766e-06 1.1015166)
(1.1592041e-06 2.4466971e-06 1.1015178)
(4.1932851e-07 2.3921965e-06 1.1015183)
(-2.2235542e-07 2.3166949e-06 1.1015184)
(-7.7669979e-07 2.2073871e-06 1.1015179)
(-1.1503214e-06 2.037174e-06 1.101517)
(-7.5897825e-07 1.745915e-06 1.1015158)
(-8.2225749e-08 1.3326911e-06 1.101516)
(-6.288401e-07 1.2304894e-06 1.1015164)
(7.4728062e-07 1.2008606e-06 1.1015155)
(2.4466971e-06 1.1592041e-06 1.1015178)
(1.1053806e-06 1.1053806e-06 1.1015189)
(3.4940489e-07 1.0402759e-06 1.1015194)
(-3.1342572e-07 9.6193486e-07 1.1015194)
(-8.938792e-07 8.6621374e-07 1.1015188)
(-1.2935439e-06 7.5160824e-07 1.1015178)
(-9.0628913e-07 6.2578182e-07 1.1015165)
(-1.2867873e-07 5.2433276e-07 1.1015166)
(-6.385629e-07 5.2101671e-07 1.101517)
(7.0863753e-07 4.794071e-07 1.1015161)
(2.3921965e-06 4.193285e-07 1.1015183)
(1.0402759e-06 3.4940489e-07 1.1015194)
(2.7588281e-07 2.7588281e-07 1.1015199)
(-3.9641756e-07 2.00241e-07 1.1015198)
(-9.8702641e-07 1.2122814e-07 1.1015192)
(-1.3907533e-06 3.9899268e-08 1.1015181)
(-9.8625373e-07 -3.5179411e-08 1.1015167)
(-1.4985846e-07 -8.2621202e-08 1.1015167)
(-6.5657984e-07 -4.6610565e-08 1.1015172)
(6.4559241e-07 -1.286163e-07 1.1015162)
(2.3166949e-06 -2.2235543e-07 1.1015184)
(9.6193486e-07 -3.1342573e-07 1.1015194)
(2.00241e-07 -3.9641756e-07 1.1015198)
(-4.6808039e-07 -4.6808039e-07 1.1015196)
(-1.0542209e-06 -5.2958609e-07 1.1015189)
(-1.4499514e-06 -5.8040278e-07 1.1015178)
(-1.0288096e-06 -6.1741304e-07 1.1015164)
(-1.6030659e-07 -6.3609387e-07 1.1015164)
(-6.9323339e-07 -4.4467705e-07 1.1015169)
(5.3289266e-07 -6.143583e-07 1.1015158)
(2.2073871e-06 -7.7669979e-07 1.1015179)
(8.6621374e-07 -8.9387919e-07 1.1015188)
(1.2122814e-07 -9.8702641e-07 1.1015192)
(-5.2958609e-07 -1.0542209e-06 1.1015189)
(-1.0993488e-06 -1.0993488e-06 1.1015182)
(-1.4785803e-06 -1.1231263e-06 1.1015171)
(-1.0419448e-06 -1.1255032e-06 1.1015156)
(-1.6231234e-07 -1.1141163e-06 1.1015156)
(-7.6970068e-07 -5.3447127e-07 1.1015163)
(3.1356968e-07 -8.3207177e-07 1.101515)
(2.037174e-06 -1.1503214e-06 1.101517)
(7.5160824e-07 -1.2935439e-06 1.1015178)
(3.9899269e-08 -1.3907533e-06 1.1015181)
(-5.8040277e-07 -1.4499514e-06 1.1015178)
(-1.1231263e-06 -1.4785803e-06 1.1015171)
(-1.4761058e-06 -1.4761058e-06 1.1015159)
(-1.0197997e-06 -1.4370183e-06 1.1015145)
(-1.5271533e-07 -1.3702961e-06 1.1015145)
(-8.9163373e-07 -1.1479623e-07 1.1015159)
(-8.295746e-08 -2.0180627e-07 1.1015142)
(1.745915e-06 -7.5897825e-07 1.1015158)
(6.2578182e-07 -9.0628913e-07 1.1015165)
(-3.5179409e-08 -9.8625372e-07 1.1015167)
(-6.1741303e-07 -1.0288096e-06 1.1015164)
(-1.1255032e-06 -1.0419448e-06 1.1015156)
(-1.4370183e-06 -1.0197997e-06 1.1015145)
(-9.3613506e-07 -9.3613505e-07 1.1015132)
(-1.1783085e-07 -7.5017265e-07 1.1015133)
(-8.2770737e-07 8.2877508e-08 1.1015165)
(-3.3061234e-07 1.4680386e-07 1.1015149)
(1.3326911e-06 -8.2225749e-08 1.101516)
(5.2433277e-07 -1.2867872e-07 1.1015166)
(-8.2621207e-08 -1.4985845e-07 1.1015167)
(-6.3609388e-07 -1.6030659e-07 1.1015164)
(-1.1141163e-06 -1.6231235e-07 1.1015156)
(-1.3702961e-06 -1.5271534e-07 1.1015145)
(-7.5017265e-07 -1.1783085e-07 1.1015133)
(-2.8740399e-08 -2.8740398e-08 1.101514)
(-2.5797684e-06 -2.5797684e-06 1.1012398)
(-8.8526278e-07 -6.0406883e-07 1.1012379)
(4.3688279e-06 -7.4677353e-07 1.10124)
(2.0928056e-06 -7.6193163e-07 1.101241)
(8.5452789e-07 -7.7898655e-07 1.1012416)
(-1.7155524e-07 -8.1070797e-07 1.1012416)
(-9.2231348e-07 -8.766349e-07 1.1012412)
(-1.0879599e-06 -1.0251574e-06 1.1012405)
(1.2144905e-07 -1.306666e-06 1.1012398)
(4.0320744e-07 -1.2549905e-06 1.1012407)
(-6.0406883e-07 -8.8526278e-07 1.1012379)
(1.8642294e-06 1.8642294e-06 1.1012376)
(4.1320337e-06 1.6027364e-06 1.1012396)
(2.044486e-06 1.5488809e-06 1.1012406)
(7.8136337e-07 1.4801263e-06 1.1012412)
(-3.1802775e-07 1.3680605e-06 1.1012412)
(-1.2439877e-06 1.1668466e-06 1.1012407)
(-1.7330066e-06 7.6117698e-07 1.1012398)
(-2.233005e-07 -3.7053377e-08 1.1012386)
(4.5488298e-07 -5.3296092e-07 1.1012395)
(-7.4677352e-07 4.3688279e-06 1.10124)
(1.6027364e-06 4.1320337e-06 1.1012396)
(4.0534793e-06 4.0534793e-06 1.1012415)
(1.9701955e-06 3.9803763e-06 1.1012425)
(6.7370755e-07 3.8825995e-06 1.101243)
(-4.8483497e-07 3.7472423e-06 1.101243)
(-1.529197e-06 3.5520782e-06 1.1012424)
(-2.2918599e-06 3.2507722e-06 1.1012413)
(-1.1726889e-06 2.7318799e-06 1.1012399)
(7.2602398e-08 2.0284491e-06 1.1012403)
(-7.6193163e-07 2.0928056e-06 1.101241)
(1.5488809e-06 2.044486e-06 1.1012406)
(3.9803763e-06 1.9701955e-06 1.1012425)
(1.8736062e-06 1.8736062e-06 1.1012435)
(5.482293e-07 1.7569302e-06 1.101244)
(-6.4854899e-07 1.6165248e-06 1.1012438)
(-1.7404577e-06 1.4448069e-06 1.1012432)
(-2.5532049e-06 1.2390259e-06 1.101242)
(-1.4456236e-06 1.0101371e-06 1.1012404)
(-1.4070903e-08 8.2317268e-07 1.1012407)
(-7.7898655e-07 8.5452788e-07 1.1012416)
(1.4801263e-06 7.8136336e-07 1.1012412)
(3.8825995e-06 6.7370754e-07 1.101243)
(1.7569302e-06 5.4822929e-07 1.101244)
(4.1662609e-07 4.1662609e-07 1.1012443)
(-7.9695832e-07 2.8130219e-07 1.1012441)
(-1.9066959e-06 1.4011636e-07 1.1012434)
(-2.7265297e-06 -4.8110032e-09 1.1012422)
(-1.5885421e-06 -1.3844784e-07 1.1012405)
(-5.2040517e-08 -2.2289463e-07 1.1012408)
(-8.1070798e-07 -1.7155524e-07 1.1012416)
(1.3680605e-06 -3.1802776e-07 1.1012412)
(3.7472423e-06 -4.8483498e-07 1.101243)
(1.6165248e-06 -6.48549e-07 1.1012438)
(2.813022e-07 -7.9695832e-07 1.1012441)
(-9.2505872e-07 -9.2505871e-07 1.1012439)
(-2.0265709e-06 -1.0347632e-06 1.1012431)
(-2.8317691e-06 -1.1249255e-06 1.1012418)
(-1.6637072e-06 -1.1897523e-06 1.1012401)
(-7.0368765e-08 -1.2213839e-06 1.1012404)
(-8.7663489e-07 -9.2231348e-07 1.1012412)
(1.1668466e-06 -1.2439877e-06 1.1012407)
(3.5520782e-06 -1.529197e-06 1.1012424)
(1.4448069e-06 -1.7404577e-06 1.1012432)
(1.4011637e-07 -1.9066959e-06 1.1012434)
(-1.0347632e-06 -2.0265709e-06 1.1012431)
(-2.1065627e-06 -2.1065627e-06 1.1012423)
(-2.8815188e-06 -2.1472032e-06 1.101241)
(-1.6850005e-06 -2.1465972e-06 1.1012393)
(-7.3128265e-08 -2.1174653e-06 1.1012395)
(-1.0251574e-06 -1.0879599e-06 1.1012405)
(7.6117699e-07 -1.7330066e-06 1.1012398)
(3.2507722e-06 -2.2918599e-06 1.1012413)
(1.2390259e-06 -2.5532049e-06 1.101242)
(-4.8110017e-09 -2.7265297e-06 1.1012422)
(-1.1249255e-06 -2.8317691e-06 1.1012418)
(-2.1472032e-06 -2.8815188e-06 1.101241)
(-2.8718036e-06 -2.8718036e-06 1.1012397)
(-1.6339694e-06 -2.7813631e-06 1.101238)
(-5.0947519e-08 -2.6024142e-06 1.1012382)
(-1.306666e-06 1.2144907e-07 1.1012398)
(-3.7053373e-08 -2.2330049e-07 1.1012386)
(2.7318799e-06 -1.1726889e-06 1.1012399)
(1.0101371e-06 -1.4456236e-06 1.1012404)
(-1.3844784e-07 -1.5885421e-06 1.1012405)
(-1.1897523e-06 -1.6637072e-06 1.1012401)
(-2.1465972e-06 -1.6850005e-06 1.1012393)
(-2.7813631e-06 -1.6339694e-06 1.101238)
(-1.4156111e-06 -1.415611e-06 1.1012364)
(4.6170958e-08 -7.0649217e-07 1.1012368)
(-1.2549905e-06 4.0320744e-07 1.1012407)
(-5.3296093e-07 4.5488298e-07 1.1012395)
(2.0284491e-06 7.2602395e-08 1.1012403)
(8.2317269e-07 -1.4070904e-08 1.1012407)
(-2.2289463e-07 -5.2040515e-08 1.1012408)
(-1.2213839e-06 -7.0368762e-08 1.1012404)
(-2.1174653e-06 -7.3128264e-08 1.1012395)
(-2.6024142e-06 -5.0947521e-08 1.1012382)
(-7.0649216e-07 4.6170963e-08 1.1012368)
(4.217984e-07 4.2179841e-07 1.1012384)
(-3.144755e-06 -3.144755e-06 1.1008132)
(-7.7106604e-07 -6.9382624e-07 1.1008115)
(5.8353991e-06 -8.6392084e-07 1.1008134)
(2.8369653e-06 -8.8457243e-07 1.1008144)
(1.0897305e-06 -9.0895167e-07 1.1008148)
(-4.0214124e-07 -9.5387383e-07 1.1008147)
(-1.5507547e-06 -1.0469724e-06 1.1008142)
(-1.8992171e-06 -1.2615481e-06 1.1008134)
(6.8459885e-08 -1.6946852e-06 1.1008125)
(6.4077437e-07 -1.6188191e-06 1.1008131)
(-6.9382624e-07 -7.7106603e-07 1.1008115)
(2.6501849e-06 2.6501849e-06 1.1008113)
(5.5492798e-06 2.3320473e-06 1.1008131)
(2.769419e-06 2.2562856e-06 1.100814)
(9.8577844e-07 2.1574409e-06 1.1008144)
(-6.0917232e-07 1.9972603e-06 1.1008143)
(-2.0122661e-06 1.7110555e-06 1.1008137)
(-2.8707864e-06 1.1295488e-06 1.1008127)
(-4.674467e-07 -5.5725609e-08 1.1008113)
(7.1664046e-07 -7.2335443e-07 1.100812)
(-8.6392084e-07 5.8353991e-06 1.1008134)
(2.3320473e-06 5.5492798e-06 1.1008131)
(5.4414997e-06 5.4414997e-06 1.1008148)
(2.6623588e-06 5.3361129e-06 1.1008157)
(8.3070526e-07 5.1952391e-06 1.1008161)
(-8.4852664e-07 5.0005406e-06 1.1008159)
(-2.4184663e-06 4.7204454e-06 1.1008153)
(-3.6659983e-06 4.2904802e-06 1.1008141)
(-1.7844433e-06 3.5471849e-06 1.1008124)
(1.9568848e-07 2.577586e-06 1.1008127)
(-8.8457243e-07 2.8369653e-06 1.1008144)
(2.2562856e-06 2.769419e-06 1.100814)
(5.3361129e-06 2.6623588e-06 1.1008157)
(2.5231584e-06 2.5231584e-06 1.1008166)
(6.5020612e-07 2.3553772e-06 1.1008169)
(-1.083966e-06 2.1537073e-06 1.1008167)
(-2.7223265e-06 1.9071392e-06 1.100816)
(-4.0440468e-06 1.611953e-06 1.1008146)
(-2.1803408e-06 1.2813038e-06 1.1008128)
(7.0241164e-08 1.0115369e-06 1.100813)
(-9.0895167e-07 1.0897305e-06 1.1008148)
(2.1574409e-06 9.8577844e-07 1.1008144)
(5.1952391e-06 8.3070525e-07 1.1008161)
(2.3553772e-06 6.5020611e-07 1.1008169)
(4.6125409e-07 4.6125409e-07 1.1008172)
(-1.2967647e-06 2.671832e-07 1.1008169)
(-2.9602205e-06 6.499843e-08 1.1008161)
(-4.2918337e-06 -1.4199667e-07 1.1008147)
(-2.3848594e-06 -3.32699e-07 1.1008128)
(1.584391e-08 -4.531822e-07 1.100813)
(-9.5387383e-07 -4.0214124e-07 1.1008147)
(1.9972603e-06 -6.0917233e-07 1.1008143)
(5.0005406e-06 -8.4852665e-07 1.1008159)
(2.1537073e-06 -1.083966e-06 1.1008167)
(2.671832e-07 -1.2967647e-06 1.1008169)
(-1.4802217e-06 -1.4802217e-06 1.1008166)
(-3.1315064e-06 -1.6369195e-06 1.1008157)
(-4.4417442e-06 -1.7650703e-06 1.1008143)
(-2.4915264e-06 -1.8564558e-06 1.1008124)
(-1.0080964e-08 -1.9004597e-06 1.1008125)
(-1.0469724e-06 -1.5507547e-06 1.1008142)
(1.7110555e-06 -2.0122661e-06 1.1008137)
(4.7204454e-06 -2.4184663e-06 1.1008153)
(1.9071392e-06 -2.7223265e-06 1.100816)
(6.499843e-08 -2.9602205e-06 1.1008161)
(-1.6369195e-06 -3.1315064e-06 1.1008157)
(-3.2450691e-06 -3.2450691e-06 1.1008148)
(-4.51137e-06 -3.3012631e-06 1.1008133)
(-2.5202488e-06 -3.2967057e-06 1.1008114)
(-1.349203e-08 -3.2499957e-06 1.1008115)
(-1.261548e-06 -1.8992171e-06 1.1008134)
(1.1295488e-06 -2.8707863e-06 1.1008127)
(4.2904802e-06 -3.6659983e-06 1.1008141)
(1.611953e-06 -4.0440468e-06 1.1008146)
(-1.4199667e-07 -4.2918337e-06 1.1008147)
(-1.7650703e-06 -4.4417442e-06 1.1008143)
(-3.3012631e-06 -4.51137e-06 1.1008133)
(-4.4933807e-06 -4.4933807e-06 1.1008119)
(-2.4402589e-06 -4.3497629e-06 1.10081)
(2.1059043e-08 -4.0466707e-06 1.1008101)
(-1.6946852e-06 6.8459901e-08 1.1008125)
(-5.5725603e-08 -4.6744671e-07 1.1008113)
(3.5471849e-06 -1.7844433e-06 1.1008124)
(1.2813038e-06 -2.1803408e-06 1.1008128)
(-3.32699e-07 -2.3848594e-06 1.1008128)
(-1.8564558e-06 -2.4915263e-06 1.1008124)
(-3.2967057e-06 -2.5202488e-06 1.1008114)
(-4.3497629e-06 -2.4402589e-06 1.10081)
(-2.0735388e-06 -2.0735389e-06 1.1008082)
(1.8856942e-07 -6.0472391e-07 1.1008085)
(-1.6188191e-06 6.4077438e-07 1.1008131)
(-7.2335443e-07 7.1664045e-07 1.100812)
(2.577586e-06 1.9568848e-07 1.1008127)
(1.0115369e-06 7.0241167e-08 1.100813)
(-4.5318219e-07 1.584391e-08 1.100813)
(-1.9004597e-06 -1.0080962e-08 1.1008125)
(-3.2499957e-06 -1.3492021e-08 1.1008115)
(-4.0466708e-06 2.1059038e-08 1.1008101)
(-6.047239e-07 1.8856942e-07 1.1008085)
(1.000269e-06 1.000269e-06 1.1008103)
(-3.667285e-06 -3.667285e-06 1.1002391)
(-6.4750317e-07 -7.7370062e-07 1.1002376)
(7.1964321e-06 -9.7409058e-07 1.1002394)
(3.4824994e-06 -1.0011518e-06 1.1002403)
(1.2310515e-06 -1.0330592e-06 1.1002406)
(-7.2972545e-07 -1.0911166e-06 1.1002405)
(-2.2907551e-06 -1.2109561e-06 1.1002399)
(-2.8546683e-06 -1.4897936e-06 1.1002389)
(-1.5555819e-07 -2.0709896e-06 1.1002379)
(8.1976029e-07 -1.9591633e-06 1.1002383)
(-7.7370062e-07 -6.4750318e-07 1.1002376)
(3.3922882e-06 3.3922882e-06 1.1002374)
(6.8552553e-06 3.0108672e-06 1.1002391)
(3.3940465e-06 2.9109848e-06 1.1002399)
(1.0961043e-06 2.7816689e-06 1.1002403)
(-9.9657085e-07 2.573867e-06 1.1002401)
(-2.8887705e-06 2.2041718e-06 1.1002394)
(-4.1447184e-06 1.4513491e-06 1.1002383)
(-8.5961265e-07 -1.1241106e-07 1.1002368)
(9.3158657e-07 -9.2132968e-07 1.1002374)
(-9.7409058e-07 7.1964321e-06 1.1002394)
(3.0108672e-06 6.8552553e-06 1.1002391)
(6.7151288e-06 6.7151288e-06 1.1002407)
(3.2533012e-06 6.5763524e-06 1.1002416)
(8.9393365e-07 6.3924727e-06 1.1002418)
(-1.3072226e-06 6.1393488e-06 1.1002416)
(-3.4132731e-06 5.7760523e-06 1.1002408)
(-5.1712513e-06 5.2206363e-06 1.1002395)
(-2.5282369e-06 4.2575814e-06 1.1002378)
(2.8048119e-07 3.0373757e-06 1.100238)
(-1.0011518e-06 3.4824994e-06 1.1002403)
(2.9109848e-06 3.3940465e-06 1.1002399)
(6.5763524e-06 3.2533011e-06 1.1002416)
(3.0713905e-06 3.0713905e-06 1.1002423)
(6.5910072e-07 2.8530537e-06 1.1002426)
(-1.6129913e-06 2.5912257e-06 1.1002423)
(-3.807483e-06 2.2714768e-06 1.1002414)
(-5.6631892e-06 1.8893075e-06 1.10024)
(-3.0428732e-06 1.4593928e-06 1.1002381)
(1.181161e-07 1.1105079e-06 1.1002382)
(-1.0330592e-06 1.2310515e-06 1.1002406)
(2.7816689e-06 1.0961043e-06 1.1002403)
(6.3924727e-06 8.9393364e-07 1.1002418)
(2.8530537e-06 6.5910072e-07 1.1002426)
(4.1376891e-07 4.137689e-07 1.1002428)
(-1.8887995e-06 1.6218947e-07 1.1002424)
(-4.1151913e-06 -9.9464902e-08 1.1002415)
(-5.9833354e-06 -3.6664963e-07 1.10024)
(-3.3070366e-06 -6.1255425e-07 1.100238)
(4.7891281e-08 -7.6761686e-07 1.1002381)
(-1.0911166e-06 -7.2972546e-07 1.1002405)
(2.573867e-06 -9.9657085e-07 1.1002401)
(6.1393488e-06 -1.3072226e-06 1.1002416)
(2.5912257e-06 -1.6129913e-06 1.1002423)
(1.6218947e-07 -1.8887995e-06 1.1002424)
(-2.1262251e-06 -2.1262251e-06 1.100242)
(-4.3363221e-06 -2.3284374e-06 1.100241)
(-6.1762786e-06 -2.4929578e-06 1.1002395)
(-3.4438404e-06 -2.6093486e-06 1.1002375)
(1.4741033e-08 -2.6647123e-06 1.1002375)
(-1.2109561e-06 -2.2907551e-06 1.1002399)
(2.2041718e-06 -2.8887705e-06 1.1002394)
(5.7760523e-06 -3.4132731e-06 1.1002408)
(2.2714768e-06 -3.807483e-06 1.1002414)
(-9.9464907e-08 -4.1151913e-06 1.1002415)
(-2.3284374e-06 -4.3363221e-06 1.100241)
(-4.4819239e-06 -4.4819239e-06 1.10024)
(-6.2642466e-06 -4.5520753e-06 1.1002385)
(-3.4787911e-06 -4.5423137e-06 1.1002365)
(1.0982177e-08 -4.4782068e-06 1.1002365)
(-1.4897936e-06 -2.8546683e-06 1.1002389)
(1.451349e-06 -4.1447184e-06 1.1002383)
(5.2206363e-06 -5.1712513e-06 1.1002395)
(1.8893075e-06 -5.6631892e-06 1.10024)
(-3.6664964e-07 -5.9833353e-06 1.10024)
(-2.4929577e-06 -6.1762786e-06 1.1002395)
(-4.5520753e-06 -6.2642466e-06 1.1002385)
(-6.2366684e-06 -6.2366684e-06 1.1002369)
(-3.3699719e-06 -6.040576e-06 1.1002349)
(5.7479023e-08 -5.6187742e-06 1.100235)
(-2.0709896e-06 -1.5555818e-07 1.1002379)
(-1.1241107e-07 -8.5961265e-07 1.1002368)
(4.2575814e-06 -2.528237e-06 1.1002378)
(1.4593928e-06 -3.0428732e-06 1.1002381)
(-6.1255426e-07 -3.3070366e-06 1.100238)
(-2.6093486e-06 -3.4438404e-06 1.1002375)
(-4.5423137e-06 -3.4787911e-06 1.1002365)
(-6.040576e-06 -3.3699719e-06 1.1002349)
(-2.8608969e-06 -2.8608969e-06 1.100233)
(2.921834e-07 -5.7491956e-07 1.1002333)
(-1.9591633e-06 8.1976029e-07 1.1002383)
(-9.213297e-07 9.3158658e-07 1.1002374)
(3.0373757e-06 2.8048119e-07 1.100238)
(1.1105079e-06 1.181161e-07 1.1002382)
(-7.6761686e-07 4.7891278e-08 1.1002381)
(-2.6647123e-06 1.4741035e-08 1.1002375)
(-4.4782068e-06 1.0982177e-08 1.1002365)
(-5.6187741e-06 5.7479018e-08 1.100235)
(-5.7491955e-07 2.921834e-07 1.1002333)
(1.581464e-06 1.581464e-06 1.1002349)
(-4.1482101e-06 -4.1482101e-06 1.0995234)
(-5.0386896e-07 -8.3664664e-07 1.099522)
(8.4740495e-06 -1.0683896e-06 1.0995237)
(4.0458658e-06 -1.1024573e-06 1.0995245)
(1.2902719e-06 -1.1419807e-06 1.0995247)
(-1.1407579e-06 -1.2129317e-06 1.0995245)
(-3.1186378e-06 -1.3588587e-06 1.0995239)
(-3.9071666e-06 -1.7003259e-06 1.0995228)
(-4.942723e-07 -2.4267653e-06 1.0995217)
(9.5668253e-07 -2.2802739e-06 1.099522)
(-8.3664663e-07 -5.0386895e-07 1.099522)
(4.1158615e-06 4.1158615e-06 1.0995218)
(8.0753335e-06 3.6679797e-06 1.0995234)
(3.9354791e-06 3.5424e-06 1.0995242)
(1.1245603e-06 3.3825e-06 1.0995244)
(-1.4660748e-06 3.1280021e-06 1.0995242)
(-3.8497292e-06 2.6769783e-06 1.0995234)
(-5.5090265e-06 1.757595e-06 1.0995222)
(-1.3641943e-06 -1.7615673e-07 1.0995207)
(1.1031738e-06 -1.1199254e-06 1.0995211)
(-1.0683896e-06 8.4740495e-06 1.0995237)
(3.6679797e-06 8.0753335e-06 1.0995234)
(7.900588e-06 7.900588e-06 1.099525)
(3.7603861e-06 7.7275565e-06 1.0995257)
(8.7587391e-07 7.5009557e-06 1.0995259)
(-1.8462796e-06 7.1906342e-06 1.0995256)
(-4.489045e-06 6.7463994e-06 1.0995248)
(-6.7603018e-06 6.069428e-06 1.0995234)
(-3.3717927e-06 4.8927477e-06 1.0995216)
(3.2750336e-07 3.4326537e-06 1.0995217)
(-1.1024573e-06 4.0458658e-06 1.0995245)
(3.5424e-06 3.9354791e-06 1.0995242)
(7.7275565e-06 3.7603861e-06 1.0995257)
(3.5358469e-06 3.5358469e-06 1.0995264)
(5.8763798e-07 3.2677208e-06 1.0995266)
(-2.2206311e-06 2.9471198e-06 1.0995262)
(-4.9709354e-06 2.5562118e-06 1.0995253)
(-7.3626781e-06 2.0898122e-06 1.0995238)
(-4.0009685e-06 1.5636708e-06 1.0995219)
(1.2977784e-07 1.1389342e-06 1.0995219)
(-1.1419807e-06 1.2902719e-06 1.0995247)
(3.3825e-06 1.1245603e-06 1.0995244)
(7.5009557e-06 8.7587392e-07 1.0995259)
(3.2677208e-06 5.8763799e-07 1.0995266)
(2.8714679e-07 2.8714679e-07 1.0995267)
(-2.5577885e-06 -2.0458817e-08 1.0995263)
(-5.3463526e-06 -3.3983417e-07 1.0995253)
(-7.7528429e-06 -6.6520038e-07 1.0995238)
(-4.3226707e-06 -9.6436293e-07 1.0995217)
(4.4345655e-08 -1.1525631e-06 1.0995217)
(-1.2129317e-06 -1.1407579e-06 1.0995245)
(3.1280021e-06 -1.4660748e-06 1.0995242)
(7.1906342e-06 -1.8462796e-06 1.0995256)
(2.9471197e-06 -2.2206311e-06 1.0995262)
(-2.0458818e-08 -2.5577885e-06 1.0995263)
(-2.8476121e-06 -2.8476121e-06 1.0995258)
(-5.6156769e-06 -3.093812e-06 1.0995248)
(-7.9872069e-06 -3.2932082e-06 1.0995232)
(-4.4883311e-06 -3.4332822e-06 1.0995211)
(4.3110959e-09 -3.4990999e-06 1.099521)
(-1.3588587e-06 -3.1186379e-06 1.0995239)
(2.6769783e-06 -3.8497292e-06 1.0995234)
(6.7463994e-06 -4.489045e-06 1.0995248)
(2.5562118e-06 -4.9709354e-06 1.0995253)
(-3.3983417e-07 -5.3463526e-06 1.0995253)
(-3.093812e-06 -5.6156769e-06 1.0995248)
(-5.7919487e-06 -5.7919487e-06 1.0995237)
(-8.0923131e-06 -5.8748755e-06 1.0995221)
(-4.5285624e-06 -5.8590113e-06 1.09952)
(4.6718269e-10 -5.7771666e-06 1.0995199)
(-1.7003259e-06 -3.9071666e-06 1.0995228)
(1.757595e-06 -5.5090265e-06 1.0995222)
(6.069428e-06 -6.7603018e-06 1.0995234)
(2.0898122e-06 -7.3626781e-06 1.0995238)
(-6.6520038e-07 -7.7528429e-06 1.0995238)
(-3.2932082e-06 -7.9872069e-06 1.0995232)
(-5.8748755e-06 -8.0923131e-06 1.0995221)
(-8.0542695e-06 -8.0542695e-06 1.0995205)
(-4.3906222e-06 -7.8061724e-06 1.0995184)
(5.8874223e-08 -7.2705713e-06 1.0995184)
(-2.4267653e-06 -4.942723e-07 1.0995217)
(-1.7615673e-07 -1.3641943e-06 1.0995207)
(4.8927477e-06 -3.3717927e-06 1.0995216)
(1.5636708e-06 -4.0009685e-06 1.0995219)
(-9.6436293e-07 -4.3226707e-06 1.0995217)
(-3.4332822e-06 -4.4883311e-06 1.0995211)
(-5.8590113e-06 -4.5285624e-06 1.09952)
(-7.8061724e-06 -4.3906222e-06 1.0995184)
(-3.7448643e-06 -3.7448643e-06 1.0995164)
(3.5753455e-07 -6.4179193e-07 1.0995166)
(-2.2802739e-06 9.5668253e-07 1.099522)
(-1.1199254e-06 1.1031738e-06 1.0995211)
(3.4326537e-06 3.2750336e-07 1.0995217)
(1.1389342e-06 1.2977785e-07 1.0995219)
(-1.1525631e-06 4.4345649e-08 1.0995217)
(-3.4990999e-06 4.3110969e-09 1.099521)
(-5.7771666e-06 4.6718269e-10 1.0995199)
(-7.2705713e-06 5.8874221e-08 1.0995184)
(-6.4179192e-07 3.5753454e-07 1.0995166)
(2.1275892e-06 2.1275892e-06 1.0995182)
(-4.5841998e-06 -4.5841998e-06 1.0986723)
(-3.3288099e-07 -8.798872e-07 1.0986711)
(9.676453e-06 -1.1430124e-06 1.0986727)
(4.5392757e-06 -1.1843999e-06 1.0986734)
(1.2809679e-06 -1.2315197e-06 1.0986736)
(-1.6182892e-06 -1.3150218e-06 1.0986733)
(-4.0116879e-06 -1.4861887e-06 1.0986726)
(-5.027069e-06 -1.8883008e-06 1.0986715)
(-9.2113219e-07 -2.7563701e-06 1.0986703)
(1.0581766e-06 -2.5799154e-06 1.0986706)
(-8.798872e-07 -3.3288099e-07 1.0986711)
(4.8288996e-06 4.8288996e-06 1.098671)
(9.219684e-06 4.3136873e-06 1.0986725)
(4.4065147e-06 4.1615895e-06 1.0986732)
(1.0850351e-06 3.9713335e-06 1.0986734)
(-2.0002927e-06 3.6713749e-06 1.0986731)
(-4.8716064e-06 3.1416889e-06 1.0986723)
(-6.9323411e-06 2.0613547e-06 1.098671)
(-1.958554e-06 -2.3176111e-07 1.0986694)
(1.2346313e-06 -1.3099504e-06 1.0986697)
(-1.1430124e-06 9.676453e-06 1.0986727)
(4.3136873e-06 9.219684e-06 1.0986725)
(9.0091429e-06 9.0091429e-06 1.098674)
(4.1969218e-06 8.8015363e-06 1.0986747)
(7.9075335e-07 8.5328421e-06 1.0986748)
(-2.4479338e-06 8.1668673e-06 1.0986744)
(-5.6217082e-06 7.6443447e-06 1.0986735)
(-8.4005193e-06 6.8501982e-06 1.0986721)
(-4.2924373e-06 5.4672454e-06 1.0986702)
(3.3938372e-07 3.7768588e-06 1.0986702)
(-1.1843999e-06 4.5392757e-06 1.0986734)
(4.1615895e-06 4.4065147e-06 1.0986732)
(8.8015363e-06 4.1969218e-06 1.0986747)
(3.9302139e-06 3.9302139e-06 1.0986753)
(4.5036603e-07 3.6133733e-06 1.0986754)
(-2.8887901e-06 3.2356763e-06 1.098675)
(-6.1882756e-06 2.7759315e-06 1.098674)
(-9.1094403e-06 2.2283089e-06 1.0986725)
(-5.0318931e-06 1.6093503e-06 1.0986705)
(1.0770693e-07 1.1117836e-06 1.0986704)
(-1.2315197e-06 1.2809679e-06 1.0986736)
(3.9713335e-06 1.0850351e-06 1.0986734)
(8.5328421e-06 7.9075334e-07 1.0986748)
(3.6133733e-06 4.5036603e-07 1.0986754)
(9.6215716e-08 9.6215714e-08 1.0986754)
(-3.2853756e-06 -2.6570058e-07 1.0986749)
(-6.6290756e-06 -6.4086813e-07 1.0986739)
(-9.5671005e-06 -1.0223222e-06 1.0986724)
(-5.4089625e-06 -1.372774e-06 1.0986703)
(7.6725814e-09 -1.5927832e-06 1.0986701)
(-1.3150218e-06 -1.6182892e-06 1.0986733)
(3.6713749e-06 -2.0002927e-06 1.0986731)
(8.1668673e-06 -2.4479338e-06 1.0986744)
(3.2356763e-06 -2.8887901e-06 1.098675)
(-2.6570058e-07 -3.2853756e-06 1.0986749)
(-3.6258739e-06 -3.6258739e-06 1.0986744)
(-6.9448971e-06 -3.9145261e-06 1.0986734)
(-9.8413461e-06 -4.1474904e-06 1.0986717)
(-5.6023542e-06 -4.3102941e-06 1.0986696)
(-3.8965927e-08 -4.38607e-06 1.0986695)
(-1.4861887e-06 -4.0116879e-06 1.0986726)
(3.1416889e-06 -4.8716064e-06 1.0986723)
(7.6443447e-06 -5.6217082e-06 1.0986735)
(2.7759316e-06 -6.1882756e-06 1.098674)
(-6.4086814e-07 -6.6290756e-06 1.0986739)
(-3.9145261e-06 -6.9448972e-06 1.0986734)
(-7.1506921e-06 -7.1506921e-06 1.0986723)
(-9.9628684e-06 -7.2458211e-06 1.0986706)
(-5.6475422e-06 -7.2239318e-06 1.0986685)
(-4.2844718e-08 -7.1248415e-06 1.0986683)
(-1.8883008e-06 -5.0270691e-06 1.0986715)
(2.0613547e-06 -6.9323411e-06 1.098671)
(6.8501982e-06 -8.4005193e-06 1.0986721)
(2.2283089e-06 -9.1094403e-06 1.0986725)
(-1.0223222e-06 -9.5671005e-06 1.0986724)
(-4.1474904e-06 -9.8413461e-06 1.0986717)
(-7.2458211e-06 -9.9628684e-06 1.0986706)
(-9.9145859e-06 -9.9145859e-06 1.098669)
(-5.4813746e-06 -9.6164201e-06 1.0986669)
(2.709425e-08 -8.9722991e-06 1.0986667)
(-2.7563701e-06 -9.211322e-07 1.0986703)
(-2.317611e-07 -1.958554e-06 1.0986694)
(5.4672454e-06 -4.2924373e-06 1.0986702)
(1.6093503e-06 -5.0318931e-06 1.0986705)
(-1.3727739e-06 -5.4089625e-06 1.0986703)
(-4.3102941e-06 -5.6023542e-06 1.0986696)
(-7.2239318e-06 -5.6475422e-06 1.0986685)
(-9.6164201e-06 -5.4813746e-06 1.0986669)
(-4.7052554e-06 -4.7052554e-06 1.0986649)
(3.8656928e-07 -8.0433582e-07 1.0986649)
(-2.5799154e-06 1.0581766e-06 1.0986706)
(-1.3099504e-06 1.2346313e-06 1.0986697)
(3.7768588e-06 3.3938372e-07 1.0986702)
(1.1117836e-06 1.0770694e-07 1.0986704)
(-1.5927833e-06 7.6725854e-09 1.0986701)
(-4.38607e-06 -3.8965933e-08 1.0986695)
(-7.1248415e-06 -4.2844725e-08 1.0986683)
(-8.9722991e-06 2.7094243e-08 1.0986667)
(-8.0433581e-07 3.8656927e-07 1.0986649)
(2.6277075e-06 2.6277074e-06 1.0986663)
(-4.9723002e-06 -4.9723002e-06 1.0976932)
(-1.3119997e-07 -9.0243301e-07 1.0976921)
(1.0805898e-05 -1.1964224e-06 1.0976936)
(4.9713506e-06 -1.2452639e-06 1.0976943)
(1.2154521e-06 -1.299869e-06 1.0976945)
(-2.1461144e-06 -1.3954946e-06 1.0976941)
(-4.9495016e-06 -1.5909018e-06 1.0976934)
(-6.1912481e-06 -2.051312e-06 1.0976922)
(-1.4188603e-06 -3.056453e-06 1.097691)