/*--------------------------------*- C++ -*----------------------------------*\
| =========                 |                                                 |
| \\      /  F ield         | OpenFOAM: The Open Source CFD Toolbox           |
|  \\    /   O peration     | Version:  v2106                                 |
|   \\  /    A nd           | Website:  www.openfoam.com                      |
|    \\/     M anipulation  |                                                 |
\*---------------------------------------------------------------------------*/
FoamFile
{
    version     2.0;
    format      ascii;
    arch        "LSB;label=32;scalar=64";
    class       volVectorField;
    location    "50";
    object      flux;
}
// * * * * * * * * * * * * * * * * * * * * * * * * * * * * * * * * * * * * * //

dimensions      [0 1 -1 1 0 0 0];

internalField   nonuniform List<vector> 
4000
(
(-5.4857289e-07 -5.4857289e-07 0.33686907)
(-8.5410211e-07 -3.5341905e-07 0.3368631)
(-7.2571137e-08 -3.5118646e-07 0.33686264)
(-5.2060356e-08 -3.4794313e-07 0.33686229)
(5.9307387e-09 -3.4688285e-07 0.3368622)
(6.0667379e-08 -3.4713527e-07 0.33686235)
(1.1909028e-07 -3.4847449e-07 0.33686272)
(1.8512657e-07 -3.505479e-07 0.33686335)
(2.3578625e-07 -3.4851658e-07 0.3368643)
(8.3830271e-08 -3.1780391e-07 0.33686544)
(-3.5341905e-07 -8.5410211e-07 0.3368631)
(-5.5802252e-07 -5.5802252e-07 0.33685905)
(-6.4357245e-08 -5.4521634e-07 0.33685867)
(-4.5604941e-08 -5.354886e-07 0.33685837)
(7.1425234e-09 -5.3233348e-07 0.33685829)
(5.8279915e-08 -5.3337804e-07 0.33685843)
(1.1397134e-07 -5.3823112e-07 0.33685879)
(1.8506345e-07 -5.4757396e-07 0.3368594)
(2.8490223e-07 -5.5777167e-07 0.33686037)
(1.1454293e-07 -5.3566195e-07 0.33686204)
(-3.5118646e-07 -7.2571135e-08 0.33686264)
(-5.4521634e-07 -6.4357243e-08 0.33685867)
(-5.0037211e-08 -5.0037209e-08 0.33685838)
(-3.9177488e-08 -4.2461724e-08 0.33685811)
(8.0412978e-09 -4.0132241e-08 0.33685805)
(5.4769736e-08 -4.1614151e-08 0.33685819)
(1.0489436e-07 -4.6723998e-08 0.33685852)
(1.6558602e-07 -5.6687879e-08 0.33685907)
(2.4769826e-07 -7.4919303e-08 0.33685993)
(9.857009e-08 -1.03537e-07 0.33686142)
(-3.4794313e-07 -5.2060354e-08 0.33686229)
(-5.354886e-07 -4.560494e-08 0.33685837)
(-4.2461726e-08 -3.9177486e-08 0.33685811)
(-3.5699973e-08 -3.569997e-08 0.33685788)
(7.9900969e-09 -3.5048103e-08 0.33685782)
(5.1688158e-08 -3.6749993e-08 0.33685795)
(9.8897609e-08 -4.0593917e-08 0.33685826)
(1.5686814e-07 -4.6500949e-08 0.33685878)
(2.3805311e-07 -5.3931355e-08 0.33685959)
(9.546447e-08 -6.0387197e-08 0.33686104)
(-3.4688285e-07 5.9307377e-09 0.3368622)
(-5.3233348e-07 7.1425239e-09 0.33685829)
(-4.0132242e-08 8.0412977e-09 0.33685805)
(-3.5048105e-08 7.9900974e-09 0.33685782)
(6.991275e-09 6.991275e-09 0.33685776)
(4.9223923e-08 5.238078e-09 0.33685788)
(9.5143406e-08 2.8633204e-09 0.33685818)
(1.5224858e-07 7.2236163e-12 0.33685868)
(2.3381202e-07 -2.9449629e-09 0.33685948)
(9.4266196e-08 -5.0055286e-09 0.33686091)
(-3.4713527e-07 6.0667377e-08 0.33686235)
(-5.3337804e-07 5.8279915e-08 0.33685843)
(-4.1614153e-08 5.4769735e-08 0.33685819)
(-3.6749996e-08 5.1688155e-08 0.33685795)
(5.2380775e-09 4.9223927e-08 0.33685788)
(4.7560204e-08 4.7560203e-08 0.33685799)
(9.3666755e-08 4.6763172e-08 0.33685828)
(1.5105986e-07 4.6860847e-08 0.33685878)
(2.3304036e-07 4.7691569e-08 0.33685957)
(9.409076e-08 4.8636671e-08 0.336861)
(-3.4847449e-07 1.1909028e-07 0.33686272)
(-5.3823112e-07 1.1397134e-07 0.33685879)
(-4.6724002e-08 1.0489436e-07 0.33685852)
(-4.0593913e-08 9.8897607e-08 0.33685826)
(2.8633235e-09 9.5143408e-08 0.33685818)
(4.6763168e-08 9.3666754e-08 0.33685828)
(9.4444049e-08 9.4444051e-08 0.33685857)
(1.5317698e-07 9.7511368e-08 0.33685908)
(2.3558784e-07 1.0240771e-07 0.33685988)
(9.4896263e-08 1.069978e-07 0.33686132)
(-3.505479e-07 1.8512657e-07 0.33686335)
(-5.4757396e-07 1.8506345e-07 0.3368594)
(-5.6687882e-08 1.6558602e-07 0.33685907)
(-4.6500947e-08 1.5686815e-07 0.33685878)
(7.2246931e-12 1.5224858e-07 0.33685868)
(4.6860847e-08 1.5105986e-07 0.33685878)
(9.7511369e-08 1.5317698e-07 0.33685908)
(1.5902352e-07 1.5902352e-07 0.3368596)
(2.4252679e-07 1.6872264e-07 0.33686044)
(9.715082e-08 1.7923641e-07 0.3368619)
(-3.4851658e-07 2.3578626e-07 0.3368643)
(-5.5777167e-07 2.8490222e-07 0.33686037)
(-7.4919299e-08 2.4769826e-07 0.33685993)
(-5.3931356e-08 2.3805311e-07 0.33685959)
(-2.9449665e-09 2.3381201e-07 0.33685948)
(4.7691568e-08 2.3304035e-07 0.33685957)
(1.0240771e-07 2.3558784e-07 0.33685988)
(1.6872265e-07 2.4252678e-07 0.33686044)
(2.5580073e-07 2.5580073e-07 0.33686132)
(1.0190544e-07 2.7449121e-07 0.33686286)
(-3.1780392e-07 8.3830274e-08 0.33686544)
(-5.3566195e-07 1.1454293e-07 0.33686204)
(-1.03537e-07 9.8570089e-08 0.33686142)
(-6.0387196e-08 9.5464467e-08 0.33686104)
(-5.0055275e-09 9.4266196e-08 0.33686091)
(4.8636668e-08 9.409076e-08 0.336861)
(1.069978e-07 9.4896263e-08 0.33686132)
(1.7923641e-07 9.7150818e-08 0.3368619)
(2.7449121e-07 1.0190544e-07 0.33686286)
(1.0961114e-07 1.0961114e-07 0.33686451)
(-4.494394e-06 -4.494394e-06 0.71375246)
(-7.3629598e-06 -3.1028969e-06 0.71374256)
(-1.0290121e-06 -3.021672e-06 0.71374146)
(-5.1079812e-07 -2.9875404e-06 0.71374081)
(6.5681855e-08 -2.9771203e-06 0.71374066)
(6.1157957e-07 -2.9798813e-06 0.71374096)
(1.2008386e-06 -2.9939708e-06 0.71374174)
(1.8892523e-06 -3.0166611e-06 0.71374308)
(2.5158325e-06 -2.9933989e-06 0.71374523)
(9.2312104e-07 -2.5393542e-06 0.71374862)
(-3.1028969e-06 -7.3629598e-06 0.71374256)
(-5.1538798e-06 -5.1538798e-06 0.71373562)
(-8.5597757e-07 -4.9365367e-06 0.71373475)
(-4.439706e-07 -4.83771e-06 0.71373418)
(7.7170545e-08 -4.8067686e-06 0.71373405)
(5.8630374e-07 -4.8179237e-06 0.71373435)
(1.1456689e-06 -4.8682337e-06 0.71373508)
(1.8901101e-06 -4.9665743e-06 0.71373633)
(3.2317924e-06 -5.0693345e-06 0.71373842)
(1.3771656e-06 -4.5941258e-06 0.71374294)
(-3.021672e-06 -1.0290121e-06 0.71374146)
(-4.9365367e-06 -8.5597757e-07 0.71373475)
(-7.1284222e-07 -7.1284222e-07 0.71373404)
(-3.8103e-07 -6.3848794e-07 0.71373354)
(8.5468138e-08 -6.1576583e-07 0.71373344)
(5.501145e-07 -6.3124096e-07 0.71373372)
(1.0521879e-06 -6.835537e-07 0.7137344)
(1.6881515e-06 -7.8611713e-07 0.71373553)
(2.8882814e-06 -9.7668875e-07 0.71373736)
(1.2399272e-06 -1.2335571e-06 0.71374154)
(-2.9875404e-06 -5.1079812e-07 0.71374081)
(-4.83771e-06 -4.439706e-07 0.71373418)
(-6.3848794e-07 -3.8103e-07 0.71373354)
(-3.468942e-07 -3.468942e-07 0.7137331)
(8.4417529e-08 -3.408308e-07 0.71373301)
(5.1851587e-07 -3.5839597e-07 0.71373327)
(9.907927e-07 -3.9760169e-07 0.7137339)
(1.5969751e-06 -4.579193e-07 0.71373496)
(2.7843524e-06 -5.3566903e-07 0.71373669)
(1.20592e-06 -6.0505647e-07 0.71374078)
(-2.9771203e-06 6.5681853e-08 0.71374066)
(-4.8067686e-06 7.7170544e-08 0.71373405)
(-6.1576583e-07 8.5468138e-08 0.71373344)
(-3.408308e-07 8.441753e-08 0.71373301)
(7.3966377e-08 7.3966375e-08 0.71373291)
(4.9334361e-07 5.5997536e-08 0.71373316)
(9.526646e-07 3.1825663e-08 0.71373376)
(1.5500842e-06 2.8932263e-09 0.71373477)
(2.7411442e-06 -2.7014207e-08 0.71373646)
(1.1936689e-06 -4.7926276e-08 0.71374051)
(-2.9798813e-06 6.1157956e-07 0.71374096)
(-4.8179237e-06 5.8630374e-07 0.71373435)
(-6.3124096e-07 5.501145e-07 0.71373372)
(-3.5839597e-07 5.1851587e-07 0.71373327)
(5.5997535e-08 4.9334362e-07 0.71373316)
(4.7637516e-07 4.7637516e-07 0.71373339)
(9.3768839e-07 4.6830069e-07 0.71373397)
(1.5381352e-06 4.6945124e-07 0.71373497)
(2.7335329e-06 4.7824049e-07 0.71373665)
(1.1919786e-06 4.883353e-07 0.7137407)
(-2.9939708e-06 1.2008386e-06 0.71374174)
(-4.8682337e-06 1.1456689e-06 0.71373508)
(-6.835537e-07 1.0521879e-06 0.7137344)
(-3.9760168e-07 9.907927e-07 0.7137339)
(3.1825667e-08 9.5266461e-07 0.71373376)
(4.6830069e-07 9.3768839e-07 0.71373397)
(9.4574068e-07 9.4574069e-07 0.71373456)
(1.560024e-06 9.7739313e-07 0.71373558)
(2.7600282e-06 1.0283352e-06 0.71373728)
(1.2003987e-06 1.0769684e-06 0.71374136)
(-3.0166611e-06 1.8892523e-06 0.71374308)
(-4.9665743e-06 1.8901102e-06 0.71373633)
(-7.8611713e-07 1.6881515e-06 0.71373553)
(-4.579193e-07 1.5969751e-06 0.71373496)
(2.8932273e-09 1.5500842e-06 0.71373477)
(4.6945124e-07 1.5381352e-06 0.71373497)
(9.7739313e-07 1.560024e-06 0.71373558)
(1.6207298e-06 1.6207298e-06 0.71373664)
(2.8331082e-06 1.723348e-06 0.71373842)
(1.2244008e-06 1.8397999e-06 0.71374258)
(-2.9933989e-06 2.5158325e-06 0.71374523)
(-5.0693345e-06 3.2317924e-06 0.71373842)
(-9.7668875e-07 2.8882814e-06 0.71373736)
(-5.3566903e-07 2.7843524e-06 0.71373669)
(-2.7014208e-08 2.7411442e-06 0.71373646)
(4.7824049e-07 2.7335329e-06 0.71373665)
(1.0283352e-06 2.7600282e-06 0.71373728)
(1.723348e-06 2.8331082e-06 0.71373842)
(2.9790984e-06 2.9790984e-06 0.71374035)
(1.2780334e-06 3.2111086e-06 0.71374472)
(-2.5393542e-06 9.2312104e-07 0.71374862)
(-4.5941258e-06 1.3771656e-06 0.71374294)
(-1.2335571e-06 1.2399272e-06 0.71374154)
(-6.0505646e-07 1.20592e-06 0.71374078)
(-4.7926272e-08 1.1936689e-06 0.71374051)
(4.8833529e-07 1.1919786e-06 0.7137407)
(1.0769684e-06 1.2003987e-06 0.71374136)
(1.8397999e-06 1.2244008e-06 0.71374258)
(3.2111086e-06 1.2780334e-06 0.71374472)
(1.3790743e-06 1.3790743e-06 0.71374973)
(-7.067836e-06 -7.067836e-06 0.71259479)
(-1.1723895e-05 -4.9257603e-06 0.71258773)
(-1.8152767e-06 -4.7750681e-06 0.71258699)
(-8.5282708e-07 -4.7147947e-06 0.71258655)
(1.6278662e-07 -4.697086e-06 0.71258649)
(1.139729e-06 -4.7041137e-06 0.7125868)
(2.2316578e-06 -4.7361082e-06 0.71258749)
(3.6701628e-06 -4.802226e-06 0.7125887)
(5.8069413e-06 -4.8441259e-06 0.71259079)
(2.3674659e-06 -4.0668915e-06 0.71259505)
(-4.9257603e-06 -1.1723895e-05 0.71258773)
(-8.2847498e-06 -8.2847498e-06 0.71258279)
(-1.4988285e-06 -7.8908446e-06 0.71258222)
(-7.3585393e-07 -7.717054e-06 0.71258185)
(1.7880814e-07 -7.6649304e-06 0.71258181)
(1.0811956e-06 -7.6912192e-06 0.7125821)
(2.0844895e-06 -7.7974271e-06 0.71258274)
(3.5081364e-06 -8.0232857e-06 0.71258381)
(6.9099416e-06 -8.3565838e-06 0.71258567)
(3.1447e-06 -7.551376e-06 0.71259089)
(-4.7750681e-06 -1.8152767e-06 0.71258699)
(-7.8908446e-06 -1.4988285e-06 0.71258222)
(-1.2475808e-06 -1.2475807e-06 0.71258179)
(-6.2691286e-07 -1.1179479e-06 0.71258147)
(1.8862152e-07 -1.0810955e-06 0.71258145)
(1.0072323e-06 -1.1150263e-06 0.71258172)
(1.8995912e-06 -1.2194699e-06 0.7125823)
(3.111006e-06 -1.4219406e-06 0.71258323)
(6.2788514e-06 -1.7979391e-06 0.71258481)
(2.9042719e-06 -2.2571979e-06 0.71258974)
(-4.7147947e-06 -8.5282708e-07 0.71258655)
(-7.717054e-06 -7.3585393e-07 0.71258185)
(-1.1179479e-06 -6.2691286e-07 0.71258147)
(-5.693687e-07 -5.6936869e-07 0.71258119)
(1.8172967e-07 -5.6262427e-07 0.71258117)
(9.4282117e-07 -5.9959641e-07 0.71258142)
(1.7775753e-06 -6.7764549e-07 0.71258195)
(2.9296674e-06 -7.9657925e-07 0.71258281)
(6.0746843e-06 -9.5057288e-07 0.71258428)
(2.8385273e-06 -1.0847661e-06 0.7125891)
(-4.697086e-06 1.6278662e-07 0.71258649)
(-7.6649304e-06 1.7880813e-07 0.71258181)
(-1.0810955e-06 1.8862152e-07 0.71258145)
(-5.6262427e-07 1.8172967e-07 0.71258117)
(1.5839381e-07 1.5839381e-07 0.71258114)
(8.9221108e-07 1.217778e-07 0.71258137)
(1.7026084e-06 7.4016677e-08 0.71258186)
(2.8380787e-06 1.7728597e-08 0.71258268)
(5.9906646e-06 -3.9978405e-08 0.7125841)
(2.8148097e-06 -7.9756309e-08 0.71258889)
(-4.7041137e-06 1.139729e-06 0.7125868)
(-7.6912192e-06 1.0811956e-06 0.7125821)
(-1.1150263e-06 1.0072323e-06 0.71258172)
(-5.9959641e-07 9.4282117e-07 0.71258142)
(1.217778e-07 8.9221108e-07 0.71258137)
(8.5844404e-07 8.5844404e-07 0.71258157)
(1.6735261e-06 8.4284354e-07 0.71258205)
(2.8156723e-06 8.46381e-07 0.71258285)
(5.9771994e-06 8.6635812e-07 0.71258427)
(2.8120087e-06 8.8963148e-07 0.71258905)
(-4.7361082e-06 2.2316578e-06 0.71258749)
(-7.7974271e-06 2.0844895e-06 0.71258274)
(-1.2194699e-06 1.8995912e-06 0.7125823)
(-6.7764549e-07 1.7775753e-06 0.71258195)
(7.4016682e-08 1.7026084e-06 0.71258186)
(8.4284354e-07 1.6735261e-06 0.71258205)
(1.6905453e-06 1.6905453e-06 0.71258253)
(2.8615932e-06 1.7564582e-06 0.71258335)
(6.0339151e-06 1.8659328e-06 0.7125848)
(2.8303253e-06 1.977161e-06 0.71258962)
(-4.802226e-06 3.6701628e-06 0.7125887)
(-8.0232857e-06 3.5081364e-06 0.71258381)
(-1.4219406e-06 3.111006e-06 0.71258323)
(-7.9657926e-07 2.9296674e-06 0.71258281)
(1.7728598e-08 2.8380787e-06 0.71258268)
(8.46381e-07 2.8156723e-06 0.71258285)
(1.7564582e-06 2.8615932e-06 0.71258335)
(2.9910597e-06 2.9910597e-06 0.71258422)
(6.1979022e-06 3.2257652e-06 0.71258577)
(2.8861608e-06 3.5360396e-06 0.71259069)
(-4.8441259e-06 5.8069413e-06 0.71259079)
(-8.3565838e-06 6.9099416e-06 0.71258567)
(-1.7979391e-06 6.2788514e-06 0.71258481)
(-9.5057288e-07 6.0746843e-06 0.71258428)
(-3.9978402e-08 5.9906646e-06 0.7125841)
(8.6635812e-07 5.9771995e-06 0.71258427)
(1.8659328e-06 6.0339151e-06 0.7125848)
(3.2257652e-06 6.1979022e-06 0.71258577)
(6.578895e-06 6.578895e-06 0.7125875)
(3.0371751e-06 7.4655466e-06 0.71259275)
(-4.0668915e-06 2.3674659e-06 0.71259505)
(-7.551376e-06 3.1447e-06 0.71259089)
(-2.2571979e-06 2.9042719e-06 0.71258974)
(-1.0847661e-06 2.8385273e-06 0.7125891)
(-7.9756305e-08 2.8148097e-06 0.71258889)
(8.8963149e-07 2.8120087e-06 0.71258905)
(1.977161e-06 2.8303253e-06 0.71258962)
(3.5360396e-06 2.8861608e-06 0.71259069)
(7.4655465e-06 3.0371751e-06 0.71259275)
(3.4772624e-06 3.4772624e-06 0.71259927)
(-9.1735902e-06 -9.1735902e-06 0.71088241)
(-1.5108798e-05 -6.3777782e-06 0.71087651)
(-2.1926203e-06 -6.1807776e-06 0.71087631)
(-1.0048141e-06 -6.1014213e-06 0.71087614)
(3.1337484e-07 -6.079247e-06 0.7108762)
(1.6117507e-06 -6.0923898e-06 0.71087649)
(3.0975909e-06 -6.1449049e-06 0.71087706)
(5.1639039e-06 -6.2610488e-06 0.71087803)
(8.8425256e-06 -6.3882551e-06 0.71087973)
(3.7589769e-06 -5.2943738e-06 0.71088371)
(-6.3777782e-06 -1.5108798e-05 0.71087651)
(-1.061959e-05 -1.061959e-05 0.71087253)
(-1.7780854e-06 -1.0103145e-05 0.71087244)
(-8.525183e-07 -9.8744361e-06 0.71087232)
(3.2692216e-07 -9.8103832e-06 0.71087239)
(1.5132639e-06 -9.858169e-06 0.71087266)
(2.8446026e-06 -1.0028333e-05 0.71087317)
(4.7988789e-06 -1.0398194e-05 0.71087397)
(1.0292536e-05 -1.1004111e-05 0.7108754)
(4.852858e-06 -9.876035e-06 0.71088028)
(-6.1807776e-06 -2.1926203e-06 0.71087631)
(-1.0103145e-05 -1.7780854e-06 0.71087244)
(-1.4474665e-06 -1.4474665e-06 0.71087245)
(-7.1205207e-07 -1.2783701e-06 0.71087237)
(3.2964201e-07 -1.2365675e-06 0.71087244)
(1.3938004e-06 -1.2956988e-06 0.71087269)
(2.557566e-06 -1.4595205e-06 0.71087313)
(4.1881258e-06 -1.7721391e-06 0.71087379)
(9.3646849e-06 -2.3499743e-06 0.71087491)
(4.5110293e-06 -3.0099705e-06 0.71087948)
(-6.1014213e-06 -1.0048141e-06 0.71087614)
(-9.8744361e-06 -8.525183e-07 0.71087232)
(-1.2783701e-06 -7.1205207e-07 0.71087237)
(-6.4161932e-07 -6.4161933e-07 0.71087232)
(3.0959347e-07 -6.4147284e-07 0.71087238)
(1.2903109e-06 -7.0340491e-07 0.7108726)
(2.3681624e-06 -8.2546997e-07 0.71087298)
(3.9084252e-06 -1.008587e-06 0.71087356)
(9.0547043e-06 -1.245107e-06 0.71087456)
(4.4128601e-06 -1.4458324e-06 0.71087903)
(-6.079247e-06 3.1337484e-07 0.7108762)
(-9.8103832e-06 3.2692216e-07 0.71087239)
(-1.2365675e-06 3.2964202e-07 0.71087244)
(-6.4147284e-07 3.0959347e-07 0.71087238)
(2.6785643e-07 2.6785643e-07 0.71087243)
(1.2098032e-06 2.0850434e-07 0.71087262)
(2.2523839e-06 1.3400708e-07 0.71087297)
(3.7684887e-06 4.7934024e-08 0.71087349)
(8.9274395e-06 -3.9303591e-08 0.71087444)
(4.3772123e-06 -9.8313125e-08 0.71087888)
(-6.0923897e-06 1.6117507e-06 0.71087649)
(-9.858169e-06 1.5132639e-06 0.71087266)
(-1.2956988e-06 1.3938004e-06 0.71087269)
(-7.0340491e-07 1.2903109e-06 0.7108726)
(2.0850434e-07 1.2098032e-06 0.71087262)
(1.1564615e-06 1.1564615e-06 0.71087279)
(2.207592e-06 1.1321709e-06 0.71087311)
(3.7351145e-06 1.1386862e-06 0.71087362)
(8.9084572e-06 1.1721436e-06 0.71087457)
(4.3735204e-06 1.2113067e-06 0.710879)
(-6.1449049e-06 3.0975909e-06 0.71087706)
(-1.0028333e-05 2.8446026e-06 0.71087317)
(-1.4595205e-06 2.557566e-06 0.71087313)
(-8.2546997e-07 2.3681624e-06 0.71087298)
(1.3400709e-07 2.2523839e-06 0.71087297)
(1.1321709e-06 2.2075921e-06 0.71087311)
(2.2346086e-06 2.2346086e-06 0.71087344)
(3.8084614e-06 2.339434e-06 0.71087397)
(9.00006e-06 2.516655e-06 0.71087495)
(4.4033211e-06 2.7015748e-06 0.71087941)
(-6.2610488e-06 5.1639039e-06 0.71087803)
(-1.0398194e-05 4.7988789e-06 0.71087397)
(-1.7721391e-06 4.1881258e-06 0.71087379)
(-1.008587e-06 3.9084252e-06 0.71087356)
(4.7934028e-08 3.7684887e-06 0.71087349)
(1.1386862e-06 3.7351145e-06 0.71087362)
(2.339434e-06 3.8084614e-06 0.71087397)
(4.017161e-06 4.017161e-06 0.71087456)
(9.2705979e-06 4.4085489e-06 0.71087564)
(4.4968003e-06 4.9604639e-06 0.71088022)
(-6.3882551e-06 8.8425256e-06 0.71087973)
(-1.1004111e-05 1.0292536e-05 0.7108754)
(-2.3499743e-06 9.3646849e-06 0.71087491)
(-1.245107e-06 9.0547043e-06 0.71087456)
(-3.9303592e-08 8.9274395e-06 0.71087444)
(1.1721436e-06 8.9084572e-06 0.71087457)
(2.516655e-06 9.00006e-06 0.71087495)
(4.4085489e-06 9.2705979e-06 0.71087564)
(9.9433628e-06 9.9433628e-06 0.71087694)
(4.7712648e-06 1.1779475e-05 0.7108819)
(-5.2943738e-06 3.7589769e-06 0.71088371)
(-9.876035e-06 4.852858e-06 0.71088028)
(-3.0099705e-06 4.5110293e-06 0.71087948)
(-1.4458324e-06 4.4128601e-06 0.71087903)
(-9.8313122e-08 4.3772123e-06 0.71087888)
(1.2113067e-06 4.3735204e-06 0.710879)
(2.7015748e-06 4.4033211e-06 0.71087941)
(4.9604639e-06 4.4968003e-06 0.71088022)
(1.1779475e-05 4.7712648e-06 0.7108819)
(5.7208765e-06 5.7208765e-06 0.71088848)
(-1.0984978e-05 -1.0984978e-05 0.70866331)
(-1.779375e-05 -7.5673935e-06 0.70865824)
(-2.1705796e-06 -7.3392319e-06 0.70865852)
(-9.5720389e-07 -7.2465415e-06 0.70865862)
(5.1394944e-07 -7.2225954e-06 0.70865879)
(2.0043159e-06 -7.2437899e-06 0.70865906)
(3.7580161e-06 -7.3195116e-06 0.70865948)
(6.321028e-06 -7.4916992e-06 0.70866015)
(1.1459623e-05 -7.7206804e-06 0.70866144)
(5.0061213e-06 -6.3398964e-06 0.70866494)
(-7.5673935e-06 -1.779375e-05 0.70865824)
(-1.2325145e-05 -1.2325145e-05 0.708655)
(-1.6893023e-06 -1.1724272e-05 0.70865536)
(-7.8224929e-07 -1.1457928e-05 0.7086555)
(5.180769e-07 -1.1391088e-05 0.70865566)
(1.8589417e-06 -1.1467066e-05 0.70865591)
(3.3861526e-06 -1.1709348e-05 0.70865625)
(5.7192755e-06 -1.2238415e-05 0.70865675)
(1.3187323e-05 -1.315272e-05 0.70865771)
(6.3869051e-06 -1.1754971e-05 0.70866202)
(-7.3392319e-06 -2.1705796e-06 0.70865852)
(-1.1724272e-05 -1.6893023e-06 0.70865536)
(-1.303362e-06 -1.303362e-06 0.70865578)
(-6.240195e-07 -1.1098738e-06 0.70865594)
(5.0481117e-07 -1.0727494e-06 0.70865611)
(1.686056e-06 -1.164423e-06 0.70865631)
(2.9866669e-06 -1.3951787e-06 0.70865658)
(4.8776556e-06 -1.8279695e-06 0.70865693)
(1.1943067e-05 -2.6233198e-06 0.70865757)
(5.9379561e-06 -3.4953833e-06 0.70866154)
(-7.2465415e-06 -9.5720389e-07 0.70865862)
(-1.1457928e-05 -7.8224929e-07 0.7086555)
(-1.1098738e-06 -6.2401951e-07 0.70865594)
(-5.5163676e-07 -5.5163676e-07 0.70865612)
(4.6352767e-07 -5.6620578e-07 0.70865627)
(1.5365124e-06 -6.5953037e-07 0.70865644)
(2.7226061e-06 -8.3155281e-07 0.70865664)
(4.4911345e-06 -1.0850514e-06 0.70865689)
(1.151991e-05 -1.4108634e-06 0.70865741)
(5.8055288e-06 -1.6820328e-06 0.70866127)
(-7.2225954e-06 5.1394943e-07 0.70865879)
(-1.1391088e-05 5.180769e-07 0.70865566)
(-1.0727494e-06 5.0481117e-07 0.70865611)
(-5.6620578e-07 4.6352767e-07 0.70865627)
(3.9691756e-07 3.9691757e-07 0.70865639)
(1.420709e-06 3.0975176e-07 0.70865653)
(2.5611459e-06 2.0437289e-07 0.70865669)
(4.298345e-06 8.503064e-08 0.70865689)
(1.1346086e-05 -3.4559912e-08 0.70865734)
(5.7571763e-06 -1.1417802e-07 0.70866117)
(-7.2437899e-06 2.0043159e-06 0.70865906)
(-1.1467066e-05 1.8589417e-06 0.70865591)
(-1.164423e-06 1.686056e-06 0.70865631)
(-6.5953036e-07 1.5365124e-06 0.70865644)
(3.0975176e-07 1.420709e-06 0.70865653)
(1.3439677e-06 1.3439677e-06 0.70865664)
(2.497885e-06 1.3085793e-06 0.70865678)
(4.2522017e-06 1.3170199e-06 0.70865696)
(1.1320701e-05 1.3640999e-06 0.7086574)
(5.75245e-06 1.4198399e-06 0.70866123)
(-7.3195116e-06 3.7580161e-06 0.70865948)
(-1.1709348e-05 3.3861526e-06 0.70865625)
(-1.3951787e-06 2.9866669e-06 0.70865658)
(-8.3155281e-07 2.7226061e-06 0.70865664)
(2.0437289e-07 2.5611459e-06 0.70865669)
(1.3085793e-06 2.497885e-06 0.70865678)
(2.5341981e-06 2.5341981e-06 0.70865692)
(4.3538656e-06 2.6795173e-06 0.70865712)
(1.1448906e-05 2.9282286e-06 0.70865759)
(5.7943364e-06 3.1906759e-06 0.70866146)
(-7.4916992e-06 6.321028e-06 0.70866015)
(-1.2238415e-05 5.7192755e-06 0.70865675)
(-1.8279695e-06 4.8776556e-06 0.70865693)
(-1.0850514e-06 4.4911345e-06 0.70865689)
(8.5030645e-08 4.298345e-06 0.70865689)
(1.3170199e-06 4.2522017e-06 0.70865696)
(2.6795173e-06 4.3538656e-06 0.70865712)
(4.6462323e-06 4.6462323e-06 0.70865738)
(1.183186e-05 5.2033742e-06 0.70865796)
(5.9274151e-06 6.0099877e-06 0.70866194)
(-7.7206804e-06 1.1459623e-05 0.70866144)
(-1.315272e-05 1.3187323e-05 0.70865771)
(-2.6233198e-06 1.1943067e-05 0.70865757)
(-1.4108634e-06 1.151991e-05 0.70865741)
(-3.4559913e-08 1.1346086e-05 0.70865734)
(1.3640999e-06 1.1320701e-05 0.7086574)
(2.9282286e-06 1.1448906e-05 0.70865759)
(5.2033742e-06 1.183186e-05 0.70865796)
(1.2812661e-05 1.2812661e-05 0.70865877)
(6.3320793e-06 1.5694464e-05 0.70866314)
(-6.3398964e-06 5.0061213e-06 0.70866494)
(-1.1754971e-05 6.3869051e-06 0.70866202)
(-3.4953833e-06 5.9379561e-06 0.70866154)
(-1.6820328e-06 5.8055288e-06 0.70866127)
(-1.1417802e-07 5.7571763e-06 0.70866117)
(1.4198399e-06 5.75245e-06 0.70866123)
(3.1906759e-06 5.7943364e-06 0.70866146)
(6.0099877e-06 5.9274151e-06 0.70866194)
(1.5694464e-05 6.3320793e-06 0.70866314)
(7.8486207e-06 7.8486207e-06 0.70866924)
(-1.2537366e-05 -1.2537366e-05 0.7059855)
(-1.9869868e-05 -8.5253106e-06 0.7059812)
(-1.8013517e-06 -8.2767671e-06 0.70598188)
(-7.319603e-07 -8.1751926e-06 0.70598222)
(7.4801506e-07 -8.1517704e-06 0.70598247)
(2.2967887e-06 -8.1827292e-06 0.7059827)
(4.1862419e-06 -8.2839498e-06 0.70598295)
(7.1131483e-06 -8.5173025e-06 0.70598332)
(1.3610704e-05 -8.862815e-06 0.70598417)
(6.086327e-06 -7.235116e-06 0.70598716)
(-8.5253106e-06 -1.9869868e-05 0.7059812)
(-1.3478988e-05 -1.3478988e-05 0.70597863)
(-1.2761753e-06 -1.2821613e-05 0.70597936)
(-5.4446539e-07 -1.2531522e-05 0.70597972)
(7.3671019e-07 -1.2469932e-05 0.70597997)
(2.0985199e-06 -1.2580196e-05 0.70598017)
(3.6843826e-06 -1.2901742e-05 0.70598033)
(6.2448515e-06 -1.360295e-05 0.70598052)
(1.553398e-05 -1.4856939e-05 0.705981)
(7.7140259e-06 -1.3260638e-05 0.70598468)
(-8.2767671e-06 -1.8013517e-06 0.70598188)
(-1.2821613e-05 -1.2761753e-06 0.70597936)
(-8.5388512e-07 -8.5388513e-07 0.70598014)
(-3.8027875e-07 -6.4895607e-07 0.70598051)
(6.9934089e-07 -6.2540486e-07 0.70598075)
(1.8649788e-06 -7.566338e-07 0.7059809)
(3.1634878e-06 -1.0613664e-06 0.70598098)
(5.1579502e-06 -1.6232379e-06 0.705981)
(1.3953017e-05 -2.6495788e-06 0.70598115)
(7.150531e-06 -3.7483556e-06 0.70598447)
(-8.1751926e-06 -7.3196029e-07 0.70598222)
(-1.2531522e-05 -5.4446538e-07 0.70597972)
(-6.4895607e-07 -3.8027875e-07 0.70598051)
(-3.1598513e-07 -3.1598512e-07 0.70598088)
(6.2903248e-07 -3.5316181e-07 0.7059811)
(1.6625584e-06 -4.8436559e-07 0.70598121)
(2.8177786e-06 -7.1236451e-07 0.70598122)
(4.6566392e-06 -1.0424441e-06 0.70598114)
(1.3408862e-05 -1.4642178e-06 0.70598115)
(6.9815072e-06 -1.8108365e-06 0.70598436)
(-8.1517704e-06 7.4801506e-07 0.70598247)
(-1.2469932e-05 7.3671019e-07 0.70597997)
(-6.2540486e-07 6.9934089e-07 0.70598075)
(-3.5316181e-07 6.2903248e-07 0.7059811)
(5.3096043e-07 5.3096043e-07 0.70598128)
(1.5057761e-06 4.1051648e-07 0.70598135)
(2.6054092e-06 2.695319e-07 0.70598132)
(4.406097e-06 1.1268381e-07 0.70598118)
(1.3184625e-05 -4.2940503e-08 0.70598113)
(6.9194516e-06 -1.4541209e-07 0.70598429)
(-8.1827292e-06 2.2967887e-06 0.7059827)
(-1.2580196e-05 2.0985199e-06 0.70598017)
(-7.5663379e-07 1.8649788e-06 0.7059809)
(-4.8436558e-07 1.6625584e-06 0.70598121)
(4.1051648e-07 1.5057761e-06 0.70598135)
(1.4011298e-06 1.4011298e-06 0.70598139)
(2.5199459e-06 1.3511015e-06 0.70598133)
(4.3441669e-06 1.3587202e-06 0.70598117)
(1.3150767e-05 1.4174162e-06 0.70598111)
(6.9131928e-06 1.488606e-06 0.70598426)
(-8.2839498e-06 4.1862419e-06 0.70598295)
(-1.2901742e-05 3.6843826e-06 0.70598033)
(-1.0613664e-06 3.1634878e-06 0.70598098)
(-7.123645e-07 2.8177786e-06 0.70598122)
(2.6953191e-07 2.6054092e-06 0.70598132)
(1.3511015e-06 2.5199459e-06 0.70598133)
(2.5629996e-06 2.5629996e-06 0.70598126)
(4.4724117e-06 2.747191e-06 0.70598112)
(1.331451e-05 3.0664098e-06 0.70598109)
(6.9669115e-06 3.4056044e-06 0.70598428)
(-8.5173025e-06 7.1131483e-06 0.70598332)
(-1.360295e-05 6.2448515e-06 0.70598052)
(-1.6232379e-06 5.1579502e-06 0.705981)
(-1.0424441e-06 4.6566392e-06 0.70598114)
(1.1268381e-07 4.406097e-06 0.70598118)
(1.3587202e-06 4.3441668e-06 0.70598117)
(2.747191e-06 4.4724117e-06 0.70598112)
(4.847577e-06 4.847577e-06 0.70598103)
(1.380918e-05 5.5698524e-06 0.7059811)
(7.1393227e-06 6.6301837e-06 0.70598441)
(-8.862815e-06 1.3610704e-05 0.70598417)
(-1.4856939e-05 1.553398e-05 0.705981)
(-2.6495788e-06 1.3953017e-05 0.70598115)
(-1.4642178e-06 1.3408862e-05 0.70598115)
(-4.2940505e-08 1.3184625e-05 0.70598113)
(1.4174162e-06 1.3150767e-05 0.70598111)
(3.0664098e-06 1.331451e-05 0.70598109)
(5.5698524e-06 1.380918e-05 0.7059811)
(1.5097116e-05 1.5097116e-05 0.7059814)
(7.6737999e-06 1.9049867e-05 0.70598509)
(-7.235116e-06 6.086327e-06 0.70598716)
(-1.3260638e-05 7.7140259e-06 0.70598468)
(-3.7483556e-06 7.150531e-06 0.70598447)
(-1.8108365e-06 6.9815072e-06 0.70598436)
(-1.454121e-07 6.9194516e-06 0.70598429)
(1.488606e-06 6.9131928e-06 0.70598426)
(3.4056044e-06 6.9669115e-06 0.70598428)
(6.6301837e-06 7.1393227e-06 0.70598441)
(1.9049867e-05 7.6737999e-06 0.70598509)
(9.774495e-06 9.774495e-06 0.70599054)
(-1.3845505e-05 -1.3845505e-05 0.7028954)
(-2.1395829e-05 -9.2703584e-06 0.70289181)
(-1.1417338e-06 -9.0102909e-06 0.70289283)
(-3.6142236e-07 -8.9034931e-06 0.70289336)
(9.952451e-07 -8.8825311e-06 0.70289368)
(2.474771e-06 -8.9246845e-06 0.70289385)
(4.3720037e-06 -9.053205e-06 0.70289392)
(7.5346876e-06 -9.3516684e-06 0.70289399)
(1.5284637e-05 -9.8257843e-06 0.70289441)
(6.9931547e-06 -7.9924525e-06 0.70289689)
(-9.2703584e-06 -2.1395829e-05 0.70289181)
(-1.4143029e-05 -1.4143029e-05 0.70288986)
(-5.9143661e-07 -1.345208e-05 0.7028909)
(-1.6978286e-07 -1.3149796e-05 0.70289145)
(9.6345807e-07 -1.3100336e-05 0.70289176)
(2.2187605e-06 -1.3250089e-05 0.70289189)
(3.7315287e-06 -1.3656665e-05 0.70289187)
(6.3758203e-06 -1.4539963e-05 0.70289175)
(1.7323455e-05 -1.6158326e-05 0.70289177)
(8.8264863e-06 -1.4434751e-05 0.7028948)
(-9.0102909e-06 -1.1417338e-06 0.70289283)
(-1.345208e-05 -5.9143662e-07 0.7028909)
(-1.4849967e-07 -1.4849968e-07 0.70289197)
(-9.6776604e-09 5.6832609e-08 0.70289252)
(8.9495171e-07 5.8988118e-08 0.70289281)
(1.9184414e-06 -1.1801406e-07 0.70289289)
(3.0821287e-06 -5.0275737e-07 0.70289279)
(5.0330262e-06 -1.2008824e-06 0.70289249)
(1.5389849e-05 -2.4683605e-06 0.70289216)
(8.1422075e-06 -3.8063967e-06 0.70289483)
(-8.9034931e-06 -3.6142236e-07 0.70289336)
(-1.3149796e-05 -1.6978285e-07 0.70289145)
(5.6832611e-08 -9.6776556e-09 0.70289252)
(3.7704934e-08 3.7704936e-08 0.70289305)
(7.8861142e-07 -2.9249774e-08 0.70289331)
(1.657015e-06 -2.0435216e-07 0.70289335)
(2.6486605e-06 -4.9389832e-07 0.70289317)
(4.4102174e-06 -9.0617294e-07 0.70289276)
(1.4717942e-05 -1.4297511e-06 0.7028923)
(7.9344611e-06 -1.856532e-06 0.70289484)
(-8.8825311e-06 9.952451e-07 0.70289368)
(-1.3100336e-05 9.6345808e-07 0.70289176)
(5.8988119e-08 8.9495173e-07 0.70289281)
(-2.9249779e-08 7.8861143e-07 0.70289331)
(6.5289463e-07 6.5289463e-07 0.70289354)
(1.4537928e-06 4.9380555e-07 0.70289353)
(2.380308e-06 3.1236712e-07 0.70289329)
(4.0971734e-06 1.1349526e-07 0.70289282)
(1.443949e-05 -8.2193216e-08 0.7028923)
(7.8576866e-06 -2.1013911e-07 0.70289479)
(-8.9246845e-06 2.474771e-06 0.70289385)
(-1.3250089e-05 2.2187604e-06 0.70289189)
(-1.1801406e-07 1.9184414e-06 0.70289289)
(-2.0435216e-07 1.657015e-06 0.70289335)
(4.9380555e-07 1.4537928e-06 0.70289353)
(1.3164875e-06 1.3164875e-06 0.70289348)
(2.2683502e-06 1.2475434e-06 0.70289322)
(4.0156571e-06 1.2503614e-06 0.70289272)
(1.4394308e-05 1.3171031e-06 0.70289218)
(7.8491638e-06 1.4013196e-06 0.70289467)
(-9.053205e-06 4.3720037e-06 0.70289392)
(-1.3656665e-05 3.7315287e-06 0.70289187)
(-5.0275737e-07 3.0821287e-06 0.70289279)
(-4.9389832e-07 2.6486605e-06 0.70289317)
(3.1236712e-07 2.380308e-06 0.70289329)
(1.2475434e-06 2.2683502e-06 0.70289322)
(2.3141819e-06 2.3141819e-06 0.70289294)
(4.1667331e-06 2.5331549e-06 0.70289246)
(1.4590449e-05 2.9184475e-06 0.70289194)
(7.9138311e-06 3.3304375e-06 0.70289446)
(-9.3516684e-06 7.5346876e-06 0.70289399)
(-1.4539963e-05 6.3758203e-06 0.70289175)
(-1.2008824e-06 5.0330261e-06 0.70289249)
(-9.0617295e-07 4.4102174e-06 0.70289276)
(1.1349526e-07 4.0971734e-06 0.70289282)
(1.2503614e-06 4.0156571e-06 0.70289272)
(2.5331549e-06 4.1667331e-06 0.70289246)
(4.6199227e-06 4.6199227e-06 0.70289203)
(1.519159e-05 5.5003105e-06 0.70289161)
(8.123824e-06 6.8056707e-06 0.70289424)
(-9.8257843e-06 1.5284637e-05 0.70289441)
(-1.6158326e-05 1.7323455e-05 0.70289177)
(-2.4683605e-06 1.5389849e-05 0.70289216)
(-1.4297511e-06 1.4717942e-05 0.7028923)
(-8.2193217e-08 1.443949e-05 0.7028923)
(1.3171031e-06 1.4394308e-05 0.70289218)
(2.9184475e-06 1.4590448e-05 0.70289194)
(5.5003105e-06 1.519159e-05 0.70289161)
(1.6776196e-05 1.6776196e-05 0.70289139)
(8.7840723e-06 2.1794879e-05 0.70289439)
(-7.9924525e-06 6.9931547e-06 0.70289689)
(-1.4434751e-05 8.8264863e-06 0.7028948)
(-3.8063967e-06 8.1422075e-06 0.70289483)
(-1.856532e-06 7.9344611e-06 0.70289484)
(-2.1013911e-07 7.8576866e-06 0.70289479)
(1.4013196e-06 7.8491638e-06 0.70289467)
(3.3304375e-06 7.9138311e-06 0.70289446)
(6.8056708e-06 8.123824e-06 0.70289424)
(2.1794879e-05 8.7840724e-06 0.70289439)
(1.146962e-05 1.146962e-05 0.70289914)
(-1.4920716e-05 -1.4920716e-05 0.6994377)
(-2.24223e-05 -9.8188739e-06 0.6994348)