/*--------------------------------*- C++ -*----------------------------------*\
| =========                 |                                                 |
| \\      /  F ield         | OpenFOAM: The Open Source CFD Toolbox           |
|  \\    /   O peration     | Version:  v2106                                 |
|   \\  /    A nd           | Website:  www.openfoam.com                      |
|    \\/     M anipulation  |                                                 |
\*---------------------------------------------------------------------------*/
FoamFile
{
    version     2.0;
    format      ascii;
    arch        "LSB;label=32;scalar=64";
    class       volScalarField;
    location    "50";
    object      gradTy;
}
// * * * * * * * * * * * * * * * * * * * * * * * * * * * * * * * * * * * * * //

dimensions      [0 -1 0 1 0 0 0];

internalField   nonuniform List<scalar> 
4000
(
-0.00099948759
-0.00064392172
-0.00063985399
-0.00063394471
-0.00063201291
-0.00063247281
-0.00063491284
-0.00063869053
-0.0006349895
-0.0005790317
-0.0015561552
-0.0010167048
-0.00099337222
-0.00097564849
-0.00096989993
-0.0009718031
-0.00098064529
-0.00099766773
-0.0010162477
-0.00097596428
-0.00013222301
-0.00011725749
-9.1166698e-05
-7.7364331e-05
-7.3120064e-05
-7.582007e-05
-8.5130099e-05
-0.00010328407
-0.00013650132
-0.00018864213
-9.4852817e-05
-8.3091201e-05
-7.1380521e-05
-6.5044564e-05
-6.3856876e-05
-6.6957682e-05
-7.3961227e-05
-8.472371e-05
-9.8261745e-05
-0.00011002414
1.0805673e-05
1.3013522e-05
1.4651068e-05
1.4557782e-05
1.273795e-05
9.5436633e-06
5.2169071e-06
1.316127e-08
-5.3656578e-06
-9.119963e-06
0.00011053462
0.00010618473
9.9789257e-05
9.4174685e-05
8.9684917e-05
8.6653648e-05
8.5201475e-05
8.5379435e-05
8.6892992e-05
8.8614944e-05
0.00021697986
0.00020765327
0.00019111522
0.00018018927
0.0001733492
0.00017065877
0.00017207499
0.00017766357
0.00018658459
0.00019494763
0.00033729653
0.00033718154
0.00030169409
0.00028581033
0.00027739356
0.00027522775
0.00027908509
0.00028973736
0.00030740895
0.00032656479
0.00042959735
0.00051908559
0.00045130079
0.00043372753
0.00042600036
0.00042459441
0.00042923586
0.00044187847
0.0004660633
0.00050011694
0.0001527369
0.0002086947
0.00017959253
0.00017393416
0.00017175094
0.0001714313
0.0001728989
0.00017700665
0.00018566946
0.00019970908
-0.0078263592
-0.0054032658
-0.0052618243
-0.0052023892
-0.005184244
-0.0051890519
-0.0052135865
-0.0052530981
-0.0052125895
-0.0044219328
-0.012821576
-0.0089747741
-0.0085963015
-0.0084242087
-0.0083703286
-0.0083897535
-0.008477361
-0.0086486069
-0.0088275484
-0.0080000358
-0.0017918824
-0.0014905675
-0.001241317
-0.0011118393
-0.0010722718
-0.0010992196
-0.001190315
-0.0013689151
-0.0017007692
-0.0021480696
-0.00088948441
-0.00077311393
-0.00066351152
-0.00060406874
-0.00059351015
-0.00062409747
-0.00069236884
-0.00079740364
-0.000932794
-0.0010536225
0.00011437588
0.00013438192
0.00014883105
0.00014700157
0.00012880231
9.7512039e-05
5.5420031e-05
5.0381568e-06
-4.704153e-05
-8.3457007e-05
0.0010649814
0.0010209676
0.000957949
0.00090292435
0.00085909033
0.00082954207
0.00081548146
0.00081748492
0.0008327901
0.00085036863
0.0020910944
0.0019950251
0.001832241
0.0017253297
0.0016589348
0.0016328558
0.0016468777
0.001701996
0.0017907044
0.001875392
0.0032898716
0.0032913672
0.0029396841
0.002780913
0.0026992589
0.0026784515
0.0027165676
0.0028222782
0.0030009734
0.0032037576
0.0043809737
0.0056277217
0.0050295448
0.0048485672
0.004773326
0.004760072
0.0048062097
0.004933468
0.0051876892
0.0055917016
0.0016074871
0.0023981438
0.0021591622
0.0020999436
0.0020786099
0.0020756666
0.0020903289
0.0021321249
0.0022255184
0.0024014666
-0.011807866
-0.0082292214
-0.0079774685
-0.0078767733
-0.0078471883
-0.0078589289
-0.0079123799
-0.0080228382
-0.0080928363
-0.0067943474
-0.019586525
-0.013840928
-0.013182852
-0.012892509
-0.012805429
-0.012849348
-0.013026783
-0.013404112
-0.013960933
-0.012615706
-0.0030326924
-0.0025040202
-0.0020842729
-0.0018677016
-0.0018061341
-0.0018628207
-0.0020373094
-0.002375567
-0.0030037287
-0.0037709881
-0.0014247758
-0.0012293556
-0.0010473531
-0.00095121686
-0.00093994929
-0.0010017168
-0.0011321096
-0.0013308063
-0.0015880757
-0.0018122649
0.00027195952
0.0002987261
0.00031512088
0.00030360701
0.00026462091
0.00020344831
0.00012365609
2.9618307e-05
-6.678997e-05
-0.00013324491
0.0019040885
0.0018063011
0.0016827344
0.0015751259
0.0014905741
0.0014341611
0.001408098
0.0014140077
0.0014473822
0.0014862632
0.0037283195
0.0034824554
0.0031735551
0.0029697091
0.0028444656
0.0027958791
0.0028243122
0.0029344294
0.0031173225
0.0033031445
0.006131557
0.0058608724
0.0051974065
0.0048944531
0.0047414404
0.004704007
0.0047807246
0.0049970174
0.0053891272
0.0059074846
0.0097013633
0.0115441
0.010489769
0.010148678
0.010008311
0.0099858151
0.010080566
0.01035453
0.010991034
0.012472312
0.003955204
0.0052536929
0.0048520224
0.0047421866
0.0047025629
0.0046978833
0.0047284836
0.0048217646
0.0050740552
0.0058092836
-0.0147513
-0.010255598
-0.0099388186
-0.0098112129
-0.0097755563
-0.0097966896
-0.009881134
-0.010067894
-0.010272441
-0.0085134529
-0.024295257
-0.017076535
-0.016246082
-0.015878315
-0.015775316
-0.015852156
-0.016125782
-0.016720523
-0.017694846
-0.015880863
-0.0035257789
-0.0028592009
-0.0023275586
-0.0020556479
-0.0019884285
-0.0020835127
-0.0023469415
-0.0028496387
-0.0037788095
-0.0048400943
-0.0016157621
-0.0013708685
-0.0011449958
-0.0010317384
-0.0010315028
-0.001131091
-0.0013273742
-0.0016218302
-0.0020021592
-0.0023249284
0.00050391329
0.00052569816
0.00053007179
0.0004978333
0.00043071921
0.00033527968
0.0002154864
7.7078976e-05
-6.3201033e-05
-0.00015808954
0.0025917286
0.0024333621
0.0022412623
0.002074849
0.0019453909
0.0018596162
0.0018205562
0.0018310327
0.0018848324
0.0019478063
0.0049809901
0.0045741841
0.0041126232
0.0038080582
0.0036218839
0.0035498575
0.0035933004
0.0037618614
0.0040468357
0.0043441877
0.0083036623
0.0077167023
0.0067345986
0.0062848344
0.0060598136
0.006006147
0.0061240898
0.0064596823
0.0070890408
0.0079765263
0.014218956
0.016550617
0.015058616
0.014560162
0.014355518
0.014324993
0.014472291
0.014907319
0.015989135
0.018941627
0.0060445057
0.0078034935
0.0072538276
0.0070959702
0.0070386482
0.0070327112
0.0070806307
0.0072309459
0.0076722877
0.0091992739
-0.017049619
-0.011745257
-0.011391131
-0.011247269
-0.011210102
-0.011242997
-0.011360523
-0.01162777
-0.011983164
-0.0098400609
-0.027617456
-0.019129724
-0.018197118
-0.017783728
-0.017679988
-0.017797911
-0.018173952
-0.018995107
-0.020414183
-0.018244736
-0.0033689299
-0.002621948
-0.0020229343
-0.0017226234
-0.0016650031
-0.0018072886
-0.0021654419
-0.0028371714
-0.0040716246
-0.0054251397
-0.0014856645
-0.0012141208
-0.00096853412
-0.00085618967
-0.00087880209
-0.0010236502
-0.0012906443
-0.0016840964
-0.0021897851
-0.0026106619
0.00079769464
0.00080410169
0.00078351212
0.00071943647
0.00061605163
0.00048076247
0.000317205
0.00013197513
-5.364005e-05
-0.00017721427
0.0031108741
0.0028852436
0.0026169098
0.0023848048
0.0022050676
0.0020859582
0.0020310319
0.0020441323
0.002117204
0.0022037157
0.0058327699
0.0052556107
0.0046355736
0.0042257279
0.0039751274
0.0038769406
0.0039333015
0.0041588492
0.0045448701
0.0049522074
0.0098107863
0.0088768236
0.0075705555
0.0069706409
0.0066714147
0.0065997959
0.0067575867
0.0072113645
0.008076096
0.0093280233
0.017786326
0.02046789
0.018536697
0.017879922
0.017610132
0.017570732
0.017769715
0.01836409
0.019886374
0.024359163
0.007769928
0.0099130315
0.0092162256
0.009010688
0.0089356411
0.0089283052
0.0089933155
0.0091998634
0.0098279337
0.012181723
-0.018828274
-0.0128031
-0.012429845
-0.012277304
-0.012242129
-0.012288621
-0.01244063
-0.012791071
-0.013309947
-0.010865502
-0.029840077
-0.020242434
-0.019255205
-0.018819553
-0.018727059
-0.01889265
-0.019375538
-0.020428591
-0.022311795
-0.019914487
-0.0027052256
-0.0019165309
-0.0012823452
-0.00097458743
-0.00093921875
-0.0011362953
-0.0015939356
-0.0024377408
-0.0039790745
-0.0056291859
-0.00109924
-0.00081766567
-0.00057109396
-0.00047453927
-0.00053037037
-0.00072740918
-0.0010698126
-0.0015655184
-0.0021989277
-0.0027194689
0.0011233507
0.0011063745
0.0010502542
0.00094466666
0.00079738429
0.00061650428
0.00040477682
0.00016922594
-6.4487035e-05
-0.00021837624
0.0034492608
0.003151509
0.0028007825
0.0024967922
0.0022613402
0.0021041847
0.0020290531
0.0020404945
0.0021286422
0.0022355512
0.0062867943
0.0055331206
0.004750853
0.0042316751
0.0039127437
0.0037843968
0.0038490535
0.0041256673
0.0046050614
0.0051144509
0.010682347
0.0093783717
0.0077460894
0.0069932327
0.0066169743
0.0065239689
0.0067165634
0.0072799768
0.0083646705
0.009957041
0.020440205
0.023328558
0.020954309
0.020137113
0.019800359
0.019749511
0.019995415
0.020738295
0.02267248
0.028608594
0.0091402815
0.011584727
0.010738487
0.010484653
0.01039146
0.01038206
0.010462732
0.010721653
0.011524313
0.014679062
-0.020162266
-0.013499816
-0.013121097
-0.012965575
-0.012935049
-0.012996434
-0.013183588
-0.013618217
-0.014308635
-0.011638866
-0.031157345
-0.020595591
-0.019589407
-0.01914921
-0.019077184
-0.019295259
-0.019887327
-0.021173614
-0.023530323
-0.021020369
-0.0016626322
-0.00086127144
-0.00021625061
8.2761706e-05
8.5900635e-05
-0.00017185634
-0.00073213338
-0.0017487679
-0.0035945138
-0.0055430038
-0.00052631575
-0.00024724394
-1.4092953e-05
5.4907295e-05
-4.2594581e-05
-0.000297585
-0.00071923254
-0.0013196015
-0.0020820544
-0.0027035451
0.0014493104
0.0014030226
0.0013032611
0.0011484046
0.00095076882
0.00071909751
0.00045488027
0.00016527587
-0.00011969268
-0.00030601173
0.0036038469
0.0032310392
0.0027937036
0.0024130052
0.0021170657
0.0019171166
0.0018167176
0.001820821
0.0019180123
0.0020406494
0.0063666617
0.0054339864
0.0044883068
0.0038570748
0.0034662903
0.0033032532
0.0033699947
0.0036888707
0.0042499465
0.004849896
0.010972268
0.0092846971
0.0073292727
0.0064223167
0.0059664509
0.0058477437
0.0060677455
0.0067276956
0.0080097455
0.0099106468
0.022257998
0.025227025
0.022411243
0.02143279
0.021027299
0.020961502
0.021247127
0.022122527
0.024430079
0.031738424
0.010183656
0.012853426
0.011856958
0.011554432
0.011442631
0.01143022
0.011524389
0.011830186
0.012791657
0.016702416
-0.021109555
-0.013891587
-0.013518366
-0.013364363
-0.013340508
-0.01341759
-0.013639846
-0.01415803
-0.015023646
-0.012195514
-0.031722715
-0.020335932
-0.019339259
-0.018908455
-0.018863916
-0.019137609
-0.019839068
-0.021355773
-0.024185474
-0.021660447
-0.00034868038
0.00044215609
0.0010787967
0.0013564079
0.0013196939
0.00099716473
0.00033298074
-0.00085456755
-0.002997697
-0.0052411984
0.00017075331
0.00043754078
0.00064609682
0.00067843802
0.00053275463
0.00021550965
-0.00028791458
-0.00099393844
-0.0018850327
-0.0026073756
0.001749342
0.0016695013
0.0015201876
0.0013102581
0.0010572592
0.00077057271
0.00045019651
0.00010326785
-0.00023573699
-0.00045639246
0.0035801479
0.0031311399
0.0026049956
0.0021444267
0.0017843264
0.001537364
0.001406651
0.0013973295
0.0014968851
0.0016300381
0.0061090944
0.004998434
0.0038909301
0.0031467017
0.002681482
0.0024793968
0.0025414475
0.0028925113
0.0035218407
0.0041994177
0.01074979
0.0086740892
0.0064033833
0.0053434115
0.0048062652
0.004657478
0.0048964993
0.0056378712
0.0070917354
0.0092663178
0.023333322
0.026277096
0.023028649
0.021890465
0.021415212
0.021330805
0.02164792
0.022637711
0.025276367
0.033852211
0.010933847
0.013761979
0.012617199
0.012266311
0.012135637
0.012119208
0.012224405
0.012570926
0.013674127
0.018288155
-0.021719423
-0.014026054
-0.01366728
-0.013518428
-0.013502763
-0.013595917
-0.013852585
-0.01445221
-0.01549274
-0.012564451
-0.031665092
-0.019586877
-0.018622919
-0.018212657
-0.018200834
-0.018531747
-0.019340789
-0.021081234
-0.024374445
-0.02191472
0.0011471279
0.0019085678
0.0025213487
0.0027676444
0.0026854845
0.0022958284
0.0015283921
0.00017455155
-0.0022545194
-0.0047843475
0.0009400541
0.0011868292
0.0013621387
0.0013509651
0.0011524169
0.00077016205
0.00018393901
-0.0006270401
-0.0016443807
-0.0024657655
0.0020044503
0.001888216
0.0016853602
0.0014163999
0.0011045572
0.00075984937
0.00038066304
-2.5935586e-05
-0.00042089587
-0.00067720503
0.0033903993
0.0028656669
0.0022504449
0.0017085745
0.001281967
0.0009846803
0.00081917409
0.00079066023
0.00088607084
0.0010246101
0.0055576236
0.0042731843
0.0030081367
0.0021519074
0.0016109345
0.0013661225
0.0014169145
0.0017899508
0.0024737994
0.0032158529
0.010089666
0.0076294331
0.0050560103
0.0038465216
0.0032276906
0.0030449627
0.0032945873
0.0041018476
0.0057013826
0.0081141985
0.023762622
0.02659426
0.022929136
0.021635361
0.02109041
0.020984092
0.02132436
0.022409994
0.025336711
0.035068584
0.011425108
0.014353397
0.013064924
0.012666845
0.012517334
0.012495972
0.012609694
0.012990674
0.014218238
0.01947859
-0.022035201
-0.013944603
-0.013607535
-0.013466765
-0.013460395
-0.013569614
-0.013859426
-0.01453709
-0.01574883
-0.012770615
-0.031095336
-0.018453838
-0.017541446
-0.01716062
-0.017185235
-0.017573596
-0.018486584
-0.020440667
-0.024180114
-0.021850534
0.0027504769
0.0034672347
0.0040436954
0.0042510216
0.0041195952
0.0036620718
0.0027938706
0.0012808829
-0.00141874
-0.0042214503
0.0017397797
0.0019604907
0.0020959911
0.0020363905
0.0017819793
0.001333488
0.00066500101
-0.00024849016
-0.0013876966
-0.0023046272
0.0022024613
0.0020481874
0.0017894853
0.0014592376
0.0010865828
0.00068216641
0.00024272757
-0.00022471939
-0.00067645908
-0.00096899077
0.0030514997
0.0024529519
0.0017501507
0.0011272273
0.00063317242
0.00028337206
7.9500145e-05
2.6790857e-05
0.00011218845
0.00025140341
0.0047583802
0.0033071666
0.0018913091
0.00092597767
0.00030933093
1.9091861e-05
5.2749728e-05
0.00043808085
0.001163199
0.0019569863
0.0090663514
0.0062322467
0.0033728216
0.002019636
0.001320124
0.0011004494
0.0013528124
0.0022108986
0.0039305402
0.0065466706
0.023639026
0.026288738
0.022229159
0.020786405
0.020173022
0.020042134
0.020397635
0.021561039
0.024733407
0.035506191
0.011690166
0.014668381
0.013243219
0.012799907
0.012631932
0.012604886
0.012724742
0.013134078
0.014468829
0.020315934
-0.02209546
-0.013683526
-0.013373932
-0.013243571
-0.013247241
-0.013372188
-0.013693381
-0.014444582
-0.015820912
-0.01283583
-0.030109677
-0.017027384
-0.01618161
-0.015837179
-0.015900643
-0.016345469
-0.017357162
-0.019511852
-0.023673655
-0.021525297
0.0043998166
0.0050597489
0.005590022
0.0057526719
0.0055697253
0.0050450613
0.0040802501
0.0024174951
-0.00053391728
-0.0035920205
0.0025369177
0.0027269538
0.002817885
0.0027066572
0.0023949231
0.0018804169
0.0011317
0.00011979978
-0.0011350616
-0.0021425221
0.0023368202
0.002143896
0.0018285295
0.0014362854
0.0010022892
0.00053779896
3.7931309e-05
-0.00049029586
-0.00099848025
-0.0013270242
0.0025831805
0.0019139697
0.0011266618
0.00042449448
-0.00013656135
-0.00053986343
-0.0007845999
-0.00086551682
-0.00079512555
-0.00065936749
0.0037574331
0.0021488417
0.00059105052
-0.00047872453
-0.0011695666
-0.0015068194
-0.0014952199
-0.0011063705
-0.00035234171
0.00048115349
0.0077509231
0.0045596271
0.0014344297
-5.4540303e-05
-0.00083233181
-0.0010909518
-0.00084285747
5.1926373e-05
0.0018672778
0.0046529113
0.023049734
0.025462861
0.021036289
0.019453346
0.018773967
0.018616618
0.018980116
0.020204142
0.023581101
0.035277878
0.011759513
0.014744595
0.013191752
0.012705859
0.012520111
0.01248683
0.012610617
0.013042493
0.014467706
0.020840344
-0.021934734
-0.013274783
-0.012997088
-0.012878936
-0.012893075
-0.013033124
-0.013383514
-0.014202837
-0.015734682
-0.012779354
-0.028791975
-0.015385505
-0.014618007
-0.014315225
-0.0144188
-0.014918049
-0.01602183
-0.01836165
-0.02291643
-0.020988242
0.0060443488
0.0066381201
0.0071146287
0.0072286116
0.0069932821
0.0064035128
0.0053477161
0.0035464845
0.00036483822
-0.0029278244
0.0033057876
0.0034618065
0.0035049942
0.0033404599
0.002971334
0.0023923651
0.0015668332
0.00046213042
-0.00090056421
-0.0019922285
0.0024052908
0.0021740076
0.0018024674
0.0013489088
0.00085437263
0.00033070442
-0.00022853403
-0.00081625236
-0.001379425
-0.0017430281
0.0020065651
0.0012709061
0.00040353548
-0.0003746599
-0.0010009653
-0.0014575665
-0.0017445465
-0.0018566107
-0.0018052574
-0.0016764532
0.002599175
0.00084460553
-0.00084442694
-0.0020124228
-0.0027746617
-0.0031593796
-0.0031737058
-0.0027890454
-0.0020173833
-0.0011553449
0.0062095862
0.0026828345
-0.00068501342
-0.0023000434
-0.0031524109
-0.0034509344
-0.0032131218
-0.0022946119
-0.00040648992
0.0025162608
0.022075054
0.024210279
0.019448462
0.01773597
0.016994103
0.016809194
0.017174261
0.018442895
0.021985134
0.034488511
0.011661202
0.01461653
0.01294666
0.012421422
0.012218884
0.01217902
0.012304754
0.012753712
0.014253254
0.021089298
-0.02158404
-0.012746575
-0.012503998
-0.012399377
-0.012424142
-0.012578422
-0.012955475
-0.013836757
-0.015512995
-0.012618263
-0.027215455
-0.013595392
-0.012914778
-0.012657384
-0.012801319
-0.01335203
-0.014540133
-0.017047612
-0.021961476
-0.020281752
0.007642349
0.0081631459
0.0085803566
0.0086432051
0.0083558607
0.0077041709
0.0065642768
0.0046374474
0.0012493718
-0.0022543108
0.0040267051
0.0041464895
0.0041401638
0.0039219936
0.0034966499
0.0028559653
0.0019582648
0.00076768089
-0.00069365416
-0.0018620999
0.0024088118
0.0021402441
0.0017141663
0.0012012099
0.00064813798
6.7348756e-05
-0.00054905346
-0.0011938385
-0.0018095111
-0.002206546
0.001343112
0.00054611314
-0.000395702
-0.0012454708
-0.0019340871
-0.0024426622
-0.002772174
-0.0029172587
-0.0028880105
-0.0027690181
0.0013253877
-0.00056211413
-0.0023701942
-0.0036288376
-0.0044584786
-0.0048900249
-0.0049330751
-0.00455919
-0.003780019
-0.0028996819
0.0045030391
0.00066675781
-0.0029183038
-0.0046481472
-0.0055702228
-0.0059086049
-0.0056860593
-0.0047555488
-0.0028160024
0.00021308849
0.02078822
0.022615961
0.01755408
0.015724203
0.014924299
0.014711495
0.01507254
0.016371004
0.020041177
0.033234341
0.011420872
0.014315604
0.012540688
0.011979816
0.011761724
0.011715126
0.011841052
0.012302017
0.013860446
0.02109746
-0.021071302
-0.012123816
-0.011918491
-0.011828301
-0.011863604
-0.012031036
-0.012431932
-0.013368412
-0.015176242
-0.012367761
-0.025444111
-0.011714894
-0.011127035
-0.010917417
-0.011101073
-0.011699505
-0.01296322
-0.015619295
-0.020854727
-0.019442414
0.0091597692
0.009603041
0.009957246
0.0099678439
0.0096299341
0.0089205016
0.0077044594
0.0056661953
0.0020972509
-0.0015917757
0.0046848492
0.0047671796
0.0047108119
0.0044398677
0.0039605768
0.0032619736
0.0022978208
0.0010293959
-0.00052025191
-0.0017571636
0.0023505708
0.0020464688
0.001568483
0.00099912647
0.00039058895
-0.00024422402
-0.00091454813
-0.0016129561
-0.0022777235
-0.0027059691
0.00061387828
-0.00023861357
-0.001248269
-0.0021640883
-0.0029110251
-0.0034692254
-0.0038405399
-0.0040195077
-0.0040145097
-0.003907574
-2.5259919e-05
-0.0020313247
-0.0039450496
-0.0052856309
-0.0061776273
-0.006654363
-0.0067279096
-0.0063702776
-0.005592564
-0.00470324
0.0026863103
-0.0014301546
-0.0052051972
-0.0070373631
-0.0080232699
-0.0084005385
-0.0081972397
-0.0072651929
-0.0052939242
-0.0021875558
0.019255573
0.02075655
0.015432453
0.013498579
0.012645893
0.012405566
0.012757827
0.014072603
0.017835464
0.031603024
0.011061849
0.01387033
0.012003391
0.011410978
0.011178783
0.011125481
0.011250073
0.011718364
0.013320985
0.020896738
-0.020421701
-0.01142852
-0.01126161
-0.011186374
-0.011231917
-0.011411247
-0.011832944
-0.012817396
-0.014742655
-0.012041423
-0.023533874
-0.009793737
-0.0093020555
-0.0091414003
-0.0093633634
-0.010005122
-0.011334984
-0.014119368
-0.019636007
-0.018501876
0.010569077
0.010932296
0.011221414
0.011179838
0.010793753
0.010031599
0.0087482282
0.0066136976
0.0028907594
-0.00095630265
0.0052693334
0.005313872
0.0052080255
0.0048862111
0.0043561975
0.0036043784
0.0025803977
0.0012430976
-0.0003836233
-0.0016799781
0.0022352886
0.0018979794
0.0013715673
0.00074974069
8.9734567e-05
-0.00059509394
-0.0013151899
-0.0020628859
-0.0027725485
-0.0032292742
-0.00016097512
-0.0010625155
-0.0021325955
-0.0031080399
-0.0039083953
-0.0045129643
-0.0049244309
-0.0051372152
-0.0051577566
-0.0050645493
-0.0014174421
-0.0035266649
-0.0055316886
-0.0069445664
-0.0078929694
-0.0084123584
-0.0085172202
-0.0081802601
-0.0074118424
-0.0065219245
0.00080884545
-0.0035557213
-0.0074921781
-0.0094131902
-0.010456199
-0.010870549
-0.010689525
-0.009765171
-0.0077802359
-0.0046238817
0.017536896
0.018700855
0.013154388
0.011130855
0.010231313
0.0099644663
0.010303979
0.011622802
0.015445268
0.029673967
0.010605292
0.013306524
0.01136138
0.010741816
0.010497143
0.010437332
0.010559282
0.011030611
0.012663518
0.020516411
-0.019657973
-0.01068014
-0.01055194
-0.010491848
-0.010547151
-0.010736984
-0.011176267
-0.012201116
-0.014228574
-0.011651407
-0.021533594
-0.0078745438
-0.0074802814
-0.007368716
-0.0076269076
-0.0083070563
-0.00969302
-0.012584527
-0.01833986
-0.01748755
0.011848296
0.012130733
0.012354124
0.012261497
0.011830435
0.011021285
0.0096800979
0.0074652207
0.0036160866
-0.00036051569
0.0057724584
0.0057796418
0.0056258323
0.0052559533
0.0046792588
0.0038796917
0.002803259
0.0014067938
-0.00028505383
-0.0016312895
0.0020686797
0.0017009766
0.0011303394
0.00046076466
-0.00024592215
-0.00097597718
-0.001740916
-0.0025328046
-0.0032824904
-0.0037645376
-0.00096249813
-0.0019061726
-0.0030286106
-0.0040565097
-0.0049046104
-0.0055515036
-0.006000655
-0.0062463533
-0.0062929446
-0.0062146107
-0.0028192349
-0.0050154332
-0.0070967059
-0.0085714973
-0.0095696039
-0.010128325
-0.010264454
-0.0099515932
-0.0091992328
-0.008316223
-0.0010852721
-0.0056637323
-0.0097321121
-0.011727744
-0.012820425
-0.013269318
-0.013112715
-0.012204097
-0.010221932
-0.0070410882
0.015685832
0.016510395
0.010782809
0.0086846581
0.0077447261
0.0074529251
0.0077764686
0.0090882953
0.012939478
0.027518782
0.010070345
0.012647512
0.010638552
0.0099964438
0.009741062
0.009675079
0.0097932846
0.010263752
0.011913847
0.019983289
-0.018800663
-0.0098958399
-0.0098058806
-0.0097608283
-0.0098252541
-0.010024082
-0.010477614
-0.011535044
-0.013648654
-0.011208622
-0.019485869
-0.005993695
-0.0056961642
-0.0056328845
-0.0059246572
-0.0066378282
-0.0080694221
-0.011046254
-0.016996233
-0.016423193
0.012980211
0.013182728
0.013341021
0.013199375
0.01272722
0.011877371
0.01048841
0.0082096318
0.0042626743
0.00018581937
0.006189116
0.0061600557
0.0059606229
0.0055462551
0.0049276099
0.0040863952
0.0029654906
0.0015201457
-0.00022436183
-0.0016105277
0.001857052
0.0014621715
0.00085210832
0.00014016671
-0.00060775164
-0.0013775897
-0.0021817898
-0.0030121413
-0.0037964227
-0.0043002817
-0.0017731388
-0.0027516785
-0.0039179037
-0.0049904887
-0.005880023
-0.0065645269
-0.0070481871
-0.0073251574
-0.0073976101
-0.0073348171
-0.0042020694
-0.0064685125
-0.0086104953
-0.010136251
-0.011176745
-0.011770803
-0.011937375
-0.011651128
-0.010920571
-0.010051117
-0.0029570358
-0.0077135966
-0.011883847
-0.013939333
-0.015073699
-0.015553965
-0.015423122
-0.014537161
-0.012572628
-0.0093909934
0.013750304
0.014239938
0.0083733654
0.0062161255
0.0052426919
0.0049279851
0.0052330322
0.0065279959
0.0103792
0.025201798
0.0094742868
0.01191432
0.0098563135
0.0091964163
0.0089322029
0.0088605103
0.0089740649
0.0094401458
0.011095154
0.019321878
-0.017868341
-0.0090907418
-0.0090378819
-0.0090075061
-0.0090802877
-0.0092865157
-0.009750878
-0.010832925
-0.013016058
-0.010722869
-0.017427746
-0.004182057
-0.0039788748
-0.0039622665
-0.0042844958
-0.0050249852
-0.0064914518
-0.0095314561
-0.015631048
-0.015329383
0.013951711
0.014076565
0.014171502
0.013983651
0.013474857
0.012591056
0.011164747
0.0088388342
0.0048226927
0.0006753153
0.0065163148
0.0064527061
0.0062106938
0.0057560615
0.0051007636
0.0042245095
0.0030675807
0.001584063
-0.00020028571
-0.0016161769
0.0016070158
0.0011885014
0.00054429712
-0.00020409346
-0.00098725491
-0.0017908975
-0.0026282449
-0.003490815
-0.0043038183
-0.0048256998
-0.0025768393
-0.0035827247
-0.0047837952
-0.0058928342
-0.0068169781
-0.0075338242
-0.0080482128
-0.0083541696
-0.0084516762
-0.0084046626
-0.0055406195
-0.007860234
-0.01004709
-0.011612456
-0.012687537
-0.013312373
-0.013507882
-0.013249928
-0.012545968
-0.011695908
-0.0047722008
-0.0096699702
-0.013911797
-0.016012025
-0.017179664
-0.017687598
-0.017583127
-0.016725685
-0.014792127
-0.011631619
0.01177294
0.011938025
0.005975013
0.0037745062
0.0027747732
0.0024396214
0.0027242802
0.0039936413
0.0078183453
0.022780567
0.0088326714
0.01112586
0.0090337812
0.0083609419
0.0080898538
0.0080130209
0.0081211962
0.0085797277
0.010228201
0.018554542
-0.016877788
-0.0082781314
-0.0082606435
-0.0082443586
-0.0083246192
-0.0085365899
-0.0090083221
-0.010106959
-0.012342602
-0.010202967
-0.015391318
-0.0024656004
-0.0023529072
-0.0023806563
-0.0027298245
-0.0034916813
-0.0049821024
-0.0080630015
-0.014266677
-0.014223913
0.014753245
0.014803905
0.014838189
0.014607612
0.014067098
0.013156436
0.011703453
0.0093473112
0.0052906175
0.0011025804
0.0067528062
0.0066568426
0.0063758888
0.0058857517
0.0051995552
0.0042952631
0.0031110994
0.0016003965
-0.0002107738
-0.0016460511
0.0013252763
0.00088692934
0.0002142513
-0.00056424706
-0.0013762372
-0.0022072831
-0.0030712433
-0.0039593851
-0.0047948919
-0.0053307926
-0.0033590677
-0.0043846222
-0.0056113456
-0.0067482678
-0.0076998015
-0.0084432739
-0.0089841064
-0.0093162123
-0.0094374235
-0.009406046
-0.0068126509
-0.009168204
-0.011383971
-0.012977328
-0.014078838
-0.01472943
-0.014951776
-0.01472304
-0.014049591
-0.013223992
-0.0065009618
-0.011502382
-0.015785536
-0.017915217
-0.019107409
-0.019638866
-0.019560726
-0.018736681
-0.016845985
-0.013726767
0.0097914697
0.0096474572
0.0036305584
0.0014027264
0.00038411078
3.1318882e-05
0.00029427708
0.0015303668
0.0053041908
0.020306364
0.0081594659
0.010299101
0.0081879753
0.0075070764
0.0072311238
0.0071498092
0.0072520421
0.0077002084
0.0093315211
0.017701657
-0.015844161
-0.0074696368
-0.0074852894
-0.0074823177
-0.0075690919
-0.007785107
-0.0082607411
-0.0093679491
-0.011638899
-0.0096568507
-0.013404237
-0.00086592889
-0.00083859089
-0.00090778691
-0.0012800599
-0.0020571665
-0.0035605761
-0.0066601709
-0.012922341
-0.013122116
0.015378365
0.015359344
0.015336507
0.015067237
0.014500291
0.013570096
0.01210124
0.0097317539
0.0056628901
0.0014639123
0.0068987868
0.0067730829
0.0064573177
0.0059368666
0.0052258792
0.0043008376
0.003098455
0.0015717082
-0.00025319942
-0.0016974966
0.0010184894
0.00056430547
-0.00013089014
-0.00093283601
-0.0017669192
-0.0026186477
-0.0035023703
-0.0044091372
-0.0052606776
-0.0058064402
-0.0041068044
-0.0051442782
-0.0063873206
-0.0075433293
-0.0085147447
-0.0092787805
-0.0098413624
-0.010196315
-0.010339413
-0.010323193
-0.007998847
-0.01037311
-0.012601851
-0.014211452
-0.015330981
-0.016001942
-0.016248516
-0.016049247
-0.015409406
-0.014612614
-0.0081176329
-0.013184869
-0.017479398
-0.019623219
-0.020831052
-0.021381526
-0.021329103
-0.020542417
-0.018705082
-0.015645594
0.0078391051
0.0074057526
0.0013771596
-0.00086208904
-0.0018920452
-0.002259392
-0.0020189224
-0.00082275937
0.0028779004
0.017824648
0.0074671722
0.0094492201
0.0073339887
0.0066499015
0.0063711239
0.0062860598
0.0063819378
0.0068172543
0.0084215965
0.016781753
-0.01478113
-0.0066753837
-0.0067215171
-0.0067309182
-0.006823171
-0.0070415105
-0.0075176018
-0.0086254411
-0.010914462
-0.0090916577
-0.011490152
0.00059926816
0.00054746969
0.00044023906
4.8941101e-05
-0.00073720359
-0.0022426888
-0.005339041
-0.01161445
-0.012037146
0.015823348
0.015740047
0.015664319
0.015360846
0.014773033
0.013830783
0.012356873
0.0099907593
0.0059376413
0.0017570525
0.0069556657
0.0068031848
0.0064571371
0.0059118985
0.0051824865
0.004244174
0.0030327107
0.0015010997
-0.00032451786
-0.001767537
0.0006931672
0.00022727878
-0.00048427545
-0.0013027847
-0.0021519999
-0.0030174669
-0.0039138816
-0.0048321222
-0.0056930602
-0.006244428
-0.0048084954
-0.0058501417
-0.0071001254
-0.0082663011
-0.0092499011
-0.010028183
-0.010607497
-0.010981613
-0.011144381
-0.011142544
-0.0090826224
-0.011458518
-0.01368446
-0.015298542
-0.016427534
-0.017113197
-0.017380964
-0.01721081
-0.016606927
-0.01584261
-0.0096003382
-0.014695629
-0.018972099
-0.021114861
-0.022329328
-0.02289404
-0.022866212
-0.022120002
-0.020345205
-0.017362211
0.0059448957
0.0052455708
-0.00075320949
-0.002988136
-0.0040218462
-0.0044004418
-0.0041827774
-0.0030322412
0.00057501421
0.015375511
0.006766942
0.0085897466
0.0064851446
0.0058026874
0.0055231319
0.0054351089
0.0055243566
0.0059446534
0.0075130196
0.015811651
-0.013701003
-0.0059041315
-0.0059777282
-0.0059984258
-0.0060950694
-0.0063140098
-0.0067871645
-0.0078878322
-0.010177811
-0.0085138013
-0.0096690876
0.001915825
0.0017920184
0.0016505797
0.001244518
0.00045557446
-0.0010412171
-0.004112811
-0.010356886
-0.0109802
0.016086878
0.015945437
0.015821633
0.01548881
0.014885892
0.013939129
0.012470906
0.010124583
0.0061144691
0.0019809911
0.0069258821
0.0067498702
0.0063783817
0.0058141299
0.0050728319
0.0041288289
0.0029174496
0.0013920889
-0.0004213776
-0.0018529742
0.00035562248
-0.00011775359
-0.00083938274
-0.0016674347
-0.0025246837
-0.0033968088
-0.0042987133
-0.0052211588
-0.0060847703
-0.0066374369
-0.005453982
-0.0064921246
-0.0077397171
-0.0089071111
-0.0098950994
-0.010681141
-0.011271931
-0.011661217
-0.011841105
-0.011852626
-0.01004993
-0.012410663
-0.014618315
-0.016225209
-0.017355055
-0.018049559
-0.018335131
-0.018193211
-0.017626948
-0.016898142
-0.010930712
-0.016016682
-0.020246381
-0.022373119
-0.023585208
-0.024159176
-0.024154383
-0.023450993
-0.021746659
-0.018855289
0.0041340583
0.0031951045
-0.0027333307
-0.0049484873
-0.0059783937
-0.0063647655
-0.0061698025
-0.0050696963
-0.0015740985
0.012994082
0.0060686825
0.0077326923
0.0056531401
0.0049770403
0.0046987424
0.0046085959
0.0046910621
0.005094467
0.0066186422
0.014806587
-0.012614831
-0.0051633916
-0.0052611416
-0.0052919483
-0.0053918584