/*--------------------------------*- C++ -*----------------------------------*\
| =========                 |                                                 |
| \\      /  F ield         | OpenFOAM: The Open Source CFD Toolbox           |
|  \\    /   O peration     | Version:  v2106                                 |
|   \\  /    A nd           | Website:  www.openfoam.com                      |
|    \\/     M anipulation  |                                                 |
\*---------------------------------------------------------------------------*/
FoamFile
{
    version     2.0;
    format      ascii;
    arch        "LSB;label=32;scalar=64";
    class       volVectorField;
    location    "50";
    object      gradT;
}
// * * * * * * * * * * * * * * * * * * * * * * * * * * * * * * * * * * * * * //

dimensions      [0 -1 0 1 0 0 0];

internalField   nonuniform List<vector> 
4000
(
(-0.00041265859 -0.00041265859 580.75126)
(-0.00023427336 -7.6570325e-05 580.74853)
(0.00051473297 -0.00011455715 580.7503)
(0.00019787753 -0.00011640107 580.75098)
(8.5524755e-05 -0.00011791648 580.75133)
(-4.5379741e-06 -0.00012079191 580.75142)
(-6.7370768e-05 -0.00012657475 580.7513)
(-8.4204546e-05 -0.00013832203 580.75105)
(-3.8188315e-05 -0.0001570827 580.75085)
(5.6606375e-07 -0.00016148529 580.75092)
(-7.6570324e-05 -0.00023427335 580.74853)
(0.00021287881 0.00021287881 580.74791)
(0.00045498685 0.0001510327 580.74947)
(0.00019283853 0.00014583276 580.75014)
(7.8938492e-05 0.000139784 580.75048)
(-1.7525375e-05 0.00012973769 580.75055)
(-9.3665947e-05 0.00011188929 580.75038)
(-0.00012996648 7.7836885e-05 580.75004)
(-7.2933205e-05 1.6930468e-05 580.74969)
(-3.8365253e-06 -4.7484141e-05 580.74979)
(-0.00011455715 0.00051473297 580.7503)
(0.00015103269 0.00045498685 580.74947)
(0.00044768692 0.00044768692 580.751)
(0.00018662883 0.0004416333 580.75166)
(6.9429681e-05 0.00043301861 580.75198)
(-3.2432686e-05 0.00042098674 580.75202)
(-0.00011927157 0.00040358107 580.7518)
(-0.00017916336 0.00037674964 580.75137)
(-0.00016350934 0.00033225866 580.75084)
(-4.2377009e-05 0.00026484646 580.75065)
(-0.00011640107 0.00019787753 580.75098)
(0.00014583276 0.00019283853 580.75014)
(0.0004416333 0.00018662883 580.75166)
(0.00017817022 0.00017817023 580.75229)
(5.8291926e-05 0.00016780365 580.75259)
(-4.696291e-05 0.00015530308 580.75259)
(-0.00013790305 0.00014001515 580.75233)
(-0.00020128889 0.00012173282 580.75185)
(-0.00018483638 0.00010221515 580.75126)
(-4.8777991e-05 8.7407655e-05 580.75101)
(-0.00011791648 8.5524756e-05 580.75133)
(0.000139784 7.893849e-05 580.75048)
(0.00043301861 6.9429681e-05 580.75198)
(0.00016780365 5.8291924e-05 580.75259)
(4.6562538e-05 4.6562541e-05 580.75286)
(-6.0221186e-05 3.4491765e-05 580.75283)
(-0.00015284183 2.1867822e-05 580.75253)
(-0.00021696337 8.8196962e-06 580.75201)
(-0.0001978345 -3.2931752e-06 580.75137)
(-5.2248668e-05 -1.109135e-05 580.7511)
(-0.00012079191 -4.5379794e-06 580.75142)
(0.00012973768 -1.7525374e-05 580.75055)
(0.00042098673 -3.243269e-05 580.75202)
(0.00015530308 -4.6962916e-05 580.75259)
(3.4491767e-05 -6.0221183e-05 580.75283)
(-7.1657629e-05 -7.165763e-05 580.75276)
(-0.00016357511 -8.1484094e-05 580.75244)
(-0.00022644989 -8.9625684e-05 580.75189)
(-0.00020474743 -9.5611387e-05 580.75123)
(-5.3976774e-05 -9.8765333e-05 580.75095)
(-0.00012657475 -6.7370774e-05 580.7513)
(0.00011188929 -9.3665953e-05 580.75038)
(0.00040358107 -0.00011927157 580.7518)
(0.00014001516 -0.00013790304 580.75233)
(2.1867825e-05 -0.00015284183 580.75253)
(-8.1484097e-05 -0.00016357511 580.75244)
(-0.00017080989 -0.00017080988 580.75209)
(-0.00023109066 -0.00017470081 580.75153)
(-0.00020697415 -0.00017533282 580.75086)
(-5.4351299e-05 -0.00017398823 580.75057)
(-0.00013832203 -8.4204542e-05 580.75105)
(7.7836887e-05 -0.00012996647 580.75004)
(0.00037674965 -0.00017916336 580.75137)
(0.00012173282 -0.00020128889 580.75185)
(8.8196954e-06 -0.00021696337 580.75201)
(-8.9625686e-05 -0.00022644989 580.75189)
(-0.00017470081 -0.00023109066 580.75153)
(-0.00023097283 -0.00023097282 580.75096)
(-0.00020403486 -0.00022571571 580.7503)
(-5.3080381e-05 -0.00021756814 580.75002)
(-0.0001570827 -3.8188314e-05 580.75085)
(1.6930466e-05 -7.2933198e-05 580.74969)
(0.00033225865 -0.00016350933 580.75084)
(0.00010221515 -0.00018483639 580.75126)
(-3.293176e-06 -0.00019783451 580.75137)
(-9.5611385e-05 -0.00020474743 580.75123)
(-0.00017533282 -0.00020697415 580.75086)
(-0.00022571572 -0.00020403485 580.7503)
(-0.00019356947 -0.00019356947 580.74966)
(-4.8919581e-05 -0.00017516192 580.74942)
(-0.00016148529 5.6606315e-07 580.75092)
(-4.7484133e-05 -3.8365272e-06 580.74979)
(0.00026484646 -4.2377002e-05 580.75065)
(8.7407651e-05 -4.877799e-05 580.75101)
(-1.109135e-05 -5.2248668e-05 580.7511)
(-9.8765332e-05 -5.3976772e-05 580.75095)
(-0.00017398823 -5.43513e-05 580.75057)
(-0.00021756814 -5.3080381e-05 580.75002)
(-0.00017516193 -4.8919582e-05 580.74942)
(-4.0808686e-05 -4.0808687e-05 580.74928)
(-0.0014869378 -0.0014869378 858.00346)
(-0.0007387374 -0.00039111086 858.00109)
(0.0021243008 -0.00048200982 858.00301)
(0.0009584649 -0.00048982229 858.00395)
(0.00040583545 -0.00049739567 858.00443)
(-3.6306355e-05 -0.0005114296 858.00453)
(-0.0003463722 -0.00053998014 858.00431)
(-0.0004163156 -0.00059954279 858.00388)
(-8.9418208e-05 -0.00069452008 858.00355)
(6.4555758e-05 -0.00064472593 858.00402)
(-0.00039111086 -0.00073873739 858.00109)
(0.00076865451 0.00076865451 858.0005)
(0.0019762336 0.00060750517 858.00232)
(0.00093538612 0.00058207914 858.00324)
(0.00037342448 0.00055197888 858.00371)
(-0.00010018306 0.00050287116 858.00377)
(-0.00047854199 0.00041508597 858.00348)
(-0.00064812551 0.00024424876 858.0029)
(-0.00015719292 -6.4618042e-05 858.00227)
(0.00011434991 -0.00025752381 858.0028)
(-0.00048200982 0.0021243008 858.00301)
(0.00060750517 0.0019762336 858.00232)
(0.0019377254 0.0019377254 858.0041)
(0.00090293861 0.0019058053 858.00501)
(0.00032662747 0.0018633531 858.00544)
(-0.00017319926 0.0018045426 858.00546)
(-0.0006049946 0.0017193996 858.0051)
(-0.00089601961 0.0015868155 858.00439)
(-0.00059119078 0.0013599452 858.0035)
(-6.4048086e-05 0.0010380728 858.00365)
(-0.00048982229 0.00095846489 858.00395)
(0.00058207914 0.00093538612 858.00324)
(0.0019058053 0.00090293861 858.00501)
(0.00086101383 0.00086101384 858.00588)
(0.00027216187 0.00081030186 858.00628)
(-0.00024413662 0.00074927971 858.00625)
(-0.00069626913 0.00067471967 858.00582)
(-0.0010075799 0.00058545005 858.00504)
(-0.00070593561 0.00048744011 858.00405)
(-0.00010023169 0.00040841841 858.00411)
(-0.00049739567 0.00040583544 858.00443)
(0.00055197889 0.00037342447 858.00371)
(0.0018633531 0.00032662746 858.00544)
(0.00081030185 0.00027216187 858.00628)
(0.00021489333 0.00021489334 858.00663)
(-0.00030878144 0.00015597368 858.00655)
(-0.00076882426 9.4428209e-05 858.00608)
(-0.0010832992 3.1078728e-05 858.00523)
(-0.00076822241 -2.7402291e-05 858.00418)
(-0.00011672922 -6.4356116e-05 858.0042)
(-0.0005114296 -3.6306357e-05 858.00453)
(0.00050287117 -0.00010018307 858.00377)
(0.0018045427 -0.00017319927 858.00546)
(0.00074927971 -0.00024413663 858.00625)
(0.00015597368 -0.00030878144 858.00655)
(-0.00036460175 -0.00036460175 858.00643)
(-0.00082116408 -0.00041251038 858.00591)
(-0.0011294103 -0.00045209301 858.00503)
(-0.00080137045 -0.00048092141 858.00395)
(-0.00012486758 -0.00049547247 858.00394)
(-0.00053998014 -0.0003463722 858.00431)
(0.00041508597 -0.00047854199 858.00348)
(0.0017193996 -0.0006049946 858.0051)
(0.00067471968 -0.00069626912 858.00582)
(9.4428211e-05 -0.00076882426 858.00608)
(-0.00041251037 -0.00082116407 858.00591)
(-0.00085631552 -0.00085631551 858.00536)
(-0.0011517102 -0.00087483651 858.00445)
(-0.00081160187 -0.00087668799 858.00336)
(-0.00012642992 -0.00086781841 858.00335)
(-0.00059954279 -0.0004163156 858.00388)
(0.00024424877 -0.0006481255 858.0029)
(0.0015868155 -0.00089601961 858.00439)
(0.00058545005 -0.0010075798 858.00504)
(3.1078729e-05 -0.0010832992 858.00523)
(-0.00045209301 -0.0011294103 858.00503)
(-0.00087483652 -0.0011517102 858.00445)
(-0.0011497828 -0.0011497828 858.00354)
(-0.00079435235 -0.0011193364 858.00246)
(-0.00011895452 -0.0010673645 858.00248)
(-0.00069452008 -8.9418201e-05 858.00355)
(-6.4618038e-05 -0.00015719292 858.00227)
(0.0013599452 -0.00059119078 858.0035)
(0.00048744011 -0.0007059356 858.00405)
(-2.740229e-05 -0.00076822241 858.00418)
(-0.0004809214 -0.00080137045 858.00395)
(-0.00087668799 -0.00081160188 858.00336)
(-0.0011193364 -0.00079435235 858.00246)
(-0.0007291835 -0.0007291835 858.00143)
(-9.1781962e-05 -0.00058433184 858.00156)
(-0.00064472593 6.4555761e-05 858.00402)
(-0.00025752381 0.0001143499 858.0028)
(0.0010380728 -6.4048086e-05 858.00365)
(0.00040841842 -0.00010023169 858.00411)
(-6.435612e-05 -0.00011672921 858.0042)
(-0.00049547247 -0.00012486758 858.00394)
(-0.00086781842 -0.00012642993 858.00335)
(-0.0010673645 -0.00011895453 858.00248)
(-0.00058433184 -9.1781961e-05 858.00156)
(-2.2386754e-05 -2.2386753e-05 858.00211)
(-0.0019961634 -0.0019961634 852.11314)
(-0.00068499531 -0.00046741411 852.11174)
(0.0033804951 -0.00057783559 852.11328)
(0.0016193631 -0.00058956457 852.1141)
(0.00066121334 -0.00060276125 852.11451)
(-0.00013274536 -0.00062730653 852.11454)
(-0.00071366422 -0.00067831922 852.11423)
(-0.0008418375 -0.00079324243 852.11369)
(9.3974388e-05 -0.0010110671 852.11319)
(0.00031199232 -0.00097108177 852.11383)
(-0.00046741411 -0.00068499531 852.11174)
(0.0014424965 0.0014424965 852.11153)
(0.0031972694 0.0012401593 852.11301)
(0.0015819746 0.0011984872 852.11382)
(0.00060460039 0.0011452865 852.1142)
(-0.00024608231 0.0010585727 852.1142)
(-0.00096256806 0.00090287814 852.11384)
(-0.0013409593 0.00058898064 852.11313)
(-0.00017278462 -2.8671022e-05 852.11228)
(0.00035197763 -0.00041239249 852.11293)
(-0.00057783559 0.0033804951 852.11328)
(0.0012401593 0.0031972694 852.11301)
(0.0031364858 0.0031364858 852.11447)
(0.0015244904 0.0030799204 852.11526)
(0.00052129885 0.003004263 852.11561)
(-0.00037515375 0.0028995268 852.11557)
(-0.0011832563 0.0027485136 852.11513)
(-0.0017733867 0.0025153702 852.11431)
(-0.00090739874 0.0021138637 852.11321)
(5.6178008e-05 0.0015695656 852.11353)
(-0.00058956457 0.0016193631 852.1141)
(0.0011984872 0.0015819746 852.11382)
(0.0030799204 0.0015244904 852.11526)
(0.0014497519 0.0014497519 852.11601)
(0.00042420677 0.0013594707 852.11633)
(-0.00050183176 0.0012508283 852.11624)
(-0.0013467247 0.0011179571 852.11575)
(-0.0019756092 0.00095872876 852.11485)
(-0.0011185891 0.00078162001 852.11364)
(-1.088773e-05 0.00063695143 852.11388)
(-0.00060276125 0.00066121333 852.11451)
(0.0011452865 0.00060460038 852.1142)
(0.003004263 0.00052129885 852.11561)
(0.0013594707 0.00042420676 852.11633)
(0.00032237534 0.00032237534 852.11661)
(-0.00061666735 0.00021766493 852.11647)
(-0.0014753558 0.0001084187 852.11592)
(-0.0021097238 -3.7226397e-06 852.11497)
(-0.0012291761 -0.00010712764 852.11371)
(-4.0267714e-05 -0.00017247056 852.1139)
(-0.00062730654 -0.00013274536 852.11454)
(0.0010585727 -0.00024608231 852.1142)
(0.0028995268 -0.00037515376 852.11557)
(0.0012508283 -0.00050183176 852.11624)
(0.00021766494 -0.00061666736 852.11647)
(-0.00071578839 -0.00071578839 852.11629)
(-0.0015681123 -0.00080067514 852.1157)
(-0.0021911555 -0.00087044059 852.11471)
(-0.0012873371 -0.000920602 852.11342)
(-5.4449676e-05 -0.00094507779 852.11359)
(-0.00067831922 -0.00071366422 852.11423)
(0.00090287815 -0.00096256806 852.11384)
(0.0027485136 -0.0011832563 852.11513)
(0.0011179571 -0.0013467247 852.11575)
(0.00010841871 -0.0014753558 852.11592)
(-0.00080067513 -0.0015681123 852.1157)
(-0.001630008 -0.001630008 852.11508)
(-0.0022296506 -0.0016614547 852.11406)
(-0.0013038133 -0.0016609859 852.11276)
(-5.6584912e-05 -0.0016384443 852.11294)
(-0.00079324243 -0.00084183749 852.11369)
(0.00058898065 -0.0013409593 852.11313)
(0.0025153702 -0.0017733867 852.11431)
(0.00095872876 -0.0019756092 852.11485)
(-3.7226386e-06 -0.0021097238 852.11497)
(-0.00087044059 -0.0021911555 852.11471)
(-0.0016614547 -0.0022296506 852.11406)
(-0.0022221333 -0.0022221333 852.11304)
(-0.0012643267 -0.0021521526 852.11176)
(-3.9421979e-05 -0.0020136862 852.11196)
(-0.0010110671 9.3974402e-05 852.11319)
(-2.8671019e-05 -0.00017278461 852.11228)
(0.0021138637 -0.00090739875 852.11321)
(0.00078162002 -0.0011185891 852.11364)
(-0.00010712764 -0.0012291761 852.11371)
(-0.000920602 -0.0012873371 852.11342)
(-0.0016609859 -0.0013038133 852.11276)
(-0.0021521526 -0.0012643267 852.11176)
(-0.0010953662 -0.0010953662 852.11054)
(3.572599e-05 -0.00054666685 852.11089)
(-0.00097108177 0.00031199232 852.11383)
(-0.0004123925 0.00035197764 852.11293)
(0.0015695656 5.6178006e-05 852.11353)
(0.00063695144 -1.088773e-05 852.11388)
(-0.00017247056 -4.0267712e-05 852.1139)
(-0.0009450778 -5.4449674e-05 852.11359)
(-0.0016384443 -5.6584911e-05 852.11294)
(-0.0020136862 -3.9421981e-05 852.11196)
(-0.00054666685 3.5725994e-05 852.11089)
(0.00032637758 0.00032637758 852.11208)
(-0.0024174523 -0.0024174523 846.22279)
(-0.00059273791 -0.00053336173 846.22158)
(0.0044858182 -0.00066411771 846.22298)
(0.0021808466 -0.00067999309 846.2237)
(0.00083770329 -0.00069873402 846.22402)
(-0.00030913609 -0.00073326681 846.22398)
(-0.0011921042 -0.00080483402 846.2236)
(-0.001459976 -0.00096978375 846.22294)
(5.2626838e-05 -0.0013027472 846.22226)
(0.00049257939 -0.001244427 846.22273)
(-0.00053336173 -0.00059273791 846.22158)
(0.002037264 0.002037264 846.2214)
(0.0042658712 0.0017927035 846.22273)
(0.0021289221 0.0017344635 846.22344)
(0.0007577927 0.0016584791 846.22374)
(-0.0004682861 0.0015353442 846.22367)
(-0.0015468796 0.0013153314 846.22323)
(-0.0022068458 0.0008683126 846.22242)
(-0.00035933806 -4.283768e-05 846.2214)
(0.00055089957 -0.00055606077 846.22194)
(-0.00066411771 0.0044858182 846.22298)
(0.0017927035 0.0042658712 846.22273)
(0.0041830177 0.0041830177 846.22404)
(0.0020466222 0.0041020042 846.22472)
(0.00063858401 0.0039937109 846.225)
(-0.00065228376 0.0038440413 846.22488)
(-0.0018591358 0.0036287251 846.22438)
(-0.0028181451 0.0032982 846.22346)
(-0.0013717465 0.0027268104 846.2222)
(0.00015043066 0.0019814552 846.22244)
(-0.00067999309 0.0021808466 846.2237)
(0.0017344635 0.0021289221 846.22344)
(0.0041020042 0.0020466222 846.22472)
(0.0019396153 0.0019396153 846.22538)
(0.00049982978 0.0018106376 846.22562)
(-0.00083327193 0.0016556089 846.22546)
(-0.0020927208 0.0014660658 846.22489)
(-0.0031087605 0.0012391488 846.2239)
(-0.0016760829 0.00098497047 846.22254)
(5.3996151e-05 0.00077759389 846.22269)
(-0.00069873401 0.00083770328 846.22402)
(0.0016584791 0.0007577927 846.22374)
(0.0039937109 0.00063858401 846.225)
(0.0018106376 0.00049982977 846.22562)
(0.00035457761 0.0003545776 846.22582)
(-0.00099685556 0.00020539043 846.22561)
(-0.0022755959 4.9965926e-05 846.22499)
(-0.0032992405 -0.00010915641 846.22395)
(-0.0018333015 -0.0002557541 846.22253)
(1.2179613e-05 -0.00034837256 846.22265)
(-0.00073326681 -0.00030913609 846.22398)
(0.0015353442 -0.0004682861 846.22367)
(0.0038440413 -0.00065228377 846.22488)
(0.0016556089 -0.00083327193 846.22546)
(0.00020539044 -0.00099685556 846.22561)
(-0.0011378836 -0.0011378836 846.22536)
(-0.0024072677 -0.0012583412 846.2247)
(-0.0034144805 -0.0013568539 846.22362)
(-0.001915299 -0.0014271043 846.22218)
(-7.7494909e-06 -0.0014609312 846.22228)
(-0.00080483402 -0.0011921042 846.2236)
(0.0013153314 -0.0015468796 846.22323)
(0.003628725 -0.0018591358 846.22438)
(0.0014660658 -0.0020927208 846.22489)
(4.9965926e-05 -0.0022755959 846.22499)
(-0.0012583412 -0.0024072677 846.2247)
(-0.0024945662 -0.0024945662 846.22402)
(-0.0034680036 -0.002537764 846.22291)
(-0.0019373787 -0.0025342607 846.22146)
(-1.0371663e-05 -0.0024983535 846.22156)
(-0.00096978374 -0.001459976 846.22294)
(0.00086831261 -0.0022068458 846.22242)
(0.0032982 -0.0028181451 846.22346)
(0.0012391488 -0.0031087605 846.2239)
(-0.00010915641 -0.0032992405 846.22395)
(-0.0013568539 -0.0034144805 846.22362)
(-0.002537764 -0.0034680036 846.22291)
(-0.0034541749 -0.0034541749 846.2218)
(-0.0018758885 -0.0033437724 846.22037)
(1.6188617e-05 -0.0031107778 846.2205)
(-0.0013027472 5.262685e-05 846.22226)
(-4.2837676e-05 -0.00035933806 846.2214)
(0.0027268104 -0.0013717465 846.2222)
(0.00098497047 -0.0016760829 846.22254)
(-0.00025575409 -0.0018333015 846.22253)
(-0.0014271043 -0.001915299 846.22218)
(-0.0025342607 -0.0019373787 846.22146)
(-0.0033437724 -0.0018758885 846.22037)
(-0.0015939816 -0.0015939816 846.219)
(0.00014495807 -0.00046486652 846.21928)
(-0.001244427 0.00049257939 846.22273)
(-0.00055606078 0.00055089957 846.22194)
(0.0019814552 0.00015043066 846.22244)
(0.0007775939 5.3996153e-05 846.22269)
(-0.00034837256 1.2179612e-05 846.22265)
(-0.0014609312 -7.7494895e-06 846.22228)
(-0.0024983535 -1.0371657e-05 846.22156)
(-0.0031107778 1.6188613e-05 846.2205)
(-0.00046486651 0.00014495807 846.21928)
(0.00076893202 0.00076893201 846.2206)
(-0.002800977 -0.002800977 840.33408)
(-0.00049454614 -0.00059093247 840.33298)
(0.005496448 -0.00074398509 840.33429)
(0.0026598425 -0.00076465376 840.33493)
(0.00094024511 -0.00078902375 840.33518)
(-0.00055734533 -0.00083336652 840.33507)
(-0.0017496192 -0.00092489681 840.33462)
(-0.0021803215 -0.0011378656 840.33389)
(-0.0001188113 -0.001581768 840.33311)
(0.00062611161 -0.001496358 840.33346)
(-0.00059093247 -0.00049454614 840.33298)
(0.0025909418 0.0025909418 840.33283)
(0.005235866 0.0022996222 840.33407)
(0.0025922845 0.0022233346 840.33469)
(0.00083717597 0.0021245664 840.33492)
(-0.00076115492 0.0019658527 840.33479)
(-0.0022063679 0.0016834892 840.33428)
(-0.0031656283 0.0011085027 840.33341)
(-0.00065654984 -8.5856652e-05 840.33231)
(0.00071152165 -0.0007036877 840.33273)
(-0.00074398508 0.005496448 840.33429)
(0.0022996222 0.005235866 840.33407)
(0.0051288408 0.0051288408 840.33528)
(0.0024847868 0.0050228469 840.33588)
(0.00068276326 0.0048824043 840.33608)
(-0.00099842257 0.0046890749 840.33591)
(-0.0026069692 0.0044115985 840.33534)
(-0.0039496673 0.0039873863 840.33436)
(-0.0019310017 0.0032518301 840.33302)
(0.00021422425 0.0023198687 840.33317)
(-0.00076465376 0.0026598425 840.33493)
(0.0022233346 0.0025922845 840.33469)
(0.0050228469 0.0024847868 840.33588)
(0.0023458481 0.0023458481 840.33645)
(0.00050340396 0.0021790881 840.33662)
(-0.0012319608 0.0019791107 840.3364)
(-0.0029080564 0.0017348949 840.33577)
(-0.0043253966 0.001443004 840.33472)
(-0.0023240675 0.0011146463 840.33329)
(9.0214011e-05 0.00084817708 840.33336)
(-0.00078902375 0.00094024512 840.33518)
(0.0021245664 0.00083717597 840.33492)
(0.0048824043 0.00068276325 840.33608)
(0.0021790881 0.00050340396 840.33662)
(0.00031602591 0.00031602591 840.33675)
(-0.0014426158 0.00012387609 840.33649)
(-0.003143076 -7.5968703e-05 840.33581)
(-0.0045699159 -0.00028003745 840.3347)
(-0.0025258286 -0.00046785302 840.33322)
(3.6578116e-05 -0.00058628581 840.33326)
(-0.00083336652 -0.00055734533 840.33507)
(0.0019658527 -0.00076115492 840.33479)
(0.0046890748 -0.00099842256 840.33591)
(0.0019791107 -0.0012319608 840.3364)
(0.00012387609 -0.0014426158 840.33649)
(-0.0016239554 -0.0016239554 840.33618)
(-0.00331197 -0.0017783999 840.33546)
(-0.0047172809 -0.0019040563 840.33432)
(-0.0026303158 -0.0019929527 840.33282)
(1.1258818e-05 -0.002035238 840.33283)
(-0.00092489681 -0.0017496192 840.33462)
(0.0016834892 -0.0022063679 840.33428)
(0.0044115984 -0.0026069692 840.33534)
(0.0017348949 -0.0029080564 840.33577)
(-7.5968706e-05 -0.003143076 840.33581)
(-0.0017783999 -0.00331197 840.33546)
(-0.0034231769 -0.0034231769 840.33472)
(-0.0047844688 -0.0034767568 840.33356)
(-0.0026570103 -0.0034693013 840.33205)
(8.387902e-06 -0.0034203381 840.33206)
(-0.0011378656 -0.0021803215 840.33389)
(0.0011085027 -0.0031656283 840.33341)
(0.0039873863 -0.0039496673 840.33436)
(0.001443004 -0.0043253966 840.33472)
(-0.00028003745 -0.0045699159 840.3347)
(-0.0019040563 -0.004717281 840.33432)
(-0.0034767568 -0.0047844688 840.33356)
(-0.0047634054 -0.0047634054 840.3324)
(-0.0025738971 -0.0046136353 840.3309)
(4.3900987e-05 -0.004291474 840.33095)
(-0.001581768 -0.0001188113 840.33311)
(-8.5856658e-05 -0.00065654984 840.33231)
(0.0032518301 -0.0019310017 840.33302)
(0.0011146463 -0.0023240675 840.33329)
(-0.00046785303 -0.0025258286 840.33322)
(-0.0019929527 -0.0026303158 840.33282)
(-0.0034693013 -0.0026570103 840.33205)
(-0.0046136353 -0.0025738971 840.3309)
(-0.0021850789 -0.0021850789 840.32947)
(0.00022316211 -0.00043910867 840.32966)
(-0.001496358 0.00062611161 840.33346)
(-0.00070368771 0.00071152165 840.33273)
(0.0023198687 0.00021422425 840.33317)
(0.00084817709 9.0214011e-05 840.33336)
(-0.00058628581 3.6578114e-05 840.33326)
(-0.002035238 1.125882e-05 840.33283)
(-0.0034203381 8.387902e-06 840.33206)
(-0.004291474 4.3900983e-05 840.33095)
(-0.00043910866 0.00022316211 840.32966)
(0.0012078812 0.0012078812 840.33092)
(-0.0031481602 -0.0031481602 834.45044)
(-0.00038239633 -0.00063494803 834.44945)
(0.0064311269 -0.00081082236 834.45068)
(0.003070489 -0.00083667704 834.45125)
(0.00097921326 -0.00086667212 834.45144)
(-0.0008657441 -0.00092051825 834.45128)
(-0.002366797 -0.0010312652 834.45078)
(-0.0029652274 -0.0012904116 834.45)
(-0.00037511321 -0.0018417211 834.44917)
(0.00072604564 -0.0017305458 834.44943)
(-0.00063494803 -0.00038239632 834.44945)
(0.0031236105 0.0031236105 834.44934)
(0.0061285334 0.0027837037 834.4505)
(0.0029867144 0.0026883987 834.45106)
(0.00085345144 0.0025670473 834.45123)
(-0.0011126337 0.0023739037 834.45104)
(-0.002921637 0.0020316128 834.45049)
(-0.0041809113 0.0013338742 834.44957)
(-0.0010353146 -0.0001336889 834.44842)
(0.00083722089 -0.00084993401 834.44875)
(-0.00081082236 0.0064311269 834.45068)
(0.0027837037 0.0061285334 834.4505)
(0.0059959151 0.0059959151 834.45163)
(0.0028538326 0.0058645979 834.45217)
(0.0006647183 0.0056926259 834.45231)
(-0.0014011787 0.0054571167 834.45208)
(-0.0034068265 0.0051199781 834.45147)
(-0.0051305291 0.0046062111 834.45045)
(-0.0025589215 0.0037132049 834.44908)
(0.0002485489 0.0026051101 834.44914)
(-0.00083667704 0.003070489 834.45125)
(0.0026883987 0.0029867144 834.45106)
(0.0058645979 0.0028538326 834.45217)
(0.0026834252 0.0026834252 834.45268)
(0.00044597026 0.0024799388 834.45279)
(-0.0016852815 0.0022366283 834.45251)
(-0.0037725427 0.0019399605 834.45184)
(-0.0055876845 0.0015860005 834.45075)
(-0.0030364156 0.0011867013 834.4493)
(9.8491019e-05 0.00086436013 834.44928)
(-0.00086667211 0.00097921327 834.45144)
(0.0025670473 0.00085345145 834.45123)
(0.0056926259 0.0006647183 834.45231)
(0.0024799388 0.00044597026 834.45279)
(0.00021792146 0.00021792146 834.45286)
(-0.001941157 -1.5526606e-05 834.45254)
(-0.0040574543 -0.00025790697 834.45183)
(-0.0058837883 -0.00050483394 834.45069)
(-0.0032805619 -0.00073187446 834.44918)
(3.3654811e-05 -0.00087470332 834.44913)
(-0.00092051825 -0.0008657441 834.45128)
(0.0023739037 -0.0011126337 834.45104)
(0.0054571167 -0.0014011787 834.45208)
(0.0022366283 -0.0016852815 834.45251)
(-1.5526608e-05 -0.001941157 834.45254)
(-0.0021611099 -0.0021611099 834.45219)
(-0.00426185 -0.002347956 834.45143)
(-0.006061652 -0.002499282 834.45026)
(-0.0034062849 -0.0026055871 834.44873)
(3.2717776e-06 -0.0026555375 834.44867)
(-0.0010312652 -0.002366797 834.45078)
(0.0020316128 -0.002921637 834.45049)
(0.0051199781 -0.0034068265 834.45147)
(0.0019399605 -0.0037725427 834.45184)
(-0.00025790697 -0.0040574543 834.45183)
(-0.002347956 -0.00426185 834.45143)
(-0.0043956263 -0.0043956263 834.45065)
(-0.0061414193 -0.0044585613 834.44946)
(-0.0034368173 -0.0044465219 834.44792)
(3.5455437e-07 -0.0043844083 834.44786)
(-0.0012904116 -0.0029652274 834.45)
(0.0013338742 -0.0041809113 834.44957)
(0.0046062111 -0.0051305291 834.45045)
(0.0015860005 -0.0055876845 834.45075)
(-0.00050483394 -0.0058837883 834.45069)
(-0.002499282 -0.006061652 834.45026)
(-0.0044585613 -0.0061414194 834.44946)
(-0.0061125475 -0.0061125475 834.44827)
(-0.0033321319 -0.005924262 834.44675)
(4.4680837e-05 -0.0055177835 834.44671)
(-0.0018417211 -0.00037511321 834.44917)
(-0.0001336889 -0.0010353146 834.44842)
(0.0037132049 -0.0025589215 834.44908)
(0.0011867013 -0.0030364156 834.4493)
(-0.00073187445 -0.0032805619 834.44918)
(-0.0026055871 -0.0034062849 834.44873)
(-0.0044465219 -0.0034368173 834.44792)
(-0.005924262 -0.0033321319 834.44675)
(-0.0028420533 -0.0028420533 834.44528)
(0.00027134021 -0.00048706888 834.44539)
(-0.0017305458 0.00072604564 834.44943)
(-0.00084993401 0.00083722088 834.44875)
(0.0026051101 0.0002485489 834.44914)
(0.00086436012 9.8491028e-05 834.44928)
(-0.00087470333 3.3654807e-05 834.44913)
(-0.0026555375 3.2717783e-06 834.44867)
(-0.0043844083 3.5455437e-07 834.44786)
(-0.0055177835 4.4680836e-05 834.44671)
(-0.00048706888 0.0002713402 834.44539)
(0.0016146705 0.0016146704 834.44655)
(-0.0034572247 -0.0034572247 828.57583)
(-0.00025104588 -0.00066357667 828.57496)
(0.0072976036 -0.00086201541 828.57611)
(0.0034233446 -0.00089322816 828.57663)
(0.00096605602 -0.0009287641 828.57677)
(-0.0012204505 -0.00099173809 828.57656)
(-0.0030254585 -0.0011208255 828.57603)
(-0.0037912195 -0.0014240828 828.57522)
(-0.000694682 -0.0020787469 828.57435)
(0.00079803554 -0.0019456716 828.57453)
(-0.00066357667 -0.00025104588 828.57496)
(0.0036417681 0.0036417681 828.5749)
(0.0069531264 0.0032532149 828.57599)
(0.0033232216 0.0031385085 828.57649)
(0.00081829113 0.0029950248 828.57661)
(-0.0015085427 0.0027688077 828.57637)
(-0.0036739756 0.0023693393 828.57579)
(-0.0052281015 0.0015545934 828.57485)
(-0.0014770651 -0.00017478521 828.57368)
(0.00093111085 -0.00098791356 828.57392)
(-0.00086201541 0.0072976036 828.57611)
(0.0032532149 0.0069531264 828.57599)
(0.006794344 0.006794344 828.57704)
(0.0031651545 0.006637775 828.57752)
(0.00059635529 0.0064351362 828.57761)
(-0.0018461361 0.0061591323 828.57734)
(-0.0042396728 0.0057650663 828.5767)
(-0.0063353439 0.0051661522 828.57566)
(-0.003237189 0.0041231835 828.57428)
(0.00025594998 0.0028483597 828.57427)
(-0.00089322816 0.0034233446 828.57663)
(0.0031385085 0.0033232216 828.57649)
(0.006637775 0.0031651545 828.57752)
(0.0029640138 0.0029640138 828.57797)
(0.00033964846 0.0027250649 828.57803)
(-0.0021786126 0.0024402206 828.57772)
(-0.0046669557 0.0020934991 828.57702)
(-0.0068699844 0.0016805036 828.57592)
(-0.0037948577 0.0012137093 828.57445)
(8.1228368e-05 0.00083846386 828.57437)
(-0.00092876411 0.00096605602 828.57677)
(0.0029950248 0.00081829113 828.57661)
(0.0064351362 0.00059635528 828.57761)
(0.0027250649 0.00033964846 828.57803)
(7.2562132e-05 7.2562131e-05 828.57806)
(-0.0024777019 -0.00020038099 828.5777)
(-0.0049993899 -0.00048331771 828.57696)
(-0.0072151338 -0.00077099548 828.57581)
(-0.0040792287 -0.0010352926 828.5743)
(5.7863618e-06 -0.001201215 828.57418)
(-0.00099173809 -0.0012204505 828.57656)
(0.0027688077 -0.0015085427 828.57637)
(0.0061591323 -0.0018461361 828.57734)
(0.0024402206 -0.0021786126 828.57772)
(-0.00020038099 -0.0024777018 828.5777)
(-0.0027344924 -0.0027344924 828.57731)
(-0.0052375702 -0.0029521827 828.57654)
(-0.0074219593 -0.0031278754 828.57535)
(-0.0042250772 -0.0032506558 828.57382)
(-2.9386584e-05 -0.0033078031 828.57369)
(-0.0011208255 -0.0030254585 828.57603)
(0.0023693393 -0.0036739756 828.57579)
(0.0057650663 -0.0042396728 828.5767)
(0.0020934992 -0.0046669557 828.57702)
(-0.00048331771 -0.0049993899 828.57696)
(-0.0029521827 -0.0052375702 828.57654)
(-0.0053927729 -0.0053927729 828.57573)
(-0.0075136069 -0.0054645157 828.57453)
(-0.0042591564 -0.005448008 828.57299)
(-3.2311818e-05 -0.005373278 828.57286)
(-0.0014240828 -0.0037912195 828.57522)
(0.0015545934 -0.0052281015 828.57485)
(0.0051661522 -0.0063353439 828.57566)
(0.0016805036 -0.0068699844 828.57592)
(-0.00077099548 -0.0072151338 828.57581)
(-0.0031278754 -0.0074219593 828.57535)
(-0.0054645157 -0.0075136069 828.57453)
(-0.0074771944 -0.0074771944 828.57333)
(-0.0041338395 -0.0072523299 828.57181)
(2.0433429e-05 -0.0067665589 828.5717)
(-0.0020787469 -0.00069468201 828.57435)
(-0.0001747852 -0.0014770652 828.57368)
(0.0041231835 -0.003237189 828.57428)
(0.0012137093 -0.0037948576 828.57445)
(-0.0010352926 -0.0040792287 828.5743)
(-0.0032506558 -0.0042250772 828.57382)
(-0.005448008 -0.0042591564 828.57299)
(-0.0072523299 -0.0041338395 828.57181)
(-0.0035485208 -0.0035485208 828.57034)
(0.00029153552 -0.00060659882 828.57036)
(-0.0019456716 0.00079803554 828.57453)
(-0.00098791355 0.00093111085 828.57392)
(0.0028483597 0.00025594998 828.57427)
(0.00083846385 8.1228373e-05 828.57437)
(-0.001201215 5.7863648e-06 828.57418)
(-0.0033078031 -2.9386588e-05 828.57369)
(-0.005373278 -3.2311823e-05 828.57286)
(-0.0067665589 2.0433424e-05 828.5717)
(-0.00060659881 0.00029153552 828.57036)
(0.0019817147 0.0019817147 828.5714)
(-0.00372671 -0.00372671 822.71465)
(-9.8333622e-05 -0.00067636833 822.71391)
(0.0080989577 -0.00089671159 822.71498)
(0.0037259981 -0.00093331801 822.71544)
(0.00091097419 -0.00097424418 822.71554)
(-0.0016085001 -0.001045915 822.7153)
(-0.0037096224 -0.0011923716 822.71474)
(-0.0046403043 -0.0015374463 822.71392)
(-0.0010634276 -0.0022907938 822.71304)
(0.00084530462 -0.0021401392 822.71314)
(-0.00067636833 -9.8333624e-05 822.71391)
(0.0041466639 0.0041466639 822.71389)
(0.0077135332 0.0037103833 822.7149)
(0.0036096992 0.0035763042 822.71535)
(0.00074207874 0.003411369 822.71543)
(-0.0019356912 0.0031536266 822.71516)
(-0.0044469195 0.0027000001 822.71456)
(-0.0062879377 0.0017745248 822.71361)
(-0.0019674669 -0.00020380572 822.71244)
(0.0009959592 -0.0011127204 822.71259)
(-0.0008967116 0.0080989577 822.71498)
(0.0037103833 0.0077135332 822.7149)
(0.007528598 0.007528598 822.71588)
(0.0034269837 0.0073472145 822.71631)
(0.0004882966 0.0071150224 822.71636)
(-0.0023198689 0.0068004234 822.71606)
(-0.0050887242 0.006352399 822.7154)
(-0.0075441102 0.0056730406 822.71436)
(-0.0039506729 0.0044883043 822.71299)