/*--------------------------------*- C++ -*----------------------------------*\
| =========                 |                                                 |
| \\      /  F ield         | OpenFOAM: The Open Source CFD Toolbox           |
|  \\    /   O peration     | Version:  v2106                                 |
|   \\  /    A nd           | Website:  www.openfoam.com                      |
|    \\/     M anipulation  |                                                 |
\*---------------------------------------------------------------------------*/
FoamFile
{
    version     2.0;
    format      ascii;
    arch        "LSB;label=32;scalar=64";
    class       volScalarField;
    location    "50";
    object      laplacianT;
}
// * * * * * * * * * * * * * * * * * * * * * * * * * * * * * * * * * * * * * //

dimensions      [0 -2 0 1 0 0 0];

internalField   nonuniform List<scalar> 
4000
(
98505.969
98505.216
98504.743
98504.663
98504.638
98504.678
98504.785
98504.967
98505.235
98505.545
98505.216
98504.445
98504.118
98504.047
98504.025
98504.065
98504.167
98504.344
98504.627
98505.049
98504.743
98504.118
98503.806
98503.745
98503.728
98503.766
98503.861
98504.023
98504.28
98504.701
98504.663
98504.047
98503.745
98503.692
98503.676
98503.712
98503.802
98503.954
98504.196
98504.601
98504.638
98504.025
98503.728
98503.676
98503.66
98503.694
98503.78
98503.927
98504.163
98504.564
98504.678
98504.065
98503.766
98503.712
98503.694
98503.726
98503.81
98503.955
98504.19
98504.59
98504.785
98504.167
98503.861
98503.802
98503.78
98503.81
98503.893
98504.041
98504.279
98504.682
98504.967
98504.344
98504.023
98503.954
98503.927
98503.955
98504.041
98504.193
98504.441
98504.851
98505.235
98504.627
98504.28
98504.196
98504.163
98504.19
98504.279
98504.441
98504.703
98505.131
98505.545
98505.049
98504.701
98504.601
98504.564
98504.59
98504.682
98504.851
98505.131
98505.588
-5520.3407
-5514.2807
-5516.2489
-5516.1622
-5516.1534
-5516.158
-5516.1702
-5516.1901
-5516.2136
-5516.2791
-5514.2807
-5511.3172
-5512.6852
-5512.609
-5512.6018
-5512.6057
-5512.614
-5512.6146
-5512.5536
-5513.6954
-5516.2489
-5512.6852
-5514.0752
-5514.0032
-5513.9966
-5514.0006
-5514.0087
-5514.0028
-5513.8497
-5514.5191
-5516.1622
-5512.609
-5514.0032
-5513.9322
-5513.9259
-5513.9297
-5513.9377
-5513.9351
-5513.7961
-5514.4901
-5516.1534
-5512.6018
-5513.9966
-5513.9259
-5513.9195
-5513.923
-5513.9303
-5513.9268
-5513.7873
-5514.4828
-5516.158
-5512.6057
-5514.0006
-5513.9297
-5513.923
-5513.9262
-5513.9333
-5513.9295
-5513.7898
-5514.4852
-5516.1702
-5512.614
-5514.0087
-5513.9377
-5513.9303
-5513.9333
-5513.9404
-5513.9369
-5513.7975
-5514.4932
-5516.1901
-5512.6146
-5514.0028
-5513.9351
-5513.9268
-5513.9295
-5513.9369
-5513.934
-5513.7956
-5514.492
-5516.2136
-5512.5536
-5513.8497
-5513.7961
-5513.7873
-5513.7898
-5513.7975
-5513.7956
-5513.6585
-5514.3566
-5516.2791
-5513.6954
-5514.5191
-5514.4901
-5514.4828
-5514.4852
-5514.4932
-5514.492
-5514.3566
-5515.0905
-4972.4642
-4964.3694
-4967.2181
-4967.1033
-4967.0924
-4967.096
-4967.1038
-4967.1063
-4967.0586
-4968.366
-4964.3694
-4960.4895
-4962.494
-4962.392
-4962.383
-4962.3857
-4962.3861
-4962.337
-4961.9465
-4964.9677
-4967.2181
-4962.494
-4964.5239
-4964.427
-4964.4188
-4964.4218
-4964.4242
-4964.3747
-4963.8425
-4966.1111
-4967.1033
-4962.392
-4964.427
-4964.3311
-4964.323
-4964.3258
-4964.3283
-4964.2852
-4963.777
-4966.0807
-4967.0924
-4962.383
-4964.4188
-4964.323
-4964.3147
-4964.3171
-4964.3188
-4964.2748
-4963.7665
-4966.073
-4967.096
-4962.3857
-4964.4218
-4964.3258
-4964.3171
-4964.3192
-4964.3207
-4964.2763
-4963.7678
-4966.0743
-4967.1038
-4962.3861
-4964.4242
-4964.3283
-4964.3188
-4964.3207
-4964.3221
-4964.278
-4963.7697
-4966.0762
-4967.1063
-4962.337
-4964.3747
-4964.2852
-4964.2748
-4964.2763
-4964.278
-4964.2343
-4963.7262
-4966.0314
-4967.0586
-4961.9465
-4963.8425
-4963.777
-4963.7665
-4963.7678
-4963.7697
-4963.7262
-4963.2161
-4965.5147
-4968.366
-4964.9677
-4966.1111
-4966.0807
-4966.073
-4966.0743
-4966.0762
-4966.0314
-4965.5147
-4968.4745
-4520.1094
-4510.15
-4513.8008
-4513.6586
-4513.6457
-4513.6483
-4513.6507
-4513.6231
-4513.3826
-4515.5603
-4510.15
-4505.428
-4508.0091
-4507.8823
-4507.8716
-4507.8732
-4507.8668
-4507.7659
-4506.9467
-4511.4844
-4513.8008
-4508.0091
-4510.6196
-4510.4987
-4510.4888
-4510.4911
-4510.4882
-4510.3928
-4509.3816
-4512.9126
-4513.6586
-4507.8823
-4510.4987
-4510.3788
-4510.3689
-4510.3708
-4510.3683
-4510.2825
-4509.3045
-4512.8804
-4513.6457
-4507.8716
-4510.4888
-4510.3689
-4510.3589
-4510.3603
-4510.3568
-4510.27
-4509.2923
-4512.8723
-4513.6483
-4507.8732
-4510.4911
-4510.3708
-4510.3603
-4510.3613
-4510.3576
-4510.2704
-4509.2924
-4512.8725
-4513.6507
-4507.8668
-4510.4882
-4510.3683
-4510.3568
-4510.3576
-4510.3538
-4510.2667
-4509.2887
-4512.8679
-4513.6231
-4507.7659
-4510.3928
-4510.2825
-4510.27
-4510.2704
-4510.2667
-4510.1798
-4509.2002
-4512.7714
-4513.3826
-4506.9467
-4509.3816
-4509.3045
-4509.2923
-4509.2924
-4509.2887
-4509.2002
-4508.2081
-4511.7224
-4515.5603
-4511.4844
-4512.9126
-4512.8804
-4512.8723
-4512.8725
-4512.8679
-4512.7714
-4511.7224
-4516.7938
-4140.2087
-4128.6403
-4133.0329
-4132.8626
-4132.8473
-4132.849
-4132.8469
-4132.7928
-4132.3613
-4135.2605
-4128.6403
-4123.2511
-4126.3593
-4126.207
-4126.1945
-4126.1951
-4126.1823
-4126.0343
-4124.7945
-4130.606
-4133.0329
-4126.3593
-4129.5013
-4129.3558
-4129.3442
-4129.3456
-4129.3383
-4129.2018
-4127.7228
-4132.2948
-4132.8626
-4126.207
-4129.3558
-4129.2115
-4129.1998
-4129.2007
-4129.1938
-4129.0704
-4127.6334
-4132.2601
-4132.8473
-4126.1945
-4129.3442
-4129.1998
-4129.1878
-4129.1881
-4129.1801
-4129.0555
-4127.6193
-4132.2514
-4132.849
-4126.1951
-4129.3456
-4129.2007
-4129.1881
-4129.1881
-4129.1798
-4129.0548
-4127.6182
-4132.2503
-4132.8469
-4126.1823
-4129.3383
-4129.1938
-4129.1801
-4129.1798
-4129.1713
-4129.0464
-4127.6094
-4132.24
-4132.7928
-4126.0343
-4129.2018
-4129.0704
-4129.0555
-4129.0548
-4129.0464
-4128.9212
-4127.4807
-4132.0955
-4132.3613
-4124.7945
-4127.7228
-4127.6334
-4127.6193
-4127.6182
-4127.6094
-4127.4807
-4126.0159
-4130.5038
-4135.2605
-4130.606
-4132.2948
-4132.2601
-4132.2514
-4132.2503
-4132.24
-4132.0955
-4130.5038
-4137.4472
-3816.5037
-3803.5853
-3808.6566
-3808.4575
-3808.4396
-3808.4402
-3808.4336
-3808.3542
-3807.7383
-3811.2412
-3803.5853
-3797.6982
-3801.2827
-3801.1046
-3801.0899
-3801.0893
-3801.0705
-3800.8776
-3799.2343
-3806.1029
-3808.6566
-3801.2827
-3804.9054
-3804.7352
-3804.7215
-3804.722
-3804.7105
-3804.5359
-3802.6104
-3808.0276
-3808.4575
-3801.1046
-3804.7352
-3804.5662
-3804.5523
-3804.5522
-3804.5412
-3804.3829
-3802.5081
-3807.99
-3808.4396
-3801.0899
-3804.7215
-3804.5523
-3804.5381
-3804.5374
-3804.5251
-3804.3655
-3802.4918
-3807.9803
-3808.4402
-3801.0893
-3804.722
-3804.5522
-3804.5374
-3804.5363
-3804.5235
-3804.3635
-3802.4893
-3807.9779
-3808.4336
-3801.0705
-3804.7105
-3804.5412
-3804.5251
-3804.5235
-3804.5107
-3804.3506
-3802.4758
-3807.962
-3808.3542
-3800.8776
-3804.5359
-3804.3829
-3804.3655
-3804.3635
-3804.3506
-3804.1898
-3802.3097
-3807.7724
-3807.7383
-3799.2343
-3802.6104
-3802.5081
-3802.4918
-3802.4893
-3802.4758
-3802.3097
-3800.3933
-3805.6538
-3811.2412
-3806.1029
-3808.0276
-3807.99
-3807.9803
-3807.9779
-3807.962
-3807.7724
-3805.6538
-3814.2319
-3537.0978
-3523.0685
-3528.7534
-3528.5256
-3528.5049
-3528.5043
-3528.4934
-3528.3898
-3527.5974
-3531.5981
-3523.0685
-3516.8314
-3520.841
-3520.6371
-3520.6201
-3520.6183
-3520.5939
-3520.3586
-3518.3325
-3526.0631
-3528.7534
-3520.841
-3524.8935
-3524.6986
-3524.6827
-3524.6822
-3524.6668
-3524.457
-3522.1107
-3528.199
-3528.5256
-3520.6371
-3524.6986
-3524.505
-3524.4888
-3524.4877
-3524.473
-3524.2825
-3521.9953
-3528.1579
-3528.5049
-3520.6201
-3524.6827
-3524.4888
-3524.4723
-3524.4704
-3524.4542
-3524.2624
-3521.9765
-3528.1471
-3528.5043
-3520.6183
-3524.6822
-3524.4877
-3524.4704
-3524.4682
-3524.4514
-3524.2591
-3521.9727
-3528.1433
-3528.4934
-3520.5939
-3524.6668
-3524.473
-3524.4542
-3524.4514
-3524.4345
-3524.242
-3521.9547
-3528.1222
-3528.3898
-3520.3586
-3524.457
-3524.2825
-3524.2624
-3524.2591
-3524.242
-3524.0484
-3521.7539
-3527.8902
-3527.5974
-3518.3325
-3522.1107
-3521.9953
-3521.9765
-3521.9727
-3521.9547
-3521.7539
-3519.4114
-3525.2686
-3531.5981
-3526.0631
-3528.199
-3528.1579
-3528.1471
-3528.1433
-3528.1222
-3527.8902
-3525.2686
-3535.2576
-3293.0919
-3278.1712
-3284.4034
-3284.1476
-3284.1238
-3284.1221
-3284.1072
-3283.9807
-3283.0213
-3287.4243
-3278.1712
-3271.7122
-3276.096
-3275.867
-3275.8474
-3275.8445
-3275.8149
-3275.5401
-3273.1552
-3281.5726
-3284.4034
-3276.096
-3280.5274
-3280.3085
-3280.2901
-3280.2888
-3280.27
-3280.0279
-3277.2895
-3283.8949
-3284.1476
-3275.867
-3280.3085
-3280.0909
-3280.0723
-3280.0702
-3280.0521
-3279.8324
-3277.161
-3283.85
-3284.1238
-3275.8474
-3280.2901
-3280.0723
-3280.0533
-3280.0504
-3280.0306
-3279.8094
-3277.1397
-3283.8379
-3284.1221
-3275.8445
-3280.2888
-3280.0702
-3280.0504
-3280.047
-3280.0267
-3279.8049
-3277.1345
-3283.8328
-3284.1072
-3275.8149
-3280.27
-3280.0521
-3280.0306
-3280.0267
-3280.0061
-3279.784
-3277.1125
-3283.8069
-3283.9807
-3275.5401
-3280.0279
-3279.8324
-3279.8094
-3279.8049
-3279.784
-3279.5604
-3276.8799
-3283.5354
-3283.0213
-3273.1552
-3277.2895
-3277.161
-3277.1397
-3277.1345
-3277.1125
-3276.8799
-3274.1399
-3280.4396
-3287.4243
-3281.5726
-3283.8949
-3283.85
-3283.8379
-3283.8328
-3283.8069
-3283.5354
-3280.4396
-3291.6313
-3077.7174
-3062.1067
-3068.8197
-3068.5368
-3068.51
-3068.5071
-3068.4885
-3068.3406
-3067.225
-3071.9444
-3062.1067
-3055.5362
-3060.2441
-3059.9909
-3059.9689
-3059.9648
-3059.9304
-3059.6193
-3056.9019
-3065.849
-3068.8197
-3060.2441
-3065.0042
-3064.7621
-3064.7414
-3064.7392
-3064.7174
-3064.4462
-3061.3467
-3068.333
-3068.5368
-3059.9909
-3064.7621
-3064.5216
-3064.5006
-3064.4975
-3064.4764
-3064.2304
-3061.2054
-3068.2842
-3068.51
-3059.9689
-3064.7414
-3064.5006
-3064.4791
-3064.4752
-3064.4522
-3064.2046
-3061.1816
-3068.2708
-3068.5071
-3059.9648
-3064.7392
-3064.4975
-3064.4752
-3064.4708
-3064.4472
-3064.1989
-3061.1751
-3068.2645
-3068.4885
-3059.9304
-3064.7174
-3064.4764
-3064.4522
-3064.4472
-3064.4234
-3064.1747
-3061.1495
-3068.2342
-3068.3406
-3059.6193
-3064.4462
-3064.2304
-3064.2046
-3064.1989
-3064.1747
-3063.9241
-3060.888
-3067.9265
-3067.225
-3056.9019
-3061.3467
-3061.2054
-3061.1816
-3061.1751
-3061.1495
-3060.888
-3057.7813
-3064.3886
-3071.9444
-3065.849
-3068.333
-3068.2842
-3068.2708
-3068.2645
-3068.2342
-3067.9265
-3064.3886
-3076.5897
-2885.7508
-2869.6344
-2876.7617
-2876.4531
-2876.4234
-2876.4194
-2876.3974
-2876.2298
-2874.9697
-2879.9283
-2869.6344
-2863.0472
-2868.0299
-2867.754
-2867.7295
-2867.7243
-2867.6857
-2867.3415
-2864.3196
-2873.656
-2876.7617
-2868.0299
-2873.0692
-2872.8055
-2872.7824
-2872.7794
-2872.755
-2872.4579
-2869.0298
-2876.2772
-2876.4531
-2867.754
-2872.8055
-2872.5434
-2872.52
-2872.516
-2872.4923
-2872.223
-2868.8764
-2876.2246
-2876.4234
-2867.7295
-2872.7824
-2872.52
-2872.4961
-2872.4912
-2872.4655
-2872.1945
-2868.8501
-2876.2099
-2876.4194
-2867.7243
-2872.7794
-2872.516
-2872.4912
-2872.4858
-2872.4595
-2872.1877
-2868.8424
-2876.2024
-2876.3974
-2867.6857
-2872.755
-2872.4923
-2872.4655
-2872.4595
-2872.4329
-2872.1606
-2868.8136
-2876.1682
-2876.2298
-2867.3415
-2872.4579
-2872.223
-2872.1945
-2872.1877
-2872.1606
-2871.8859
-2868.5264
-2875.8277
-2874.9697
-2864.3196
-2869.0298
-2868.8764
-2868.8501
-2868.8424
-2868.8136
-2868.5264
-2865.0857
-2871.8827
-2879.9283
-2873.656
-2876.2772
-2876.2246
-2876.2099
-2876.2024
-2876.1682
-2875.8277
-2871.8827
-2884.9138
-2713.1086
-2696.6547
-2704.1305
-2703.7982
-2703.7656
-2703.7607
-2703.7355
-2703.55
-2702.1579
-2707.2863
-2696.6547
-2690.1314
-2695.3411
-2695.0442
-2695.0173
-2695.0112
-2694.9688
-2694.595
-2691.2979
-2700.8981
-2704.1305
-2695.3411
-2700.6116
-2700.3277
-2700.3024
-2700.2986
-2700.272
-2699.9523
-2696.2293
-2703.6326
-2703.7982
-2695.0442
-2700.3277
-2700.0456
-2700.02
-2700.0151
-2699.9893
-2699.6997
-2696.0646
-2703.5763
-2703.7656
-2695.0173
-2700.3024
-2700.02
-2699.9938
-2699.9881
-2699.96
-2699.6685
-2696.0359
-2703.5603
-2703.7607
-2695.0112
-2700.2986
-2700.0151
-2699.9881
-2699.9818
-2699.9531
-2699.6608
-2696.0271
-2703.5518
-2703.7355
-2694.9688
-2700.272
-2699.9893
-2699.96
-2699.9531
-2699.9241
-2699.6312
-2695.9955
-2703.5141
-2703.55
-2694.595
-2699.9523
-2699.6997
-2699.6685
-2699.6608
-2699.6312
-2699.3355
-2695.6858
-2703.1443
-2702.1579
-2691.2979
-2696.2293
-2696.0646
-2696.0359
-2696.0271
-2695.9955
-2695.6858
-2691.9447
-2698.8292
-2707.2863
-2700.8981
-2703.6326
-2703.5763
-2703.5603
-2703.5518
-2703.5141
-2703.1443
-2698.8292
-2712.5244
-2556.5621
-2539.9243
-2547.6838
-2547.3298
-2547.2946
-2547.2887
-2547.2608
-2547.0592
-2545.5482
-2550.7843
-2539.9243
-2533.5329
-2538.9231
-2538.607
-2538.578
-2538.5709
-2538.5253
-2538.1254
-2534.5835
-2544.3358
-2547.6838
-2538.9231
-2544.3779
-2544.0758
-2544.0484
-2544.0439
-2544.0156
-2543.6763
-2539.693
-2547.1601
-2547.3298
-2538.607
-2544.0758
-2543.7756
-2543.7478
-2543.7422
-2543.7146
-2543.4076
-2539.5179
-2547.1003
-2547.2946
-2538.578
-2544.0484
-2543.7478
-2543.7196
-2543.713
-2543.683
-2543.3741
-2539.487
-2547.0831
-2547.2887
-2538.5709
-2544.0439
-2543.7422
-2543.713
-2543.7059
-2543.6753
-2543.3654
-2539.4772
-2547.0736
-2547.2608
-2538.5253
-2544.0156
-2543.7146
-2543.683
-2543.6753
-2543.6442
-2543.3337
-2539.4433
-2547.0331
-2547.0592
-2538.1254
-2543.6763
-2543.4076
-2543.3741
-2543.3654
-2543.3337
-2543.0201
-2539.114
-2546.6375
-2545.5482
-2534.5835
-2539.693
-2539.5179
-2539.487
-2539.4772
-2539.4433
-2539.114
-2535.1073
-2541.9908
-2550.7843
-2544.3358
-2547.1601
-2547.1003
-2547.0831
-2547.0736
-2547.0331
-2546.6375
-2541.9908
-2556.1965
-2413.5333
-2396.8509
-2404.8308
-2404.4575
-2404.4199
-2404.4131
-2404.3828
-2404.1669
-2402.5506
-2407.839
-2396.8509
-2390.6481
-2396.1739
-2395.8409
-2395.8098
-2395.802
-2395.7536
-2395.3312
-2391.5754
-2401.3805
-2404.8308
-2396.1739
-2401.7678
-2401.4496
-2401.4202
-2401.4152
-2401.3854
-2401.0298
-2396.821
-2404.272
-2404.4575
-2395.8409
-2401.4496
-2401.1333
-2401.1036
-2401.0974
-2401.0683
-2400.7468
-2396.6367
-2404.209
-2404.4199
-2395.8098
-2401.4202
-2401.1036
-2401.0734
-2401.0662
-2401.0346
-2400.7111
-2396.6037
-2404.1907
-2404.4131
-2395.802
-2401.4152
-2401.0974
-2401.0662
-2401.0584
-2401.0261
-2400.7017
-2396.5931
-2404.1804
-2404.3828
-2395.7536
-2401.3854
-2401.0683
-2401.0346
-2401.0261
-2400.9934
-2400.6683
-2396.5572
-2404.1373
-2404.1669
-2395.3312
-2401.0298
-2400.7468
-2400.7111
-2400.7017
-2400.6683
-2400.3397
-2396.2116
-2403.7196
-2402.5506
-2391.5754
-2396.821
-2396.6367
-2396.6037
-2396.5931
-2396.5572
-2396.2116
-2391.9743
-2398.7809
-2407.839
-2401.3805
-2404.272
-2404.209
-2404.1907
-2404.1804
-2404.1373
-2403.7196
-2398.7809
-2413.3555
-2281.945
-2265.3444
-2273.4832
-2273.0931
-2273.0533
-2273.0458
-2273.0135
-2272.7852
-2271.0774
-2276.3686
-2265.3444
-2259.3768
-2264.9951
-2264.6475
-2264.6146
-2264.6061
-2264.5554
-2264.1141
-2260.1757
-2269.9459
-2273.4832
-2264.9951
-2270.6847
-2270.3525
-2270.3215
-2270.3159
-2270.2851
-2269.9163
-2265.5169
-2272.8826
-2273.0931
-2264.6475
-2270.3525
-2270.0224
-2269.991
-2269.9842
-2269.954
-2269.6209
-2265.3245
-2272.8167
-2273.0533
-2264.6146
-2270.3215
-2269.991
-2269.9591
-2269.9513
-2269.9185
-2269.5833
-2265.2897
-2272.7974
-2273.0458
-2264.6061
-2270.3159
-2269.9842
-2269.9513
-2269.9429
-2269.9094
-2269.5732
-2265.2784
-2272.7864
-2273.0135
-2264.5554
-2270.2851
-2269.954
-2269.9185
-2269.9094
-2269.8754
-2269.5384
-2265.241
-2272.7413
-2272.7852
-2264.1141
-2269.9163
-2269.6209
-2269.5833
-2269.5732
-2269.5384
-2269.1978
-2264.8821
-2272.305
-2271.0774
-2260.1757
-2265.5169
-2265.3245
-2265.2897
-2265.2784
-2265.241
-2264.8821
-2260.4495
-2267.1147
-2276.3686
-2269.9459
-2272.8826
-2272.8167
-2272.7974
-2272.7864
-2272.7413
-2272.305
-2267.1147
-2281.9278
-2160.1116
-2143.7066
-2151.9447
-2151.5405
-2151.4989
-2151.4907
-2151.4566
-2151.2179
-2149.4325
-2154.683
-2143.7066
-2138.0116
-2143.6813
-2143.3215
-2143.2871
-2143.278
-2143.2254
-2142.7688
-2138.6792
-2148.3374
-2151.9447
-2143.6813
-2149.4249
-2149.0811
-2149.0486
-2149.0426
-2149.011
-2148.6321
-2144.0771
-2151.298
-2151.5405
-2143.3215
-2149.0811
-2148.7395
-2148.7066
-2148.6993
-2148.6683
-2148.3264
-2143.8779
-2151.2297
-2151.4989
-2143.2871
-2149.0486
-2148.7066
-2148.6732
-2148.6649
-2148.6311
-2148.2871
-2143.8415
-2151.2096
-2151.4907
-2143.278
-2149.0426
-2148.6993
-2148.6649
-2148.656
-2148.6215
-2148.2765
-2143.8296
-2151.198
-2151.4566
-2143.2254
-2149.011
-2148.6683
-2148.6311
-2148.6215
-2148.5866
-2148.2407
-2143.7909
-2151.1512
-2151.2179
-2142.7688
-2148.6321
-2148.3264
-2148.2871
-2148.2765
-2148.2407
-2147.8908
-2143.4218
-2150.7
-2149.4325
-2138.6792
-2144.0771
-2143.8779
-2143.8415
-2143.8296
-2143.7909
-2143.4218
-2138.8289
-2145.2987
-2154.683
-2148.3374
-2151.298
-2151.2297
-2151.2096
-2151.198
-2151.1512
-2150.7
-2145.2987
-2160.2304
-2046.6553
-2030.5484
-2038.8283
-2038.4129
-2038.3697
-2038.3609
-2038.3254
-2038.0782
-2036.2292
-2041.4005
-2030.5484
-2025.1553
-2030.8371
-2030.4677
-2030.4319
-2030.4223
-2030.3684
-2029.9
-2025.6903
-2035.1691
-2038.8283
-2030.8371
-2036.595
-2036.242
-2036.2082
-2036.2019
-2036.1698
-2035.7838
-2031.1076
-2038.1335
-2038.4129
-2030.4677
-2036.242
-2035.8913
-2035.8572
-2035.8494
-2035.8179
-2035.4699
-2030.903
-2038.0632
-2038.3697
-2030.4319
-2036.2082
-2035.8572
-2035.8226
-2035.8138
-2035.7794
-2035.4292
-2030.8653
-2038.0423
-2038.3609
-2030.4223
-2036.2019
-2035.8494
-2035.8138
-2035.8045
-2035.7694
-2035.4181
-2030.8528
-2038.0303
-2038.3254
-2030.3684
-2036.1698
-2035.8179
-2035.7794
-2035.7694
-2035.7338
-2035.3816
-2030.8134
-2037.9823
-2038.0782
-2029.9
-2035.7838
-2035.4699
-2035.4292
-2035.4181
-2035.3816
-2035.0253
-2030.4368
-2037.5196
-2036.2292
-2025.6903
-2031.1076
-2030.903
-2030.8653
-2030.8528
-2030.8134
-2030.4368
-2025.7186
-2031.9481
-2041.4005
-2035.1691
-2038.1335
-2038.0632
-2038.0423
-2038.0303
-2037.9823
-2037.5196
-2031.9481
-2046.8886
-1940.4442
-1924.7268
-1932.9935
-1932.5698
-1932.5254
-1932.5161
-1932.4795
-1932.2258
-1930.327
-1935.3854
-1924.7268
-1919.6575
-1925.3143
-1924.9378
-1924.901
-1924.891
-1924.8362
-1924.3595
-1920.0605
-1929.3014
-1932.9935
-1925.3143
-1931.0488
-1930.6891
-1930.6544
-1930.6477
-1930.6155
-1930.2252
-1925.4616
-1932.2503
-1932.5698
-1924.9378
-1930.6891
-1930.3317
-1930.2967
-1930.2886
-1930.2567
-1929.9053
-1925.253
-1932.1785
-1932.5254
-1924.901
-1930.6544
-1930.2967
-1930.2611
-1930.252
-1930.2172
-1929.8634
-1925.2143
-1932.157
-1932.5161
-1924.891
-1930.6477
-1930.2886
-1930.252
-1930.2424
-1930.2069
-1929.8521
-1925.2015
-1932.1446
-1932.4795
-1924.8362
-1930.6155
-1930.2567
-1930.2172
-1930.2069
-1930.171
-1929.8152
-1925.1615
-1932.0959
-1932.2258
-1924.3595
-1930.2252
-1929.9053
-1929.8634
-1929.8521
-1929.8152
-1929.4551
-1924.7803
-1931.6252
-1930.327
-1920.0605
-1925.4616
-1925.253
-1925.2143
-1925.2015
-1925.1615
-1924.7803
-1919.971
-1925.9238
-1935.3854
-1929.3014
-1932.2503
-1932.1785
-1932.157
-1932.1446
-1932.0959
-1931.6252
-1925.9238
-1940.7729
-1840.5437
-1825.297
-1833.498
-1833.069
-1833.0236
-1833.014
-1832.9765
-1832.7181
-1830.7834
-1835.6998
-1825.297
-1820.5669
-1826.1636
-1825.7827
-1825.7451
-1825.7348
-1825.6795
-1825.198
-1820.84
-1829.7928
-1833.498
-1826.1636
-1831.8391
-1831.4752
-1831.4397
-1831.4328
-1831.4007
-1831.0088
-1826.1912
-1832.7078
-1833.069
-1825.7827
-1831.4752
-1831.1136
-1831.0779
-1831.0695
-1831.0377
-1830.6852
-1825.98
-1832.635
-1833.0236
-1825.7451
-1831.4397
-1831.0779
-1831.0415
-1831.0322
-1830.9974
-1830.6426
-1825.9405
-1832.6131
-1833.014
-1825.7348
-1831.4328
-1831.0695
-1831.0322
-1831.0224
-1830.9868
-1830.6309
-1825.9274
-1832.6004
-1832.9765
-1825.6795
-1831.4007
-1831.0377
-1830.9974
-1830.9868
-1830.9508
-1830.5939
-1825.8872
-1832.5512
-1832.7181
-1825.198
-1831.0088
-1830.6852
-1830.6426
-1830.6309
-1830.5939
-1830.2326
-1825.5042
-1832.076
-1830.7834
-1820.84
-1826.1912
-1825.98
-1825.9405
-1825.9274
-1825.8872
-1825.5042
-1820.6374
-1826.2847
-1835.6998
-1829.7928
-1832.7078
-1832.635
-1832.6131
-1832.6004
-1832.5512
-1832.076
-1826.2847
-1840.9512
-1746.1793
-1731.4747
-1739.5601
-1739.1288
-1739.0829
-1739.0729
-1739.0349
-1738.7738
-1736.8166
-1741.5657
-1731.4747
-1727.0934
-1732.5971
-1732.2144
-1732.1762
-1732.1658
-1732.1104
-1731.6273
-1727.24
-1735.8618
-1739.5601
-1732.5971
-1738.18
-1737.8144
-1737.7784
-1737.7714
-1737.7395
-1737.3489
-1732.5093
-1738.7258
-1739.1288
-1732.2144
-1737.8144
-1737.4512
-1737.415
-1737.4064
-1737.3748
-1737.0237
-1732.2971
-1738.6524
-1739.0829
-1732.1762
-1737.7784
-1737.415
-1737.3782
-1737.3687
-1737.3341
-1736.9806
-1732.2571
-1738.6303
-1739.0729
-1732.1658
-1737.7714
-1737.4064
-1737.3687
-1737.3587
-1737.3234
-1736.9688
-1732.2438
-1738.6175
-1739.0349
-1732.1104
-1737.7395
-1737.3748
-1737.3341
-1737.3234
-1737.2876
-1736.932
-1732.2038
-1738.5682
-1738.7738
-1731.6273
-1737.3489
-1737.0237
-1736.9806
-1736.9688
-1736.932
-1736.5718
-1731.8215
-1738.0917
-1736.8166
-1727.24
-1732.5093
-1732.2971
-1732.2571
-1732.2438
-1732.2038
-1731.8215
-1726.9298
-1732.2496
-1741.5657
-1735.8618
-1738.7258
-1738.6524
-1738.6303
-1738.6175
-1738.5682
-1738.0917
-1732.2496
-1746.651
-1656.707
-1642.6069
-1650.5298
-1650.0992
-1650.0529
-1650.0427
-1650.0046
-1649.7424
-1647.7761
-1652.3365
-1642.6069
-1638.5788
-1643.9587
-1643.5768
-1643.5384
-1643.5278
-1643.4728
-1642.9914
-1638.6034
-1646.8587
-1650.5298
-1643.9587
-1649.4176
-1649.0529
-1649.0167
-1649.0095
-1648.9783
-1648.5913
-1643.7611
-1649.6553
-1650.0992
-1643.5768
-1649.0529
-1648.6906
-1648.6541
-1648.6454
-1648.6143
-1648.2668
-1643.5492
-1649.582
-1650.0529
-1643.5384
-1649.0167
-1648.6541
-1648.6171
-1648.6075
-1648.5734
-1648.2234
-1643.509
-1649.5597
-1650.0427
-1643.5278
-1649.0095
-1648.6454
-1648.6075
-1648.5975
-1648.5626
-1648.2116
-1643.4956
-1649.5469
-1650.0046
-1643.4728
-1648.9783
-1648.6143
-1648.5734
-1648.5626
-1648.5272
-1648.1753
-1643.456
-1649.4979
-1649.7424
-1642.9914
-1648.5913
-1648.2668
-1648.2234
-1648.2116
-1648.1753
-1647.8186
-1643.0769
-1649.0232
-1647.7761
-1638.6034
-1643.7611
-1643.5492
-1643.509
-1643.4956
-1643.456
-1643.0769
-1638.192
-1643.1687
-1652.3365
-1646.8587
-1649.6553
-1649.582
-1649.5597
-1649.5469
-1649.4979
-1649.0232
-1643.1687
-1657.2305
-1571.5906
-1558.1488
-1565.865
-1565.438
-1565.3917
-1565.3814
-1565.3433
-1565.082
-1563.1193
-1567.4732
-1558.1488
-1554.4736
-1559.7011
-1559.3226
-1559.2843
-1559.2737
-1559.2194
-1558.7428
-1554.382
-1562.2411
-1565.865
-1559.7011
-1565.0069
-1564.6455
-1564.6093
-1564.6022
-1564.5716
-1564.1907
-1559.3999
-1564.9555
-1565.438
-1559.3226
-1564.6455
-1564.2865
-1564.2501
-1564.2414
-1564.2109
-1563.8691
-1559.1899
-1564.8826
-1565.3917
-1559.2843
-1564.6093
-1564.2501
-1564.2131
-1564.2035
-1564.17
-1563.8259
-1559.1498
-1564.8604
-1565.3814
-1559.2737
-1564.6022
-1564.2414
-1564.2035
-1564.1935
-1564.1593
-1563.8141
-1559.1364
-1564.8476
-1565.3433
-1559.2194
-1564.5716
-1564.2109
-1564.17
-1564.1593
-1564.1246
-1563.7784
-1559.0974
-1564.7993
-1565.082
-1558.7428
-1564.1907
-1563.8691
-1563.8259
-1563.8141
-1563.7784
-1563.4275
-1558.724
-1564.3295
-1563.1193
-1554.382
-1559.3999
-1559.1899
-1559.1498
-1559.1364
-1559.0974
-1558.724
-1553.8764
-1558.4997
-1567.4732
-1562.2411
-1564.9555
-1564.8826
-1564.8604
-1564.8476
-1564.7993
-1564.3295
-1558.4997
-1572.1552
-1490.3829
-1477.645
-1485.1132
-1484.6928
-1484.6469
-1484.6366
-1484.5988
-1484.34
-1482.3934
-1486.526
-1477.645
-1474.3184
-1479.3671
-1478.9947
-1478.9566
-1478.9461
-1478.8928
-1478.424
-1474.1172
-1481.5567
-1485.1132
-1479.3671
-1484.4929
-1484.1372
-1484.1013
-1484.0941
-1484.0645
-1483.6919
-1478.9693
-1484.1747
-1484.6928
-1478.9947
-1484.1372
-1483.784
-1483.7478
-1483.7391
-1483.7094
-1483.3754
-1478.7627
-1484.1029
-1484.6469
-1478.9566
-1484.1013
-1483.7478
-1483.7112
-1483.7016
-1483.669
-1483.3326
-1478.7229
-1484.0809
-1484.6366
-1478.9461
-1484.0941
-1483.7391
-1483.7016
-1483.6917
-1483.6584
-1483.321
-1478.7097
-1484.0682
-1484.5988
-1478.8928
-1484.0645
-1483.7094
-1483.669
-1483.6584
-1483.6246
-1483.2862
-1478.6716
-1484.0209
-1484.34
-1478.424
-1483.6919
-1483.3754
-1483.3326
-1483.321
-1483.2862
-1482.9431
-1478.306
-1483.5589
-1482.3934
-1474.1172
-1478.9693
-1478.7627
-1478.7229
-1478.7097
-1478.6716
-1478.306
-1473.5249
-1477.7897
-1486.526
-1481.5567
-1484.1747
-1484.1029
-1484.0809
-1484.0682
-1484.0209
-1483.5589
-1477.7897
-1490.9795
-1412.7109
-1400.7148
-1407.8969
-1407.4859
-1407.4407
-1407.4304
-1407.3932
-1407.1386
-1405.22
-1409.1196
-1400.7148
-1397.7291
-1402.5748
-1402.2108
-1402.1733
-1402.1629
-1402.111
-1401.6529
-1397.4255
-1404.4273
-1407.8969
-1402.5748
-1407.4956
-1407.1481
-1407.1127
-1407.1056
-1407.0771
-1406.715
-1402.088
-1406.936
-1407.4859
-1402.2108
-1407.1481
-1406.8029
-1406.7673
-1406.7587
-1406.73
-1406.4057
-1401.8861
-1406.8658
-1407.4407
-1402.1733
-1407.1127
-1406.7673
-1406.7312
-1406.7218
-1406.6902
-1406.3635
-1401.8468
-1406.8441
-1407.4304
-1402.1629
-1407.1056
-1406.7587
-1406.7218
-1406.712
-1406.6797
-1406.3521
-1401.8339
-1406.8317
-1407.3932
-1402.111
-1407.0771
-1406.73
-1406.6902
-1406.6797
-1406.6471
-1406.3184
-1401.7969
-1406.7856
-1407.1386
-1401.6529
-1406.715
-1406.4057
-1406.3635
-1406.3521
-1406.3184
-1405.9851
-1401.4413
-1406.3342
-1405.22
-1397.4255
-1402.088
-1401.8861
-1401.8468
-1401.8339
-1401.7969
-1401.4413
-1396.7546
-1400.6601
-1409.1196
-1404.4273
-1406.936
-1406.8658
-1406.8441
-1406.8317
-1406.7856
-1406.3342
-1400.6601
-1413.332
-1338.2636
-1327.0402
-1333.9009
-1333.5021
-1333.4579
-1333.4477
-1333.4114
-1333.1626
-1331.2833
-1334.941
-1327.0402
-1324.3843
-1329.0051
-1328.6519
-1328.6152
-1328.605
-1328.5549
-1328.1101
-1323.9865
-1330.5373
-1333.9009
-1329.0051
-1333.6984
-1333.3612
-1333.3265
-1333.3196
-1333.2924
-1332.9427
-1328.4373
-1332.925
-1333.5021
-1328.6519
-1333.3612
-1333.0264
-1332.9915
-1332.9831
-1332.9556
-1332.6427
-1328.2415
-1332.8569
-1333.4579
-1328.6152
-1333.3265
-1332.9915
-1332.9562
-1332.947
-1332.9167
-1332.6015
-1328.2032
-1332.8357
-1333.4477
-1328.605
-1333.3196
-1332.9831
-1332.947
-1332.9374
-1332.9065
-1332.5903
-1328.1905
-1332.8237
-1333.4114
-1328.5549
-1333.2924
-1332.9556
-1332.9167
-1332.9065
-1332.8751
-1332.558
-1328.1549
-1332.7791
-1333.1626
-1328.1101
-1332.9427
-1332.6427
-1332.6015
-1332.5903
-1332.558
-1332.2362
-1327.8113
-1332.3409
-1331.2833
-1323.9865
-1328.4373
-1328.2415
-1328.2032
-1328.1905
-1328.1549
-1327.8113
-1323.2453
-1326.7947
-1334.941
-1330.5373
-1332.925
-1332.8569
-1332.8357
-1332.8237
-1332.7791
-1332.3409
-1326.7947
-1338.9031
-1266.7823
-1256.3557
-1262.8629
-1262.4789
-1262.436
-1262.426
-1262.3908
-1262.1492
-1260.3203
-1263.7294
-1256.3557
-1254.016
-1258.3919
-1258.0519
-1258.0162
-1258.0063
-1257.9582
-1257.5293
-1253.5325
-1259.6237
-1262.8629
-1258.3919
-1262.8373
-1262.5127
-1262.479
-1262.4722
-1262.4464
-1262.111
-1257.7517
-1261.8797
-1262.4789
-1258.0519
-1262.5127
-1262.1904
-1262.1565
-1262.1483
-1262.1221
-1261.8222
-1257.5634
-1261.8142
-1262.436
-1258.0162
-1262.479
-1262.1565
-1262.1222
-1262.1132
-1262.0843
-1261.7823
-1257.5262
-1261.7937
-1262.426
-1258.0063
-1262.4722
-1262.1483
-1262.1132
-1262.104
-1262.0745
-1261.7715
-1257.5139
-1261.782
-1262.3908
-1257.9582
-1262.4464
-1262.1221
-1262.0843
-1262.0745
-1262.0445
-1261.7406
-1257.4799
-1261.7392
-1262.1492
-1257.5293
-1262.111
-1261.8222
-1261.7823
-1261.7715
-1261.7406
-1261.4322
-1257.15
-1261.3167
-1260.3203
-1253.5325
-1257.7517
-1257.5634
-1257.5262
-1257.5139
-1257.4799
-1257.15
-1252.7299
-1255.9297
-1263.7294
-1259.6237
-1261.8797
-1261.8142
-1261.7937
-1261.782
-1261.7392
-1261.3167
-1255.9297
-1267.4352
-1198.0523
-1188.4401
-1194.5649
-1194.1983
-1194.1569
-1194.1472
-1194.1134
-1193.8804
-1192.112
-1195.2685
-1188.4401
-1186.4008
-1190.5142
-1190.1896
-1190.1552
-1190.1456
-1190.0998
-1189.6891
-1185.8407
-1191.4676
-1194.5649
-1190.5142
-1194.6934
-1194.3835
-1194.351
-1194.3444
-1194.3201
-1194.0007
-1189.8103
-1193.5825
-1194.1983
-1190.1896
-1194.3835
-1194.0758
-1194.0431
-1194.0351
-1194.0104
-1193.7251
-1189.6308
-1193.5201
-1194.1569
-1190.1552
-1194.351
-1194.0431
-1194.01
-1194.0014
-1193.974
-1193.6866
-1189.595
-1193.5004
-1194.1472
-1190.1456
-1194.3444
-1194.0351
-1194.0014
-1193.9925
-1193.9646
-1193.6762
-1189.5832
-1193.4892
-1194.1134
-1190.0998
-1194.3201
-1194.0104
-1193.974
-1193.9646
-1193.9363
-1193.647
-1189.5509
-1193.4485
-1193.8804
-1189.6891
-1194.0007
-1193.7251
-1193.6866
-1193.6762
-1193.647
-1193.3534
-1189.2365
-1193.0438
-1192.112
-1185.8407
-1189.8103
-1189.6308
-1189.595
-1189.5832
-1189.5509
-1189.2365
-1184.9855
-1187.8456
-1195.2685
-1191.4676
-1193.5825
-1193.5201
-1193.5004
-1193.4892
-1193.4485
-1193.0438
-1187.8456
-1198.7148
-1131.8962
-1123.1103
-1128.8266
-1128.4799
-1128.4403
-1128.4309
-1128.3986
-1128.1757
-1126.4774
-1129.3792
-1123.1103
-1121.3535
-1125.1888
-1124.8816
-1124.8486
-1124.8395
-1124.7963
-1124.406
-1120.7262
-1125.888
-1128.8266
-1125.1888
-1129.0857
-1128.7925
-1128.7613
-1128.755
-1128.7324
-1128.4305
-1124.4304
-1127.8534
-1128.4799
-1124.8816
-1128.7925
-1128.5013
-1128.47
-1128.4624
-1128.4393
-1128.1698
-1124.2608
-1127.7945
-1128.4403
-1124.8486
-1128.7613
-1128.47
-1128.4384
-1128.4301
-1128.4045
-1128.1331
-1124.2266
-1127.7757
-1128.4309
-1124.8395
-1128.755
-1128.4624
-1128.4301
-1128.4216
-1128.3955
-1128.1232
-1124.2154
-1127.7651
-1128.3986
-1124.7963
-1128.7324
-1128.4393
-1128.4045
-1128.3955
-1128.3689
-1128.0958
-1124.1851
-1127.7266
-1128.1757
-1124.406
-1128.4305
-1128.1698
-1128.1331
-1128.1232
-1128.0958
-1127.8185
-1123.8877
-1127.3421
-1126.4774
-1120.7262
-1124.4304
-1124.2608
-1124.2266
-1124.2154