/*--------------------------------*- C++ -*----------------------------------*\
| =========                 |                                                 |
| \\      /  F ield         | OpenFOAM: The Open Source CFD Toolbox           |
|  \\    /   O peration     | Version:  v2106                                 |
|   \\  /    A nd           | Website:  www.openfoam.com                      |
|    \\/     M anipulation  |                                                 |
\*---------------------------------------------------------------------------*/
FoamFile
{
    version     2.0;
    format      ascii;
    arch        "LSB;label=32;scalar=64";
    class       volVectorField;
    location    "10";
    object      flux;
}
// * * * * * * * * * * * * * * * * * * * * * * * * * * * * * * * * * * * * * //

dimensions      [0 1 -1 1 0 0 0];

internalField   nonuniform List<vector> 
4000
(
(-1.6774788e-08 -1.6774788e-08 0.14438378)
(-3.2123667e-07 -2.8030475e-07 0.14438367)
(2.1562372e-07 5.7257449e-08 0.14438263)
(5.6789488e-07 -1.7008184e-08 0.14438492)
(2.6382277e-09 -4.3442499e-08 0.14438522)
(-1.2664224e-07 -4.9397494e-08 0.14438497)
(-1.4943717e-07 -5.3056713e-08 0.14438459)
(-1.4211616e-07 -5.8448327e-08 0.14438418)
(-1.0446571e-07 -5.5884786e-08 0.14438383)
(-2.5801944e-08 -2.9451668e-08 0.1443836)
(-2.8030475e-07 -3.2123667e-07 0.14438367)
(-2.1018831e-07 -2.1018831e-07 0.14438232)
(6.1056856e-07 2.010232e-07 0.14438319)
(4.1684496e-07 4.2150079e-08 0.14438503)
(-4.5945737e-08 -1.0374877e-08 0.14438516)
(-1.4106356e-07 -2.3193184e-08 0.14438486)
(-1.6301342e-07 -3.7420578e-08 0.14438445)
(-1.4635827e-07 -7.0284581e-08 0.144384)
(-6.0970721e-08 -9.9099868e-08 0.14438369)
(6.3117466e-10 -4.7055882e-08 0.14438366)
(5.7257447e-08 2.1562372e-07 0.14438263)
(2.010232e-07 6.1056856e-07 0.14438319)
(4.6796212e-07 4.6796211e-07 0.14438375)
(3.5649681e-07 4.043676e-07 0.14438538)
(-6.2705036e-08 3.8833789e-07 0.14438545)
(-1.5368794e-07 3.8592251e-07 0.14438513)
(-1.9652857e-07 3.7696537e-07 0.14438467)
(-2.0379545e-07 3.3744382e-07 0.14438409)
(-8.1237009e-08 2.5669106e-07 0.14438361)
(8.8940474e-09 1.957497e-07 0.14438366)
(-1.7008182e-08 5.6789488e-07 0.14438492)
(4.2150082e-08 4.1684497e-07 0.14438503)
(4.043676e-07 3.5649681e-07 0.14438538)
(3.3722074e-07 3.3722074e-07 0.14438694)
(-6.4390826e-08 3.3560261e-07 0.14438699)
(-1.5243608e-07 3.4145589e-07 0.14438668)
(-2.1149211e-07 3.4835479e-07 0.14438622)
(-2.6663259e-07 3.4257423e-07 0.14438555)
(-2.0266484e-07 3.0193509e-07 0.14438484)
(-3.9996402e-08 2.3281152e-07 0.14438454)
(-4.3442492e-08 2.6382279e-09 0.14438522)
(-1.0374877e-08 -4.5945737e-08 0.14438516)
(3.8833789e-07 -6.2705031e-08 0.14438545)
(3.3560261e-07 -6.4390829e-08 0.14438699)
(-5.8469889e-08 -5.8469893e-08 0.14438705)
(-1.4093577e-07 -4.9318889e-08 0.14438676)
(-1.9541022e-07 -3.66853e-08 0.14438633)
(-2.5021515e-07 -2.10002e-08 0.14438571)
(-1.9099972e-07 -5.8396873e-09 0.14438502)
(-3.7188333e-08 6.0447028e-09 0.14438473)
(-4.9397492e-08 -1.2664225e-07 0.14438497)
(-2.3193177e-08 -1.4106358e-07 0.14438486)
(3.8592251e-07 -1.5368794e-07 0.14438513)
(3.4145588e-07 -1.5243609e-07 0.14438668)
(-4.9318886e-08 -1.4093577e-07 0.14438676)
(-1.3065149e-07 -1.306515e-07 0.14438649)
(-1.8317342e-07 -1.2117471e-07 0.1443861)
(-2.3578697e-07 -1.1135703e-07 0.14438551)
(-1.7561994e-07 -1.0110811e-07 0.14438485)
(-3.2073475e-08 -9.1659281e-08 0.1443846)
(-5.3056715e-08 -1.4943717e-07 0.14438459)
(-3.7420568e-08 -1.6301342e-07 0.14438445)
(3.7696538e-07 -1.9652857e-07 0.14438467)
(3.4835478e-07 -2.1149211e-07 0.14438622)
(-3.66853e-08 -1.9541022e-07 0.14438633)
(-1.2117471e-07 -1.8317343e-07 0.1443861)
(-1.7611576e-07 -1.7611575e-07 0.14438572)
(-2.3014854e-07 -1.7212712e-07 0.14438515)
(-1.7130197e-07 -1.697489e-07 0.14438451)
(-3.0889114e-08 -1.6880766e-07 0.14438426)
(-5.8448325e-08 -1.4211616e-07 0.14438418)
(-7.0284578e-08 -1.4635827e-07 0.144384)
(3.3744382e-07 -2.0379546e-07 0.14438409)
(3.4257422e-07 -2.6663259e-07 0.14438555)
(-2.10002e-08 -2.5021515e-07 0.14438571)
(-1.1135702e-07 -2.3578697e-07 0.14438551)
(-1.7212712e-07 -2.3014854e-07 0.14438515)
(-2.2942012e-07 -2.2942012e-07 0.14438457)
(-1.7230048e-07 -2.2950739e-07 0.14438394)
(-3.1445982e-08 -2.2852401e-07 0.14438369)
(-5.5884784e-08 -1.0446571e-07 0.14438383)
(-9.9099861e-08 -6.0970724e-08 0.14438369)
(2.5669106e-07 -8.1237009e-08 0.14438361)
(3.0193509e-07 -2.0266485e-07 0.14438484)
(-5.8396839e-09 -1.9099971e-07 0.14438502)
(-1.0110811e-07 -1.7561994e-07 0.14438485)
(-1.6974891e-07 -1.7130197e-07 0.14438451)
(-2.2950739e-07 -1.7230048e-07 0.14438394)
(-1.7040586e-07 -1.7040586e-07 0.1443833)
(-3.0233531e-08 -1.6001441e-07 0.14438307)
(-2.9451668e-08 -2.5801941e-08 0.1443836)
(-4.7055877e-08 6.3117465e-10 0.14438366)
(1.9574969e-07 8.8940475e-09 0.14438366)
(2.3281152e-07 -3.9996402e-08 0.14438454)
(6.0447026e-09 -3.7188336e-08 0.14438473)
(-9.1659281e-08 -3.2073477e-08 0.1443846)
(-1.6880766e-07 -3.0889114e-08 0.14438426)
(-2.2852401e-07 -3.144598e-08 0.14438369)
(-1.6001441e-07 -3.0233531e-08 0.14438307)
(-2.4518344e-08 -2.4518344e-08 0.1443829)
(-5.3435075e-08 -5.3435077e-08 0.21782758)
(-7.4705065e-07 -5.1441367e-07 0.21782801)
(1.2315815e-06 3.85912e-07 0.21782787)
(2.1818799e-06 1.5828666e-07 0.21783017)
(5.9028557e-08 6.7589054e-08 0.21783054)
(-5.7475973e-07 4.3775633e-08 0.21783021)
(-7.3166089e-07 2.3840548e-08 0.21782965)
(-7.1386726e-07 -4.1105244e-09 0.21782901)
(-5.5588152e-07 2.6912257e-08 0.21782847)
(-1.4885808e-07 1.4420505e-07 0.21782797)
(-5.1441366e-07 -7.4705065e-07 0.21782801)
(-8.8030031e-08 -8.8030031e-08 0.2178277)
(2.240632e-06 1.0638539e-06 0.21782876)
(1.7043954e-06 5.6167114e-07 0.21783069)
(-1.1273799e-07 3.7010265e-07 0.21783091)
(-6.4038249e-07 3.1425945e-07 0.21783054)
(-8.0349012e-07 2.3807017e-07 0.21782991)
(-7.092597e-07 6.8573222e-08 0.21782918)
(-3.3340817e-07 -2.2671829e-08 0.2178288)
(-3.1565291e-08 2.3318474e-07 0.21782868)
(3.85912e-07 1.2315815e-06 0.21782787)
(1.0638539e-06 2.240632e-06 0.21782876)
(1.8812827e-06 1.8812827e-06 0.21782965)
(1.4881286e-06 1.6515848e-06 0.2178314)
(-1.8838313e-07 1.579088e-06 0.21783156)
(-7.0679222e-07 1.564757e-06 0.21783116)
(-9.7734712e-07 1.5151414e-06 0.21783046)
(-9.7460926e-07 1.3102813e-06 0.21782948)
(-3.9127001e-07 9.5248091e-07 0.21782885)
(2.1712966e-08 7.3912667e-07 0.21782881)
(1.5828666e-07 2.1818799e-06 0.21783017)
(5.6167113e-07 1.7043954e-06 0.21783069)
(1.6515848e-06 1.4881286e-06 0.2178314)
(1.4022008e-06 1.4022008e-06 0.21783306)
(-1.9956581e-07 1.3911835e-06 0.2178332)
(-7.043291e-07 1.4177073e-06 0.21783281)
(-1.0579659e-06 1.4472007e-06 0.21783212)
(-1.2719202e-06 1.405111e-06 0.21783103)
(-9.0456277e-07 1.2027919e-06 0.2178301)
(-1.7380145e-07 9.0692599e-07 0.21782969)
(6.7589057e-08 5.9028553e-08 0.21783054)
(3.7010265e-07 -1.1273798e-07 0.21783091)
(1.579088e-06 -1.8838311e-07 0.21783156)
(1.3911835e-06 -1.995658e-07 0.2178332)
(-1.7287657e-07 -1.7287657e-07 0.21783335)
(-6.5077498e-07 -1.2881792e-07 0.21783299)
(-9.8994342e-07 -6.9222375e-08 0.21783235)
(-1.219018e-06 -3.0747581e-09 0.21783131)
(-8.8945503e-07 4.6865152e-08 0.21783039)
(-1.75531e-07 7.2889192e-08 0.21782997)
(4.3775638e-08 -5.7475973e-07 0.21783021)
(3.1425946e-07 -6.4038249e-07 0.21783054)
(1.564757e-06 -7.0679221e-07 0.21783116)
(1.4177073e-06 -7.043291e-07 0.21783281)
(-1.2881792e-07 -6.5077499e-07 0.21783299)
(-6.006749e-07 -6.0067492e-07 0.21783268)
(-9.3222271e-07 -5.5470663e-07 0.21783208)
(-1.1558327e-06 -5.0925845e-07 0.21783108)
(-8.2859882e-07 -4.6603771e-07 0.2178302)
(-1.5645209e-07 -4.3152887e-07 0.21782982)
(2.3840551e-08 -7.3166089e-07 0.21782965)
(2.3807017e-07 -8.0349012e-07 0.21782991)
(1.5151414e-06 -9.7734712e-07 0.21783046)
(1.4472007e-06 -1.0579659e-06 0.21783212)
(-6.9222394e-08 -9.8994342e-07 0.21783235)
(-5.5470663e-07 -9.3222272e-07 0.21783208)
(-8.9852696e-07 -8.9852697e-07 0.21783151)
(-1.1303491e-06 -8.8022448e-07 0.21783053)
(-8.1172544e-07 -8.7008789e-07 0.21782966)
(-1.5252511e-07 -8.680835e-07 0.21782927)
(-4.1105195e-09 -7.1386726e-07 0.21782901)
(6.8573225e-08 -7.092597e-07 0.21782918)
(1.3102813e-06 -9.7460925e-07 0.21782948)
(1.405111e-06 -1.2719202e-06 0.21783103)
(-3.074763e-09 -1.219018e-06 0.21783131)
(-5.0925845e-07 -1.1558327e-06 0.21783108)
(-8.8022448e-07 -1.1303491e-06 0.21783053)
(-1.1273936e-06 -1.1273936e-06 0.21782956)
(-8.1645784e-07 -1.1237323e-06 0.21782868)
(-1.5511584e-07 -1.1062034e-06 0.21782829)
(2.691226e-08 -5.5588152e-07 0.21782847)
(-2.2671819e-08 -3.3340817e-07 0.2178288)
(9.5248091e-07 -3.9127001e-07 0.21782885)
(1.2027919e-06 -9.0456278e-07 0.2178301)
(4.6865145e-08 -8.8945503e-07 0.21783039)
(-4.660377e-07 -8.2859882e-07 0.2178302)
(-8.7008789e-07 -8.1172543e-07 0.21782966)
(-1.1237323e-06 -8.1645784e-07 0.21782868)
(-7.9053521e-07 -7.905352e-07 0.21782783)
(-1.4083917e-07 -6.9436224e-07 0.21782753)
(1.4420505e-07 -1.4885808e-07 0.21782797)
(2.3318473e-07 -3.1565291e-08 0.21782868)
(7.3912666e-07 2.1712957e-08 0.21782881)
(9.0692599e-07 -1.7380146e-07 0.21782969)
(7.2889203e-08 -1.7553101e-07 0.21782997)
(-4.3152885e-07 -1.5645209e-07 0.21782982)
(-8.680835e-07 -1.5252511e-07 0.21782927)
(-1.1062034e-06 -1.5511583e-07 0.21782829)
(-6.9436224e-07 -1.4083916e-07 0.21782753)
(-9.1000526e-08 -9.1000521e-08 0.21782733)
(2.6783169e-07 2.6783169e-07 0.22524124)
(-2.7279211e-08 -4.8521197e-07 0.22524213)
(2.3750519e-06 6.4419311e-07 0.22524253)
(3.2357844e-06 3.2944874e-07 0.22524421)
(4.614477e-08 2.0255159e-07 0.22524447)
(-1.0203053e-06 1.6689875e-07 0.22524414)
(-1.3496382e-06 1.2271295e-07 0.22524355)
(-1.318375e-06 5.2075992e-08 0.22524284)
(-1.1500603e-06 1.6343772e-07 0.22524234)
(-3.6438604e-07 4.4670273e-07 0.22524173)
(-4.8521198e-07 -2.7279215e-08 0.22524213)
(5.3726292e-07 5.3726292e-07 0.22524227)
(3.597043e-06 1.9724121e-06 0.2252433)
(2.5733221e-06 1.2723688e-06 0.22524474)
(-1.9768021e-07 1.0014606e-06 0.22524491)
(-1.1400633e-06 9.2066642e-07 0.22524455)
(-1.5218723e-06 7.7107399e-07 0.22524388)
(-1.2572878e-06 4.0019148e-07 0.22524298)
(-5.5812019e-07 2.7425216e-07 0.22524268)
(-8.1121035e-08 7.9632795e-07 0.22524253)
(6.4419311e-07 2.3750519e-06 0.22524253)
(1.9724121e-06 3.597043e-06 0.2252433)
(3.1101578e-06 3.1101578e-06 0.22524422)
(2.2648329e-06 2.7793254e-06 0.22524554)
(-3.0555759e-07 2.6749582e-06 0.22524566)
(-1.2506919e-06 2.6637468e-06 0.2252453)
(-1.8701131e-06 2.5843454e-06 0.22524457)
(-1.8151968e-06 2.1948389e-06 0.2252434)
(-7.5392383e-07 1.5497148e-06 0.22524281)
(-1.633552e-08 1.2102794e-06 0.22524274)
(3.2944874e-07 3.2357844e-06 0.22524421)
(1.2723688e-06 2.5733221e-06 0.22524474)
(2.7793254e-06 2.2648329e-06 0.22524554)
(2.1381225e-06 2.1381225e-06 0.22524679)
(-3.1325886e-07 2.1266877e-06 0.22524691)
(-1.2306761e-06 2.1805778e-06 0.22524658)
(-1.9907802e-06 2.2426439e-06 0.22524586)
(-2.2919184e-06 2.1751928e-06 0.22524459)
(-1.5426797e-06 1.8449099e-06 0.22524375)
(-3.0741128e-07 1.3981972e-06 0.22524342)
(2.0255159e-07 4.6144769e-08 0.22524447)
(1.0014606e-06 -1.976802e-07 0.22524491)
(2.6749582e-06 -3.0555759e-07 0.22524566)
(2.1266877e-06 -3.1325886e-07 0.22524691)
(-2.6310236e-07 -2.6310235e-07 0.22524705)
(-1.1347357e-06 -1.8386053e-07 0.22524675)
(-1.8754981e-06 -7.9295927e-08 0.22524608)
(-2.2129308e-06 2.8653556e-08 0.22524486)
(-1.5309194e-06 9.9410105e-08 0.22524402)
(-3.1414398e-07 1.2857435e-07 0.22524366)
(1.6689876e-07 -1.0203053e-06 0.22524414)
(9.2066642e-07 -1.1400633e-06 0.22524455)
(2.6637468e-06 -1.2506919e-06 0.2252453)
(2.1805778e-06 -1.2306761e-06 0.22524658)
(-1.8386053e-07 -1.1347357e-06 0.22524675)
(-1.0468697e-06 -1.0468697e-06 0.22524648)
(-1.7782661e-06 -9.6857932e-07 0.22524585)
(-2.1132124e-06 -8.9604986e-07 0.22524466)
(-1.4427589e-06 -8.3413909e-07 0.22524385)
(-2.8796845e-07 -7.9514839e-07 0.22524351)
(1.2271296e-07 -1.3496382e-06 0.22524355)
(7.7107399e-07 -1.5218723e-06 0.22524388)
(2.5843454e-06 -1.8701131e-06 0.22524457)
(2.2426439e-06 -1.9907802e-06 0.22524586)
(-7.9295942e-08 -1.8754981e-06 0.22524608)
(-9.6857932e-07 -1.7782661e-06 0.22524585)
(-1.7246783e-06 -1.7246783e-06 0.22524524)
(-2.0784906e-06 -1.7004404e-06 0.22524406)
(-1.4300179e-06 -1.6908263e-06 0.22524325)
(-2.8815018e-07 -1.6974653e-06 0.22524289)
(5.2075994e-08 -1.318375e-06 0.22524284)
(4.0019149e-07 -1.2572879e-06 0.22524298)
(2.1948389e-06 -1.8151968e-06 0.2252434)
(2.1751928e-06 -2.2919184e-06 0.22524459)
(2.8653549e-08 -2.2129308e-06 0.22524486)
(-8.9604986e-07 -2.1132124e-06 0.22524466)
(-1.7004404e-06 -2.0784906e-06 0.22524406)
(-2.0793604e-06 -2.0793604e-06 0.22524288)
(-1.4397837e-06 -2.0570792e-06 0.22524206)
(-2.9239444e-07 -1.9723932e-06 0.2252417)
(1.6343772e-07 -1.1500603e-06 0.22524234)
(2.7425217e-07 -5.5812018e-07 0.22524268)
(1.5497148e-06 -7.5392383e-07 0.22524281)
(1.8449099e-06 -1.5426797e-06 0.22524375)
(9.9410105e-08 -1.5309194e-06 0.22524402)
(-8.3413909e-07 -1.4427589e-06 0.22524385)
(-1.6908263e-06 -1.4300179e-06 0.22524325)
(-2.0570792e-06 -1.4397837e-06 0.22524206)
(-1.3230507e-06 -1.3230507e-06 0.22524132)
(-2.3169285e-07 -1.1159931e-06 0.22524121)
(4.4670273e-07 -3.6438604e-07 0.22524173)
(7.9632795e-07 -8.1121027e-08 0.22524253)
(1.2102794e-06 -1.6335522e-08 0.22524274)
(1.3981972e-06 -3.0741128e-07 0.22524342)
(1.2857435e-07 -3.1414398e-07 0.22524366)
(-7.9514838e-07 -2.8796845e-07 0.22524351)
(-1.6974653e-06 -2.8815018e-07 0.22524289)
(-1.9723932e-06 -2.9239444e-07 0.2252417)
(-1.1159931e-06 -2.3169285e-07 0.22524121)
(-1.5435601e-07 -1.5435602e-07 0.22524098)
(5.4137026e-07 5.4137026e-07 0.23688919)
(5.3924805e-07 -4.2709558e-07 0.23688987)
(3.3029645e-06 9.0353143e-07 0.2368901)
(4.121647e-06 5.1396206e-07 0.23689159)
(-5.2951745e-09 3.598195e-07 0.23689181)
(-1.493929e-06 3.1704088e-07 0.23689147)
(-2.0379054e-06 2.4283868e-07 0.23689083)
(-1.9186651e-06 9.1637485e-08 0.23689)
(-1.6574165e-06 2.4736037e-07 0.23688948)
(-5.5593192e-07 6.7709899e-07 0.23688891)
(-4.2709558e-07 5.3924805e-07 0.23688987)
(1.0824898e-06 1.0824898e-06 0.23688995)
(4.714551e-06 2.7595385e-06 0.2368908)
(3.3060791e-06 1.8931359e-06 0.23689208)
(-3.0067695e-07 1.5661574e-06 0.23689222)
(-1.6694003e-06 1.4765191e-06 0.23689187)
(-2.3760105e-06 1.2555566e-06 0.23689115)
(-1.9118825e-06 6.3269355e-07 0.23689008)
(-7.7922421e-07 4.4614385e-07 0.2368897)
(-1.261933e-07 1.2437473e-06 0.23688955)
(9.0353143e-07 3.3029645e-06 0.2368901)
(2.7595385e-06 4.714551e-06 0.2368908)
(4.1136107e-06 4.1136107e-06 0.23689153)
(2.9282658e-06 3.7041227e-06 0.2368927)
(-4.21912e-07 3.58338e-06 0.23689282)
(-1.8045298e-06 3.5883229e-06 0.23689248)
(-2.8817309e-06 3.4931619e-06 0.23689171)
(-2.7280778e-06 2.9252876e-06 0.23689038)
(-1.0463627e-06 2.0299024e-06 0.23688976)
(-2.4196306e-08 1.6248488e-06 0.23688973)
(5.1396206e-07 4.121647e-06 0.23689159)
(1.8931359e-06 3.306079e-06 0.23689208)
(3.7041227e-06 2.9282658e-06 0.2368927)
(2.7758484e-06 2.7758484e-06 0.23689384)
(-4.164767e-07 2.7726224e-06 0.23689395)
(-1.7596184e-06 2.8592616e-06 0.23689364)
(-3.0390457e-06 2.9570358e-06 0.2368929)
(-3.3751421e-06 2.8604111e-06 0.23689147)
(-2.079663e-06 2.4058238e-06 0.23689061)
(-3.9622902e-07 1.8264848e-06 0.23689033)
(3.598195e-07 -5.2951785e-09 0.23689181)
(1.5661574e-06 -3.0067695e-07 0.23689222)
(3.58338e-06 -4.21912e-07 0.23689282)
(2.7726224e-06 -4.164767e-07 0.23689395)
(-3.3849879e-07 -3.3849878e-07 0.23689408)
(-1.6201165e-06 -2.2280253e-07 0.23689381)
(-2.8805815e-06 -7.5144158e-08 0.23689312)
(-3.2792897e-06 6.6469974e-08 0.23689172)
(-2.080289e-06 1.4566363e-07 0.23689086)
(-4.1042234e-07 1.6539434e-07 0.23689056)
(3.1704088e-07 -1.493929e-06 0.23689147)
(1.4765191e-06 -1.6694003e-06 0.23689187)
(3.5883229e-06 -1.8045298e-06 0.23689248)
(2.8592616e-06 -1.7596184e-06 0.23689364)
(-2.2280253e-07 -1.6201165e-06 0.23689381)
(-1.4962637e-06 -1.4962637e-06 0.23689358)
(-2.7497732e-06 -1.3905168e-06 0.23689292)
(-3.1543343e-06 -1.3003964e-06 0.23689155)
(-1.9807387e-06 -1.2340132e-06 0.2368907)
(-3.8307521e-07 -1.2090114e-06 0.2368904)
(2.4283868e-07 -2.0379054e-06 0.23689083)
(1.2555566e-06 -2.3760105e-06 0.23689115)
(3.4931619e-06 -2.8817309e-06 0.23689171)
(2.9570358e-06 -3.0390457e-06 0.2368929)
(-7.5144162e-08 -2.8805814e-06 0.23689312)
(-1.3905168e-06 -2.7497732e-06 0.23689292)
(-2.6847141e-06 -2.6847141e-06 0.23689228)
(-3.1227861e-06 -2.6649864e-06 0.23689091)
(-1.988904e-06 -2.6627994e-06 0.23689003)
(-3.9375447e-07 -2.6774881e-06 0.23688969)
(9.1637483e-08 -1.9186651e-06 0.23689)
(6.3269355e-07 -1.9118825e-06 0.23689008)
(2.9252877e-06 -2.7280778e-06 0.23689038)
(2.8604111e-06 -3.3751421e-06 0.23689147)
(6.6469966e-08 -3.2792897e-06 0.23689172)
(-1.3003964e-06 -3.1543343e-06 0.23689155)
(-2.6649864e-06 -3.1227861e-06 0.23689091)
(-3.1324196e-06 -3.1324196e-06 0.23688951)
(-1.9932404e-06 -3.0538662e-06 0.23688863)
(-3.9286767e-07 -2.7879854e-06 0.2368883)
(2.4736037e-07 -1.6574165e-06 0.23688948)
(4.4614385e-07 -7.792242e-07 0.2368897)
(2.0299024e-06 -1.0463627e-06 0.23688976)
(2.4058238e-06 -2.0796631e-06 0.23689061)
(1.4566364e-07 -2.080289e-06 0.23689086)
(-1.2340132e-06 -1.9807387e-06 0.2368907)
(-2.6627994e-06 -1.988904e-06 0.23689003)
(-3.0538663e-06 -1.9932404e-06 0.23688863)
(-1.6444698e-06 -1.6444698e-06 0.23688788)
(-2.1650056e-07 -1.4197209e-06 0.23688801)
(6.7709899e-07 -5.5593192e-07 0.23688891)
(1.2437473e-06 -1.261933e-07 0.23688955)
(1.6248488e-06 -2.41963e-08 0.23688973)
(1.8264848e-06 -3.9622902e-07 0.23689033)
(1.6539435e-07 -4.1042234e-07 0.23689056)
(-1.2090114e-06 -3.8307521e-07 0.2368904)
(-2.6774881e-06 -3.9375448e-07 0.23688969)
(-2.7879854e-06 -3.9286767e-07 0.2368883)
(-1.4197209e-06 -2.1650056e-07 0.23688801)
(-2.4303506e-07 -2.4303506e-07 0.23688776)
(7.1595095e-07 7.1595095e-07 0.25278646)
(8.7397448e-07 -4.2715481e-07 0.25278694)
(4.1017033e-06 1.1124147e-06 0.25278705)
(4.9471648e-06 6.5204485e-07 0.25278848)
(-7.4987086e-08 4.7466558e-07 0.25278868)
(-1.9948279e-06 4.3037402e-07 0.25278834)
(-2.8259769e-06 3.3380375e-07 0.25278768)
(-2.6706935e-06 1.0482901e-07 0.25278675)
(-2.2401282e-06 3.0964548e-07 0.25278613)
(-7.473867e-07 8.7271907e-07 0.25278555)
(-4.271548e-07 8.7397448e-07 0.25278694)
(1.46867e-06 1.46867e-06 0.2527869)
(5.7205029e-06 3.4034334e-06 0.25278765)
(3.9905411e-06 2.3820716e-06 0.25278887)
(-4.0749335e-07 2.0098957e-06 0.252789)
(-2.2061206e-06 1.9244702e-06 0.25278866)
(-3.3142944e-06 1.6483462e-06 0.25278794)
(-2.7069309e-06 7.797892e-07 0.25278677)
(-1.0882931e-06 5.5424907e-07 0.2527863)
(-1.8431311e-07 1.6167702e-06 0.25278612)
(1.1124147e-06 4.1017033e-06 0.25278705)
(3.4034334e-06 5.7205029e-06 0.25278765)
(5.0151049e-06 5.0151049e-06 0.25278828)
(3.5536271e-06 4.5371871e-06 0.25278941)
(-5.3258848e-07 4.4086267e-06 0.25278952)
(-2.3563774e-06 4.4370338e-06 0.2527892)
(-3.9706579e-06 4.3322276e-06 0.25278843)
(-3.7647906e-06 3.5859975e-06 0.25278701)
(-1.4031472e-06 2.4561617e-06 0.25278632)
(-3.9039265e-08 1.9987064e-06 0.25278627)
(6.5204485e-07 4.9471648e-06 0.25278848)
(2.3820716e-06 3.9905411e-06 0.25278887)
(4.5371871e-06 3.5536271e-06 0.25278941)
(3.3840629e-06 3.3840629e-06 0.25279051)
(-5.0764668e-07 3.3951654e-06 0.25279062)
(-2.2825197e-06 3.5184834e-06 0.25279034)
(-4.1653308e-06 3.6532083e-06 0.2527896)
(-4.5829968e-06 3.5225149e-06 0.25278807)
(-2.6755842e-06 2.9411388e-06 0.25278714)
(-4.8928333e-07 2.2303894e-06 0.25278685)
(4.7466558e-07 -7.4987082e-08 0.25278868)
(2.0098957e-06 -4.0749334e-07 0.252789)
(4.4086267e-06 -5.3258848e-07 0.25278952)
(3.3951654e-06 -5.0764668e-07 0.25279062)
(-3.9816794e-07 -3.9816794e-07 0.25279076)
(-2.0983345e-06 -2.447775e-07 0.25279052)
(-3.9666264e-06 -5.5652641e-08 0.25278983)
(-4.4768601e-06 1.1311998e-07 0.25278833)
(-2.6952726e-06 1.9118042e-07 0.25278739)
(-5.1287217e-07 1.9188566e-07 0.25278707)
(4.3037401e-07 -1.9948279e-06 0.25278834)
(1.9244702e-06 -2.2061206e-06 0.25278866)
(4.4370338e-06 -2.3563774e-06 0.2527892)
(3.5184834e-06 -2.2825197e-06 0.25279034)
(-2.447775e-07 -2.0983345e-06 0.25279052)
(-1.9400044e-06 -1.9400044e-06 0.25279031)
(-3.8074333e-06 -1.8115946e-06 0.25278965)
(-4.3361638e-06 -1.7134872e-06 0.25278818)
(-2.5968185e-06 -1.6571574e-06 0.25278723)
(-4.8881318e-07 -1.6638066e-06 0.25278691)
(3.3380375e-07 -2.8259769e-06 0.25278768)
(1.6483462e-06 -3.3142944e-06 0.25278794)
(4.3322276e-06 -3.9706579e-06 0.25278843)
(3.6532083e-06 -4.1653308e-06 0.2527896)
(-5.5652647e-08 -3.9666264e-06 0.25278983)
(-1.8115946e-06 -3.8074333e-06 0.25278965)
(-3.7401091e-06 -3.7401091e-06 0.252789)
(-4.322423e-06 -3.7395381e-06 0.25278752)
(-2.645592e-06 -3.7614876e-06 0.25278654)
(-5.1730495e-07 -3.7952152e-06 0.25278615)
(1.0482901e-07 -2.6706935e-06 0.25278675)
(7.797892e-07 -2.7069309e-06 0.25278677)
(3.5859975e-06 -3.7647906e-06 0.25278701)
(3.5225149e-06 -4.5829968e-06 0.25278807)
(1.1311998e-07 -4.4768601e-06 0.25278833)
(-1.7134872e-06 -4.3361638e-06 0.25278818)
(-3.7395381e-06 -4.322423e-06 0.25278752)
(-4.3575422e-06 -4.3575422e-06 0.252786)
(-2.6524956e-06 -4.2093166e-06 0.25278499)
(-5.1129827e-07 -3.655707e-06 0.2527846)
(3.0964548e-07 -2.2401282e-06 0.25278613)
(5.5424907e-07 -1.0882931e-06 0.2527863)
(2.4561617e-06 -1.4031472e-06 0.25278632)
(2.9411388e-06 -2.6755842e-06 0.25278714)
(1.9118044e-07 -2.6952726e-06 0.25278739)
(-1.6571574e-06 -2.5968185e-06 0.25278723)
(-3.7614876e-06 -2.645592e-06 0.25278654)
(-4.2093166e-06 -2.6524956e-06 0.25278499)
(-1.9437569e-06 -1.9437569e-06 0.25278414)
(-1.4823192e-07 -1.6592835e-06 0.25278435)
(8.7271907e-07 -7.473867e-07 0.25278555)
(1.6167702e-06 -1.8431311e-07 0.25278612)
(1.9987064e-06 -3.9039258e-08 0.25278627)
(2.2303894e-06 -4.8928333e-07 0.25278685)
(1.9188566e-07 -5.1287218e-07 0.25278707)
(-1.6638066e-06 -4.8881318e-07 0.25278691)
(-3.7952152e-06 -5.1730496e-07 0.25278615)
(-3.655707e-06 -5.1129828e-07 0.2527846)
(-1.6592835e-06 -1.4823192e-07 0.25278435)
(-3.2164938e-07 -3.2164938e-07 0.25278412)
(8.5657289e-07 8.565729e-07 0.27295402)
(1.1238984e-06 -4.5073226e-07 0.27295443)
(4.8510539e-06 1.302174e-06 0.2729545)
(5.7517542e-06 7.7206197e-07 0.27295591)
(-1.470784e-07 5.7286966e-07 0.27295609)
(-2.4916774e-06 5.2925659e-07 0.27295576)
(-3.6324791e-06 4.1333392e-07 0.27295511)
(-3.4739866e-06 1.0835696e-07 0.27295416)
(-2.8547466e-06 3.6654199e-07 0.27295349)
(-9.389194e-07 1.059294e-06 0.27295292)
(-4.5073227e-07 1.1238984e-06 0.27295443)
(1.7923e-06 1.7923e-06 0.27295435)
(6.6852453e-06 3.9939603e-06 0.27295506)
(4.6577977e-06 2.8217672e-06 0.27295626)
(-5.1128648e-07 2.4091205e-06 0.27295638)
(-2.730981e-06 2.3336546e-06 0.27295606)
(-4.2638285e-06 2.0086207e-06 0.27295534)
(-3.5441745e-06 8.9599657e-07 0.27295416)
(-1.428341e-06 6.4154901e-07 0.27295366)
(-2.4616743e-07 1.9639257e-06 0.27295347)
(1.302174e-06 4.8510539e-06 0.2729545)
(3.9939603e-06 6.6852453e-06 0.27295506)
(5.8805211e-06 5.8805211e-06 0.27295566)
(4.1669143e-06 5.3394048e-06 0.27295677)
(-6.3519104e-07 5.2080009e-06 0.27295688)
(-2.8921771e-06 5.2642183e-06 0.27295657)
(-5.0701371e-06 5.1524149e-06 0.27295582)
(-4.8410583e-06 4.2252025e-06 0.27295438)
(-1.7868174e-06 2.8636532e-06 0.27295366)
(-5.7334939e-08 2.3533129e-06 0.2729536)
(7.7206196e-07 5.7517542e-06 0.27295591)
(2.8217672e-06 4.6577976e-06 0.27295626)
(5.3394048e-06 4.1669143e-06 0.27295677)
(3.9852774e-06 3.9852774e-06 0.27295785)
(-5.8647304e-07 4.0148889e-06 0.27295797)
(-2.7865669e-06 4.1778563e-06 0.2729577)
(-5.3028443e-06 4.350609e-06 0.27295698)
(-5.8329362e-06 4.182748e-06 0.27295544)
(-3.3002306e-06 3.471461e-06 0.27295447)
(-5.8639432e-07 2.6264035e-06 0.27295418)
(5.7286966e-07 -1.4707841e-07 0.27295609)
(2.4091205e-06 -5.1128648e-07 0.27295638)
(5.2080009e-06 -6.3519105e-07 0.27295688)
(4.0148889e-06 -5.8647304e-07 0.27295797)
(-4.4261209e-07 -4.426121e-07 0.27295812)
(-2.556457e-06 -2.5028575e-07 0.27295789)
(-5.0652454e-06 -2.0454688e-08 0.27295722)
(-5.7202062e-06 1.7158918e-07 0.2729557)
(-3.3431619e-06 2.4263286e-07 0.27295472)
(-6.207066e-07 2.1815912e-07 0.27295439)
(5.2925659e-07 -2.4916774e-06 0.27295576)
(2.3336546e-06 -2.730981e-06 0.27295606)
(5.2642183e-06 -2.8921771e-06 0.27295657)
(4.1778563e-06 -2.7865669e-06 0.2729577)
(-2.5028576e-07 -2.556457e-06 0.27295789)
(-2.3644095e-06 -2.3644095e-06 0.2729577)
(-4.8809694e-06 -2.2165844e-06 0.27295706)
(-5.5698486e-06 -2.1171994e-06 0.27295556)
(-3.2536607e-06 -2.0813743e-06 0.27295458)
(-6.0271015e-07 -2.1327992e-06 0.27295423)
(4.1333392e-07 -3.6324791e-06 0.27295511)
(2.0086207e-06 -4.2638285e-06 0.27295534)
(5.1524149e-06 -5.0701371e-06 0.27295582)
(4.350609e-06 -5.3028443e-06 0.27295698)
(-2.0454692e-08 -5.0652454e-06 0.27295722)
(-2.2165844e-06 -4.8809694e-06 0.27295706)
(-4.8180353e-06 -4.8180353e-06 0.27295643)
(-5.5849961e-06 -4.8483698e-06 0.27295491)
(-3.3587617e-06 -4.9115225e-06 0.27295388)
(-6.5498986e-07 -4.9837427e-06 0.27295345)
(1.0835696e-07 -3.4739866e-06 0.27295416)
(8.9599657e-07 -3.5441745e-06 0.27295416)
(4.2252025e-06 -4.8410583e-06 0.27295438)
(4.182748e-06 -5.8329362e-06 0.27295544)
(1.7158919e-07 -5.7202062e-06 0.2729557)
(-2.1171994e-06 -5.5698486e-06 0.27295556)
(-4.8483698e-06 -5.5849961e-06 0.27295491)
(-5.6633359e-06 -5.6633359e-06 0.27295334)
(-3.3890336e-06 -5.4576251e-06 0.27295226)
(-6.5085696e-07 -4.582963e-06 0.27295183)
(3.6654199e-07 -2.8547466e-06 0.27295349)
(6.4154902e-07 -1.428341e-06 0.27295366)
(2.8636533e-06 -1.7868174e-06 0.27295366)
(3.471461e-06 -3.3002306e-06 0.27295447)
(2.4263287e-07 -3.3431619e-06 0.27295472)
(-2.0813743e-06 -3.2536607e-06 0.27295458)
(-4.9115225e-06 -3.3587617e-06 0.27295388)
(-5.4576251e-06 -3.3890336e-06 0.27295226)
(-2.2783888e-06 -2.2783888e-06 0.27295134)
(-7.1881823e-08 -1.8976449e-06 0.27295156)
(1.059294e-06 -9.389194e-07 0.27295292)
(1.9639257e-06 -2.4616743e-07 0.27295347)
(2.3533129e-06 -5.7334939e-08 0.2729536)
(2.6264035e-06 -5.8639432e-07 0.27295418)
(2.1815912e-07 -6.207066e-07 0.27295439)
(-2.1327992e-06 -6.0271015e-07 0.27295423)
(-4.9837427e-06 -6.5498986e-07 0.27295345)
(-4.582963e-06 -6.5085696e-07 0.27295183)
(-1.8976449e-06 -7.1881826e-08 0.27295156)
(-3.9702767e-07 -3.9702768e-07 0.27295133)
(9.8984317e-07 9.8984317e-07 0.29741419)
(1.3506106e-06 -4.7988983e-07 0.29741459)
(5.5814856e-06 1.4873013e-06 0.29741464)
(6.5458498e-06 8.8735965e-07 0.29741604)
(-2.2058955e-07 6.6694514e-07 0.29741621)
(-2.9811465e-06 6.2503483e-07 0.29741589)
(-4.4349393e-06 4.9081237e-07 0.29741524)
(-4.2864872e-06 1.0985756e-07 0.29741429)
(-3.4792062e-06 4.2286888e-07 0.29741362)
(-1.1315406e-06 1.2448973e-06 0.29741304)
(-4.7988983e-07 1.3506106e-06 0.29741459)
(2.0967977e-06 2.0967977e-06 0.2974145)
(7.6323599e-06 4.5674927e-06 0.29741519)
(5.3153155e-06 3.2455134e-06 0.29741638)
(-6.140768e-07 2.7948673e-06 0.29741649)
(-3.2453457e-06 2.7325892e-06 0.29741617)
(-5.2077052e-06 2.3613403e-06 0.29741547)
(-4.3884024e-06 1.0036033e-06 0.29741429)
(-1.7766466e-06 7.2254562e-07 0.29741379)
(-3.0951225e-07 2.3040633e-06 0.29741359)
(1.4873013e-06 5.5814856e-06 0.29741464)
(4.5674927e-06 7.63236e-06 0.29741519)
(6.7302014e-06 6.7302014e-06 0.29741577)
(4.7732244e-06 6.1286577e-06 0.29741687)
(-7.3351379e-07 5.9976583e-06 0.29741698)
(-3.4146735e-06 6.0849157e-06 0.29741668)
(-6.1639253e-06 5.9682722e-06 0.29741594)
(-5.9252819e-06 4.8584287e-06 0.2974145)
(-2.1787463e-06 3.264264e-06 0.29741378)
(-7.7195585e-08 2.6997186e-06 0.29741371)
(8.8735965e-07 6.5458498e-06 0.29741604)
(3.2455134e-06 5.3153155e-06 0.29741638)
(6.1286576e-06 4.7732244e-06 0.29741687)
(4.5827724e-06 4.5827724e-06 0.29741794)
(-6.5781876e-07 4.633967e-06 0.29741806)
(-3.2747318e-06 4.839148e-06 0.29741781)
(-6.4341922e-06 5.0514796e-06 0.2974171)
(-7.0924106e-06 4.8454554e-06 0.29741555)
(-3.9353568e-06 4.0022796e-06 0.29741458)
(-6.8587587e-07 3.0206846e-06 0.29741428)
(6.6694514e-07 -2.2058956e-07 0.29741621)
(2.7948673e-06 -6.1407681e-07 0.29741649)
(5.9976583e-06 -7.3351379e-07 0.29741698)
(4.633967e-06 -6.5781875e-07 0.29741806)
(-4.7713817e-07 -4.7713817e-07 0.29741821)
(-2.9971609e-06 -2.444882e-07 0.297418)
(-6.1576179e-06 2.6189777e-08 0.29741734)
(-6.9744819e-06 2.3982001e-07 0.29741583)
(-4.0035169e-06 3.0090996e-07 0.29741484)
(-7.315922e-07 2.4810221e-07 0.2974145)
(6.2503483e-07 -2.9811465e-06 0.29741589)
(2.7325892e-06 -3.2453457e-06 0.29741617)
(6.0849157e-06 -3.4146735e-06 0.29741668)
(4.839148e-06 -3.2747318e-06 0.29741781)
(-2.4448821e-07 -2.9971609e-06 0.297418)
(-2.7714038e-06 -2.7714038e-06 0.29741782)
(-5.949884e-06 -2.605931e-06 0.2974172)
(-6.8176904e-06 -2.5091569e-06 0.2974157)
(-3.9270746e-06 -2.4997796e-06 0.29741471)
(-7.2108103e-07 -2.6031627e-06 0.29741435)
(4.9081236e-07 -4.4349393e-06 0.29741524)
(2.3613403e-06 -5.2077053e-06 0.29741547)
(5.9682722e-06 -6.1639253e-06 0.29741594)
(5.0514796e-06 -6.4341923e-06 0.2974171)
(2.6189777e-08 -6.1576179e-06 0.29741734)
(-2.605931e-06 -5.949884e-06 0.2974172)
(-5.895371e-06 -5.8953709e-06 0.29741658)
(-6.8683305e-06 -5.9637943e-06 0.29741505)
(-4.0975227e-06 -6.0786988e-06 0.29741401)
(-8.0051425e-07 -6.2023654e-06 0.29741357)
(1.0985755e-07 -4.2864872e-06 0.29741429)
(1.0036033e-06 -4.3884024e-06 0.29741429)
(4.8584287e-06 -5.9252819e-06 0.2974145)
(4.8454554e-06 -7.0924106e-06 0.29741555)
(2.3982001e-07 -6.9744819e-06 0.29741583)
(-2.5091569e-06 -6.8176904e-06 0.2974157)
(-5.9637943e-06 -6.8683305e-06 0.29741505)
(-7.0010183e-06 -7.0010183e-06 0.29741347)
(-4.1656456e-06 -6.7492292e-06 0.29741237)
(-8.0352544e-07 -5.5477628e-06 0.2974119)
(4.2286888e-07 -3.4792062e-06 0.29741362)
(7.2254563e-07 -1.7766466e-06 0.29741379)
(3.264264e-06 -2.1787463e-06 0.29741378)
(4.0022796e-06 -3.9353568e-06 0.29741458)
(3.0090996e-07 -4.0035169e-06 0.29741484)
(-2.4997796e-06 -3.9270746e-06 0.29741471)
(-6.0786988e-06 -4.0975227e-06 0.29741401)
(-6.7492292e-06 -4.1656456e-06 0.29741237)
(-2.6442673e-06 -2.6442673e-06 0.29741141)
(4.6332458e-10 -2.1525992e-06 0.29741162)
(1.2448973e-06 -1.1315406e-06 0.29741304)
(2.3040632e-06 -3.0951225e-07 0.29741359)
(2.6997186e-06 -7.719559e-08 0.29741371)
(3.0206846e-06 -6.8587586e-07 0.29741428)
(2.4810222e-07 -7.315922e-07 0.2974145)