/*--------------------------------*- C++ -*----------------------------------*\
| =========                 |                                                 |
| \\      /  F ield         | OpenFOAM: The Open Source CFD Toolbox           |
|  \\    /   O peration     | Version:  v2106                                 |
|   \\  /    A nd           | Website:  www.openfoam.com                      |
|    \\/     M anipulation  |                                                 |
\*---------------------------------------------------------------------------*/
FoamFile
{
    version     2.0;
    format      ascii;
    arch        "LSB;label=32;scalar=64";
    class       volScalarField;
    location    "10";
    object      gradTy;
}
// * * * * * * * * * * * * * * * * * * * * * * * * * * * * * * * * * * * * * //

dimensions      [0 -1 0 1 0 0 0];

internalField   nonuniform List<scalar> 
4000
(
-1.3172936e-05
-0.00022011822
4.4963233e-05
-1.3356218e-05
-3.4114604e-05
-3.8790953e-05
-4.1664471e-05
-4.5898408e-05
-4.3885306e-05
-2.3127859e-05
-0.00025226131
-0.00016505706
0.00015785986
3.309969e-05
-8.1472024e-06
-1.8213186e-05
-2.9385699e-05
-5.5193203e-05
-7.7821324e-05
-3.6952128e-05
0.00016932538
0.00047946839
0.00036748213
0.00031754252
0.00030495468
0.00030305793
0.00029602405
0.00026498849
0.00020157482
0.00015371868
0.00044595752
0.00032734077
0.00027995046
0.00026481331
0.00026354262
0.0002681391
0.00027355668
0.00026901731
0.00023710413
0.00018282265
2.0717523e-06
-3.6080351e-05
-4.924112e-05
-5.0564947e-05
-4.5915343e-05
-3.8729226e-05
-2.8808299e-05
-1.6491075e-05
-4.5858002e-06
4.7467951e-06
-9.9449852e-05
-0.00011077466
-0.00012068834
-0.00011970529
-0.00011067429
-0.00010259824
-9.5156298e-05
-8.7446651e-05
-7.9398359e-05
-7.1978366e-05
-0.00011735029
-0.00012801147
-0.00015433031
-0.00016608091
-0.00015345209
-0.00014384276
-0.0001383005
-0.0001351683
-0.00013330072
-0.00013256159
-0.00011160124
-0.00011493248
-0.00016003686
-0.00020938172
-0.0001964894
-0.00018515922
-0.00018073146
-0.00018015945
-0.00018022798
-0.00017945575
-8.2035021e-05
-4.78792e-05
-6.3793945e-05
-0.00015914902
-0.0001499886
-0.00013791115
-0.00013452032
-0.00013530443
-0.00013381662
-0.0001256564
-2.0261795e-05
4.9564997e-07
6.9843337e-06
-3.1408446e-05
-2.9203323e-05
-2.5186718e-05
-2.425666e-05
-2.4693956e-05
-2.3741842e-05
-1.925381e-05
-4.1906024e-05
-0.00040342473
0.00030264834
0.00012413502
5.3006164e-05
3.4330683e-05
1.8696755e-05
-3.2236452e-06
2.1105719e-05
0.00011309163
-0.00058586838
-6.9036836e-05
0.00083431875
0.00044048601
0.00029024998
0.00024645541
0.00018670459
5.377799e-05
-1.7780197e-05
0.00018287323
0.00096585779
0.0017571974
0.0014753806
0.0012952419
0.0012383869
0.0012271479
0.0011882373
0.0010275774
0.00074697539
0.00057965407
0.0017111215
0.0013366582
0.0011670527
0.0010996645
0.0010910243
0.0011118254
0.0011349554
0.0011019468
0.00094327977
0.00071124931
4.6292661e-05
-8.8413839e-05
-0.00014773792
-0.00015650785
-0.00013557704
-0.0001010244
-5.4287081e-05
-2.411354e-06
3.6753613e-05
5.7162754e-05
-0.00045075063
-0.00050221474
-0.00055429602
-0.00055236434
-0.00051036496
-0.00047107439
-0.00043502415
-0.00039938178
-0.00036548627
-0.00033842299
-0.00057379908
-0.00063013057
-0.00076647651
-0.00082970109
-0.00077635504
-0.00073108805
-0.00070466244
-0.00069030887
-0.00068235933
-0.00068078741
-0.00055984458
-0.00055623113
-0.00076432936
-0.00099749305
-0.00095600494
-0.00090645235
-0.00088646706
-0.00088414925
-0.00088127789
-0.00086753099
-0.00043594555
-0.00026147264
-0.00030685032
-0.00070939598
-0.00069754785
-0.00064982186
-0.00063658904
-0.00064030041
-0.00061997079
-0.00054454793
-0.00011674073
-2.4754822e-05
1.702821e-05
-0.00013630238
-0.00013765876
-0.00012269628
-0.00011961657
-0.00012164833
-0.00011045197
-7.1366418e-05
0.00020976057
-0.00038000858
0.00050451951
0.00025801783
0.00015863446
0.00013071185
9.6106396e-05
4.0784903e-05
0.00012800124
0.00034984888
-2.136455e-05
0.00042077387
0.0015447548
0.00099649444
0.00078432442
0.000721048
0.00060389013
0.00031342218
0.00021478896
0.00062366855
0.0018600944
0.002817134
0.002435815
0.0021767135
0.0020949751
0.0020861946
0.0020240089
0.0017189551
0.0012137065
0.00094786729
0.0025342033
0.0020153757
0.001773773
0.0016745358
0.0016655803
0.001707786
0.001756395
0.0017035686
0.0014448975
0.0010950408
3.6139684e-05
-0.00015481928
-0.00023930674
-0.00024533822
-0.00020605663
-0.00014399598
-6.2103023e-05
2.2440906e-05
7.7856057e-05
0.00010069693
-0.00079908326
-0.00089287535
-0.00097951755
-0.00096384153
-0.00088870284
-0.00081988793
-0.00075857243
-0.00070176878
-0.00065328149
-0.00062274473
-0.0010570104
-0.0011919008
-0.0014646362
-0.0015591402
-0.0014688535
-0.0013927034
-0.0013507344
-0.0013317518
-0.0013242222
-0.0013294217
-0.0010325256
-0.00098468337
-0.0014216268
-0.0017949859
-0.0017331243
-0.0016550268
-0.0016278333
-0.0016285146
-0.0016110644
-0.00154474
-0.00090070484
-0.00043710886
-0.00059045847
-0.0012081967
-0.0011989862
-0.0011299406
-0.0011199622
-0.0011276106
-0.0010361876
-0.00087402405
-0.00028538006
-6.3532409e-05
-1.2793663e-05
-0.00024075853
-0.00024603145
-0.00022553128
-0.00022567361
-0.00022899763
-0.00018145733
-0.00012088863
0.00042339374
-0.00033402203
0.000706632
0.00040195837
0.00028140688
0.00024795066
0.00018991877
7.1667654e-05
0.00019345508
0.00052954418
0.000421734
0.00084659139
0.0021581741
0.0014805797
0.0012248571
0.0011547529
0.0009819431
0.00049481566
0.00034891926
0.0009727073
0.0025831757
0.0036871462
0.003217164
0.0028969124
0.0028024822
0.002806348
0.0027319247
0.0022878029
0.0015875418
0.0012707584
0.003223449
0.0025856113
0.0022901319
0.0021709296
0.0021684066
0.0022361652
0.0023126322
0.0022370642
0.0018815417
0.0014284534
-4.141242e-06
-0.00023515279
-0.00032996804
-0.0003257172
-0.0002647324
-0.00017424892
-5.8768583e-05
5.1984697e-05
0.00011392031
0.00012935126
-0.0011683689
-0.001305601
-0.0014112829
-0.0013761586
-0.0012670572
-0.0011701947
-0.0010874924
-0.0010170113
-0.00096509443
-0.00094554109
-0.0015938008
-0.0018582253
-0.0022537381
-0.0023767704
-0.002252839
-0.0021505368
-0.0020996555
-0.002084227
-0.0020825166
-0.0020940043
-0.0015005456
-0.0014952411
-0.0021335694
-0.002639624
-0.00256466
-0.0024669351
-0.002442262
-0.0024497962
-0.0023883614
-0.0021804218
-0.0012962288
-0.00060941404
-0.00081833719
-0.0016264585
-0.0016269481
-0.0015490919
-0.0015554779
-0.0015588693
-0.0012861035
-0.0011103324
-0.00043478209
-9.8692991e-05
-1.8923392e-05
-0.00030988196
-0.00032098224
-0.00029959466
-0.00030794668
-0.00030725313
-0.00016932031
-0.00019007236
0.00055909639
-0.00033357133
0.0008687006
0.00050919117
0.00037067315
0.00033608524
0.00026067214
8.1862483e-05
0.00024180661
0.00068151887
0.00068249923
0.0011469055
0.00265779
0.0018601938
0.0015695563
0.0015028464
0.0012872172
0.00060894859
0.00043282106
0.0012625591
0.0032030791
0.0044672228
0.0039163674
0.0035431544
0.0034427597
0.0034649432
0.0033830986
0.0028003569
0.0019180519
0.0015608185
0.0038633119
0.0031162707
0.0027750782
0.002642663
0.0026513331
0.002747634
0.0028528426
0.0027507824
0.0022967775
0.0017417431
-5.8558487e-05
-0.00031821739
-0.00041590597
-0.00039642854
-0.00031093503
-0.00019115025
-4.3459943e-05
8.8337012e-05
0.00014929553
0.00014984626
-0.0015577897
-0.0017227912
-0.0018401289
-0.0017824523
-0.0016386194
-0.0015149772
-0.0014147001
-0.0013380867
-0.001294098
-0.0012992904
-0.0022068459
-0.00258818
-0.0031007437
-0.0032527664
-0.0030975953
-0.0029732791
-0.0029207047
-0.0029202589
-0.0029373996
-0.0029637381
-0.0020855829
-0.0021138812
-0.002939979
-0.0035789279
-0.0034960442
-0.0033861724
-0.0033754421
-0.0034028673
-0.0032871159
-0.0028547942
-0.0017493483
-0.00084986372
-0.0010957378
-0.0020894021
-0.002104777
-0.0020278928
-0.0020659808
-0.002071372
-0.0015179077
-0.0012957584
-0.00058364502
-0.00014393275
-3.0486318e-05
-0.00038208838
-0.00040050924
-0.00038172123
-0.00040397087
-0.00039928018
-0.00011575644
-0.00025118064
0.00066784465
-0.00035142266
0.0010152667
0.00060195392
0.00044664956
0.00041264574
0.00032226426
8.4482726e-05
0.00028578199
0.0008259003
0.00087627045
0.0013974035
0.0031139731
0.0022000486
0.0018783201
0.0018194816
0.0015660623
0.00069858211
0.00050019685
0.001531215
0.0037822237
0.0052122886
0.0045848688
0.0041629762
0.0040605244
0.0041043555
0.0040171858
0.0032942658
0.002232706
0.0018348087
0.004484473
0.0036315473
0.00324882
0.0031072029
0.0031302901
0.003257351
0.0033920412
0.0032611651
0.0027065957
0.0020477293
-0.00011467269
-0.00039863496
-0.00049523969
-0.00045725567
-0.00034509156
-0.0001951404
-1.5947915e-05
0.00013378302
0.00018917368
0.00017009223
-0.0019426873
-0.0021292652
-0.0022549451
-0.0021726038
-0.0019931939
-0.0018434602
-0.0017282054
-0.0016507178
-0.0016227861
-0.0016628806
-0.0028321367
-0.0033243813
-0.0039530362
-0.004134471
-0.0039492221
-0.0038055476
-0.0037564798
-0.0037801308
-0.0038293693
-0.0038856773
-0.0027085649
-0.0027632883
-0.0037744304
-0.0045477681
-0.0044598759
-0.0043426465
-0.0043544566
-0.004415536
-0.0042551495
-0.0035732013
-0.0022257618
-0.0011136354
-0.0013931289
-0.0025730925
-0.0026065646
-0.0025367833
-0.0026187274
-0.0026423297
-0.0017763927
-0.0014795379
-0.0007320478
-0.00019192949
-4.4702362e-05
-0.00045719435
-0.00048394663
-0.00046991533
-0.00051067628
-0.00050745401
-5.6044144e-05
-0.00030955079
0.00077042205
-0.00037351139
0.0011576073
0.00069065626
0.00051910162
0.00048648168
0.00038201269
8.5505142e-05
0.00032913043
0.00096893766
0.0010512172
0.001631995
0.0035550045
0.0025260717
0.0021753216
0.0021268488
0.0018378957
0.00078113189
0.00056237704
0.0017933155
0.004344223
0.0059404745
0.0052382997
0.0047701015
0.0046681411
0.004736056
0.0046452692
0.003781448
0.002540666
0.0021012649
0.0050948137
0.0041370552
0.0037151308
0.0035668966
0.0036067428
0.0037664408
0.0039317044
0.0037713503
0.0031150836
0.0023510814
-0.00017169088
-0.00047795274
-0.0005709138
-0.00051199825
-0.00037136963
-0.00019029183
2.0384218e-05
0.00018665846
0.00023420644
0.00019310474
-0.0023203078
-0.0025259412
-0.0026577336
-0.002548813
-0.002332772
-0.0021570591
-0.0020282672
-0.0019529453
-0.0019456468
-0.0020261127
-0.0034518345
-0.0040532993
-0.0047975514
-0.0050079073
-0.0047926419
-0.004630957
-0.0045885281
-0.0046417841
-0.0047312176
-0.0048274707
-0.0033362903
-0.0034156137
-0.004611809
-0.0055202169
-0.0054284297
-0.0053063947
-0.0053458093
-0.0054490841
-0.00525311
-0.0043179759
-0.0027079615
-0.0013828127
-0.0016957779
-0.0030629958
-0.0031160467
-0.0030565495
-0.003189214
-0.0032422361
-0.0020581058
-0.001675427
-0.00088070908
-0.00024090186
-6.0083441e-05
-0.00053383595
-0.00056941821
-0.00056123708
-0.00062306215
-0.00062540587
3.6061612e-07
-0.0003702867
0.00087152539
-0.0003960478
0.0012977614
0.00077714028
0.00058973172
0.00055910968
0.00044116976
8.6062022e-05
0.00037245023
0.001111941
0.0012195485
0.0018589026
0.0039858193
0.0028424973
0.0024642876
0.0024282431
0.0021057225
0.00086004311
0.00062176301
0.0020527702
0.0048939414
0.0066537235
0.0058775362
0.0053646314
0.0052651659
0.0053593786
0.0052670056
0.0042629178
0.0028433002
0.0023626957
0.0056932668
0.0046312223
0.0041717351
0.004018852
0.0040774274
0.0042716056
0.0044690017
0.0042798296
0.003521995
0.0026528317
-0.0002315654
-0.00055861129
-0.00064581961
-0.0005638641
-0.00039306608
-0.00017969834
6.3032227e-05
0.00024563111
0.00028451867
0.00022041847
-0.0026922633
-0.0029151062
-0.0030508284
-0.0029132665
-0.0026592541
-0.0024571682
-0.0023154368
-0.0022439281
-0.0022597978
-0.0023835307
-0.0040632175
-0.004772789
-0.0056314175
-0.0058692497
-0.0056231934
-0.0054439203
-0.0054099533
-0.0054961909
-0.0056306201
-0.0057724737
-0.0039594197
-0.004062499
-0.0054433792
-0.0064862044
-0.0063903858
-0.006264718
-0.0063347469
-0.0064853848
-0.0062597547
-0.0050726108
-0.0031898724
-0.0016510539
-0.0019971453
-0.003551276
-0.0036241432
-0.0035764887
-0.0037637459
-0.0038527715
-0.0023509718
-0.0018800278
-0.0010297055
-0.00029021465
-7.5700645e-05
-0.00061061763
-0.00065514288
-0.0006533511
-0.00073763147
-0.00074792016
5.3797765e-05
-0.00043395748
0.00097158529
-0.00041806265
0.0014351755
0.00086096166
0.00065815066
0.00063017078
0.00049945682
8.6072661e-05
0.00041560247
0.0012547899
0.0013830651
0.0020784503
0.004404285
0.0031473223
0.0027432605
0.0027217998
0.0023680723
0.00093482958
0.00067826766
0.0023097954
0.0054293056
0.007347842
0.0064981775
0.0059420506
0.0058470001
0.0059698255
0.0058784194
0.0047360018
0.0031391987
0.0026188009
0.0062752282
0.005109691
0.0046142036
0.0044585135
0.0045377465
0.004768396
0.0049999522
0.0047836373
0.0039256052
0.0029524895
-0.00029624663
-0.00064243295
-0.0007217691
-0.00061465801
-0.00041188664
-0.00016480059
0.00011104318
0.00031053333
0.00034085385
0.00025356747
-0.0030590345
-0.0032970752
-0.0034342226
-0.0032656559
-0.002972017
-0.0027427261
-0.0025880336
-0.002521128
-0.0025616416
-0.0027304217
-0.0046647526
-0.0054808998
-0.0064517228
-0.0067147235
-0.0064364816
-0.0062393896
-0.0062148835
-0.0063363462
-0.0065190271
-0.0067101585
-0.0045737425
-0.0046995241
-0.0062635472
-0.0074387448
-0.0073378942
-0.0072089341
-0.0073115022
-0.0075130777
-0.0072620017
-0.0058246387
-0.0036675768
-0.0019145009
-0.002292611
-0.0040317018
-0.0041237588
-0.0040886676
-0.0043330526
-0.0044624799
-0.0026446136
-0.0020861946
-0.0011782725
-0.00033908509
-9.0587413e-05
-0.00068601692
-0.00073933124
-0.00074420784
-0.00085185132
-0.00087162877
0.00010639068
-0.00049934947
0.0010700244
-0.00043918256
0.0015685992
0.00094113835
0.00072352259
0.00069893129
0.00055632363
8.5281099e-05
0.00045828342
0.0013968619
0.0015408411
0.0022887033
0.0048061007
0.0034368222
0.0030088372
0.003004411
0.0026224601
0.001004189
0.00073120158
0.0025632864
0.0059455521
0.0080160334
0.007093671
0.0064960674
0.0064075207
0.0065615303
0.0064742467
0.0051967453
0.0034259522
0.0028681099
0.0068344686
0.0055668537
0.0050372051
0.0048807035
0.004982666
0.0052520096
0.0055201911
0.0052792591
0.0043236027
0.0032489131
-0.00036715807
-0.00073046866
-0.00079956931
-0.00066500579
-0.00042826314
-0.0001457579
0.00016464166
0.00038211982
0.00040456129
0.00029437837
-0.0034194124
-0.0036702108
-0.0038057895
-0.0036034849
-0.0032682644
-0.00301058
-0.0028424655
-0.0027804305
-0.0028465204
-0.0030616765
-0.0052534052
-0.0061738805
-0.0072536272
-0.0075386654
-0.0072263777
-0.0070107877
-0.0069962281
-0.0071545701
-0.007388123
-0.007631539
-0.0051751458
-0.0053222062
-0.0070664044
-0.0083705007
-0.0082629928
-0.008130581
-0.0082670477
-0.0085224759
-0.0082495999
-0.006564058
-0.0041372724
-0.0021699011
-0.002578175
-0.0044985365
-0.004608521
-0.004586278
-0.0048897671
-0.0050632468
-0.0029313492
-0.0022874259
-0.0013253324
-0.00038675385
-0.00010394246
-0.00075864868
-0.00082040221
-0.00083210396
-0.00096383961
-0.00099438129
0.00015985494
-0.00056509908
0.0011659204
-0.00045918031
0.0016964597
0.0010164721
0.00078484787
0.00076452268
0.00061113511
8.3427699e-05
0.00050011584
0.0015372497
0.0016910203
0.0024868292
0.0051859364
0.0037065288
0.0032570227
0.0032724626
0.0028660185
0.001066667
0.00077972171
0.0028115199
0.0064365476
0.0086500261
0.0076562471
0.0070193929
0.0069397384
0.0071278226
0.0070484652
0.0056405549
0.0037007074
0.0031086324
0.0073638031
0.0059963854
0.0054348894
0.0052798767
0.0054068713
0.0057173819
0.0060250485
0.0057628148
0.0047133371
0.0035406475
-0.00044515
-0.00082307408
-0.00087921612
-0.00071464433
-0.00044171093
-0.00012184266
0.00022484235
0.00046177222
0.00047744534
0.00034499446
-0.0037707264
-0.0040312956
-0.0041617306
-0.0039225688
-0.0035435534
-0.0032560155
-0.0030737172
-0.0030165062
-0.0031088244
-0.0033714978
-0.0058244152
-0.0068460577
-0.0080302109
-0.0083333254
-0.0079847779
-0.0077497105
-0.0077452687
-0.0079418472
-0.0082286842
-0.0085272876
-0.0057584618
-0.0059249907
-0.0078447587
-0.0092727485
-0.00915647
-0.0090201455
-0.0091915772
-0.0095035611
-0.0092126314
-0.0072816385
-0.0045946724
-0.0024139394
-0.0028498195
-0.0049458619
-0.0050719868
-0.0050626397
-0.0054269784
-0.0056480801
-0.0032050558
-0.0024782772
-0.0014696298
-0.00043249589
-0.00011509761
-0.00082721256
-0.00089689069
-0.00091551314
-0.0010720063
-0.001114582
0.00021532223
-0.00063006293
0.0012581197
-0.00047791819
0.0018169258
0.0010855924
0.00084098976
0.00082595127
0.00066316598
8.0251035e-05
0.00054065132
0.0016748131
0.0018312006
0.0026694098
0.0055377145
0.0039514374
0.0034833759
0.003521925
0.003095552
0.0011207485
0.000822922
0.0030523618
0.0068952471
0.009240513
0.0081772748
0.0075040116
0.0074359966
0.0076613732
0.0075944157
0.006062371
0.0039603536
0.0033381105
0.0078554103
0.0063915062
0.0058010717
0.005650228
0.0058048126
0.006159189
0.006509541
0.0062300992
0.0050919097
0.0038260712
-0.00053049161
-0.00091995333
-0.00096000407
-0.00076259175
-0.00045104309
-9.1677419e-05
0.00029322008
0.00055132415
0.00056167315
0.00040787147
-0.0041090363
-0.0043757719
-0.0044968602
-0.0042173529
-0.0037921318
-0.0034730898
-0.0032756507
-0.0032230299
-0.0033420759
-0.0036533092
-0.0063714015
-0.0074899519
-0.008772578
-0.009088954
-0.0087016678
-0.0084459524
-0.0084516079
-0.0086876333
-0.009030149
-0.0093869592
-0.0063171934
-0.0065009654
-0.0085898234
-0.010135028
-0.010007455
-0.0098665744
-0.01007388
-0.010445115
-0.010140354
-0.0079678548
-0.0050346891
-0.0026428459
-0.0031030758
-0.0053671065
-0.0055071038
-0.0055105592
-0.0059373832
-0.0062098851
-0.0034601224
-0.0026538339
-0.0016096911
-0.00047552927
-0.00012339792
-0.00089035802
-0.00096729025
-0.00099289248
-0.0011747791
-0.001230766
0.00027355354
-0.00069324027
0.0013452568
-0.00049536188
0.0019279324
0.0011469709
0.00089067773
0.00088209124
0.00071158452
7.5472603e-05
0.00057936289
0.0018081982
0.001958528
0.0028325414
0.0058547517
0.0041661112
0.0036830744
0.0037483823
0.0033075378
0.0011648618
0.00085984958
0.0032833443
0.0073139465
0.0097774457
0.0086475163
0.0079413889
0.0078881345
0.0081543189
0.0081049021
0.0064567714
0.0042016257
0.0035541434
0.0083010916
0.0067452096
0.0061294143
0.0059858277
0.0061708006
0.0065719147
0.0069684255
0.0066766466
0.0054562513
0.0041034875
-0.0006228303
-0.0010201498
-0.0010405592
-0.00080721971
-0.00045447216
-5.3351755e-05
0.00037179608
0.0006529749
0.00065972918
0.00048577091
-0.0044292418
-0.0046978816
-0.0048047784
-0.004481114
-0.0040071534
-0.0036548457
-0.0034411956
-0.003392821
-0.0035389987
-0.0038997461
-0.0068864756
-0.0080964035
-0.009469996
-0.009793951
-0.0093652642
-0.0090876244
-0.0091032394
-0.0093798425
-0.0097804834
-0.010198706
-0.0068434716
-0.0070418041
-0.0092911599
-0.01094508
-0.010803334
-0.010657147
-0.010901137
-0.011334391
-0.011020716
-0.0086123625
-0.0054512844
-0.0028521961
-0.003332802
-0.0057548242
-0.0059059611
-0.0059220281
-0.0064128863
-0.0067408914
-0.0036908574
-0.0028092422
-0.0017437765
-0.0005149412
-0.00012811337
-0.0009465961
-0.0010299559
-0.0010625683
-0.0012704542
-0.0013413832
0.0003351149
-0.0007536397
0.0014257653
-0.00051160396
0.0020272106
0.0011989434
0.00093252121
0.00093168973
0.00075544795
6.8785861e-05
0.00061564064
0.0019358534
0.0020697442
0.0029719121
0.0061299114
0.0043448047
0.0038510101
0.0039470998
0.0034981612
0.0011973873
0.00088951256
0.0035017172
0.0076845138
0.010250335
0.0090574065
0.0083227167
0.0082877013
0.0085984485
0.0085723472
0.0068180982
0.0044212036
0.0037542808
0.0086925506
0.0070505165
0.0064136493
0.0062808114
0.0064991679
0.0069499887
0.0073963206
0.0070978412
0.0058032179
0.0043712039
-0.0007211288
-0.0011220093
-0.0011188337
-0.00084627756
-0.0004496564
-4.4812794e-06
0.00046297682
0.00076923753
0.00077437839
0.00058173653
-0.0047251684
-0.0049907783
-0.0050780173
-0.0047061324
-0.0041808646
-0.0037934992
-0.0035625235
-0.003517991
-0.0036916265
-0.0041027269
-0.0073603731
-0.0086547289
-0.010110086
-0.010435079
-0.0099622331
-0.0096613604
-0.009686725
-0.010004975
-0.010466244
-0.010949264
-0.0073281206
-0.0075378316
-0.0099367692
-0.011688975
-0.011529872
-0.011377574
-0.011658975
-0.012157092
-0.01184025
-0.0092038362
-0.0058374489
-0.0030368476
-0.003533119
-0.006100665
-0.0062597563
-0.006288166
-0.0068444922
-0.0072324549
-0.0038912362
-0.0029394588
-0.0018698632
-0.00054965046
-0.00012839345
-0.00099426566
-0.0010830694
-0.0011226936
-0.0013571364
-0.0014447069
0.00040047269
-0.00081018865
0.0014978944
-0.00052688436
0.0021123321
0.0012397461
0.00096503693
0.00097338562
0.00079370929
5.9850714e-05
0.00064879213
0.0020560527
0.0021612422
0.0030828987
0.0063557958
0.004481631
0.0039819298
0.0041131362
0.0036633895
0.0012166842
0.00091089419
0.0037045038
0.0079986494
0.010648595
0.0093973817
0.0086392162
0.0086262336
0.0089854507
0.0089890063
0.0071406213
0.0046158237
0.003936114
0.0090217077
0.007300765
0.0066478417
0.0065296169
0.0067844821
0.0072879785
0.0077878767
0.0074890608
0.0061296981
0.0046276044
-0.00082359884
-0.0012231396
-0.0011920937
-0.00087690516
-0.00043373213
5.7746544e-05
0.00056950085
0.00090288348
0.00090861019
0.0006990373
-0.0049896712
-0.0052466627
-0.0053082116
-0.00488389
-0.004304817
-0.003880657
-0.0036312621
-0.0035901427
-0.003791482
-0.004253612
-0.0077826371
-0.0091529394
-0.010679089
-0.010997769
-0.010478007
-0.010152632
-0.010187493
-0.010548383
-0.0110728
-0.011624134
-0.0077608104
-0.0079781861
-0.010513306
-0.012351369
-0.012171484
-0.012012259
-0.012331704
-0.012897567
-0.012584199
-0.0097300423
-0.0061852732
-0.0031909703
-0.0036974536
-0.0063954776
-0.00655891
-0.0065993237
-0.0072223793
-0.007675074
-0.0040548543
-0.0030391747
-0.0019856577
-0.00057839713
-0.00012325131
-0.0010315369
-0.0011246471
-0.0011712522
-0.0014327337
-0.0015388077
0.00047003713
-0.00086168796
0.0015597361
-0.00054160211
0.0021807692
0.0012675657
0.00098669034
0.0010057417
0.00082523563
4.8293862e-05
0.00067804905
0.002166928
0.0022291515
0.0031607012
0.0065249858
0.0045707729
0.0040706205
0.0042415002
0.0037990839
0.001221137
0.00092297809
0.0038885725
0.0082481881
0.01096194
0.0096582599
0.0088824922
0.008895584
0.0093072172
0.0093472283
0.0074187336
0.0047824031
0.0040973701
0.0092810473
0.007489929
0.006826682
0.0067272531
0.0070217926
0.0075808145
0.008137976
0.0078458389
0.0064327239
0.0048712133
-0.00092764728
-0.0013203833
-0.00125692
-0.00089565829
-0.0004033586
0.00013651274
0.00069436787
0.0010568616
0.0010655473
0.00084106768
-0.0052147837
-0.0054569658
-0.0054863203
-0.0050053216
-0.0043701368
-0.0039075951
-0.0036387735
-0.0036006435
-0.0038298397
-0.0043434559
-0.0081418746
-0.0095780464
-0.011162238
-0.01146653
-0.010897213
-0.010546181
-0.010590262
-0.010994682
-0.011584715
-0.012207923
-0.0081302975
-0.0083510774
-0.011006403
-0.012915903
-0.012711655
-0.012544723
-0.012902722
-0.013539176
-0.013236826
-0.010178081
-0.0064860998
-0.0033081485
-0.0038186643
-0.006629512
-0.0067932898
-0.0068453059
-0.0075361022
-0.0080585472
-0.004175007
-0.0031028555
-0.0020886312
-0.00059975225
-0.00011156829
-0.0010564409
-0.0011525753
-0.0012060941
-0.0014949861
-0.0016215662
0.00054417772
-0.00090679851
0.0016092671
-0.00055631321
0.0022299729
0.0012806054
0.00099595182
0.0010272916
0.00084883867
3.3716391e-05
0.00070258188
0.0022665124
0.0022694618
0.0032005206
0.0066303289
0.0046067394
0.0041121379
0.0043273498
0.0039011477
0.0012092217
0.00092478752
0.0040507273
0.0084254433
0.011180821
0.0098316621
0.0090449269
0.0090882917
0.0095561834
0.0096397524
0.0076471666
0.0049181708
0.0042360078
0.009463983
0.0076129514
0.0069457921
0.006869581
0.0072068897
0.0078240277
0.0084419428
0.0081640305
0.0067095748
0.0051007424
-0.0010298487
-0.0014098194
-0.0013092384
-0.000898563
-0.00035479168
0.00023527707
0.00084073505
0.0012341801
0.0012483116
0.0010111996
-0.0053919249
-0.0056125946
-0.0056029151
-0.0050611339
-0.004367862
-0.0038656072
-0.0035765086
-0.0035409789
-0.0037980749
-0.0043633496
-0.0084260998
-0.0099164627
-0.011544228
-0.011825479
-0.011204225
-0.010826576
-0.010879597
-0.01132828
-0.011986251
-0.012684826
-0.008424758
-0.0086441432
-0.011401118
-0.013365725
-0.013133486
-0.012958148
-0.013355052
-0.014064802
-0.013781874
-0.01053476
-0.0067307479
-0.0033815538
-0.0038892423
-0.0067927125
-0.0069525304
-0.007015693
-0.007774901
-0.0083722387
-0.004244859
-0.0031248684
-0.0021760764
-0.0006121458
-9.211649e-05
-0.0010669211
-0.0011646714
-0.0012249958
-0.0015415212
-0.0016907124
0.00062322142
-0.000944052
0.0016444078
-0.00057171037
0.0022574689
0.0012771671
0.00099136857
0.0010366015
0.00086331892
1.5710416e-05
0.00072152377
0.0023527947
0.0022781943
0.0031977859
0.0066652735
0.0045846623
0.004102075
0.0043662294
0.0039657082
0.0011795931
0.00091544073
0.004187817
0.0085235835
0.0112969
0.0099104599
0.009120099
0.0091979753
0.0097256948
0.0098600269
0.0078212195
0.0050208001
0.004350311
0.009565226
0.0076660755
0.0070020274
0.0069535909
0.0073365604
0.0080139838
0.0086957489
0.0084399689
0.0069578645
0.0053151167
-0.0011259573
-0.0014868057
-0.0013443902
-0.00088120989
-0.00028399729
0.00035764862
0.0010117728
0.0014377452
0.0014598433
0.0012125857
-0.0055121736
-0.005704248
-0.0056485403
-0.0050421964
-0.0042893518
-0.0037464263
-0.0034364358
-0.0034031841
-0.0036880929
-0.0043048473
-0.0086231673
-0.010154504
-0.011809804
-0.012058979
-0.011383818
-0.010978883
-0.011040576
-0.011534048
-0.012262015
-0.013039234
-0.0086322136
-0.0088449063
-0.011682481
-0.013684133
-0.013420366
-0.013236063
-0.013672023
-0.014457501
-0.014203146
-0.010787087
-0.0069098148
-0.0034041884
-0.0039015909
-0.0068750969
-0.0070264432
-0.0071002564
-0.0079281064
-0.0086054424
-0.004257692
-0.0030996794
-0.0022451848
-0.00061391391
-6.3600635e-05
-0.0010609066
-0.0011587658
-0.001225745
-0.0015699354
-0.001743891
0.00070743703
-0.00097188264
0.0016631008
-0.00058858125
0.0022609725
0.0012557495
0.00097165169
0.0010323477
0.00086752456
-6.1133789e-06
0.0007340053
0.002423785
0.0022516201
0.0031484277
0.0066242419
0.0045006269
0.0040368624
0.0043543424
0.0039893327
0.0011311947
0.00089422432
0.0042968628
0.008537031
0.011303527
0.0098892302
0.0091032066
0.0092197334
0.0098103804
0.010002536
0.0079369896
0.0050885362
0.0044389749
0.0095811324
0.0076471512
0.006993753
0.0069776544
0.0074088204
0.0081480955
0.0088961997
0.008670601
0.0071756046
0.0055134739
-0.0012109677
-0.0015460704
-0.0013572522
-0.00083889654
-0.00018681107
0.00050721146
0.0012104769
0.0016701569
0.001702676
0.0014479165
-0.0055666133
-0.005722804
-0.0056141431
-0.0049400013
-0.0041267638
-0.0035427134
-0.0032115361
-0.0031803428
-0.00349283
-0.0041604662
-0.0087212939
-0.010278986
-0.011944442
-0.012152376
-0.011421936
-0.010989431
-0.011059566
-0.011598078
-0.012397701
-0.013256454
-0.0087410497
-0.0089413286
-0.011836158
-0.013855328
-0.013556753
-0.013363129
-0.013838047
-0.014701265
-0.01448521
-0.010922854
-0.0070140512
-0.0033692037
-0.0038483831
-0.0068672184
-0.0070055101
-0.0070894588
-0.0079856336
-0.008747835
-0.0042072229
-0.0030221177
-0.0022931468
-0.00060336716
-2.4721167e-05
-0.001036408
-0.0011328083
-0.0012062477
-0.0015778991
-0.0017787501
0.00079700527
-0.00098867999
0.0016634078
-0.00060774328
0.0022385192
0.0012151598
0.00093577724
0.0010134088
0.00086042476
-3.2086369e-05
0.00073920038
0.0024775904
0.0021865273
0.0030491945
0.0065030301
0.0043520248
0.0039140937
0.0042888486
0.0039692701
0.0010633894
0.00086068434
0.004375201
0.0084618625
0.011196217
0.0097646928
0.0089914737
0.0091505272
0.009806514
0.010063117
0.007991593
0.0051203118
0.0045011799
0.0095100101
0.0075558971
0.0069210738
0.0069417315
0.0074231035
0.0082249963
0.009041085
0.0088535904
0.0073612361
0.0056951332
-0.0012792361
-0.0015818625
-0.0013424122
-0.00076682222
-5.9147428e-05
0.00068730408
0.0014394366
0.0019334616
0.0019786702
0.0017191362
-0.0055467442
-0.0056597729
-0.0054915678
-0.0047471828
-0.0038735864
-0.0032485988
-0.002896352
-0.00286714
-0.0032068075
-0.0039242426
-0.0087096609
-0.010277904
-0.01193512
-0.012092825
-0.011306526
-0.010846667
-0.010925067
-0.011508532
-0.012380919
-0.013323512
-0.0087406169
-0.0089224534
-0.011849203
-0.013865259
-0.013529051
-0.013326025
-0.013839507
-0.014781877
-0.014614197
-0.010931309
-0.0070348083
-0.0032702931
-0.0037229966
-0.0067607061
-0.0068814539
-0.0069750315
-0.0079385565
-0.0087900115
-0.0040879881
-0.0028877018
-0.0023172716
-0.00057888153
2.5739528e-05
-0.00099163613
-0.0010849958
-0.0011646588
-0.0015632858
-0.0017930546
0.00089197335
-0.00099286365
0.0016436259
-0.0006299556
0.0021886079
0.0011546356
0.00088309767
0.0009789694
0.00084119605
-6.2430831e-05
0.0007363829
0.0025124983
0.0020805263
0.0028979992
0.0062992179
0.0041379134
0.0037328574
0.0041681752
0.0039037117
0.0009761074
0.00081473271
0.0044206349
0.008296191
0.010973078
0.0095361052
0.0087845127
0.0089895256
0.0097123412
0.010039253
0.0079833617
0.0051158418
0.004536647
0.0093523578
0.0073940925
0.0067859974
0.0068475129
0.007380391
0.0082446596
0.0091292817
0.0089873786
0.0075136233
0.0058595311
-0.0013246655
-0.0015881648
-0.0012944038
-0.00066033632
0.00010274296
0.00090075504
0.0017005642
0.0022288711
0.0022887149
0.0020271285
-0.0054449563
-0.0055078087
-0.005274102
-0.0044580813
-0.0035252113
-0.00286026
-0.002487568
-0.0024604462
-0.0028267187
-0.003592323
-0.0085790796
-0.01014118
-0.011771147
-0.011870159
-0.011028428
-0.010542043
-0.010628615
-0.011256532
-0.012202074
-0.013230009
-0.0086219004
-0.0087791201
-0.011710879
-0.013702531
-0.013326538
-0.013114381
-0.013665688
-0.01468784
-0.014578657
-0.010803882
-0.006964548
-0.0031021543
-0.0035200206
-0.006548869
-0.0066478681
-0.0067506116
-0.0077797448
-0.008724089
-0.003895787
-0.0026930227
-0.0023151271
-0.00053901167
8.880765e-05
-0.00092514153
-0.0010139205
-0.0010995324
-0.0015243233
-0.0017848226
0.00099219297
-0.00098297974
0.0016024177
-0.00065581111
0.0021103492
0.0010739717
0.0008134588
0.0009286313
0.00080931825
-9.7198726e-05
0.0007249921
0.0025270633
0.001932381
0.0026942783
0.0060125659
0.0038593607
0.0034940589
0.0039923234
0.003792055
0.0008700033
0.00075676309
0.0044315878
0.0080405019
0.010635176
0.0092055844
0.0084846163
0.008738383
0.0095283494