/*--------------------------------*- C++ -*----------------------------------*\
| =========                 |                                                 |
| \\      /  F ield         | OpenFOAM: The Open Source CFD Toolbox           |
|  \\    /   O peration     | Version:  v2106                                 |
|   \\  /    A nd           | Website:  www.openfoam.com                      |
|    \\/     M anipulation  |                                                 |
\*---------------------------------------------------------------------------*/
FoamFile
{
    version     2.0;
    format      ascii;
    arch        "LSB;label=32;scalar=64";
    class       volScalarField;
    location    "10";
    object      gradTz;
}
// * * * * * * * * * * * * * * * * * * * * * * * * * * * * * * * * * * * * * //

dimensions      [0 -1 0 1 0 0 0];

internalField   nonuniform List<scalar> 
4000
(
113.38195
113.38187
113.38106
113.38285
113.38309
113.38289
113.38259
113.38227
113.38199
113.38182
113.38187
113.38081
113.38149
113.38294
113.38304
113.38281
113.38248
113.38213
113.38188
113.38186
113.38106
113.38149
113.38193
113.38321
113.38327
113.38302
113.38266
113.3822
113.38183
113.38186
113.38285
113.38294
113.38321
113.38444
113.38448
113.38423
113.38387
113.38334
113.38278
113.38255
113.38309
113.38304
113.38327
113.38448
113.38452
113.38429
113.38396
113.38347
113.38293
113.3827
113.38289
113.38281
113.38302
113.38423
113.38429
113.38409
113.38377
113.38331
113.3828
113.3826
113.38259
113.38248
113.38266
113.38387
113.38396
113.38377
113.38348
113.38303
113.38253
113.38233
113.38227
113.38213
113.3822
113.38334
113.38347
113.38331
113.38303
113.38258
113.38208
113.38188
113.38199
113.38188
113.38183
113.38278
113.38293
113.3828
113.38253
113.38208
113.38158
113.3814
113.38182
113.38186
113.38186
113.38255
113.3827
113.3826
113.38233
113.38188
113.3814
113.38127
170.82951
170.82984
170.82974
170.83153
170.83183
170.83157
170.83113
170.83063
170.83021
170.82981
170.82984
170.8296
170.83043
170.83194
170.83211
170.83182
170.83133
170.83076
170.83046
170.83037
170.82974
170.83043
170.83112
170.8325
170.83262
170.83231
170.83176
170.83099
170.8305
170.83047
170.83153
170.83194
170.8325
170.8338
170.8339
170.8336
170.83306
170.83221
170.83148
170.83116
170.83183
170.83211
170.83262
170.8339
170.83402
170.83374
170.83324
170.83243
170.83171
170.83138
170.83157
170.83182
170.83231
170.8336
170.83374
170.8335
170.83303
170.83225
170.83156
170.83126
170.83113
170.83133
170.83176
170.83306
170.83324
170.83303
170.83258
170.83182
170.83113
170.83083
170.83063
170.83076
170.83099
170.83221
170.83243
170.83225
170.83182
170.83105
170.83037
170.83006
170.83021
170.83046
170.8305
170.83148
170.83171
170.83156
170.83113
170.83037
170.8297
170.82946
170.82981
170.83037
170.83047
170.83116
170.83138
170.83126
170.83083
170.83006
170.82946
170.82931
176.40456
176.40526
176.40557
176.40687
176.40708
176.40682
176.40636
176.4058
176.40542
176.40494
176.40526
176.40536
176.40617
176.40729
176.40742
176.40714
176.40662
176.40592
176.40568
176.40557
176.40557
176.40617
176.40689
176.40791
176.40801
176.40773
176.40716
176.40624
176.40579
176.40573
176.40687
176.40729
176.40791
176.40889
176.40899
176.40872
176.40816
176.40718
176.40652
176.40626
176.40708
176.40742
176.40801
176.40899
176.40909
176.40886
176.40833
176.40738
176.40673
176.40645
176.40682
176.40714
176.40773
176.40872
176.40886
176.40865
176.40816
176.40723
176.4066
176.40633
176.40636
176.40662
176.40716
176.40816
176.40833
176.40816
176.40768
176.40676
176.40613
176.40584
176.4058
176.40592
176.40624
176.40718
176.40738
176.40723
176.40676
176.40584
176.4052
176.40492
176.40542
176.40568
176.40579
176.40652
176.40673
176.4066
176.40613
176.4052
176.40462
176.40453
176.40494
176.40557
176.40573
176.40626
176.40645
176.40633
176.40584
176.40492
176.40453
176.40435
185.26581
185.26634
185.26652
185.26768
185.26785
185.26759
185.26709
185.26644
185.26603
185.26559
185.26634
185.26641
185.26706
185.26806
185.26816
185.26789
185.26733
185.2665
185.26621
185.26608
185.26652
185.26706
185.26763
185.26854
185.26863
185.26837
185.26777
185.26673
185.26625
185.26623
185.26768
185.26806
185.26854
185.26942
185.26951
185.26927
185.26869
185.26758
185.26691
185.2667
185.26785
185.26816
185.26863
185.26951
185.26962
185.26941
185.26887
185.26778
185.2671
185.26687
185.26759
185.26789
185.26837
185.26927
185.26941
185.26923
185.26871
185.26764
185.26698
185.26675
185.26709
185.26733
185.26777
185.26869
185.26887
185.26871
185.26821
185.26714
185.26646
185.2662
185.26644
185.2665
185.26673
185.26758
185.26778
185.26764
185.26714
185.26606
185.26537
185.26511
185.26603
185.26621
185.26625
185.26691
185.2671
185.26698
185.26646
185.26537
185.26479
185.26489
185.26559
185.26608
185.26623
185.2667
185.26687
185.26675
185.2662
185.26511
185.26489
185.26469
197.40459
197.40495
197.40504
197.40615
197.4063
197.40604
197.40553
197.4048
197.40432
197.40387
197.40495
197.40493
197.4055
197.40645
197.40655
197.40629
197.40573
197.40482
197.40446
197.40432
197.40504
197.4055
197.406
197.40687
197.40695
197.40671
197.40611
197.40501
197.40447
197.40443
197.40615
197.40645
197.40687
197.40772
197.40781
197.40759
197.40701
197.40583
197.4051
197.40488
197.4063
197.40655
197.40695
197.40781
197.40792
197.40773
197.40719
197.40603
197.4053
197.40505
197.40604
197.40629
197.40671
197.40759
197.40773
197.40756
197.40705
197.40591
197.40518
197.40492
197.40553
197.40573
197.40611
197.40701
197.40719
197.40705
197.40655
197.4054
197.40464
197.40433
197.4048
197.40482
197.40501
197.40583
197.40603
197.40591
197.4054
197.40421
197.40343
197.40313
197.40432
197.40446
197.40447
197.4051
197.4053
197.40518
197.40464
197.40343
197.40277
197.40294
197.40387
197.40432
197.40443
197.40488
197.40505
197.40492
197.40433
197.40313
197.40294
197.40276
212.81421
212.81452
212.81458
212.81567
212.81581
212.81555
212.81504
212.81431
212.81379
212.81335
212.81452
212.81446
212.81501
212.81594
212.81603
212.81578
212.81523
212.81431
212.81393
212.81378
212.81458
212.81501
212.81547
212.81633
212.81641
212.81618
212.8156
212.81448
212.81392
212.81388
212.81567
212.81594
212.81633
212.81716
212.81726
212.81705
212.81649
212.81529
212.81455
212.81432
212.81581
212.81603
212.81641
212.81726
212.81737
212.81719
212.81667
212.8155
212.81474
212.81449
212.81555
212.81578
212.81618
212.81705
212.81719
212.81705
212.81655
212.81539
212.81463
212.81436
212.81504
212.81523
212.8156
212.81649
212.81667
212.81655
212.81606
212.81489
212.81409
212.81376
212.81431
212.81431
212.81448
212.81529
212.8155
212.81539
212.81489
212.81367
212.81284
212.8125
212.81379
212.81393
212.81392
212.81455
212.81474
212.81463
212.81409
212.81284
212.81212
212.8123
212.81335
212.81378
212.81388
212.81432
212.81449
212.81436
212.81376
212.8125
212.8123
212.81212
231.48561
231.48591
231.48595
231.48703
231.48716
231.48691
231.48641
231.48568
231.48516
231.48471
231.48591
231.48585
231.48638
231.48729
231.48738
231.48713
231.48659
231.48568
231.48529
231.48514
231.48595
231.48638
231.48682
231.48767
231.48775
231.48752
231.48695
231.48584
231.48528
231.48524
231.48703
231.48729
231.48767
231.48849
231.48858
231.48838
231.48784
231.48665
231.4859
231.48567
231.48716
231.48738
231.48775
231.48858
231.48869
231.48853
231.48803
231.48686
231.4861
231.48584
231.48691
231.48713
231.48752
231.48838
231.48853
231.4884
231.48792
231.48676
231.486
231.48572
231.48641
231.48659
231.48695
231.48784
231.48803
231.48792
231.48744
231.48626
231.48546
231.48512
231.48568
231.48568
231.48584
231.48665
231.48686
231.48676
231.48626
231.48504
231.4842
231.48383
231.48516
231.48529
231.48528
231.4859
231.4861
231.486
231.48546
231.4842
231.48346
231.48362
231.48471
231.48514
231.48524
231.48567
231.48584
231.48572
231.48512
231.48383
231.48362
231.48343
253.40222
253.40252
253.40255
253.40361
253.40373
253.40348
253.40299
253.40227
253.40176
253.40131
253.40252
253.40246
253.40297
253.40386
253.40394
253.4037
253.40317
253.40227
253.40189
253.40174
253.40255
253.40297
253.4034
253.40423
253.4043
253.40408
253.40352
253.40242
253.40187
253.40183
253.40361
253.40386
253.40423
253.40504
253.40512
253.40493
253.4044
253.40323
253.40249
253.40226
253.40373
253.40394
253.4043
253.40512
253.40523
253.40508
253.40459
253.40344
253.40268
253.40243
253.40348
253.4037
253.40408
253.40493
253.40508
253.40496
253.40449
253.40335
253.40259
253.40232
253.40299
253.40317
253.40352
253.4044
253.40459
253.40449
253.40403
253.40287
253.40207
253.40172
253.40227
253.40227
253.40242
253.40323
253.40344
253.40335
253.40287
253.40166
253.4008
253.40044
253.40176
253.40189
253.40187
253.40249
253.40268
253.40259
253.40207
253.4008
253.40006
253.40022
253.40131
253.40174
253.40183
253.40226
253.40243
253.40232
253.40172
253.40044
253.40022
253.40002
278.5352
278.5355
278.53552
278.53655
278.53666
278.53641
278.53593
278.53522
278.53472
278.53428
278.5355
278.53543
278.53593
278.5368
278.53686
278.53662
278.53611
278.53522
278.53485
278.5347
278.53552
278.53593
278.53634
278.53714
278.53721
278.53699
278.53645
278.53537
278.53483
278.53479
278.53655
278.5368
278.53714
278.53793
278.53801
278.53783
278.53731
278.53616
278.53543
278.53521
278.53666
278.53686
278.53721
278.53801
278.53811
278.53797
278.5375
278.53637
278.53563
278.53538
278.53641
278.53662
278.53699
278.53783
278.53797
278.53786
278.53742
278.53629
278.53555
278.53528
278.53593
278.53611
278.53645
278.53731
278.5375
278.53742
278.53698
278.53583
278.53504
278.5347
278.53522
278.53522
278.53537
278.53616
278.53637
278.53629
278.53583
278.53463
278.53379
278.53342
278.53472
278.53485
278.53483
278.53543
278.53563
278.53555
278.53504
278.53379
278.53305
278.53321
278.53428
278.5347
278.53479
278.53521
278.53538
278.53528
278.5347
278.53342
278.53321
278.53302
306.83839
306.83868
306.8387
306.83969
306.83979
306.83954
306.83907
306.83838
306.83789
306.83745
306.83868
306.83862
306.83909
306.83992
306.83998
306.83974
306.83924
306.83837
306.83802
306.83788
306.8387
306.83909
306.83948
306.84025
306.8403
306.84009
306.83957
306.83851
306.83799
306.83795
306.83969
306.83992
306.84025
306.841
306.84107
306.8409
306.84041
306.83928
306.83858
306.83837
306.83979
306.83998
306.8403
306.84107
306.84117
306.84104
306.8406
306.83949
306.83878
306.83854
306.83954
306.83974
306.84009
306.8409
306.84104
306.84094
306.84052
306.83943
306.83871
306.83846
306.83907
306.83924
306.83957
306.84041
306.8406
306.84052
306.84011
306.83899
306.83823
306.8379
306.83838
306.83837
306.83851
306.83928
306.83949
306.83943
306.83899
306.83783
306.837
306.83664
306.83789
306.83802
306.83799
306.83858
306.83878
306.83871
306.83823
306.837
306.83628
306.83644
306.83745
306.83788
306.83795
306.83837
306.83854
306.83846
306.8379
306.83664
306.83644
306.83625
338.2432
338.24348
338.24349
338.24443
338.24451
338.24426
338.24382
338.24315
338.24268
338.24225
338.24348
338.24342
338.24386
338.24464
338.24468
338.24445
338.24398
338.24314
338.2428
338.24267
338.24349
338.24386
338.24422
338.24494
338.24498
338.24478
338.24429
338.24326
338.24277
338.24274
338.24443
338.24464
338.24494
338.24565
338.24571
338.24555
338.2451
338.244
338.24333
338.24314
338.24451
338.24468
338.24498
338.24571
338.2458
338.24569
338.24528
338.24421
338.24354
338.24332
338.24426
338.24445
338.24478
338.24555
338.24569
338.24561
338.24523
338.24417
338.24349
338.24325
338.24382
338.24398
338.24429
338.2451
338.24528
338.24523
338.24485
338.24377
338.24304
338.24272
338.24315
338.24314
338.24326
338.244
338.24421
338.24417
338.24377
338.24264
338.24185
338.24149
338.24268
338.2428
338.24277
338.24333
338.24354
338.24349
338.24304
338.24185
338.24115
338.24132
338.24225
338.24267
338.24274
338.24314
338.24332
338.24325
338.24272
338.24149
338.24132
338.24113
372.65362
372.65389
372.65389
372.65477
372.65483
372.65459
372.65417
372.65353
372.65308
372.65267
372.65389
372.65384
372.65424
372.65496
372.65499
372.65477
372.65432
372.65352
372.6532
372.65308
372.65389
372.65424
372.65456
372.65523
372.65525
372.65507
372.65461
372.65363
372.65316
372.65314
372.65477
372.65496
372.65523
372.65589
372.65593
372.65579
372.65538
372.65433
372.6537
372.65352
372.65483
372.65499
372.65525
372.65593
372.65602
372.65592
372.65555
372.65454
372.65391
372.65371
372.65459
372.65477
372.65507
372.65579
372.65592
372.65586
372.65552
372.65452
372.65388
372.65366
372.65417
372.65432
372.65461
372.65538
372.65555
372.65552
372.65519
372.65416
372.65348
372.65318
372.65353
372.65352
372.65363
372.65433
372.65454
372.65452
372.65416
372.65309
372.65233
372.65199
372.65308
372.6532
372.65316
372.6537
372.65391
372.65388
372.65348
372.65233
372.65167
372.65185
372.65267
372.65308
372.65314
372.65352
372.65371
372.65366
372.65318
372.65199
372.65185
372.65166
409.94168
409.94193
409.94192
409.94272
409.94276
409.94253
409.94214
409.94154
409.94113
409.94074
409.94193
409.94188
409.94223
409.94289
409.94289
409.94269
409.94228
409.94152
409.94124
409.94113
409.94192
409.94223
409.94251
409.94311
409.94312
409.94295
409.94254
409.94162
409.94119
409.94119
409.94272
409.94289
409.94311
409.94371
409.94374
409.94363
409.94326
409.94228
409.9417
409.94155
409.94276
409.94289
409.94312
409.94374
409.94382
409.94375
409.94343
409.94249
409.94191
409.94173
409.94253
409.94269
409.94295
409.94363
409.94375
409.94371
409.94343
409.9425
409.94191
409.94172
409.94214
409.94228
409.94254
409.94326
409.94343
409.94343
409.94314
409.94219
409.94156
409.94128
409.94154
409.94152
409.94162
409.94228
409.94249
409.9425
409.94219
409.94118
409.94048
409.94016
409.94113
409.94124
409.94119
409.9417
409.94191
409.94191
409.94156
409.94048
409.93986
409.94005
409.94074
409.94113
409.94119
409.94155
409.94173
409.94172
409.94128
409.94016
409.94005
409.93987
449.94345
449.94368
449.94365
449.94437
449.94438
449.94416
449.94381
449.94327
449.9429
449.94253
449.94368
449.94363
449.94393
449.9445
449.94449
449.9443
449.94394
449.94325
449.943
449.94291
449.94365
449.94393
449.94416
449.94468
449.94467
449.94453
449.94417
449.94332
449.94295
449.94296
449.94437
449.9445
449.94468
449.9452
449.94522
449.94513
449.94482
449.94393
449.94342
449.94329
449.94438
449.94449
449.94467
449.94522
449.94529
449.94525
449.94499
449.94413
449.94362
449.94348
449.94416
449.9443
449.94453
449.94513
449.94525
449.94524
449.94502
449.94418
449.94366
449.9435
449.94381
449.94394
449.94417
449.94482
449.94499
449.94502
449.9448
449.94394
449.94337
449.94313
449.94327
449.94325
449.94332
449.94393
449.94413
449.94418
449.94394
449.94301
449.94237
449.94208
449.9429
449.943
449.94295
449.94342
449.94362
449.94366
449.94337
449.94237
449.94181
449.94201
449.94253
449.94291
449.94296
449.94329
449.94348
449.9435
449.94313
449.94208
449.94201
449.94185
492.45601
492.45622
492.45617
492.45678
492.45676
492.45657
492.45627
492.45579
492.45547
492.45514
492.45622
492.45617
492.4564
492.45688
492.45684
492.45668
492.45638
492.45576
492.45556
492.45549
492.45617
492.4564
492.45657
492.45701
492.45698
492.45687
492.45657
492.45582
492.4555
492.45553
492.45678
492.45688
492.45701
492.45744
492.45745
492.45739
492.45715
492.45636
492.45593
492.45583
492.45676
492.45684
492.45698
492.45745
492.4575
492.4575
492.45732
492.45656
492.45613
492.45603
492.45657
492.45668
492.45687
492.45739
492.4575
492.45753
492.45738
492.45665
492.45622
492.45609
492.45627
492.45638
492.45657
492.45715
492.45732
492.45738
492.45724
492.45648
492.456
492.45579
492.45579
492.45576
492.45582
492.45636
492.45656
492.45665
492.45648
492.45566
492.4551
492.45483
492.45547
492.45556
492.4555
492.45593
492.45613
492.45622
492.456
492.4551
492.4546
492.45481
492.45514
492.45549
492.45553
492.45583
492.45603
492.45609
492.45579
492.45483
492.45481
492.45467
537.23546
537.23563
537.23557
537.23605
537.23601
537.23585
537.23561
537.2352
537.23494
537.23466
537.23563
537.23558
537.23574
537.23611
537.23606
537.23593
537.23569
537.23516
537.23502
537.23497
537.23557
537.23574
537.23584
537.23618
537.23614
537.23606
537.23585
537.2352
537.23496
537.235
537.23605
537.23611
537.23618
537.23652
537.23652
537.2365
537.23634
537.23567
537.23533
537.23527
537.23601
537.23606
537.23614
537.23652
537.23656
537.2366
537.2365
537.23587
537.23554
537.23548
537.23585
537.23593
537.23606
537.2365
537.2366
537.23668
537.23661
537.236
537.23567
537.23559
537.23561
537.23569
537.23585
537.23634
537.2365
537.23661
537.23655
537.23592
537.23553
537.23537
537.2352
537.23516
537.2352
537.23567
537.23587
537.236
537.23592
537.23522
537.23475
537.23453
537.23494
537.23502
537.23496
537.23533
537.23554
537.23567
537.23553
537.23475
537.23433
537.23456
537.23466
537.23497
537.235
537.23527
537.23548
537.23559
537.23537
537.23453
537.23456
537.23444
583.9962
583.99632
583.99625
583.9966
583.99653
583.9964
583.99623
583.99592
583.99573
583.9955
583.99632
583.99628
583.99636
583.99661
583.99654
583.99645
583.99629
583.99587
583.9958
583.99577
583.99625
583.99636
583.99639
583.99661
583.99656
583.99653
583.9964
583.99588
583.99572
583.99579
583.9966
583.99661
583.99661
583.99685
583.99684
583.99687
583.9968
583.99627
583.99603
583.99603
583.99653
583.99654
583.99656
583.99684
583.99688
583.99696
583.99696
583.99647
583.99625
583.99624
583.9964
583.99645
583.99653
583.99687
583.99696
583.99709
583.99712
583.99665
583.99643
583.9964
583.99623
583.99629
583.9964
583.9968
583.99696
583.99712
583.99716
583.99667
583.99639
583.99628
583.99592
583.99587
583.99588
583.99627
583.99647
583.99665
583.99667
583.99611
583.99575
583.99557
583.99573
583.9958
583.99572
583.99603
583.99625
583.99643
583.99639
583.99575
583.99542
583.99567
583.9955
583.99577
583.99579
583.99603
583.99624
583.9964
583.99628
583.99557
583.99567
583.99557
632.41169
632.41177
632.41167
632.41188
632.41179
632.4117
632.41161
632.4114
632.41129
632.41112
632.41177
632.41172
632.41171
632.41184
632.41175
632.4117
632.41164
632.41134
632.41134
632.41135
632.41167
632.41171
632.41166
632.41177
632.41171
632.41172
632.4117
632.41132
632.41126
632.41136
632.41188
632.41184
632.41177
632.4119
632.41188
632.41196
632.412
632.41163
632.41151
632.41156
632.41179
632.41175
632.41171
632.41188
632.41191
632.41205
632.41215
632.41183
632.41173
632.41178
632.4117
632.4117
632.41172
632.41196
632.41205
632.41223
632.41237
632.41207
632.41197
632.41199
632.41161
632.41164
632.4117
632.412
632.41215
632.41237
632.41252
632.41219
632.41203
632.41198
632.4114
632.41134
632.41132
632.41163
632.41183
632.41207
632.41219
632.4118
632.41155
632.41142
632.41129
632.41134
632.41126
632.41151
632.41173
632.41197
632.41203
632.41155
632.41133
632.41159
632.41112
632.41135
632.41136
632.41156
632.41178
632.41199
632.41198
632.41142
632.41159
632.41153
682.11668
682.11671
682.11659
682.11665
682.11653
682.1165
682.1165
682.11641
682.11639
682.11628
682.11671
682.11666
682.11656
682.11656
682.11645
682.11646
682.1165
682.11634
682.11642
682.11647
682.11659
682.11656
682.11643
682.11642
682.11635
682.11642
682.1165
682.11629
682.11634
682.11647
682.11665
682.11656
682.11642
682.11643
682.1164
682.11654
682.1167
682.11651
682.11652
682.11662
682.11653
682.11645
682.11635
682.1164
682.11643
682.11663
682.11685
682.11671
682.11674
682.11685
682.1165
682.11646
682.11642
682.11654
682.11663
682.11687
682.11713
682.117
682.11704
682.11713
682.1165
682.1165
682.1165
682.1167
682.11685
682.11713
682.11739
682.11724
682.11722
682.11723
682.11641
682.11634
682.11629
682.11651
682.11671
682.117
682.11724
682.11703
682.11692
682.11684
682.11639
682.11642
682.11634
682.11652
682.11674
682.11704
682.11722
682.11692
682.11681
682.11709
682.11628
682.11647
682.11647
682.11662
682.11685
682.11713
682.11723
682.11684
682.11709
682.11706
732.711
732.71097
732.71083
732.71073
732.7106
732.71061
732.71072
732.71076
732.71084
732.7108
732.71097
732.71091
732.71072
732.71057
732.71046
732.71053
732.71068
732.71067
732.71084
732.71094
732.71083
732.71072
732.7105
732.71036
732.71029
732.71043
732.71063
732.7106
732.71076
732.71093
732.71073
732.71057
732.71036
732.71026
732.71023
732.71043
732.71072
732.71072
732.71087
732.71104
732.7106
732.71046
732.71029
732.71023
732.71026
732.71052
732.71087
732.71092
732.7111
732.71127
732.71061
732.71053
732.71043
732.71043
732.71052
732.71083
732.71121
732.71128
732.71145
732.71161
732.71072
732.71068
732.71063
732.71072
732.71087
732.71121
732.71159
732.71164
732.71176
732.71184
732.71076
732.71067
732.7106
732.71072
732.71092
732.71128
732.71164
732.71162
732.71165
732.71164
732.71084
732.71084
732.71076
732.71087
732.7111
732.71145
732.71176
732.71165
732.71167
732.71196
732.7108
732.71094
732.71093
732.71104
732.71127
732.71161
732.71184
732.71164
732.71196
732.71197
783.76472
783.76463
783.76447
783.76421
783.76407
783.76415
783.76436
783.76453
783.76472
783.76477
783.76463
783.76456
783.76428
783.764
783.76389
783.76402
783.76428
783.76444
783.7647
783.76485
783.76447
783.76428
783.76398
783.76372
783.76365
783.76385
783.76418
783.76434
783.76462
783.76483
783.76421
783.764
783.76372
783.76349
783.76347
783.76374
783.76415
783.76436
783.76466
783.76489
783.76407
783.76389
783.76365
783.76347
783.76351
783.76383
783.7643
783.76456
783.76489
783.76514
783.76415
783.76402
783.76385
783.76374
783.76383
783.7642
783.76471
783.76498
783.76531
783.76554
783.76436
783.76428
783.76418
783.76415
783.7643
783.76471
783.76522
783.76547
783.76574
783.7659
783.76453
783.76444
783.76434
783.76436
783.76456
783.76498
783.76547
783.76565
783.76584
783.7659
783.76472
783.7647
783.76462
783.76466
783.76489
783.76531
783.76574
783.76584
783.76599
783.7663
783.76477
783.76485
783.76483
783.76489
783.76514
783.76554
783.7659
783.7659
783.7663
783.76635
834.82476
834.8246
834.82442
834.824
834.82386
834.824
834.82433
834.82465
834.82494
834.82508
834.8246
834.82451
834.82414
834.82373
834.82362
834.82383
834.82421
834.82453
834.8249
834.82509
834.82442
834.82414
834.82376
834.82338
834.82332
834.8236
834.82406
834.82442
834.82482
834.82507
834.824
834.82373
834.82338
834.82304
834.82303
834.82337
834.82391
834.82433
834.82478
834.82508
834.82386
834.82362
834.82332
834.82303
834.82308
834.82347
834.82407
834.82453
834.82502
834.82534
834.824
834.82383
834.8236
834.82337
834.82347
834.82391
834.82453
834.82502
834.8255
834.82581
834.82433
834.82421
834.82406
834.82391
834.82407
834.82453
834.82516
834.82563
834.82606
834.82629
834.82465
834.82453
834.82442
834.82433
834.82453
834.82502
834.82563
834.82602
834.82636
834.8265
834.82494
834.8249
834.82482
834.82478
834.82502
834.8255
834.82606
834.82636
834.82665
834.82697
834.82508
834.82509
834.82507
834.82508
834.82534
834.82581
834.82629
834.8265
834.82697
834.82707
885.42241
885.42219
885.42199
885.42142
885.42128
885.4215
885.42194
885.4224
885.42281
885.42304
885.42219
885.42209
885.42163
885.42109
885.421
885.42128
885.42179
885.42228
885.42274
885.42298
885.42199
885.42163
885.42118
885.42069
885.42064
885.42099
885.42158
885.42214
885.42266
885.42295
885.42142
885.42109
885.42069
885.42024
885.42025
885.42065
885.42132
885.42195
885.42256
885.42293
885.42128
885.421
885.42064
885.42025
885.4203
885.42076
885.42148
885.42216
885.4228
885.42319
885.4215
885.42128
885.42099
885.42065
885.42076
885.42126
885.422
885.4227
885.42333
885.42371
885.42194
885.42179
885.42158
885.42132
885.42148
885.422
885.42275
885.42342
885.42401
885.42433
885.4224
885.42228
885.42214
885.42195
885.42216
885.4227
885.42342
885.42403
885.42453
885.42474
885.42281
885.42274
885.42266
885.42256
885.4228
885.42333
885.42401
885.42453
885.42496
885.42529
885.42304
885.42298
885.42295
885.42293
885.42319
885.42371
885.42433
885.42474
885.42529
885.42544
935.08183
935.08154
935.08134
935.08062
935.08049
935.08079
935.08134
935.08195
935.08246
935.08278
935.08154
935.08144
935.0809
935.08024
935.08017
935.08053
935.08115
935.08181
935.08236
935.08266
935.08134
935.0809
935.08038
935.07979
935.07977
935.08019
935.0809
935.08166
935.0823
935.08263
935.08062
935.08024
935.07979
935.07924
935.07927
935.07975
935.08053
935.08137
935.08212
935.08256
935.08049
935.08017
935.07977
935.07927
935.07935
935.07987
935.0807
935.08158
935.08236
935.08283
935.08079
935.08053
935.08019
935.07975
935.07987
935.08042
935.08127
935.08217
935.08295
935.0834
935.08134
935.08115
935.0809
935.08053
935.0807
935.08127
935.08213
935.083
935.08374
935.08413
935.08195
935.08181
935.08166
935.08137
935.08158
935.08217
935.083
935.08382
935.08447
935.08475
935.08246
935.08236
935.0823
935.08212
935.08236
935.08295
935.08374
935.08447
935.08503
935.08537
935.08278
935.08266
935.08263
935.08256
935.08283
935.0834
935.08413
935.08475
935.08537
935.08557
983.32889
983.32854
983.32833
983.32749
983.32738
983.32775
983.3284
983.32915
983.32977
983.33017
983.32854
983.32843
983.32782
983.32706
983.32702
983.32745
983.32818
983.32901
983.32964
983.32999
983.32833
983.32782
983.32726
983.32657
983.32658
983.32707
983.3279
983.32884
983.32959
983.32995
983.32749
983.32706
983.32657
983.32594
983.32599
983.32653
983.32742
983.32846
983.32935
983.32984
983.32738
983.32702
983.32658
983.32599
983.32609
983.32666
983.32759
983.32867
983.32959
983.33011
983.32775
983.32745
983.32707
983.32653
983.32666
983.32727
983.32821
983.32929
983.33021
983.33072
983.3284
983.32818
983.3279
983.32742
983.32759
983.32821
983.32916
983.33022
983.3311
983.33155
983.32915
983.32901
983.32884
983.32846
983.32867
983.32929
983.33022
983.33123
983.33202
983.33238
983.32977
983.32964
983.32959
983.32935
983.32959
983.33021
983.3311
983.33202
983.33271
983.33305
983.33017
983.32999
983.32995
983.32984
983.33011
983.33072
983.33155
983.33238
983.33305
983.33329
1029.7002
1029.6998
1029.6996
1029.6986
1029.6985
1029.699
1029.6997
1029.7006
1029.7013
1029.7018
1029.6998
1029.6997
1029.699
1029.6982
1029.6982
1029.6986
1029.6995
1029.7005
1029.7012
1029.7015
1029.6996
1029.699
1029.6984
1029.6976
1029.6977
1029.6982
1029.6992
1029.7003
1029.7011
1029.7015
1029.6986
1029.6982
1029.6976
1029.6969
1029.697
1029.6976
1029.6986
1029.6998
1029.7008
1029.7014
1029.6985
1029.6982
1029.6977
1029.697
1029.6971
1029.6978
1029.6988
1029.7
1029.701
1029.7016
1029.699
1029.6986
1029.6982
1029.6976
1029.6978
1029.6984
1029.6994
1029.7007
1029.7017
1029.7023
1029.6997
1029.6995
1029.6992
1029.6986
1029.6988
1029.6994
1029.7004
1029.7017
1029.7027
1029.7032
1029.7006
1029.7005
1029.7003
1029.6998
1029.7
1029.7007
1029.7017
1029.7028
1029.7038
1029.7042
1029.7013
1029.7012
1029.7011
1029.7008
1029.701
1029.7017
1029.7027
1029.7038
1029.7046
1029.7049
1029.7018
1029.7015
1029.7015
1029.7014
1029.7016
1029.7023
1029.7032
1029.7042
1029.7049
1029.7052
1073.7518
1073.7514
1073.7512
1073.7501
1073.7501
1073.7506
1073.7514
1073.7524
1073.7532
1073.7537
1073.7514
1073.7513
1073.7506
1073.7496
1073.7497
1073.7502
1073.7512
1073.7522
1073.753
1073.7534
1073.7512
1073.7506
1073.7499
1073.7491
1073.7492
1073.7498
1073.7508
1073.7521
1073.753
1073.7534
1073.7501
1073.7496
1073.7491
1073.7484
1073.7485
1073.7491
1073.7502
1073.7515
1073.7526
1073.7532
1073.7501
1073.7497
1073.7492
1073.7485
1073.7486
1073.7493
1073.7503
1073.7517
1073.7528
1073.7534
1073.7506
1073.7502
1073.7498
1073.7491
1073.7493
1073.7499
1073.751
1073.7524
1073.7535
1073.7541
1073.7514
1073.7512
1073.7508
1073.7502
1073.7503
1073.751
1073.7521
1073.7534
1073.7545
1073.7551
1073.7524
1073.7522
1073.7521
1073.7515
1073.7517
1073.7524
1073.7534
1073.7547
1073.7558
1073.7562
1073.7532
1073.753
1073.753
1073.7526
1073.7528
1073.7535
1073.7545
1073.7558
1073.7567
1073.757
1073.7537
1073.7534
1073.7534
1073.7532
1073.7534
1073.7541
1073.7551
1073.7562
1073.757
1073.7573
1115.0676
1115.0671
1115.067
1115.0658
1115.0658
1115.0664
1115.0673
1115.0683
1115.0692
1115.0698
1115.0671
1115.067
1115.0663
1115.0654
1115.0654
1115.066
1115.067
1115.0682
1115.069
1115.0694
1115.067
1115.0663
1115.0657
1115.0648
1115.065
1115.0656
1115.0667
1115.068
1115.069
1115.0694
1115.0658
1115.0654
1115.0648
1115.064
1115.0642
1115.0649
1115.0659
1115.0674
1115.0686
1115.0692
1115.0658
1115.0654
1115.065
1115.0642
1115.0644
1115.065
1115.0661
1115.0676
1115.0688
1115.0694
1115.0664
1115.066
1115.0656
1115.0649
1115.065
1115.0657
1115.0668
1115.0682
1115.0694
1115.07
1115.0673
1115.067
1115.0667
1115.0659
1115.0661
1115.0668
1115.0678
1115.0693
1115.0704
1115.071
1115.0683
1115.0682
1115.068
1115.0674
1115.0676
1115.0682
1115.0693
1115.0707
1115.0718
1115.0723
1115.0692
1115.069
1115.069
1115.0686
1115.0688
1115.0694
1115.0704
1115.0718
1115.0728
1115.073
1115.0698
1115.0694
1115.0694
1115.0692
1115.0694
1115.07
1115.071
1115.0723
1115.073
1115.0734
1153.2664
1153.2659
1153.2658
1153.2646
1153.2647
1153.2653
1153.2662
1153.2673
1153.2681
1153.2688
1153.2659
1153.2658
1153.2651
1153.2641
1153.2643
1153.2649
1153.2659
1153.2672
1153.268
1153.2684
1153.2658
1153.2651
1153.2645
1153.2637
1153.2638
1153.2645
1153.2656
1153.267
1153.268
1153.2684
1153.2646
1153.2641
1153.2637
1153.2629
1153.263
1153.2637
1153.2648
1153.2663
1153.2675
1153.2681
1153.2647
1153.2643
1153.2638
1153.263
1153.2632
1153.2639
1153.2649
1153.2665
1153.2677
1153.2683
1153.2653
1153.2649
1153.2645
1153.2637
1153.2639
1153.2645
1153.2656
1153.2671
1153.2683
1153.2689
1153.2662
1153.2659
1153.2656
1153.2648
1153.2649
1153.2656
1153.2666
1153.2681
1153.2693
1153.2699
1153.2673
1153.2672
1153.267
1153.2663
1153.2665
1153.2671
1153.2681
1153.2696
1153.2707
1153.2713
1153.2681
1153.268
1153.268
1153.2675
1153.2677
1153.2683
1153.2693
1153.2707
1153.2717
1153.2719
1153.2688
1153.2684
1153.2684
1153.2681
1153.2683
1153.2689
1153.2699
1153.2713
1153.2719
1153.2723
1188.0085
1188.0079
1188.0079
1188.0067
1188.0067
1188.0074
1188.0083
1188.0094
1188.0102
1188.0109
1188.0079
1188.0079
1188.0072
1188.0062
1188.0064
1188.007
1188.008
1188.0093
1188.0101
1188.0105
1188.0079
1188.0072
1188.0067
1188.0058
1188.006
1188.0066
1188.0077
1188.0092
1188.0101
1188.0105
1188.0067
1188.0062
1188.0058
1188.005
1188.0052
1188.0058
1188.0069
1188.0084
1188.0096
1188.0102
1188.0067
1188.0064
1188.006
1188.0052
1188.0054