/*--------------------------------*- C++ -*----------------------------------*\
| =========                 |                                                 |
| \\      /  F ield         | OpenFOAM: The Open Source CFD Toolbox           |
|  \\    /   O peration     | Version:  v2106                                 |
|   \\  /    A nd           | Website:  www.openfoam.com                      |
|    \\/     M anipulation  |                                                 |
\*---------------------------------------------------------------------------*/
FoamFile
{
    version     2.0;
    format      ascii;
    arch        "LSB;label=32;scalar=64";
    class       volScalarField;
    location    "10";
    object      laplacianT;
}
// * * * * * * * * * * * * * * * * * * * * * * * * * * * * * * * * * * * * * //

dimensions      [0 -2 0 1 0 0 0];

internalField   nonuniform List<scalar> 
4000
(
8322.4261
8322.3247
8322.6085
8322.4493
8322.5153
8322.5181
8322.4993
8322.4764
8322.4584
8322.4497
8322.3247
8322.7084
8322.5529
8322.5284
8322.5958
8322.5951
8322.5736
8322.5489
8322.5338
8322.5116
8322.6085
8322.5529
8322.6149
8322.5805
8322.6385
8322.6344
8322.6098
8322.5822
8322.5725
8322.5388
8322.4493
8322.5284
8322.5805
8322.537
8322.5918
8322.5865
8322.5593
8322.5257
8322.5166
8322.5126
8322.5153
8322.5958
8322.6385
8322.5918
8322.6461
8322.6416
8322.6147
8322.5778
8322.559
8322.5408
8322.5181
8322.5951
8322.6344
8322.5865
8322.6416
8322.6387
8322.6134
8322.5779
8322.5595
8322.5395
8322.4993
8322.5736
8322.6098
8322.5593
8322.6147
8322.6134
8322.5895
8322.5551
8322.5376
8322.518
8322.4764
8322.5489
8322.5822
8322.5257
8322.5778
8322.5779
8322.5551
8322.5212
8322.5042
8322.4855
8322.4584
8322.5338
8322.5725
8322.5166
8322.559
8322.5595
8322.5376
8322.5042
8322.4883
8322.4722
8322.4497
8322.5116
8322.5388
8322.5126
8322.5408
8322.5395
8322.518
8322.4855
8322.4722
8322.459
392.90721
392.80342
393.60515
392.81993
392.95982
393.01567
393.02492
393.02646
393.04274
393.06657
392.80342
393.53499
393.21751
392.82744
392.99145
393.04196
393.04866
393.05439
393.05306
393.00393
393.60515
393.21751
393.40465
393.01847
393.16772
393.21161
393.21908
393.2519
393.29453
393.14734
392.81993
392.82744
393.01847
392.62279
392.76611
392.80421
392.80206
392.83627
392.94629
392.97281
392.95982
392.99145
393.16772
392.76611
392.90718
392.94303
392.93267
392.94476
393.01838
393.00768
393.01567
393.04196
393.21161
392.80421
392.94303
392.97907
392.96832
392.97736
393.04335
393.01865
393.02492
393.04866
393.21908
392.80206
392.93267
392.96832
392.95807
392.96753
393.03374
393.00934
393.02646
393.05439
393.2519
392.83627
392.94476
392.97736
392.96753
392.97824
393.04711
393.02938
393.04274
393.05306
393.29453
392.94629
393.01838
393.04335
393.03374
393.04711
393.12222
393.11071
393.06657
393.00393
393.14734
392.97281
393.00768
393.01865
393.00934
393.02938
393.11071
393.05508
722.20389
721.82249
722.71153
721.7382
721.94656
722.02655
722.03907
722.04534
722.07104
722.22007
721.82249
722.69772
722.22718
721.75244
721.98724
722.05737
722.07206
722.11014
722.02676
721.94627
722.71153
722.22718
722.3783
721.90518
722.11849
722.17563
722.18866
722.29871
722.34808
722.165
721.7382
721.75244
721.90518
721.41917
721.62401
721.6702
721.66037
721.76141
721.90251
721.95496
721.94656
721.98724
722.11849
721.62401
721.82593
721.86872
721.84516
721.91077
721.9972
721.99659
722.02655
722.05737
722.17563
721.6702
721.86872
721.91189
721.88754
721.94791
722.02217
722.0016
722.03907
722.07206
722.18866
721.66037
721.84516
721.88754
721.86404
721.92538
722.00085
721.98614
722.04534
722.11014
722.29871
721.76141
721.91077
721.94791
721.92538
721.99006
722.07316
722.07772
722.07104
722.02676
722.34808
721.90251
721.9972
722.02217
722.00085
722.07316
722.17347
722.15839
722.22007
721.94627
722.165
721.95496
721.99659
722.0016
721.98614
722.07772
722.15839
722.06832
1050.4269
1049.8796
1050.9504
1049.7755
1050.0394
1050.1392
1050.1557
1050.1748
1050.1555
1050.3886
1049.8796
1050.8753
1050.3304
1049.7541
1050.0472
1050.1309
1050.1561
1050.2751
1050.1104
1049.9974
1050.9504
1050.3304
1050.5219
1049.9468
1050.2123
1050.2753
1050.2888
1050.5107
1050.5354
1050.2759
1049.7755
1049.7541
1049.9468
1049.356
1049.611
1049.6585
1049.637
1049.8438
1049.9895
1050.0261
1050.0394
1050.0472
1050.2123
1049.611
1049.8626
1049.9056
1049.8648
1050.0239
1050.0993
1050.0711
1050.1392
1050.1309
1050.2753
1049.6585
1049.9056
1049.9491
1049.907
1050.0586
1050.1178
1050.0662
1050.1557
1050.1561
1050.2888
1049.637
1049.8648
1049.907
1049.866
1050.0194
1050.0817
1050.0463
1050.1748
1050.2751
1050.5107
1049.8438
1050.0239
1050.0586
1050.0194
1050.1795
1050.2581
1050.2599
1050.1555
1050.1104
1050.5354
1049.9895
1050.0993
1050.1178
1050.0817
1050.2581
1050.3683
1050.2283
1050.3886
1049.9974
1050.2759
1050.0261
1050.0711
1050.0662
1050.0463
1050.2599
1050.2283
1050.186
1377.917
1377.2745
1378.5319
1377.1471
1377.4623
1377.5793
1377.6002
1377.6547
1377.63
1377.9374
1377.2745
1378.427
1377.8084
1377.1228
1377.4698
1377.5617
1377.5893
1377.8021
1377.5815
1377.4424
1378.5319
1377.8084
1378.0422
1377.3578
1377.6718
1377.7359
1377.7423
1378.0912
1378.1109
1377.7788
1377.1471
1377.1228
1377.3578
1376.6554
1376.9569
1377.0012
1376.9605
1377.2903
1377.4621
1377.4872
1377.4623
1377.4698
1377.6718
1376.9569
1377.2544
1377.2931
1377.2275
1377.4976
1377.5843
1377.5338
1377.5793
1377.5617
1377.7359
1377.0012
1377.2931
1377.3323
1377.2647
1377.5252
1377.5917
1377.5155
1377.6002
1377.5893
1377.7423
1376.9605
1377.2275
1377.2647
1377.1985
1377.4616
1377.5346
1377.4898
1377.6547
1377.8021
1378.0912
1377.2903
1377.4976
1377.5252
1377.4616
1377.7368
1377.8412
1377.8651
1377.63
1377.5815
1378.1109
1377.4621
1377.5843
1377.5917
1377.5346
1377.8412
1378.0078
1377.6846
1377.9374
1377.4424
1377.7788
1377.4872
1377.5338
1377.5155
1377.4898
1377.8651
1377.6846
1377.6929
1704.7435
1704.01
1705.4502
1703.8519
1704.2172
1704.3491
1704.369
1704.4544
1704.429
1704.8046
1704.01
1705.3203
1704.624
1703.8263
1704.2262
1704.3239
1704.3474
1704.6493
1704.3733
1704.2051
1705.4502
1704.624
1704.8971
1704.1007
1704.4622
1704.5252
1704.5185
1704.9916
1705.006
1704.5994
1703.8519
1703.8263
1704.1007
1703.2839
1703.6309
1703.6698
1703.6038
1704.0545
1704.253
1704.2651
1704.2172
1704.2262
1704.4622
1703.6309
1703.9734
1704.0055
1703.9089
1704.2879
1704.3866
1704.3125
1704.3491
1704.3239
1704.5252
1703.6698
1704.0055
1704.0382
1703.9389
1704.3057
1704.3802
1704.2784
1704.369
1704.3474
1704.5185
1703.6038
1703.9089
1703.9389
1703.8409
1704.2111
1704.2953
1704.2426
1704.4544
1704.6493
1704.9916
1704.0545
1704.2879
1704.3057
1704.2111
1704.599
1704.733
1704.7927
1704.429
1704.3733
1705.006
1704.253
1704.3866
1704.3802
1704.2953
1704.733
1704.9745
1704.4572
1704.8046
1704.2051
1704.5994
1704.2651
1704.3125
1704.2784
1704.2426
1704.7927
1704.4572
1704.5152
2030.3998
2029.5731
2031.1941
2029.3814
2029.7968
2029.9431
2029.9602
2030.0739
2030.0478
2030.4907
2029.5731
2031.038
2030.2632
2029.353
2029.8058
2029.9088
2029.9262
2030.3151
2029.9829
2029.7854
2031.1941
2030.2632
2030.5747
2029.6659
2030.0749
2030.1363
2030.1144
2030.7103
2030.7191
2030.2376
2029.3814
2029.353
2029.6659
2028.7342
2029.1268
2029.1596
2029.0661
2029.6365
2029.8614
2029.8606
2029.7968
2029.8058
2030.0749
2029.1268
2029.5143
2029.5392
2029.4092
2029.8958
2030.0062
2029.9085
2029.9431
2029.9088
2030.1363
2029.1596
2029.5392
2029.5646
2029.4311
2029.903
2029.9849
2029.8575
2029.9602
2029.9262
2030.1144
2029.0661
2029.4092
2029.4311
2029.2988
2029.7746
2029.8693
2029.8094
2030.0739
2030.3151
2030.7103
2029.6365
2029.8958
2029.903
2029.7746
2030.2735
2030.4368
2030.5382
2030.0478
2029.9829
2030.7191
2029.8614
2030.0062
2029.9849
2029.8693
2030.4368
2030.7587
2030.047
2030.4907
2029.7854
2030.2376
2029.8606
2029.9085
2029.8575
2029.8094
2030.5382
2030.047
2030.1555
2353.9078
2352.9868
2354.7872
2352.7608
2353.2266
2353.3873
2353.401
2353.5423
2353.5153
2354.0261
2352.9868
2354.6036
2353.7512
2352.7291
2353.2351
2353.3431
2353.3537
2353.8291
2353.4404
2353.214
2354.7872
2353.7512
2354.1011
2353.0806
2353.5373
2353.5967
2353.5588
2354.2773
2354.2803
2353.7244
2352.7608
2352.7291
2353.0806
2352.0348
2352.4731
2352.4994
2352.3774
2353.0672
2353.3182
2353.3051
2353.2266
2353.2351
2353.5373
2352.4731
2352.9058
2352.923
2352.7586
2353.3525
2353.4741
2353.3533
2353.3873
2353.3431
2353.5967
2352.4994
2352.923
2352.9409
2352.772
2353.3485
2353.4375
2353.2848
2353.401
2353.3537
2353.5588
2352.3774
2352.7586
2352.772
2352.6043
2353.1852
2353.2897
2353.2231
2353.5423
2353.8291
2354.2773
2353.0672
2353.3525
2353.3485
2353.1852
2353.7944
2353.9865
2354.1323
2353.5153
2353.4404
2354.2803
2353.3182
2353.4741
2353.4375
2353.2897
2353.9865
2354.3905
2353.4848
2354.0261
2353.214
2353.7244
2353.3051
2353.3533
2353.2848
2353.2231
2354.1323
2353.4848
2353.6451
2673.7937
2672.7785
2674.7558
2672.5184
2673.0346
2673.2096
2673.2197
2673.3883
2673.3602
2673.9393
2672.7785
2674.5436
2673.6155
2672.4833
2673.0425
2673.1553
2673.1586
2673.7204
2673.2746
2673.02
2674.7558
2673.6155
2674.0044
2672.8737
2673.378
2673.4353
2673.3805
2674.2217
2674.2183
2673.5886
2672.5184
2672.4833
2672.8737
2671.7152
2672.1992
2672.2188
2672.0675
2672.8764
2673.1531
2673.1276
2673.0346
2673.0425
2673.378
2672.1992
2672.6772
2672.6865
2672.4867
2673.1875
2673.3199
2673.1761
2673.2096
2673.1553
2673.4353
2672.2188
2672.6865
2672.6965
2672.4913
2673.1722
2673.2675
2673.0896
2673.2197
2673.1586
2673.3805
2672.0675
2672.4867
2672.4913
2672.2872
2672.9729
2673.0867
2673.0138
2673.3883
2673.7204
2674.2217
2672.8764
2673.1875
2673.1722
2672.9729
2673.692
2673.9126
2674.1042
2673.3602
2673.2746
2674.2183
2673.1531
2673.3199
2673.2675
2673.0867
2673.9126
2674.399
2673.2994
2673.9393
2673.02
2673.5886
2673.1276
2673.1761
2673.0896
2673.0138
2674.1042
2673.2994
2673.5132
2988.069
2986.9606
2989.1108
2986.6665
2987.2332
2987.4223
2987.4285
2987.6242
2987.5947
2988.2424
2986.9606
2988.8691
2987.8681
2986.6284
2987.2405
2987.3578
2987.3532
2988.0012
2987.4979
2987.2158
2989.1108
2987.8681
2988.296
2987.0576
2987.6095
2987.6641
2987.5919
2988.5551
2988.545
2987.8423
2986.6665
2986.6284
2987.0576
2985.7891
2986.3187
2986.3311
2986.1496
2987.0771
2987.3786
2987.3408
2987.2332
2987.2405
2987.6095
2986.3187
2986.8416
2986.8426
2986.6067
2987.4138
2987.5562
2987.3892
2987.4223
2987.3578
2987.6641
2986.3311
2986.8426
2986.8443
2986.6021
2987.3866
2987.4875
2987.2845
2987.4285
2987.3532
2987.5919
2986.1496
2986.6067
2986.6021
2986.3608
2987.1505
2987.2728
2987.1938
2987.6242
2988.0012
2988.5551
2987.0771
2987.4138
2987.3866
2987.1505
2987.979
2988.2273
2988.4658
2987.5947
2987.4979
2988.545
2987.3786
2987.5562
2987.4875
2987.2728
2988.2273
2988.7962
2987.5029
2988.2424
2987.2158
2987.8423
2987.3408
2987.3892
2987.2845
2987.1938
2988.4658
2987.5029
2987.7717
3294.234
3293.0343
3295.3519
3292.7068
3293.3236
3293.5265
3293.5285
3293.7509
3293.7196
3294.4358
3293.0343
3295.0795
3294.0093
3292.666
3293.3305
3293.4517
3293.4385
3294.172
3293.6112
3293.3026
3295.3519
3294.0093
3294.4764
3293.1341
3293.7328
3293.7843
3293.6937
3294.7781
3294.7606
3293.9862
3292.7068
3292.666
3293.1341
3291.7592
3292.3337
3292.3385
3292.126
3293.1709
3293.4961
3293.4458
3293.3236
3293.3305
3293.7328
3292.3337
3292.9011
3292.8933
3292.6203
3293.5328
3293.684
3293.494
3293.5265
3293.4517
3293.7843
3292.3385
3292.8933
3292.8861
3292.606
3293.4932
3293.5986
3293.3705
3293.5285
3293.4385
3293.6937
3292.126
3292.6203
3292.606
3292.3265
3293.2194
3293.349
3293.2643
3293.7509
3294.172
3294.7781
3293.1709
3293.5328
3293.4932
3293.2194
3294.1562
3294.4313
3294.7178
3293.7196
3293.6112
3294.7606
3293.4961
3293.684
3293.5986
3293.349
3294.4313
3295.0824
3293.5959
3294.4358
3293.3026
3293.9862
3293.4458
3293.494
3293.3705
3293.2643
3294.7178
3293.5959
3293.9214
3589.3056
3588.0172
3590.4946
3587.6574
3588.3235
3588.5396
3588.537
3588.7856
3588.7524
3589.5362
3588.0172
3590.1908
3589.0563
3587.6144
3588.3302
3588.4547
3588.4321
3589.2501
3588.632
3588.2978
3590.4946
3589.0563
3589.5622
3588.121
3588.7656
3588.8133
3588.7034
3589.9073
3589.8817
3589.0375
3587.6574
3587.6144
3588.121
3586.6447
3587.2633
3587.2598
3587.0153
3588.1758
3588.5231
3588.46
3588.3235
3588.3302
3588.7656
3587.2633
3587.8742
3587.857
3587.546
3588.5621
3588.7209
3588.5078
3588.5396
3588.4547
3588.8133
3587.2598
3587.857
3587.8405
3587.5214
3588.5096
3588.6183
3588.3652
3588.537
3588.4321
3588.7034
3587.0153
3587.546
3587.5214
3587.2029
3588.197
3588.3329
3588.2426
3588.7856
3589.2501
3589.9073
3588.1758
3588.5621
3588.5096
3588.197
3589.2404
3589.5412
3589.8767
3588.7524
3588.632
3589.8817
3588.5231
3588.7209
3588.6183
3588.3329
3589.5412
3590.274
3588.5954
3589.5362
3588.2978
3589.0375
3588.46
3588.5078
3588.3652
3588.2426
3589.8767
3588.5954
3588.9795
3869.8681
3868.4949
3871.1226
3868.1043
3868.8184
3869.0471
3869.0393
3869.3134
3869.2778
3870.128
3868.4949
3870.7867
3869.5936
3868.0598
3868.8253
3868.9524
3868.9194
3869.8199
3869.1451
3868.7869
3871.1226
3869.5936
3870.138
3868.6041
3869.2933
3869.3365
3869.2061
3870.5267
3870.4923
3869.5807
3868.1043
3868.0598
3868.6041
3867.033
3867.6942
3867.6818
3867.4042
3868.6775
3869.0449
3868.969
3868.8184
3868.8253
3869.2933
3867.6942
3868.3474
3868.3201
3867.9702
3869.0872
3869.2521
3869.0159
3869.0471
3868.9524
3869.3365
3867.6818
3868.3201
3868.2935
3867.9347
3869.0211
3869.1316
3868.8538
3869.0393
3868.9194
3869.2061
3867.4042
3867.9702
3867.9347
3867.5762
3868.6689
3868.8095
3868.7141
3869.3134
3869.8199
3870.5267
3868.6775
3869.0872
3869.0211
3868.6689
3869.8162
3870.1413
3870.5267
3869.2778
3869.1451
3870.4923
3869.0449
3869.2521
3869.1316
3868.8095
3870.1413
3870.9546
3869.0864
3870.128
3868.7869
3869.5807
3868.969
3869.0159
3868.8538
3868.7141
3870.5267
3869.0864
3869.5306
4132.149
4130.696
4133.4622
4130.2765
4131.037
4131.2775
4131.2639
4131.5624
4131.5241
4132.4386
4130.696
4133.094
4131.8493
4130.2317
4131.0448
4131.1734
4131.1288
4132.1094
4131.379
4130.9984
4133.4622
4131.8493
4132.4314
4130.8127
4131.5445
4131.5823
4131.4303
4132.8636
4132.8195
4131.844
4130.2765
4130.2317
4130.8127
4129.1547
4129.8567
4129.8346
4129.523
4130.9049
4131.29
4131.201
4131.037
4131.0448
4131.5445
4129.8567
4130.5503
4130.5122
4130.1226
4131.3368
4131.5058
4131.2468
4131.2775
4131.1734
4131.5823
4129.8346
4130.5122
4130.4748
4130.0754
4131.2564
4131.3669
4131.0648
4131.2639
4131.1288
4131.4303
4129.523
4130.1226
4130.0754
4129.6761
4130.8638
4131.0071
4130.907
4131.5624
4132.1094
4132.8636
4130.9049
4131.3368
4131.2564
4130.8638
4132.1111
4132.4586
4132.8949
4131.5241
4131.379
4132.8195
4131.29
4131.5058
4131.3669
4131.0071
4132.4586
4133.3508
4131.2966
4132.4386
4130.9984
4131.844
4131.201
4131.2468
4131.0648
4130.907
4132.8949
4131.2966
4131.8026
4372.1178
4370.5914
4373.482
4370.1456
4370.9502
4371.2012
4371.1813
4371.5027
4371.4612
4372.4373
4370.5914
4373.0816
4371.7935
4370.1016
4370.9597
4371.0886
4371.0314
4372.0883
4371.3038
4370.9027
4373.482
4371.7935
4372.4121
4370.7181
4371.4899
4371.5214
4371.3465
4372.8874
4372.8327
4371.797
4370.1456
4370.1016
4370.7181
4368.9826
4369.7231
4369.6905
4369.3439
4370.829
4371.229
4371.1265
4370.9502
4370.9597
4371.4899
4369.7231
4370.4547
4370.4051
4369.9751
4371.2814
4371.4524
4371.1709
4371.2012
4371.0886
4371.5214
4369.6905
4370.4051
4370.3562
4369.9154
4371.1862
4371.2947
4370.9686
4371.1813
4371.0314
4371.3465
4369.3439
4369.9751
4369.9154
4369.4746
4370.7522
4370.8963
4370.7919
4371.5027
4372.0883
4372.8874
4370.829
4371.2814
4371.1862
4370.7522
4372.0947
4372.4622
4372.95
4371.4612
4371.3038
4372.8327
4371.229
4371.4524
4371.2947
4370.8963
4372.4622
4373.4309
4371.1961
4372.4373
4370.9027
4371.797
4371.1265
4371.1709
4370.9686
4370.7919
4372.95
4371.1961
4371.7652
4585.6058
4584.0138
4587.0125
4583.5448
4584.3907
4584.6509
4584.6238
4584.9664
4584.9212
4585.9551
4584.0138
4586.5805
4585.2583
4583.5034
4584.403
4584.531
4584.4596
4585.5883
4584.7519
4584.3325
4587.0125
4585.2583
4585.9119
4584.1534
4584.9623
4584.9863
4584.7874
4586.4289
4586.3626
4585.2717
4583.5448
4583.5034
4584.1534
4582.3516
4583.1276
4583.0837
4582.7013
4584.2827
4584.6941
4584.578
4584.3907
4584.403
4584.9623
4583.1276
4583.8945
4583.8325
4583.3614
4584.7538
4584.9242
4584.6204
4584.6509
4584.531
4584.9863
4583.0837
4583.8325
4583.7713
4583.2886
4584.6429
4584.747
4584.3976
4584.6238
4584.4596
4584.7874
4582.7013
4583.3614
4583.2886
4582.8056
4584.167
4584.3094
4584.2011
4584.9664
4585.5883
4586.4289
4584.2827
4584.7538
4584.6429
4584.167
4585.5982
4585.983
4586.5225
4584.9212
4584.7519
4586.3626
4584.6941
4584.9242
4584.747
4584.3094
4585.983
4587.025
4584.6167
4585.9551
4584.3325
4585.2717
4584.578
4584.6204
4584.3976
4584.2011
4586.5225
4584.6167
4585.2499
4768.443
4766.7946
4769.883
4766.3063
4767.19
4767.4579
4767.4228
4767.7844
4767.7349
4768.8219
4766.7946
4769.4207
4768.0749
4766.2696
4767.2067
4767.3322
4767.2453
4768.44
4767.5543
4767.119
4769.883
4768.0749
4768.7614
4766.951
4767.7932
4767.8087
4767.5843
4769.3182
4769.2392
4768.0985
4766.3063
4766.2696
4766.951
4765.0955
4765.9035
4765.8473
4765.4284
4767.0977
4767.5167
4767.3864
4767.19
4767.2067
4767.7932
4765.9035
4766.702
4766.6269
4766.1144
4767.5851
4767.7521
4767.4264
4767.4579
4767.3322
4767.8087
4765.8473
4766.6269
4766.5526
4766.0277
4767.458
4767.5552
4767.1831
4767.4228
4767.2453
4767.5843
4765.4284
4766.1144
4766.0277
4765.5021
4766.9398
4767.0777
4766.9657
4767.7844
4768.44
4769.3182
4767.0977
4767.5851
4767.458
4766.9398
4768.4519
4768.8507
4769.4416
4767.7349
4767.5543
4769.2392
4767.5167
4767.7521
4767.5552
4767.0777
4768.8507
4769.9618
4767.3892
4768.8219
4767.119
4768.0985
4767.3864
4767.4264
4767.1831
4766.9657
4769.4416
4767.3892
4768.0868
4916.6071
4914.913
4918.0707
4914.4099
4915.3272
4915.601
4915.557
4915.9349
4915.8805
4917.0149
4914.913
4917.5802
4916.222
4914.3804
4915.3502
4915.4717
4915.3678
4916.6215
4915.6899
4915.241
4918.0707
4916.222
4916.9391
4915.0904
4915.9617
4915.9675
4915.7164
4917.5326
4917.4398
4916.2556
4914.4099
4914.3804
4915.0904
4913.1952
4914.0311
4913.9618
4913.5059
4915.253
4915.6752
4915.5304
4915.3272
4915.3502
4915.9617
4914.0311
4914.8573
4914.7683
4914.2143
4915.7541
4915.9146
4915.5675
4915.601
4915.4717
4915.9675
4913.9618
4914.7683
4914.6802
4914.1129
4915.6102
4915.6976
4915.3037
4915.557
4915.3678
4915.7164
4913.5059
4914.2143
4914.1129
4913.5447
4915.0495
4915.1801
4915.0646
4915.9349
4916.6215
4917.5326
4915.253
4915.7541
4915.6102
4915.0495
4916.6332
4917.0424
4917.6839
4915.8805
4915.6899
4917.4398
4915.6752
4915.9146
4915.6976
4915.1801
4917.0424
4918.2176
4915.4918
4917.0149
4915.241
4916.2556
4915.5304
4915.5675
4915.3037
4915.0646
4917.6839
4915.4918
4916.2536
5026.3766
5024.6491
5027.8539
5024.1364
5025.0825
5025.36
5025.3063
5025.6974
5025.6375
5026.8126
5024.6491
5027.3382
5025.9797
5024.117
5025.114
5025.2297
5025.1074
5026.4121
5025.4384
5024.9784
5027.8539
5025.9797
5026.7245
5024.8526
5025.7479
5025.7429
5025.464
5027.3509
5027.2431
5026.0221
5024.1364
5024.117
5024.8526
5022.9329
5023.7918
5023.7087
5023.2155
5025.0288
5025.4496
5025.2895
5025.0825
5025.114
5025.7479
5023.7918
5024.641
5024.5375
5023.9423
5025.5407
5025.6913
5025.3232
5025.36
5025.2297
5025.7429
5023.7087
5024.5375
5024.4348
5023.8256
5025.3795
5025.4542
5025.0391
5025.3063
5025.1074
5025.464
5023.2155
5023.9423
5023.8256
5023.2151
5024.7765
5024.8965
5024.7775
5025.6974
5026.4121
5027.3509
5025.0288
5025.5407
5025.3795
5024.7765
5026.4209
5026.8364
5027.5268
5025.6375
5025.4384
5027.2431
5025.4496
5025.6913
5025.4542
5024.8965
5026.8364
5028.0695
5025.204
5026.8126
5024.9784
5026.0221
5025.2895
5025.3232
5025.0391
5024.7775
5027.5268
5025.204
5026.0288
5094.4823
5092.7352
5095.9635
5092.2185
5093.1879
5093.4669
5093.4025
5093.8034
5093.7372
5094.9452
5092.7352
5095.4263
5094.0803
5092.2125
5093.2305
5093.3388
5093.1965
5094.5428
5093.5318
5093.0632
5095.9635
5094.0803
5094.8493
5092.9701
5093.8839
5093.8668
5093.5592
5095.5035
5095.3797
5094.1291
5092.2185
5092.2125
5092.9701
5091.0421
5091.9188
5091.821
5091.2908
5093.1571
5093.5712
5093.3953
5093.1879
5093.2305
5093.8839
5091.9188
5092.7856
5092.667
5092.0313
5093.6763
5093.8136
5093.4249
5093.4669
5093.3388
5093.8668
5091.821
5092.667
5092.5492
5091.8988
5093.4976
5093.5565
5093.1211
5093.4025
5093.1965
5093.5592
5091.2908
5092.0313
5091.8988
5091.2468
5092.853
5092.9591
5092.8363
5093.8034
5094.5428
5095.5035
5093.1571
5093.6763
5093.4976
5092.853
5094.546
5094.963
5095.7
5093.7372
5093.5318
5095.3797
5093.5712
5093.8136
5093.5565
5092.9591
5094.963
5096.247
5093.2572
5094.9452
5093.0632
5094.1291
5093.3953
5093.4249
5093.1211
5092.8363
5095.7
5093.2572
5094.1429
5118.247
5116.4954
5119.7222
5115.9809
5116.9672
5117.2453
5117.1695
5117.5763
5117.5031
5118.7351
5116.4954
5119.1685
5117.8481
5115.992
5117.0241
5117.123
5116.9596
5118.3371
5117.2939
5116.819
5119.7222
5117.8481
5118.6373
5116.7673
5117.6935
5117.6632
5117.3264
5119.3133
5119.1723
5117.8998
5115.9809
5115.992
5116.7673
5114.848
5115.7365
5115.6235
5115.0569
5116.9615
5117.3637
5117.171
5116.9672
5117.0241
5117.6935
5115.7365
5116.6151
5116.4809
5115.806
5117.4844
5117.6049
5117.196
5117.2453
5117.123
5117.6632
5115.6235
5116.4809
5116.3475
5115.6574
5117.2881
5117.3281
5116.8731
5117.1695
5116.9596
5117.3264
5115.0569
5115.806
5115.6574
5114.9651
5116.6032
5116.692
5116.5649
5117.5763
5118.3371
5119.3133
5116.9615
5117.4844
5117.2881
5116.6032
5118.3311
5118.745
5119.525
5117.5031
5117.2939
5119.1723
5117.3637
5117.6049
5117.3281
5116.692
5118.745
5120.0715
5116.9752
5118.7351
5116.819
5117.8998
5117.171
5117.196
5116.8731
5116.5649
5119.525
5116.9752
5117.9184
5095.7072
5093.9673
5097.167
5093.4613
5094.4578
5094.7324
5094.6443
5095.053
5094.972
5096.2183
5093.9673
5096.6025
5095.3209
5093.4935
5094.5322
5094.62
5094.4343
5095.8318
5094.7621
5094.2832
5097.167
5095.3209
5096.1258
5094.2821
5095.2137
5095.1693
5094.8029
5096.8165
5096.6573
5095.3709
5093.4613
5093.4935
5094.2821
5092.3886
5093.2824
5093.1538
5092.552
5094.4792
5094.864
5094.6533
5094.4578
5094.5322
5095.2137
5093.2824
5094.1665
5094.0164
5093.3041
5095.0018
5095.1019
5094.6733
5094.7324
5094.62
5095.1693
5093.1538
5094.0164
5093.8672
5093.1391
5094.7879
5094.806
5094.3323
5094.6443
5094.4343
5094.8029
5092.552
5093.3041
5093.1391
5092.4086
5094.0645
5094.1326
5094.0005
5095.053
5095.8318
5096.8165
5094.4792
5095.0018
5094.7879
5094.0645
5095.8127
5096.2184
5097.037
5094.972
5094.7621
5096.6573
5094.864
5095.1019
5094.806
5094.1326
5096.2184
5097.5784
5094.395
5096.2183
5094.2832
5095.3709
5094.6533
5094.6733
5094.3323
5094.0005
5097.037
5094.395
5095.3911
5025.7085
5023.9979
5027.1443
5023.507
5024.5059
5024.7743
5024.6733
5025.0795
5024.9901
5026.24
5023.9979
5026.5758
5025.3461
5023.5642
5024.6014
5024.6762
5024.4675
5025.8729
5024.7832
5024.302
5027.1443
5025.3461
5026.1615
5024.3609
5025.2906
5025.2313
5024.8356
5026.8588
5026.6805
5025.3881
5023.507
5023.5642
5024.3609
5022.5106
5023.4027
5023.2583
5022.623
5024.5562
5024.918
5024.6883
5024.5059
5024.6014
5025.2906
5023.4027
5024.2852
5024.1192
5023.3722
5025.0741
5025.1505
5024.7026
5024.7743
5024.6762
5025.2313
5023.2583
5024.1192
5023.9541
5023.1909
5024.843
5024.8364
5024.3448
5024.6733
5024.4675
5024.8356
5022.623
5023.3722
5023.1909
5022.4248
5024.0836
5024.1279
5023.9897
5025.0795
5025.8729
5026.8588
5024.5562
5025.0741
5024.843
5024.0836
5025.8368
5026.229
5027.0807
5024.9901
5024.7832
5026.6805
5024.918
5025.1505
5024.8364
5024.1279
5026.229
5027.6124
5024.3633
5026.24
5024.302
5025.3881
5024.6883
5024.7026
5024.3448
5023.9897
5027.0807
5024.3633
5025.4065
4907.9713
4906.3078
4909.3748
4905.8385
4906.8318
4907.0911
4906.9769
4907.3761
4907.2778
4908.52
4906.3078
4908.8097
4907.6445
4905.9247
4906.9516
4907.0119
4906.7798
4908.1803
4907.0775
4906.596
4909.3748
4907.6445
4908.4647
4906.7237
4907.6438
4907.569
4907.1447
4909.1597
4908.9617
4907.6714
4905.8385
4905.9247
4906.7237
4904.9336
4905.8165
4905.6563
4904.9901
4906.912
4907.2456
4906.9956
4906.8318
4906.9516
4907.6438
4905.8165
4906.6901
4906.5084
4905.7301
4907.4207
4907.4703
4907.0037
4907.0911
4907.0119
4907.569
4905.6563
4906.5084
4906.3277
4905.5328
4907.1731
4907.1392
4906.6308
4906.9769
4906.7798
4907.1447
4904.9901
4905.7301
4905.5328
4904.7345
4906.381
4906.3986
4906.2531
4907.3761
4908.1803
4909.1597
4906.912
4907.4207
4907.1731
4906.381
4908.1231
4908.4968
4909.3752
4907.2778
4907.0775
4908.9617
4907.2456
4907.4703
4907.1392
4906.3986
4908.4968
4909.8929
4906.6008
4908.52
4906.596
4907.6714
4906.9956
4907.0037
4906.6308
4906.2531
4909.3752
4906.6008
4907.6839
4743.1198
4741.522
4744.4835
4741.0802
4742.0593
4742.3068
4742.179
4742.5669
4742.4592
4743.6818
4741.522
4743.9301
4742.8412
4741.199
4742.2065
4742.2508
4741.9954
4743.3783
4742.2697
4741.7893
4744.4835
4742.8412
4743.6599
4741.9943
4742.8966
4742.8058
4742.3543
4744.343
4744.125
4742.8449
4741.0802
4741.199
4741.9943
4740.2806
4741.1464
4740.9708
4740.2769
4742.1699
4742.4703
4742.1991
4742.0593
4742.2065
4742.8966
4741.1464
4742.0034
4741.8065
4741.0011
4742.6648
4742.6849
4742.2003
4742.3068
4742.2508
4742.8058
4740.9708
4741.8065
4741.6106
4740.7883
4742.4016
4742.3386
4741.8144
4742.179
4741.9954
4742.3543
4740.2769
4741.0011
4740.7883
4739.9622
4741.5811
4741.5695
4741.4155
4742.5669
4743.3783
4744.343
4742.1699
4742.6648
4742.4016
4741.5811
4743.296
4743.6461
4744.5437
4742.4592
4742.2697
4744.125
4742.4703
4742.6849
4742.3386
4741.5695
4743.6461
4745.0436
4741.7325
4743.6818
4741.7893
4742.8449
4742.1991
4742.2003
4741.8144
4741.4155
4744.5437
4741.7325
4742.8472
4532.6769
4531.163
4533.994
4530.7544
4531.7102
4531.943
4531.8018
4532.1741
4532.0568
4533.2478
4531.163
4533.4608
4532.4589
4530.9087
4531.8874
4531.9144
4531.6363
4532.9886
4531.8823
4531.4044
4533.994
4532.4589
4533.269
4531.6935
4532.5696
4532.4627
4531.9862
4533.9304
4533.6924
4532.4307
4530.7544
4530.9087
4531.6935
4530.0714
4530.9122
4530.7216
4530.0043
4531.851
4532.1138
4531.8204
4531.7102
4531.8874
4532.5696
4530.9122
4531.7445
4531.5333
4530.7057
4532.3271
4532.3158
4531.8144
4531.943
4531.9144
4532.4627
4530.7216
4531.5333
4531.3229
4530.4785
4532.0496
4531.9561
4531.4177
4531.8018
4531.6363
4531.9862
4530.0043
4530.7057
4530.4785
4529.6297
4531.2058
4531.1633
4530.9995
4532.1741
4532.9886
4533.9304
4531.851
4532.3271
4532.0496
4531.2058
4532.8776
4533.1997
4534.1083
4532.0568
4531.8823
4533.6924
4532.1138
4532.3158
4531.9561
4531.1633
4533.1997
4534.5868
4531.2817
4533.2478
4531.4044
4532.4307
4531.8204
4531.8144
4531.4177
4530.9995
4534.1083
4531.2817
4532.4185
4279.023
4277.6109
4280.287
4277.2401
4278.1632
4278.3787
4278.2245
4278.5772
4278.4504
4279.5975
4277.6109
4279.7827
4278.8771
4277.4319
4278.3721
4278.3808
4278.0813
4279.3904
4278.2946
4277.8206
4280.287
4278.8771
4279.6712
4278.199
4279.0402
4278.9175
4278.4189
4280.3009
4280.0435
4278.8081
4277.2401
4277.4319
4278.199
4276.6823
4277.4896
4277.2852
4276.5494
4278.3331
4278.5545
4278.2384
4278.1632
4278.3721
4279.0402
4277.4896
4278.2892
4278.0647
4277.2211
4278.7853
4278.7415
4278.2247
4278.3787
4278.3808
4278.9175
4277.2852
4278.0647
4277.8412
4276.9807
4278.4953
4278.3708
4277.8201
4278.2245
4278.0813
4278.4189
4276.5494
4277.2211
4276.9807
4276.1154
4277.6341
4277.5597
4277.3852
4278.5772
4279.3904
4280.3009
4278.3331
4278.7853
4278.4953
4277.6341
4279.2474
4279.5376
4280.4486
4278.4504
4278.2946
4280.0435
4278.5545
4278.7415
4278.3708
4277.5597
4279.5376
4280.9026
4277.6291
4279.5975
4277.8206
4278.8081
4278.2384
4278.2247
4277.8201
4277.3852
4280.4486
4277.6291
4278.7776
3985.3234
3984.0298
3986.5282
3983.7005
3984.5813
3984.777
3984.6105
3984.9399
3984.8043
3985.8956
3984.0298
3986.0612
3985.2596
3983.9303
3984.8224
3984.8121
3984.4931
3985.747
3984.6705
3984.2021
3986.5282
3985.2596
3986.0295
3984.6723
3985.47
3985.3319
3984.815
3986.6178
3986.3422
3985.1412
3983.7005
3983.9303
3984.6723
3983.273
3984.0386
3983.8216
3983.0732
3984.778
3984.9552
3984.6167
3984.5813
3984.8224
3985.47
3984.0386
3984.7971
3984.561
3983.7081
3985.2014
3985.1247
3984.5948
3984.777
3984.8121
3985.3319
3983.8216
3984.561
3984.3257
3983.4562
3984.9009
3984.7458
3984.1855
3984.6105
3984.4931
3984.815
3983.0732
3983.7081
3983.4562
3982.5814
3984.0293
3983.9229
3983.7372
3984.9399
3985.747
3986.6178
3984.778
3985.2014
3984.9009
3984.0293
3985.5698
3985.8249
3986.7292
3984.8043
3984.6705
3986.3422
3984.9552
3985.1247
3984.7458
3983.9229
3985.8249
3987.1561
3983.9402
3985.8956
3984.2021
3985.1412
3984.6167
3984.5948
3984.1855
3983.7372
3986.7292
3983.9402
3985.0894
3655.4289
3654.269
3656.5683
3653.9835
3654.8125
3654.986
3654.8085
3655.1116
3654.9679
3655.9922
3654.269
3656.1465
3655.4547
3654.2504
3655.0848
3655.0552
3654.7194
3655.9071
3654.859
3654.3979
3656.5683
3655.4547
3656.192
3654.9593
3655.7049
3655.5524
3655.0218
3656.7297
3656.4378
3655.2794
3653.9835
3654.2504
3654.9593
3653.6875
3654.4033
3654.1754
3653.4212
3655.0326
3655.1637
3654.8039
3654.8125
3655.0848
3655.7049
3654.4033
3655.1127
3654.8667
3654.0124
3655.4222
3655.3133
3654.7735
3654.986
3655.0552
3655.5524
3654.1754
3654.8667
3654.6216
3653.7509
3655.1136
3654.9293
3654.363
3654.8085
3654.7194
3655.0218
3653.4212
3654.0124
3653.7509
3652.8745
3654.2395
3654.1019
3653.9054
3655.1116
3655.9071
3656.7297
3655.0326
3655.4222
3655.1136
3654.2395
3655.6941
3655.9119
3656.8006
3654.9679
3654.859
3656.4378
3655.1637
3655.3133
3654.9293
3654.1019
3655.9119
3657.1982
3654.066
3655.9922
3654.3979
3655.2794
3654.8039
3654.7735
3654.363
3653.9054
3656.8006
3654.066
3655.2043
3293.7563
3292.7431
3294.8239
3292.5024
3293.2701
3293.4193
3293.2324
3293.5068
3293.3565
3294.3033
3292.7431
3294.4539
3293.876
3292.8035
3293.5707
3293.5218
3293.1726
3294.2843
3293.274
3292.8227
3294.8239
3293.876
3294.5716
3293.471
3294.1561
3293.9906
3293.4515
3295.0505
3294.7449
3293.6377
3292.5024
3292.8035
3293.471
3292.3347
3292.9926
3292.7559
3292.0036
3293.5087
3293.5933
3293.2143
3293.2701
3293.5707
3294.1561
3292.9926