/*--------------------------------*- C++ -*----------------------------------*\
| =========                 |                                                 |
| \\      /  F ield         | OpenFOAM: The Open Source CFD Toolbox           |
|  \\    /   O peration     | Version:  v2106                                 |
|   \\  /    A nd           | Website:  www.openfoam.com                      |
|    \\/     M anipulation  |                                                 |
\*---------------------------------------------------------------------------*/
FoamFile
{
    version     2.0;
    format      ascii;
    arch        "LSB;label=32;scalar=64";
    class       volScalarField;
    location    "10";
    object      T;
}
// * * * * * * * * * * * * * * * * * * * * * * * * * * * * * * * * * * * * * //

dimensions      [0 0 0 1 0 0 0];

internalField   nonuniform List<scalar> 
4000
(
273.4282
273.4282
273.4282
273.42821
273.42821
273.42821
273.4282
273.4282
273.4282
273.4282
273.4282
273.4282
273.4282
273.42821
273.42821
273.4282
273.4282
273.4282
273.4282
273.4282
273.4282
273.4282
273.4282
273.42821
273.42821
273.42821
273.4282
273.4282
273.4282
273.4282
273.42821
273.42821
273.42821
273.42821
273.42821
273.42821
273.42821
273.42821
273.4282
273.4282
273.42821
273.42821
273.42821
273.42821
273.42821
273.42821
273.42821
273.42821
273.42821
273.4282
273.42821
273.4282
273.42821
273.42821
273.42821
273.42821
273.42821
273.42821
273.4282
273.4282
273.4282
273.4282
273.4282
273.42821
273.42821
273.42821
273.42821
273.42821
273.4282
273.4282
273.4282
273.4282
273.4282
273.42821
273.42821
273.42821
273.42821
273.4282
273.4282
273.4282
273.4282
273.4282
273.4282
273.4282
273.42821
273.4282
273.4282
273.4282
273.4282
273.4282
273.4282
273.4282
273.4282
273.4282
273.4282
273.4282
273.4282
273.4282
273.4282
273.4282
275.11685
275.11685
275.11684
275.11687
275.11687
275.11687
275.11686
275.11686
275.11685
275.11685
275.11685
275.11684
275.11685
275.11687
275.11688
275.11687
275.11687
275.11686
275.11685
275.11685
275.11684
275.11685
275.11686
275.11688
275.11688
275.11687
275.11687
275.11686
275.11685
275.11685
275.11687
275.11687
275.11688
275.1169
275.1169
275.1169
275.11689
275.11688
275.11687
275.11686
275.11687
275.11688
275.11688
275.1169
275.1169
275.1169
275.11689
275.11688
275.11687
275.11687
275.11687
275.11687
275.11687
275.1169
275.1169
275.11689
275.11689
275.11688
275.11687
275.11687
275.11686
275.11687
275.11687
275.11689
275.11689
275.11689
275.11688
275.11687
275.11686
275.11686
275.11686
275.11686
275.11686
275.11688
275.11688
275.11688
275.11687
275.11687
275.11686
275.11685
275.11685
275.11685
275.11685
275.11687
275.11687
275.11687
275.11686
275.11686
275.11685
275.11684
275.11685
275.11685
275.11685
275.11686
275.11687
275.11687
275.11686
275.11685
275.11684
275.11684
276.84479
276.8448
276.84479
276.84484
276.84484
276.84484
276.84483
276.84482
276.84481
276.8448
276.8448
276.84479
276.84481
276.84484
276.84485
276.84484
276.84483
276.84482
276.84481
276.84481
276.84479
276.84481
276.84482
276.84486
276.84486
276.84485
276.84484
276.84482
276.84481
276.84481
276.84484
276.84484
276.84486
276.84489
276.84489
276.84488
276.84487
276.84485
276.84483
276.84483
276.84484
276.84485
276.84486
276.84489
276.84489
276.84489
276.84487
276.84486
276.84484
276.84483
276.84484
276.84484
276.84485
276.84488
276.84489
276.84488
276.84487
276.84485
276.84484
276.84483
276.84483
276.84483
276.84484
276.84487
276.84487
276.84487
276.84486
276.84484
276.84483
276.84482
276.84482
276.84482
276.84482
276.84485
276.84486
276.84485
276.84484
276.84483
276.84481
276.8448
276.84481
276.84481
276.84481
276.84483
276.84484
276.84484
276.84483
276.84481
276.84479
276.84479
276.8448
276.84481
276.84481
276.84483
276.84483
276.84483
276.84482
276.8448
276.84479
276.84479
278.64494
278.64495
278.64495
278.64501
278.64502
278.64501
278.64499
278.64497
278.64496
278.64495
278.64495
278.64494
278.64497
278.64502
278.64502
278.64501
278.645
278.64498
278.64497
278.64496
278.64495
278.64497
278.64499
278.64504
278.64504
278.64503
278.64501
278.64498
278.64497
278.64497
278.64501
278.64502
278.64504
278.64508
278.64508
278.64507
278.64505
278.64502
278.645
278.64499
278.64502
278.64502
278.64504
278.64508
278.64508
278.64507
278.64506
278.64503
278.64501
278.645
278.64501
278.64501
278.64503
278.64507
278.64507
278.64507
278.64505
278.64502
278.645
278.64499
278.64499
278.645
278.64501
278.64505
278.64506
278.64505
278.64504
278.64501
278.64499
278.64498
278.64497
278.64498
278.64498
278.64502
278.64503
278.64502
278.64501
278.64498
278.64496
278.64495
278.64496
278.64497
278.64497
278.645
278.64501
278.645
278.64499
278.64496
278.64494
278.64493
278.64495
278.64496
278.64497
278.64499
278.645
278.64499
278.64498
278.64495
278.64493
278.64493
280.55011
280.55013
280.55012
280.55019
280.5502
280.55019
280.55017
280.55014
280.55013
280.55011
280.55013
280.55012
280.55015
280.55021
280.55021
280.5502
280.55018
280.55015
280.55013
280.55013
280.55012
280.55015
280.55018
280.55023
280.55023
280.55022
280.55019
280.55016
280.55014
280.55013
280.55019
280.55021
280.55023
280.55028
280.55028
280.55027
280.55024
280.5502
280.55017
280.55016
280.5502
280.55021
280.55023
280.55028
280.55028
280.55027
280.55025
280.55021
280.55018
280.55017
280.55019
280.5502
280.55022
280.55027
280.55027
280.55026
280.55024
280.5502
280.55018
280.55016
280.55017
280.55018
280.55019
280.55024
280.55025
280.55024
280.55022
280.55018
280.55016
280.55014
280.55014
280.55015
280.55016
280.5502
280.55021
280.5502
280.55018
280.55015
280.55012
280.5501
280.55013
280.55013
280.55014
280.55017
280.55018
280.55018
280.55016
280.55012
280.55009
280.55009
280.55011
280.55013
280.55013
280.55016
280.55017
280.55016
280.55014
280.5501
280.55009
280.55008
282.59303
282.59305
282.59305
282.59313
282.59314
282.59313
282.5931
282.59307
282.59305
282.59303
282.59305
282.59304
282.59308
282.59315
282.59315
282.59314
282.59311
282.59307
282.59306
282.59305
282.59305
282.59308
282.59311
282.59317
282.59318
282.59316
282.59313
282.59308
282.59306
282.59306
282.59313
282.59315
282.59317
282.59323
282.59324
282.59322
282.59319
282.59314
282.5931
282.59309
282.59314
282.59315
282.59318
282.59324
282.59324
282.59323
282.5932
282.59315
282.59311
282.5931
282.59313
282.59314
282.59316
282.59322
282.59323
282.59322
282.59319
282.59314
282.59311
282.59309
282.5931
282.59311
282.59313
282.59319
282.5932
282.59319
282.59317
282.59312
282.59308
282.59306
282.59307
282.59307
282.59308
282.59314
282.59315
282.59314
282.59312
282.59307
282.59303
282.59301
282.59305
282.59306
282.59306
282.5931
282.59311
282.59311
282.59308
282.59303
282.59299
282.59299
282.59303
282.59305
282.59306
282.59309
282.5931
282.59309
282.59306
282.59301
282.59299
282.59298
284.80639
284.80642
284.80641
284.8065
284.80652
284.8065
284.80647
284.80643
284.8064
284.80638
284.80642
284.8064
284.80645
284.80652
284.80653
284.80651
284.80648
284.80643
284.80641
284.80641
284.80641
284.80645
284.80649
284.80655
284.80656
284.80654
284.80651
284.80645
284.80641
284.80641
284.8065
284.80652
284.80655
284.80662
284.80662
284.80661
284.80657
284.80651
284.80646
284.80645
284.80652
284.80653
284.80656
284.80662
284.80663
284.80662
284.80658
284.80652
284.80648
284.80646
284.8065
284.80651
284.80654
284.80661
284.80662
284.80661
284.80657
284.80651
284.80647
284.80645
284.80647
284.80648
284.80651
284.80657
284.80658
284.80657
284.80654
284.80648
284.80644
284.80642
284.80643
284.80643
284.80645
284.80651
284.80652
284.80651
284.80648
284.80642
284.80637
284.80635
284.8064
284.80641
284.80641
284.80646
284.80648
284.80647
284.80644
284.80637
284.80633
284.80633
284.80638
284.80641
284.80641
284.80645
284.80646
284.80645
284.80642
284.80635
284.80633
284.80632
287.22275
287.22277
287.22277
287.22287
287.22288
287.22287
287.22283
287.22278
287.22275
287.22272
287.22277
287.22276
287.22281
287.22289
287.2229
287.22288
287.22284
287.22279
287.22276
287.22275
287.22277
287.22281
287.22285
287.22293
287.22293
287.22291
287.22287
287.2228
287.22276
287.22276
287.22287
287.22289
287.22293
287.223
287.22301
287.22299
287.22295
287.22287
287.22282
287.2228
287.22288
287.2229
287.22293
287.22301
287.22302
287.223
287.22296
287.22289
287.22283
287.22281
287.22287
287.22288
287.22291
287.22299
287.223
287.22299
287.22295
287.22288
287.22282
287.22281
287.22283
287.22284
287.22287
287.22295
287.22296
287.22295
287.22292
287.22284
287.22279
287.22277
287.22278
287.22279
287.2228
287.22287
287.22289
287.22288
287.22284
287.22277
287.22271
287.22269
287.22275
287.22276
287.22276
287.22282
287.22283
287.22282
287.22279
287.22271
287.22266
287.22267
287.22272
287.22275
287.22276
287.2228
287.22281
287.22281
287.22277
287.22269
287.22267
287.22265
289.87444
289.87447
289.87447
289.87458
289.87459
289.87457
289.87453
289.87448
289.87444
289.8744
289.87447
289.87445
289.87451
289.8746
289.87461
289.87459
289.87454
289.87448
289.87445
289.87444
289.87447
289.87451
289.87455
289.87464
289.87465
289.87462
289.87458
289.87449
289.87445
289.87445
289.87458
289.8746
289.87464
289.87472
289.87473
289.87471
289.87466
289.87457
289.87451
289.87449
289.87459
289.87461
289.87465
289.87473
289.87474
289.87472
289.87468
289.87459
289.87453
289.87451
289.87457
289.87459
289.87462
289.87471
289.87472
289.8747
289.87466
289.87458
289.87452
289.8745
289.87453
289.87454
289.87458
289.87466
289.87468
289.87466
289.87463
289.87454
289.87448
289.87445
289.87448
289.87448
289.87449
289.87457
289.87459
289.87458
289.87454
289.87445
289.87439
289.87436
289.87444
289.87445
289.87445
289.87451
289.87453
289.87452
289.87448
289.87439
289.87433
289.87434
289.8744
289.87444
289.87445
289.87449
289.87451
289.8745
289.87445
289.87436
289.87434
289.87432
292.79345
292.79348
292.79348
292.7936
292.79362
292.79359
292.79355
292.79349
292.79345
292.79341
292.79348
292.79347
292.79353
292.79363
292.79364
292.79361
292.79357
292.79349
292.79346
292.79345
292.79348
292.79353
292.79358
292.79367
292.79368
292.79365
292.7936
292.79351
292.79346
292.79346
292.7936
292.79363
292.79367
292.79376
292.79377
292.79375
292.7937
292.7936
292.79353
292.79351
292.79362
292.79364
292.79368
292.79377
292.79378
292.79376
292.79371
292.79361
292.79355
292.79352
292.79359
292.79361
292.79365
292.79375
292.79376
292.79374
292.7937
292.7936
292.79354
292.79351
292.79355
292.79357
292.7936
292.7937
292.79371
292.7937
292.79366
292.79356
292.79349
292.79346
292.79349
292.79349
292.79351
292.7936
292.79361
292.7936
292.79356
292.79346
292.79339
292.79336
292.79345
292.79346
292.79346
292.79353
292.79355
292.79354
292.79349
292.79339
292.79332
292.79333
292.79341
292.79345
292.79346
292.79351
292.79352
292.79351
292.79346
292.79336
292.79333
292.79331
296.01121
296.01124
296.01124
296.01137
296.01139
296.01136
296.01131
296.01124
296.0112
296.01115
296.01124
296.01123
296.01129
296.0114
296.01141
296.01138
296.01133
296.01125
296.01121
296.0112
296.01124
296.01129
296.01134
296.01144
296.01145
296.01143
296.01137
296.01126
296.01121
296.01121
296.01137
296.0114
296.01144
296.01154
296.01155
296.01153
296.01147
296.01136
296.01128
296.01126
296.01139
296.01141
296.01145
296.01155
296.01156
296.01154
296.01149
296.01138
296.01131
296.01128
296.01136
296.01138
296.01143
296.01153
296.01154
296.01152
296.01147
296.01137
296.01129
296.01127
296.01131
296.01133
296.01137
296.01147
296.01149
296.01147
296.01143
296.01132
296.01124
296.01121
296.01124
296.01125
296.01126
296.01136
296.01138
296.01137
296.01132
296.01121
296.01113
296.0111
296.0112
296.01121
296.01121
296.01128
296.01131
296.01129
296.01124
296.01113
296.01106
296.01107
296.01115
296.0112
296.01121
296.01126
296.01128
296.01127
296.01121
296.0111
296.01107
296.01105
299.55831
299.55835
299.55835
299.55849
299.55851
299.55848
299.55843
299.55835
299.5583
299.55825
299.55835
299.55834
299.55841
299.55852
299.55853
299.5585
299.55845
299.55835
299.55832
299.5583
299.55835
299.55841
299.55846
299.55857
299.55858
299.55855
299.55849
299.55837
299.55832
299.55831
299.55849
299.55852
299.55857
299.55867
299.55868
299.55866
299.5586
299.55848
299.55839
299.55837
299.55851
299.55853
299.55858
299.55868
299.55869
299.55867
299.55862
299.5585
299.55842
299.55839
299.55848
299.5585
299.55855
299.55866
299.55867
299.55866
299.5586
299.55849
299.55841
299.55838
299.55843
299.55845
299.55849
299.5586
299.55862
299.5586
299.55855
299.55843
299.55835
299.55832
299.55835
299.55835
299.55837
299.55848
299.5585
299.55849
299.55843
299.55831
299.55823
299.55819
299.5583
299.55832
299.55832
299.55839
299.55842
299.55841
299.55835
299.55823
299.55815
299.55816
299.55825
299.5583
299.55831
299.55837
299.55839
299.55838
299.55832
299.55819
299.55816
299.55814
303.46428
303.46432
303.46432
303.46446
303.46448
303.46445
303.46439
303.46431
303.46426
303.46421
303.46432
303.4643
303.46437
303.4645
303.46451
303.46448
303.46442
303.46432
303.46427
303.46426
303.46432
303.46437
303.46443
303.46455
303.46456
303.46453
303.46446
303.46434
303.46427
303.46427
303.46446
303.4645
303.46455
303.46466
303.46467
303.46464
303.46458
303.46445
303.46436
303.46433
303.46448
303.46451
303.46456
303.46467
303.46468
303.46466
303.4646
303.46447
303.46438
303.46435
303.46445
303.46448
303.46453
303.46464
303.46466
303.46464
303.46459
303.46446
303.46437
303.46434
303.46439
303.46442
303.46446
303.46458
303.4646
303.46459
303.46453
303.4644
303.46431
303.46427
303.46431
303.46432
303.46434
303.46445
303.46447
303.46446
303.4644
303.46427
303.46418
303.46414
303.46426
303.46427
303.46427
303.46436
303.46438
303.46437
303.46431
303.46418
303.46409
303.4641
303.46421
303.46426
303.46427
303.46433
303.46435
303.46434
303.46427
303.46414
303.4641
303.46408
307.75715
307.75719
307.75719
307.75734
307.75736
307.75733
307.75727
307.75718
307.75712
307.75707
307.75719
307.75717
307.75725
307.75738
307.75739
307.75736
307.75729
307.75718
307.75714
307.75712
307.75719
307.75725
307.75731
307.75743
307.75744
307.75741
307.75734
307.75721
307.75714
307.75714
307.75734
307.75738
307.75743
307.75755
307.75756
307.75753
307.75746
307.75732
307.75723
307.7572
307.75736
307.75739
307.75744
307.75756
307.75757
307.75755
307.75749
307.75735
307.75726
307.75722
307.75733
307.75736
307.75741
307.75753
307.75755
307.75753
307.75747
307.75734
307.75724
307.75721
307.75727
307.75729
307.75734
307.75746
307.75749
307.75747
307.75741
307.75728
307.75718
307.75714
307.75718
307.75718
307.75721
307.75732
307.75735
307.75734
307.75728
307.75714
307.75703
307.75699
307.75712
307.75714
307.75714
307.75723
307.75726
307.75724
307.75718
307.75703
307.75694
307.75696
307.75707
307.75712
307.75714
307.7572
307.75722
307.75721
307.75714
307.75699
307.75696
307.75693
312.46315
312.46319
312.46319
312.46335
312.46337
312.46334
312.46327
312.46318
312.46312
312.46306
312.46319
312.46318
312.46325
312.46339
312.4634
312.46336
312.46329
312.46318
312.46313
312.46312
312.46319
312.46325
312.46332
312.46344
312.46345
312.46342
312.46334
312.4632
312.46313
312.46313
312.46335
312.46339
312.46344
312.46356
312.46357
312.46354
312.46347
312.46332
312.46323
312.4632
312.46337
312.4634
312.46345
312.46357
312.46359
312.46356
312.4635
312.46335
312.46326
312.46322
312.46334
312.46336
312.46342
312.46354
312.46356
312.46355
312.46349
312.46334
312.46325
312.46321
312.46327
312.46329
312.46334
312.46347
312.4635
312.46349
312.46343
312.46328
312.46318
312.46314
312.46318
312.46318
312.4632
312.46332
312.46335
312.46334
312.46328
312.46313
312.46302
312.46298
312.46312
312.46313
312.46313
312.46323
312.46326
312.46325
312.46318
312.46302
312.46293
312.46294
312.46306
312.46312
312.46313
312.4632
312.46322
312.46321
312.46314
312.46298
312.46294
312.46292
317.60627
317.60631
317.60631
317.60648
317.6065
317.60646
317.60639
317.6063
317.60623
317.60617
317.60631
317.6063
317.60638
317.60652
317.60653
317.60649
317.60642
317.6063
317.60625
317.60623
317.60631
317.60638
317.60644
317.60657
317.60658
317.60655
317.60647
317.60632
317.60625
317.60625
317.60648
317.60652
317.60657
317.6067
317.60671
317.60668
317.60661
317.60645
317.60635
317.60632
317.6065
317.60653
317.60658
317.60671
317.60672
317.6067
317.60663
317.60648
317.60638
317.60634
317.60646
317.60649
317.60655
317.60668
317.6067
317.60668
317.60662
317.60647
317.60637
317.60633
317.60639
317.60642
317.60647
317.60661
317.60663
317.60662
317.60656
317.60641
317.6063
317.60626
317.6063
317.6063
317.60632
317.60645
317.60648
317.60647
317.60641
317.60625
317.60614
317.60609
317.60623
317.60625
317.60625
317.60635
317.60638
317.60637
317.6063
317.60614
317.60604
317.60605
317.60617
317.60623
317.60625
317.60632
317.60634
317.60633
317.60626
317.60609
317.60605
317.60603
323.20786
323.2079
323.2079
323.20807
323.20809
323.20805
323.20798
323.20788
323.20781
323.20775
323.2079
323.20789
323.20797
323.20811
323.20812
323.20808
323.20801
323.20788
323.20784
323.20782
323.2079
323.20797
323.20803
323.20816
323.20817
323.20814
323.20806
323.20791
323.20783
323.20783
323.20807
323.20811
323.20816
323.20829
323.2083
323.20827
323.2082
323.20804
323.20793
323.2079
323.20809
323.20812
323.20817
323.2083
323.20832
323.2083
323.20823
323.20807
323.20797
323.20793
323.20805
323.20808
323.20814
323.20827
323.2083
323.20828
323.20822
323.20806
323.20796
323.20792
323.20798
323.20801
323.20806
323.2082
323.20823
323.20822
323.20816
323.208
323.20789
323.20784
323.20788
323.20788
323.20791
323.20804
323.20807
323.20806
323.208
323.20784
323.20772
323.20767
323.20781
323.20784
323.20783
323.20793
323.20797
323.20796
323.20789
323.20772
323.20762
323.20763
323.20775
323.20782
323.20783
323.2079
323.20793
323.20792
323.20784
323.20767
323.20763
323.20761
329.28619
329.28624
329.28624
329.28641
329.28643
329.28639
329.28632
329.28622
329.28615
329.28608
329.28624
329.28622
329.28631
329.28645
329.28646
329.28642
329.28634
329.28622
329.28617
329.28615
329.28624
329.28631
329.28637
329.2865
329.28651
329.28648
329.2864
329.28624
329.28616
329.28616
329.28641
329.28645
329.2865
329.28663
329.28664
329.28661
329.28654
329.28637
329.28627
329.28624
329.28643
329.28646
329.28651
329.28664
329.28666
329.28664
329.28657
329.28641
329.2863
329.28627
329.28639
329.28642
329.28648
329.28661
329.28664
329.28662
329.28656
329.2864
329.2863
329.28626
329.28632
329.28634
329.2864
329.28654
329.28657
329.28656
329.2865
329.28634
329.28623
329.28618
329.28622
329.28622
329.28624
329.28637
329.28641
329.2864
329.28634
329.28617
329.28605
329.286
329.28615
329.28617
329.28616
329.28627
329.2863
329.2863
329.28623
329.28605
329.28595
329.28597
329.28608
329.28615
329.28616
329.28624
329.28627
329.28626
329.28618
329.286
329.28597
329.28594
335.85609
335.85614
335.85613
335.85631
335.85633
335.85629
335.85621
335.85611
335.85604
335.85597
335.85614
335.85612
335.8562
335.85635
335.85636
335.85632
335.85624
335.85611
335.85606
335.85604
335.85613
335.8562
335.85627
335.8564
335.85641
335.85637
335.85629
335.85613
335.85606
335.85606
335.85631
335.85635
335.8564
335.85653
335.85654
335.85651
335.85644
335.85627
335.85616
335.85613
335.85633
335.85636
335.85641
335.85654
335.85656
335.85654
335.85647
335.85631
335.8562
335.85617
335.85629
335.85632
335.85637
335.85651
335.85654
335.85652
335.85647
335.8563
335.8562
335.85616
335.85621
335.85624
335.85629
335.85644
335.85647
335.85647
335.85641
335.85624
335.85613
335.85608
335.85611
335.85611
335.85613
335.85627
335.85631
335.8563
335.85624
335.85607
335.85595
335.8559
335.85604
335.85606
335.85606
335.85616
335.8562
335.8562
335.85613
335.85595
335.85584
335.85587
335.85597
335.85604
335.85606
335.85613
335.85617
335.85616
335.85608
335.8559
335.85587
335.85584
342.92853
342.92858
342.92857
342.92874
342.92876
342.92872
342.92865
342.92854
342.92847
342.9284
342.92858
342.92856
342.92864
342.92878
342.92879
342.92875
342.92867
342.92854
342.9285
342.92848
342.92857
342.92864
342.9287
342.92883
342.92884
342.9288
342.92873
342.92857
342.92849
342.92849
342.92874
342.92878
342.92883
342.92896
342.92897
342.92895
342.92888
342.9287
342.9286
342.92857
342.92876
342.92879
342.92884
342.92897
342.92899
342.92897
342.92891
342.92874
342.92864
342.92861
342.92872
342.92875
342.9288
342.92895
342.92897
342.92896
342.9289
342.92874
342.92864
342.9286
342.92865
342.92867
342.92873
342.92888
342.92891
342.9289
342.92885
342.92869
342.92857
342.92853
342.92854
342.92854
342.92857
342.9287
342.92874
342.92874
342.92869
342.92851
342.92839
342.92834
342.92847
342.9285
342.92849
342.9286
342.92864
342.92864
342.92857
342.92839
342.92828
342.92831
342.9284
342.92848
342.92849
342.92857
342.92861
342.9286
342.92853
342.92834
342.92831
342.92828
350.51031
350.51036
350.51035
350.51052
350.51054
350.5105
350.51043
350.51033
350.51026
350.51019
350.51036
350.51034
350.51042
350.51056
350.51056
350.51053
350.51045
350.51032
350.51028
350.51026
350.51035
350.51042
350.51048
350.51061
350.51061
350.51058
350.51051
350.51035
350.51027
350.51028
350.51052
350.51056
350.51061
350.51074
350.51074
350.51072
350.51066
350.51048
350.51038
350.51035
350.51054
350.51056
350.51061
350.51074
350.51076
350.51075
350.51069
350.51053
350.51042
350.51039
350.5105
350.51053
350.51058
350.51072
350.51075
350.51074
350.51069
350.51053
350.51043
350.51039
350.51043
350.51045
350.51051
350.51066
350.51069
350.51069
350.51064
350.51048
350.51037
350.51032
350.51033
350.51032
350.51035
350.51048
350.51053
350.51053
350.51048
350.5103
350.51018
350.51013
350.51026
350.51028
350.51027
350.51038
350.51042
350.51043
350.51037
350.51018
350.51008
350.51011
350.51019
350.51026
350.51028
350.51035
350.51039
350.51039
350.51032
350.51013
350.51011
350.51008
358.60382
358.60387
358.60386
358.60403
358.60404
358.604
358.60394
358.60384
358.60377
358.6037
358.60387
358.60385
358.60392
358.60406
358.60407
358.60403
358.60396
358.60383
358.60379
358.60378
358.60386
358.60392
358.60398
358.60411
358.60411
358.60408
358.60401
358.60385
358.60378
358.60379
358.60403
358.60406
358.60411
358.60423
358.60424
358.60422
358.60416
358.60399
358.60389
358.60387
358.60404
358.60407
358.60411
358.60424
358.60426
358.60425
358.60419
358.60403
358.60394
358.60391
358.604
358.60403
358.60408
358.60422
358.60425
358.60424
358.6042
358.60404
358.60394
358.60391
358.60394
358.60396
358.60401
358.60416
358.60419
358.6042
358.60415
358.604
358.60389
358.60384
358.60384
358.60383
358.60385
358.60399
358.60403
358.60404
358.604
358.60383
358.60371
358.60365
358.60377
358.60379
358.60378
358.60389
358.60394
358.60394
358.60389
358.60371
358.6036
358.60363
358.6037
358.60378
358.60379
358.60387
358.60391
358.60391
358.60384
358.60365
358.60363
358.60361
367.2068
367.20685
367.20684
367.207
367.20702
367.20698
367.20692
367.20682
367.20676
367.20669
367.20685
367.20683
367.2069
367.20703
367.20704
367.207
367.20694
367.20682
367.20678
367.20676
367.20684
367.2069
367.20695
367.20708
367.20708
367.20705
367.20699
367.20683
367.20677
367.20678
367.207
367.20703
367.20708
367.2072
367.20721
367.20719
367.20713
367.20697
367.20688
367.20686
367.20702
367.20704
367.20708
367.20721
367.20722
367.20722
367.20717
367.20702
367.20692
367.2069
367.20698
367.207
367.20705
367.20719
367.20722
367.20722
367.20718
367.20703
367.20694
367.20691
367.20692
367.20694
367.20699
367.20713
367.20717
367.20718
367.20714
367.20699
367.20689
367.20685
367.20682
367.20682
367.20683
367.20697
367.20702
367.20703
367.20699
367.20682
367.20671
367.20666
367.20676
367.20678
367.20677
367.20688
367.20692
367.20694
367.20689
367.20671
367.20661
367.20664
367.20669
367.20676
367.20678
367.20686
367.2069
367.20691
367.20685
367.20666
367.20664
367.20662
376.31227
376.31231
376.3123
376.31246
376.31247
376.31243
376.31237
376.31228
376.31222
376.31216
376.31231
376.31229
376.31235
376.31248
376.31249
376.31246
376.3124
376.31228
376.31224
376.31223
376.3123
376.31235
376.3124
376.31252
376.31252
376.3125
376.31244
376.3123
376.31224
376.31225
376.31246
376.31248
376.31252
376.31264
376.31264
376.31263
376.31258
376.31243
376.31234
376.31232
376.31247
376.31249
376.31252
376.31264
376.31266
376.31266
376.31262
376.31248
376.31239
376.31237
376.31243
376.31246
376.3125
376.31263
376.31266
376.31267
376.31264
376.3125
376.31241
376.31239
376.31237
376.3124
376.31244
376.31258
376.31262
376.31264
376.31261
376.31246
376.31237
376.31233
376.31228
376.31228
376.3123
376.31243
376.31248
376.3125
376.31246
376.31231
376.3122
376.31215
376.31222
376.31224
376.31224
376.31234
376.31239
376.31241
376.31237
376.3122
376.3121
376.31214
376.31216
376.31223
376.31225
376.31232
376.31237
376.31239
376.31233
376.31215
376.31214
376.31211
385.90844
385.90848
385.90847
385.90862
385.90863
385.90859
385.90854
385.90846
385.90841
385.90834
385.90848
385.90846
385.90852
385.90864
385.90864
385.90861
385.90856
385.90845
385.90842
385.90842
385.90847
385.90852
385.90856
385.90867
385.90867
385.90866
385.90861
385.90847
385.90842
385.90843
385.90862
385.90864
385.90867
385.90878
385.90879
385.90878
385.90874
385.9086
385.90852
385.90851
385.90863
385.90864
385.90867
385.90879
385.90881
385.90881
385.90879
385.90865
385.90857
385.90856
385.90859
385.90861
385.90866
385.90878
385.90881
385.90883
385.90881
385.90867
385.9086
385.90858
385.90854
385.90856
385.90861
385.90874
385.90879
385.90881
385.90879
385.90865
385.90856
385.90853
385.90846
385.90845
385.90847
385.9086
385.90865
385.90867
385.90865
385.9085
385.9084
385.90835
385.90841
385.90842
385.90842
385.90852
385.90857
385.9086
385.90856
385.9084
385.90831
385.90835
385.90834
385.90842
385.90843
385.90851
385.90856
385.90858
385.90853
385.90835
385.90835
385.90833
395.97885
395.97888
395.97886
395.97901
395.97901
395.97899
395.97894
395.97887
395.97882
395.97876
395.97888
395.97886
395.97891
395.97902
395.97903
395.979
395.97896
395.97886
395.97884
395.97883
395.97886
395.97891
395.97895
395.97905
395.97906
395.97904
395.979
395.97887
395.97883
395.97885
395.97901
395.97902
395.97905
395.97915
395.97916
395.97916
395.97913
395.979
395.97893
395.97892
395.97901
395.97903
395.97906
395.97916
395.97918
395.97919
395.97918
395.97905
395.97898
395.97897
395.97899
395.979
395.97904
395.97916
395.97919
395.97921
395.9792
395.97908
395.97901
395.979
395.97894
395.97896
395.979
395.97913
395.97918
395.9792
395.97919
395.97907
395.97899
395.97896
395.97887
395.97886
395.97887
395.979
395.97905
395.97908
395.97907
395.97893
395.97884
395.9788
395.97882
395.97884
395.97883
395.97893
395.97898
395.97901
395.97899
395.97884
395.97875
395.9788
395.97876
395.97883
395.97885
395.97892
395.97897
395.979
395.97896
395.9788
395.9788
395.97878
406.50245
406.50248
406.50246
406.50259
406.5026
406.50257
406.50254
406.50247
406.50243
406.50238
406.50248
406.50245
406.5025
406.5026
406.5026
406.50259
406.50255
406.50246
406.50245
406.50245
406.50246
406.5025
406.50253
406.50262
406.50263
406.50262
406.50259
406.50247
406.50244
406.50246
406.50259
406.5026
406.50262
406.50272
406.50273
406.50274
406.50272
406.50259
406.50254
406.50253
406.5026
406.5026
406.50263
406.50273
406.50275
406.50277
406.50276
406.50265
406.50259
406.50259
406.50257
406.50259
406.50262
406.50274
406.50277
406.50279
406.50279
406.50269
406.50263
406.50262
406.50254
406.50255
406.50259
406.50272
406.50276
406.50279
406.50279
406.50268
406.50262
406.50259
406.50247
406.50246
406.50247
406.50259
406.50265
406.50269
406.50268
406.50256
406.50247
406.50244
406.50243
406.50245
406.50244
406.50254
406.50259
406.50263
406.50262
406.50247
406.5024
406.50245
406.50238
406.50245
406.50246
406.50253
406.50259
406.50262
406.50259
406.50244
406.50245
406.50243
417.45388
417.45391
417.45389
417.45401
417.45402
417.454
417.45397
417.45391
417.45388
417.45384
417.45391
417.45388
417.45392
417.45402
417.45402
417.45401
417.45398
417.4539
417.4539
417.4539
417.45389
417.45392
417.45395
417.45403
417.45404
417.45404
417.45402
417.45391
417.45389
417.45391
417.45401
417.45402
417.45403
417.45412
417.45413
417.45415
417.45414
417.45403
417.45398
417.45399
417.45402
417.45402
417.45404
417.45413
417.45416
417.45418
417.45418
417.45409
417.45404
417.45404
417.454
417.45401
417.45404
417.45415
417.45418
417.45421
417.45422
417.45413
417.45408
417.45408
417.45397
417.45398
417.45402
417.45414
417.45418
417.45422
417.45423
417.45414
417.45408
417.45406
417.45391
417.4539
417.45391
417.45403
417.45409
417.45413
417.45414
417.45403
417.45395
417.45392
417.45388
417.4539
417.45389
417.45398
417.45404
417.45408
417.45408
417.45395
417.45389
417.45394
417.45384
417.4539
417.45391
417.45399
417.45404
417.45408
417.45406
417.45392
417.45394
417.45393
428.8038
428.80382
428.8038
428.80391
428.80391
428.8039
428.80388
428.80384
428.80381
428.80378
428.80382
428.80379
428.80382
428.80391
428.80391
428.80391
428.80389
428.80382
428.80383
428.80384
428.8038
428.80382
428.80384
428.80392
428.80393
428.80393
428.80392
428.80383
428.80382
428.80385
428.80391
428.80391
428.80392
428.804
428.80402
428.80403
428.80403
428.80394
428.80391
428.80392
428.80391
428.80391
428.80393
428.80402
428.80404
428.80407
428.80408
428.804
428.80397
428.80398
428.8039
428.80391
428.80393
428.80403
428.80407
428.80411
428.80413
428.80405
428.80402
428.80402
428.80388
428.80389
428.80392
428.80403
428.80408
428.80413
428.80415
428.80407
428.80402
428.80401
428.80384
428.80382
428.80383
428.80394
428.804
428.80405
428.80407
428.80397
428.80391
428.80388
428.80381
428.80383
428.80382
428.80391
428.80397
428.80402
428.80402
428.80391
428.80386
428.80391
428.80378
428.80384
428.80385
428.80392
428.80398
428.80402
428.80401
428.80388
428.80391
428.8039
440.51921
440.51923
440.5192
440.5193
440.51931
440.5193
440.51929
440.51926
440.51925
440.51921
440.51923
440.5192
440.51922
440.5193
440.5193
440.51931
440.5193
440.51925
440.51926
440.51927
440.5192
440.51922
440.51924
440.51931
440.51932
440.51933
440.51933
440.51925
440.51925
440.51928
440.5193
440.5193
440.51931
440.51938
440.51939
440.51942
440.51943
440.51936
440.51933
440.51935
440.51931
440.5193
440.51932
440.51939
440.51942
440.51946
440.51948