/*--------------------------------*- C++ -*----------------------------------*\
| =========                 |                                                 |
| \\      /  F ield         | OpenFOAM: The Open Source CFD Toolbox           |
|  \\    /   O peration     | Version:  v2106                                 |
|   \\  /    A nd           | Website:  www.openfoam.com                      |
|    \\/     M anipulation  |                                                 |
\*---------------------------------------------------------------------------*/
FoamFile
{
    version     2.0;
    format      ascii;
    arch        "LSB;label=32;scalar=64";
    class       volScalarField;
    location    "15";
    object      gradTz;
}
// * * * * * * * * * * * * * * * * * * * * * * * * * * * * * * * * * * * * * //

dimensions      [0 -1 0 1 0 0 0];

internalField   nonuniform List<scalar> 
4000
(
252.91461
252.91452
252.91376
252.91539
252.91562
252.91544
252.91517
252.91487
252.91462
252.91446
252.91452
252.91353
252.91414
252.91545
252.91556
252.91535
252.91506
252.91473
252.9145
252.91449
252.91376
252.91414
252.91452
252.91569
252.91576
252.91554
252.9152
252.91478
252.91444
252.91448
252.91539
252.91545
252.91569
252.91681
252.91687
252.91665
252.91631
252.91583
252.91531
252.9151
252.91562
252.91556
252.91576
252.91687
252.91692
252.91672
252.91641
252.91595
252.91545
252.91524
252.91544
252.91535
252.91554
252.91665
252.91672
252.91653
252.91624
252.9158
252.91533
252.91515
252.91517
252.91506
252.9152
252.91631
252.91641
252.91624
252.91596
252.91554
252.91507
252.91489
252.91487
252.91473
252.91478
252.91583
252.91595
252.9158
252.91554
252.91511
252.91465
252.91447
252.91462
252.9145
252.91444
252.91531
252.91545
252.91533
252.91507
252.91465
252.91418
252.91402
252.91446
252.91449
252.91448
252.9151
252.91524
252.91515
252.91489
252.91447
252.91402
252.9139
377.17485
377.17513
377.17504
377.17664
377.17692
377.17669
377.17629
377.17583
377.17545
377.17508
377.17513
377.17491
377.17564
377.177
377.17717
377.17691
377.17647
377.17594
377.17567
377.17559
377.17504
377.17564
377.17626
377.1775
377.17762
377.17735
377.17685
377.17614
377.17569
377.17567
377.17664
377.177
377.1775
377.17868
377.17879
377.17852
377.17802
377.17724
377.17657
377.17629
377.17692
377.17717
377.17762
377.17879
377.17891
377.17866
377.1782
377.17744
377.17678
377.17648
377.17669
377.17691
377.17735
377.17852
377.17866
377.17844
377.178
377.17728
377.17664
377.17637
377.17629
377.17647
377.17685
377.17802
377.1782
377.178
377.17758
377.17687
377.17624
377.17596
377.17583
377.17594
377.17614
377.17724
377.17744
377.17728
377.17687
377.17616
377.17552
377.17525
377.17545
377.17567
377.17569
377.17657
377.17678
377.17664
377.17624
377.17552
377.17491
377.1747
377.17508
377.17559
377.17567
377.17629
377.17648
377.17637
377.17596
377.17525
377.1747
377.17457
381.21312
381.21374
381.21404
381.21518
381.21536
381.21513
381.21471
381.2142
381.21386
381.21343
381.21374
381.21386
381.21457
381.21554
381.21566
381.21542
381.21494
381.2143
381.21409
381.21399
381.21404
381.21457
381.21521
381.2161
381.21619
381.21594
381.21542
381.21459
381.21418
381.21414
381.21518
381.21554
381.2161
381.21696
381.21705
381.21681
381.2163
381.2154
381.21481
381.21459
381.21536
381.21566
381.21619
381.21705
381.21715
381.21694
381.21646
381.21558
381.21499
381.21475
381.21513
381.21542
381.21594
381.21681
381.21694
381.21675
381.2163
381.21545
381.21487
381.21464
381.21471
381.21494
381.21542
381.2163
381.21646
381.2163
381.21586
381.21501
381.21444
381.21418
381.2142
381.2143
381.21459
381.2154
381.21558
381.21545
381.21501
381.21416
381.21358
381.21334
381.21386
381.21409
381.21418
381.21481
381.21499
381.21487
381.21444
381.21358
381.21306
381.213
381.21343
381.21399
381.21414
381.21459
381.21475
381.21464
381.21418
381.21334
381.213
381.21284
388.08922
388.08968
388.08987
388.09083
388.09097
388.09073
388.09029
388.0897
388.08935
388.08895
388.08968
388.08978
388.09034
388.09116
388.09125
388.09101
388.09051
388.08975
388.08949
388.08939
388.08987
388.09034
388.09082
388.09158
388.09165
388.09142
388.09089
388.08995
388.08953
388.08951
388.09083
388.09116
388.09158
388.09232
388.09239
388.09218
388.09166
388.09066
388.09007
388.08989
388.09097
388.09125
388.09165
388.09239
388.09248
388.09229
388.09181
388.09083
388.09024
388.09004
388.09073
388.09101
388.09142
388.09218
388.09229
388.09213
388.09167
388.09071
388.09012
388.08992
388.09029
388.09051
388.09089
388.09166
388.09181
388.09167
388.09121
388.09025
388.08965
388.08942
388.0897
388.08975
388.08995
388.09066
388.09083
388.09071
388.09025
388.08927
388.08867
388.08844
388.08935
388.08949
388.08953
388.09007
388.09024
388.09012
388.08965
388.08867
388.08816
388.08826
388.08895
388.08939
388.08951
388.08989
388.09004
388.08992
388.08942
388.08844
388.08826
388.08809
397.71386
397.71417
397.71427
397.71515
397.71525
397.71502
397.71457
397.71393
397.71351
397.71312
397.71417
397.71419
397.71465
397.7154
397.71546
397.71523
397.71474
397.71395
397.71362
397.7135
397.71427
397.71465
397.71505
397.71573
397.71579
397.71558
397.71506
397.71409
397.71363
397.71359
397.71515
397.7154
397.71573
397.7164
397.71647
397.71628
397.71578
397.71475
397.71412
397.71394
397.71525
397.71546
397.71579
397.71647
397.71655
397.71639
397.71592
397.71491
397.71428
397.71407
397.71502
397.71523
397.71558
397.71628
397.71639
397.71625
397.7158
397.7148
397.71417
397.71395
397.71457
397.71474
397.71506
397.71578
397.71592
397.7158
397.71536
397.71435
397.7137
397.71344
397.71393
397.71395
397.71409
397.71475
397.71491
397.7148
397.71435
397.71332
397.71264
397.71238
397.71351
397.71362
397.71363
397.71412
397.71428
397.71417
397.7137
397.71264
397.71208
397.71224
397.71312
397.7135
397.71359
397.71394
397.71407
397.71395
397.71344
397.71238
397.71224
397.71209
409.98451
409.98477
409.98483
409.98564
409.98572
409.9855
409.98507
409.98444
409.98401
409.98363
409.98477
409.98476
409.98516
409.98585
409.9859
409.98569
409.98522
409.98444
409.98411
409.98398
409.98483
409.98516
409.98551
409.98614
409.98619
409.98599
409.98551
409.98457
409.9841
409.98406
409.98564
409.98585
409.98614
409.98676
409.98682
409.98665
409.98619
409.98518
409.98457
409.98438
409.98572
409.9859
409.98619
409.98682
409.9869
409.98676
409.98633
409.98534
409.98471
409.98451
409.9855
409.98569
409.98599
409.98665
409.98676
409.98664
409.98623
409.98525
409.98463
409.9844
409.98507
409.98522
409.98551
409.98619
409.98633
409.98623
409.98583
409.98483
409.98417
409.9839
409.98444
409.98444
409.98457
409.98518
409.98534
409.98525
409.98483
409.9838
409.98311
409.98282
409.98401
409.98411
409.9841
409.98457
409.98471
409.98463
409.98417
409.98311
409.98252
409.98269
409.98363
409.98398
409.98406
409.98438
409.98451
409.9844
409.9839
409.98282
409.98269
409.98254
424.78451
424.78475
424.78479
424.78554
424.7856
424.78539
424.78499
424.7844
424.78397
424.78361
424.78475
424.78473
424.7851
424.78573
424.78576
424.78556
424.78514
424.78439
424.78407
424.78395
424.78479
424.7851
424.78541
424.78599
424.78603
424.78585
424.7854
424.7845
424.78406
424.78401
424.78554
424.78573
424.78599
424.78656
424.78661
424.78646
424.78604
424.78508
424.78449
424.78432
424.7856
424.78576
424.78603
424.78661
424.78668
424.78656
424.78617
424.78524
424.78464
424.78444
424.78539
424.78556
424.78585
424.78646
424.78656
424.78647
424.7861
424.78517
424.78457
424.78435
424.78499
424.78514
424.7854
424.78604
424.78617
424.7861
424.78573
424.78478
424.78415
424.78387
424.7844
424.78439
424.7845
424.78508
424.78524
424.78517
424.78478
424.7838
424.78311
424.78282
424.78397
424.78407
424.78406
424.78449
424.78464
424.78457
424.78415
424.78311
424.78253
424.78268
424.78361
424.78395
424.78401
424.78432
424.78444
424.78435
424.78387
424.78282
424.78268
424.78253
441.98212
441.98234
441.98237
441.98306
441.98311
441.98291
441.98254
441.98198
441.98159
441.98125
441.98234
441.98232
441.98266
441.98323
441.98325
441.98307
441.98268
441.98198
441.98168
441.98156
441.98237
441.98266
441.98293
441.98346
441.98349
441.98332
441.98292
441.98208
441.98166
441.98162
441.98306
441.98323
441.98346
441.98398
441.98402
441.98389
441.98351
441.98262
441.98207
441.9819
441.98311
441.98325
441.98349
441.98402
441.98409
441.98399
441.98364
441.98277
441.98221
441.98203
441.98291
441.98307
441.98332
441.98389
441.98399
441.98392
441.98359
441.98272
441.98216
441.98196
441.98254
441.98268
441.98292
441.98351
441.98364
441.98359
441.98327
441.98238
441.98178
441.98151
441.98198
441.98198
441.98208
441.98262
441.98277
441.98272
441.98238
441.98145
441.9808
441.98051
441.98159
441.98168
441.98166
441.98207
441.98221
441.98216
441.98178
441.9808
441.98023
441.98038
441.98125
441.98156
441.98162
441.9819
441.98203
441.98196
441.98151
441.98051
441.98038
441.98023
461.43042
461.43063
461.43065
461.43126
461.4313
461.43112
461.43078
461.43027
461.4299
461.42958
461.43063
461.43061
461.4309
461.43141
461.43143
461.43126
461.4309
461.43026
461.42999
461.42988
461.43065
461.4309
461.43114
461.43161
461.43163
461.43148
461.43112
461.43035
461.42997
461.42993
461.43126
461.43141
461.43161
461.43208
461.43211
461.432
461.43167
461.43085
461.43035
461.4302
461.4313
461.43143
461.43163
461.43211
461.43217
461.43209
461.4318
461.43099
461.43049
461.43032
461.43112
461.43126
461.43148
461.432
461.43209
461.43204
461.43177
461.43097
461.43046
461.43027
461.43078
461.4309
461.43112
461.43167
461.4318
461.43177
461.43149
461.43067
461.43012
461.42988
461.43027
461.43026
461.43035
461.43085
461.43099
461.43097
461.43067
461.42981
461.42921
461.42893
461.4299
461.42999
461.42997
461.43035
461.43049
461.43046
461.43012
461.42921
461.42868
461.42882
461.42958
461.42988
461.42993
461.4302
461.43032
461.43027
461.42988
461.42893
461.42882
461.42867
482.96739
482.96757
482.96758
482.96813
482.96815
482.96798
482.96769
482.96722
482.96689
482.9666
482.96757
482.96756
482.96781
482.96826
482.96826
482.96811
482.9678
482.96721
482.96698
482.96688
482.96758
482.96781
482.96801
482.96842
482.96843
482.9683
482.96799
482.96728
482.96695
482.96692
482.96813
482.96826
482.96842
482.96883
482.96885
482.96877
482.96849
482.96774
482.9673
482.96717
482.96815
482.96826
482.96843
482.96885
482.96891
482.96885
482.96861
482.96788
482.96744
482.96729
482.96798
482.96811
482.9683
482.96877
482.96885
482.96883
482.9686
482.96789
482.96743
482.96727
482.96769
482.9678
482.96799
482.96849
482.96861
482.9686
482.96838
482.96764
482.96715
482.96692
482.96722
482.96721
482.96728
482.96774
482.96788
482.96789
482.96764
482.96686
482.96631
482.96605
482.96689
482.96698
482.96695
482.9673
482.96744
482.96743
482.96715
482.96631
482.96582
482.96597
482.9666
482.96688
482.96692
482.96717
482.96729
482.96727
482.96692
482.96605
482.96597
482.96583
506.4162
506.41636
506.41636
506.41683
506.41683
506.41668
506.41643
506.41602
506.41573
506.41547
506.41636
506.41634
506.41655
506.41693
506.41692
506.41679
506.41652
506.41601
506.41581
506.41573
506.41636
506.41655
506.41671
506.41706
506.41705
506.41695
506.41669
506.41606
506.41578
506.41576
506.41683
506.41693
506.41706
506.41741
506.41742
506.41736
506.41713
506.41647
506.41609
506.41599
506.41683
506.41692
506.41705
506.41742
506.41747
506.41744
506.41725
506.41661
506.41623
506.41612
506.41668
506.41679
506.41695
506.41736
506.41744
506.41744
506.41727
506.41664
506.41625
506.41612
506.41643
506.41652
506.41669
506.41713
506.41725
506.41727
506.4171
506.41645
506.41602
506.41583
506.41602
506.41601
506.41606
506.41647
506.41661
506.41664
506.41645
506.41576
506.41527
506.41504
506.41573
506.41581
506.41578
506.41609
506.41623
506.41625
506.41602
506.41527
506.41484
506.41499
506.41547
506.41573
506.41576
506.41599
506.41612
506.41612
506.41583
506.41504
506.41499
506.41486
531.58579
531.58592
531.58591
531.5863
531.58629
531.58616
531.58595
531.5856
531.58536
531.58513
531.58592
531.58591
531.58607
531.58638
531.58635
531.58625
531.58603
531.58559
531.58543
531.58536
531.58591
531.58607
531.58618
531.58646
531.58645
531.58638
531.58617
531.58563
531.5854
531.5854
531.5863
531.58638
531.58646
531.58675
531.58676
531.58672
531.58656
531.58599
531.58567
531.5856
531.58629
531.58635
531.58645
531.58676
531.5868
531.5868
531.58667
531.58613
531.58581
531.58573
531.58616
531.58625
531.58638
531.58672
531.5868
531.58683
531.58672
531.58619
531.58587
531.58576
531.58595
531.58603
531.58617
531.58656
531.58667
531.58672
531.58661
531.58606
531.5857
531.58554
531.5856
531.58559
531.58563
531.58599
531.58613
531.58619
531.58606
531.58546
531.58504
531.58484
531.58536
531.58543
531.5854
531.58567
531.58581
531.58587
531.5857
531.58504
531.58467
531.58482
531.58513
531.58536
531.5854
531.5856
531.58573
531.58576
531.58554
531.58484
531.58482
531.5847
558.27174
558.27185
558.27182
558.27213
558.27211
558.272
558.27184
558.27156
558.27137
558.27117
558.27185
558.27183
558.27194
558.27218
558.27214
558.27206
558.2719
558.27153
558.27142
558.27138
558.27182
558.27194
558.27201
558.27223
558.27221
558.27216
558.27202
558.27156
558.27139
558.2714
558.27213
558.27218
558.27223
558.27245
558.27245
558.27244
558.27234
558.27187
558.27163
558.27158
558.27211
558.27214
558.27221
558.27245
558.27249
558.27251
558.27245
558.27201
558.27177
558.27172
558.272
558.27206
558.27216
558.27244
558.27251
558.27257
558.27253
558.2721
558.27185
558.27178
558.27184
558.2719
558.27202
558.27234
558.27245
558.27253
558.27248
558.27203
558.27175
558.27162
558.27156
558.27153
558.27156
558.27187
558.27201
558.2721
558.27203
558.27154
558.27119
558.27102
558.27137
558.27142
558.27139
558.27163
558.27177
558.27185
558.27175
558.27119
558.27089
558.27104
558.27117
558.27138
558.2714
558.27158
558.27172
558.27178
558.27162
558.27102
558.27104
558.27094
586.25746
586.25754
586.2575
586.25773
586.25769
586.25761
586.2575
586.25728
586.25715
586.25699
586.25754
586.25752
586.25758
586.25774
586.2577
586.25765
586.25755
586.25726
586.25719
586.25717
586.2575
586.25758
586.2576
586.25775
586.25772
586.25771
586.25763
586.25727
586.25716
586.25719
586.25773
586.25774
586.25775
586.25791
586.2579
586.25793
586.25789
586.25753
586.25736
586.25734
586.25769
586.2577
586.25772
586.2579
586.25793
586.25799
586.25799
586.25766
586.2575
586.25748
586.25761
586.25765
586.25771
586.25793
586.25799
586.25808
586.2581
586.25778
586.25762
586.25758
586.2575
586.25755
586.25763
586.25789
586.25799
586.2581
586.25813
586.25779
586.25758
586.25749
586.25728
586.25726
586.25727
586.25753
586.25766
586.25778
586.25779
586.2574
586.25714
586.25699
586.25715
586.25719
586.25716
586.25736
586.2575
586.25762
586.25758
586.25714
586.25689
586.25705
586.25699
586.25717
586.25719
586.25734
586.25748
586.25758
586.25749
586.25699
586.25705
586.25697
615.31567
615.31572
615.31567
615.31581
615.31576
615.31571
615.31565
615.31551
615.31543
615.31531
615.31572
615.3157
615.3157
615.31579
615.31574
615.31572
615.31568
615.31548
615.31546
615.31546
615.31567
615.3157
615.31568
615.31576
615.31572
615.31574
615.31573
615.31547
615.31542
615.31548
615.31581
615.31579
615.31576
615.31585
615.31584
615.3159
615.31592
615.31568
615.31558
615.3156
615.31576
615.31574
615.31572
615.31584
615.31587
615.31596
615.31603
615.31581
615.31573
615.31575
615.31571
615.31572
615.31574
615.3159
615.31596
615.31608
615.31617
615.31596
615.31588
615.31588
615.31565
615.31568
615.31573
615.31592
615.31603
615.31617
615.31626
615.31603
615.31591
615.31586
615.31551
615.31548
615.31547
615.31568
615.31581
615.31596
615.31603
615.31576
615.31558
615.31548
615.31543
615.31546
615.31542
615.31558
615.31573
615.31588
615.31591
615.31558
615.31541
615.31558
615.31531
615.31546
615.31548
615.3156
615.31575
615.31588
615.31586
615.31548
615.31558
615.31552
645.21019
645.21021
645.21014
645.21019
645.21013
645.21011
645.21011
645.21005
645.21003
645.20995
645.21021
645.21018
645.21013
645.21014
645.21009
645.2101
645.21012
645.21001
645.21005
645.21007
645.21014
645.21013
645.21006
645.21007
645.21003
645.21008
645.21014
645.20999
645.21001
645.21008
645.21019
645.21014
645.21007
645.21009
645.21008
645.21017
645.21027
645.21014
645.21013
645.21018
645.21013
645.21009
645.21003
645.21008
645.21011
645.21023
645.21037
645.21027
645.21027
645.21033
645.21011
645.2101
645.21008
645.21017
645.21023
645.21039
645.21055
645.21045
645.21046
645.2105
645.21011
645.21012
645.21014
645.21027
645.21037
645.21055
645.21071
645.2106
645.21056
645.21056
645.21005
645.21001
645.20999
645.21014
645.21027
645.21045
645.2106
645.21044
645.21035
645.21029
645.21003
645.21005
645.21001
645.21013
645.21027
645.21046
645.21056
645.21035
645.21026
645.21043
645.20995
645.21007
645.21008
645.21018
645.21033
645.2105
645.21056
645.21029
645.21043
645.2104
675.69799
675.69798
675.6979
675.69786
675.69779
675.6978
675.69787
675.69788
675.69792
675.69789
675.69798
675.69794
675.69784
675.69778
675.69772
675.69776
675.69785
675.69783
675.69792
675.69798
675.6979
675.69784
675.69773
675.69766
675.69763
675.69771
675.69783
675.6978
675.69788
675.69798
675.69786
675.69778
675.69766
675.69762
675.69761
675.69774
675.69791
675.69789
675.69796
675.69806
675.69779
675.69772
675.69763
675.69761
675.69764
675.6978
675.698
675.69802
675.69811
675.69821
675.6978
675.69776
675.69771
675.69774
675.6978
675.69799
675.69821
675.69824
675.69833
675.69841
675.69787
675.69785
675.69783
675.69791
675.698
675.69821
675.69844
675.69845
675.69851
675.69854
675.69788
675.69783
675.6978
675.69789
675.69802
675.69824
675.69845
675.69842
675.69841
675.69839
675.69792
675.69792
675.69788
675.69796
675.69811
675.69833
675.69851
675.69841
675.6984
675.69857
675.69789
675.69798
675.69798
675.69806
675.69821
675.69841
675.69854
675.69839
675.69857
675.69857
706.53149
706.53144
706.53135
706.53123
706.53115
706.5312
706.53132
706.53141
706.53151
706.53153
706.53144
706.5314
706.53125
706.53111
706.53105
706.53113
706.53128
706.53136
706.53151
706.53159
706.53135
706.53125
706.53109
706.53096
706.53093
706.53105
706.53124
706.53131
706.53146
706.53158
706.53123
706.53111
706.53096
706.53085
706.53085
706.53101
706.53125
706.53135
706.53151
706.53164
706.53115
706.53105
706.53093
706.53085
706.53087
706.53107
706.53134
706.53147
706.53165
706.53179
706.5312
706.53113
706.53105
706.53101
706.53107
706.53129
706.53158
706.53173
706.5319
706.53203
706.53132
706.53128
706.53124
706.53125
706.53134
706.53158
706.53188
706.53201
706.53215
706.53223
706.53141
706.53136
706.53131
706.53135
706.53147
706.53173
706.53201
706.5321
706.53218
706.5322
706.53151
706.53151
706.53146
706.53151
706.53165
706.5319
706.53215
706.53218
706.53225
706.53243
706.53153
706.53159
706.53158
706.53164
706.53179
706.53203
706.53223
706.5322
706.53243
706.53245
737.46101
737.46093
737.46082
737.46062
737.46054
737.46063
737.46081
737.46098
737.46114
737.46121
737.46093
737.46087
737.46068
737.46047
737.46042
737.46053
737.46075
737.46092
737.46112
737.46123
737.46082
737.46068
737.46048
737.46029
737.46026
737.46041
737.46067
737.46086
737.46108
737.46122
737.46062
737.46047
737.46029
737.46012
737.46012
737.46031
737.46062
737.46084
737.46108
737.46125
737.46054
737.46042
737.46026
737.46012
737.46015
737.46037
737.46071
737.46096
737.46123
737.46141
737.46063
737.46053
737.46041
737.46031
737.46037
737.46063
737.46098
737.46124
737.46151
737.46168
737.46081
737.46075
737.46067
737.46062
737.46071
737.46098
737.46135
737.46159
737.46183
737.46195
737.46098
737.46092
737.46086
737.46084
737.46096
737.46124
737.46159
737.4618
737.46198
737.46204
737.46114
737.46112
737.46108
737.46108
737.46123
737.46151
737.46183
737.46198
737.46212
737.46231
737.46121
737.46123
737.46122
737.46125
737.46141
737.46168
737.46195
737.46204
737.46231
737.46236
768.23737
768.23726
768.23714
768.23686
768.23678
768.2369
768.23714
768.23739
768.23761
768.23773
768.23726
768.2372
768.23695
768.23668
768.23663
768.23678
768.23706
768.23732
768.23758
768.23772
768.23714
768.23695
768.23672
768.23646
768.23644
768.23663
768.23696
768.23725
768.23754
768.2377
768.23686
768.23668
768.23646
768.23624
768.23624
768.23647
768.23684
768.23718
768.2375
768.23771
768.23678
768.23663
768.23644
768.23624
768.23628
768.23654
768.23694
768.2373
768.23765
768.23787
768.2369
768.23678
768.23663
768.23647
768.23654
768.23682
768.23724
768.23761
768.23796
768.23817
768.23714
768.23706
768.23696
768.23684
768.23694
768.23724
768.23766
768.23802
768.23834
768.23851
768.23739
768.23732
768.23725
768.23718
768.2373
768.23761
768.23802
768.23835
768.23861
768.23872
768.23761
768.23758
768.23754
768.2375
768.23765
768.23796
768.23834
768.23861
768.23883
768.23902
768.23773
768.23772
768.2377
768.23771
768.23787
768.23817
768.23851
768.23872
768.23902
768.2391
798.61455
798.6144
798.61428
798.61393
798.61385
798.61401
798.61431
798.61463
798.61491
798.61507
798.6144
798.61434
798.61405
798.61372
798.61368
798.61387
798.61421
798.61456
798.61486
798.61502
798.61428
798.61405
798.61378
798.61348
798.61346
798.61369
798.61408
798.61448
798.61482
798.61501
798.61393
798.61372
798.61348
798.6132
798.61321
798.61347
798.6139
798.61435
798.61475
798.61499
798.61385
798.61368
798.61346
798.61321
798.61325
798.61354
798.614
798.61447
798.6149
798.61515
798.61401
798.61387
798.61369
798.61347
798.61354
798.61385
798.61432
798.6148
798.61523
798.61547
798.61431
798.61421
798.61408
798.6139
798.614
798.61432
798.6148
798.61527
798.61567
798.61588
798.61463
798.61456
798.61448
798.61435
798.61447
798.6148
798.61527
798.6157
798.61605
798.6162
798.61491
798.61486
798.61482
798.61475
798.6149
798.61523
798.61567
798.61605
798.61635
798.61654
798.61507
798.61502
798.61501
798.61499
798.61515
798.61547
798.61588
798.6162
798.61654
798.61665
828.35233
828.35215
828.35203
828.35161
828.35154
828.35173
828.35208
828.35248
828.35281
828.35302
828.35215
828.35208
828.35176
828.35138
828.35135
828.35157
828.35196
828.3524
828.35275
828.35294
828.35203
828.35176
828.35146
828.35111
828.35111
828.35137
828.35181
828.35231
828.35272
828.35292
828.35161
828.35138
828.35111
828.35079
828.35081
828.3511
828.35159
828.35213
828.35261
828.35288
828.35154
828.35135
828.35111
828.35081
828.35086
828.35117
828.35168
828.35225
828.35275
828.35303
828.35173
828.35157
828.35137
828.3511
828.35117
828.35151
828.35203
828.35261
828.3531
828.35338
828.35208
828.35196
828.35181
828.35159
828.35168
828.35203
828.35255
828.35312
828.35359
828.35384
828.35248
828.3524
828.35231
828.35213
828.35225
828.35261
828.35312
828.35366
828.35408
828.35427
828.35281
828.35275
828.35272
828.35261
828.35275
828.3531
828.35359
828.35408
828.35445
828.35464
828.35302
828.35294
828.35292
828.35288
828.35303
828.35338
828.35384
828.35427
828.35464
828.35477
857.21889
857.21868
857.21856
857.21808
857.21802
857.21825
857.21865
857.2191
857.21949
857.21974
857.21868
857.21861
857.21826
857.21783
857.21781
857.21807
857.21851
857.21903
857.21941
857.21962
857.21856
857.21826
857.21794
857.21755
857.21756
857.21785
857.21834
857.21893
857.21939
857.21961
857.21808
857.21783
857.21755
857.21718
857.21722
857.21754
857.21807
857.21871
857.21925
857.21954
857.21802
857.21781
857.21756
857.21722
857.21728
857.21761
857.21816
857.21882
857.21938
857.21969
857.21825
857.21807
857.21785
857.21754
857.21761
857.21796
857.21852
857.21919
857.21975
857.22005
857.21865
857.21851
857.21834
857.21807
857.21816
857.21852
857.21908
857.21974
857.22028
857.22056
857.2191
857.21903
857.21893
857.21871
857.21882
857.21919
857.21974
857.22037
857.22087
857.22109
857.21949
857.21941
857.21939
857.21925
857.21938
857.21975
857.22028
857.22087
857.2213
857.22149
857.21974
857.21962
857.21961
857.21954
857.21969
857.22005
857.22056
857.22109
857.22149
857.22164
884.99325
884.99302
884.9929
884.99236
884.99232
884.99258
884.99302
884.99354
884.99396
884.99425
884.99302
884.99294
884.99257
884.9921
884.9921
884.99239
884.99288
884.99346
884.99387
884.9941
884.9929
884.99257
884.99224
884.99181
884.99184
884.99215
884.99269
884.99336
884.99386
884.99409
884.99236
884.9921
884.99181
884.99142
884.99146
884.9918
884.99237
884.99309
884.99368
884.994
884.99232
884.9921
884.99184
884.99146
884.99153
884.99188
884.99246
884.9932
884.99381
884.99415
884.99258
884.99239
884.99215
884.9918
884.99188
884.99224
884.99283
884.99357
884.99418
884.99451
884.99302
884.99288
884.99269
884.99237
884.99246
884.99283
884.99342
884.99415
884.99474
884.99506
884.99354
884.99346
884.99336
884.99309
884.9932
884.99357
884.99415
884.99487
884.99542
884.99568
884.99396
884.99387
884.99386
884.99368
884.99381
884.99418
884.99474
884.99542
884.9959
884.99609
884.99425
884.9941
884.99409
884.994
884.99415
884.99451
884.99506
884.99568
884.99609
884.99627
911.46754
911.46729
911.46718
911.4666
911.46657
911.46686
911.46733
911.4679
911.46835
911.46868
911.46729
911.46722
911.46683
911.46633
911.46635
911.46666
911.46718
911.46782
911.46826
911.4685
911.46718
911.46683
911.46649
911.46604
911.46608
911.46642
911.46699
911.46772
911.46825
911.46849
911.4666
911.46633
911.46604
911.46562
911.46568
911.46603
911.46662
911.46742
911.46805
911.46838
911.46657
911.46635
911.46608
911.46568
911.46575
911.46612
911.46672
911.46752
911.46817
911.46852
911.46686
911.46666
911.46642
911.46603
911.46612
911.46648
911.46708
911.46789
911.46853
911.46888
911.46733
911.46718
911.46699
911.46662
911.46672
911.46708
911.46768
911.46848
911.46912
911.46945
911.4679
911.46782
911.46772
911.46742
911.46752
911.46789
911.46848
911.46926
911.46986
911.47015
911.46835
911.46826
911.46825
911.46805
911.46817
911.46853
911.46912
911.46986
911.47039
911.47056
911.46868
911.4685
911.46849
911.46838
911.46852
911.46888
911.46945
911.47015
911.47056
911.47076
936.44903
936.44876
936.44867
936.44805
936.44804
936.44835
936.44885
936.44945
936.44993
936.45029
936.44876
936.4487
936.4483
936.44778
936.44782
936.44815
936.4487
936.44938
936.44983
936.45008
936.44867
936.4483
936.44796
936.44749
936.44755
936.44791
936.4485
936.44928
936.44984
936.45007
936.44805
936.44778
936.44749
936.44705
936.44713
936.44749
936.4481
936.44894
936.4496
936.44994
936.44804
936.44782
936.44755
936.44713
936.44721
936.44758
936.44818
936.44903
936.44971
936.45006
936.44835
936.44815
936.44791
936.44749
936.44758
936.44794
936.44855
936.44939
936.45006
936.45041
936.44885
936.4487
936.4485
936.4481
936.44818
936.44855
936.44915
936.44999
936.45065
936.45099
936.44945
936.44938
936.44928
936.44894
936.44903
936.44939
936.44999
936.45082
936.45145
936.45176
936.44993
936.44983
936.44984
936.4496
936.44971
936.45006
936.45065
936.45145
936.45201
936.45217
936.45029
936.45008
936.45007
936.44994
936.45006
936.45041
936.45099
936.45176
936.45217
936.45238
959.76186
959.76158
959.7615
959.76086
959.76087
959.7612
959.76172
959.76233
959.76283
959.7632
959.76158
959.76153
959.76113
959.7606
959.76066
959.761
959.76156
959.76227
959.76272
959.76297
959.7615
959.76113
959.7608
959.76032
959.7604
959.76076
959.76136
959.76218
959.76274
959.76296
959.76086
959.7606
959.76032
959.75987
959.75996
959.76033
959.76093
959.76181
959.76248
959.76282
959.76087
959.76066
959.7604
959.75996
959.76006
959.76041
959.76101
959.76189
959.76257
959.76292
959.7612
959.761
959.76076
959.76033
959.76041
959.76077
959.76136
959.76223
959.7629
959.76325
959.76172
959.76156
959.76136
959.76093
959.76101
959.76136
959.76194
959.76281
959.76348
959.76383
959.76233
959.76227
959.76218
959.76181
959.76189
959.76223
959.76281
959.76367
959.76432
959.76464
959.76283
959.76272
959.76274
959.76248
959.76257
959.7629
959.76348
959.76432
959.7649
959.76504
959.7632
959.76297
959.76296
959.76282
959.76292
959.76325
959.76383
959.76464
959.76504
959.76525
981.24849
981.2482
981.24816
981.2475
981.24753
981.24787
981.24838
981.24901
981.2495
981.24989
981.2482
981.24817
981.24779
981.24725
981.24732
981.24768
981.24823
981.24896
981.2494
981.24964
981.24816
981.24779
981.24748
981.24699
981.24709
981.24745
981.24804
981.24888
981.24943
981.24964
981.2475
981.24725
981.24699
981.24654
981.24664
981.247
981.24758
981.24848
981.24915
981.24947
981.24753
981.24732
981.24709
981.24664
981.24674
981.24708
981.24765
981.24854
981.24921
981.24955
981.24787
981.24768
981.24745
981.247
981.24708
981.24741
981.24797
981.24884
981.24951
981.24984
981.24838
981.24823
981.24804
981.24758
981.24765
981.24797
981.24852
981.24939
981.25006
981.2504
981.24901
981.24896
981.24888
981.24848
981.24854
981.24884
981.24939
981.25027
981.25093
981.25124
981.2495
981.2494
981.24943
981.24915
981.24921
981.24951
981.25006
981.25093
981.25151
981.25161
981.24989
981.24964
981.24964
981.24947
981.24955
981.24984
981.2504
981.25124
981.25161
981.25182
1000.7708
1000.7705
1000.7705
1000.7698
1000.7699
1000.7702
1000.7707
1000.7714
1000.7718
1000.7722
1000.7705
1000.7705
1000.7701
1000.7696
1000.7697
1000.7701
1000.7706
1000.7713
1000.7717
1000.772
1000.7705
1000.7701
1000.7699
1000.7694
1000.7695
1000.7698
1000.7704
1000.7713
1000.7718
1000.772
1000.7698
1000.7696
1000.7694
1000.7689
1000.769
1000.7694
1000.7699
1000.7708
1000.7715
1000.7718
1000.7699
1000.7697
1000.7695
1000.769
1000.7691
1000.7695
1000.77
1000.7709
1000.7715
1000.7718
1000.7702
1000.7701
1000.7698
1000.7694
1000.7695
1000.7698
1000.7703
1000.7711
1000.7718
1000.7721
1000.7707
1000.7706
1000.7704
1000.7699
1000.77
1000.7703
1000.7708
1000.7716
1000.7723
1000.7726
1000.7714
1000.7713
1000.7713
1000.7708
1000.7709
1000.7711
1000.7716
1000.7725
1000.7731
1000.7734
1000.7718
1000.7717
1000.7718
1000.7715
1000.7715
1000.7718
1000.7723
1000.7731
1000.7737
1000.7738
1000.7722
1000.772
1000.772
1000.7718
1000.7718
1000.7721
1000.7726
1000.7734
1000.7738
1000.774
1018.2109
1018.2106
1018.2106
1018.21
1018.21
1018.2104
1018.2109
1018.2114
1018.2119
1018.2123
1018.2106
1018.2106
1018.2103
1018.2098
1018.2099
1018.2102
1018.2107
1018.2114
1018.2118
1018.212
1018.2106
1018.2103
1018.21
1018.2096
1018.2097
1018.21
1018.2106
1018.2114
1018.2119
1018.212
1018.21
1018.2098
1018.2096
1018.2091
1018.2093
1018.2096
1018.2101
1018.2109
1018.2115
1018.2118
1018.21