/*--------------------------------*- C++ -*----------------------------------*\
| =========                 |                                                 |
| \\      /  F ield         | OpenFOAM: The Open Source CFD Toolbox           |
|  \\    /   O peration     | Version:  v2106                                 |
|   \\  /    A nd           | Website:  www.openfoam.com                      |
|    \\/     M anipulation  |                                                 |
\*---------------------------------------------------------------------------*/
FoamFile
{
    version     2.0;
    format      ascii;
    arch        "LSB;label=32;scalar=64";
    class       volScalarField;
    location    "15";
    object      gradTx;
}
// * * * * * * * * * * * * * * * * * * * * * * * * * * * * * * * * * * * * * //

dimensions      [0 -1 0 1 0 0 0];

internalField   nonuniform List<scalar> 
4000
(
-1.395036e-05
-0.00023690984
0.00014817001
0.00040703755
6.1306849e-06
-8.8974835e-05
-0.00010754769
-0.00010301369
-7.5524326e-05
-1.8557368e-05
-0.00020345588
-0.00016071478
0.0004316747
0.0003023432
-2.8053336e-05
-9.9593482e-05
-0.00011778121
-0.00010625163
-4.3716009e-05
7.7134246e-07
3.6846345e-05
0.00013453119
0.0003334197
0.00026022212
-4.006634e-05
-0.00010914381
-0.00014257218
-0.00014794053
-5.7665876e-05
7.1439099e-06
-1.445275e-05
2.4534924e-05
0.00028909278
0.00024666045
-4.1502213e-05
-0.00010886122
-0.00015431344
-0.00019423889
-0.00014569339
-2.8127099e-05
-3.2949891e-05
-1.228425e-05
0.00027773695
0.0002453598
-3.7597838e-05
-0.00010119383
-0.00014368319
-0.0001837162
-0.00013872583
-2.657351e-05
-3.7242107e-05
-2.1662123e-05
0.00027564391
0.00024912896
-3.1480889e-05
-9.4301441e-05
-0.00013547704
-0.00017403553
-0.00012837161
-2.3119105e-05
-4.0028988e-05
-3.245322e-05
0.00026846922
0.00025330978
-2.3038058e-05
-8.7954817e-05
-0.00013075532
-0.00017024554
-0.00012543797
-2.2307872e-05
-4.4064448e-05
-5.6686599e-05
0.00023911168
0.00024801794
-1.2644495e-05
-8.1373562e-05
-0.00012806773
-0.00016966909
-0.00012593975
-2.2617106e-05
-4.2187607e-05
-7.7380059e-05
0.00018048196
0.00021753412
-2.8347078e-06
-7.4484165e-05
-0.00012638887
-0.00016941252
-0.00012402474
-2.1536761e-05
-2.2858899e-05
-3.8828145e-05
0.0001371343
0.00016695799
4.677284e-06
-6.8085703e-05
-0.00012563587
-0.00016825586
-0.00011585877
-1.7173126e-05
-4.9321676e-05
-0.00055986214
0.00085852374
0.0015564436
5.8471324e-05
-0.00040336106
-0.00052499819
-0.00051518687
-0.00039973431
-0.00010650228
-0.00037427817
-9.321605e-05
0.0015784462
0.0012277098
-6.1784445e-05
-0.00045153784
-0.00057857935
-0.00051242459
-0.00023786703
-2.1155464e-05
0.00026177572
0.00072841093
0.0013353364
0.0010782823
-0.00011556232
-0.00050119671
-0.00070622291
-0.00070392645
-0.00027678334
1.8574228e-05
0.00010567014
0.00038359665
0.0011769304
0.0010184607
-0.00012442496
-0.0005022585
-0.00076843446
-0.00092153822
-0.00064667753
-0.00012157463
4.2619896e-05
0.00025024971
0.0011260873
0.0010101348
-0.00010690032
-0.00046673896
-0.00072409412
-0.00088947516
-0.00064200504
-0.00012476849
2.549963e-05
0.00020956301
0.0011142899
0.0010271227
-7.7535273e-05
-0.00043327088
-0.00068560693
-0.00084753502
-0.00060175104
-0.00011215581
1.0502031e-05
0.00015241405
0.0010753666
0.0010445925
-3.7912687e-05
-0.00040260702
-0.00066318067
-0.00083054809
-0.00059045905
-0.00010952281
-1.0221138e-05
2.8338284e-05
0.00092443475
0.0010092515
5.2922554e-06
-0.00037235743
-0.00065091957
-0.00082809194
-0.00059260933
-0.00011084932
1.2343558e-05
-3.6325523e-05
0.000666253
0.00085904384
3.6090515e-05
-0.00034367995
-0.00064373761
-0.00082372294
-0.00057098069
-9.9449913e-05
9.7690378e-05
0.00015128925
0.00051562425
0.00064402976
5.0218745e-05
-0.00032081143
-0.00064177786
-0.0008086136
-0.00049844296
-6.2490833e-05
0.00017178819
-4.9985007e-05
0.0016617667
0.0022880185
5.3516189e-05
-0.00071668302
-0.00096525639
-0.00094598495
-0.00082063949
-0.00025886419
-0.00034915943
0.00034928956
0.0025210416
0.0018354689
-0.00011586552
-0.00080409785
-0.0010918934
-0.00090288634
-0.00039393163
-5.4774853e-05
0.00043797123
0.0013588637
0.0021945394
0.0016244709
-0.00019181358
-0.00088628205
-0.0013453317
-0.001302946
-0.00053021539
-6.6473194e-06
0.00022369054
0.00088206226
0.0019686767
0.0015373399
-0.00019843926
-0.0008765268
-0.0014384763
-0.0016495185
-0.0010943484
-0.00021360558
0.00013627146
0.00069531607
0.0018964104
0.0015287534
-0.00016517724
-0.00081281476
-0.0013635792
-0.0016027524
-0.0010957652
-0.00022147084
0.0001107694
0.00063673249
0.0018861029
0.0015639763
-0.00011229666
-0.00075423965
-0.0012991048
-0.0015372731
-0.0010385174
-0.00020457193
7.7994904e-05
0.00052571703
0.0018239815
0.0016022207
-4.2890076e-05
-0.00070226661
-0.0012637978
-0.0015145959
-0.0010305896
-0.00020491926
2.6344738e-05
0.00025665717
0.00153952
0.0015457288
2.7074856e-05
-0.00065445828
-0.0012478433
-0.0015142556
-0.0010346361
-0.00020669299
0.00010672731
0.00016875597
0.0010773493
0.0013024143
6.9355309e-05
-0.0006141101
-0.0012407804
-0.0014944698
-0.00094458956
-0.00016077642
0.00031081665
0.00054708128
0.00083910325
0.00098017897
8.2905791e-05
-0.00058928271
-0.001243962
-0.0014282556
-0.00079122725
-0.00010445144
0.00036232524
0.00035852369
0.0022944836
0.0028729228
1.2830168e-05
-0.0010488604
-0.0014501947
-0.0013669799
-0.0011719398
-0.0003912927
-0.00029709509
0.00073689015
0.0032678497
0.0023215138
-0.00018976862
-0.001175544
-0.001695363
-0.0013641285
-0.00054687225
-8.568544e-05
0.00061456955
0.001894886
0.0028682404
0.0020663986
-0.00027354064
-0.0012747416
-0.0020592691
-0.0019438248
-0.00073183375
-1.1511303e-05
0.0003518157
0.001310647
0.0025920667
0.0019634065
-0.000270552
-0.0012482019
-0.0021788929
-0.0024083063
-0.0014617597
-0.00027263976
0.00024696355
0.0010883618
0.0025101331
0.0019611238
-0.0002182251
-0.0011553211
-0.0020760575
-0.0023525954
-0.0014743443
-0.00028641171
0.00021674985
0.0010242761
0.0025112833
0.0020187221
-0.00014082378
-0.001072889
-0.0019898344
-0.0022715899
-0.0014113293
-0.0002693992
0.00016250787
0.00086248059
0.0024374752
0.0020805443
-4.2912202e-05
-0.0010030879
-0.0019476481
-0.0022520162
-0.0014185706
-0.0002772098
5.3304339e-05
0.00041520171
0.0020277533
0.0020019337
4.8234729e-05
-0.00094447952
-0.0019353772
-0.0022571188
-0.0014166979
-0.00027444507
0.00016440879
0.00028563568
0.0013932974
0.0016717737
9.3804195e-05
-0.00090250871
-0.0019331769
-0.0021947689
-0.0011574715
-0.00014471031
0.00047001604
0.00085530776
0.0011128659
0.0012594231
9.8665054e-05
-0.00088870584
-0.0019407458
-0.0019960197
-0.00099266987
-0.0001645773
0.00048053441
0.00059821777
0.0028111508
0.0033844081
-4.7691258e-05
-0.0013955178
-0.0019959457
-0.0018870398
-0.0015704804
-0.00052148873
-0.00028413718
0.0010032242
0.0039028457
0.0027460563
-0.00027147228
-0.0015454351
-0.00234525
-0.0019159004
-0.00076209342
-0.00012674719
0.00075053871
0.0023110766
0.003438776
0.0024557842
-0.00035522368
-0.0016531711
-0.0028102895
-0.0026572864
-0.00097702512
-2.2905035e-05
0.0004436594
0.0016308494
0.0031212981
0.0023439554
-0.00033754951
-0.0016061805
-0.0029544619
-0.0032347576
-0.0018616132
-0.00033380268
0.00032497085
0.0013824528
0.0030366751
0.0023527962
-0.00026333526
-0.0014832492
-0.0028255137
-0.0031739016
-0.001888705
-0.00035434716
0.00029447205
0.0013233169
0.0030552209
0.0024358438
-0.00016047324
-0.0013780558
-0.0027212831
-0.0030841229
-0.0018287266
-0.00034035733
0.00022502597
0.0011247994
0.0029759297
0.0025227181
-3.5210566e-05
-0.0012938843
-0.0026788077
-0.0030781009
-0.0018651281
-0.00036080674
6.1602497e-05
0.00050897312
0.002446009
0.0024206196
7.2705557e-05
-0.0012313499
-0.002680718
-0.0031008028
-0.0018635585
-0.00035373211
0.00020578559
0.00035455281
0.0016570724
0.0020061029
0.00011542418
-0.0011980836
-0.0026954877
-0.0029874454
-0.0013469789
-9.0945521e-05
0.00060052712
0.0011024284
0.0013464892
0.0015089397
0.0001055922
-0.001207773
-0.0027155499
-0.0025826535
-0.0011421432
-0.00021717499
0.00057096781
0.00077011281
0.0032657765
0.0038493688
-0.00011440096
-0.0017296228
-0.0025375573
-0.0024274581
-0.0019802062
-0.0006482247
-0.0002867089
0.0012138912
0.0044733272
0.0031305875
-0.00035362726
-0.0018951327
-0.0029817075
-0.002480526
-0.00099446589
-0.00017023788
0.00086682004
0.0026682292
0.0039508053
0.0028107658
-0.00043265407
-0.0020065303
-0.0035421868
-0.0033746174
-0.001234428
-3.7387221e-05
0.0005183249
0.0018989199
0.0035977976
0.0026947433
-0.00039677493
-0.0019363952
-0.0037087549
-0.0040607639
-0.0022670307
-0.00039585305
0.0003876325
0.0016296262
0.003514961
0.0027181149
-0.00029851074
-0.001782578
-0.0035544793
-0.0039965013
-0.0023101467
-0.00042359245
0.0003588407
0.0015806668
0.00355465
0.0028288866
-0.00016935182
-0.0016552695
-0.0034346938
-0.0039022837
-0.0022586813
-0.00041454412
0.0002772926
0.0013527187
0.0034736985
0.0029420671
-1.7384997e-05
-0.0015591263
-0.0033966893
-0.0039176858
-0.002335307
-0.00045181181
6.2740599e-05
0.00057603742
0.0028276026
0.0028165941
0.00010470922
-0.0014974794
-0.0034212022
-0.0039710364
-0.0023499468
-0.00044589462
0.00024191398
0.00040555934
0.0018934605
0.0023201833
0.00014109522
-0.0014803107
-0.0034654419
-0.0038176263
-0.0015526254
-3.2297508e-05
0.0007199008
0.0013218156
0.0015550378
0.0017408754
0.00011305861
-0.0015226398
-0.0035124677
-0.0031883548
-0.0012838162
-0.00026668847
0.00065192864
0.000916765
0.0036789969
0.0042753855
-0.00018404079
-0.0020445911
-0.0030530233
-0.0029519829
-0.0023804928
-0.00077082902
-0.00029245399
0.0013986936
0.0049951457
0.0034808873
-0.00043513057
-0.0022213728
-0.0035861047
-0.0030264312
-0.0012237905
-0.00021355868
0.00097321435
0.0029911717
0.0044181848
0.0031355406
-0.00050608426
-0.0023325944
-0.0042363199
-0.0040660687
-0.0014867474
-5.2796303e-05
0.00058497855
0.0021378814
0.0040338198
0.0030186623
-0.00044938491
-0.0022369688
-0.0044222573
-0.0048554533
-0.002660469
-0.0004566302
0.00044354888
0.0018513268
0.0039559598
0.0030590734
-0.00032538089
-0.0020514114
-0.0042425767
-0.0047879243
-0.0027195198
-0.00049150578
0.00041758537
0.001815838
0.0040195654
0.0031993657
-0.00016914364
-0.0019022199
-0.0041085679
-0.0046915723
-0.0026792937
-0.00048831546
0.00032569446
0.0015633235
0.0039403638
0.0033402563
9.368037e-06
-0.0017955022
-0.004077877
-0.0047329374
-0.0028021761
-0.0005446132
6.2197735e-05
0.00063254137
0.0031834128
0.0031931089
0.00014454577
-0.0017375202
-0.0041300268
-0.0048251669
-0.0028445116
-0.00054416419
0.00027606225
0.00044923773
0.0021113416
0.0026184007
0.00017324899
-0.0017405154
-0.0042114716
-0.0046426918
-0.0017692869
2.2329519e-05
0.0008333326
0.0015262868
0.0017467343
0.0019603365
0.00012572109
-0.0018201765
-0.0042952447
-0.0037922777
-0.0014289678
-0.00031728477
0.00072738448
0.0010486935
0.0040555077
0.0046629776
-0.00025590036
-0.0023386454
-0.0035355168
-0.0034476144
-0.0027623202
-0.00088837613
-0.00029828834
0.0015647408
0.0054707733
0.0037971185
-0.00051583951
-0.0025230862
-0.0041517891
-0.0035413926
-0.0014414286
-0.000255398
0.001071416
0.0032844387
0.0048425555
0.0034296004
-0.00057595575
-0.0026305051
-0.004885154
-0.0047186424
-0.0017252185
-6.7693545e-05
0.00064522209
0.0023517886
0.0044303042
0.0033145437
-0.00049630445
-0.0025071505
-0.0050866479
-0.0056044312
-0.0030317779
-0.00051422904
0.0004941767
0.0020510615
0.0043599807
0.0033740025
-0.00034514001
-0.0022889486
-0.0048808976
-0.0055327095
-0.0031055343
-0.00055582135
0.00047192933
0.0020317332
0.0044498392
0.0035453595
-0.00016103712
-0.0021177789
-0.0047332299
-0.0054352665
-0.0030777016
-0.00055885518
0.00037121619
0.0017592019
0.0043759164
0.003715559
4.4231612e-05
-0.0020011727
-0.0047114456
-0.0055050867
-0.0032498415
-0.0006352109
6.1081081e-05
0.00068209596
0.0035149805
0.0035496159
0.00019238082
-0.0019483269
-0.004794145
-0.0056411138
-0.0033269882
-0.00064294757
0.00030869739
0.00048817383
0.0023128777
0.0029014919
0.00021339634
-0.0019735498
-0.0049172929
-0.0054379501
-0.0019842631
7.3065599e-05
0.00094167553
0.0017191977
0.0019246311
0.0021693001
0.00014645714
-0.0020926341
-0.0050434315
-0.0043755354
-0.0015733039
-0.00036897477
0.00079755857
0.0011672435
0.0043946266
0.0050104356
-0.00032940926
-0.0026098721
-0.0039807123
-0.0039074908
-0.0031197503
-0.00099948245
-0.00030373191
0.0017123589
0.0058983101
0.0040777582
-0.00059527051
-0.0027983962
-0.0046738826
-0.0040182898
-0.0016418711
-0.00029449537
0.0011609689
0.0035468631
0.0052218652
0.0036912283
-0.00064201973
-0.0028983609
-0.0054829312
-0.0053239804
-0.0019437468
-8.0752926e-05
0.00069872381
0.0025395975
0.0047849948
0.0035803838
-0.00053752626
-0.0027450644
-0.0056955879
-0.0062981185
-0.0033734615
-0.0005668623
0.00053918395
0.0022276558
0.0047244907
0.0036606473
-0.0003579164
-0.0024932657
-0.0054627413
-0.0062206048
-0.0034599485
-0.00061451476
0.00052148297
0.0022269871
0.0048427391
0.0038644871
-0.00014512491
-0.0022997738
-0.0053014675
-0.0061223486
-0.0034448005
-0.00062385408
0.00041350121
0.0019391669
0.0047778225
0.0040657425
8.7374181e-05
-0.0021734622
-0.0052893643
-0.0062219236
-0.0036676374
-0.00072071796
5.9369434e-05
0.00072476812
0.0038210337
0.003884677
0.00024899543
-0.0021263969
-0.005404274
-0.0064048814
-0.0037844006
-0.00073850536
0.00033963516
0.00052267734
0.0024979938
0.0031691181
0.00026314412
-0.002174781
-0.0055718972
-0.0061878208
-0.0021869514
0.00012169895
0.0010446222
0.0019007716
0.0020894434
0.0023684753
0.00017765646
-0.0023340858
-0.0057438741
-0.0049241954
-0.0017094633
-0.00042017994
0.00086188786
0.001271553
0.0046941429
0.0053155358
-0.00040370416
-0.0028557387
-0.0043843229
-0.0043262451
-0.0034479862
-0.0011027623
-0.00030888211
0.0018402186
0.0062746918
0.0043209723
-0.00067249844
-0.0030446589
-0.0051474634
-0.0044514095
-0.0018209316
-0.00032976487
0.0012409982
0.0037760437
0.005553215
0.0039186268
-0.0007034318
-0.0031334324
-0.0060239614
-0.005875192
-0.0021376431
-9.0913391e-05
0.00074481721
0.0026992908
0.0050950393
0.0038142936
-0.0005723293
-0.0029479944
-0.006242968
-0.0069286208
-0.0036796158
-0.0006130782
0.00057795593
0.0023791347
0.0050465364
0.0039169979
-0.00036306501
-0.0026616309
-0.0059818039
-0.0068433105
-0.0037763847
-0.00066598305
0.00056562102
0.0023995631
0.0051952084
0.0041546604
-0.00012073794
-0.0024453107
-0.0058066579
-0.0067440623
-0.003773724
-0.00068155364
0.00045200916
0.0021014411
0.0051432009
0.0043887994
0.00013961867
-0.0023091437
-0.0058044747
-0.006873966
-0.0040478424
-0.00079907636
5.6860658e-05
0.00075992457
0.0040997039
0.004196818
0.00031557213
-0.0022679815
-0.0059524838
-0.0071060027
-0.0042079305
-0.00082840377
0.00036856624
0.00055249421
0.0026659896
0.0034206808
0.00032417714
-0.0023397991
-0.0061664151
-0.0068811274
-0.0023698695
0.00016965534
0.0011415637
0.0020702676
0.0022410196
0.0025580764
0.00022146398
-0.0025394391
-0.0063866903
-0.0054280299
-0.0018311597
-0.00046926394
0.00091964211
0.0013602257
0.0049515251
0.005576116
-0.00047763097
-0.0030733369
-0.0047419233
-0.0046989614
-0.0037428176
-0.0011969513
-0.00031398118
0.0019466146
0.00659671
0.0045250676
-0.00074626552
-0.0032588358
-0.0055674957
-0.0048355403
-0.0019751209
-0.0003603
0.001310568
0.0039694113
0.0058337074
0.0041102413
-0.00075895942
-0.003332598
-0.0065025328
-0.0063660054
-0.0023030339
-9.7343883e-05
0.0007828088
0.0028287969
0.0053577014
0.0040147141
-0.00059956405
-0.0031128565
-0.006722774
-0.0074888304
-0.0039453186
-0.00065171078
0.00060986915
0.0025035366
0.0053233539
0.0041414233
-0.00035950512
-0.0027909945
-0.0064320007
-0.0073934904
-0.0040496191
-0.00070896161
0.0006037191
0.0025474684
0.0055044029
0.0044141684
-8.6809681e-05
-0.0025512625
-0.0062425403
-0.0072928077
-0.0040589591
-0.00073059616
0.00048620322
0.0022442755
0.0054693331
0.0046830268
0.00020208894
-0.0024048901
-0.0062501684
-0.0074531437
-0.0043844023
-0.00086874152
5.3337457e-05
0.00078685893
0.0043491246
0.0044847005
0.00039342408
-0.0023694302
-0.0064316617
-0.0077358052
-0.0045909671
-0.00091093199
0.00039515064
0.0005772315
0.002816043
0.0036555419
0.00039811166
-0.0024645435
-0.0066931659
-0.0075089418
-0.0025276788
0.00021783184
0.001231802
0.0022266426
0.0023789269
0.0027381153
0.00027978359
-0.0027042133
-0.0069636697
-0.0058790817
-0.0019336281
-0.00051489819
0.00097004416
0.0014317305
0.0051643261
0.0057902991
-0.00054979341
-0.0032595993
-0.0050490868
-0.0050209615
-0.0040003597
-0.0012808776
-0.00031933459
0.0020297913
0.0068613733
0.0046886658
-0.00081507123
-0.0034377508
-0.0059289845
-0.005165756
-0.0021013138
-0.00038529896
0.0013687514
0.0041244986
0.0060607294
0.004264867
-0.00080712336
-0.0034926336
-0.0069130561
-0.0067905348
-0.0024364927
-9.934184e-05
0.00081203022
0.0029261946
0.0055705738
0.0041804613
-0.00061783972
-0.003236511
-0.0071292124
-0.0079721572
-0.0041662247
-0.00068176365
0.00063432921
0.0025990664
0.0055525249
0.0043326697
-0.00034593922
-0.0028783097
-0.0068075656
-0.0078644482
-0.0042751177
-0.0007423881
0.00063517834
0.0026688647
0.0057678053
0.0046416455
-4.2108573e-05
-0.0026145827
-0.0066032781
-0.0077617474
-0.0042957927
-0.00076985768
0.00051556153
0.0023660321
0.0057537647
0.0049469936
0.00027598906
-0.0024575569
-0.0066203844
-0.0079522899
-0.0046722024
-0.00092844645
4.8579899e-05
0.00080489539
0.0045675773
0.0047471359
0.00048382573
-0.0024274015
-0.0068353899
-0.0082866965
-0.0049280514
-0.00098473448
0.00041903189
0.00059645887
0.0029473635
0.0038730802
0.00048639878
-0.0025453987
-0.0071453334
-0.0080636151
-0.002656265
0.0002667909
0.0013146105
0.0023687625
0.0025026665
0.0029085108
0.00035425773
-0.0028244862
-0.0074676486
-0.0062707591
-0.0020131803
-0.00055601129
0.001012305
0.0014845357
0.0053303685
0.0059566168
-0.0006185852
-0.0034114399
-0.0053015244
-0.0052878022
-0.0042169498
-0.0013534292
-0.00032528869
0.0020880682
0.0070660891
0.0048108021
-0.00087722519
-0.0035782493
-0.0062271261
-0.0054374039
-0.0021966057
-0.0004040119
0.00141466
0.0042390576
0.0062320984
0.0043817131
-0.00084627889
-0.0036103908
-0.0072502201
-0.0071432627
-0.0025348735
-9.626746e-05
0.00083185839
0.0029897981
0.0057316848
0.0043107558
-0.00062563105
-0.0033159535
-0.0074568611
-0.0083724984
-0.0043383869
-0.00070233912
0.00065078358
0.0026641539
0.0057320521
0.0044898626
-0.00032097705
-0.002920728
-0.0071031885
-0.0082500704
-0.0044488273
-0.0007653223
0.00065943173
0.0027621044
0.005983279
0.0048360576
1.4632323e-05
-0.002632493
-0.0068835714
-0.0081447093
-0.004480058
-0.00079835347
0.00053957729
0.002465203
0.0059943479
0.0051795253
0.00036248338
-0.0024643457
-0.006909679
-0.0083649798
-0.0049067337
-0.0009770789
4.2363979e-05
0.00081340872
0.0047535439
0.0049830892
0.00058792203
-0.0024389836
-0.0071579483
-0.0087519004
-0.0052143966
-0.0010486313
0.00043984279
0.00060974247
0.0030592535
0.0040727176
0.00059027242
-0.002579255
-0.0075168701
-0.0085383817
-0.0027522179
0.00031691921
0.0013892601
0.002495485
0.0026117627
0.0030691354
0.00044625089
-0.0028968899
-0.0078922869
-0.0065973846
-0.0020667988
-0.0005916853
0.0010456484
0.0015171928
0.00544787
0.0060741019
-0.00068221269
-0.0035258569
-0.0054952117
-0.0054953468
-0.0043891484
-0.0014135473
-0.00033221415
0.0021199286
0.0072087977
0.0048910018
-0.00093088268
-0.0036773141
-0.0064574496
-0.0056461776
-0.002258291
-0.00041572375
0.0014474723
0.0043111575
0.0063461759
0.0044604592
-0.00087466761
-0.0036829266
-0.0075091453
-0.0074191215
-0.0025952839
-8.752069e-05
0.00084173759
0.0030182344
0.0058395912
0.0044052601
-0.00062134468
-0.0033484538
-0.0077008274
-0.008684323
-0.0044582321
-0.00071261622
0.00065873894
0.0026975148
0.0058604342
0.0046125292
-0.00028321107
-0.0029157394
-0.0073141653
-0.0085448976
-0.0045671401
-0.00077692065
0.00067595761
0.0028257795
0.0061491292
0.0049967166
8.4638438e-05
-0.0026026161
-0.0070787915
-0.0084362352
-0.0046080767
-0.00081520597
0.00055776752
0.0025404452
0.0061892944
0.0053797165
0.00046262666
-0.0024229212
-0.0071133345
-0.0086855443
-0.0050839971
-0.0010136369
3.4465684e-05
0.00081184596
0.0049057514
0.0051916966
0.00070667442
-0.0024017853
-0.0073943836
-0.0091254171
-0.0054457239
-0.0011015488
0.00045721371
0.00061667054
0.003151149
0.0042539403
0.00071071447
-0.0025635679
-0.0078025165
-0.0089272471
-0.0028126073
0.00036850962
0.0014550373
0.0026057105
0.0027058103
0.0032198404
0.00055682985
-0.0029186423
-0.0082320307
-0.0068540273
-0.0020919198
-0.00062109051
0.0010693362
0.0015284138
0.0055155507
0.0061423661
-0.00073871917
-0.0036000289
-0.0056265198
-0.0056398771
-0.0045138016
-0.0014602396
-0.00034048708
0.0021241059
0.0072880901
0.0049293461
-0.00097407836
-0.003732172
-0.0066159635
-0.0057882342
-0.0022839128
-0.0004197607
0.0014664643
0.0043392831
0.0064019728
0.0045013077
-0.00089046177
-0.0037076208
-0.0076855462
-0.0076136272
-0.0026151365
-7.2545279e-05
0.00084120589
0.003010528
0.0058934691
0.0044641191
-0.00060337167
-0.0033316792
-0.0078569167
-0.0089028165
-0.0045226264
-0.00071185887
0.00065778428
0.0026982247
0.0059367458
0.0047006308
-0.00023127355
-0.0028612952
-0.0074365641
-0.008744265
-0.0046269549
-0.00077644377
0.00068429976
0.0028587854
0.0062641758
0.0051233073
0.00016903646
-0.0025230941
-0.0071851368
-0.0086317091
-0.0046767094
-0.0008196492
0.0005696889
0.0025906328
0.0063372386
0.0055469564
0.00057731155
-0.0023315197
-0.0072274995
-0.008909179
-0.0052005351
-0.0010372276
2.467058e-05
0.00079975898
0.0050232226
0.0053722894
0.00084081637
-0.0023140294
-0.0075406273
-0.0094021013
-0.0056182589
-0.0011425059
0.00047078415
0.00061688258
0.0032226563
0.0044163186
0.00084841888
-0.0024964338
-0.0079978917
-0.009225025
-0.0028349287
0.00042179235
0.001511263
0.0026984241
0.002784509
0.0033604709
0.00068673339
-0.0028876096
-0.0084821768
-0.007036495
-0.0020863604
-0.00064346036
0.0010826971
0.0015171517
0.0055327308
0.0061616642
-0.00078601751
-0.0036314142
-0.005692356
-0.0057182284
-0.0045881375
-0.0014926052
-0.00035046624
0.0020996722
0.0073033172
0.0049265244
-0.0010047664
-0.0037404031
-0.0066993128
-0.0058603399
-0.0022713509
-0.00041551065
0.0014710442
0.0043224355
0.006399247
0.0045050274
-0.00089181128
-0.0036822939
-0.0077759049
-0.0077230444
-0.0025922446
-5.0848091e-05
0.00082992466
0.0029661884
0.005893202
0.0044879966
-0.00057013992
-0.0032638164
-0.0079218141
-0.0090240596
-0.0045289866
-0.00069944041
0.00064761759
0.0026657986
0.0059607192
0.0047545937
-0.00016389133
-0.0027559309
-0.0074674052
-0.0088444805
-0.0046257903
-0.00076328143
0.00068409203
0.0028603946
0.0063278285
0.0052159165
0.00026880007
-0.0023927076
-0.0071998077
-0.0087275292
-0.0046834633
-0.00081105253
0.00057495837
0.002614919
0.0064373059
0.0056809566
0.00070721744
-0.0021890608
-0.0072493536
-0.0090321043
-0.0052535291
-0.0010470882
1.2787475e-05
0.00077684566
0.0051053273
0.0055244163
0.00099080644
-0.002174656
-0.0075936484
-0.0095778063
-0.0057288085
-0.0011706277
0.00048021737
0.00061010302
0.0032735863
0.0045595206
0.0010037479
-0.0023766847
-0.0080996307
-0.0094274537
-0.0028171363
0.00047693862
0.0015573119
0.0027727386
0.0028476916
0.0034908705
0.00083632969
-0.0028023948
-0.0086389936
-0.0071414135
-0.0020483337
-0.00065809265
0.0010851579
0.0014826852
0.0054994215
0.0061329425
-0.00082193439
-0.0036178597
-0.0056903151
-0.0057279434
-0.004609885
-0.0015098672
-0.0003624664
0.0020461305
0.0072546863
0.0048838729
-0.001020871
-0.0037000566
-0.006704946
-0.005860033
-0.0022189335
-0.0004024518
0.0014607881
0.0042602333
0.006338591
0.0044729841
-0.00087689906
-0.0036053294
-0.0077776544
-0.0077445702
-0.0025249432
-2.202753e-05
0.00080771011
0.0028853001
0.0058394601
0.0044781003
-0.00052017226
-0.0031436967
-0.0078932736
-0.009045227
-0.0044754189
-0.00067487746
0.00062807502
0.0026002749
0.0059328184
0.0047753318
-7.9944937e-05
-0.00259889
-0.0074048493
-0.008843024
-0.004561925
-0.00073698733
0.00067508572
0.0028303354
0.0063401588
0.0052750544
0.00038469193
-0.0022109972
-0.007121191
-0.0087213027
-0.0046266305
-0.00078895478
0.00057327704
0.0026128051
0.0064891783
0.0057817712
0.00085275458
-0.0019952655
-0.0071772875
-0.0090517554
-0.0052409334
-0.0010426186
-1.3349129e-06
0.00074299614
0.0051518313
0.0056478595
0.0011567744
-0.0019834354
-0.0075516256
-0.009649563
-0.0057748815
-0.001185174
0.00048521731
0.0005961784
0.0033039844
0.0046833174
0.0011766789
-0.0022039969
-0.0081055478
-0.0095313561
-0.0027577248
0.00053404917
0.0015926327
0.0028279379
0.0028953459
0.0036108777
0.0010055629
-0.0026624437
-0.0086998766
-0.0071663544
-0.0019765138
-0.00066436661
0.0010762775
0.0014247063
0.0054164024
0.0060578694
-0.00084426706
-0.0035577152
-0.0056188356
-0.005667433
-0.0045774032
-0.0015114097
-0.00037672862
0.0019635062
0.0071433433
0.0048033944
-0.0010203474
-0.0036097725
-0.0066312868
-0.005785796
-0.0021255643
-0.00038018685
0.0014354775
0.0041530098
0.0062215036
0.0044071541
-0.00084400575
-0.0034758003
-0.007689363
-0.0076765262
-0.0024122256
1.4192195e-05
0.00077456533
0.0027686075
0.0057337649
0.004436192
-0.00045215242
-0.0029709233
-0.0077703092
-0.0089647922
-0.0043608708
-0.00063786905
0.00059916079
0.0025022944
0.0058543012
0.0047642558
2.1466007e-05
-0.0023902498
-0.0072483877
-0.0087387529
-0.0044345518
-0.00069731909
0.00065717844
0.0027688688
0.0063019599
0.0053016637
0.00051719973
-0.0019783865
-0.0069490472
-0.0086120499
-0.0045054404
-0.00075310422
0.00056445596
0.0025842093
0.0064931504
0.0058498063
0.0010140027
-0.0017507758
-0.0070110862
-0.0089669823
-0.0051616257
-0.0010234215
-1.7789076e-05
0.00069834137
0.0051629375
0.005742639
0.0013384618
-0.001741085
-0.0074141271
-0.0096157756
-0.0057548315
-0.0011855752
0.00048554732
0.00057511613
0.0033141543
0.0047875796
0.001366745
-0.0019790052
-0.0080148118
-0.0095348207
-0.0026558376
0.00059313398
0.0016167702
0.002863519
0.002927631
0.0037203127
0.0011938923
-0.0024681588
-0.0086635183
-0.0071099874
-0.001870129
-0.00066176947
0.0010557824
0.0013434066
0.0052852851
0.0059388438
-0.00085085286
-0.0034499535
-0.0054773565
-0.0055361406
-0.0044898184
-0.0014968169
-0.00039338836
0.0018524353
0.0069714346
0.0046877562
-0.0010012556
-0.0034689042
-0.0064779036
-0.00563723
-0.0019908567
-0.00034848081
0.0013951349
0.0040019004
0.0060504408
0.004310117
-0.00079158386
-0.003293594
-0.0075109159
-0.0075185509
-0.0022538865
5.7922923e-05
0.00073071128
0.002617591
0.0055785348
0.0043645782
-0.00036499854
-0.0027459947
-0.0075533784
-0.0087827291
-0.0041852876
-0.00058833886
0.00056107652
0.0023731736
0.0057272628
0.0047232639
0.00014095115
-0.0021310422
-0.0069990226
-0.008532103
-0.0042439353
-0.00064428091
0.00063044279
0.00267686
0.0062147918
0.0052971132
0.00066646743
-0.0016963005
-0.006684688
-0.0084004026
-0.0043202171
-0.0007035012
0.00054844268
0.0025295331
0.0064501724
0.0058858157
0.0011906453
-0.0014572706
-0.0067521051
-0.0087782485
-0.0050155651
-0.0009893454
-3.6588621e-05
0.00064330059
0.0051393171
0.0058090066
0.0015351578
-0.001449383
-0.0071822859
-0.009476417
-0.0056680105
-0.0011714744
0.00048104974
0.00054712276
0.0033046732
0.0048722636
0.0015729719
-0.0017034161
-0.0078281195
-0.0094373882
-0.0025113886
0.00065408639
0.0016293858
0.0028792325
0.0029448861
0.0038189578
0.0014002284
-0.0022210129
-0.0085300793
-0.0069722405
-0.001729071
-0.00064992932
0.001023601
0.0012395581
0.0051085552
0.0057789791
-0.00083965033
-0.0032942889
-0.0052664685
-0.0053347001
-0.004347159
-0.0014659129
-0.00041244322
0.0017142429
0.0067421425
0.004540265
-0.00096184264
-0.0032776406
-0.0062456706
-0.0054152222
-0.0018152699
-0.00030730041
0.0013400575
0.0038089166
0.0058288415
0.0041850264
-0.00071834012
-0.0030595332
-0.007243683
-0.0072717806
-0.0020506665
0.0001090726
0.00067661495
0.0024345292
0.0053771052
0.0042660804
-0.0002579429
-0.002470422
-0.007244549
-0.0085007003
-0.0039497655
-0.00052647813
0.00051424807
0.0022149638
0.005554657
0.0046547141
0.00027875325
-0.0018233662
-0.0066594301
-0.0082252737
-0.003991564
-0.00057816651
0.00059515341
0.0025558395
0.0060810049
0.0052631738
0.00083222328
-0.0013672731
-0.0063311364
-0.0080887876
-0.0040725313
-0.00064044124
0.00052534695
0.0024497196
0.0063618756
0.0058908811
0.0013819021
-0.0011175706
-0.0064034289
-0.0084878141
-0.004803946
-0.00094052857
-5.7648011e-05
0.0005786249
0.0050821265
0.0058474267
0.001745636
-0.001111272
-0.0068589584
-0.0092332143
-0.005514922
-0.0011427702
0.00047166555
0.00051263913
0.0032763975
0.004937388
0.0017938148
-0.0013801109
-0.0075478556
-0.00924023
-0.002325188
0.00071665389
0.001630278
0.0028751174
0.002947631
0.0039065293
0.0016228701
-0.001923654
-0.0083013491
-0.0067544563
-0.0015540096
-0.00062865128
0.00097989686
0.0011145837
0.0048895893
0.0055820607
-0.0008088309
-0.003091294
-0.0049880516
-0.0050650819
-0.0041504847
-0.0014188008
-0.00043372224
0.0015510067
0.0064596919
0.0043648146
-0.00090063469
-0.0030371202
-0.0059369124
-0.005122099
-0.0016002397
-0.00025685362
0.0012708455
0.0035769979
0.0055611235
0.0040355553
-0.00062332412
-0.0027754861
-0.0068906663
-0.0069390127
-0.0018043887
0.00016730544
0.00061301288
0.0022225409
0.0051337212
0.0041439816
-0.00013061594
-0.0021468327
-0.0068476431
-0.0081222204
-0.0036566926
-0.00045278696
0.00045934812
0.0020304926
0.0053402904
0.0045613751
0.0004346697
-0.0014704846
-0.0062340972
-0.0078223874
-0.0036802892
-0.00049959987
0.00055181035
0.0024080477
0.00590374
0.0052019754
0.0010137072
-0.00099504
-0.0058932589
-0.0076815833
-0.0037653377
-0.0005645558
0.000495464
0.0023463005
0.0062305778
0.0058663766
0.0015864624
-0.00073572644
-0.0059700021
-0.0080998936
-0.0045293396
-0.00087744164
-8.0763548e-05
0.00050543294
0.0049930093
0.0058585445
0.0019680914
-0.00073094488
-0.0064488567
-0.0088898095
-0.0052973661
-0.0010996603
0.0004574526
0.00047236962
0.0032304564
0.0049830019
0.0020270995
-0.0010132326
-0.0071782283
-0.0089463086
-0.002099065
0.00078040756
0.0016193998
0.002851529
0.0029365564
0.003982644
0.0018594463
-0.0015799953
-0.0079808851
-0.0064595348
-0.001346507
-0.00059795503
0.00092509681
0.00097060924
0.0046326425
0.0053524746
-0.00075687925
-0.002842506