/*--------------------------------*- C++ -*----------------------------------*\
| =========                 |                                                 |
| \\      /  F ield         | OpenFOAM: The Open Source CFD Toolbox           |
|  \\    /   O peration     | Version:  v2106                                 |
|   \\  /    A nd           | Website:  www.openfoam.com                      |
|    \\/     M anipulation  |                                                 |
\*---------------------------------------------------------------------------*/
FoamFile
{
    version     2.0;
    format      ascii;
    arch        "LSB;label=32;scalar=64";
    class       volVectorField;
    location    "15";
    object      gradT;
}
// * * * * * * * * * * * * * * * * * * * * * * * * * * * * * * * * * * * * * //

dimensions      [0 -1 0 1 0 0 0];

internalField   nonuniform List<vector> 
4000
(
(-1.395036e-05 -1.3950362e-05 252.91461)
(-0.00023690984 -0.00020345589 252.91452)
(0.00014817001 3.684634e-05 252.91376)
(0.00040703755 -1.4452754e-05 252.91539)
(6.1306849e-06 -3.2949892e-05 252.91562)
(-8.8974835e-05 -3.7242101e-05 252.91544)
(-0.00010754769 -4.002899e-05 252.91517)
(-0.00010301369 -4.4064446e-05 252.91487)
(-7.5524326e-05 -4.2187611e-05 252.91462)
(-1.8557368e-05 -2.2858901e-05 252.91446)
(-0.00020345588 -0.00023690984 252.91452)
(-0.00016071478 -0.00016071478 252.91353)
(0.0004316747 0.00013453119 252.91414)
(0.0003023432 2.4534916e-05 252.91545)
(-2.8053336e-05 -1.2284244e-05 252.91556)
(-9.9593482e-05 -2.1662109e-05 252.91535)
(-0.00011778121 -3.2453223e-05 252.91506)
(-0.00010625163 -5.6686596e-05 252.91473)
(-4.3716009e-05 -7.7380063e-05 252.9145)
(7.7134246e-07 -3.8828146e-05 252.91449)
(3.6846345e-05 0.00014817 252.91376)
(0.00013453119 0.0004316747 252.91414)
(0.0003334197 0.00033341971 252.91452)
(0.00026022212 0.00028909278 252.91569)
(-4.006634e-05 0.00027773696 252.91576)
(-0.00010914381 0.00027564391 252.91554)
(-0.00014257218 0.00026846922 252.9152)
(-0.00014794053 0.00023911168 252.91478)
(-5.7665876e-05 0.00018048196 252.91444)
(7.1439099e-06 0.0001371343 252.91448)
(-1.445275e-05 0.00040703755 252.91539)
(2.4534924e-05 0.0003023432 252.91545)
(0.00028909278 0.00026022211 252.91569)
(0.00024666045 0.00024666045 252.91681)
(-4.1502213e-05 0.0002453598 252.91687)
(-0.00010886122 0.00024912895 252.91665)
(-0.00015431344 0.00025330979 252.91631)
(-0.00019423889 0.00024801794 252.91583)
(-0.00014569339 0.00021753412 252.91531)
(-2.8127099e-05 0.00016695799 252.9151)
(-3.2949891e-05 6.1306938e-06 252.91562)
(-1.228425e-05 -2.8053341e-05 252.91556)
(0.00027773695 -4.0066353e-05 252.91576)
(0.0002453598 -4.1502218e-05 252.91687)
(-3.7597838e-05 -3.7597841e-05 252.91692)
(-0.00010119383 -3.1480894e-05 252.91672)
(-0.00014368319 -2.3038064e-05 252.91641)
(-0.0001837162 -1.2644492e-05 252.91595)
(-0.00013872583 -2.8347102e-06 252.91545)
(-2.657351e-05 4.6772815e-06 252.91524)
(-3.7242107e-05 -8.8974844e-05 252.91544)
(-2.1662123e-05 -9.9593489e-05 252.91535)
(0.00027564391 -0.00010914381 252.91554)
(0.00024912896 -0.00010886122 252.91665)
(-3.1480889e-05 -0.00010119383 252.91672)
(-9.4301441e-05 -9.4301441e-05 252.91653)
(-0.00013547704 -8.7954822e-05 252.91624)
(-0.00017403553 -8.1373565e-05 252.9158)
(-0.00012837161 -7.4484163e-05 252.91533)
(-2.3119105e-05 -6.8085706e-05 252.91515)
(-4.0028988e-05 -0.00010754769 252.91517)
(-3.245322e-05 -0.0001177812 252.91506)
(0.00026846922 -0.00014257217 252.9152)
(0.00025330978 -0.00015431343 252.91631)
(-2.3038058e-05 -0.00014368319 252.91641)
(-8.7954817e-05 -0.00013547704 252.91624)
(-0.00013075532 -0.00013075531 252.91596)
(-0.00017024554 -0.00012806773 252.91554)
(-0.00012543797 -0.00012638887 252.91507)
(-2.2307872e-05 -0.00012563587 252.91489)
(-4.4064448e-05 -0.00010301369 252.91487)
(-5.6686599e-05 -0.00010625162 252.91473)
(0.00023911168 -0.00014794053 252.91478)
(0.00024801794 -0.00019423888 252.91583)
(-1.2644495e-05 -0.00018371619 252.91595)
(-8.1373562e-05 -0.00017403553 252.9158)
(-0.00012806773 -0.00017024554 252.91554)
(-0.00016966909 -0.00016966909 252.91511)
(-0.00012593975 -0.00016941252 252.91465)
(-2.2617106e-05 -0.00016825586 252.91447)
(-4.2187607e-05 -7.552433e-05 252.91462)
(-7.7380059e-05 -4.3716005e-05 252.9145)
(0.00018048196 -5.7665875e-05 252.91444)
(0.00021753412 -0.00014569339 252.91531)
(-2.8347078e-06 -0.00013872583 252.91545)
(-7.4484165e-05 -0.00012837161 252.91533)
(-0.00012638887 -0.00012543797 252.91507)
(-0.00016941252 -0.00012593975 252.91465)
(-0.00012402474 -0.00012402474 252.91418)
(-2.1536761e-05 -0.00011585877 252.91402)
(-2.2858899e-05 -1.8557364e-05 252.91446)
(-3.8828145e-05 7.7134432e-07 252.91449)
(0.0001371343 7.143912e-06 252.91448)
(0.00016695799 -2.81271e-05 252.9151)
(4.677284e-06 -2.6573512e-05 252.91524)
(-6.8085703e-05 -2.3119105e-05 252.91515)
(-0.00012563587 -2.230787e-05 252.91489)
(-0.00016825586 -2.2617102e-05 252.91447)
(-0.00011585877 -2.1536761e-05 252.91402)
(-1.7173126e-05 -1.7173127e-05 252.9139)
(-4.9321676e-05 -4.9321674e-05 377.17485)
(-0.00055986214 -0.00037427817 377.17513)
(0.00085852374 0.00026177572 377.17504)
(0.0015564436 0.00010567014 377.17664)
(5.8471324e-05 4.261989e-05 377.17692)
(-0.00040336106 2.5499628e-05 377.17669)
(-0.00052499819 1.0502032e-05 377.17629)
(-0.00051518687 -1.022114e-05 377.17583)
(-0.00039973431 1.2343557e-05 377.17545)
(-0.00010650228 9.7690377e-05 377.17508)
(-0.00037427817 -0.00055986214 377.17513)
(-9.321605e-05 -9.3216051e-05 377.17491)
(0.0015784462 0.00072841093 377.17564)
(0.0012277098 0.00038359665 377.177)
(-6.1784445e-05 0.00025024971 377.17717)
(-0.00045153784 0.000209563 377.17691)
(-0.00057857935 0.00015241405 377.17647)
(-0.00051242459 2.8338281e-05 377.17594)
(-0.00023786703 -3.6325521e-05 377.17567)
(-2.1155464e-05 0.00015128925 377.17559)
(0.00026177572 0.00085852374 377.17504)
(0.00072841093 0.0015784462 377.17564)
(0.0013353364 0.0013353364 377.17626)
(0.0010782823 0.0011769304 377.1775)
(-0.00011556232 0.0011260873 377.17762)
(-0.00050119671 0.0011142899 377.17735)
(-0.00070622291 0.0010753666 377.17685)
(-0.00070392645 0.00092443474 377.17614)
(-0.00027678334 0.000666253 377.17569)
(1.8574228e-05 0.00051562425 377.17567)
(0.00010567014 0.0015564435 377.17664)
(0.00038359665 0.0012277098 377.177)
(0.0011769304 0.0010782823 377.1775)
(0.0010184607 0.0010184607 377.17868)
(-0.00012442496 0.0010101348 377.17879)
(-0.0005022585 0.0010271227 377.17852)
(-0.00076843446 0.0010445925 377.17802)
(-0.00092153822 0.0010092515 377.17724)
(-0.00064667753 0.00085904383 377.17657)
(-0.00012157463 0.00064402976 377.17629)
(4.2619896e-05 5.8471324e-05 377.17692)
(0.00025024971 -6.1784447e-05 377.17717)
(0.0011260873 -0.00011556232 377.17762)
(0.0010101348 -0.00012442496 377.17879)
(-0.00010690032 -0.00010690032 377.17891)
(-0.00046673896 -7.7535273e-05 377.17866)
(-0.00072409412 -3.7912692e-05 377.1782)
(-0.00088947516 5.2922574e-06 377.17744)
(-0.00064200504 3.6090515e-05 377.17678)
(-0.00012476849 5.0218749e-05 377.17648)
(2.549963e-05 -0.00040336105 377.17669)
(0.00020956301 -0.00045153785 377.17691)
(0.0011142899 -0.00050119671 377.17735)
(0.0010271227 -0.00050225851 377.17852)
(-7.7535273e-05 -0.00046673897 377.17866)
(-0.00043327088 -0.00043327087 377.17844)
(-0.00068560693 -0.00040260702 377.178)
(-0.00084753502 -0.00037235743 377.17728)
(-0.00060175104 -0.00034367995 377.17664)
(-0.00011215581 -0.00032081144 377.17637)
(1.0502031e-05 -0.00052499819 377.17629)
(0.00015241405 -0.00057857935 377.17647)
(0.0010753666 -0.00070622292 377.17685)
(0.0010445925 -0.00076843446 377.17802)
(-3.7912687e-05 -0.00072409412 377.1782)
(-0.00040260702 -0.00068560693 377.178)
(-0.00066318067 -0.00066318068 377.17758)
(-0.00083054809 -0.00065091957 377.17687)
(-0.00059045905 -0.0006437376 377.17624)
(-0.00010952281 -0.00064177787 377.17596)
(-1.0221138e-05 -0.00051518688 377.17583)
(2.8338284e-05 -0.00051242459 377.17594)
(0.00092443475 -0.00070392645 377.17614)
(0.0010092515 -0.00092153822 377.17724)
(5.2922554e-06 -0.00088947515 377.17744)
(-0.00037235743 -0.00084753502 377.17728)
(-0.00065091957 -0.00083054809 377.17687)
(-0.00082809194 -0.00082809195 377.17616)
(-0.00059260933 -0.00082372294 377.17552)
(-0.00011084932 -0.00080861359 377.17525)
(1.2343558e-05 -0.00039973431 377.17545)
(-3.6325523e-05 -0.00023786704 377.17567)
(0.000666253 -0.00027678335 377.17569)
(0.00085904384 -0.00064667753 377.17657)
(3.6090515e-05 -0.00064200504 377.17678)
(-0.00034367995 -0.00060175104 377.17664)
(-0.00064373761 -0.00059045904 377.17624)
(-0.00082372294 -0.00059260933 377.17552)
(-0.00057098069 -0.00057098069 377.17491)
(-9.9449913e-05 -0.00049844296 377.1747)
(9.7690378e-05 -0.00010650228 377.17508)
(0.00015128925 -2.1155465e-05 377.17559)
(0.00051562425 1.8574229e-05 377.17567)
(0.00064402976 -0.00012157463 377.17629)
(5.0218745e-05 -0.00012476849 377.17648)
(-0.00032081143 -0.00011215581 377.17637)
(-0.00064177786 -0.00010952281 377.17596)
(-0.0008086136 -0.00011084932 377.17525)
(-0.00049844296 -9.9449913e-05 377.1747)
(-6.2490833e-05 -6.2490833e-05 377.17457)
(0.00017178819 0.00017178819 381.21312)
(-4.9985007e-05 -0.00034915943 381.21374)
(0.0016617667 0.00043797123 381.21404)
(0.0022880185 0.00022369054 381.21518)
(5.3516189e-05 0.00013627146 381.21536)
(-0.00071668302 0.0001107694 381.21513)
(-0.00096525639 7.7994906e-05 381.21471)
(-0.00094598495 2.634474e-05 381.2142)
(-0.00082063949 0.00010672731 381.21386)
(-0.00025886419 0.00031081665 381.21343)
(-0.00034915943 -4.9985015e-05 381.21374)
(0.00034928956 0.00034928955 381.21386)
(0.0025210416 0.0013588637 381.21457)
(0.0018354689 0.00088206226 381.21554)
(-0.00011586552 0.00069531606 381.21566)
(-0.00080409785 0.00063673248 381.21542)
(-0.0010918934 0.00052571703 381.21494)
(-0.00090288634 0.00025665718 381.2143)
(-0.00039393163 0.00016875597 381.21409)
(-5.4774853e-05 0.00054708129 381.21399)
(0.00043797123 0.0016617667 381.21404)
(0.0013588637 0.0025210416 381.21457)
(0.0021945394 0.0021945394 381.21521)
(0.0016244709 0.0019686767 381.2161)
(-0.00019181358 0.0018964104 381.21619)
(-0.00088628205 0.0018861029 381.21594)
(-0.0013453317 0.0018239814 381.21542)
(-0.001302946 0.00153952 381.21459)
(-0.00053021539 0.0010773493 381.21418)
(-6.6473194e-06 0.00083910324 381.21414)
(0.00022369054 0.0022880185 381.21518)
(0.00088206226 0.0018354689 381.21554)
(0.0019686767 0.0016244709 381.2161)
(0.0015373399 0.0015373399 381.21696)
(-0.00019843926 0.0015287534 381.21705)
(-0.0008765268 0.0015639762 381.21681)
(-0.0014384763 0.0016022207 381.2163)
(-0.0016495185 0.0015457288 381.2154)
(-0.0010943484 0.0013024143 381.21481)
(-0.00021360558 0.00098017897 381.21459)
(0.00013627146 5.3516188e-05 381.21536)
(0.00069531607 -0.00011586553 381.21566)
(0.0018964104 -0.00019181359 381.21619)
(0.0015287534 -0.00019843926 381.21705)
(-0.00016517724 -0.00016517723 381.21715)
(-0.00081281476 -0.00011229666 381.21694)
(-0.0013635792 -4.2890075e-05 381.21646)
(-0.0016027524 2.707485e-05 381.21558)
(-0.0010957652 6.9355314e-05 381.21499)
(-0.00022147084 8.2905791e-05 381.21475)
(0.0001107694 -0.00071668302 381.21513)
(0.00063673249 -0.00080409786 381.21542)
(0.0018861029 -0.00088628206 381.21594)
(0.0015639763 -0.00087652681 381.21681)
(-0.00011229666 -0.00081281476 381.21694)
(-0.00075423965 -0.00075423965 381.21675)
(-0.0012991048 -0.0007022666 381.2163)
(-0.0015372731 -0.00065445827 381.21545)
(-0.0010385174 -0.0006141101 381.21487)
(-0.00020457193 -0.00058928272 381.21464)
(7.7994904e-05 -0.00096525639 381.21471)
(0.00052571703 -0.0010918934 381.21494)
(0.0018239815 -0.0013453317 381.21542)
(0.0016022207 -0.0014384763 381.2163)
(-4.2890076e-05 -0.0013635792 381.21646)
(-0.00070226661 -0.0012991048 381.2163)
(-0.0012637978 -0.0012637978 381.21586)
(-0.0015145959 -0.0012478433 381.21501)
(-0.0010305896 -0.0012407804 381.21444)
(-0.00020491926 -0.001243962 381.21418)
(2.6344738e-05 -0.00094598494 381.2142)
(0.00025665717 -0.00090288634 381.2143)
(0.00153952 -0.001302946 381.21459)
(0.0015457288 -0.0016495185 381.2154)
(2.7074856e-05 -0.0016027524 381.21558)
(-0.00065445828 -0.0015372731 381.21545)
(-0.0012478433 -0.0015145959 381.21501)
(-0.0015142556 -0.0015142557 381.21416)
(-0.0010346361 -0.0014944698 381.21358)
(-0.00020669299 -0.0014282556 381.21334)
(0.00010672731 -0.00082063949 381.21386)
(0.00016875597 -0.00039393163 381.21409)
(0.0010773493 -0.00053021538 381.21418)
(0.0013024143 -0.0010943484 381.21481)
(6.9355309e-05 -0.0010957652 381.21499)
(-0.0006141101 -0.0010385174 381.21487)
(-0.0012407804 -0.0010305896 381.21444)
(-0.0014944698 -0.0010346361 381.21358)
(-0.00094458956 -0.00094458957 381.21306)
(-0.00016077642 -0.00079122725 381.213)
(0.00031081665 -0.00025886419 381.21343)
(0.00054708128 -5.4774857e-05 381.21399)
(0.00083910325 -6.6473187e-06 381.21414)
(0.00098017897 -0.00021360558 381.21459)
(8.2905791e-05 -0.00022147084 381.21475)
(-0.00058928271 -0.00020457193 381.21464)
(-0.001243962 -0.00020491926 381.21418)
(-0.0014282556 -0.00020669298 381.21334)
(-0.00079122725 -0.00016077642 381.213)
(-0.00010445144 -0.00010445144 381.21284)
(0.00036232524 0.00036232524 388.08922)
(0.00035852369 -0.00029709509 388.08968)
(0.0022944836 0.00061456955 388.08987)
(0.0028729228 0.0003518157 388.09083)
(1.2830168e-05 0.00024696355 388.09097)
(-0.0010488604 0.00021674985 388.09073)
(-0.0014501947 0.00016250786 388.09029)
(-0.0013669799 5.3304338e-05 388.0897)
(-0.0011719398 0.00016440878 388.08935)
(-0.0003912927 0.00047001604 388.08895)
(-0.00029709509 0.00035852369 388.08968)
(0.00073689015 0.00073689015 388.08978)
(0.0032678497 0.001894886 388.09034)
(0.0023215138 0.0013106469 388.09116)
(-0.00018976862 0.0010883618 388.09125)
(-0.001175544 0.0010242761 388.09101)
(-0.001695363 0.00086248058 388.09051)
(-0.0013641285 0.00041520171 388.08975)
(-0.00054687225 0.00028563567 388.08949)
(-8.568544e-05 0.00085530776 388.08939)
(0.00061456955 0.0022944836 388.08987)
(0.001894886 0.0032678497 388.09034)
(0.0028682404 0.0028682404 388.09082)
(0.0020663986 0.0025920667 388.09158)
(-0.00027354064 0.0025101331 388.09165)
(-0.0012747416 0.0025112833 388.09142)
(-0.0020592691 0.0024374752 388.09089)
(-0.0019438248 0.0020277533 388.08995)
(-0.00073183375 0.0013932974 388.08953)
(-1.1511303e-05 0.0011128659 388.08951)
(0.0003518157 0.0028729228 388.09083)
(0.001310647 0.0023215138 388.09116)
(0.0025920667 0.0020663986 388.09158)
(0.0019634065 0.0019634065 388.09232)
(-0.000270552 0.0019611238 388.09239)
(-0.0012482019 0.0020187221 388.09218)
(-0.0021788929 0.0020805443 388.09166)
(-0.0024083063 0.0020019337 388.09066)
(-0.0014617597 0.0016717737 388.09007)
(-0.00027263976 0.0012594231 388.08989)
(0.00024696355 1.2830165e-05 388.09097)
(0.0010883618 -0.00018976862 388.09125)
(0.0025101331 -0.00027354064 388.09165)
(0.0019611238 -0.000270552 388.09239)
(-0.0002182251 -0.00021822509 388.09248)
(-0.0011553211 -0.00014082378 388.09229)
(-0.0020760575 -4.2912202e-05 388.09181)
(-0.0023525954 4.8234725e-05 388.09083)
(-0.0014743443 9.3804201e-05 388.09024)
(-0.00028641171 9.8665056e-05 388.09004)
(0.00021674985 -0.0010488605 388.09073)
(0.0010242761 -0.001175544 388.09101)
(0.0025112833 -0.0012747416 388.09142)
(0.0020187221 -0.0012482019 388.09218)
(-0.00014082378 -0.0011553211 388.09229)
(-0.001072889 -0.001072889 388.09213)
(-0.0019898344 -0.0010030879 388.09167)
(-0.0022715899 -0.00094447952 388.09071)
(-0.0014113293 -0.0009025087 388.09012)
(-0.0002693992 -0.00088870583 388.08992)
(0.00016250787 -0.0014501947 388.09029)
(0.00086248059 -0.001695363 388.09051)
(0.0024374752 -0.0020592691 388.09089)
(0.0020805443 -0.0021788929 388.09166)
(-4.2912202e-05 -0.0020760575 388.09181)
(-0.0010030879 -0.0019898344 388.09167)
(-0.0019476481 -0.0019476481 388.09121)
(-0.0022520162 -0.0019353772 388.09025)
(-0.0014185706 -0.0019331769 388.08965)
(-0.0002772098 -0.0019407458 388.08942)
(5.3304339e-05 -0.0013669799 388.0897)
(0.00041520171 -0.0013641285 388.08975)
(0.0020277533 -0.0019438248 388.08995)
(0.0020019337 -0.0024083063 388.09066)
(4.8234729e-05 -0.0023525954 388.09083)
(-0.00094447952 -0.0022715899 388.09071)
(-0.0019353772 -0.0022520162 388.09025)
(-0.0022571188 -0.0022571188 388.08927)
(-0.0014166979 -0.0021947689 388.08867)
(-0.00027444507 -0.0019960197 388.08844)
(0.00016440879 -0.0011719398 388.08935)
(0.00028563568 -0.00054687225 388.08949)
(0.0013932974 -0.00073183374 388.08953)
(0.0016717737 -0.0014617597 388.09007)
(9.3804195e-05 -0.0014743443 388.09024)
(-0.00090250871 -0.0014113293 388.09012)
(-0.0019331769 -0.0014185706 388.08965)
(-0.0021947689 -0.0014166979 388.08867)
(-0.0011574715 -0.0011574715 388.08816)
(-0.00014471031 -0.00099266987 388.08826)
(0.00047001604 -0.00039129269 388.08895)
(0.00085530776 -8.5685444e-05 388.08939)
(0.0011128659 -1.1511304e-05 388.08951)
(0.0012594231 -0.00027263977 388.08989)
(9.8665054e-05 -0.00028641171 388.09004)
(-0.00088870584 -0.00026939919 388.08992)
(-0.0019407458 -0.0002772098 388.08942)
(-0.0019960197 -0.00027444508 388.08844)
(-0.00099266987 -0.00014471031 388.08826)
(-0.0001645773 -0.0001645773 388.08809)
(0.00048053441 0.00048053442 397.71386)
(0.00059821777 -0.00028413718 397.71417)
(0.0028111508 0.0007505387 397.71427)
(0.0033844081 0.0004436594 397.71515)
(-4.7691258e-05 0.00032497084 397.71525)
(-0.0013955178 0.00029447205 397.71502)
(-0.0019959457 0.00022502597 397.71457)
(-0.0018870398 6.1602492e-05 397.71393)
(-0.0015704804 0.00020578558 397.71351)
(-0.00052148873 0.00060052712 397.71312)
(-0.00028413718 0.00059821777 397.71417)
(0.0010032242 0.0010032242 397.71419)
(0.0039028457 0.0023110766 397.71465)
(0.0027460563 0.0016308494 397.7154)
(-0.00027147228 0.0013824527 397.71546)
(-0.0015454351 0.0013233169 397.71523)
(-0.00234525 0.0011247994 397.71474)
(-0.0019159004 0.00050897311 397.71395)
(-0.00076209342 0.0003545528 397.71362)
(-0.00012674719 0.0011024283 397.7135)
(0.00075053871 0.0028111508 397.71427)
(0.0023110766 0.0039028457 397.71465)
(0.003438776 0.003438776 397.71505)
(0.0024557842 0.0031212981 397.71573)
(-0.00035522368 0.0030366751 397.71579)
(-0.0016531711 0.0030552209 397.71558)
(-0.0028102895 0.0029759297 397.71506)
(-0.0026572864 0.002446009 397.71409)
(-0.00097702512 0.0016570724 397.71363)
(-2.2905035e-05 0.0013464892 397.71359)
(0.0004436594 0.0033844081 397.71515)
(0.0016308494 0.0027460563 397.7154)
(0.0031212981 0.0024557842 397.71573)
(0.0023439554 0.0023439554 397.7164)
(-0.00033754951 0.0023527962 397.71647)
(-0.0016061805 0.0024358438 397.71628)
(-0.0029544619 0.0025227181 397.71578)
(-0.0032347576 0.0024206196 397.71475)
(-0.0018616132 0.0020061029 397.71412)
(-0.00033380268 0.0015089397 397.71394)
(0.00032497085 -4.7691262e-05 397.71525)
(0.0013824528 -0.00027147227 397.71546)
(0.0030366751 -0.00035522368 397.71579)
(0.0023527962 -0.00033754952 397.71647)
(-0.00026333526 -0.00026333526 397.71655)
(-0.0014832492 -0.00016047324 397.71639)
(-0.0028255137 -3.5210573e-05 397.71592)
(-0.0031739016 7.2705564e-05 397.71491)
(-0.001888705 0.00011542418 397.71428)
(-0.00035434716 0.0001055922 397.71407)
(0.00029447205 -0.0013955178 397.71502)
(0.0013233169 -0.0015454351 397.71523)
(0.0030552209 -0.0016531711 397.71558)
(0.0024358438 -0.0016061805 397.71628)
(-0.00016047324 -0.0014832492 397.71639)
(-0.0013780558 -0.0013780558 397.71625)
(-0.0027212831 -0.0012938843 397.7158)
(-0.0030841229 -0.0012313499 397.7148)
(-0.0018287266 -0.0011980836 397.71417)
(-0.00034035733 -0.001207773 397.71395)
(0.00022502597 -0.0019959457 397.71457)
(0.0011247994 -0.00234525 397.71474)
(0.0029759297 -0.0028102895 397.71506)
(0.0025227181 -0.0029544619 397.71578)
(-3.5210566e-05 -0.0028255137 397.71592)
(-0.0012938843 -0.0027212831 397.7158)
(-0.0026788077 -0.0026788077 397.71536)
(-0.0030781009 -0.002680718 397.71435)
(-0.0018651281 -0.0026954877 397.7137)
(-0.00036080674 -0.0027155499 397.71344)
(6.1602497e-05 -0.0018870398 397.71393)
(0.00050897312 -0.0019159004 397.71395)
(0.002446009 -0.0026572864 397.71409)
(0.0024206196 -0.0032347576 397.71475)
(7.2705557e-05 -0.0031739016 397.71491)
(-0.0012313499 -0.0030841229 397.7148)
(-0.002680718 -0.0030781009 397.71435)
(-0.0031008028 -0.0031008028 397.71332)
(-0.0018635585 -0.0029874454 397.71264)
(-0.00035373211 -0.0025826536 397.71238)
(0.00020578559 -0.0015704804 397.71351)
(0.00035455281 -0.00076209342 397.71362)
(0.0016570724 -0.00097702512 397.71363)
(0.0020061029 -0.0018616132 397.71412)
(0.00011542418 -0.001888705 397.71428)
(-0.0011980836 -0.0018287266 397.71417)
(-0.0026954877 -0.0018651281 397.7137)
(-0.0029874454 -0.0018635585 397.71264)
(-0.0013469789 -0.0013469789 397.71208)
(-9.0945521e-05 -0.0011421432 397.71224)
(0.00060052712 -0.00052148873 397.71312)
(0.0011024284 -0.0001267472 397.7135)
(0.0013464892 -2.2905031e-05 397.71359)
(0.0015089397 -0.00033380268 397.71394)
(0.0001055922 -0.00035434716 397.71407)
(-0.001207773 -0.00034035734 397.71395)
(-0.0027155499 -0.00036080675 397.71344)
(-0.0025826535 -0.00035373211 397.71238)
(-0.0011421432 -9.0945521e-05 397.71224)
(-0.00021717499 -0.00021717499 397.71209)
(0.00057096781 0.00057096781 409.98451)
(0.00077011281 -0.0002867089 409.98477)
(0.0032657765 0.00086682004 409.98483)
(0.0038493688 0.0005183249 409.98564)
(-0.00011440096 0.0003876325 409.98572)
(-0.0017296228 0.0003588407 409.9855)
(-0.0025375573 0.0002772926 409.98507)
(-0.0024274581 6.27406e-05 409.98444)
(-0.0019802062 0.00024191397 409.98401)
(-0.0006482247 0.0007199008 409.98363)
(-0.0002867089 0.00077011282 409.98477)
(0.0012138912 0.0012138912 409.98476)
(0.0044733272 0.0026682292 409.98516)
(0.0031305875 0.0018989199 409.98585)
(-0.00035362726 0.0016296262 409.9859)
(-0.0018951327 0.0015806668 409.98569)
(-0.0029817075 0.0013527187 409.98522)
(-0.002480526 0.00057603741 409.98444)
(-0.00099446589 0.00040555934 409.98411)
(-0.00017023788 0.0013218156 409.98398)
(0.00086682004 0.0032657765 409.98483)
(0.0026682292 0.0044733272 409.98516)
(0.0039508053 0.0039508053 409.98551)
(0.0028107658 0.0035977976 409.98614)
(-0.00043265407 0.003514961 409.98619)
(-0.0020065303 0.00355465 409.98599)
(-0.0035421868 0.0034736985 409.98551)
(-0.0033746174 0.0028276026 409.98457)
(-0.001234428 0.0018934605 409.9841)
(-3.7387221e-05 0.0015550378 409.98406)
(0.0005183249 0.0038493688 409.98564)
(0.0018989199 0.0031305875 409.98585)
(0.0035977976 0.0028107658 409.98614)
(0.0026947433 0.0026947433 409.98676)
(-0.00039677493 0.0027181149 409.98682)
(-0.0019363952 0.0028288866 409.98665)
(-0.0037087549 0.0029420671 409.98619)
(-0.0040607639 0.0028165941 409.98518)
(-0.0022670307 0.0023201833 409.98457)
(-0.00039585305 0.0017408754 409.98438)
(0.0003876325 -0.00011440096 409.98572)
(0.0016296262 -0.00035362726 409.9859)
(0.003514961 -0.00043265407 409.98619)
(0.0027181149 -0.00039677492 409.98682)
(-0.00029851074 -0.00029851074 409.9869)
(-0.001782578 -0.00016935182 409.98676)
(-0.0035544793 -1.7384999e-05 409.98633)
(-0.0039965013 0.00010470923 409.98534)
(-0.0023101467 0.00014109523 409.98471)
(-0.00042359245 0.00011305862 409.98451)
(0.0003588407 -0.0017296228 409.9855)
(0.0015806668 -0.0018951327 409.98569)
(0.00355465 -0.0020065303 409.98599)
(0.0028288866 -0.0019363952 409.98665)
(-0.00016935182 -0.001782578 409.98676)
(-0.0016552695 -0.0016552695 409.98664)
(-0.0034346938 -0.0015591263 409.98623)
(-0.0039022837 -0.0014974794 409.98525)
(-0.0022586813 -0.0014803107 409.98463)
(-0.00041454412 -0.0015226397 409.9844)
(0.0002772926 -0.0025375573 409.98507)
(0.0013527187 -0.0029817075 409.98522)
(0.0034736985 -0.0035421868 409.98551)
(0.0029420671 -0.0037087549 409.98619)
(-1.7384997e-05 -0.0035544793 409.98633)
(-0.0015591263 -0.0034346938 409.98623)
(-0.0033966893 -0.0033966893 409.98583)
(-0.0039176858 -0.0034212022 409.98483)
(-0.002335307 -0.0034654419 409.98417)
(-0.00045181181 -0.0035124677 409.9839)
(6.2740599e-05 -0.0024274581 409.98444)
(0.00057603742 -0.002480526 409.98444)
(0.0028276026 -0.0033746174 409.98457)
(0.0028165941 -0.0040607639 409.98518)
(0.00010470922 -0.0039965013 409.98534)
(-0.0014974794 -0.0039022837 409.98525)
(-0.0034212022 -0.0039176858 409.98483)
(-0.0039710364 -0.0039710364 409.9838)
(-0.0023499468 -0.0038176263 409.98311)
(-0.00044589462 -0.0031883548 409.98282)
(0.00024191398 -0.0019802062 409.98401)
(0.00040555934 -0.00099446589 409.98411)
(0.0018934605 -0.001234428 409.9841)
(0.0023201833 -0.0022670307 409.98457)
(0.00014109522 -0.0023101467 409.98471)
(-0.0014803107 -0.0022586813 409.98463)
(-0.0034654419 -0.002335307 409.98417)
(-0.0038176263 -0.0023499468 409.98311)
(-0.0015526254 -0.0015526254 409.98252)
(-3.2297508e-05 -0.0012838162 409.98269)
(0.0007199008 -0.00064822471 409.98363)
(0.0013218156 -0.00017023788 409.98398)
(0.0015550378 -3.7387218e-05 409.98406)
(0.0017408754 -0.00039585305 409.98438)
(0.00011305861 -0.00042359245 409.98451)
(-0.0015226398 -0.00041454412 409.9844)
(-0.0035124677 -0.00045181181 409.9839)
(-0.0031883548 -0.00044589462 409.98282)
(-0.0012838162 -3.229751e-05 409.98269)
(-0.00026668847 -0.00026668848 409.98254)
(0.00065192864 0.00065192864 424.78451)
(0.000916765 -0.000292454 424.78475)
(0.0036789969 0.00097321435 424.78479)
(0.0042753855 0.00058497855 424.78554)
(-0.00018404079 0.00044354888 424.7856)
(-0.0020445911 0.00041758537 424.78539)
(-0.0030530233 0.00032569446 424.78499)
(-0.0029519829 6.2197738e-05 424.7844)
(-0.0023804928 0.00027606225 424.78397)
(-0.00077082902 0.00083333259 424.78361)
(-0.00029245399 0.000916765 424.78475)
(0.0013986936 0.0013986936 424.78473)
(0.0049951457 0.0029911717 424.7851)
(0.0034808873 0.0021378814 424.78573)
(-0.00043513057 0.0018513268 424.78576)
(-0.0022213728 0.001815838 424.78556)
(-0.0035861047 0.0015633235 424.78514)
(-0.0030264312 0.00063254137 424.78439)
(-0.0012237905 0.00044923773 424.78407)
(-0.00021355868 0.0015262868 424.78395)
(0.00097321435 0.0036789969 424.78479)
(0.0029911717 0.0049951457 424.7851)
(0.0044181848 0.0044181848 424.78541)
(0.0031355406 0.0040338198 424.78599)
(-0.00050608426 0.0039559598 424.78603)
(-0.0023325944 0.0040195654 424.78585)
(-0.0042363199 0.0039403638 424.7854)
(-0.0040660687 0.0031834128 424.7845)
(-0.0014867474 0.0021113416 424.78406)
(-5.2796303e-05 0.0017467343 424.78401)
(0.00058497855 0.0042753855 424.78554)
(0.0021378814 0.0034808873 424.78573)
(0.0040338198 0.0031355406 424.78599)
(0.0030186623 0.0030186623 424.78656)
(-0.00044938491 0.0030590734 424.78661)
(-0.0022369688 0.0031993657 424.78646)
(-0.0044222573 0.0033402563 424.78604)
(-0.0048554533 0.0031931089 424.78508)
(-0.002660469 0.0026184007 424.78449)
(-0.0004566302 0.0019603365 424.78432)
(0.00044354888 -0.0001840408 424.7856)
(0.0018513268 -0.00043513056 424.78576)
(0.0039559598 -0.00050608426 424.78603)
(0.0030590734 -0.00044938491 424.78661)
(-0.00032538089 -0.0003253809 424.78668)
(-0.0020514114 -0.00016914364 424.78656)
(-0.0042425767 9.3680256e-06 424.78617)
(-0.0047879243 0.00014454577 424.78524)
(-0.0027195198 0.00017324899 424.78464)
(-0.00049150578 0.0001257211 424.78444)
(0.00041758537 -0.0020445911 424.78539)
(0.001815838 -0.0022213728 424.78556)
(0.0040195654 -0.0023325944 424.78585)
(0.0031993657 -0.0022369688 424.78646)
(-0.00016914364 -0.0020514114 424.78656)
(-0.0019022199 -0.0019022199 424.78647)
(-0.0041085679 -0.0017955022 424.7861)
(-0.0046915723 -0.0017375202 424.78517)
(-0.0026792937 -0.0017405154 424.78457)
(-0.00048831546 -0.0018201765 424.78435)
(0.00032569446 -0.0030530233 424.78499)
(0.0015633235 -0.0035861047 424.78514)
(0.0039403638 -0.0042363199 424.7854)
(0.0033402563 -0.0044222573 424.78604)
(9.368037e-06 -0.0042425767 424.78617)
(-0.0017955022 -0.0041085679 424.7861)
(-0.004077877 -0.004077877 424.78573)
(-0.0047329374 -0.0041300267 424.78478)
(-0.0028021761 -0.0042114716 424.78415)
(-0.0005446132 -0.0042952447 424.78387)
(6.2197735e-05 -0.0029519829 424.7844)
(0.00063254137 -0.0030264312 424.78439)
(0.0031834128 -0.0040660687 424.7845)
(0.0031931089 -0.0048554533 424.78508)
(0.00014454577 -0.0047879243 424.78524)
(-0.0017375202 -0.0046915723 424.78517)
(-0.0041300268 -0.0047329374 424.78478)
(-0.0048251669 -0.0048251669 424.7838)
(-0.0028445116 -0.0046426918 424.78311)
(-0.00054416419 -0.0037922777 424.78282)
(0.00027606225 -0.0023804928 424.78397)
(0.00044923773 -0.0012237905 424.78407)
(0.0021113416 -0.0014867474 424.78406)
(0.0026184007 -0.002660469 424.78449)
(0.00017324899 -0.0027195198 424.78464)
(-0.0017405154 -0.0026792937 424.78457)
(-0.0042114716 -0.0028021761 424.78415)
(-0.0046426918 -0.0028445116 424.78311)
(-0.0017692869 -0.0017692869 424.78253)
(2.2329519e-05 -0.0014289678 424.78268)
(0.0008333326 -0.00077082903 424.78361)
(0.0015262868 -0.00021355868 424.78395)
(0.0017467343 -5.2796306e-05 424.78401)
(0.0019603365 -0.0004566302 424.78432)
(0.00012572109 -0.00049150579 424.78444)
(-0.0018201765 -0.00048831547 424.78435)
(-0.0042952447 -0.0005446132 424.78387)
(-0.0037922777 -0.0005441642 424.78282)
(-0.0014289678 2.2329517e-05 424.78268)
(-0.00031728477 -0.00031728477 424.78253)
(0.00072738448 0.00072738448 441.98212)
(0.0010486935 -0.00029828835 441.98234)
(0.0040555077 0.001071416 441.98237)
(0.0046629776 0.00064522209 441.98306)
(-0.00025590036 0.0004941767 441.98311)
(-0.0023386454 0.00047192933 441.98291)
(-0.0035355168 0.00037121619 441.98254)
(-0.0034476144 6.1081083e-05 441.98198)
(-0.0027623202 0.00030869739 441.98159)
(-0.00088837613 0.00094167552 441.98125)
(-0.00029828834 0.0010486935 441.98234)
(0.0015647408 0.0015647408 441.98232)
(0.0054707733 0.0032844387 441.98266)
(0.0037971185 0.0023517886 441.98323)
(-0.00051583951 0.0020510615 441.98325)
(-0.0025230862 0.0020317332 441.98307)
(-0.0041517891 0.0017592019 441.98268)
(-0.0035413926 0.00068209596 441.98198)
(-0.0014414286 0.00048817383 441.98168)
(-0.000255398 0.0017191977 441.98156)
(0.001071416 0.0040555077 441.98237)
(0.0032844387 0.0054707733 441.98266)
(0.0048425555 0.0048425555 441.98293)
(0.0034296004 0.0044303042 441.98346)
(-0.00057595575 0.0043599807 441.98349)
(-0.0026305051 0.0044498392 441.98332)
(-0.004885154 0.0043759164 441.98292)
(-0.0047186424 0.0035149805 441.98208)