/*--------------------------------*- C++ -*----------------------------------*\
| =========                 |                                                 |
| \\      /  F ield         | OpenFOAM: The Open Source CFD Toolbox           |
|  \\    /   O peration     | Version:  v2106                                 |
|   \\  /    A nd           | Website:  www.openfoam.com                      |
|    \\/     M anipulation  |                                                 |
\*---------------------------------------------------------------------------*/
FoamFile
{
    version     2.0;
    format      ascii;
    arch        "LSB;label=32;scalar=64";
    class       volScalarField;
    location    "15";
    object      T;
}
// * * * * * * * * * * * * * * * * * * * * * * * * * * * * * * * * * * * * * //

dimensions      [0 0 0 1 0 0 0];

internalField   nonuniform List<scalar> 
4000
(
273.95717
273.95717
273.95717
273.95717
273.95717
273.95717
273.95717
273.95717
273.95717
273.95717
273.95717
273.95716
273.95717
273.95717
273.95717
273.95717
273.95717
273.95717
273.95717
273.95717
273.95717
273.95717
273.95717
273.95717
273.95717
273.95717
273.95717
273.95717
273.95717
273.95717
273.95717
273.95717
273.95717
273.95718
273.95718
273.95718
273.95718
273.95717
273.95717
273.95717
273.95717
273.95717
273.95717
273.95718
273.95718
273.95718
273.95718
273.95718
273.95717
273.95717
273.95717
273.95717
273.95717
273.95718
273.95718
273.95718
273.95718
273.95717
273.95717
273.95717
273.95717
273.95717
273.95717
273.95718
273.95718
273.95718
273.95718
273.95717
273.95717
273.95717
273.95717
273.95717
273.95717
273.95717
273.95718
273.95717
273.95717
273.95717
273.95717
273.95717
273.95717
273.95717
273.95717
273.95717
273.95717
273.95717
273.95717
273.95717
273.95717
273.95717
273.95717
273.95717
273.95717
273.95717
273.95717
273.95717
273.95717
273.95717
273.95717
273.95717
277.71593
277.71592
277.71591
277.71594
277.71595
277.71594
277.71594
277.71593
277.71593
277.71592
277.71592
277.71591
277.71592
277.71594
277.71595
277.71594
277.71594
277.71593
277.71593
277.71593
277.71591
277.71592
277.71593
277.71595
277.71595
277.71595
277.71594
277.71593
277.71593
277.71593
277.71594
277.71594
277.71595
277.71597
277.71597
277.71597
277.71596
277.71595
277.71594
277.71594
277.71595
277.71595
277.71595
277.71597
277.71597
277.71597
277.71596
277.71595
277.71594
277.71594
277.71594
277.71594
277.71595
277.71597
277.71597
277.71596
277.71596
277.71595
277.71594
277.71594
277.71594
277.71594
277.71594
277.71596
277.71596
277.71596
277.71595
277.71595
277.71594
277.71593
277.71593
277.71593
277.71593
277.71595
277.71595
277.71595
277.71595
277.71594
277.71593
277.71593
277.71593
277.71593
277.71593
277.71594
277.71594
277.71594
277.71594
277.71593
277.71592
277.71592
277.71592
277.71593
277.71593
277.71594
277.71594
277.71594
277.71593
277.71593
277.71592
277.71592
281.50067
281.50067
281.50067
281.50071
281.50071
281.50071
281.5007
281.50069
281.50068
281.50067
281.50067
281.50066
281.50068
281.50071
281.50072
281.50071
281.5007
281.50069
281.50068
281.50068
281.50067
281.50068
281.50069
281.50072
281.50073
281.50072
281.50071
281.50069
281.50068
281.50068
281.50071
281.50071
281.50072
281.50075
281.50075
281.50075
281.50074
281.50072
281.5007
281.5007
281.50071
281.50072
281.50073
281.50075
281.50076
281.50075
281.50074
281.50072
281.50071
281.5007
281.50071
281.50071
281.50072
281.50075
281.50075
281.50075
281.50074
281.50072
281.50071
281.5007
281.5007
281.5007
281.50071
281.50074
281.50074
281.50074
281.50073
281.50071
281.5007
281.50069
281.50069
281.50069
281.50069
281.50072
281.50072
281.50072
281.50071
281.5007
281.50068
281.50067
281.50068
281.50068
281.50068
281.5007
281.50071
281.50071
281.5007
281.50068
281.50067
281.50066
281.50067
281.50068
281.50068
281.5007
281.5007
281.5007
281.50069
281.50067
281.50066
281.50066
285.34019
285.3402
285.3402
285.34025
285.34025
285.34025
285.34023
285.34022
285.3402
285.34019
285.3402
285.34019
285.34021
285.34026
285.34026
285.34025
285.34024
285.34022
285.34021
285.34021
285.3402
285.34021
285.34023
285.34027
285.34027
285.34027
285.34025
285.34022
285.34021
285.34021
285.34025
285.34026
285.34027
285.34031
285.34031
285.3403
285.34029
285.34026
285.34024
285.34023
285.34025
285.34026
285.34027
285.34031
285.34031
285.34031
285.34029
285.34026
285.34024
285.34024
285.34025
285.34025
285.34027
285.3403
285.34031
285.3403
285.34028
285.34026
285.34024
285.34023
285.34023
285.34024
285.34025
285.34029
285.34029
285.34028
285.34027
285.34025
285.34023
285.34022
285.34022
285.34022
285.34022
285.34026
285.34026
285.34026
285.34025
285.34022
285.3402
285.34019
285.3402
285.34021
285.34021
285.34024
285.34024
285.34024
285.34023
285.3402
285.34018
285.34018
285.34019
285.34021
285.34021
285.34023
285.34024
285.34023
285.34022
285.34019
285.34018
285.34017
289.26245
289.26247
289.26246
289.26252
289.26253
289.26252
289.2625
289.26248
289.26247
289.26245
289.26247
289.26246
289.26249
289.26254
289.26254
289.26253
289.26251
289.26248
289.26247
289.26247
289.26246
289.26249
289.26251
289.26256
289.26256
289.26255
289.26253
289.26249
289.26247
289.26247
289.26252
289.26254
289.26256
289.2626
289.2626
289.26259
289.26257
289.26253
289.26251
289.2625
289.26253
289.26254
289.26256
289.2626
289.26261
289.2626
289.26258
289.26254
289.26251
289.2625
289.26252
289.26253
289.26255
289.26259
289.2626
289.26259
289.26257
289.26253
289.26251
289.2625
289.2625
289.26251
289.26253
289.26257
289.26258
289.26257
289.26255
289.26252
289.26249
289.26248
289.26248
289.26248
289.26249
289.26253
289.26254
289.26253
289.26252
289.26248
289.26245
289.26244
289.26247
289.26247
289.26247
289.26251
289.26251
289.26251
289.26249
289.26245
289.26243
289.26243
289.26245
289.26247
289.26247
289.2625
289.2625
289.2625
289.26248
289.26244
289.26243
289.26242
293.29447
293.29448
293.29448
293.29455
293.29456
293.29455
293.29452
293.29449
293.29447
293.29446
293.29448
293.29447
293.29451
293.29456
293.29457
293.29456
293.29453
293.2945
293.29448
293.29448
293.29448
293.29451
293.29453
293.29459
293.29459
293.29458
293.29455
293.29451
293.29448
293.29448
293.29455
293.29456
293.29459
293.29464
293.29464
293.29463
293.2946
293.29455
293.29452
293.29451
293.29456
293.29457
293.29459
293.29464
293.29464
293.29463
293.29461
293.29456
293.29453
293.29452
293.29455
293.29456
293.29458
293.29463
293.29463
293.29462
293.2946
293.29456
293.29452
293.29451
293.29452
293.29453
293.29455
293.2946
293.29461
293.2946
293.29458
293.29453
293.2945
293.29449
293.29449
293.2945
293.29451
293.29455
293.29456
293.29456
293.29453
293.29449
293.29445
293.29444
293.29447
293.29448
293.29448
293.29452
293.29453
293.29452
293.2945
293.29445
293.29442
293.29442
293.29446
293.29448
293.29448
293.29451
293.29452
293.29451
293.29449
293.29444
293.29442
293.29441
297.46214
297.46216
297.46216
297.46224
297.46225
297.46223
297.46221
297.46217
297.46215
297.46212
297.46216
297.46215
297.46219
297.46225
297.46226
297.46224
297.46222
297.46217
297.46215
297.46215
297.46216
297.46219
297.46222
297.46228
297.46228
297.46227
297.46224
297.46218
297.46216
297.46215
297.46224
297.46225
297.46228
297.46233
297.46234
297.46232
297.46229
297.46224
297.4622
297.46218
297.46225
297.46226
297.46228
297.46234
297.46234
297.46233
297.4623
297.46225
297.46221
297.46219
297.46223
297.46224
297.46227
297.46232
297.46233
297.46232
297.46229
297.46224
297.4622
297.46219
297.46221
297.46222
297.46224
297.46229
297.4623
297.46229
297.46227
297.46221
297.46217
297.46216
297.46217
297.46217
297.46218
297.46224
297.46225
297.46224
297.46221
297.46216
297.46212
297.4621
297.46215
297.46215
297.46216
297.4622
297.46221
297.4622
297.46217
297.46212
297.46208
297.46208
297.46212
297.46215
297.46215
297.46218
297.46219
297.46219
297.46216
297.4621
297.46208
297.46207
301.79016
301.79018
301.79018
301.79026
301.79027
301.79025
301.79022
301.79018
301.79015
301.79013
301.79018
301.79017
301.79021
301.79028
301.79028
301.79027
301.79023
301.79018
301.79016
301.79016
301.79018
301.79021
301.79024
301.79031
301.79031
301.79029
301.79026
301.7902
301.79016
301.79016
301.79026
301.79028
301.79031
301.79037
301.79037
301.79036
301.79032
301.79025
301.79021
301.79019
301.79027
301.79028
301.79031
301.79037
301.79038
301.79037
301.79033
301.79027
301.79022
301.79021
301.79025
301.79027
301.79029
301.79036
301.79037
301.79035
301.79032
301.79026
301.79021
301.7902
301.79022
301.79023
301.79026
301.79032
301.79033
301.79032
301.79029
301.79023
301.79018
301.79016
301.79018
301.79018
301.7902
301.79025
301.79027
301.79026
301.79023
301.79016
301.79012
301.7901
301.79015
301.79016
301.79016
301.79021
301.79022
301.79021
301.79018
301.79012
301.79007
301.79008
301.79013
301.79016
301.79016
301.79019
301.79021
301.7902
301.79016
301.7901
301.79008
301.79006
306.30178
306.30181
306.30181
306.3019
306.30191
306.30189
306.30186
306.30181
306.30178
306.30175
306.30181
306.3018
306.30184
306.30192
306.30192
306.30191
306.30187
306.30181
306.30179
306.30178
306.30181
306.30184
306.30188
306.30195
306.30195
306.30193
306.3019
306.30183
306.30179
306.30179
306.3019
306.30192
306.30195
306.30201
306.30202
306.302
306.30196
306.30189
306.30184
306.30182
306.30191
306.30192
306.30195
306.30202
306.30203
306.30201
306.30198
306.3019
306.30185
306.30183
306.30189
306.30191
306.30193
306.302
306.30201
306.302
306.30197
306.30189
306.30184
306.30182
306.30186
306.30187
306.3019
306.30196
306.30198
306.30197
306.30193
306.30186
306.30181
306.30179
306.30181
306.30181
306.30183
306.30189
306.3019
306.30189
306.30186
306.30179
306.30173
306.30171
306.30178
306.30179
306.30179
306.30184
306.30185
306.30184
306.30181
306.30173
306.30168
306.30169
306.30175
306.30178
306.30179
306.30182
306.30183
306.30182
306.30179
306.30171
306.30169
306.30168
311.01876
311.01879
311.01879
311.01888
311.0189
311.01888
311.01884
311.01879
311.01875
311.01872
311.01879
311.01878
311.01883
311.01891
311.01891
311.01889
311.01885
311.01879
311.01876
311.01875
311.01879
311.01883
311.01887
311.01894
311.01894
311.01892
311.01888
311.0188
311.01876
311.01876
311.01888
311.01891
311.01894
311.01901
311.01901
311.019
311.01896
311.01887
311.01882
311.0188
311.0189
311.01891
311.01894
311.01901
311.01902
311.01901
311.01897
311.01889
311.01883
311.01881
311.01888
311.01889
311.01892
311.019
311.01901
311.01899
311.01896
311.01888
311.01882
311.0188
311.01884
311.01885
311.01888
311.01896
311.01897
311.01896
311.01892
311.01884
311.01879
311.01876
311.01879
311.01879
311.0188
311.01887
311.01889
311.01888
311.01884
311.01876
311.0187
311.01868
311.01875
311.01876
311.01876
311.01882
311.01883
311.01882
311.01879
311.0187
311.01865
311.01865
311.01872
311.01875
311.01876
311.0188
311.01881
311.0188
311.01876
311.01868
311.01865
311.01864
315.96113
315.96116
315.96116
315.96126
315.96127
315.96125
315.96121
315.96115
315.96112
315.96108
315.96116
315.96115
315.9612
315.96128
315.96129
315.96127
315.96122
315.96116
315.96113
315.96112
315.96116
315.9612
315.96124
315.96132
315.96132
315.9613
315.96125
315.96117
315.96113
315.96112
315.96126
315.96128
315.96132
315.96139
315.9614
315.96138
315.96133
315.96124
315.96118
315.96116
315.96127
315.96129
315.96132
315.9614
315.9614
315.96139
315.96135
315.96126
315.9612
315.96118
315.96125
315.96127
315.9613
315.96138
315.96139
315.96138
315.96134
315.96125
315.96119
315.96117
315.96121
315.96122
315.96125
315.96133
315.96135
315.96134
315.9613
315.96121
315.96115
315.96113
315.96115
315.96116
315.96117
315.96124
315.96126
315.96125
315.96121
315.96112
315.96106
315.96103
315.96112
315.96113
315.96113
315.96118
315.9612
315.96119
315.96115
315.96106
315.961
315.96101
315.96108
315.96112
315.96112
315.96116
315.96118
315.96117
315.96113
315.96103
315.96101
315.96099
321.14709
321.14712
321.14712
321.14722
321.14723
321.14721
321.14717
321.14711
321.14707
321.14703
321.14712
321.14711
321.14716
321.14724
321.14725
321.14723
321.14718
321.14711
321.14708
321.14707
321.14712
321.14716
321.1472
321.14728
321.14728
321.14726
321.14721
321.14712
321.14708
321.14708
321.14722
321.14724
321.14728
321.14736
321.14736
321.14734
321.1473
321.1472
321.14714
321.14712
321.14723
321.14725
321.14728
321.14736
321.14737
321.14736
321.14731
321.14722
321.14716
321.14713
321.14721
321.14723
321.14726
321.14734
321.14736
321.14734
321.1473
321.14721
321.14715
321.14713
321.14717
321.14718
321.14721
321.1473
321.14731
321.1473
321.14726
321.14717
321.14711
321.14708
321.14711
321.14711
321.14712
321.1472
321.14722
321.14721
321.14717
321.14707
321.14701
321.14698
321.14707
321.14708
321.14708
321.14714
321.14716
321.14715
321.14711
321.14701
321.14694
321.14695
321.14703
321.14707
321.14708
321.14712
321.14713
321.14713
321.14708
321.14698
321.14695
321.14694
326.59285
326.59288
326.59288
326.59299
326.593
326.59297
326.59293
326.59287
326.59282
326.59278
326.59288
326.59287
326.59292
326.59301
326.59302
326.59299
326.59295
326.59287
326.59284
326.59282
326.59288
326.59292
326.59296
326.59305
326.59305
326.59303
326.59298
326.59288
326.59284
326.59283
326.59299
326.59301
326.59305
326.59313
326.59313
326.59311
326.59307
326.59296
326.5929
326.59288
326.593
326.59302
326.59305
326.59313
326.59314
326.59313
326.59308
326.59298
326.59292
326.59289
326.59297
326.59299
326.59303
326.59311
326.59313
326.59311
326.59307
326.59298
326.59291
326.59289
326.59293
326.59295
326.59298
326.59307
326.59308
326.59307
326.59303
326.59293
326.59287
326.59284
326.59287
326.59287
326.59288
326.59296
326.59298
326.59298
326.59293
326.59283
326.59276
326.59273
326.59282
326.59284
326.59284
326.5929
326.59292
326.59291
326.59287
326.59276
326.59269
326.5927
326.59278
326.59282
326.59283
326.59288
326.59289
326.59289
326.59284
326.59273
326.5927
326.59269
332.31252
332.31255
332.31255
332.31266
332.31267
332.31265
332.3126
332.31254
332.31249
332.31245
332.31255
332.31254
332.3126
332.31269
332.31269
332.31267
332.31262
332.31254
332.31251
332.3125
332.31255
332.3126
332.31264
332.31272
332.31273
332.31271
332.31266
332.31256
332.31251
332.3125
332.31266
332.31269
332.31272
332.31281
332.31281
332.31279
332.31274
332.31264
332.31257
332.31255
332.31267
332.31269
332.31273
332.31281
332.31282
332.31281
332.31276
332.31266
332.31259
332.31257
332.31265
332.31267
332.31271
332.31279
332.31281
332.31279
332.31275
332.31265
332.31259
332.31256
332.3126
332.31262
332.31266
332.31274
332.31276
332.31275
332.31271
332.31261
332.31254
332.31251
332.31254
332.31254
332.31256
332.31264
332.31266
332.31265
332.31261
332.31251
332.31243
332.3124
332.31249
332.31251
332.31251
332.31257
332.31259
332.31259
332.31254
332.31243
332.31236
332.31237
332.31245
332.3125
332.3125
332.31255
332.31257
332.31256
332.31251
332.3124
332.31237
332.31235
338.318
338.31803
338.31803
338.31814
338.31815
338.31813
338.31808
338.31801
338.31797
338.31792
338.31803
338.31802
338.31807
338.31817
338.31817
338.31815
338.3181
338.31801
338.31798
338.31797
338.31803
338.31807
338.31811
338.3182
338.31821
338.31818
338.31813
338.31803
338.31798
338.31798
338.31814
338.31817
338.3182
338.31828
338.31829
338.31827
338.31822
338.31811
338.31804
338.31802
338.31815
338.31817
338.31821
338.31829
338.3183
338.31828
338.31824
338.31814
338.31807
338.31804
338.31813
338.31815
338.31818
338.31827
338.31828
338.31827
338.31823
338.31813
338.31806
338.31804
338.31808
338.3181
338.31813
338.31822
338.31824
338.31823
338.3182
338.31809
338.31802
338.31799
338.31801
338.31801
338.31803
338.31811
338.31814
338.31813
338.31809
338.31798
338.3179
338.31787
338.31797
338.31798
338.31798
338.31804
338.31807
338.31806
338.31802
338.3179
338.31783
338.31785
338.31792
338.31797
338.31798
338.31802
338.31804
338.31804
338.31799
338.31787
338.31785
338.31783
344.61884
344.61887
344.61887
344.61898
344.61899
344.61896
344.61892
344.61885
344.6188
344.61876
344.61887
344.61886
344.61891
344.619
344.61901
344.61898
344.61893
344.61885
344.61882
344.6188
344.61887
344.61891
344.61895
344.61904
344.61904
344.61902
344.61897
344.61887
344.61882
344.61881
344.61898
344.619
344.61904
344.61912
344.61913
344.61911
344.61906
344.61895
344.61888
344.61886
344.61899
344.61901
344.61904
344.61913
344.61914
344.61913
344.61908
344.61898
344.61891
344.61888
344.61896
344.61898
344.61902
344.61911
344.61913
344.61912
344.61908
344.61897
344.6189
344.61888
344.61892
344.61893
344.61897
344.61906
344.61908
344.61908
344.61904
344.61893
344.61886
344.61883
344.61885
344.61885
344.61887
344.61895
344.61898
344.61897
344.61893
344.61882
344.61874
344.61871
344.6188
344.61882
344.61882
344.61888
344.61891
344.6189
344.61886
344.61874
344.61867
344.61868
344.61876
344.6188
344.61881
344.61886
344.61888
344.61888
344.61883
344.61871
344.61868
344.61866
351.2222
351.22223
351.22223
351.22234
351.22235
351.22233
351.22228
351.22221
351.22217
351.22212
351.22223
351.22222
351.22227
351.22237
351.22237
351.22235
351.2223
351.22221
351.22218
351.22217
351.22223
351.22227
351.22232
351.2224
351.22241
351.22238
351.22233
351.22223
351.22218
351.22218
351.22234
351.22237
351.2224
351.22248
351.22249
351.22247
351.22243
351.22232
351.22225
351.22223
351.22235
351.22237
351.22241
351.22249
351.2225
351.22249
351.22245
351.22234
351.22227
351.22225
351.22233
351.22235
351.22238
351.22247
351.22249
351.22248
351.22245
351.22234
351.22227
351.22225
351.22228
351.2223
351.22233
351.22243
351.22245
351.22245
351.22241
351.2223
351.22223
351.2222
351.22221
351.22221
351.22223
351.22232
351.22234
351.22234
351.2223
351.22219
351.22211
351.22207
351.22217
351.22218
351.22218
351.22225
351.22227
351.22227
351.22223
351.22211
351.22204
351.22205
351.22212
351.22217
351.22218
351.22223
351.22225
351.22225
351.2222
351.22207
351.22205
351.22203
358.1328
358.13283
358.13282
358.13294
358.13295
358.13292
358.13287
358.13281
358.13276
358.13272
358.13283
358.13282
358.13287
358.13296
358.13296
358.13294
358.13289
358.13281
358.13278
358.13276
358.13282
358.13287
358.13291
358.13299
358.133
358.13298
358.13293
358.13282
358.13277
358.13277
358.13294
358.13296
358.13299
358.13307
358.13308
358.13307
358.13302
358.13291
358.13284
358.13282
358.13295
358.13296
358.133
358.13308
358.13309
358.13308
358.13304
358.13294
358.13287
358.13285
358.13292
358.13294
358.13298
358.13307
358.13308
358.13308
358.13304
358.13294
358.13287
358.13285
358.13287
358.13289
358.13293
358.13302
358.13304
358.13304
358.13301
358.1329
358.13283
358.1328
358.13281
358.13281
358.13282
358.13291
358.13294
358.13294
358.1329
358.13279
358.13271
358.13267
358.13276
358.13278
358.13277
358.13284
358.13287
358.13287
358.13283
358.13271
358.13264
358.13266
358.13272
358.13276
358.13277
358.13282
358.13285
358.13285
358.1328
358.13267
358.13266
358.13264
365.35283
365.35286
365.35286
365.35297
365.35298
365.35295
365.35291
365.35284
365.3528
365.35275
365.35286
365.35285
365.3529
365.35299
365.35299
365.35297
365.35292
365.35284
365.35281
365.3528
365.35286
365.3529
365.35294
365.35302
365.35302
365.35301
365.35296
365.35285
365.35281
365.35281
365.35297
365.35299
365.35302
365.3531
365.35311
365.35309
365.35305
365.35294
365.35288
365.35286
365.35298
365.35299
365.35302
365.35311
365.35312
365.35311
365.35308
365.35297
365.35291
365.35289
365.35295
365.35297
365.35301
365.35309
365.35311
365.35311
365.35308
365.35297
365.35291
365.35289
365.35291
365.35292
365.35296
365.35305
365.35308
365.35308
365.35305
365.35294
365.35287
365.35284
365.35284
365.35284
365.35285
365.35294
365.35297
365.35297
365.35294
365.35283
365.35275
365.35272
365.3528
365.35281
365.35281
365.35288
365.35291
365.35291
365.35287
365.35275
365.35268
365.3527
365.35275
365.3528
365.35281
365.35286
365.35289
365.35289
365.35284
365.35272
365.3527
365.35268
372.88202
372.88205
372.88204
372.88215
372.88216
372.88213
372.88209
372.88203
372.88198
372.88194
372.88205
372.88203
372.88208
372.88217
372.88217
372.88215
372.88211
372.88203
372.882
372.88199
372.88204
372.88208
372.88212
372.8822
372.8822
372.88218
372.88214
372.88204
372.88199
372.882
372.88215
372.88217
372.8822
372.88228
372.88228
372.88227
372.88223
372.88213
372.88206
372.88205
372.88216
372.88217
372.8822
372.88228
372.88229
372.88229
372.88226
372.88216
372.88209
372.88208
372.88213
372.88215
372.88218
372.88227
372.88229
372.88229
372.88226
372.88216
372.8821
372.88208
372.88209
372.88211
372.88214
372.88223
372.88226
372.88226
372.88224
372.88213
372.88207
372.88204
372.88203
372.88203
372.88204
372.88213
372.88216
372.88216
372.88213
372.88202
372.88195
372.88191
372.88198
372.882
372.88199
372.88206
372.88209
372.8821
372.88207
372.88195
372.88188
372.8819
372.88194
372.88199
372.882
372.88205
372.88208
372.88208
372.88204
372.88191
372.8819
372.88188
380.71758
380.71761
380.7176
380.71771
380.71771
380.71769
380.71765
380.71759
380.71755
380.71751
380.71761
380.71759
380.71764
380.71772
380.71773
380.71771
380.71767
380.71759
380.71756
380.71756
380.7176
380.71764
380.71767
380.71775
380.71775
380.71774
380.7177
380.7176
380.71756
380.71756
380.71771
380.71772
380.71775
380.71783
380.71783
380.71782
380.71779
380.71769
380.71763
380.71761
380.71771
380.71773
380.71775
380.71783
380.71784
380.71784
380.71781
380.71772
380.71766
380.71764
380.71769
380.71771
380.71774
380.71782
380.71784
380.71784
380.71782
380.71773
380.71767
380.71765
380.71765
380.71767
380.7177
380.71779
380.71781
380.71782
380.7178
380.7177
380.71764
380.71761
380.71759
380.71759
380.7176
380.71769
380.71772
380.71773
380.7177
380.7176
380.71752
380.71749
380.71755
380.71756
380.71756
380.71763
380.71766
380.71767
380.71764
380.71752
380.71746
380.71748
380.71751
380.71756
380.71756
380.71761
380.71764
380.71765
380.71761
380.71749
380.71748
380.71746
388.85431
388.85433
388.85433
388.85443
388.85443
388.85441
388.85438
388.85432
388.85428
388.85424
388.85433
388.85432
388.85436
388.85444
388.85445
388.85443
388.85439
388.85432
388.8543
388.85429
388.85433
388.85436
388.85439
388.85447
388.85447
388.85446
388.85442
388.85433
388.85429
388.8543
388.85443
388.85444
388.85447
388.85454
388.85455
388.85454
388.85451
388.85441
388.85436
388.85435
388.85443
388.85445
388.85447
388.85455
388.85456
388.85456
388.85454
388.85444
388.85439
388.85438
388.85441
388.85443
388.85446
388.85454
388.85456
388.85457
388.85455
388.85446
388.8544
388.85439
388.85438
388.85439
388.85442
388.85451
388.85454
388.85455
388.85453
388.85444
388.85438
388.85435
388.85432
388.85432
388.85433
388.85441
388.85444
388.85446
388.85444
388.85434
388.85427
388.85424
388.85428
388.8543
388.85429
388.85436
388.85439
388.8544
388.85438
388.85427
388.85421
388.85423
388.85424
388.85429
388.8543
388.85435
388.85438
388.85439
388.85435
388.85424
388.85423
388.85422
397.28463
397.28465
397.28464
397.28474
397.28474
397.28472
397.28469
397.28464
397.28461
397.28457
397.28465
397.28464
397.28467
397.28475
397.28475
397.28474
397.2847
397.28464
397.28462
397.28461
397.28464
397.28467
397.2847
397.28477
397.28478
397.28477
397.28473
397.28465
397.28461
397.28462
397.28474
397.28475
397.28477
397.28484
397.28485
397.28485
397.28482
397.28473
397.28468
397.28467
397.28474
397.28475
397.28478
397.28485
397.28486
397.28487
397.28485
397.28476
397.28471
397.2847
397.28472
397.28474
397.28477
397.28485
397.28487
397.28487
397.28486
397.28478
397.28473
397.28472
397.28469
397.2847
397.28473
397.28482
397.28485
397.28486
397.28485
397.28476
397.28471
397.28469
397.28464
397.28464
397.28465
397.28473
397.28476
397.28478
397.28476
397.28467
397.28461
397.28458
397.28461
397.28462
397.28461
397.28468
397.28471
397.28473
397.28471
397.28461
397.28455
397.28458
397.28457
397.28461
397.28462
397.28467
397.2847
397.28472
397.28469
397.28458
397.28458
397.28456
405.99869
405.99871
405.9987
405.99879
405.99879
405.99878
405.99875
405.9987
405.99867
405.99864
405.99871
405.99869
405.99873
405.9988
405.9988
405.99879
405.99876
405.9987
405.99868
405.99868
405.9987
405.99873
405.99875
405.99882
405.99882
405.99881
405.99879
405.99871
405.99868
405.99869
405.99879
405.9988
405.99882
405.99888
405.99889
405.99889
405.99887
405.99879
405.99874
405.99874
405.99879
405.9988
405.99882
405.99889
405.9989
405.99891
405.9989
405.99882
405.99878
405.99877
405.99878
405.99879
405.99881
405.99889
405.99891
405.99892
405.99892
405.99884
405.9988
405.99879
405.99875
405.99876
405.99879
405.99887
405.9989
405.99892
405.99891
405.99883
405.99878
405.99877
405.9987
405.9987
405.99871
405.99879
405.99882
405.99884
405.99883
405.99875
405.99869
405.99866
405.99867
405.99868
405.99868
405.99874
405.99878
405.9988
405.99878
405.99869
405.99863
405.99866
405.99864
405.99868
405.99869
405.99874
405.99877
405.99879
405.99877
405.99866
405.99866
405.99865
414.98449
414.98451
414.9845
414.98459
414.98459
414.98458
414.98455
414.98451
414.98448
414.98445
414.98451
414.9845
414.98453
414.98459
414.9846
414.98459
414.98456
414.9845
414.9845
414.9845
414.9845
414.98453
414.98455
414.98461
414.98461
414.98461
414.98459
414.98451
414.98449
414.9845
414.98459
414.98459
414.98461
414.98467
414.98468
414.98468
414.98467
414.98459
414.98455
414.98455
414.98459
414.9846
414.98461
414.98468
414.98469
414.9847
414.9847
414.98463
414.98459
414.98459
414.98458
414.98459
414.98461
414.98468
414.9847
414.98472
414.98472
414.98465
414.98461
414.98461
414.98455
414.98456
414.98459
414.98467
414.9847
414.98472
414.98472
414.98465
414.9846
414.98459
414.98451
414.9845
414.98451
414.98459
414.98463
414.98465
414.98465
414.98457
414.98451
414.98449
414.98448
414.9845
414.98449
414.98455
414.98459
414.98461
414.9846
414.98451
414.98447
414.9845
414.98445
414.9845
414.9845
414.98455
414.98459
414.98461
414.98459
414.98449
414.9845
414.98449
424.22804
424.22805
424.22804
424.22812
424.22813
424.22811
424.2281
424.22806
424.22804
424.22801
424.22805
424.22804
424.22806
424.22813
424.22813
424.22812
424.2281
424.22805
424.22805
424.22805
424.22804
424.22806
424.22808
424.22814
424.22814
424.22814
424.22813
424.22806
424.22804
424.22806
424.22812
424.22813
424.22814
424.2282
424.22821
424.22821
424.22821
424.22814
424.2281
424.22811
424.22813
424.22813
424.22814
424.22821
424.22822
424.22823
424.22824
424.22817
424.22814
424.22814
424.22811
424.22812
424.22814
424.22821
424.22823
424.22825
424.22826
424.2282
424.22817
424.22817
424.2281
424.2281
424.22813
424.22821
424.22824
424.22826
424.22827
424.2282
424.22817
424.22815
424.22806
424.22805
424.22806
424.22814
424.22817
424.2282
424.2282
424.22813
424.22808
424.22806
424.22804
424.22805
424.22804
424.2281
424.22814
424.22817
424.22817
424.22808
424.22804
424.22807
424.22801
424.22805
424.22806
424.22811
424.22814
424.22817
424.22815
424.22806
424.22807
424.22806
433.71347
433.71349
433.71347
433.71355
433.71355
433.71354
433.71353
433.7135
433.71348
433.71346
433.71349
433.71347
433.71349
433.71355
433.71355
433.71355
433.71354
433.71349
433.71349
433.7135
433.71347
433.71349
433.71351
433.71356
433.71356
433.71357
433.71356
433.7135
433.71349
433.71351
433.71355
433.71355
433.71356
433.71361
433.71362
433.71363
433.71363
433.71357
433.71355
433.71355
433.71355
433.71355
433.71356
433.71362
433.71364
433.71365
433.71366
433.71361
433.71358
433.71359
433.71354
433.71355
433.71357
433.71363
433.71365
433.71368
433.71369
433.71364
433.71362
433.71362
433.71353
433.71354
433.71356
433.71363
433.71366
433.71369
433.7137
433.71365
433.71362
433.71361
433.7135
433.71349
433.7135
433.71357
433.71361
433.71364
433.71365
433.71358
433.71354
433.71353
433.71348
433.71349
433.71349
433.71355
433.71358
433.71362
433.71362
433.71354
433.71351
433.71354
433.71346
433.7135
433.71351
433.71355
433.71359
433.71362
433.71361
433.71353
433.71354
433.71353
443.42327
443.42329
443.42327
443.42334
443.42334
443.42334
443.42333
443.42331
443.4233
443.42327
443.42329
443.42327
443.42329
443.42334
443.42334
443.42334
443.42334
443.4233
443.4233
443.42331
443.42327
443.42329
443.4233
443.42335
443.42335
443.42336
443.42336
443.4233
443.4233
443.42332
443.42334
443.42334
443.42335
443.42339
443.4234
443.42342
443.42342
443.42337
443.42335
443.42336
443.42334
443.42334
443.42335
443.4234
443.42342
443.42344
443.42346
443.42341
443.42339
443.4234
443.42334
443.42334
443.42336
443.42342
443.42344
443.42347
443.42349
443.42344
443.42343
443.42343
443.42333
443.42334
443.42336
443.42342
443.42346
443.42349
443.42351
443.42346
443.42344
443.42343
443.42331
443.4233
443.4233
443.42337
443.42341
443.42344
443.42346
443.4234
443.42337
443.42336
443.4233
443.4233
443.4233
443.42335
443.42339
443.42343
443.42344
443.42337
443.42334
443.42337
443.42327
443.42331
443.42332
443.42336
443.4234
443.42343
443.42343
443.42336
443.42337
443.42337
453.33844
453.33845
453.33844
453.3385
453.3385
453.3385
453.3385
453.33848
453.33847
453.33846
453.33845
453.33843
453.33845
453.33849
453.3385
453.3385
453.3385
453.33847
453.33848
453.33849
453.33844
453.33845
453.33846
453.3385
453.3385
453.33852
453.33852
453.33848
453.33848
453.3385
453.3385
453.33849
453.3385
453.33854
453.33855
453.33857
453.33858
453.33854
453.33853
453.33854
453.3385
453.3385
453.3385
453.33855
453.33857
453.3386
453.33861
453.33858
453.33857
453.33858
453.3385
453.3385
453.33852
453.33857
453.3386
453.33863
453.33865
453.33861
453.33861
453.33861
453.3385
453.3385
453.33852
453.33858
453.33861
453.33865
453.33867
453.33864
453.33862
453.33862
453.33848
453.33847
453.33848
453.33854
453.33858
453.33861
453.33864
453.33859
453.33856
453.33855
453.33847
453.33848
453.33848
453.33853
453.33857
453.33861
453.33862
453.33856
453.33854
453.33857
453.33846
453.33849
453.3385
453.33854
453.33858
453.33861
453.33862
453.33855
453.33857
453.33857
463.43869
463.4387
463.43868
463.43874
463.43874
463.43874
463.43875
463.43873
463.43873
463.43872
463.4387
463.43868
463.43869
463.43873
463.43874
463.43874
463.43875
463.43872
463.43874
463.43875
463.43868
463.43869
463.43869
463.43873
463.43874
463.43875
463.43876
463.43873
463.43873
463.43876
463.43874
463.43873
463.43873
463.43877
463.43879
463.43881
463.43882
463.43879
463.43878
463.4388
463.43874