/*--------------------------------*- C++ -*----------------------------------*\
| =========                 |                                                 |
| \\      /  F ield         | OpenFOAM: The Open Source CFD Toolbox           |
|  \\    /   O peration     | Version:  v2106                                 |
|   \\  /    A nd           | Website:  www.openfoam.com                      |
|    \\/     M anipulation  |                                                 |
\*---------------------------------------------------------------------------*/
FoamFile
{
    version     2.0;
    format      ascii;
    arch        "LSB;label=32;scalar=64";
    class       volScalarField;
    location    "90";
    object      gradTz;
}
// * * * * * * * * * * * * * * * * * * * * * * * * * * * * * * * * * * * * * //

dimensions      [0 -1 0 1 0 0 0];

internalField   nonuniform List<scalar> 
4000
(
562.0391
562.04215
562.04378
562.0448
562.04531
562.04537
562.04501
562.04432
562.0434
562.04254
562.04215
562.04491
562.04648
562.04747
562.04796
562.04799
562.04761
562.04687
562.04583
562.04464
562.04378
562.04648
562.048
562.04895
562.04941
562.04942
562.049
562.0482
562.04709
562.04579
562.0448
562.04747
562.04895
562.04987
562.0503
562.05028
562.04982
562.04898
562.04781
562.04648
562.04531
562.04796
562.04941
562.0503
562.0507
562.05064
562.05016
562.04928
562.04808
562.04672
562.04537
562.04799
562.04942
562.05028
562.05064
562.05055
562.05003
562.04913
562.0479
562.04653
562.04501
562.04761
562.049
562.04982
562.05016
562.05003
562.04949
562.04855
562.04731
562.04592
562.04432
562.04687
562.0482
562.04898
562.04928
562.04913
562.04855
562.0476
562.04633
562.04493
562.0434
562.04583
562.04709
562.04781
562.04808
562.0479
562.04731
562.04633
562.04504
562.04362
562.04254
562.04464
562.04579
562.04648
562.04672
562.04653
562.04592
562.04493
562.04362
562.04218
1141.429
1141.4343
1141.4373
1141.4393
1141.4402
1141.4403
1141.4396
1141.4381
1141.4361
1141.434
1141.4343
1141.4391
1141.442
1141.4438
1141.4448
1141.4448
1141.444
1141.4425
1141.4402
1141.4374
1141.4373
1141.442
1141.4448
1141.4466
1141.4475
1141.4474
1141.4466
1141.4449
1141.4425
1141.4395
1141.4393
1141.4438
1141.4466
1141.4484
1141.4492
1141.4491
1141.4481
1141.4464
1141.4439
1141.4408
1141.4402
1141.4448
1141.4475
1141.4492
1141.4499
1141.4497
1141.4487
1141.4469
1141.4444
1141.4412
1141.4403
1141.4448
1141.4474
1141.4491
1141.4497
1141.4495
1141.4485
1141.4466
1141.444
1141.4408
1141.4396
1141.444
1141.4466
1141.4481
1141.4487
1141.4485
1141.4473
1141.4454
1141.4428
1141.4395
1141.4381
1141.4425
1141.4449
1141.4464
1141.4469
1141.4466
1141.4454
1141.4435
1141.4408
1141.4375
1141.4361
1141.4402
1141.4425
1141.4439
1141.4444
1141.444
1141.4428
1141.4408
1141.438
1141.4347
1141.434
1141.4374
1141.4395
1141.4408
1141.4412
1141.4408
1141.4395
1141.4375
1141.4347
1141.4312
1098.1706
1098.1748
1098.1773
1098.1789
1098.1797
1098.1797
1098.1789
1098.1774
1098.1754
1098.1728
1098.1748
1098.1786
1098.181
1098.1826
1098.1833
1098.1833
1098.1825
1098.1809
1098.1786
1098.1753
1098.1773
1098.181
1098.1833
1098.1849
1098.1856
1098.1855
1098.1846
1098.1829
1098.1804
1098.177
1098.1789
1098.1826
1098.1849
1098.1863
1098.187
1098.1868
1098.1859
1098.1841
1098.1816
1098.1781
1098.1797
1098.1833
1098.1856
1098.187
1098.1876
1098.1874
1098.1863
1098.1845
1098.1819
1098.1784
1098.1797
1098.1833
1098.1855
1098.1868
1098.1874
1098.1871
1098.186
1098.1841
1098.1815
1098.1779
1098.1789
1098.1825
1098.1846
1098.1859
1098.1863
1098.186
1098.1849
1098.183
1098.1802
1098.1766
1098.1774
1098.1809
1098.1829
1098.1841
1098.1845
1098.1841
1098.183
1098.181
1098.1782
1098.1746
1098.1754
1098.1786
1098.1804
1098.1816
1098.1819
1098.1815
1098.1802
1098.1782
1098.1754
1098.1717
1098.1728
1098.1753
1098.177
1098.1781
1098.1784
1098.1779
1098.1766
1098.1746
1098.1717
1098.1678
1059.3847
1059.3884
1059.3905
1059.3919
1059.3925
1059.3924
1059.3916
1059.3901
1059.388
1059.3854
1059.3884
1059.3917
1059.3937
1059.3951
1059.3957
1059.3955
1059.3946
1059.3931
1059.3907
1059.3875
1059.3905
1059.3937
1059.3957
1059.397
1059.3975
1059.3974
1059.3964
1059.3947
1059.3923
1059.3889
1059.3919
1059.3951
1059.397
1059.3982
1059.3987
1059.3985
1059.3975
1059.3957
1059.3932
1059.3897
1059.3925
1059.3957
1059.3975
1059.3987
1059.3992
1059.3988
1059.3978
1059.396
1059.3934
1059.3899
1059.3924
1059.3955
1059.3974
1059.3985
1059.3988
1059.3985
1059.3974
1059.3955
1059.3929
1059.3894
1059.3916
1059.3946
1059.3964
1059.3975
1059.3978
1059.3974
1059.3962
1059.3943
1059.3917
1059.3881
1059.3901
1059.3931
1059.3947
1059.3957
1059.396
1059.3955
1059.3943
1059.3924
1059.3897
1059.3861
1059.388
1059.3907
1059.3923
1059.3932
1059.3934
1059.3929
1059.3917
1059.3897
1059.3869
1059.3832
1059.3854
1059.3875
1059.3889
1059.3897
1059.3899
1059.3894
1059.3881
1059.3861
1059.3832
1059.3794
1024.3387
1024.342
1024.3439
1024.345
1024.3455
1024.3453
1024.3444
1024.3429
1024.3409
1024.3384
1024.342
1024.3449
1024.3467
1024.3478
1024.3483
1024.348
1024.3471
1024.3456
1024.3433
1024.3402
1024.3439
1024.3467
1024.3484
1024.3495
1024.3499
1024.3496
1024.3486
1024.347
1024.3446
1024.3414
1024.345
1024.3478
1024.3495
1024.3505
1024.3508
1024.3505
1024.3495
1024.3478
1024.3453
1024.3421
1024.3455
1024.3483
1024.3499
1024.3508
1024.3511
1024.3508
1024.3497
1024.3479
1024.3454
1024.3421
1024.3453
1024.348
1024.3496
1024.3505
1024.3508
1024.3503
1024.3492
1024.3474
1024.3449
1024.3415
1024.3444
1024.3471
1024.3486
1024.3495
1024.3497
1024.3492
1024.3481
1024.3462
1024.3436
1024.3403
1024.3429
1024.3456
1024.347
1024.3478
1024.3479
1024.3474
1024.3462
1024.3443
1024.3417
1024.3383
1024.3409
1024.3433
1024.3446
1024.3453
1024.3454
1024.3449
1024.3436
1024.3417
1024.339
1024.3355
1024.3384
1024.3402
1024.3414
1024.3421
1024.3421
1024.3415
1024.3403
1024.3383
1024.3355
1024.3319
992.45828
992.46124
992.46284
992.4638
992.46414
992.46388
992.46302
992.46158
992.45962
992.45729
992.46124
992.46387
992.46539
992.46632
992.46664
992.46635
992.46545
992.46393
992.46179
992.45892
992.46284
992.46539
992.46686
992.46774
992.46802
992.46769
992.46674
992.46516
992.4629
992.45989
992.4638
992.46632
992.46774
992.46858
992.46882
992.46845
992.46744
992.46579
992.46346
992.4604
992.46414
992.46664
992.46802
992.46882
992.46901
992.4686
992.46755
992.46585
992.46347
992.46037
992.46388
992.46635
992.46769
992.46845
992.4686
992.46813
992.46704
992.4653
992.46288
992.45976
992.46302
992.46545
992.46674
992.46744
992.46755
992.46704
992.4659
992.46412
992.46167
992.45853
992.46158
992.46393
992.46516
992.46579
992.46585
992.4653
992.46412
992.4623
992.4598
992.45663
992.45962
992.46179
992.4629
992.46346
992.46347
992.46288
992.46167
992.4598
992.45725
992.45401
992.45729
992.45892
992.45989
992.4604
992.46037
992.45976
992.45853
992.45663
992.45401
992.45056
963.28644
963.28908
963.29047
963.29127
963.29152
963.29121
963.29036
963.28899
963.28714
963.28498
963.28908
963.29143
963.29275
963.29352
963.29374
963.2934
963.29252
963.29108
963.28907
963.28641
963.29047
963.29275
963.29402
963.29475
963.29493
963.29456
963.29363
963.29213
963.29001
963.28723
963.29127
963.29352
963.29475
963.29544
963.29558
963.29517
963.2942
963.29263
963.29046
963.28762
963.29152
963.29374
963.29493
963.29558
963.29569
963.29524
963.29422
963.29261
963.29039
963.28753
963.29121
963.2934
963.29456
963.29517
963.29524
963.29475
963.29369
963.29204
963.28979
963.2869
963.29036
963.29252
963.29363
963.2942
963.29422
963.29369
963.29259
963.2909
963.28862
963.28571
963.28899
963.29108
963.29213
963.29263
963.29261
963.29204
963.2909
963.28918
963.28685
963.28392
963.28714
963.28907
963.29001
963.29046
963.29039
963.28979
963.28862
963.28685
963.28447
963.28147
963.28498
963.28641
963.28723
963.28762
963.28753
963.2869
963.28571
963.28392
963.28147
963.27828
936.45448
936.45683
936.45802
936.45868
936.45884
936.4585
936.45768
936.4564
936.45469
936.4527
936.45683
936.4589
936.46003
936.46066
936.4608
936.46044
936.45959
936.45824
936.45639
936.45396
936.45802
936.46003
936.46112
936.46171
936.46182
936.46143
936.46054
936.45913
936.45718
936.45464
936.45868
936.46066
936.46171
936.46228
936.46235
936.46192
936.46099
936.45953
936.45752
936.45493
936.45884
936.4608
936.46182
936.46235
936.46238
936.46192
936.46095
936.45944
936.4574
936.45478
936.4585
936.46044
936.46143
936.46192
936.46192
936.46142
936.46041
936.45887
936.45679
936.45416
936.45768
936.45959
936.46054
936.46099
936.46095
936.46041
936.45936
936.45779
936.45568
936.45303
936.4564
936.45824
936.45913
936.45953
936.45944
936.45887
936.45779
936.45618
936.45404
936.45136
936.45469
936.45639
936.45718
936.45752
936.4574
936.45679
936.45568
936.45404
936.45185
936.4491
936.4527
936.45396
936.45464
936.45493
936.45478
936.45416
936.45303
936.45136
936.4491
936.44618
911.66126
911.66332
911.66433
911.66487
911.66496
911.6646
911.66383
911.66263
911.66108
911.65927
911.66332
911.66513
911.66608
911.66659
911.66666
911.66629
911.66549
911.66424
911.66255
911.66035
911.66433
911.66608
911.667
911.66748
911.66752
911.66712
911.66628
911.66498
911.6632
911.66091
911.66487
911.66659
911.66748
911.66793
911.66794
911.66751
911.66663
911.66528
911.66345
911.66112
911.66496
911.66666
911.66752
911.66794
911.66792
911.66745
911.66654
911.66516
911.66329
911.66094
911.6646
911.66629
911.66712
911.66751
911.66745
911.66696
911.66601
911.6646
911.66271
911.66033
911.66383
911.66549
911.66628
911.66663
911.66654
911.66601
911.66503
911.66358
911.66167
911.65927
911.66263
911.66424
911.66498
911.66528
911.66516
911.6646
911.66358
911.66211
911.66016
911.65774
911.66108
911.66255
911.6632
911.66345
911.66329
911.66271
911.66167
911.66016
911.65816
911.65568
911.65927
911.66035
911.66091
911.66112
911.66094
911.66033
911.65927
911.65774
911.65568
911.65304
888.65812
888.6599
888.66074
888.66116
888.66119
888.66084
888.66011
888.65902
888.65762
888.65601
888.6599
888.66145
888.66224
888.66264
888.66265
888.66228
888.66153
888.6604
888.65888
888.65692
888.66074
888.66224
888.663
888.66337
888.66336
888.66296
888.66218
888.661
888.6594
888.65736
888.66116
888.66264
888.66337
888.66371
888.66368
888.66325
888.66244
888.66122
888.65958
888.6575
888.66119
888.66265
888.66336
888.66368
888.66361
888.66316
888.66231
888.66106
888.65939
888.65729
888.66084
888.66228
888.66296
888.66325
888.66316
888.66268
888.6618
888.66052
888.65883
888.65671
888.66011
888.66153
888.66218
888.66244
888.66231
888.6618
888.6609
888.65959
888.65787
888.65574
888.65902
888.6604
888.661
888.66122
888.66106
888.66052
888.65959
888.65825
888.6565
888.65434
888.65762
888.65888
888.6594
888.65958
888.65939
888.65883
888.65787
888.6565
888.65471
888.6525
888.65601
888.65692
888.65736
888.6575
888.65729
888.65671
888.65574
888.65434
888.6525
888.65014
867.23773
867.23923
867.23991
867.24023
867.24021
867.23986
867.23919
867.23822
867.23698
867.23555
867.23923
867.24053
867.24117
867.24147
867.24143
867.24107
867.24038
867.23937
867.23802
867.2363
867.23991
867.24117
867.24177
867.24205
867.24199
867.24161
867.24089
867.23984
867.23843
867.23664
867.24023
867.24147
867.24205
867.2423
867.24222
867.24181
867.24107
867.23998
867.23853
867.23671
867.24021
867.24143
867.24199
867.24222
867.24212
867.24169
867.24092
867.2398
867.23833
867.23648
867.23986
867.24107
867.24161
867.24181
867.24169
867.24123
867.24043
867.23929
867.2378
867.23594
867.23919
867.24038
867.24089
867.24107
867.24092
867.24043
867.23961
867.23845
867.23693
867.23506
867.23822
867.23937
867.23984
867.23998
867.2398
867.23929
867.23845
867.23725
867.23571
867.23382
867.23698
867.23802
867.23843
867.23853
867.23833
867.2378
867.23693
867.23571
867.23413
867.23219
867.23555
867.2363
867.23664
867.23671
867.23648
867.23594
867.23506
867.23382
867.23219
867.23011
847.22569
847.22692
847.22744
847.22766
847.2276
847.22727
847.22666
847.22581
847.22472
847.22349
847.22692
847.22797
847.22846
847.22866
847.22859
847.22824
847.22762
847.22673
847.22556
847.22408
847.22744
847.22846
847.22892
847.22911
847.22902
847.22865
847.22801
847.22708
847.22586
847.22432
847.22766
847.22866
847.22911
847.22927
847.22916
847.22878
847.22811
847.22715
847.2259
847.22433
847.2276
847.22859
847.22902
847.22916
847.22903
847.22862
847.22793
847.22696
847.22568
847.2241
847.22727
847.22824
847.22865
847.22878
847.22862
847.2282
847.22748
847.22648
847.22519
847.2236
847.22666
847.22762
847.22801
847.22811
847.22793
847.22748
847.22675
847.22573
847.22442
847.22281
847.22581
847.22673
847.22708
847.22715
847.22696
847.22648
847.22573
847.22469
847.22335
847.22173
847.22472
847.22556
847.22586
847.2259
847.22568
847.22519
847.22442
847.22335
847.22198
847.22032
847.22349
847.22408
847.22432
847.22433
847.2241
847.2236
847.22281
847.22173
847.22032
847.21853
828.4741
828.47506
828.47543
828.47557
828.47547
828.47515
828.47462
828.47388
828.47296
828.47192
828.47506
828.47587
828.47622
828.47634
828.47623
828.4759
828.47535
828.47459
828.4736
828.47235
828.47543
828.47622
828.47654
828.47665
828.47653
828.47618
828.47562
828.47482
828.47379
828.4725
828.47557
828.47634
828.47665
828.47673
828.4766
828.47624
828.47565
828.47483
828.47377
828.47246
828.47547
828.47623
828.47653
828.4766
828.47644
828.47607
828.47546
828.47462
828.47355
828.47222
828.47515
828.4759
828.47618
828.47624
828.47607
828.47567
828.47505
828.47419
828.4731
828.47177
828.47462
828.47535
828.47562
828.47565
828.47546
828.47505
828.47441
828.47354
828.47243
828.47109
828.47388
828.47459
828.47482
828.47483
828.47462
828.47419
828.47354
828.47265
828.47152
828.47016
828.47296
828.4736
828.47379
828.47377
828.47355
828.4731
828.47243
828.47152
828.47036
828.46896
828.47192
828.47235
828.4725
828.47246
828.47222
828.47177
828.47109
828.47016
828.46896
828.46746
810.85663
810.85732
810.85756
810.8576
810.85747
810.85718
810.85672
810.8561
810.85534
810.85449
810.85732
810.8579
810.85811
810.85815
810.85802
810.85771
810.85724
810.8566
810.85578
810.85478
810.85756
810.85811
810.85831
810.85833
810.85819
810.85787
810.85738
810.85672
810.85588
810.85483
810.8576
810.85815
810.85833
810.85835
810.85819
810.85786
810.85736
810.85668
810.85581
810.85475
810.85747
810.85802
810.85819
810.85819
810.85802
810.85767
810.85716
810.85646
810.85558
810.85451
810.85718
810.85771
810.85787
810.85786
810.85767
810.85732
810.85679
810.85608
810.85519
810.85411
810.85672
810.85724
810.85738
810.85736
810.85716
810.85679
810.85624
810.85552
810.85462
810.85353
810.8561
810.8566
810.85672
810.85668
810.85646
810.85608
810.85552
810.85478
810.85386
810.85276
810.85534
810.85578
810.85588
810.85581
810.85558
810.85519
810.85462
810.85386
810.85292
810.85178
810.85449
810.85478
810.85483
810.85475
810.85451
810.85411
810.85353
810.85276
810.85178
810.85056
794.26462
794.26506
794.26516
794.26513
794.26497
794.2647
794.26431
794.26381
794.26322
794.26256
794.26506
794.26541
794.2655
794.26546
794.2653
794.26502
794.26463
794.26411
794.26348
794.2627
794.26516
794.2655
794.26557
794.26552
794.26536
794.26507
794.26466
794.26413
794.26347
794.26268
794.26513
794.26546
794.26552
794.26547
794.26529
794.265
794.26458
794.26403
794.26336
794.26255
794.26497
794.2653
794.26536
794.26529
794.26511
794.2648
794.26437
794.26382
794.26314
794.26232
794.2647
794.26502
794.26507
794.265
794.2648
794.26449
794.26405
794.26348
794.26279
794.26197
794.26431
794.26463
794.26466
794.26458
794.26437
794.26405
794.2636
794.26302
794.26232
794.26149
794.26381
794.26411
794.26413
794.26403
794.26382
794.26348
794.26302
794.26244
794.26172
794.26088
794.26322
794.26348
794.26347
794.26336
794.26314
794.26279
794.26232
794.26172
794.26099
794.26012
794.26256
794.2627
794.26268
794.26255
794.26232
794.26197
794.26149
794.26088
794.26012
794.25917
778.60406
778.60425
778.60423
778.60412
778.60394
778.6037
778.60338
778.603
778.60256
778.60209
778.60425
778.60439
778.60435
778.60424
778.60406
778.60381
778.6035
778.60311
778.60264
778.6021
778.60423
778.60435
778.60431
778.6042
778.60401
778.60376
778.60343
778.60303
778.60256
778.60199
778.60412
778.60424
778.6042
778.60408
778.60389
778.60363
778.60329
778.60289
778.6024
778.60183
778.60394
778.60406
778.60401
778.60389
778.60369
778.60342
778.60308
778.60267
778.60218
778.60161
778.6037
778.60381
778.60376
778.60363
778.60342
778.60315
778.60281
778.60238
778.60189
778.60131
778.60338
778.6035
778.60343
778.60329
778.60308
778.60281
778.60245
778.60203
778.60152
778.60094
778.603
778.60311
778.60303
778.60289
778.60267
778.60238
778.60203
778.60159
778.60107
778.60049
778.60256
778.60264
778.60256
778.6024
778.60218
778.60189
778.60152
778.60107
778.60055
778.59994
778.60209
778.6021
778.60199
778.60183
778.60161
778.60131
778.60094
778.60049
778.59994
778.59926
763.79311
763.79307
763.79292
763.79274
763.79255
763.79233
763.79209
763.79183
763.79154
763.79125
763.79307
763.793
763.79284
763.79267
763.79247
763.79225
763.79201
763.79174
763.79145
763.79113
763.79292
763.79284
763.79269
763.79251
763.79231
763.79209
763.79185
763.79158
763.79128
763.79095
763.79274
763.79267
763.79251
763.79233
763.79213
763.79191
763.79166
763.79139
763.79109
763.79076
763.79255
763.79247
763.79231
763.79213
763.79193
763.7917
763.79145
763.79118
763.79087
763.79054
763.79233
763.79225
763.79209
763.79191
763.7917
763.79147
763.79122
763.79094
763.79064
763.7903
763.79209
763.79201
763.79185
763.79166
763.79145
763.79122
763.79096
763.79068
763.79037
763.79003
763.79183
763.79174
763.79158
763.79139
763.79118
763.79094
763.79068
763.79039
763.79008
763.78973
763.79154
763.79145
763.79128
763.79109
763.79087
763.79064
763.79037
763.79008
763.78975
763.78939
763.79125
763.79113
763.79095
763.79076
763.79054
763.7903
763.79003
763.78973
763.78939
763.78899
749.76015
749.75988
749.75962
749.75938
749.75917
749.75898
749.75881
749.75867
749.75853
749.75842
749.75988
749.75961
749.75935
749.75911
749.7589
749.75871
749.75855
749.7584
749.75828
749.75817
749.75962
749.75935
749.75909
749.75886
749.75865
749.75846
749.7583
749.75815
749.75803
749.75792
749.75938
749.75911
749.75886
749.75862
749.75841
749.75823
749.75807
749.75792
749.7578
749.7577
749.75917
749.7589
749.75865
749.75841
749.75821
749.75802
749.75786
749.75772
749.7576
749.7575
749.75898
749.75871
749.75846
749.75823
749.75802
749.75784
749.75768
749.75753
749.75741
749.75731
749.75881
749.75855
749.7583
749.75807
749.75786
749.75768
749.75751
749.75737
749.75725
749.75715
749.75867
749.7584
749.75815
749.75792
749.75772
749.75753
749.75737
749.75723
749.7571
749.757
749.75853
749.75828
749.75803
749.7578
749.7576
749.75741
749.75725
749.7571
749.75697
749.75686
749.75842
749.75817
749.75792
749.7577
749.7575
749.75731
749.75715
749.757
749.75686
749.75671
736.44218
736.4417
736.44133
736.44103
736.4408
736.44065
736.44055
736.44052
736.44053
736.44058
736.4417
736.44124
736.44088
736.44058
736.44036
736.4402
736.44011
736.44009
736.44012
736.44022
736.44133
736.44088
736.44052
736.44023
736.44001
736.43986
736.43977
736.43976
736.4398
736.43991
736.44103
736.44058
736.44023
736.43995
736.43973
736.43959
736.43951
736.43949
736.43954
736.43966
736.4408
736.44036
736.44001
736.43973
736.43952
736.43938
736.4393
736.43929
736.43935
736.43947
736.44065
736.4402
736.43986
736.43959
736.43938
736.43924
736.43917
736.43916
736.43922
736.43935
736.44055
736.44011
736.43977
736.43951
736.4393
736.43917
736.4391
736.43909
736.43916
736.43928
736.44052
736.44009
736.43976
736.43949
736.43929
736.43916
736.43909
736.43909
736.43915
736.43928
736.44053
736.44012
736.4398
736.43954
736.43935
736.43922
736.43916
736.43915
736.43921
736.43933
736.44058
736.44022
736.43991
736.43966
736.43947
736.43935
736.43928
736.43928
736.43933
736.43944
723.78353
723.78284
723.78237
723.78202
723.78178
723.78165
723.78163
723.7817
723.78186
723.78208
723.78284
723.7822
723.78174
723.7814
723.78116
723.78104
723.78102
723.78111
723.7813
723.7816
723.78237
723.78174
723.78129
723.78096
723.78073
723.78061
723.78061
723.78071
723.78091
723.78124
723.78202
723.7814
723.78096
723.78063
723.78041
723.7803
723.7803
723.78041
723.78063
723.78096
723.78178
723.78116
723.78073
723.78041
723.7802
723.7801
723.78011
723.78022
723.78045
723.78079
723.78165
723.78104
723.78061
723.7803
723.7801
723.78
723.78002
723.78014
723.78037
723.78072
723.78163
723.78102
723.78061
723.7803
723.78011
723.78002
723.78004
723.78017
723.7804
723.78075
723.7817
723.78111
723.78071
723.78041
723.78022
723.78014
723.78017
723.7803
723.78054
723.78089
723.78186
723.7813
723.78091
723.78063
723.78045
723.78037
723.7804
723.78054
723.78078
723.78113
723.78208
723.7816
723.78124
723.78096
723.78079
723.78072
723.78075
723.78089
723.78113
723.78148
711.73475
711.73387
711.7333
711.7329
711.73265
711.73256
711.7326
711.73278
711.73308
711.73345
711.73387
711.73306
711.73251
711.73211
711.73188
711.73179
711.73184
711.73204
711.73238
711.73286
711.7333
711.73251
711.73197
711.73159
711.73136
711.73128
711.73135
711.73157
711.73193
711.73245
711.7329
711.73211
711.73159
711.73122
711.731
711.73093
711.73101
711.73124
711.73162
711.73216
711.73265
711.73188
711.73136
711.731
711.73079
711.73073
711.73083
711.73107
711.73146
711.732
711.73256
711.73179
711.73128
711.73093
711.73073
711.73069
711.73079
711.73104
711.73143
711.73198
711.7326
711.73184
711.73135
711.73101
711.73083
711.73079
711.73089
711.73115
711.73156
711.73211
711.73278
711.73204
711.73157
711.73124
711.73107
711.73104
711.73115
711.73142
711.73183
711.73238
711.73308
711.73238
711.73193
711.73162
711.73146
711.73143
711.73156
711.73183
711.73224
711.73281
711.73345
711.73286
711.73245
711.73216
711.732
711.73198
711.73211
711.73238
711.73281
711.73338
700.25176
700.25069
700.25003
700.24959
700.24934
700.24927
700.24939
700.24967
700.25009
700.25061
700.25069
700.24972
700.24909
700.24865
700.24841
700.24835
700.24848
700.24878
700.24926
700.24993
700.25003
700.24909
700.24848
700.24805
700.24782
700.24778
700.24792
700.24824
700.24876
700.24947
700.24959
700.24865
700.24805
700.24765
700.24743
700.2474
700.24755
700.2479
700.24843
700.24916
700.24934
700.24841
700.24782
700.24743
700.24722
700.24721
700.24737
700.24773
700.24828
700.24902
700.24927
700.24835
700.24778
700.2474
700.24721
700.2472
700.24738
700.24775
700.24831
700.24905
700.24939
700.24848
700.24792
700.24755
700.24737
700.24738
700.24758
700.24796
700.24852
700.24927
700.24967
700.24878
700.24824
700.2479
700.24773
700.24775
700.24796
700.24835
700.24892
700.24968
700.25009
700.24926
700.24876
700.24843
700.24828
700.24831
700.24852
700.24892
700.2495
700.25027
700.25061
700.24993
700.24947
700.24916
700.24902
700.24905
700.24927
700.24968
700.25027
700.25107
689.29507
689.29383
689.29309
689.29261
689.29235
689.29232
689.2925
689.29288
689.29342
689.29408
689.29383
689.29271
689.292
689.29153
689.29128
689.29126
689.29145
689.29186
689.29247
689.29331
689.29309
689.292
689.29132
689.29086
689.29063
689.29062
689.29083
689.29126
689.29192
689.29281
689.29261
689.29153
689.29086
689.29042
689.29021
689.29021
689.29044
689.29089
689.29157
689.29248
689.29235
689.29128
689.29063
689.29021
689.29001
689.29003
689.29027
689.29074
689.29144
689.29236
689.29232
689.29126
689.29062
689.29021
689.29003
689.29007
689.29033
689.29081
689.29152
689.29245
689.2925
689.29145
689.29083
689.29044
689.29027
689.29033
689.2906
689.2911
689.29182
689.29276
689.29288
689.29186
689.29126
689.29089
689.29074
689.29081
689.2911
689.29161
689.29234
689.29328
689.29342
689.29247
689.29192
689.29157
689.29144
689.29152
689.29182
689.29234
689.29308
689.29404
689.29408
689.29331
689.29281
689.29248
689.29236
689.29245
689.29276
689.29328
689.29404
689.29505
678.82919
678.82779
678.82698
678.82646
678.8262
678.8262
678.82644
678.82691
678.82758
678.82837
678.82779
678.82653
678.82576
678.82525
678.82501
678.82501
678.82527
678.82577
678.82651
678.82752
678.82698
678.82576
678.82501
678.82452
678.82429
678.82432
678.8246
678.82513
678.82591
678.82697
678.82646
678.82525
678.82452
678.82405
678.82384
678.82388
678.82418
678.82474
678.82555
678.82664
678.8262
678.82501
678.82429
678.82384
678.82365
678.82371
678.82403
678.8246
678.82544
678.82653
678.8262
678.82501
678.82432
678.82388
678.82371
678.82379
678.82413
678.82472
678.82557
678.82667
678.82644
678.82527
678.8246
678.82418
678.82403
678.82413
678.82448
678.82509
678.82595
678.82706
678.82691
678.82577
678.82513
678.82474
678.8246
678.82472
678.82509
678.82571
678.82659
678.82771
678.82758
678.82651
678.82591
678.82555
678.82544
678.82557
678.82595
678.82659
678.82748
678.82863
678.82837
678.82752
678.82697
678.82664
678.82653
678.82667
678.82706
678.82771
678.82863
678.82983
668.82208
668.82054
668.81966
668.81911
668.81885
668.81888
668.81918
668.81974
668.82052
668.82143
668.82054
668.81915
668.81832
668.81778
668.81754
668.81758
668.8179
668.81849
668.81935
668.8205
668.81966
668.81832
668.81751
668.817
668.81677
668.81683
668.81717
668.8178
668.81871
668.81993
668.81911
668.81778
668.817
668.8165
668.8163
668.81638
668.81674
668.8174
668.81834
668.81958
668.81885
668.81754
668.81677
668.8163
668.81611
668.81621
668.8166
668.81728
668.81824
668.8195
668.81888
668.81758
668.81683
668.81638
668.81621
668.81633
668.81674
668.81744
668.81842
668.81969
668.81918
668.8179
668.81717
668.81674
668.8166
668.81674
668.81717
668.81788
668.81888
668.82016
668.81974
668.81849
668.8178
668.8174
668.81728
668.81744
668.81788
668.81861
668.81962
668.82092
668.82052
668.81935
668.81871
668.81834
668.81824
668.81842
668.81888
668.81962
668.82066
668.82198
668.82143
668.8205
668.81993
668.81958
668.8195
668.81969
668.82016
668.82092
668.82198
668.82336
659.24473
659.24305
659.24212
659.24154
659.24128
659.24134
659.2417
659.24234
659.24322
659.24425
659.24305
659.24155
659.24066
659.2401
659.23986
659.23993
659.24031
659.24099
659.24196
659.24325
659.24212
659.24066
659.2398
659.23927
659.23905
659.23914
659.23954
659.24026
659.24128
659.24265
659.24154
659.2401
659.23927
659.23875
659.23855
659.23867
659.2391
659.23984
659.24091
659.2423
659.24128
659.23986
659.23905
659.23855
659.23838
659.23852
659.23897
659.23974
659.24083
659.24224
659.24134
659.23993
659.23914
659.23867
659.23852
659.23868
659.23916
659.23995
659.24105
659.24247
659.2417
659.24031
659.23954
659.2391
659.23897
659.23916
659.23965
659.24046
659.24159
659.24302
659.24234
659.24099
659.24026
659.23984
659.23974
659.23995
659.24046
659.24129
659.24244
659.24388
659.24322
659.24196
659.24128
659.24091
659.24083
659.24105
659.24159
659.24244
659.2436
659.24508
659.24425
659.24325
659.24265
659.2423
659.24224
659.24247
659.24302
659.24388
659.24508
659.24664
650.07074
650.06895
650.06796
650.06736
650.06711
650.0672
650.06762
650.06833
650.06931
650.07044
650.06895
650.06734
650.06641
650.06583
650.06559
650.0657
650.06613
650.06689
650.06796
650.06939
650.06796
650.06641
650.0655
650.06495
650.06474
650.06486
650.06533
650.06612
650.06726
650.06876
650.06736
650.06583
650.06495
650.06442
650.06423
650.06438
650.06487
650.0657
650.06688
650.06841
650.06711
650.06559
650.06474
650.06423
650.06406
650.06424
650.06476
650.06562
650.06682
650.06836
650.0672
650.0657
650.06486
650.06438
650.06424
650.06444
650.06498
650.06587
650.06709
650.06865
650.06762
650.06613
650.06533
650.06487
650.06476
650.06498
650.06555
650.06645
650.06769
650.06926
650.06833
650.06689
650.06612
650.0657
650.06562
650.06587
650.06645
650.06737
650.06863
650.07022
650.06931
650.06796
650.06726
650.06688
650.06682
650.06709
650.06769
650.06863
650.06992
650.07155
650.07044
650.06939
650.06876
650.06841
650.06836
650.06865
650.06926
650.07022
650.07155
650.07326
641.27605
641.27415
641.27312
641.27251
641.27227
641.27239
641.27285
641.27364
641.2747
641.27593
641.27415
641.27246
641.27148
641.27089
641.27066
641.2708
641.27129
641.27212
641.27328
641.27483
641.27312
641.27148
641.27054
641.26997
641.26977
641.26993
641.27045
641.27132
641.27256
641.27418
641.27251
641.27089
641.26997
641.26943
641.26925
641.26944
641.26999
641.2709
641.27217
641.27383
641.27227
641.27066
641.26977
641.26925
641.2691
641.26932
641.26989
641.27083
641.27214
641.27381
641.27239
641.2708
641.26993
641.26944
641.26932
641.26956
641.27016
641.27112
641.27245
641.27414
641.27285
641.27129
641.27045
641.26999
641.26989
641.27016
641.27079
641.27177
641.27312
641.27482
641.27364
641.27212
641.27132
641.2709
641.27083
641.27112
641.27177
641.27278
641.27415
641.27587
641.2747
641.27328
641.27256
641.27217
641.27214
641.27245
641.27312
641.27415
641.27555
641.27731
641.27593
641.27483
641.27418
641.27383
641.27381
641.27414
641.27482
641.27587
641.27731
641.27917
632.83863
632.83664
632.83557
632.83494
632.83471
632.83486
632.83538
632.83623
632.83738
632.8387
632.83664
632.83487
632.83385
632.83325
632.83303
632.8332
632.83374
632.83464
632.8359
632.83755
632.83557
632.83385
632.83288
632.8323
632.83211
632.83231
632.83288
632.83382
632.83515
632.83688
632.83494
632.83325
632.8323
632.83175
632.83159
632.83181
632.83242
632.8334
632.83477
632.83654
632.83471
632.83303
632.83211
632.83159
632.83146
632.83171
632.83234
632.83335
632.83475
632.83654
632.83486
632.8332
632.83231
632.83181
632.83171
632.83198
632.83264
632.83369
632.83511
632.83691
632.83538
632.83374
632.83288
632.83242
632.83234
632.83264
632.83333
632.8344
632.83584
632.83766
632.83623
632.83464
632.83382
632.8334
632.83335
632.83369
632.8344
632.83549
632.83696
632.8388
632.83738
632.8359
632.83515
632.83477
632.83475
632.83511
632.83584
632.83696
632.83846
632.84034
632.8387
632.83755
632.83688
632.83654
632.83654
632.83691
632.83766
632.8388
632.84034
632.84233
624.73823
624.73616
624.73507
624.73443
624.73422
624.7344
624.73496
624.73588
624.7371
624.7385
624.73616
624.73432
624.73329
624.73268
624.73248
624.73268
624.73326
624.73423
624.73556
624.73731
624.73507
624.73329
624.73229
624.73171
624.73154
624.73176
624.73238
624.73339
624.7348
624.73664
624.73443
624.73268
624.73171
624.73116
624.73101
624.73127
624.73192
624.73297
624.73443
624.7363
624.73422
624.73248
624.73154