/*--------------------------------*- C++ -*----------------------------------*\
| =========                 |                                                 |
| \\      /  F ield         | OpenFOAM: The Open Source CFD Toolbox           |
|  \\    /   O peration     | Version:  v2106                                 |
|   \\  /    A nd           | Website:  www.openfoam.com                      |
|    \\/     M anipulation  |                                                 |
\*---------------------------------------------------------------------------*/
FoamFile
{
    version     2.0;
    format      ascii;
    arch        "LSB;label=32;scalar=64";
    class       volScalarField;
    location    "90";
    object      gradTy;
}
// * * * * * * * * * * * * * * * * * * * * * * * * * * * * * * * * * * * * * //

dimensions      [0 -1 0 1 0 0 0];

internalField   nonuniform List<scalar> 
4000
(
0.00026260857
0.00024011592
0.00023443709
0.00023205805
0.00023054864
0.00022907553
0.00022698427
0.00022302354
0.00021382277
0.00019121313
0.00059138822
0.000549131
0.00053456008
0.0005268119
0.00052115876
0.0005155187
0.00050808872
0.00049589311
0.00047256979
0.00042684343
0.00031901879
0.00030693198
0.00029669968
0.00028858591
0.00028146736
0.00027420357
0.0002655821
0.00025415455
0.00023870056
0.00022181752
0.00018207398
0.0001762413
0.00016867265
0.00016100897
0.00015349406
0.00014581755
0.00013749398
0.00012817611
0.00011831052
0.0001105373
6.7048777e-05
6.2574992e-05
5.5755573e-05
4.8192639e-05
4.0564151e-05
3.2972761e-05
2.5333838e-05
1.7739878e-05
1.0875294e-05
6.379225e-06
-3.4954611e-05
-4.0301156e-05
-4.8024644e-05
-5.6186409e-05
-6.4024726e-05
-7.1416727e-05
-7.8412131e-05
-8.4896118e-05
-9.0324483e-05
-9.3620958e-05
-0.00012290409
-0.00013198208
-0.00014252967
-0.00015203108
-0.00016017112
-0.00016726397
-0.00017365051
-0.00017944642
-0.00018435067
-0.00018745938
-0.00018803674
-0.000207779
-0.00022355568
-0.00023466054
-0.00024273914
-0.00024911908
-0.00025465149
-0.00025981924
-0.00026468228
-0.00026839056
-0.00020410753
-0.00025182313
-0.00027315722
-0.00028416016
-0.00029079603
-0.00029552082
-0.00029952087
-0.00030353377
-0.00030809219
-0.00031285526
-6.5001367e-05
-8.7611005e-05
-9.5485608e-05
-9.8866364e-05
-0.00010066776
-0.00010186374
-0.0001028654
-0.00010393622
-0.00010533759
-0.0001071116
0.0022624916
0.0020448744
0.0019919786
0.0019692408
0.0019546377
0.0019403564
0.0019200627
0.0018813814
0.0017885654
0.0015210103
0.0052574736
0.0048517041
0.004714793
0.0046404063
0.0045857068
0.0045310423
0.0044589693
0.0043402404
0.0041084535
0.0035949354
0.0030310165
0.0029175661
0.0028197188
0.0027413907
0.0026724748
0.0026020791
0.0025184811
0.0024076101
0.0022575386
0.0020964019
0.0017493491
0.0016933377
0.0016202629
0.0015460937
0.0014732909
0.0013988836
0.0013181799
0.0012278218
0.0011321682
0.0010570294
0.00064151861
0.00059819199
0.00053215455
0.00045888038
0.00038494453
0.0003113464
0.00023726729
0.00016360724
9.7014103e-05
5.3405623e-05
-0.0003472848
-0.00039914726
-0.00047402229
-0.00055314094
-0.00062913334
-0.00070081817
-0.00076868784
-0.00083164111
-0.00088440344
-0.00091649282
-0.0012045413
-0.0012930037
-0.0013953432
-0.0014874727
-0.001566405
-0.0016352118
-0.001697228
-0.0017536276
-0.0018015582
-0.0018321924
-0.0018507525
-0.0020479985
-0.0022012684
-0.0023089409
-0.0023872801
-0.0024491941
-0.0025029957
-0.0025535244
-0.0026017215
-0.0026396809
-0.0020502289
-0.0025907856
-0.0027955339
-0.0029019939
-0.0029663263
-0.0030121955
-0.003051178
-0.0030907603
-0.0031373345
-0.0031913104
-0.00066485536
-0.00093241044
-0.0010072007
-0.0010398349
-0.0010572932
-0.0010689073
-0.0010786861
-0.00108933
-0.0011039924
-0.001125314
0.0037777591
0.0034151697
0.0033246321
0.0032845187
0.0032582173
0.0032322296
0.0031951024
0.0031239445
0.0029518262
0.0024501125
0.0089091331
0.0082294427
0.0079926148
0.0078604194
0.0077616449
0.0076621611
0.0075304615
0.0073127049
0.006885374
0.0059313762
0.0053010167
0.0051050403
0.0049319934
0.0047912908
0.0046663949
0.0045382247
0.0043856464
0.0041830362
0.0039089995
0.0036189749
0.0030787084
0.0029790862
0.0028477385
0.0027134877
0.0025811568
0.0024455694
0.0022982859
0.0021332705
0.0019587186
0.0018223961
0.0010940666
0.0010156328
0.00089580824
0.00076256668
0.00062788989
0.00049362646
0.00035829693
0.00022356856
0.00010168079
2.1924391e-05
-0.00071058863
-0.00080526101
-0.00094177202
-0.0010860095
-0.0012246429
-0.0013556025
-0.0014798807
-0.0015955728
-0.0016930618
-0.0017527857
-0.0023134286
-0.0024758562
-0.0026628848
-0.0028310446
-0.0029751836
-0.0031011025
-0.003215154
-0.0033199381
-0.003410822
-0.0034712039
-0.0036136556
-0.0039785699
-0.004258743
-0.0044552169
-0.0045983103
-0.004711833
-0.0048114914
-0.004907501
-0.0050047785
-0.0050927482
-0.0043440717
-0.0053548199
-0.0057254005
-0.0059188812
-0.0060362749
-0.0061205254
-0.0061934877
-0.0062717912
-0.0063787349
-0.0065642577
-0.0015062505
-0.0020079642
-0.0021422491
-0.002201314
-0.0022331308
-0.0022544849
-0.0022729467
-0.0022947395
-0.0023315931
-0.0024184214
0.0050692324
0.0045792544
0.0044564995
0.0044012639
0.0043644906
0.0043277994
0.0042750912
0.0041736344
0.0039271306
0.0032053179
0.01200195
0.01108285
0.010760135
0.010577211
0.010438812
0.010298351
0.010111593
0.0098018103
0.0091919297
0.0078257439
0.0072020886
0.0069351028
0.006696449
0.0065002232
0.0063246644
0.0061436246
0.0059275026
0.0056400798
0.0052513641
0.0048429451
0.0041730964
0.004035083
0.0038517734
0.0036632983
0.0034767375
0.0032850372
0.0030764097
0.0028424369
0.0025950185
0.0024024705
0.0014082051
0.0012980085
0.0011293448
0.0009414099
0.00075108382
0.00056098816
0.00036903975
0.00017764658
4.3285198e-06
-0.00010903857
-0.0011473176
-0.0012814165
-0.0014745369
-0.0016785783
-0.0018748647
-0.0020606223
-0.0022374104
-0.0024026611
-0.0025426712
-0.0026289898
-0.0034634052
-0.0036946527
-0.0039599455
-0.0041981975
-0.0044025459
-0.0045815391
-0.0047445846
-0.0048959448
-0.0050295316
-0.0051206247
-0.0054244425
-0.0059463835
-0.0063441058
-0.006622522
-0.006825497
-0.0069872332
-0.0071307578
-0.0072721802
-0.0074213899
-0.0075647571
-0.0067147491
-0.0081672239
-0.0086908155
-0.0089643586
-0.0091307819
-0.0092510437
-0.0093571106
-0.0094757236
-0.0096496875
-0.0099799697
-0.0023781988
-0.0031000115
-0.0032889893
-0.0033722908
-0.0034173546
-0.0034478689
-0.0034749003
-0.0035085976
-0.0035704784
-0.0037287857
0.0062206314
0.0056115048
0.0054596573
0.0053908845
0.005344648
0.0052981625
0.0052310731
0.0051015172
0.0047858675
0.0038593163
0.014719147
0.013577686
0.013177788
0.012949402
0.012775144
0.012597199
0.012359707
0.011964764
0.011185578
0.0094368147
0.0088155062
0.0084845758
0.0081872219
0.0079410342
0.0077194827
0.0074900648
0.0072154792
0.0068497948
0.0063551924
0.0058378837
0.0050645015
0.0048919875
0.0046618576
0.0044242483
0.0041882443
0.0039451003
0.0036799987
0.0033823933
0.0030677157
0.0028234043
0.0015952067
0.0014561237
0.0012430045
0.0010051543
0.0007638564
0.00052240388
0.00027815146
3.4225499e-05
-0.0001868711
-0.00033145611
-0.0016500222
-0.0018203845
-0.0020654591
-0.002324388
-0.0025737046
-0.0028100929
-0.0030357157
-0.0032474216
-0.0034276159
-0.0035392314
-0.0046338913
-0.0049288592
-0.0052663271
-0.0055691291
-0.005829034
-0.0060573075
-0.0062663627
-0.0064621661
-0.0066372365
-0.0067585854
-0.0072224442
-0.0078902526
-0.0083965733
-0.0087505393
-0.0090088563
-0.0092155619
-0.0094007565
-0.0095864357
-0.0097874171
-0.0099862971
-0.0090352054
-0.010898507
-0.011563154
-0.011910418
-0.012122143
-0.012276099
-0.012413953
-0.012572519
-0.012813814
-0.013286739
-0.0032257459
-0.0041522971
-0.004391588
-0.0044971696
-0.0045544623
-0.0045935596
-0.0046288726
-0.0046744588
-0.0047614593
-0.0049897415
0.0072576267
0.0065365603
0.0063579931
0.0062769296
0.006222094
0.0061666565
0.0060863574
0.0059309231
0.0055515189
0.0044361085
0.017133
0.01578355
0.01531313
0.015043526
0.014836687
0.014624502
0.014340458
0.013867184
0.01293212
0.010831059
0.010196204
0.0098067574
0.0094561794
0.0091647146
0.0089013397
0.008627728
0.0082995449
0.0078619848
0.0072701436
0.006653231
0.0057866651
0.0055828164
0.0053102218
0.0050279767
0.0047469093
0.0044567047
0.0041397833
0.003783694
0.0034072048
0.003115435
0.0016766383
0.0015112286
0.0012576146
0.00097424196
0.00068634255
0.00039777851
0.00010537804
-0.00018703943
-0.00045229819
-0.00062572168
-0.0021995331
-0.002403138
-0.0026957622
-0.0030049328
-0.0033028882
-0.0035858973
-0.0038567308
-0.0041117014
-0.0043295215
-0.0044649074
-0.005798333
-0.006151933
-0.0065556506
-0.0069176761
-0.0072286613
-0.0075024941
-0.0077544654
-0.0079921839
-0.0082067948
-0.0083571845
-0.0089650076
-0.0097672654
-0.010373345
-0.010796667
-0.011105923
-0.011354343
-0.011578714
-0.011806672
-0.012057695
-0.01231037
-0.011249812
-0.013492033
-0.014285937
-0.014700787
-0.014954196
-0.01513947
-0.015307402
-0.01550447
-0.015811099
-0.016421783
-0.0040293249
-0.0051447352
-0.0054300322
-0.0055560103
-0.0056245454
-0.0056716259
-0.0057148026
-0.0057718857
-0.0058832529
-0.0061790085
0.0081899702
0.0073644435
0.0071613359
0.0070690898
0.0070064431
0.0069428563
0.0068505028
0.0066714209
0.0062337164
0.0049455143
0.019277275
0.017734324
0.017199394
0.01689235
0.016655933
0.016412596
0.016086101
0.015541314
0.014463878
0.012041017
0.011379085
0.010936054
0.010537111
0.010204585
0.0099032471
0.0095894305
0.0092123921
0.0087092662
0.0080287813
0.007321444
0.0063674512
0.0061351121
0.0058239903
0.0055012479
0.0051792325
0.0048461686
0.0044819621
0.0040724618
0.0036395543
0.0033045763
0.0016748341
0.0014854839
0.0011950802
0.00087032964
0.0005400009
0.00020843565
-0.00012802768
-0.00046490848
-0.00077068953
-0.00097055095
-0.0027749423
-0.0030088527
-0.0033447746
-0.0036997077
-0.004042045
-0.0043677363
-0.0046801419
-0.0049750754
-0.0052277833
-0.0053852609
-0.0069330098
-0.0073401629
-0.0078042918
-0.0082203272
-0.0085779986
-0.0088936713
-0.0091853377
-0.0094621463
-0.0097139124
-0.0098917333
-0.010623548
-0.011548728
-0.012245771
-0.012732339
-0.013088179
-0.013375001
-0.01363582
-0.013903576
-0.014202111
-0.014506051
-0.013329563
-0.015918423
-0.01682986
-0.017306245
-0.017597745
-0.017811887
-0.018007931
-0.018241474
-0.018610406
-0.019352529
-0.0047799558
-0.0060681579
-0.0063951968
-0.006539716
-0.0066185154
-0.006672957
-0.0067235005
-0.0067915042
-0.0069261272
-0.0072862522
0.0090221395
0.0081000836
0.0078745962
0.0077722276
0.007702523
0.0076315688
0.0075283065
0.0073278107
0.0068372865
0.0053924484
0.021170234
0.019448919
0.018855347
0.018514456
0.018251331
0.017979842
0.017614951
0.017005452
0.015799175
0.013085076
0.012387044
0.011895261
0.011452581
0.011082988
0.010747382
0.010397237
0.0099760147
0.0094135903
0.0086530208
0.0078643443
0.0068283509
0.0065702411
0.0062243349
0.0058650421
0.005506042
0.0051342148
0.0047271941
0.0042693217
0.0037853673
0.0034114005
0.0016092465
0.0013982582
0.0010746328
0.00071250658
0.00034380544
-2.6723997e-05
-0.00040319254
-0.00078049651
-0.0011231283
-0.0013470059
-0.0033576589
-0.0036189837
-0.0039940391
-0.0043903514
-0.0047728871
-0.0051373493
-0.0054876562
-0.005819158
-0.0061038889
-0.0062816826
-0.0080188615
-0.0084744987
-0.0089932518
-0.0094581451
-0.0098581449
-0.010211918
-0.010539954
-0.010852826
-0.011139091
-0.011342505
-0.012178581
-0.013215111
-0.013994356
-0.014538105
-0.014936183
-0.01525804
-0.015552416
-0.015857178
-0.016200244
-0.016552447
-0.015257463
-0.018160506
-0.019177839
-0.019709752
-0.02003576
-0.020276262
-0.020498285
-0.020765941
-0.021193554
-0.022059761
-0.0054727798
-0.0069176179
-0.0072821791
-0.0074434022
-0.0075314903
-0.0075926539
-0.0076500195
-0.0077282635
-0.0078848211
-0.0083057348
0.0097567074
0.0087464797
0.0085008023
0.0083893588
0.0083133349
0.0082357842
0.0081227521
0.0079030738
0.0073652143
0.0057799204
0.022823404
0.020939547
0.020293215
0.019922009
0.019634983
0.019338298
0.018939033
0.018271603
0.016949995
0.013975183
0.013236051
0.01270037
0.012218513
0.011815756
0.011449492
0.01106683
0.010606052
0.0099905627
0.009158424
0.0082973929
0.0071857491
0.006904548
0.0065275169
0.0061355266
0.0057434231
0.0053368692
0.0048914687
0.0043902423
0.0038605931
0.003451827
0.0014956809
0.001265319
0.00091196979
0.00051639313
0.00011331235
-0.00029218311
-0.00070460921
-0.0011182825
-0.0014940702
-0.0017395297
-0.0039324859
-0.0042183602
-0.0046284364
-0.0050618004
-0.0054803908
-0.0058797219
-0.0062642283
-0.0066288361
-0.0069426395
-0.0071389106
-0.0090412139
-0.0095402796
-0.010107909
-0.010616547
-0.011054536
-0.011442647
-0.01180365
-0.012149423
-0.012467354
-0.012694376
-0.013616524
-0.01475283
-0.015605562
-0.016200458
-0.016636437
-0.016989919
-0.017314848
-0.017653624
-0.018037943
-0.018435077
-0.017022734
-0.020207464
-0.021319154
-0.021900634
-0.022257569
-0.022521881
-0.022767644
-0.023066835
-0.023549098
-0.024531221
-0.0061048659
-0.0076901598
-0.0080880736
-0.0082641805
-0.0083605843
-0.0084278202
-0.0084914317
-0.0085791682
-0.0087561879
-0.009233917
0.010395572
0.0093058881
0.0090422454
0.0089227737
0.0088411631
0.0087577804
0.0086361111
0.008399473
0.0078197467
0.0061101419
0.024245264
0.022215273
0.02152212
0.021124113
0.020815964
0.02049701
0.020067366
0.019348753
0.017925261
0.014720124
0.013938025
0.013363354
0.012846865
0.012414807
0.012021451
0.011610047
0.011114304
0.010451945
0.009556692
0.0086321759
0.0074522891
0.0071506656
0.0067461341
0.0063252516
0.0059038799
0.0054665987
0.0049872256
0.0044476401
0.0038776205
0.0034382081
0.0013466327
0.0010991427
0.00071952977
0.0002943831
-0.00013912312
-0.00057561072
-0.001019954
-0.0014659366
-0.0018711761
-0.0021357806
-0.0044874862
-0.0047950642
-0.0052360848
-0.0057022111
-0.0061527391
-0.006583042
-0.006998025
-0.0073922311
-0.0077320996
-0.0079449683
-0.0099890286
-0.01052649
-0.011137286
-0.011684592
-0.012156245
-0.012574918
-0.012965434
-0.013340851
-0.013687495
-0.013936033
-0.014927842
-0.016152389
-0.017069947
-0.017710001
-0.018179552
-0.018561223
-0.018913627
-0.019283284
-0.019705365
-0.020143851
-0.018618337
-0.022052334
-0.023246967
-0.023872103
-0.024256399
-0.024541947
-0.024809136
-0.025137129
-0.025669702
-0.026758907
-0.0066743824
-0.0083839872
-0.0088111407
-0.0090003313
-0.0091040823
-0.0091767343
-0.0092459948
-0.0093424264
-0.0095383184
-0.010068563
0.01094046
0.0097803159
0.0095009603
0.0093745081
0.0092880395
0.0091995839
0.0090704018
0.0088190113
0.0082028509
0.0063849838
0.025442919
0.023283669
0.022549676
0.022128377
0.021801866
0.021463546
0.021007487
0.020244384
0.018732351
0.015327032
0.014502455
0.013893744
0.013347163
0.012889644
0.012472735
0.012036329
0.011510178
0.010807091
0.0098570962
0.0088778315
0.007637953
0.0073185718
0.0068901435
0.0064441435
0.0059973056
0.0055332656
0.0050242973
0.0044513154
0.0038462084
0.0033802558
0.0011719143
0.00090952804
0.00050708297
5.621317e-05
-0.00040379496
-0.00086732328
-0.0013395564
-0.0018137947
-0.0022447861
-0.002526106
-0.005013474
-0.0053399306
-0.0058078538
-0.0063024879
-0.006780862
-0.0072382493
-0.0076799775
-0.0081002487
-0.008463141
-0.0086907017
-0.010854165
-0.011425024
-0.012073327
-0.012654262
-0.013155277
-0.013600733
-0.014017276
-0.01441902
-0.014791336
-0.015059221
-0.01610594
-0.017407266
-0.018381075
-0.019060348
-0.019559164
-0.019965577
-0.020342327
-0.020739637
-0.021195828
-0.021671887
-0.020039801
-0.023690842
-0.024957152
-0.025620102
-0.026028212
-0.026332413
-0.026618665
-0.026972614
-0.027550915
-0.028737819
-0.0071802426
-0.0089981097
-0.0094504551
-0.0096509528
-0.0097610901
-0.0098384994
-0.0099127973
-0.01001709
-0.01023017
-0.010808359
0.011393148
0.010171747
0.0098789462
0.0097465593
0.0096559573
0.0095631812
0.0094275995
0.0091636413
0.008516424
0.0066061867
0.026422935
0.024151633
0.023382803
0.022941708
0.022599576
0.022244766
0.021766214
0.020965243
0.01937786
0.015802158
0.014937334
0.014299553
0.013727409
0.013248247
0.012811292
0.01235359
0.011801538
0.011063799
0.010067327
0.0090418959
0.0077508452
0.0074163619
0.0069676178
0.0065002447
0.006031709
0.0055448437
0.0050106197
0.0044091577
0.0037741885
0.0032857442
0.00097926174
0.00070419457
0.00028231904
-0.00019046192
-0.00067308193
-0.0011597282
-0.0016558473
-0.0021543079
-0.0026073711
-0.0029029936
-0.0055034707
-0.0058460075
-0.0063368324
-0.0068557608
-0.0073579217
-0.0078385261
-0.0083032739
-0.0087460695
-0.0091289285
-0.0093692624
-0.01163077
-0.01223008
-0.012910293
-0.013519871
-0.014045979
-0.014514451
-0.014953522
-0.015378237
-0.015773126
-0.016058134
-0.017146463
-0.018513227
-0.019534817
-0.020247438
-0.020771249
-0.021198962
-0.021596903
-0.022018566
-0.022505098
-0.023014797
-0.021284597
-0.025120779
-0.026447683
-0.027142682
-0.027571096
-0.027891368
-0.028194289
-0.028571266
-0.02919052
-0.030465301
-0.0076219314
-0.0095321687
-0.010005733
-0.010215789
-0.010331362
-0.010412871
-0.010491585
-0.010602876
-0.010831385
-0.01145273
0.01175557
0.01048225
0.010178276
0.010040994
0.0099469767
0.0098506238
0.009709741
0.0094353692
0.0087623971
0.0067754654
0.027191771
0.024825829
0.024028155
0.023570736
0.023215695
0.022847238
0.022350065
0.021517751
0.019868011
0.016151272
0.015249722
0.014587838
0.013994629
0.013497608
0.013044078
0.012568742
0.01199524
0.011228835
0.010194017
0.0091308253
0.0077977443
0.0074507958
0.0069852846
0.0065002442
0.0060137382
0.0055079365
0.0049527454
0.0043276576
0.0036679768
0.0031610194
0.00077483269
0.00048927727
5.133482e-05
-0.0004395886
-0.00094097288
-0.0014468538
-0.0019628919
-0.0024815772
-0.0029530662
-0.0032606042
-0.0059522373
-0.0063080908
-0.0068178681
-0.0073569286
-0.0078788609
-0.0083788476
-0.0088629103
-0.0093246998
-0.0097244696
-0.0099756557
-0.012314812
-0.012937693
-0.013644298
-0.0142776
-0.014824577
-0.015312324
-0.015770429
-0.016214742
-0.016629071
-0.016928937
-0.018046841
-0.019467857
-0.020528895
-0.021269081
-0.021813663
-0.022259255
-0.022675223
-0.023117896
-0.023630911
-0.024170201
-0.022351771
-0.026341627
-0.027718251
-0.028439637
-0.028884889
-0.029218664
-0.029535845
-0.029932859
-0.03058815
-0.03194064
-0.0079994058
-0.0099863374
-0.010477232
-0.010695132
-0.010815204
-0.010900157
-0.010982661
-0.011100068
-0.011342188
-0.012001728
0.012029872
0.010714038
0.01040115
0.010260003
0.010163279
0.010064082
0.0099189779
0.0096363084
0.0089427889
0.0068945648
0.027756015
0.025312932
0.024492366
0.024022055
0.023656784
0.023277478
0.022765488
0.02190824
0.020208894
0.016379911
0.015446106
0.014765053
0.014155229
0.013644085
0.013177402
0.012688038
0.012097462
0.011308271
0.010243077
0.0091503324
0.0077844875
0.0074276809
0.006948906
0.0064498538
0.0059490519
0.0054281461
0.0048562112
0.004212273
0.003532939
0.0030113653
0.00056358742
0.00026970586
-0.00018098911
-0.00068634133
-0.0012026969
-0.0017239817
-0.0022560231
-0.0027909866
-0.0032773041
-0.0035944058
-0.0063559032
-0.0067223544
-0.0072471992
-0.0078022948
-0.00834004
-0.0088556211
-0.0093553306
-0.0098326101
-0.010246251
-0.010506377
-0.012903712
-0.013545372
-0.01427295
-0.014925139
-0.015488823
-0.015992143
-0.016465812
-0.016926353
-0.017356972
-0.017669411
-0.018805954
-0.020270237
-0.021362548
-0.022124621
-0.02268582
-0.023145902
-0.023576741
-0.024037062
-0.024572647
-0.025137395
-0.023241688
-0.027354303
-0.028770017
-0.029512242
-0.029970925
-0.030315661
-0.030644692
-0.03105872
-0.031745025
-0.033164802
-0.0083130294
-0.010361253
-0.010865685
-0.01108975
-0.011213401
-0.011301151
-0.011386818
-0.011509444
-0.011763316
-0.012455963
0.012218429
0.010869489
0.010549925
0.010405926
0.010307193
0.01020587
0.010057603
0.009768706
0.0090597338
0.0069652895
0.028122522
0.025619766
0.024782187
0.024302363
0.023929493
0.023542084
0.023019003
0.022143088
0.020406601
0.016493515
0.015532619
0.014837275
0.014215215
0.013693623
0.013217148
0.012717293
0.012113929
0.011307706
0.010219921
0.009105608
0.007716239
0.0073521402
0.0068635453
0.0063540727
0.0058425832
0.0053103351
0.0047257995
0.0040676903
0.0033736523
0.0028412649
0.00034957238
4.9487804e-05
-0.00041070658
-0.00092684222
-0.0014544442
-0.0019873688
-0.0025315644
-0.0030789265
-0.0035765376
-0.0039008951
-0.0067116828
-0.0070860673
-0.0076221727
-0.0081892855
-0.0087389564
-0.0092664057
-0.0097781463
-0.010267454
-0.01069196
-0.010959128
-0.013396082
-0.014051828
-0.014795077
-0.015461415
-0.016037722
-0.016552972
-0.017038771
-0.017512191
-0.017955954
-0.018278673
-0.019423892
-0.020920696
-0.022036294
-0.022814704
-0.023388441
-0.023859677
-0.024302254
-0.02477686
-0.025331075
-0.025917096
-0.023955853
-0.028160978
-0.029605426
-0.030363075
-0.030831852
-0.031185044
-0.031523525
-0.031951526
-0.03266376
-0.034140234
-0.0085635244
-0.010657969
-0.011172249
-0.011400844
-0.011527174
-0.011617083
-0.011705286
-0.011832229
-0.012095966
-0.012816545
0.012323854
0.01095116
0.010627125
0.010481268
0.010381206
0.01027846
0.010128062
0.0098349549
0.0091154937
0.0069895191
0.028298476
0.025753384
0.024904568
0.02441854
0.024040645
0.023647814
0.023117277
0.022228802
0.02046731
0.016497516
0.015515189
0.014810351
0.014180345
0.0136519
0.01316892
0.01266203
0.012050064
0.011232412
0.010129612
0.0090014714
0.0075976777
0.0072287994
0.0067337547
0.0062173746
0.0056987263
0.0051588135
0.0045657248
0.0038980118
0.0031940924
0.0026545887
0.00013612872
-0.00016808311
-0.00063459749
-0.0011579531
-0.0016931586
-0.0022340397
-0.0027866215
-0.0033425844
-0.0038480308
-0.0041773886
-0.007017661
-0.0073973782
-0.007941029
-0.0085162349
-0.0090740304
-0.0096096978
-0.010129921
-0.010627854
-0.011060261
-0.011332603
-0.013791512
-0.01445677
-0.015210524
-0.015886389
-0.016471326
-0.016994933
-0.017489482
-0.017972471
-0.018426255
-0.018756967
-0.019901776
-0.021420628
-0.022551743
-0.02334108
-0.023923375
-0.02440249
-0.024853716
-0.025339263
-0.025908164
-0.02651125
-0.024496769
-0.028764923
-0.030228055
-0.030995863
-0.031471478
-0.031830668
-0.032176227
-0.032615163
-0.033348213
-0.0348707
-0.0087519332
-0.010877908
-0.011398462
-0.011630001
-0.011758132
-0.011849573
-0.011939693
-0.012070048
-0.01234175
-0.013085039
0.012348995
0.01096179
0.010635442
0.010488695
0.01038797
0.010284483
0.010132954
0.0098375956
0.009112462
0.0069692153
0.02829143
0.025721101
0.024866695
0.02437769
0.023997275
0.023601631
0.023067167
0.022172057
0.02039733
0.01639739
0.015399637
0.014689996
0.014056227
0.013524432
0.013038148
0.012527584
0.01191108
0.01108744
0.009976963
0.0088424732
0.0074331276
0.0070619196
0.0065637076
0.0060438409
0.0055214696
0.0049774718
0.0043797679
0.0037068897
0.0029977698
0.0024547302
-7.3954317e-05
-0.00038027308
-0.00085001367
-0.0013771209
-0.0019163828
-0.0024616319
-0.0030189275
-0.0035797897
-0.0040897024
-0.0044218654
-0.0072726301
-0.0076551531
-0.0082027386
-0.0087822213
-0.0093444403
-0.009884766
-0.010410004
-0.010913232
-0.011350637
-0.011626318
-0.014090413
-0.014760744
-0.015519987
-0.016200888
-0.016790569
-0.017319046
-0.017819036
-0.018308338
-0.018769057
-0.019105494
-0.02024161
-0.021772349
-0.022911448
-0.023706466
-0.024293446
-0.024777241
-0.025234079
-0.025727262
-0.026306926
-0.026922877
-0.024867824
-0.029170395
-0.030642491
-0.031415361
-0.031894651
-0.032257437
-0.032607736
-0.033054593
-0.033803351
-0.035361151
-0.0088795863
-0.011022833
-0.011546213
-0.01177916
-0.011908239
-0.012000602
-0.012092027
-0.012224893
-0.012502661
-0.013263426
0.012296924
0.010904286
0.010577729
0.010431033
0.010330288
0.010226721
0.010075032
0.009779313
0.0090531612
0.0069064225
0.028109305
0.025530511
0.024676011
0.024187157
0.023806652
0.023410719
0.022875742
0.02197972
0.020203122
0.016198682
0.015191734
0.014481854
0.01384838
0.013316632
0.012830145
0.012319163
0.011702054
0.010877682
0.0097666112
0.0086329655
0.0072266514
0.0068554896
0.0063572926
0.0058372553
0.0053144911
0.0047698773
0.0041713723
0.0034976242
0.0027878276
0.0022447057
-0.0002783257
-0.0005847941
-0.0010547641
-0.0015822625
-0.0021221422
-0.0026682787
-0.0032267248
-0.0037888948
-0.0043000059
-0.0046328471
-0.0074759655
-0.0078588493
-0.0084068761
-0.0089869404
-0.009549995
-0.010091523
-0.010618405
-0.011123684
-0.011563254
-0.011840482
-0.014293889
-0.014965001
-0.015724887
-0.016406482
-0.01699714
-0.017527099
-0.018029301
-0.018521728
-0.018986351
-0.019326279
-0.020446164
-0.02197897
-0.023118783
-0.023914413
-0.024502328
-0.024987694
-0.025447176
-0.025944744
-0.026531294
-0.02715594
-0.02507319
-0.029382525
-0.030854228
-0.031627241
-0.032107147
-0.032471194
-0.032823945
-0.033275744
-0.034035141
-0.035617605
-0.0089480735
-0.011094812
-0.011617701
-0.011850576
-0.011979782
-0.01207247
-0.012164601
-0.012299089
-0.012581031
-0.013354065
0.012170926
0.010781723
0.010456995
0.010311258
0.010211114
0.010108105
0.0099571875
0.009662929
0.0089402359
0.0068032653
0.027760383
0.025189488
0.024340208
0.023854525
0.023476274
0.023082484
0.02255028
0.021658854
0.019891312
0.015907024
0.014897239
0.014191541
0.013562277
0.013033853
0.012550155
0.012041894
0.011427968
0.010607921
0.0095030615
0.0083771516
0.0069821155
0.0066132934
0.0061181813
0.0056011723
0.0050812279
0.0045393442
0.0039437155
0.0032732358
0.0025671153
0.0020272276
-0.00047498692
-0.00077971764
-0.0012470279
-0.0017716766
-0.0023088561
-0.0028525197
-0.0034086749
-0.0039686836
-0.0044778381
-0.0048093055
-0.0076275274
-0.0080084174
-0.0085535206
-0.0091306049
-0.0096910329
-0.010230424
-0.010755687
-0.01125987
-0.011698855
-0.011975888
-0.014403636
-0.015071399
-0.015827266
-0.016505373
-0.017093374
-0.017621536
-0.01812282
-0.01861527
-0.019080833
-0.01942206
-0.020518876
-0.022044303
-0.023177844
-0.023969209
-0.024554444
-0.025038373
-0.025497612
-0.025996386
-0.026586008
-0.027215236
-0.025117736
-0.029407232
-0.030869567
-0.031638001
-0.032115575
-0.032478623
-0.032831594
-0.033285413
-0.034050444
-0.035647042
-0.0089592181
-0.011096189
-0.01161541
-0.011846795
-0.011975335
-0.012067774
-0.012160024
-0.012295258
-0.01257951
-0.013359657
0.011974476
0.010597325
0.010276393
0.010132487
0.01003354
0.0099316985
0.0097824472
0.009491392
0.0087764449
0.0066619432
0.027253289
0.024706164
0.023867222
0.023387611
0.023013862
0.022624551
0.022098269
0.02121671
0.019468681
0.015528137
0.014521924
0.013824666
0.013203371
0.012681418
0.01220338
0.01170085
0.011093739
0.01028286
0.0091907211
0.0080791203
0.0067032376
0.0063389578
0.0058498774
0.0053389674
0.0048249268
0.0042889857
0.0036997624
0.0030365193
0.0023382441
0.0018047617
-0.00066222578
-0.00096340791
-0.0014252865
-0.001943975
-0.0024752683
-0.0030132303
-0.0035637864
-0.004118299
-0.004622465
-0.0049505883
-0.0077275825
-0.0081042213
-0.0086431752
-0.009213863
-0.0097683396
-0.010302381
-0.010822881
-0.011322934
-0.011758677
-0.012033833
-0.014421856
-0.015082316
-0.015829697
-0.016500307
-0.017082164
-0.017605375
-0.018102717
-0.018592182
-0.019055805
-0.019396193
-0.020463766
-0.02197277
-0.023093354
-0.023875787
-0.024454873
-0.024934466
-0.025390669
-0.025887554
-0.026476522
-0.027106296
-0.025006957
-0.029251131
-0.03069553
-0.03145487
-0.031927288
-0.03228716
-0.032638186
-0.033091171
-0.033856929
-0.035457307
-0.0089150531
-0.011029555
-0.011542082
-0.011770622
-0.011897737
-0.011989371
-0.012081174
-0.012216296
-0.012501024
-0.013283215
0.011711231
0.010354453
0.010039202
0.0098979599
0.0098007799
0.00970069
0.0095539567
0.009267766
0.0085646506
0.0064847245
0.026596963
0.02408892
0.023265214
0.022794446
0.022427345
0.02204474
0.021527383
0.020660714
0.018942159
0.015067828
0.014071584
0.013386844
0.01277711
0.012264632
0.011794997
0.011301073
0.01070424
0.0099071451
0.0088339224
0.0077428706
0.0063936225
0.0060359887
0.0055557539
0.0050538756
0.0045486848
0.0040217545
0.0034423068
0.0027900869
0.0021036311
0.0015795713
-0.00083856325
-0.001134468
-0.0015882689
-0.0020980271
-0.0026203899
-0.0031495636
-0.0036913566
-0.0042371831
-0.004733461
-0.0050563576
-0.0077767374
-0.0081469722
-0.0086766997
-0.0092377297
-0.0097830777
-0.010308696
-0.01082142
-0.011314431
-0.011744378
-0.012016034
-0.014351186
-0.015000572
-0.015735212
-0.0163945
-0.01696688
-0.01748212
-0.017972614
-0.018456196
-0.018915092
-0.019252568
-0.020285364
-0.021769323
-0.022870589
-0.023639641
-0.024209264
-0.024681745
-0.025132222
-0.025624223
-0.026208912
-0.026835297
-0.024746895
-0.028921457
-0.030339782
-0.031085732
-0.031550297
-0.031904906
-0.0322519
-0.032701278
-0.033462975
-0.035057011
-0.0088177981
-0.010897724
-0.011400686
-0.011625092
-0.011750059
-0.011840356
-0.011931163
-0.01206534
-0.012348753
-0.013128031
0.011385004
0.010056592
0.0097488201
0.0096110332
0.0095161607
0.0094183758
0.0092749689
0.0089952177
0.0083078076
0.0062739389
0.025800628
0.023346353
0.022542548
0.022083253
0.021724842
0.021351057
0.020845473
0.019998456
0.018318813
0.014531983
0.013552048
0.01288371
0.012288948
0.011788798
0.01133017
0.010847581
0.010264314
0.0094853793
0.0084369407
0.0073723315
0.0060567892
0.0057078001
0.0052390833
0.0047490221
0.0042554801
0.0037404762
0.0031740052
0.0025364033
0.0018655356
0.0013537547
-0.0010027085
-0.0012916945
-0.0017349052
-0.0022329119
-0.0027434511
-0.0032609011
-0.0037909203
-0.0043250253
-0.0048106568
-0.0051265367
-0.0077758817
-0.0081376696
-0.0086552508
-0.0092035264
-0.0097367257
-0.010250996
-0.010753071
-0.011236257
-0.011657966
-0.011924571
-0.014194629
-0.014829366
-0.015547229
-0.016191568
-0.016751302
-0.017255692
-0.017736564
-0.018211483
-0.018662972
-0.018995534
-0.019988636
-0.021439378
-0.022515296
-0.023266751
-0.023823766
-0.024286488
-0.024728662
-0.025212895
-0.0257898
-0.026408978
-0.024344073
-0.028425992
-0.029810547
-0.030539039
-0.030993195
-0.031340551
-0.031681509
-0.032124603
-0.032877592
-0.03445545
-0.0086698379
-0.010703707
-0.011194391
-0.011413446
-0.011535578
-0.011624033
-0.011713315
-0.011845741
-0.0121261
-0.012897646
0.010999748
0.0097073321
0.0094087439
0.0092751603
0.0091831061
0.0090881486
0.0089488305
0.0086770041
0.0080089518
0.0060319696
0.024873764
0.022487257
0.021707767
0.021262432
0.020914635
0.020551665
0.020060541
0.019237667
0.01760583
0.013926563
0.012969176
0.012320918