/*--------------------------------*- C++ -*----------------------------------*\
| =========                 |                                                 |
| \\      /  F ield         | OpenFOAM: The Open Source CFD Toolbox           |
|  \\    /   O peration     | Version:  v2106                                 |
|   \\  /    A nd           | Website:  www.openfoam.com                      |
|    \\/     M anipulation  |                                                 |
\*---------------------------------------------------------------------------*/
FoamFile
{
    version     2.0;
    format      ascii;
    arch        "LSB;label=32;scalar=64";
    class       volVectorField;
    location    "90";
    object      gradT;
}
// * * * * * * * * * * * * * * * * * * * * * * * * * * * * * * * * * * * * * //

dimensions      [0 -1 0 1 0 0 0];

internalField   nonuniform List<vector> 
4000
(
(0.00026260857 0.00026260857 562.0391)
(0.00059138822 0.00024011592 562.04215)
(0.00031901879 0.00023443709 562.04378)
(0.00018207398 0.00023205805 562.0448)
(6.7048768e-05 0.00023054864 562.04531)
(-3.4954606e-05 0.00022907553 562.04537)
(-0.00012290409 0.00022698427 562.04501)
(-0.00018803674 0.00022302354 562.04432)
(-0.00020410753 0.00021382277 562.0434)
(-6.5001369e-05 0.00019121313 562.04254)
(0.00024011592 0.00059138822 562.04215)
(0.00054913101 0.000549131 562.04491)
(0.00030693198 0.00053456008 562.04648)
(0.0001762413 0.0005268119 562.04747)
(6.2574988e-05 0.00052115876 562.04796)
(-4.0301161e-05 0.0005155187 562.04799)
(-0.00013198207 0.00050808872 562.04761)
(-0.00020777899 0.00049589311 562.04687)
(-0.00025182314 0.00047256979 562.04583)
(-8.7611007e-05 0.00042684343 562.04464)
(0.00023443709 0.00031901879 562.04378)
(0.00053456008 0.00030693198 562.04648)
(0.00029669969 0.00029669968 562.048)
(0.00016867265 0.00028858591 562.04895)
(5.5755568e-05 0.00028146736 562.04941)
(-4.8024645e-05 0.00027420357 562.04942)
(-0.00014252967 0.0002655821 562.049)
(-0.00022355568 0.00025415455 562.0482)
(-0.00027315722 0.00023870056 562.04709)
(-9.548561e-05 0.00022181752 562.04579)
(0.00023205805 0.00018207398 562.0448)
(0.0005268119 0.0001762413 562.04747)
(0.00028858592 0.00016867265 562.04895)
(0.00016100898 0.00016100897 562.04987)
(4.8192641e-05 0.00015349406 562.0503)
(-5.6186417e-05 0.00014581755 562.05028)
(-0.00015203109 0.00013749398 562.04982)
(-0.00023466054 0.00012817611 562.04898)
(-0.00028416016 0.00011831052 562.04781)
(-9.8866364e-05 0.0001105373 562.04648)
(0.00023054864 6.7048777e-05 562.04531)
(0.00052115876 6.2574992e-05 562.04796)
(0.00028146736 5.5755573e-05 562.04941)
(0.00015349406 4.8192639e-05 562.0503)
(4.0564151e-05 4.0564151e-05 562.0507)
(-6.4024726e-05 3.2972761e-05 562.05064)
(-0.00016017112 2.5333838e-05 562.05016)
(-0.00024273914 1.7739878e-05 562.04928)
(-0.00029079603 1.0875294e-05 562.04808)
(-0.00010066775 6.379225e-06 562.04672)
(0.00022907553 -3.4954611e-05 562.04537)
(0.00051551869 -4.0301156e-05 562.04799)
(0.00027420356 -4.8024644e-05 562.04942)
(0.00014581756 -5.6186409e-05 562.05028)
(3.2972763e-05 -6.4024726e-05 562.05064)
(-7.1416729e-05 -7.1416727e-05 562.05055)
(-0.00016726397 -7.8412131e-05 562.05003)
(-0.00024911908 -8.4896118e-05 562.04913)
(-0.00029552082 -9.0324483e-05 562.0479)
(-0.00010186374 -9.3620958e-05 562.04653)
(0.00022698427 -0.00012290409 562.04501)
(0.00050808872 -0.00013198208 562.04761)
(0.00026558211 -0.00014252967 562.049)
(0.00013749398 -0.00015203108 562.04982)
(2.5333833e-05 -0.00016017112 562.05016)
(-7.8412131e-05 -0.00016726397 562.05003)
(-0.00017365051 -0.00017365051 562.04949)
(-0.00025465149 -0.00017944642 562.04855)
(-0.00029952087 -0.00018435067 562.04731)
(-0.0001028654 -0.00018745938 562.04592)
(0.00022302353 -0.00018803674 562.04432)
(0.00049589311 -0.000207779 562.04687)
(0.00025415456 -0.00022355568 562.0482)
(0.00012817611 -0.00023466054 562.04898)
(1.7739874e-05 -0.00024273914 562.04928)
(-8.4896117e-05 -0.00024911908 562.04913)
(-0.00017944642 -0.00025465149 562.04855)
(-0.00025981924 -0.00025981924 562.0476)
(-0.00030353378 -0.00026468228 562.04633)
(-0.00010393622 -0.00026839056 562.04493)
(0.00021382277 -0.00020410753 562.0434)
(0.00047256979 -0.00025182313 562.04583)
(0.00023870057 -0.00027315722 562.04709)
(0.00011831052 -0.00028416016 562.04781)
(1.0875291e-05 -0.00029079603 562.04808)
(-9.0324489e-05 -0.00029552082 562.0479)
(-0.00018435067 -0.00029952087 562.04731)
(-0.00026468228 -0.00030353377 562.04633)
(-0.00030809219 -0.00030809219 562.04504)
(-0.00010533759 -0.00031285526 562.04362)
(0.00019121313 -6.5001367e-05 562.04254)
(0.00042684343 -8.7611005e-05 562.04464)
(0.00022181753 -9.5485608e-05 562.04579)
(0.0001105373 -9.8866364e-05 562.04648)
(6.3792214e-06 -0.00010066776 562.04672)
(-9.362096e-05 -0.00010186374 562.04653)
(-0.00018745937 -0.0001028654 562.04592)
(-0.00026839056 -0.00010393622 562.04493)
(-0.00031285527 -0.00010533759 562.04362)
(-0.0001071116 -0.0001071116 562.04218)
(0.0022624916 0.0022624916 1141.429)
(0.0052574736 0.0020448744 1141.4343)
(0.0030310165 0.0019919786 1141.4373)
(0.0017493491 0.0019692408 1141.4393)
(0.00064151861 0.0019546377 1141.4402)
(-0.00034728479 0.0019403564 1141.4403)
(-0.0012045413 0.0019200627 1141.4396)
(-0.0018507525 0.0018813814 1141.4381)
(-0.0020502289 0.0017885654 1141.4361)
(-0.00066485535 0.0015210103 1141.434)
(0.0020448744 0.0052574736 1141.4343)
(0.004851704 0.0048517041 1141.4391)
(0.0029175661 0.004714793 1141.442)
(0.0016933377 0.0046404063 1141.4438)
(0.00059819199 0.0045857068 1141.4448)
(-0.00039914726 0.0045310423 1141.4448)
(-0.0012930037 0.0044589693 1141.444)
(-0.0020479985 0.0043402404 1141.4425)
(-0.0025907856 0.0041084535 1141.4402)
(-0.00093241044 0.0035949354 1141.4374)
(0.0019919786 0.0030310165 1141.4373)
(0.004714793 0.0029175661 1141.442)
(0.0028197188 0.0028197188 1141.4448)
(0.0016202629 0.0027413907 1141.4466)
(0.00053215456 0.0026724748 1141.4475)
(-0.00047402229 0.0026020791 1141.4474)
(-0.0013953432 0.0025184811 1141.4466)
(-0.0022012684 0.0024076101 1141.4449)
(-0.0027955339 0.0022575386 1141.4425)
(-0.0010072007 0.0020964019 1141.4395)
(0.0019692408 0.0017493491 1141.4393)
(0.0046404063 0.0016933377 1141.4438)
(0.0027413907 0.0016202629 1141.4466)
(0.0015460937 0.0015460937 1141.4484)
(0.00045888037 0.0014732909 1141.4492)
(-0.00055314093 0.0013988836 1141.4491)
(-0.0014874727 0.0013181799 1141.4481)
(-0.0023089409 0.0012278218 1141.4464)
(-0.0029019939 0.0011321682 1141.4439)
(-0.0010398349 0.0010570294 1141.4408)
(0.0019546377 0.00064151861 1141.4402)
(0.0045857068 0.00059819199 1141.4448)
(0.0026724748 0.00053215455 1141.4475)
(0.0014732909 0.00045888038 1141.4492)
(0.00038494452 0.00038494453 1141.4499)
(-0.00062913334 0.0003113464 1141.4497)
(-0.001566405 0.00023726729 1141.4487)
(-0.0023872801 0.00016360724 1141.4469)
(-0.0029663263 9.7014103e-05 1141.4444)
(-0.0010572932 5.3405623e-05 1141.4412)
(0.0019403564 -0.0003472848 1141.4403)
(0.0045310423 -0.00039914726 1141.4448)
(0.0026020791 -0.00047402229 1141.4474)
(0.0013988837 -0.00055314094 1141.4491)
(0.00031134639 -0.00062913334 1141.4497)
(-0.00070081817 -0.00070081817 1141.4495)
(-0.0016352118 -0.00076868784 1141.4485)
(-0.0024491941 -0.00083164111 1141.4466)
(-0.0030121955 -0.00088440344 1141.444)
(-0.0010689073 -0.00091649282 1141.4408)
(0.0019200627 -0.0012045413 1141.4396)
(0.0044589693 -0.0012930037 1141.444)
(0.0025184811 -0.0013953432 1141.4466)
(0.0013181799 -0.0014874727 1141.4481)
(0.0002372673 -0.001566405 1141.4487)
(-0.00076868784 -0.0016352118 1141.4485)
(-0.001697228 -0.001697228 1141.4473)
(-0.0025029957 -0.0017536276 1141.4454)
(-0.003051178 -0.0018015582 1141.4428)
(-0.0010786861 -0.0018321924 1141.4395)
(0.0018813814 -0.0018507525 1141.4381)
(0.0043402404 -0.0020479985 1141.4425)
(0.0024076101 -0.0022012684 1141.4449)
(0.0012278218 -0.0023089409 1141.4464)
(0.00016360724 -0.0023872801 1141.4469)
(-0.00083164112 -0.0024491941 1141.4466)
(-0.0017536276 -0.0025029957 1141.4454)
(-0.0025535244 -0.0025535244 1141.4435)
(-0.0030907603 -0.0026017215 1141.4408)
(-0.00108933 -0.0026396809 1141.4375)
(0.0017885654 -0.0020502289 1141.4361)
(0.0041084535 -0.0025907856 1141.4402)
(0.0022575386 -0.0027955339 1141.4425)
(0.0011321682 -0.0029019939 1141.4439)
(9.7014102e-05 -0.0029663263 1141.4444)
(-0.00088440344 -0.0030121955 1141.444)
(-0.0018015582 -0.003051178 1141.4428)
(-0.0026017215 -0.0030907603 1141.4408)
(-0.0031373345 -0.0031373345 1141.438)
(-0.0011039924 -0.0031913104 1141.4347)
(0.0015210103 -0.00066485536 1141.434)
(0.0035949354 -0.00093241044 1141.4374)
(0.0020964019 -0.0010072007 1141.4395)
(0.0010570294 -0.0010398349 1141.4408)
(5.3405621e-05 -0.0010572932 1141.4412)
(-0.00091649282 -0.0010689073 1141.4408)
(-0.0018321924 -0.0010786861 1141.4395)
(-0.0026396809 -0.00108933 1141.4375)
(-0.0031913104 -0.0011039924 1141.4347)
(-0.001125314 -0.001125314 1141.4312)
(0.0037777591 0.0037777591 1098.1706)
(0.0089091331 0.0034151697 1098.1748)
(0.0053010167 0.0033246321 1098.1773)
(0.0030787084 0.0032845187 1098.1789)
(0.0010940666 0.0032582173 1098.1797)
(-0.00071058863 0.0032322296 1098.1797)
(-0.0023134286 0.0031951024 1098.1789)
(-0.0036136556 0.0031239445 1098.1774)
(-0.0043440717 0.0029518262 1098.1754)
(-0.0015062505 0.0024501125 1098.1728)
(0.0034151697 0.0089091331 1098.1748)
(0.0082294427 0.0082294427 1098.1786)
(0.0051050403 0.0079926148 1098.181)
(0.0029790862 0.0078604194 1098.1826)
(0.0010156328 0.0077616449 1098.1833)
(-0.00080526101 0.0076621611 1098.1833)
(-0.0024758562 0.0075304615 1098.1825)
(-0.0039785699 0.0073127049 1098.1809)
(-0.0053548199 0.006885374 1098.1786)
(-0.0020079642 0.0059313762 1098.1753)
(0.0033246321 0.0053010167 1098.1773)
(0.0079926148 0.0051050403 1098.181)
(0.0049319934 0.0049319934 1098.1833)
(0.0028477385 0.0047912908 1098.1849)
(0.00089580824 0.0046663949 1098.1856)
(-0.00094177202 0.0045382247 1098.1855)
(-0.0026628847 0.0043856464 1098.1846)
(-0.0042587431 0.0041830362 1098.1829)
(-0.0057254005 0.0039089995 1098.1804)
(-0.0021422491 0.0036189749 1098.177)
(0.0032845187 0.0030787084 1098.1789)
(0.0078604194 0.0029790862 1098.1826)
(0.0047912908 0.0028477385 1098.1849)
(0.0027134877 0.0027134877 1098.1863)
(0.00076256668 0.0025811568 1098.187)
(-0.0010860095 0.0024455694 1098.1868)
(-0.0028310446 0.0022982859 1098.1859)
(-0.0044552169 0.0021332705 1098.1841)
(-0.0059188812 0.0019587186 1098.1816)
(-0.002201314 0.0018223961 1098.1781)
(0.0032582173 0.0010940666 1098.1797)
(0.0077616449 0.0010156328 1098.1833)
(0.0046663949 0.00089580824 1098.1856)
(0.0025811568 0.00076256668 1098.187)
(0.00062788988 0.00062788989 1098.1876)
(-0.0012246429 0.00049362646 1098.1874)
(-0.0029751836 0.00035829693 1098.1863)
(-0.0045983103 0.00022356856 1098.1845)
(-0.0060362749 0.00010168079 1098.1819)
(-0.0022331308 2.1924391e-05 1098.1784)
(0.0032322296 -0.00071058863 1098.1797)
(0.0076621611 -0.00080526101 1098.1833)
(0.0045382247 -0.00094177202 1098.1855)
(0.0024455693 -0.0010860095 1098.1868)
(0.00049362646 -0.0012246429 1098.1874)
(-0.0013556025 -0.0013556025 1098.1871)
(-0.0031011025 -0.0014798807 1098.186)
(-0.004711833 -0.0015955728 1098.1841)
(-0.0061205254 -0.0016930618 1098.1815)
(-0.0022544849 -0.0017527857 1098.1779)
(0.0031951024 -0.0023134286 1098.1789)
(0.0075304615 -0.0024758562 1098.1825)
(0.0043856464 -0.0026628848 1098.1846)
(0.0022982859 -0.0028310446 1098.1859)
(0.00035829693 -0.0029751836 1098.1863)
(-0.0014798807 -0.0031011025 1098.186)
(-0.003215154 -0.003215154 1098.1849)
(-0.0048114914 -0.0033199381 1098.183)
(-0.0061934877 -0.003410822 1098.1802)
(-0.0022729467 -0.0034712039 1098.1766)
(0.0031239445 -0.0036136556 1098.1774)
(0.0073127049 -0.0039785699 1098.1809)
(0.0041830362 -0.004258743 1098.1829)
(0.0021332705 -0.0044552169 1098.1841)
(0.00022356856 -0.0045983103 1098.1845)
(-0.0015955728 -0.004711833 1098.1841)
(-0.0033199381 -0.0048114914 1098.183)
(-0.004907501 -0.004907501 1098.181)
(-0.0062717912 -0.0050047785 1098.1782)
(-0.0022947395 -0.0050927482 1098.1746)
(0.0029518262 -0.0043440717 1098.1754)
(0.006885374 -0.0053548199 1098.1786)
(0.0039089995 -0.0057254005 1098.1804)
(0.0019587186 -0.0059188812 1098.1816)
(0.00010168079 -0.0060362749 1098.1819)
(-0.0016930618 -0.0061205254 1098.1815)
(-0.003410822 -0.0061934877 1098.1802)
(-0.0050047785 -0.0062717912 1098.1782)
(-0.0063787349 -0.0063787349 1098.1754)
(-0.0023315931 -0.0065642577 1098.1717)
(0.0024501124 -0.0015062505 1098.1728)
(0.0059313762 -0.0020079642 1098.1753)
(0.0036189749 -0.0021422491 1098.177)
(0.0018223961 -0.002201314 1098.1781)
(2.19244e-05 -0.0022331308 1098.1784)
(-0.0017527856 -0.0022544849 1098.1779)
(-0.0034712039 -0.0022729467 1098.1766)
(-0.0050927482 -0.0022947395 1098.1746)
(-0.0065642577 -0.0023315931 1098.1717)
(-0.0024184214 -0.0024184214 1098.1678)
(0.0050692324 0.0050692324 1059.3847)
(0.01200195 0.0045792544 1059.3884)
(0.0072020885 0.0044564995 1059.3905)
(0.0041730964 0.0044012639 1059.3919)
(0.0014082051 0.0043644906 1059.3925)
(-0.0011473176 0.0043277994 1059.3924)
(-0.0034634052 0.0042750912 1059.3916)
(-0.0054244425 0.0041736344 1059.3901)
(-0.0067147491 0.0039271306 1059.388)
(-0.0023781988 0.0032053179 1059.3854)
(0.0045792544 0.01200195 1059.3884)
(0.01108285 0.01108285 1059.3917)
(0.0069351028 0.010760135 1059.3937)
(0.004035083 0.010577211 1059.3951)
(0.0012980085 0.010438812 1059.3957)
(-0.0012814165 0.010298351 1059.3955)
(-0.0036946527 0.010111593 1059.3946)
(-0.0059463835 0.0098018103 1059.3931)
(-0.0081672239 0.0091919297 1059.3907)
(-0.0031000115 0.0078257439 1059.3875)
(0.0044564995 0.0072020886 1059.3905)
(0.010760135 0.0069351028 1059.3937)
(0.006696449 0.006696449 1059.3957)
(0.0038517734 0.0065002232 1059.397)
(0.0011293448 0.0063246644 1059.3975)
(-0.0014745369 0.0061436246 1059.3974)
(-0.0039599455 0.0059275026 1059.3964)
(-0.0063441058 0.0056400798 1059.3947)
(-0.0086908155 0.0052513641 1059.3923)
(-0.0032889893 0.0048429451 1059.3889)
(0.0044012639 0.0041730964 1059.3919)
(0.010577211 0.004035083 1059.3951)
(0.0065002232 0.0038517734 1059.397)
(0.0036632983 0.0036632983 1059.3982)
(0.0009414099 0.0034767375 1059.3987)
(-0.0016785783 0.0032850372 1059.3985)
(-0.0041981975 0.0030764097 1059.3975)
(-0.006622522 0.0028424369 1059.3957)
(-0.0089643586 0.0025950185 1059.3932)
(-0.0033722908 0.0024024705 1059.3897)
(0.0043644905 0.0014082051 1059.3925)
(0.010438812 0.0012980085 1059.3957)
(0.0063246644 0.0011293448 1059.3975)
(0.0034767376 0.0009414099 1059.3987)
(0.00075108381 0.00075108382 1059.3992)
(-0.0018748647 0.00056098816 1059.3988)
(-0.0044025459 0.00036903975 1059.3978)
(-0.0068254971 0.00017764658 1059.396)
(-0.0091307819 4.3285198e-06 1059.3934)
(-0.0034173546 -0.00010903857 1059.3899)
(0.0043277994 -0.0011473176 1059.3924)
(0.010298351 -0.0012814165 1059.3955)
(0.0061436246 -0.0014745369 1059.3974)
(0.0032850372 -0.0016785783 1059.3985)
(0.00056098816 -0.0018748647 1059.3988)
(-0.0020606223 -0.0020606223 1059.3985)
(-0.0045815391 -0.0022374104 1059.3974)
(-0.0069872332 -0.0024026611 1059.3955)
(-0.0092510437 -0.0025426712 1059.3929)
(-0.0034478689 -0.0026289898 1059.3894)
(0.0042750912 -0.0034634052 1059.3916)
(0.010111593 -0.0036946527 1059.3946)
(0.0059275026 -0.0039599455 1059.3964)
(0.0030764097 -0.0041981975 1059.3975)
(0.00036903976 -0.0044025459 1059.3978)
(-0.0022374104 -0.0045815391 1059.3974)
(-0.0047445846 -0.0047445846 1059.3962)
(-0.0071307579 -0.0048959448 1059.3943)
(-0.0093571106 -0.0050295316 1059.3917)
(-0.0034749003 -0.0051206247 1059.3881)
(0.0041736345 -0.0054244425 1059.3901)
(0.0098018103 -0.0059463835 1059.3931)
(0.0056400798 -0.0063441058 1059.3947)
(0.0028424369 -0.006622522 1059.3957)
(0.00017764657 -0.006825497 1059.396)
(-0.0024026611 -0.0069872332 1059.3955)
(-0.0048959448 -0.0071307578 1059.3943)
(-0.0072721802 -0.0072721802 1059.3924)
(-0.0094757236 -0.0074213899 1059.3897)
(-0.0035085976 -0.0075647571 1059.3861)
(0.0039271306 -0.0067147491 1059.388)
(0.0091919297 -0.0081672239 1059.3907)
(0.0052513641 -0.0086908155 1059.3923)
(0.0025950185 -0.0089643586 1059.3932)
(4.3285326e-06 -0.0091307819 1059.3934)
(-0.0025426712 -0.0092510437 1059.3929)
(-0.0050295316 -0.0093571106 1059.3917)
(-0.00742139 -0.0094757236 1059.3897)
(-0.0096496875 -0.0096496875 1059.3869)
(-0.0035704784 -0.0099799697 1059.3832)
(0.0032053179 -0.0023781988 1059.3854)
(0.0078257439 -0.0031000115 1059.3875)
(0.0048429451 -0.0032889893 1059.3889)
(0.0024024705 -0.0033722908 1059.3897)
(-0.00010903856 -0.0034173546 1059.3899)
(-0.0026289898 -0.0034478689 1059.3894)
(-0.0051206247 -0.0034749003 1059.3881)
(-0.0075647571 -0.0035085976 1059.3861)
(-0.0099799697 -0.0035704784 1059.3832)
(-0.0037287857 -0.0037287857 1059.3794)
(0.0062206314 0.0062206314 1024.3387)
(0.014719147 0.0056115048 1024.342)
(0.0088155062 0.0054596573 1024.3439)
(0.0050645015 0.0053908845 1024.345)
(0.0015952067 0.005344648 1024.3455)
(-0.0016500222 0.0052981625 1024.3453)
(-0.0046338913 0.0052310731 1024.3444)
(-0.0072224442 0.0051015172 1024.3429)
(-0.0090352054 0.0047858675 1024.3409)
(-0.0032257459 0.0038593163 1024.3384)
(0.0056115048 0.014719147 1024.342)
(0.013577686 0.013577686 1024.3449)
(0.0084845758 0.013177788 1024.3467)
(0.0048919875 0.012949402 1024.3478)
(0.0014561237 0.012775144 1024.3483)
(-0.0018203845 0.012597199 1024.348)
(-0.0049288592 0.012359707 1024.3471)
(-0.0078902526 0.011964764 1024.3456)
(-0.010898507 0.011185578 1024.3433)
(-0.0041522971 0.0094368147 1024.3402)
(0.0054596573 0.0088155062 1024.3439)
(0.013177788 0.0084845758 1024.3467)
(0.0081872219 0.0081872219 1024.3484)
(0.0046618576 0.0079410342 1024.3495)
(0.0012430045 0.0077194827 1024.3499)
(-0.0020654591 0.0074900648 1024.3496)
(-0.0052663271 0.0072154792 1024.3486)
(-0.0083965733 0.0068497948 1024.347)
(-0.011563154 0.0063551924 1024.3446)
(-0.004391588 0.0058378837 1024.3414)
(0.0053908845 0.0050645015 1024.345)
(0.012949402 0.0048919875 1024.3478)
(0.0079410342 0.0046618576 1024.3495)
(0.0044242483 0.0044242483 1024.3505)
(0.0010051543 0.0041882443 1024.3508)
(-0.002324388 0.0039451003 1024.3505)
(-0.0055691292 0.0036799987 1024.3495)
(-0.0087505393 0.0033823933 1024.3478)
(-0.011910418 0.0030677157 1024.3453)
(-0.0044971696 0.0028234043 1024.3421)
(0.005344648 0.0015952067 1024.3455)
(0.012775144 0.0014561237 1024.3483)
(0.0077194827 0.0012430045 1024.3499)
(0.0041882442 0.0010051543 1024.3508)
(0.0007638564 0.0007638564 1024.3511)
(-0.0025737046 0.00052240388 1024.3508)
(-0.005829034 0.00027815146 1024.3497)
(-0.0090088563 3.4225499e-05 1024.3479)
(-0.012122143 -0.0001868711 1024.3454)
(-0.0045544623 -0.00033145611 1024.3421)
(0.0052981625 -0.0016500222 1024.3453)
(0.012597199 -0.0018203845 1024.348)
(0.0074900648 -0.0020654591 1024.3496)
(0.0039451003 -0.002324388 1024.3505)
(0.00052240389 -0.0025737046 1024.3508)
(-0.0028100929 -0.0028100929 1024.3503)
(-0.0060573075 -0.0030357157 1024.3492)
(-0.0092155619 -0.0032474216 1024.3474)
(-0.012276099 -0.0034276159 1024.3449)
(-0.0045935596 -0.0035392314 1024.3415)
(0.0052310731 -0.0046338913 1024.3444)
(0.012359707 -0.0049288592 1024.3471)
(0.0072154792 -0.0052663271 1024.3486)
(0.0036799987 -0.0055691291 1024.3495)
(0.00027815146 -0.005829034 1024.3497)
(-0.0030357157 -0.0060573075 1024.3492)
(-0.0062663627 -0.0062663627 1024.3481)
(-0.0094007565 -0.0064621661 1024.3462)
(-0.012413953 -0.0066372365 1024.3436)
(-0.0046288726 -0.0067585854 1024.3403)
(0.0051015172 -0.0072224442 1024.3429)
(0.011964764 -0.0078902526 1024.3456)
(0.0068497948 -0.0083965733 1024.347)
(0.0033823933 -0.0087505393 1024.3478)
(3.4225494e-05 -0.0090088563 1024.3479)
(-0.0032474216 -0.0092155619 1024.3474)
(-0.0064621661 -0.0094007565 1024.3462)
(-0.0095864357 -0.0095864357 1024.3443)
(-0.012572519 -0.0097874171 1024.3417)
(-0.0046744588 -0.0099862971 1024.3383)
(0.0047858675 -0.0090352054 1024.3409)
(0.011185578 -0.010898507 1024.3433)
(0.0063551924 -0.011563154 1024.3446)
(0.0030677158 -0.011910418 1024.3453)
(-0.00018687109 -0.012122143 1024.3454)
(-0.0034276159 -0.012276099 1024.3449)
(-0.0066372365 -0.012413953 1024.3436)
(-0.0097874171 -0.012572519 1024.3417)
(-0.012813814 -0.012813814 1024.339)
(-0.0047614593 -0.013286739 1024.3355)
(0.0038593163 -0.0032257459 1024.3384)
(0.0094368147 -0.0041522971 1024.3402)
(0.0058378837 -0.004391588 1024.3414)
(0.0028234043 -0.0044971696 1024.3421)
(-0.00033145611 -0.0045544623 1024.3421)
(-0.0035392314 -0.0045935596 1024.3415)
(-0.0067585854 -0.0046288726 1024.3403)
(-0.0099862971 -0.0046744588 1024.3383)
(-0.013286738 -0.0047614593 1024.3355)
(-0.0049897415 -0.0049897415 1024.3319)
(0.0072576267 0.0072576267 992.45828)
(0.017133 0.0065365603 992.46124)
(0.010196204 0.0063579931 992.46284)
(0.0057866651 0.0062769296 992.4638)
(0.0016766383 0.006222094 992.46414)
(-0.0021995331 0.0061666565 992.46388)
(-0.005798333 0.0060863574 992.46302)
(-0.0089650076 0.0059309231 992.46158)
(-0.011249812 0.0055515189 992.45962)
(-0.0040293249 0.0044361085 992.45729)
(0.0065365603 0.017133 992.46124)
(0.01578355 0.01578355 992.46387)
(0.0098067574 0.01531313 992.46539)
(0.0055828164 0.015043526 992.46632)
(0.0015112286 0.014836687 992.46664)
(-0.002403138 0.014624502 992.46635)
(-0.006151933 0.014340458 992.46545)
(-0.0097672654 0.013867184 992.46393)
(-0.013492033 0.01293212 992.46179)
(-0.0051447352 0.010831059 992.45892)
(0.0063579931 0.010196204 992.46284)
(0.01531313 0.0098067574 992.46539)
(0.0094561794 0.0094561794 992.46686)
(0.0053102218 0.0091647146 992.46774)
(0.0012576146 0.0089013397 992.46802)
(-0.0026957622 0.008627728 992.46769)
(-0.0065556506 0.0082995449 992.46674)
(-0.010373345 0.0078619848 992.46516)
(-0.014285937 0.0072701436 992.4629)
(-0.0054300322 0.006653231 992.45989)
(0.0062769296 0.0057866651 992.4638)
(0.015043526 0.0055828164 992.46632)
(0.0091647146 0.0053102218 992.46774)
(0.0050279767 0.0050279767 992.46858)
(0.00097424196 0.0047469093 992.46882)
(-0.0030049328 0.0044567047 992.46845)
(-0.0069176761 0.0041397833 992.46744)
(-0.010796667 0.003783694 992.46579)
(-0.014700787 0.0034072048 992.46346)
(-0.0055560103 0.003115435 992.4604)
(0.006222094 0.0016766383 992.46414)
(0.014836687 0.0015112286 992.46664)
(0.0089013397 0.0012576146 992.46802)
(0.0047469093 0.00097424196 992.46882)
(0.00068634254 0.00068634255 992.46901)
(-0.0033028882 0.00039777851 992.4686)
(-0.0072286613 0.00010537804 992.46755)
(-0.011105923 -0.00018703943 992.46585)
(-0.014954196 -0.00045229819 992.46347)
(-0.0056245454 -0.00062572168 992.46037)
(0.0061666565 -0.0021995331 992.46388)
(0.014624502 -0.002403138 992.46635)
(0.008627728 -0.0026957622 992.46769)
(0.0044567047 -0.0030049328 992.46845)
(0.0003977785 -0.0033028882 992.4686)
(-0.0035858973 -0.0035858973 992.46813)
(-0.0075024941 -0.0038567308 992.46704)
(-0.011354343 -0.0041117014 992.4653)
(-0.01513947 -0.0043295215 992.46288)
(-0.0056716259 -0.0044649074 992.45976)
(0.0060863574 -0.005798333 992.46302)
(0.014340458 -0.006151933 992.46545)
(0.0082995449 -0.0065556506 992.46674)
(0.0041397833 -0.0069176761 992.46744)
(0.00010537804 -0.0072286613 992.46755)
(-0.0038567308 -0.0075024941 992.46704)
(-0.0077544654 -0.0077544654 992.4659)
(-0.011578714 -0.0079921839 992.46412)
(-0.015307402 -0.0082067948 992.46167)
(-0.0057148026 -0.0083571845 992.45853)
(0.0059309231 -0.0089650076 992.46158)
(0.013867184 -0.0097672654 992.46393)
(0.0078619849 -0.010373345 992.46516)
(0.003783694 -0.010796667 992.46579)
(-0.00018703945 -0.011105923 992.46585)
(-0.0041117014 -0.011354343 992.4653)
(-0.0079921839 -0.011578714 992.46412)
(-0.011806672 -0.011806672 992.4623)
(-0.01550447 -0.012057695 992.4598)
(-0.0057718858 -0.01231037 992.45663)
(0.0055515189 -0.011249812 992.45962)
(0.01293212 -0.013492033 992.46179)
(0.0072701436 -0.014285937 992.4629)
(0.0034072048 -0.014700787 992.46346)
(-0.00045229819 -0.014954196 992.46347)
(-0.0043295215 -0.01513947 992.46288)
(-0.0082067948 -0.015307402 992.46167)
(-0.012057695 -0.01550447 992.4598)
(-0.015811099 -0.015811099 992.45725)
(-0.0058832529 -0.016421783 992.45401)
(0.0044361085 -0.0040293249 992.45729)
(0.010831059 -0.0051447352 992.45892)
(0.006653231 -0.0054300322 992.45989)
(0.003115435 -0.0055560103 992.4604)
(-0.00062572169 -0.0056245454 992.46037)
(-0.0044649074 -0.0056716259 992.45976)
(-0.0083571845 -0.0057148026 992.45853)
(-0.01231037 -0.0057718857 992.45663)
(-0.016421783 -0.0058832529 992.45401)
(-0.0061790085 -0.0061790085 992.45056)
(0.0081899702 0.0081899702 963.28644)
(0.019277275 0.0073644435 963.28908)
(0.011379085 0.0071613359 963.29047)
(0.0063674512 0.0070690898 963.29127)
(0.0016748341 0.0070064431 963.29152)
(-0.0027749423 0.0069428563 963.29121)
(-0.0069330098 0.0068505028 963.29036)
(-0.010623548 0.0066714209 963.28899)
(-0.013329563 0.0062337164 963.28714)
(-0.0047799558 0.0049455143 963.28498)
(0.0073644435 0.019277275 963.28908)
(0.017734324 0.017734324 963.29143)
(0.010936054 0.017199394 963.29275)
(0.0061351121 0.01689235 963.29352)
(0.0014854839 0.016655933 963.29374)
(-0.0030088527 0.016412596 963.2934)
(-0.0073401629 0.016086101 963.29252)
(-0.011548728 0.015541314 963.29108)
(-0.015918423 0.014463878 963.28907)
(-0.0060681579 0.012041017 963.28641)
(0.0071613359 0.011379085 963.29047)
(0.017199394 0.010936054 963.29275)
(0.010537111 0.010537111 963.29402)
(0.0058239903 0.010204585 963.29475)
(0.0011950802 0.0099032471 963.29493)
(-0.0033447746 0.0095894305 963.29456)
(-0.0078042918 0.0092123921 963.29363)
(-0.012245771 0.0087092662 963.29213)
(-0.01682986 0.0080287813 963.29001)
(-0.0063951968 0.007321444 963.28723)
(0.0070690898 0.0063674512 963.29127)
(0.01689235 0.0061351121 963.29352)
(0.010204585 0.0058239903 963.29475)
(0.0055012479 0.0055012479 963.29544)
(0.00087032963 0.0051792325 963.29558)
(-0.0036997077 0.0048461686 963.29517)
(-0.0082203272 0.0044819621 963.2942)
(-0.012732339 0.0040724618 963.29263)
(-0.017306245 0.0036395543 963.29046)
(-0.006539716 0.0033045763 963.28762)
(0.0070064431 0.0016748341 963.29152)
(0.016655933 0.0014854839 963.29374)
(0.0099032471 0.0011950802 963.29493)
(0.0051792325 0.00087032964 963.29558)
(0.00054000089 0.0005400009 963.29569)
(-0.004042045 0.00020843565 963.29524)
(-0.0085779986 -0.00012802768 963.29422)
(-0.013088179 -0.00046490848 963.29261)
(-0.017597745 -0.00077068953 963.29039)
(-0.0066185154 -0.00097055095 963.28753)
(0.0069428563 -0.0027749423 963.29121)
(0.016412596 -0.0030088527 963.2934)
(0.0095894305 -0.0033447746 963.29456)
(0.0048461686 -0.0036997077 963.29517)
(0.00020843564 -0.004042045 963.29524)
(-0.0043677363 -0.0043677363 963.29475)
(-0.0088936713 -0.0046801419 963.29369)
(-0.013375001 -0.0049750754 963.29204)
(-0.017811887 -0.0052277833 963.28979)
(-0.006672957 -0.0053852609 963.2869)
(0.0068505028 -0.0069330098 963.29036)
(0.016086101 -0.0073401629 963.29252)
(0.0092123922 -0.0078042918 963.29363)
(0.0044819621 -0.0082203272 963.2942)
(-0.0001280277 -0.0085779986 963.29422)
(-0.0046801419 -0.0088936713 963.29369)
(-0.0091853377 -0.0091853377 963.29259)
(-0.01363582 -0.0094621463 963.2909)
(-0.018007931 -0.0097139124 963.28862)
(-0.0067235005 -0.0098917333 963.28571)
(0.0066714209 -0.010623548 963.28899)
(0.015541314 -0.011548728 963.29108)
(0.0087092662 -0.012245771 963.29213)
(0.0040724618 -0.012732339 963.29263)
(-0.00046490848 -0.013088179 963.29261)
(-0.0049750754 -0.013375001 963.29204)
(-0.0094621463 -0.01363582 963.2909)
(-0.013903576 -0.013903576 963.28918)
(-0.018241474 -0.014202111 963.28685)
(-0.0067915042 -0.014506051 963.28392)
(0.0062337164 -0.013329563 963.28714)
(0.014463878 -0.015918423 963.28907)
(0.0080287813 -0.01682986 963.29001)
(0.0036395543 -0.017306245 963.29046)
(-0.00077068952 -0.017597745 963.29039)
(-0.0052277833 -0.017811887 963.28979)
(-0.0097139125 -0.018007931 963.28862)
(-0.014202111 -0.018241474 963.28685)
(-0.018610406 -0.018610406 963.28447)
(-0.0069261272 -0.019352529 963.28147)
(0.0049455143 -0.0047799558 963.28498)
(0.012041017 -0.0060681579 963.28641)
(0.007321444 -0.0063951968 963.28723)
(0.0033045763 -0.006539716 963.28762)
(-0.00097055095 -0.0066185154 963.28753)
(-0.0053852609 -0.006672957 963.2869)
(-0.0098917333 -0.0067235005 963.28571)
(-0.014506051 -0.0067915042 963.28392)
(-0.019352529 -0.0069261272 963.28147)
(-0.0072862522 -0.0072862522 963.27828)
(0.0090221395 0.0090221395 936.45448)
(0.021170234 0.0081000836 936.45683)
(0.012387044 0.0078745962 936.45802)
(0.0068283509 0.0077722276 936.45868)
(0.0016092465 0.007702523 936.45884)
(-0.0033576589 0.0076315688 936.4585)
(-0.0080188615 0.0075283065 936.45768)
(-0.012178581 0.0073278107 936.4564)
(-0.015257463 0.0068372865 936.45469)
(-0.0054727798 0.0053924484 936.4527)
(0.0081000836 0.021170234 936.45683)
(0.019448919 0.019448919 936.4589)
(0.011895261 0.018855347 936.46003)
(0.0065702411 0.018514456 936.46066)
(0.0013982583 0.018251331 936.4608)
(-0.0036189837 0.017979842 936.46044)
(-0.0084744987 0.017614951 936.45959)
(-0.013215111 0.017005452 936.45824)
(-0.018160506 0.015799175 936.45639)
(-0.0069176179 0.013085076 936.45396)
(0.0078745962 0.012387044 936.45802)
(0.018855347 0.011895261 936.46003)
(0.011452581 0.011452581 936.46112)
(0.0062243349 0.011082988 936.46171)
(0.0010746328 0.010747382 936.46182)
(-0.0039940391 0.010397237 936.46143)
(-0.0089932518 0.0099760147 936.46054)
(-0.013994356 0.0094135903 936.45913)
(-0.019177839 0.0086530208 936.45718)
(-0.0072821791 0.0078643443 936.45464)
(0.0077722276 0.0068283509 936.45868)
(0.018514456 0.0065702411 936.46066)
(0.011082988 0.0062243349 936.46171)
(0.0058650421 0.0058650421 936.46228)
(0.00071250658 0.005506042 936.46235)
(-0.0043903514 0.0051342148 936.46192)
(-0.0094581451 0.0047271941 936.46099)
(-0.014538104 0.0042693217 936.45953)
(-0.019709752 0.0037853673 936.45752)
(-0.0074434022 0.0034114005 936.45493)
(0.007702523 0.0016092465 936.45884)
(0.018251331 0.0013982582 936.4608)
(0.010747382 0.0010746328 936.46182)
(0.005506042 0.00071250658 936.46235)
(0.00034380543 0.00034380544 936.46238)
(-0.0047728871 -2.6723997e-05 936.46192)
(-0.0098581449 -0.00040319254 936.46095)
(-0.014936183 -0.00078049651 936.45944)