/*--------------------------------*- C++ -*----------------------------------*\
| =========                 |                                                 |
| \\      /  F ield         | OpenFOAM: The Open Source CFD Toolbox           |
|  \\    /   O peration     | Version:  v2106                                 |
|   \\  /    A nd           | Website:  www.openfoam.com                      |
|    \\/     M anipulation  |                                                 |
\*---------------------------------------------------------------------------*/
FoamFile
{
    version     2.0;
    format      ascii;
    arch        "LSB;label=32;scalar=64";
    class       volScalarField;
    location    "90";
    object      laplacianT;
}
// * * * * * * * * * * * * * * * * * * * * * * * * * * * * * * * * * * * * * //

dimensions      [0 -2 0 1 0 0 0];

internalField   nonuniform List<scalar> 
4000
(
90336.21
90336.528
90336.805
90336.967
90337.049
90337.057
90337.002
90336.893
90336.75
90336.62
90336.528
90336.824
90337.088
90337.246
90337.324
90337.33
90337.27
90337.153
90336.992
90336.825
90336.805
90337.088
90337.344
90337.496
90337.57
90337.571
90337.506
90337.381
90337.207
90337.023
90336.967
90337.246
90337.496
90337.644
90337.712
90337.708
90337.637
90337.505
90337.323
90337.133
90337.049
90337.324
90337.57
90337.712
90337.775
90337.766
90337.69
90337.552
90337.365
90337.171
90337.057
90337.33
90337.571
90337.708
90337.766
90337.752
90337.671
90337.529
90337.338
90337.141
90337.002
90337.27
90337.506
90337.637
90337.69
90337.671
90337.585
90337.439
90337.244
90337.046
90336.893
90337.153
90337.381
90337.505
90337.552
90337.529
90337.439
90337.289
90337.091
90336.891
90336.75
90336.992
90337.207
90337.323
90337.365
90337.338
90337.244
90337.091
90336.891
90336.687
90336.62
90336.825
90337.023
90337.133
90337.171
90337.141
90337.046
90336.891
90336.687
90336.48
-4568.7289
-4569.9243
-4569.8309
-4569.8464
-4569.855
-4569.8557
-4569.8492
-4569.8366
-4569.8194
-4569.7838
-4569.9243
-4570.8753
-4570.7992
-4570.8148
-4570.8231
-4570.8234
-4570.8164
-4570.8028
-4570.7832
-4570.4736
-4569.8309
-4570.7992
-4570.7233
-4570.7383
-4570.7461
-4570.7459
-4570.7383
-4570.7237
-4570.7028
-4570.4098
-4569.8464
-4570.8148
-4570.7383
-4570.7527
-4570.76
-4570.7592
-4570.751
-4570.7356
-4570.7138
-4570.42
-4569.855
-4570.8231
-4570.7461
-4570.76
-4570.7666
-4570.7653
-4570.7565
-4570.7405
-4570.7181
-4570.4238
-4569.8557
-4570.8234
-4570.7459
-4570.7592
-4570.7653
-4570.7635
-4570.7541
-4570.7376
-4570.7148
-4570.4202
-4569.8492
-4570.8164
-4570.7383
-4570.751
-4570.7565
-4570.7541
-4570.7442
-4570.7273
-4570.704
-4570.4093
-4569.8366
-4570.8028
-4570.7237
-4570.7356
-4570.7405
-4570.7376
-4570.7273
-4570.7099
-4570.6863
-4570.3913
-4569.8194
-4570.7832
-4570.7028
-4570.7138
-4570.7181
-4570.7148
-4570.704
-4570.6863
-4570.6623
-4570.3668
-4569.7838
-4570.4736
-4570.4098
-4570.42
-4570.4238
-4570.4202
-4570.4093
-4570.3913
-4570.3668
-4570.0684
-4079.339
-4081.133
-4080.9568
-4080.9688
-4080.9762
-4080.9762
-4080.9694
-4080.9564
-4080.938
-4080.6109
-4081.133
-4082.541
-4082.3955
-4082.4082
-4082.4153
-4082.415
-4082.4076
-4082.3936
-4082.3729
-4081.5314
-4080.9568
-4082.3955
-4082.2512
-4082.2634
-4082.27
-4082.2692
-4082.2612
-4082.2463
-4082.2242
-4081.4222
-4080.9688
-4082.4082
-4082.2634
-4082.275
-4082.2811
-4082.2798
-4082.2712
-4082.2555
-4082.2327
-4081.4299
-4080.9762
-4082.4153
-4082.27
-4082.2811
-4082.2867
-4082.2848
-4082.2757
-4082.2594
-4082.236
-4081.4328
-4080.9762
-4082.415
-4082.2692
-4082.2798
-4082.2848
-4082.2824
-4082.2728
-4082.256
-4082.2322
-4081.4287
-4080.9694
-4082.4076
-4082.2612
-4082.2712
-4082.2757
-4082.2728
-4082.2627
-4082.2455
-4082.2212
-4081.4176
-4080.9564
-4082.3936
-4082.2463
-4082.2555
-4082.2594
-4082.256
-4082.2455
-4082.2278
-4082.2032
-4081.3993
-4080.938
-4082.3729
-4082.2242
-4082.2327
-4082.236
-4082.2322
-4082.2212
-4082.2032
-4082.1781
-4081.3738
-4080.6109
-4081.5314
-4081.4222
-4081.4299
-4081.4328
-4081.4287
-4081.4176
-4081.3993
-4081.3738
-4080.4892
-3672.5171
-3674.868
-3674.6156
-3674.6248
-3674.631
-3674.6304
-3674.6232
-3674.6097
-3674.5908
-3674.0026
-3674.868
-3676.7022
-3676.4928
-3676.5031
-3676.5091
-3676.5081
-3676.5002
-3676.4857
-3676.4644
-3675.1361
-3674.6156
-3676.4928
-3676.2855
-3676.2953
-3676.3008
-3676.2994
-3676.291
-3676.2756
-3676.253
-3674.9862
-3674.6248
-3676.5031
-3676.2953
-3676.3046
-3676.3097
-3676.3077
-3676.2987
-3676.2826
-3676.2592
-3674.9917
-3674.631
-3676.5091
-3676.3008
-3676.3097
-3676.3142
-3676.3118
-3676.3022
-3676.2856
-3676.2617
-3674.9937
-3674.6304
-3676.5081
-3676.2994
-3676.3077
-3676.3118
-3676.3088
-3676.2987
-3676.2816
-3676.2573
-3674.989
-3674.6232
-3676.5002
-3676.291
-3676.2987
-3676.3022
-3676.2987
-3676.2882
-3676.2706
-3676.246
-3674.9776
-3674.6097
-3676.4857
-3676.2756
-3676.2826
-3676.2856
-3676.2816
-3676.2706
-3676.2527
-3676.2276
-3674.959
-3674.5908
-3676.4644
-3676.253
-3676.2592
-3676.2617
-3676.2573
-3676.246
-3676.2276
-3676.202
-3674.933
-3674.0026
-3675.1361
-3674.9862
-3674.9917
-3674.9937
-3674.989
-3674.9776
-3674.959
-3674.933
-3673.5108
-3329.912
-3332.7838
-3332.4593
-3332.466
-3332.4713
-3332.4701
-3332.4625
-3332.4488
-3332.4298
-3331.5984
-3332.7838
-3335.0136
-3334.744
-3334.7522
-3334.7574
-3334.7557
-3334.7474
-3334.7326
-3334.7112
-3332.9297
-3332.4593
-3334.744
-3334.4772
-3334.4851
-3334.4898
-3334.4877
-3334.4789
-3334.4633
-3334.4406
-3332.7414
-3332.466
-3334.7522
-3334.4851
-3334.4924
-3334.4966
-3334.4941
-3334.4847
-3334.4684
-3334.4449
-3332.7452
-3332.4713
-3334.7574
-3334.4898
-3334.4966
-3334.5004
-3334.4974
-3334.4874
-3334.4706
-3334.4465
-3332.7464
-3332.4701
-3334.7557
-3334.4877
-3334.4941
-3334.4974
-3334.4938
-3334.4834
-3334.4661
-3334.4417
-3332.7413
-3332.4625
-3334.7474
-3334.4789
-3334.4847
-3334.4874
-3334.4834
-3334.4726
-3334.4548
-3334.43
-3332.7295
-3332.4488
-3334.7326
-3334.4633
-3334.4684
-3334.4706
-3334.4661
-3334.4548
-3334.4366
-3334.4114
-3332.7108
-3332.4298
-3334.7112
-3334.4406
-3334.4449
-3334.4465
-3334.4417
-3334.43
-3334.4114
-3334.3857
-3332.6848
-3331.5984
-3332.9297
-3332.7414
-3332.7452
-3332.7464
-3332.7413
-3332.7295
-3332.7108
-3332.6848
-3330.7613
-3038.0887
-3041.4417
-3041.0492
-3041.0537
-3041.0583
-3041.0567
-3041.0488
-3041.035
-3041.016
-3039.9583
-3041.4417
-3044.0343
-3043.708
-3043.7145
-3043.719
-3043.7169
-3043.7083
-3043.6933
-3043.6718
-3041.4702
-3041.0492
-3043.708
-3043.3855
-3043.3916
-3043.3956
-3043.3931
-3043.384
-3043.3682
-3043.3456
-3041.2459
-3041.0537
-3043.7145
-3043.3916
-3043.3973
-3043.4008
-3043.3978
-3043.3882
-3043.3717
-3043.3483
-3041.2483
-3041.0583
-3043.719
-3043.3956
-3043.4008
-3043.404
-3043.4005
-3043.3903
-3043.3733
-3043.3494
-3041.2488
-3041.0567
-3043.7169
-3043.3931
-3043.3978
-3043.4005
-3043.3965
-3043.3858
-3043.3684
-3043.3441
-3041.2433
-3041.0488
-3043.7083
-3043.384
-3043.3882
-3043.3903
-3043.3858
-3043.3747
-3043.3568
-3043.3321
-3041.2313
-3041.035
-3043.6933
-3043.3682
-3043.3717
-3043.3733
-3043.3684
-3043.3568
-3043.3386
-3043.3134
-3041.2126
-3041.016
-3043.6718
-3043.3456
-3043.3483
-3043.3494
-3043.3441
-3043.3321
-3043.3134
-3043.2878
-3041.1867
-3039.9583
-3041.4702
-3041.2459
-3041.2483
-3041.2488
-3041.2433
-3041.2313
-3041.2126
-3041.1867
-3038.7967
-2787.0117
-2790.8049
-2790.3486
-2790.3512
-2790.3553
-2790.3532
-2790.3452
-2790.3314
-2790.3126
-2789.0457
-2790.8049
-2793.727
-2793.3477
-2793.3527
-2793.3566
-2793.3542
-2793.3453
-2793.3302
-2793.3089
-2790.7207
-2790.3486
-2793.3477
-2792.973
-2792.9777
-2792.9812
-2792.9783
-2792.969
-2792.9532
-2792.9307
-2790.4627
-2790.3512
-2793.3527
-2792.9777
-2792.9819
-2792.985
-2792.9816
-2792.9717
-2792.9552
-2792.932
-2790.4638
-2790.3553
-2793.3566
-2792.9812
-2792.985
-2792.9876
-2792.9837
-2792.9734
-2792.9563
-2792.9326
-2790.4639
-2790.3532
-2793.3542
-2792.9783
-2792.9816
-2792.9837
-2792.9794
-2792.9686
-2792.9511
-2792.927
-2790.458
-2790.3452
-2793.3453
-2792.969
-2792.9717
-2792.9734
-2792.9686
-2792.9573
-2792.9394
-2792.9149
-2790.4459
-2790.3314
-2793.3302
-2792.9532
-2792.9552
-2792.9563
-2792.9511
-2792.9394
-2792.9211
-2792.8962
-2790.4273
-2790.3126
-2793.3089
-2792.9307
-2792.932
-2792.9326
-2792.927
-2792.9149
-2792.8962
-2792.8708
-2790.4017
-2789.0457
-2790.7207
-2790.4627
-2790.4638
-2790.4639
-2790.458
-2790.4459
-2790.4273
-2790.4017
-2787.5802
-2569.0531
-2573.2449
-2572.7294
-2572.7301
-2572.7338
-2572.7315
-2572.7233
-2572.7096
-2572.6911
-2571.2323
-2573.2449
-2576.463
-2576.0346
-2576.0383
-2576.0417
-2576.039
-2576.03
-2576.0149
-2575.9938
-2573.0529
-2572.7294
-2576.0346
-2575.6117
-2575.615
-2575.6181
-2575.615
-2575.6055
-2575.5897
-2575.5674
-2572.7637
-2572.7301
-2576.0383
-2575.615
-2575.6179
-2575.6205
-2575.6169
-2575.6069
-2575.5905
-2575.5675
-2572.7635
-2572.7338
-2576.0417
-2575.6181
-2575.6205
-2575.6227
-2575.6187
-2575.6082
-2575.5912
-2575.5677
-2572.7633
-2572.7315
-2576.039
-2575.615
-2575.6169
-2575.6187
-2575.6141
-2575.6032
-2575.5858
-2575.5619
-2572.7572
-2572.7233
-2576.03
-2575.6055
-2575.6069
-2575.6082
-2575.6032
-2575.5918
-2575.574
-2575.5497
-2572.7451
-2572.7096
-2576.0149
-2575.5897
-2575.5905
-2575.5912
-2575.5858
-2575.574
-2575.5558
-2575.5311
-2572.7266
-2572.6911
-2575.9938
-2575.5674
-2575.5675
-2575.5677
-2575.5619
-2575.5497
-2575.5311
-2575.5059
-2572.7014
-2571.2323
-2573.0529
-2572.7637
-2572.7635
-2572.7633
-2572.7572
-2572.7451
-2572.7266
-2572.7014
-2569.4845
-2378.3237
-2382.8718
-2382.3019
-2382.301
-2382.3042
-2382.3018
-2382.2936
-2382.28
-2382.2617
-2380.6287
-2382.8718
-2386.3525
-2385.8791
-2385.8815
-2385.8846
-2385.8816
-2385.8726
-2385.8575
-2385.8366
-2382.5771
-2382.3019
-2385.8791
-2385.412
-2385.4141
-2385.4168
-2385.4134
-2385.4039
-2385.3882
-2385.3662
-2382.2594
-2382.301
-2385.8815
-2385.4141
-2385.4157
-2385.418
-2385.4142
-2385.4042
-2385.3878
-2385.3651
-2382.2582
-2382.3042
-2385.8846
-2385.4168
-2385.418
-2385.4199
-2385.4156
-2385.4051
-2385.3883
-2385.365
-2382.2576
-2382.3018
-2385.8816
-2385.4134
-2385.4142
-2385.4156
-2385.4109
-2385.3999
-2385.3827
-2385.359
-2382.2514
-2382.2936
-2385.8726
-2385.4039
-2385.4042
-2385.4051
-2385.3999
-2385.3885
-2385.3708
-2385.3469
-2382.2393
-2382.28
-2385.8575
-2385.3882
-2385.3878
-2385.3883
-2385.3827
-2385.3708
-2385.3528
-2385.3284
-2382.221
-2382.2617
-2385.8366
-2385.3662
-2385.3651
-2385.365
-2385.359
-2385.3469
-2385.3284
-2385.3035
-2382.1962
-2380.6287
-2382.5771
-2382.2594
-2382.2582
-2382.2576
-2382.2514
-2382.2393
-2382.221
-2382.1962
-2378.6205
-2210.2123
-2215.0743
-2214.4549
-2214.4525
-2214.4554
-2214.4528
-2214.4446
-2214.4312
-2214.4132
-2212.6237
-2215.0743
-2218.7843
-2218.2701
-2218.2713
-2218.2741
-2218.271
-2218.2619
-2218.247
-2218.2263
-2214.6826
-2214.4549
-2218.2701
-2217.763
-2217.7639
-2217.7664
-2217.7628
-2217.7533
-2217.7378
-2217.716
-2214.3389
-2214.4525
-2218.2713
-2217.7639
-2217.7645
-2217.7665
-2217.7625
-2217.7525
-2217.7363
-2217.7139
-2214.3367
-2214.4554
-2218.2741
-2217.7664
-2217.7665
-2217.768
-2217.7636
-2217.7531
-2217.7365
-2217.7136
-2214.3359
-2214.4528
-2218.271
-2217.7628
-2217.7625
-2217.7636
-2217.7588
-2217.7478
-2217.7307
-2217.7075
-2214.3296
-2214.4446
-2218.2619
-2217.7533
-2217.7525
-2217.7531
-2217.7478
-2217.7365
-2217.719
-2217.6954
-2214.3176
-2214.4312
-2218.247
-2217.7378
-2217.7363
-2217.7365
-2217.7307
-2217.719
-2217.7011
-2217.6771
-2214.2996
-2214.4132
-2218.2263
-2217.716
-2217.7139
-2217.7136
-2217.7075
-2217.6954
-2217.6771
-2217.6525
-2214.2752
-2212.6237
-2214.6826
-2214.3389
-2214.3367
-2214.3359
-2214.3296
-2214.3176
-2214.2996
-2214.2752
-2210.3778
-2061.0631
-2066.1966
-2065.533
-2065.5291
-2065.5317
-2065.529
-2065.5209
-2065.5077
-2065.49
-2063.5619
-2066.1966
-2070.1028
-2069.5523
-2069.5524
-2069.5549
-2069.5516
-2069.5425
-2069.5278
-2069.5075
-2065.7137
-2065.533
-2069.5523
-2069.0095
-2069.0094
-2069.0115
-2069.0079
-2068.9984
-2068.983
-2068.9617
-2065.3469
-2065.5291
-2069.5524
-2069.0094
-2069.0088
-2069.0106
-2069.0065
-2068.9965
-2068.9806
-2068.9585
-2065.3438
-2065.5317
-2069.5549
-2069.0115
-2069.0106
-2069.0119
-2069.0074
-2068.9969
-2068.9805
-2068.958
-2065.3428
-2065.529
-2069.5516
-2069.0079
-2069.0065
-2069.0074
-2069.0025
-2068.9916
-2068.9747
-2068.9519
-2065.3365
-2065.5209
-2069.5425
-2068.9984
-2068.9965
-2068.9969
-2068.9916
-2068.9803
-2068.9631
-2068.9398
-2065.3247
-2065.5077
-2069.5278
-2068.983
-2068.9806
-2068.9805
-2068.9747
-2068.9631
-2068.9454
-2068.9218
-2065.3069
-2065.49
-2069.5075
-2068.9617
-2068.9585
-2068.958
-2068.9519
-2068.9398
-2068.9218
-2068.8977
-2065.2831
-2063.5619
-2065.7137
-2065.3469
-2065.3438
-2065.3428
-2065.3365
-2065.3247
-2065.3069
-2065.2831
-2061.101
-1927.945
-1933.3077
-1932.6053
-1932.6
-1932.6024
-1932.5996
-1932.5915
-1932.5786
-1932.5614
-1930.5123
-1933.3077
-1937.3777
-1936.7952
-1936.7943
-1936.7965
-1936.7932
-1936.7842
-1936.7697
-1936.7498
-1932.74
-1932.6053
-1936.7952
-1936.2212
-1936.2201
-1936.222
-1936.2183
-1936.2089
-1936.1938
-1936.1728
-1932.353
-1932.6
-1936.7943
-1936.2201
-1936.2186
-1936.2201
-1936.216
-1936.2061
-1936.1904
-1936.1688
-1932.3491
-1932.6024
-1936.7965
-1936.222
-1936.2201
-1936.2212
-1936.2166
-1936.2063
-1936.1901
-1936.1681
-1932.3479
-1932.5996
-1936.7932
-1936.2183
-1936.216
-1936.2166
-1936.2117
-1936.2009
-1936.1843
-1936.1619
-1932.3416
-1932.5915
-1936.7842
-1936.2089
-1936.2061
-1936.2063
-1936.2009
-1936.1897
-1936.1728
-1936.15
-1932.3299
-1932.5786
-1936.7697
-1936.1938
-1936.1904
-1936.1901
-1936.1843
-1936.1728
-1936.1555
-1936.1323
-1932.3126
-1932.5614
-1936.7498
-1936.1728
-1936.1688
-1936.1681
-1936.1619
-1936.15
-1936.1323
-1936.1087
-1932.2893
-1930.5123
-1932.74
-1932.353
-1932.3491
-1932.3479
-1932.3416
-1932.3299
-1932.3126
-1932.2893
-1927.8598
-1808.4841
-1814.0342
-1813.2983
-1813.2918
-1813.2939
-1813.2911
-1813.2832
-1813.2705
-1813.2537
-1811.1015
-1814.0342
-1818.2359
-1817.6261
-1817.6242
-1817.6262
-1817.6227
-1817.6138
-1817.5996
-1817.5801
-1813.3881
-1813.2983
-1817.6261
-1817.0253
-1817.0233
-1817.025
-1817.0212
-1817.0119
-1816.9971
-1816.9766
-1812.984
-1813.2918
-1817.6242
-1817.0233
-1817.0209
-1817.0222
-1817.018
-1817.0082
-1816.9929
-1816.9717
-1812.9793
-1813.2939
-1817.6262
-1817.025
-1817.0222
-1817.023
-1817.0185
-1817.0083
-1816.9924
-1816.9709
-1812.9779
-1813.2911
-1817.6227
-1817.0212
-1817.018
-1817.0185
-1817.0135
-1817.0029
-1816.9866
-1816.9647
-1812.9717
-1813.2832
-1817.6138
-1817.0119
-1817.0082
-1817.0083
-1817.0029
-1816.9919
-1816.9753
-1816.953
-1812.9602
-1813.2705
-1817.5996
-1816.9971
-1816.9929
-1816.9924
-1816.9866
-1816.9753
-1816.9583
-1816.9357
-1812.9432
-1813.2537
-1817.5801
-1816.9766
-1816.9717
-1816.9709
-1816.9647
-1816.953
-1816.9357
-1816.9125
-1812.9205
-1811.1015
-1813.3881
-1812.984
-1812.9793
-1812.9779
-1812.9717
-1812.9602
-1812.9432
-1812.9205
-1808.2808
-1700.7399
-1706.436
-1705.6723
-1705.6645
-1705.6665
-1705.6636
-1705.6558
-1705.6435
-1705.6272
-1703.3893
-1706.436
-1710.7381
-1710.1055
-1710.1027
-1710.1045
-1710.101
-1710.0923
-1710.0784
-1710.0593
-1705.7185
-1705.6723
-1710.1055
-1709.4826
-1709.4797
-1709.4812
-1709.4774
-1709.4683
-1709.4538
-1709.4338
-1705.3
-1705.6645
-1710.1027
-1709.4797
-1709.4765
-1709.4776
-1709.4734
-1709.4638
-1709.4488
-1709.4282
-1705.2947
-1705.6665
-1710.1045
-1709.4812
-1709.4776
-1709.4783
-1709.4737
-1709.4637
-1709.4482
-1709.4272
-1705.2932
-1705.6636
-1710.101
-1709.4774
-1709.4734
-1709.4737
-1709.4687
-1709.4583
-1709.4424
-1709.4211
-1705.287
-1705.6558
-1710.0923
-1709.4683
-1709.4638
-1709.4637
-1709.4583
-1709.4475
-1709.4313
-1709.4096
-1705.2758
-1705.6435
-1710.0784
-1709.4538
-1709.4488
-1709.4482
-1709.4424
-1709.4313
-1709.4147
-1709.3926
-1705.2593
-1705.6272
-1710.0593
-1709.4338
-1709.4282
-1709.4272
-1709.4211
-1709.4096
-1709.3926
-1709.3701
-1705.2372
-1703.3893
-1705.7185
-1705.3
-1705.2947
-1705.2932
-1705.287
-1705.2758
-1705.2593
-1705.2372
-1700.4239
-1603.1127
-1608.9144
-1608.1283
-1608.1196
-1608.1213
-1608.1184
-1608.1108
-1608.0988
-1608.083
-1605.7767
-1608.9144
-1613.2863
-1612.6356
-1612.632
-1612.6336
-1612.6301
-1612.6215
-1612.6079
-1612.5894
-1608.1324
-1608.1283
-1612.6356
-1611.9951
-1611.9914
-1611.9927
-1611.9889
-1611.98
-1611.9659
-1611.9464
-1607.7027
-1608.1196
-1612.632
-1611.9914
-1611.9874
-1611.9883
-1611.9841
-1611.9747
-1611.9601
-1611.9401
-1607.6967
-1608.1213
-1612.6336
-1611.9927
-1611.9883
-1611.9888
-1611.9843
-1611.9745
-1611.9594
-1611.939
-1607.6951
-1608.1184
-1612.6301
-1611.9889
-1611.9841
-1611.9843
-1611.9793
-1611.9691
-1611.9537
-1611.9329
-1607.689
-1608.1108
-1612.6215
-1611.98
-1611.9747
-1611.9745
-1611.9691
-1611.9586
-1611.9428
-1611.9217
-1607.6781
-1608.0988
-1612.6079
-1611.9659
-1611.9601
-1611.9594
-1611.9537
-1611.9428
-1611.9266
-1611.9052
-1607.6621
-1608.083
-1612.5894
-1611.9464
-1611.9401
-1611.939
-1611.9329
-1611.9217
-1611.9052
-1611.8833
-1607.6407
-1605.7767
-1608.1324
-1607.7027
-1607.6967
-1607.6951
-1607.689
-1607.6781
-1607.6621
-1607.6407
-1602.6901
-1514.274
-1520.1416
-1519.3388
-1519.3291
-1519.3306
-1519.3277
-1519.3203
-1519.3087
-1519.2934
-1516.9356
-1520.1416
-1524.5537
-1523.8895
-1523.8852
-1523.8865
-1523.883
-1523.8746
-1523.8614
-1523.8435
-1519.3022
-1519.3388
-1523.8895
-1523.2359
-1523.2315
-1523.2326
-1523.2288
-1523.2201
-1523.2064
-1523.1876
-1518.8643
-1519.3291
-1523.8852
-1523.2315
-1523.2268
-1523.2275
-1523.2234
-1523.2142
-1523.2
-1523.1806
-1518.8578
-1519.3306
-1523.8865
-1523.2326
-1523.2275
-1523.2279
-1523.2233
-1523.2138
-1523.1991
-1523.1794
-1518.8561
-1519.3277
-1523.883
-1523.2288
-1523.2234
-1523.2233
-1523.2184
-1523.2085
-1523.1935
-1523.1734
-1518.8501
-1519.3203
-1523.8746
-1523.2201
-1523.2142
-1523.2138
-1523.2085
-1523.1982
-1523.1829
-1523.1625
-1518.8395
-1519.3087
-1523.8614
-1523.2064
-1523.2
-1523.1991
-1523.1935
-1523.1829
-1523.1672
-1523.1465
-1518.824
-1519.2934
-1523.8435
-1523.1876
-1523.1806
-1523.1794
-1523.1734
-1523.1625
-1523.1465
-1523.1253
-1518.8034
-1516.9356
-1519.3022
-1518.8643
-1518.8578
-1518.8561
-1518.8501
-1518.8395
-1518.824
-1518.8034
-1513.751
-1433.1123
-1439.0074
-1438.1933
-1438.1828
-1438.1841
-1438.1812
-1438.1741
-1438.1629
-1438.1482
-1435.7553
-1439.0074
-1443.431
-1442.7578
-1442.7528
-1442.7539
-1442.7505
-1442.7423
-1442.7295
-1442.7122
-1438.1179
-1438.1933
-1442.7578
-1442.0956
-1442.0906
-1442.0914
-1442.0877
-1442.0792
-1442.066
-1442.0478
-1437.6747
-1438.1828
-1442.7528
-1442.0906
-1442.0852
-1442.0857
-1442.0817
-1442.0728
-1442.059
-1442.0403
-1437.6677
-1438.1841
-1442.7539
-1442.0914
-1442.0857
-1442.0859
-1442.0815
-1442.0722
-1442.0581
-1442.039
-1437.6659
-1438.1812
-1442.7505
-1442.0877
-1442.0817
-1442.0815
-1442.0767
-1442.067
-1442.0526
-1442.0332
-1437.6601
-1438.1741
-1442.7423
-1442.0792
-1442.0728
-1442.0722
-1442.067
-1442.0571
-1442.0423
-1442.0226
-1437.6498
-1438.1629
-1442.7295
-1442.066
-1442.059
-1442.0581
-1442.0526
-1442.0423
-1442.0271
-1442.0071
-1437.6349
-1438.1482
-1442.7122
-1442.0478
-1442.0403
-1442.039
-1442.0332
-1442.0226
-1442.0071
-1441.9867
-1437.6151
-1435.7553
-1438.1179
-1437.6747
-1437.6677
-1437.6659
-1437.6601
-1437.6498
-1437.6349
-1437.6151
-1432.4957
-1358.6919
-1364.5773
-1363.7574
-1363.7461
-1363.7472
-1363.7444
-1363.7375
-1363.7267
-1363.7126
-1361.3008
-1364.5773
-1368.9847
-1368.3071
-1368.3014
-1368.3024
-1368.299
-1368.291
-1368.2787
-1368.2621
-1363.6449
-1363.7574
-1368.3071
-1367.6407
-1367.635
-1367.6358
-1367.6321
-1367.6238
-1367.6111
-1367.5937
-1363.1994
-1363.7461
-1368.3014
-1367.635
-1367.6291
-1367.6295
-1367.6255
-1367.6169
-1367.6036
-1367.5857
-1363.192
-1363.7472
-1368.3024
-1367.6358
-1367.6295
-1367.6296
-1367.6252
-1367.6162
-1367.6026
-1367.5843
-1363.1902
-1363.7444
-1368.299
-1367.6321
-1367.6255
-1367.6252
-1367.6205
-1367.6112
-1367.5972
-1367.5786
-1363.1845
-1363.7375
-1368.291
-1367.6238
-1367.6169
-1367.6162
-1367.6112
-1367.6015
-1367.5873
-1367.5684
-1363.1746
-1363.7267
-1368.2787
-1367.6111
-1367.6036
-1367.6026
-1367.5972
-1367.5873
-1367.5727
-1367.5535
-1363.1603
-1363.7126
-1368.2621
-1367.5937
-1367.5857
-1367.5843
-1367.5786
-1367.5684
-1367.5535
-1367.5339
-1363.1413
-1361.3008
-1363.6449
-1363.1994
-1363.192
-1363.1902
-1363.1845
-1363.1746
-1363.1603
-1363.1413
-1357.9888
-1290.2204
-1296.0601
-1295.2397
-1295.2278
-1295.2287
-1295.2259
-1295.2193
-1295.209
-1295.1955
-1292.7803
-1296.0601
-1300.425
-1299.7472
-1299.741
-1299.7418
-1299.7384
-1299.7308
-1299.719
-1299.703
-1295.0922
-1295.2397
-1299.7472
-1299.0809
-1299.0748
-1299.0754
-1299.0717
-1299.0638
-1299.0516
-1299.0349
-1294.6473
-1295.2278
-1299.741
-1299.0748
-1299.0684
-1299.0687
-1299.0647
-1299.0564
-1299.0437
-1299.0265
-1294.6395
-1295.2287
-1299.7418
-1299.0754
-1299.0687
-1299.0686
-1299.0643
-1299.0557
-1299.0426
-1299.0251
-1294.6376
-1295.2259
-1299.7384
-1299.0717
-1299.0647
-1299.0643
-1299.0597
-1299.0508
-1299.0374
-1299.0196
-1294.6321
-1295.2193
-1299.7308
-1299.0638
-1299.0564
-1299.0557
-1299.0508
-1299.0415
-1299.0278
-1299.0097
-1294.6226
-1295.209
-1299.719
-1299.0516
-1299.0437
-1299.0426
-1299.0374
-1299.0278
-1299.0138
-1298.9955
-1294.609
-1295.1955
-1299.703
-1299.0349
-1299.0265
-1299.0251
-1299.0196
-1299.0097
-1298.9955
-1298.9767
-1294.5909
-1292.7803
-1295.0922
-1294.6473
-1294.6395
-1294.6376
-1294.6321
-1294.6226
-1294.609
-1294.5909
-1289.4379
-1227.0229
-1232.7825
-1231.9668
-1231.9544
-1231.9551
-1231.9524
-1231.946
-1231.9363
-1231.9234
-1229.5197
-1232.7825
-1237.0795
-1236.4059
-1236.3993
-1236.4
-1236.3966
-1236.3893
-1236.378
-1236.3628
-1231.7863
-1231.9668
-1236.4059
-1235.744
-1235.7375
-1235.7379
-1235.7343
-1235.7267
-1235.715
-1235.6991
-1231.3447
-1231.9544
-1236.3993
-1235.7375
-1235.7307
-1235.7308
-1235.7269
-1235.719
-1235.7068
-1235.6905
-1231.3366
-1231.9551
-1236.4
-1235.7379
-1235.7308
-1235.7306
-1235.7264
-1235.7181
-1235.7057
-1235.689
-1231.3348
-1231.9524
-1236.3966
-1235.7343
-1235.7269
-1235.7264
-1235.722
-1235.7134
-1235.7006
-1235.6836
-1231.3295
-1231.946
-1236.3893
-1235.7267
-1235.719
-1235.7181
-1235.7134
-1235.7045
-1235.6914
-1235.6742
-1231.3204
-1231.9363
-1236.378
-1235.715
-1235.7068
-1235.7057
-1235.7006
-1235.6914
-1235.6781
-1235.6606
-1231.3074
-1231.9234
-1236.3628
-1235.6991
-1235.6905
-1235.689
-1235.6836
-1235.6742
-1235.6606
-1235.6427
-1231.2902
-1229.5197
-1231.7863
-1231.3447
-1231.3366
-1231.3348
-1231.3295
-1231.3204
-1231.3074
-1231.2902
-1226.1685
-1168.5216
-1174.1682
-1173.3623
-1173.3495
-1173.3501
-1173.3475
-1173.3414
-1173.3321
-1173.32
-1170.9421
-1174.1682
-1178.3735
-1177.7083
-1177.7013
-1177.7018
-1177.6985
-1177.6915
-1177.6807
-1177.6663
-1173.1509
-1173.3623
-1177.7083
-1177.0547
-1177.0479
-1177.0481
-1177.0447
-1177.0374
-1177.0263
-1177.0112
-1172.7155
-1173.3495
-1177.7013
-1177.0479
-1177.0407
-1177.0407
-1177.037
-1177.0294
-1177.0178
-1177.0023
-1172.7072
-1173.3501
-1177.7018
-1177.0481
-1177.0407
-1177.0404
-1177.0364
-1177.0285
-1177.0166
-1177.0008
-1172.7053
-1173.3475
-1177.6985
-1177.0447
-1177.037
-1177.0364
-1177.0321
-1177.0239
-1177.0117
-1176.9957
-1172.7003
-1173.3414
-1177.6915
-1177.0374
-1177.0294
-1177.0285
-1177.0239
-1177.0154
-1177.003
-1176.9867
-1172.6917
-1173.3321
-1177.6807
-1177.0263
-1177.0178
-1177.0166
-1177.0117
-1177.003
-1176.9903
-1176.9737
-1172.6793
-1173.32
-1177.6663
-1177.0112
-1177.0023
-1177.0008
-1176.9957
-1176.9867
-1176.9737
-1176.9567
-1172.6631
-1170.9421
-1173.1509
-1172.7155
-1172.7072
-1172.7053
-1172.7003
-1172.6917
-1172.6793
-1172.6631
-1167.6029
-1114.2196
-1119.7222
-1118.9309
-1118.9178
-1118.9183
-1118.9157
-1118.91
-1118.9012
-1118.8898
-1116.5515
-1119.7222
-1123.8131
-1123.1602
-1123.1529
-1123.1532
-1123.1501
-1123.1434
-1123.1332
-1123.1196
-1118.6908
-1118.9309
-1123.1602
-1122.519
-1122.5118
-1122.5119
-1122.5086
-1122.5017
-1122.4912
-1122.4769
-1118.2642
-1118.9178
-1123.1529
-1122.5118
-1122.5044
-1122.5043
-1122.5007
-1122.4935
-1122.4826
-1122.4679
-1118.2557
-1118.9183
-1123.1532
-1122.5119
-1122.5043
-1122.5039
-1122.5
-1122.4925
-1122.4813
-1122.4664
-1118.2539
-1118.9157
-1123.1501
-1122.5086
-1122.5007
-1122.5
-1122.4959
-1122.4881
-1122.4766
-1122.4614
-1118.249
-1118.91
-1123.1434
-1122.5017
-1122.4935
-1122.4925
-1122.4881
-1122.48
-1122.4683
-1122.4529
-1118.2409
-1118.9012
-1123.1332
-1122.4912
-1122.4826
-1122.4813
-1122.4766
-1122.4683
-1122.4563
-1122.4407
-1118.2293
-1118.8898
-1123.1196
-1122.4769
-1122.4679
-1122.4664
-1122.4614
-1122.4529
-1122.4407
-1122.4247
-1118.214
-1116.5515
-1118.6908
-1118.2642
-1118.2557
-1118.2539
-1118.249
-1118.2409
-1118.2293
-1118.214
-1113.2443
-1063.6875
-1069.0167
-1068.2447
-1068.2316
-1068.2318
-1068.2294
-1068.2239
-1068.2157
-1068.2051
-1065.9193
-1069.0167
-1072.9721
-1072.3354
-1072.3279
-1072.3281
-1072.325
-1072.3187
-1072.3091
-1072.2963
-1067.9782
-1068.2447
-1072.3354
-1071.7102
-1071.7029
-1071.7028
-1071.6996
-1071.6931
-1071.6832
-1071.6699
-1067.5629
-1068.2316
-1072.3279
-1071.7029
-1071.6953
-1071.695
-1071.6916
-1071.6847
-1071.6745
-1071.6608
-1067.5544
-1068.2318
-1072.3281
-1071.7028
-1071.695
-1071.6945
-1071.6908
-1071.6837
-1071.6732
-1071.6592
-1067.5526
-1068.2294
-1072.325
-1071.6996
-1071.6916
-1071.6908
-1071.6869
-1071.6795
-1071.6687
-1071.6545
-1067.548
-1068.2239
-1072.3187
-1071.6931
-1071.6847
-1071.6837
-1071.6795
-1071.6719
-1071.6609
-1071.6465
-1067.5403
-1068.2157
-1072.3091
-1071.6832
-1071.6745
-1071.6732
-1071.6687
-1071.6609
-1071.6496
-1071.635
-1067.5294
-1068.2051
-1072.2963
-1071.6699
-1071.6608
-1071.6592
-1071.6545
-1071.6465
-1071.635
-1071.62
-1067.5152
-1065.9193
-1067.9782
-1067.5629
-1067.5544
-1067.5526
-1067.548
-1067.5403
-1067.5294
-1067.5152
-1062.6635
-1016.553
-1021.6813
-1020.9331
-1020.9199
-1020.92
-1020.9176
-1020.9125
-1020.9049
-1020.895
-1018.6739
-1021.6813
-1025.4813
-1024.8644
-1024.8568
-1024.8568
-1024.8539
-1024.8479
-1024.839
-1024.8271
-1020.6424
-1020.9331
-1024.8644
-1024.2589
-1024.2514
-1024.2513
-1024.2482
-1024.2421
-1024.2328
-1024.2204
-1020.2407
-1020.9199
-1024.8568
-1024.2514
-1024.2437
-1024.2434
-1024.2401
-1024.2337
-1024.2241
-1024.2113
-1020.2323
-1020.92
-1024.8568
-1024.2513
-1024.2434
-1024.2428
-1024.2393
-1024.2326
-1024.2228
-1024.2097
-1020.2305
-1020.9176
-1024.8539
-1024.2482
-1024.2401
-1024.2393
-1024.2355
-1024.2286
-1024.2185
-1024.2053
-1020.2261
-1020.9125
-1024.8479
-1024.2421
-1024.2337
-1024.2326
-1024.2286
-1024.2215
-1024.2112
-1024.1977
-1020.219
-1020.9049
-1024.839
-1024.2328
-1024.2241
-1024.2228
-1024.2185
-1024.2112
-1024.2007
-1024.187
-1020.2089
-1020.895
-1024.8271
-1024.2204
-1024.2113
-1024.2097
-1024.2053
-1024.1977
-1024.187
-1024.173
-1020.1957
-1018.6739
-1020.6424
-1020.2407
-1020.2323
-1020.2305
-1020.2261
-1020.219
-1020.2089
-1020.1957
-1015.4878
-972.49152
-977.39342
-976.67308
-976.65997
-976.65998
-976.65773
-976.65299
-976.64589
-976.63674
-974.49198
-977.39342
-981.01977
-980.42615
-980.41846
-980.41837
-980.41558
-980.40998
-980.40164
-980.39061
-976.36066
-976.67308
-980.42615
-979.84356
-979.83605
-979.83581
-979.83289
-979.82714
-979.81856
-979.80705
-975.97491
-976.65997
-980.41846
-979.83605
-979.82835
-979.82791
-979.82478
-979.81879
-979.80991
-979.79806
-975.96658
-976.65998
-980.41837
-979.83581
-979.82791
-979.82727
-979.82392
-979.81769
-979.80857
-979.7965
-975.96478
-976.65773
-980.41558
-979.83289
-979.82478
-979.82392
-979.82035
-979.81391
-979.80457
-979.79232
-975.96071
-976.65299
-980.40998
-979.82714
-979.81879
-979.81769
-979.81391
-979.80726
-979.79772
-979.78529
-975.95407
-976.64589
-980.40164
-979.81856
-979.80991
-979.80857
-979.80457
-979.79772
-979.78798
-979.77533
-975.94473
-976.63674
-980.39061
-979.80705
-979.79806
-979.7965
-979.79232
-979.78529
-979.77533
-979.7624
-975.93255
-974.49198
-976.36066
-975.97491
-975.96658
-975.96478
-975.96071
-975.95407
-975.94473
-975.93255
-971.39296
-931.21948
-935.87132
-935.18286
-935.16996
-935.16984
-935.16772
-935.16334
-935.15682
-935.14844
-933.09066
-935.87132
-939.30724
-938.74011
-938.73243
-938.73223
-938.72959
-938.72439
-938.7167
-938.70656
-934.851
-935.18286
-938.74011
-938.18366
-938.17617
-938.17583
-938.17308
-938.16775
-938.15984
-938.14928
-934.48332
-935.16996
-938.73243
-938.17617
-938.16852
-938.168
-938.16505
-938.1595
-938.15132
-938.14045
-934.47516
-935.16984
-938.73223
-938.17583
-938.168
-938.16729
-938.16415
-938.15838
-938.14998
-938.1389
-934.47341
-935.16772
-938.72959
-938.17308
-938.16505
-938.16415
-938.1608
-938.15484
-938.14625
-938.13501
-934.46962
-935.16334
-938.72439
-938.16775
-938.1595
-938.15838
-938.15484
-938.14869
-938.13991
-938.12851
-934.46351
-935.15682
-938.7167
-938.15984
-938.15132
-938.14998
-938.14625
-938.13991
-938.13095
-938.11935
-934.45496
-935.14844
-938.70656
-938.14928
-938.14045
-938.1389
-938.13501
-938.12851
-938.11935
-938.10748
-934.44384
-933.09066
-934.851
-934.48332
-934.47516
-934.47341
-934.46962
-934.46351
-934.45496
-934.44384
-930.09515
-892.48802
-896.86818
-896.2153
-896.2027
-896.20248
-896.20048
-896.19647
-896.19055
-896.18295
-894.22204
-896.86818
-900.09842
-899.56078
-899.55318
-899.55288
-899.5504
-899.54561
-899.53859
-899.52936
-895.86634
-896.2153
-899.56078
-899.0334
-899.02601
-899.02558
-899.023
-899.01811
-899.01089
-899.00128
-895.51874
-896.2027
-899.55318
-899.02601
-899.01846
-899.01788
-899.01512
-899.01003
-899.00256
-898.99268
-895.51081
-896.20248
-899.55288
-899.02558
-899.01788
-899.01713
-899.01419
-899.00891
-899.00124
-898.99117
-895.50912
-896.20048
-899.5504
-899.023
-899.01512
-899.01419
-899.01108
-899.00562
-898.99778
-898.98756
-895.50562
-896.19647
-899.54561
-899.01811
-899.01003
-899.00891
-899.00562
-898.99998
-898.99198
-898.98161
-895.50005
-896.19055
-899.53859
-899.01089
-899.00256
-899.00124
-898.99778
-898.99198
-898.98381
-898.97326
-895.4923
-896.18295
-899.52936
-899.00128
-898.99268