/*--------------------------------*- C++ -*----------------------------------*\
| =========                 |                                                 |
| \\      /  F ield         | OpenFOAM: The Open Source CFD Toolbox           |
|  \\    /   O peration     | Version:  v2106                                 |
|   \\  /    A nd           | Website:  www.openfoam.com                      |
|    \\/     M anipulation  |                                                 |
\*---------------------------------------------------------------------------*/
FoamFile
{
    version     2.0;
    format      ascii;
    arch        "LSB;label=32;scalar=64";
    class       volScalarField;
    location    "15";
    object      gradTy;
}
// * * * * * * * * * * * * * * * * * * * * * * * * * * * * * * * * * * * * * //

dimensions      [0 -1 0 1 0 0 0];

internalField   nonuniform List<scalar> 
4000
(
-0.00012769168
-0.0003010049
0.00016370691
-5.8672996e-05
-0.00011558485
-0.00010859288
-8.9477819e-05
-7.6487847e-05
-5.8546616e-05
-5.5074273e-06
-0.00047541956
-3.832167e-05
0.00037517723
-7.3694967e-05
-0.0001645356
-0.00012320322
-6.5893034e-05
-5.4352105e-05
-7.6177543e-05
-1.1611087e-07
0.00044820467
0.00081170252
0.00041283137
0.00027712685
0.00029534097
0.00037035728
0.00045074448
0.00047507729
0.00039344177
0.00029023408
0.00050352222
8.4584578e-05
-3.619062e-05
-3.2905835e-05
2.6658137e-05
0.00011474262
0.00022084296
0.00031782813
0.00034952538
0.00029847161
-0.00050243936
-0.00057731918
-0.00055194761
-0.00048408875
-0.00040429916
-0.00032120798
-0.00022900834
-0.00012533294
-2.1498872e-05
6.1311301e-05
-0.00040584265
-0.0003666821
-0.00030720006
-0.00021127858
-0.00011301525
-3.5987767e-05
2.7167147e-05
8.2215192e-05
0.00013018054
0.00016720693
-0.0001689628
-0.00012080525
-0.00010011169
-1.6085238e-05
0.00010297383
0.0001797898
0.00022117678
0.00023651947
0.00023288705
0.00021827822
-4.7000141e-05
-6.0333321e-07
-5.728465e-05
-5.7906035e-05
7.1397778e-05
0.00014960345
0.00017441118
0.00016131371
0.00012578587
8.6324446e-05
-2.0390446e-05
8.6080178e-05
3.3845551e-05
-9.8763024e-05
1.4489028e-05
8.7881206e-05
9.9480781e-05
6.9639966e-05
2.4491516e-05
-4.694121e-06
-6.9235555e-06
4.6115631e-05
4.3784063e-05
-2.26895e-05
9.7482149e-06
3.2517278e-05
3.443248e-05
2.2778067e-05
8.1248637e-06
3.3209739e-06
-4.2275457e-05
-0.0003111038
0.00046210605
5.7704407e-07
-0.00011512527
-8.7049211e-05
-3.6151718e-05
-7.1672578e-06
6.5257468e-05
0.00023159502
-0.00046421456
0.0002923577
0.00093623437
-4.2143987e-06
-0.00018270175
-4.9831194e-05
0.00010841314
0.00011437267
7.9625623e-05
0.00033643146
0.0010824344
0.0015499557
0.00078586229
0.00049174977
0.0005539137
0.00077349503
0.0010080474
0.0010620267
0.00083218526
0.00060620888
0.00086307316
-2.7738102e-06
-0.00025586296
-0.00023472241
-6.4583884e-05
0.00019333965
0.00050543433
0.00077921813
0.00086204949
0.00074758016
-0.0013373599
-0.0014687993
-0.0013829767
-0.0011870541
-0.00095491467
-0.00070925199
-0.00043730863
-0.00014152437
0.00013724095
0.00034573898
-0.001064274
-0.0009458137
-0.00077315913
-0.00049168
-0.00020314092
2.5926045e-05
0.00021279644
0.00037136297
0.00050121968
0.00058899362
-0.00045213817
-0.00033231524
-0.00028793431
-4.3783547e-05
0.00029794418
0.00052394407
0.0006433811
0.00068106066
0.00065710512
0.00059128186
-0.00015419159
-2.0778202e-06
-0.00018297912
-0.00017793997
0.00017363604
0.00039660961
0.00046205928
0.00041033363
0.00029332853
0.00017311475
-0.00014034567
0.00021779775
8.1713129e-05
-0.00023802009
5.0075159e-05
0.00024924327
0.0002677058
0.00015946448
3.0486934e-05
6.1597961e-06
-6.0810359e-05
0.00010552719
0.00011039354
-4.5123727e-05
3.4080659e-05
9.387497e-05
9.2596614e-05
4.9992795e-05
1.2454094e-05
3.3774704e-05
0.00027138321
-0.00027324014
0.00061260726
1.5016285e-05
-0.00012333404
-6.6324638e-05
7.9120046e-06
2.2993689e-05
0.00017138138
0.00052013483
7.3541256e-05
0.00058537733
0.0012573414
4.2447473e-05
-0.00014918276
9.7266883e-05
0.00035186613
0.00029084555
0.00025167102
0.00079931597
0.0014536711
0.0018860557
0.00091074123
0.0005434036
0.0006746336
0.0010511844
0.0014543679
0.0015310004
0.0011564289
0.00087890989
0.00080209284
-0.00030181911
-0.00060443134
-0.00053792674
-0.00025359603
0.00017371166
0.000694138
0.0011448373
0.0012919511
0.0011697808
-0.0020309262
-0.0021529375
-0.0019761067
-0.0016451568
-0.0012644683
-0.0008617431
-0.00041831323
5.2136763e-05
0.00047834032
0.0007856685
-0.0015308738
-0.0013340047
-0.0010298249
-0.00055427037
-8.2090853e-05
0.00029188473
0.00059238833
0.00083677382
0.0010197951
0.0011171222
-0.00063511176
-0.00050113427
-0.00044153311
-2.1318242e-05
0.00052959257
0.00089256163
0.0010744817
0.0011107595
0.001034229
0.00087434075
-0.00021904867
2.6155402e-05
-0.00031924379
-0.00027178367
0.0002785693
0.00062486989
0.0007059761
0.00058461721
0.00036889333
0.00018969329
-0.00037806497
0.00036764675
0.00013040545
-0.00028444378
0.00015534891
0.00044908796
0.00043569727
0.00021266922
4.0773347e-05
2.532273e-05
-0.00020604574
0.00014270771
0.0001590509
-4.2304959e-05
7.7604024e-05
0.0001625805
0.00014248873
5.5988331e-05
2.3022039e-05
4.5687914e-05
0.00044680329
-0.00027356962
0.00072290042
1.7078292e-05
-0.00013120522
-3.8108375e-05
6.0000649e-05
3.3375407e-05
0.00022224765
0.00073312343
0.00027907413
0.00069321984
0.001417812
-7.008066e-06
-0.00018256927
0.00019502378
0.00055704428
0.00039643207
0.00032586163
0.0011729878
0.0016298002
0.0020657721
0.00092957232
0.00052359595
0.00073785696
0.0012783625
0.0018590064
0.001961716
0.0014690671
0.0011940129
0.000749732
-0.00053142645
-0.00085064926
-0.00072314179
-0.00032057924
0.00027431514
0.00099734944
0.001609765
0.0018078941
0.0016801718
-0.0025389849
-0.0026217649
-0.0023369531
-0.0018669984
-0.0013394961
-0.00078476808
-0.00017911244
0.00044765453
0.00099401483
0.0013703991
-0.0018226941
-0.0015358853
-0.0010830806
-0.00041473589
0.00023484808
0.00074564782
0.0011476241
0.0014574444
0.001663127
0.0017310967
-0.00074329045
-0.00063606477
-0.00054188216
4.7288655e-05
0.00079356772
0.0012797113
0.0015053643
0.0015121628
0.0013496214
0.0010657327
-0.00023309157
1.0278924e-05
-0.00046427422
-0.00037966044
0.00034627046
0.00079346684
0.00086177336
0.00063772386
0.00032631555
0.00018812195
-0.00053628657
0.00051333547
0.00024026912
-0.00025436757
0.00031067592
0.00066837699
0.00058432817
0.00022194689
0.00013472625
0.00010896828
-0.00032771816
0.00018315763
0.0002370326
-2.1180616e-07
0.0001518844
0.00025071103
0.00019719754
6.1451944e-05
0.00010506847
4.4279963e-05
0.00050029311
-0.00033477861
0.00078049018
-2.1367574e-05
-0.00017407803
-3.9459396e-05
9.1831654e-05
3.0405592e-05
0.00026277086
0.00091765202
0.00026342041
0.00068371603
0.0014899169
-0.00011607009
-0.00026330491
0.00025473489
0.00073953427
0.00049095319
0.00040574791
0.0015277301
0.0017875896
0.0022577062
0.00098780352
0.00055935841
0.0008622184
0.0015665125
0.0023222906
0.002445013
0.0018430786
0.0015739593
0.00080732155
-0.00062453077
-0.00094590027
-0.00075011588
-0.000228287
0.00053049085
0.0014477705
0.0022060117
0.0024409225
0.002299101
-0.0028539098
-0.0028810475
-0.0024831048
-0.0018738934
-0.0012024981
-0.00050149912
0.00025672148
0.0010231257
0.0016673389
0.002090405
-0.0019355032
-0.0015366387
-0.00093266403
-7.6566477e-05
0.00074339348
0.0013826531
0.001874119
0.0022300655
0.0024302265
0.0024351211
-0.00076804461
-0.00066324713
-0.00053182631
0.00021525333
0.0011436946
0.0017398781
0.001991107
0.0019390347
0.0016502933
0.0012023394
-0.0002685638
-1.2154985e-05
-0.00060235017
-0.00049136701
0.00039080188
0.00091925043
0.00094690931
0.00057843672
0.00014623217
0.00012169056
-0.00070392485
0.0006269448
0.00033285204
-0.00024410891
0.0004259413
0.00082317037
0.00063099689
8.6475097e-05
0.00017425072
0.00020425461
-0.00043634995
0.00021853122
0.00031163818
3.9118345e-05
0.00021709047
0.00032116236
0.00022035355
2.2526469e-05
0.00020399247
4.2529051e-05
0.00052936355
-0.00040009038
0.00083236881
-5.8285441e-05
-0.00021336168
-3.6675767e-05
0.00012965083
3.595067e-05
0.00031280947
0.001100512
0.00023393741
0.00068844529
0.0015840003
-0.00018662283
-0.00030126858
0.00035667517
0.00096479746
0.00063009406
0.00053551486
0.0019100055
0.0020070056
0.002519713
0.0011319375
0.00068921125
0.0010816568
0.0019459817
0.0028702474
0.0030048094
0.0022944078
0.0020241591
0.00098732331
-0.00058127242
-0.00089794553
-0.00063155312
7.8406291e-06
0.00092519775
0.0020276597
0.0029184158
0.0031793436
0.0030153234
-0.0029917315
-0.002959317
-0.0024484335
-0.0017025465
-0.00089168262
-5.0759871e-05
0.00085093088
0.0017437042
0.0024701237
0.0029253295
-0.0018695853
-0.0013550665
-0.00060351925
0.00043352407
0.0014162999
0.0021761376
0.0027474603
0.0031359483
0.0033120424
0.0032324235
-0.00065247405
-0.00054353439
-0.00037905516
0.00051529333
0.0016141629
0.0023097574
0.0025739736
0.0024437058
0.001999832
0.0013526301
-0.00022967501
4.5062961e-05
-0.00065895761
-0.00053077667
0.00049272629
0.0010884161
0.0010573084
0.0005142745
-7.3358379e-05
2.3557676e-05
-0.00082124735
0.00077559458
0.0004586641
-0.00020505578
0.00055557169
0.00097656952
0.00065204693
-0.00011450623
0.00016133011
0.00028119637
-0.00052426821
0.00026343427
0.00039205889
8.3268458e-05
0.00028271206
0.00038673901
0.0002296328
-4.4728926e-05
0.0002942435
3.5181917e-05
0.00056320638
-0.00045220938
0.0008911542
-8.2295861e-05
-0.00023859505
-2.0780579e-05
0.00017985478
5.4294667e-05
0.00037386253
0.0012865067
0.00024750955
0.00073943128
0.0017222837
-0.00020020713
-0.00028071948
0.00051329836
0.0012406497
0.00081923441
0.00071450163
0.0023250636
0.0022949363
0.0028498065
0.0013552978
0.00090298983
0.0013835409
0.0024023209
0.0034874538
0.00362787
0.0028094354
0.0025333984
0.001268922
-0.00042570191
-0.00073408119
-0.00039745887
0.00035587828
0.0014252724
0.0027036137
0.0037161015
0.0039957125
0.0038049079
-0.0029863615
-0.0028940886
-0.002272856
-0.0013947574
-0.00045012468
0.00052374417
0.0015601492
0.0025684833
0.0033660935
0.0038445103
-0.0016610333
-0.0010333586
-0.00013966411
0.0010705543
0.0022080713
0.0030808282
0.0037240239
0.0041358741
0.0042775247
0.0041033692
-0.00041403158
-0.00030141871
-0.00010809552
0.00092413034
0.0021827335
0.0029688695
0.0032377794
0.003019305
0.0024065936
0.001542884
-0.00010571171
0.00018529993
-0.00063185977
-0.00049271845
0.00066023903
0.0013132258
0.0012137397
0.00048204004
-0.00028098691
-7.2079799e-05
-0.00088238475
0.00096593327
0.00062344447
-0.00012853831
0.00071225088
0.0011474887
0.00067974606
-0.00032893229
0.00012562621
0.00034332028
-0.00059514565
0.00031749849
0.00047856235
0.00013347386
0.00035135927
0.00045241838
0.00023525566
-0.00012338801
0.00037452707
2.1741365e-05
0.00060418046
-0.00049078576
0.00095548162
-9.4736584e-05
-0.00025133164
6.1922451e-06
0.00023978168
8.2748286e-05
0.00044262065
0.0014734225
0.00030340681
0.00083035856
0.0018952369
-0.00016692978
-0.00021275406
0.00071217695
0.0015535293
0.0010460413
0.00092998026
0.0027632815
0.0026347218
0.0032287956
0.0016374335
0.0011788774
0.0017446949
0.0029111782
0.0041491546
0.0042916596
0.0033674851
0.0030841376
0.0016253525
-0.00018486738
-0.00048263843
-7.7606003e-05
0.00078479168
0.0019987206
0.0034433085
0.0045682456
0.0048615715
0.0046422491
-0.0028697673
-0.0027183741
-0.0019906606
-0.0009860732
8.5666009e-05
0.0011849625
0.0023474077
0.0034618392
0.0043221249
0.0048178268
-0.0013461888
-0.00060951877
0.0004200946
0.001794941
0.0030786114
0.0040566827
0.0047647346
0.0051933068
0.00529472
0.0050223411
-8.4501519e-05
3.0332548e-05
0.00024936284
0.001410814
0.0028188879
0.0036876906
0.003955512
0.0036442224
0.0028583033
0.0017735261
8.5903572e-05
0.00039016201
-0.00053764546
-0.00039150748
0.00088061757
0.0015832097
0.001410603
0.00048600092
-0.00045978304
-0.00014796448
-0.00089789871
0.0011881126
0.00081934146
-1.9409443e-05
0.00089334494
0.0013365782
0.00072237928
-0.00053411804
8.8413886e-05
0.00040225955
-0.00065309944
0.00037770238
0.00056910137
0.0001888041
0.0004228864
0.00051927204
0.00024130048
-0.00020391272
0.00044917952
5.3177246e-06
0.00064946039
-0.0005184465
0.0010219029
-9.8675929e-05
-0.00025466302
4.090333e-05
0.00030588501
0.00011809743
0.00051578789
0.0016580019
0.00039044697
0.00094911067
0.0020896291
-9.9571394e-05
-0.00011056021
0.000939294
0.0018889124
0.0012973788
0.0011695755
0.0032130178
0.0030076338
0.0036372897
0.0019589517
0.0014969999
0.0021444228
0.0034509442
0.004833249
0.0049753993
0.0039495722
0.003659189
0.0020330612
0.00011821238
-0.00016712807
0.00030368348
0.0012693996
0.0026195781
0.0042202933
0.0054489996
0.0057524427
0.0055045423
-0.0026674959
-0.0024581271
-0.0016286305
-0.00050418273
0.00068726411
0.001904006
0.00318372
0.0043953926
0.0053110668
0.0058195704
-0.00095367098
-0.00011284893
0.0010458016
0.0025759772
0.0039966953
0.0050724331
0.0058389167
0.0062790819
0.0063369882
0.0059658999
0.00030921666
0.0004250078
0.00066730147
0.0019494629
0.003496723
0.0044408495
0.0047033718
0.004297852
0.0033395235
0.0020360281
0.00032647765
0.00064133195
-0.00039285925
-0.00024234484
0.0011392901
0.001885002
0.0016373617
0.0005211538
-0.00060735555
-0.00019902049
-0.00087791975
0.001431937
0.0010377193
0.00011572666
0.0010932619
0.0015399045
0.00078007994
-0.00072191939
5.9905648e-05
0.00046599007
-0.00070045965
0.00044175439
0.00066183522
0.00024816562
0.0004965683
0.00058716801
0.00024917606
-0.00028182897
0.00052139943
-1.110602e-05
0.00069638247
-0.00053736911
0.0010876369
-9.6470658e-05
-0.00025093891
8.0795388e-05
0.0003754561
0.00015792672
0.00059085992
0.0018373456
0.00049883638
0.001085718
0.0022948968
-8.0136881e-06
1.5739567e-05
0.0011838219
0.0022354953
0.0015629391
0.0014235736
0.0036641169
0.0033982345
0.0040595822
0.0023045029
0.0018418592
0.0025666525
0.0040047613
0.0055222849
0.005662317
0.0045402365
0.0042439288
0.0024733512
0.00046548749
0.0001941939
0.00072763712
0.0017902914
0.0032677579
0.0050138977
0.0063377617
0.0066484385
0.0063727827
-0.0023990169
-0.0021331179
-0.0012071813
2.9784207e-05
0.0013329395
0.0026587186
0.0040467021
0.0053469125
0.0063112051
0.0068286652
-0.00050496215
0.00043463036
0.0017147936
0.0033902628
0.0049383999
0.0061040254
0.0069228366
0.0073703544
0.0073829312
0.0069143813
0.00074688438
0.00086258139
0.0011260015
0.0025201371
0.0041960053
0.005208331
0.0054623343
0.0049631761
0.0038362725
0.0023201707
0.00060108606
0.0009241918
-0.00021083569
-5.7856622e-05
0.0014237051
0.0022066464
0.0018837998
0.00058058455
-0.00072646104
-0.00022632568
-0.00083028127
0.001688847
0.0012708966
0.00027045884
0.0013059176
0.0017522116
0.00084994449
-0.00089079386
4.3034257e-05
0.0005373379
-0.00073861134
0.00050787434
0.00075508423
0.00031033588
0.00057131371
0.00065530926
0.00025894709
-0.00035542529
0.00059237066
-2.5889534e-05
0.00074303524
-0.00054902556
0.0011506838
-8.972577e-05
-0.0002417626
0.00012406324
0.0004465379
0.00020051413
0.00066596918
0.0020090472
0.000621343
0.0012328158
0.0025032192
0.00010060676
0.00015881236
0.0014377667
0.0025847842
0.0018349607
0.0016845561
0.0041082707
0.0037944887
0.0044834384
0.0026622797
0.0022016178
0.0029990892
0.0045596238
0.0062026245
0.0063391342
0.0051271555
0.0048264076
0.0029316184
0.00084294882
0.0005872116
0.0011797584
0.0023324481
0.0039276265
0.005807868
0.007218094
0.0075334872
0.0072313867
-0.0020792176
-0.0017585341
-0.00074205777
0.00059947183
0.0020058104
0.0034318078
0.0049187568
0.0062987149
0.007305018
0.0078278608
-1.6397723e-05
0.001016053
0.0024095741
0.0042195883
0.0058849941
0.0071325347
0.0079977128
0.0084488715
0.0084151902
0.0078515165
0.0012132591
0.0013279354
0.0016104532
0.0031074459
0.0049009206
0.005974353
0.0062172574
0.0056264074
0.0043367519
0.0026164755
0.00089828533
0.0012274322
-1.9427773e-06
0.00015196329
0.0017236764
0.0025382245
0.0021411537
0.00065771892
-0.00082116677
-0.00023330635
-0.00076104713
0.0019517524
0.0015122629
0.00043902583
0.0015255556
0.0019681717
0.00092820059
-0.0010417602
3.7175322e-05
0.00061581175
-0.00076854209
0.00057453591
0.00084726768
0.00037403733
0.00064586732
0.00072259921
0.0002700849
-0.0004242517
0.00066199185
-3.8494082e-05
0.00078803662
-0.00055442524
0.0012095667
-7.9565029e-05
-0.00022826385
0.0001693816
0.00051765383
0.0002445846
0.00073967217
0.0021711031
0.00075259668
0.0013848918
0.0027086951
0.00022101635
0.00031320224
0.0016950462
0.0029301964
0.0021074584
0.0019467394
0.0045386905
0.004186949
0.0048992393
0.0030230736
0.0025670716
0.0034321309
0.0051052698
0.0068633746
0.0069951724
0.0057003984
0.0053968715
0.0033963194
0.0012395736
0.0010008265
0.0016486309
0.0028839909
0.0045867283
0.0065891231
0.0080766265
0.0083944181
0.0080674973
-0.0017197226
-0.0013463027
-0.00024569277
0.0011918954
0.0026924047
0.0042093939
0.0057856553
0.0072363709
0.0082780789
0.0088028551
0.00049923413
0.0016181106
0.0031162283
0.0050493543
0.0068213604
0.008142605
0.0090482228
0.0094996396
0.0094193889
0.0087637376
0.0016965154
0.0018093199
0.0021089276
0.0036992225
0.0055988257
0.0067261995
0.0069558604
0.0062762641
0.0048311495
0.0029168095
0.0012091877
0.0015422153
0.00022573074
0.00037923913
0.0020310258
0.0028716627
0.0024021919
0.00074695177
-0.00089537417
-0.0002238309
-0.00067497668
0.0022148011
0.0017562554
0.00061650013
0.0017471262
0.0021829844
0.0010112242
-0.0011764702
4.044156e-05
0.00069945749
-0.00079101193
0.00064041898
0.00093695549
0.00043806767
0.00071900827
0.0007879185
0.00028190741
-0.00048830815
0.00072960293
-4.8964189e-05
0.00083033644
-0.00055430049
0.0012631489
-6.6816305e-05
-0.00021128304
0.00021572452
0.00058763238
0.00028914837
0.00081081151
0.0023218224
0.00088846642
0.0015376852
0.0029067322
0.00034917219
0.00047468857
0.0019508513
0.0032664395
0.0023756604
0.002205486
0.0049497512
0.0045680631
0.0052992894
0.0033795502
0.0029308907
0.0038580836
0.0056333888
0.0074956155
0.0076216576
0.0062518131
0.00594726
0.003858172
0.0016465241
0.0014261284
0.0021250575
0.003435297
0.0052348935
0.0073468817
0.008902255
0.0092202471
0.0088703645
-0.0013298278
-0.00090601658
0.00027185131
0.0017964815
0.0033816872
0.0049800367
0.0066355891
0.0081478225
0.0092182678
0.0097416004
0.0010316346
0.0022300077
0.0038233855
0.0058675395
0.0077349702
0.0091214415
0.010061537
0.010510048
0.010383392
0.0096395858
0.0021871975
0.0022973333
0.0026120066
0.0042856022
0.0062793681
0.007453388
0.0076679746
0.0069033741
0.0053112902
0.0032143749
0.0015267401
0.0018615088
0.00046578659
0.00061770643
0.0023391521
0.003200385
0.002661007
0.00084370064
-0.00095235925
-0.00020143246
-0.00057583321
0.0024731779
0.0019982576
0.00079878023
0.0019663671
0.0023925581
0.001095905
-0.0012964411
5.0771854e-05
0.00078595811
-0.00080660589
0.00070440501
0.0010229042
0.0005013696
0.00078964916
0.00085025799
0.00029377813
-0.00054768551
0.000794396
-5.7561336e-05
0.00086910959
-0.00054920907
0.0013105347
-5.2113829e-05
-0.00019147321
0.0002622655
0.00065551052
0.000333409
0.0008784345
0.0024597639
0.0010256803
0.0016878179
0.0030936737
0.00048187821
0.00063989827
0.0022012612
0.0035891381
0.0026356572
0.0024569864
0.0053367241
0.0049316947
0.0056773375
0.003725755
0.0032871101
0.0042706442
0.0061371053
0.0080918981
0.008211251
0.006774593
0.0064708156
0.0043095897
0.0020565779
0.0018558143
0.0026014671
0.003978399
0.0058636412
0.0080720829
0.0096855973
0.010001674
0.009630878
-0.00091714681
-0.00044557782
0.00080223619
0.0024044174
0.0040644102
0.0057340958
0.0074585509
0.0090228024
0.010115235
0.010633804
0.0015723007
0.0028427763
0.0045215406
0.0066640302
0.0086152245
0.010058171
0.011026712
0.011469307
0.011296809
0.010469272
0.0026775491
0.0027842643
0.003111945
0.00485841
0.0069339012
0.0081471166
0.0083450376
0.0074998471
0.0057703187
0.0035035262
0.0018452252
0.0021796112
0.00071307346
0.00086230609
0.0026426643
0.00351899
0.0029127611
0.00094427114
-0.00099472427
-0.00016908742
-0.00046662147
0.0027229108
0.0022344455
0.00098247545
0.0021797261
0.0025934775
0.0011796912
-0.0014028433
6.6332612e-05
0.0008731232
-0.00081577073
0.00076555863
0.0011040544
0.00056304041
0.00085685731
0.00090875356
0.00030516639
-0.00060244145
0.00085559096
-6.4581061e-05
0.0009036977
-0.00053959302
0.0013510118
-3.5957578e-05
-0.00016935957
0.00030831964
0.00072047774
0.00037670871
0.00094174304
0.0025836935
0.0011615903
0.0018325614
0.0032665643
0.00061654352
0.00080606323
0.0024430056
0.0038946034
0.0028841786
0.0026980493
0.0056955885
0.0052727921
0.0060282453
0.0040567743
0.0036307846
0.0046645542
0.0066106381
0.0086459147
0.0087577346
0.0072629788
0.0069618014
0.0047442761
0.0024637191
0.002283775
0.003071499
0.0045065723
0.006465775
0.0087569969
0.010418625
0.010730733
0.010341234
-0.00048806936
2.8346454e-05
0.0013383927
0.0030081999
0.0047326688
0.0064632987
0.0082459212
0.0098524442
0.010960035
0.011470582
0.0021140517
0.0034488076
0.0052025918
0.0074301681
0.0094530164
0.010943421
0.011934288
0.012368082
0.012150652
0.011244363
0.0031610667
0.0032636503
0.0036022396
0.0054107468
0.00755509
0.0087998923
0.0089797512
0.0080589717
0.0062024455
0.0037795656
0.002159915
0.0024918129
0.00096336086
0.001108877
0.0029370974
0.0038229913
0.0031534613
0.0010456856
-0.0010244906
-0.00012922537
-0.00034978047
0.0029606967
0.0024616294
0.0011647635
0.0023842377
0.0027829009
0.0012605188
-0.0014965051
8.5607866e-05
0.00095904521
-0.00081885169
0.00082309877
0.0011795078
0.00062231389
0.00091984135
0.00096267802
0.00031564853
-0.00065257529
0.00091249202
-7.0283723e-05
0.00093357259
-0.00052581693
0.0013840148
-1.8751962e-05
-0.00014537807
0.00035330635
0.00078184038
0.00041849287
0.0010000605
0.0026925559
0.0012940139
0.0019696773
0.0034229905
0.00075101899
0.0009708578
0.0026733069
0.004179681
0.0031184451
0.0029259591
0.0060228997
0.0055871524
0.0063477499
0.0043684941
0.0039577472
0.0050353602
0.0070490674
0.0091522756
0.0092557972
0.0077120512
0.0074153004
0.0051569308
0.0028628414
0.0027047981
0.0035297075
0.0050140439
0.0070351015
0.0093949562
0.011094411
0.011400555
0.010994697
-4.8093924e-05
0.00050999354
0.001874194
0.0036013137
0.005379588
0.0071604403
0.0089901842
0.010629015
0.011744877
0.012244206
0.0026506936
0.0040415212
0.0058595168
0.0081584367
0.010240429
0.011769033
0.012776027
0.013198239
0.012937108
0.011957551
0.0036321903
0.0037299701
0.0040773285
0.0059366999
0.008136638
0.009405275
0.009565844
0.0085749983
0.0066027501
0.0040385625
0.0024668226
0.0027941527
0.0012131007
0.0013539283
0.0032186993
0.0041086214
0.0033797808
0.0011455274
-0.0010432227
-8.3815524e-05
-0.00022733516
0.0031837593
0.0026771194
0.0013432625
0.0025774051
0.002958453
0.0013367176
-0.0015779828
0.0001073747
0.0010421116
-0.00081612558
0.00087636983
0.0012485015
0.00067853598
0.00097792942
0.0010114218
0.00032489141
-0.00069803663
0.00096449618
-7.4878728e-05
0.00095831041
-0.00050819521
0.0014090995
-8.3306526e-07
-0.00011990237
0.0003967237
0.00083899728
0.00045828555
0.0010528086
0.0027854542
0.0014211195
0.0020973032
0.0035609669
0.0008834814
0.0011322846
0.0028897707
0.0044416474
0.0033360647
0.0031383758
0.0063156964
0.0058712487
0.0066322919
0.0046574269
0.0042644356
0.0053792447
0.0074481718
0.0096063545
0.0097008848
0.0081175841
0.0078270722
0.0055430331
0.0032495303
0.0031143508
0.003971348
0.0054957845
0.0075662301
0.0099801667
0.011706946
0.012005187
0.011585432
0.00039792917
0.00099426432
0.0024042184
0.0041780005
0.0059991005
0.0078191701
0.0096847259
0.011345727
0.012462939
0.012947935
0.0031767782
0.0046151277
0.006486141
0.0088422376
0.010970523
0.012527863
0.013544717
0.013952671
0.013649365
0.012602493
0.0040860824
0.0041784252
0.0045323764
0.0064311382
0.0086730925
0.0099576951
0.010097901
0.0090429801
0.0069670299
0.0042772064
0.0027625248
0.0030832418
0.0014592532
0.0015944713
0.0034842738
0.0043726845
0.003588922
0.0012418136
-0.0010521441
-3.4465814e-05
-0.00010101192
0.0033897411
0.0028786198
0.0015159284
0.0027571058
0.0031181363
0.0014069273
-0.0016476374
0.00013064787
0.0011209672
-0.00080782782
0.00092481782
0.0013103859
0.00073114319
0.0010305492
0.0010544738
0.0003326341
-0.0007387419
0.0010110863
-7.8528986e-05
0.00097757255
-0.00048701225
0.0014259234
1.7511542e-05
-9.3263363e-05
0.00043813014
0.00089142259
0.00049567196
0.0010994914
0.0028616365
0.001541342
0.0022138683
0.0036788535
0.0010123494
0.0012885925
0.0030903078
0.004678136
0.0035349594
0.0033332631
0.0065714342
0.0061221034
0.006878889
0.0049205844
0.0045477671
0.005692904
0.0078043121
0.010004178
0.010089094
0.0084759394
0.0081934499
0.0058986829
0.0036199027
0.0035084219
0.0043922223
0.0059473591
0.0080544302
0.010507572
0.012251015
0.012539477
0.012108383
0.00084561902
0.0014765469
0.0029235774
0.0047330919
0.0065857853
0.0084338392
0.01032369
0.011996598
0.013108241
0.013575882
0.0036874278
0.0051644567
0.0070769713
0.0094757309
0.011637184
0.013213636
0.014234042
0.014625169
0.01428149
0.013173681
0.0045184685
0.0046047813
0.0049631202
0.0068895631
0.0091597052
0.010452322
0.010571239
0.0094586536
0.0072916843
0.0044926889
0.0030440322
0.0033561354
0.0016991593
0.0018278966
0.003731064
0.0046124469
0.0037785115
0.0013328926
-0.0010522363
1.7487011e-05
2.7675554e-05
0.0035766224
0.0030641503
0.0016809785
0.0029215179
0.003260262
0.0014700292
-0.0017057026
0.00015462356
0.0011944676
-0.00079417307
0.00096797208
0.0013646076
0.00077964576
0.0010772117
0.0010914065
0.0003386722
-0.00077459039
0.0010518211
-8.1361047e-05
0.00099109117
-0.00046253739
0.0014342317
3.6027999e-05
-6.5763449e-05
0.00047713111
0.00093865329
0.00053028564
0.001139683
0.0029204855
0.00165332
0.0023180308
0.0037752931
0.001136221
0.0014382162
0.0032730776
0.0048870834
0.0037133114
0.0035088353
0.0067879368
0.0063371937
0.0070850417
0.0051553838
0.0048050457
0.0059734591
0.0081143463
0.010342346
0.010417094
0.0087839891
0.0085112639
0.0062204819
0.0039704892
0.003883405
0.0047885645
0.0063648162
0.0084955267
0.010972755
0.012722101
0.012998974
0.012559179
0.0012909322
0.0019525869
0.0034277888
0.0052618875
0.0071347511
0.0089993887
0.010901874
0.012576356
0.013675547
0.01412292
0.0041782061
0.0056848312
0.0076270733
0.010053719
0.012235012
0.013820841
0.01483848
0.015210326
0.014828335
0.013666353
0.0049255206
0.0050052524
0.0053657544
0.0073079997
0.0095923283
0.010884967
0.010981813
0.0098183481
0.0075736231
0.0046826102
0.0033086936
0.0036102381
0.0019304455
0.0020518808
0.0039566649
0.0048255538
0.0039465193
0.0014173637
-0.0010443198
7.0901029e-05
0.00015736191
0.0037426617
0.0032319873
0.001836832
0.0030690653
0.0033833965
0.0015250928
-0.0017523414
0.00017863012
0.0012616337
-0.00077537102
0.0010054315
0.0014106967
0.0008236147
0.0011174995
0.0011218638
0.00034284517
-0.00080547807
0.0010863258
-8.3475701e-05
0.00099865793
-0.00043503645
0.0014338459
5.4484887e-05
-3.7687433e-05
0.00051336907
0.00098027994
0.00056179873
0.0011730185
0.002961511
0.0017558472
0.0024086292
0.0038491641
0.0012538266
0.0015797307
0.0034364455
0.00506669
0.0038695222
0.0036635175
0.0069633598
0.0065143789
0.0072486609
0.0053595763
0.0050338929
0.0062183882
0.0083755659
0.010617972
0.010682067
0.0090390565
0.0087777835
0.0065054433
0.0042981433
0.0042360099
0.0051569552
0.0067446059
0.0088858208
0.011371863
0.013116312
0.013379867
0.012934067
0.0017300632
0.0024183895
0.003912682
0.0057600625
0.0076415477
0.0095112663
0.011414645
0.013080358
0.014160292
0.014584612
0.0046450215
0.0061719726
0.0081319809
0.010571557
0.012759238
0.014344654
0.015353228
0.015703464
0.015285468
0.014076422
0.005303768
0.0053764125
0.0057368448
0.0076829136
0.009967336
0.011252006
0.011326146
0.010118914
0.0078101934
0.0048449023
0.0035541237
0.0038432316
0.0021509511
0.0022643159
0.0041589547
0.0050099634
0.0040911943
0.0014940105
-0.0010291219
0.00012476499
0.0002867811
0.0038863494
0.0033806187
0.001982066
0.003198374
0.0034863193
0.0015713319
-0.001787692
0.00020208638
0.001321614
-0.00075163843
0.001036854
0.0014482565
0.00086267199
0.0011510567
0.0011455515
0.000345026
-0.0008313092
0.0011142839
-8.4957458e-05
0.0010001148
-0.00040478075
0.001424655
7.266421e-05
-9.3111188e-06
0.00054651559
0.0010159393
0.00058991418
0.001199187
0.0029843437
0.0018478334
0.0024846436
0.003899542
0.0013639913
0.0017118153
0.0035789486
0.0052153876
0.0040021803
0.0037959132
0.0070961603
0.0066518421
0.0073680095
0.0055311897
0.0052321912
0.0064254726
0.0085856445
0.010828633
0.010881663
0.0092388678
0.0089906696
0.0067509197
0.0045999706
0.004563193
0.0054942536
0.0070835141
0.0092220276
0.01170155
0.013430328
0.01367892
0.013229858
0.0021593662
0.0028701433
0.0043743235
0.0062235966
0.0081020976
0.0099653594
0.011857882
0.013504534
0.014558524
0.014957144
0.0050840513
0.0066219268
0.0085876236
0.011025087
0.013205659
0.014780871
0.015774141
0.016100576
0.015649111
0.014400407
0.0056500284
0.0057151263
0.0060732601
0.0080111447
0.010281561
0.01155032
0.011601266
0.010357661
0.0079991179
0.0049777643
0.0037781448
0.0040530164
0.0023586704
0.0024632515
0.0043360402
0.0051638934
0.0042110102
0.0015617456
-0.0010073343
0.00017814319
0.00041472712
0.0040063714
0.0035087071
0.0021153781
0.0033082368
0.003567988
0.0016080681
-0.0018119087
0.00022446561
0.0013736506
-0.00072320877
0.001061948
0.0014769559
0.00089648252
0.0011775815
0.0011622294
0.00034511245
-0.00085200634
0.0011354308
-8.5883031e-05
0.00099534602
-0.00037205476
0.0014066066
9.0353613e-05
1.9091427e-05
0.00057626449
0.0010453078
0.00061435902
0.0012179244
0.0029887297
0.0019282712
0.0025451621
0.0039256649
0.0014656021
0.0018332226
0.0036992669
0.0053318117
0.0041100323
0.0039047761
0.0071850703
0.0067480385
0.0074416511
0.0056684786
0.0053980359
0.0065927506
0.008742593
0.010972326
0.011013953
0.0093815094
0.0091479325
0.00695454
0.0048732672
0.0048620977
0.0057975392
0.0073786058
0.0095012215
0.011958919
0.013661346
0.013893425
0.01344387
0.0025752891
0.0033041554
0.0048089538
0.0066487124
0.0085126361
0.010357938
0.012227917
0.013845329
0.014866844
0.01523728
0.0054916764
0.0070310009
0.0089902655
0.011410576
0.013570579
0.015125858
0.016097677
0.016398272
0.015916087
0.014635387
0.0059613474
0.0060184892
0.0063721129