/*--------------------------------*- C++ -*----------------------------------*\
| =========                 |                                                 |
| \\      /  F ield         | OpenFOAM: The Open Source CFD Toolbox           |
|  \\    /   O peration     | Version:  v2106                                 |
|   \\  /    A nd           | Website:  www.openfoam.com                      |
|    \\/     M anipulation  |                                                 |
\*---------------------------------------------------------------------------*/
FoamFile
{
    version     2.0;
    format      ascii;
    arch        "LSB;label=32;scalar=64";
    class       volScalarField;
    location    "15";
    object      gradTx;
}
// * * * * * * * * * * * * * * * * * * * * * * * * * * * * * * * * * * * * * //

dimensions      [0 -1 0 1 0 0 0];

internalField   nonuniform List<scalar> 
4000
(
-0.00012769168
-0.00047541956
0.00044820467
0.00050352221
-0.00050243936
-0.00040584264
-0.0001689628
-4.7000139e-05
-2.0390444e-05
-6.9235568e-06
-0.0003010049
-3.8321671e-05
0.00081170252
8.4584568e-05
-0.00057731918
-0.00036668209
-0.00012080525
-6.0333404e-07
8.6080185e-05
4.6115631e-05
0.00016370691
0.00037517723
0.00041283137
-3.6190618e-05
-0.00055194761
-0.00030720007
-0.00010011168
-5.7284649e-05
3.384555e-05
4.3784065e-05
-5.8673e-05
-7.3694974e-05
0.00027712685
-3.2905831e-05
-0.00048408875
-0.00021127858
-1.608524e-05
-5.7906036e-05
-9.8763025e-05
-2.2689496e-05
-0.00011558485
-0.00016453562
0.00029534096
2.6658139e-05
-0.00040429916
-0.00011301525
0.00010297383
7.1397776e-05
1.4489035e-05
9.74822e-06
-0.00010859288
-0.00012320322
0.00037035728
0.00011474261
-0.00032120798
-3.5987761e-05
0.00017978981
0.00014960344
8.7881211e-05
3.2517286e-05
-8.9477822e-05
-6.5893034e-05
0.00045074448
0.00022084296
-0.00022900835
2.7167147e-05
0.00022117679
0.00017441117
9.9480777e-05
3.443248e-05
-7.6487846e-05
-5.4352111e-05
0.00047507729
0.00031782813
-0.00012533293
8.221519e-05
0.00023651947
0.00016131371
6.9639962e-05
2.2778066e-05
-5.8546617e-05
-7.6177542e-05
0.00039344178
0.00034952538
-2.149887e-05
0.00013018055
0.00023288705
0.00012578587
2.4491516e-05
8.1248643e-06
-5.50743e-06
-1.1611405e-07
0.00029023408
0.00029847161
6.1311297e-05
0.00016720694
0.00021827823
8.6324442e-05
-4.6941247e-06
3.3209744e-06
-4.2275455e-05
-0.00046421456
0.0010824344
0.00086307316
-0.0013373599
-0.001064274
-0.00045213817
-0.0001541916
-0.00014034566
-6.0810354e-05
-0.0003111038
0.00029235771
0.0015499557
-2.7738224e-06
-0.0014687993
-0.0009458137
-0.00033231524
-2.0778174e-06
0.00021779775
0.00010552719
0.00046210605
0.00093623437
0.0007858623
-0.00025586296
-0.0013829767
-0.00077315913
-0.00028793431
-0.00018297911
8.1713136e-05
0.00011039354
5.7704842e-07
-4.214408e-06
0.00049174975
-0.00023472241
-0.0011870541
-0.00049167999
-4.3783552e-05
-0.00017793997
-0.00023802008
-4.5123722e-05
-0.00011512527
-0.00018270176
0.0005539137
-6.4583886e-05
-0.00095491467
-0.00020314092
0.00029794418
0.00017363605
5.0075163e-05
3.4080656e-05
-8.7049208e-05
-4.983119e-05
0.00077349503
0.00019333965
-0.00070925199
2.5926046e-05
0.00052394407
0.00039660961
0.00024924327
9.3874966e-05
-3.6151712e-05
0.00010841314
0.0010080474
0.00050543432
-0.00043730863
0.00021279644
0.0006433811
0.00046205929
0.00026770581
9.2596613e-05
-7.1672597e-06
0.00011437266
0.0010620267
0.00077921814
-0.00014152438
0.00037136297
0.00068106065
0.00041033362
0.00015946447
4.9992795e-05
6.5257467e-05
7.9625613e-05
0.00083218526
0.00086204948
0.00013724094
0.00050121968
0.00065710512
0.00029332853
3.0486929e-05
1.2454093e-05
0.00023159502
0.00033643146
0.00060620888
0.00074758017
0.00034573899
0.00058899362
0.00059128186
0.00017311475
6.1597933e-06
3.3774703e-05
0.00027138321
7.3541254e-05
0.0014536711
0.00080209284
-0.0020309262
-0.0015308738
-0.00063511176
-0.00021904867
-0.00037806497
-0.00020604574
-0.00027324014
0.00058537733
0.0018860557
-0.00030181911
-0.0021529375
-0.0013340047
-0.00050113427
2.6155392e-05
0.00036764675
0.00014270771
0.00061260726
0.0012573414
0.00091074122
-0.00060443134
-0.0019761067
-0.0010298249
-0.0004415331
-0.00031924379
0.00013040545
0.0001590509
1.5016289e-05
4.2447475e-05
0.00054340359
-0.00053792675
-0.0016451568
-0.00055427038
-2.1318234e-05
-0.00027178366
-0.00028444378
-4.2304962e-05
-0.00012333404
-0.00014918276
0.0006746336
-0.00025359604
-0.0012644683
-8.209086e-05
0.00052959258
0.00027856931
0.0001553489
7.760402e-05
-6.6324639e-05
9.7266891e-05
0.0010511844
0.00017371166
-0.00086174311
0.00029188472
0.00089256163
0.00062486989
0.00044908796
0.00016258049
7.9120033e-06
0.00035186614
0.001454368
0.00069413801
-0.00041831325
0.00059238833
0.0010744817
0.0007059761
0.00043569728
0.00014248873
2.2993689e-05
0.00029084555
0.0015310004
0.0011448373
5.2136761e-05
0.00083677382
0.0011107595
0.00058461721
0.00021266921
5.5988326e-05
0.00017138139
0.00025167101
0.0011564289
0.0012919511
0.00047834032
0.0010197951
0.001034229
0.00036889333
4.0773354e-05
2.3022039e-05
0.00052013484
0.00079931597
0.00087890989
0.0011697808
0.0007856685
0.0011171222
0.00087434075
0.00018969329
2.5322728e-05
4.5687914e-05
0.00044680328
0.00027907413
0.0016298002
0.000749732
-0.0025389849
-0.0018226941
-0.00074329045
-0.00023309157
-0.00053628657
-0.00032771816
-0.00027356962
0.00069321983
0.0020657721
-0.00053142645
-0.0026217649
-0.0015358853
-0.00063606477
1.0278932e-05
0.00051333547
0.00018315763
0.00072290042
0.001417812
0.00092957231
-0.00085064927
-0.0023369531
-0.0010830806
-0.00054188216
-0.00046427421
0.00024026913
0.0002370326
1.7078292e-05
-7.0080631e-06
0.00052359595
-0.00072314181
-0.0018669984
-0.00041473588
4.7288671e-05
-0.00037966043
-0.00025436758
-2.1180805e-07
-0.00013120521
-0.00018256926
0.00073785696
-0.00032057925
-0.0013394961
0.00023484808
0.00079356773
0.00034627046
0.00031067592
0.0001518844
-3.8108375e-05
0.00019502379
0.0012783625
0.00027431514
-0.00078476809
0.00074564781
0.0012797113
0.00079346684
0.00066837699
0.00025071103
6.0000653e-05
0.00055704429
0.0018590064
0.00099734943
-0.00017911244
0.0011476241
0.0015053643
0.00086177337
0.00058432817
0.00019719754
3.3375411e-05
0.00039643208
0.0019617159
0.001609765
0.00044765453
0.0014574444
0.0015121628
0.00063772387
0.00022194689
6.1451944e-05
0.00022224765
0.00032586164
0.0014690671
0.0018078941
0.00099401484
0.001663127
0.0013496213
0.00032631555
0.00013472625
0.00010506847
0.00073312344
0.0011729878
0.0011940129
0.0016801718
0.0013703991
0.0017310967
0.0010657327
0.00018812195
0.00010896828
4.4279964e-05
0.00050029311
0.00026342041
0.0017875896
0.00080732155
-0.0028539098
-0.0019355032
-0.00076804462
-0.00026856379
-0.00070392484
-0.00043634995
-0.00033477861
0.00068371602
0.0022577062
-0.00062453077
-0.0028810475
-0.0015366387
-0.00066324713
-1.2154985e-05
0.0006269448
0.00021853122
0.00078049019
0.0014899169
0.0009878035
-0.00094590028
-0.0024831048
-0.00093266403
-0.00053182631
-0.00060235015
0.00033285206
0.00031163818
-2.136757e-05
-0.00011607009
0.0005593584
-0.00075011588
-0.0018738934
-7.6566475e-05
0.00021525333
-0.00049136701
-0.00024410891
3.9118341e-05
-0.00017407803
-0.00026330491
0.00086221839
-0.00022828701
-0.0012024981
0.00074339348
0.0011436946
0.00039080188
0.0004259413
0.00021709047
-3.9459394e-05
0.0002547349
0.0015665125
0.00053049084
-0.00050149913
0.0013826531
0.0017398781
0.00091925044
0.00082317037
0.00032116236
9.1831648e-05
0.00073953427
0.0023222906
0.0014477705
0.00025672149
0.001874119
0.001991107
0.00094690931
0.00063099689
0.00022035355
3.0405589e-05
0.0004909532
0.002445013
0.0022060117
0.0010231257
0.0022300655
0.0019390347
0.00057843672
8.6475096e-05
2.2526465e-05
0.00026277086
0.0004057479
0.0018430786
0.0024409225
0.0016673389
0.0024302265
0.0016502933
0.00014623217
0.00017425073
0.00020399247
0.00091765202
0.0015277301
0.0015739593
0.002299101
0.002090405
0.0024351211
0.0012023394
0.00012169056
0.0002042546
4.2529054e-05
0.00052936356
0.00023393741
0.0020070056
0.00098732331
-0.0029917315
-0.0018695853
-0.00065247404
-0.00022967501
-0.00082124735
-0.00052426821
-0.00040009038
0.00068844529
0.002519713
-0.00058127242
-0.002959317
-0.0013550665
-0.00054353439
4.5062959e-05
0.00077559459
0.00026343427
0.00083236881
0.0015840003
0.0011319375
-0.00089794553
-0.0024484335
-0.00060351925
-0.00037905516
-0.00065895761
0.0004586641
0.00039205889
-5.8285441e-05
-0.00018662283
0.00068921125
-0.00063155311
-0.0017025465
0.00043352406
0.00051529332
-0.00053077666
-0.00020505578
8.3268458e-05
-0.00021336168
-0.00030126858
0.0010816568
7.8406251e-06
-0.00089168262
0.0014162999
0.0016141629
0.00049272628
0.0005555717
0.00028271207
-3.6675768e-05
0.00035667517
0.0019459817
0.00092519774
-5.0759875e-05
0.0021761376
0.0023097574
0.0010884161
0.00097656952
0.00038673901
0.00012965083
0.00096479746
0.0028702474
0.0020276597
0.00085093087
0.0027474603
0.0025739736
0.0010573084
0.00065204693
0.0002296328
3.5950673e-05
0.00063009406
0.0030048094
0.0029184158
0.0017437042
0.0031359483
0.0024437058
0.0005142745
-0.00011450622
-4.4728927e-05
0.00031280948
0.00053551486
0.0022944078
0.0031793436
0.0024701237
0.0033120424
0.001999832
-7.335838e-05
0.00016133011
0.0002942435
0.001100512
0.0019100055
0.0020241591
0.0030153234
0.0029253295
0.0032324235
0.0013526301
2.3557669e-05
0.00028119638
3.5181917e-05
0.00056320638
0.00024750954
0.0022949363
0.0012689219
-0.0029863615
-0.0016610333
-0.00041403157
-0.0001057117
-0.00088238474
-0.00059514565
-0.00045220938
0.00073943128
0.0028498065
-0.00042570192
-0.0028940886
-0.0010333586
-0.0003014187
0.00018529993
0.00096593327
0.00031749849
0.00089115419
0.0017222837
0.0013552978
-0.00073408119
-0.002272856
-0.00013966411
-0.00010809552
-0.00063185978
0.00062344447
0.00047856235
-8.2295861e-05
-0.00020020713
0.00090298983
-0.00039745887
-0.0013947574
0.0010705543
0.00092413034
-0.00049271846
-0.0001285383
0.00013347387
-0.00023859505
-0.00028071949
0.0013835409
0.00035587828
-0.00045012468
0.0022080713
0.0021827335
0.00066023902
0.00071225088
0.00035135927
-2.0780581e-05
0.00051329836
0.0024023209
0.0014252724
0.00052374417
0.0030808282
0.0029688695
0.0013132258
0.0011474887
0.00045241838
0.00017985478
0.0012406497
0.0034874537
0.0027036137
0.0015601492
0.0037240239
0.0032377794
0.0012137397
0.00067974606
0.00023525566
5.4294666e-05
0.00081923441
0.00362787
0.0037161015
0.0025684833
0.0041358741
0.003019305
0.00048204004
-0.00032893229
-0.00012338801
0.00037386254
0.00071450164
0.0028094354
0.0039957125
0.0033660935
0.0042775247
0.0024065936
-0.00028098692
0.00012562622
0.00037452707
0.0012865067
0.0023250636
0.0025333984
0.0038049079
0.0038445103
0.0041033692
0.001542884
-7.2079807e-05
0.00034332028
2.1741366e-05
0.00060418046
0.00030340681
0.0026347218
0.0016253525
-0.0028697673
-0.0013461888
-8.4501511e-05
8.5903579e-05
-0.0008978987
-0.00065309944
-0.00049078576
0.00083035856
0.0032287956
-0.00018486739
-0.0027183741
-0.00060951877
3.033255e-05
0.00039016203
0.0011881126
0.00037770238
0.00095548163
0.0018952369
0.0016374335
-0.00048263844
-0.0019906606
0.00042009461
0.00024936285
-0.00053764546
0.00081934147
0.00056910137
-9.4736588e-05
-0.00016692978
0.0011788774
-7.7606019e-05
-0.00098607321
0.001794941
0.001410814
-0.00039150748
-1.9409435e-05
0.0001888041
-0.00025133164
-0.00021275406
0.0017446948
0.00078479167
8.5665996e-05
0.0030786114
0.0028188879
0.00088061757
0.00089334494
0.00042288641
6.192241e-06
0.00071217695
0.0029111782
0.0019987206
0.0011849625
0.0040566827
0.0036876906
0.0015832097
0.0013365782
0.00051927204
0.00023978168
0.0015535293
0.0041491546
0.0034433085
0.0023474077
0.0047647346
0.003955512
0.001410603
0.00072237928
0.00024130049
8.2748285e-05
0.0010460413
0.0042916596
0.0045682456
0.0034618392
0.0051933068
0.0036442224
0.00048600092
-0.00053411804
-0.00020391272
0.00044262064
0.00092998026
0.0033674851
0.0048615716
0.0043221249
0.00529472
0.0028583033
-0.00045978304
8.8413879e-05
0.00044917952
0.0014734225
0.0027632815
0.0030841376
0.0046422491
0.0048178268
0.0050223411
0.0017735261
-0.00014796448
0.00040225955
5.3177217e-06
0.00064946039
0.00039044696
0.0030076338
0.0020330612
-0.0026674959
-0.00095367098
0.00030921666
0.00032647766
-0.00087791975
-0.00070045965
-0.0005184465
0.00094911066
0.0036372897
0.00011821238
-0.0024581271
-0.00011284893
0.00042500781
0.00064133197
0.001431937
0.00044175439
0.0010219029
0.0020896291
0.0019589517
-0.00016712808
-0.0016286306
0.0010458016
0.00066730147
-0.00039285924
0.0010377193
0.00066183522
-9.8675932e-05
-9.9571398e-05
0.0014969999
0.00030368347
-0.00050418273
0.0025759772
0.0019494629
-0.00024234484
0.00011572667
0.00024816561
-0.00025466303
-0.00011056021
0.0021444228
0.0012693996
0.0006872641
0.0039966953
0.003496723
0.0011392901
0.0010932619
0.0004965683
4.090333e-05
0.000939294
0.0034509442
0.0026195781
0.001904006
0.005072433
0.0044408495
0.0018850021
0.0015399045
0.00058716801
0.00030588501
0.0018889124
0.004833249
0.0042202933
0.00318372
0.0058389167
0.0047033718
0.0016373617
0.00078007994
0.00024917605
0.00011809743
0.0012973788
0.0049753993
0.0054489996
0.0043953926
0.0062790819
0.004297852
0.0005211538
-0.00072191939
-0.00028182897
0.00051578788
0.0011695755
0.0039495722
0.0057524427
0.0053110668
0.0063369882
0.0033395235
-0.00060735555
5.9905651e-05
0.00052139943
0.0016580019
0.0032130178
0.003659189
0.0055045423
0.0058195704
0.0059658999
0.0020360281
-0.0001990205
0.00046599007
-1.1106018e-05
0.00069638247
0.00049883637
0.0033982345
0.0024733512
-0.0023990169
-0.00050496215
0.00074688439
0.00060108607
-0.00083028127
-0.00073861134
-0.00053736911
0.001085718
0.0040595822
0.00046548749
-0.0021331179
0.00043463037
0.0008625814
0.00092419179
0.0016888471
0.00050787434
0.0010876369
0.0022948968
0.0023045029
0.0001941939
-0.0012071813
0.0017147936
0.0011260015
-0.00021083569
0.0012708966
0.00075508423
-9.6470656e-05
-8.0136958e-06
0.0018418592
0.00072763712
2.978421e-05
0.0033902628
0.0025201371
-5.7856622e-05
0.00027045883
0.00031033588
-0.00025093891
1.5739557e-05
0.0025666525
0.0017902914
0.0013329395
0.0049383999
0.0041960053
0.0014237051
0.0013059176
0.00057131371
8.0795386e-05
0.0011838219
0.0040047612
0.0032677579
0.0026587186
0.0061040254
0.005208331
0.0022066464
0.0017522116
0.00065530926
0.0003754561
0.0022354953
0.0055222849
0.0050138977
0.0040467021
0.0069228366
0.0054623343
0.0018837998
0.00084994449
0.00025894709
0.00015792672
0.0015629391
0.005662317
0.0063377617
0.0053469125
0.0073703544
0.0049631761
0.00058058454
-0.00089079386
-0.0003554253
0.00059085992
0.0014235736
0.0045402365
0.0066484385
0.0063112051
0.0073829313
0.0038362725
-0.00072646105
4.303426e-05
0.00059237066
0.0018373456
0.0036641169
0.0042439288
0.0063727827
0.0068286652
0.0069143813
0.0023201707
-0.00022632569
0.0005373379
-2.5889532e-05
0.00074303524
0.00062134299
0.0037944887
0.0029316184
-0.0020792177
-1.6397722e-05
0.0012132591
0.00089828533
-0.00076104713
-0.00076854209
-0.00054902556
0.0012328158
0.0044834384
0.00084294881
-0.0017585342
0.001016053
0.0013279354
0.0012274322
0.0019517524
0.00057453591
0.0011506838
0.0025032192
0.0026622797
0.0005872116
-0.00074205776
0.0024095741
0.0016104532
-1.9427769e-06
0.0015122629
0.00084726767
-8.9725769e-05
0.00010060676
0.0022016178
0.0011797584
0.00059947184
0.0042195883
0.0031074459
0.00015196328
0.00043902584
0.00037403733
-0.00024176261
0.00015881235
0.0029990892
0.0023324481
0.0020058104
0.0058849941
0.0049009206
0.0017236764
0.0015255556
0.00064586733
0.00012406323
0.0014377666
0.0045596238
0.0039276265
0.0034318078
0.0071325347
0.005974353
0.0025382245
0.0019681717
0.00072259921
0.0004465379
0.0025847842
0.0062026245
0.005807868
0.0049187568
0.0079977128
0.0062172574
0.0021411537
0.00092820059
0.0002700849
0.00020051413
0.0018349607
0.0063391342
0.007218094
0.0062987149
0.0084488715
0.0056264074
0.00065771892
-0.0010417602
-0.0004242517
0.00066596918
0.0016845561
0.0051271555
0.0075334872
0.007305018
0.0084151902
0.0043367519
-0.00082116677
3.7175312e-05
0.00066199185
0.0020090472
0.0041082708
0.0048264076
0.0072313867
0.0078278608
0.0078515165
0.0026164755
-0.00023330635
0.00061581175
-3.8494085e-05
0.00078803661
0.00075259667
0.004186949
0.0033963194
-0.0017197226
0.00049923412
0.0016965154
0.0012091877
-0.00067497667
-0.00079101193
-0.00055442525
0.0013848918
0.0048992393
0.0012395736
-0.0013463027
0.0016181106
0.0018093199
0.0015422153
0.0022148011
0.00064041898
0.0012095667
0.0027086951
0.0030230736
0.0010008265
-0.00024569277
0.0031162282
0.0021089276
0.00022573075
0.0017562554
0.00093695548
-7.9565035e-05
0.00022101635
0.0025670717
0.0016486309
0.0011918954
0.0050493543
0.0036992225
0.00037923913
0.00061650013
0.00043806767
-0.00022826385
0.00031320223
0.0034321309
0.0028839909
0.0026924047
0.0068213604
0.0055988257
0.0020310258
0.0017471262
0.00071900827
0.0001693816
0.0016950462
0.0051052698
0.0045867283
0.0042093939
0.0081426049
0.0067261995
0.0028716627
0.0021829844
0.0007879185
0.00051765383
0.0029301964
0.0068633746
0.0065891231
0.0057856553
0.0090482228
0.0069558604
0.0024021919
0.0010112242
0.00028190741
0.00024458459
0.0021074584
0.0069951724
0.0080766265
0.0072363709
0.0094996396
0.0062762641
0.00074695176
-0.0011764702
-0.00048830815
0.00073967218
0.0019467394
0.0057003984
0.0083944181
0.0082780789
0.0094193889
0.0048311495
-0.00089537418
4.0441546e-05
0.00072960293
0.0021711031
0.0045386905
0.0053968715
0.0080674973
0.0088028551
0.0087637376
0.0029168095
-0.0002238309
0.00069945748
-4.8964193e-05
0.00083033644
0.00088846641
0.0045680631
0.003858172
-0.0013298278
0.0010316346
0.0021871975
0.0015267401
-0.0005758332
-0.00080660588
-0.00055430049
0.0015376852
0.0052992894
0.0016465241
-0.0009060166
0.0022300077
0.0022973333
0.0018615088
0.0024731779
0.00070440502
0.0012631489
0.0029067322
0.0033795502
0.0014261284
0.00027185129
0.0038233855
0.0026120066
0.00046578658
0.0019982576
0.0010229042
-6.6816312e-05
0.00034917218
0.0029308907
0.0021250575
0.0017964815
0.0058675395
0.0042856021
0.00061770641
0.00079878023
0.0005013696
-0.00021128304
0.00047468856
0.0038580836
0.003435297
0.0033816872
0.0077349702
0.0062793681
0.0023391521
0.0019663671
0.00078964916
0.00021572451
0.0019508513
0.0056333888
0.0052348935
0.0049800367
0.0091214415
0.007453388
0.003200385
0.0023925581
0.00085025799
0.00058763237
0.0032664395
0.0074956155
0.0073468817
0.0066355891
0.010061537
0.0076679746
0.002661007
0.0010959049
0.00029377814
0.00028914836
0.0023756604
0.0076216576
0.008902255
0.0081478225
0.010510048
0.0069033741
0.00084370064
-0.0012964411
-0.00054768551
0.00081081151
0.002205486
0.0062518131
0.0092202471
0.0092182678
0.010383392
0.0053112902
-0.00095235926
5.077184e-05
0.000794396
0.0023218224
0.0049497512
0.00594726
0.0088703645
0.0097416004
0.0096395858
0.0032143749
-0.00020143246
0.0007859581
-5.7561341e-05
0.00086910959
0.0010256803
0.0049316947
0.0043095897
-0.00091714683
0.0015723007
0.0026775491
0.0018452252
-0.00046662148
-0.00081577073
-0.00054920907
0.0016878179
0.0056773375
0.0020565778
-0.00044557783
0.0028427763
0.0027842643
0.0021796112
0.0027229108
0.00076555863
0.0013105347
0.0030936737
0.003725755
0.0018558143
0.00080223619
0.0045215406
0.003111945
0.00071307345
0.0022344455
0.0011040544
-5.211383e-05
0.00048187821
0.0032871101
0.0026014671
0.0024044174
0.0066640302
0.00485841
0.00086230609
0.00098247544
0.00056304041
-0.00019147322
0.00063989826
0.0042706442
0.003978399
0.0040644102
0.0086152244
0.0069339012
0.0026426643
0.0021797261
0.00085685731
0.0002622655
0.0022012612
0.0061371053
0.0058636412
0.0057340958
0.010058171
0.0081471166
0.00351899
0.0025934775
0.00090875356
0.00065551052
0.0035891381
0.0080918981
0.0080720828
0.0074585508
0.011026712
0.0083450376
0.0029127611
0.0011796912
0.00030516639
0.000333409
0.0026356572
0.008211251
0.0096855973
0.0090228024
0.011469307
0.0074998471
0.00094427113
-0.0014028433
-0.00060244145
0.0008784345
0.0024569864
0.006774593
0.010001674
0.010115235
0.011296809
0.0057703187
-0.00099472427
6.6332607e-05
0.00085559096
0.0024597639
0.0053367241
0.0064708156
0.009630878
0.010633804
0.010469272
0.0035035262
-0.00016908743
0.00087312319
-6.4581063e-05
0.0009036977
0.0011615903
0.0052727921
0.0047442761
-0.00048806937
0.0021140517
0.0031610667
0.002159915
-0.00034978048
-0.00081885168
-0.00053959302
0.0018325614
0.0060282453
0.0024637191
2.8346452e-05
0.0034488076
0.0032636503
0.0024918129
0.0029606967
0.00082309876
0.0013510118
0.0032665643
0.0040567743
0.002283775
0.0013383927
0.0052025918
0.0036022396
0.00096336085
0.0024616294
0.0011795078
-3.5957576e-05
0.00061654351
0.0036307846
0.003071499
0.0030081999
0.0074301681
0.0054107468
0.001108877
0.0011647635
0.00062231389
-0.00016935957
0.00080606323
0.0046645542
0.0045065723
0.0047326688
0.0094530164
0.00755509
0.0029370974
0.0023842377
0.00091984134
0.00030831964
0.0024430056
0.0066106381
0.006465775
0.0064632987
0.010943421
0.0087998923
0.0038229913
0.0027829009
0.00096267802
0.00072047774
0.0038946034
0.0086459147
0.0087569968
0.0082459212
0.011934288
0.0089797512
0.0031534613
0.0012605188
0.00031564853
0.00037670871
0.0028841786
0.0087577346
0.010418625
0.0098524442
0.012368082
0.0080589717
0.0010456856
-0.0014965051
-0.00065257529
0.00094174304
0.0026980492
0.0072629787
0.010730733
0.010960035
0.012150652
0.0062024455
-0.0010244906
8.560786e-05
0.00091249201
0.0025836935
0.0056955885
0.0069618014
0.010341234
0.011470582
0.011244363
0.0037795656
-0.00012922537
0.00095904521
-7.0283727e-05
0.00093357259
0.0012940139
0.0055871524
0.0051569308
-4.8093921e-05
0.0026506936
0.0036321903
0.0024668226
-0.00022733517
-0.00081612558
-0.00052581693
0.0019696773
0.0063477499
0.0028628414
0.00050999355
0.0040415212
0.0037299701
0.0027941527
0.0031837593
0.00087636983
0.0013840148
0.0034229905
0.0043684941
0.0027047981
0.001874194
0.0058595168
0.0040773285
0.0012131007
0.0026771194
0.0012485015
-1.8751965e-05
0.00075101898
0.0039577472
0.0035297075
0.0036013137
0.0081584367
0.0059366999
0.0013539283
0.0013432625
0.00067853597
-0.00014537807
0.0009708578
0.0050353602
0.0050140439
0.005379588
0.010240429
0.008136638
0.0032186992
0.0025774051
0.00097792943
0.00035330635
0.0026733069
0.0070490674
0.0070351015
0.0071604403
0.011769033
0.009405275
0.0041086214
0.002958453
0.0010114218
0.00078184038
0.004179681
0.0091522756
0.0093949562
0.0089901842
0.012776027
0.009565844
0.0033797808
0.0013367176
0.00032489141
0.00041849287
0.0031184451
0.0092557972
0.011094411
0.010629015
0.013198239
0.0085749983
0.0011455274
-0.0015779828
-0.00069803663
0.0010000605
0.0029259591
0.0077120511
0.011400555
0.011744877
0.012937108
0.00660275
-0.0010432227
0.0001073747
0.00096449617
0.0026925559
0.0060228997
0.0074153004
0.010994697
0.012244206
0.011957551
0.0040385625
-8.3815524e-05
0.0010421116
-7.4878731e-05
0.00095831041
0.0014211195
0.0058712487
0.0055430331
0.00039792917
0.0031767782
0.0040860824
0.0027625248
-0.00010101192
-0.00080782781
-0.00050819522
0.0020973032
0.0066322919
0.0032495303
0.00099426431
0.0046151277
0.0041784251
0.0030832418
0.0033897411
0.00092481782
0.0014090995
0.0035609669
0.0046574269
0.0031143508
0.0024042184
0.006486141
0.0045323764
0.0014592532
0.0028786197
0.0013103859
-8.3306872e-07
0.0008834814
0.0042644356
0.003971348
0.0041780005
0.0088422376
0.0064311382
0.0015944713
0.0015159284
0.00073114319
-0.00011990237
0.0011322846
0.0053792447
0.0054957845
0.0059991005
0.010970523
0.0086730925
0.0034842738
0.0027571058
0.0010305492
0.0003967237
0.0028897707
0.0074481718
0.0075662301
0.0078191701
0.012527863
0.0099576951
0.0043726845
0.0031181363
0.0010544738
0.00083899729
0.0044416474
0.0096063545
0.0099801667
0.0096847259
0.013544717
0.010097901
0.003588922
0.0014069273
0.0003326341
0.00045828555
0.0033360647
0.0097008848
0.011706946
0.011345727
0.013952671
0.0090429801
0.0012418136
-0.0016476374
-0.0007387419
0.0010528086
0.0031383758
0.0081175841
0.012005187
0.012462939
0.013649365
0.0069670299
-0.0010521441
0.00013064788
0.0010110863
0.0027854542
0.0063156964
0.0078270722
0.011585432
0.012947935
0.012602493
0.0042772064
-3.4465808e-05
0.0011209672
-7.8528986e-05
0.00097757255
0.001541342
0.0061221034
0.0058986829
0.00084561902
0.0036874278
0.0045184685
0.0030440322
2.7675549e-05
-0.00079417307
-0.00048701225
0.0022138683
0.006878889
0.0036199027
0.0014765469
0.0051644567
0.0046047813
0.0033561354
0.0035766224
0.00096797209
0.0014259234
0.0036788535
0.0049205844
0.0035084219
0.0029235774
0.0070769713
0.0049631202
0.0016991593
0.0030641503
0.0013646076
1.7511544e-05
0.0010123494
0.0045477671
0.0043922223
0.0047330919
0.0094757309
0.0068895631
0.0018278966
0.0016809785
0.00077964576
-9.3263363e-05
0.0012885925
0.005692904
0.0059473591
0.0065857854
0.011637184
0.0091597052
0.003731064
0.0029215179
0.0010772117
0.00043813014
0.0030903078
0.0078043121
0.0080544302
0.0084338392
0.013213636
0.010452322
0.0046124469
0.003260262
0.0010914065
0.00089142259
0.004678136
0.010004178
0.010507572
0.01032369
0.014234042
0.010571239
0.0037785115
0.0014700292
0.0003386722
0.00049567196
0.0035349594
0.010089094
0.012251015
0.011996598
0.014625169
0.0094586536
0.0013328926
-0.0017057026
-0.0007745904
0.0010994914
0.0033332631
0.0084759394
0.012539477
0.013108241
0.01428149
0.0072916843
-0.0010522363
0.00015462355
0.0010518211
0.0028616365
0.0065714342
0.0081934499
0.012108383
0.013575882
0.013173681
0.0044926889
1.7487014e-05
0.0011944676
-8.136105e-05
0.00099109117
0.00165332
0.0063371937
0.0062204819
0.0012909322
0.0041782061
0.0049255206
0.0033086936
0.00015736192
-0.00077537102
-0.00046253739
0.0023180308
0.0070850417
0.0039704892
0.0019525869
0.0056848312
0.0050052524
0.0036102381
0.0037426617
0.0010054315
0.0014342317
0.0037752931
0.0051553838
0.003883405
0.0034277888
0.0076270733
0.0053657544
0.0019304455
0.0032319874
0.0014106967
3.6027999e-05
0.001136221
0.0048050457
0.0047885645
0.0052618875
0.010053719
0.0073079997
0.0020518808
0.001836832
0.0008236147
-6.5763449e-05
0.0014382162
0.0059734591
0.0063648162
0.0071347511
0.012235012
0.0095923283
0.0039566649
0.0030690653
0.0011174995
0.00047713111
0.0032730776
0.0081143463
0.0084955267
0.0089993887
0.013820841
0.010884967
0.0048255538
0.0033833965
0.0011218639
0.00093865329
0.0048870834
0.010342346
0.010972755
0.010901874
0.01483848
0.010981813
0.0039465193
0.0015250928
0.00034284517
0.00053028564
0.0037133114
0.010417094
0.012722101
0.012576356
0.015210326
0.0098183481
0.0014173637
-0.0017523414
-0.00080547807
0.001139683
0.0035088353
0.0087839891
0.012998974
0.013675547
0.014828335
0.0075736231
-0.0010443198
0.00017863011
0.0010863257
0.0029204855
0.0067879368
0.0085112639
0.012559179
0.01412292
0.013666353
0.0046826102
7.0901029e-05
0.0012616337
-8.3475703e-05
0.00099865793
0.0017558472
0.0065143789
0.0065054433
0.0017300632
0.0046450215
0.005303768
0.0035541237
0.00028678111
-0.00075163843
-0.00043503645
0.0024086292
0.0072486609
0.0042981433
0.0024183895
0.0061719726
0.0053764125
0.0038432316
0.0038863495
0.001036854
0.0014338459
0.0038491641
0.0053595763
0.0042360099
0.003912682
0.0081319809
0.0057368448
0.0021509511
0.0033806187
0.0014482565
5.4484887e-05
0.0012538266
0.0050338929
0.0051569552
0.0057600625
0.010571557
0.0076829136
0.0022643159
0.001982066
0.00086267199
-3.7687433e-05
0.0015797306
0.0062183882
0.0067446059
0.0076415477
0.012759238
0.009967336
0.0041589547
0.003198374
0.0011510567
0.00051336907
0.0034364455
0.0083755659
0.0088858208
0.0095112663
0.014344654
0.011252006
0.0050099634
0.0034863193
0.0011455515
0.00098027994
0.00506669
0.010617972
0.011371863
0.011414645
0.015353228
0.011326146
0.0040911943
0.0015713319
0.000345026
0.00056179873
0.0038695222
0.010682067
0.013116312
0.013080358
0.015703464
0.010118914
0.0014940105
-0.001787692
-0.0008313092
0.0011730185
0.0036635174
0.0090390565
0.013379867
0.014160292
0.015285468
0.0078101934
-0.0010291219
0.00020208638
0.0011142839
0.002961511
0.0069633598
0.0087777835
0.012934067
0.014584612
0.014076422
0.0048449023
0.00012476498
0.001321614
-8.4957458e-05
0.0010001148
0.0018478334
0.0066518421
0.0067509197
0.0021593662
0.0050840513
0.0056500284
0.0037781448
0.00041472712
-0.00072320877
-0.00040478074
0.0024846436
0.0073680095
0.0045999706
0.0028701433
0.0066219268
0.0057151263
0.0040530164
0.0040063714
0.001061948
0.001424655
0.003899542
0.0055311897
0.004563193
0.0043743235
0.0085876236
0.0060732601
0.0023586704
0.0035087071
0.0014769559
7.2664206e-05
0.0013639913
0.0052321912
0.0054942536
0.0062235966
0.011025087
0.0080111446
0.0024632515
0.0021153782
0.00089648252
-9.3111112e-06
0.0017118153
0.0064254727
0.0070835141
0.0081020976
0.013205659
0.010281561
0.0043360402
0.0033082368
0.0011775815
0.00054651559
0.0035789486
0.0085856445
0.0092220276
0.0099653594
0.014780871
0.01155032
0.0051638934
0.003567988
0.0011622294
0.0010159393
0.0052153876
0.010828633
0.01170155
0.011857882
0.015774141
0.011601266
0.0042110102
0.0016080681
0.00034511244
0.00058991419
0.0040021803
0.010881663
0.013430328
0.013504534
0.016100576
0.010357661
0.0015617456
-0.0018119087
-0.00085200635
0.001199187
0.0037959132
0.0092388678
0.01367892
0.014558524
0.015649111
0.0079991179
-0.0010073343
0.00022446561
0.0011354308
0.0029843437
0.0070961603
0.0089906696
0.013229858
0.014957144
0.014400407
0.0049777643
0.00017814318
0.0013736506
-8.5883031e-05
0.00099534603
0.0019282712
0.0067480385
0.00695454
0.0025752891
0.0054916764
0.0059613474
0.0039787375
0.0005400205
-0.00069034032
-0.00037205476
0.0025451621
0.0074416511
0.0048732672
0.0033041554
0.007031001
0.0060184892
0.0042376623
0.0041015765
0.001080465
0.0014066066
0.0039256649
0.0056684786
0.0048620977
0.0048089539
0.0089902655
0.0063721129
0.0025517019
0.0036150584
0.0014965224
9.0353609e-05
0.0014656021
0.0053980359
0.0057975392
0.0066487124
0.011410576
0.0082898494
0.0026468456
0.0022355558
0.00092474706
1.9091434e-05
0.0018332226
0.0065927506
0.0073786058
0.0085126361
0.013570579
0.010532237
0.0044862075
0.0033975822
0.0011968188
0.00057626448
0.0036992669
0.008742593
0.0095012215
0.010357938
0.015125858
0.01177724
0.0052857728
0.0036275066
0.0011717041
0.0010453078
0.0053318117
0.010972326