/*--------------------------------*- C++ -*----------------------------------*\
| =========                 |                                                 |
| \\      /  F ield         | OpenFOAM: The Open Source CFD Toolbox           |
|  \\    /   O peration     | Version:  v2106                                 |
|   \\  /    A nd           | Website:  www.openfoam.com                      |
|    \\/     M anipulation  |                                                 |
\*---------------------------------------------------------------------------*/
FoamFile
{
    version     2.0;
    format      ascii;
    arch        "LSB;label=32;scalar=64";
    class       volVectorField;
    location    "15";
    object      gradT;
}
// * * * * * * * * * * * * * * * * * * * * * * * * * * * * * * * * * * * * * //

dimensions      [0 -1 0 1 0 0 0];

internalField   nonuniform List<vector> 
4000
(
(-0.00012769168 -0.00012769168 600.40102)
(-0.00047541956 -0.0003010049 600.4006)
(0.00044820467 0.00016370691 600.39976)
(0.00050352221 -5.8672996e-05 600.40222)
(-0.00050243936 -0.00011558485 600.40135)
(-0.00040584264 -0.00010859288 600.40032)
(-0.0001689628 -8.9477819e-05 600.39982)
(-4.7000139e-05 -7.6487847e-05 600.39968)
(-2.0390444e-05 -5.8546616e-05 600.39963)
(-6.9235568e-06 -5.5074273e-06 600.39955)
(-0.0003010049 -0.00047541956 600.4006)
(-3.8321671e-05 -3.832167e-05 600.39938)
(0.00081170252 0.00037517723 600.40072)
(8.4584568e-05 -7.3694967e-05 600.40204)
(-0.00057731918 -0.0001645356 600.40088)
(-0.00036668209 -0.00012320322 600.39991)
(-0.00012080525 -6.5893034e-05 600.39952)
(-6.0333404e-07 -5.4352105e-05 600.39944)
(8.6080185e-05 -7.6177543e-05 600.39952)
(4.6115631e-05 -1.1611087e-07 600.39976)
(0.00016370691 0.00044820467 600.39976)
(0.00037517723 0.00081170252 600.40072)
(0.00041283137 0.00041283137 600.40114)
(-3.6190618e-05 0.00027712685 600.40207)
(-0.00055194761 0.00029534097 600.40089)
(-0.00030720007 0.00037035728 600.40004)
(-0.00010011168 0.00045074448 600.39977)
(-5.7284649e-05 0.00047507729 600.39965)
(3.384555e-05 0.00039344177 600.39953)
(4.3784065e-05 0.00029023408 600.39977)
(-5.8673e-05 0.00050352222 600.40222)
(-7.3694974e-05 8.4584578e-05 600.40204)
(0.00027712685 -3.619062e-05 600.40207)
(-3.2905831e-05 -3.2905835e-05 600.40292)
(-0.00048408875 2.6658137e-05 600.40184)
(-0.00021127858 0.00011474262 600.40116)
(-1.608524e-05 0.00022084296 600.40109)
(-5.7906036e-05 0.00031782813 600.4011)
(-9.8763025e-05 0.00034952538 600.40086)
(-2.2689496e-05 0.00029847161 600.40075)
(-0.00011558485 -0.00050243936 600.40135)
(-0.00016453562 -0.00057731918 600.40088)
(0.00029534096 -0.00055194761 600.40089)
(2.6658139e-05 -0.00048408875 600.40184)
(-0.00040429916 -0.00040429916 600.40091)
(-0.00011301525 -0.00032120798 600.4004)
(0.00010297383 -0.00022900834 600.40054)
(7.1397776e-05 -0.00012533294 600.4008)
(1.4489035e-05 -2.1498872e-05 600.4008)
(9.74822e-06 6.1311301e-05 600.40087)
(-0.00010859288 -0.00040584265 600.40032)
(-0.00012320322 -0.0003666821 600.39991)
(0.00037035728 -0.00030720006 600.40004)
(0.00011474261 -0.00021127858 600.40116)
(-0.00032120798 -0.00011301525 600.4004)
(-3.5987761e-05 -3.5987767e-05 600.40005)
(0.00017978981 2.7167147e-05 600.40034)
(0.00014960344 8.2215192e-05 600.40076)
(8.7881211e-05 0.00013018054 600.40091)
(3.2517286e-05 0.00016720693 600.4011)
(-8.9477822e-05 -0.0001689628 600.39982)
(-6.5893034e-05 -0.00012080525 600.39952)
(0.00045074448 -0.00010011169 600.39977)
(0.00022084296 -1.6085238e-05 600.40109)
(-0.00022900835 0.00010297383 600.40054)
(2.7167147e-05 0.0001797898 600.40034)
(0.00022117679 0.00022117678 600.40074)
(0.00017441117 0.00023651947 600.40122)
(9.9480777e-05 0.00023288705 600.4014)
(3.443248e-05 0.00021827822 600.40159)
(-7.6487846e-05 -4.7000141e-05 600.39968)
(-5.4352111e-05 -6.0333321e-07 600.39944)
(0.00047507729 -5.728465e-05 600.39965)
(0.00031782813 -5.7906035e-05 600.4011)
(-0.00012533293 7.1397778e-05 600.4008)
(8.221519e-05 0.00014960345 600.40076)
(0.00023651947 0.00017441118 600.40122)
(0.00016131371 0.00016131371 600.40168)
(6.9639962e-05 0.00012578587 600.40181)
(2.2778066e-05 8.6324446e-05 600.40193)
(-5.8546617e-05 -2.0390446e-05 600.39963)
(-7.6177542e-05 8.6080178e-05 600.39952)
(0.00039344178 3.3845551e-05 600.39953)
(0.00034952538 -9.8763024e-05 600.40086)
(-2.149887e-05 1.4489028e-05 600.4008)
(0.00013018055 8.7881206e-05 600.40091)
(0.00023288705 9.9480781e-05 600.4014)
(0.00012578587 6.9639966e-05 600.40181)
(2.4491516e-05 2.4491516e-05 600.40184)
(8.1248643e-06 -4.694121e-06 600.40188)
(-5.50743e-06 -6.9235555e-06 600.39955)
(-1.1611405e-07 4.6115631e-05 600.39976)
(0.00029023408 4.3784063e-05 600.39977)
(0.00029847161 -2.26895e-05 600.40075)
(6.1311297e-05 9.7482149e-06 600.40087)
(0.00016720694 3.2517278e-05 600.4011)
(0.00021827823 3.443248e-05 600.40159)
(8.6324442e-05 2.2778067e-05 600.40193)
(-4.6941247e-06 8.1248637e-06 600.40188)
(3.3209744e-06 3.3209739e-06 600.40192)
(-4.2275455e-05 -4.2275457e-05 601.39547)
(-0.00046421456 -0.0003111038 601.39607)
(0.0010824344 0.00046210605 601.39602)
(0.00086307316 5.7704407e-07 601.39708)
(-0.0013373599 -0.00011512527 601.39632)
(-0.001064274 -8.7049211e-05 601.39555)
(-0.00045213817 -3.6151718e-05 601.3952)
(-0.0001541916 -7.1672578e-06 601.39508)
(-0.00014034566 6.5257468e-05 601.39503)
(-6.0810354e-05 0.00023159502 601.39473)
(-0.0003111038 -0.00046421456 601.39607)
(0.00029235771 0.0002923577 601.39612)
(0.0015499557 0.00093623437 601.3967)
(-2.7738224e-06 -4.2143987e-06 601.39719)
(-0.0014687993 -0.00018270175 601.39631)
(-0.0009458137 -4.9831194e-05 601.39561)
(-0.00033231524 0.00010841314 601.39534)
(-2.0778174e-06 0.00011437267 601.39523)
(0.00021779775 7.9625623e-05 601.39537)
(0.00010552719 0.00033643146 601.39552)
(0.00046210605 0.0010824344 601.39602)
(0.00093623437 0.0015499557 601.3967)
(0.0007858623 0.00078586229 601.39691)
(-0.00025586296 0.00049174977 601.3972)
(-0.0013829767 0.0005539137 601.39634)
(-0.00077315913 0.00077349503 601.39577)
(-0.00028793431 0.0010080474 601.39562)
(-0.00018297911 0.0010620267 601.39543)
(8.1713136e-05 0.00083218526 601.39535)
(0.00011039354 0.00060620888 601.39553)
(5.7704842e-07 0.00086307316 601.39708)
(-4.214408e-06 -2.7738102e-06 601.39719)
(0.00049174975 -0.00025586296 601.3972)
(-0.00023472241 -0.00023472241 601.39746)
(-0.0011870541 -6.4583884e-05 601.39669)
(-0.00049167999 0.00019333965 601.39629)
(-4.3783552e-05 0.00050543433 601.39635)
(-0.00017793997 0.00077921813 601.39629)
(-0.00023802008 0.00086204949 601.39613)
(-4.5123722e-05 0.00074758016 601.3961)
(-0.00011512527 -0.0013373599 601.39632)
(-0.00018270176 -0.0014687993 601.39631)
(0.0005539137 -0.0013829767 601.39634)
(-6.4583886e-05 -0.0011870541 601.39669)
(-0.00095491467 -0.00095491467 601.39606)
(-0.00020314092 -0.00070925199 601.39583)
(0.00029794418 -0.00043730863 601.39609)
(0.00017363605 -0.00014152437 601.39626)
(5.0075163e-05 0.00013724095 601.3963)
(3.4080656e-05 0.00034573898 601.3964)
(-8.7049208e-05 -0.001064274 601.39555)
(-4.983119e-05 -0.0009458137 601.39561)
(0.00077349503 -0.00077315913 601.39577)
(0.00019333965 -0.00049168 601.39629)
(-0.00070925199 -0.00020314092 601.39583)
(2.5926046e-05 2.5926045e-05 601.39575)
(0.00052394407 0.00021279644 601.39616)
(0.00039660961 0.00037136297 601.39647)
(0.00024924327 0.00050121968 601.39663)
(9.3874966e-05 0.00058899362 601.39683)
(-3.6151712e-05 -0.00045213817 601.3952)
(0.00010841314 -0.00033231524 601.39534)
(0.0010080474 -0.00028793431 601.39562)
(0.00050543432 -4.3783547e-05 601.39635)
(-0.00043730863 0.00029794418 601.39609)
(0.00021279644 0.00052394407 601.39616)
(0.0006433811 0.0006433811 601.39665)
(0.00046205929 0.00068106066 601.39701)
(0.00026770581 0.00065710512 601.39719)
(9.2596613e-05 0.00059128186 601.39735)
(-7.1672597e-06 -0.00015419159 601.39508)
(0.00011437266 -2.0778202e-06 601.39523)
(0.0010620267 -0.00018297912 601.39543)
(0.00077921814 -0.00017793997 601.39629)
(-0.00014152438 0.00017363604 601.39626)
(0.00037136297 0.00039660961 601.39647)
(0.00068106065 0.00046205928 601.39701)
(0.00041033362 0.00041033363 601.39734)
(0.00015946447 0.00029332853 601.39743)
(4.9992795e-05 0.00017311475 601.39748)
(6.5257467e-05 -0.00014034567 601.39503)
(7.9625613e-05 0.00021779775 601.39537)
(0.00083218526 8.1713129e-05 601.39535)
(0.00086204948 -0.00023802009 601.39613)
(0.00013724094 5.0075159e-05 601.3963)
(0.00050121968 0.00024924327 601.39663)
(0.00065710512 0.0002677058 601.39719)
(0.00029332853 0.00015946448 601.39743)
(3.0486929e-05 3.0486934e-05 601.39743)
(1.2454093e-05 6.1597961e-06 601.39745)
(0.00023159502 -6.0810359e-05 601.39473)
(0.00033643146 0.00010552719 601.39552)
(0.00060620888 0.00011039354 601.39553)
(0.00074758017 -4.5123727e-05 601.3961)
(0.00034573899 3.4080659e-05 601.3964)
(0.00058899362 9.387497e-05 601.39683)
(0.00059128186 9.2596614e-05 601.39735)
(0.00017311475 4.9992795e-05 601.39748)
(6.1597933e-06 1.2454094e-05 601.39745)
(3.3774703e-05 3.3774704e-05 601.39751)
(0.00027138321 0.00027138321 603.22724)
(7.3541254e-05 -0.00027324014 603.22797)
(0.0014536711 0.00061260726 603.22798)
(0.00080209284 1.5016285e-05 603.22852)
(-0.0020309262 -0.00012333404 603.22787)
(-0.0015308738 -6.6324638e-05 603.22732)
(-0.00063511176 7.9120046e-06 603.22711)
(-0.00021904867 2.2993689e-05 603.22703)
(-0.00037806497 0.00017138138 603.22703)
(-0.00020604574 0.00052013483 603.22663)
(-0.00027324014 7.3541256e-05 603.22797)
(0.00058537733 0.00058537733 603.22803)
(0.0018860557 0.0012573414 603.22837)
(-0.00030181911 4.2447473e-05 603.22854)
(-0.0021529375 -0.00014918276 603.22784)
(-0.0013340047 9.7266883e-05 603.22739)
(-0.00050113427 0.00035186613 603.22725)
(2.6155392e-05 0.00029084555 603.22709)
(0.00036764675 0.00025167102 603.22727)
(0.00014270771 0.00079931597 603.22738)
(0.00061260726 0.0014536711 603.22798)
(0.0012573414 0.0018860557 603.22837)
(0.00091074122 0.00091074123 603.22846)
(-0.00060443134 0.0005434036 603.22852)
(-0.0019761067 0.0006746336 603.22787)
(-0.0010298249 0.0010511844 603.22756)
(-0.0004415331 0.0014543679 603.22756)
(-0.00031924379 0.0015310004 603.22731)
(0.00013040545 0.0011564289 603.22728)
(0.0001590509 0.00087890989 603.22747)
(1.5016289e-05 0.00080209284 603.22852)
(4.2447475e-05 -0.00030181911 603.22854)
(0.00054340359 -0.00060443134 603.22852)
(-0.00053792675 -0.00053792674 603.22858)
(-0.0016451568 -0.00025359603 603.22803)
(-0.00055427038 0.00017371166 603.2279)
(-2.1318234e-05 0.000694138 603.2281)
(-0.00027178366 0.0011448373 603.22799)
(-0.00028444378 0.0012919511 603.2279)
(-4.2304962e-05 0.0011697808 603.22797)
(-0.00012333404 -0.0020309262 603.22787)
(-0.00014918276 -0.0021529375 603.22784)
(0.0006746336 -0.0019761067 603.22787)
(-0.00025359604 -0.0016451568 603.22803)
(-0.0012644683 -0.0012644683 603.22761)
(-8.209086e-05 -0.0008617431 603.22764)
(0.00052959258 -0.00041831323 603.22805)
(0.00027856931 5.2136763e-05 603.22814)
(0.0001553489 0.00047834032 603.22822)
(7.760402e-05 0.0007856685 603.2284)
(-6.6324639e-05 -0.0015308738 603.22732)
(9.7266891e-05 -0.0013340047 603.22739)
(0.0010511844 -0.0010298249 603.22756)
(0.00017371166 -0.00055427037 603.2279)
(-0.00086174311 -8.2090853e-05 603.22764)
(0.00029188472 0.00029188473 603.22782)
(0.00089256163 0.00059238833 603.22836)
(0.00062486989 0.00083677382 603.22858)
(0.00044908796 0.0010197951 603.22876)
(0.00016258049 0.0011171222 603.22899)
(7.9120033e-06 -0.00063511176 603.22711)
(0.00035186614 -0.00050113427 603.22725)
(0.001454368 -0.00044153311 603.22756)
(0.00069413801 -2.1318242e-05 603.2281)
(-0.00041831325 0.00052959257 603.22805)
(0.00059238833 0.00089256163 603.22836)
(0.0010744817 0.0010744817 603.22898)
(0.0007059761 0.0011107595 603.22922)
(0.00043569728 0.001034229 603.22938)
(0.00014248873 0.00087434075 603.22954)
(2.2993689e-05 -0.00021904867 603.22703)
(0.00029084555 2.6155402e-05 603.22709)
(0.0015310004 -0.00031924379 603.22731)
(0.0011448373 -0.00027178367 603.22799)
(5.2136761e-05 0.0002785693 603.22814)
(0.00083677382 0.00062486989 603.22858)
(0.0011107595 0.0007059761 603.22922)
(0.00058461721 0.00058461721 603.22941)
(0.00021266921 0.00036889333 603.22945)
(5.5988326e-05 0.00018969329 603.22947)
(0.00017138139 -0.00037806497 603.22703)
(0.00025167101 0.00036764675 603.22727)
(0.0011564289 0.00013040545 603.22728)
(0.0012919511 -0.00028444378 603.2279)
(0.00047834032 0.00015534891 603.22822)
(0.0010197951 0.00044908796 603.22876)
(0.001034229 0.00043569727 603.22938)
(0.00036889333 0.00021266922 603.22945)
(4.0773354e-05 4.0773347e-05 603.22942)
(2.3022039e-05 2.532273e-05 603.22956)
(0.00052013484 -0.00020604574 603.22663)
(0.00079931597 0.00014270771 603.22738)
(0.00087890989 0.0001590509 603.22747)
(0.0011697808 -4.2304959e-05 603.22797)
(0.0007856685 7.7604024e-05 603.2284)
(0.0011171222 0.0001625805 603.22899)
(0.00087434075 0.00014248873 603.22954)
(0.00018969329 5.5988331e-05 603.22947)
(2.5322728e-05 2.3022039e-05 603.22956)
(4.5687914e-05 4.5687914e-05 603.22957)
(0.00044680328 0.00044680329 605.9613)
(0.00027907413 -0.00027356962 605.96164)
(0.0016298002 0.00072290042 605.96149)
(0.000749732 1.7078292e-05 605.96198)
(-0.0025389849 -0.00013120522 605.9615)
(-0.0018226941 -3.8108375e-05 605.96115)
(-0.00074329045 6.0000649e-05 605.96109)
(-0.00023309157 3.3375407e-05 605.96102)
(-0.00053628657 0.00022224765 605.96104)
(-0.00032771816 0.00073312343 605.9607)
(-0.00027356962 0.00027907413 605.96164)
(0.00069321983 0.00069321984 605.96155)
(0.0020657721 0.001417812 605.96174)
(-0.00053142645 -7.008066e-06 605.96192)
(-0.0026217649 -0.00018256927 605.96142)
(-0.0015358853 0.00019502378 605.96119)
(-0.00063606477 0.00055704428 605.96122)
(1.0278932e-05 0.00039643207 605.96103)
(0.00051333547 0.00032586163 605.96118)
(0.00018315763 0.0011729878 605.96129)
(0.00072290042 0.0016298002 605.96149)
(0.001417812 0.0020657721 605.96174)
(0.00092957231 0.00092957232 605.96172)
(-0.00085064927 0.00052359595 605.96182)
(-0.0023369531 0.00073785696 605.96138)
(-0.0010830806 0.0012783625 605.96131)
(-0.00054188216 0.0018590064 605.96148)
(-0.00046427421 0.001961716 605.96122)
(0.00024026913 0.0014690671 605.96119)
(0.0002370326 0.0011940129 605.96142)
(1.7078292e-05 0.000749732 605.96198)
(-7.0080631e-06 -0.00053142645 605.96192)
(0.00052359595 -0.00085064926 605.96182)
(-0.00072314181 -0.00072314179 605.96194)
(-0.0018669984 -0.00032057924 605.96161)
(-0.00041473588 0.00027431514 605.96171)
(4.7288671e-05 0.00099734944 605.96208)
(-0.00037966043 0.001609765 605.96195)
(-0.00025436758 0.0018078941 605.96186)
(-2.1180805e-07 0.0016801718 605.96199)
(-0.00013120521 -0.0025389849 605.9615)
(-0.00018256926 -0.0026217649 605.96142)
(0.00073785696 -0.0023369531 605.96138)
(-0.00032057925 -0.0018669984 605.96161)
(-0.0013394961 -0.0013394961 605.96141)
(0.00023484808 -0.00078476808 605.96167)
(0.00079356773 -0.00017911244 605.96223)
(0.00034627046 0.00044765453 605.96228)
(0.00031067592 0.00099401483 605.96234)
(0.0001518844 0.0013703991 605.96255)
(-3.8108375e-05 -0.0018226941 605.96115)
(0.00019502379 -0.0015358853 605.96119)
(0.0012783625 -0.0010830806 605.96131)
(0.00027431514 -0.00041473589 605.96171)
(-0.00078476809 0.00023484808 605.96167)
(0.00074564781 0.00074564782 605.96207)
(0.0012797113 0.0011476241 605.96276)
(0.00079346684 0.0014574444 605.96292)
(0.00066837699 0.001663127 605.96305)
(0.00025071103 0.0017310967 605.96329)
(6.0000653e-05 -0.00074329045 605.96109)
(0.00055704429 -0.00063606477 605.96122)
(0.0018590064 -0.00054188216 605.96148)
(0.00099734943 4.7288655e-05 605.96208)
(-0.00017911244 0.00079356772 605.96223)
(0.0011476241 0.0012797113 605.96276)
(0.0015053643 0.0015053643 605.96351)
(0.00086177337 0.0015121628 605.96368)
(0.00058432817 0.0013496214 605.96375)
(0.00019719754 0.0010657327 605.96387)
(3.3375411e-05 -0.00023309157 605.96102)
(0.00039643208 1.0278924e-05 605.96103)
(0.0019617159 -0.00046427422 605.96122)
(0.001609765 -0.00037966044 605.96195)
(0.00044765453 0.00034627046 605.96228)
(0.0014574444 0.00079346684 605.96292)
(0.0015121628 0.00086177336 605.96368)
(0.00063772387 0.00063772386 605.96375)
(0.00022194689 0.00032631555 605.96367)
(6.1451944e-05 0.00018812195 605.96362)
(0.00022224765 -0.00053628657 605.96104)
(0.00032586164 0.00051333547 605.96118)
(0.0014690671 0.00024026912 605.96119)
(0.0018078941 -0.00025436757 605.96186)
(0.00099401484 0.00031067592 605.96234)
(0.001663127 0.00066837699 605.96305)
(0.0013496213 0.00058432817 605.96375)
(0.00032631555 0.00022194689 605.96367)
(0.00013472625 0.00013472625 605.96353)
(0.00010506847 0.00010896828 605.9638)
(0.00073312344 -0.00032771816 605.9607)
(0.0011729878 0.00018315763 605.96129)
(0.0011940129 0.0002370326 605.96142)
(0.0016801718 -2.1180616e-07 605.96199)
(0.0013703991 0.0001518844 605.96255)
(0.0017310967 0.00025071103 605.96329)
(0.0010657327 0.00019719754 605.96387)
(0.00018812195 6.1451944e-05 605.96362)
(0.00010896828 0.00010506847 605.9638)
(4.4279964e-05 4.4279963e-05 605.9638)
(0.00050029311 0.00050029311 609.58029)
(0.00026342041 -0.00033477861 609.58042)
(0.0017875896 0.00078049018 609.58025)
(0.00080732155 -2.1367574e-05 609.5808)
(-0.0028539098 -0.00017407803 609.58049)
(-0.0019355032 -3.9459396e-05 609.58034)
(-0.00076804462 9.1831654e-05 609.58044)
(-0.00026856379 3.0405592e-05 609.58043)
(-0.00070392484 0.00026277086 609.58044)
(-0.00043634995 0.00091765202 609.58015)
(-0.00033477861 0.00026342041 609.58042)
(0.00068371602 0.00068371603 609.58023)
(0.0022577062 0.0014899169 609.58041)
(-0.00062453077 -0.00011607009 609.58068)
(-0.0028810475 -0.00026330491 609.58036)
(-0.0015366387 0.00025473489 609.58034)
(-0.00066324713 0.00073953427 609.58054)
(-1.2154985e-05 0.00049095319 609.58044)
(0.0006269448 0.00040574791 609.58058)
(0.00021853122 0.0015277301 609.5807)
(0.00078049019 0.0017875896 609.58025)
(0.0014899169 0.0022577062 609.58041)
(0.0009878035 0.00098780352 609.58042)
(-0.00094590028 0.00055935841 609.58062)
(-0.0024831048 0.0008622184 609.58037)
(-0.00093266403 0.0015665125 609.5805)
(-0.00053182631 0.0023222906 609.58085)
(-0.00060235015 0.002445013 609.58067)
(0.00033285206 0.0018430786 609.58065)
(0.00031163818 0.0015739593 609.58089)
(-2.136757e-05 0.00080732155 609.5808)
(-0.00011607009 -0.00062453077 609.58068)
(0.0005593584 -0.00094590027 609.58062)
(-0.00075011588 -0.00075011588 609.58085)
(-0.0018738934 -0.000228287 609.58071)
(-7.6566475e-05 0.00053049085 609.58101)
(0.00021525333 0.0014477705 609.58156)
(-0.00049136701 0.0022060117 609.58148)
(-0.00024410891 0.0024409225 609.5814)
(3.9118341e-05 0.002299101 609.58153)
(-0.00017407803 -0.0028539098 609.58049)
(-0.00026330491 -0.0028810475 609.58036)
(0.00086221839 -0.0024831048 609.58037)
(-0.00022828701 -0.0018738934 609.58071)
(-0.0012024981 -0.0012024981 609.5807)
(0.00074339348 -0.00050149912 609.58116)
(0.0011436946 0.00025672148 609.58188)
(0.00039080188 0.0010231257 609.58198)
(0.0004259413 0.0016673389 609.58202)
(0.00021709047 0.002090405 609.58222)
(-3.9459394e-05 -0.0019355032 609.58034)
(0.0002547349 -0.0015366387 609.58034)
(0.0015665125 -0.00093266403 609.5805)
(0.00053049084 -7.6566477e-05 609.58101)
(-0.00050149913 0.00074339348 609.58116)
(0.0013826531 0.0013826531 609.58175)
(0.0017398781 0.001874119 609.58259)
(0.00091925044 0.0022300655 609.58278)
(0.00082317037 0.0024302265 609.58288)
(0.00032116236 0.0024351211 609.58308)
(9.1831648e-05 -0.00076804461 609.58044)
(0.00073953427 -0.00066324713 609.58054)
(0.0023222906 -0.00053182631 609.58085)
(0.0014477705 0.00021525333 609.58156)
(0.00025672149 0.0011436946 609.58188)
(0.001874119 0.0017398781 609.58259)
(0.001991107 0.001991107 609.58348)
(0.00094690931 0.0019390347 609.58365)
(0.00063099689 0.0016502933 609.58367)
(0.00022035355 0.0012023394 609.58372)
(3.0405589e-05 -0.0002685638 609.58043)
(0.0004909532 -1.2154985e-05 609.58044)
(0.002445013 -0.00060235017 609.58067)
(0.0022060117 -0.00049136701 609.58148)
(0.0010231257 0.00039080188 609.58198)
(0.0022300655 0.00091925043 609.58278)
(0.0019390347 0.00094690931 609.58365)
(0.00057843672 0.00057843672 609.58371)
(8.6475096e-05 0.00014623217 609.58353)
(2.2526465e-05 0.00012169056 609.58337)
(0.00026277086 -0.00070392485 609.58044)
(0.0004057479 0.0006269448 609.58058)
(0.0018430786 0.00033285204 609.58065)
(0.0024409225 -0.00024410891 609.5814)
(0.0016673389 0.0004259413 609.58202)
(0.0024302265 0.00082317037 609.58288)
(0.0016502933 0.00063099689 609.58367)
(0.00014623217 8.6475097e-05 609.58353)
(0.00017425073 0.00017425072 609.58327)
(0.00020399247 0.00020425461 609.58356)
(0.00091765202 -0.00043634995 609.58015)
(0.0015277301 0.00021853122 609.5807)
(0.0015739593 0.00031163818 609.58089)
(0.002299101 3.9118345e-05 609.58153)
(0.002090405 0.00021709047 609.58222)
(0.0024351211 0.00032116236 609.58308)
(0.0012023394 0.00022035355 609.58372)
(0.00012169056 2.2526469e-05 609.58337)
(0.0002042546 0.00020399247 609.58356)
(4.2529054e-05 4.2529051e-05 609.58354)
(0.00052936356 0.00052936355 614.06233)
(0.00023393741 -0.00040009038 614.06242)
(0.0020070056 0.00083236881 614.06231)
(0.00098732331 -5.8285441e-05 614.06293)
(-0.0029917315 -0.00021336168 614.06277)
(-0.0018695853 -3.6675767e-05 614.0628)
(-0.00065247404 0.00012965083 614.06305)
(-0.00022967501 3.595067e-05 614.06315)
(-0.00082124735 0.00031280947 614.06321)
(-0.00052426821 0.001100512 614.06297)
(-0.00040009038 0.00023393741 614.06242)
(0.00068844529 0.00068844529 614.06225)
(0.002519713 0.0015840003 614.06248)
(-0.00058127242 -0.00018662283 614.06284)
(-0.002959317 -0.00030126858 614.06268)
(-0.0013550665 0.00035667517 614.06283)
(-0.00054353439 0.00096479746 614.06318)
(4.5062959e-05 0.00063009406 614.06319)
(0.00077559459 0.00053551486 614.06338)
(0.00026343427 0.0019100055 614.06353)
(0.00083236881 0.0020070056 614.06231)
(0.0015840003 0.002519713 614.06248)
(0.0011319375 0.0011319375 614.06254)
(-0.00089794553 0.00068921125 614.06285)
(-0.0024484335 0.0010816568 614.06276)
(-0.00060351925 0.0019459817 614.06306)
(-0.00037905516 0.0028702474 614.06355)
(-0.00065895761 0.0030048094 614.06348)
(0.0004586641 0.0022944078 614.06352)
(0.00039205889 0.0020241591 614.06377)
(-5.8285441e-05 0.00098732331 614.06293)
(-0.00018662283 -0.00058127242 614.06284)
(0.00068921125 -0.00089794553 614.06285)
(-0.00063155311 -0.00063155312 614.06318)
(-0.0017025465 7.8406291e-06 614.0632)
(0.00043352406 0.00092519775 614.06366)
(0.00051529332 0.0020276597 614.06435)
(-0.00053077666 0.0029184158 614.06437)
(-0.00020505578 0.0031793436 614.06434)
(8.3268458e-05 0.0030153234 614.06449)
(-0.00021336168 -0.0029917315 614.06277)
(-0.00030126858 -0.002959317 614.06268)
(0.0010816568 -0.0024484335 614.06276)
(7.8406251e-06 -0.0017025465 614.0632)
(-0.00089168262 -0.00089168262 614.06334)
(0.0014162999 -5.0759871e-05 614.06395)
(0.0016141629 0.00085093088 614.0648)
(0.00049272628 0.0017437042 614.06499)
(0.0005555717 0.0024701237 614.06507)
(0.00028271207 0.0029253295 614.06528)
(-3.6675768e-05 -0.0018695853 614.0628)
(0.00035667517 -0.0013550665 614.06283)
(0.0019459817 -0.00060351925 614.06306)
(0.00092519774 0.00043352407 614.06366)
(-5.0759875e-05 0.0014162999 614.06395)
(0.0021761376 0.0021761376 614.06469)
(0.0023097574 0.0027474603 614.06565)
(0.0010884161 0.0031359483 614.06592)
(0.00097656952 0.0033120424 614.06604)
(0.00038673901 0.0032324235 614.06624)
(0.00012965083 -0.00065247405 614.06305)
(0.00096479746 -0.00054353439 614.06318)
(0.0028702474 -0.00037905516 614.06355)
(0.0020276597 0.00051529333 614.06435)
(0.00085093087 0.0016141629 614.0648)
(0.0027474603 0.0023097574 614.06565)
(0.0025739736 0.0025739736 614.06665)
(0.0010573084 0.0024437058 614.0669)
(0.00065204693 0.001999832 614.06692)
(0.0002296328 0.0013526301 614.06694)
(3.5950673e-05 -0.00022967501 614.06315)
(0.00063009406 4.5062961e-05 614.06319)
(0.0030048094 -0.00065895761 614.06348)
(0.0029184158 -0.00053077667 614.06437)
(0.0017437042 0.00049272629 614.06499)
(0.0031359483 0.0010884161 614.06592)
(0.0024437058 0.0010573084 614.0669)
(0.0005142745 0.0005142745 614.067)
(-0.00011450622 -7.3358379e-05 614.0668)
(-4.4728927e-05 2.3557676e-05 614.06658)
(0.00031280948 -0.00082124735 614.06321)
(0.00053551486 0.00077559458 614.06338)
(0.0022944078 0.0004586641 614.06352)
(0.0031793436 -0.00020505578 614.06434)
(0.0024701237 0.00055557169 614.06507)
(0.0033120424 0.00097656952 614.06604)
(0.001999832 0.00065204693 614.06692)
(-7.335838e-05 -0.00011450623 614.0668)
(0.00016133011 0.00016133011 614.06649)
(0.0002942435 0.00028119637 614.06675)
(0.001100512 -0.00052426821 614.06297)
(0.0019100055 0.00026343427 614.06353)
(0.0020241591 0.00039205889 614.06377)
(0.0030153234 8.3268458e-05 614.06449)
(0.0029253295 0.00028271206 614.06528)
(0.0032324235 0.00038673901 614.06624)
(0.0013526301 0.0002296328 614.06694)
(2.3557669e-05 -4.4728926e-05 614.06658)
(0.00028119638 0.0002942435 614.06675)
(3.5181917e-05 3.5181917e-05 614.06672)
(0.00056320638 0.00056320638 619.38055)
(0.00024750954 -0.00045220938 619.38066)
(0.0022949363 0.0008911542 619.38062)
(0.0012689219 -8.2295861e-05 619.38129)
(-0.0029863615 -0.00023859505 619.38126)
(-0.0016610333 -2.0780579e-05 619.38141)
(-0.00041403157 0.00017985478 619.38178)
(-0.0001057117 5.4294667e-05 619.38198)
(-0.00088238474 0.00037386253 619.3821)
(-0.00059514565 0.0012865067 619.3819)
(-0.00045220938 0.00024750955 619.38066)
(0.00073943128 0.00073943128 619.38053)
(0.0028498065 0.0017222837 619.38081)
(-0.00042570192 -0.00020020713 619.38124)
(-0.0028940886 -0.00028071948 619.3812)
(-0.0010333586 0.00051329836 619.38148)
(-0.0003014187 0.0012406497 619.38195)
(0.00018529993 0.00081923441 619.38205)
(0.00096593327 0.00071450163 619.38229)
(0.00031749849 0.0023250636 619.38246)
(0.00089115419 0.0022949363 619.38062)
(0.0017222837 0.0028498065 619.38081)
(0.0013552978 0.0013552978 619.38093)
(-0.00073408119 0.00090298983 619.38131)
(-0.002272856 0.0013835409 619.38135)
(-0.00013966411 0.0024023209 619.38177)
(-0.00010809552 0.0034874538 619.38237)
(-0.00063185978 0.00362787 619.3824)
(0.00062344447 0.0028094354 619.38249)
(0.00047856235 0.0025333984 619.38276)
(-8.2295861e-05 0.001268922 619.38129)
(-0.00020020713 -0.00042570191 619.38124)
(0.00090298983 -0.00073408119 619.38131)
(-0.00039745887 -0.00039745887 619.38173)
(-0.0013947574 0.00035587828 619.38187)
(0.0010705543 0.0014252724 619.38244)
(0.00092413034 0.0027036137 619.38323)
(-0.00049271846 0.0037161015 619.38334)
(-0.0001285383 0.0039957125 619.38337)
(0.00013347387 0.0038049079 619.38352)
(-0.00023859505 -0.0029863615 619.38126)
(-0.00028071949 -0.0028940886 619.3812)
(0.0013835409 -0.002272856 619.38135)
(0.00035587828 -0.0013947574 619.38187)
(-0.00045012468 -0.00045012468 619.38212)
(0.0022080713 0.00052374417 619.38284)
(0.0021827335 0.0015601492 619.38379)
(0.00066023902 0.0025684833 619.38405)
(0.00071225088 0.0033660935 619.38417)
(0.00035135927 0.0038445103 619.38438)
(-2.0780581e-05 -0.0016610333 619.38141)
(0.00051329836 -0.0010333586 619.38148)
(0.0024023209 -0.00013966411 619.38177)
(0.0014252724 0.0010705543 619.38244)
(0.00052374417 0.0022080713 619.38284)
(0.0030808282 0.0030808282 619.38368)
(0.0029688695 0.0037240239 619.38472)
(0.0013132258 0.0041358741 619.38506)
(0.0011474887 0.0042775247 619.38522)
(0.00045241838 0.0041033692 619.38542)
(0.00017985478 -0.00041403158 619.38178)
(0.0012406497 -0.00030141871 619.38195)
(0.0034874537 -0.00010809552 619.38237)
(0.0027036137 0.00092413034 619.38323)
(0.0015601492 0.0021827335 619.38379)
(0.0037240239 0.0029688695 619.38472)
(0.0032377794 0.0032377794 619.3858)
(0.0012137397 0.003019305 619.3861)
(0.00067974606 0.0024065936 619.38616)
(0.00023525566 0.001542884 619.38617)
(5.4294666e-05 -0.00010571171 619.38198)
(0.00081923441 0.00018529993 619.38205)
(0.00362787 -0.00063185977 619.3824)
(0.0037161015 -0.00049271845 619.38334)
(0.0025684833 0.00066023903 619.38405)
(0.0041358741 0.0013132258 619.38506)
(0.003019305 0.0012137397 619.3861)
(0.00048204004 0.00048204004 619.38626)
(-0.00032893229 -0.00028098691 619.38608)
(-0.00012338801 -7.2079799e-05 619.38584)
(0.00037386254 -0.00088238475 619.3821)
(0.00071450164 0.00096593327 619.38229)
(0.0028094354 0.00062344447 619.38249)
(0.0039957125 -0.00012853831 619.38337)
(0.0033660935 0.00071225088 619.38417)
(0.0042775247 0.0011474887 619.38522)
(0.0024065936 0.00067974606 619.38616)
(-0.00028098692 -0.00032893229 619.38608)
(0.00012562622 0.00012562621 619.38577)
(0.00037452707 0.00034332028 619.386)
(0.0012865067 -0.00059514565 619.3819)
(0.0023250636 0.00031749849 619.38246)
(0.0025333984 0.00047856235 619.38276)
(0.0038049079 0.00013347386 619.38352)
(0.0038445103 0.00035135927 619.38438)
(0.0041033692 0.00045241838 619.38542)
(0.001542884 0.00023525566 619.38617)
(-7.2079807e-05 -0.00012338801 619.38584)
(0.00034332028 0.00037452707 619.386)
(2.1741366e-05 2.1741365e-05 619.38596)
(0.00060418046 0.00060418046 625.50265)
(0.00030340681 -0.00049078576 625.50278)
(0.0026347218 0.00095548162 625.5028)
(0.0016253525 -9.4736584e-05 625.50349)
(-0.0028697673 -0.00025133164 625.50356)
(-0.0013461888 6.1922451e-06 625.50381)
(-8.4501511e-05 0.00023978168 625.50427)
(8.5903579e-05 8.2748286e-05 625.50454)
(-0.0008978987 0.00044262065 625.5047)
(-0.00065309944 0.0014734225 625.50454)
(-0.00049078576 0.00030340681 625.50278)
(0.00083035856 0.00083035856 625.50268)
(0.0032287956 0.0018952369 625.50299)
(-0.00018486739 -0.00016692978 625.50347)
(-0.0027183741 -0.00021275406 625.50354)
(-0.00060951877 0.00071217695 625.50391)
(3.033255e-05 0.0015535293 625.50446)
(0.00039016203 0.0010460413 625.50463)
(0.0011881126 0.00092998026 625.50491)
(0.00037770238 0.0027632815 625.5051)
(0.00095548163 0.0026347218 625.5028)
(0.0018952369 0.0032287956 625.50299)
(0.0016374335 0.0016374335 625.50316)
(-0.00048263844 0.0011788774 625.5036)
(-0.0019906606 0.0017446949 625.50373)
(0.00042009461 0.0029111782 625.50424)
(0.00024936285 0.0041491546 625.50492)
(-0.00053764546 0.0042916596 625.50502)
(0.00081934147 0.0033674851 625.50515)
(0.00056910137 0.0030841376 625.50543)