/*--------------------------------*- C++ -*----------------------------------*\
| =========                 |                                                 |
| \\      /  F ield         | OpenFOAM: The Open Source CFD Toolbox           |
|  \\    /   O peration     | Version:  v2106                                 |
|   \\  /    A nd           | Website:  www.openfoam.com                      |
|    \\/     M anipulation  |                                                 |
\*---------------------------------------------------------------------------*/
FoamFile
{
    version     2.0;
    format      ascii;
    arch        "LSB;label=32;scalar=64";
    class       volScalarField;
    location    "15";
    object      laplacianT;
}
// * * * * * * * * * * * * * * * * * * * * * * * * * * * * * * * * * * * * * //

dimensions      [0 -2 0 1 0 0 0];

internalField   nonuniform List<scalar> 
4000
(
45.825308
45.895393
46.346638
45.741995
45.921096
45.981522
45.987635
45.97912
45.975206
45.981259
45.895393
46.527613
46.059505
45.882681
46.080875
46.129871
46.122834
46.105263
46.095461
46.044716
46.346638
46.059505
46.117911
45.924277
46.099918
46.139448
46.129362
46.121743
46.14801
46.089843
45.741995
45.882681
45.924277
45.713367
45.880101
45.913595
45.893478
45.874093
45.918811
45.956036
45.921096
46.080875
46.099918
45.880102
46.044256
46.076807
46.052131
46.01665
46.028733
46.021408
45.981522
46.129871
46.139448
45.913595
46.076807
46.110525
46.086921
46.051161
46.059495
46.040446
45.987635
46.122834
46.129362
45.893478
46.052131
46.086921
46.064335
46.029528
46.038886
46.020512
45.97912
46.105263
46.121743
45.874093
46.01665
46.051161
46.029528
45.995765
46.007027
45.994052
45.975206
46.095461
46.14801
45.918811
46.028733
46.059495
46.038886
46.007027
46.022455
46.01942
45.981259
46.044716
46.089843
45.956036
46.021408
46.040446
46.020512
45.994052
46.01942
46.024077
137.66233
137.59536
138.30845
137.28306
137.65496
137.77975
137.78482
137.76092
137.76689
137.81605
137.59536
138.26083
137.66501
137.37201
137.76256
137.85473
137.82969
137.79153
137.74696
137.64043
138.30845
137.66501
137.8649
137.5311
137.87689
137.94809
137.9156
137.91883
137.98262
137.8461
137.28306
137.37201
137.5311
137.16618
137.49545
137.55194
137.49093
137.46508
137.58029
137.65129
137.65496
137.76256
137.87689
137.49545
137.82053
137.87479
137.80073
137.7339
137.7757
137.75497
137.77975
137.85473
137.94809
137.55194
137.87479
137.93186
137.85973
137.79037
137.82047
137.76971
137.78482
137.82969
137.9156
137.49093
137.80073
137.85973
137.78996
137.72277
137.75517
137.71049
137.76092
137.79153
137.91883
137.46508
137.7339
137.79037
137.72277
137.65899
137.69874
137.6808
137.76689
137.74696
137.98262
137.58029
137.7757
137.82047
137.75517
137.69874
137.75632
137.77074
137.81605
137.64043
137.8461
137.65129
137.75497
137.76971
137.71049
137.6808
137.77074
137.72961
228.82768
228.39329
229.20634
228.0344
228.55099
228.71371
228.70446
228.65953
228.64865
228.87017
228.39329
229.17396
228.44937
228.16344
228.69086
228.80028
228.75238
228.73106
228.58827
228.43462
229.20634
228.44937
228.65983
228.31604
228.78283
228.85691
228.78618
228.84648
228.92848
228.7549
228.0344
228.16344
228.31604
227.9324
228.37802
228.42922
228.30618
228.30791
228.45152
228.54086
228.55099
228.69086
228.78283
228.37802
228.8193
228.86798
228.7247
228.66432
228.702
228.66197
228.71371
228.80028
228.85691
228.42922
228.86798
228.92107
228.78026
228.7149
228.73367
228.65147
228.70446
228.75238
228.78618
228.30618
228.7247
228.78026
228.64288
228.58097
228.60441
228.54483
228.65953
228.73106
228.84648
228.30791
228.66432
228.7149
228.58097
228.52665
228.5687
228.57674
228.64865
228.58827
228.92848
228.45152
228.702
228.73367
228.60441
228.5687
228.65553
228.6811
228.87017
228.43462
228.7549
228.54086
228.66197
228.65147
228.54483
228.57674
228.6811
228.63425
318.41568
317.81668
318.80265
317.45405
318.08667
318.27712
318.25246
318.20141
318.13417
318.47903
317.81668
318.69833
317.9091
317.59239
318.23016
318.34306
318.26637
318.3113
318.09282
317.89202
318.80265
317.9091
318.19075
317.80463
318.36907
318.43263
318.31038
318.46099
318.54899
318.29537
317.45405
317.59239
317.80463
317.37208
317.91186
317.9458
317.74979
317.8193
317.98774
318.05303
318.08667
318.23016
318.36907
317.91186
318.4473
318.47837
318.25474
318.24237
318.2767
318.18343
318.27712
318.34306
318.43263
317.9458
318.47837
318.51515
318.29398
318.27359
318.28187
318.1389
318.25246
318.26637
318.31038
317.74979
318.25474
318.29398
318.07676
318.06091
318.07739
317.98264
318.20141
318.3113
318.46099
317.8193
318.24237
318.27359
318.06091
318.05899
318.1127
318.14227
318.13417
318.09282
318.54899
317.98774
318.2767
318.28187
318.07739
318.1127
318.25087
318.157
318.47903
317.89202
318.29537
318.05303
318.18343
318.1389
317.98264
318.14227
318.157
318.15707
405.95148
405.29605
406.43501
404.90152
405.63693
405.84744
405.80226
405.76286
405.68145
406.13605
405.29605
406.31797
405.4537
405.09273
405.82822
405.93414
405.8115
405.92438
405.65571
405.41875
406.43501
405.4537
405.79271
405.35286
406.00408
406.0488
405.86033
406.10621
406.21801
405.89616
404.90152
405.09273
405.35286
404.86083
405.48431
405.49314
405.21037
405.35614
405.56984
405.62241
405.63693
405.82822
406.00408
405.48431
406.1035
406.10902
405.79111
405.836
405.88945
405.75721
405.84744
405.93414
406.0488
405.49314
406.10902
406.12131
405.80537
405.83869
405.8588
405.67146
405.80226
405.8115
405.86033
405.21037
405.79111
405.80537
405.4933
405.5319
405.56478
405.45939
405.76286
405.92438
406.10621
405.35614
405.836
405.83869
405.5319
405.593
405.6919
405.79421
405.68145
405.65571
406.21801
405.56984
405.88945
405.8588
405.56478
405.6919
405.94483
405.6906
406.13605
405.41875
405.89616
405.62241
405.75721
405.67146
405.45939
405.79421
405.6906
405.73994
491.07299
490.36595
491.63914
489.92364
490.75386
490.979
490.90429
490.8665
490.77338
491.32239
490.36595
491.51625
490.57195
490.16332
490.98938
491.08417
490.90627
491.07517
490.75551
490.47856
491.63914
490.57195
490.95724
490.46124
491.19292
491.2155
490.95287
491.28424
491.41555
491.02503
489.92364
490.16332
490.46124
489.90782
490.6089
490.58952
490.21257
490.42661
490.68149
490.71982
490.75386
490.98938
491.19292
490.6089
491.30575
491.28256
490.86291
490.95766
491.02732
490.85628
490.979
491.08417
491.2155
490.58952
491.28256
491.26699
490.84844
490.92757
490.95611
490.72505
490.90429
490.90627
490.95287
490.21257
490.86291
490.84844
490.43298
490.5171
490.56209
490.44955
490.8665
491.07517
491.28424
490.42661
490.95766
490.92757
490.5171
490.6316
490.77469
490.97263
490.77338
490.75551
491.41555
490.68149
491.02732
490.95611
490.56209
490.77469
491.16296
490.74801
491.32239
490.47856
491.02503
490.71982
490.85628
490.72505
490.44955
490.97263
490.74801
490.84848
573.22729
572.46742
573.86309
571.97408
572.89327
573.1309
573.0244
572.9839
572.87914
573.51596
572.46742
573.73399
572.71212
572.25672
573.16785
573.25043
573.01572
573.23546
572.86579
572.5496
573.86309
572.71212
573.13844
572.58784
573.39508
573.39493
573.05724
573.46894
573.61774
573.16109
571.97408
572.25672
572.58784
571.97498
572.74896
572.70099
572.22955
572.50775
572.80115
572.82574
572.89327
573.16785
573.39508
572.74896
573.5188
573.4665
572.94489
573.08609
573.17037
572.96242
573.1309
573.25043
573.39493
572.70099
573.4665
573.42256
572.90101
573.02232
573.05753
572.78474
573.0244
573.01572
573.05724
572.22955
572.94489
572.90101
572.38143
572.50676
572.56108
572.44298
572.9839
573.23546
573.46894
572.50775
573.08609
573.02232
572.50676
572.6692
572.85299
573.15466
572.87914
572.86579
573.61774
572.80115
573.17037
573.05753
572.56108
572.85299
573.38008
572.81123
573.51596
572.5496
573.16109
572.82574
572.96242
572.78474
572.44298
573.15466
572.81123
572.96526
651.89339
651.08311
652.59184
650.54041
651.54291
651.79157
651.6534
651.60912
651.4932
652.21383
651.08311
652.45653
651.36264
650.86293
651.85361
651.92357
651.63296
651.90099
651.48344
651.13046
652.59184
651.36264
651.82676
651.22462
652.10254
652.07972
651.66848
652.15705
652.32218
651.80301
650.54041
650.86293
651.22462
650.55579
651.39799
651.32176
650.75805
651.09784
651.42773
651.43944
651.54291
651.85361
652.10254
651.39799
652.23614
652.15508
651.534
651.71985
651.81795
651.57536
651.79157
651.92357
652.07972
651.32176
652.15508
652.08305
651.46091
651.62262
651.6638
651.35178
651.6534
651.63296
651.66848
650.75805
651.534
651.46091
650.83949
651.00397
651.0664
650.94409
651.60912
651.90099
652.15705
651.09784
651.71985
651.62262
651.00397
651.21161
651.4336
651.84057
651.4932
651.48344
652.32218
651.42773
651.81795
651.6638
651.0664
651.4336
652.09743
651.38103
652.21383
651.13046
651.80301
651.43944
651.57536
651.35178
650.94409
651.84057
651.38103
651.58986
726.58533
725.72903
727.34152
725.14015
726.21987
726.47814
726.30909
726.26096
726.13453
726.93479
725.72903
727.20055
726.04125
725.50026
726.56454
726.62156
726.27678
726.59114
726.12817
725.74096
727.34152
726.04125
726.54026
725.89025
726.83357
726.78832
726.30595
726.86811
727.04848
726.47041
725.14015
725.50026
725.89025
725.16951
726.07486
725.97093
725.31828
725.71729
726.08155
726.08081
726.21987
726.56454
726.83357
726.07486
726.9763
726.86705
726.15015
726.37922
726.49039
726.21511
726.47814
726.62156
726.78832
725.97093
726.86705
726.76746
726.04836
726.24915
726.29581
725.94684
726.30909
726.27678
726.30595
725.31828
726.15015
726.04836
725.32868
725.53088
725.60065
725.47507
726.26096
726.59114
726.86811
725.71729
726.37922
726.24915
725.53088
725.78183
726.04
726.55083
726.13453
726.12817
727.04848
726.08155
726.49039
726.29581
725.60065
726.04
726.83654
725.97817
726.93479
725.74096
726.47041
726.08081
726.21511
725.94684
725.47507
726.55083
725.97817
726.2416
796.84465
795.94747
797.65388
795.31601
796.4664
796.73274
796.53385
796.48209
796.34588
797.22098
795.94747
797.50805
796.29044
795.71149
796.84289
796.88668
796.48984
796.84851
796.34289
795.92396
797.65388
796.29044
796.8213
796.12739
797.13038
797.063
796.51244
797.14469
797.33913
796.70583
795.31601
795.71149
796.12739
795.35913
796.32214
796.19118
795.45356
795.90928
796.30561
796.29257
796.4664
796.84289
797.13038
796.32214
797.28139
797.14467
796.3363
796.60711
796.73059
796.42444
796.73274
796.88668
797.063
796.19118
797.14467
797.01817
796.20649
796.44501
796.49677
796.11307
796.53385
796.48984
796.51244
795.45356
796.3363
796.20649
795.3929
795.63144
795.70795
795.57989
796.48209
796.84851
797.14469
795.90928
796.60711
796.44501
795.63144
795.92396
796.21646
796.82827
796.34588
796.34289
797.33913
796.30561
796.73059
796.49677
795.70795
796.21646
797.14071
796.14596
797.22098
795.92396
796.70583
796.29257
796.42444
796.11307
795.57989
796.82827
796.14596
796.46286
862.23958
861.307
863.09689
860.63683
861.85085
862.12363
861.89612
861.84102
861.69582
862.64046
861.307
862.94709
861.67863
861.06524
862.25685
862.28714
861.84065
862.24144
861.69622
861.24815
863.09689
861.67863
862.23809
861.50451
862.56103
862.47195
861.85655
862.55499
862.76228
862.07766
860.63683
861.06524
861.50451
860.69343
861.7082
861.55102
860.73292
861.24254
861.66848
861.64327
861.85085
862.25685
862.56103
861.7082
862.7194
862.55605
861.66113
861.972
862.107
861.77188
862.12363
862.28714
862.47195
861.55102
862.55605
862.40342
861.5041
861.77889
861.83537
861.4193
861.89612
861.84065
861.85655
860.73292
861.66113
861.5041
860.60157
860.87496
860.95767
860.82789
861.84102
862.24144
862.55499
861.24254
861.972
861.77889
860.87496
861.20721
861.53213
862.24121
861.69582
861.69622
862.76228
861.66848
862.107
861.83537
860.95767
861.53213
862.57837
861.45339
862.64046
861.24815
862.07766
861.64327
861.77188
861.4193
860.82789
862.24121
861.45339
861.82198
922.36704
921.40477
923.26718
920.69997
921.97018
922.24773
921.99297
921.93486
921.78154
922.78995
921.40477
923.11433
921.80278
921.15869
922.40321
922.41979
921.92638
922.36682
921.78532
921.31086
923.26718
921.80278
922.3874
921.61863
922.7222
922.61195
921.93546
922.69583
922.91467
922.18292
920.69997
921.15869
921.61863
920.76967
921.82999
921.64753
920.75393
921.31434
921.76728
921.73004
921.97018
922.40321
922.7222
921.82999
922.88694
922.69793
921.72193
922.07096
922.21664
921.8546
922.24773
922.41979
922.61195
921.64753
922.69793
922.5201
921.53864
921.848
921.90884
921.46294
921.99297
921.92638
921.93546
920.75393
921.72193
921.53864
920.55267
920.85923
920.94761
920.81689
921.93486
922.36682
922.69583
921.31434
922.07096
921.848
920.85923
921.22916
921.58449
922.38652
921.78154
921.78532
922.91467
921.76728
922.21664
921.90884
920.94761
921.58449
922.7463
921.49795
922.78995
921.31086
922.18292
921.73004
921.8546
921.46294
920.81689
922.38652
921.49795
921.91605
976.85516
975.8691
977.7926
975.13395
976.45256
976.73316
976.4527
976.39192
976.23142
977.29743
975.8691
977.63762
976.29102
975.62015
976.90994
976.91271
976.37538
976.85277
976.23854
975.74061
977.7926
976.29102
976.89722
976.09794
977.24179
977.11102
976.37756
977.19521
977.42427
976.64986
975.13395
975.62015
976.09794
975.21629
976.31565
976.10901
975.14537
975.75313
976.23029
976.18127
976.45256
976.90994
977.24179
976.31565
977.41185
977.19834
976.14721
976.53227
976.68773
976.30099
976.73316
976.91271
977.11102
976.10901
977.19834
976.99638
975.93876
976.28081
976.34564
975.87264
976.4527
976.37538
976.37756
975.14537
976.14721
975.93876
974.87537
975.21323
975.30674
975.17588
976.39192
976.85277
977.19521
975.75313
976.53227
976.28081
975.21323
975.61859
976.00215
976.89223
976.23142
976.23854
977.42427
976.23029
976.68773
976.34564
975.30674
976.00215
977.27242
975.90833
977.29743
975.74061
976.64986
976.18127
976.30099
975.87264
975.17588
976.89223
975.90833
976.37338
1025.3656
1024.3618
1026.3346
1023.6008
1024.9597
1025.2416
1024.9372
1024.8741
1024.7074
1025.8245
1024.3618
1026.1784
1024.8051
1024.1115
1025.4386
1025.4276
1024.8496
1025.361
1024.7178
1024.1994
1026.3346
1024.8051
1025.4291
1024.6042
1025.7813
1025.6308
1024.8448
1025.7148
1025.9526
1025.1403
1023.6008
1024.1115
1024.6042
1023.6953
1024.8269
1024.5973
1023.5695
1024.2209
1024.7194
1024.6589
1024.9597
1025.4386
1025.7813
1024.8269
1025.9556
1025.7189
1024.5991
1025.0178
1025.1821
1024.773
1025.2416
1025.4276
1025.6308
1024.5973
1025.7189
1025.494
1024.3667
1024.7394
1024.8078
1024.3106
1024.9372
1024.8496
1024.8448
1023.5695
1024.5991
1024.3667
1023.2324
1023.5995
1023.6976
1023.5674
1024.8741
1025.361
1025.7148
1024.2209
1025.0178
1024.7394
1023.5995
1024.0378
1024.4472
1025.42
1024.7074
1024.7178
1025.9526
1024.7194
1025.1821
1024.8078
1023.6976
1024.4472
1025.8182
1024.3467
1025.8245
1024.1994
1025.1403
1024.6589
1024.773
1024.3106
1023.5674
1025.42
1024.3467
1024.8559
1067.5959
1066.5805
1068.5904
1065.7983
1067.1891
1067.4706
1067.144
1067.079
1066.9071
1068.0685
1066.5805
1068.434
1067.0423
1066.3303
1067.6866
1067.6618
1067.0467
1067.589
1066.9208
1066.3852
1068.5904
1067.0423
1067.6803
1066.8349
1068.038
1067.8687
1067.035
1067.9519
1068.1971
1067.3519
1065.7983
1066.3303
1066.8349
1065.9042
1067.0612
1066.8101
1065.7244
1066.4155
1066.9322
1066.8606
1067.1891
1067.6866
1068.038
1067.0612
1068.2155
1067.957
1066.7753
1067.2252
1067.3973
1066.9684
1067.4706
1067.6618
1067.8687
1066.8101
1067.957
1067.7106
1066.5204
1066.9214
1066.993
1066.4747
1067.144
1067.0467
1067.035
1065.7244
1066.7753
1066.5204
1065.3221
1065.7162
1065.8183
1065.6896
1067.079
1067.589
1067.9519
1066.4155
1067.2252
1066.9214
1065.7162
1066.1848
1066.6177
1067.6671
1066.9071
1066.9208
1068.1971
1066.9322
1067.3973
1066.993
1065.8183
1066.6177
1068.081
1066.511
1068.0685
1066.3852
1067.3519
1066.8606
1066.9684
1066.4747
1065.6896
1067.6671
1066.511
1067.0613
1103.2811
1102.2603
1104.295
1101.4617
1102.8759
1103.1553
1102.8085
1102.742
1102.566
1103.7645
1102.2603
1104.1394
1102.7379
1102.0118
1103.389
1103.3504
1102.702
1103.2719
1102.5827
1102.0332
1104.295
1102.7379
1103.386
1102.5252
1103.7469
1103.5598
1102.6835
1103.6418
1103.8928
1103.0198
1101.4617
1102.0118
1102.5252
1101.5785
1102.7537
1102.4825
1101.3456
1102.0721
1102.6039
1102.5216
1102.8759
1103.389
1103.7469
1102.7537
1103.9265
1103.6478
1102.4114
1102.8896
1103.0686
1102.6225
1103.1553
1103.3504
1103.5598
1102.4825
1103.6478
1103.3813
1102.1356
1102.5625
1102.6368
1102.1005
1102.8085
1102.702
1102.6835
1101.3456
1102.4114
1102.1356
1100.8806
1101.2993
1101.4047
1101.2783
1102.742
1103.2719
1103.6418
1102.0721
1102.8896
1102.5625
1101.2993
1101.7954
1102.2489
1103.3686
1102.566
1102.5827
1103.8928
1102.6039
1103.0686
1102.6368
1101.4047
1102.2489
1103.7956
1102.1369
1103.7645
1102.0332
1103.0198
1102.5216
1102.6225
1102.1005
1101.2783
1103.3686
1102.1369
1102.7248
1132.1957
1131.1759
1133.2229
1130.3658
1131.7947
1132.0702
1131.7054
1131.6378
1131.4587
1132.687
1131.1759
1133.0689
1131.6663
1130.9306
1132.3202
1132.2682
1131.5903
1132.1844
1131.4785
1130.9184
1133.2229
1131.6663
1132.3205
1131.4496
1132.6824
1132.4786
1131.5651
1132.5588
1132.8142
1131.9189
1130.3658
1130.9306
1131.4496
1130.4927
1131.6789
1131.3894
1130.2082
1130.9657
1131.5093
1131.4168
1131.7947
1132.3202
1132.6824
1131.6789
1132.8629
1132.5657
1131.2823
1131.786
1131.9706
1131.5101
1132.0702
1132.2682
1132.4786
1131.3894
1132.5657
1132.2808
1130.9872
1131.4374
1131.514
1130.9631
1131.7054
1131.5903
1131.5651
1130.2082
1131.2823
1130.9872
1129.6833
1130.124
1130.2321
1130.1087
1131.6378
1132.1844
1132.5588
1130.9657
1131.786
1131.4374
1130.124
1130.6444
1131.116
1132.2991
1131.4587
1131.4785
1132.8142
1131.5093
1131.9706
1131.514
1130.2321
1131.116
1132.7366
1130.9991
1132.687
1130.9184
1131.9189
1131.4168
1131.5101
1130.9631
1130.1087
1132.2991
1130.9991
1131.6211
1154.1555
1153.1429
1155.1895
1152.3262
1153.7611
1154.0309
1153.6503
1153.582
1153.401
1154.6515
1153.1429
1155.0382
1153.643
1152.9023
1154.2956
1154.2305
1153.5274
1154.1419
1153.4237
1152.8565
1155.1895
1153.643
1154.2993
1153.4236
1154.66
1154.4408
1153.4956
1154.5187
1154.7768
1153.8646
1152.3262
1152.9023
1153.4236
1152.4625
1153.6523
1153.3462
1152.128
1152.9118
1153.4639
1153.3618
1153.7611
1154.2956
1154.66
1153.6523
1154.8403
1154.5264
1153.2038
1153.7299
1153.919
1153.4469
1154.0309
1154.2305
1154.4408
1153.3462
1154.5264
1154.2248
1152.8913
1153.362
1153.4404
1152.8782
1153.6503
1153.5274
1153.4956
1152.128
1153.2038
1152.8913
1151.5463
1152.0064
1152.1165
1151.997
1153.582
1154.1419
1154.5187
1152.9118
1153.7299
1153.362
1152.0064
1152.548
1153.0346
1154.274
1153.401
1153.4237
1154.7768
1153.4639
1153.919
1153.4404
1152.1165
1153.0346
1154.7193
1152.9138
1154.6515
1152.8565
1153.8646
1153.3618
1153.4469
1152.8782
1151.997
1154.274
1152.9138
1153.5661
1169.0181
1168.0189
1170.0526
1167.2008
1168.6327
1168.8953
1168.5012
1168.4326
1168.2508
1169.5158
1168.0189
1169.9049
1168.5258
1167.7845
1169.1731
1169.0952
1168.3712
1169.0024
1168.2762
1167.7054
1170.0526
1168.5258
1169.1801
1168.3051
1169.5373
1169.304
1168.333
1169.3792
1169.6385
1168.715
1167.2008
1167.7845
1168.3051
1167.3455
1168.5317
1168.2109
1166.9631
1167.7685
1168.3257
1168.2146
1168.6327
1169.1731
1169.5373
1168.5317
1169.7164
1169.3877
1168.034
1168.5792
1168.7718
1168.2909
1168.8953
1169.0952
1169.304
1168.2109
1169.3877
1169.0712
1167.7059
1168.1942
1168.274
1167.704
1168.5012
1168.3712
1168.333
1166.9631
1168.034
1167.7059
1166.3282
1166.8049
1166.9163
1166.8014
1168.4326
1169.0024
1169.3792
1167.7685
1168.5792
1168.1942
1166.8049
1167.3644
1167.863
1169.1511
1168.2508
1168.2762
1169.6385
1168.3257
1168.7718
1168.274
1166.9163
1167.863
1169.6013
1167.7389
1169.5158
1167.7054
1168.715
1168.2146
1168.2909
1167.704
1166.8014
1169.1511
1167.7389
1168.4175
1176.6847
1175.7052
1177.7133
1174.8906
1176.3107
1176.5644
1176.1593
1176.0908
1175.9093
1177.1811
1175.7052
1177.57
1176.2156
1175.4784
1176.8536
1176.7634
1176.0229
1176.667
1175.9373
1175.3664
1177.7133
1176.2156
1176.8639
1175.9949
1177.2154
1176.9694
1175.9786
1177.0415
1177.3003
1176.3712
1174.8906
1175.4784
1175.9949
1175.0429
1176.2181
1175.8845
1174.6148
1175.4368
1175.9956
1175.8763
1176.3107
1176.8536
1177.2154
1176.2181
1177.3921
1177.0506
1175.6742
1176.2352
1176.43
1175.9434
1176.5644
1176.7634
1176.9694
1175.8845
1177.0506
1176.7213
1175.3325
1175.8355
1175.9162
1175.3418
1176.1593
1176.0229
1175.9786
1174.6148
1175.6742
1175.3325
1173.9306
1174.4208
1174.533
1174.4233
1176.0908
1176.667
1177.0415
1175.4368
1176.2352
1175.8355
1174.4208
1174.9948
1175.5025
1176.8313
1175.9093
1175.9373
1177.3003
1175.9956
1176.43
1175.9162
1174.533
1175.5025
1177.2838
1175.3759
1177.1811
1175.3664
1176.3712
1175.8763
1175.9434
1175.3418
1174.4233
1176.8313
1175.3759
1176.0766
1177.1005
1176.1466
1178.1168
1175.3406
1176.7401
1176.9834
1176.5697
1176.5018
1176.3217
1177.5924
1176.1466
1177.9789
1176.6575
1175.9289
1177.2822
1177.1803
1176.4279
1177.0808
1176.3521
1175.7846
1178.1168
1176.6575
1177.2957
1176.4382
1177.6394
1177.3823
1176.3777
1177.4507
1177.7074
1176.7785
1175.3406
1175.9289
1176.4382
1175.4996
1176.6565
1176.3122
1175.0285
1175.862
1176.419
1176.2921
1176.7401
1177.2822
1177.6394
1176.6565
1177.8126
1177.4605
1176.0697
1176.6432
1176.8389
1176.3496
1176.9834
1177.1803
1177.3823
1176.3122
1177.4605
1177.1202
1175.7166
1176.2312
1176.3122
1175.7371
1176.5697
1176.4279
1176.3777
1175.0285
1176.0697
1175.7166
1174.2991
1174.7999
1174.912
1174.8084
1176.5018
1177.0808
1177.4507
1175.862
1176.6432
1176.2312
1174.7999
1175.3848
1175.8984
1177.2597
1176.3217
1176.3521
1177.7074
1176.419
1176.8389
1176.3122
1174.912
1175.8984
1177.7118
1175.77
1177.5924
1175.7846
1176.7785
1176.2921
1176.3496
1175.7371
1174.8084
1177.2597
1175.77
1176.4886
1170.2553
1169.333
1171.253
1168.5405
1169.9108
1170.1421
1169.7224
1169.6555
1169.4779
1170.7397
1169.333
1171.1213
1169.8411
1169.1256
1170.4487
1170.3357
1169.576
1170.2337
1169.5106
1168.95
1171.253
1169.8411
1170.4654
1169.6246
1170.7991
1170.5324
1169.5202
1170.5967
1170.8498
1169.9268
1168.5405
1169.1256
1169.6246
1168.7052
1169.8367
1169.4838
1168.1939
1169.0339
1169.5856
1169.4519
1169.9108
1170.4487
1170.7991
1169.8367
1170.9678
1170.6071
1169.2106
1169.7929
1169.9884
1169.4994
1170.1421
1170.3357
1170.5324
1169.4838
1170.6071
1170.258
1168.8482
1169.3712
1169.452
1168.8797
1169.7224
1169.576
1169.5202
1168.1939
1169.2106
1168.8482
1167.4237
1167.9321
1168.0435
1167.9465
1169.6555
1170.2337
1170.5967
1169.0339
1169.7929
1169.3712
1167.9321
1168.5243
1169.0407
1170.4262
1169.4779
1169.5106
1170.8498
1169.5856
1169.9884
1169.452
1168.0435
1169.0407
1170.8749
1168.9113
1170.7397
1168.95
1169.9268
1169.4519
1169.4994
1168.8797
1167.9465
1170.4262
1168.9113
1169.6433
1156.1836
1155.2987
1157.1567
1154.5247
1155.8573
1156.0751
1155.652
1155.5865
1155.4125
1156.6576
1155.2987
1157.0321
1155.8009
1155.103
1156.3877
1156.2643
1155.5019
1156.1605
1155.4473
1154.8971
1157.1567
1155.8009
1156.4074
1155.5886
1156.7291
1156.4544
1155.4408
1156.5142
1156.7622
1155.8507
1154.5247
1155.103
1155.5886
1154.6941
1155.7932
1155.4338
1154.1457
1154.9869
1155.53
1155.3903
1155.8573
1156.3877
1156.7291
1155.7932
1156.8921
1156.5252
1155.1316
1155.7191
1155.9133
1155.4275
1156.0751
1156.2643
1156.4544
1155.4338
1156.5252
1156.1694
1154.7621
1155.2903
1155.3704
1154.8045
1155.652
1155.5019
1155.4408
1154.1457
1155.1316
1154.7621
1153.3395
1153.8522
1153.9623
1153.8725
1155.5865
1156.1605
1156.5142
1154.9869
1155.7191
1155.2903
1153.8522
1154.4481
1154.9641
1156.3653
1155.4125
1155.4473
1156.7622
1155.53
1155.9133
1155.3704
1153.9623
1154.9641
1156.8079
1154.8346
1156.6576
1154.8971
1155.8507
1155.3903
1155.4275
1154.8045
1153.8725
1156.3653
1154.8346
1155.5755
1134.9651
1134.123
1135.9075
1133.3723
1134.6589
1134.862
1134.438
1134.3743
1134.205
1135.4257
1134.123
1135.7907
1134.6163
1133.9403
1135.1786
1135.0455
1134.2852
1134.9404
1134.2416
1133.7053
1135.9075
1134.6163
1135.2012
1134.4094
1135.5089
1135.2279
1134.2192
1135.2829
1135.5241
1134.6299
1133.3723
1133.9403
1134.4094
1133.5454
1134.6052
1134.2416
1132.9632
1133.8005
1134.3316
1134.1867
1134.6589
1135.1786
1135.5089
1134.6052
1135.6653
1135.2943
1133.9122
1134.5013
1134.6929
1134.2134
1134.862
1135.0455
1135.2279
1134.2416
1135.2943
1134.934
1133.5379
1134.068
1134.147
1133.5909
1134.438
1134.2852
1134.2192
1132.9632
1133.9122
1133.5379
1132.1259
1132.6399
1132.7479
1132.6659
1134.3743
1134.9404
1135.2829
1133.8005
1134.5013
1134.068
1132.6399
1133.2358
1133.7481
1135.1565
1134.205
1134.2416
1135.5241
1134.3316
1134.6929
1134.147
1132.7479
1133.7481
1135.5903
1133.6193
1135.4257
1133.7053
1134.6299
1134.1867
1134.2134
1133.5909
1132.6659
1135.1565
1133.6193
1134.3646
1106.7238
1105.9298
1107.6296
1105.207
1106.4396
1106.6266
1106.2045
1106.143
1105.9794
1107.1682
1105.9298
1107.5213
1106.4111
1105.7611
1106.9453
1106.8033
1106.0498
1106.6978
1106.0177
1105.4984
1107.6296
1106.4111
1106.9707
1106.2108
1107.2624
1106.9769
1105.9793
1107.0267
1107.2597
1106.3882
1105.207
1105.7611
1106.2108
1105.3826
1106.3967
1106.0311
1104.7703
1105.5985
1106.1143
1105.9652
1106.4396
1106.9453
1107.2624
1106.3967
1107.4113
1107.0385
1105.6764
1106.2636
1106.4514
1105.9812
1106.6266
1106.8033
1106.9769
1106.0311
1107.0385
1106.676
1105.2997
1105.8284
1105.9059
1105.3629
1106.2045
1106.0498
1105.9793
1104.7703
1105.6764
1105.2997
1103.9071
1104.4191
1104.5243
1104.4506
1106.143
1106.6978
1107.0267
1105.5985
1106.2636
1105.8284
1104.4191
1105.0114
1105.5169
1106.9236
1105.9794
1106.0177
1107.2597
1106.1143
1106.4514
1105.9059
1104.5243
1105.5169
1107.3459
1105.3895
1107.1682
1105.4984
1106.3882
1105.9652
1105.9812
1105.3629
1104.4506
1106.9236
1105.3895
1106.1345
1071.6275
1070.8865
1072.4911
1070.1961
1071.3672
1071.537
1071.1192
1071.0603
1070.9036
1072.0529
1070.8865
1072.3921
1071.3528
1070.733
1071.8558
1071.7058
1070.9637
1071.6004
1070.9432
1070.4443
1072.4911
1071.3528
1071.8838
1071.1606
1072.1578
1071.8695
1070.8892
1071.9138
1072.1371
1071.2938
1070.1961
1070.733
1071.1606
1070.3734
1071.3353
1070.97
1069.7346
1070.5485
1071.0459
1070.8934
1071.3672
1071.8558
1072.1578
1071.3353
1072.2982
1071.926
1070.5923
1071.1739
1071.3567
1070.8986
1071.537
1071.7058
1071.8695
1070.97
1071.926
1071.5634
1070.2154
1070.7395
1070.8149
1070.2885
1071.1192
1070.9637
1070.8892
1069.7346
1070.5923
1070.2154
1068.8508
1069.3577
1069.4595
1069.3946
1071.0603
1071.6004
1071.9138
1070.5485
1071.1739
1070.7395
1069.3577
1069.9427
1070.4383
1071.8347
1070.9036
1070.9432
1072.1371
1071.0459
1071.3567
1070.8149
1069.4595
1070.4383
1072.2429
1070.3131
1072.0529
1070.4443
1071.2938
1070.8934
1070.8986
1070.2885
1069.3946
1071.8347
1070.3131
1071.0532
1029.8873
1029.204
1030.7034
1028.5503
1029.6525
1029.804
1029.3932
1029.3373
1029.1883
1030.2912
1029.204
1030.6142
1029.6524
1029.0665
1030.121
1029.9639
1029.2378
1029.8592
1029.2291
1028.7536
1030.7034
1029.6524
1030.1514
1029.4693
1030.406
1030.1167
1029.1597
1030.1552
1030.3674
1029.5575
1028.5503
1029.0665
1029.4693
1028.728
1029.6319
1029.2691
1028.0668
1028.8614
1029.3372
1029.1823
1029.6525
1030.121
1030.406
1029.6319
1030.537
1030.1677
1028.8707
1029.4431
1029.6198
1029.1767
1029.804
1029.9639
1030.1167
1029.2691
1030.1677
1029.8074
1028.496
1029.0123
1029.085
1028.5785
1029.3932
1029.2378
1029.1597
1028.0668
1028.8707
1028.496
1027.1678
1027.6665
1027.7643
1027.7085
1029.3373
1029.8592
1030.1552
1028.8614
1029.4431
1029.0123
1027.6665
1028.2405
1028.7231
1030.1006
1029.1883
1029.2291
1030.3674
1029.3372
1029.6198
1029.085
1027.7643
1028.7231
1030.4921
1028.6009
1030.2912
1028.7536
1029.5575
1029.1823
1029.1767
1028.5785
1027.7085
1030.1006
1028.6009
1029.3316
981.756
981.13456
982.5195
980.52167
981.54821
981.68051
981.27923
981.22662
981.08624
982.13583
981.13456
982.44078
981.56244
981.01415
981.99368
981.83048
981.12492
981.7272
981.12797
980.67883
982.5195
981.56244
982.02629
981.38967
982.25992
981.97141
981.04374
982.00391
982.20376
981.43219
980.52167
981.01415
981.38967
980.69883
981.53905
981.18103
980.01921
980.78969
981.24091
981.08459
981.54821
981.99368
982.25992
981.53905
982.38083
982.01658
980.76439
981.32398
981.49352
981.06812
981.68051
981.83048
981.97141
981.18103
982.01658
981.66074
980.39412
980.8994
980.96909
980.48562
981.27923
981.12492
981.04374
980.01921
980.76439
980.39412
979.11062
979.598
979.69112
979.64484
981.22662
981.7272
982.00391
980.78969
981.32398
980.8994
979.598
980.15753
980.62416
981.97416
981.08624
981.12797
982.20376
981.24091
981.49352
980.96909
979.69112
980.62416
982.34663
980.50565
982.13583
980.67883
981.43219
981.08459
981.06812
980.48562
979.64484
981.97416
980.50565
981.22246
927.52685
926.97122
928.23305
926.40295
927.3474
927.45968
927.07041
927.02144
926.8906
927.88035
926.97122
928.16526
927.37586
926.86862
927.76711
927.59882
926.91815
927.49761
926.93301
926.51303
928.23305
927.37586
927.80174
927.2145
928.01294
927.72702
926.83438
927.7533
927.93953
927.21114
926.40295
926.86862
927.2145
926.57847
927.34978
926.99876
925.88468
926.62619
927.05007
926.89325
927.3474
927.76711
928.01294
927.34978
928.12298
927.76613
926.56646
927.10983
927.27113
926.86608
927.45968
927.59882
927.72702
926.99876
927.76613
927.41696
926.20299
926.6941
926.76032
926.30284
927.07041
926.91815
926.83438
925.88468
926.56646
926.20299
924.97211
925.44516
925.53305
925.49656
927.02144
927.49761
927.7533
926.62619
927.10983
926.6941
925.44516
925.98673
926.43449
927.74866
926.8906
926.93301
927.93953
927.05007
927.27113
926.76032
925.53305
926.43449
928.09976
926.32043
927.88035
926.51303
927.21114
926.89325
926.86608
926.30284
925.49656
927.74866
926.32043
927.01886
867.53182
867.04551
868.17635
866.5254
867.3819
867.47345
867.09862
867.0536
866.93313
867.85688
867.04551
868.11995
867.42441
866.96138
867.77325
867.60091
866.94937
867.5024
866.97597
866.58775
868.17635
867.42441
867.80967
867.27548
867.99714
867.71558
866.86353
867.7355
867.90694
867.22626
866.5254
866.96138
867.27548
866.69822
867.39583
867.05399
865.99457
866.70252
867.09642
866.94007
867.3819
867.77325
867.99714
867.39583
868.09564
867.74841