/*--------------------------------*- C++ -*----------------------------------*\
| =========                 |                                                 |
| \\      /  F ield         | OpenFOAM: The Open Source CFD Toolbox           |
|  \\    /   O peration     | Version:  v2106                                 |
|   \\  /    A nd           | Website:  www.openfoam.com                      |
|    \\/     M anipulation  |                                                 |
\*---------------------------------------------------------------------------*/
FoamFile
{
    version     2.0;
    format      ascii;
    arch        "LSB;label=32;scalar=64";
    class       volScalarField;
    location    "10";
    object      gradTy;
}
// * * * * * * * * * * * * * * * * * * * * * * * * * * * * * * * * * * * * * //

dimensions      [0 -1 0 1 0 0 0];

internalField   nonuniform List<scalar> 
4000
(
0.00028797123
0.00068785657
-0.00038405781
0.0001266958
0.0002577674
0.00024200698
0.00019847658
0.00016918687
0.00012846102
6.6424262e-06
0.00071747597
4.5446945e-05
-0.00059255595
9.5104737e-05
0.00023484919
0.00017213571
8.5210738e-05
6.8949919e-05
0.00010397603
-1.2070241e-05
-0.00070494949
-0.0012661103
-0.00065529171
-0.00044683329
-0.00047419613
-0.00058857198
-0.00071088808
-0.0007466241
-0.00061926083
-0.00045931154
-0.00079262785
-0.00015080264
3.4777299e-05
3.0292928e-05
-6.0484416e-05
-0.00019496763
-0.00035692112
-0.00050452492
-0.0005514745
-0.00047140501
0.0007572916
0.00087260278
0.00083432258
0.00073086409
0.00060906202
0.00048219159
0.00034139195
0.0001830731
2.4596929e-05
-0.000101701
0.0006168486
0.00055755777
0.00046721015
0.00032086583
0.00017077343
5.319576e-05
-4.3122766e-05
-0.00012702744
-0.00020013597
-0.00025662553
0.00025973998
0.00018691987
0.0001565542
2.8867738e-05
-0.00015300309
-0.00027025074
-0.0003332263
-0.00035631605
-0.00035041224
-0.00032784369
7.666005e-05
6.6444905e-06
9.5425341e-05
9.8271745e-05
-9.9128029e-05
-0.00021852327
-0.00025614125
-0.00023570921
-0.00018102531
-0.00012051118
3.6807411e-05
-0.00012573704
-4.4212769e-05
0.00016157552
-1.1092852e-05
-0.00012319858
-0.00014069093
-9.4726234e-05
-2.5492886e-05
1.8967342e-05
1.8503952e-05
-0.00010331465
-9.7542332e-05
5.6634648e-05
-1.7472836e-05
-6.9663286e-05
-7.3962378e-05
-4.7094745e-05
-1.3448239e-05
-2.6345072e-06
7.8393559e-05
0.00069627192
-0.0010852336
-2.6306311e-05
0.00023995012
0.00017622905
6.0507939e-05
-4.3120819e-06
-0.00016943529
-0.00055111304
0.00067117052
-0.00049245667
-0.0014858908
-4.6686502e-05
0.00022778747
2.5912494e-05
-0.0002137959
-0.00021851288
-0.00016092769
-0.00055268528
-0.0017121665
-0.0024347447
-0.0012663963
-0.00081510063
-0.00090896113
-0.0012436748
-0.0016003606
-0.0016783161
-0.0013197809
-0.00096902572
-0.0013791178
-5.3933996e-05
0.00033456048
0.0003035012
4.4269036e-05
-0.00034935009
-0.00082548837
-0.0012417286
-0.0013637884
-0.00118342
0.0020118776
0.002214413
0.0020844766
0.0017858388
0.0014316253
0.0010567017
0.00064164254
0.00019034743
-0.00023450776
-0.00055178653
0.001615245
0.0014358028
0.0011736616
0.00074440333
0.00030390419
-4.5579446e-05
-0.00033040837
-0.00057187314
-0.00076947172
-0.00090296512
0.00069540877
0.00051486766
0.00045098341
8.0226305e-05
-0.00044139506
-0.00078612799
-0.00096768875
-0.0010240776
-0.00098630434
-0.00088487397
0.00025089303
2.0949818e-05
0.00030376125
0.00030152943
-0.00023453881
-0.00057462087
-0.00067360215
-0.00059323647
-0.00041334712
-0.00022936254
0.00023328354
-0.00031351743
-0.00010088889
0.00039577299
-4.2580345e-05
-0.00034636097
-0.00037367233
-0.00020715737
-9.7983913e-06
2.5835726e-05
0.00014860623
-0.00023307153
-0.00024315137
0.0001176837
-6.2782977e-05
-0.00019959506
-0.00019627638
-9.8164681e-05
-1.22918e-05
-6.2530568e-05
-0.000656387
0.00059387188
-0.0014427669
-7.3875163e-05
0.00024395978
0.000114186
-5.4113866e-05
-8.5329764e-05
-0.00042427622
-0.0012247972
-0.00018479212
-0.00097117203
-0.0020063487
-0.00015020896
0.00014411625
-0.0002307091
-0.00061589929
-0.00051450481
-0.00044758048
-0.0012839158
-0.002312466
-0.002980213
-0.0014915029
-0.00092877847
-0.0011277907
-0.0017016568
-0.002314602
-0.0024239104
-0.0018400729
-0.0014086129
-0.0013145742
0.00037215247
0.00083589077
0.00073586475
0.0003027784
-0.00034891287
-0.0011423331
-0.0018269409
-0.0020442971
-0.0018496949
0.0030496175
0.0032376786
0.0029691173
0.0024648003
0.0018843397
0.0012702245
0.00059407109
-0.00012284542
-0.00077130197
-0.0012378996
0.0023187395
0.0020206659
0.001558724
0.00083385459
0.00011361245
-0.00045641402
-0.00091389929
-0.0012853901
-0.0015630326
-0.0017099985
0.00097779015
0.0007782744
0.00069399445
5.6020868e-05
-0.0007840336
-0.0013370491
-0.0016130097
-0.001666106
-0.0015469486
-0.001301028
0.00036121448
-8.9478702e-06
0.00052953327
0.00046558115
-0.00037243065
-0.00089979192
-0.001021564
-0.00083373084
-0.00050258584
-0.00022934245
0.00061242433
-0.00052704313
-0.00015698663
0.00048825432
-0.00017974065
-0.00062679988
-0.00060434905
-0.00026172189
3.9319242e-08
2.0501774e-05
0.00049039127
-0.00031012973
-0.000345944
0.00012133029
-0.00015134189
-0.00034526736
-0.00029830776
-9.9346739e-05
-2.5064388e-05
-7.8884302e-05
-0.0010706899
0.00058007723
-0.0017047223
-9.1417485e-05
0.00024830012
3.6066268e-05
-0.00018588309
-0.00011927465
-0.00054973229
-0.0017211163
-0.00052697464
-0.001161007
-0.0022742433
-0.00010224633
0.00016662659
-0.00040784616
-0.00095519763
-0.00069769851
-0.00058013916
-0.0018732199
-0.0026063629
-0.0032778577
-0.0015476023
-0.00092725748
-0.0012527634
-0.0020759801
-0.0029581797
-0.0031041382
-0.0023369916
-0.0019086749
-0.0012582211
0.00069480131
0.0011826488
0.0009896402
0.00037688452
-0.00052945327
-0.00163052
-0.0025594284
-0.0028516293
-0.0026466264
0.0038013292
0.003928813
0.0034957294
0.0027800903
0.0019766359
0.0011317619
0.00020950085
-0.00074401527
-0.0015734125
-0.0021430975
0.0027526135
0.0023184303
0.0016307893
0.00061301401
-0.00037661519
-0.001154121
-0.001765033
-0.0022347545
-0.002545189
-0.0026456153
0.0011454234
0.00099008248
0.00085557105
-3.8075598e-05
-0.0011744041
-0.0019138527
-0.0022550376
-0.0022615841
-0.0020097971
-0.0015737504
0.00039399193
3.0142729e-05
0.00076905042
0.00065133082
-0.00045205894
-0.0011315825
-0.001232215
-0.00088634202
-0.00040927036
-0.00020141767
0.00086883254
-0.00073300909
-0.0003066889
0.00046245418
-0.00039388687
-0.00093662802
-0.00080474772
-0.00024879428
-0.00011982339
-8.510808e-05
0.00077712255
-0.00039426142
-0.00051595823
3.4055245e-05
-0.00031095531
-0.00053562973
-0.00041138168
-9.9583054e-05
-0.000203529
-6.486775e-05
-0.0012010216
0.00070776209
-0.0018416534
-1.3692693e-05
0.00033483282
2.7787363e-05
-0.00026912904
-0.00012082655
-0.00064936408
-0.0021485144
-0.00052489876
-0.0011655305
-0.0024001225
4.1293247e-05
0.00026553747
-0.00052235691
-0.0012550473
-0.00085986509
-0.00071788516
-0.0024284727
-0.0028653312
-0.003586786
-0.0016585074
-0.0010060874
-0.0014663646
-0.0025378647
-0.0036848999
-0.0038582517
-0.0029225339
-0.002503397
-0.0013661337
0.00081035246
0.0012995262
0.0010024953
0.00020907229
-0.00094529705
-0.0023400216
-0.0034879009
-0.0038329705
-0.0036048976
0.0042543907
0.0042958707
0.0036907406
0.0027640935
0.0017429482
0.00067700525
-0.00047553421
-0.0016389946
-0.0026141959
-0.0032520404
0.0029096411
0.0023056793
0.0013890564
8.7143952e-05
-0.0011600375
-0.0021313384
-0.0028765908
-0.0034143329
-0.0037138773
-0.0037158181
0.0011843193
0.0010357054
0.00084681111
-0.00028468164
-0.0016957927
-0.0026006815
-0.0029787872
-0.0028935659
-0.0024476312
-0.0017603793
0.00045976997
7.9534948e-05
0.00099693204
0.00084190091
-0.00049601682
-0.0012967608
-0.0013333034
-0.00076560484
-0.00010464469
-7.4452236e-05
0.00113867
-0.00088901779
-0.00042993763
0.00046583695
-0.00054693435
-0.0011472088
-0.00084841953
-1.4022228e-05
-0.00015726693
-0.0002101596
0.0010326486
-0.00046650168
-0.00067793895
-4.7364737e-05
-0.0004498661
-0.0006852092
-0.00045180687
2.0426993e-06
-0.00042161443
-5.0849984e-05
-0.0012722054
0.00084585652
-0.0019619612
6.2227681e-05
0.00041446428
1.1639786e-05
-0.00036429428
-0.00014045765
-0.00076894054
-0.0025685172
-0.00049751604
-0.0011872718
-0.0025538228
0.00012926139
0.00030209129
-0.00069763392
-0.0016158939
-0.00108663
-0.00092878788
-0.0030208086
-0.0032123882
-0.003996017
-0.001895855
-0.0012246049
-0.0018207394
-0.0031336977
-0.0045342756
-0.0047225542
-0.0036208953
-0.0032007161
-0.0016575536
0.00071887186
0.0011983605
0.00079398736
-0.00017672233
-0.0015698264
-0.003242899
-0.0045882436
-0.0049695405
-0.0047064302
0.0044330992
0.0043825113
0.0036062039
0.0024734184
0.0012423901
-3.3802537e-05
-0.0014014848
-0.0027533466
-0.0038493937
-0.0045325106
0.0027899295
0.002011171
0.00087194431
-0.00070236511
-0.0021942324
-0.00334624
-0.0042102815
-0.0047946358
-0.0050545139
-0.0049250693
0.0010062325
0.00085413511
0.00061723652
-0.00073472134
-0.0024011807
-0.0034542655
-0.0038495765
-0.0036430003
-0.002958938
-0.0019671423
0.00041010585
5.4595772e-06
0.0010972119
0.00091883983
-0.00062942955
-0.0015290691
-0.001473662
-0.00063843059
0.00025895239
9.9465776e-05
0.0013289185
-0.0010991411
-0.00060526024
0.00042269699
-0.00072344685
-0.001356467
-0.0008538803
0.00031939108
-0.00011598394
-0.00030889145
0.0012386909
-0.00056088577
-0.00085332986
-0.00014070659
-0.00059021965
-0.00082382351
-0.00046077498
0.00016797228
-0.00062026159
-2.4935241e-05
-0.0013515845
0.00095440496
-0.0020947747
0.00011003973
0.00046305167
-3.3001955e-05
-0.00048599093
-0.00018801798
-0.00091181692
-0.0029918835
-0.00053235556
-0.0012755458
-0.0027695467
0.00013322861
0.00025214457
-0.00095257317
-0.0020493592
-0.0013860587
-0.0012116449
-0.0036578137
-0.0036579706
-0.0045023359
-0.0022491962
-0.0015669349
-0.0022960871
-0.0038406878
-0.0054818327
-0.0056759897
-0.0044105817
-0.0039828056
-0.0021002054
0.000457621
0.00092148583
0.0004107301
-0.00073078973
-0.0023512519
-0.0042868049
-0.0058119081
-0.0062181043
-0.0059134428
0.0043898203
0.0042467787
0.0033040185
0.0019730258
0.00054203659
-0.00093247581
-0.0025005586
-0.0040229831
-0.0052220344
-0.005936216
0.0024492284
0.0015001858
0.00014772466
-0.0016855598
-0.0034082905
-0.004728155
-0.0056979313
-0.0063143049
-0.0065184332
-0.0062424679
0.00063782023
0.00048280419
0.00020433467
-0.0013524977
-0.0032563216
-0.004443005
-0.0048424715
-0.00449947
-0.0035570129
-0.0022352269
0.00022785819
-0.00019796781
0.0010655725
0.00087328318
-0.00086572702
-0.0018481926
-0.001686229
-0.00056273406
0.00060085039
0.00026663052
0.0014297157
-0.0013741498
-0.00084203924
0.00031903431
-0.000943574
-0.0015941986
-0.00087173699
0.00067004458
-4.2372404e-05
-0.00038717888
0.0014032755
-0.00067679103
-0.0010428932
-0.0002490149
-0.00073823173
-0.0009631965
-0.00046226638
0.00035858957
-0.00079648626
1.3783107e-05
-0.0014445741
0.0010326508
-0.0022369424
0.00013286013
0.0004842603
-0.00010128558
-0.00062786949
-0.00025719671
-0.0010702088
-0.0034131983
-0.00062815476
-0.001420523
-0.0030325224
6.8919231e-05
0.0001330504
-0.0012676181
-0.0025340319
-0.001738804
-0.0015465358
-0.0043241218
-0.0041761153
-0.005075906
-0.002686673
-0.0019990368
-0.0028561656
-0.004620635
-0.0064886161
-0.0066830822
-0.0052591105
-0.004821981
-0.0026524065
6.8796226e-05
0.00051316635
-0.00010069634
-0.0014045003
-0.0032393398
-0.0054208685
-0.0071102926
-0.0075337585
-0.0071854752
0.0041743977
0.0039402519
0.0028378603
0.0013186537
-0.00030078309
-0.0019607579
-0.003714546
-0.0053917333
-0.00667983
-0.0074155646
0.0019441341
0.00083200428
-0.00072294818
-0.0028004462
-0.0047393164
-0.0062142091
-0.0072781478
-0.0079159213
-0.0080554146
-0.0076277561
0.00012824886
-2.7662268e-05
-0.000342937
-0.0020901095
-0.0042138898
-0.0055210848
-0.005915602
-0.0054296168
-0.004223157
-0.0025658101
-6.0392122e-05
-0.00050273142
0.00092710397
0.00072677424
-0.001185786
-0.0022385098
-0.0019630527
-0.00054606483
0.00089387159
0.0003995656
0.0014568328
-0.0016991688
-0.001128485
0.0001619324
-0.0012036676
-0.0018618989
-0.00091550237
0.0010019078
3.0128067e-05
-0.00046335998
0.0015356092
-0.00080738034
-0.0012419768
-0.00037025088
-0.00089369346
-0.0011059855
-0.00046603499
0.00055136141
-0.00096034097
5.7873366e-05
-0.0015446222
0.0010867754
-0.0023805218
0.00013783984
0.00048535242
-0.00018531585
-0.00078152198
-0.00034044182
-0.0012363568
-0.003824701
-0.00076746669
-0.0016033663
-0.0033222482
-4.3716135e-05
-3.4509798e-05
-0.0016206964
-0.0030469839
-0.0021242197
-0.0019140169
-0.005001281
-0.0047376127
-0.0056865482
-0.0031779625
-0.0024897496
-0.0034684647
-0.0054395253
-0.0075197715
-0.0077110782
-0.006136584
-0.0056910761
-0.0032772801
-0.00041140581
1.0458356e-05
-0.00070190798
-0.0021580762
-0.004193033
-0.0066032143
-0.0084424536
-0.0088777387
-0.0084863848
0.0038271477
0.003503992
0.0022501674
0.00055421634
-0.0012409577
-0.0030727756
-0.0049973946
-0.0068144963
-0.0081796409
-0.0089297328
0.0013197001
5.2825681e-05
-0.001692774
-0.0039984812
-0.006137912
-0.007754918
-0.0089023838
-0.0095533495
-0.0096233612
-0.0090439698
-0.00048049937
-0.00063562534
-0.00098402266
-0.0029071783
-0.0052334433
-0.006648899
-0.0070318748
-0.0064014551
-0.0049336153
-0.0029460802
-0.00042578779
-0.00088062257
0.00070717918
0.000502565
-0.0015673452
-0.0026796813
-0.0022883226
-0.0005814219
0.0011334053
0.0004897667
0.0014256609
-0.0020585983
-0.0014514003
-3.8596175e-05
-0.0014953314
-0.0021538327
-0.0009859517
0.0013015422
8.5236901e-05
-0.00055005594
0.0016409088
-0.00094743543
-0.0014463552
-0.00050192758
-0.0010550013
-0.0012520195
-0.00047560984
0.00073551557
-0.0011192485
0.00010022275
-0.0016455797
0.0011219543
-0.0025191625
0.00013049356
0.00047189055
-0.00027900859
-0.00094049456
-0.00043204798
-0.0014043538
-0.0042195517
-0.00093496123
-0.001808544
-0.0036223745
-0.00018916069
-0.00023454835
-0.0019946636
-0.0035702973
-0.0025260325
-0.0022987501
-0.0056732192
-0.0053183592
-0.0063098199
-0.0036989759
-0.0030146456
-0.0041076158
-0.0062707358
-0.0085477311
-0.0087335205
-0.0070186095
-0.006566939
-0.0039453982
-0.00095434512
-0.00055757199
-0.001362985
-0.0029605836
-0.0051803355
-0.0078009419
-0.0097756465
-0.010218474
-0.0097859905
0.0033792727
0.0029697706
0.0015737699
-0.00028631968
-0.0022435806
-0.0042329671
-0.0063132126
-0.0082556772
-0.0096867702
-0.010445117
0.0006102153
-0.00080216981
-0.0027255337
-0.0052422852
-0.0075658919
-0.0093119172
-0.010532822
-0.011190241
-0.011188305
-0.010459997
-0.0011564794
-0.0013095188
-0.0016878484
-0.0037723034
-0.0062831594
-0.0077950134
-0.0081614834
-0.0073884411
-0.0056667551
-0.0033604584
-0.00084505104
-0.0013089103
0.00042649618
0.00022021136
-0.001991036
-0.0031533462
-0.0026465187
-0.00065861791
0.0013230403
0.0005384336
0.0013482766
-0.0024392271
-0.00179891
-0.00027264562
-0.0018092539
-0.0024620853
-0.0010790098
0.0015658974
0.0001180417
-0.00065183852
0.0017223262
-0.0010928717
-0.0016521429
-0.00064120122
-0.0012196593
-0.001399548
-0.00049135169
0.00090674877
-0.0012759583
0.00013686854
-0.0017430869
0.0011417426
-0.0026483887
0.00011458498
0.00044770373
-0.00037804598
-0.0011001133
-0.00052793504
-0.0015698089
-0.0045921654
-0.00111929
-0.0020245918
-0.0039208742
-0.00035615285
-0.00045540694
-0.002376817
-0.0040904961
-0.0029319658
-0.0026889931
-0.0063268558
-0.0058996045
-0.0069267621
-0.0042311655
-0.0035550086
-0.0047541712
-0.0070937339
-0.009551013
-0.0097295389
-0.0078857789
-0.007430675
-0.0046336916
-0.0015375991
-0.0011682244
-0.0020606048
-0.003787904
-0.0061762175
-0.0089881242
-0.011083753
-0.011530485
-0.011059577
0.0028550641
0.0023624331
0.00083439992
-0.0011762922
-0.0032812128
-0.0054133105
-0.0076335789
-0.0096868271
-0.011173149
-0.011934187
-0.00015783547
-0.0017056525
-0.0037929246
-0.0065024943
-0.0089931448
-0.010854861
-0.012139418
-0.012797478
-0.012722648
-0.01185008
-0.0018753154
-0.0020252044
-0.0024304642
-0.0046610094
-0.0073379995
-0.0089345259
-0.0092806168
-0.0083689971
-0.0064042489
-0.0037943878
-0.0013001154
-0.0017698111
0.00010138758
-0.00010457688
-0.0024409733
-0.0036441469
-0.0030242028
-0.00076777899
0.0014686402
0.00055060029
0.001234209
-0.0028300213
-0.0021606809
-0.00053115749
-0.0021365049
-0.0027785177
-0.0011891074
0.0017960916
0.00012927191
-0.00076804432
0.0017821989
-0.0012401577
-0.0018556638
-0.00078505382
-0.0013847555
-0.0015460921
-0.000512188
0.001063769
-0.0014302279
0.00016645273
-0.0018340699
0.0011486197
-0.0027650128
9.2738338e-05
0.00041550319
-0.00047926321
-0.0012568736
-0.00062509278
-0.001729369
-0.0049380162
-0.0013120471
-0.00224299
-0.0042088088
-0.00053636606
-0.00068839174
-0.0027575196
-0.0045972051
-0.0033325924
-0.00307562
-0.0069516336
-0.0064667494
-0.0075226308
-0.0047601254
-0.0040963087
-0.0053929905
-0.0078924276
-0.010512633
-0.01068253
-0.0087225737
-0.0082669629
-0.0053239259
-0.0021434098
-0.0018035088
-0.0027762749
-0.0046208827
-0.007160726
-0.010143965
-0.012345666
-0.012793045
-0.012286893
0.0022738485
0.0017018469
5.2694939e-05
-0.0020942719
-0.0043317562
-0.0065911772
-0.0089354471
-0.011084738
-0.012615728
-0.013374215
-0.00096339557
-0.0026357724
-0.0048722089
-0.0077554149
-0.010395291
-0.012359106
-0.013697688
-0.014351201
-0.014203616
-0.013192819
-0.0026178453
-0.0027636749
-0.0031929181
-0.0055537771
-0.0083778576
-0.010047338
-0.010369953
-0.0093254546
-0.0071308206
-0.0042353049
-0.0017767573
-0.0022492527
-0.0002551722
-0.00045919341
-0.0029042522
-0.0041394748
-0.0034101802
-0.00090034247
0.0015760519
0.00053218067
0.0010911222
-0.0032218012
-0.002527919
-0.00080623429
-0.0024691465
-0.003095712
-0.001310764
0.0019944377
0.00012175914
-0.00089563744
0.0018224319
-0.0013862153
-0.0020535817
-0.00093060449
-0.0015474295
-0.0016890914
-0.00053663207
0.0012064243
-0.0015805033
0.00018902768
-0.0019162904
0.0011444076
-0.0028667159
6.6858942e-05
0.00037729835
-0.00058024134
-0.0014080455
-0.0007212163
-0.0018804084
-0.0052534357
-0.0015068348
-0.0024572604
-0.0044794048
-0.00072346014
-0.00092681249
-0.0031292424
-0.0050822215
-0.0037204948
-0.0034513948
-0.0075389961
-0.0070083121
-0.0080858607
-0.0052745118
-0.0046270723
-0.0060120727
-0.0086539857
-0.011418955
-0.011579123
-0.0095164589
-0.0090633215
-0.0060015195
-0.0027575052
-0.0024489272
-0.0034950661
-0.0054440243
-0.0081176672
-0.011251511
-0.013544106
-0.01398913
-0.013451248
0.0016513543
0.001004254
-0.00075442799
-0.0030226594
-0.0053770291
-0.0077479058
-0.010199754
-0.012430148
-0.013995328
-0.014746265
-0.0017892807
-0.0035746246
-0.0059446898
-0.0089815071
-0.011752177
-0.013804232
-0.015187286
-0.015831526
-0.015612174
-0.014470311
-0.0033685689
-0.0035095439
-0.0039598213
-0.0064346816
-0.0093862596
-0.011116924
-0.011413554
-0.010243182
-0.007833748
-0.0046726569
-0.0022635291
-0.002735892
-0.00063270234
-0.00083339561
-0.003370321
-0.0046289702
-0.0037952088
-0.0010491638
0.001650379
0.00048875106
0.00092526315
-0.0036069562
-0.0028932382
-0.0010911544
-0.0028003806
-0.0034072721
-0.0014391657
0.0021632534
9.8749196e-05
-0.001030916
0.0018446102
-0.0015284171
-0.0022429911
-0.0010752797
-0.001705109
-0.001826217
-0.00056324619
0.0013348741
-0.0017248741
0.00020520889
-0.0019880988
0.0011304998
-0.0029518157
3.8365096e-05
0.00033462635
-0.00067908287
-0.0015514562
-0.00081449881
-0.0020208449
-0.0055354682
-0.0016986928
-0.0026624097
-0.0047274868
-0.00091250629
-0.0011654039
-0.0034859911
-0.0055389572
-0.00408974
-0.0038104977
-0.0080819889
-0.0075152096
-0.0086073443
-0.0057653062
-0.0051381253
-0.0066017863
-0.0093680671
-0.012258941
-0.01240848
-0.010257238
-0.0098095324
-0.0066547064
-0.0033682644
-0.0030926236
-0.0042047446
-0.0062446132
-0.0090337299
-0.012296798
-0.01466482
-0.015104677
-0.014538825
0.0010006437
0.00028319576
-0.0015728411
-0.003946746
-0.0064018264
-0.0088678741
-0.01141052
-0.013706898
-0.015295857
-0.016034469
-0.0026211738
-0.0045072563
-0.0069947271
-0.010164411
-0.013046912
-0.015173104
-0.016591118
-0.017221724
-0.016932303
-0.015667521
-0.0041146668
-0.0042500828
-0.0047184158
-0.0072904961
-0.010349506
-0.01212952
-0.012398126
-0.01110996
-0.0085024041
-0.0050976465
-0.0027510287
-0.0032204175
-0.0010225692
-0.0012187149
-0.003830448
-0.0051040515
-0.0041716325
-0.0012083299
0.0016958894
0.00042518907
0.00074180299
-0.0039791664
-0.0032504458
-0.0013802184
-0.0031244503
-0.0037077896
-0.0015702476
0.0023045244
6.3271374e-05
-0.00117028
0.0018500732
-0.00166455
-0.0024214179
-0.0012168442
-0.0018555655
-0.0019554569
-0.00059078419
0.0014493007
-0.0018614845
0.0002157493
-0.0020482973
0.0011079924
-0.0030191284
8.32346e-06
0.00028868577
-0.00077428117
-0.0016853635
-0.000903508
-0.0021490252
-0.0057817693
-0.0018837441
-0.0028545753
-0.0049491154
-0.0010996248
-0.0013999636
-0.0038229491
-0.0059620913
-0.0044355455
-0.0041482122
-0.0085749738
-0.0079802558
-0.0090799247
-0.0062253053
-0.0056220774
-0.007154351
-0.010026308
-0.013023649
-0.013161817
-0.010936607
-0.010497219
-0.0072739357
-0.0039661215
-0.0037247838
-0.0048951671
-0.0070121099
-0.0098978904
-0.013268273
-0.015696035
-0.016128067
-0.015538185
0.00033276479
-0.00044983986
-0.0023905595
-0.0048540704
-0.0073932829
-0.0099378782
-0.012554256
-0.014901368
-0.01650378
-0.017225515
-0.0034469482
-0.0054209975
-0.008009076
-0.011290295
-0.01426524
-0.016451268
-0.017894761
-0.018507684
-0.018150506
-0.016771814
-0.0048453563
-0.0049745831
-0.0054579527
-0.0081100924
-0.011256097
-0.013073582
-0.013312514
-0.011915539
-0.0091278884
-0.0055029381
-0.0032313956
-0.0036950572
-0.0014175165
-0.0016080157
-0.00427731
-0.0055575401
-0.0045330548
-0.0013729148
0.0017161407
0.00034566916
0.00054511088
-0.0043331504
-0.0035943174
-0.0016685523
-0.0034364675
-0.0039926997
-0.0017005975
0.0024199011
1.798655e-05
-0.0013104865
0.0018399899
-0.0017927543
-0.0025867717
-0.0013533665
-0.0019968898
-0.002075102
-0.00061819786
0.0015498482
-0.0019886694
0.00022137513
-0.0020960496
0.0010777679
-0.003067876
-2.2461616e-05
0.00024042385
-0.00086463538
-0.0018083735
-0.00098710469
-0.0022636461
-0.0059905311
-0.0020589531
-0.0030307795
-0.0051413346
-0.0012817377
-0.0016271077
-0.0041362376
-0.0063473373
-0.0047540521
-0.0044607089
-0.009013423
-0.008397796
-0.0094980255
-0.0066487543
-0.0060729571
-0.0076634745
-0.010621964
-0.013705888
-0.013832071
-0.011547833
-0.011119541
-0.0078514299
-0.00454313
-0.0043372029
-0.0055578503
-0.0077377241
-0.010700996
-0.014156395
-0.016628067
-0.017049754
-0.01643991
-0.00034278373
-0.0011849575
-0.0031972836
-0.0057339645
-0.0083404289
-0.010946702
-0.013619546
-0.016002084
-0.017607748
-0.018308283
-0.0042561972
-0.0063049946
-0.0089764269
-0.012347409
-0.015395097
-0.017626526
-0.019086072
-0.019677547
-0.019255466
-0.017772623
-0.0055514496
-0.0056739189
-0.0061692641
-0.0088840262
-0.012096336
-0.013939409
-0.014147357
-0.012651319
-0.0097027402
-0.0058823973
-0.0036979573
-0.0041532299
-0.0018113289
-0.001995174
-0.0047046883
-0.0059833756
-0.0048740826
-0.0015387586
0.0017141509
0.00025377556
0.00033896549
-0.0046644609
-0.0039204053
-0.001951931
-0.003732248
-0.0042581297
-0.0018273233
0.0025107916
-3.4789185e-05
-0.0014486825
0.0018154241
-0.0019114609
-0.00273729
-0.0014831698
-0.0021274462
-0.0021837051
-0.00064460286
0.0016366378
-0.0021049782
0.00022274449
-0.0021308142
0.0010405561
-0.0030976145
-5.3383784e-05
0.00019059847
-0.00094918982
-0.0019193815
-0.0010643848
-0.0023636984
-0.0061604241
-0.0022219471
-0.0031887473
-0.005301984
-0.0014563905
-0.0018440963
-0.0044227438
-0.0066912761
-0.005042162
-0.0047448894
-0.0093937642
-0.0087634314
-0.0098573713
-0.0070310746
-0.0064859441
-0.0081240891
-0.011149652
-0.014299968
-0.014413656
-0.01208552
-0.011670968
-0.0083808564
-0.0050926434
-0.0049229687
-0.0061856579
-0.0084141068
-0.011435461
-0.014953335
-0.017453044
-0.017861991
-0.017236332
-0.0010177169
-0.0019135229
-0.0039840701
-0.0065772303
-0.0092338732
-0.01188481
-0.014596759
-0.016999437
-0.018598319
-0.01927357
-0.0050398987
-0.0071498787
-0.0098870785
-0.013325757
-0.016426306
-0.018688643
-0.020154899
-0.020721434
-0.020237782
-0.018661191
-0.0062250438
-0.0063402388
-0.006844462
-0.0096042434
-0.012862045
-0.01471887
-0.014894835
-0.013310115
-0.010220717
-0.006230877
-0.0041449784
-0.0045892953
-0.0021985917
-0.0023748477
-0.0051072478
-0.0063764075
-0.0051901307
-0.0017022893
0.0016925558
0.00015263402
0.00012671059
-0.0049693287
-0.0042248917
-0.002226641
-0.0040081803
-0.0045007742
-0.001947938
0.0025784636
-9.301461e-05
-0.0015823622
0.0017773848
-0.0020193408
-0.00287149
-0.0016047892
-0.0022458313
-0.0022800403
-0.00066924093
0.0017097995
-0.0022091627
0.00022045188
-0.0021522907
0.00099697888
-0.0031081778
-8.3985902e-05
0.00013982428
-0.0010271885
-0.0020175274
-0.001134636
-0.0024484228
-0.00629055
-0.0023708803
-0.0033267673
-0.0054295537
-0.0016216185
-0.002048704
-0.0046799927
-0.0069912299
-0.0052974166
-0.004998269
-0.0097132617
-0.0090738075
-0.010154772
-0.0073686587
-0.006857169
-0.0085321524
-0.01160515
-0.014801497
-0.014902272
-0.012545433
-0.012147105
-0.0088570775
-0.0056090755
-0.0054762278
-0.0067725692
-0.0090351215
-0.012095045
-0.015652762
-0.01816468
-0.018558618
-0.017921328
-0.0016847209
-0.0026279234
-0.0047430951
-0.007375904
-0.010065571
-0.012744119
-0.015477821
-0.017885464
-0.019467749
-0.020113882
-0.0057901742
-0.0079475259
-0.0107327
-0.014216871
-0.01735034
-0.019629121
-0.02109287
-0.021631237
-0.02108977
-0.019430378
-0.0068592985
-0.006966746
-0.0074767223
-0.010263868
-0.013546357
-0.015405213
-0.015548473
-0.013885976
-0.010676619
-0.0065440474
-0.0045674814
-0.0049983767
-0.0025745204
-0.0027423123
-0.0054803762
-0.0067322399
-0.0054772758
-0.0018603862
0.0016537374
4.5028592e-05
-8.8634274e-05
-0.0052445482
-0.0045044794
-0.0024893817
-0.0042611273
-0.0047177999
-0.002060268
0.0026241291
-0.00015485325
-0.0017093084
0.0017268616
-0.0021152656
-0.0029881312
-0.0017169383
-0.0023508413
-0.0023630716
-0.00069144892
0.0017695004
-0.0023001577
0.00021504525
-0.0021603763
0.00094758478
-0.0030996306
-0.00011392216
8.8608051e-05
-0.0010980395
-0.0021021603
-0.0011973036
-0.0025172743
-0.0063804002
-0.0025043269
-0.0034435812
-0.0055230685
-0.0017758434
-0.0022391195
-0.004906047
-0.0072451618
-0.0055179012
-0.0052188846
-0.009969918
-0.0093264453
-0.010387952
-0.0076587076
-0.0071835567
-0.0088844932
-0.011985245
-0.015207235
-0.015294754
-0.012924347
-0.012544554
-0.0092759568
-0.0060877182
-0.0059920079
-0.0073135038
-0.0095956689
-0.012674674
-0.016249662
-0.018758108
-0.019134888
-0.018490149
-0.0023372752
-0.0033213925
-0.0054674788
-0.0081230807
-0.01082865
-0.01351783
-0.016256048
-0.018653682
-0.02020982
-0.020823262
-0.0065001121
-0.0086908805
-0.011506154
-0.015013622
-0.018160147
-0.02044102
-0.021893221
-0.022400457
-0.021805301
-0.020074489
-0.0074482726
-0.0075475367
-0.0080601268
-0.010857046
-0.01414356
-0.015992898
-0.016102996
-0.014374041
-0.011066155
-0.0068182602
-0.0049611166
-0.0053762306
-0.0029348394
-0.0030933434
-0.0058200655
-0.0070471157
-0.0057321451
-0.0020102742
0.0015999228
-6.6503907e-05
-0.00030429616
-0.0054873927
-0.0047563129
-0.0027371929
-0.0044883543
-0.0049067735
-0.0021623861
0.002649007
-0.0002186158
-0.0018275399
0.001664847
-0.0021982789
-0.0030861864
-0.0018184857
-0.0024414476
-0.0024319276
-0.00071063543
0.001815967
-0.0023770622
0.00020704296
-0.0021551279
0.00089287568
-0.0030722276
-0.0001429273
3.7377129e-05
-0.0011612858
-0.0021728086
-0.0012519626
-0.0025698926
-0.0064298181
-0.0026211941
-0.0035382938
-0.0055819906
-0.0019177912
-0.002413866
-0.0050994238
-0.0074515917
-0.0057021654
-0.0054052185
-0.01016239
-0.0095196026
-0.010555406
-0.0078990999
-0.0074627005
-0.0091786839
-0.012287602
-0.015514953
-0.015588942
-0.013219934
-0.012860796
-0.009634202
-0.0065245972
-0.0064660774
-0.0078041812
-0.010091546
-0.0131703
-0.016740193
-0.019229725
-0.019587323
-0.018939281
-0.0029695179
-0.0039878764
-0.0061511505
-0.0088127782
-0.011517269
-0.01420028
-0.016926003
-0.019298941
-0.020819699
-0.021397145
-0.0071636327
-0.0093738185
-0.012201358
-0.015710087
-0.018850005
-0.021118821
-0.022550648
-0.023024057
-0.022379656
-0.020589141
-0.0079868004
-0.0080774772
-0.008589542
-0.011378817
-0.014648967
-0.016477478
-0.016554203
-0.014770415
-0.01138582
-0.0070504381
-0.0053220652
-0.0057191492
-0.0032756921
-0.0034241301
-0.0061228226
-0.0073178261
-0.0059518301
-0.0021494436
0.0015332602
-0.00017959952
-0.00051769413
-0.0056955497
-0.0049779186
-0.0029674042
-0.0046874745
-0.0050656076
-0.0022525591
0.0026543697
-0.00028271505
-0.0019352668
0.0015923512
-0.0022675744
-0.0031648201
-0.0019084372
-0.0025167779
-0.0024858827
-0.00072626347
0.0018494996
-0.0024391232
0.00019694791
-0.0021367294
0.00083332923
-0.0030263772
-0.00017079066
-1.3496607e-05
-0.0012165795
-0.002229153
-0.0012982929
-0.0026060747
-0.0064389629
-0.002720648
-0.0036102958
-0.0056061358
-0.0020464212
-0.0025717322
-0.0052590226
-0.0076095207
-0.0058491528
-0.0055561318
-0.010289911
-0.0096521522
-0.010656272
-0.0080882777
-0.0076927521
-0.0094129302
-0.012510648
-0.015723317
-0.015783561
-0.013430643
-0.013094087
-0.0099292316
-0.006916351
-0.0068948281
-0.0082410036
-0.010519326
-0.01357877
-0.017121552
-0.01957706
-0.019913577
-0.019266309
-0.0035761369
-0.0046219257
-0.0067887383
-0.0094398218
-0.012126505
-0.014786827
-0.01748337
-0.019817298
-0.021293799
-0.021832218
-0.0077753776
-0.009991034
-0.012813166
-0.016301421
-0.019415392
-0.021658286
-0.02306118
-0.023498331
-0.022809398
-0.020971134
-0.0084703905
-0.0085521039
-0.0090605207
-0.011825016
-0.01505881
-0.016855487
-0.016898855
-0.015072071
-0.011632804
-0.0072379801
-0.005646961
-0.0060238827
-0.0035935721
-0.0037312085
-0.0063855968
-0.0075416369
-0.0061338152
-0.0022755857
0.001455877
-0.00029200746
-0.00072639913
-0.0058670691
-0.0051671576
-0.0031775954
-0.0048564066
-0.0051925156
-0.0023292091
0.0026415755
-0.00034563089
-0.002030855
0.00151041
-0.0023224781
-0.0032233694
-0.0019859221
-0.0025761015
-0.0025243417
-0.00073783742
0.0018704824
-0.0024857219
0.00018525824