/*--------------------------------*- C++ -*----------------------------------*\
| =========                 |                                                 |
| \\      /  F ield         | OpenFOAM: The Open Source CFD Toolbox           |
|  \\    /   O peration     | Version:  v2106                                 |
|   \\  /    A nd           | Website:  www.openfoam.com                      |
|    \\/     M anipulation  |                                                 |
\*---------------------------------------------------------------------------*/
FoamFile
{
    version     2.0;
    format      ascii;
    arch        "LSB;label=32;scalar=64";
    class       volScalarField;
    location    "10";
    object      gradTy;
}
// * * * * * * * * * * * * * * * * * * * * * * * * * * * * * * * * * * * * * //

dimensions      [0 -1 0 1 0 0 0];

internalField   nonuniform List<scalar> 
4000
(
-0.00040214315
-0.00094110125
0.00050282147
-0.00018961847
-0.00036655796
-0.00034457246
-0.00028478013
-0.00024390972
-0.0001876224
-2.2368947e-05
-0.00099668016
-9.1715531e-05
0.00076336137
-0.00016815578
-0.00035624279
-0.00027003421
-0.00015046591
-0.00012543545
-0.00016943118
-1.1027047e-05
0.00091450591
0.0016659887
0.00083806564
0.00055686751
0.0005950576
0.00075112189
0.00091854473
0.00097018857
0.00080254583
0.00058984957
0.00102801
0.00015863052
-9.1594201e-05
-8.4377515e-05
3.9569858e-05
0.00022268861
0.00044328743
0.00064526278
0.00071224348
0.00060769179
-0.0010528582
-0.0012078122
-0.0011547366
-0.0010135578
-0.00084767045
-0.00067493858
-0.00048328588
-0.00026777124
-5.1857227e-05
0.00012041194
-0.00084657644
-0.0007647986
-0.00064079957
-0.00044131145
-0.00023708198
-7.6926902e-05
5.4452994e-05
0.00016901137
0.00026883565
0.00034585607
-0.00035040955
-0.0002497468
-0.0002058108
-3.0680125e-05
0.00021676337
0.00037648722
0.00046270163
0.00049487182
0.00048761637
0.00045746831
-9.4170016e-05
2.9877212e-06
-0.00011313529
-0.00011301119
0.00015582076
0.00031841747
0.00037020341
0.00034333222
0.00026984292
0.00018804154
-3.8011334e-05
0.00018352944
7.6397055e-05
-0.00019680956
3.8826067e-05
0.00019137361
0.00021567077
0.00015397011
6.038009e-05
-3.2988542e-07
-1.9499669e-05
0.00014575378
0.00013890447
-6.694249e-05
3.4352764e-05
0.00010532668
0.00011137318
7.517862e-05
2.9571807e-05
1.4468655e-05
-0.00014758205
-0.00098564484
0.0014187086
-1.9291718e-05
-0.00037920591
-0.00029124303
-0.00013189246
-4.0273129e-05
0.00018638109
0.00070494242
-0.00099886256
0.00056742811
0.0018993074
-5.3623099e-05
-0.00042330755
-0.00014637309
0.00018401164
0.00019975168
0.00013125976
0.0006660658
0.0022009281
0.0031672812
0.0015798769
0.00097001417
0.0011000018
0.0015568838
0.0020455501
0.0021611077
0.0016890778
0.0012238126
0.0017456101
-5.2304404e-05
-0.00057700479
-0.00053217942
-0.00017808454
0.0003582476
0.0010073419
0.0015778526
0.0017533707
0.001519574
-0.0028057147
-0.003077666
-0.0028984647
-0.0024907964
-0.0020080377
-0.0014972055
-0.00093173658
-0.0003165656
0.00026358834
0.00069788559
-0.0022222005
-0.0019748871
-0.0016148814
-0.0010293388
-0.0004294549
4.6962326e-05
0.00043584484
0.0007660143
0.0010365364
0.001219461
-0.00093759884
-0.00068662895
-0.00059147407
-8.2405052e-05
0.00062813093
0.0010982349
0.0013471829
0.0014264473
0.0013776382
0.0012415842
-0.00030931036
8.9631844e-06
-0.00036206223
-0.00034750916
0.00038396653
0.00084781575
0.00098465809
0.00087827106
0.00063609292
0.0003866343
-0.00027707288
0.00046814266
0.00018924121
-0.0004691524
0.00013096262
0.00054529877
0.00058440928
0.00036043568
9.2772522e-05
4.1162185e-05
-0.00018227713
0.0003362842
0.00035252891
-0.00012898096
0.00011873224
0.0003053163
0.0003016568
0.00016926229
5.2198183e-05
0.00011765194
0.00081703287
-0.00088105995
0.0018773653
1.3578205e-05
-0.00041726151
-0.00023893138
-6.1439881e-06
4.3496616e-05
0.00050739058
0.0015943988
8.9946172e-05
0.0011502786
0.0025419384
1.6530038e-05
-0.00038074672
0.00013264075
0.00066456291
0.00054398011
0.00046849155
0.0016080805
0.0029453599
0.0038399981
0.0018116114
0.0010491039
0.0013228735
0.0021064791
0.0029466377
0.0031117132
0.0023420527
0.0017712064
0.001595853
-0.00069877376
-0.0013268321
-0.0011875116
-0.0005956367
0.00029327455
0.0013761218
0.0023157905
0.0026271176
0.0023791435
-0.0042657095
-0.0045182191
-0.0041495988
-0.0034608438
-0.0026688126
-0.0018309584
-0.00090837725
7.0780978e-05
0.00095867454
0.0015997009
-0.0032007553
-0.0027896378
-0.0021554456
-0.0011658736
-0.00018368711
0.00059456174
0.0012203658
0.001729768
0.0021117439
0.0023154438
-0.0013167859
-0.0010343579
-0.00090544653
-2.9123794e-05
0.0011170694
0.0018726156
0.0022522757
0.0023295674
0.0021723841
0.0018415204
-0.00043579992
7.7734666e-05
-0.00063187128
-0.00052685034
0.00061912445
0.0013402015
0.0015105026
0.0012603099
0.00081341658
0.00044083463
-0.00075866211
0.00079224002
0.00030543829
-0.0005482668
0.00036879134
0.00098065312
0.00095446705
0.00049260605
0.00013499177
0.00010054091
-0.00062800872
0.00045899944
0.00051158022
-0.00011184679
0.00026360619
0.00052917956
0.00046730604
0.00019831582
9.4724093e-05
0.00016386495
0.0013537664
-0.00089452536
0.002213593
9.3152881e-06
-0.00045326639
-0.00016227084
0.00014573426
6.7086479e-05
0.00065839328
0.002251731
0.00049345117
0.0013532778
0.0028566317
-0.00010923538
-0.00047393844
0.00031253253
0.0010691823
0.00074460183
0.00060611265
0.0023692567
0.0032910392
0.0041948798
0.001828526
0.00098446058
0.00143104
0.00255629
0.003766713
0.0039883802
0.002975465
0.0024102295
0.0014679045
-0.0011989549
-0.0018626656
-0.001596441
-0.00075808756
0.00048023634
0.0019856859
0.0032636298
0.0036833589
0.00342525
-0.0053424838
-0.0055140699
-0.0049207159
-0.0039422405
-0.0028440386
-0.0016890914
-0.00042794656
0.00087788517
0.0020176316
0.002804124
-0.0038183481
-0.0032193474
-0.0022752273
-0.00088367436
0.0004685461
0.0015324177
0.0023704102
0.0030172206
0.0034477902
0.0035918594
-0.00154106
-0.0013117026
-0.0011089906
0.00012038761
0.0016744028
0.0026873642
0.0031592058
0.0031764699
0.0028415664
0.0022536199
-0.00045660805
5.6050962e-05
-0.00091967771
-0.00073519702
0.00077799532
0.0017103811
0.0018553753
0.0013927418
0.00074693371
0.00045763549
-0.001075909
0.0011087355
0.0005487459
-0.00046941525
0.00071036603
0.0014568236
0.0012850048
0.00053397354
0.00034989853
0.00029270151
-0.0010010467
0.00059229099
0.00076209735
2.705542e-05
0.00050398841
0.00081354783
0.00064805766
0.00022560126
0.00035875944
0.00016840425
0.0015140406
-0.0010962092
0.0023889823
-0.0001192677
-0.00059680062
-0.00017610613
0.0002361638
5.0510585e-05
0.00077888156
0.0028233441
0.00044232612
0.0013172678
0.0029933542
-0.00035527437
-0.00066229535
0.00041697027
0.0014305189
0.00092555758
0.0007584185
0.0030952503
0.0036041722
0.0045811137
0.00193163
0.0010389195
0.0016700771
0.0031373085
0.0047138891
0.004979549
0.0037405946
0.0031875883
0.0015713838
-0.0014143992
-0.0020842657
-0.0016759521
-0.00058848064
0.00099236021
0.0029040446
0.0044881174
0.0049868692
0.0047005537
-0.0060209685
-0.0060778069
-0.0052487238
-0.0039794179
-0.0025804115
-0.0011195049
0.00046101722
0.0020598318
0.0034059587
0.0042920353
-0.0040668013
-0.0032338369
-0.0019739871
-0.00019002487
0.0015185382
0.0028514039
0.0038773285
0.0046220053
0.0050431087
0.0050578216
-0.0015931701
-0.0013665534
-0.0010845828
0.00047568703
0.0024111744
0.0036550238
0.0041817758
0.0040781822
0.0034821247
0.002553719
-0.00052190304
2.0814735e-05
-0.0011940034
-0.00095247984
0.00088882124
0.0019924616
0.0020546014
0.0012928105
0.000395587
0.00033959488
-0.0014135839
0.0013592496
0.00075610878
-0.00043271111
0.00096854507
0.0017994924
0.0014043614
0.0002750291
0.00045114577
0.00050778633
-0.0013345153
0.00070994734
0.0010023166
0.00015694103
0.00071600104
0.0010430176
0.00073071398
0.00011461192
0.00067472185
0.00017125246
0.0016007784
-0.0013098756
0.0025494681
-0.00024171515
-0.000728082
-0.00017574946
0.00034673342
6.1650709e-05
0.00093056281
0.0033926902
0.00036583361
0.0013145233
0.0031804513
-0.00051865576
-0.00075935803
0.00061221411
0.0018843016
0.0012021604
0.0010168842
0.003882546
0.0040503112
0.0051184717
0.0022171322
0.0012921844
0.0021103261
0.0039126365
0.0058425154
0.0061351741
0.0046707505
0.0041148213
0.001932061
-0.001345489
-0.0020077483
-0.0014522951
-0.00011858695
0.0017947446
0.0040950508
0.0059585672
0.0065141419
0.0061824579
-0.0063346169
-0.0062686512
-0.005203747
-0.0036481991
-0.0019567073
-0.00020209477
0.0016799386
0.0035452217
0.0050660888
0.0060220855
-0.0039469352
-0.0028721198
-0.0013032756
0.00086006954
0.0029103622
0.0044967155
0.0056912481
0.006506102
0.0068795615
0.0067204779
-0.0013558674
-0.0011184672
-0.00076592112
0.0011040704
0.0033979016
0.0048513868
0.0054072881
0.0051427221
0.0042251859
0.0028828441
-0.00043425604
0.00014957336
-0.0013016734
-0.0010221915
0.0011174176
0.0023639586
0.0023057311
0.0011818564
-3.9076679e-05
0.00015441162
-0.0016489842
0.0016820553
0.0010314015
-0.00033829747
0.0012552922
0.0021385664
0.001469668
-0.00012131166
0.00044222321
0.00068335165
-0.0016050823
0.00085704515
0.0012605796
0.00030111596
0.0009288956
0.0012571127
0.00076981194
-8.5229105e-05
0.00096330023
0.00015589935
0.0017046491
-0.0014818478
0.0027342298
-0.00032272115
-0.00081462132
-0.00013324257
0.00049743951
0.00011385009
0.0011181873
0.003974967
0.00038173871
0.0014113194
0.003463935
-0.00056116955
-0.00073245661
0.00092428961
0.0024470734
0.0015857511
0.00138032
0.0047424429
0.0046438811
0.0058030077
0.0026713921
0.0017234449
0.0027259806
0.0048528676
0.0071213244
0.0074284738
0.0057382243
0.0051692229
0.0025070912
-0.0010417599
-0.0016893004
-0.00098717136
0.00058603735
0.0028194179
0.0054903946
0.0076119772
0.0082092459
0.0078222625
-0.0063534297
-0.0061639511
-0.0048679705
-0.0030345284
-0.0010613813
0.00097349685
0.0031399849
0.0052503812
0.0069239414
0.007931776
-0.003533234
-0.0022211732
-0.00035370392
0.0021741706
0.0045506533
0.0063755368
0.0077228009
0.0085892296
0.0088936707
0.0085398093
-0.00086538737
-0.00061829472
-0.00020392586
0.0019573115
0.0045886335
0.0062341959
0.0068023263
0.0063557937
0.0050877317
0.0032948054
-0.00017199061
0.00044875717
-0.001238744
-0.00093434294
0.0014801073
0.0028496135
0.0026509771
0.001135019
-0.0004517319
-2.8039373e-05
-0.0017706311
0.0020904859
0.0013860607
-0.000168765
0.001596346
0.0025126298
0.0015469257
-0.00054835855
0.00038386731
0.00082629054
-0.0018245233
0.0010322564
0.0015375996
0.00046325509
0.0011506161
0.0014710897
0.00079675475
-0.00032183667
0.0012204473
0.00012058657
0.0018330123
-0.0016109863
0.0029390429
-0.00036640528
-0.00086116603
-5.4758954e-05
0.00068019973
0.0001988564
0.0013316111
0.004563565
0.00048867262
0.0015947033
0.003824194
-0.0005035676
-0.00060430289
0.0013278604
0.003091243
0.002051138
0.0018226844
0.0056555106
0.0053507037
0.0065952848
0.0032524329
0.002287965
0.0034695844
0.0059082357
0.0084998298
0.0088135049
0.006900807
0.0063150973
0.0032415214
-0.00055868762
-0.0011869756
-0.00034153606
0.0014619177
0.0040010252
0.0070241489
0.0093855618
0.010014243
0.0095678864
-0.0061429971
-0.0058313507
-0.004311569
-0.00221108
3.0992243e-05
0.002331657
0.0047657793
0.0071027436
0.0089120961
0.0099598391
-0.0029003152
-0.0013589495
0.00079523063
0.003671296
0.0063574619
0.008406083
0.0098922089
0.010796811
0.011020222
0.010463537
-0.00018725768
6.6357683e-05
0.00053601988
0.0029716268
0.0059205565
0.0077427134
0.0083112842
0.0076728054
0.0060442423
0.0037900857
0.00022868106
0.00088009246
-0.0010398775
-0.00071893035
0.0019502168
0.0034273864
0.0030782295
0.0011603445
-0.00080845135
-0.0001727942
-0.0018007647
0.0025639439
0.001803608
6.5536396e-05
0.0019859326
0.0029226319
0.0016526587
-0.00096008781
0.00031951999
0.00096030452
-0.0020058632
0.0012260907
0.0018269631
0.000640381
0.0013806063
0.0016881241
0.00082392151
-0.00056603255
0.0014595787
7.4751979e-05
0.0019771302
-0.0017053406
0.0031531968
-0.00038222878
-0.00087720163
4.949785e-05
0.00088419688
0.00030681082
0.0015607361
0.0051485805
0.00066371129
0.0018397779
0.0042339824
-0.0003720475
-0.00040185055
0.001794354
0.0037872531
0.0025715149
0.0023187174
0.0065981222
0.0061323665
0.0074554782
0.0039205411
0.002945116
0.0042988791
0.0070346752
0.00993302
0.010247937
0.008119802
0.0075174939
0.0040871533
5.6754806e-05
-0.00054867968
0.00043509285
0.0024578184
0.0052867748
0.0086425736
0.011226824
0.011879416
0.011373036
-0.0057553312
-0.0053236046
-0.0035889297
-0.0012340454
0.0012627522
0.0038138058
0.0064985661
0.0090447974
0.010975525
0.012054152
-0.0021065368
-0.00034513828
0.0020825669
0.0052890027
0.0082673221
0.010524817
0.01213714
0.013069569
0.013205033
0.012443931
0.00062337228
0.00088068525
0.0014005332
0.004093947
0.0073405824
0.0093249386
0.0098853344
0.0090513781
0.0070628028
0.0043508076
0.00072917477
0.001405714
-0.00073936096
-0.00040750408
0.002497481
0.0040694543
0.0035653741
0.0012469228
-0.0011050398
-0.00026990961
-0.0017605015
0.0030812681
0.0022661057
0.00035082516
0.0024123176
0.0033601799
0.0017866805
-0.0013403905
0.00026984806
0.0011016094
-0.0021564663
0.0014313781
0.0021229385
0.00082907003
0.0016165588
0.0019076977
0.00085545693
-0.00080429751
0.0016905871
2.7463851e-05
0.0021287407
-0.0017715394
0.0033680078
-0.00037743998
-0.0008699013
0.0001717461
0.0011011969
0.00043033044
0.0017978995
0.0057211415
0.0008868179
0.0021260849
0.0046715327
-0.00018678735
-0.00014569219
0.0023017796
0.004512163
0.0031259093
0.0028486569
0.0075496453
0.0069572298
0.0083513292
0.0046443575
0.0036633235
0.0051811506
0.0081978857
0.011385392
0.011697622
0.0093637371
0.0087467096
0.0050058598
0.00076795077
0.00018863498
0.0013047439
0.0035344749
0.0066360206
0.010303823
0.01309402
0.013764436
0.013199185
-0.0052296706
-0.0046804845
-0.0027411037
-0.0001459222
0.0025901731
0.0053753374
0.0082932524
0.011031715
0.013070385
0.014172102
-0.0011953074
0.00077579082
0.0034625478
0.0069800321
0.010231896
0.012683111
0.014409587
0.015361251
0.01540472
0.014441039
0.0015253101
0.0017838945
0.0023494399
0.0052836303
0.0088074393
0.010940008
0.011485579
0.01045662
0.0081146038
0.0049557274
0.001298883
0.0019955855
-0.00036462312
-2.6069175e-05
0.0030959901
0.0047510631
0.0040911233
0.001380088
-0.0013477289
-0.00032198479
-0.0016660246
0.0036247865
0.0027577114
0.00067387455
0.0028628758
0.0038142615
0.0019426636
-0.0016866315
0.00024059083
0.0012558697
-0.0022806678
0.0016425742
0.0024203205
0.0010255467
0.001855069
0.0021272642
0.00089138746
-0.0010316122
0.0019171315
-1.6333358e-05
0.0022818726
-0.0018140156
0.0035771568
-0.00035696698
-0.00084413015
0.00030651365
0.0013252614
0.00056416368
0.0020373768
0.00627381
0.0011432226
0.0024385068
0.0051206667
3.7689463e-05
0.00014932158
0.0028339418
0.005248748
0.0036985524
0.0033974376
0.0084931475
0.0078005963
0.009257645
0.005399779
0.0044185231
0.0060914126
0.0093714039
0.012829155
0.013135464
0.010607503
0.0099784569
0.0059679329
0.001546646
0.00099658774
0.0022382796
0.0046616628
0.0080172394
0.011975044
0.014953841
0.015636691
0.015014718
-0.0045956554
-0.0039321747
-0.001799403
0.001020706
0.0039795568
0.0069816642
0.010114562
0.013027955
0.015161362
0.016278836
-0.0001992902
0.0019701014
0.0049001362
0.0087078434
0.012213518
0.014842848
0.016671661
0.01763497
0.017584123
0.016421819
0.0024877985
0.0027454485
0.003352409
0.0065095087
0.01028901
0.0125558
0.013081132
0.011860326
0.0091753961
0.0055852276
0.0019145193
0.0026266346
6.3208848e-05
0.00040498276
0.0037248554
0.0054517831
0.0046373178
0.0015460477
-0.0015452523
-0.00033629893
-0.0015297113
0.004179935
0.0032648838
0.0010229278
0.003325761
0.0042738085
0.0021126108
-0.0020012898
0.00023026424
0.0014219925
-0.0023814839
0.0018549493
0.0027142261
0.0012259035
0.0020922531
0.0023433771
0.00092994963
-0.0012467914
0.002138903
-5.5063086e-05
0.0024321439
-0.0018357725
0.0037758803
-0.00032426789
-0.00080330385
0.00044978023
0.001551893
0.00070441441
0.0022747104
0.0068002901
0.0014219436
0.00276568
0.0055690676
0.00029065789
0.00047216098
0.0033784998
0.0059836051
0.004277253
0.003953292
0.0094146854
0.0086429834
0.010154488
0.0061679613
0.005191989
0.0070101143
0.010534261
0.014241969
0.014539528
0.011830763
0.011192828
0.0069498931
0.002370709
0.0018529865
0.003212862
0.0058155474
0.0094053294
0.013629743
0.016779084
0.017469329
0.01679344
-0.0038761265
-0.0031020783
-0.00078828449
0.0022401939
0.0054041829
0.0086051421
0.011934031
0.015004518
0.017219334
0.01834538
0.00085621708
0.003211414
0.0063676612
0.010443269
0.014181857
0.016973117
0.018892431
0.019860376
0.01971406
0.018358655
0.0034871869
0.003741821
0.00438594
0.0077470876
0.011759694
0.014146463
0.014646953
0.013239425
0.010225041
0.0062225358
0.002558159
0.0032809763
0.00052784594
0.0008697703
0.0043674318
0.0061550732
0.0051890604
0.001733161
-0.0017058058
-0.00032088301
-0.0013611227
0.004734753
0.0037763098
0.001388053
0.0037906663
0.0047289158
0.0022889453
-0.0022879735
0.00023490122
0.0015959576
-0.0024611477
0.002064432
0.0030002456
0.0014264963
0.0023243569
0.0025525427
0.00096895276
-0.0014499627
0.0023538756
-8.8906313e-05
0.0025761456
-0.0018389685
0.003960402
-0.00028191226
-0.00074996805
0.00059840888
0.0017774829
0.00084803296
0.0025062748
0.0072951432
0.0017144789
0.0030987352
0.0060069993
0.00056386264
0.00081426701
0.0039256215
0.0067058457
0.004852213
0.00450672
0.010302549
0.0094686618
0.011025718
0.0069337892
0.0059687292
0.0079214844
0.011669313
0.015605321
0.015891565
0.013016659
0.012373224
0.0079327973
0.0032224273
0.002740065
0.0042101225
0.0069768054
0.010779717
0.015245931
0.01854695
0.019239742
0.01851325
-0.0030891181
-0.002208797
0.00027264074
0.0034917866
0.0068422353
0.010222998
0.013727988
0.016937061
0.019219683
0.020347157
0.0019510332
0.0044784841
0.0078426119
0.012162321
0.016111737
0.019048074
0.021045876
0.022011797
0.021769742
0.020228079
0.0045047144
0.0047543385
0.0054313059
0.008976591
0.013198539
0.015690654
0.016162262
0.014574716
0.011246757
0.0068536762
0.003215711
0.0039445029
0.0010165852
0.0013558407
0.0050103964
0.0068475356
0.0057342619
0.0019320303
-0.0018361114
-0.00028292812
-0.0011676636
0.0052794466
0.0042826726
0.0017611055
0.004248972
0.0051712015
0.0024652539
-0.0025498385
0.00025029547
0.0017730822
-0.0025212803
0.0022675882
0.0032745489
0.0016241533
0.0025480567
0.0027516277
0.0010063938
-0.0016414528
0.0025595771
-0.0001186661
0.0027111089
-0.0018252412
0.0041276244
-0.00023190208
-0.00068612011
0.00074983106
0.0019990056
0.0009925263
0.0027290204
0.0077535916
0.0020140075
0.003430523
0.0064265306
0.00085071025
0.001168734
0.0044671739
0.0074063091
0.0054152862
0.0050498148
0.011146697
0.010264648
0.011857988
0.0076848356
0.0067364114
0.0088124388
0.012762148
0.01690346
0.017176029
0.01415089
0.013505529
0.008901038
0.0040872934
0.0036432413
0.0052148966
0.0081293468
0.012123089
0.016804895
0.020237892
0.020928496
0.020155145
-0.002249247
-0.0012675139
0.0013672166
0.0047582232
0.008275409
0.011815961
0.015476228
0.01880466
0.021141151
0.022262916
0.0030686067
0.0057537324
0.0093061818
0.013844754
0.01798173
0.021045572
0.023109579
0.024067031
0.023729709
0.022009832
0.005525081
0.0057677762
0.0064731932
0.010181657
0.014587996
0.017170356
0.017609455
0.015849952
0.012226436
0.00746707
0.003875857
0.0046058718
0.0015193627
0.0018533012
0.0056429641
0.0075182244
0.0062630943
0.0021352054
-0.0019413314
-0.00022834334
-0.00095509412
0.0058059711
0.0047763169
0.0021354706
0.0046935703
0.0055937264
0.0026363708
-0.0027891558
0.00027282198
0.0019490219
-0.0025630121
0.0024615591
0.0035338704
0.0018161981
0.0027605193
0.0029379633
0.0010406414
-0.0018214025
0.0027536295
-0.00014520261
0.0028347265
-0.0017958949
0.0042749577
-0.00017585772
-0.00061339697
0.00090186396
0.0022138435
0.0011357859
0.0029403173
0.0081713897
0.0023148964
0.0037551276
0.0068210492
0.0011457611
0.0015297977
0.0049962223
0.0080770778
0.0059595098
0.0055758221
0.011938363
0.011020015
0.012640052
0.008410648
0.0074846341
0.0096718513
0.013800377
0.018122712
0.018379415
0.015221088
0.014577508
0.009841487
0.0049531324
0.0045502354
0.0062143356
0.0092594336
0.01342053
0.018290374
0.021834833
0.0225186
0.021702521
-0.0013687057
-0.00029098404
0.0024817556
0.006024759
0.0096879498
0.013367325
0.017161124
0.020588969
0.022965058
0.024073987
0.0041949924
0.0070222329
0.010742272
0.015473093
0.019773213
0.022946268
0.02506388
0.026006568
0.025575112
0.023686192
0.0065354889
0.0067694109
0.0074987764
0.011348449
0.015913079
0.018570092
0.018973379
0.017051193
0.013152102
0.0080530941
0.0045293074
0.0052557812
0.0020280518
0.0023541574
0.0062562778
0.0081580915
0.0067675098
0.0023368144
-0.0020252751
-0.00016179241
-0.00072794626
0.0063076575
0.0052509065
0.0025057505
0.0051185947
0.0059907687
0.0027982196
-0.0030073306
0.00029961284
0.0021200828
-0.0025871052
0.0026439672
0.0037754353
0.0020003873
0.0029593563
0.0031093166
0.0010704372
-0.0019896915
0.0029339199
-0.00016922147
0.0029450436
-0.0017520225
0.0044002114
-0.00011513802
-0.00053319658
0.0010525942
0.0024196759
0.0012759773
0.0031378534
0.008544742
0.0026123703
0.0040675381
0.0071849384
0.0014443872
0.0018924941
0.005506701
0.008711164
0.0064787951
0.0060788419
0.012669784
0.011725398
0.013362282
0.009102247
0.0082044209
0.010490054
0.014773144
0.019251019
0.019489822
0.016216391
0.015578396
0.010742875
0.0058094671
0.0054504308
0.0071972736
0.010355059
0.014658926
0.01968799
0.023322637
0.023994994
0.023140669
-0.00045798932
0.00070974286
0.0036043246
0.0072784662
0.011065977
0.01486231
0.018767018
0.022273652
0.024674764
0.025763763
0.0053181201
0.0082709925
0.01213679
0.017031958
0.021469721
0.024732998
0.026891299
0.027813049
0.027289206
0.025241495
0.0075249723
0.0077483555
0.0084970664
0.012465033
0.017160778
0.019876374
0.020240828
0.018166347
0.014013491
0.0086036952
0.0051682678
0.0058864453
0.0025359456
0.0028518172
0.0068429492
0.0087595639
0.007240856
0.0025322264
-0.0020906705
-8.6888392e-05
-0.00048985668
0.0067789081
0.005701132
0.0028674826
0.0055191638
0.0063575936
0.00294761
-0.0032050579
0.00032849516
0.0022832349
-0.0025940654
0.0028128233
0.0039968765
0.0021748287
0.003142552
0.0032638272
0.0010948411
-0.0021459685
0.0030986232
-0.00019122884
0.0030403837
-0.0016945926
0.0045015239
-5.0923814e-05
-0.00044676206
0.0012002988
0.0026144052
0.0014114648
0.0033195663
0.008870251
0.002902276
0.0043634161
0.0075133518
0.0017425324
0.0022524217
0.0059931889
0.0093022989
0.0069677161
0.006553622
0.013334021
0.012372654
0.014016323
0.0097517704
0.0088878617
0.011258487
0.015670801
0.020277632
0.020496654
0.017127142
0.016498602
0.011595342
0.0066470559
0.0063344118
0.0081537722
0.011405508
0.015826548
0.020984863
0.024687748
0.025344205
0.024456439
0.00047356807
0.0017247907
0.0047242245
0.0085077298
0.012397
0.016287597
0.020279788
0.023843982
0.026255293
0.02731733
0.0064272654
0.0094884326
0.013477143
0.018507578
0.023056497
0.026390366
0.028576147
0.029470904
0.02885701
0.026661784
0.0084839162
0.0086950822
0.0094584435
0.013520935
0.018319644
0.02107732
0.021400182
0.019184828
0.014801728
0.0091120732
0.005786051
0.0064912122
0.0030373741
0.0033407213
0.0073967164
0.0093162266
0.0076775799
0.0027177728
-0.0021394223
-6.4155625e-06
-0.00024382309
0.0072149631
0.0061224814
0.0032169119
0.0058911726
0.0066902598
0.0030820527
-0.0033824954
0.00035786435
0.0024360227
-0.0025842353
0.0029664494
0.0041961634
0.0023379102
0.0033083973
0.0033999465
0.0011131712
-0.0022897081
0.0032461779
-0.00021154976
0.0031192967
-0.001624513
0.0045773128
1.5722888e-05
-0.00035524132
0.0013433914
0.0027961077
0.0015407598
0.0034835977
0.009144886
0.0031809138
0.0046389299
0.0078020556
0.0020365415
0.0026055744
0.0064507547
0.0098447897
0.0074213644
0.0069954149
0.013924831
0.012954607
0.014594843
0.010352219
0.0095278595
0.011969457
0.016484678
0.021192904
0.021390421
0.017944687
0.017329509
0.012390109
0.007457555
0.0071936279
0.0090747935
0.012401046
0.016912757
0.022169337
0.025917934
0.026554107
0.025637997
0.0014173969
0.0027450654
0.0058316101
0.0097018835
0.013669574
0.017631005
0.021686553
0.025286564
0.027693071
0.028721217
0.0075126625
0.010664011
0.014751878
0.019887458
0.024520169
0.027904437
0.030104242
0.030966089
0.030265054
0.027934568
0.0094037078
0.0096010762
0.010374317
0.014506819
0.019379494
0.022162378
0.022441147
0.020097316
0.015509083
0.0095724293
0.0063767925
0.0070642826
0.0035274177
0.0038160659
0.0079121873
0.0098225839
0.0080729989
0.0028905206
-0.0021728345
7.746654e-05
7.6001219e-06
0.0076117263
0.006511067
0.0035508146
0.0062311299
0.0069854675
0.0031996083
-0.0035394197
0.00038655432
0.002576456
-0.0025578691
0.0031034192
0.0043715473
0.0024882411
0.0034554371
0.0035163874
0.0011249509
-0.0024202666
0.0033752519
-0.00023036494
0.0031805225
-0.0015426782
0.0046262431
8.3816017e-05
-0.0002597298
0.0014803841
0.0029630005
0.0016624842
0.0036282621
0.0093659678
0.003444914
0.0048906345
0.0080473174
0.0023230369
0.0029482216
0.0068748503
0.010333425
0.0078352483
0.0073998773
0.014436591
0.013464874
0.015091368
0.010897276
0.01011795
0.012615968
0.017206929
0.021988145
0.022162603
0.018661236
0.018063331
0.013119245
0.0082332723
0.0080201495
0.0099519639
0.01333269
0.0179078
0.023230797
0.02700212
0.027613751
0.02667466
0.0023653975
0.0037619656
0.0069172109
0.010850944
0.014873047
0.018881264
0.022975456
0.026589142
0.028975742
0.029963219
0.0085652191
0.011787949
0.015950422
0.021160127
0.025848529
0.029262535
0.031462727
0.03228591
0.031501205
0.02904864
0.010276479
0.010458579
0.011236877
0.015414253
0.020331197
0.023122131
0.023354572
0.020895566
0.016128783
0.0099797646
0.0069352387
0.0076005003
0.0040016913
0.0042735907
0.0083846452
0.010273877
0.0084231227
0.0030480888
-0.0021918001
0.0001630462
0.00026215117
0.0079656347
0.0068634935
0.0038663627
0.0065360329
0.0072404396
0.0032987635
-0.003675362
0.00041372091
0.0027029053
-0.0025151925
0.0032225132
0.0045215209
0.0026246082
0.0035824293
0.0036120846
0.0011298649
-0.0025369339
0.0034847112
-0.00024774945
0.0032229662
-0.0014500044
0.0046472041
0.00015241427
-0.00016130148
0.0016098617
0.0031134193
0.0017753452
0.0037520261
0.0095311616
0.0036911471
0.005115385
0.0082458263
0.0025988292
0.003276823
0.0072612363
0.010763408
0.0082052224
0.0077629983
0.014864237
0.013897735
0.015500153
0.011381179
0.010652174
0.013191595
0.017830429
0.022655541
0.022805562
0.019269762
0.018693019
0.013775491
0.0089669858
0.0088064881
0.010777402
0.014192059
0.018802665
0.024159542
0.027930277
0.028513263
0.027556788
0.0033097179
0.0047671653
0.0079721249
0.01194542
0.015997388
0.020027846
0.024135519
0.02774046
0.030092047
0.03103227
0.0095763047
0.012851025
0.01706289
0.022314971
0.027030373
0.030453102
0.032639931
0.033418894
0.032554545
0.029993954
0.011094915
0.011260399
0.012038901
0.016235531
0.021166513
0.023948145
0.024132305
0.021572269
0.016654859
0.010329717
0.0074565843
0.0080951911
0.0044561745
0.0047094126
0.0088098952
0.010665941
0.0087245084
0.003188495
-0.0021969641
0.00024890709
0.00051774212
0.0082735586
0.0071767568
0.0041610155
0.0068032678
0.0074528263
0.0033783278
-0.0037897254
0.00043873993
0.0028140096
-0.0024564515
0.003322684
0.0046447873
0.0027459405
0.0036883123
0.0036861636
0.0011277218
-0.0026389784
0.003573593
-0.00026370882
0.0032456787
-0.0013474567
0.0046392941
0.00022059748
-6.1032179e-05
0.0017304635
0.003245804
0.001878116
0.0038534941
0.0096384761
0.0039166551
0.0053102705
0.008394635
0.0028608493
0.0035879637
0.0076059283
0.011130317
0.0085274365
0.0080810478
0.015203237
0.014248038
0.015816092
0.011798617
0.011124978
0.013690401
0.018348693
0.023188081
0.023312479
0.019763937
0.019212189
0.014352132
0.0096518053
0.0095454603
0.011543589
0.014971243
0.019588974
0.024946693
0.028693336
0.029243758
0.028275701
0.0042425817
0.0057524478
0.0089876607
0.012976162
0.017033046
0.021060848
0.025156533
0.028730168
0.031031728
0.031918361
0.010537586
0.013844422
0.018079939
0.023342102
0.028055389
0.031465589
0.033625279
0.034354704
0.033415279
0.030761522
0.011852103
0.011999755
0.012773611
0.016963542
0.021877972
0.024632861
0.024767088
0.022120938
0.017082025
0.010618421
0.0079363435
0.0085440336
0.0048870744
0.0051198893
0.009184139
0.010995085
0.0089741399
0.0033100219
-0.0021888676
0.00033379315
0.0007723609
0.008532721
0.0074481612
0.0044324307
0.0070305264
0.0076206242
0.0034373443
-0.0038818921
0.00046111554
0.0029085934
-0.0023819539
0.0034030281
0.004740235
0.0028512804
0.0037721783
0.0037379132
0.0011184211
-0.0027256902
0.0036410819
-0.00027821227
0.0032478421
-0.0012360712
0.004601807
0.00028744716
3.9981719e-05
0.0018408683
0.0033586873
0.0019696212
0.0039313972
0.0096862643
0.0041185956
0.0054725605
0.0084911103
0.0031060927
0.003878303
0.0079051558
0.011430066
0.0087982946
0.0083505332
0.015449556
0.014511125
0.016034643
0.012144657
0.011531137
0.014106864
0.018755819
0.023579517
0.023677308
0.020138069
0.019615065
0.014842883
0.010281058
0.010230076
0.012243265
0.015662717
0.020258902
0.025584123
0.029283128
0.029797282
0.028823614
0.0051561463
0.0067095675
0.0099552094
0.013934249
0.017970846
0.021970894
0.026028973
0.029548743
0.031785458
0.032612461
0.011440893
0.014759599
0.018992657
0.024232252
0.028914063
0.032290379
0.03440921
0.035084063
0.034074663
0.031343336
0.012541406
0.012670159
0.013434545
0.017591649
0.022458771
0.025169498
0.025252456
0.022535811
0.017405566
0.010842384
0.0083702387
0.0089429486
0.0052907057
0.0055014999
0.0095038646
0.011257985
0.0091693177
0.003411095
-0.0021680827
0.00041648339
0.0010239856
0.0087406287
0.0076752473
0.0046783857
0.0072157332
0.007742104
0.0034750064
-0.0039513227
0.00048039479
0.0029855906
-0.0022921059
0.0034627612
0.0048069171
0.002939758
0.0038332491
0.0037667616
0.0011019221
-0.0027964201
0.0036864882
-0.00029122432
0.0032287548
-0.0011169751
0.0045342193
0.00035202858
0.00014060612
0.0019397822
0.0034506854
0.0020487228
0.0039845824
0.0096732242
0.0042941889
0.0055996534
0.0085328876
0.0033315681
0.0041445262
0.008155323
0.011658878
0.0090144164
0.0085681592
0.015599636
0.014682751
0.016151754