/*--------------------------------*- C++ -*----------------------------------*\
| =========                 |                                                 |
| \\      /  F ield         | OpenFOAM: The Open Source CFD Toolbox           |
|  \\    /   O peration     | Version:  v2106                                 |
|   \\  /    A nd           | Website:  www.openfoam.com                      |
|    \\/     M anipulation  |                                                 |
\*---------------------------------------------------------------------------*/
FoamFile
{
    version     2.0;
    format      ascii;
    arch        "LSB;label=32;scalar=64";
    class       volScalarField;
    location    "10";
    object      laplacianT;
}
// * * * * * * * * * * * * * * * * * * * * * * * * * * * * * * * * * * * * * //

dimensions      [0 -2 0 1 0 0 0];

internalField   nonuniform List<scalar> 
4000
(
-70.405551
-70.511966
-71.206595
-70.276712
-70.550957
-70.643722
-70.653208
-70.640242
-70.634383
-70.643869
-70.511966
-71.48341
-70.764749
-70.490924
-70.794684
-70.870011
-70.859388
-70.832626
-70.817847
-70.740113
-71.206595
-70.764749
-70.853954
-70.554765
-70.824026
-70.88483
-70.869528
-70.858125
-70.898919
-70.80966
-70.276712
-70.490924
-70.554765
-70.229195
-70.48481
-70.536329
-70.505598
-70.47616
-70.545525
-70.603291
-70.550957
-70.794684
-70.824026
-70.48481
-70.736456
-70.786503
-70.748733
-70.694525
-70.713731
-70.703156
-70.643722
-70.870011
-70.88483
-70.536329
-70.786503
-70.83832
-70.802174
-70.747506
-70.76091
-70.732294
-70.653208
-70.859388
-70.869528
-70.505598
-70.748733
-70.802174
-70.767576
-70.714361
-70.729329
-70.701734
-70.640242
-70.832626
-70.858125
-70.47616
-70.694525
-70.747506
-70.714361
-70.662754
-70.680658
-70.661366
-70.634383
-70.817847
-70.898919
-70.545525
-70.713731
-70.76091
-70.729329
-70.680658
-70.704988
-70.700974
-70.643869
-70.740113
-70.80966
-70.603291
-70.703156
-70.732294
-70.701734
-70.661366
-70.700974
-70.708688
-211.41879
-211.31306
-212.40867
-210.83291
-211.40184
-211.5933
-211.60135
-211.565
-211.57474
-211.65124
-211.31306
-212.33135
-211.41789
-210.96391
-211.56188
-211.70351
-211.66556
-211.60768
-211.53996
-211.37796
-212.40867
-211.41789
-211.72354
-211.20781
-211.73735
-211.8468
-211.79742
-211.80337
-211.90243
-211.69397
-210.83291
-210.96391
-211.20781
-210.64462
-211.14887
-211.2357
-211.14248
-211.10389
-211.2825
-211.3937
-211.40184
-211.56188
-211.73735
-211.14887
-211.64665
-211.73
-211.61665
-211.51504
-211.58092
-211.55169
-211.5933
-211.70351
-211.8468
-211.2357
-211.73
-211.81759
-211.70713
-211.60155
-211.64937
-211.57401
-211.60135
-211.66556
-211.79742
-211.14248
-211.61665
-211.70713
-211.60026
-211.49799
-211.54932
-211.48328
-211.565
-211.60768
-211.80337
-211.10389
-211.51504
-211.60155
-211.49799
-211.40096
-211.46364
-211.43864
-211.57474
-211.53996
-211.90243
-211.2825
-211.58092
-211.64937
-211.54932
-211.46364
-211.55377
-211.57836
-211.65124
-211.37796
-211.69397
-211.3937
-211.55169
-211.57401
-211.48328
-211.43864
-211.57836
-211.51692
-351.14545
-350.47443
-351.71983
-349.92159
-350.71086
-350.96019
-350.94641
-350.87817
-350.8624
-351.20526
-350.47443
-351.66465
-350.55521
-350.11151
-350.91787
-351.08577
-351.01314
-350.98201
-350.76378
-350.53159
-351.71983
-350.55521
-350.87536
-350.3441
-351.05787
-351.17158
-351.06392
-351.15855
-351.28607
-351.02272
-349.92159
-350.11151
-350.3441
-349.75218
-350.43357
-350.51211
-350.32408
-350.32903
-350.55193
-350.69325
-350.71086
-350.91787
-351.05787
-350.43357
-351.10827
-351.18284
-350.9636
-350.87313
-350.9336
-350.8772
-350.96019
-351.08577
-351.17158
-350.51211
-351.18284
-351.26407
-351.04851
-350.95026
-350.98157
-350.86053
-350.94641
-351.01314
-351.06392
-350.32408
-350.9636
-351.04851
-350.83815
-350.74517
-350.78362
-350.69731
-350.87817
-350.98201
-351.15855
-350.32903
-350.87313
-350.95026
-350.74517
-350.66388
-350.731
-350.74848
-350.8624
-350.76378
-351.28607
-350.55193
-350.9336
-350.98157
-350.78362
-350.731
-350.86703
-350.91075
-351.20526
-350.53159
-351.02272
-350.69325
-350.8772
-350.86053
-350.69731
-350.74848
-350.91075
-350.84248
-488.03473
-487.11076
-488.61731
-486.55257
-487.51727
-487.80846
-487.77117
-487.69412
-487.59209
-488.12511
-487.11076
-488.44983
-487.2447
-486.75383
-487.72688
-487.89964
-487.78327
-487.85503
-487.5213
-487.21903
-488.61731
-487.2447
-487.67262
-487.07692
-487.93821
-488.03535
-487.84905
-488.08351
-488.22054
-487.83636
-486.55257
-486.75383
-487.07692
-486.41069
-487.23434
-487.28602
-486.98652
-487.09696
-487.35835
-487.46412
-487.51727
-487.72688
-487.93821
-487.23434
-488.05129
-488.09842
-487.75641
-487.74122
-487.79733
-487.66133
-487.80846
-487.89964
-488.03535
-487.28602
-488.09842
-488.15417
-487.81577
-487.78813
-487.80414
-487.59214
-487.77117
-487.78327
-487.84905
-486.98652
-487.75641
-487.81577
-487.48335
-487.46263
-487.49121
-487.35329
-487.69412
-487.85503
-488.08351
-487.09696
-487.74122
-487.78813
-487.46263
-487.46335
-487.54926
-487.60204
-487.59209
-487.5213
-488.22054
-487.35835
-487.79733
-487.80414
-487.49121
-487.54926
-487.765
-487.62625
-488.12511
-487.21903
-487.83636
-487.46412
-487.66133
-487.59214
-487.35329
-487.60204
-487.62625
-487.63209
-621.20944
-620.20022
-621.93582
-619.5942
-620.71296
-621.03383
-620.96521
-620.9068
-620.78366
-621.48524
-620.20022
-621.74754
-620.43205
-619.87398
-620.99324
-621.15452
-620.96808
-621.14526
-620.73573
-620.38051
-621.93582
-620.43205
-620.94616
-620.26923
-621.26038
-621.32802
-621.04062
-621.42223
-621.59603
-621.10953
-619.5942
-619.87398
-620.26923
-619.51326
-620.46217
-620.47481
-620.04293
-620.27174
-620.60276
-620.69018
-620.71296
-620.99324
-621.26038
-620.46217
-621.40447
-621.41188
-620.92601
-621.00033
-621.0866
-620.89293
-621.03383
-621.15452
-621.32802
-620.47481
-621.41188
-621.42947
-620.94641
-621.00281
-621.03787
-620.76024
-620.96521
-620.96808
-621.04062
-620.04293
-620.92601
-620.94641
-620.46916
-620.53361
-620.58828
-620.4365
-620.9068
-621.14526
-621.42223
-620.27174
-621.00033
-621.00281
-620.53361
-620.63272
-620.78895
-620.95562
-620.78366
-620.73573
-621.59603
-620.60276
-621.0866
-621.03787
-620.58828
-620.78895
-621.18177
-620.79748
-621.48524
-620.38051
-621.10953
-620.69018
-620.89293
-620.76024
-620.4365
-620.95562
-620.79748
-620.88077
-749.98441
-748.89861
-750.83271
-748.2211
-749.48051
-749.82238
-749.70857
-749.65335
-749.51302
-750.35866
-748.89861
-750.63467
-749.2024
-748.5726
-749.82599
-749.96921
-749.69852
-749.96245
-749.4763
-749.06247
-750.83271
-749.2024
-749.78523
-749.02413
-750.13441
-750.16738
-749.76694
-750.28012
-750.48384
-749.89472
-748.2211
-748.5726
-749.02413
-748.17635
-749.24018
-749.20898
-748.63375
-748.96825
-749.36217
-749.42862
-749.48051
-749.82599
-750.13441
-749.24018
-750.29753
-750.26032
-749.61959
-749.77186
-749.8836
-749.63251
-749.82238
-749.96921
-750.16738
-749.20898
-750.26032
-750.23454
-749.59525
-749.72338
-749.77212
-749.42994
-749.70857
-749.69852
-749.76694
-748.63375
-749.61959
-749.59525
-748.96055
-749.09625
-749.17025
-749.00993
-749.65335
-749.96245
-750.28012
-748.96825
-749.77186
-749.72338
-749.09625
-749.2787
-749.50347
-749.81883
-749.51302
-749.4763
-750.48384
-749.36217
-749.8836
-749.77212
-749.17025
-749.50347
-750.10453
-749.47437
-750.35866
-749.06247
-749.89472
-749.42862
-749.63251
-749.42994
-749.00993
-749.81883
-749.47437
-749.6377
-873.40204
-872.23909
-874.35184
-871.4858
-872.87573
-873.23496
-873.07258
-873.0139
-872.85659
-873.83507
-872.23909
-874.14393
-872.59996
-871.90053
-873.27843
-873.40179
-873.04471
-873.38698
-872.82618
-872.35508
-874.35184
-872.59996
-873.24291
-872.40089
-873.62176
-873.6191
-873.10463
-873.74072
-873.97093
-873.28351
-871.4858
-871.90053
-872.40089
-871.46521
-872.63576
-872.56018
-871.84165
-872.275
-872.72719
-872.77318
-872.87573
-873.27843
-873.62176
-872.63576
-873.79997
-873.71758
-872.92233
-873.14692
-873.28146
-872.97587
-873.23496
-873.40179
-873.6191
-872.56018
-873.71758
-873.6477
-872.85223
-873.0462
-873.10574
-872.70217
-873.07258
-873.04471
-873.10463
-871.84165
-872.92233
-872.85223
-872.05959
-872.25963
-872.34849
-872.18195
-873.0139
-873.38698
-873.74072
-872.275
-873.14692
-873.0462
-872.25963
-872.51666
-872.8042
-873.2801
-872.85659
-872.82618
-873.97093
-872.72719
-873.28146
-873.10574
-872.34849
-872.8042
-873.61804
-872.75308
-873.83507
-872.35508
-873.28351
-872.77318
-872.97587
-872.70217
-872.18195
-873.2801
-872.75308
-872.99977
-990.57905
-989.3439
-991.6191
-988.51819
-990.02877
-990.4028
-990.19219
-990.12837
-989.95492
-991.05892
-989.3439
-991.40178
-989.75584
-988.99137
-990.48413
-990.58691
-990.14518
-990.56136
-989.92964
-989.40526
-991.6191
-989.75584
-990.45347
-989.53612
-990.85903
-990.82089
-990.1952
-990.94803
-991.20265
-990.42296
-988.51819
-988.99137
-989.53612
-988.51879
-989.78787
-989.66854
-988.81088
-989.33844
-989.84522
-989.8718
-990.02877
-990.48413
-990.85903
-989.78787
-991.0508
-990.9239
-989.97872
-990.27244
-990.42825
-990.07171
-990.4028
-990.58691
-990.82089
-989.66854
-990.9239
-990.81046
-989.86332
-990.11998
-990.18905
-989.72804
-990.19219
-990.14518
-990.1952
-988.81088
-989.97872
-989.86332
-988.91707
-989.17785
-989.27945
-989.1086
-990.12837
-990.56136
-990.94803
-989.33844
-990.27244
-990.11998
-989.17785
-989.50477
-989.85078
-990.48876
-989.95492
-989.92964
-991.20265
-989.84522
-990.42825
-990.18905
-989.27945
-989.85078
-990.87315
-989.78395
-991.05892
-989.40526
-990.42296
-989.8718
-990.07171
-989.72804
-989.1086
-990.48876
-989.78395
-990.11533
-1100.7143
-1099.4149
-1101.8365
-1098.5224
-1100.1432
-1100.5295
-1100.2721
-1100.203
-1100.0145
-1101.2364
-1099.4149
-1101.6111
-1099.8745
-1099.0505
-1100.6478
-1100.7295
-1100.2062
-1100.6927
-1099.9944
-1099.4208
-1101.8365
-1099.8745
-1100.6219
-1099.6357
-1101.0516
-1100.9784
-1100.2458
-1101.1094
-1101.3864
-1100.5205
-1098.5224
-1099.0505
-1099.6357
-1098.5439
-1099.9028
-1099.7408
-1098.7499
-1099.3673
-1099.9248
-1099.9324
-1100.1432
-1100.6478
-1101.0516
-1099.9028
-1101.2558
-1101.0855
-1099.9969
-1100.357
-1100.5326
-1100.1281
-1100.5295
-1100.7295
-1100.9784
-1099.7408
-1101.0855
-1100.9295
-1099.8372
-1100.154
-1100.2316
-1099.7168
-1100.2721
-1100.2062
-1100.2458
-1098.7499
-1099.9969
-1099.8372
-1098.7437
-1099.0625
-1099.1754
-1099.0016
-1100.203
-1100.6927
-1101.1094
-1099.3673
-1100.357
-1100.154
-1099.0625
-1099.4559
-1099.8567
-1100.6535
-1100.0145
-1099.9944
-1101.3864
-1099.9248
-1100.5326
-1100.2316
-1099.1754
-1099.8567
-1101.0801
-1099.7763
-1101.2364
-1099.4208
-1100.5205
-1099.9324
-1100.1281
-1099.7168
-1099.0016
-1100.6535
-1099.7763
-1100.1914
-1203.0793
-1201.7247
-1204.2762
-1200.7718
-1202.4916
-1202.8878
-1202.5854
-1202.5113
-1202.3089
-1203.64
-1201.7247
-1204.0444
-1202.2291
-1201.3513
-1203.0423
-1203.1025
-1202.5013
-1203.0543
-1202.2941
-1201.6754
-1204.2762
-1202.2291
-1203.0211
-1201.973
-1203.4721
-1203.3646
-1202.5303
-1203.4982
-1203.7955
-1202.8495
-1200.7718
-1201.3513
-1201.973
-1200.8145
-1202.2538
-1202.0503
-1200.9332
-1201.6358
-1202.2398
-1202.2284
-1202.4916
-1203.0423
-1203.4721
-1202.2538
-1203.6875
-1203.4751
-1202.2508
-1202.6744
-1202.8683
-1202.4188
-1202.8878
-1203.1025
-1203.3646
-1202.0503
-1203.4751
-1203.2778
-1202.0481
-1202.4224
-1202.5077
-1201.9426
-1202.5854
-1202.5013
-1202.5303
-1200.9332
-1202.2508
-1202.0481
-1200.8152
-1201.1893
-1201.3123
-1201.1364
-1202.5113
-1203.0543
-1203.4982
-1201.6358
-1202.6744
-1202.4224
-1201.1893
-1201.6458
-1202.098
-1203.0479
-1202.3089
-1202.2941
-1203.7955
-1202.2398
-1202.8683
-1202.5077
-1201.3123
-1202.098
-1203.5133
-1202.0046
-1203.64
-1201.6754
-1202.8495
-1202.2284
-1202.4188
-1201.9426
-1201.1364
-1203.0479
-1202.0046
-1202.501
-1297.0187
-1295.6185
-1298.2823
-1294.6118
-1296.4189
-1296.8221
-1296.4769
-1296.3983
-1296.1833
-1297.6142
-1295.6185
-1298.046
-1296.1643
-1295.239
-1297.012
-1297.0503
-1296.3755
-1296.991
-1296.1741
-1295.5144
-1298.2823
-1296.1643
-1296.9956
-1295.8929
-1297.4649
-1297.3239
-1296.3938
-1297.459
-1297.7743
-1296.7547
-1294.6118
-1295.239
-1295.8929
-1294.6756
-1296.1855
-1295.9421
-1294.7067
-1295.4892
-1296.1354
-1296.105
-1296.4189
-1297.012
-1297.4649
-1296.1855
-1297.6901
-1297.4373
-1296.0859
-1296.5698
-1296.7805
-1296.2887
-1296.8221
-1297.0503
-1297.3239
-1295.9421
-1297.4373
-1297.2002
-1295.8417
-1296.2707
-1296.3629
-1295.7512
-1296.4769
-1296.3755
-1296.3938
-1294.7067
-1296.0859
-1295.8417
-1294.478
-1294.9047
-1295.0367
-1294.8595
-1296.3983
-1296.991
-1297.459
-1295.4892
-1296.5698
-1296.2707
-1294.9047
-1295.4207
-1295.9208
-1297.0167
-1296.1833
-1296.1741
-1297.7743
-1296.1354
-1296.7805
-1296.3629
-1295.0367
-1295.9208
-1297.5176
-1295.8147
-1297.6142
-1295.5144
-1296.7547
-1296.105
-1296.2887
-1295.7512
-1294.8595
-1297.0167
-1295.8147
-1296.3889
-1381.9539
-1380.5176
-1383.2759
-1379.4642
-1381.3462
-1381.7538
-1381.3682
-1381.2855
-1381.0594
-1382.58
-1380.5176
-1383.0369
-1381.1014
-1380.1349
-1381.9779
-1381.9943
-1381.2505
-1381.924
-1381.0561
-1380.3597
-1383.2759
-1381.1014
-1381.9662
-1380.8166
-1382.4509
-1382.2775
-1381.258
-1382.413
-1382.744
-1381.6576
-1379.4642
-1380.1349
-1380.8166
-1379.5489
-1381.1192
-1380.8377
-1379.4926
-1380.3494
-1381.0331
-1380.9837
-1381.3462
-1381.9779
-1382.4509
-1381.1192
-1382.6846
-1382.3931
-1380.9241
-1381.4646
-1381.6904
-1381.1597
-1381.7538
-1381.9943
-1382.2775
-1380.8377
-1382.3931
-1382.1179
-1380.6402
-1381.1207
-1381.219
-1380.5647
-1381.3682
-1381.2505
-1381.258
-1379.4926
-1380.9241
-1380.6402
-1379.1554
-1379.6313
-1379.7711
-1379.5936
-1381.2855
-1381.924
-1382.413
-1380.3494
-1381.4646
-1381.1207
-1379.6313
-1380.203
-1380.7473
-1381.9811
-1381.0594
-1381.0561
-1382.744
-1381.0331
-1381.6904
-1381.219
-1379.7711
-1380.7473
-1382.514
-1380.6289
-1382.58
-1380.3597
-1381.6576
-1380.9837
-1381.1597
-1380.5647
-1379.5936
-1381.9811
-1380.6289
-1381.2766
-1457.3864
-1455.9237
-1458.758
-1454.8306
-1456.7751
-1457.1844
-1456.7611
-1456.6748
-1456.439
-1458.0387
-1455.9237
-1458.5181
-1456.5416
-1455.5406
-1457.4414
-1457.4357
-1456.6283
-1457.3548
-1456.4417
-1455.7131
-1458.758
-1456.5416
-1457.4344
-1456.2456
-1457.9312
-1457.7267
-1456.6251
-1457.8615
-1458.2058
-1457.06
-1454.8306
-1455.5406
-1456.2456
-1454.936
-1456.5562
-1456.2386
-1454.7932
-1455.7181
-1456.4345
-1456.3664
-1456.7751
-1457.4414
-1457.9312
-1456.5562
-1458.1719
-1457.8439
-1456.2675
-1456.8606
-1457.0998
-1456.5337
-1457.1844
-1457.4357
-1457.7267
-1456.2386
-1457.8439
-1457.5327
-1455.9461
-1456.4744
-1456.578
-1455.8853
-1456.7611
-1456.6283
-1456.6251
-1454.7932
-1456.2675
-1455.9461
-1454.3503
-1454.8719
-1455.0186
-1454.8416
-1456.6748
-1457.3548
-1457.8615
-1455.7181
-1456.8606
-1456.4744
-1454.8719
-1455.4952
-1456.0796
-1457.4423
-1456.439
-1456.4417
-1458.2058
-1456.4345
-1457.0998
-1456.578
-1455.0186
-1456.0796
-1458.0038
-1455.9496
-1458.0387
-1455.7131
-1457.06
-1456.3664
-1456.5337
-1455.8853
-1454.8416
-1457.4423
-1455.9496
-1456.666
-1522.9003
-1521.4211
-1524.3129
-1520.2958
-1522.2898
-1522.6981
-1522.2401
-1522.1507
-1521.9068
-1523.5745
-1521.4211
-1524.0738
-1522.0692
-1521.0404
-1522.9863
-1522.9589
-1522.0933
-1522.8678
-1521.9156
-1521.1595
-1524.3129
-1522.0692
-1522.984
-1521.7639
-1523.4898
-1523.2557
-1522.0795
-1523.3887
-1523.744
-1522.5464
-1520.2958
-1521.0404
-1521.7639
-1520.4214
-1522.0807
-1521.7294
-1520.1935
-1521.1799
-1521.9241
-1521.8377
-1522.2898
-1522.9863
-1523.4898
-1522.0807
-1523.7359
-1523.3738
-1521.7009
-1522.3423
-1522.5932
-1521.9952
-1522.6981
-1522.9589
-1523.2557
-1521.7294
-1523.3738
-1523.0289
-1521.3443
-1521.9165
-1522.0246
-1521.298
-1522.2401
-1522.0933
-1522.0795
-1520.1935
-1521.7009
-1521.3443
-1519.6486
-1520.2122
-1520.3645
-1520.189
-1522.1507
-1522.8678
-1523.3887
-1521.1799
-1522.3423
-1521.9165
-1520.2122
-1520.8825
-1521.5028
-1522.9845
-1521.9068
-1521.9156
-1523.744
-1521.9241
-1522.5932
-1522.0246
-1520.3645
-1521.5028
-1523.5707
-1521.3617
-1523.5745
-1521.1595
-1522.5464
-1521.8377
-1521.9952
-1521.298
-1520.189
-1522.9845
-1521.3617
-1522.1416
-1578.1642
-1576.6782
-1579.6086
-1575.5281
-1577.5586
-1577.9634
-1577.4738
-1577.3819
-1577.1313
-1578.8557
-1576.6782
-1579.3721
-1577.3523
-1576.3025
-1578.2809
-1578.2321
-1577.3143
-1578.1312
-1577.1463
-1576.3676
-1579.6086
-1577.3523
-1578.2831
-1577.0399
-1578.7948
-1578.5328
-1577.2901
-1578.6631
-1579.0269
-1577.7853
-1575.5281
-1576.3025
-1577.0399
-1575.6732
-1577.3609
-1576.9783
-1575.3626
-1576.4035
-1577.1704
-1577.0661
-1577.5586
-1578.2809
-1578.7948
-1577.3609
-1579.0449
-1578.6512
-1576.8932
-1577.5783
-1577.839
-1577.213
-1577.9634
-1578.2321
-1578.5328
-1576.9783
-1578.6512
-1578.2751
-1576.5039
-1577.1161
-1577.2277
-1576.4719
-1577.4738
-1577.3143
-1577.2901
-1575.3626
-1576.8932
-1576.5039
-1574.72
-1575.3214
-1575.4782
-1575.305
-1577.3819
-1578.1312
-1578.6631
-1576.4035
-1577.5783
-1577.1161
-1575.3214
-1576.0339
-1576.6858
-1578.2758
-1577.1313
-1577.1463
-1579.0269
-1577.1704
-1577.839
-1577.2277
-1575.4782
-1576.6858
-1578.883
-1576.5343
-1578.8557
-1576.3676
-1577.7853
-1577.0661
-1577.213
-1576.4719
-1575.305
-1578.2758
-1576.5343
-1577.3721
-1622.9308
-1621.4476
-1624.3979
-1620.2802
-1622.3342
-1622.7329
-1622.2152
-1622.1212
-1621.8656
-1623.6352
-1621.4476
-1624.1657
-1622.1434
-1621.0796
-1623.0777
-1623.008
-1622.0442
-1622.898
-1621.8868
-1621.0904
-1624.3979
-1622.1434
-1623.0843
-1621.8261
-1623.5987
-1623.3108
-1622.01
-1623.4373
-1623.8072
-1622.5297
-1620.2802
-1621.0796
-1621.8261
-1620.444
-1622.1492
-1621.7381
-1620.0534
-1621.1418
-1621.9262
-1621.8047
-1622.3342
-1623.0777
-1623.5987
-1622.1492
-1623.8512
-1623.4288
-1621.5975
-1622.3215
-1622.5902
-1621.9402
-1622.7329
-1623.008
-1623.3108
-1621.7381
-1623.4288
-1623.0241
-1621.1784
-1621.826
-1621.9404
-1621.1603
-1622.2152
-1622.0442
-1622.01
-1620.0534
-1621.5975
-1621.1784
-1619.3184
-1619.9533
-1620.1135
-1619.9434
-1622.1212
-1622.898
-1623.4373
-1621.1418
-1622.3215
-1621.826
-1619.9533
-1620.7029
-1621.3819
-1623.069
-1621.8656
-1621.8868
-1623.8072
-1621.9262
-1622.5902
-1621.9404
-1620.1135
-1621.3819
-1623.6932
-1621.2209
-1623.6352
-1621.0904
-1622.5297
-1621.8047
-1621.9402
-1621.1603
-1619.9434
-1623.069
-1621.2209
-1622.1105
-1657.0366
-1655.5655
-1658.5172
-1654.3885
-1656.4528
-1656.8431
-1656.3007
-1656.2052
-1655.9463
-1657.7493
-1655.5655
-1658.2908
-1656.2787
-1655.2077
-1657.2129
-1657.1229
-1656.1197
-1657.0045
-1655.9735
-1655.1645
-1658.5172
-1656.2787
-1657.2237
-1655.9585
-1657.7376
-1657.4259
-1656.0757
-1657.5478
-1657.9213
-1656.6161
-1654.3885
-1655.2077
-1655.9585
-1654.57
-1656.2819
-1655.8452
-1654.1028
-1655.2311
-1656.0278
-1655.8899
-1656.4528
-1657.2129
-1657.7376
-1656.2819
-1657.991
-1657.5429
-1655.6506
-1656.4084
-1656.6832
-1656.0133
-1656.8431
-1657.1229
-1657.4259
-1655.8452
-1657.5429
-1657.1125
-1655.2047
-1655.8832
-1655.9995
-1655.2
-1656.3007
-1656.1197
-1656.0757
-1654.1028
-1655.6506
-1655.2047
-1653.2808
-1653.9448
-1654.1073
-1653.9412
-1656.2052
-1657.0045
-1657.5478
-1655.2311
-1656.4084
-1655.8832
-1653.9448
-1654.7264
-1655.4278
-1657.2002
-1655.9463
-1655.9735
-1657.9213
-1656.0278
-1656.6832
-1655.9995
-1654.1073
-1655.4278
-1657.8374
-1655.2582
-1657.7493
-1655.1645
-1656.6161
-1655.8899
-1656.0133
-1655.2
-1653.9412
-1657.2002
-1655.2582
-1656.1935
-1680.3998
-1678.95
-1681.8847
-1677.7707
-1679.8325
-1680.2121
-1679.6486
-1679.5523
-1679.2916
-1681.1162
-1678.95
-1681.6656
-1679.676
-1678.6046
-1680.6044
-1680.495
-1679.459
-1680.3688
-1679.3247
-1678.5081
-1681.8847
-1679.676
-1680.6193
-1679.3551
-1681.1295
-1680.7963
-1679.4057
-1680.9127
-1681.2874
-1679.9629
-1677.7707
-1678.6046
-1679.3551
-1677.9689
-1679.6768
-1679.2175
-1677.429
-1678.5896
-1679.3934
-1679.2401
-1679.8325
-1680.6044
-1681.1295
-1679.6768
-1681.3824
-1680.9117
-1678.9708
-1679.7571
-1680.0363
-1679.3508
-1680.2121
-1680.495
-1680.7963
-1679.2175
-1680.9117
-1680.4586
-1678.5012
-1679.2059
-1679.3233
-1678.5094
-1679.6486
-1679.459
-1679.4057
-1677.429
-1678.9708
-1678.5012
-1676.5264
-1677.2148
-1677.3783
-1677.2171
-1679.5523
-1680.3688
-1680.9127
-1678.5896
-1679.7571
-1679.2059
-1677.2148
-1678.0229
-1678.742
-1680.5876
-1679.2916
-1679.3247
-1681.2874
-1679.3934
-1680.0363
-1679.3233
-1677.3783
-1678.742
-1681.2337
-1678.5648
-1681.1162
-1678.5081
-1679.9629
-1679.2401
-1679.3508
-1678.5094
-1677.2171
-1680.5876
-1678.5648
-1679.5392
-1693.0178
-1691.5982
-1694.4979
-1690.424
-1692.4705
-1692.8371
-1692.2565
-1692.1598
-1691.899
-1693.7335
-1691.5982
-1694.2875
-1692.3324
-1691.2673
-1693.2494
-1693.1215
-1692.0596
-1692.9884
-1691.9378
-1691.1185
-1694.4979
-1692.3324
-1693.2681
-1692.0128
-1693.7717
-1693.4192
-1691.9975
-1693.5295
-1693.9029
-1692.5675
-1690.424
-1691.2673
-1692.0128
-1690.6375
-1692.3308
-1691.8522
-1690.0292
-1691.2144
-1692.0203
-1691.8524
-1692.4705
-1693.2494
-1693.7717
-1692.3308
-1694.0224
-1693.5324
-1691.5557
-1692.3652
-1692.6467
-1691.95
-1692.8371
-1693.1215
-1693.4192
-1691.8522
-1693.5324
-1693.0598
-1691.0656
-1691.7918
-1691.9094
-1691.0863
-1692.2565
-1692.0596
-1691.9975
-1690.0292
-1691.5557
-1691.0656
-1689.0527
-1689.761
-1689.9245
-1689.7688
-1692.1598
-1692.9884
-1693.5295
-1691.2144
-1692.3652
-1691.7918
-1689.761
-1690.5902
-1691.3221
-1693.2283
-1691.899
-1691.9378
-1693.9029
-1692.0203
-1692.6467
-1691.9094
-1689.9245
-1691.3221
-1693.8793
-1691.1384
-1693.7335
-1691.1185
-1692.5675
-1691.8524
-1691.95
-1691.0863
-1689.7688
-1693.2283
-1691.1384
-1692.1453
-1694.9637
-1693.5826
-1696.4301
-1692.4209
-1694.4397
-1694.7912
-1694.1972
-1694.1008
-1693.8415
-1695.6743
-1693.5826
-1696.2296
-1694.3206
-1693.2683
-1695.2206
-1695.0753
-1693.9945
-1694.9361
-1693.8857
-1693.0688
-1696.4301
-1694.3206
-1695.243
-1694.0043
-1695.7369
-1695.3678
-1693.9241
-1695.4711
-1695.8411
-1694.503
-1692.4209
-1693.2683
-1694.0043
-1692.6483
-1694.3168
-1693.822
-1691.9763
-1693.1784
-1693.9812
-1693.8001
-1694.4397
-1695.2206
-1695.7369
-1694.3168
-1695.9842
-1695.4781
-1693.4783
-1694.3056
-1694.5877
-1693.8841
-1694.7912
-1695.0753
-1695.3678
-1693.822
-1695.4781
-1694.9891
-1692.971
-1693.7138
-1693.8309
-1693.0037
-1694.1972
-1693.9945
-1693.9241
-1691.9763
-1693.4783
-1692.971
-1690.933
-1691.6564
-1691.8188
-1691.6695
-1694.1008
-1694.9361
-1695.4711
-1693.1784
-1694.3056
-1693.7138
-1691.6564
-1692.5012
-1693.2412
-1695.1954
-1693.8415
-1693.8857
-1695.8411
-1693.9812
-1694.5877
-1693.8309
-1691.8188
-1693.2412
-1695.8471
-1693.0521
-1695.6743
-1693.0688
-1694.503
-1693.8001
-1693.8841
-1693.0037
-1691.6695
-1695.1954
-1693.0521
-1694.0849
-1686.3822
-1685.0477
-1687.826
-1683.9054
-1685.8843
-1686.2189
-1685.6153
-1685.5198
-1685.2635
-1687.0833
-1685.0477
-1687.6366
-1685.7848
-1684.7516
-1686.6625
-1686.501
-1685.4082
-1686.3566
-1685.3128
-1684.5033
-1687.826
-1685.7848
-1686.6884
-1685.4737
-1687.1698
-1686.7865
-1685.33
-1686.8824
-1687.2465
-1685.9141
-1683.9054
-1684.7516
-1685.4737
-1684.145
-1685.7788
-1685.2712
-1683.4146
-1684.6258
-1685.4206
-1685.2274
-1685.8843
-1686.6625
-1687.1698
-1685.7788
-1687.412
-1686.8932
-1684.8831
-1685.7228
-1686.0037
-1685.2976
-1686.2189
-1686.501
-1686.7865
-1685.2712
-1686.8932
-1686.3912
-1684.3621
-1685.1165
-1685.2324
-1684.4062
-1685.6153
-1685.4082
-1685.33
-1683.4146
-1684.8831
-1684.3621
-1682.312
-1683.0457
-1683.206
-1683.0639
-1685.5198
-1686.3566
-1686.8824
-1684.6258
-1685.7228
-1685.1165
-1683.0457
-1683.9006
-1684.6439
-1686.6332
-1685.2635
-1685.3128
-1687.2465
-1685.4206
-1686.0037
-1685.2324
-1683.206
-1684.6439
-1687.2816
-1684.4507
-1687.0833
-1684.5033
-1685.9141
-1685.2274
-1685.2976
-1684.4062
-1683.0639
-1686.6332
-1684.4507
-1685.5024
-1667.4845
-1666.2042
-1668.8972
-1665.0881
-1667.0156
-1667.3313
-1666.7221
-1666.628
-1666.3763
-1668.1719
-1666.2042
-1668.7198
-1666.9358
-1665.9278
-1667.7862
-1667.6097
-1666.5118
-1667.4612
-1666.4303
-1665.6331
-1668.8972
-1666.9358
-1667.8154
-1666.6318
-1668.2814
-1667.8865
-1666.4266
-1667.9745
-1668.3306
-1667.0121
-1665.0881
-1665.9278
-1666.6318
-1665.3383
-1666.9278
-1666.4108
-1664.5548
-1665.7675
-1666.5495
-1666.3457
-1667.0156
-1667.7862
-1668.2814
-1666.9278
-1668.5171
-1667.9892
-1665.9813
-1666.8279
-1667.1059
-1666.4017
-1667.3313
-1667.6097
-1667.8865
-1666.4108
-1667.9892
-1667.4775
-1665.45
-1666.2113
-1666.3252
-1665.505
-1666.7221
-1666.5118
-1666.4266
-1664.5548
-1665.9813
-1665.45
-1663.4007
-1664.14
-1664.2972
-1664.163
-1666.628
-1667.4612
-1667.9745
-1665.7675
-1666.8279
-1666.2113
-1664.14
-1664.9995
-1665.7415
-1667.753
-1666.3763
-1666.4303
-1668.3306
-1666.5495
-1667.1059
-1666.3252
-1664.2972
-1665.7415
-1668.3942
-1665.5454
-1668.1719
-1665.6331
-1667.0121
-1666.3457
-1666.4017
-1665.505
-1664.163
-1667.753
-1665.5454
-1666.6093
-1638.5437
-1637.3245
-1639.9169
-1636.2411
-1638.106
-1638.4014
-1637.7904
-1637.6982
-1637.4525
-1639.2133
-1637.3245
-1639.7524
-1638.0463
-1637.0694
-1638.8645
-1638.6743
-1637.5783
-1638.5225
-1637.5108
-1636.7306
-1639.9169
-1638.0463
-1638.8967
-1637.751
-1639.3446
-1638.9408
-1637.4865
-1639.0204
-1639.3665
-1638.0697
-1636.2411
-1637.0694
-1637.751
-1636.5001
-1638.0362
-1637.513
-1635.6693
-1636.876
-1637.6405
-1637.4274
-1638.106
-1638.8645
-1639.3446
-1638.0362
-1639.5726
-1639.0388
-1637.0455
-1637.8938
-1638.1672
-1637.4693
-1638.4014
-1638.6743
-1638.9408
-1637.513
-1639.0388
-1638.5207
-1636.5074
-1637.2707
-1637.3819
-1636.5729
-1637.7904
-1637.5783
-1637.4865
-1635.6693
-1637.0455
-1636.5074
-1634.4716
-1635.2119
-1635.365
-1635.2395
-1637.6982
-1638.5225
-1639.0204
-1636.876
-1637.8938
-1637.2707
-1635.2119
-1636.0706
-1636.8066
-1638.8276
-1637.4525
-1637.5108
-1639.3665
-1637.6405
-1638.1672
-1637.3819
-1635.365
-1636.8066
-1639.4577
-1636.6089
-1639.2133
-1636.7306
-1638.0697
-1637.4274
-1637.4693
-1636.5729
-1635.2395
-1638.8276
-1636.6089
-1637.6783
-1599.8885
-1598.7372
-1601.2143
-1597.6927
-1599.4844
-1599.7577
-1599.1488
-1599.0592
-1598.821
-1600.5365
-1598.7372
-1601.0635
-1599.4447
-1598.5043
-1600.226
-1600.0236
-1598.9361
-1599.8696
-1598.8829
-1598.1244
-1601.2143
-1599.4447
-1600.261
-1599.1598
-1600.6884
-1600.2783
-1598.8385
-1600.3492
-1600.6832
-1599.416
-1597.6927
-1598.5043
-1599.1598
-1597.9586
-1599.4325
-1598.9066
-1597.0863
-1598.2796
-1599.0221
-1598.8014
-1599.4844
-1600.226
-1600.6884
-1599.4325
-1600.9071
-1600.3709
-1598.4045
-1599.2491
-1599.5163
-1598.829
-1599.7577
-1600.0236
-1600.2783
-1598.9066
-1600.3709
-1599.8498
-1597.863
-1598.6236
-1598.7315
-1597.9385
-1599.1488
-1598.9361
-1598.8385
-1597.0863
-1598.4045
-1597.863
-1595.8531
-1596.5897
-1596.738
-1596.6218
-1599.0592
-1599.8696
-1600.3492
-1598.2796
-1599.2491
-1598.6236
-1596.5897
-1597.4424
-1598.168
-1600.1858
-1598.821
-1598.8829
-1600.6832
-1599.0221
-1599.5163
-1598.7315
-1596.738
-1598.168
-1600.8011
-1597.9701
-1600.5365
-1598.1244
-1599.416
-1598.8014
-1598.829
-1597.9385
-1596.6218
-1600.1858
-1597.9701
-1599.0382
-1551.8984
-1550.821
-1553.169
-1549.8212
-1551.5295
-1551.7796
-1551.1765
-1551.0899
-1550.8606
-1552.5209
-1550.821
-1553.0326
-1551.5098
-1550.6112
-1552.2498
-1552.0366
-1550.9644
-1551.8815
-1550.9257
-1550.1932
-1553.169
-1551.5098
-1552.2874
-1551.2368
-1552.6918
-1552.2781
-1550.8616
-1552.3401
-1552.6603
-1551.43
-1549.8212
-1550.6112
-1551.2368
-1550.0921
-1551.4955
-1550.9701
-1549.1843
-1550.357
-1551.0734
-1550.8465
-1551.5295
-1552.2498
-1552.6918
-1551.4955
-1552.9001
-1552.3649
-1550.4371
-1551.2729
-1551.5324
-1550.8599
-1551.7796
-1552.0366
-1552.2781
-1550.9701
-1552.3649
-1551.844
-1549.8956
-1550.6488
-1550.7529
-1549.9806
-1551.1765
-1550.9644
-1550.8616
-1549.1843
-1550.4371
-1549.8956
-1547.9236
-1548.6522
-1548.7948
-1548.6886
-1551.0899
-1551.8815
-1552.3401
-1550.357
-1551.2729
-1550.6488
-1548.6522
-1549.4936
-1550.2046
-1552.2069
-1550.8606
-1550.9257
-1552.6603
-1551.0734
-1551.5324
-1550.7529
-1548.7948
-1550.2046
-1552.8036
-1550.0078
-1552.5209
-1550.1932
-1551.43
-1550.8465
-1550.8599
-1549.9806
-1548.6886
-1552.2069
-1550.0078
-1551.0682
-1494.997
-1493.9989
-1496.2052
-1493.0494
-1494.665
-1494.8905
-1494.2969
-1494.2139
-1493.9948
-1495.5905
-1493.9989
-1496.0836
-1494.665
-1493.8131
-1495.3595
-1495.1371
-1494.0865
-1494.9819
-1494.0625
-1493.3604
-1496.2052
-1494.665
-1495.3996
-1494.4053
-1495.7787
-1495.364
-1493.9793
-1495.4169
-1495.7215
-1494.5354
-1493.0494
-1493.8131
-1494.4053
-1493.3232
-1494.6484
-1494.1269
-1492.3861
-1493.5313
-1494.2176
-1493.9862
-1494.665
-1495.3595
-1495.7787
-1494.6484
-1495.9754
-1495.4444
-1493.5666
-1494.3887
-1494.6391
-1493.9853
-1494.8905
-1495.1371
-1495.364
-1494.1269
-1495.4444
-1494.9269
-1493.0285
-1493.7699
-1493.8696
-1493.1227
-1494.2969
-1494.0865
-1493.9793
-1492.3861
-1493.5666
-1493.0285
-1491.1062
-1491.8223
-1491.9585
-1491.863
-1494.2139
-1494.9819
-1495.4169
-1493.5313
-1494.3887
-1493.7699
-1491.8223
-1492.6475
-1493.3397
-1495.3145
-1493.9948
-1494.0625
-1495.7215
-1494.2176
-1494.6391
-1493.8696
-1491.9585
-1493.3397
-1495.8892
-1493.1454
-1495.5905
-1493.3604
-1494.5354
-1493.9862
-1493.9853
-1493.1227
-1491.863
-1495.3145
-1493.1454
-1494.1917
-1429.6467
-1428.733
-1430.7857
-1427.8389
-1429.3529
-1429.5528
-1428.9722
-1428.8933
-1428.6856
-1430.208
-1428.733
-1430.6793
-1429.3724
-1428.5717
-1430.0176
-1429.7873
-1428.7647
-1429.6331
-1428.7554
-1428.0877
-1430.7857
-1429.3724
-1430.06
-1429.1272
-1430.4117
-1429.9985
-1428.6536
-1430.0423
-1430.3296
-1429.1945
-1427.8389
-1428.5717
-1429.1272
-1428.1136
-1429.3535
-1428.8389
-1427.1533
-1428.2644
-1428.9168
-1428.6825
-1429.3529
-1430.0176
-1430.4117
-1429.3535
-1430.5955
-1430.072
-1428.2551
-1429.0587
-1429.2986
-1428.6676
-1429.5528
-1429.7873
-1429.9985
-1428.8389
-1430.072
-1429.5611
-1427.7237
-1428.4488
-1428.5438
-1427.8267
-1428.9722
-1428.7647
-1428.6536
-1427.1533
-1428.2551
-1427.7237
-1425.8622
-1426.5618
-1426.6909
-1426.6066
-1428.8933
-1429.6331
-1430.0423