/*--------------------------------*- C++ -*----------------------------------*\
| =========                 |                                                 |
| \\      /  F ield         | OpenFOAM: The Open Source CFD Toolbox           |
|  \\    /   O peration     | Version:  v2106                                 |
|   \\  /    A nd           | Website:  www.openfoam.com                      |
|    \\/     M anipulation  |                                                 |
\*---------------------------------------------------------------------------*/
FoamFile
{
    version     2.0;
    format      ascii;
    arch        "LSB;label=32;scalar=64";
    class       volScalarField;
    location    "10";
    object      T;
}
// * * * * * * * * * * * * * * * * * * * * * * * * * * * * * * * * * * * * * //

dimensions      [0 0 0 1 0 0 0];

internalField   nonuniform List<scalar> 
4000
(
277.84429
277.84429
277.8443
277.84428
277.84428
277.84429
277.8443
277.8443
277.8443
277.8443
277.84429
277.8443
277.84429
277.84428
277.84429
277.8443
277.8443
277.8443
277.8443
277.8443
277.8443
277.84429
277.84429
277.84428
277.84429
277.8443
277.8443
277.8443
277.8443
277.8443
277.84428
277.84428
277.84428
277.84427
277.84428
277.84429
277.84429
277.84429
277.84429
277.84429
277.84428
277.84429
277.84429
277.84428
277.84429
277.84429
277.84429
277.84429
277.84429
277.84429
277.84429
277.8443
277.8443
277.84429
277.84429
277.84429
277.84429
277.84429
277.84429
277.84429
277.8443
277.8443
277.8443
277.84429
277.84429
277.84429
277.84429
277.84429
277.84428
277.84428
277.8443
277.8443
277.8443
277.84429
277.84429
277.84429
277.84429
277.84428
277.84428
277.84428
277.8443
277.8443
277.8443
277.84429
277.84429
277.84429
277.84428
277.84428
277.84428
277.84428
277.8443
277.8443
277.8443
277.84429
277.84429
277.84429
277.84428
277.84428
277.84428
277.84428
287.5258
287.52581
287.52582
287.52577
287.52579
287.52581
287.52582
287.52583
287.52583
287.52583
287.52581
287.52582
287.5258
287.52577
287.52579
287.52581
287.52582
287.52583
287.52582
287.52582
287.52582
287.5258
287.52579
287.52577
287.52579
287.52581
287.52582
287.52582
287.52582
287.52582
287.52577
287.52577
287.52577
287.52575
287.52578
287.52579
287.52579
287.52579
287.5258
287.5258
287.52579
287.52579
287.52579
287.52578
287.5258
287.5258
287.5258
287.5258
287.5258
287.5258
287.52581
287.52581
287.52581
287.52579
287.5258
287.52581
287.5258
287.5258
287.52579
287.52579
287.52582
287.52582
287.52582
287.52579
287.5258
287.5258
287.52579
287.52578
287.52578
287.52578
287.52583
287.52583
287.52582
287.52579
287.5258
287.5258
287.52578
287.52578
287.52577
287.52577
287.52583
287.52582
287.52582
287.5258
287.5258
287.52579
287.52578
287.52577
287.52577
287.52577
287.52583
287.52582
287.52582
287.5258
287.5258
287.52579
287.52578
287.52577
287.52577
287.52577
297.18618
297.18616
297.18617
297.18612
297.18615
297.18618
297.18619
297.1862
297.1862
297.18621
297.18616
297.18618
297.18614
297.18612
297.18615
297.18618
297.18619
297.1862
297.18619
297.18619
297.18617
297.18614
297.18613
297.18612
297.18615
297.18617
297.18618
297.18619
297.18619
297.18619
297.18612
297.18612
297.18612
297.1861
297.18613
297.18615
297.18615
297.18615
297.18616
297.18616
297.18615
297.18615
297.18615
297.18613
297.18616
297.18617
297.18616
297.18615
297.18615
297.18615
297.18618
297.18618
297.18617
297.18615
297.18617
297.18617
297.18616
297.18615
297.18614
297.18613
297.18619
297.18619
297.18618
297.18615
297.18616
297.18616
297.18614
297.18613
297.18612
297.18611
297.1862
297.1862
297.18619
297.18615
297.18615
297.18615
297.18613
297.18611
297.18611
297.18611
297.1862
297.18619
297.18619
297.18616
297.18615
297.18614
297.18612
297.18611
297.18611
297.18611
297.18621
297.18619
297.18619
297.18616
297.18615
297.18613
297.18611
297.18611
297.18611
297.18611
306.81146
306.81144
306.81145
306.81139
306.81143
306.81147
306.81148
306.81149
306.81149
306.81151
306.81144
306.81145
306.81142
306.81139
306.81143
306.81147
306.81148
306.81149
306.81148
306.81147
306.81145
306.81142
306.81141
306.81139
306.81143
306.81146
306.81146
306.81147
306.81148
306.81147
306.81139
306.81139
306.81139
306.81137
306.81141
306.81142
306.81142
306.81142
306.81143
306.81143
306.81143
306.81143
306.81143
306.81141
306.81144
306.81145
306.81143
306.81142
306.81142
306.81142
306.81147
306.81147
306.81146
306.81142
306.81145
306.81145
306.81142
306.81141
306.8114
306.81139
306.81148
306.81148
306.81146
306.81142
306.81143
306.81142
306.81139
306.81138
306.81137
306.81136
306.81149
306.81149
306.81147
306.81142
306.81142
306.81141
306.81138
306.81136
306.81136
306.81136
306.81149
306.81148
306.81148
306.81143
306.81142
306.8114
306.81137
306.81136
306.81136
306.81136
306.81151
306.81147
306.81147
306.81143
306.81142
306.81139
306.81136
306.81136
306.81136
306.81136
316.38799
316.38796
316.38798
316.38791
316.38795
316.38799
316.38801
316.38801
316.38802
316.38804
316.38796
316.38798
316.38794
316.38791
316.38796
316.38799
316.388
316.38801
316.388
316.38799
316.38798
316.38794
316.38793
316.38791
316.38795
316.38798
316.38798
316.388
316.388
316.38799
316.38791
316.38791
316.38791
316.38789
316.38793
316.38794
316.38793
316.38794
316.38795
316.38794
316.38795
316.38796
316.38795
316.38793
316.38796
316.38796
316.38794
316.38793
316.38793
316.38792
316.38799
316.38799
316.38798
316.38794
316.38796
316.38795
316.38792
316.3879
316.38789
316.38788
316.38801
316.388
316.38798
316.38793
316.38794
316.38792
316.38788
316.38786
316.38785
316.38784
316.38801
316.38801
316.388
316.38794
316.38793
316.3879
316.38786
316.38784
316.38784
316.38784
316.38802
316.388
316.388
316.38795
316.38793
316.38789
316.38785
316.38784
316.38785
316.38784
316.38804
316.38799
316.38799
316.38794
316.38792
316.38788
316.38784
316.38784
316.38784
316.38784
325.90244
325.90241
325.90243
325.90235
325.9024
325.90244
325.90245
325.90246
325.90246
325.90248
325.90241
325.90243
325.90239
325.90235
325.9024
325.90244
325.90244
325.90246
325.90244
325.90243
325.90243
325.90239
325.90238
325.90235
325.9024
325.90242
325.90242
325.90244
325.90244
325.90242
325.90235
325.90235
325.90235
325.90233
325.90237
325.90238
325.90235
325.90236
325.90237
325.90237
325.9024
325.9024
325.9024
325.90237
325.9024
325.90239
325.90235
325.90234
325.90234
325.90233
325.90244
325.90244
325.90242
325.90238
325.90239
325.90237
325.90233
325.90231
325.9023
325.90228
325.90245
325.90244
325.90242
325.90235
325.90235
325.90233
325.90227
325.90225
325.90224
325.90223
325.90246
325.90246
325.90244
325.90236
325.90234
325.90231
325.90225
325.90223
325.90224
325.90224
325.90246
325.90244
325.90244
325.90237
325.90234
325.9023
325.90224
325.90224
325.90225
325.90223
325.90248
325.90243
325.90242
325.90237
325.90233
325.90228
325.90223
325.90224
325.90223
325.90223
335.34194
335.34192
335.34193
335.34184
335.34189
335.34193
335.34194
335.34194
335.34194
335.34197
335.34192
335.34194
335.34189
335.34185
335.3419
335.34193
335.34193
335.34194
335.34193
335.34191
335.34193
335.34189
335.34188
335.34185
335.3419
335.34191
335.3419
335.34192
335.34192
335.3419
335.34184
335.34185
335.34185
335.34181
335.34185
335.34185
335.34182
335.34183
335.34184
335.34183
335.34189
335.3419
335.3419
335.34185
335.34188
335.34186
335.34181
335.3418
335.3418
335.34178
335.34193
335.34193
335.34191
335.34185
335.34186
335.34183
335.34177
335.34175
335.34173
335.34171
335.34194
335.34193
335.3419
335.34182
335.34181
335.34177
335.3417
335.34167
335.34167
335.34166
335.34194
335.34194
335.34192
335.34183
335.3418
335.34175
335.34167
335.34166
335.34166
335.34167
335.34194
335.34193
335.34192
335.34184
335.3418
335.34173
335.34167
335.34166
335.34168
335.34166
335.34197
335.34191
335.3419
335.34183
335.34178
335.34171
335.34166
335.34167
335.34166
335.34166
344.69416
344.69413
344.69415
344.69405
344.6941
344.69413
344.69413
344.69413
344.69413
344.69416
344.69413
344.69415
344.6941
344.69405
344.69411
344.69413
344.69412
344.69413
344.69411
344.6941
344.69415
344.6941
344.69409
344.69405
344.6941
344.69411
344.69408
344.6941
344.6941
344.69408
344.69405
344.69405
344.69405
344.69401
344.69405
344.69404
344.69399
344.694
344.69401
344.694
344.6941
344.69411
344.6941
344.69405
344.69407
344.69404
344.69398
344.69396
344.69395
344.69393
344.69413
344.69413
344.69411
344.69404
344.69404
344.694
344.69392
344.69389
344.69387
344.69385
344.69413
344.69412
344.69408
344.69399
344.69398
344.69392
344.69383
344.6938
344.69379
344.69378
344.69413
344.69413
344.6941
344.694
344.69396
344.69389
344.6938
344.69378
344.69379
344.6938
344.69413
344.69411
344.6941
344.69401
344.69395
344.69387
344.69379
344.69379
344.69381
344.69379
344.69416
344.6941
344.69408
344.694
344.69393
344.69385
344.69378
344.6938
344.69379
344.69379
353.94738
353.94735
353.94736
353.94725
353.9473
353.94733
353.94732
353.94732
353.94732
353.94735
353.94735
353.94737
353.94732
353.94726
353.94731
353.94733
353.94731
353.94731
353.94729
353.94727
353.94736
353.94732
353.9473
353.94725
353.9473
353.9473
353.94726
353.94728
353.94728
353.94725
353.94725
353.94726
353.94725
353.94721
353.94724
353.94722
353.94716
353.94716
353.94717
353.94716
353.9473
353.94731
353.9473
353.94724
353.94725
353.94721
353.94713
353.94711
353.9471
353.94708
353.94733
353.94733
353.9473
353.94722
353.94721
353.94716
353.94706
353.94702
353.947
353.94698
353.94732
353.94731
353.94726
353.94716
353.94713
353.94706
353.94695
353.94692
353.94691
353.9469
353.94732
353.94731
353.94728
353.94716
353.94711
353.94702
353.94692
353.94689
353.94691
353.94692
353.94732
353.94729
353.94728
353.94717
353.9471
353.947
353.94691
353.94691
353.94693
353.94691
353.94735
353.94727
353.94725
353.94716
353.94708
353.94698
353.9469
353.94692
353.94691
353.94691
363.09059
363.09055
363.09057
363.09045
363.09049
363.09052
363.0905
363.09049
363.09048
363.09052
363.09055
363.09058
363.09052
363.09045
363.0905
363.09051
363.09048
363.09048
363.09046
363.09043
363.09057
363.09052
363.0905
363.09044
363.09048
363.09048
363.09043
363.09044
363.09044
363.09041
363.09045
363.09045
363.09044
363.09039
363.09042
363.09038
363.09031
363.09031
363.09032
363.0903
363.09049
363.0905
363.09048
363.09042
363.09043
363.09037
363.09027
363.09025
363.09023
363.09021
363.09052
363.09051
363.09048
363.09038
363.09037
363.0903
363.09019
363.09014
363.09012
363.09009
363.0905
363.09048
363.09043
363.09031
363.09027
363.09019
363.09006
363.09002
363.09001
363.09
363.09049
363.09048
363.09044
363.09031
363.09025
363.09014
363.09002
363.09
363.09001
363.09003
363.09048
363.09046
363.09044
363.09032
363.09023
363.09012
363.09001
363.09001
363.09004
363.09001
363.09052
363.09043
363.09041
363.0903
363.09021
363.09009
363.09
363.09003
363.09001
363.09001
372.11355
372.11352
372.11353
372.1134
372.11344
372.11346
372.11344
372.11342
372.11341
372.11344
372.11352
372.11354
372.11348
372.1134
372.11345
372.11345
372.11341
372.11341
372.11338
372.11335
372.11353
372.11348
372.11345
372.11339
372.11343
372.11341
372.11335
372.11336
372.11336
372.11332
372.1134
372.1134
372.11339
372.11333
372.11335
372.11331
372.11322
372.11321
372.11322
372.1132
372.11344
372.11345
372.11343
372.11335
372.11335
372.11329
372.11317
372.11314
372.11312
372.1131
372.11346
372.11345
372.11341
372.11331
372.11329
372.1132
372.11307
372.11302
372.113
372.11297
372.11344
372.11341
372.11335
372.11322
372.11317
372.11307
372.11293
372.11288
372.11287
372.11286
372.11342
372.11341
372.11336
372.11321
372.11314
372.11302
372.11288
372.11285
372.11287
372.11289
372.11341
372.11338
372.11336
372.11322
372.11312
372.113
372.11287
372.11287
372.1129
372.11287
372.11344
372.11335
372.11332
372.1132
372.1131
372.11297
372.11286
372.11289
372.11287
372.11287
381.00689
381.00685
381.00686
381.00672
381.00675
381.00677
381.00674
381.00671
381.0067
381.00674
381.00685
381.00687
381.00681
381.00672
381.00676
381.00676
381.00671
381.0067
381.00667
381.00664
381.00686
381.00681
381.00678
381.00671
381.00674
381.00671
381.00664
381.00665
381.00664
381.0066
381.00672
381.00672
381.00671
381.00664
381.00666
381.0066
381.0065
381.00649
381.00649
381.00647
381.00675
381.00676
381.00674
381.00666
381.00665
381.00657
381.00644
381.0064
381.00638
381.00635
381.00677
381.00676
381.00671
381.0066
381.00657
381.00647
381.00632
381.00627
381.00624
381.0062
381.00674
381.00671
381.00664
381.0065
381.00644
381.00632
381.00617
381.00611
381.0061
381.00609
381.00671
381.0067
381.00665
381.00649
381.0064
381.00627
381.00611
381.00608
381.0061
381.00612
381.0067
381.00667
381.00664
381.00649
381.00638
381.00624
381.0061
381.0061
381.00613
381.0061
381.00674
381.00664
381.0066
381.00647
381.00635
381.0062
381.00609
381.00612
381.0061
381.0061
389.7621
389.76206
389.76207
389.76192
389.76195
389.76195
389.76191
389.76189
389.76187
389.7619
389.76206
389.76208
389.76201
389.76192
389.76196
389.76194
389.76189
389.76187
389.76183
389.7618
389.76207
389.76201
389.76198
389.76191
389.76193
389.76189
389.76181
389.76181
389.7618
389.76175
389.76192
389.76192
389.76191
389.76183
389.76184
389.76177
389.76166
389.76164
389.76164
389.76162
389.76195
389.76196
389.76193
389.76184
389.76182
389.76173
389.76159
389.76154
389.76152
389.76149
389.76195
389.76194
389.76189
389.76177
389.76173
389.76161
389.76145
389.76139
389.76136
389.76132
389.76191
389.76189
389.76181
389.76166
389.76159
389.76145
389.76128
389.76122
389.76121
389.7612
389.76189
389.76187
389.76181
389.76164
389.76154
389.76139
389.76122
389.76119
389.7612
389.76123
389.76187
389.76183
389.7618
389.76164
389.76152
389.76136
389.76121
389.7612
389.76124
389.76121
389.7619
389.7618
389.76175
389.76162
389.76149
389.76132
389.7612
389.76123
389.76121
389.76121
398.37165
398.37161
398.37162
398.37146
398.37148
398.37148
398.37143
398.3714
398.37137
398.37141
398.37161
398.37163
398.37156
398.37146
398.37149
398.37147
398.3714
398.37138
398.37133
398.3713
398.37162
398.37156
398.37152
398.37144
398.37146
398.37141
398.37132
398.37132
398.3713
398.37125
398.37146
398.37146
398.37144
398.37136
398.37136
398.37128
398.37115
398.37113
398.37113
398.3711
398.37148
398.37149
398.37146
398.37136
398.37133
398.37123
398.37107
398.37102
398.371
398.37096
398.37148
398.37147
398.37141
398.37128
398.37123
398.3711
398.37093
398.37086
398.37082
398.37078
398.37143
398.3714
398.37132
398.37115
398.37107
398.37093
398.37074
398.37068
398.37066
398.37065
398.3714
398.37138
398.37132
398.37113
398.37102
398.37086
398.37068
398.37064
398.37065
398.37068
398.37137
398.37133
398.3713
398.37113
398.371
398.37082
398.37066
398.37065
398.37069
398.37065
398.37141
398.3713
398.37125
398.3711
398.37096
398.37078
398.37065
398.37068
398.37065
398.37066
406.82899
406.82895
406.82895
406.82879
406.82881
406.82879
406.82874
406.8287
406.82867
406.82871
406.82895
406.82897
406.82889
406.82879
406.82881
406.82878
406.8287
406.82868
406.82863
406.82859
406.82895
406.82889
406.82885
406.82877
406.82878
406.82872
406.82862
406.82861
406.82859
406.82854
406.82879
406.82879
406.82877
406.82868
406.82867
406.82858
406.82844
406.82842
406.82841
406.82838
406.82881
406.82881
406.82878
406.82867
406.82864
406.82852
406.82835
406.8283
406.82827
406.82823
406.82879
406.82878
406.82872
406.82858
406.82852
406.82838
406.82819
406.82812
406.82808
406.82804
406.82874
406.8287
406.82862
406.82844
406.82835
406.82819
406.82799
406.82793
406.8279
406.82789
406.8287
406.82868
406.82861
406.82842
406.8283
406.82812
406.82793
406.82788
406.8279
406.82793
406.82867
406.82863
406.82859
406.82841
406.82827
406.82808
406.8279
406.8279
406.82794
406.8279
406.82871
406.82859
406.82854
406.82838
406.82823
406.82804
406.82789
406.82793
406.8279
406.8279
415.12859
415.12855
415.12855
415.12838
415.1284
415.12838
415.12831
415.12827
415.12824
415.12827
415.12855
415.12857
415.12849
415.12838
415.1284
415.12836
415.12827
415.12825
415.12819
415.12815
415.12855
415.12849
415.12845
415.12836
415.12836
415.12829
415.12818
415.12817
415.12815
415.12809
415.12838
415.12838
415.12836
415.12826
415.12825
415.12815
415.128
415.12797
415.12796
415.12793
415.1284
415.1284
415.12836
415.12825
415.12821
415.12808
415.1279
415.12784
415.12781
415.12776
415.12838
415.12836
415.12829
415.12815
415.12808
415.12793
415.12773
415.12765
415.12761
415.12756
415.12831
415.12827
415.12818
415.128
415.1279
415.12773
415.12752
415.12744
415.12742
415.12741
415.12827
415.12825
415.12817
415.12797
415.12784
415.12765
415.12744
415.1274
415.12741
415.12745
415.12824
415.12819
415.12815
415.12796
415.12781
415.12761
415.12742
415.12741
415.12746
415.12741
415.12827
415.12815
415.12809
415.12793
415.12776
415.12756
415.12741
415.12745
415.12741
415.12742
423.26599
423.26595
423.26595
423.26577
423.26578
423.26575
423.26568
423.26563
423.26559
423.26563
423.26595
423.26597
423.26588
423.26577
423.26578
423.26573
423.26564
423.26561
423.26555
423.26551
423.26595
423.26588
423.26584
423.26574
423.26574
423.26566
423.26554
423.26553
423.2655
423.26544
423.26577
423.26577
423.26574
423.26564
423.26562
423.26551
423.26535
423.26532
423.2653
423.26527
423.26578
423.26578
423.26574
423.26562
423.26557
423.26543
423.26524
423.26518
423.26514
423.2651
423.26575
423.26573
423.26566
423.26551
423.26543
423.26527
423.26506
423.26498
423.26493
423.26489
423.26568
423.26564
423.26554
423.26535
423.26524
423.26506
423.26484
423.26476
423.26474
423.26472
423.26563
423.26561
423.26553
423.26532
423.26518
423.26498
423.26476
423.26471
423.26473
423.26476
423.26559
423.26555
423.2655
423.2653
423.26514
423.26493
423.26474
423.26473
423.26477
423.26473
423.26563
423.26551
423.26544
423.26527
423.2651
423.26489
423.26472
423.26476
423.26473
423.26473
431.23777
431.23772
431.23772
431.23754
431.23754
431.23751
431.23743
431.23737
431.23734
431.23737
431.23772
431.23774
431.23766
431.23754
431.23755
431.23749
431.23739
431.23735
431.23729
431.23724
431.23772
431.23766
431.23761
431.23751
431.2375
431.23741
431.23729
431.23727
431.23724
431.23718
431.23754
431.23754
431.23751
431.2374
431.23737
431.23726
431.23709
431.23705
431.23704
431.237
431.23754
431.23755
431.2375
431.23737
431.23732
431.23717
431.23697
431.2369
431.23686
431.23682
431.23751
431.23749
431.23741
431.23726
431.23717
431.237
431.23678
431.23669
431.23665
431.2366
431.23743
431.23739
431.23729
431.23709
431.23697
431.23678
431.23655
431.23647
431.23644
431.23643
431.23737
431.23735
431.23727
431.23705
431.2369
431.23669
431.23647
431.23642
431.23643
431.23647
431.23734
431.23729
431.23724
431.23704
431.23686
431.23665
431.23644
431.23643
431.23648
431.23643
431.23737
431.23724
431.23718
431.237
431.23682
431.2366
431.23643
431.23647
431.23643
431.23643
439.04159
439.04155
439.04154
439.04136
439.04135
439.04131
439.04122
439.04116
439.04113
439.04116
439.04155
439.04157
439.04148
439.04136
439.04136
439.04129
439.04118
439.04114
439.04108
439.04103
439.04154
439.04148
439.04143
439.04132
439.04131
439.04122
439.04108
439.04105
439.04102
439.04096
439.04136
439.04136
439.04132
439.04121
439.04118
439.04105
439.04088
439.04083
439.04082
439.04078
439.04135
439.04136
439.04131
439.04118
439.04112
439.04096
439.04075
439.04068
439.04064
439.04059
439.04131
439.04129
439.04122
439.04105
439.04096
439.04078
439.04055
439.04046
439.04041
439.04036
439.04122
439.04118
439.04108
439.04088
439.04075
439.04055
439.04032
439.04023
439.0402
439.04019
439.04116
439.04114
439.04105
439.04083
439.04068
439.04046
439.04023
439.04017
439.04019
439.04023
439.04113
439.04108
439.04102
439.04082
439.04064
439.04041
439.0402
439.04019
439.04023
439.04019
439.04116
439.04103
439.04096
439.04078
439.04059
439.04036
439.04019
439.04023
439.04019
439.04019
446.6762
446.67616
446.67615
446.67596
446.67595
446.67591
446.67581
446.67575
446.6757
446.67574
446.67616
446.67617
446.67608
446.67596
446.67595
446.67588
446.67577
446.67572
446.67565
446.67561
446.67615
446.67608
446.67603
446.67593
446.6759
446.6758
446.67566
446.67563
446.6756
446.67553
446.67596
446.67596
446.67593
446.67581
446.67577
446.67564
446.67546
446.67541
446.67539
446.67535
446.67595
446.67595
446.6759
446.67577
446.6757
446.67554
446.67533
446.67525
446.6752
446.67515
446.67591
446.67588
446.6758
446.67564
446.67554
446.67535
446.67512
446.67502
446.67497
446.67492
446.67581
446.67577
446.67566
446.67546
446.67533
446.67512
446.67488
446.67479
446.67476
446.67474
446.67575
446.67572
446.67563
446.67541
446.67525
446.67502
446.67479
446.67473
446.67474
446.67478
446.6757
446.67565
446.6756
446.67539
446.6752
446.67497
446.67476
446.67474
446.67479
446.67474
446.67574
446.67561
446.67553
446.67535
446.67515
446.67492
446.67474
446.67478
446.67474
446.67474
454.1414
454.14135
454.14134
454.14116
454.14114
454.14109
454.14099
454.14092
454.14087
454.1409
454.14135
454.14137
454.14128
454.14116
454.14114
454.14106
454.14094
454.14089
454.14082
454.14078
454.14134
454.14128
454.14123
454.14112
454.14109
454.14098
454.14084
454.1408
454.14076
454.1407
454.14116
454.14116
454.14112
454.141
454.14095
454.14081
454.14063
454.14058
454.14055
454.14051
454.14114
454.14114
454.14109
454.14095
454.14088
454.14071
454.14049
454.14041
454.14037
454.14031
454.14109
454.14106
454.14098
454.14081
454.14071
454.14052
454.14028
454.14018
454.14013
454.14008
454.14099
454.14094
454.14084
454.14063
454.14049
454.14028
454.14003
454.13994
454.13991
454.13989
454.14092
454.14089
454.1408
454.14058
454.14041
454.14018
454.13994
454.13988
454.1399
454.13993
454.14087
454.14082
454.14076
454.14055
454.14037
454.14013
454.13991
454.1399
454.13994
454.13989
454.1409
454.14078
454.1407
454.14051
454.14031
454.14008
454.13989
454.13993
454.13989
454.13989
461.43804
461.438
461.43799
461.4378
461.43778
461.43772
461.43762
461.43754
461.4375
461.43753
461.438
461.43801
461.43793
461.4378
461.43778
461.4377
461.43757
461.43752
461.43744
461.4374
461.43799
461.43793
461.43787
461.43776
461.43773
461.43761
461.43746
461.43742
461.43738
461.43732
461.4378
461.4378
461.43776
461.43764
461.43759
461.43744
461.43725
461.4372
461.43717
461.43713
461.43778
461.43778
461.43773
461.43759
461.43751
461.43734
461.43711
461.43703
461.43698
461.43693
461.43772
461.4377
461.43761
461.43744
461.43734
461.43714
461.43689
461.4368
461.43674
461.43669
461.43762
461.43757
461.43746
461.43725
461.43711
461.43689
461.43664
461.43655
461.43652
461.4365
461.43754
461.43752
461.43742
461.4372
461.43703
461.4368
461.43655
461.43649
461.4365
461.43654
461.4375
461.43744
461.43738
461.43717
461.43698
461.43674
461.43652
461.4365
461.43655
461.4365
461.43753
461.4374
461.43732
461.43713
461.43693
461.43669
461.4365
461.43654
461.4365
461.4365
468.56802
468.56798
468.56796
468.56779
468.56776
468.56769
468.56758
468.56751
468.56746
468.56748
468.56798
468.568
468.56791
468.56778
468.56776
468.56767
468.56754
468.56748
468.56741
468.56736
468.56796
468.56791
468.56785
468.56774
468.5677
468.56758
468.56743
468.56739
468.56734
468.56728
468.56779
468.56778
468.56774
468.56762
468.56756
468.56741
468.56722
468.56716
468.56713
468.56709
468.56776
468.56776
468.5677
468.56756
468.56748
468.5673
468.56708
468.56699
468.56694
468.56689
468.56769
468.56767
468.56758
468.56741
468.5673
468.5671
468.56685
468.56675
468.5667
468.56665
468.56758
468.56754
468.56743
468.56722
468.56708
468.56685
468.5666
468.56651
468.56648
468.56646
468.56751
468.56748
468.56739
468.56716
468.56699
468.56675
468.56651
468.56645
468.56646
468.5665
468.56746
468.56741
468.56734
468.56713
468.56694
468.5667
468.56648
468.56646
468.5665
468.56645
468.56748
468.56736
468.56728
468.56709
468.56689
468.56665
468.56646
468.5665
468.56645
468.56645
475.53423
475.53419
475.53417
475.534
475.53396
475.53389
475.53378
475.5337
475.53365
475.53368
475.53419
475.5342
475.53412
475.53399
475.53396
475.53387
475.53373
475.53367
475.5336
475.53355
475.53417
475.53412
475.53406
475.53395
475.53391
475.53378
475.53362
475.53358
475.53354
475.53347
475.534
475.53399
475.53395
475.53383
475.53377
475.53361
475.53342
475.53336
475.53333
475.53329
475.53396
475.53396
475.53391
475.53377
475.53368
475.5335
475.53327
475.53318
475.53313
475.53308
475.53389
475.53387
475.53378
475.53361
475.5335
475.53329
475.53305
475.53295
475.53289
475.53284
475.53378
475.53373
475.53362
475.53342
475.53327
475.53305
475.5328
475.5327
475.53267
475.53265
475.5337
475.53367
475.53358
475.53336
475.53318
475.53295
475.5327
475.53264
475.53265
475.53269
475.53365
475.5336
475.53354
475.53333
475.53313
475.53289
475.53267
475.53265
475.53269
475.53264
475.53368
475.53355
475.53347
475.53329
475.53308
475.53284
475.53265
475.53269
475.53264
475.53265
482.34053
482.34049
482.34047
482.3403
482.34026
482.34019
482.34007
482.33999
482.33994
482.33996
482.34049
482.3405
482.34042
482.3403
482.34026
482.34016
482.34003
482.33996
482.33989
482.33984
482.34047
482.34042
482.34037
482.34025
482.3402
482.34008
482.33992
482.33987
482.33983
482.33976
482.3403
482.3403
482.34025
482.34013
482.34007
482.33991
482.33971
482.33965
482.33962
482.33958
482.34026
482.34026
482.3402
482.34007
482.33997
482.33979
482.33957
482.33948
482.33943
482.33937
482.34019
482.34016
482.34008
482.33991
482.33979
482.33959
482.33934
482.33924
482.33919
482.33913
482.34007
482.34003
482.33992
482.33971
482.33957
482.33934
482.33909
482.339
482.33897
482.33895
482.33999
482.33996
482.33987
482.33965
482.33948
482.33924
482.339
482.33894
482.33895
482.33898
482.33994
482.33989
482.33983
482.33962
482.33943
482.33919
482.33897
482.33895
482.33899
482.33894
482.33996
482.33984
482.33976
482.33958
482.33937
482.33913
482.33895
482.33898
482.33894
482.33894
488.99172
488.99168
488.99166
488.99149
488.99145
488.99137
488.99125
488.99117
488.99112
488.99114
488.99168
488.99169
488.99161
488.99149
488.99145
488.99135
488.99121
488.99115
488.99107
488.99102
488.99166
488.99161
488.99156
488.99145
488.99139
488.99126
488.9911
488.99105
488.99101
488.99094
488.99149
488.99149
488.99145
488.99133
488.99125
488.9911
488.9909
488.99084
488.99081
488.99076
488.99145
488.99145
488.99139
488.99125
488.99116
488.99098
488.99075
488.99067
488.99061
488.99056
488.99137
488.99135
488.99126
488.9911
488.99098
488.99077
488.99053
488.99043
488.99038
488.99033
488.99125
488.99121
488.9911
488.9909
488.99075
488.99053
488.99029
488.99019
488.99016
488.99015
488.99117
488.99115
488.99105
488.99084
488.99067
488.99043
488.99019
488.99013
488.99014
488.99018
488.99112
488.99107
488.99101
488.99081
488.99061
488.99038
488.99016
488.99014
488.99018
488.99013
488.99114
488.99102
488.99094
488.99076
488.99056
488.99033
488.99015
488.99018
488.99013
488.99013
495.49348
495.49345
495.49342
495.49326
495.49322
495.49314
495.49302
495.49293
495.49288
495.4929
495.49345
495.49346
495.49338
495.49326
495.49321
495.49311
495.49297
495.49291
495.49283
495.49279
495.49342
495.49338
495.49332
495.49321
495.49316
495.49303
495.49287
495.49282
495.49277
495.49271
495.49326
495.49326
495.49321
495.4931
495.49302
495.49286
495.49267
495.49261
495.49257
495.49253
495.49322
495.49321
495.49316
495.49302
495.49293
495.49274
495.49252
495.49244
495.49238
495.49233
495.49314
495.49311
495.49303
495.49286
495.49274
495.49254
495.49231
495.49221
495.49215
495.4921
495.49302
495.49297
495.49287
495.49267
495.49252
495.49231
495.49207
495.49197
495.49194
495.49192
495.49293
495.49291
495.49282
495.49261
495.49244
495.49221
495.49197
495.49191
495.49192
495.49196
495.49288
495.49283
495.49277
495.49257
495.49238
495.49215
495.49194
495.49192
495.49196
495.49191
495.4929
495.49279
495.49271
495.49253
495.49233
495.4921
495.49192
495.49196
495.49191
495.49191
501.85235
501.85232
501.85229
501.85214
501.85209
501.85201
501.85189
501.85181
501.85175
501.85177
501.85232
501.85232
501.85225
501.85213
501.85209
501.85198
501.85184
501.85178
501.8517
501.85166
501.85229
501.85225
501.8522
501.85209
501.85203
501.8519
501.85174
501.85169
501.85164
501.85158
501.85214
501.85213
501.85209
501.85198
501.8519
501.85174
501.85155
501.85149
501.85145
501.85141
501.85209
501.85209
501.85203
501.8519
501.8518
501.85162
501.85141
501.85132
501.85127
501.85122
501.85201
501.85198
501.8519
501.85174
501.85162
501.85142
501.85119
501.8511
501.85104
501.85099
501.85189
501.85184
501.85174
501.85155
501.85141
501.85119
501.85096
501.85087
501.85083
501.85082
501.85181
501.85178
501.85169
501.85149
501.85132
501.8511
501.85087
501.85081
501.85082
501.85085
501.85175
501.8517
501.85164
501.85145
501.85127
501.85104
501.85083
501.85082
501.85085
501.8508
501.85177
501.85166
501.85158
501.85141
501.85122
501.85099
501.85082
501.85085
501.8508
501.85081
508.07565
508.07562
508.0756
508.07545
508.0754
508.07531
508.07519
508.07511
508.07506
508.07507
508.07562
508.07563
508.07555
508.07544
508.07539
508.07529
508.07515
508.07509
508.07501
508.07497
508.0756
508.07555
508.0755
508.0754
508.07534
508.07521
508.07505
508.075
508.07495
508.07489
508.07545
508.07544
508.0754
508.07529
508.07521
508.07506
508.07487
508.07481
508.07477
508.07473
508.0754
508.07539
508.07534
508.07521
508.07511
508.07494
508.07473
508.07464
508.07459
508.07454
508.07531
508.07529
508.07521
508.07506
508.07494
508.07474
508.07452
508.07443
508.07437
508.07433
508.07519
508.07515
508.07505
508.07487
508.07473
508.07452
508.07429
508.07421
508.07417
508.07416
508.07511
508.07509
508.075
508.07481
508.07464
508.07443
508.07421
508.07415
508.07416
508.07419
508.07506
508.07501
508.07495
508.07477
508.07459
508.07437
508.07417
508.07416
508.07419
508.07414
508.07507
508.07497
508.07489
508.07473
508.07454
508.07433
508.07416
508.07419
508.07414
508.07415
514.17145
514.17143
514.1714
514.17126
514.17121
514.17112
514.171
514.17093
514.17087
514.17089
514.17143
514.17143
514.17136
514.17126
514.1712
514.1711
514.17096
514.1709
514.17083
514.17079
514.1714
514.17136
514.17131
514.17122
514.17115
514.17102
514.17087
514.17082
514.17077
514.17071
514.17126
514.17126
514.17122
514.17111
514.17103
514.17088
514.1707
514.17064
514.1706
514.17056
514.17121
514.1712
514.17115
514.17103
514.17093
514.17076
514.17056
514.17048
514.17043
514.17038