/*--------------------------------*- C++ -*----------------------------------*\
| =========                 |                                                 |
| \\      /  F ield         | OpenFOAM: The Open Source CFD Toolbox           |
|  \\    /   O peration     | Version:  v2106                                 |
|   \\  /    A nd           | Website:  www.openfoam.com                      |
|    \\/     M anipulation  |                                                 |
\*---------------------------------------------------------------------------*/
FoamFile
{
    version     2.0;
    format      ascii;
    arch        "LSB;label=32;scalar=64";
    class       volVectorField;
    location    "0.3";
    object      U;
}
// * * * * * * * * * * * * * * * * * * * * * * * * * * * * * * * * * * * * * //

dimensions      [0 1 -1 0 0 0 0];

internalField   nonuniform List<vector> 
400
(
(5.61862e-06 0 0)
(1.65968e-05 0 0)
(2.68345e-05 0 0)
(3.59486e-05 0 0)
(4.36917e-05 0 0)
(4.9958e-05 0 0)
(5.47621e-05 0 0)
(5.81982e-05 0 0)
(6.03916e-05 0 0)
(6.1454e-05 0 0)
(6.14504e-05 0 0)
(6.03807e-05 0 0)
(5.81802e-05 0 0)
(5.47376e-05 0 0)
(4.99278e-05 0 0)
(4.36576e-05 0 0)
(3.59135e-05 0 0)
(2.68024e-05 0 0)
(1.65731e-05 0 0)
(5.60904e-06 0 0)
(1.97425e-05 0 0)
(5.83081e-05 0 0)
(9.4247e-05 0 0)
(0.000126206 0 0)
(0.000153317 0 0)
(0.00017522 0 0)
(0.000191981 0 0)
(0.000203948 0 0)
(0.000211575 0 0)
(0.000215267 0 0)
(0.000215255 0 0)
(0.00021154 0 0)
(0.00020389 0 0)
(0.000191902 0 0)
(0.000175123 0 0)
(0.000153208 0 0)
(0.000126094 0 0)
(9.41452e-05 0 0)
(5.82329e-05 0 0)
(1.97126e-05 0 0)
(4.36755e-05 0 0)
(0.000128956 0 0)
(0.00020833 0 0)
(0.000278773 0 0)
(0.000338374 0 0)
(0.000386378 0 0)
(0.000422994 0 0)
(0.000449055 0 0)
(0.000465623 0 0)
(0.000473629 0 0)
(0.000473607 0 0)
(0.000465557 0 0)
(0.000448945 0 0)
(0.000422844 0 0)
(0.000386194 0 0)
(0.000338167 0 0)
(0.00027856 0 0)
(0.000208137 0 0)
(0.000128814 0 0)
(4.3619e-05 0 0)
(8.80791e-05 0 0)
(0.000259968 0 0)
(0.000419688 0 0)
(0.000561068 0 0)
(0.00068028 0 0)
(0.000775914 0 0)
(0.000848554 0 0)
(0.000900048 0 0)
(0.000932674 0 0)
(0.000948405 0 0)
(0.000948368 0 0)
(0.000932562 0 0)
(0.000899864 0 0)
(0.000848303 0 0)
(0.000775604 0 0)
(0.000679931 0 0)
(0.00056071 0 0)
(0.000419362 0 0)
(0.000259727 0 0)
(8.79839e-05 0 0)
(0.000170841 0 0)
(0.000504018 0 0)
(0.000813002 0 0)
(0.00108565 0 0)
(0.00131462 0 0)
(0.00149743 0 0)
(0.00163561 0 0)
(0.00173309 0 0)
(0.00179461 0 0)
(0.0018242 0 0)
(0.00182414 0 0)
(0.00179444 0 0)
(0.0017328 0 0)
(0.00163521 0 0)
(0.00149694 0 0)
(0.00131406 0 0)
(0.00108508 0 0)
(0.000812482 0 0)
(0.000503634 0 0)
(0.000170689 0 0)
(0.000322092 0 0)
(0.000949744 0 0)
(0.00153047 0 0)
(0.00204103 0 0)
(0.00246776 0 0)
(0.00280664 0 0)
(0.0030613 0 0)
(0.00324 0 0)
(0.00335225 0 0)
(0.00340608 0 0)
(0.00340599 0 0)
(0.00335198 0 0)
(0.00323955 0 0)
(0.0030607 0 0)
(0.00280589 0 0)
(0.00246692 0 0)
(0.00204016 0 0)
(0.00152968 0 0)
(0.000949158 0 0)
(0.000321859 0 0)
(0.0005914 0 0)
(0.00174275 0 0)
(0.00280509 0 0)
(0.00373504 0 0)
(0.004508 0 0)
(0.00511797 0 0)
(0.00557336 0 0)
(0.00589091 0 0)
(0.00608936 0 0)
(0.0061842 0 0)
(0.00618407 0 0)
(0.00608897 0 0)
(0.00589027 0 0)
(0.00557248 0 0)
(0.00511688 0 0)
(0.00450677 0 0)
(0.00373377 0 0)
(0.00280394 0 0)
(0.0017419 0 0)
(0.000591058 0 0)
(0.00105772 0 0)
(0.00311454 0 0)
(0.00500603 0 0)
(0.00665323 0 0)
(0.00801342 0 0)
(0.00907889 0 0)
(0.00986832 0 0)
(0.0104149 0 0)
(0.0107544 0 0)
(0.010916 0 0)
(0.0109159 0 0)
(0.0107539 0 0)
(0.010414 0 0)
(0.0098671 0 0)
(0.00907738 0 0)
(0.00801172 0 0)
(0.00665147 0 0)
(0.00500442 0 0)
(0.00311335 0 0)
(0.00105724 0 0)
(0.00184253 0 0)
(0.00542035 0 0)
(0.00869705 0 0)
(0.0115326 0 0)
(0.0138557 0 0)
(0.0156596 0 0)
(0.0169842 0 0)
(0.0178938 0 0)
(0.0184549 0 0)
(0.0187209 0 0)
(0.0187206 0 0)
(0.0184542 0 0)
(0.0178926 0 0)
(0.0169826 0 0)
(0.0156576 0 0)
(0.0138534 0 0)
(0.0115302 0 0)
(0.00869491 0 0)
(0.00541876 0 0)
(0.00184189 0 0)
(0.00312644 0 0)
(0.00918624 0 0)
(0.0147072 0 0)
(0.0194473 0 0)
(0.0232936 0 0)
(0.0262491 0 0)
(0.0283967 0 0)
(0.029857 0 0)
(0.0307509 0 0)
(0.0311723 0 0)
(0.031172 0 0)
(0.03075 0 0)
(0.0298556 0 0)
(0.0283947 0 0)
(0.0262466 0 0)
(0.0232908 0 0)
(0.0194444 0 0)
(0.0147045 0 0)
(0.00918424 0 0)
(0.00312564 0 0)
(0.00516971 0 0)
(0.0151656 0 0)
(0.024211 0 0)
(0.0318997 0 0)
(0.0380643 0 0)
(0.042741 0 0)
(0.0460969 0 0)
(0.048353 0 0)
(0.0497212 0 0)
(0.0503624 0 0)
(0.050362 0 0)
(0.0497202 0 0)
(0.0483513 0 0)
(0.0460946 0 0)
(0.0427381 0 0)
(0.038061 0 0)
(0.0318963 0 0)
(0.0242078 0 0)
(0.0151632 0 0)
(0.00516875 0 0)
(0.00833855 0 0)
(0.0244077 0 0)
(0.0388168 0 0)
(0.0509056 0 0)
(0.0604521 0 0)
(0.0675812 0 0)
(0.0726201 0 0)
(0.0759623 0 0)
(0.0779674 0 0)
(0.0789003 0 0)
(0.0789 0 0)
(0.0779662 0 0)
(0.0759604 0 0)
(0.0726175 0 0)
(0.067578 0 0)
(0.0604484 0 0)
(0.0509018 0 0)
(0.0388133 0 0)
(0.0244051 0 0)
(0.00833748 0 0)
(0.0131439 0 0)
(0.0383512 0 0)
(0.0606682 0 0)
(0.0790659 0 0)
(0.0933128 0 0)
(0.103745 0 0)
(0.110985 0 0)
(0.115711 0 0)
(0.11851 0 0)
(0.119803 0 0)
(0.119802 0 0)
(0.118509 0 0)
(0.115709 0 0)
(0.110982 0 0)
(0.103742 0 0)
(0.0933092 0 0)
(0.0790621 0 0)
(0.0606647 0 0)
(0.0383485 0 0)
(0.0131428 0 0)
(0.0203134 0 0)
(0.0589794 0 0)
(0.0925827 0 0)
(0.119624 0 0)
(0.140032 0 0)
(0.154612 0 0)
(0.164506 0 0)
(0.170844 0 0)
(0.174544 0 0)
(0.176236 0 0)
(0.176236 0 0)
(0.174543 0 0)
(0.170843 0 0)
(0.164504 0 0)
(0.154609 0 0)
(0.140029 0 0)
(0.11962 0 0)
(0.0925796 0 0)
(0.058977 0 0)
(0.0203124 0 0)
(0.0309548 0 0)
(0.0891376 0 0)
(0.138292 0 0)
(0.176519 0 0)
(0.2044 0 0)
(0.223703 0 0)
(0.236454 0 0)
(0.244441 0 0)
(0.249026 0 0)
(0.2511 0 0)
(0.2511 0 0)
(0.249025 0 0)
(0.24444 0 0)
(0.236452 0 0)
(0.223701 0 0)
(0.204397 0 0)
(0.176516 0 0)
(0.13829 0 0)
(0.0891357 0 0)
(0.030954 0 0)
(0.04699 0 0)
(0.133251 0 0)
(0.202907 0 0)
(0.254462 0 0)
(0.290374 0 0)
(0.314272 0 0)
(0.32955 0 0)
(0.338876 0 0)
(0.344129 0 0)
(0.346478 0 0)
(0.346478 0 0)
(0.344129 0 0)
(0.338875 0 0)
(0.329549 0 0)
(0.314271 0 0)
(0.290373 0 0)
(0.25446 0 0)
(0.202906 0 0)
(0.13325 0 0)
(0.0469895 0 0)
(0.0724484 0 0)
(0.199009 0 0)
(0.293779 0 0)
(0.358986 0 0)
(0.401679 0 0)
(0.428711 0 0)
(0.445336 0 0)
(0.455194 0 0)
(0.460634 0 0)
(0.463035 0 0)
(0.463035 0 0)
(0.460634 0 0)
(0.455194 0 0)
(0.445336 0 0)
(0.42871 0 0)
(0.401679 0 0)
(0.358985 0 0)
(0.293778 0 0)
(0.199009 0 0)
(0.0724483 0 0)
(0.11783 0 0)
(0.301247 0 0)
(0.421801 0 0)
(0.496202 0 0)
(0.541034 0 0)
(0.56774 0 0)
(0.583459 0 0)
(0.592494 0 0)
(0.597375 0 0)
(0.599504 0 0)
(0.599504 0 0)
(0.597375 0 0)
(0.592494 0 0)
(0.583459 0 0)
(0.567741 0 0)
(0.541035 0 0)
(0.496203 0 0)
(0.421801 0 0)
(0.301248 0 0)
(0.11783 0 0)
(0.21675 0 0)
(0.470185 0 0)
(0.602182 0 0)
(0.671312 0 0)
(0.708645 0 0)
(0.729353 0 0)
(0.740992 0 0)
(0.747484 0 0)
(0.750926 0 0)
(0.752411 0 0)
(0.752411 0 0)
(0.750926 0 0)
(0.747485 0 0)
(0.740992 0 0)
(0.729354 0 0)
(0.708646 0 0)
(0.671313 0 0)
(0.602183 0 0)
(0.470186 0 0)
(0.21675 0 0)
(0.496589 0 0)
(0.76308 0 0)
(0.849505 0 0)
(0.883689 0 0)
(0.899533 0 0)
(0.907652 0 0)
(0.912029 0 0)
(0.914415 0 0)
(0.915664 0 0)
(0.9162 0 0)
(0.9162 0 0)
(0.915664 0 0)
(0.914416 0 0)
(0.912029 0 0)
(0.907652 0 0)
(0.899533 0 0)
(0.883689 0 0)
(0.849506 0 0)
(0.76308 0 0)
(0.496589 0 0)
)
;

boundaryField
{
    movingWall
    {
        type            fixedValue;
        value           uniform (1 0 0);
    }
    fixedWalls
    {
        type            noSlip;
    }
    frontAndBack
    {
        type            empty;
    }
}


// ************************************************************************* //
