/*--------------------------------*- C++ -*----------------------------------*\
| =========                 |                                                 |
| \\      /  F ield         | OpenFOAM: The Open Source CFD Toolbox           |
|  \\    /   O peration     | Version:  v2106                                 |
|   \\  /    A nd           | Website:  www.openfoam.com                      |
|    \\/     M anipulation  |                                                 |
\*---------------------------------------------------------------------------*/
FoamFile
{
    version     2.0;
    format      ascii;
    arch        "LSB;label=32;scalar=64";
    class       volVectorField;
    location    "95";
    object      flux;
}
// * * * * * * * * * * * * * * * * * * * * * * * * * * * * * * * * * * * * * //

dimensions      [0 1 -1 1 0 0 0];

internalField   nonuniform List<vector> 
4000
(
(-5.9844775e-08 -5.984477e-08 0.72478708)
(-1.3149147e-07 -5.3059306e-08 0.72478664)
(-6.6214904e-08 -5.1486265e-08 0.72478643)
(-3.5878519e-08 -5.0875351e-08 0.7247863)
(-1.1469341e-08 -5.0516995e-08 0.72478624)
(9.7634504e-09 -5.0189006e-08 0.72478624)
(2.7881857e-08 -4.9742376e-08 0.7247863)
(4.1112488e-08 -4.8921326e-08 0.72478639)
(4.3914109e-08 -4.7072215e-08 0.72478652)
(1.3892406e-08 -4.2574044e-08 0.72478663)
(-5.305931e-08 -1.3149147e-07 0.72478664)
(-1.1895371e-07 -1.189537e-07 0.72478625)
(-6.2938971e-08 -1.1501646e-07 0.72478605)
(-3.4424613e-08 -1.1307316e-07 0.72478593)
(-1.0439823e-08 -1.1174928e-07 0.72478587)
(1.0925378e-08 -1.1049779e-07 0.72478588)
(2.9783377e-08 -1.0890746e-07 0.72478593)
(4.511773e-08 -1.0636239e-07 0.72478604)
(5.3435032e-08 -1.0161679e-07 0.72478618)
(1.8390578e-08 -9.2420234e-08 0.72478634)
(-5.1486263e-08 -6.6214917e-08 0.72478643)
(-1.1501647e-07 -6.2938974e-08 0.72478605)
(-6.0334361e-08 -6.0334359e-08 0.72478586)
(-3.2611339e-08 -5.8380382e-08 0.72478574)
(-8.8939703e-09 -5.6746603e-08 0.72478569)
(1.2605274e-08 -5.514109e-08 0.7247857)
(3.2017254e-08 -5.3285976e-08 0.72478576)
(4.8403163e-08 -5.0872298e-08 0.72478587)
(5.7856264e-08 -4.7650606e-08 0.72478602)
(2.0023441e-08 -4.4128712e-08 0.72478619)
(-5.0875348e-08 -3.5878524e-08 0.7247863)
(-1.1307315e-07 -3.4424625e-08 0.72478593)
(-5.838038e-08 -3.2611348e-08 0.72478574)
(-3.0836857e-08 -3.0836866e-08 0.72478563)
(-7.2005299e-09 -2.9144031e-08 0.72478558)
(1.4386005e-08 -2.7451383e-08 0.72478559)
(3.4052168e-08 -2.564583e-08 0.72478566)
(5.07531e-08 -2.3649876e-08 0.72478578)
(6.0178617e-08 -2.155528e-08 0.72478593)
(2.0738506e-08 -1.9902891e-08 0.72478611)
(-5.0516997e-08 -1.1469332e-08 0.72478624)
(-1.1174929e-07 -1.0439814e-08 0.72478587)
(-5.6746601e-08 -8.8939673e-09 0.72478569)
(-2.9144021e-08 -7.2005397e-09 0.72478558)
(-5.5084878e-09 -5.5084987e-09 0.72478554)
(1.6103475e-08 -3.8360942e-09 0.72478556)
(3.5818762e-08 -2.1613205e-09 0.72478563)
(5.2493713e-08 -5.0275529e-10 0.72478575)
(6.1603249e-08 9.9182719e-10 0.72478591)
(2.1125034e-08 1.9703799e-09 0.72478609)
(-5.0189003e-08 9.7634546e-09 0.72478624)
(-1.1049779e-07 1.0925384e-08 0.72478588)
(-5.5141105e-08 1.2605283e-08 0.7247857)
(-2.7451389e-08 1.4386015e-08 0.72478559)
(-3.8360843e-09 1.6103475e-08 0.72478556)
(1.7733183e-08 1.7733186e-08 0.72478558)
(3.7385507e-08 1.928827e-08 0.72478565)
(5.3906248e-08 2.0743782e-08 0.72478577)
(6.2651753e-08 2.1974796e-08 0.72478594)
(2.1390875e-08 2.2729295e-08 0.72478612)
(-4.9742378e-08 2.788185e-08 0.7247863)
(-1.0890746e-07 2.9783367e-08 0.72478593)
(-5.328597e-08 3.2017256e-08 0.72478576)
(-2.5645829e-08 3.4052178e-08 0.72478566)
(-2.1613169e-09 3.5818756e-08 0.72478563)
(1.928827e-08 3.738551e-08 0.72478565)
(3.8829358e-08 3.8829367e-08 0.72478573)
(5.5180239e-08 4.0177345e-08 0.72478586)
(6.3588762e-08 4.1353896e-08 0.72478602)
(2.1628033e-08 4.212121e-08 0.72478621)
(-4.8921325e-08 4.1112479e-08 0.72478639)
(-1.0636238e-07 4.5117724e-08 0.72478604)
(-5.0872293e-08 4.8403169e-08 0.72478587)
(-2.3649889e-08 5.0753092e-08 0.72478578)
(-5.0275269e-10 5.2493712e-08 0.72478575)
(2.0743794e-08 5.3906235e-08 0.72478577)
(4.0177342e-08 5.5180249e-08 0.72478586)
(5.6430777e-08 5.6430781e-08 0.72478599)
(6.4595617e-08 5.7670379e-08 0.72478616)
(2.1902417e-08 5.8657085e-08 0.72478635)
(-4.7072215e-08 4.3914115e-08 0.72478652)
(-1.0161677e-07 5.3435037e-08 0.72478618)
(-4.7650602e-08 5.7856269e-08 0.72478602)
(-2.1555285e-08 6.0178611e-08 0.72478593)
(9.918262e-10 6.1603262e-08 0.72478591)
(2.1974806e-08 6.265175e-08 0.72478594)
(4.1353904e-08 6.3588764e-08 0.72478602)
(5.767037e-08 6.4595615e-08 0.72478616)
(6.5815065e-08 6.5815073e-08 0.72478633)
(2.2285837e-08 6.71502e-08 0.72478652)
(-4.2574043e-08 1.3892411e-08 0.72478663)
(-9.2420227e-08 1.8390583e-08 0.72478634)
(-4.412872e-08 2.0023442e-08 0.72478619)
(-1.9902896e-08 2.0738504e-08 0.72478611)
(1.9703862e-09 2.1125034e-08 0.72478609)
(2.2729296e-08 2.1390877e-08 0.72478612)
(4.2121207e-08 2.1628028e-08 0.72478621)
(5.8657086e-08 2.1902413e-08 0.72478635)
(6.7150202e-08 2.2285838e-08 0.72478652)
(2.2792502e-08 2.2792504e-08 0.72478672)
(-2.6288355e-07 -2.6288355e-07 1.0781342)
(-5.8921918e-07 -2.2981658e-07 1.0781336)
(-3.1222414e-07 -2.2248655e-07 1.0781334)
(-1.7201959e-07 -2.195975e-07 1.0781332)
(-5.4181279e-08 -2.1785709e-07 1.0781331)
(4.9974303e-08 -2.1624784e-07 1.0781331)
(1.4004877e-07 -2.1404246e-07 1.0781332)
(2.085013e-07 -2.0991593e-07 1.0781333)
(2.3218218e-07 -2.0009e-07 1.0781335)
(7.6175577e-08 -1.7179039e-07 1.0781338)
(-2.2981658e-07 -5.8921918e-07 1.0781336)
(-5.2862369e-07 -5.2862369e-07 1.0781332)
(-2.9689552e-07 -5.1023361e-07 1.0781329)
(-1.6507539e-07 -5.0095577e-07 1.0781327)
(-4.9156786e-08 -4.945091e-07 1.0781326)
(5.5696251e-08 -4.8836964e-07 1.0781327)
(1.4954663e-07 -4.8053337e-07 1.0781327)
(2.2942999e-07 -4.6785685e-07 1.0781329)
(2.8937048e-07 -4.4332566e-07 1.0781331)
(1.0447519e-07 -3.891054e-07 1.0781334)
(-2.2248655e-07 -3.1222415e-07 1.0781334)
(-5.1023361e-07 -2.9689553e-07 1.0781329)
(-2.8455622e-07 -2.8455623e-07 1.0781326)
(-1.5629507e-07 -2.7509788e-07 1.0781325)
(-4.1595148e-08 -2.6711325e-07 1.0781324)
(6.3950034e-08 -2.5923537e-07 1.0781324)
(1.6056156e-07 -2.50113e-07 1.0781325)
(2.4570901e-07 -2.3821404e-07 1.0781327)
(3.1093362e-07 -2.2227311e-07 1.0781329)
(1.1232241e-07 -2.0526304e-07 1.0781332)
(-2.195975e-07 -1.7201959e-07 1.0781332)
(-5.0095577e-07 -1.6507541e-07 1.0781327)
(-2.7509787e-07 -1.5629509e-07 1.0781325)
(-1.4763241e-07 -1.4763242e-07 1.0781323)
(-3.3294271e-08 -1.3933686e-07 1.0781322)
(7.26965e-08 -1.310262e-07 1.0781323)
(1.7056795e-07 -1.2215149e-07 1.0781324)
(2.5726988e-07 -1.1233398e-07 1.0781326)
(3.2232148e-07 -1.0203083e-07 1.0781328)
(1.1581523e-07 -9.39438e-08 1.0781331)
(-2.178571e-07 -5.4181279e-08 1.0781331)
(-4.9450911e-07 -4.9156777e-08 1.0781326)
(-2.6711323e-07 -4.1595148e-08 1.0781324)
(-1.3933684e-07 -3.3294276e-08 1.0781322)
(-2.4988935e-08 -2.4988937e-08 1.0781322)
(8.11354e-08 -1.6771696e-08 1.0781322)
(1.7925378e-07 -8.535988e-09 1.0781323)
(2.6582968e-07 -3.7427145e-10 1.0781325)
(3.293238e-07 6.9834805e-09 1.0781328)
(1.1771376e-07 1.1799058e-08 1.0781331)
(-2.1624784e-07 4.99743e-08 1.0781331)
(-4.8836964e-07 5.569626e-08 1.0781327)
(-2.5923537e-07 6.3950035e-08 1.0781324)
(-1.310262e-07 7.2696503e-08 1.0781323)
(-1.677169e-08 8.1135406e-08 1.0781322)
(8.9149449e-08 8.9149453e-08 1.0781323)
(1.8696538e-07 9.680604e-08 1.0781324)
(2.7278934e-07 1.0398622e-07 1.0781326)
(3.3449481e-07 1.1007675e-07 1.0781328)
(1.1902561e-07 1.1382411e-07 1.0781332)
(-2.1404246e-07 1.4004876e-07 1.0781332)
(-4.8053337e-07 1.4954663e-07 1.0781327)
(-2.5011299e-07 1.6056157e-07 1.0781325)
(-1.2215147e-07 1.7056796e-07 1.0781324)
(-8.5359852e-09 1.7925378e-07 1.0781323)
(9.6806035e-08 1.8696537e-07 1.0781324)
(1.9409055e-07 1.9409056e-07 1.0781325)
(2.7910039e-07 2.0077867e-07 1.0781327)
(3.3916169e-07 2.0667929e-07 1.078133)
(1.2021201e-07 2.1060323e-07 1.0781333)
(-2.0991592e-07 2.085013e-07 1.0781333)
(-4.6785683e-07 2.2942999e-07 1.0781329)
(-2.3821404e-07 2.4570903e-07 1.0781327)
(-1.1233399e-07 2.5726989e-07 1.0781326)
(-3.7428108e-10 2.6582967e-07 1.0781325)
(1.0398623e-07 2.7278934e-07 1.0781326)
(2.0077868e-07 2.791004e-07 1.0781327)
(2.8537808e-07 2.8537809e-07 1.0781329)
(3.4431937e-07 2.9179376e-07 1.0781332)
(1.2164157e-07 2.9725196e-07 1.0781335)
(-2.0009e-07 2.3218218e-07 1.0781335)
(-4.4332565e-07 2.8937048e-07 1.0781331)
(-2.2227309e-07 3.1093362e-07 1.0781329)
(-1.0203083e-07 3.2232148e-07 1.0781328)
(6.9834601e-09 3.293238e-07 1.0781328)
(1.1007676e-07 3.3449482e-07 1.0781328)
(2.066793e-07 3.391617e-07 1.078133)
(2.9179375e-07 3.4431937e-07 1.0781332)
(3.5103557e-07 3.5103556e-07 1.0781335)
(1.2385081e-07 3.5998201e-07 1.0781338)
(-1.7179039e-07 7.6175581e-08 1.0781338)
(-3.8910539e-07 1.0447519e-07 1.0781334)
(-2.0526304e-07 1.1232242e-07 1.0781332)
(-9.3943813e-08 1.1581522e-07 1.0781331)
(1.179906e-08 1.1771376e-07 1.0781331)
(1.1382413e-07 1.1902562e-07 1.0781332)
(2.1060322e-07 1.2021201e-07 1.0781333)
(2.9725194e-07 1.2164157e-07 1.0781335)
(3.5998202e-07 1.238508e-07 1.0781338)
(1.2760588e-07 1.2760587e-07 1.0781342)
(-4.2688853e-07 -4.2688852e-07 1.0781422)
(-9.6947264e-07 -3.7324437e-07 1.0781417)
(-5.303246e-07 -3.6115959e-07 1.0781415)
(-2.9400862e-07 -3.5623392e-07 1.0781413)
(-8.7841883e-08 -3.5318209e-07 1.0781413)
(9.8367876e-08 -3.5031512e-07 1.0781413)
(2.6361508e-07 -3.4635191e-07 1.0781414)
(3.9857523e-07 -3.3887353e-07 1.0781415)
(4.7705017e-07 -3.2086601e-07 1.0781418)
(1.6580276e-07 -2.6831754e-07 1.078142)
(-3.7324437e-07 -9.6947264e-07 1.0781417)
(-8.7087924e-07 -8.7087924e-07 1.0781413)
(-5.0480893e-07 -8.4022824e-07 1.0781411)
(-2.8204238e-07 -8.2425771e-07 1.0781409)
(-7.8963684e-08 -8.1290787e-07 1.0781409)
(1.0861315e-07 -8.0196563e-07 1.0781409)
(2.8077748e-07 -7.8790662e-07 1.078141)
(4.3680408e-07 -7.6503416e-07 1.0781412)
(5.8288414e-07 -7.2044679e-07 1.0781414)
(2.1835122e-07 -6.2102524e-07 1.0781418)
(-3.611596e-07 -5.3032461e-07 1.0781415)
(-8.4022824e-07 -5.0480893e-07 1.0781411)
(-4.8370307e-07 -4.8370308e-07 1.0781409)
(-2.6668826e-07 -4.6717754e-07 1.0781407)
(-6.5549799e-08 -4.5303909e-07 1.0781407)
(1.2336913e-07 -4.3898453e-07 1.0781407)
(3.0054655e-07 -4.2264482e-07 1.0781408)
(4.6603506e-07 -4.0128991e-07 1.078141)
(6.2105909e-07 -3.7271526e-07 1.0781412)
(2.3208379e-07 -3.4286163e-07 1.0781416)
(-3.5623392e-07 -2.9400863e-07 1.0781413)
(-8.2425771e-07 -2.8204237e-07 1.0781409)
(-4.6717753e-07 -2.6668826e-07 1.0781407)
(-2.5137839e-07 -2.5137838e-07 1.0781406)
(-5.0770676e-08 -2.3661784e-07 1.0781405)
(1.3900742e-07 -2.2176895e-07 1.0781406)
(3.1847209e-07 -2.0587384e-07 1.0781407)
(4.8673364e-07 -1.8827299e-07 1.0781409)
(6.4131242e-07 -1.6982743e-07 1.0781411)
(2.3825364e-07 -1.5548804e-07 1.0781415)
(-3.5318209e-07 -8.7841888e-08 1.0781413)
(-8.1290786e-07 -7.896368e-08 1.0781409)
(-4.5303908e-07 -6.5549806e-08 1.0781407)
(-2.3661784e-07 -5.0770685e-08 1.0781405)
(-3.5940362e-08 -3.5940358e-08 1.0781405)
(1.5411313e-07 -2.1231938e-08 1.0781405)
(3.3404251e-07 -6.4602251e-09 1.0781406)
(5.0208147e-07 8.2025005e-09 1.0781408)
(6.5384404e-07 2.143023e-08 1.0781411)
(2.4164338e-07 3.0072217e-08 1.0781415)
(-3.5031512e-07 9.8367873e-08 1.0781413)
(-8.0196563e-07 1.0861315e-07 1.0781409)
(-4.3898454e-07 1.2336911e-07 1.0781407)
(-2.2176894e-07 1.3900742e-07 1.0781406)
(-2.1231929e-08 1.5411313e-07 1.0781405)
(1.6848755e-07 1.6848755e-07 1.0781406)
(3.4790653e-07 1.8226345e-07 1.0781407)
(5.146241e-07 1.9524179e-07 1.0781409)
(6.6318214e-07 2.0632488e-07 1.0781412)
(2.4401497e-07 2.1320421e-07 1.0781416)
(-3.4635191e-07 2.6361508e-07 1.0781414)
(-7.8790662e-07 2.8077747e-07 1.078141)
(-4.2264481e-07 3.0054655e-07 1.0781408)
(-2.0587383e-07 3.184721e-07 1.0781407)
(-6.4602391e-09 3.340425e-07 1.0781406)
(1.8226345e-07 3.4790652e-07 1.0781407)
(3.6079675e-07 3.6079674e-07 1.0781408)
(5.261429e-07 3.7304747e-07 1.078141)
(6.7180646e-07 3.8411592e-07 1.0781413)
(2.462296e-07 3.9179964e-07 1.0781417)
(-3.3887352e-07 3.9857524e-07 1.0781415)
(-7.6503416e-07 4.3680407e-07 1.0781412)
(-4.012899e-07 4.6603507e-07 1.078141)
(-1.8827298e-07 4.8673364e-07 1.0781409)
(8.2024836e-09 5.0208148e-07 1.0781408)
(1.9524179e-07 5.1462411e-07 1.0781409)
(3.7304748e-07 5.261429e-07 1.078141)
(5.3794328e-07 5.3794327e-07 1.0781413)
(6.8193431e-07 5.5080255e-07 1.0781416)
(2.4913745e-07 5.6331575e-07 1.0781419)
(-3.2086601e-07 4.7705017e-07 1.0781418)
(-7.2044678e-07 5.8288414e-07 1.0781414)
(-3.7271524e-07 6.210591e-07 1.0781412)
(-1.6982742e-07 6.4131241e-07 1.0781411)
(2.1430231e-08 6.5384405e-07 1.0781411)
(2.0632487e-07 6.6318215e-07 1.0781412)
(3.8411591e-07 6.7180647e-07 1.0781413)
(5.5080255e-07 6.8193432e-07 1.0781416)
(6.9717894e-07 6.9717894e-07 1.0781419)
(2.5457174e-07 7.2586046e-07 1.0781423)
(-2.6831754e-07 1.6580276e-07 1.078142)
(-6.2102523e-07 2.1835123e-07 1.0781418)
(-3.4286163e-07 2.3208379e-07 1.0781416)
(-1.5548804e-07 2.3825363e-07 1.0781415)
(3.0072221e-08 2.4164338e-07 1.0781415)
(2.1320421e-07 2.4401496e-07 1.0781416)
(3.9179964e-07 2.4622961e-07 1.0781417)
(5.6331575e-07 2.4913745e-07 1.0781419)
(7.2586046e-07 2.5457174e-07 1.0781423)
(2.6825846e-07 2.6825846e-07 1.0781427)
(-5.7539312e-07 -5.7539312e-07 1.0781554)
(-1.3120197e-06 -5.0318795e-07 1.0781549)
(-7.244913e-07 -4.8686266e-07 1.0781547)
(-3.9999311e-07 -4.8007683e-07 1.0781546)
(-1.0982528e-07 -4.7578329e-07 1.0781545)
(1.5703249e-07 -4.7169038e-07 1.0781545)
(3.9883775e-07 -4.6598558e-07 1.0781546)
(6.0459366e-07 -4.5515849e-07 1.0781548)
(7.4220224e-07 -4.2894402e-07 1.078155)
(2.6268028e-07 -3.520389e-07 1.0781553)
(-5.0318795e-07 -1.3120197e-06 1.0781549)
(-1.179224e-06 -1.179224e-06 1.0781545)
(-6.8982462e-07 -1.1375648e-06 1.0781543)
(-3.8337405e-07 -1.1154184e-06 1.0781542)
(-9.724561e-08 -1.0993982e-06 1.0781541)
(1.7172904e-07 -1.083772e-06 1.0781542)
(4.2363559e-07 -1.0635624e-06 1.0781543)
(6.60156e-07 -1.0305427e-06 1.0781545)
(8.9688162e-07 -9.659298e-07 1.0781547)
(3.395854e-07 -8.2131835e-07 1.0781551)
(-4.8686265e-07 -7.2449131e-07 1.0781547)
(-1.1375648e-06 -6.8982462e-07 1.0781543)
(-6.6068563e-07 -6.6068564e-07 1.0781541)
(-3.6182647e-07 -6.3751676e-07 1.078154)
(-7.8178921e-08 -6.1746027e-07 1.0781539)
(1.9286824e-07 -5.9736986e-07 1.078154)
(4.5206702e-07 -5.7391205e-07 1.0781541)
(7.0222628e-07 -5.4319374e-07 1.0781543)
(9.5142662e-07 -5.0211726e-07 1.0781546)
(3.5908791e-07 -4.5968742e-07 1.078155)
(-4.8007682e-07 -3.999931e-07 1.0781546)
(-1.1154184e-06 -3.8337405e-07 1.0781542)
(-6.3751676e-07 -3.6182647e-07 1.078154)
(-3.4014868e-07 -3.4014869e-07 1.0781539)
(-5.7098713e-08 -3.1910976e-07 1.0781538)
(2.1527727e-07 -2.9784814e-07 1.0781539)
(4.7781171e-07 -2.7502402e-07 1.078154)
(7.3195079e-07 -2.497195e-07 1.0781542)
(9.8038794e-07 -2.2322469e-07 1.0781545)
(3.6787196e-07 -2.0275868e-07 1.0781549)
(-4.7578328e-07 -1.0982529e-07 1.0781545)
(-1.0993982e-06 -9.7245619e-08 1.0781541)
(-6.1746027e-07 -7.8178921e-08 1.0781539)
(-3.1910975e-07 -5.7098711e-08 1.0781538)
(-3.5878368e-08 -3.5878365e-08 1.0781538)
(2.3695398e-07 -1.4772488e-08 1.0781538)
(5.0019566e-07 6.4766487e-09 1.078154)
(7.540256e-07 2.7609356e-08 1.0781542)
(9.9838743e-07 4.6690774e-08 1.0781545)
(3.7273191e-07 5.9140822e-08 1.0781549)
(-4.7169038e-07 1.5703248e-07 1.0781545)
(-1.083772e-06 1.7172902e-07 1.0781542)
(-5.9736986e-07 1.9286823e-07 1.078154)
(-2.9784813e-07 2.1527726e-07 1.0781539)
(-1.477249e-08 2.3695398e-07 1.0781538)
(2.5763228e-07 2.5763228e-07 1.0781539)
(5.2019356e-07 2.775204e-07 1.078154)
(7.7216491e-07 2.9634747e-07 1.0781542)
(1.0119194e-06 3.1252431e-07 1.0781546)
(3.7617199e-07 3.2263428e-07 1.078155)
(-4.6598559e-07 3.9883775e-07 1.0781546)
(-1.0635624e-06 4.2363557e-07 1.0781543)
(-5.7391203e-07 4.5206703e-07 1.0781541)
(-2.7502401e-07 4.778117e-07 1.078154)
(6.476645e-09 5.0019565e-07 1.078154)
(2.775204e-07 5.2019355e-07 1.078154)
(5.3891085e-07 5.3891084e-07 1.0781542)
(7.8902951e-07 5.5690567e-07 1.0781544)
(1.0246742e-06 5.7346373e-07 1.0781547)
(3.7947189e-07 5.8525728e-07 1.0781551)
(-4.551585e-07 6.0459368e-07 1.0781548)
(-1.0305427e-06 6.6015603e-07 1.0781545)
(-5.4319373e-07 7.0222629e-07 1.0781543)
(-2.497195e-07 7.3195079e-07 1.0781542)
(2.7609359e-08 7.5402561e-07 1.0781542)
(2.9634747e-07 7.7216493e-07 1.0781542)
(5.5690567e-07 7.8902951e-07 1.0781544)
(8.067178e-07 8.0671779e-07 1.0781546)
(1.040271e-06 8.2674761e-07 1.0781549)
(3.8403436e-07 8.4727887e-07 1.0781553)
(-4.2894402e-07 7.4220225e-07 1.078155)
(-9.659298e-07 8.9688164e-07 1.0781547)
(-5.0211726e-07 9.5142663e-07 1.0781546)
(-2.2322469e-07 9.8038795e-07 1.0781545)
(4.6690779e-08 9.9838744e-07 1.0781545)
(3.1252431e-07 1.0119194e-06 1.0781546)
(5.7346371e-07 1.0246742e-06 1.0781547)
(8.2674761e-07 1.040271e-06 1.0781549)
(1.0652353e-06 1.0652353e-06 1.0781553)
(3.931594e-07 1.1155612e-06 1.0781557)
(-3.520389e-07 2.6268027e-07 1.0781553)
(-8.2131835e-07 3.395854e-07 1.0781551)
(-4.5968742e-07 3.5908791e-07 1.078155)
(-2.0275869e-07 3.6787196e-07 1.0781549)
(5.914082e-08 3.7273191e-07 1.0781549)
(3.2263427e-07 3.7617199e-07 1.078155)
(5.8525728e-07 3.7947189e-07 1.0781551)
(8.4727887e-07 3.8403437e-07 1.0781553)
(1.1155612e-06 3.9315939e-07 1.0781557)
(4.1758497e-07 4.1758496e-07 1.0781561)
(-7.1570339e-07 -7.1570338e-07 1.0781734)
(-1.6318551e-06 -6.2563142e-07 1.078173)
(-8.9994021e-07 -6.0531216e-07 1.0781728)
(-4.9130432e-07 -5.9677964e-07 1.0781727)
(-1.2034589e-07 -5.9130212e-07 1.0781726)
(2.2527836e-07 -5.8601895e-07 1.0781727)
(5.4303832e-07 -5.7860455e-07 1.0781728)
(8.1963549e-07 -5.6447642e-07 1.0781729)
(1.0149757e-06 -5.3016797e-07 1.0781732)
(3.6161224e-07 -4.2927555e-07 1.0781735)
(-6.2563143e-07 -1.6318551e-06 1.078173)
(-1.4662682e-06 -1.4662682e-06 1.0781726)
(-8.5666255e-07 -1.4142695e-06 1.0781724)
(-4.7028927e-07 -1.3863087e-06 1.0781723)
(-1.0420485e-07 -1.3658236e-06 1.0781723)
(2.4432472e-07 -1.3456494e-06 1.0781723)
(5.7535212e-07 -1.31941e-06 1.0781724)
(8.9229037e-07 -1.2764022e-06 1.0781726)
(1.217777e-06 -1.1920644e-06 1.0781729)
(4.6250466e-07 -1.0029953e-06 1.0781733)
(-6.0531217e-07 -8.9994023e-07 1.0781728)
(-1.4142695e-06 -8.5666255e-07 1.0781724)
(-8.1998066e-07 -8.1998068e-07 1.0781723)
(-4.4285845e-07 -7.9051256e-07 1.0781721)
(-7.9686632e-08 -7.6476879e-07 1.0781721)
(2.7169194e-07 -7.388101e-07 1.0781721)
(6.1228555e-07 -7.0838092e-07 1.0781723)
(9.4698117e-07 -6.6846323e-07 1.0781725)
(1.2883826e-06 -6.1510406e-07 1.0781728)
(4.876583e-07 -5.6036248e-07 1.0781731)
(-5.9677964e-07 -4.9130433e-07 1.0781727)
(-1.3863087e-06 -4.7028926e-07 1.0781723)
(-7.9051256e-07 -4.4285844e-07 1.0781721)
(-4.1507738e-07 -4.1507739e-07 1.078172)
(-5.2502387e-08 -3.8796433e-07 1.078172)
(3.0071259e-07 -3.6044919e-07 1.0781721)
(6.4569898e-07 -3.3083109e-07 1.0781722)
(9.8556723e-07 -2.979533e-07 1.0781724)
(1.3258777e-06 -2.6354679e-07 1.0781727)
(4.9899904e-07 -2.3707909e-07 1.0781731)
(-5.9130212e-07 -1.2034589e-07 1.0781726)
(-1.3658236e-06 -1.0420484e-07 1.0781723)
(-7.6476879e-07 -7.9686625e-08 1.0781721)
(-3.8796434e-07 -5.2502397e-08 1.078172)
(-2.5058435e-08 -2.5058434e-08 1.078172)
(3.2882518e-07 2.3130412e-09 1.078172)
(6.7478144e-07 2.9937601e-08 1.0781722)
(1.0142655e-06 5.7461125e-08 1.0781724)
(1.3492568e-06 8.2333649e-08 1.0781727)
(5.0530344e-07 9.8546861e-08 1.0781731)
(-5.8601894e-07 2.2527837e-07 1.0781727)
(-1.3456494e-06 2.4432472e-07 1.0781723)
(-7.3881011e-07 2.7169192e-07 1.0781721)
(-3.6044919e-07 3.0071258e-07 1.0781721)
(2.3130509e-09 3.2882518e-07 1.078172)
(3.5570862e-07 3.5570862e-07 1.0781721)
(7.0084707e-07 3.8165195e-07 1.0781722)
(1.0379633e-06 4.0631343e-07 1.0781725)
(1.3669635e-06 4.2760323e-07 1.0781728)
(5.0980785e-07 4.4096819e-07 1.0781732)
(-5.7860456e-07 5.4303832e-07 1.0781728)
(-1.31941e-06 5.7535211e-07 1.0781724)
(-7.0838093e-07 6.1228555e-07 1.0781723)
(-3.3083108e-07 6.4569899e-07 1.0781722)
(2.9937611e-08 6.7478143e-07 1.0781722)
(3.8165195e-07 7.0084707e-07 1.0781722)
(7.2538625e-07 7.2538626e-07 1.0781724)
(1.0602168e-06 7.4919113e-07 1.0781726)
(1.3839116e-06 7.7136456e-07 1.0781729)
(5.1421341e-07 7.8738257e-07 1.0781733)
(-5.6447641e-07 8.1963548e-07 1.0781729)
(-1.2764022e-06 8.9229036e-07 1.0781726)
(-6.6846323e-07 9.4698116e-07 1.0781725)
(-2.979533e-07 9.8556723e-07 1.0781724)
(5.7461133e-08 1.0142655e-06 1.0781724)
(4.0631345e-07 1.0379633e-06 1.0781725)
(7.4919113e-07 1.0602168e-06 1.0781726)
(1.0839416e-06 1.0839416e-06 1.0781729)
(1.4051549e-06 1.1113893e-06 1.0781732)
(5.2048653e-07 1.1401441e-06 1.0781736)
(-5.3016797e-07 1.0149757e-06 1.0781732)
(-1.1920644e-06 1.217777e-06 1.0781729)
(-6.1510405e-07 1.2883826e-06 1.0781728)
(-2.6354677e-07 1.3258777e-06 1.0781727)
(8.2333662e-08 1.3492568e-06 1.0781727)
(4.2760324e-07 1.3669635e-06 1.0781728)
(7.7136455e-07 1.3839116e-06 1.0781729)
(1.1113893e-06 1.4051549e-06 1.0781732)
(1.4401141e-06 1.4401141e-06 1.0781735)
(5.3338327e-07 1.5120453e-06 1.0781739)
(-4.2927555e-07 3.6161224e-07 1.0781735)
(-1.0029953e-06 4.6250466e-07 1.0781733)
(-5.6036247e-07 4.8765831e-07 1.0781731)
(-2.3707907e-07 4.9899904e-07 1.0781731)
(9.8546867e-08 5.0530345e-07 1.0781731)
(4.4096818e-07 5.0980785e-07 1.0781732)
(7.8738257e-07 5.1421341e-07 1.0781733)
(1.1401441e-06 5.2048653e-07 1.0781736)
(1.5120453e-06 5.3338326e-07 1.0781739)
(5.6844068e-07 5.6844067e-07 1.0781744)
(-8.4937958e-07 -8.4937958e-07 1.0781962)
(-1.9334576e-06 -7.4200118e-07 1.0781958)
(-1.0600424e-06 -7.1785952e-07 1.0781956)
(-5.6991345e-07 -7.0766478e-07 1.0781955)
(-1.2088031e-07 -7.010538e-07 1.0781955)
(3.0118045e-07 -6.9461957e-07 1.0781955)
(6.9295662e-07 -6.8554092e-07 1.0781956)
(1.0384166e-06 -6.6819227e-07 1.0781958)
(1.2886317e-06 -6.2598825e-07 1.078196)
(4.6024682e-07 -5.0171443e-07 1.0781963)
(-7.4200118e-07 -1.9334576e-06 1.0781958)
(-1.7361775e-06 -1.7361775e-06 1.0781955)
(-1.0085378e-06 -1.6743132e-06 1.0781953)
(-5.4470487e-07 -1.6408191e-06 1.0781952)
(-1.013125e-07 -1.6160562e-06 1.0781951)
(3.2444978e-07 -1.5914845e-06 1.0781952)
(7.3259757e-07 -1.5593792e-06 1.0781953)
(1.1277456e-06 -1.5066322e-06 1.0781955)
(1.5383484e-06 -1.4030605e-06 1.0781958)
(5.8452064e-07 -1.170676e-06 1.0781961)
(-7.1785953e-07 -1.0600424e-06 1.0781956)
(-1.6743132e-06 -1.0085378e-06 1.0781953)
(-9.6468401e-07 -9.6468402e-07 1.0781951)
(-5.1165646e-07 -9.2920834e-07 1.078195)
(-7.1545651e-08 -8.9800206e-07 1.078195)
(3.5785744e-07 -8.6636525e-07 1.078195)
(7.7780888e-07 -8.2915658e-07 1.0781951)
(1.1947352e-06 -7.8027367e-07 1.0781954)
(1.6245878e-06 -7.1494511e-07 1.0781956)
(6.1516982e-07 -6.4822981e-07 1.078196)
(-7.0766478e-07 -5.6991346e-07 1.0781955)
(-1.6408191e-06 -5.4470488e-07 1.0781952)
(-9.2920834e-07 -5.1165646e-07 1.078195)
(-4.780229e-07 -4.7802292e-07 1.0781949)
(-3.8469403e-08 -4.4505215e-07 1.0781949)
(3.9329527e-07 -4.1147295e-07 1.0781949)
(8.1868915e-07 -3.7524014e-07 1.0781951)
(1.2419571e-06 -3.349745e-07 1.0781953)
(1.6703923e-06 -2.9284994e-07 1.0781956)
(6.289975e-07 -2.605378e-07 1.078196)
(-7.0105381e-07 -1.208803e-07 1.0781955)
(-1.6160562e-06 -1.0131249e-07 1.0781951)
(-8.9800205e-07 -7.1545642e-08 1.078195)
(-4.4505216e-07 -3.8469409e-08 1.0781949)
(-4.9956803e-09 -4.9956803e-09 1.0781949)
(4.2766945e-07 2.8471684e-08 1.0781949)
(8.5430733e-07 6.2322307e-08 1.0781951)
(1.2771254e-06 9.6102833e-08 1.0781953)
(1.6990245e-06 1.2665059e-07 1.0781956)
(6.3671125e-07 1.4654828e-07 1.078196)
(-6.9461957e-07 3.0118046e-07 1.0781955)
(-1.5914845e-06 3.2444979e-07 1.0781952)
(-8.6636525e-07 3.5785743e-07 1.078195)
(-4.1147294e-07 3.9329527e-07 1.0781949)
(2.847169e-08 4.2766946e-07 1.0781949)
(4.6061326e-07 4.6061326e-07 1.078195)
(8.863203e-07 4.924978e-07 1.0781951)
(1.3062853e-06 5.2290865e-07 1.0781954)
(1.7208377e-06 5.492524e-07 1.0781957)
(6.4226263e-07 5.6583759e-07 1.0781961)
(-6.8554092e-07 6.9295661e-07 1.0781956)
(-1.5593792e-06 7.3259756e-07 1.0781953)
(-8.2915657e-07 7.7780887e-07 1.0781951)
(-3.7524013e-07 8.1868915e-07 1.0781951)
(6.2322307e-08 8.5430733e-07 1.0781951)
(4.924978e-07 8.863203e-07 1.0781951)
(9.1660272e-07 9.1660272e-07 1.0781953)
(1.33388e-06 9.4617689e-07 1.0781955)
(1.7419535e-06 9.739503e-07 1.0781958)
(6.4776804e-07 9.9418149e-07 1.0781962)
(-6.6819227e-07 1.0384166e-06 1.0781958)
(-1.5066322e-06 1.1277456e-06 1.0781955)
(-7.8027366e-07 1.1947352e-06 1.0781954)
(-3.3497448e-07 1.2419571e-06 1.0781953)
(9.610283e-08 1.2771254e-06 1.0781953)
(5.2290865e-07 1.3062853e-06 1.0781954)
(9.4617689e-07 1.3338801e-06 1.0781955)
(1.3636329e-06 1.3636329e-06 1.0781958)
(1.7688423e-06 1.3984992e-06 1.0781961)
(6.557501e-07 1.4354322e-06 1.0781965)
(-6.2598824e-07 1.2886316e-06 1.078196)
(-1.4030605e-06 1.5383484e-06 1.0781958)
(-7.1494509e-07 1.6245878e-06 1.0781956)
(-2.9284993e-07 1.6703923e-06 1.0781956)
(1.2665059e-07 1.6990245e-06 1.0781956)
(5.492524e-07 1.7208377e-06 1.0781957)
(9.739503e-07 1.7419535e-06 1.0781958)
(1.3984992e-06 1.7688423e-06 1.0781961)
(1.8137528e-06 1.8137528e-06 1.0781964)
(6.7239004e-07 1.9069894e-06 1.0781968)
(-5.0171442e-07 4.6024682e-07 1.0781963)
(-1.170676e-06 5.8452064e-07 1.0781961)
(-6.482298e-07 6.1516982e-07 1.078196)
(-2.6053779e-07 6.2899751e-07 1.078196)
(1.4654827e-07 6.3671125e-07 1.078196)
(5.6583758e-07 6.4226263e-07 1.0781961)
(9.9418148e-07 6.4776803e-07 1.0781962)
(1.4354322e-06 6.5575009e-07 1.0781965)
(1.9069895e-06 6.7239004e-07 1.0781968)
(7.1790788e-07 7.1790788e-07 1.0781973)
(-9.7651192e-07 -9.7651191e-07 1.0782235)
(-2.2179334e-06 -8.5245606e-07 1.0782231)
(-1.2066815e-06 -8.2465484e-07 1.0782229)
(-6.3757311e-07 -8.128746e-07 1.0782228)
(-1.1322055e-07 -8.0517947e-07 1.0782228)
(3.8250192e-07 -7.9763785e-07 1.0782229)
(8.4552903e-07 -7.8695176e-07 1.078223)
(1.2569322e-06 -7.6648864e-07 1.0782232)
(1.5588146e-06 -7.1664883e-07 1.0782234)
(5.5716403e-07 -5.6976652e-07 1.0782237)
(-8.5245607e-07 -2.2179334e-06 1.0782231)
(-1.9901478e-06 -1.9901477e-06 1.0782228)
(-1.1473094e-06 -1.9188562e-06 1.0782226)
(-6.0836006e-07 -1.8800864e-06 1.0782225)
(-9.0365431e-08 -1.8512309e-06 1.0782225)
(4.0984348e-07 -1.8224296e-06 1.0782226)
(8.9225285e-07 -1.784661e-06 1.0782227)
(1.3623866e-06 -1.7224984e-06 1.0782229)
(1.8538978e-06 -1.6003309e-06 1.0782231)
(7.0404634e-07 -1.3260806e-06 1.0782235)
(-8.2465483e-07 -1.2066816e-06 1.0782229)
(-1.9188561e-06 -1.1473094e-06 1.0782226)
(-1.0966202e-06 -1.0966202e-06 1.0782225)
(-5.6994788e-07 -1.0554128e-06 1.0782224)
(-5.5563734e-08 -1.0189745e-06 1.0782224)
(4.490718e-07 -9.8187429e-07 1.0782224)
(9.4546029e-07 -9.3812103e-07 1.0782225)
(1.4412623e-06 -8.8057198e-07 1.0782227)
(1.9552324e-06 -8.036749e-07 1.078223)
(7.3999758e-07 -7.2540504e-07 1.0782234)
(-8.128746e-07 -6.375731e-07 1.0782228)
(-1.8800864e-06 -6.0836006e-07 1.0782225)
(-1.0554128e-06 -5.6994788e-07 1.0782224)
(-5.3071438e-07 -5.3071436e-07 1.0782223)
(-1.6826931e-08 -4.9211938e-07 1.0782223)
(4.9069699e-07 -4.5269653e-07 1.0782223)
(9.9355516e-07 -4.1007191e-07 1.0782225)
(1.4968327e-06 -3.6265798e-07 1.0782227)
(2.0090647e-06 -3.1306619e-07 1.078223)
(7.5622625e-07 -2.7510693e-07 1.0782234)
(-8.0517947e-07 -1.1322055e-07 1.0782228)
(-1.8512309e-06 -9.0365431e-08 1.0782225)
(-1.0189745e-06 -5.5563732e-08 1.0782224)
(-4.9211938e-07 -1.6826939e-08 1.0782223)
(2.2454096e-08 2.2454094e-08 1.0782223)
(5.3111927e-07 6.1809726e-08 1.0782223)
(1.0354988e-06 1.0169032e-07 1.0782225)
(1.5382681e-06 1.4154115e-07 1.0782227)
(2.0427834e-06 1.7759755e-07 1.078223)
(7.6530375e-07 2.0106853e-07 1.0782234)
(-7.9763785e-07 3.8250191e-07 1.0782229)
(-1.8224296e-06 4.0984347e-07 1.0782226)
(-9.8187431e-07 4.490718e-07 1.0782224)
(-4.5269655e-07 4.9069698e-07 1.0782223)
(6.1809734e-08 5.3111927e-07 1.0782223)
(5.6993322e-07 5.6993321e-07 1.0782224)
(1.0732866e-06 6.0759073e-07 1.0782226)
(1.5727399e-06 6.4360338e-07 1.0782228)
(2.0685921e-06 6.7487948e-07 1.0782231)
(7.7187357e-07 6.9460768e-07 1.0782235)
(-7.8695176e-07 8.4552902e-07 1.078223)
(-1.784661e-06 8.9225284e-07 1.0782227)
(-9.3812104e-07 9.4546027e-07 1.0782225)
(-4.1007191e-07 9.9355517e-07 1.0782225)
(1.0169032e-07 1.0354988e-06 1.0782225)
(6.0759073e-07 1.0732866e-06 1.0782226)
(1.109169e-06 1.109169e-06 1.0782227)
(1.6055568e-06 1.14439e-06 1.0782229)
(2.0937877e-06 1.1776563e-06 1.0782232)
(7.7845588e-07 1.2020193e-06 1.0782236)
(-7.6648863e-07 1.2569322e-06 1.0782232)
(-1.7224984e-06 1.3623866e-06 1.0782229)
(-8.8057198e-07 1.4412623e-06 1.0782227)
(-3.6265797e-07 1.4968327e-06 1.0782227)
(1.4154115e-07 1.5382681e-06 1.0782227)
(6.4360338e-07 1.57274e-06 1.0782228)
(1.14439e-06 1.6055568e-06 1.0782229)
(1.6412272e-06 1.6412272e-06 1.0782232)
(2.1262214e-06 1.6833813e-06 1.0782235)
(7.881156e-07 1.7283316e-06 1.0782239)
(-7.1664883e-07 1.5588146e-06 1.0782234)
(-1.6003309e-06 1.8538978e-06 1.0782231)
(-8.0367487e-07 1.9552324e-06 1.078223)
(-3.1306618e-07 2.0090647e-06 1.078223)
(1.7759755e-07 2.0427834e-06 1.078223)
(6.7487948e-07 2.0685921e-06 1.0782231)
(1.1776563e-06 2.0937877e-06 1.0782232)
(1.6833813e-06 2.1262213e-06 1.0782235)
(2.1808922e-06 2.1808922e-06 1.0782238)
(8.0842273e-07 2.2949666e-06 1.0782242)
(-5.6976651e-07 5.5716404e-07 1.0782237)
(-1.3260806e-06 7.0404635e-07 1.0782235)
(-7.2540503e-07 7.3999758e-07 1.0782234)
(-2.7510694e-07 7.5622625e-07 1.0782234)
(2.0106852e-07 7.6530374e-07 1.0782234)
(6.9460767e-07 7.7187356e-07 1.0782235)
(1.2020193e-06 7.7845587e-07 1.0782236)
(1.7283316e-06 7.8811559e-07 1.0782239)
(2.2949666e-06 8.0842273e-07 1.0782242)
(8.6416522e-07 8.6416523e-07 1.0782246)
(-1.0967282e-06 -1.0967282e-06 1.0782551)
(-2.4850844e-06 -9.5672509e-07 1.0782547)
(-1.3408234e-06 -9.2543951e-07 1.0782546)
(-6.9563936e-07 -9.1215279e-07 1.0782545)
(-9.9052113e-08 -9.0342539e-07 1.0782545)
(4.6711425e-07 -8.9482545e-07 1.0782545)
(9.9807759e-07 -8.8259924e-07 1.0782546)
(1.4720226e-06 -8.5914955e-07 1.0782548)
(1.8223014e-06 -8.0198656e-07 1.0782551)
(6.5133206e-07 -6.3341949e-07 1.0782553)
(-9.567251e-07 -2.4850844e-06 1.0782547)
(-2.2281514e-06 -2.2281514e-06 1.0782544)
(-1.273965e-06 -2.1478943e-06 1.0782543)