/*--------------------------------*- C++ -*----------------------------------*\
| =========                 |                                                 |
| \\      /  F ield         | OpenFOAM: The Open Source CFD Toolbox           |
|  \\    /   O peration     | Version:  v2106                                 |
|   \\  /    A nd           | Website:  www.openfoam.com                      |
|    \\/     M anipulation  |                                                 |
\*---------------------------------------------------------------------------*/
FoamFile
{
    version     2.0;
    format      ascii;
    arch        "LSB;label=32;scalar=64";
    class       volVectorField;
    location    "85";
    object      flux;
}
// * * * * * * * * * * * * * * * * * * * * * * * * * * * * * * * * * * * * * //

dimensions      [0 1 -1 1 0 0 0];

internalField   nonuniform List<vector> 
4000
(
(-9.2447403e-08 -9.2447406e-08 0.72450825)
(-2.0312625e-07 -8.196531e-08 0.72450757)
(-1.0228788e-07 -7.9535299e-08 0.72450724)
(-5.5424666e-08 -7.8591576e-08 0.72450704)
(-1.7717746e-08 -7.8037996e-08 0.72450695)
(1.5082356e-08 -7.7531329e-08 0.72450695)
(4.3071387e-08 -7.6841376e-08 0.72450703)
(6.350987e-08 -7.557303e-08 0.72450718)
(6.7837807e-08 -7.2716555e-08 0.72450737)
(2.1460769e-08 -6.5767844e-08 0.72450755)
(-8.1965307e-08 -2.0312625e-07 0.72450757)
(-1.8375809e-07 -1.8375809e-07 0.72450697)
(-9.722728e-08 -1.776759e-07 0.72450666)
(-5.3178712e-08 -1.7467393e-07 0.72450647)
(-1.6127375e-08 -1.7262884e-07 0.72450638)
(1.6877287e-08 -1.7069554e-07 0.72450638)
(4.6008835e-08 -1.6823882e-07 0.72450647)
(6.9697101e-08 -1.6430724e-07 0.72450663)
(8.2545587e-08 -1.5697629e-07 0.72450685)
(2.8409481e-08 -1.4276959e-07 0.72450709)
(-7.9535297e-08 -1.0228788e-07 0.72450724)
(-1.776759e-07 -9.7227286e-08 0.72450666)
(-9.3203717e-08 -9.3203726e-08 0.72450636)
(-5.0377606e-08 -9.0185255e-08 0.72450618)
(-1.3739359e-08 -8.7661418e-08 0.7245061)
(1.9472382e-08 -8.5181242e-08 0.72450611)
(4.9459691e-08 -8.2315497e-08 0.7245062)
(7.4772398e-08 -7.8586874e-08 0.72450637)
(8.9375451e-08 -7.3610045e-08 0.7245066)
(3.09319e-08 -6.8169479e-08 0.72450687)
(-7.8591581e-08 -5.5424664e-08 0.72450704)
(-1.7467394e-07 -5.317872e-08 0.72450647)
(-9.0185248e-08 -5.0377597e-08 0.72450618)
(-4.7636404e-08 -4.7636423e-08 0.724506)
(-1.1123362e-08 -4.5021352e-08 0.72450593)
(2.2223207e-08 -4.2406597e-08 0.72450595)
(5.2603203e-08 -3.9617409e-08 0.72450605)
(7.8402553e-08 -3.6534074e-08 0.72450623)
(9.2962982e-08 -3.3298382e-08 0.72450647)
(3.2036524e-08 -3.0745799e-08 0.72450675)
(-7.8038001e-08 -1.7717741e-08 0.72450695)
(-1.7262884e-07 -1.6127363e-08 0.72450638)
(-8.7661419e-08 -1.3739348e-08 0.7245061)
(-4.502136e-08 -1.1123365e-08 0.72450593)
(-8.5095327e-09 -8.5095472e-09 0.72450586)
(2.4876324e-08 -5.9260429e-09 0.72450589)
(5.5332215e-08 -3.3388756e-09 0.724506)
(8.1091425e-08 -7.7674521e-10 0.72450618)
(9.5163726e-08 1.5320657e-09 0.72450643)
(3.2633623e-08 3.0437064e-09 0.72450671)
(-7.7531328e-08 1.5082353e-08 0.72450695)
(-1.7069555e-07 1.6877282e-08 0.72450638)
(-8.518125e-08 1.9472369e-08 0.72450611)
(-4.2406603e-08 2.2223217e-08 0.72450595)
(-5.9260403e-09 2.4876321e-08 0.72450589)
(2.7393879e-08 2.7393874e-08 0.72450592)
(5.7752501e-08 2.9796127e-08 0.72450603)
(8.3273495e-08 3.2044587e-08 0.72450623)
(9.6783434e-08 3.3946241e-08 0.72450648)
(3.3044285e-08 3.5111765e-08 0.72450676)
(-7.6841382e-08 4.3071387e-08 0.72450703)
(-1.6823882e-07 4.6008825e-08 0.72450647)
(-8.2315484e-08 4.9459678e-08 0.7245062)
(-3.9617408e-08 5.2603205e-08 0.72450605)
(-3.3388756e-09 5.5332231e-08 0.724506)
(2.9796131e-08 5.77525e-08 0.72450603)
(5.9982927e-08 5.9982925e-08 0.72450616)
(8.5241539e-08 6.206525e-08 0.72450635)
(9.8230905e-08 6.3882753e-08 0.72450661)
(3.3410638e-08 6.5068097e-08 0.7245069)
(-7.5573037e-08 6.3509868e-08 0.72450718)
(-1.6430726e-07 6.9697116e-08 0.72450663)
(-7.858687e-08 7.4772397e-08 0.72450637)
(-3.653405e-08 7.8402548e-08 0.72450623)
(-7.7674623e-10 8.1091431e-08 0.72450618)
(3.2044573e-08 8.3273492e-08 0.72450623)
(6.2065251e-08 8.5241538e-08 0.72450635)
(8.7173323e-08 8.7173315e-08 0.72450656)
(9.978628e-08 8.9088219e-08 0.72450682)
(3.3834514e-08 9.0612481e-08 0.72450711)
(-7.271655e-08 6.7837809e-08 0.72450737)
(-1.5697629e-07 8.25456e-08 0.72450685)
(-7.3610052e-08 8.9375468e-08 0.7245066)
(-3.3298373e-08 9.2962983e-08 0.72450647)
(1.5320684e-09 9.5163718e-08 0.72450643)
(3.3946237e-08 9.6783435e-08 0.72450648)
(6.3882751e-08 9.8230907e-08 0.72450661)
(8.9088221e-08 9.9786285e-08 0.72450682)
(1.0167007e-07 1.0167007e-07 0.72450709)
(3.4426813e-08 1.0373255e-07 0.72450738)
(-6.5767842e-08 2.1460775e-08 0.72450755)
(-1.427696e-07 2.8409483e-08 0.72450709)
(-6.8169487e-08 3.0931905e-08 0.72450687)
(-3.0745801e-08 3.2036526e-08 0.72450675)
(3.0437054e-09 3.2633621e-08 0.72450671)
(3.5111763e-08 3.3044285e-08 0.72450676)
(6.5068102e-08 3.3410638e-08 0.7245069)
(9.0612487e-08 3.3834519e-08 0.72450711)
(1.0373255e-07 3.4426815e-08 0.72450738)
(3.52095e-08 3.5209502e-08 0.72450769)
(-4.0609894e-07 -4.0609894e-07 1.0777211)
(-9.1021784e-07 -3.5501759e-07 1.0777202)
(-4.8231975e-07 -3.436943e-07 1.0777198)
(-2.6573375e-07 -3.3923133e-07 1.0777195)
(-8.3698829e-08 -3.3654278e-07 1.0777194)
(7.719919e-08 -3.3405683e-07 1.0777194)
(2.163449e-07 -3.3064999e-07 1.0777195)
(3.2208943e-07 -3.2427537e-07 1.0777197)
(3.586714e-07 -3.0909643e-07 1.0777201)
(1.1767485e-07 -2.6537958e-07 1.0777204)
(-3.5501759e-07 -9.1021785e-07 1.0777202)
(-8.1661087e-07 -8.1661088e-07 1.0777195)
(-4.5864037e-07 -7.8820221e-07 1.0777191)
(-2.5500648e-07 -7.7386995e-07 1.0777188)
(-7.5937079e-08 -7.6391126e-07 1.0777187)
(8.6038377e-08 -7.5442711e-07 1.0777187)
(2.3101709e-07 -7.4232175e-07 1.0777188)
(3.5441978e-07 -7.2273921e-07 1.0777191)
(4.4701508e-07 -6.8484378e-07 1.0777194)
(1.613917e-07 -6.0108508e-07 1.0777199)
(-3.4369429e-07 -4.8231976e-07 1.0777198)
(-7.882022e-07 -4.5864038e-07 1.0777191)
(-4.3957882e-07 -4.3957883e-07 1.0777186)
(-2.4144279e-07 -4.2496774e-07 1.0777184)
(-6.4255983e-08 -4.1263321e-07 1.0777183)
(9.8788699e-08 -4.004636e-07 1.0777183)
(2.4803279e-07 -3.8637149e-07 1.0777185)
(3.7956739e-07 -3.6799016e-07 1.0777187)
(4.8032553e-07 -3.4336483e-07 1.0777191)
(1.7351399e-07 -3.1708793e-07 1.0777196)
(-3.3923133e-07 -2.6573375e-07 1.0777195)
(-7.7386995e-07 -2.5500648e-07 1.0777188)
(-4.2496773e-07 -2.4144279e-07 1.0777184)
(-2.2806086e-07 -2.2806086e-07 1.0777182)
(-5.1432939e-08 -2.1524602e-07 1.0777181)
(1.123001e-07 -2.0240787e-07 1.0777181)
(2.6349053e-07 -1.8869834e-07 1.0777182)
(3.9742644e-07 -1.7353242e-07 1.0777185)
(4.9791732e-07 -1.5761627e-07 1.0777189)
(1.7890963e-07 -1.4512354e-07 1.0777194)
(-3.3654278e-07 -8.3698826e-08 1.0777194)
(-7.6391124e-07 -7.5937074e-08 1.0777187)
(-4.126332e-07 -6.4255969e-08 1.0777183)
(-2.1524603e-07 -5.1432934e-08 1.0777181)
(-3.8602989e-08 -3.8602988e-08 1.077718)
(1.2533638e-07 -2.5909133e-08 1.077718)
(2.7690824e-07 -1.3186762e-08 1.0777182)
(4.1064946e-07 -5.7867616e-10 1.0777185)
(5.0873441e-07 1.0787466e-08 1.0777189)
(1.8184248e-07 1.8226508e-08 1.0777194)
(-3.3405683e-07 7.7199194e-08 1.0777194)
(-7.5442709e-07 8.6038382e-08 1.0777187)
(-4.0046359e-07 9.8788689e-08 1.0777183)
(-2.0240788e-07 1.123001e-07 1.0777181)
(-2.5909139e-08 1.2533638e-07 1.077718)
(1.3771632e-07 1.3771633e-07 1.0777181)
(2.8882099e-07 1.4954408e-07 1.0777182)
(4.2140067e-07 1.6063592e-07 1.0777185)
(5.1672251e-07 1.7004447e-07 1.077719)
(1.8386899e-07 1.7583331e-07 1.0777195)
(-3.3064999e-07 2.163449e-07 1.0777195)
(-7.4232174e-07 2.3101708e-07 1.0777188)
(-3.8637149e-07 2.4803278e-07 1.0777185)
(-1.8869834e-07 2.6349052e-07 1.0777182)
(-1.318676e-08 2.7690824e-07 1.0777182)
(1.4954408e-07 2.8882099e-07 1.0777182)
(2.9982783e-07 2.9982784e-07 1.0777184)
(4.3114985e-07 3.1015948e-07 1.0777187)
(5.2393181e-07 3.1927467e-07 1.0777192)
(1.8570171e-07 3.2533629e-07 1.0777197)
(-3.2427537e-07 3.2208943e-07 1.0777197)
(-7.2273921e-07 3.5441977e-07 1.0777191)
(-3.6799016e-07 3.7956739e-07 1.0777187)
(-1.7353242e-07 3.9742643e-07 1.0777185)
(-5.786712e-10 4.1064946e-07 1.0777185)
(1.6063592e-07 4.2140066e-07 1.0777185)
(3.1015948e-07 4.3114986e-07 1.0777187)
(4.408475e-07 4.408475e-07 1.0777191)
(5.3189931e-07 4.507583e-07 1.0777195)
(1.8791008e-07 4.5919002e-07 1.07772)
(-3.0909643e-07 3.586714e-07 1.0777201)
(-6.8484378e-07 4.4701509e-07 1.0777194)
(-3.4336483e-07 4.8032554e-07 1.0777191)
(-1.5761627e-07 4.9791732e-07 1.0777189)
(1.0787474e-08 5.0873442e-07 1.0777189)
(1.7004448e-07 5.1672251e-07 1.077719)
(3.1927467e-07 5.2393183e-07 1.0777192)
(4.5075829e-07 5.3189931e-07 1.0777195)
(5.4227433e-07 5.4227434e-07 1.0777199)
(1.9132286e-07 5.5609464e-07 1.0777205)
(-2.6537958e-07 1.1767485e-07 1.0777204)
(-6.0108507e-07 1.613917e-07 1.0777199)
(-3.1708792e-07 1.73514e-07 1.0777196)
(-1.4512355e-07 1.7890964e-07 1.0777194)
(1.8226521e-08 1.8184248e-07 1.0777194)
(1.7583333e-07 1.83869e-07 1.0777195)
(3.2533628e-07 1.8570172e-07 1.0777197)
(4.5919001e-07 1.8791008e-07 1.07772)
(5.5609464e-07 1.9132286e-07 1.0777205)
(1.9712361e-07 1.9712362e-07 1.077721)
(-6.5945108e-07 -6.5945108e-07 1.0777338)
(-1.4976273e-06 -5.7658253e-07 1.0777331)
(-8.1923816e-07 -5.5791419e-07 1.0777327)
(-4.5418076e-07 -5.503051e-07 1.0777324)
(-1.3569747e-07 -5.4559069e-07 1.0777323)
(1.5195654e-07 -5.4116184e-07 1.0777323)
(4.0722791e-07 -5.3503953e-07 1.0777325)
(6.1571236e-07 -5.2348702e-07 1.0777327)
(7.3693942e-07 -4.9566927e-07 1.0777331)
(2.5612948e-07 -4.1449316e-07 1.0777335)
(-5.7658253e-07 -1.4976273e-06 1.0777331)
(-1.3453219e-06 -1.3453219e-06 1.0777324)
(-7.7982201e-07 -1.2979728e-06 1.0777321)
(-4.3569551e-07 -1.2733018e-06 1.0777318)
(-1.2198258e-07 -1.2557688e-06 1.0777317)
(1.6778328e-07 -1.2388654e-06 1.0777317)
(4.3374014e-07 -1.2171473e-06 1.0777319)
(6.7476775e-07 -1.1818142e-06 1.0777322)
(9.0043021e-07 -1.1129363e-06 1.0777326)
(3.3730558e-07 -9.5935129e-07 1.0777331)
(-5.5791419e-07 -8.1923815e-07 1.0777327)
(-1.2979728e-06 -7.7982202e-07 1.0777321)
(-7.4721805e-07 -7.4721807e-07 1.0777317)
(-4.1197675e-07 -7.2168971e-07 1.0777315)
(-1.0126106e-07 -6.9984889e-07 1.0777314)
(1.9057808e-07 -6.7813765e-07 1.0777314)
(4.642791e-07 -6.528963e-07 1.0777316)
(7.1992336e-07 -6.1990758e-07 1.0777319)
(9.5940235e-07 -5.7576587e-07 1.0777323)
(3.5851946e-07 -5.2964841e-07 1.0777329)
(-5.503051e-07 -4.5418077e-07 1.0777324)
(-1.2733018e-06 -4.356955e-07 1.0777318)
(-7.2168971e-07 -4.1197674e-07 1.0777315)
(-3.8832634e-07 -3.8832633e-07 1.0777313)
(-7.8430527e-08 -3.655245e-07 1.0777312)
(2.1473587e-07 -3.4258619e-07 1.0777312)
(4.9197021e-07 -3.1803167e-07 1.0777314)
(7.5189819e-07 -2.9084216e-07 1.0777317)
(9.9068938e-07 -2.6234775e-07 1.0777321)
(3.6805055e-07 -2.4019648e-07 1.0777327)
(-5.4559069e-07 -1.3569749e-07 1.0777323)
(-1.2557688e-06 -1.219826e-07 1.0777317)
(-6.9984888e-07 -1.0126105e-07 1.0777314)
(-3.655245e-07 -7.8430525e-08 1.0777312)
(-5.5520912e-08 -5.5520897e-08 1.0777311)
(2.380709e-07 -3.2799576e-08 1.0777312)
(5.1602313e-07 -9.9805074e-09 1.0777313)
(7.7560728e-07 1.2670228e-08 1.0777317)
(1.010048e-06 3.310422e-08 1.0777321)
(3.7328697e-07 4.6454218e-08 1.0777327)
(-5.4116184e-07 1.5195653e-07 1.0777323)
(-1.2388654e-06 1.6778327e-07 1.0777317)
(-6.7813764e-07 1.9057806e-07 1.0777314)
(-3.4258618e-07 2.1473586e-07 1.0777312)
(-3.2799578e-08 2.3807091e-07 1.0777312)
(2.6027626e-07 2.6027625e-07 1.0777312)
(5.3744002e-07 2.8155699e-07 1.0777314)
(7.9498292e-07 3.0160571e-07 1.0777317)
(1.0244734e-06 3.1872665e-07 1.0777322)
(3.7695055e-07 3.2935373e-07 1.0777328)
(-5.3503953e-07 4.0722791e-07 1.0777325)
(-1.2171473e-06 4.3374014e-07 1.0777319)
(-6.5289629e-07 4.642791e-07 1.0777316)
(-3.1803166e-07 4.9197022e-07 1.0777314)
(-9.9805214e-09 5.1602313e-07 1.0777313)
(2.8155698e-07 5.3744002e-07 1.0777314)
(5.5735259e-07 5.5735259e-07 1.0777316)
(8.1277694e-07 5.7627727e-07 1.077732)
(1.037796e-06 5.9337556e-07 1.0777324)
(3.8037169e-07 6.0524524e-07 1.077733)
(-5.2348702e-07 6.1571237e-07 1.0777327)
(-1.1818142e-06 6.7476776e-07 1.0777322)
(-6.1990756e-07 7.1992335e-07 1.0777319)
(-2.9084215e-07 7.5189819e-07 1.0777317)
(1.267023e-08 7.7560728e-07 1.0777317)
(3.0160571e-07 7.9498293e-07 1.0777317)
(5.7627726e-07 8.1277695e-07 1.077732)
(8.310059e-07 8.3100591e-07 1.0777323)
(1.0534413e-06 8.5087066e-07 1.0777328)
(3.8486367e-07 8.702008e-07 1.0777334)
(-4.9566927e-07 7.3693942e-07 1.0777331)
(-1.1129363e-06 9.0043023e-07 1.0777326)
(-5.7576586e-07 9.5940236e-07 1.0777323)
(-2.6234774e-07 9.9068937e-07 1.0777321)
(3.3104218e-08 1.010048e-06 1.0777321)
(3.1872666e-07 1.0244734e-06 1.0777322)
(5.9337557e-07 1.037796e-06 1.0777324)
(8.5087065e-07 1.0534413e-06 1.0777328)
(1.0769909e-06 1.0769909e-06 1.0777332)
(3.9325845e-07 1.1212976e-06 1.0777339)
(-4.1449315e-07 2.5612947e-07 1.0777335)
(-9.5935128e-07 3.3730559e-07 1.0777331)
(-5.2964842e-07 3.5851947e-07 1.0777329)
(-2.4019648e-07 3.6805055e-07 1.0777327)
(4.6454214e-08 3.7328697e-07 1.0777327)
(3.2935373e-07 3.7695054e-07 1.0777328)
(6.0524525e-07 3.8037168e-07 1.077733)
(8.702008e-07 3.8486367e-07 1.0777334)
(1.1212976e-06 3.9325845e-07 1.0777339)
(4.1440143e-07 4.1440143e-07 1.0777345)
(-8.8885784e-07 -8.8885784e-07 1.0777544)
(-2.0267871e-06 -7.7731673e-07 1.0777537)
(-1.1191834e-06 -7.5209775e-07 1.0777534)
(-6.1790384e-07 -7.4161514e-07 1.0777532)
(-1.6965723e-07 -7.3498256e-07 1.0777531)
(2.4258035e-07 -7.2865991e-07 1.0777531)
(6.1611725e-07 -7.1984724e-07 1.0777533)
(9.3396572e-07 -7.0312171e-07 1.0777535)
(1.1465414e-06 -6.62626e-07 1.0777539)
(4.0578408e-07 -5.4382416e-07 1.0777544)
(-7.7731673e-07 -2.0267871e-06 1.0777537)
(-1.821647e-06 -1.821647e-06 1.0777531)
(-1.0656311e-06 -1.7572927e-06 1.0777528)
(-5.9223105e-07 -1.7230813e-06 1.0777526)
(-1.5022439e-07 -1.6983336e-06 1.0777525)
(2.6528334e-07 -1.6741945e-06 1.0777526)
(6.5442455e-07 -1.6429751e-06 1.0777527)
(1.0197976e-06 -1.5919668e-06 1.077753)
(1.3854877e-06 -1.4921537e-06 1.0777534)
(5.2458592e-07 -1.2687602e-06 1.077754)
(-7.5209775e-07 -1.1191834e-06 1.0777534)
(-1.7572927e-06 -1.0656311e-06 1.0777528)
(-1.0206177e-06 -1.0206177e-06 1.0777525)
(-5.5894475e-07 -9.8482687e-07 1.0777523)
(-1.207705e-07 -9.5384398e-07 1.0777522)
(2.9793882e-07 -9.2280868e-07 1.0777523)
(6.9834497e-07 -8.8657143e-07 1.0777524)
(1.0847871e-06 -8.3911828e-07 1.0777528)
(1.469748e-06 -7.7566399e-07 1.0777532)
(5.547131e-07 -7.1011901e-07 1.0777538)
(-7.4161514e-07 -6.1790384e-07 1.0777532)
(-1.7230813e-06 -5.9223105e-07 1.0777526)
(-9.8482686e-07 -5.5894475e-07 1.0777523)
(-5.2545732e-07 -5.2545732e-07 1.0777521)
(-8.8206198e-08 -4.9295675e-07 1.077752)
(3.3255589e-07 -4.6011219e-07 1.0777521)
(7.3811494e-07 -4.2485389e-07 1.0777523)
(1.130705e-06 -3.8576392e-07 1.0777526)
(1.514487e-06 -3.4483518e-07 1.0777531)
(5.6828257e-07 -3.1321961e-07 1.0777537)
(-7.3498256e-07 -1.6965723e-07 1.0777531)
(-1.6983336e-06 -1.502244e-07 1.0777525)
(-9.5384398e-07 -1.207705e-07 1.0777522)
(-4.9295675e-07 -8.8206185e-08 1.077752)
(-5.5425379e-08 -5.542538e-08 1.077752)
(3.6604169e-07 -2.2821405e-08 1.0777521)
(7.7269325e-07 1.000387e-08 1.0777523)
(1.1648058e-06 4.2649287e-08 1.0777526)
(1.5422923e-06 7.2125909e-08 1.077753)
(5.7579015e-07 9.1358533e-08 1.0777537)
(-7.2865992e-07 2.4258035e-07 1.0777531)
(-1.6741945e-06 2.6528333e-07 1.0777526)
(-9.2280865e-07 2.9793882e-07 1.0777523)
(-4.601122e-07 3.3255589e-07 1.0777521)
(-2.2821418e-08 3.6604168e-07 1.0777521)
(3.9798514e-07 3.9798513e-07 1.0777521)
(8.0358564e-07 4.2870791e-07 1.0777523)
(1.1928271e-06 4.5779162e-07 1.0777527)
(1.5631962e-06 4.8278129e-07 1.0777532)
(5.8110432e-07 4.9839897e-07 1.0777538)
(-7.1984724e-07 6.1611724e-07 1.0777533)
(-1.6429751e-06 6.5442455e-07 1.0777527)
(-8.8657142e-07 6.9834497e-07 1.0777524)
(-4.2485389e-07 7.3811493e-07 1.0777523)
(1.0003863e-08 7.7269325e-07 1.0777523)
(4.2870792e-07 8.0358563e-07 1.0777523)
(8.3249974e-07 8.3249974e-07 1.0777526)
(1.2188792e-06 8.6029776e-07 1.0777529)
(1.5828996e-06 8.858763e-07 1.0777534)
(5.8620193e-07 9.0409472e-07 1.077754)
(-7.0312171e-07 9.3396573e-07 1.0777535)
(-1.5919668e-06 1.0197976e-06 1.077753)
(-8.3911827e-07 1.0847871e-06 1.0777528)
(-3.8576392e-07 1.130705e-06 1.0777526)
(4.264929e-08 1.1648058e-06 1.0777526)
(4.5779162e-07 1.1928271e-06 1.0777527)
(8.6029776e-07 1.2188792e-06 1.0777529)
(1.2462036e-06 1.2462036e-06 1.0777533)
(1.6069932e-06 1.2771453e-06 1.0777538)
(5.9324993e-07 1.3088615e-06 1.0777544)
(-6.6262599e-07 1.1465414e-06 1.0777539)
(-1.4921537e-06 1.3854877e-06 1.0777534)
(-7.7566399e-07 1.469748e-06 1.0777532)
(-3.4483517e-07 1.514487e-06 1.0777531)
(7.2125922e-08 1.5422923e-06 1.077753)
(4.8278128e-07 1.5631963e-06 1.0777532)
(8.858763e-07 1.5828996e-06 1.0777534)
(1.2771453e-06 1.6069932e-06 1.0777538)
(1.6455575e-06 1.6455575e-06 1.0777543)
(6.0734608e-07 1.7232999e-06 1.0777549)
(-5.4382415e-07 4.0578408e-07 1.0777544)
(-1.2687602e-06 5.2458592e-07 1.077754)
(-7.1011902e-07 5.547131e-07 1.0777538)
(-3.1321961e-07 5.6828257e-07 1.0777537)
(9.135855e-08 5.7579014e-07 1.0777537)
(4.9839896e-07 5.8110432e-07 1.0777538)
(9.0409471e-07 5.8620193e-07 1.077754)
(1.3088615e-06 5.9324993e-07 1.0777544)
(1.7232999e-06 6.0734608e-07 1.0777549)
(6.4507819e-07 6.4507819e-07 1.0777556)
(-1.1056054e-06 -1.1056054e-06 1.0777826)
(-2.5208607e-06 -9.6646432e-07 1.077782)
(-1.390213e-06 -9.3507558e-07 1.0777816)
(-7.5895947e-07 -9.2189472e-07 1.0777814)
(-1.8590934e-07 -9.1343315e-07 1.0777814)
(3.4800501e-07 -9.052718e-07 1.0777814)
(8.3887506e-07 -8.9381817e-07 1.0777816)
(1.2661576e-06 -8.7199325e-07 1.0777819)
(1.5679159e-06 -8.1899415e-07 1.0777823)
(5.5861206e-07 -6.6313726e-07 1.0777827)
(-9.6646432e-07 -2.5208607e-06 1.077782)
(-2.2650659e-06 -2.2650659e-06 1.0777814)
(-1.3233586e-06 -2.1847394e-06 1.0777811)
(-7.2649582e-07 -2.1415461e-06 1.0777809)
(-1.6097496e-07 -2.1099012e-06 1.0777808)
(3.7742747e-07 -2.0787365e-06 1.0777809)
(8.8879287e-07 -2.0382024e-06 1.0777811)
(1.3783936e-06 -1.9717645e-06 1.0777814)
(1.8811999e-06 -1.8414809e-06 1.0777818)
(7.1446895e-07 -1.5494102e-06 1.0777824)
(-9.3507558e-07 -1.390213e-06 1.0777816)
(-2.1847394e-06 -1.3233586e-06 1.0777811)
(-1.2666932e-06 -1.2666932e-06 1.0777808)
(-6.8412125e-07 -1.2211715e-06 1.0777806)
(-1.2309969e-07 -1.181403e-06 1.0777806)
(4.1970385e-07 -1.1413025e-06 1.0777806)
(9.4584699e-07 -1.0942961e-06 1.0777808)
(1.462879e-06 -1.032632e-06 1.0777811)
(1.9902703e-06 -9.5020362e-07 1.0777816)
(7.5332588e-07 -8.6563975e-07 1.0777822)
(-9.2189471e-07 -7.5895947e-07 1.0777814)
(-2.1415461e-06 -7.2649584e-07 1.0777809)
(-1.2211715e-06 -6.8412124e-07 1.0777806)
(-6.4120564e-07 -6.4120564e-07 1.0777805)
(-8.1106023e-08 -5.9932194e-07 1.0777804)
(4.6453437e-07 -5.5681708e-07 1.0777805)
(9.9746345e-07 -5.1106362e-07 1.0777807)
(1.5224861e-06 -4.6027463e-07 1.077781)
(2.0481921e-06 -4.0712406e-07 1.0777815)
(7.7084486e-07 -3.6623719e-07 1.0777821)
(-9.1343316e-07 -1.8590933e-07 1.0777814)
(-2.1099012e-06 -1.6097497e-07 1.0777808)
(-1.181403e-06 -1.2309969e-07 1.0777806)
(-5.9932195e-07 -8.1106022e-08 1.0777804)
(-3.8711131e-08 -3.8711126e-08 1.0777804)
(5.0796217e-07 3.571798e-09 1.0777805)
(1.0423894e-06 4.6245669e-08 1.0777807)
(1.5668186e-06 8.8763453e-08 1.077781)
(2.0843077e-06 1.2718607e-07 1.0777815)
(7.8058379e-07 1.5223192e-07 1.0777821)
(-9.052718e-07 3.48005e-07 1.0777814)
(-2.0787365e-06 3.7742747e-07 1.0777809)
(-1.1413025e-06 4.1970384e-07 1.0777806)
(-5.5681707e-07 4.6453437e-07 1.0777805)
(3.5717965e-09 5.0796217e-07 1.0777805)
(5.4949117e-07 5.4949117e-07 1.0777805)
(1.0826551e-06 5.8956791e-07 1.0777808)
(1.6034265e-06 6.2766446e-07 1.0777811)
(2.1116606e-06 6.605525e-07 1.0777816)
(7.875421e-07 6.8119836e-07 1.0777822)
(-8.9381818e-07 8.3887507e-07 1.0777816)
(-2.0382024e-06 8.8879288e-07 1.0777811)
(-1.0942961e-06 9.4584697e-07 1.0777808)
(-5.1106361e-07 9.9746345e-07 1.0777807)
(4.6245664e-08 1.0423894e-06 1.0777807)
(5.8956791e-07 1.0826551e-06 1.0777808)
(1.1205627e-06 1.1205627e-06 1.077781)
(1.6378032e-06 1.157336e-06 1.0777814)
(2.1378416e-06 1.191589e-06 1.0777818)
(7.943477e-07 1.2163332e-06 1.0777825)
(-8.7199326e-07 1.2661576e-06 1.0777819)
(-1.9717646e-06 1.3783937e-06 1.0777814)
(-1.032632e-06 1.4628791e-06 1.0777811)
(-4.6027461e-07 1.5224861e-06 1.077781)
(8.8763465e-08 1.5668186e-06 1.077781)
(6.2766446e-07 1.6034265e-06 1.0777811)
(1.157336e-06 1.6378032e-06 1.0777814)
(1.6744528e-06 1.6744528e-06 1.0777817)
(2.1706578e-06 1.7168534e-06 1.0777822)
(8.0403827e-07 1.7612731e-06 1.0777828)
(-8.1899415e-07 1.5679159e-06 1.0777823)
(-1.8414809e-06 1.8811999e-06 1.0777818)
(-9.5020363e-07 1.9902703e-06 1.0777816)
(-4.0712405e-07 2.0481921e-06 1.0777815)
(1.2718607e-07 2.0843077e-06 1.0777815)
(6.6055251e-07 2.1116606e-06 1.0777816)
(1.191589e-06 2.1378417e-06 1.0777818)
(1.7168534e-06 2.1706579e-06 1.0777822)
(2.224662e-06 2.224662e-06 1.0777827)
(8.2396083e-07 2.3357797e-06 1.0777834)
(-6.6313726e-07 5.5861206e-07 1.0777827)
(-1.5494102e-06 7.1446895e-07 1.0777824)
(-8.6563976e-07 7.5332589e-07 1.0777822)
(-3.6623721e-07 7.7084486e-07 1.0777821)
(1.5223193e-07 7.8058378e-07 1.0777821)
(6.8119839e-07 7.875421e-07 1.0777822)
(1.2163332e-06 7.9434771e-07 1.0777825)
(1.7612731e-06 8.0403827e-07 1.0777828)
(2.3357796e-06 8.2396084e-07 1.0777834)
(8.7811671e-07 8.7811671e-07 1.0777841)
(-1.312104e-06 -1.312104e-06 1.0778181)
(-2.9867667e-06 -1.1462286e-06 1.0778175)
(-1.6375342e-06 -1.1089352e-06 1.0778171)
(-8.803926e-07 -1.0931866e-06 1.077817)
(-1.8673478e-07 -1.0829741e-06 1.0778169)
(4.6525663e-07 -1.0730346e-06 1.077817)
(1.070465e-06 -1.0590101e-06 1.0778172)
(1.604125e-06 -1.0322102e-06 1.0778175)
(1.9906527e-06 -9.6701424e-07 1.0778178)
(7.1098026e-07 -7.750384e-07 1.0778183)
(-1.1462286e-06 -2.9867667e-06 1.0778175)
(-2.6820135e-06 -2.6820135e-06 1.0778169)
(-1.5579712e-06 -2.586447e-06 1.0778166)
(-8.4145095e-07 -2.5347062e-06 1.0778165)
(-1.5650682e-07 -2.4964529e-06 1.0778164)
(5.0120265e-07 -2.4584951e-06 1.0778165)
(1.1317016e-06 -2.4088994e-06 1.0778167)
(1.7421188e-06 -2.3274169e-06 1.077817)
(2.3764104e-06 -2.1674213e-06 1.0778174)
(9.0295611e-07 -1.8084381e-06 1.077818)
(-1.1089352e-06 -1.6375343e-06 1.0778171)
(-2.586447e-06 -1.5579712e-06 1.0778166)
(-1.4902269e-06 -1.4902269e-06 1.0778164)
(-7.9039851e-07 -1.4354249e-06 1.0778162)
(-1.1052365e-07 -1.3872181e-06 1.0778162)
(5.5281012e-07 -1.3383462e-06 1.0778163)
(1.2015432e-06 -1.280867e-06 1.0778164)
(1.8456031e-06 -1.2053536e-06 1.0778168)
(2.5096315e-06 -1.1044353e-06 1.0778172)
(9.503024e-07 -1.0013748e-06 1.0778178)
(-1.0931866e-06 -8.8039261e-07 1.077817)
(-2.5347062e-06 -8.4145097e-07 1.0778165)
(-1.4354248e-06 -7.9039851e-07 1.0778162)
(-7.3844216e-07 -7.3844217e-07 1.0778161)
(-5.94282e-08 -6.8750963e-07 1.077816)
(6.0755373e-07 -6.3563719e-07 1.0778161)
(1.2646942e-06 -5.7966552e-07 1.0778163)
(1.9185505e-06 -5.1746397e-07 1.0778167)
(2.5803893e-06 -4.5239076e-07 1.0778171)
(9.7166315e-07 -4.0247559e-07 1.0778177)
(-1.0829741e-06 -1.8673476e-07 1.0778169)
(-2.4964529e-06 -1.5650682e-07 1.0778164)
(-1.3872181e-06 -1.1052366e-07 1.0778162)
(-6.8750963e-07 -5.9428209e-08 1.077816)
(-7.7186785e-09 -7.7186785e-09 1.077816)
(6.6065423e-07 4.3980977e-08 1.0778161)
(1.3197164e-06 9.6272679e-08 1.0778163)
(1.9728779e-06 1.484561e-07 1.0778167)
(2.6246199e-06 1.9564563e-07 1.0778171)
(9.8357918e-07 2.2638318e-07 1.0778177)
(-1.0730346e-06 4.6525664e-07 1.077817)
(-2.4584951e-06 5.0120267e-07 1.0778165)
(-1.3383462e-06 5.5281012e-07 1.0778163)
(-6.3563718e-07 6.0755374e-07 1.0778161)
(4.3980987e-08 6.6065424e-07 1.0778161)
(7.1154509e-07 7.115451e-07 1.0778162)
(1.3691693e-06 7.6079962e-07 1.0778164)
(2.0179234e-06 8.0777761e-07 1.0778168)
(2.6583164e-06 8.4847284e-07 1.0778173)
(9.9215484e-07 8.7409323e-07 1.0778179)
(-1.0590101e-06 1.070465e-06 1.0778172)
(-2.4088994e-06 1.1317016e-06 1.0778167)
(-1.280867e-06 1.2015432e-06 1.0778164)
(-5.7966552e-07 1.2646942e-06 1.0778163)
(9.6272687e-08 1.3197164e-06 1.0778163)
(7.6079961e-07 1.3691693e-06 1.0778164)
(1.4159489e-06 1.4159489e-06 1.0778167)
(2.0605511e-06 1.4616344e-06 1.077817)
(2.6909355e-06 1.504538e-06 1.0778175)
(1.0006594e-06 1.5357906e-06 1.0778181)
(-1.0322102e-06 1.604125e-06 1.0778175)
(-2.3274169e-06 1.7421188e-06 1.077817)
(-1.2053536e-06 1.8456031e-06 1.0778168)
(-5.1746397e-07 1.9185505e-06 1.0778167)
(1.484561e-07 1.9728779e-06 1.0778167)
(8.0777762e-07 2.0179234e-06 1.0778168)
(1.4616343e-06 2.0605511e-06 1.077817)
(2.1065126e-06 2.1065126e-06 1.0778174)
(2.7324727e-06 2.1603731e-06 1.0778179)
(1.0129899e-06 2.2174262e-06 1.0778185)
(-9.6701424e-07 1.9906527e-06 1.0778178)
(-2.1674213e-06 2.3764104e-06 1.0778174)
(-1.1044353e-06 2.5096315e-06 1.0778172)
(-4.5239076e-07 2.5803893e-06 1.0778171)
(1.9564564e-07 2.6246199e-06 1.0778171)
(8.4847284e-07 2.6583164e-06 1.0778173)
(1.504538e-06 2.6909355e-06 1.0778175)
(2.1603731e-06 2.7324727e-06 1.0778179)
(2.8018491e-06 2.8018491e-06 1.0778184)
(1.0386948e-06 2.9458787e-06 1.077819)
(-7.750384e-07 7.1098027e-07 1.0778183)
(-1.8084381e-06 9.0295611e-07 1.077818)
(-1.0013748e-06 9.5030241e-07 1.0778178)
(-4.0247561e-07 9.7166315e-07 1.0778177)
(2.2638317e-07 9.8357918e-07 1.0778177)
(8.7409324e-07 9.9215483e-07 1.0778179)
(1.5357906e-06 1.0006594e-06 1.0778181)
(2.2174262e-06 1.0129899e-06 1.0778185)
(2.9458787e-06 1.0386948e-06 1.077819)
(1.1090096e-06 1.1090096e-06 1.0778197)
(-1.5084928e-06 -1.5084928e-06 1.0778605)
(-3.4262137e-06 -1.316855e-06 1.0778599)
(-1.8640571e-06 -1.2739084e-06 1.0778597)
(-9.8491063e-07 -1.2557106e-06 1.0778595)
(-1.7490189e-07 -1.2438234e-06 1.0778595)
(5.9087972e-07 -1.2321733e-06 1.0778595)
(1.3061542e-06 -1.2156656e-06 1.0778597)
(1.9416812e-06 -1.1840546e-06 1.07786)
(2.4080231e-06 -1.1070631e-06 1.0778604)
(8.6069502e-07 -8.8016241e-07 1.0778608)
(-1.316855e-06 -3.4262137e-06 1.0778599)
(-3.0743371e-06 -3.0743371e-06 1.0778594)
(-1.7723405e-06 -2.9642078e-06 1.0778592)
(-9.3978304e-07 -2.9043173e-06 1.077859)
(-1.3959584e-07 -2.859742e-06 1.077859)
(6.3311636e-07 -2.8152504e-06 1.0778591)
(1.3783322e-06 -2.7569063e-06 1.0778593)
(2.104585e-06 -2.6608787e-06 1.0778596)
(2.8638614e-06 -2.4721569e-06 1.07786)
(1.0875957e-06 -2.0485008e-06 1.0778605)
(-1.2739084e-06 -1.8640571e-06 1.0778597)
(-2.9642078e-06 -1.7723405e-06 1.0778592)
(-1.6940372e-06 -1.6940373e-06 1.0778589)
(-8.8044486e-07 -1.630381e-06 1.0778588)
(-8.5835001e-08 -1.5740921e-06 1.0778588)
(6.9371541e-07 -1.5167805e-06 1.0778588)
(1.4605259e-06 -1.4491915e-06 1.077859)
(2.2264306e-06 -1.3602909e-06 1.0778594)
(3.020401e-06 -1.2415019e-06 1.0778598)
(1.1431325e-06 -1.1205922e-06 1.0778604)
(-1.2557106e-06 -9.8491064e-07 1.0778595)
(-2.9043173e-06 -9.3978305e-07 1.077859)
(-1.630381e-06 -8.8044487e-07 1.0778588)
(-8.198379e-07 -8.1983791e-07 1.0778587)
(-2.5995322e-08 -7.6021728e-07 1.0778586)
(7.5801703e-07 -6.9931782e-07 1.0778587)
(1.5348218e-06 -6.3347226e-07 1.0778589)
(2.3122746e-06 -5.6022828e-07 1.0778593)
(3.10356e-06 -4.8361995e-07 1.0778597)
(1.1682022e-06 -4.2498133e-07 1.0778603)
(-1.2438234e-06 -1.7490189e-07 1.0778595)
(-2.859742e-06 -1.3959583e-07 1.077859)
(-1.5740921e-06 -8.5834991e-08 1.0778588)
(-7.6021727e-07 -2.5995322e-08 1.0778586)
(3.468509e-08 3.4685085e-08 1.0778586)
(8.2046042e-07 9.5480735e-08 1.0778587)
(1.5996155e-06 1.5708732e-07 1.0778589)
(2.3762829e-06 2.1864795e-07 1.0778593)
(3.1556479e-06 2.7434703e-07 1.0778597)
(1.1822249e-06 3.1060445e-07 1.0778603)
(-1.2321733e-06 5.9087972e-07 1.0778595)
(-2.8152504e-06 6.3311638e-07 1.0778591)
(-1.5167805e-06 6.9371541e-07 1.0778588)
(-6.9931782e-07 7.5801704e-07 1.0778587)
(9.5480735e-08 8.2046042e-07 1.0778587)
(8.8041927e-07 8.8041928e-07 1.0778588)
(1.6579891e-06 9.3859169e-07 1.0778591)
(2.4295343e-06 9.942231e-07 1.0778594)
(3.1955165e-06 1.0425376e-06 1.0778599)
(1.1923738e-06 1.0730132e-06 1.0778605)
(-1.2156656e-06 1.3061542e-06 1.0778597)
(-2.7569063e-06 1.3783322e-06 1.0778593)
(-1.4491915e-06 1.4605259e-06 1.077859)
(-6.3347226e-07 1.5348218e-06 1.0778589)
(1.5708733e-07 1.5996155e-06 1.0778589)
(9.3859169e-07 1.6579891e-06 1.0778591)
(1.7134193e-06 1.7134193e-06 1.0778593)
(2.4802289e-06 1.7678278e-06 1.0778597)
(3.2344381e-06 1.8192166e-06 1.0778601)
(1.2025419e-06 1.8568519e-06 1.0778607)
(-1.1840546e-06 1.9416813e-06 1.07786)
(-2.6608787e-06 2.104585e-06 1.0778596)
(-1.3602909e-06 2.2264306e-06 1.0778594)
(-5.6022829e-07 2.3122746e-06 1.0778593)
(2.1864794e-07 2.3762829e-06 1.0778593)
(9.9422312e-07 2.4295342e-06 1.0778594)
(1.7678278e-06 2.4802289e-06 1.0778597)
(2.5353315e-06 2.5353315e-06 1.07786)
(3.2845406e-06 2.6004501e-06 1.0778605)
(1.217464e-06 2.6698879e-06 1.0778611)
(-1.1070631e-06 2.4080231e-06 1.0778604)
(-2.4721569e-06 2.8638614e-06 1.07786)
(-1.2415019e-06 3.020401e-06 1.0778598)
(-4.8361997e-07 3.10356e-06 1.0778597)
(2.7434702e-07 3.1556479e-06 1.0778597)
(1.0425376e-06 3.1955165e-06 1.0778599)
(1.8192166e-06 3.2344381e-06 1.0778601)
(2.6004501e-06 3.2845406e-06 1.0778605)
(3.3689945e-06 3.3689945e-06 1.077861)
(1.2488339e-06 3.5452134e-06 1.0778616)
(-8.8016241e-07 8.6069502e-07 1.0778608)
(-2.0485008e-06 1.0875957e-06 1.0778605)
(-1.1205922e-06 1.1431325e-06 1.0778604)
(-4.2498134e-07 1.1682022e-06 1.0778603)
(3.1060444e-07 1.1822249e-06 1.0778603)
(1.0730132e-06 1.1923738e-06 1.0778605)
(1.8568519e-06 1.2025419e-06 1.0778607)
(2.6698879e-06 1.217464e-06 1.0778611)
(3.5452134e-06 1.2488339e-06 1.0778616)
(1.3349433e-06 1.3349433e-06 1.0778623)
(-1.6941969e-06 -1.6941969e-06 1.0779096)
(-3.8388957e-06 -1.4779248e-06 1.0779091)
(-2.0712733e-06 -1.4295958e-06 1.0779088)
(-1.0746084e-06 -1.4090708e-06 1.0779087)
(-1.5301443e-07 -1.395589e-06 1.0779086)
(7.2158609e-07 -1.382304e-06 1.0779087)
(1.5418059e-06 -1.3634173e-06 1.0779089)
(2.2739452e-06 -1.3271927e-06 1.0779092)
(2.8150478e-06 -1.2388887e-06 1.0779095)
(1.0061624e-06 -9.7849023e-07 1.07791)
(-1.4779248e-06 -3.8388957e-06 1.0779091)
(-3.441994e-06 -3.441994e-06 1.0779086)
(-1.9679924e-06 -3.3180153e-06 1.0779083)
(-1.0235982e-06 -3.250383e-06 1.0779082)