/*--------------------------------*- C++ -*----------------------------------*\
| =========                 |                                                 |
| \\      /  F ield         | OpenFOAM: The Open Source CFD Toolbox           |
|  \\    /   O peration     | Version:  v2106                                 |
|   \\  /    A nd           | Website:  www.openfoam.com                      |
|    \\/     M anipulation  |                                                 |
\*---------------------------------------------------------------------------*/
FoamFile
{
    version     2.0;
    format      ascii;
    arch        "LSB;label=32;scalar=64";
    class       volScalarField;
    location    "85";
    object      gradTy;
}
// * * * * * * * * * * * * * * * * * * * * * * * * * * * * * * * * * * * * * //

dimensions      [0 -1 0 1 0 0 0];

internalField   nonuniform List<scalar> 
4000
(
-7.2498934e-05
-6.4278684e-05
-6.2373025e-05
-6.1632941e-05
-6.1198814e-05
-6.0801476e-05
-6.0260402e-05
-5.9265742e-05
-5.7025643e-05
-5.1576337e-05
-0.00015929529
-0.00014410643
-0.00013933667
-0.00013698247
-0.00013537867
-0.00013386254
-0.00013193593
-0.00012885272
-0.00012310366
-0.00011196251
-8.0216009e-05
-7.6247403e-05
-7.3092054e-05
-7.0724914e-05
-6.8745676e-05
-6.6800677e-05
-6.4553308e-05
-6.1629254e-05
-5.7726334e-05
-5.3459743e-05
-4.3465028e-05
-4.1703718e-05
-3.9507027e-05
-3.7357348e-05
-3.5306562e-05
-3.3256023e-05
-3.1068692e-05
-2.8650684e-05
-2.6113196e-05
-2.4111413e-05
-1.3894574e-05
-1.2647371e-05
-1.0774647e-05
-8.7231448e-06
-6.6733414e-06
-4.6473104e-06
-2.6184068e-06
-6.091377e-07
1.2014738e-06
2.3869298e-06
1.1827855e-05
1.3235471e-05
1.5270585e-05
1.742785e-05
1.9508462e-05
2.1482774e-05
2.3366664e-05
2.5129947e-05
2.6621259e-05
2.7535284e-05
3.3777364e-05
3.6080956e-05
3.8787178e-05
4.1252389e-05
4.339254e-05
4.5290559e-05
4.7039699e-05
4.8672696e-05
5.0098015e-05
5.1027583e-05
4.9805591e-05
5.4657744e-05
5.8637871e-05
6.1484702e-05
6.3593373e-05
6.5304584e-05
6.6847962e-05
6.8362897e-05
6.9864599e-05
7.1059953e-05
5.3199641e-05
6.4733758e-05
7.0089864e-05
7.2903259e-05
7.4629115e-05
7.5899327e-05
7.7034461e-05
7.8254217e-05
7.9731515e-05
8.1348949e-05
1.682993e-05
2.2279232e-05
2.4257362e-05
2.5123626e-05
2.5591878e-05
2.5913928e-05
2.6201229e-05
2.6533644e-05
2.6998133e-05
2.7611931e-05
-0.00031638016
-0.00027658413
-0.00026776248
-0.00026428551
-0.00026219094
-0.0002602542
-0.00025760003
-0.00025263374
-0.00024080826
-0.0002067497
-0.0007091249
-0.00063619837
-0.00061406599
-0.00060290013
-0.0005951416
-0.00058775277
-0.00057832182
-0.00056306562
-0.00053354237
-0.00046828834
-0.00037576164
-0.00035731371
-0.0003424634
-0.00033108032
-0.00032147083
-0.00031198984
-0.00030101107
-0.0002866907
-0.0002675058
-0.00024703421
-0.00020702563
-0.00019866832
-0.00018810123
-0.00017767575
-0.00016769207
-0.00015769023
-0.00014700953
-0.00013519418
-0.00012279437
-0.00011306163
-6.5207381e-05
-5.9160421e-05
-5.0060004e-05
-4.0069941e-05
-3.0074493e-05
-2.0185071e-05
-1.0273433e-05
-4.5083019e-07
8.4042085e-06
1.4199756e-05
6.0143703e-05
6.7030064e-05
7.6963466e-05
8.7489821e-05
9.7646019e-05
0.00010729088
0.00011650555
0.00012514689
0.00013247682
0.00013698675
0.00016854817
0.00017997886
0.00019323531
0.00020527799
0.00021573135
0.00022501224
0.00023358736
0.00024163646
0.00024873784
0.00025346028
0.00025093074
0.00027611839
0.00029571019
0.00030962366
0.00031992535
0.00032830131
0.00033589663
0.00034345178
0.000351173
0.00035774192
0.00027943071
0.00034825678
0.00037420801
0.00038791327
0.00039634056
0.00040256386
0.00040818043
0.00041438767
0.00042247056
0.00043323756
9.1677141e-05
0.00012573569
0.00013517983
0.00013938342
0.00014166832
0.00014324712
0.00014467494
0.00014639541
0.00014905422
0.00015357342
-0.00051043167
-0.00044628934
-0.00043183958
-0.00042594995
-0.00042230088
-0.00041887284
-0.00041413402
-0.00040519208
-0.00038366044
-0.0003208281
-0.0011592011
-0.0010413129
-0.0010046635
-0.00098556756
-0.00097199657
-0.00095891291
-0.00094210253
-0.00091475385
-0.00086144059
-0.00074256196
-0.00063411088
-0.00060360181
-0.00057836553
-0.00055860595
-0.00054170061
-0.00052489556
-0.00050535812
-0.00047982402
-0.00044565723
-0.00040996116
-0.00035154731
-0.00033723925
-0.00031888034
-0.00030057433
-0.00028292514
-0.00026517031
-0.0002461645
-0.00022511913
-0.00020306374
-0.0001859181
-0.00010503326
-9.441759e-05
-7.8378595e-05
-6.0707195e-05
-4.2974568e-05
-2.5387695e-05
-7.7251633e-06
9.8070745e-06
2.5623497e-05
3.595673e-05
0.00011761817
0.00012986846
0.00014751221
0.00016621095
0.00018427286
0.00020146035
0.00021793218
0.00023345039
0.00024670242
0.00025492805
0.00031520462
0.00033572575
0.00035936367
0.0003807973
0.00039941486
0.00041599207
0.00043140489
0.00044605307
0.00045928757
0.000468475
0.00047657682
0.00052228717
0.00055723874
0.00058198807
0.0006003395
0.00061533674
0.00062910976
0.00064321942
0.00065859524
0.00067355725
0.00057040959
0.00069695558
0.0007426015
0.00076681843
0.00078180251
0.00079296808
0.00080328017
0.00081539003
0.000833618
0.00086791245
0.00019825063
0.00026108299
0.00027750306
0.00028488036
0.00028893348
0.00029176918
0.00029441722
0.00029789413
0.0003043919
0.00032075709
-0.00068359856
-0.00059781507
-0.00057841978
-0.00057035786
-0.00056525691
-0.00056039432
-0.00055361671
-0.00054075351
-0.00050960926
-0.0004182417
-0.0015587518
-0.0014009837
-0.0013514903
-0.0013251792
-0.0013061464
-0.0012875816
-0.0012635715
-0.0012243423
-0.0011475785
-0.00097577209
-0.00086073631
-0.0008195505
-0.00078493186
-0.00075740601
-0.00073357783
-0.00070970935
-0.00068184018
-0.00064534513
-0.000596544
-0.00054613496
-0.00047521456
-0.00045547026
-0.00042987059
-0.00040411624
-0.00037912086
-0.00035386092
-0.00032674462
-0.0002966815
-0.00026520421
-0.00024088946
-0.00013047918
-0.00011553387
-9.2881608e-05
-6.7837197e-05
-4.262629e-05
-1.7551379e-05
7.6937295e-06
3.2800513e-05
5.5470254e-05
7.0261589e-05
0.00018656255
0.00020402285
0.00022913738
0.00025576052
0.00028151361
0.00030608053
0.00032970866
0.00035207622
0.00037129515
0.00038330632
0.00047384053
0.00050330174
0.00053707986
0.00056766595
0.00059425929
0.00061801785
0.00064025497
0.00066163374
0.00068130556
0.00069531688
0.00071828994
0.00078430111
0.00083428293
0.00086959728
0.00089582335
0.00091737382
0.00093740983
0.00095842441
0.00098222083
0.001006613
0.00088177663
0.0010655444
0.0011303468
0.0011647545
0.0011861389
0.0012022156
0.001217369
0.0012358987
0.0012655576
0.0013253473
0.00031207849
0.00040344605
0.00042661613
0.00043705207
0.00044282596
0.00044691296
0.00045083341
0.00045625384
0.00046709484
0.00049611367
-0.00084492474
-0.00073859048
-0.00071460262
-0.00070452955
-0.00069806307
-0.000691826
-0.00068307292
-0.0006663939
-0.00062589097
-0.00050678215
-0.0019264898
-0.0017310066
-0.0016696196
-0.0016366105
-0.0016124268
-0.0015886102
-0.0015576332
-0.0015068601
-0.0014072949
-0.0011840888
-0.0010624273
-0.0010113359
-0.00096803116
-0.00093324259
-0.00090285078
-0.00087220523
-0.00083628202
-0.00078915708
-0.00072616377
-0.00066153843
-0.00058001133
-0.00055520201
-0.00052281854
-0.00049002161
-0.00045801329
-0.00042553026
-0.00039056459
-0.00035175067
-0.00031113198
-0.00027988546
-0.00014207546
-0.00012302015
-9.407514e-05
-6.1982773e-05
-2.9583783e-05
2.7296363e-06
3.5341824e-05
6.7834728e-05
9.7198025e-05
0.00011633854
0.00026595207
0.00028843729
0.0003207457
0.00035500605
0.00038819441
0.00041993166
0.00045055907
0.00047967318
0.00050480685
0.0005205848
0.00064108435
0.00067923251
0.00072283434
0.00076228064
0.00079661394
0.00082738574
0.00085635546
0.00088445827
0.00091063506
0.00092954507
0.00096762183
0.0010533948
0.0011179601
0.001163513
0.0011973927
0.0012253692
0.0012516405
0.0012796488
0.0013120522
0.0013459985
0.0011982313
0.0014376489
0.0015210026
0.0015652676
0.0015928678
0.0016137714
0.0016337794
0.0016588582
0.0017001292
0.0017850474
0.000426902
0.00054601081
0.00057570603
0.00058909437
0.00059653704
0.00060185472
0.00060705568
0.00061446139
0.00062968659
0.00067107354
-0.00099648209
-0.00087050748
-0.00084218487
-0.00083022454
-0.00082246863
-0.00081492005
-0.00080426907
-0.00078391581
-0.00073440247
-0.00058860571
-0.0022683108
-0.0020368649
-0.0019642866
-0.0019249919
-0.0018959403
-0.0018671131
-0.0018294475
-0.0017675652
-0.001646056
-0.0013734249
-0.0012436313
-0.0011832069
-0.0011317583
-0.0010901387
-0.0010535279
-0.001016412
-0.00097275914
-0.00091541023
-0.00083876743
-0.0007604977
-0.00066861737
-0.00063904301
-0.00060027104
-0.00056081261
-0.00052213171
-0.00048273699
-0.0004402291
-0.0003929899
-0.00034356981
-0.00030566155
-0.00014181639
-0.00011885967
-8.39376e-05
-4.5132971e-05
-5.8619787e-06
3.3401514e-05
7.3114638e-05
0.00011274553
0.00014858379
0.00017192752
0.00035334085
0.0003806402
0.00041983367
0.00046140891
0.00050173628
0.00054038554
0.00057779206
0.00061346965
0.00064437579
0.00066383328
0.00081296853
0.0008594749
0.00091251635
0.00096047663
0.0010022634
0.0010398206
0.0010753476
0.0011100435
0.0011426269
0.0011663618
0.0012182586
0.0013230585
0.00140165
0.0014570502
0.0014983093
0.0015325193
0.0015648931
0.0015997986
0.0016407032
0.0016840324
0.0015118084
0.0018047735
0.0019059488
0.0019596861
0.0019932771
0.0020188681
0.0020436407
0.0020751863
0.0021278745
0.0022372582
0.00053995653
0.00068575329
0.00072171061
0.00073793311
0.00074698278
0.00075349559
0.00075995444
0.00076931885
0.00078884055
0.00084224135
-0.0011385742
-0.0009939306
-0.00096151558
-0.00094778031
-0.0009388081
-0.00093001487
-0.00091755529
-0.00089369605
-0.0008355847
-0.00066432548
-0.002586024
-0.002320436
-0.0022373131
-0.0021921092
-0.0021584648
-0.0021248836
-0.0020808469
-0.0020083675
-0.0018659249
-0.0015461593
-0.0014069456
-0.0013377202
-0.0012786188
-0.0012305726
-0.0011880871
-0.0011448296
-0.001093815
-0.001026715
-0.0009370559
-0.00084579618
-0.00074338696
-0.00070932576
-0.00066453873
-0.00061879405
-0.00057379382
-0.00052782837
-0.00047812971
-0.0004228469
-0.00036502476
-0.00032076572
-0.00013201176
-0.00010536359
-6.4786198e-05
-1.9620647e-05
2.6179472e-05
7.2066575e-05
0.00011856575
0.00016503024
0.00020707057
0.0002344368
0.00044598186
0.00047786109
0.0005235998
0.00057213313
0.00061926391
0.00066451942
0.00070842656
0.0007504158
0.00078688244
0.00080988468
0.00098585393
0.0010403322
0.00110237
0.0011584468
0.0012073515
0.0012514105
0.0012932479
0.0013343141
0.0013731011
0.0014015073
0.0014655345
0.0015884904
0.0016804566
0.0017452495
0.0017935615
0.0018337543
0.0018720174
0.0019136075
0.0019627574
0.0020151674
0.0018175181
0.002161574
0.0022797264
0.0023424928
0.0023818075
0.0024118994
0.0024412764
0.0024790925
0.0025428363
0.002675842
0.00064963197
0.00082089119
0.00086280899
0.000881731
0.00089231502
0.00089997516
0.00090764984
0.00091891263
0.00094258983
0.0010075831
-0.0012709588
-0.001108715
-0.0010724594
-0.0010570619
-0.0010469481
-0.0010369819
-0.0010228133
-0.00099563826
-0.00092939398
-0.00073404734
-0.0028798767
-0.0025821276
-0.0024891208
-0.0024383842
-0.0024004288
-0.0023623687
-0.0023123138
-0.0022298147
-0.0020675775
-0.0017032452
-0.0015538353
-0.0014763557
-0.001410092
-0.0013560253
-0.0013080213
-0.0012589762
-0.0012010081
-0.0011246895
-0.0010227275
-0.00091920883
-0.00080615367
-0.00076788669
-0.00071746167
-0.00066581598
-0.00061486935
-0.00056270473
-0.00050620841
-0.00044331496
-0.00037754435
-0.0003272848
-0.00011478893
-8.4668892e-05
-3.8773371e-05
1.2380198e-05
6.4337887e-05
0.00011648541
0.00016941123
0.00022235527
0.00027027797
0.00030145622
0.00054132208
0.00057752417
0.00062943714
0.00068453737
0.00073809809
0.00078961072
0.00083968963
0.00088768303
0.00092944534
0.00095582353
0.0011566376
0.001218653
0.0012891915
0.0013529397
0.0014085813
0.0014588096
0.0015066536
0.0015538001
0.0015985186
0.0016313928
0.0017058764
0.0018460055
0.0019506127
0.0020242861
0.0020792768
0.0021251528
0.0021690325
0.0022170178
0.0022740663
0.0023351733
0.0021118028
0.0025041892
0.0026383724
0.0027096698
0.0027544025
0.0027887708
0.002822543
0.0028663635
0.0029406985
0.0030963226
0.00075480652
0.00095015316
0.00099769475
0.0010191656
0.0010312011
0.0010399511
0.0010487866
0.0010618672
0.0010895246
0.0011656167
-0.001393214
-0.0012145383
-0.0011747106
-0.0011577688
-0.0011465917
-0.0011355296
-0.0011197612
-0.0010894796
-0.0010156142
-0.0007976914
-0.0031494742
-0.0028217192
-0.0027195269
-0.0026636496
-0.002621679
-0.002579435
-0.0025237477
-0.0024318643
-0.0022510853
-0.0018450057
-0.001685111
-0.0015999568
-0.0015270414
-0.0014673766
-0.0014142295
-0.0013597773
-0.0012953017
-0.0012103506
-0.0010968707
-0.00098189382
-0.00085828635
-0.00081610799
-0.0007604384
-0.00070329608
-0.00064679996
-0.00058883839
-0.0005259761
-0.00045595093
-0.00038273388
-0.00032685958
-9.194187e-05
-5.8583133e-05
-7.7272927e-06
4.9016259e-05
0.00010673042
0.00016474054
0.0002236937
0.00028272023
0.00033616571
0.0003709202
0.00063716107
0.00067740687
0.0007350924
0.0007963347
0.00085591626
0.000913298
0.00096917685
0.0010228216
0.0010695734
0.0010991327
0.0013227326
0.0013918076
0.0014703033
0.0015412342
0.0016031907
0.0016592139
0.0017127143
0.0017656005
0.0018159279
0.0018530308
0.001936439
0.0020926595
0.0022091014
0.0022910905
0.0023523436
0.0024035625
0.0024527401
0.002506776
0.0025713114
0.0026406685
0.0023918804
0.0028295627
0.002978739
0.0030580195
0.0031078304
0.0031462195
0.0031841415
0.0032336498
0.0033180339
0.0034951285
0.00085459973
0.0010725225
0.0011253195
0.0011491738
0.0011625691
0.0011723434
0.0011822752
0.0011970787
0.0012285133
0.0013151418
-0.0015048731
-0.0013110271
-0.0012679139
-0.0012495522
-0.0012373949
-0.0012253194
-0.0012080687
-0.0011749073
-0.0010939745
-0.00085511084
-0.0033941688
-0.00303873
-0.002928094
-0.0028674891
-0.0028218162
-0.0027757038
-0.0027147999
-0.0026142195
-0.002416254
-0.0019714753
-0.0018012079
-0.0017089957
-0.001629967
-0.0015651488
-0.001507256
-0.0014478034
-0.0013773014
-0.001284352
-0.0011602035
-0.0010346315
-0.00090079567
-0.00085501719
-0.00079451779
-0.00073230619
-0.00067068286
-0.00060735613
-0.0005385948
-0.00046195788
-0.00038183929
-0.00032076763
-6.492923e-05
-2.8579952e-05
2.6856067e-05
8.8765462e-05
0.00015180612
0.00021524898
0.00027979469
0.00034446933
0.00040304377
0.00044111704
0.00073166119
0.0007756505
0.00083867749
0.0009056052
0.00097076556
0.0010335938
0.001094864
0.0011537696
0.0012051709
0.0012376952
0.0014819923
0.0015576105
0.0016434766
0.0017210619
0.0017888748
0.0018502822
0.0019090507
0.001967295
0.002022869
0.0020639324
0.0021548899
0.0023260312
0.0024534358
0.0025431291
0.0026101913
0.0026663782
0.0027204982
0.0027801965
0.0028517552
0.0029288622
0.0026554555
0.0031351501
0.0032981997
0.0033848707
0.00343939
0.0034815184
0.0035233157
0.0035781558
0.0036719813
0.0038692672
0.00094827623
0.0011871399
0.0012447954
0.0012708546
0.0012855098
0.0012962367
0.0013071927
0.0013236124
0.0013585974
0.0014551363
-0.0016054814
-0.0013978117
-0.0013517166
-0.0013320665
-0.0013190165
-0.0013060151
-0.0012874077
-0.0012516084
-0.0011641998
-0.00090614216
-0.0036132419
-0.0032325947
-0.0031142991
-0.0030494018
-0.0030003567
-0.0029507108
-0.0028850334
-0.0027764899
-0.0025627848
-0.0020825608
-0.0019023494
-0.0018037315
-0.0017191565
-0.0016496528
-0.0015874342
-0.0015234129
-0.0014473971
-0.0013471266
-0.0012132156
-0.0010779675
-0.0009344325
-0.00088538235
-0.00082049009
-0.00075366001
-0.00068735654
-0.00061912397
-0.00054496222
-0.00046226984
-0.00037583244
-0.00031000877
-3.4923453e-05
4.1536339e-06
6.3767625e-05
0.00013039352
0.00019830366
0.00026672025
0.00033639239
0.00040624826
0.00046952832
0.00051064416
0.00082330511
0.0008707184
0.00093862843
0.0010107555
0.0010810228
0.0011488442
0.0012150654
0.0012788095
0.0013344918
0.0013697474
0.0016326324
0.0017142424
0.0018068532
0.0018905288
0.0019637074
0.0020300569
0.0020936727
0.00215686
0.002217285
0.0022620163
0.0023592833
0.0025440951
0.002681532
0.0027782765
0.0028506618
0.0029114124
0.0029700882
0.0030350248
0.0031130991
0.0031974088
0.0029005843
0.0034187836
0.0035945134
0.0036879426
0.0037467745
0.0037923385
0.0038377124
0.0038974948
0.0040000964
0.0042161746
0.0010352051
0.0012932628
0.0013553544
0.0013834282
0.0013992369
0.0014108388
0.0014227406
0.0014406597
0.001478947
0.0015847118
-0.0016946237
-0.0014745525
-0.0014257947
-0.0014049936
-0.0013911431
-0.0013773079
-0.0013574762
-0.0013192946
-0.0012260353
-0.00095062927
-0.0038059981
-0.0034027544
-0.0032776222
-0.0032088883
-0.0031568176
-0.0031039902
-0.0030340072
-0.0029182752
-0.0026903582
-0.0021781246
-0.0019886447
-0.0018843064
-0.0017947786
-0.0017210797
-0.0016549757
-0.0015868404
-0.0015058516
-0.0013989748
-0.0012562581
-0.0011123016
-0.00095976602
-0.00090778865
-0.00083896142
-0.00076798572
-0.0006974721
-0.00062481781
-0.00054578232
-0.00045762259
-0.00036548221
-0.00029537632
-2.8687657e-06
3.8659846e-05
0.0001020293
0.00017289917
0.00024519722
0.00031810268
0.0003924077
0.00046694984
0.00053448659
0.0005783526
0.00091084216
0.00096134245
0.0010336526
0.0011104665
0.0011853423
0.001257677
0.0013283813
0.0013965142
0.0014560848
0.0014938225
0.0017731661
0.001860186
0.0019588811
0.0020480516
0.0021260763
0.0021968987
0.0022649136
0.0023325998
0.0023974519
0.0024455371
0.0025479824
0.0027451438
0.0028916314
0.0029947374
0.0030719315
0.0031368163
0.0031996349
0.0032693545
0.0033533986
0.0034443218
0.0031256053
0.0036786033
0.0038657559
0.0039652765
0.0040280022
0.0040766793
0.0041253105
0.0041896166
0.0043002777
0.0045336406
0.0011148412
0.0013902472
0.0014563303
0.0014862182
0.0015030676
0.0015154622
0.001528226
0.0015475191
0.0015888415
0.0017030943
-0.001771939
-0.0015409544
-0.0014898662
-0.0014680574
-0.0014535022
-0.0014389294
-0.0014180121
-0.0013777156
-0.0012792592
-0.00098843637
-0.0039718186
-0.0035487094
-0.003417597
-0.0033455007
-0.0032907653
-0.0032351244
-0.0031613245
-0.0030392143
-0.0027986833
-0.002258033
-0.0020601524
-0.001950807
-0.0018569437
-0.0017795597
-0.0017100293
-0.0016382545
-0.0015528582
-0.0014401227
-0.0012895999
-0.0011379451
-0.00097724241
-0.0009226964
-0.00085041073
-0.00077578198
-0.00070154841
-0.00062497826
-0.00054162007
-0.0004486085
-0.00035140938
-0.00027751206
3.0467065e-05
7.4159016e-05
0.00014084338
0.00021546422
0.0002916471
0.00036853409
0.00044695481
0.0005256641
0.00059698673
0.00064329663
0.00099323938
0.0010464745
0.0011226802
0.0012036456
0.0012826086
0.0013589533
0.0014336496
0.0015056981
0.0015687434
0.0016087009
0.0019023537
0.0019941745
0.0020982638
0.0021923064
0.0022746336
0.0023494364
0.0024213784
0.0024930948
0.0025619256
0.0026130324
0.0027196093
0.0029277386
0.0030822505
0.0031909969
0.0032724612
0.0033410288
0.003407555
0.003481576
0.0035710104
0.0036679209
0.0033291013
0.0039130202
0.0041102826
0.0042151978
0.0042813791
0.0043328303
0.0043843818
0.0044527679
0.0045707268
0.0048197692
0.0011867157
0.0014775386
0.0015471492
0.0015786418
0.0015964141
0.0016095151
0.0016230524
0.0016435863
0.0016876595
0.0018096146
-0.0018371293
-0.001596775
-0.0015437002
-0.0015210315
-0.0015058707
-0.0014906602
-0.0014688008
-0.0014266667
-0.0013236915
-0.0010194557
-0.0041101941
-0.0036700504
-0.0035338426
-0.0034588734
-0.0034018466
-0.0033437729
-0.0032666629
-0.0031390148
-0.0028875264
-0.0023221851
-0.0021169209
-0.0020033057
-0.0019057439
-0.0018252015
-0.0017527196
-0.0016777967
-0.0015885789
-0.0014707597
-0.0013134671
-0.0011551588
-0.00098722809
-0.00093048391
-0.00085523213
-0.00077745961
-0.00070001356
-0.0006200518
-0.00053294246
-0.00043571758
-0.00033412781
-0.00025694743
6.4450965e-05
0.000110008
0.00017955143
0.00025741281
0.00033695923
0.00041730141
0.00049930074
0.00058163776
0.00065625717
0.00070469296
0.0010696416
0.0011252465
0.0012048253
0.0012893872
0.0013718964
0.0014517287
0.0015299058
0.0016053773
0.0016714661
0.00171337
0.0020191644
0.0021151547
0.0022239227
0.0023221917
0.0024082569
0.0024865281
0.0025619056
0.0026371628
0.0027095028
0.002763283
0.0028730114
0.0030906753
0.003252148
0.0033657872
0.0034509626
0.0035227436
0.0035925229
0.0036703408
0.0037645571
0.0038667963
0.0035098761
0.0041206926
0.0043267057
0.0044362936
0.0045054759
0.0045593488
0.0046134685
0.004685469
0.004809924
0.0050729552
0.0012504306
0.0015546665
0.0016273247
0.0016602053
0.0016787783
0.0016924959
0.0017067142
0.0017283493
0.0017748737
0.0019037034
-0.0018899654
-0.0016418303
-0.0015871215
-0.0015637445
-0.0015480799
-0.0015323341
-0.0015096804
-0.001465994
-0.0013591981
-0.0010436119
-0.0042207453
-0.0037664794
-0.0036260833
-0.0035487431
-0.003489808
-0.0034296931
-0.0033497942
-0.0032174724
-0.0029567312
-0.002370532
-0.0021590164
-0.0020418877
-0.0019412801
-0.0018581198
-0.0017831738
-0.001705608
-0.0016131716
-0.001491066
-0.001328069
-0.0011641803
-0.00099004116
-0.00093147877
-0.00085376591
-0.00077337241
-0.00069323536
-0.00061042119
-0.00052014882
-0.00041936787
-0.00031407481
-0.00023413388
9.8552541e-05
0.00014566823
0.00021760253
0.00029817997
0.00038055377
0.00046380937
0.00054883405
0.00063424295
0.00071165501
0.00076188923
0.0011393404
0.0011969397
0.0012793542
0.0013669418
0.0014524407
0.0015352221
0.0016163531
0.0016947387
0.0017634254
0.001806993
0.0021227478
0.0022222578
0.0023349685
0.0024367998
0.0025260218
0.0026072334
0.0026855384
0.0027638296
0.0028391923
0.0028952839
0.0030072381
0.0032329615
0.0034003011
0.0035180641
0.0036063751
0.003680885
0.0037534475
0.0038345389
0.003932904
0.0040397854
0.0036669394
0.0043005126
0.0045138798
0.0046273983
0.0046991138
0.0047550446
0.0048113681
0.0048864989
0.0050166146
0.0052918695
0.0013056555
0.0016212417
0.0016964549
0.0017305008
0.0017497489
0.0017639903
0.0017787939
0.0018013847
0.0018500482
0.0019848879
-0.0019302899
-0.0016759976
-0.001620014
-0.001596083
-0.0015800183
-0.0015638418
-0.0015405448
-0.0014955978
-0.0013856942
-0.0010608657
-0.0043032363
-0.0038378225
-0.0036941617
-0.0036149615
-0.0035545086
-0.0034927521
-0.0034105966
-0.003274484
-0.0030062309
-0.0024030891
-0.0021865425
-0.0020666706
-0.0019636815
-0.0018784535
-0.0018015406
-0.0017218477
-0.0016268082
-0.0015012305
-0.0013336167
-0.0011652417
-0.00098597409
-0.00092598046
-0.00084632098
-0.00076383954
-0.00068154355
-0.00059642755
-0.00050359305
-0.00039992754
-0.00029163327
-0.00020946494
0.00013232014
0.00018068193
0.00025452952
0.0003372878
0.00042194153
0.00050755691
0.00059504122
0.00068295339
0.00076264248
0.00081434034
0.0012017507
0.0012609609
0.0013456627
0.0014356934
0.0015236132
0.0016087931
0.0016923381
0.0017731164
0.0018439441
0.0018888854
0.0022124125
0.0023147785
0.0024306806
0.0025353957
0.0026271806
0.0027107922
0.0027915039
0.0028723086
0.002950193
0.0030082233
0.0031215231
0.003353799
0.0035258889
0.0036469904
0.0037378486
0.0038145917
0.0038894546
0.0039732807
0.0040751414
0.0041859552
0.0037994965
0.0044515946
0.0046708914
0.0047875834
0.004861354
0.0049189703
0.004977123
0.0050548851
0.0051897975
0.0054754489
0.0013521255
0.001676954
0.00175422
0.0017892041
0.0018089989
0.0018236693
0.0018389598
0.0018623562
0.0019128357
0.0020527905
-0.0019580192
-0.0016992174
-0.0016423226
-0.0016179935
-0.0016016338
-0.0015851327
-0.0015613455
-0.0015154337
-0.0014031462
-0.0010712148
-0.0043575831
-0.0038840383
-0.0037380471
-0.0036575036
-0.0035959284
-0.0035329354
-0.0034490632
-0.0033100555
-0.0030360565
-0.0024199443
-0.0021996529
-0.0020778171
-0.0019731182
-0.0018863794
-0.0018080031
-0.0017267058
-0.0016296876
-0.0015014637
-0.0013303363
-0.0011585829
-0.0009753099
-0.00091427659
-0.00083319114
-0.00074916154
-0.00066524592
-0.00057838654
-0.00048359967
-0.00037773101
-0.00026714774
-0.00018329246
0.00016536306
0.00021465425
0.00028993127
0.00037432787
0.00046070627
0.00054811956
0.00063748899
0.00072732681
0.00080876911
0.00086159068
0.0012563931
0.0013168254
0.0014032582
0.0014951409
0.0015849045
0.0016719236
0.0017573342
0.0018399745
0.0019124778
0.0019584975
0.0022876104
0.002392159
0.0025104903
0.002617401
0.0027111458
0.0027966083
0.0028791966
0.0029619841
0.0030418785
0.0031014663
0.0032152725
0.0034525716
0.0036282793
0.0037519229
0.0038447312
0.003923203
0.0039998748
0.0040858849
0.0041905719
0.0043045901
0.00390694
0.0045732682
0.0047970512
0.0049161491
0.0049914897
0.005050413
0.0051100127
0.0051898951
0.005328718
0.0056228887
0.0013896394
0.0017215708
0.0018003809
0.0018360731
0.0018562844
0.0018712874
0.0018869642
0.0019110126
0.0019629764
0.0021071265
-0.0019731442
-0.0017114942
-0.0016540539
-0.0016294834
-0.0016129343
-0.0015962156
-0.0015720926
-0.001525514
-0.0014115723
-0.0010746956
-0.0043838583
-0.0039052227
-0.0037578401
-0.0036764724
-0.0036141729
-0.0035503513
-0.0034653067
-0.0033243064
-0.0030463418
-0.0024212628
-0.0021985603
-0.002075544
-0.0019698099
-0.0018821202
-0.0018027875
-0.0017204123
-0.0016220448
-0.0014920069
-0.001318477
-0.0011444603
-0.00095833389
-0.00089665454
-0.00081466664
-0.00072963207
-0.00064463988
-0.00055659988
-0.00046047534
-0.00035309054
-0.00024093612
-0.00015593814
0.00019733837
0.00024724012
0.00032345949
0.00040894806
0.00049649166
0.00058513626
0.00067581123
0.00076699174
0.00084965863
0.00090326099
0.0013028804
0.001364143
0.0014517466
0.0015448857
0.0016359111
0.0017242053
0.0018109272
0.0018948932
0.0019686013
0.0020154004
0.0023479242
0.0024539766
0.0025739691
0.0026823819
0.0027774785
0.0028642374
0.0029481664
0.003032399
0.0031137843
0.0031745421
0.0032880545
0.0035288348
0.0037070193
0.0038324025
0.0039265585
0.0040062499
0.0040842326
0.0041718679
0.0042787005
0.0043951814
0.0039888438
0.0046650715
0.0048918874
0.0050126181
0.0050890398
0.0051488874
0.0052095471
0.0052910305
0.0054328606
0.0057336361
0.0014180581
0.0017549349
0.0018347775
0.001870946
0.0018914428
0.0019066809
0.0019226422
0.0019471861
0.0020002961
0.0021477031
-0.0019757307
-0.0017128968
-0.0016552761
-0.0016306208
-0.001613988
-0.0015971586
-0.0015728543
-0.0015259079
-0.001411043
-0.0010713827
-0.004382293
-0.0039016111
-0.0037537747
-0.0036721014
-0.0036094753
-0.0035452336
-0.0034595614
-0.0033174728
-0.0030373256
-0.00240729
-0.0021835418
-0.0020601278
-0.001954032
-0.0018659507
-0.0017861684
-0.0017032426
-0.0016041559
-0.0014731377
-0.0012983179
-0.0011231529
-0.00093534181
-0.00087340963
-0.00079104244
-0.00070554604
-0.00062002079
-0.00053136377
-0.00043451736
-0.00032630473
-0.00021329811
-0.00012770221
0.00022794118
0.00027813456
0.00035480898
0.00044084273
0.00052899124
0.00061829947
0.00070969889
0.00080163752
0.00088499883
0.00093903822
0.0013409076
0.0014026081
0.0014908215
0.0015846207
0.0016763249
0.0017653283
0.0018528056
0.0019375585
0.0020119983
0.0020592762
0.0023930581
0.0024999341
0.0026208189
0.002730039
0.0028258779
0.0029133771
0.0029981082
0.0030832449
0.0031655979
0.0032271348
0.0033395908
0.0035823078
0.0037618266
0.0038881458
0.0039830459
0.0040634457
0.0041422386
0.0042309354
0.004339226
0.0044574187
0.0040449569
0.0047267446
0.0049551397
0.0050767293
0.0051537422
0.00521413
0.0052754599
0.0053580199
0.0055019431
0.0058073837
0.0014373031
0.0017769634
0.0018573269
0.0018937401
0.0019143908
0.0019297663
0.0019459094
0.0019707909
0.0020247046
0.0021744179
-0.001965918
-0.0017035574
-0.0016461191
-0.0016215343
-0.0016049227
-0.001588089
-0.0015637574
-0.0015167405
-0.0014016805
-0.0010613898
-0.0043532768
-0.0038735784
-0.0037262188
-0.0036447545
-0.0035821973
-0.0035179416
-0.0034321843
-0.0032899074
-0.0030093525
-0.0023783527
-0.0021549426
-0.0020319079
-0.0019261187
-0.0018382014
-0.0017584734
-0.0016755214
-0.0015763427
-0.0014451739
-0.0012701712
-0.0010949664
-0.00090664559
-0.00084485101
-0.00076262411
-0.00067720575
-0.00059168806
-0.0005029749
-0.00040601977
-0.00029766465
-0.00018452158
-9.8869606e-05
0.00025689724
0.0003070651
0.00038371008
0.00046974511
0.00055794095
0.00064734746
0.00073889236
0.00083100646
0.00091453379
0.00096866769
0.0013702434
0.0014319913
0.0015202564
0.001614122
0.0017059247
0.0017950735
0.0018827515
0.0019677537
0.0020424524
0.0020899089
0.0024228289
0.0025298517
0.0026508632
0.0027601992
0.0028561734
0.0029438582
0.0030288536
0.0031143535
0.00319715
0.0032590739
0.0033697503
0.0036128657
0.0037925821
0.0039190372
0.0040140803
0.0040946786
0.0041737811
0.004262975
0.0043720327
0.0044911826
0.004075198
0.0047582241
0.0049867527
0.0051084316
0.0051855477
0.0052460928
0.0053077029
0.0053908132
0.0055359104
0.0058440634
0.0014473554
0.0017876461
0.001868022
0.0019044494
0.0019251233
0.0019405386
0.0019567609
0.0019818212
0.0020361942
0.0021872565
-0.0019439183
-0.0016836705
-0.0016267726
-0.0016024114
-0.0015859248
-0.0015691921
-0.0015449855
-0.0014981924
-0.0013836577
-0.0010448678
-0.004297356
-0.0038216375
-0.0036756727
-0.0035949252
-0.0035328273
-0.0034689595
-0.0033836535
-0.0032420787
-0.0029628724
-0.0023348586
-0.0021131775
-0.0019912888
-0.0018864652
-0.0017992602
-0.0017200844
-0.0016376248
-0.0015389747
-0.001408476
-0.0012343854
-0.0010602357
-0.00087257766
-0.00081130594
-0.00072973223
-0.00064492517
-0.00055994941
-0.00047173498
-0.00037527791
-0.00026745859
-0.00015488721
-6.9714946e-05
0.00028395692
0.00033378588
0.00040992262
0.00049542124
0.00058311282
0.00067205806
0.00076317511
0.00085488749
0.00093805738
0.00099194661
0.0013907235
0.0014521325
0.0015398973
0.0016332423
0.0017245688
0.0018133046
0.0019006337
0.0019853516
0.00205984
0.0021071767
0.0024371594
0.002543659
0.0026640401
0.0027728078
0.0028683165
0.0029556372
0.0030403635
0.0031256887
0.0032084071
0.0032703271
0.0033785413
0.003620533
0.0037993224
0.0039251222
0.0040197131
0.0041000045
0.0041789194
0.0042680481
0.0043771838
0.0044965367
0.0040796497
0.0047596367
0.0049868699
0.0051078769
0.0051846135
0.0052449361
0.0053064386
0.0053895744
0.0055349272
0.0058438394
0.0014482533
0.0017870432
0.0018669292
0.001903143
0.0019237107
0.0019390691
0.0019552685
0.0019803491
0.002034837
0.0021862906
-0.0019100142
-0.0016534916
-0.0015974852
-0.0015734978
-0.0015572379
-0.0015407096
-0.0015167776
-0.0014704979
-0.0013571972
-0.001022005
-0.0042152302
-0.0037464367
-0.0036027669
-0.0035232338
-0.0034619786
-0.0033988932