/*--------------------------------*- C++ -*----------------------------------*\
| =========                 |                                                 |
| \\      /  F ield         | OpenFOAM: The Open Source CFD Toolbox           |
|  \\    /   O peration     | Version:  v2106                                 |
|   \\  /    A nd           | Website:  www.openfoam.com                      |
|    \\/     M anipulation  |                                                 |
\*---------------------------------------------------------------------------*/
FoamFile
{
    version     2.0;
    format      ascii;
    arch        "LSB;label=32;scalar=64";
    class       volScalarField;
    location    "85";
    object      laplacianT;
}
// * * * * * * * * * * * * * * * * * * * * * * * * * * * * * * * * * * * * * //

dimensions      [0 -2 0 1 0 0 0];

internalField   nonuniform List<scalar> 
4000
(
41128.738
41128.744
41128.721
41128.71
41128.705
41128.704
41128.709
41128.717
41128.728
41128.737
41128.744
41128.746
41128.725
41128.714
41128.709
41128.709
41128.714
41128.723
41128.734
41128.744
41128.721
41128.725
41128.704
41128.693
41128.689
41128.689
41128.694
41128.704
41128.717
41128.727
41128.71
41128.714
41128.693
41128.683
41128.679
41128.68
41128.686
41128.696
41128.709
41128.72
41128.705
41128.709
41128.689
41128.679
41128.675
41128.677
41128.683
41128.693
41128.707
41128.718
41128.704
41128.709
41128.689
41128.68
41128.677
41128.678
41128.685
41128.695
41128.709
41128.721
41128.709
41128.714
41128.694
41128.686
41128.683
41128.685
41128.692
41128.703
41128.717
41128.728
41128.717
41128.723
41128.704
41128.696
41128.693
41128.695
41128.703
41128.714
41128.728
41128.74
41128.728
41128.734
41128.717
41128.709
41128.707
41128.709
41128.717
41128.728
41128.743
41128.755
41128.737
41128.744
41128.727
41128.72
41128.718
41128.721
41128.728
41128.74
41128.755
41128.768
-548.68893
-548.51912
-548.54081
-548.54092
-548.54071
-548.5407
-548.54089
-548.54125
-548.54173
-548.54861
-548.51912
-548.39395
-548.41184
-548.41176
-548.41155
-548.41156
-548.41178
-548.41219
-548.41276
-548.45409
-548.54081
-548.41184
-548.42937
-548.42929
-548.4291
-548.42912
-548.42936
-548.42979
-548.4304
-548.46937
-548.54092
-548.41176
-548.42929
-548.42923
-548.42906
-548.4291
-548.42935
-548.4298
-548.43044
-548.46951
-548.54071
-548.41155
-548.4291
-548.42906
-548.4289
-548.42896
-548.42923
-548.4297
-548.43035
-548.46944
-548.5407
-548.41156
-548.42912
-548.4291
-548.42896
-548.42903
-548.42932
-548.42981
-548.43047
-548.46957
-548.54089
-548.41178
-548.42936
-548.42935
-548.42923
-548.42932
-548.42962
-548.43013
-548.4308
-548.46991
-548.54125
-548.41219
-548.42979
-548.4298
-548.4297
-548.42981
-548.43013
-548.43064
-548.43133
-548.47044
-548.54173
-548.41276
-548.4304
-548.43044
-548.43035
-548.43047
-548.4308
-548.43133
-548.43204
-548.47115
-548.54861
-548.45409
-548.46937
-548.46951
-548.46944
-548.46957
-548.46991
-548.47044
-548.47115
-548.51171
-537.59474
-537.34169
-537.37733
-537.37775
-537.37751
-537.37752
-537.37778
-537.37826
-537.37893
-537.42225
-537.34169
-537.15774
-537.18693
-537.187
-537.18676
-537.18679
-537.1871
-537.18766
-537.18846
-537.29587
-537.37733
-537.18693
-537.21545
-537.21552
-537.2153
-537.21535
-537.21568
-537.21627
-537.21712
-537.31903
-537.37775
-537.187
-537.21552
-537.21561
-537.21541
-537.21549
-537.21584
-537.21646
-537.21734
-537.31937
-537.37751
-537.18676
-537.2153
-537.21541
-537.21523
-537.21533
-537.21571
-537.21635
-537.21726
-537.31931
-537.37752
-537.18679
-537.21535
-537.21549
-537.21533
-537.21545
-537.21585
-537.21651
-537.21744
-537.3195
-537.37778
-537.1871
-537.21568
-537.21584
-537.21571
-537.21585
-537.21627
-537.21695
-537.21789
-537.31996
-537.37826
-537.18766
-537.21627
-537.21646
-537.21635
-537.21651
-537.21695
-537.21765
-537.21861
-537.32067
-537.37893
-537.18846
-537.21712
-537.21734
-537.21726
-537.21744
-537.21789
-537.21861
-537.21959
-537.32165
-537.42225
-537.29587
-537.31903
-537.31937
-537.31931
-537.3195
-537.31996
-537.32067
-537.32165
-537.4392
-526.86853
-526.53576
-526.58434
-526.58503
-526.58478
-526.58481
-526.58515
-526.58576
-526.58662
-526.66342
-526.53576
-526.29461
-526.33434
-526.33456
-526.3343
-526.33437
-526.33477
-526.33549
-526.33652
-526.50691
-526.58434
-526.33434
-526.37316
-526.37337
-526.37313
-526.37322
-526.37365
-526.3744
-526.37548
-526.5372
-526.58503
-526.33456
-526.37337
-526.37361
-526.3734
-526.37351
-526.37397
-526.37476
-526.37588
-526.53771
-526.58478
-526.3343
-526.37313
-526.3734
-526.37321
-526.37335
-526.37384
-526.37466
-526.37581
-526.53768
-526.58481
-526.33437
-526.37322
-526.37351
-526.37335
-526.37353
-526.37403
-526.37488
-526.37605
-526.53794
-526.58515
-526.33477
-526.37365
-526.37397
-526.37384
-526.37403
-526.37457
-526.37543
-526.37663
-526.53851
-526.58576
-526.33549
-526.3744
-526.37476
-526.37466
-526.37488
-526.37543
-526.37632
-526.37754
-526.53941
-526.58662
-526.33652
-526.37548
-526.37588
-526.37581
-526.37605
-526.37663
-526.37754
-526.37878
-526.54064
-526.66342
-526.50691
-526.5372
-526.53771
-526.53768
-526.53794
-526.53851
-526.53941
-526.54064
-526.73089
-516.49244
-516.08247
-516.14352
-516.14449
-516.14422
-516.14429
-516.1447
-516.14545
-516.14647
-516.25584
-516.08247
-515.78599
-515.8359
-515.83627
-515.836
-515.83611
-515.83661
-515.83748
-515.83872
-516.07027
-516.14352
-515.8359
-515.88465
-515.885
-515.88476
-515.88489
-515.88542
-515.88633
-515.88764
-516.10739
-516.14449
-515.83627
-515.885
-515.88539
-515.88518
-515.88534
-515.8859
-515.88685
-515.88821
-516.10808
-516.14422
-515.836
-515.88476
-515.88518
-515.88499
-515.88519
-515.88578
-515.88677
-515.88815
-516.10808
-516.14429
-515.83611
-515.88489
-515.88534
-515.88519
-515.88541
-515.88604
-515.88705
-515.88846
-516.1084
-516.1447
-515.83661
-515.88542
-515.8859
-515.88578
-515.88604
-515.88669
-515.88773
-515.88917
-516.1091
-516.14545
-515.83748
-515.88633
-515.88685
-515.88677
-515.88705
-515.88773
-515.88881
-515.89027
-516.11017
-516.14647
-515.83872
-515.88764
-515.88821
-515.88815
-515.88846
-515.88917
-515.89027
-515.89176
-516.11164
-516.25584
-516.07027
-516.10739
-516.10808
-516.10808
-516.1084
-516.1091
-516.11017
-516.11164
-516.37215
-506.45292
-505.96911
-506.04215
-506.04338
-506.04311
-506.04321
-506.04371
-506.04458
-506.04577
-506.18664
-505.96911
-505.61978
-505.67948
-505.68
-505.67972
-505.67987
-505.68047
-505.68149
-505.68293
-505.97349
-506.04215
-505.67948
-505.73777
-505.73828
-505.73803
-505.73821
-505.73883
-505.7399
-505.74142
-506.01716
-506.04338
-505.68
-505.73828
-505.73881
-505.7386
-505.73881
-505.73948
-505.74059
-505.74216
-506.01803
-506.04311
-505.67972
-505.73803
-505.7386
-505.73842
-505.73867
-505.73937
-505.74052
-505.74213
-506.01805
-506.04321
-505.67987
-505.73821
-505.73881
-505.73867
-505.73896
-505.73969
-505.74088
-505.74251
-506.01845
-506.04371
-505.68047
-505.73883
-505.73948
-505.73937
-505.73969
-505.74046
-505.74168
-505.74334
-506.01926
-506.04458
-505.68149
-505.7399
-505.74059
-505.74052
-505.74088
-505.74168
-505.74293
-505.74462
-506.0205
-506.04577
-505.68293
-505.74142
-505.74216
-505.74213
-505.74251
-505.74334
-505.74462
-505.74636
-506.0222
-506.18664
-505.97349
-506.01716
-506.01803
-506.01805
-506.01845
-506.01926
-506.0205
-506.0222
-506.35053
-496.7382
-496.18439
-496.26887
-496.27036
-496.27009
-496.27022
-496.2708
-496.27179
-496.27313
-496.44427
-496.18439
-495.78501
-495.85405
-495.85473
-495.85445
-495.85465
-495.85534
-495.85651
-495.85814
-496.20519
-496.26887
-495.85405
-495.92146
-495.92211
-495.92186
-495.92209
-495.92281
-495.92403
-495.92574
-496.25509
-496.27036
-495.85473
-495.92211
-495.92279
-495.92259
-495.92285
-495.92362
-495.92488
-495.92666
-496.25613
-496.27009
-495.85445
-495.92186
-495.92259
-495.92242
-495.92272
-495.92353
-495.92484
-495.92665
-496.25619
-496.27022
-495.85465
-495.92209
-495.92285
-495.92272
-495.92307
-495.92391
-495.92526
-495.92711
-496.25665
-496.2708
-495.85534
-495.92281
-495.92362
-495.92353
-495.92391
-495.9248
-495.92618
-495.92805
-496.25758
-496.27179
-495.85651
-495.92403
-495.92488
-495.92484
-495.92526
-495.92618
-495.92759
-495.92951
-496.25898
-496.27313
-495.85814
-495.92574
-495.92666
-495.92665
-495.92711
-495.92805
-495.92951
-495.93147
-496.26088
-496.44427
-496.20519
-496.25509
-496.25613
-496.25619
-496.25665
-496.25758
-496.25898
-496.26088
-496.65423
-487.33714
-486.71754
-486.81284
-486.81459
-486.81432
-486.81449
-486.81514
-486.81624
-486.81773
-487.01771
-486.71754
-486.27123
-486.3491
-486.34992
-486.34965
-486.3499
-486.35068
-486.35198
-486.35379
-486.7545
-486.81284
-486.3491
-486.42512
-486.42591
-486.42568
-486.42595
-486.42677
-486.42812
-486.43002
-486.81027
-486.81459
-486.34992
-486.42591
-486.42675
-486.42655
-486.42687
-486.42773
-486.42914
-486.4311
-486.81148
-486.81432
-486.34965
-486.42568
-486.42655
-486.42639
-486.42675
-486.42766
-486.42912
-486.43113
-486.81157
-486.81449
-486.3499
-486.42595
-486.42687
-486.42675
-486.42716
-486.42811
-486.4296
-486.43165
-486.8121
-486.81514
-486.35068
-486.42677
-486.42773
-486.42766
-486.42811
-486.4291
-486.43063
-486.43271
-486.81313
-486.81624
-486.35198
-486.42812
-486.42914
-486.42912
-486.4296
-486.43063
-486.43221
-486.43432
-486.81468
-486.81773
-486.35379
-486.43002
-486.4311
-486.43113
-486.43165
-486.43271
-486.43432
-486.43649
-486.81678
-487.01771
-486.7545
-486.81027
-486.81148
-486.81157
-486.8121
-486.81313
-486.81468
-486.81678
-487.27195
-478.23902
-477.55825
-477.66369
-477.66569
-477.66543
-477.66563
-477.66635
-477.66756
-477.66918
-477.8964
-477.55825
-477.06836
-477.15451
-477.15548
-477.15521
-477.1555
-477.15637
-477.1578
-477.15977
-477.61099
-477.66369
-477.15451
-477.2386
-477.23953
-477.2393
-477.23962
-477.24052
-477.24201
-477.24408
-477.67225
-477.66569
-477.15548
-477.23953
-477.2405
-477.24032
-477.24069
-477.24164
-477.24318
-477.24533
-477.67361
-477.66543
-477.15521
-477.2393
-477.24032
-477.24018
-477.24059
-477.24159
-477.24319
-477.24538
-477.67374
-477.66563
-477.1555
-477.23962
-477.24069
-477.24059
-477.24105
-477.2421
-477.24374
-477.24596
-477.67433
-477.66635
-477.15637
-477.24052
-477.24164
-477.24159
-477.2421
-477.24319
-477.24487
-477.24713
-477.67546
-477.66756
-477.1578
-477.24201
-477.24318
-477.24319
-477.24374
-477.24487
-477.24659
-477.2489
-477.67715
-477.66918
-477.15977
-477.24408
-477.24533
-477.24538
-477.24596
-477.24713
-477.2489
-477.25126
-477.67943
-477.8964
-477.61099
-477.67225
-477.67361
-477.67374
-477.67433
-477.67546
-477.67715
-477.67943
-478.19288
-469.4336
-468.69658
-468.81142
-468.81366
-468.8134
-468.81364
-468.81443
-468.81573
-468.81748
-469.0702
-468.69658
-468.16671
-468.26053
-468.26164
-468.26138
-468.26171
-468.26266
-468.26421
-468.26633
-468.76464
-468.81142
-468.26053
-468.35209
-468.35316
-468.35294
-468.35331
-468.35429
-468.35589
-468.35812
-468.83095
-468.81366
-468.26164
-468.35316
-468.35427
-468.3541
-468.35451
-468.35555
-468.35722
-468.35952
-468.83247
-468.8134
-468.26138
-468.35294
-468.3541
-468.35397
-468.35444
-468.35553
-468.35725
-468.3596
-468.83263
-468.81364
-468.26171
-468.35331
-468.35451
-468.35444
-468.35495
-468.35609
-468.35786
-468.36025
-468.83328
-468.81443
-468.26266
-468.35429
-468.35555
-468.35553
-468.35609
-468.35727
-468.35909
-468.36152
-468.8345
-468.81573
-468.26421
-468.35589
-468.35722
-468.35725
-468.35786
-468.35909
-468.36094
-468.36342
-468.83632
-468.81748
-468.26633
-468.35812
-468.35952
-468.3596
-468.36025
-468.36152
-468.36342
-468.36596
-468.83876
-469.0702
-468.76464
-468.83095
-468.83247
-468.83263
-468.83328
-468.8345
-468.83632
-468.83876
-469.40661
-460.91098
-460.12295
-460.2464
-460.24885
-460.24861
-460.24889
-460.24973
-460.25112
-460.25298
-460.52932
-460.12295
-459.5569
-459.65773
-459.65898
-459.65874
-459.65911
-459.66013
-459.66178
-459.66404
-460.20576
-460.2464
-459.65773
-459.75613
-459.75733
-459.75713
-459.75754
-459.7586
-459.7603
-459.76267
-460.27667
-460.24885
-459.65898
-459.75733
-459.75857
-459.75842
-459.75888
-459.75999
-459.76177
-459.76422
-460.27833
-460.24861
-459.65874
-459.75713
-459.75842
-459.75831
-459.75882
-459.76
-459.76183
-459.76433
-460.27852
-460.24889
-459.65911
-459.75754
-459.75888
-459.75882
-459.75939
-459.76061
-459.76249
-459.76504
-460.27923
-460.24973
-459.66013
-459.7586
-459.75999
-459.76
-459.76061
-459.76188
-459.76381
-459.7664
-460.28053
-460.25112
-459.66178
-459.7603
-459.76177
-459.76183
-459.76249
-459.76381
-459.76579
-459.76842
-460.28246
-460.25298
-459.66404
-459.76267
-459.76422
-459.76433
-459.76504
-459.7664
-459.76842
-459.77112
-460.28505
-460.52932
-460.20576
-460.27667
-460.27833
-460.27852
-460.27923
-460.28053
-460.28246
-460.28505
-460.90314
-452.66162
-451.82809
-451.9593
-451.96196
-451.96173
-451.96203
-451.96294
-451.9644
-451.96636
-452.2643
-451.82809
-451.22983
-451.33699
-451.33837
-451.33814
-451.33855
-451.33964
-451.34139
-451.34377
-451.92498
-451.9593
-451.33699
-451.44156
-451.44287
-451.44269
-451.44314
-451.44426
-451.44607
-451.44856
-452.00001
-451.96196
-451.33837
-451.44287
-451.44424
-451.4441
-451.44461
-451.44579
-451.44767
-451.45025
-452.00181
-451.96173
-451.33814
-451.44269
-451.4441
-451.44402
-451.44458
-451.44582
-451.44775
-451.45039
-452.00203
-451.96203
-451.33855
-451.44314
-451.44461
-451.44458
-451.44519
-451.44648
-451.44847
-451.45115
-452.00279
-451.96294
-451.33964
-451.44426
-451.44579
-451.44582
-451.44648
-451.44783
-451.44987
-451.45259
-452.00417
-451.9644
-451.34139
-451.44607
-451.44767
-451.44775
-451.44847
-451.44987
-451.45195
-451.45472
-452.00619
-451.96636
-451.34377
-451.44856
-451.45025
-451.45039
-451.45115
-451.45259
-451.45472
-451.45756
-452.00891
-452.2643
-451.92498
-452.00001
-452.00181
-452.00203
-452.00279
-452.00417
-452.00619
-452.00891
-452.6728
-444.6763
-443.80299
-443.94108
-443.94392
-443.94371
-443.94404
-443.94499
-443.94652
-443.94856
-444.26599
-443.80299
-443.17666
-443.28943
-443.29092
-443.29071
-443.29116
-443.29231
-443.29413
-443.29662
-443.91321
-443.94108
-443.28943
-443.39944
-443.40087
-443.4007
-443.40119
-443.40238
-443.40427
-443.40687
-443.99187
-443.94392
-443.29092
-443.40087
-443.40235
-443.40224
-443.40278
-443.40403
-443.40599
-443.40868
-443.99379
-443.94371
-443.29071
-443.4007
-443.40224
-443.40217
-443.40277
-443.40408
-443.4061
-443.40885
-443.99404
-443.94404
-443.29116
-443.40119
-443.40278
-443.40277
-443.40342
-443.40479
-443.40686
-443.40965
-443.99484
-443.94499
-443.29231
-443.40238
-443.40403
-443.40408
-443.40479
-443.4062
-443.40833
-443.41116
-443.99629
-443.94652
-443.29413
-443.40427
-443.40599
-443.4061
-443.40686
-443.40833
-443.41051
-443.4134
-443.9984
-443.94856
-443.29662
-443.40687
-443.40868
-443.40885
-443.40965
-443.41116
-443.4134
-443.41636
-444.00122
-444.26599
-443.91321
-443.99187
-443.99379
-443.99404
-443.99484
-443.99629
-443.9984
-444.00122
-444.70624
-436.94608
-436.03889
-436.18294
-436.18595
-436.18575
-436.18611
-436.18711
-436.1887
-436.19081
-436.5255
-436.03889
-435.38876
-435.50637
-435.50797
-435.50778
-435.50826
-435.50946
-435.51136
-435.51393
-436.16163
-436.18294
-435.50637
-435.6211
-435.62264
-435.62249
-435.62301
-435.62425
-435.62621
-435.6289
-436.2434
-436.18595
-435.50797
-435.62264
-435.62423
-435.62413
-435.6247
-435.62601
-435.62804
-435.63082
-436.24542
-436.18575
-435.50778
-435.62249
-435.62413
-435.62408
-435.62472
-435.62608
-435.62818
-435.63102
-436.2457
-436.18611
-435.50826
-435.62301
-435.6247
-435.62472
-435.62541
-435.62683
-435.62898
-435.63187
-436.24654
-436.18711
-435.50946
-435.62425
-435.62601
-435.62608
-435.62683
-435.62831
-435.63051
-435.63344
-436.24804
-436.1887
-435.51136
-435.62621
-435.62804
-435.62818
-435.62898
-435.63051
-435.63277
-435.63575
-436.25023
-436.19081
-435.51393
-435.6289
-435.63082
-435.63102
-435.63187
-435.63344
-435.63575
-435.63881
-436.25314
-436.5255
-436.16163
-436.2434
-436.24542
-436.2457
-436.24654
-436.24804
-436.25023
-436.25314
-436.9944
-429.46228
-428.52727
-428.67631
-428.67948
-428.6793
-428.67969
-428.68072
-428.68235
-428.68452
-429.03417
-428.52727
-427.85768
-427.97936
-427.98106
-427.98089
-427.9814
-427.98265
-427.9846
-427.98725
-428.66163
-428.67631
-427.97936
-428.09805
-428.09968
-428.09955
-428.1001
-428.10139
-428.1034
-428.10617
-428.74596
-428.67948
-427.98106
-428.09968
-428.10136
-428.10128
-428.10189
-428.10324
-428.10534
-428.10819
-428.74808
-428.6793
-427.98089
-428.09955
-428.10128
-428.10126
-428.10193
-428.10334
-428.1055
-428.10841
-428.74838
-428.67969
-427.9814
-428.1001
-428.10189
-428.10193
-428.10266
-428.10412
-428.10634
-428.1093
-428.74926
-428.68072
-427.98265
-428.10139
-428.10324
-428.10334
-428.10412
-428.10565
-428.10792
-428.11092
-428.7508
-428.68235
-427.9846
-428.1034
-428.10534
-428.1055
-428.10634
-428.10792
-428.11024
-428.1133
-428.75305
-428.68452
-427.98725
-428.10617
-428.10819
-428.10841
-428.1093
-428.11092
-428.1133
-428.11644
-428.75603
-429.03417
-428.66163
-428.74596
-428.74808
-428.74838
-428.74926
-428.7508
-428.75305
-428.75603
-429.52849
-422.21646
-421.25978
-421.41285
-421.41615
-421.41599
-421.41639
-421.41745
-421.41912
-421.42133
-421.78358
-421.25978
-420.57516
-420.70011
-420.7019
-420.70174
-420.70228
-420.70357
-420.70557
-420.70826
-421.4048
-421.41285
-420.70011
-420.82198
-420.82369
-420.82358
-420.82416
-420.82548
-420.82754
-420.83036
-421.49114
-421.41615
-420.7019
-420.82369
-420.82546
-420.8254
-420.82604
-420.82742
-420.82956
-420.83247
-421.49334
-421.41599
-420.70174
-420.82358
-420.8254
-420.8254
-420.82609
-420.82754
-420.82975
-420.83272
-421.49367
-421.41639
-420.70228
-420.82416
-420.82604
-420.82609
-420.82685
-420.82836
-420.83062
-420.83364
-421.49458
-421.41745
-420.70357
-420.82548
-420.82742
-420.82754
-420.82836
-420.82992
-420.83223
-420.8353
-421.49616
-421.41912
-420.70557
-420.82754
-420.82956
-420.82975
-420.83062
-420.83223
-420.83461
-420.83773
-421.49844
-421.42133
-420.70826
-420.83036
-420.83247
-420.83272
-420.83364
-420.8353
-420.83773
-420.84093
-421.50147
-421.78358
-421.4048
-421.49114
-421.49334
-421.49367
-421.49458
-421.49616
-421.49844
-421.50147
-422.29995
-415.20038
-414.22826
-414.38436
-414.38777
-414.38763
-414.38805
-414.38913
-414.39083
-414.39307
-414.7655
-414.22826
-413.53306
-413.66048
-413.66234
-413.66221
-413.66277
-413.66408
-413.66611
-413.66885
-414.38292
-414.38436
-413.66048
-413.78473
-413.78652
-413.78643
-413.78703
-413.78838
-413.79047
-413.79332
-414.47072
-414.38777
-413.66234
-413.78652
-413.78836
-413.78832
-413.78898
-413.79039
-413.79257
-413.79551
-414.47299
-414.38763
-413.66221
-413.78643
-413.78832
-413.78834
-413.78906
-413.79054
-413.79277
-413.79578
-414.47334
-414.38805
-413.66277
-413.78703
-413.78898
-413.78906
-413.78984
-413.79137
-413.79367
-413.79672
-414.47427
-414.38913
-413.66408
-413.78838
-413.79039
-413.79054
-413.79137
-413.79297
-413.79532
-413.79842
-414.47587
-414.39083
-413.66611
-413.79047
-413.79257
-413.79277
-413.79367
-413.79532
-413.79772
-413.80088
-414.47819
-414.39307
-413.66885
-413.79332
-413.79551
-413.79578
-413.79672
-413.79842
-413.80088
-413.80412
-414.48125
-414.7655
-414.38292
-414.47072
-414.47299
-414.47334
-414.47427
-414.47587
-414.47819
-414.48125
-415.30046
-408.40602
-407.42471
-407.58284
-407.58633
-407.58621
-407.58665
-407.58775
-407.58946
-407.59171
-407.97188
-407.42471
-406.72341
-406.85247
-406.85439
-406.85428
-406.85487
-406.8562
-406.85825
-406.861
-407.58793
-407.58284
-406.85247
-406.97831
-406.98016
-406.98009
-406.98071
-406.98207
-406.98418
-406.98706
-407.67664
-407.58633
-406.85439
-406.98016
-406.98206
-406.98204
-406.98272
-406.98415
-406.98634
-406.9893
-407.67896
-407.58621
-406.85428
-406.98009
-406.98204
-406.98208
-406.98282
-406.98431
-406.98657
-406.98959
-407.67932
-407.58665
-406.85487
-406.98071
-406.98272
-406.98282
-406.98362
-406.98517
-406.98748
-406.99056
-407.68027
-407.58775
-406.8562
-406.98207
-406.98415
-406.98431
-406.98517
-406.98678
-406.98915
-406.99227
-407.68189
-407.58946
-406.85825
-406.98418
-406.98634
-406.98657
-406.98748
-406.98915
-406.99157
-406.99475
-407.68422
-407.59171
-406.861
-406.98706
-406.9893
-406.98959
-406.99056
-406.99227
-406.99475
-406.99801
-407.68729
-407.97188
-407.58793
-407.67664
-407.67896
-407.67932
-407.68027
-407.68189
-407.68422
-407.68729
-408.52188
-401.82553
-400.84127
-401.00042
-401.00398
-401.00387
-401.00433
-401.00544
-401.00715
-401.0094
-401.39484
-400.84127
-400.13832
-400.2682
-400.27018
-400.27009
-400.27069
-400.27203
-400.27409
-400.27684
-401.01195
-401.00042
-400.2682
-400.39483
-400.39673
-400.39668
-400.39731
-400.39869
-400.4008
-400.40368
-401.10099
-401.00398
-400.27018
-400.39673
-400.39867
-400.39867
-400.39937
-400.40081
-400.40301
-400.40597
-401.10334
-401.00387
-400.27009
-400.39668
-400.39867
-400.39873
-400.39949
-400.40099
-400.40325
-400.40628
-401.10373
-401.00433
-400.27069
-400.39731
-400.39937
-400.39949
-400.4003
-400.40186
-400.40418
-400.40725
-401.10468
-401.00544
-400.27203
-400.39869
-400.40081
-400.40099
-400.40186
-400.40348
-400.40586
-400.40898
-401.10631
-401.00715
-400.27409
-400.4008
-400.40301
-400.40325
-400.40418
-400.40586
-400.40828
-400.41146
-401.10864
-401.0094
-400.27684
-400.40368
-400.40597
-400.40628
-400.40725
-400.40898
-400.41146
-400.41472
-401.1117
-401.39484
-401.01195
-401.10099
-401.10334
-401.10373
-401.10468
-401.10631
-401.10864
-401.1117
-401.95628
-395.45125
-394.47021
-394.62938
-394.63298
-394.6329
-394.63336
-394.63447
-394.63618
-394.63842
-395.02666
-394.47021
-393.77004
-393.89992
-393.90193
-393.90186
-393.90248
-393.90382
-393.90587
-393.90861
-394.6472
-394.62938
-393.89992
-394.02653
-394.02846
-394.02843
-394.02908
-394.03046
-394.03257
-394.03542
-394.73601
-394.63298
-393.90193
-394.02846
-394.03044
-394.03046
-394.03117
-394.03261
-394.0348
-394.03775
-394.73839
-394.6329
-393.90186
-394.02843
-394.03046
-394.03054
-394.03131
-394.03281
-394.03506
-394.03807
-394.73879
-394.63336
-393.90248
-394.02908
-394.03117
-394.03131
-394.03213
-394.03369
-394.036
-394.03905
-394.73975
-394.63447
-393.90382
-394.03046
-394.03261
-394.03281
-394.03369
-394.03531
-394.03767
-394.04078
-394.74137
-394.63618
-393.90587
-394.03257
-394.0348
-394.03506
-394.036
-394.03767
-394.04009
-394.04325
-394.74368
-394.63842
-393.90861
-394.03542
-394.03775
-394.03807
-394.03905
-394.04078
-394.04325
-394.04649
-394.74673
-395.02666
-394.6472
-394.73601
-394.73839
-394.73879
-394.73975
-394.74137
-394.74368
-394.74673
-395.59591
-389.27565
-388.30395
-388.46214
-388.46575
-388.46569
-388.46617
-388.46727
-388.46896
-388.47117
-388.85975
-388.30395
-387.61089
-387.73995
-387.74199
-387.74194
-387.74257
-387.7439
-387.74594
-387.74864
-388.48607
-388.46214
-387.73995
-387.86576
-387.86772
-387.8677
-387.86836
-387.86973
-387.87182
-387.87464
-388.5741
-388.46575
-387.74199
-387.86772
-387.86971
-387.86976
-387.87047
-387.8719
-387.87407
-387.87698
-388.57649
-388.46569
-387.74194
-387.8677
-387.86976
-387.86985
-387.87062
-387.87212
-387.87435
-387.87732
-388.5769
-388.46617
-387.74257
-387.86836
-387.87047
-387.87062
-387.87145
-387.873
-387.87529
-387.8783
-388.57785
-388.46727
-387.7439
-387.86973
-387.8719
-387.87212
-387.873
-387.87461
-387.87695
-387.88001
-388.57946
-388.46896
-387.74594
-387.87182
-387.87407
-387.87435
-387.87529
-387.87695
-387.87934
-387.88246
-388.58174
-388.47117
-387.74864
-387.87464
-387.87698
-387.87732
-387.8783
-387.88001
-387.88246
-387.88566
-388.58475
-388.85975
-388.48607
-388.5741
-388.57649
-388.5769
-388.57785
-388.57946
-388.58174
-388.58475
-389.43317
-383.29139
-382.335
-382.49122
-382.49483
-382.49479
-382.49527
-382.49636
-382.49802
-382.50019
-382.88668
-382.335
-381.65331
-381.78075
-381.7828
-381.78277
-381.7834
-381.78472
-381.78672
-381.78938
-382.52106
-382.49122
-381.78075
-381.90497
-381.90693
-381.90694
-381.9076
-381.90895
-381.91101
-381.91378
-382.60776
-382.49483
-381.7828
-381.90693
-381.90894
-381.909
-381.90971
-381.91113
-381.91326
-381.91612
-382.61013
-382.49479
-381.78277
-381.90694
-381.909
-381.90911
-381.90988
-381.91136
-381.91355
-381.91647
-382.61055
-382.49527
-381.7834
-381.9076
-381.90971
-381.90988
-381.91071
-381.91224
-381.91449
-381.91745
-382.6115
-382.49636
-381.78472
-381.90895
-381.91113
-381.91136
-381.91224
-381.91383
-381.91613
-381.91913
-382.61308
-382.49802
-381.78672
-381.91101
-381.91326
-381.91355
-381.91449
-381.91613
-381.91848
-381.92154
-382.61532
-382.50019
-381.78938
-381.91378
-381.91612
-381.91647
-381.91745
-381.91913
-381.92154
-381.92468
-382.61826
-382.88668
-382.52106
-382.60776
-382.61013
-382.61055
-382.6115
-382.61308
-382.61532
-382.61826
-383.46064
-377.49125
-376.55599
-376.70928
-376.71286
-376.71284
-376.71332
-376.71439
-376.71602
-376.71814
-377.10014
-376.55599
-375.88979
-376.01483
-376.01688
-376.01687
-376.0175
-376.0188
-376.02076
-376.02336
-376.74477
-376.70928
-376.01483
-376.1367
-376.13865
-376.13868
-376.13934
-376.14067
-376.14268
-376.14539
-376.82961
-376.71286
-376.01688
-376.13865
-376.14066
-376.14074
-376.14144
-376.14284
-376.14492
-376.14771
-376.83196
-376.71284
-376.01687
-376.13868
-376.14074
-376.14087
-376.14163
-376.14308
-376.14522
-376.14807
-376.83238
-376.71332
-376.0175
-376.13934
-376.14144
-376.14163
-376.14245
-376.14395
-376.14615
-376.14904
-376.83332
-376.71439
-376.0188
-376.14067
-376.14284
-376.14308
-376.14395
-376.14551
-376.14776
-376.15069
-376.83487
-376.71602
-376.02076
-376.14268
-376.14492
-376.14522
-376.14615
-376.14776
-376.15006
-376.15304
-376.83705
-376.71814
-376.02336
-376.14539
-376.14771
-376.14807
-376.14904
-376.15069
-376.15304
-376.15611
-376.83992
-377.10014
-376.74477
-376.82961
-376.83196
-376.83238
-376.83332
-376.83487
-376.83705
-376.83992
-377.67106
-371.86816
-370.95966
-371.10908
-371.11261
-371.11261
-371.11309
-371.11413
-371.11572
-371.11777
-371.49296
-370.95966
-370.31295
-370.43482
-370.43685
-370.43686
-370.43749
-370.43876
-370.44067
-370.44319
-371.14995
-371.10908
-370.43482
-370.55359
-370.55553
-370.55558
-370.55623
-370.55753
-370.55948
-370.56211
-371.23241
-371.11261
-370.43685
-370.55553
-370.55751
-370.55761
-370.55831
-370.55967
-370.56169
-370.5644
-371.23472
-371.11261
-370.43686
-370.55558
-370.55761
-370.55775
-370.55851
-370.55992
-370.562
-370.56476
-371.23515
-371.11309
-370.43749
-370.55623
-370.55831
-370.55851
-370.55931
-370.56078
-370.56291
-370.56571
-371.23606
-371.11413
-370.43876
-370.55753
-370.55967
-370.55992
-370.56078
-370.5623
-370.56448
-370.56732
-371.23757
-371.11572
-370.44067
-370.55948
-370.56169
-370.562
-370.56291
-370.56448
-370.56671
-370.56961
-371.23969
-371.11777
-370.44319
-370.56211
-370.5644
-370.56476
-370.56571
-370.56732
-370.56961
-370.57258
-371.24246
-371.49296
-371.14995
-371.23241
-371.23472
-371.23515
-371.23606
-371.23757
-371.23969
-371.24246
-372.05729
-366.4152
-365.53886
-365.68351
-365.68696
-365.68698
-365.68745
-365.68847
-365.69
-365.69197
-366.05808
-365.53886
-364.91546
-365.03343
-365.03542
-365.03546
-365.03607
-365.03731
-365.03915
-365.04158
-365.72945
-365.68351
-365.03343
-365.14837
-365.15028
-365.15035
-365.15099
-365.15225
-365.15414
-365.15667
-365.80903
-365.68696
-365.03542
-365.15028
-365.15223
-365.15234
-365.15303
-365.15435
-365.15631
-365.15891
-365.81128
-365.68698
-365.03546
-365.15035
-365.15234
-365.1525
-365.15324
-365.15461
-365.15662
-365.15928
-365.81171
-365.68745
-365.03607
-365.15099
-365.15303
-365.15324
-365.15403
-365.15545
-365.15751
-365.16021
-365.8126
-365.68847
-365.03731
-365.15225
-365.15435
-365.15461
-365.15545
-365.15692
-365.15903
-365.16177
-365.81405
-365.69
-365.03915
-365.15414
-365.15631
-365.15662
-365.15751
-365.15903
-365.16118
-365.16397
-365.81609
-365.69197
-365.04158
-365.15667
-365.15891
-365.15928
-365.16021
-365.16177
-365.16397
-365.16683
-365.81875
-366.05808
-365.72945
-365.80903
-365.81128
-365.81171
-365.8126
-365.81405
-365.81609
-365.81875
-366.61236
-361.12556
-360.28654
-360.42554
-360.4289
-360.42893
-360.4294
-360.43038
-360.43184
-360.43373
-360.78857
-360.28654
-359.69009
-359.80344
-359.80539
-359.80545
-359.80605
-359.80724
-359.80901
-359.81133
-360.47622
-360.42554
-359.80344
-359.91388
-359.91575
-359.91583
-359.91645
-359.91767
-359.91948
-359.9219
-360.55244
-360.4289
-359.80539
-359.91575
-359.91765
-359.91778
-359.91845
-359.91972
-359.92159
-359.92408
-360.55463
-360.42893
-359.80545
-359.91583
-359.91778
-359.91795
-359.91867
-359.91999
-359.92191
-359.92445
-360.55505
-360.4294
-359.80605
-359.91645
-359.91845
-359.91867
-359.91943
-359.9208
-359.92277
-359.92535
-360.55591
-360.43038
-359.80724
-359.91767
-359.91972
-359.91999
-359.9208
-359.92222
-359.92423
-359.92685
-360.55731
-360.43184
-359.80901
-359.91948
-359.92159
-359.92191
-359.92277
-359.92423
-359.92629
-359.92896
-360.55925
-360.43373
-359.81133
-359.9219
-359.92408
-359.92445
-359.92535
-359.92685
-359.92896
-359.93169
-360.56179
-360.78857
-360.47622
-360.55244
-360.55463
-360.55505
-360.55591
-360.55731
-360.55925
-360.56179
-361.32945
-355.9926
-355.19576
-355.32829
-355.33152
-355.33158
-355.33203
-355.33297
-355.33436
-355.33615
-355.67763
-355.19576
-354.6297
-354.73776
-354.73965
-354.73972
-354.74031
-354.74145
-354.74313
-354.74533
-355.38335
-355.32829
-354.73776
-354.84303
-354.84484
-354.84494
-354.84555
-354.84671
-354.84843
-354.85072
-355.45576
-355.33152
-354.73965
-354.84484
-354.84669
-354.84682
-354.84748
-354.84869
-354.85047
-354.85283
-355.45786
-355.33158
-354.73972
-354.84494
-354.84682
-354.847
-354.8477
-354.84896
-354.85079
-354.8532
-355.45827
-355.33203
-354.74031
-354.84555
-354.84748
-354.8477
-354.84844
-354.84975
-354.85162
-354.85406
-355.4591
-355.33297
-354.74145
-354.84671
-354.84869
-354.84896
-354.84975
-354.85109
-354.85301
-354.85549
-355.46043
-355.33436
-354.74313
-354.84843
-354.85047
-354.85079
-354.85162
-354.85301
-354.85497
-354.85749
-355.46227