/*--------------------------------*- C++ -*----------------------------------*\
| =========                 |                                                 |
| \\      /  F ield         | OpenFOAM: The Open Source CFD Toolbox           |
|  \\    /   O peration     | Version:  v2106                                 |
|   \\  /    A nd           | Website:  www.openfoam.com                      |
|    \\/     M anipulation  |                                                 |
\*---------------------------------------------------------------------------*/
FoamFile
{
    version     2.0;
    format      ascii;
    arch        "LSB;label=32;scalar=64";
    class       volScalarField;
    location    "85";
    object      T;
}
// * * * * * * * * * * * * * * * * * * * * * * * * * * * * * * * * * * * * * //

dimensions      [0 0 0 1 0 0 0];

internalField   nonuniform List<scalar> 
4000
(
275.15538
275.15538
275.15538
275.15538
275.15538
275.15538
275.15538
275.15538
275.15538
275.15538
275.15538
275.15538
275.15538
275.15538
275.15538
275.15538
275.15538
275.15538
275.15538
275.15538
275.15538
275.15538
275.15538
275.15538
275.15538
275.15538
275.15538
275.15538
275.15538
275.15538
275.15538
275.15538
275.15538
275.15538
275.15538
275.15538
275.15538
275.15538
275.15538
275.15538
275.15538
275.15538
275.15538
275.15538
275.15538
275.15538
275.15538
275.15538
275.15538
275.15538
275.15538
275.15538
275.15538
275.15538
275.15538
275.15538
275.15538
275.15538
275.15538
275.15538
275.15538
275.15538
275.15538
275.15538
275.15538
275.15538
275.15538
275.15538
275.15538
275.15538
275.15538
275.15538
275.15538
275.15538
275.15538
275.15538
275.15538
275.15538
275.15538
275.15538
275.15538
275.15538
275.15538
275.15538
275.15538
275.15538
275.15538
275.15538
275.15538
275.15538
275.15538
275.15538
275.15538
275.15538
275.15538
275.15538
275.15538
275.15538
275.15538
275.15538
283.57903
283.57902
283.57901
283.57901
283.57901
283.57901
283.57901
283.57901
283.57901
283.57902
283.57902
283.57901
283.579
283.579
283.579
283.579
283.579
283.579
283.57901
283.57901
283.57901
283.579
283.579
283.579
283.579
283.579
283.579
283.579
283.579
283.57901
283.57901
283.579
283.579
283.579
283.57899
283.57899
283.579
283.579
283.579
283.57901
283.57901
283.579
283.579
283.57899
283.57899
283.57899
283.579
283.579
283.579
283.57901
283.57901
283.579
283.579
283.57899
283.57899
283.57899
283.579
283.579
283.579
283.57901
283.57901
283.579
283.579
283.579
283.579
283.579
283.579
283.579
283.579
283.57901
283.57901
283.579
283.579
283.579
283.579
283.579
283.579
283.579
283.57901
283.57901
283.57901
283.57901
283.579
283.579
283.579
283.579
283.579
283.57901
283.57901
283.57902
283.57902
283.57901
283.57901
283.57901
283.57901
283.57901
283.57901
283.57901
283.57902
283.57902
291.94782
291.94781
291.9478
291.94779
291.94779
291.94779
291.94779
291.9478
291.9478
291.94781
291.94781
291.94779
291.94778
291.94778
291.94778
291.94778
291.94778
291.94779
291.94779
291.9478
291.9478
291.94778
291.94778
291.94777
291.94777
291.94777
291.94777
291.94778
291.94779
291.94779
291.94779
291.94778
291.94777
291.94777
291.94777
291.94777
291.94777
291.94778
291.94778
291.94779
291.94779
291.94778
291.94777
291.94777
291.94777
291.94777
291.94777
291.94777
291.94778
291.94779
291.94779
291.94778
291.94777
291.94777
291.94777
291.94777
291.94777
291.94778
291.94778
291.94779
291.94779
291.94778
291.94777
291.94777
291.94777
291.94777
291.94777
291.94778
291.94779
291.9478
291.9478
291.94779
291.94778
291.94778
291.94777
291.94778
291.94778
291.94778
291.94779
291.9478
291.9478
291.94779
291.94779
291.94778
291.94778
291.94778
291.94779
291.94779
291.9478
291.94781
291.94781
291.9478
291.94779
291.94779
291.94779
291.94779
291.9478
291.9478
291.94781
291.94782
300.26289
300.26287
300.26286
300.26285
300.26285
300.26285
300.26285
300.26286
300.26286
300.26287
300.26287
300.26285
300.26284
300.26283
300.26283
300.26283
300.26283
300.26284
300.26285
300.26286
300.26286
300.26284
300.26283
300.26282
300.26282
300.26282
300.26282
300.26283
300.26284
300.26285
300.26285
300.26283
300.26282
300.26282
300.26281
300.26281
300.26282
300.26283
300.26284
300.26285
300.26285
300.26283
300.26282
300.26281
300.26281
300.26281
300.26282
300.26282
300.26284
300.26285
300.26285
300.26283
300.26282
300.26281
300.26281
300.26281
300.26282
300.26283
300.26284
300.26285
300.26285
300.26283
300.26282
300.26282
300.26282
300.26282
300.26282
300.26283
300.26284
300.26286
300.26286
300.26284
300.26283
300.26283
300.26282
300.26283
300.26283
300.26284
300.26285
300.26286
300.26286
300.26285
300.26284
300.26284
300.26284
300.26284
300.26284
300.26285
300.26286
300.26288
300.26287
300.26286
300.26285
300.26285
300.26285
300.26285
300.26286
300.26286
300.26288
300.26289
308.52531
308.52528
308.52527
308.52526
308.52526
308.52526
308.52526
308.52527
308.52528
308.52529
308.52528
308.52526
308.52525
308.52524
308.52523
308.52524
308.52524
308.52525
308.52526
308.52528
308.52527
308.52525
308.52523
308.52523
308.52522
308.52522
308.52523
308.52524
308.52525
308.52527
308.52526
308.52524
308.52523
308.52522
308.52522
308.52522
308.52522
308.52523
308.52525
308.52526
308.52526
308.52523
308.52522
308.52522
308.52521
308.52522
308.52522
308.52523
308.52525
308.52526
308.52526
308.52524
308.52522
308.52522
308.52522
308.52522
308.52522
308.52523
308.52525
308.52527
308.52526
308.52524
308.52523
308.52522
308.52522
308.52522
308.52523
308.52524
308.52526
308.52527
308.52527
308.52525
308.52524
308.52523
308.52523
308.52523
308.52524
308.52525
308.52527
308.52529
308.52528
308.52526
308.52525
308.52525
308.52525
308.52525
308.52526
308.52527
308.52528
308.5253
308.52529
308.52528
308.52527
308.52526
308.52526
308.52527
308.52527
308.52529
308.5253
308.52532
316.73613
316.7361
316.73608
316.73607
316.73607
316.73607
316.73607
316.73609
316.7361
316.73612
316.7361
316.73607
316.73606
316.73605
316.73604
316.73604
316.73605
316.73606
316.73608
316.7361
316.73608
316.73606
316.73604
316.73603
316.73603
316.73603
316.73604
316.73605
316.73607
316.73609
316.73607
316.73605
316.73603
316.73602
316.73602
316.73602
316.73603
316.73604
316.73606
316.73608
316.73607
316.73604
316.73603
316.73602
316.73602
316.73602
316.73603
316.73604
316.73606
316.73608
316.73607
316.73604
316.73603
316.73602
316.73602
316.73602
316.73603
316.73605
316.73606
316.73609
316.73607
316.73605
316.73604
316.73603
316.73603
316.73603
316.73604
316.73605
316.73607
316.7361
316.73609
316.73606
316.73605
316.73604
316.73604
316.73605
316.73605
316.73607
316.73609
316.73611
316.7361
316.73608
316.73607
316.73606
316.73606
316.73606
316.73607
316.73609
316.73611
316.73613
316.73612
316.7361
316.73609
316.73608
316.73608
316.73609
316.7361
316.73611
316.73613
316.73615
324.89636
324.89633
324.89631
324.8963
324.8963
324.8963
324.8963
324.89632
324.89633
324.89635
324.89633
324.8963
324.89628
324.89627
324.89627
324.89627
324.89628
324.89629
324.89631
324.89633
324.89631
324.89628
324.89627
324.89626
324.89625
324.89625
324.89626
324.89628
324.8963
324.89632
324.8963
324.89627
324.89626
324.89625
324.89624
324.89625
324.89625
324.89627
324.89629
324.89632
324.8963
324.89627
324.89625
324.89624
324.89624
324.89624
324.89625
324.89627
324.89629
324.89632
324.8963
324.89627
324.89625
324.89625
324.89624
324.89625
324.89626
324.89627
324.89629
324.89632
324.8963
324.89628
324.89626
324.89625
324.89625
324.89626
324.89627
324.89628
324.8963
324.89633
324.89632
324.89629
324.89628
324.89627
324.89627
324.89627
324.89628
324.8963
324.89632
324.89635
324.89633
324.89631
324.8963
324.89629
324.89629
324.89629
324.8963
324.89632
324.89634
324.89637
324.89635
324.89633
324.89632
324.89632
324.89632
324.89632
324.89633
324.89635
324.89637
324.8964
333.00699
333.00695
333.00693
333.00692
333.00692
333.00692
333.00693
333.00694
333.00696
333.00699
333.00695
333.00692
333.0069
333.00689
333.00689
333.00689
333.0069
333.00691
333.00693
333.00696
333.00693
333.0069
333.00688
333.00687
333.00687
333.00687
333.00688
333.0069
333.00692
333.00695
333.00692
333.00689
333.00687
333.00686
333.00686
333.00686
333.00687
333.00689
333.00691
333.00695
333.00692
333.00689
333.00687
333.00686
333.00686
333.00686
333.00687
333.00689
333.00691
333.00694
333.00692
333.00689
333.00687
333.00686
333.00686
333.00687
333.00688
333.0069
333.00692
333.00695
333.00693
333.0069
333.00688
333.00687
333.00687
333.00688
333.00689
333.00691
333.00693
333.00696
333.00694
333.00691
333.0069
333.00689
333.00689
333.0069
333.00691
333.00693
333.00695
333.00698
333.00696
333.00693
333.00692
333.00691
333.00691
333.00692
333.00693
333.00695
333.00698
333.00701
333.00699
333.00696
333.00695
333.00695
333.00694
333.00695
333.00696
333.00698
333.00701
333.00705
341.06896
341.06892
341.0689
341.06889
341.06888
341.06889
341.0689
341.06891
341.06894
341.06896
341.06892
341.06889
341.06887
341.06885
341.06885
341.06885
341.06886
341.06888
341.0689
341.06894
341.0689
341.06887
341.06885
341.06884
341.06883
341.06884
341.06885
341.06886
341.06889
341.06892
341.06889
341.06885
341.06884
341.06882
341.06882
341.06883
341.06884
341.06886
341.06888
341.06892
341.06888
341.06885
341.06883
341.06882
341.06882
341.06882
341.06884
341.06886
341.06888
341.06892
341.06889
341.06885
341.06884
341.06883
341.06882
341.06883
341.06884
341.06886
341.06889
341.06892
341.0689
341.06886
341.06885
341.06884
341.06884
341.06884
341.06885
341.06888
341.0689
341.06894
341.06891
341.06888
341.06886
341.06886
341.06886
341.06886
341.06888
341.0689
341.06893
341.06896
341.06894
341.0689
341.06889
341.06888
341.06888
341.06889
341.0689
341.06893
341.06896
341.06899
341.06896
341.06894
341.06892
341.06892
341.06892
341.06892
341.06894
341.06896
341.06899
341.06903
349.0832
349.08315
349.08313
349.08311
349.08311
349.08311
349.08312
349.08314
349.08317
349.0832
349.08315
349.08311
349.08309
349.08308
349.08307
349.08308
349.08309
349.08311
349.08314
349.08317
349.08313
349.08309
349.08307
349.08306
349.08305
349.08306
349.08307
349.08309
349.08312
349.08316
349.08311
349.08308
349.08306
349.08305
349.08304
349.08305
349.08306
349.08308
349.08311
349.08315
349.08311
349.08307
349.08305
349.08304
349.08304
349.08305
349.08306
349.08308
349.08311
349.08315
349.08311
349.08308
349.08306
349.08305
349.08305
349.08305
349.08307
349.08309
349.08312
349.08316
349.08312
349.08309
349.08307
349.08306
349.08306
349.08307
349.08308
349.0831
349.08314
349.08318
349.08314
349.08311
349.08309
349.08308
349.08308
349.08309
349.0831
349.08313
349.08316
349.0832
349.08317
349.08314
349.08312
349.08311
349.08311
349.08312
349.08314
349.08316
349.08319
349.08323
349.0832
349.08317
349.08316
349.08315
349.08315
349.08316
349.08318
349.0832
349.08323
349.08328
357.05058
357.05053
357.0505
357.05049
357.05048
357.05049
357.0505
357.05052
357.05055
357.05058
357.05053
357.05048
357.05046
357.05045
357.05044
357.05045
357.05046
357.05048
357.05051
357.05055
357.0505
357.05046
357.05044
357.05043
357.05042
357.05043
357.05044
357.05047
357.0505
357.05054
357.05049
357.05045
357.05043
357.05042
357.05041
357.05042
357.05043
357.05046
357.05049
357.05053
357.05048
357.05044
357.05042
357.05041
357.05041
357.05042
357.05043
357.05046
357.05049
357.05053
357.05049
357.05045
357.05043
357.05042
357.05042
357.05042
357.05044
357.05046
357.0505
357.05054
357.0505
357.05046
357.05044
357.05043
357.05043
357.05044
357.05046
357.05048
357.05052
357.05056
357.05052
357.05048
357.05047
357.05046
357.05046
357.05046
357.05048
357.05051
357.05054
357.05059
357.05055
357.05051
357.0505
357.05049
357.05049
357.0505
357.05052
357.05054
357.05058
357.05062
357.05058
357.05055
357.05054
357.05053
357.05053
357.05054
357.05056
357.05059
357.05062
357.05067
364.97196
364.97191
364.97188
364.97187
364.97186
364.97187
364.97188
364.9719
364.97193
364.97197
364.97191
364.97186
364.97184
364.97183
364.97182
364.97183
364.97184
364.97186
364.9719
364.97194
364.97188
364.97184
364.97182
364.9718
364.9718
364.97181
364.97182
364.97185
364.97188
364.97192
364.97187
364.97183
364.9718
364.97179
364.97179
364.9718
364.97181
364.97184
364.97187
364.97192
364.97186
364.97182
364.9718
364.97179
364.97179
364.97179
364.97181
364.97184
364.97187
364.97192
364.97187
364.97183
364.97181
364.9718
364.97179
364.9718
364.97182
364.97185
364.97188
364.97193
364.97188
364.97184
364.97182
364.97181
364.97181
364.97182
364.97184
364.97186
364.9719
364.97195
364.9719
364.97186
364.97185
364.97184
364.97184
364.97185
364.97186
364.97189
364.97193
364.97198
364.97193
364.9719
364.97188
364.97187
364.97187
364.97188
364.9719
364.97193
364.97197
364.97202
364.97197
364.97194
364.97192
364.97192
364.97192
364.97193
364.97195
364.97198
364.97202
364.97207
372.84818
372.84813
372.8481
372.84808
372.84808
372.84809
372.8481
372.84812
372.84815
372.84819
372.84813
372.84808
372.84805
372.84804
372.84804
372.84804
372.84806
372.84808
372.84812
372.84816
372.8481
372.84805
372.84803
372.84802
372.84801
372.84802
372.84804
372.84806
372.8481
372.84814
372.84808
372.84804
372.84802
372.84801
372.848
372.84801
372.84803
372.84805
372.84809
372.84814
372.84808
372.84804
372.84801
372.848
372.848
372.84801
372.84803
372.84805
372.84809
372.84814
372.84809
372.84804
372.84802
372.84801
372.84801
372.84802
372.84804
372.84806
372.8481
372.84815
372.8481
372.84806
372.84804
372.84803
372.84803
372.84804
372.84805
372.84808
372.84812
372.84817
372.84812
372.84808
372.84806
372.84805
372.84805
372.84806
372.84808
372.84811
372.84815
372.8482
372.84815
372.84812
372.8481
372.84809
372.84809
372.8481
372.84812
372.84815
372.84819
372.84824
372.84819
372.84816
372.84814
372.84814
372.84814
372.84815
372.84817
372.8482
372.84824
372.8483
380.68004
380.67998
380.67996
380.67994
380.67994
380.67994
380.67996
380.67998
380.68001
380.68005
380.67998
380.67993
380.67991
380.67989
380.67989
380.6799
380.67991
380.67994
380.67997
380.68002
380.67996
380.67991
380.67988
380.67987
380.67987
380.67987
380.67989
380.67992
380.67996
380.68001
380.67994
380.67989
380.67987
380.67986
380.67986
380.67986
380.67988
380.67991
380.67995
380.68
380.67994
380.67989
380.67987
380.67986
380.67985
380.67986
380.67988
380.67991
380.67995
380.68
380.67994
380.6799
380.67987
380.67986
380.67986
380.67987
380.67989
380.67992
380.67996
380.68001
380.67996
380.67991
380.67989
380.67988
380.67988
380.67989
380.67991
380.67994
380.67998
380.68003
380.67998
380.67994
380.67992
380.67991
380.67991
380.67992
380.67994
380.67997
380.68002
380.68007
380.68001
380.67997
380.67996
380.67995
380.67995
380.67996
380.67998
380.68002
380.68006
380.68011
380.68005
380.68002
380.68001
380.68
380.68
380.68001
380.68003
380.68007
380.68011
380.68017
388.46831
388.46825
388.46823
388.46821
388.46821
388.46821
388.46823
388.46826
388.46829
388.46833
388.46825
388.46821
388.46818
388.46816
388.46816
388.46817
388.46818
388.46821
388.46825
388.4683
388.46823
388.46818
388.46815
388.46814
388.46814
388.46815
388.46816
388.46819
388.46823
388.46828
388.46821
388.46816
388.46814
388.46813
388.46813
388.46813
388.46815
388.46818
388.46822
388.46827
388.46821
388.46816
388.46814
388.46813
388.46812
388.46813
388.46815
388.46818
388.46822
388.46828
388.46821
388.46817
388.46815
388.46813
388.46813
388.46814
388.46816
388.46819
388.46824
388.46829
388.46823
388.46818
388.46816
388.46815
388.46815
388.46816
388.46819
388.46822
388.46826
388.46831
388.46826
388.46821
388.46819
388.46818
388.46818
388.46819
388.46822
388.46825
388.46829
388.46835
388.46829
388.46825
388.46823
388.46822
388.46822
388.46824
388.46826
388.46829
388.46834
388.46839
388.46833
388.4683
388.46828
388.46827
388.46828
388.46829
388.46831
388.46835
388.46839
388.46845
396.21375
396.21369
396.21367
396.21365
396.21365
396.21365
396.21367
396.2137
396.21373
396.21377
396.21369
396.21364
396.21362
396.2136
396.2136
396.21361
396.21362
396.21365
396.21369
396.21374
396.21367
396.21362
396.21359
396.21358
396.21358
396.21358
396.2136
396.21363
396.21367
396.21373
396.21365
396.2136
396.21358
396.21357
396.21356
396.21357
396.21359
396.21362
396.21367
396.21372
396.21365
396.2136
396.21358
396.21356
396.21356
396.21357
396.21359
396.21362
396.21367
396.21372
396.21365
396.21361
396.21358
396.21357
396.21357
396.21358
396.2136
396.21364
396.21368
396.21374
396.21367
396.21362
396.2136
396.21359
396.21359
396.2136
396.21363
396.21366
396.2137
396.21376
396.2137
396.21365
396.21363
396.21362
396.21362
396.21364
396.21366
396.21369
396.21374
396.2138
396.21373
396.21369
396.21367
396.21367
396.21367
396.21368
396.2137
396.21374
396.21379
396.21384
396.21377
396.21374
396.21373
396.21372
396.21372
396.21374
396.21376
396.2138
396.21384
396.2139
403.91709
403.91703
403.917
403.91699
403.91698
403.91699
403.91701
403.91703
403.91707
403.91711
403.91703
403.91698
403.91695
403.91694
403.91693
403.91694
403.91696
403.91699
403.91703
403.91708
403.917
403.91695
403.91693
403.91691
403.91691
403.91692
403.91694
403.91697
403.91701
403.91706
403.91699
403.91694
403.91691
403.9169
403.9169
403.91691
403.91693
403.91696
403.917
403.91706
403.91698
403.91693
403.91691
403.9169
403.9169
403.91691
403.91693
403.91696
403.917
403.91706
403.91699
403.91694
403.91692
403.91691
403.91691
403.91692
403.91694
403.91697
403.91702
403.91707
403.91701
403.91696
403.91694
403.91693
403.91693
403.91694
403.91696
403.917
403.91704
403.9171
403.91703
403.91699
403.91697
403.91696
403.91696
403.91697
403.917
403.91703
403.91708
403.91714
403.91707
403.91703
403.91701
403.917
403.917
403.91702
403.91704
403.91708
403.91713
403.91719
403.91711
403.91708
403.91706
403.91706
403.91706
403.91707
403.9171
403.91714
403.91719
403.91725
411.57902
411.57896
411.57893
411.57892
411.57891
411.57892
411.57894
411.57897
411.57901
411.57905
411.57896
411.57891
411.57888
411.57887
411.57887
411.57887
411.57889
411.57892
411.57896
411.57902
411.57893
411.57888
411.57886
411.57884
411.57884
411.57885
411.57887
411.5789
411.57895
411.579
411.57892
411.57887
411.57884
411.57883
411.57883
411.57884
411.57886
411.57889
411.57894
411.57899
411.57891
411.57887
411.57884
411.57883
411.57883
411.57884
411.57886
411.5789
411.57894
411.579
411.57892
411.57887
411.57885
411.57884
411.57884
411.57885
411.57887
411.57891
411.57895
411.57901
411.57894
411.57889
411.57887
411.57886
411.57886
411.57887
411.5789
411.57893
411.57898
411.57904
411.57897
411.57892
411.5789
411.57889
411.5789
411.57891
411.57893
411.57897
411.57902
411.57907
411.57901
411.57896
411.57895
411.57894
411.57894
411.57895
411.57898
411.57902
411.57907
411.57913
411.57905
411.57902
411.579
411.57899
411.579
411.57901
411.57904
411.57907
411.57913
411.57919
419.20023
419.20017
419.20014
419.20013
419.20013
419.20013
419.20015
419.20018
419.20022
419.20026
419.20017
419.20012
419.20009
419.20008
419.20008
419.20009
419.2001
419.20014
419.20018
419.20023
419.20014
419.20009
419.20007
419.20006
419.20005
419.20006
419.20008
419.20011
419.20016
419.20021
419.20013
419.20008
419.20006
419.20004
419.20004
419.20005
419.20007
419.20011
419.20015
419.20021
419.20013
419.20008
419.20005
419.20004
419.20004
419.20005
419.20007
419.20011
419.20015
419.20021
419.20013
419.20009
419.20006
419.20005
419.20005
419.20006
419.20009
419.20012
419.20017
419.20023
419.20015
419.2001
419.20008
419.20007
419.20007
419.20009
419.20011
419.20015
419.20019
419.20025
419.20018
419.20014
419.20011
419.20011
419.20011
419.20012
419.20015
419.20018
419.20023
419.20029
419.20022
419.20018
419.20016
419.20015
419.20015
419.20017
419.20019
419.20023
419.20028
419.20034
419.20026
419.20023
419.20021
419.20021
419.20021
419.20023
419.20025
419.20029
419.20034
419.20041
426.78138
426.78132
426.78129
426.78128
426.78127
426.78128
426.7813
426.78133
426.78137
426.78141
426.78132
426.78127
426.78124
426.78123
426.78122
426.78123
426.78125
426.78128
426.78133
426.78138
426.78129
426.78124
426.78122
426.7812
426.7812
426.78121
426.78123
426.78126
426.78131
426.78136
426.78128
426.78123
426.7812
426.78119
426.78119
426.7812
426.78122
426.78126
426.7813
426.78136
426.78127
426.78122
426.7812
426.78119
426.78119
426.7812
426.78122
426.78126
426.7813
426.78136
426.78128
426.78123
426.78121
426.7812
426.7812
426.78121
426.78124
426.78127
426.78132
426.78138
426.7813
426.78125
426.78123
426.78122
426.78122
426.78124
426.78126
426.7813
426.78134
426.7814
426.78133
426.78128
426.78126
426.78126
426.78126
426.78127
426.7813
426.78133
426.78138
426.78144
426.78137
426.78133
426.78131
426.7813
426.7813
426.78132
426.78134
426.78138
426.78143
426.78149
426.78141
426.78138
426.78136
426.78136
426.78136
426.78138
426.7814
426.78144
426.78149
426.78156
434.3231
434.32304
434.32301
434.323
434.32299
434.323
434.32302
434.32305
434.32309
434.32313
434.32304
434.32299
434.32296
434.32295
434.32295
434.32296
434.32298
434.32301
434.32305
434.3231
434.32301
434.32296
434.32294
434.32293
434.32292
434.32293
434.32295
434.32299
434.32303
434.32309
434.323
434.32295
434.32293
434.32291
434.32291
434.32292
434.32294
434.32298
434.32302
434.32308
434.32299
434.32295
434.32292
434.32291
434.32291
434.32292
434.32295
434.32298
434.32303
434.32309
434.323
434.32296
434.32293
434.32292
434.32292
434.32294
434.32296
434.323
434.32304
434.3231
434.32302
434.32298
434.32295
434.32294
434.32295
434.32296
434.32298
434.32302
434.32307
434.32313
434.32305
434.32301
434.32299
434.32298
434.32298
434.323
434.32302
434.32306
434.32311
434.32317
434.32309
434.32305
434.32303
434.32302
434.32303
434.32304
434.32307
434.32311
434.32316
434.32322
434.32313
434.3231
434.32309
434.32308
434.32309
434.3231
434.32313
434.32317
434.32322
434.32328
441.82601
441.82595
441.82592
441.82591
441.82591
441.82591
441.82593
441.82596
441.826
441.82604
441.82595
441.8259
441.82587
441.82586
441.82586
441.82587
441.82589
441.82592
441.82596
441.82601
441.82592
441.82587
441.82585
441.82584
441.82584
441.82585
441.82587
441.8259
441.82594
441.826
441.82591
441.82586
441.82584
441.82583
441.82583
441.82584
441.82586
441.82589
441.82594
441.82599
441.82591
441.82586
441.82584
441.82583
441.82583
441.82584
441.82586
441.82589
441.82594
441.826
441.82591
441.82587
441.82585
441.82584
441.82584
441.82585
441.82587
441.82591
441.82596
441.82601
441.82593
441.82589
441.82587
441.82586
441.82586
441.82587
441.8259
441.82593
441.82598
441.82604
441.82596
441.82592
441.8259
441.82589
441.82589
441.82591
441.82593
441.82597
441.82602
441.82608
441.826
441.82596
441.82594
441.82594
441.82594
441.82596
441.82598
441.82602
441.82607
441.82613
441.82604
441.82601
441.826
441.82599
441.826
441.82601
441.82604
441.82608
441.82613
441.82619
449.2907
449.29064
449.29062
449.2906
449.2906
449.29061
449.29063
449.29066
449.2907
449.29074
449.29064
449.2906
449.29057
449.29056
449.29056
449.29057
449.29059
449.29062
449.29066
449.29071
449.29062
449.29057
449.29055
449.29054
449.29053
449.29054
449.29057
449.2906
449.29064
449.2907
449.2906
449.29056
449.29054
449.29052
449.29052
449.29054
449.29056
449.29059
449.29063
449.29069
449.2906
449.29056
449.29053
449.29052
449.29053
449.29054
449.29056
449.29059
449.29064
449.2907
449.29061
449.29057
449.29054
449.29054
449.29054
449.29055
449.29057
449.29061
449.29065
449.29071
449.29063
449.29059
449.29057
449.29056
449.29056
449.29057
449.2906
449.29063
449.29068
449.29074
449.29066
449.29062
449.2906
449.29059
449.29059
449.29061
449.29063
449.29067
449.29072
449.29078
449.2907
449.29066
449.29064
449.29063
449.29064
449.29065
449.29068
449.29072
449.29077
449.29083
449.29074
449.29071
449.2907
449.29069
449.2907
449.29071
449.29074
449.29078
449.29083
449.29089
456.71776
456.7177
456.71768
456.71766
456.71766
456.71767
456.71769
456.71772
456.71776
456.7178
456.7177
456.71766
456.71763
456.71762
456.71762
456.71763
456.71765
456.71768
456.71772
456.71777
456.71768
456.71763
456.71761
456.7176
456.7176
456.71761
456.71763
456.71766
456.7177
456.71776
456.71766
456.71762
456.7176
456.71759
456.71759
456.7176
456.71762
456.71765
456.7177
456.71775
456.71766
456.71762
456.7176
456.71759
456.71759
456.7176
456.71762
456.71766
456.7177
456.71776
456.71767
456.71763
456.71761
456.7176
456.7176
456.71761
456.71764
456.71767
456.71772
456.71777
456.71769
456.71765
456.71763
456.71762
456.71762
456.71764
456.71766
456.7177
456.71774
456.7178
456.71772
456.71768
456.71766
456.71765
456.71766
456.71767
456.7177
456.71773
456.71778
456.71783
456.71776
456.71772
456.7177
456.7177
456.7177
456.71772
456.71774
456.71778
456.71783
456.71788
456.7178
456.71777
456.71776
456.71775
456.71776
456.71777
456.7178
456.71783
456.71788
456.71795
464.10774
464.10768
464.10766
464.10765
464.10765
464.10765
464.10767
464.1077
464.10774
464.10778
464.10768
464.10764
464.10762
464.1076
464.1076
464.10761
464.10763
464.10766
464.1077
464.10775
464.10766
464.10762
464.10759
464.10758
464.10758
464.10759
464.10761
464.10764
464.10768
464.10774
464.10765
464.1076
464.10758
464.10757
464.10757
464.10758
464.10761
464.10764
464.10768
464.10773
464.10765
464.1076
464.10758
464.10757
464.10757
464.10759
464.10761
464.10764
464.10768
464.10774
464.10765
464.10761
464.10759
464.10758
464.10759
464.1076
464.10762
464.10765
464.1077
464.10775
464.10767
464.10763
464.10761
464.10761
464.10761
464.10762
464.10765
464.10768
464.10772
464.10778
464.1077
464.10766
464.10764
464.10764
464.10764
464.10765
464.10768
464.10771
464.10776
464.10782
464.10774
464.1077
464.10768
464.10768
464.10768
464.1077
464.10772
464.10776
464.10781
464.10786
464.10778
464.10775
464.10774
464.10773
464.10774
464.10775
464.10778
464.10782
464.10786
464.10793
471.46118
471.46113
471.4611
471.46109
471.46109
471.4611
471.46112
471.46115
471.46118
471.46122
471.46113
471.46108
471.46106
471.46105
471.46105
471.46106
471.46108
471.46111
471.46115
471.46119
471.4611
471.46106
471.46104
471.46103
471.46103
471.46104
471.46106
471.46109
471.46113
471.46118
471.46109
471.46105
471.46103
471.46102
471.46102
471.46103
471.46105
471.46109
471.46113
471.46118
471.46109
471.46105
471.46103
471.46102
471.46102
471.46104
471.46106
471.46109
471.46113
471.46118
471.4611
471.46106
471.46104
471.46103
471.46104
471.46105
471.46107
471.4611
471.46115
471.4612
471.46112
471.46108
471.46106
471.46105
471.46106
471.46107
471.46109
471.46113
471.46117
471.46122
471.46115
471.46111
471.46109
471.46109
471.46109
471.4611
471.46113
471.46116
471.4612
471.46126
471.46118
471.46115
471.46113
471.46113
471.46113
471.46115
471.46117
471.4612
471.46125
471.46131
471.46122
471.46119
471.46118
471.46118
471.46118
471.4612
471.46122
471.46126
471.46131
471.46136
478.77861
478.77856
478.77854
478.77853
478.77852
478.77853
478.77855
478.77858
478.77861
478.77865
478.77856
478.77852
478.7785
478.77849
478.77849
478.7785
478.77851
478.77854
478.77858
478.77862
478.77854
478.7785
478.77848
478.77847
478.77847
478.77848
478.7785
478.77853
478.77856
478.77861
478.77853
478.77849
478.77847
478.77846
478.77846
478.77847
478.77849
478.77852
478.77856
478.77861
478.77852
478.77849
478.77847
478.77846
478.77846
478.77847
478.77849
478.77852
478.77857
478.77862
478.77853
478.7785
478.77848
478.77847
478.77847
478.77849
478.77851
478.77854
478.77858
478.77863
478.77855
478.77851
478.7785
478.77849
478.77849
478.77851
478.77853
478.77856
478.7786
478.77865
478.77858
478.77854
478.77853
478.77852
478.77852
478.77854
478.77856
478.77859
478.77864
478.77869
478.77861
478.77858
478.77856
478.77856
478.77857
478.77858
478.7786
478.77864
478.77868
478.77873
478.77865
478.77862
478.77861
478.77861
478.77862
478.77863
478.77865
478.77869
478.77873
478.77879
486.06053
486.06048
486.06046
486.06045
486.06045
486.06046
486.06048
486.0605
486.06054
486.06057
486.06048
486.06045
486.06043
486.06042
486.06042
486.06043
486.06044
486.06047
486.06051
486.06055
486.06046
486.06043
486.06041
486.0604
486.0604
486.06041
486.06043
486.06046
486.06049
486.06054
486.06045
486.06042
486.0604
486.06039
486.06039
486.0604
486.06042
486.06045
486.06049
486.06054
486.06045
486.06042
486.0604
486.06039
486.0604
486.06041
486.06043
486.06046
486.06049
486.06054
486.06046
486.06043
486.06041
486.0604
486.06041
486.06042
486.06044
486.06047
486.06051
486.06056
486.06048
486.06044
486.06043
486.06042
486.06043
486.06044
486.06046
486.06049
486.06053
486.06058
486.0605
486.06047
486.06046
486.06045
486.06046
486.06047
486.06049
486.06052
486.06056
486.06061
486.06054
486.06051
486.06049
486.06049
486.06049
486.06051
486.06053
486.06056
486.0606
486.06066
486.06057
486.06055
486.06054
486.06054
486.06054
486.06056
486.06058
486.06061
486.06066
486.06071
493.30744
493.3074
493.30738
493.30737
493.30737
493.30738
493.3074
493.30742
493.30745
493.30749
493.3074
493.30736
493.30735
493.30734
493.30734
493.30735
493.30736
493.30739
493.30742
493.30746
493.30738
493.30735
493.30733
493.30732
493.30732
493.30733
493.30735
493.30738
493.30741
493.30745
493.30737
493.30734
493.30732
493.30732
493.30732
493.30733
493.30734
493.30737
493.30741
493.30745
493.30737
493.30734
493.30732
493.30732
493.30732
493.30733
493.30735
493.30738
493.30741
493.30746
493.30738
493.30735
493.30733
493.30733
493.30733
493.30734
493.30736
493.30739
493.30743
493.30747
493.3074
493.30736
493.30735
493.30734
493.30735
493.30736
493.30738
493.30741
493.30745
493.30749
493.30742
493.30739
493.30738
493.30737
493.30738
493.30739
493.30741
493.30744
493.30748
493.30752
493.30745
493.30742
493.30741
493.30741
493.30741
493.30743
493.30745
493.30748
493.30752
493.30756
493.30749
493.30746
493.30745
493.30745
493.30746
493.30747
493.30749
493.30752
493.30756
493.30762
500.51982
500.51978
500.51976
500.51976
500.51976
500.51976
500.51978
500.5198
500.51983
500.51986
500.51978
500.51975
500.51973
500.51972
500.51972
500.51973
500.51975
500.51977
500.5198
500.51984
500.51976
500.51973
500.51972
500.51971
500.51971
500.51972
500.51974
500.51976
500.51979
500.51983
500.51976
500.51972
500.51971
500.5197
500.5197
500.51971
500.51973
500.51976
500.51979
500.51983
500.51976
500.51972
500.51971
500.5197
500.51971
500.51972
500.51974
500.51976
500.5198
500.51984
500.51976