/*--------------------------------*- C++ -*----------------------------------*\
| =========                 |                                                 |
| \\      /  F ield         | OpenFOAM: The Open Source CFD Toolbox           |
|  \\    /   O peration     | Version:  v2106                                 |
|   \\  /    A nd           | Website:  www.openfoam.com                      |
|    \\/     M anipulation  |                                                 |
\*---------------------------------------------------------------------------*/
FoamFile
{
    version     2.0;
    format      ascii;
    arch        "LSB;label=32;scalar=64";
    class       volScalarField;
    location    "20";
    object      laplacianT;
}
// * * * * * * * * * * * * * * * * * * * * * * * * * * * * * * * * * * * * * //

dimensions      [0 -2 0 1 0 0 0];

internalField   nonuniform List<scalar> 
4000
(
21.368591
22.466798
20.975072
21.56959
21.590784
21.587088
21.584548
21.579337
21.562864
21.56688
22.466798
21.187937
21.160614
21.597223
21.601012
21.587253
21.574837
21.557365
21.545965
21.616085
20.975072
21.160614
20.740985
21.138389
21.138742
21.126432
21.111123
21.074364
21.030298
21.238313
21.56959
21.597223
21.138389
21.531348
21.532538
21.522653
21.510718
21.471608
21.391889
21.477526
21.590784
21.601012
21.138742
21.532538
21.534476
21.525418
21.515351
21.481221
21.410729
21.498878
21.587088
21.587254
21.126432
21.522653
21.525418
21.516701
21.506934
21.473296
21.404392
21.495687
21.584548
21.574837
21.111123
21.510718
21.515351
21.506934
21.497427
21.46374
21.394508
21.486339
21.579337
21.557365
21.074364
21.471608
21.481221
21.473296
21.46374
21.429121
21.357938
21.449421
21.562864
21.545965
21.030298
21.391889
21.410729
21.404392
21.394508
21.357938
21.283498
21.378645
21.56688
21.616085
21.238313
21.477526
21.498878
21.495687
21.486339
21.449421
21.378645
21.504119
63.752792
65.632405
63.055942
64.194209
64.227272
64.213731
64.206242
64.185227
64.131472
64.037056
65.632405
63.903882
63.747841
64.581152
64.576481
64.54054
64.50291
64.449875
64.520052
64.551265
63.055942
63.747841
62.902312
63.663199
63.655822
63.624998
63.578603
63.462645
63.458866
63.862773
64.194209
64.581152
63.663199
64.418295
64.414068
64.389488
64.351614
64.225843
64.127855
64.2401
64.227272
64.576481
63.655822
64.414068
64.411795
64.389245
64.356267
64.242767
64.165466
64.264841
64.213731
64.54054
63.624998
64.389488
64.389245
64.367456
64.335202
64.22317
64.150664
64.254108
64.206242
64.50291
63.578603
64.351614
64.356267
64.335202
64.303235
64.190474
64.116346
64.222552
64.185227
64.449875
63.462645
64.225843
64.242767
64.22317
64.190474
64.074164
63.993118
64.10876
64.131472
64.520052
63.458866
64.127855
64.165466
64.150664
64.116346
63.993118
63.901832
64.062367
64.037056
64.551265
63.862773
64.2401
64.264841
64.254108
64.222552
64.10876
64.062367
64.330419
105.9312
108.20809
105.17215
106.66436
106.7007
106.67327
106.65171
106.60616
106.60336
106.1695
108.20809
106.00336
105.92886
107.02749
107.01244
106.94997
106.86225
106.72357
107.07876
107.10259
105.17215
105.92886
104.98814
105.99394
105.97837
105.92687
105.82743
105.56282
105.73545
106.22976
106.66436
107.02749
105.99394
106.99327
106.98284
106.94144
106.8578
106.58137
106.61585
106.68987
106.7007
107.01244
105.97837
106.98284
106.97544
106.93722
106.86131
106.60359
106.66836
106.71354
106.67327
106.94997
105.92687
106.94144
106.93722
106.90028
106.82557
106.57025
106.6427
106.69076
106.65171
106.86225
105.82743
106.8578
106.86131
106.82557
106.75077
106.49315
106.56109
106.61429
106.60616
106.72357
105.56282
106.58137
106.60359
106.57025
106.49315
106.22737
106.28082
106.37142
106.60336
107.07876
105.73545
106.61585
106.66836
106.6427
106.56109
106.28082
106.3219
106.61812
106.1695
107.10259
106.22976
106.68987
106.71354
106.69076
106.61429
106.37142
106.61812
106.64585
147.31628
150.1186
146.49945
148.31347
148.35695
148.31896
148.27849
148.18901
148.31269
147.73719
150.1186
147.59629
147.47794
148.82318
148.80366
148.71921
148.57302
148.29159
148.93545
148.96383
146.49945
147.47794
146.33785
147.57179
147.55339
147.48616
147.33084
146.87597
147.26888
147.90802
148.31347
148.82318
147.57179
148.79828
148.78651
148.73261
148.59941
148.1286
148.33961
148.44873
148.35695
148.80366
147.55339
148.78651
148.77869
148.72899
148.60631
148.16001
148.40908
148.4753
148.31896
148.71921
147.48616
148.73261
148.72899
148.68104
148.55997
148.11678
148.37554
148.44193
148.27849
148.57302
147.33084
148.59941
148.60631
148.55997
148.43821
147.99032
148.2396
148.31065
148.18901
148.29159
146.87597
148.1286
148.16001
148.11678
147.99032
147.52704
147.74929
147.89504
148.31269
148.93545
147.26888
148.33961
148.40908
148.37554
148.2396
147.74929
147.96126
148.65018
147.73719
148.96383
147.90802
148.44873
148.4753
148.44193
148.31065
147.89504
148.65018
148.26042
187.95835
191.22403
187.02003
189.14314
189.19597
189.14969
189.08819
188.93052
189.12981
188.41789
191.22403
188.36346
188.18364
189.76742
189.74655
189.64387
189.44175
189.00057
189.89963
189.90938
187.02003
188.18364
186.83459
188.28931
188.27081
188.19084
187.98168
187.32048
187.9122
188.6756
189.14314
189.76742
188.28931
189.73549
189.72496
189.66134
189.48018
188.79761
189.16426
189.29515
189.19597
189.74655
188.27081
189.72496
189.71921
189.66078
189.49283
188.8401
189.25154
189.32664
189.14969
189.64387
188.19084
189.66134
189.66078
189.60457
189.43867
188.78967
189.21228
189.28411
189.08819
189.44175
187.98168
189.48018
189.49283
189.43867
189.27148
188.61489
189.02131
189.09413
188.93052
189.00057
187.32048
188.79761
188.8401
188.78967
188.61489
187.93325
188.29295
188.47153
189.12981
189.89963
187.9122
189.16426
189.25154
189.21228
189.02131
188.29295
188.62832
189.77678
188.41789
189.90938
188.6756
189.29515
189.32664
189.28411
189.09413
188.47153
189.77678
188.95377
227.45005
231.14974
226.38593
228.80609
228.86922
228.81641
228.7365
228.5113
228.77604
227.93529
231.14974
227.96108
227.72044
229.53427
229.51351
229.39463
229.14009
228.54162
229.68746
229.68049
226.38593
227.72044
226.17017
227.83785
227.82058
227.7296
227.46976
226.60489
227.3911
228.27667
228.80609
229.53427
227.83785
229.49587
229.48782
229.41606
229.18985
228.29768
228.81677
228.97217
228.86922
229.51351
227.82058
229.48782
229.48534
229.41973
229.20937
228.35202
228.9221
229.0094
228.81641
229.39463
227.7296
229.41606
229.41973
229.35681
229.149
228.29602
228.87861
228.95905
228.7365
229.14009
227.46976
229.18985
229.20937
229.149
228.93938
228.07603
228.63552
228.71217
228.5113
228.54162
226.60489
228.29768
228.35202
228.29602
228.07603
227.17764
227.66845
227.87556
228.77604
229.68746
227.3911
228.81677
228.9221
228.87861
228.63552
227.66845
228.11008
229.73369
227.93529
229.68049
228.27667
228.97217
229.0094
228.95905
228.71217
227.87556
229.73369
228.48636
265.53527
269.64502
264.35172
267.0547
267.12824
267.06965
266.97256
266.68197
267.00918
266.04672
269.64502
266.14727
265.84813
267.88155
267.86159
267.72771
267.42305
266.67138
268.05654
268.03515
264.35172
265.84813
264.10689
265.97788
265.96246
265.86146
265.55314
264.48986
265.46567
266.47024
267.0547
267.88155
265.97788
267.83809
267.83306
267.75403
267.48478
266.38818
267.05639
267.23779
267.12824
267.86159
265.96246
267.83306
267.83433
267.76238
267.51154
266.45451
267.17949
267.28095
267.06965
267.72771
265.86146
267.75403
267.76238
267.69358
267.44582
266.3938
267.13255
267.22347
266.97256
267.42305
265.55314
267.48478
267.51154
267.44582
267.19578
266.1307
266.83961
266.92187
266.68197
266.67138
264.48986
266.38818
266.45451
266.3938
266.1307
265.02084
265.63919
265.87363
267.00918
268.05654
265.46567
267.05639
267.17949
267.13255
266.83961
265.63919
266.17992
268.27562
266.04672
268.03515
266.47024
267.23779
267.28095
267.22347
266.92187
265.87363
268.27562
266.61542
301.98289
306.47743
300.68771
303.65711
303.74077
303.67691
303.56348
303.20959
303.59704
302.51937
306.47743
302.69229
302.33689
304.57762
304.55875
304.41087
304.0582
303.15817
304.77394
304.73898
300.68771
302.33689
300.41573
302.4787
302.46538
302.35513
302.00047
300.74537
301.90464
303.02275
303.65711
304.57762
302.4787
304.52985
304.52802
304.44236
304.13194
302.83767
303.65071
303.85776
303.74077
304.55875
302.46538
304.52802
304.53319
304.45549
304.16596
302.91575
303.79099
303.90673
303.67691
304.41087
302.35513
304.44236
304.45549
304.38142
304.09549
302.8509
303.74109
303.8426
303.56348
304.0582
302.00047
304.13194
304.16596
304.09549
303.80686
302.54662
303.40039
303.4884
303.20959
303.15817
300.74537
302.83767
302.91575
302.8509
302.54662
301.23213
301.974
302.23426
303.59704
304.77394
301.90464
303.65071
303.79099
303.74109
303.40039
301.974
302.6091
305.16572
302.51937
304.73898
303.02275
303.85776
303.90673
303.8426
303.4884
302.23426
305.16572
303.10462
336.57031
341.42208
335.1717
338.3893
338.48259
338.41388
338.28485
337.86995
338.31518
337.12907
341.42208
337.37297
336.96359
339.39787
339.38023
339.2193
338.82085
337.77806
339.61443
339.56627
335.1717
336.96359
334.87442
337.11671
337.10559
336.9868
336.58803
335.14887
336.4844
337.7093
338.3893
339.39787
337.11671
339.3462
339.3476
339.25586
338.90625
337.4223
338.37509
338.60667
338.48259
339.38023
337.10559
339.3476
339.35666
339.27372
338.94735
337.51167
338.53173
338.66119
338.41388
339.2193
336.9868
339.25586
339.27372
339.19487
338.87262
337.44317
338.47926
338.59083
338.28485
338.82085
336.58803
338.90625
338.94735
338.87262
338.54728
337.09969
338.09299
338.18629
337.86995
337.77806
335.14887
337.4223
337.51167
337.44317
337.09969
335.58869
336.44945
336.7338
338.31518
339.61443
336.4844
338.37509
338.53173
338.47926
338.09299
336.44945
337.1746
340.17672
337.12907
339.56627
337.7093
338.60667
338.66119
338.59083
338.18629
336.7338
340.17672
337.72804
369.08495
374.2641
367.59158
371.03755
371.13989
371.06674
370.92291
370.44957
370.94984
369.66261
374.2641
369.97601
369.51518
372.12801
372.1117
371.93869
371.49692
370.3178
372.36343
372.30238
367.59158
369.51518
367.27087
369.67866
369.66979
369.54319
369.10276
367.48841
368.99194
370.31612
371.03755
372.12801
369.67866
372.07276
372.07736
371.9801
371.59346
369.92895
371.01562
371.27032
371.13989
372.1117
369.66979
372.07736
372.09023
372.00256
371.64137
370.02908
371.18765
371.33006
371.06674
371.93869
369.54319
371.9801
372.00256
371.91942
371.56284
369.95736
371.13296
371.25391
370.92291
371.49692
369.10276
371.59346
371.64137
371.56284
371.20283
369.57683
370.70352
370.80155
370.44957
370.3178
367.48841
369.92895
370.02908
369.95736
369.57683
367.87866
368.85299
369.1596
370.94984
372.36343
368.99194
371.01562
371.18765
371.13296
370.70352
368.85299
369.66361
373.09275
369.66261
372.30238
370.31612
371.27032
371.33006
371.25391
370.80155
369.1596
373.09275
370.27176
399.32647
404.80111
397.74755
401.40066
401.5114
401.43424
401.2765
400.74762
401.29984
399.91941
404.80111
400.30047
399.79101
402.56628
402.55138
402.36736
401.88497
400.57678
402.81907
402.7455
397.74755
399.79101
397.40538
399.96384
399.95725
399.8236
399.34422
397.56461
399.22689
400.64217
401.40066
402.56628
399.96384
402.50777
402.51553
402.41333
401.99204
400.15723
401.37107
401.64733
401.5114
402.55138
399.95725
402.51553
402.53214
402.44025
402.04647
400.26748
401.55743
401.71191
401.43424
402.36736
399.8236
402.41333
402.44025
402.35332
401.96461
400.19298
401.50086
401.63043
401.2765
401.88497
399.34422
401.99204
402.04647
401.96461
401.57214
399.77775
401.03091
401.13302
400.74762
400.57678
397.56461
400.15723
400.26748
400.19298
399.77775
397.90287
398.98479
399.31173
401.29984
402.81907
399.22689
401.37107
401.55743
401.50086
401.03091
398.98479
399.87587
403.71088
399.91941
402.7455
400.64217
401.64733
401.71191
401.63043
401.13302
399.31173
403.71088
400.53501
427.10839
432.84481
425.45365
429.29138
429.40983
429.32914
429.15843
428.57728
429.17804
427.71291
432.84481
428.15933
427.60439
430.52499
430.51159
430.31766
429.79763
428.36842
430.79354
430.70791
425.45365
427.60439
425.09212
427.78547
427.78121
427.64131
427.12593
425.19202
427.0028
428.50047
429.29138
430.52499
427.78547
430.46356
430.47443
430.36792
429.91455
427.92074
429.25426
429.55037
429.40983
430.51159
427.78121
430.47443
430.49465
430.39912
429.97515
428.04042
429.4538
429.6194
429.32914
430.31766
427.64131
430.36792
430.39912
430.30891
429.89046
427.96359
429.39568
429.53308
429.15843
429.79763
427.12593
429.91455
429.97515
429.89046
429.46794
427.51622
428.88812
428.9937
428.57728
428.36842
425.19202
427.92074
428.04042
427.96359
427.51622
425.47618
426.65902
427.00426
429.17804
430.79354
427.0028
429.25426
429.4538
429.39568
428.88812
426.65902
427.62506
431.84233
427.71291
430.70791
428.50047
429.55037
429.6194
429.53308
428.9937
427.00426
431.84233
428.33114
452.25937
458.2222
450.53898
454.53769
454.66311
454.57937
454.39675
453.76689
454.41249
452.87168
458.2222
453.38076
452.78374
455.83168
455.81985
455.61721
455.06273
453.5213
456.11432
456.01714
450.53898
452.78374
450.16031
452.97195
452.97003
452.82476
452.27654
450.20024
452.14836
453.71919
454.53769
455.83168
452.97195
455.7677
455.7816
455.67142
455.18878
453.04823
454.49323
454.80737
454.66311
455.81985
452.97003
455.7816
455.80531
455.70671
455.25516
453.17661
454.70471
454.88041
454.57937
455.61721
452.82476
455.67142
455.70671
455.61378
455.16816
453.09791
454.6454
454.78978
454.39675
455.06273
452.27654
455.18878
455.25516
455.16816
454.71819
452.62115
454.10335
454.21173
453.76689
453.5213
450.20024
453.04823
453.17661
453.09791
452.62115
450.42851
451.70499
452.06641
454.41249
456.11432
452.14836
454.49323
454.70471
454.6454
454.10335
451.70499
452.74004
457.31358
452.87168
456.01714
453.71919
454.80737
454.88041
454.78978
454.21173
452.06641
457.31358
453.4887
474.6242
480.77671
472.84877
476.9838
477.11542
477.02915
476.83573
476.16105
476.84751
475.24051
480.77671
475.80913
475.1737
478.33021
478.32001
478.10991
477.52438
475.88022
478.62518
478.51704
472.84877
475.1737
472.45528
475.36789
475.36832
475.21855
474.64087
472.43496
474.50842
476.14273
476.9838
478.33021
475.36789
478.26407
478.28091
478.16774
477.65878
475.38468
476.93225
477.26248
477.11542
478.32001
475.36832
478.28091
478.30794
478.20688
477.73053
475.52096
477.15436
477.33908
477.02915
478.10991
475.21855
478.16774
478.20688
478.1118
477.64175
475.44087
477.09423
477.2447
476.83573
477.52438
474.64087
477.65878
477.73053
477.64175
477.1671
474.93765
476.52102
476.63155
476.16105
475.88022
472.43496
475.38468
475.52096
475.44087
474.93765
472.60592
473.96818
474.34355
476.84751
478.62518
474.50842
476.93225
477.15436
477.09423
476.52102
473.96818
475.06587
479.96751
475.24051
478.51704
476.14273
477.26248
477.33908
477.2447
476.63155
474.34355
479.96751
475.85249
494.06482
500.36909
492.24528
496.49116
496.62816
496.53989
496.33687
495.6215
496.34459
494.68131
500.36909
495.30598
494.63607
497.88168
497.87318
497.65691
497.04394
495.30718
498.18715
498.06873
492.24528
494.63607
491.8394
494.83502
494.8378
494.68446
494.08087
491.75894
493.94497
495.63269
496.49116
497.88168
494.83502
497.81378
497.83346
497.71799
497.18585
494.79221
496.43282
496.7771
496.62816
497.87318
494.8378
497.83346
497.86366
497.76075
497.26254
494.93554
496.66419
496.85679
496.53989
497.65691
494.68446
497.71799
497.76075
497.6641
497.17251
494.85456
496.6036
496.75923
496.33687
497.04394
494.08087
497.18585
497.26254
497.17251
496.6761
494.32798
496.00276
496.11475
495.6215
495.30718
491.75894
494.79221
494.93554
494.85456
494.32798
491.87152
493.31117
493.69816
496.34459
498.18715
493.94497
496.43282
496.66419
496.6036
496.00276
493.31117
494.46473
499.66427
494.68131
498.06873
495.63269
496.7771
496.85679
496.75923
496.11475
493.69816
499.66427
495.28447
510.46116
516.87833
508.60872
512.93928
513.08081
512.99108
512.7797
512.02806
512.78333
511.07401
516.87833
511.75091
511.05063
514.36534
514.35859
514.13747
513.50084
511.68217
514.67941
514.55144
508.60872
511.05063
508.19294
511.25312
511.25822
511.10225
510.47647
508.05283
510.33796
512.06868
512.93928
514.36534
511.25312
514.2961
514.31849
514.20143
513.64938
511.15095
512.87449
513.23071
513.08081
514.35859
511.25822
514.31849
514.35166
514.24754
513.73053
511.30045
513.1137
513.31299
512.99108
514.13747
511.10225
514.20143
514.24754
514.14991
513.63982
511.21907
513.05301
513.21285
512.7797
513.50084
510.47647
513.64938
513.73053
513.63982
513.1247
510.67237
512.42825
512.54101
512.02806
511.68217
508.05283
511.15095
511.30045
511.21907
510.67237
508.10632
509.61448
510.01072
512.78333
514.67941
510.33796
512.87449
513.1137
513.05301
512.42825
509.61448
510.8168
516.28222
511.07401
514.55144
512.06868
513.23071
513.31299
513.21285
512.54101
510.01072
516.28222
511.66461
523.71186
530.20239
521.83793
526.22648
526.37168
526.28103
526.0626
525.27932
526.06211
524.31729
530.20239
525.04225
524.31591
527.67929
527.67434
527.44973
526.79336
524.90399
528.00003
527.8633
521.83793
524.31591
521.41482
524.52069
524.52809
524.37045
523.72633
521.21591
523.58606
525.34912
526.22648
527.67929
524.52069
527.60914
527.6341
527.51617
526.94762
524.35979
526.15564
526.52159
526.37168
527.67434
524.52809
527.6341
527.67004
527.56535
527.03272
524.51453
526.4012
526.60596
526.28103
527.44973
524.37045
527.51617
527.56535
527.46734
526.94188
524.43326
526.3408
526.50386
526.0626
526.79336
523.72633
526.94762
527.03272
526.94188
526.41123
523.86981
525.69596
525.8088
525.27932
524.90399
521.21591
524.35979
524.51453
524.43326
523.86981
521.20997
522.77735
523.1804
526.06211
528.00003
523.58606
526.15564
526.4012
526.3408
525.69596
522.77735
524.02103
529.71865
524.31729
527.8633
525.34912
526.52159
526.60596
526.50386
525.8088
523.1804
529.71865
524.89168
533.73493
540.2588
531.85107
536.27055
536.41852
536.32752
536.10337
535.29328
536.09877
534.3292
540.2588
535.09776
534.34984
537.74116
537.73802
537.51132
536.83925
534.89082
538.06659
537.92192
531.85107
534.34984
531.42323
534.55565
534.56529
534.40695
533.74846
531.16672
533.60729
535.39184
536.27055
537.74116
534.55565
537.67052
537.6979
537.57983
536.99828
534.33699
536.19409
536.56752
536.41852
537.73802
534.56529
537.6979
537.73639
537.63177
537.0868
534.49602
536.44449
536.65345
536.32752
537.51132
534.40695
537.57983
537.63177
537.53399
536.99639
534.41535
536.38474
536.55002
536.10337
536.83925
533.74846
536.99828
537.0868
536.99639
536.45348
533.83862
535.7238
535.83601
535.29328
534.89082
531.16672
534.33699
534.49602
534.41535
533.83862
531.10138
532.71832
533.1257
536.09877
538.06659
533.60729
536.19409
536.44449
536.38474
535.7238
532.71832
533.9957
539.89042
534.3292
537.92192
535.39184
536.56752
536.65345
536.55002
535.83601
533.1257
539.89042
534.88382
540.46825
546.98523
538.58607
543.00924
543.15906
543.06826
542.83979
542.00787
542.83109
541.04768
546.98523
541.85511
541.09023
544.48857
544.48728
544.25987
543.57625
541.58076
544.81668
544.66498
538.58607
541.09023
538.15614
541.29579
541.30762
541.14955
540.48076
537.84361
540.33955
542.13458
543.00924
544.48857
541.29579
544.41788
544.44751
544.33003
543.73906
541.02071
542.92761
543.30623
543.15906
544.48728
541.30762
544.44751
544.48831
544.3844
543.83047
541.18306
543.18131
543.39319
543.06826
544.25987
541.14955
544.33003
544.3844
544.28745
543.74104
541.10348
543.12259
543.28906
542.83979
543.57625
540.48076
543.73906
543.83047
543.74104
543.18921
540.51703
542.44961
542.56051
542.00787
541.58076
537.84361
541.02071
541.18306
541.10348
540.51703
537.71926
539.3758
539.78499
542.83109
544.81668
540.33955
542.92761
543.18131
543.12259
542.44961
539.3758
540.679
546.73449
541.04768
544.66498
542.13458
543.30623
543.39319
543.28906
542.56051
539.78499
546.73449
541.57912
543.86995
550.33987
542.00106
546.40064
546.55139
546.46136
546.22996
545.38135
546.21723
544.43097
550.33987
545.2723
544.49516
547.87958
547.88014
547.65342
546.96246
544.93222
548.20834
548.05055
542.00106
544.49516
541.57168
544.69921
544.71315
544.55633
543.88135
541.20506
543.74099
545.53542
546.40064
547.87958
544.69921
547.80927
547.84097
547.7248
547.12805
544.3694
546.31435
546.69582
546.55139
547.88014
544.71315
547.84097
547.88383
547.78128
547.22178
544.53406
546.56979
546.78327
546.46136
547.65342
544.55633
547.7248
547.78128
547.68575
547.13389
544.45607
546.51245
546.67909
546.22996
546.96246
543.88135
547.12805
547.22178
547.13389
546.57655
543.86351
545.83159
545.94049
545.38135
544.93222
541.20506
544.3694
544.53406
544.45607
543.86351
541.02245
542.70838
543.11686
546.21723
548.20834
543.74099
546.31435
546.56979
546.51245
545.83159
542.70838
544.02937
550.20831
544.43097
548.05055
545.53542
546.69582
546.78327
546.67909
545.94049
543.11686
550.20831
544.93595
543.9187
550.30166
542.07461
546.42349
546.57424
546.48552
546.25263
545.39255
546.23594
544.45785
550.30166
545.32789
544.54329
547.89292
547.89531
547.6707
546.97665
544.92416
548.2203
548.05738
542.07461
544.54329
541.64845
544.74456
544.76053
544.60593
543.92893
541.22998
543.79027
545.57305
546.42349
547.89292
544.74456
547.82343
547.85699
547.74284
547.144
544.36205
546.33306
546.71503
546.57424
547.89531
544.76053
547.85699
547.90165
547.80108
547.23947
544.528
546.58866
546.80244
546.48552
547.6707
544.60593
547.74284
547.80108
547.70757
547.15366
544.45209
546.53306
546.69885
546.25263
546.97665
543.92893
547.144
547.23947
547.15366
546.59424
543.85706
545.84851
545.95475
545.39255
544.92416
541.22998
544.36205
544.528
544.45209
543.85706
540.99023
542.69516
543.10042
546.23594
548.2203
543.79027
546.33306
546.58866
546.53306
545.84851
542.69516
544.0258
550.29011
544.45785
548.05738
545.57305
546.71503
546.80244
546.69885
545.95475
543.10042
550.29011
544.93324
540.61384
546.87047
538.80593
543.07726
543.22709
543.14024
542.90729
542.04104
542.88674
541.12778
546.87047
542.02118
541.23395
544.52813
544.53235
544.31122
543.61836
541.55629
544.85211
544.68507
538.80593
541.23395
538.38559
541.43121
541.44911
541.29768
540.62282
537.91785
540.48672
542.24685
543.07726
544.52813
541.43121
544.45988
544.49511
544.38369
543.78644
540.99834
542.98327
543.36338
543.22709
544.53235
541.44911
544.49511
544.54129
544.44333
543.88306
541.16457
543.23745
543.45021
543.14024
544.31122
541.29768
544.38369
544.44333
544.35241
543.79987
541.09119
543.18393
543.34784
542.90729
543.61836
540.62282
543.78644
543.88306
543.79987
543.24181
540.49738
542.49991
542.60283
542.04104
541.55629
537.91785
540.99834
541.16457
541.09119
540.49738
537.62244
539.33586
539.73539
542.88674
544.85211
540.48672
542.98327
543.23745
543.18393
542.49991
539.33586
540.66794
546.97901
541.12778
544.68507
542.24685
543.36338
543.45021
543.34784
542.60283
539.73539
546.97901
541.57065
533.97536
540.06707
532.21478
536.38224
536.53021
536.44577
536.21419
535.34712
536.18991
534.46093
540.06707
535.37218
534.58718
537.80559
537.81161
537.59533
536.90794
534.84899
538.12419
537.95405
532.21478
534.58718
531.80288
534.7792
534.79892
534.6516
533.98305
531.28874
533.85035
535.57698
536.38224
537.80559
534.7792
537.73901
537.77569
537.66768
537.07571
534.29865
536.28526
536.66117
536.53021
537.81161
534.79892
537.77569
537.8231
537.72835
537.17289
534.46413
536.53646
536.74688
536.44577
537.59533
534.6516
537.66768
537.72835
537.64059
537.09282
534.39374
536.48535
536.64637
536.21419
536.90794
533.98305
537.07571
537.17289
537.09282
536.53957
533.8048
535.80608
535.90504
535.34712
534.84899
531.28874
534.29865
534.46413
534.39374
533.8048
530.93949
532.65084
533.04218
536.18991
538.12419
533.85035
536.28526
536.53646
536.48535
535.80608
532.65084
533.97615
540.29506
534.46093
537.95405
535.57698
536.66117
536.74688
536.64637
535.90504
533.04218
540.29506
534.86856
524.04385
529.93307
522.34147
526.37935
526.52456
526.44304
526.21426
525.35171
526.1864
524.49806
529.93307
525.42154
524.6436
527.7664
527.77419
527.56408
526.8864
524.84327
528.07764
527.90547
522.34147
524.6436
521.94053
524.82922
524.85064
524.70833
524.05021
521.38318
523.92173
525.60421
526.37935
527.7664
524.82922
527.7019
527.7398
527.63588
527.05283
524.30394
526.27998
526.64937
526.52456
527.77419
524.85064
527.7398
527.78815
527.69721
527.14998
524.46765
526.52664
526.73343
526.44304
527.56408
524.70833
527.63588
527.69721
527.61314
527.07352
524.40069
526.47826
526.6354
526.21426
526.8864
524.05021
527.05283
527.14998
527.07352
526.52849
523.82025
525.80793
525.90233
525.35171
524.84327
521.38318
524.30394
524.46765
524.40069
523.82025
520.98223
522.68095
523.06168
526.1864
528.07764
523.92173
526.27998
526.52664
526.47826
525.80793
522.68095
523.99132
530.27912
524.49806
527.90547
525.60421
526.64937
526.73343
526.6354
525.90233
523.06168
530.27912
524.86793
510.88022
516.53062
509.24653
513.12992
513.27147
513.19338
512.96883
512.11611
512.93755
511.30027
516.53062
512.23027
511.4642
514.47212
514.48163
514.279
513.61521
511.6005
514.7741
514.60094
509.24653
511.4642
508.85904
511.64227
511.66525
511.52883
510.88521
508.2619
510.76175
512.38969
513.12992
514.47212
511.64227
514.4101
514.44899
514.3498
513.77928
511.0755
513.02878
513.38937
513.27147
514.48163
511.66525
514.44899
514.49799
514.4114
513.87578
511.23643
513.2694
513.47127
513.19338
514.279
511.52883
514.3498
514.4114
514.33155
513.80341
511.17331
513.22405
513.37633
512.96883
513.61521
510.88521
513.77928
513.87578
513.80341
513.26997
510.60496
512.56679
512.65603
512.11611
511.6005
508.2619
511.0755
511.23643
511.17331
510.60496
507.81173
509.48735
509.85513
512.93755
514.7741
510.76175
513.02878
513.2694
513.22405
512.56679
509.48735
510.7747
516.99262
511.30027
514.60094
512.38969
513.38937
513.47127
513.37633
512.65603
509.85513
516.99262
511.6301
494.56532
499.94203
493.01041
496.71535
496.85237
496.77819
496.55924
495.72163
496.52476
494.94863
499.94203
495.87942
495.12994
498.00442
498.0156
497.8217
497.17589
495.20202
498.29527
498.1222
493.01041
495.12994
492.63876
495.29935
495.32376
495.19408
494.56892
492.00551
494.45124
496.01461
496.71535
498.00442
495.29935
497.94526
497.98491
497.89105
497.33658
494.6946
496.61308
496.96265
496.85237
498.0156
495.32376
497.98491
498.03425
497.95256
497.43185
494.85175
496.84616
497.04188
496.77819
497.8217
495.19408
497.89105
497.95256
497.87742
497.36402
494.79287
496.80411
496.95061
496.55924
497.17589
494.56892
497.33658
497.43185
497.36402
496.84545
494.24011
496.16398
496.24753
495.72163
495.20202
492.00551
494.6946
494.85175
494.79287
494.24011
491.5089
493.15109
493.50365
496.52476
498.29527
494.45124
496.61308
496.84616
496.80411
496.16398
493.15109
494.40748
500.51717
494.94863
498.1222
496.01461
496.96265
497.04188
496.95061
496.24753
493.50365
500.51717
495.23639
475.19947
480.26933
473.73294
477.23658
477.36822
477.29842
477.08642
476.26908
477.04894
475.5437
480.26933
476.46951
475.74125
478.46457
478.47734
478.29336
477.66952
475.74868
478.74251
478.57059
473.73294
475.74125
473.37942
475.90097
475.92666
475.80452
475.20168
472.71399
475.0905
476.57966
477.23658
478.46457
475.90097
478.40864
478.44879
478.36086
477.82585
475.26197
477.13381
477.4702
477.36822
478.47734
475.92666
478.44879
478.49818
478.42189
477.91931
475.41438
477.35792
477.54628
477.29842
478.29336
475.80452
478.36086
478.42189
478.35192
477.85644
475.36009
477.31945
477.45924
477.08642
477.66952
475.20168
477.82585
477.91931
477.85644
477.35595
474.82633
476.7004
476.77773
476.26908
475.74868
472.71399
475.26197
475.41438
475.36009
474.82633
472.174
473.77262
474.10778
477.04894
478.74251
475.0905
477.13381
477.35792
477.31945
476.7004
473.77262
474.9903
480.95408
475.5437
478.57059
476.57966
477.4702
477.54628
477.45924
476.77773
474.10778
480.95408
475.78762
452.90186
457.63357
451.53276
454.81347
454.93893
454.87393
454.6702
453.87817
454.62996
453.20488
457.63357
454.12001
453.41746
455.97281
455.9871
455.81419
455.21617
453.3602
456.23613
456.06643
451.53276
453.41746
451.19956
453.5665
453.59332
453.47947
452.90267
450.50605
452.79869
454.20444
454.81347
455.97281
453.5665
455.92046
455.96088
455.87941
455.36718
452.8972
454.71087
455.032
454.93893
455.9871
453.59332
455.96088
456.01001
455.9396
455.45824
453.04394
454.92463
455.10446
454.87393
455.81419
453.47947
455.87941
455.9396
455.87524
455.40072
452.99459
454.88997
455.0222
454.6702
455.21617
452.90267
455.36718
455.45824
455.40072
454.92139
452.48313
454.29582
454.36645
453.87817
453.3602
450.50605
452.8972
453.04394
452.99459
452.48313
449.92603
451.47123
451.78692
454.62996
456.23613
452.79869
454.71087
454.92463
454.88997
454.29582
451.47123
452.64269
458.42377
453.20488
456.06643
454.20444
455.032
455.10446
455.0222
454.36645
451.78692
458.42377
453.40348
427.80977
432.17414
426.54656
429.58411
429.70261
429.64282
429.44862
428.6868
429.40587
428.06976
432.17414
428.96853
428.29603
430.66763
430.68336
430.52259
429.95408
428.17444
430.91474
430.74829
426.54656
428.29603
426.23574
428.43348
428.46126
428.35642
427.80922
425.51846
427.71309
429.02675
429.58411
430.66763
428.43348
430.6192
430.65964
430.58514
430.09885
427.73802
429.48233
429.78622
429.70261
430.68336
428.46126
430.65964
430.70821
430.64411
430.18696
427.87818
429.68442
429.85462
429.64282
430.52259
428.35642
430.58514
430.64411
430.58577
430.13515
427.83408
429.65379
429.77765
429.44862
429.95408
427.80922
430.09885
430.18696
430.13515
429.67995
427.34808
429.08821
429.15171
428.6868
428.17444
425.51846
427.73802
427.87818
427.83408
427.34808
424.90199
426.38424
426.67852
429.40587
430.91474
427.71309
429.48233
429.68442
429.65379
429.08821
426.38424
427.50225
433.06497
428.06976
430.74829
429.02675
429.78622
429.85462
429.77765
429.15171
426.67852
433.06497
428.22184
400.07779
404.04789
398.92826
401.70391
401.81474
401.76053
401.57706
400.85014
401.53207
400.29317
404.04789
401.17
400.5317
402.70494
402.72201
402.57438
402.0389
400.34657
402.93433
402.77217
398.92826
400.5317
398.64175
400.65673
400.68531
400.59012
400.07592
397.90514
399.98822
401.2017
401.70391
402.70494
400.65673
402.66073
402.70094
402.63389
402.17654
399.93944
401.60362
401.8884