/*--------------------------------*- C++ -*----------------------------------*\
| =========                 |                                                 |
| \\      /  F ield         | OpenFOAM: The Open Source CFD Toolbox           |
|  \\    /   O peration     | Version:  v2106                                 |
|   \\  /    A nd           | Website:  www.openfoam.com                      |
|    \\/     M anipulation  |                                                 |
\*---------------------------------------------------------------------------*/
FoamFile
{
    version     2.0;
    format      ascii;
    arch        "LSB;label=32;scalar=64";
    class       volScalarField;
    location    "20";
    object      Tmode3;
}
// * * * * * * * * * * * * * * * * * * * * * * * * * * * * * * * * * * * * * //

dimensions      [0 0 0 0 0 0 0];

internalField   nonuniform List<scalar> 
4000
(
0.034223025
0.034223029
0.034223029
0.034223019
0.034223025
0.034223026
0.034223024
0.034223023
0.034223023
0.034223023
0.034223029
0.034223032
0.034223025
0.034223022
0.034223027
0.034223027
0.034223025
0.034223024
0.034223023
0.034223023
0.034223029
0.034223025
0.034223023
0.034223021
0.034223025
0.034223024
0.034223023
0.034223022
0.034223022
0.034223022
0.034223019
0.034223022
0.034223021
0.034223018
0.034223022
0.034223021
0.034223019
0.034223018
0.034223019
0.03422302
0.034223025
0.034223027
0.034223025
0.034223022
0.034223026
0.034223025
0.034223023
0.034223022
0.034223022
0.034223022
0.034223026
0.034223027
0.034223024
0.034223021
0.034223025
0.034223025
0.034223024
0.034223022
0.034223023
0.034223023
0.034223024
0.034223025
0.034223023
0.034223019
0.034223023
0.034223024
0.034223022
0.034223022
0.034223022
0.034223023
0.034223023
0.034223024
0.034223022
0.034223018
0.034223022
0.034223022
0.034223022
0.034223021
0.034223022
0.034223022
0.034223023
0.034223023
0.034223022
0.034223019
0.034223022
0.034223023
0.034223022
0.034223022
0.034223023
0.034223023
0.034223023
0.034223023
0.034223022
0.03422302
0.034223022
0.034223023
0.034223023
0.034223022
0.034223023
0.034223024
0.030538015
0.030538016
0.030538016
0.030537997
0.03053801
0.030538011
0.030538006
0.030538003
0.030538002
0.030538004
0.030538016
0.030538018
0.030538006
0.030538
0.030538011
0.03053801
0.030538004
0.030538001
0.030538
0.030537998
0.030538016
0.030538006
0.030538003
0.030537998
0.030538007
0.030538005
0.030538
0.030537998
0.030538
0.030538
0.030537997
0.030538
0.030537998
0.030537992
0.030538
0.030537998
0.030537992
0.03053799
0.030537993
0.030537997
0.03053801
0.030538011
0.030538007
0.030538
0.030538009
0.030538007
0.030538002
0.030537998
0.030538
0.030538001
0.030538011
0.03053801
0.030538005
0.030537998
0.030538007
0.030538007
0.030538003
0.030538
0.030538001
0.030538002
0.030538006
0.030538004
0.030538
0.030537992
0.030538002
0.030538003
0.030538
0.030537998
0.030538
0.030538001
0.030538003
0.030538001
0.030537998
0.03053799
0.030537998
0.030538
0.030537998
0.030537997
0.030537999
0.030538001
0.030538002
0.030538
0.030538
0.030537993
0.030538
0.030538001
0.030538
0.030537999
0.030538002
0.030538005
0.030538004
0.030537998
0.030538
0.030537997
0.030538001
0.030538002
0.030538001
0.030538001
0.030538005
0.030538007
0.026876882
0.026876875
0.026876875
0.026876852
0.026876868
0.026876869
0.026876861
0.026876856
0.026876855
0.026876861
0.026876875
0.026876876
0.026876861
0.026876854
0.026876868
0.026876865
0.026876857
0.026876853
0.02687685
0.026876849
0.026876875
0.026876861
0.026876857
0.026876852
0.026876863
0.026876859
0.026876851
0.026876849
0.026876852
0.026876853
0.026876852
0.026876854
0.026876852
0.026876844
0.026876855
0.026876851
0.026876842
0.026876839
0.026876844
0.026876849
0.026876868
0.026876868
0.026876863
0.026876855
0.026876867
0.026876864
0.026876855
0.026876851
0.026876853
0.026876855
0.026876869
0.026876865
0.026876859
0.026876851
0.026876864
0.026876863
0.026876856
0.026876853
0.026876855
0.026876857
0.026876861
0.026876857
0.026876851
0.026876842
0.026876855
0.026876856
0.026876851
0.026876849
0.026876852
0.026876855
0.026876856
0.026876853
0.026876849
0.026876839
0.026876851
0.026876853
0.026876849
0.026876848
0.026876853
0.026876856
0.026876855
0.02687685
0.026876852
0.026876844
0.026876853
0.026876855
0.026876852
0.026876853
0.026876858
0.026876862
0.026876861
0.026876849
0.026876853
0.026876849
0.026876855
0.026876857
0.026876855
0.026876856
0.026876862
0.026876866
0.023255932
0.023255921
0.023255921
0.023255894
0.023255914
0.023255913
0.023255903
0.023255897
0.023255896
0.023255906
0.023255921
0.023255921
0.023255904
0.023255896
0.023255912
0.023255908
0.023255897
0.023255893
0.023255889
0.023255889
0.023255921
0.023255904
0.0232559
0.023255893
0.023255907
0.023255901
0.023255889
0.023255889
0.023255894
0.023255894
0.023255894
0.023255896
0.023255893
0.023255885
0.023255898
0.023255892
0.023255879
0.023255877
0.023255884
0.02325589
0.023255914
0.023255912
0.023255907
0.023255898
0.023255913
0.023255908
0.023255896
0.023255892
0.023255896
0.023255898
0.023255913
0.023255908
0.023255901
0.023255892
0.023255908
0.023255907
0.023255897
0.023255894
0.023255898
0.0232559
0.023255903
0.023255897
0.023255889
0.023255879
0.023255896
0.023255897
0.02325589
0.023255889
0.023255894
0.023255897
0.023255897
0.023255893
0.023255889
0.023255877
0.023255892
0.023255894
0.023255889
0.023255889
0.023255896
0.023255902
0.023255896
0.023255889
0.023255894
0.023255884
0.023255896
0.023255898
0.023255894
0.023255896
0.023255904
0.02325591
0.023255906
0.023255889
0.023255894
0.02325589
0.023255898
0.0232559
0.023255897
0.023255902
0.02325591
0.023255915
0.019692071
0.019692058
0.019692058
0.019692026
0.019692049
0.019692047
0.019692034
0.019692027
0.019692027
0.019692041
0.019692058
0.019692058
0.019692037
0.019692029
0.019692048
0.019692041
0.019692027
0.019692023
0.01969202
0.01969202
0.019692058
0.019692037
0.019692033
0.019692025
0.019692041
0.019692033
0.019692018
0.019692019
0.019692026
0.019692028
0.019692026
0.019692029
0.019692025
0.019692016
0.019692032
0.019692024
0.019692007
0.019692005
0.019692016
0.019692024
0.019692049
0.019692048
0.019692041
0.019692032
0.019692049
0.019692044
0.019692028
0.019692024
0.01969203
0.019692034
0.019692047
0.019692041
0.019692033
0.019692024
0.019692044
0.019692042
0.019692029
0.019692027
0.019692033
0.019692036
0.019692034
0.019692027
0.019692018
0.019692007
0.019692028
0.019692029
0.019692019
0.019692019
0.019692027
0.019692031
0.019692027
0.019692023
0.019692019
0.019692005
0.019692024
0.019692027
0.019692019
0.019692022
0.019692032
0.01969204
0.019692027
0.01969202
0.019692026
0.019692016
0.01969203
0.019692033
0.019692027
0.019692032
0.019692044
0.01969205
0.019692041
0.01969202
0.019692028
0.019692024
0.019692034
0.019692036
0.019692031
0.01969204
0.01969205
0.019692057
0.016203018
0.016203003
0.016203003
0.016202966
0.016202992
0.01620299
0.016202975
0.016202967
0.016202967
0.016202985
0.016203003
0.016203003
0.016202979
0.01620297
0.016202992
0.016202984
0.016202966
0.016202963
0.016202959
0.01620296
0.016203003
0.016202979
0.016202975
0.016202966
0.016202985
0.016202975
0.016202956
0.016202958
0.016202968
0.01620297
0.016202966
0.01620297
0.016202966
0.016202956
0.016202975
0.016202965
0.016202944
0.016202944
0.016202958
0.016202967
0.016202992
0.016202992
0.016202985
0.016202975
0.016202996
0.01620299
0.01620297
0.016202966
0.016202975
0.016202979
0.01620299
0.016202984
0.016202975
0.016202965
0.01620299
0.016202988
0.016202972
0.01620297
0.016202979
0.016202981
0.016202975
0.016202966
0.016202956
0.016202944
0.01620297
0.016202972
0.016202959
0.01620296
0.01620297
0.016202975
0.016202967
0.016202963
0.016202958
0.016202944
0.016202966
0.01620297
0.01620296
0.016202964
0.016202978
0.016202989
0.016202967
0.016202959
0.016202968
0.016202958
0.016202975
0.016202979
0.01620297
0.016202978
0.016202994
0.016203001
0.016202985
0.01620296
0.01620297
0.016202967
0.016202979
0.016202981
0.016202975
0.016202989
0.016203001
0.016203009
0.012807513
0.012807496
0.012807496
0.012807455
0.012807486
0.012807483
0.012807465
0.012807456
0.012807456
0.012807478
0.012807496
0.012807496
0.01280747
0.01280746
0.012807485
0.012807476
0.012807455
0.012807452
0.012807448
0.012807449
0.012807496
0.01280747
0.012807465
0.012807456
0.012807478
0.012807467
0.012807444
0.012807448
0.01280746
0.012807462
0.012807455
0.01280746
0.012807456
0.012807446
0.012807468
0.012807457
0.012807432
0.012807433
0.01280745
0.012807461
0.012807486
0.012807485
0.012807478
0.012807468
0.012807494
0.012807487
0.012807463
0.01280746
0.012807471
0.012807476
0.012807483
0.012807476
0.012807467
0.012807457
0.012807487
0.012807486
0.012807466
0.012807465
0.012807476
0.012807479
0.012807465
0.012807455
0.012807444
0.012807432
0.012807463
0.012807466
0.012807451
0.012807453
0.012807465
0.012807471
0.012807456
0.012807452
0.012807448
0.012807433
0.01280746
0.012807465
0.012807453
0.012807457
0.012807474
0.012807489
0.012807456
0.012807448
0.01280746
0.01280745
0.012807471
0.012807476
0.012807465
0.012807474
0.012807496
0.012807503
0.012807478
0.012807449
0.012807462
0.012807461
0.012807476
0.012807479
0.012807471
0.012807489
0.012807503
0.012807513
0.0095255123
0.0095254933
0.0095254937
0.0095254486
0.0095254841
0.0095254808
0.0095254601
0.0095254503
0.0095254513
0.0095254772
0.0095254933
0.0095254931
0.0095254648
0.0095254546
0.0095254843
0.0095254739
0.0095254503
0.0095254469
0.0095254435
0.0095254451
0.0095254937
0.0095254648
0.00952546
0.0095254514
0.0095254776
0.0095254648
0.0095254388
0.0095254438
0.0095254584
0.0095254612
0.0095254486
0.0095254546
0.0095254514
0.0095254412
0.0095254681
0.0095254561
0.0095254268
0.0095254284
0.0095254487
0.0095254617
0.0095254841
0.0095254843
0.0095254776
0.0095254681
0.0095254993
0.0095254922
0.0095254643
0.0095254618
0.009525475
0.0095254807
0.0095254808
0.0095254739
0.0095254648
0.0095254561
0.0095254922
0.0095254917
0.009525469
0.0095254686
0.0095254809
0.0095254838
0.0095254601
0.0095254503
0.0095254388
0.0095254268
0.0095254643
0.009525469
0.0095254507
0.0095254534
0.0095254679
0.009525474
0.0095254503
0.0095254469
0.0095254438
0.0095254284
0.0095254618
0.0095254686
0.0095254534
0.0095254592
0.0095254793
0.0095254971
0.0095254513
0.0095254435
0.0095254584
0.0095254487
0.009525475
0.0095254809
0.0095254679
0.0095254793
0.0095255053
0.0095255126
0.0095254772
0.0095254451
0.0095254612
0.0095254617
0.0095254807
0.0095254838
0.009525474
0.0095254971
0.0095255126
0.0095255238
0.0063783517
0.0063783309
0.0063783321
0.0063782833
0.0063783243
0.0063783212
0.0063782979
0.0063782872
0.0063782888
0.0063783187
0.0063783309
0.006378331
0.0063783007
0.0063782909
0.0063783255
0.0063783144
0.0063782878
0.0063782846
0.0063782811
0.0063782832
0.0063783321
0.0063783007
0.0063782966
0.0063782886
0.0063783195
0.0063783058
0.0063782763
0.0063782828
0.0063782998
0.006378303
0.0063782833
0.0063782909
0.0063782886
0.0063782792
0.0063783111
0.0063782985
0.0063782652
0.0063782678
0.0063782914
0.0063783059
0.0063783243
0.0063783255
0.0063783195
0.0063783111
0.0063783482
0.0063783414
0.0063783098
0.0063783077
0.006378323
0.0063783292
0.0063783212
0.0063783144
0.0063783058
0.0063782985
0.0063783414
0.0063783422
0.0063783165
0.0063783167
0.0063783308
0.0063783335
0.0063782979
0.0063782878
0.0063782763
0.0063782652
0.0063783098
0.0063783165
0.0063782958
0.0063782991
0.0063783154
0.0063783217
0.0063782872
0.0063782846
0.0063782828
0.0063782678
0.0063783077
0.0063783167
0.0063782991
0.0063783058
0.0063783288
0.0063783495
0.0063782888
0.0063782811
0.0063782998
0.0063782914
0.006378323
0.0063783308
0.0063783154
0.0063783288
0.0063783592
0.0063783667
0.0063783187
0.0063782832
0.006378303
0.0063783059
0.0063783292
0.0063783335
0.0063783217
0.0063783495
0.0063783667
0.0063783792
0.0033888799
0.0033888576
0.0033888601
0.0033888078
0.0033888551
0.0033888523
0.0033888266
0.003388815
0.0033888171
0.0033888511
0.0033888576
0.0033888582
0.0033888264
0.0033888175
0.0033888576
0.0033888461
0.0033888165
0.0033888136
0.0033888098
0.0033888123
0.0033888601
0.0033888264
0.0033888234
0.0033888166
0.0033888528
0.0033888385
0.0033888056
0.0033888135
0.003388833
0.0033888365
0.0033888078
0.0033888175
0.0033888166
0.0033888084
0.0033888461
0.0033888332
0.003388796
0.0033887995
0.0033888264
0.0033888424
0.0033888551
0.0033888576
0.0033888528
0.0033888461
0.0033888898
0.0033888837
0.0033888485
0.0033888466
0.0033888641
0.0033888705
0.0033888523
0.0033888461
0.0033888385
0.0033888332
0.0033888837
0.0033888863
0.0033888577
0.0033888582
0.003388874
0.0033888763
0.0033888266
0.0033888165
0.0033888056
0.003388796
0.0033888485
0.0033888577
0.0033888345
0.0033888384
0.0033888565
0.0033888627
0.003388815
0.0033888136
0.0033888135
0.0033887995
0.0033888466
0.0033888582
0.0033888384
0.0033888459
0.0033888717
0.0033888951
0.0033888171
0.0033888098
0.003388833
0.0033888264
0.0033888641
0.003388874
0.0033888565
0.0033888717
0.0033889063
0.0033889138
0.0033888511
0.0033888123
0.0033888365
0.0033888424
0.0033888705
0.0033888763
0.0033888627
0.0033888951
0.0033889138
0.0033889273
0.00058154482
0.0005815213
0.00058152539
0.00058147019
0.00058152433
0.00058152227
0.00058149412
0.00058148158
0.00058148405
0.00058152232
0.0005815213
0.00058152279
0.00058148974
0.00058148239
0.00058152863
0.00058151698
0.00058148437
0.00058148166
0.00058147767
0.00058148041
0.00058152539
0.00058148974
0.00058148836
0.00058148335
0.00058152557
0.00058151084
0.00058147451
0.000581484
0.00058150591
0.0005815095
0.00058147019
0.00058148239
0.00058148335
0.00058147705
0.00058152116
0.00058150826
0.00058146712
0.00058147154
0.00058150165
0.00058151898
0.00058152433
0.00058152863
0.00058152557
0.00058152116
0.00058157224
0.00058156713
0.00058152826
0.00058152663
0.00058154611
0.00058155268
0.00058152227
0.00058151698
0.00058151084
0.00058150826
0.00058156713
0.00058157195
0.00058154046
0.00058154141
0.00058155876
0.00058156031
0.00058149412
0.00058148437
0.00058147451
0.00058146712
0.00058152826
0.00058154046
0.00058151498
0.0005815193
0.00058153895
0.00058154473
0.00058148158
0.00058148166
0.000581484
0.00058147154
0.00058152663
0.00058154141
0.0005815193
0.00058152753
0.00058155586
0.00058158181
0.00058148405
0.00058147767
0.00058150591
0.00058150165
0.00058154611
0.00058155876
0.00058153895
0.00058155586
0.00058159457
0.00058160182
0.00058152232
0.00058148041
0.0005815095
0.00058151898
0.00058155268
0.00058156031
0.00058154473
0.00058158181
0.00058160182
0.00058161613
-0.0020175769
-0.0020176013
-0.0020175951
-0.0020176528
-0.0020175911
-0.0020175922
-0.0020176227
-0.0020176362
-0.0020176334
-0.0020175908
-0.0020176013
-0.0020175986
-0.0020176324
-0.0020176376
-0.0020175846
-0.0020175961
-0.0020176316
-0.0020176341
-0.0020176385
-0.0020176357
-0.0020175951
-0.0020176324
-0.0020176316
-0.0020176342
-0.0020175853
-0.0020176001
-0.0020176399
-0.0020176289
-0.0020176046
-0.002017601
-0.0020176528
-0.0020176376
-0.0020176342
-0.002017638
-0.0020175868
-0.0020175993
-0.0020176444
-0.0020176391
-0.0020176058
-0.0020175873
-0.0020175911
-0.0020175846
-0.0020175853
-0.0020175868
-0.0020175275
-0.0020175312
-0.0020175737
-0.0020175752
-0.0020175538
-0.0020175474
-0.0020175922
-0.0020175961
-0.0020176001
-0.0020175993
-0.0020175312
-0.0020175237
-0.002017558
-0.0020175568
-0.0020175381
-0.0020175376
-0.0020176227
-0.0020176316
-0.0020176399
-0.0020176444
-0.0020175737
-0.002017558
-0.0020175858
-0.0020175812
-0.0020175602
-0.0020175552
-0.0020176362
-0.0020176341
-0.0020176289
-0.0020176391
-0.0020175752
-0.0020175568
-0.0020175812
-0.0020175724
-0.0020175418
-0.0020175135
-0.0020176334
-0.0020176385
-0.0020176046
-0.0020176058
-0.0020175538
-0.0020175381
-0.0020175602
-0.0020175418
-0.0020174991
-0.0020174924
-0.0020175908
-0.0020176357
-0.002017601
-0.0020175873
-0.0020175474
-0.0020175376
-0.0020175552
-0.0020175135
-0.0020174924
-0.0020174776
-0.0043808236
-0.0043808487
-0.0043808397
-0.0043808995
-0.0043808295
-0.0043808292
-0.004380862
-0.0043808765
-0.0043808734
-0.0043808266
-0.0043808487
-0.0043808443
-0.0043808783
-0.0043808808
-0.0043808202
-0.0043808313
-0.0043808697
-0.004380872
-0.0043808769
-0.0043808742
-0.0043808397
-0.0043808783
-0.0043808747
-0.0043808743
-0.0043808181
-0.0043808326
-0.0043808758
-0.0043808632
-0.0043808366
-0.0043808334
-0.0043808995
-0.0043808808
-0.0043808743
-0.004380875
-0.0043808159
-0.0043808277
-0.0043808767
-0.0043808706
-0.0043808342
-0.0043808147
-0.0043808295
-0.0043808202
-0.0043808181
-0.0043808159
-0.0043807477
-0.0043807495
-0.0043807956
-0.004380797
-0.004380774
-0.004380768
-0.0043808292
-0.0043808313
-0.0043808326
-0.0043808277
-0.0043807495
-0.0043807388
-0.0043807759
-0.0043807746
-0.0043807547
-0.0043807556
-0.004380862
-0.0043808697
-0.0043808758
-0.0043808767
-0.0043807956
-0.0043807759
-0.004380806
-0.0043808011
-0.0043807792
-0.0043807753
-0.0043808765
-0.004380872
-0.0043808632
-0.0043808706
-0.004380797
-0.0043807746
-0.0043808011
-0.0043807921
-0.0043807594
-0.0043807292
-0.0043808734
-0.0043808769
-0.0043808366
-0.0043808342
-0.004380774
-0.0043807547
-0.0043807792
-0.0043807594
-0.0043807131
-0.0043807072
-0.0043808266
-0.0043808742
-0.0043808334
-0.0043808147
-0.004380768
-0.0043807556
-0.0043807753
-0.0043807292
-0.0043807072
-0.0043806921
-0.0064790876
-0.0064791128
-0.0064791006
-0.0064791619
-0.0064790829
-0.0064790809
-0.0064791159
-0.0064791313
-0.0064791281
-0.0064790771
-0.0064791128
-0.0064791064
-0.00647914
-0.0064791391
-0.0064790704
-0.0064790807
-0.0064791218
-0.0064791238
-0.0064791295
-0.0064791271
-0.0064791006
-0.00647914
-0.0064791331
-0.006479129
-0.0064790648
-0.0064790786
-0.006479125
-0.0064791109
-0.0064790821
-0.0064790794
-0.0064791619
-0.0064791391
-0.006479129
-0.0064791258
-0.006479058
-0.0064790687
-0.0064791216
-0.0064791147
-0.0064790754
-0.0064790552
-0.0064790829
-0.0064790704
-0.0064790648
-0.006479058
-0.00647898
-0.0064789795
-0.0064790292
-0.0064790307
-0.0064790061
-0.0064790009
-0.0064790809
-0.0064790807
-0.0064790786
-0.0064790687
-0.0064789795
-0.0064789652
-0.0064790051
-0.0064790037
-0.006478983
-0.0064789857
-0.0064791159
-0.0064791218
-0.006479125
-0.0064791216
-0.0064790292
-0.0064790051
-0.0064790374
-0.0064790326
-0.0064790099
-0.0064790076
-0.0064791313
-0.0064791238
-0.0064791109
-0.0064791147
-0.0064790307
-0.0064790037
-0.0064790326
-0.0064790235
-0.0064789892
-0.0064789572
-0.0064791281
-0.0064791295
-0.0064790821
-0.0064790754
-0.0064790061
-0.006478983
-0.0064790099
-0.0064789892
-0.0064789393
-0.0064789347
-0.0064790771
-0.0064791271
-0.0064790794
-0.0064790552
-0.0064790009
-0.0064789857
-0.0064790076
-0.0064789572
-0.0064789347
-0.0064789197
-0.0082820731
-0.008282098
-0.008282082
-0.0082821441
-0.0082820554
-0.0082820514
-0.0082820883
-0.0082821048
-0.0082821015
-0.0082820462
-0.008282098
-0.008282089
-0.0082821218
-0.0082821166
-0.008282039
-0.0082820482
-0.008282092
-0.0082820937
-0.0082821003
-0.0082820984
-0.008282082
-0.0082821218
-0.0082821107
-0.0082821022
-0.0082820292
-0.008282042
-0.0082820917
-0.008282076
-0.0082820451
-0.0082820432
-0.0082821441
-0.0082821166
-0.0082821022
-0.0082820944
-0.0082820172
-0.0082820263
-0.0082820831
-0.0082820754
-0.0082820333
-0.0082820127
-0.0082820554
-0.008282039
-0.0082820292
-0.0082820172
-0.0082819286
-0.0082819253
-0.0082819785
-0.0082819802
-0.0082819544
-0.0082819504
-0.0082820514
-0.0082820482
-0.008282042
-0.0082820263
-0.0082819253
-0.0082819069
-0.0082819495
-0.0082819483
-0.008281927
-0.008281932
-0.0082820883
-0.008282092
-0.0082820917
-0.0082820831
-0.0082819785
-0.0082819495
-0.0082819841
-0.0082819795
-0.0082819566
-0.0082819564
-0.0082821048
-0.0082820937
-0.008282076
-0.0082820754
-0.0082819802
-0.0082819483
-0.0082819795
-0.0082819707
-0.0082819351
-0.0082819017
-0.0082821015
-0.0082821003
-0.0082820451
-0.0082820333
-0.0082819544
-0.008281927
-0.0082819566
-0.0082819351
-0.0082818821
-0.0082818792
-0.0082820462
-0.0082820984
-0.0082820432
-0.0082820127
-0.0082819504
-0.008281932
-0.0082819564
-0.0082819017
-0.0082818792
-0.0082818647
-0.0097587063
-0.0097587305
-0.0097587101
-0.0097587722
-0.0097586731
-0.0097586668
-0.0097587056
-0.0097587229
-0.0097587197
-0.0097586602
-0.0097587305
-0.0097587185
-0.0097587495
-0.0097587395
-0.0097586524
-0.0097586601
-0.0097587063
-0.0097587077
-0.0097587154
-0.0097587142
-0.0097587101
-0.0097587495
-0.0097587337
-0.00975872
-0.0097586377
-0.0097586491
-0.0097587018
-0.0097586845
-0.0097586516
-0.0097586509
-0.0097587722
-0.0097587395
-0.00975872
-0.0097587068
-0.0097586196
-0.0097586267
-0.0097586872
-0.0097586789
-0.0097586342
-0.0097586135
-0.0097586731
-0.0097586524
-0.0097586377
-0.0097586196
-0.0097585196
-0.0097585131
-0.0097585698
-0.0097585718
-0.009758545
-0.0097585425
-0.0097586668
-0.0097586601
-0.0097586491
-0.0097586267
-0.0097585131
-0.0097584901
-0.0097585354
-0.0097585345
-0.0097585131
-0.0097585209
-0.0097587056
-0.0097587063
-0.0097587018
-0.0097586872
-0.0097585698
-0.0097585354
-0.0097585724
-0.0097585682
-0.0097585455
-0.009758548
-0.0097587229
-0.0097587077
-0.0097586845
-0.0097586789
-0.0097585718
-0.0097585345
-0.0097585682
-0.00975856
-0.0097585236
-0.0097584894
-0.0097587197
-0.0097587154
-0.0097586516
-0.0097586342
-0.009758545
-0.0097585131
-0.0097585455
-0.0097585236
-0.0097584678
-0.0097584671
-0.0097586602
-0.0097587142
-0.0097586509
-0.0097586135
-0.0097585425
-0.0097585209
-0.009758548
-0.0097584894
-0.0097584671
-0.0097584537
-0.010877736
-0.010877759
-0.010877734
-0.010877795
-0.010877685
-0.010877676
-0.010877716
-0.010877735
-0.010877732
-0.010877668
-0.010877759
-0.010877744
-0.010877772
-0.010877756
-0.010877659
-0.010877665
-0.010877714
-0.010877715
-0.010877724
-0.010877723
-0.010877734
-0.010877772
-0.010877751
-0.010877731
-0.010877639
-0.010877649
-0.010877704
-0.010877685
-0.010877651
-0.010877651
-0.010877795
-0.010877756
-0.010877731
-0.010877712
-0.010877614
-0.010877619
-0.010877683
-0.010877674
-0.010877627
-0.010877607
-0.010877685
-0.010877659
-0.010877639
-0.010877614
-0.010877502
-0.010877492
-0.010877552
-0.010877554
-0.010877527
-0.010877527
-0.010877676
-0.010877665
-0.010877649
-0.010877619
-0.010877492
-0.010877464
-0.010877512
-0.010877512
-0.01087749
-0.010877501
-0.010877716
-0.010877714
-0.010877704
-0.010877683
-0.010877552
-0.010877512
-0.010877551
-0.010877548
-0.010877526
-0.010877532
-0.010877735
-0.010877715
-0.010877685
-0.010877674
-0.010877554
-0.010877512
-0.010877548
-0.010877541
-0.010877504
-0.010877469
-0.010877732
-0.010877724
-0.010877651
-0.010877627
-0.010877527
-0.01087749
-0.010877526
-0.010877504
-0.010877446
-0.010877448
-0.010877668
-0.010877723
-0.010877651
-0.010877607
-0.010877527
-0.010877501
-0.010877532
-0.010877469
-0.010877448
-0.010877436
-0.011608573
-0.011608594
-0.011608563
-0.011608623
-0.011608502
-0.01160849
-0.011608532
-0.011608551
-0.011608548
-0.01160848
-0.011608594
-0.011608575
-0.0116086
-0.011608578
-0.011608471
-0.011608474
-0.011608525
-0.011608525
-0.011608536
-0.011608537
-0.011608563
-0.0116086
-0.011608573
-0.011608547
-0.011608444
-0.011608452
-0.01160851
-0.011608489
-0.011608453
-0.011608456
-0.011608623
-0.011608578
-0.011608547
-0.011608521
-0.011608412
-0.011608414
-0.011608481
-0.011608472
-0.011608422
-0.011608403
-0.011608502
-0.011608471
-0.011608444
-0.011608412
-0.011608287
-0.011608273
-0.011608336
-0.011608339
-0.011608311
-0.011608314
-0.01160849
-0.011608474
-0.011608452
-0.011608414
-0.011608273
-0.01160824
-0.01160829
-0.011608291
-0.01160827
-0.011608285
-0.011608532
-0.011608525
-0.01160851
-0.011608481
-0.011608336
-0.01160829
-0.011608332
-0.01160833
-0.011608309
-0.011608319
-0.011608551
-0.011608525
-0.011608489
-0.011608472
-0.011608339
-0.011608291
-0.01160833
-0.011608324
-0.011608287
-0.011608253
-0.011608548
-0.011608536
-0.011608453
-0.011608422
-0.011608311
-0.01160827
-0.011608309
-0.011608287
-0.011608228
-0.011608233
-0.01160848
-0.011608537
-0.011608456
-0.011608403
-0.011608314
-0.011608285
-0.011608319
-0.011608253
-0.011608233
-0.011608223
-0.011922426
-0.011922445
-0.011922408
-0.011922465
-0.011922332
-0.011922317
-0.01192236
-0.01192238
-0.011922378
-0.011922306
-0.011922445
-0.011922421
-0.011922443
-0.011922413
-0.011922295
-0.011922297
-0.011922349
-0.011922349
-0.011922361
-0.011922364
-0.011922408
-0.011922443
-0.011922409
-0.011922375
-0.011922262
-0.011922267
-0.011922328
-0.011922306
-0.011922268
-0.011922273
-0.011922465
-0.011922413
-0.011922375
-0.011922342
-0.011922221
-0.01192222
-0.011922291
-0.011922281
-0.01192223
-0.011922212
-0.011922332
-0.011922295
-0.011922262
-0.011922221
-0.011922084
-0.011922066
-0.011922132
-0.011922136
-0.011922108
-0.011922113
-0.011922317
-0.011922297
-0.011922267
-0.01192222
-0.011922066
-0.011922027
-0.01192208
-0.011922081
-0.011922062
-0.011922081
-0.01192236
-0.011922349
-0.011922328
-0.011922291
-0.011922132
-0.01192208
-0.011922125
-0.011922124
-0.011922104
-0.011922119
-0.01192238
-0.011922349
-0.011922306
-0.011922281
-0.011922136
-0.011922081
-0.011922124
-0.01192212
-0.011922084
-0.01192205
-0.011922378
-0.011922361
-0.011922268
-0.01192223
-0.011922108
-0.011922062
-0.011922104
-0.011922084
-0.011922023
-0.011922032
-0.011922306
-0.011922364
-0.011922273
-0.011922212
-0.011922113
-0.011922081
-0.011922119
-0.01192205
-0.011922032
-0.011922025
-0.011793805
-0.011793821
-0.011793777
-0.011793832
-0.011793687
-0.01179367
-0.011793714
-0.011793734
-0.011793732
-0.011793657
-0.011793821
-0.011793792
-0.01179381
-0.011793772
-0.011793644
-0.011793643
-0.011793697
-0.011793696
-0.01179371
-0.011793715
-0.011793777
-0.01179381
-0.011793768
-0.011793728
-0.011793604
-0.011793607
-0.01179367
-0.011793646
-0.011793607
-0.011793614
-0.011793832
-0.011793772
-0.011793728
-0.011793687
-0.011793555
-0.011793551
-0.011793625
-0.011793614
-0.011793562
-0.011793545
-0.011793687
-0.011793644
-0.011793604
-0.011793555
-0.011793404
-0.011793382
-0.011793451
-0.011793456
-0.011793428
-0.011793437
-0.01179367
-0.011793643
-0.011793607
-0.011793551
-0.011793382
-0.011793338
-0.011793394
-0.011793396
-0.011793378
-0.011793402
-0.011793714
-0.011793697
-0.01179367
-0.011793625
-0.011793451
-0.011793394
-0.011793441
-0.011793442
-0.011793425
-0.011793444
-0.011793734
-0.011793696
-0.011793646
-0.011793614
-0.011793456
-0.011793396
-0.011793442
-0.01179344
-0.011793406
-0.011793373
-0.011793732
-0.01179371
-0.011793607
-0.011793562
-0.011793428
-0.011793378
-0.011793425
-0.011793406
-0.011793344
-0.011793358
-0.011793657
-0.011793715
-0.011793614
-0.011793545
-0.011793437
-0.011793402
-0.011793444
-0.011793373
-0.011793358
-0.011793353
-0.011202476
-0.011202488
-0.011202439
-0.01120249
-0.011202333
-0.011202313
-0.011202358
-0.011202379
-0.011202377
-0.011202299
-0.011202488
-0.011202455
-0.011202468
-0.011202422
-0.011202284
-0.011202281
-0.011202337
-0.011202335
-0.01120235
-0.011202357
-0.011202439
-0.011202468
-0.011202419
-0.011202371
-0.011202237
-0.011202238
-0.011202303
-0.011202277
-0.011202237
-0.011202247
-0.01120249
-0.011202422
-0.011202371
-0.011202322
-0.011202179
-0.011202173
-0.01120225
-0.011202238
-0.011202184
-0.01120217
-0.011202333
-0.011202284
-0.011202237
-0.011202179
-0.011202016
-0.01120199
-0.011202063
-0.011202067
-0.011202041
-0.011202053
-0.011202313
-0.011202281
-0.011202238
-0.011202173
-0.01120199
-0.011201942
-0.011202
-0.011202003
-0.011201986
-0.011202016
-0.011202358
-0.011202337
-0.011202303
-0.01120225
-0.011202063
-0.011202
-0.011202049
-0.011202052
-0.011202038
-0.011202063
-0.011202379
-0.011202335
-0.011202277
-0.011202238
-0.011202067
-0.011202003
-0.011202052
-0.011202053
-0.011202021
-0.011201989
-0.011202377
-0.01120235
-0.011202237
-0.011202184
-0.011202041
-0.011201986
-0.011202038
-0.011202021
-0.011201958
-0.011201977
-0.011202299
-0.011202357
-0.011202247
-0.01120217
-0.011202053
-0.011202016
-0.011202063
-0.011201989
-0.011201977
-0.011201977
-0.010135962
-0.010135971
-0.010135915
-0.010135962
-0.010135794
-0.010135773
-0.010135819
-0.010135839
-0.010135838
-0.010135757
-0.010135971
-0.010135933
-0.01013594
-0.010135887
-0.010135739
-0.010135736
-0.010135792
-0.010135789
-0.010135806
-0.010135816
-0.010135915
-0.01013594
-0.010135884
-0.010135829
-0.010135686
-0.010135686
-0.010135753
-0.010135724
-0.010135683
-0.010135697
-0.010135962
-0.010135887
-0.010135829
-0.010135773
-0.01013562
-0.010135611
-0.010135691
-0.010135679
-0.010135624
-0.010135612
-0.010135794
-0.010135739
-0.010135686
-0.01013562
-0.010135446
-0.010135416
-0.010135491
-0.010135496
-0.010135471
-0.010135488
-0.010135773
-0.010135736
-0.010135686
-0.010135611
-0.010135416
-0.010135363
-0.010135424
-0.010135428
-0.010135413
-0.010135449
-0.010135819
-0.010135792
-0.010135753
-0.010135691
-0.010135491
-0.010135424
-0.010135477
-0.010135481
-0.010135469
-0.0101355
-0.010135839
-0.010135789
-0.010135724
-0.010135679
-0.010135496
-0.010135428
-0.010135481
-0.010135485
-0.010135455
-0.010135425
-0.010135838
-0.010135806
-0.010135683
-0.010135624
-0.010135471
-0.010135413
-0.010135469
-0.010135455
-0.010135393
-0.010135417
-0.010135757
-0.010135816
-0.010135697
-0.010135612
-0.010135488
-0.010135449
-0.0101355
-0.010135425
-0.010135417
-0.01013542
-0.0085926969
-0.0085927024
-0.0085926409
-0.0085926847
-0.0085925057
-0.0085924852
-0.0085925326
-0.0085925524
-0.0085925514
-0.0085924666
-0.0085927024
-0.0085926609
-0.0085926631
-0.0085926015
-0.0085924463
-0.0085924432
-0.0085925012
-0.0085924964
-0.0085925151
-0.0085925273
-0.0085926409
-0.0085926631
-0.0085926003
-0.0085925387
-0.008592388
-0.0085923872
-0.0085924565
-0.0085924254
-0.0085923833
-0.0085924
-0.0085926847
-0.0085926015
-0.0085925387
-0.0085924765
-0.0085923146
-0.0085923047
-0.0085923874
-0.0085923743
-0.0085923183
-0.0085923089
-0.0085925057
-0.0085924463
-0.008592388
-0.0085923146
-0.0085921303
-0.0085920984
-0.0085921762
-0.0085921816
-0.0085921564
-0.0085921776
-0.0085924852
-0.0085924432
-0.0085923872
-0.0085923047
-0.0085920984
-0.0085920426
-0.0085921056
-0.0085921103
-0.0085920971
-0.0085921378
-0.0085925326
-0.0085925012