/*--------------------------------*- C++ -*----------------------------------*\
| =========                 |                                                 |
| \\      /  F ield         | OpenFOAM: The Open Source CFD Toolbox           |
|  \\    /   O peration     | Version:  v2106                                 |
|   \\  /    A nd           | Website:  www.openfoam.com                      |
|    \\/     M anipulation  |                                                 |
\*---------------------------------------------------------------------------*/
FoamFile
{
    version     2.0;
    format      ascii;
    arch        "LSB;label=32;scalar=64";
    class       volVectorField;
    location    "20";
    object      Tmode_grad0;
}
// * * * * * * * * * * * * * * * * * * * * * * * * * * * * * * * * * * * * * //

dimensions      [0 -1 0 0 0 0 0];

internalField   nonuniform List<vector> 
4000
(
(2.1175824e-16 -2.1175824e-16 -0.01562845)
(0 0 -0.01562845)
(0 0 -0.01562845)
(0 0 -0.0156285)
(0 0 -0.01562845)
(0 0 -0.01562845)
(0 0 -0.0156284)
(0 0 -0.0156284)
(0 -2.1175824e-16 -0.0156284)
(0 -2.1175824e-16 -0.0156284)
(0 0 -0.01562845)
(0 0 -0.0156284)
(0 0 -0.01562845)
(0 0 -0.0156285)
(0 0 -0.01562845)
(0 0 -0.0156284)
(0 0 -0.0156284)
(0 0 -0.0156284)
(0 0 -0.0156284)
(0 0 -0.0156284)
(0 0 -0.01562845)
(0 0 -0.01562845)
(0 0 -0.01562845)
(0 0 -0.0156285)
(0 0 -0.01562845)
(0 0 -0.0156284)
(0 0 -0.0156284)
(0 0 -0.0156284)
(0 0 -0.0156284)
(0 0 -0.0156284)
(0 0 -0.0156285)
(0 0 -0.0156285)
(0 0 -0.0156285)
(0 0 -0.0156285)
(0 0 -0.01562845)
(0 0 -0.01562845)
(0 0 -0.01562845)
(0 0 -0.01562845)
(0 0 -0.01562845)
(0 0 -0.01562845)
(0 0 -0.01562845)
(8.4935414e-17 0 -0.01562845)
(0 0 -0.01562845)
(0 0 -0.01562845)
(0 0 -0.01562845)
(0 0 -0.01562845)
(-6.3411412e-17 0 -0.01562845)
(-8.4935414e-17 0 -0.01562845)
(1.8005253e-16 0 -0.01562845)
(0 0 -0.01562845)
(-2.1175824e-16 0 -0.01562845)
(2.1175824e-16 0 -0.0156284)
(0 0 -0.0156284)
(0 0 -0.01562845)
(0 0 -0.01562845)
(0 0 -0.0156284)
(0 0 -0.01562845)
(0 0 -0.01562845)
(-2.1175824e-16 0 -0.01562845)
(0 0 -0.01562845)
(0 0 -0.0156284)
(0 0 -0.0156284)
(0 0 -0.0156284)
(0 0 -0.01562845)
(0 0 -0.01562845)
(0 0 -0.01562845)
(0 0 -0.01562845)
(0 0 -0.01562845)
(0 0 -0.01562845)
(0 0 -0.01562845)
(0 0 -0.0156284)
(0 0 -0.0156284)
(0 0 -0.0156284)
(0 0 -0.01562845)
(0 0 -0.01562845)
(0 0 -0.01562845)
(0 0 -0.01562845)
(0 0 -0.01562845)
(0 0 -0.01562845)
(0 0 -0.0156285)
(2.1175824e-16 0 -0.0156284)
(0 0 -0.0156284)
(0 0 -0.0156284)
(0 0 -0.01562845)
(0 0 -0.01562845)
(0 0 -0.01562845)
(0 0 -0.01562845)
(0 0 -0.01562845)
(0 0 -0.0156285)
(0 0 -0.0156285)
(2.1175824e-16 0 -0.0156284)
(0 0 -0.0156284)
(0 0 -0.0156284)
(0 0 -0.01562845)
(0 0 -0.01562845)
(0 0 -0.01562845)
(0 0 -0.01562845)
(0 0 -0.0156285)
(0 0 -0.0156285)
(0 0 -0.0156285)
(2.1175824e-16 -2.1175824e-16 -0.01568305)
(0 5e-08 -0.01568305)
(-5e-08 0 -0.01568305)
(0 0 -0.0156831)
(5e-08 0 -0.01568305)
(5e-08 5e-08 -0.015683)
(5e-08 0 -0.015683)
(0 0 -0.015683)
(0 0 -0.015683)
(0 0 -0.015683)
(5e-08 0 -0.01568305)
(-2.1175824e-16 -2.1175824e-16 -0.01568305)
(-1e-07 0 -0.01568305)
(0 0 -0.0156831)
(1e-07 0 -0.01568305)
(5e-08 5e-08 -0.015683)
(0 0 -0.015683)
(0 0 -0.015683)
(0 0 -0.015683)
(0 0 -0.015683)
(0 -5e-08 -0.01568305)
(0 -1e-07 -0.01568305)
(-5e-08 -5e-08 -0.0156831)
(0 0 -0.0156831)
(1e-07 0 -0.01568305)
(5e-08 -5e-08 -0.015683)
(0 -5e-08 -0.015683)
(0 -5e-08 -0.015683)
(0 -5e-08 -0.015683)
(0 -5e-08 -0.015683)
(0 0 -0.0156831)
(0 0 -0.0156831)
(0 0 -0.0156831)
(5e-08 5e-08 -0.0156831)
(5e-08 0 -0.0156831)
(0 -5e-08 -0.01568305)
(0 -5e-08 -0.01568305)
(0 -5e-08 -0.01568305)
(0 -5e-08 -0.01568305)
(0 -5e-08 -0.01568305)
(2.1175824e-16 5e-08 -0.01568305)
(-1.286318e-16 1e-07 -0.01568305)
(0 1e-07 -0.01568305)
(0 5e-08 -0.0156831)
(0 0 -0.01568305)
(0 5e-08 -0.01568305)
(-6.4315902e-17 0 -0.01568305)
(1.286318e-16 0 -0.01568305)
(-3.2157951e-17 0 -0.01568305)
(0 0 -0.01568305)
(5e-08 5e-08 -0.015683)
(5e-08 5e-08 -0.015683)
(-5e-08 5e-08 -0.015683)
(-5e-08 0 -0.01568305)
(5e-08 0 -0.01568305)
(2.1175824e-16 2.1175824e-16 -0.015683)
(-5e-08 0 -0.01568305)
(0 0 -0.01568305)
(-2.1175824e-16 0 -0.01568305)
(0 0 -0.0156831)
(0 5e-08 -0.015683)
(0 0 -0.015683)
(-5e-08 0 -0.015683)
(-5e-08 0 -0.01568305)
(0 0 -0.01568305)
(0 -5e-08 -0.01568305)
(0 0 -0.01568305)
(0 0 -0.0156831)
(0 0 -0.0156831)
(0 -5e-08 -0.0156831)
(0 0 -0.015683)
(0 0 -0.015683)
(-5e-08 0 -0.015683)
(-5e-08 0 -0.01568305)
(0 0 -0.01568305)
(0 0 -0.01568305)
(0 0 -0.0156831)
(0 0 -0.0156831)
(-5e-08 -5e-08 -0.0156831)
(-5e-08 -5e-08 -0.0156831)
(0 0 -0.015683)
(0 0 -0.015683)
(-5e-08 0 -0.015683)
(-5e-08 0 -0.01568305)
(0 0 -0.01568305)
(0 0 -0.01568305)
(0 0 -0.0156831)
(-5e-08 -5e-08 -0.0156831)
(-5e-08 -5e-08 -0.0156831)
(0 0 -0.0156831)
(0 0 -0.015683)
(0 0 -0.015683)
(-5e-08 0 -0.015683)
(-5e-08 0 -0.01568305)
(0 0 -0.01568305)
(0 0 -0.0156831)
(-5e-08 0 -0.0156831)
(-5e-08 -5e-08 -0.0156831)
(0 0 -0.0156831)
(0 0 -0.0156831)
(0 0 -0.01579225)
(0 0 -0.0157923)
(-5e-08 -2.1175824e-16 -0.01579225)
(0 0 -0.0157923)
(1e-07 0 -0.0157923)
(5e-08 0 -0.01579225)
(0 0 -0.01579225)
(0 0 -0.01579225)
(0 0 -0.01579225)
(0 0 -0.01579225)
(0 0 -0.0157923)
(0 0 -0.0157923)
(-5e-08 -5e-08 -0.0157923)
(0 0 -0.0157923)
(1e-07 0 -0.0157923)
(5e-08 0 -0.0157923)
(0 0 -0.01579225)
(0 0 -0.01579225)
(0 0 -0.01579225)
(0 0 -0.0157923)
(2.1175824e-16 -5e-08 -0.01579225)
(-5e-08 -5e-08 -0.0157923)
(-5e-08 -5e-08 -0.0157923)
(5e-08 0 -0.0157923)
(1e-07 -5e-08 -0.0157923)
(5e-08 -5e-08 -0.0157923)
(0 -5e-08 -0.0157923)
(0 -5e-08 -0.01579225)
(0 -5e-08 -0.01579225)
(0 -5e-08 -0.0157923)
(0 0 -0.0157923)
(0 0 -0.0157923)
(0 5e-08 -0.0157923)
(0 0 -0.0157923)
(5e-08 0 -0.0157923)
(5e-08 -5e-08 -0.0157923)
(0 -5e-08 -0.0157923)
(0 -5e-08 -0.0157923)
(0 -5e-08 -0.01579225)
(0 -5e-08 -0.01579225)
(0 1e-07 -0.0157923)
(8.1307986e-17 1e-07 -0.0157923)
(-5e-08 1e-07 -0.0157923)
(6.5225131e-17 5e-08 -0.0157923)
(5e-08 5e-08 -0.01579225)
(0 5e-08 -0.01579225)
(-3.2612564e-17 0 -0.0157923)
(9.7837693e-17 0 -0.0157923)
(-3.2612564e-17 0 -0.0157923)
(0 -5e-08 -0.0157923)
(-2.1175824e-16 5e-08 -0.01579225)
(2.1175824e-16 5e-08 -0.0157923)
(-5e-08 5e-08 -0.0157923)
(-5e-08 5e-08 -0.0157923)
(5e-08 0 -0.01579225)
(0 0 -0.0157923)
(-5e-08 0 -0.0157923)
(0 -5e-08 -0.0157923)
(-5e-08 -5e-08 -0.0157923)
(-5e-08 -5e-08 -0.01579235)
(0 0 -0.01579225)
(0 0 -0.01579225)
(-5e-08 0 -0.0157923)
(-5e-08 0 -0.0157923)
(0 0 -0.0157923)
(0 -5e-08 -0.0157923)
(-5e-08 -5e-08 -0.0157923)
(-5e-08 -5e-08 -0.01579235)
(0 -5e-08 -0.01579235)
(0 0 -0.01579235)
(0 0 -0.01579225)
(0 0 -0.01579225)
(-5e-08 0 -0.01579225)
(-5e-08 0 -0.0157923)
(0 0 -0.0157923)
(-5e-08 0 -0.0157923)
(-5e-08 -5e-08 -0.01579235)
(0 0 -0.01579235)
(0 0 -0.01579235)
(0 0 -0.01579235)
(0 0 -0.01579225)
(0 0 -0.01579225)
(-5e-08 0 -0.01579225)
(-5e-08 0 -0.01579225)
(0 0 -0.0157923)
(-5e-08 -5e-08 -0.0157923)
(-5e-08 0 -0.01579235)
(0 0 -0.01579235)
(0 0 -0.01579235)
(0 0 -0.01579235)
(0 0 -0.01579225)
(0 0 -0.0157923)
(-5e-08 0 -0.0157923)
(-5e-08 0 -0.01579225)
(-5e-08 0 -0.0157923)
(-5e-08 -5e-08 -0.01579235)
(0 0 -0.01579235)
(0 0 -0.01579235)
(0 0 -0.01579235)
(0 0 -0.01579235)
(-5e-08 -5e-08 -0.01595615)
(0 5e-08 -0.01595615)
(-5e-08 -5e-08 -0.01595615)
(-5e-08 0 -0.01595615)
(1e-07 0 -0.01595615)
(1e-07 0 -0.01595615)
(5e-08 0 -0.01595615)
(0 0 -0.0159561)
(0 -2.1175824e-16 -0.0159561)
(0 -5e-08 -0.0159561)
(5e-08 0 -0.01595615)
(0 0 -0.01595615)
(-1e-07 -5e-08 -0.0159562)
(0 0 -0.01595615)
(1e-07 0 -0.01595615)
(1e-07 0 -0.01595615)
(5e-08 -5e-08 -0.01595615)
(0 0 -0.0159561)
(-5e-08 0 -0.01595615)
(-5e-08 -5e-08 -0.01595615)
(-5e-08 -5e-08 -0.01595615)
(-5e-08 -1e-07 -0.0159562)
(-5e-08 -5e-08 -0.01595615)
(0 0 -0.01595615)
(1e-07 0 -0.01595615)
(5e-08 -5e-08 -0.01595615)
(5e-08 -1e-07 -0.01595615)
(5e-08 -1e-07 -0.01595615)
(-5e-08 -5e-08 -0.01595615)
(-5e-08 0 -0.01595615)
(0 -5e-08 -0.01595615)
(0 0 -0.01595615)
(0 0 -0.01595615)
(5e-08 5e-08 -0.0159562)
(5e-08 5e-08 -0.01595615)
(0 0 -0.01595615)
(0 -5e-08 -0.01595615)
(5e-08 -1e-07 -0.01595615)
(5e-08 -1e-07 -0.01595615)
(0 -5e-08 -0.01595615)
(0 1e-07 -0.01595615)
(7.9473735e-17 1e-07 -0.01595615)
(-1.322845e-16 1e-07 -0.01595615)
(5e-08 5e-08 -0.01595615)
(5e-08 5e-08 -0.01595615)
(-5e-08 5e-08 -0.01595615)
(-5e-08 0 -0.01595615)
(-1.4561598e-16 0 -0.0159562)
(1.7868711e-16 -5e-08 -0.0159562)
(0 -1e-07 -0.0159562)
(-2.1175824e-16 1e-07 -0.01595615)
(2.1175824e-16 1e-07 -0.01595615)
(-5e-08 5e-08 -0.01595615)
(2.1175824e-16 0 -0.01595615)
(5e-08 -5e-08 -0.01595615)
(-5e-08 -5e-08 -0.0159562)
(-5e-08 0 -0.0159562)
(0 -5e-08 -0.0159562)
(-5e-08 -5e-08 -0.01595625)
(-5e-08 -5e-08 -0.0159562)
(0 5e-08 -0.01595615)
(-5e-08 5e-08 -0.01595615)
(-1e-07 5e-08 -0.01595615)
(-5e-08 0 -0.01595615)
(0 -5e-08 -0.01595615)
(0 -5e-08 -0.0159562)
(-5e-08 -5e-08 -0.01595625)
(-5e-08 -5e-08 -0.0159562)
(0 -5e-08 -0.01595625)
(0 -5e-08 -0.01595625)
(0 0 -0.0159561)
(0 0 -0.0159561)
(-1e-07 5e-08 -0.01595615)
(-1e-07 5e-08 -0.01595615)
(0 0 -0.0159562)
(-5e-08 0 -0.0159562)
(-5e-08 -5e-08 -0.0159562)
(0 0 -0.01595625)
(-5e-08 -5e-08 -0.01595625)
(-5e-08 -5e-08 -0.01595625)
(2.1175824e-16 0 -0.0159561)
(0 -5e-08 -0.01595615)
(-5e-08 -5e-08 -0.01595615)
(-1e-07 5e-08 -0.01595615)
(-5e-08 0 -0.0159562)
(-5e-08 -5e-08 -0.01595625)
(-5e-08 0 -0.01595625)
(-5e-08 -5e-08 -0.01595625)
(-5e-08 -5e-08 -0.01595625)
(0 0 -0.01595625)
(-5e-08 0 -0.0159561)
(-5e-08 -5e-08 -0.01595615)
(0 -5e-08 -0.01595615)
(-5e-08 0 -0.01595615)
(-1e-07 0 -0.0159562)
(-5e-08 -5e-08 -0.0159562)
(-5e-08 0 -0.01595625)
(-5e-08 -5e-08 -0.01595625)
(0 0 -0.01595625)
(0 0 -0.01595625)
(2.1175824e-16 -2.1175824e-16 -0.01617465)
(0 0 -0.01617465)
(-5e-08 -5e-08 -0.01617465)
(0 0 -0.01617465)
(1e-07 0 -0.01617465)
(5e-08 0 -0.01617465)
(5e-08 0 -0.01617465)
(5e-08 0 -0.01617465)
(0 -5e-08 -0.01617465)
(0 -5e-08 -0.01617465)
(0 0 -0.01617465)
(-5e-08 -5e-08 -0.01617465)
(-5e-08 -5e-08 -0.01617465)
(5e-08 0 -0.01617465)
(1e-07 0 -0.01617465)
(5e-08 0 -0.01617465)
(5e-08 0 -0.01617465)
(0 -5e-08 -0.01617465)
(-5e-08 -5e-08 -0.01617465)
(0 -5e-08 -0.01617465)
(-5e-08 -5e-08 -0.01617465)
(-5e-08 -5e-08 -0.01617465)
(0 0 -0.01617465)
(5e-08 -5e-08 -0.01617465)
(1e-07 -5e-08 -0.01617465)
(5e-08 -5e-08 -0.01617465)
(0 -5e-08 -0.01617465)
(0 -1e-07 -0.01617465)
(0 -5e-08 -0.01617465)
(0 -5e-08 -0.01617465)
(0 0 -0.01617465)
(0 5e-08 -0.01617465)
(-5e-08 5e-08 -0.01617465)
(0 0 -0.01617465)
(1e-07 0 -0.01617465)
(5e-08 -5e-08 -0.01617465)
(0 -5e-08 -0.01617465)
(0 -1e-07 -0.01617465)
(0 -1e-07 -0.0161747)
(0 -1e-07 -0.0161747)
(2.1175824e-16 1e-07 -0.01617465)
(-1.3414085e-16 1e-07 -0.01617465)
(-5e-08 1e-07 -0.01617465)
(6.7070432e-17 1e-07 -0.01617465)
(5e-08 5e-08 -0.0161747)
(0 0 -0.0161747)
(-5e-08 -5e-08 -0.0161747)
(-5e-08 -5e-08 -0.0161747)
(1.7822302e-16 -1e-07 -0.0161747)
(0 -1e-07 -0.0161747)
(-2.1175824e-16 5e-08 -0.01617465)
(2.1175824e-16 5e-08 -0.01617465)
(-5e-08 5e-08 -0.01617465)
(-5e-08 5e-08 -0.01617465)
(0 0 -0.0161747)
(-5e-08 -5e-08 -0.0161747)
(-5e-08 -1e-07 -0.0161747)
(-5e-08 -5e-08 -0.01617475)
(-5e-08 -1e-07 -0.01617475)
(0 -1e-07 -0.01617475)
(0 5e-08 -0.01617465)
(0 5e-08 -0.01617465)
(-5e-08 0 -0.01617465)
(-5e-08 0 -0.01617465)
(-5e-08 -5e-08 -0.0161747)
(-1e-07 -5e-08 -0.0161747)
(-5e-08 -5e-08 -0.0161748)
(-5e-08 -1e-07 -0.01617475)
(-5e-08 -5e-08 -0.0161748)
(0 -5e-08 -0.0161748)
(0 5e-08 -0.01617465)
(-5e-08 0 -0.01617465)
(-1e-07 0 -0.01617465)
(-1e-07 0 -0.01617465)
(-5e-08 -5e-08 -0.0161747)
(-5e-08 -5e-08 -0.01617475)
(-1e-07 -5e-08 -0.01617475)
(-5e-08 -5e-08 -0.0161748)
(0 0 -0.0161748)
(0 0 -0.01617475)
(-5e-08 0 -0.01617465)
(-5e-08 -5e-08 -0.01617465)
(-5e-08 0 -0.01617465)
(-1e-07 0 -0.0161747)
(-1e-07 0 -0.0161747)
(-1e-07 -5e-08 -0.01617475)
(-5e-08 -5e-08 -0.0161748)
(0 0 -0.0161748)
(0 0 -0.01617475)
(0 0 -0.01617475)
(-5e-08 0 -0.01617465)
(-5e-08 0 -0.01617465)
(-5e-08 0 -0.01617465)
(-1e-07 0 -0.0161747)
(-1e-07 0 -0.0161747)
(-1e-07 0 -0.01617475)
(-5e-08 0 -0.0161748)
(0 0 -0.01617475)
(0 0 -0.01617475)
(0 0 -0.0161748)
(-5e-08 -5e-08 -0.01644775)
(0 5e-08 -0.0164478)
(-5e-08 -5e-08 -0.01644775)
(-5e-08 2.1175824e-16 -0.0164478)
(1e-07 2.1175824e-16 -0.0164478)
(1e-07 2.1175824e-16 -0.0164478)
(5e-08 2.1175824e-16 -0.0164478)
(0 0 -0.0164478)
(0 0 -0.0164478)
(0 -5e-08 -0.0164478)
(5e-08 0 -0.0164478)
(0 0 -0.01644775)
(-1e-07 -5e-08 -0.01644775)
(0 0 -0.0164478)
(1e-07 0 -0.0164478)
(1e-07 0 -0.0164478)
(5e-08 -5e-08 -0.0164478)
(0 0 -0.0164478)
(-5e-08 0 -0.0164478)
(-5e-08 -5e-08 -0.0164478)
(-5e-08 -5e-08 -0.01644775)
(-5e-08 -1e-07 -0.01644775)
(-5e-08 -5e-08 -0.01644775)
(0 0 -0.0164478)
(1e-07 0 -0.0164478)
(5e-08 -5e-08 -0.0164478)
(5e-08 -1e-07 -0.0164478)
(5e-08 -1e-07 -0.0164478)
(-5e-08 -1e-07 -0.0164478)
(-5e-08 -5e-08 -0.01644785)
(-2.1175824e-16 -5e-08 -0.0164478)
(0 -2.1175824e-16 -0.0164478)
(0 0 -0.0164478)
(5e-08 5e-08 -0.0164478)
(5e-08 0 -0.0164478)
(0 -5e-08 -0.01644785)
(0 -1e-07 -0.01644785)
(0 -1.5e-07 -0.01644785)
(0 -1.5e-07 -0.01644785)
(0 -1e-07 -0.01644785)
(-2.1175824e-16 1e-07 -0.0164478)
(7.5732596e-17 1e-07 -0.0164478)
(0 1e-07 -0.0164478)
(0 5e-08 -0.0164478)
(0 0 -0.0164478)
(-5e-08 0 -0.0164478)
(-5e-08 -5e-08 -0.0164479)
(1.0201925e-16 -1e-07 -0.01644785)
(-3.4006416e-17 -1e-07 -0.01644785)
(0 -1.5e-07 -0.0164479)
(-2.1175824e-16 1e-07 -0.0164478)
(0 1e-07 -0.0164478)
(-5e-08 5e-08 -0.0164478)
(-5e-08 0 -0.01644785)
(0 -5e-08 -0.0164478)
(-5e-08 -5e-08 -0.01644785)
(-1e-07 -1e-07 -0.0164479)
(-5e-08 -1e-07 -0.01644795)
(-5e-08 -1.5e-07 -0.0164479)
(-5e-08 -1.5e-07 -0.01644795)
(-2.1175824e-16 5e-08 -0.0164478)
(-5e-08 5e-08 -0.0164478)
(-1e-07 5e-08 -0.0164478)
(-1e-07 0 -0.01644785)
(-5e-08 -5e-08 -0.0164479)
(-1e-07 -1e-07 -0.0164479)
(-1e-07 -1e-07 -0.01644795)
(-5e-08 -1e-07 -0.01644795)
(-5e-08 -1e-07 -0.01644795)
(0 -5e-08 -0.01644795)
(0 0 -0.0164478)
(0 0 -0.0164478)
(-1e-07 5e-08 -0.0164478)
(-1.5e-07 0 -0.01644785)
(-1e-07 0 -0.01644785)
(-1e-07 -5e-08 -0.01644795)
(-1e-07 -5e-08 -0.01644795)
(-5e-08 -5e-08 -0.01644795)
(0 0 -0.01644795)
(0 0 -0.01644795)
(0 0 -0.0164478)
(0 -5e-08 -0.0164478)
(-1e-07 -5e-08 -0.0164478)
(-1.5e-07 0 -0.01644785)
(-1e-07 0 -0.01644785)
(-1.5e-07 -5e-08 -0.0164479)
(-1e-07 -5e-08 -0.01644795)
(0 0 -0.01644795)
(0 0 -0.01644795)
(0 -5e-08 -0.01644795)
(-5e-08 0 -0.0164478)
(-5e-08 -5e-08 -0.0164478)
(-5e-08 -5e-08 -0.01644785)
(-1e-07 0 -0.01644785)
(-1.5e-07 0 -0.0164479)
(-1.5e-07 -5e-08 -0.01644795)
(-5e-08 0 -0.01644795)
(0 0 -0.01644795)
(-5e-08 0 -0.01644795)
(-5e-08 -5e-08 -0.016448)
(-5e-08 -5e-08 -0.01677555)
(0 5e-08 -0.01677555)
(-5e-08 -5e-08 -0.01677555)
(-5e-08 0 -0.01677555)
(1e-07 0 -0.01677555)
(5e-08 0 -0.01677555)
(5e-08 0 -0.0167756)
(5e-08 0 -0.0167756)
(0 -5e-08 -0.0167756)
(0 -5e-08 -0.01677555)
(5e-08 0 -0.01677555)
(0 0 -0.01677555)
(-1e-07 -5e-08 -0.01677555)
(0 0 -0.01677555)
(1e-07 0 -0.01677555)
(5e-08 0 -0.01677555)
(5e-08 0 -0.0167756)
(0 -5e-08 -0.0167756)
(-5e-08 -5e-08 -0.0167756)
(0 -1e-07 -0.0167756)
(-5e-08 -5e-08 -0.01677555)
(-5e-08 -1e-07 -0.01677555)
(-5e-08 -5e-08 -0.01677555)
(0 -5e-08 -0.01677555)
(1e-07 -5e-08 -0.01677555)
(5e-08 -1e-07 -0.0167756)
(0 -1e-07 -0.0167756)
(0 -1.5e-07 -0.01677565)
(-5e-08 -1e-07 -0.01677565)
(-5e-08 -1e-07 -0.0167756)
(0 -5e-08 -0.01677555)
(0 2.1175824e-16 -0.01677555)
(-5e-08 2.1175824e-16 -0.01677555)
(0 0 -0.0167756)
(5e-08 2.1175824e-16 -0.0167756)
(0 -5e-08 -0.0167756)
(0 -1.5e-07 -0.01677565)
(0 -1.5e-07 -0.01677565)
(0 -1.5e-07 -0.01677565)
(0 -1.5e-07 -0.0167757)
(0 1e-07 -0.01677555)
(7.3813067e-17 1e-07 -0.01677555)
(-5e-08 1e-07 -0.01677555)
(6.8972594e-17 5e-08 -0.0167756)
(5e-08 5e-08 -0.0167756)
(-1e-07 0 -0.0167756)
(-1e-07 -1e-07 -0.01677565)
(-1.4278563e-16 -1.5e-07 -0.0167757)
(-5e-08 -1.5e-07 -0.0167757)
(-5e-08 -2e-07 -0.0167757)
(-2.1175824e-16 5e-08 -0.01677555)
(2.1175824e-16 5e-08 -0.01677555)
(-1e-07 5e-08 -0.0167756)
(-5e-08 0 -0.0167756)
(0 -1e-07 -0.0167756)
(-1.5e-07 -1.5e-07 -0.0167757)
(-1.5e-07 -1.5e-07 -0.01677575)
(-5e-08 -1.5e-07 -0.0167757)
(-5e-08 -2e-07 -0.01677575)
(-5e-08 -1.5e-07 -0.01677575)
(0 5e-08 -0.0167756)
(0 5e-08 -0.0167756)
(-1e-07 0 -0.0167756)
(-1.5e-07 0 -0.01677565)
(-1e-07 -1e-07 -0.01677565)
(-1.5e-07 -1.5e-07 -0.01677575)
(-1e-07 -1e-07 -0.01677575)
(-5e-08 -1e-07 -0.0167758)
(-5e-08 -1e-07 -0.01677575)
(0 -5e-08 -0.0167758)
(0 5e-08 -0.0167756)
(-5e-08 0 -0.0167756)
(-1.5e-07 0 -0.01677565)
(-1.5e-07 0 -0.01677565)
(-1.5e-07 0 -0.0167757)
(-1.5e-07 -5e-08 -0.0167757)
(-1e-07 -5e-08 -0.0167758)
(-5e-08 -5e-08 -0.01677575)
(0 0 -0.01677575)
(0 0 -0.01677575)
(-5e-08 0 -0.0167756)
(-5e-08 -5e-08 -0.0167756)
(-1e-07 -5e-08 -0.01677565)
(-1.5e-07 0 -0.01677565)
(-1.5e-07 -5e-08 -0.0167757)
(-2e-07 -5e-08 -0.01677575)
(-1e-07 -5e-08 -0.01677575)
(0 0 -0.01677575)
(0 0 -0.01677575)
(0 -5e-08 -0.0167758)
(-5e-08 0 -0.01677555)
(-1e-07 0 -0.0167756)
(-1e-07 -5e-08 -0.0167756)
(-1.5e-07 0 -0.0167757)
(-2e-07 -5e-08 -0.0167757)
(-1.5e-07 -5e-08 -0.01677575)
(-5e-08 0 -0.0167758)
(0 0 -0.01677575)
(-5e-08 0 -0.0167758)
(-5e-08 -5e-08 -0.01677575)
(-5e-08 -5e-08 -0.01715795)
(0 5e-08 -0.01715795)
(-5e-08 -5e-08 -0.01715795)
(-5e-08 0 -0.017158)
(1e-07 0 -0.017158)
(5e-08 0 -0.017158)
(0 0 -0.017158)
(0 0 -0.01715805)
(5e-08 -2.1175824e-16 -0.01715805)
(5e-08 -1e-07 -0.017158)
(5e-08 0 -0.01715795)
(0 0 -0.01715795)
(-1e-07 -5e-08 -0.01715795)
(0 0 -0.017158)
(1e-07 0 -0.017158)
(5e-08 -5e-08 -0.017158)
(0 -5e-08 -0.017158)
(0 -5e-08 -0.01715805)
(-5e-08 -5e-08 -0.01715805)
(-5e-08 -1e-07 -0.01715805)
(-5e-08 -5e-08 -0.01715795)
(-5e-08 -1e-07 -0.01715795)
(-5e-08 -5e-08 -0.017158)
(0 -5e-08 -0.017158)
(5e-08 -5e-08 -0.017158)
(0 -1e-07 -0.01715805)
(0 -1.5e-07 -0.01715805)
(0 -1.5e-07 -0.01715805)
(0 -1.5e-07 -0.01715805)
(0 -1.5e-07 -0.01715805)
(0 -5e-08 -0.017158)
(0 0 -0.017158)
(-5e-08 0 -0.017158)
(-2.1175824e-16 0 -0.017158)
(5e-08 -5e-08 -0.017158)
(-5e-08 -5e-08 -0.01715805)
(-5e-08 -1.5e-07 -0.0171581)
(0 -2e-07 -0.0171581)
(-5e-08 -2e-07 -0.0171581)
(-5e-08 -2e-07 -0.0171581)
(-2.1175824e-16 1e-07 -0.017158)
(1.4180535e-16 1e-07 -0.017158)
(-5e-08 5e-08 -0.017158)
(-5e-08 5e-08 -0.017158)
(0 0 -0.01715805)
(-1e-07 -1e-07 -0.0171581)
(-1.5e-07 -1.5e-07 -0.0171581)
(-5e-08 -1.5e-07 -0.01715815)
(1.7678178e-16 -2e-07 -0.01715815)
(0 -2e-07 -0.01715815)
(0 5e-08 -0.017158)
(-5e-08 5e-08 -0.017158)
(-1e-07 0 -0.01715805)
(-5e-08 -5e-08 -0.01715805)
(-1e-07 -1e-07 -0.0171581)
(-2e-07 -2e-07 -0.01715815)
(-1e-07 -2e-07 -0.01715815)
(-5e-08 -2e-07 -0.01715815)
(-1e-07 -2e-07 -0.0171582)
(-5e-08 -2.5e-07 -0.01715815)
(0 0 -0.017158)
(-5e-08 0 -0.017158)
(-1.5e-07 0 -0.01715805)
(-1.5e-07 -5e-08 -0.0171581)
(-1.5e-07 -1.5e-07 -0.0171581)
(-2e-07 -1e-07 -0.01715815)
(-1.5e-07 -1.5e-07 -0.0171582)
(-5e-08 -1.5e-07 -0.01715825)
(-5e-08 -1e-07 -0.0171582)
(-5e-08 -5e-08 -0.01715825)
(0 0 -0.01715805)
(-5e-08 0 -0.01715805)
(-1.5e-07 0 -0.01715805)
(-2e-07 0 -0.0171581)
(-1.5e-07 -5e-08 -0.01715815)
(-2e-07 -5e-08 -0.01715815)
(-1.5e-07 -5e-08 -0.01715825)
(0 0 -0.01715825)
(0 0 -0.01715825)
(0 0 -0.0171582)
(2.1175824e-16 5e-08 -0.01715805)
(-5e-08 -5e-08 -0.01715805)
(-1.5e-07 0 -0.01715805)
(-2e-07 -5e-08 -0.0171581)
(-2e-07 0 -0.01715815)
(-2e-07 -1e-07 -0.0171582)
(-1e-07 -5e-08 -0.0171582)
(0 0 -0.01715825)
(-5e-08 -5e-08 -0.0171582)
(-5e-08 -5e-08 -0.01715825)
(-1e-07 5e-08 -0.017158)
(-1e-07 -5e-08 -0.01715805)
(-1.5e-07 0 -0.01715805)
(-2e-07 -5e-08 -0.0171581)
(-2e-07 0 -0.01715815)
(-2.5e-07 -5e-08 -0.01715815)
(-5e-08 -5e-08 -0.01715825)
(0 0 -0.0171582)
(-5e-08 -5e-08 -0.01715825)
(0 0 -0.0171582)
(-5e-08 -5e-08 -0.017595)
(0 5e-08 -0.017595)
(-1e-07 -5e-08 -0.017595)
(-1e-07 2.1175824e-16 -0.01759505)
(1e-07 0 -0.01759505)
(5e-08 0 -0.01759505)
(0 0 -0.0175951)
(0 0 -0.0175951)
(5e-08 -5e-08 -0.0175951)
(5e-08 -1e-07 -0.0175951)
(5e-08 0 -0.017595)
(0 0 -0.017595)
(-1.5e-07 -1e-07 -0.017595)
(-5e-08 0 -0.01759505)
(1e-07 0 -0.01759505)
(5e-08 -5e-08 -0.01759505)
(0 -5e-08 -0.0175951)
(-5e-08 -5e-08 -0.0175951)
(-5e-08 -5e-08 -0.01759515)
(0 -1.5e-07 -0.0175951)
(-5e-08 -1e-07 -0.017595)
(-1e-07 -1.5e-07 -0.017595)
(-1e-07 -1e-07 -0.01759505)
(-2.1175824e-16 -5e-08 -0.01759505)
(5e-08 -5e-08 -0.01759505)
(0 -1.5e-07 -0.01759505)
(0 -2e-07 -0.0175951)
(0 -2e-07 -0.0175951)
(-5e-08 -1.5e-07 -0.0175951)
(-5e-08 -1.5e-07 -0.01759515)
(-2.1175824e-16 -1e-07 -0.01759505)
(0 -5e-08 -0.01759505)
(-5e-08 2.1175824e-16 -0.01759505)
(0 0 -0.01759505)
(0 -5e-08 -0.0175951)
(-1e-07 -1e-07 -0.01759515)
(-5e-08 -2e-07 -0.01759515)
(0 -2.5e-07 -0.01759515)
(0 -2.5e-07 -0.01759515)
(0 -2.5e-07 -0.01759515)
(0 1e-07 -0.01759505)
(-7.0956878e-17 1e-07 -0.01759505)
(-5e-08 5e-08 -0.01759505)
(-5e-08 0 -0.0175951)
(-5e-08 -5e-08 -0.0175951)
(-1.5e-07 -1e-07 -0.01759515)
(-1.5e-07 -1.5e-07 -0.0175952)
(-5e-08 -2e-07 -0.01759515)
(-5e-08 -2.5e-07 -0.0175952)
(-5e-08 -2.5e-07 -0.01759525)
(2.1175824e-16 5e-08 -0.01759505)
(-5e-08 5e-08 -0.01759505)
(-1.5e-07 0 -0.01759505)
(-1e-07 -1e-07 -0.01759515)
(-1e-07 -1.5e-07 -0.01759515)
(-2e-07 -2e-07 -0.01759515)
(-1.5e-07 -2.5e-07 -0.0175952)
(-1e-07 -2.5e-07 -0.01759525)
(-5e-08 -2.5e-07 -0.01759525)
(0 -2.5e-07 -0.01759525)
(0 0 -0.0175951)
(-5e-08 0 -0.0175951)
(-2e-07 0 -0.0175951)
(-2e-07 -5e-08 -0.01759515)
(-1.5e-07 -1.5e-07 -0.0175952)
(-2.5e-07 -1.5e-07 -0.0175952)
(-2e-07 -2e-07 -0.01759525)
(-5e-08 -2e-07 -0.0175953)
(-5e-08 -1.5e-07 -0.0175953)
(-5e-08 -1e-07 -0.01759525)
(0 0 -0.0175951)
(-5e-08 -5e-08 -0.0175951)
(-2e-07 0 -0.0175951)
(-2.5e-07 0 -0.01759515)
(-2e-07 -5e-08 -0.01759515)
(-2.5e-07 -1e-07 -0.01759525)
(-2e-07 -5e-08 -0.0175953)
(-5e-08 -5e-08 -0.0175953)
(5e-08 -2.1175824e-16 -0.0175953)
(5e-08 0 -0.0175953)
(-5e-08 5e-08 -0.0175951)
(-5e-08 -5e-08 -0.01759515)
(-1.5e-07 -5e-08 -0.0175951)
(-2.5e-07 0 -0.01759515)
(-2.5e-07 -5e-08 -0.0175952)
(-2.5e-07 -5e-08 -0.01759525)
(-1.5e-07 -5e-08 -0.0175953)
(2.1175824e-16 5e-08 -0.0175953)
(0 2.1175824e-16 -0.0175953)
(-5e-08 -5e-08 -0.0175953)
(-1e-07 5e-08 -0.0175951)
(-1.5e-07 0 -0.0175951)
(-1.5e-07 -5e-08 -0.01759515)
(-2.5e-07 0 -0.01759515)
(-2.5e-07 -5e-08 -0.01759525)
(-2.5e-07 0 -0.01759525)
(-1e-07 -5e-08 -0.01759525)
(-2.1175824e-16 5e-08 -0.0175953)
(-5e-08 -5e-08 -0.0175953)
(0 0 -0.0175953)
(-5e-08 -5e-08 -0.0180867)
(0 5e-08 -0.01808665)
(-1e-07 -5e-08 -0.0180867)
(-1e-07 0 -0.0180867)
(1e-07 0 -0.0180867)
(0 0 -0.0180867)
(-5e-08 0 -0.01808675)
(0 0 -0.01808675)
(5e-08 -5e-08 -0.01808675)
(5e-08 -1e-07 -0.0180868)
(5e-08 0 -0.01808665)
(0 0 -0.01808665)
(-1.5e-07 -1e-07 -0.0180867)
(-5e-08 0 -0.0180867)
(1e-07 0 -0.0180867)
(0 -5e-08 -0.0180867)
(-5e-08 -5e-08 -0.01808675)
(-5e-08 -5e-08 -0.01808675)
(-5e-08 -5e-08 -0.01808675)
(0 -1.5e-07 -0.0180868)
(-5e-08 -1e-07 -0.0180867)
(-1e-07 -1.5e-07 -0.0180867)
(-1e-07 -1e-07 -0.0180867)
(0 -5e-08 -0.0180867)
(5e-08 -1e-07 -0.0180867)
(-5e-08 -2e-07 -0.0180867)
(-5e-08 -2e-07 -0.0180868)
(0 -2e-07 -0.0180868)
(-5e-08 -1.5e-07 -0.0180868)
(-5e-08 -2e-07 -0.0180868)
(0 -1e-07 -0.0180867)
(0 -5e-08 -0.0180867)
(-5e-08 0 -0.0180867)
(-5e-08 -5e-08 -0.0180867)
(-5e-08 -1e-07 -0.01808675)
(-1e-07 -1.5e-07 -0.01808675)
(-5e-08 -2.5e-07 -0.0180868)
(0 -2.5e-07 -0.0180868)
(-5e-08 -3e-07 -0.01808685)
(-5e-08 -3e-07 -0.01808685)
(0 1e-07 -0.0180867)
(6.7782798e-17 1e-07 -0.0180867)
(-1e-07 5e-08 -0.0180867)
(-1e-07 -5e-08 -0.01808675)
(-5e-08 -5e-08 -0.01808675)
(-2e-07 -1e-07 -0.0180868)
(-1.5e-07 -2e-07 -0.01808685)
(-5e-08 -2.5e-07 -0.01808685)
(-1e-07 -3e-07 -0.0180869)
(-5e-08 -3e-07 -0.01808685)
(-2.1175824e-16 0 -0.0180867)
(-5e-08 0 -0.0180867)
(-2e-07 -5e-08 -0.0180867)
(-1.5e-07 -1e-07 -0.01808675)
(-1e-07 -2e-07 -0.0180868)
(-2.5e-07 -2.5e-07 -0.0180868)
(-2e-07 -2.5e-07 -0.0180869)
(-1e-07 -3.5e-07 -0.0180869)
(-1e-07 -3e-07 -0.0180869)
(-5e-08 -2.5e-07 -0.01808695)
(0 -5e-08 -0.01808675)
(-5e-08 -5e-08 -0.01808675)
(-2e-07 -5e-08 -0.0180868)
(-2.5e-07 -5e-08 -0.0180868)
(-2e-07 -1.5e-07 -0.01808685)
(-2.5e-07 -2e-07 -0.0180869)
(-2.5e-07 -2.5e-07 -0.0180869)
(-1e-07 -2e-07 -0.01808695)
(0 -1.5e-07 -0.01808695)
(0 -1e-07 -0.01808695)
(0 0 -0.01808675)
(-5e-08 -5e-08 -0.01808675)
(-2e-07 0 -0.0180868)
(-2.5e-07 0 -0.0180868)
(-2.5e-07 -5e-08 -0.01808685)
(-3.5e-07 -1e-07 -0.0180869)
(-2e-07 -1e-07 -0.01808695)
(0 0 -0.01808695)
(0 0 -0.01808695)
(0 -5e-08 -0.018087)
(-5e-08 5e-08 -0.01808675)
(-5e-08 -5e-08 -0.01808675)
(-1.5e-07 -5e-08 -0.0180868)
(-3e-07 -5e-08 -0.01808685)
(-3e-07 -1e-07 -0.0180869)
(-3e-07 -1e-07 -0.0180869)
(-1.5e-07 0 -0.01808695)
(0 0 -0.01808695)
(-5e-08 -5e-08 -0.01808695)
(-5e-08 -5e-08 -0.01808695)
(-1e-07 5e-08 -0.0180868)
(-1.5e-07 0 -0.0180868)
(-2e-07 -5e-08 -0.0180868)
(-3e-07 -5e-08 -0.01808685)
(-3e-07 -5e-08 -0.01808685)
(-2.5e-07 -5e-08 -0.01808695)
(-1e-07 0 -0.01808695)
(-5e-08 0 -0.018087)
(-5e-08 -5e-08 -0.01808695)
(0 0 -0.01808695)
(0 0 -0.0186329)
(0 5e-08 -0.01863285)
(-1.5e-07 -5e-08 -0.0186329)
(-1e-07 0 -0.0186329)
(1e-07 0 -0.01863295)
(0 0 -0.01863295)
(-5e-08 0 -0.01863295)
(0 0 -0.01863295)
(0 -5e-08 -0.018633)
(0 -1e-07 -0.018633)
(5e-08 0 -0.01863285)
(-5e-08 -5e-08 -0.0186329)
(-2e-07 -1e-07 -0.0186329)
(-5e-08 0 -0.0186329)
(1e-07 0 -0.01863295)
(0 -5e-08 -0.01863295)
(-5e-08 -1e-07 -0.01863295)
(-5e-08 -1e-07 -0.018633)
(-1e-07 -1e-07 -0.018633)
(-5e-08 -1.5e-07 -0.018633)
(-5e-08 -1.5e-07 -0.0186329)
(-1e-07 -2e-07 -0.0186329)
(-1e-07 -1e-07 -0.0186329)
(0 -5e-08 -0.01863295)
(5e-08 -1e-07 -0.01863295)
(-1e-07 -2e-07 -0.018633)
(-1e-07 -2.5e-07 -0.018633)
(0 -2.5e-07 -0.018633)
(-5e-08 -2.5e-07 -0.01863305)
(-5e-08 -2e-07 -0.01863305)
(0 -1e-07 -0.0186329)
(0 -5e-08 -0.0186329)
(-5e-08 0 -0.01863295)
(-5e-08 -5e-08 -0.01863295)
(-5e-08 -1e-07 -0.01863295)
(-1.5e-07 -2e-07 -0.018633)
(-1e-07 -2.5e-07 -0.01863305)
(-5e-08 -3e-07 -0.01863305)
(-5e-08 -3.5e-07 -0.0186331)
(0 -3e-07 -0.01863305)
(0 1e-07 -0.01863295)
(6.5661092e-17 1e-07 -0.01863295)
(-1e-07 5e-08 -0.01863295)
(-1e-07 -5e-08 -0.01863295)
(-1e-07 -1e-07 -0.018633)
(-2.5e-07 -1.5e-07 -0.01863305)
(-2e-07 -2.5e-07 -0.01863305)
(-1e-07 -3e-07 -0.0186331)
(-5e-08 -3e-07 -0.0186331)
(0 -3.5e-07 -0.0186331)
(-2.1175824e-16 0 -0.01863295)
(-5e-08 0 -0.01863295)
(-2e-07 -1e-07 -0.018633)
(-2e-07 -1.5e-07 -0.018633)
(-1.5e-07 -2.5e-07 -0.01863305)
(-3e-07 -3e-07 -0.0186331)
(-2.5e-07 -3e-07 -0.0186331)
(-1e-07 -3.5e-07 -0.01863315)
(-1e-07 -3e-07 -0.01863315)
(-5e-08 -3.5e-07 -0.01863315)
(0 -5e-08 -0.01863295)
(-1e-07 -5e-08 -0.01863295)
(-2.5e-07 -1e-07 -0.018633)
(-2.5e-07 -1e-07 -0.01863305)
(-2.5e-07 -2e-07 -0.01863305)
(-3e-07 -2.5e-07 -0.0186331)
(-2.5e-07 -2.5e-07 -0.0186332)
(-1e-07 -2.5e-07 -0.01863315)
(-5e-08 -2e-07 -0.0186332)
(-5e-08 -1.5e-07 -0.0186332)
(0 0 -0.01863295)
(-1e-07 -5e-08 -0.018633)
(-2.5e-07 0 -0.018633)
(-3e-07 -5e-08 -0.01863305)
(-3e-07 -1e-07 -0.0186331)
(-3.5e-07 -1e-07 -0.01863315)
(-2.5e-07 -1e-07 -0.01863315)
(-5e-08 -5e-08 -0.0186332)
(0 -2.1175824e-16 -0.0186332)
(0 0 -0.0186332)
(-5e-08 0 -0.018633)
(-1e-07 -1e-07 -0.018633)
(-2.5e-07 -5e-08 -0.01863305)
(-3.5e-07 -5e-08 -0.0186331)
(-3e-07 -5e-08 -0.0186331)
(-3e-07 -1e-07 -0.01863315)
(-2e-07 -5e-08 -0.0186332)
(0 0 -0.0186332)
(-2.1175824e-16 2.1175824e-16 -0.0186332)
(-5e-08 0 -0.0186332)
(-1e-07 0 -0.018633)
(-1.5e-07 -5e-08 -0.018633)
(-2e-07 -5e-08 -0.01863305)
(-3e-07 0 -0.01863305)
(-3.5e-07 0 -0.0186331)
(-3.5e-07 -5e-08 -0.01863315)
(-1.5e-07 -5e-08 -0.0186332)
(0 0 -0.0186332)
(0 -5e-08 -0.0186332)
(0 0 -0.0186332)
(0 0 -0.01923355)
(0 0 -0.0192336)
(-1.5e-07 -5e-08 -0.0192336)
(-1.5e-07 0 -0.0192336)
(5e-08 0 -0.01923365)
(0 0 -0.0192337)
(-5e-08 0 -0.01923365)
(-5e-08 -5e-08 -0.0192337)
(0 -5e-08 -0.01923375)
(5e-08 -1e-07 -0.0192337)
(0 0 -0.0192336)
(-5e-08 -5e-08 -0.0192336)
(-1.5e-07 -1e-07 -0.0192336)
(-1e-07 -5e-08 -0.0192336)
(5e-08 0 -0.01923365)
(0 -1e-07 -0.0192337)
(-1e-07 -1e-07 -0.0192337)
(-1e-07 -1e-07 -0.0192337)
(-5e-08 -1e-07 -0.01923375)
(0 -2e-07 -0.0192337)
(-5e-08 -1.5e-07 -0.0192336)
(-1e-07 -1.5e-07 -0.0192336)
(-1.5e-07 -1.5e-07 -0.0192336)
(-5e-08 -1e-07 -0.01923365)
(0 -1e-07 -0.01923365)
(-1e-07 -2.5e-07 -0.0192337)
(-5e-08 -3e-07 -0.0192337)
(-5e-08 -2.5e-07 -0.0192337)
(-1e-07 -2.5e-07 -0.01923375)
(-5e-08 -2.5e-07 -0.01923375)
(0 -1.5e-07 -0.0192336)
(-5e-08 -1e-07 -0.0192336)
(-1e-07 -5e-08 -0.01923365)
(-5e-08 -5e-08 -0.0192337)
(-1e-07 -1.5e-07 -0.0192337)
(-2e-07 -2e-07 -0.01923375)
(-1e-07 -3e-07 -0.01923375)
(-5e-08 -3.5e-07 -0.0192338)
(-5e-08 -3.5e-07 -0.01923375)
(0 -3.5e-07 -0.0192338)
(0 5e-08 -0.01923365)
(-7.4142587e-17 5e-08 -0.01923365)
(-1e-07 0 -0.01923365)
(-1.5e-07 -1e-07 -0.0192337)
(-1.5e-07 -1.5e-07 -0.01923375)
(-2.5e-07 -2e-07 -0.01923375)
(-2e-07 -2.5e-07 -0.0192338)
(-1e-07 -3.5e-07 -0.0192338)
(-1e-07 -3.5e-07 -0.0192338)
(-5e-08 -4e-07 -0.01923385)
(2.1175824e-16 0 -0.0192337)
(-1e-07 0 -0.0192337)
(-2.5e-07 -1e-07 -0.0192337)
(-2e-07 -2e-07 -0.01923375)
(-2e-07 -2.5e-07 -0.01923375)
(-3e-07 -3e-07 -0.0192338)
(-2.5e-07 -4e-07 -0.01923385)
(-1.5e-07 -4e-07 -0.01923385)
(-1e-07 -4e-07 -0.0192339)
(-5e-08 -3.5e-07 -0.0192339)
(0 -5e-08 -0.01923365)
(-1e-07 -1e-07 -0.0192337)
(-3e-07 -5e-08 -0.0192337)
(-3e-07 -1e-07 -0.01923375)
(-2.5e-07 -2e-07 -0.0192338)
(-4e-07 -2.5e-07 -0.01923385)
(-3e-07 -3e-07 -0.0192339)
(-1e-07 -2.5e-07 -0.0192339)
(-5e-08 -2e-07 -0.01923395)
(0 -1.5e-07 -0.0192339)
(-5e-08 -5e-08 -0.0192337)
(-1e-07 -1e-07 -0.0192337)
(-2.5e-07 -5e-08 -0.0192337)
(-3.5e-07 -5e-08 -0.0192338)
(-3.5e-07 -1e-07 -0.0192338)
(-4e-07 -1.5e-07 -0.01923385)
(-2.5e-07 -1e-07 -0.0192339)
(-5e-08 -5e-08 -0.0192339)
(0 0 -0.0192339)
(0 -5e-08 -0.0192339)
(-5e-08 0 -0.01923375)
(-1e-07 -5e-08 -0.01923375)
(-2.5e-07 -1e-07 -0.01923375)
(-3.5e-07 -5e-08 -0.01923375)
(-3.5e-07 -1e-07 -0.0192338)
(-4e-07 -1e-07 -0.0192339)
(-2e-07 -5e-08 -0.01923395)
(0 0 -0.0192339)
(-5e-08 -5e-08 -0.0192339)
(-5e-08 -5e-08 -0.0192339)
(-1e-07 5e-08 -0.0192337)
(-2e-07 0 -0.0192337)
(-2.5e-07 -5e-08 -0.01923375)
(-3.5e-07 0 -0.0192338)
(-4e-07 -5e-08 -0.01923385)