/*--------------------------------*- C++ -*----------------------------------*\
| =========                 |                                                 |
| \\      /  F ield         | OpenFOAM: The Open Source CFD Toolbox           |
|  \\    /   O peration     | Version:  v2106                                 |
|   \\  /    A nd           | Website:  www.openfoam.com                      |
|    \\/     M anipulation  |                                                 |
\*---------------------------------------------------------------------------*/
FoamFile
{
    version     2.0;
    format      ascii;
    arch        "LSB;label=32;scalar=64";
    class       volVectorField;
    location    "20";
    object      Tmode_grad5;
}
// * * * * * * * * * * * * * * * * * * * * * * * * * * * * * * * * * * * * * //

dimensions      [0 -1 0 0 0 0 0];

internalField   nonuniform List<vector> 
4000
(
(-8e-07 -8e-07 -0.5810185)
(-2.9e-06 -2.9e-06 -0.58101925)
(2.2e-06 1.4e-06 -0.58102425)
(3.4e-06 -1.5e-07 -0.58101095)
(-2.8e-06 -9e-07 -0.58101475)
(-3.1e-06 -1e-06 -0.5810218)
(-1.65e-06 -8e-07 -0.58102615)
(-6e-07 -6.5e-07 -0.58102785)
(-2.5e-07 -5e-07 -0.58102855)
(-1e-07 4.2351647e-16 -0.58102925)
(-2.9e-06 -2.9e-06 -0.58101925)
(-7e-07 -7e-07 -0.5810252)
(4.95e-06 2.25e-06 -0.5810186)
(1.1e-06 -1.5e-07 -0.58101035)
(-3.65e-06 -1.05e-06 -0.5810165)
(-3e-06 -9.5e-07 -0.5810236)
(-1.3e-06 -5.5e-07 -0.5810273)
(-3e-07 -4e-07 -0.58102855)
(4e-07 -4.5e-07 -0.5810284)
(4e-07 1e-07 -0.58102715)
(1.4e-06 2.2e-06 -0.58102425)
(2.25e-06 4.95e-06 -0.5810186)
(2.75e-06 2.75e-06 -0.581016)
(1e-07 1.65e-06 -0.58101045)
(-3.6e-06 1.65e-06 -0.58101695)
(-2.6e-06 2.15e-06 -0.58102335)
(-1.1e-06 2.7e-06 -0.5810262)
(-5e-07 2.9e-06 -0.58102755)
(2.5e-07 2.5e-06 -0.58102825)
(4.5e-07 1.95e-06 -0.58102675)
(-1.5e-07 3.4e-06 -0.58101095)
(-1.5e-07 1.1e-06 -0.58101035)
(1.65e-06 1e-07 -0.58101045)
(0 0 -0.58100565)
(-3.15e-06 4e-07 -0.5810116)
(-1.95e-06 1.05e-06 -0.58101675)
(-5.5e-07 1.8e-06 -0.58101825)
(-5e-07 2.4e-06 -0.5810188)
(-5.5e-07 2.6e-06 -0.58102025)
(-1.5e-07 2.25e-06 -0.58102065)
(-9e-07 -2.8e-06 -0.58101475)
(-1.05e-06 -3.65e-06 -0.5810165)
(1.65e-06 -3.6e-06 -0.58101695)
(4e-07 -3.15e-06 -0.5810116)
(-2.55e-06 -2.55e-06 -0.58101645)
(-1.2e-06 -1.85e-06 -0.58102025)
(2.5e-07 -1.1e-06 -0.58102015)
(3e-07 -4e-07 -0.58101915)
(1e-07 2.5e-07 -0.5810192)
(1e-07 7.5e-07 -0.58101875)
(-1e-06 -3.1e-06 -0.5810218)
(-9.5e-07 -3e-06 -0.5810236)
(2.15e-06 -2.6e-06 -0.58102335)
(1.05e-06 -1.95e-06 -0.58101675)
(-1.85e-06 -1.2e-06 -0.58102025)
(-5e-07 -5e-07 -0.58102265)
(9e-07 5e-08 -0.58102125)
(8.5e-07 5.5e-07 -0.58101905)
(6e-07 9e-07 -0.58101805)
(3.5e-07 1.15e-06 -0.58101675)
(-8e-07 -1.65e-06 -0.58102615)
(-5.5e-07 -1.3e-06 -0.5810273)
(2.7e-06 -1.1e-06 -0.5810262)
(1.8e-06 -5.5e-07 -0.58101825)
(-1.1e-06 2.5e-07 -0.58102015)
(5e-08 9e-07 -0.58102125)
(1.3e-06 1.3e-06 -0.58101895)
(1.15e-06 1.5e-06 -0.58101615)
(7e-07 1.5e-06 -0.5810148)
(3.5e-07 1.4e-06 -0.5810135)
(-6.5e-07 -6e-07 -0.58102785)
(-4e-07 -3e-07 -0.58102855)
(2.9e-06 -5e-07 -0.58102755)
(2.4e-06 -5e-07 -0.5810188)
(-4e-07 3e-07 -0.58101915)
(5.5e-07 8.5e-07 -0.58101905)
(1.5e-06 1.15e-06 -0.58101615)
(1.05e-06 1.05e-06 -0.58101325)
(5e-07 8e-07 -0.58101235)
(2.5e-07 6e-07 -0.5810115)
(-5e-07 -2.5e-07 -0.58102855)
(-4.5e-07 4e-07 -0.5810284)
(2.5e-06 2.5e-07 -0.58102825)
(2.6e-06 -5.5e-07 -0.58102025)
(2.5e-07 1e-07 -0.5810192)
(9e-07 6e-07 -0.58101805)
(1.5e-06 7e-07 -0.5810148)
(8e-07 5e-07 -0.58101235)
(2.5e-07 2.5e-07 -0.581012)
(1.5e-07 1e-07 -0.58101165)
(-4.2351647e-16 -1e-07 -0.58102925)
(1e-07 4e-07 -0.58102715)
(1.95e-06 4.5e-07 -0.58102675)
(2.25e-06 -1.5e-07 -0.58102065)
(7.5e-07 1e-07 -0.58101875)
(1.15e-06 3.5e-07 -0.58101675)
(1.4e-06 3.5e-07 -0.5810135)
(6e-07 2.5e-07 -0.5810115)
(1e-07 1.5e-07 -0.58101165)
(1e-07 1e-07 -0.5810111)
(5e-08 5e-08 -0.5699346)
(-2.85e-06 -3.05e-06 -0.56993105)
(6.1e-06 4.25e-06 -0.56993125)
(6.1e-06 7.5e-07 -0.5699245)
(-8.05e-06 -8.5e-07 -0.5699287)
(-8.3e-06 -8e-07 -0.56993455)
(-4.4e-06 -3.5e-07 -0.56993785)
(-1.8e-06 -5e-08 -0.56993925)
(-1.15e-06 6.5e-07 -0.5699399)
(-6e-07 2.1e-06 -0.56994155)
(-3.05e-06 -2.85e-06 -0.56993105)
(1.35e-06 1.35e-06 -0.5699308)
(9.9e-06 6e-06 -0.56992695)
(1e-06 6.5e-07 -0.56992335)
(-9.6e-06 -1.15e-06 -0.56992875)
(-7.8e-06 -6e-07 -0.5699342)
(-3.65e-06 5e-07 -0.569937)
(-8e-07 7e-07 -0.5699383)
(1e-06 7.5e-07 -0.56993775)
(8.5e-07 2.4e-06 -0.56993695)
(4.25e-06 6.1e-06 -0.56993125)
(6e-06 9.9e-06 -0.56992695)
(5.4e-06 5.4e-06 -0.5699253)
(-1.05e-06 3.05e-06 -0.56992325)
(-9.3e-06 3.25e-06 -0.56992865)
(-6.65e-06 4.7e-06 -0.56993325)
(-3.1e-06 6.35e-06 -0.56993525)
(-1.55e-06 6.85e-06 -0.56993685)
(5.5e-07 5.65e-06 -0.5699373)
(1.05e-06 4.55e-06 -0.5699362)
(7.5e-07 6.1e-06 -0.5699245)
(6.5e-07 1e-06 -0.56992335)
(3.05e-06 -1.05e-06 -0.56992325)
(-1.15e-06 -1.15e-06 -0.56992145)
(-7.95e-06 1e-07 -0.56992625)
(-4.7e-06 2.05e-06 -0.5699296)
(-1.5e-06 4.25e-06 -0.5699302)
(-1.5e-06 6e-06 -0.56993105)
(-1.3e-06 6.45e-06 -0.5699319)
(-2.5e-07 5.75e-06 -0.569932)
(-8.5e-07 -8.05e-06 -0.5699287)
(-1.15e-06 -9.6e-06 -0.56992875)
(3.25e-06 -9.3e-06 -0.56992865)
(1e-07 -7.95e-06 -0.56992625)
(-6.1e-06 -6.1e-06 -0.5699299)
(-2.5e-06 -4.05e-06 -0.5699319)
(8.5e-07 -1.9e-06 -0.56993095)
(6.5e-07 1.5e-07 -0.5699303)
(3e-07 1.95e-06 -0.56993005)
(3.5e-07 3.15e-06 -0.5699294)
(-8e-07 -8.3e-06 -0.56993455)
(-6e-07 -7.8e-06 -0.5699342)
(4.7e-06 -6.65e-06 -0.56993325)
(2.05e-06 -4.7e-06 -0.5699296)
(-4.05e-06 -2.5e-06 -0.5699319)
(-5e-07 -5e-07 -0.5699326)
(2.7e-06 1.15e-06 -0.56993045)
(2.35e-06 2.45e-06 -0.56992865)
(1.7e-06 3.5e-06 -0.56992745)
(9.5e-07 4.1e-06 -0.5699262)
(-3.5e-07 -4.4e-06 -0.56993785)
(5e-07 -3.65e-06 -0.569937)
(6.35e-06 -3.1e-06 -0.56993525)
(4.25e-06 -1.5e-06 -0.5699302)
(-1.9e-06 8.5e-07 -0.56993095)
(1.15e-06 2.7e-06 -0.56993045)
(3.8e-06 3.8e-06 -0.5699274)
(3e-06 4.3e-06 -0.5699252)
(1.95e-06 4.2e-06 -0.5699239)
(9.5e-07 3.85e-06 -0.5699228)
(-5e-08 -1.8e-06 -0.56993925)
(7e-07 -8e-07 -0.5699383)
(6.85e-06 -1.55e-06 -0.56993685)
(6e-06 -1.5e-06 -0.56993105)
(1.5e-07 6.5e-07 -0.5699303)
(2.45e-06 2.35e-06 -0.56992865)
(4.3e-06 3e-06 -0.5699252)
(2.75e-06 2.75e-06 -0.5699231)
(1.25e-06 2e-06 -0.56992225)
(6e-07 1.25e-06 -0.5699219)
(6.5e-07 -1.15e-06 -0.5699399)
(7.5e-07 1e-06 -0.56993775)
(5.65e-06 5.5e-07 -0.5699373)
(6.45e-06 -1.3e-06 -0.5699319)
(1.95e-06 3e-07 -0.56993005)
(3.5e-06 1.7e-06 -0.56992745)
(4.2e-06 1.95e-06 -0.5699239)
(2e-06 1.25e-06 -0.56992225)
(4.5e-07 4.5e-07 -0.5699221)
(2e-07 3e-07 -0.56992185)
(2.1e-06 -6e-07 -0.56994155)
(2.4e-06 8.5e-07 -0.56993695)
(4.55e-06 1.05e-06 -0.5699362)
(5.75e-06 -2.5e-07 -0.569932)
(3.15e-06 3.5e-07 -0.5699294)
(4.1e-06 9.5e-07 -0.5699262)
(3.85e-06 9.5e-07 -0.5699228)
(1.25e-06 6e-07 -0.5699219)
(3e-07 2e-07 -0.56992185)
(4.5e-07 4.5e-07 -0.5699214)
(2.75e-06 2.75e-06 -0.54789396)
(4.5e-07 -2.65e-06 -0.54788953)
(8.75e-06 5.7e-06 -0.54788929)
(5.95e-06 1e-06 -0.54788567)
(-1.285e-05 -9.5e-07 -0.54788971)
(-1.225e-05 -6.5e-07 -0.5478941)
(-6.35e-06 5e-08 -0.54789632)
(-2.65e-06 3e-07 -0.54789738)
(-2.55e-06 1.65e-06 -0.54789753)
(-1.75e-06 4.6e-06 -0.54789965)
(-2.65e-06 4.5e-07 -0.54788953)
(3.4e-06 3.4e-06 -0.54788913)
(1.24e-05 8.2e-06 -0.54788665)
(-7e-07 1.1e-06 -0.54788525)
(-1.45e-05 -1e-06 -0.54788984)
(-1.125e-05 3.5e-07 -0.54789368)
(-5.4e-06 2.05e-06 -0.54789538)
(-1.05e-06 2e-06 -0.54789681)
(1.75e-06 2.15e-06 -0.5478959)
(1.2e-06 5.45e-06 -0.54789521)
(5.7e-06 8.75e-06 -0.54788929)
(8.2e-06 1.24e-05 -0.54788665)
(6.45e-06 6.45e-06 -0.54788587)
(-3.25e-06 3.55e-06 -0.54788535)
(-1.36e-05 4.15e-06 -0.54788967)
(-9.2e-06 6.75e-06 -0.54789244)
(-4.7e-06 9.5e-06 -0.54789332)
(-2.55e-06 1.015e-05 -0.54789515)
(9e-07 8.35e-06 -0.54789524)
(1.55e-06 6.9e-06 -0.54789402)
(1e-06 5.95e-06 -0.54788567)
(1.1e-06 -7e-07 -0.54788525)
(3.55e-06 -3.25e-06 -0.54788535)
(-3e-06 -3e-06 -0.5478848)
(-1.13e-05 -8.5e-07 -0.54788832)
(-5.9e-06 2.4e-06 -0.54788982)
(-2e-06 6.1e-06 -0.54788924)
(-2.2e-06 8.95e-06 -0.5478903)
(-1.5e-06 9.85e-06 -0.54789063)
(-2.5e-07 9.05e-06 -0.54789017)
(-9.5e-07 -1.285e-05 -0.5478897)
(-1e-06 -1.45e-05 -0.54788983)
(4.15e-06 -1.36e-05 -0.54788967)
(-8.5e-07 -1.13e-05 -0.54788832)
(-8.2e-06 -8.2e-06 -0.54789078)
(-2.25e-06 -4.85e-06 -0.5478909)
(1.85e-06 -1.35e-06 -0.54788884)
(1.2e-06 2e-06 -0.54788846)
(1e-06 4.7e-06 -0.5478878)
(7.5e-07 6.55e-06 -0.54788671)
(-6.5e-07 -1.225e-05 -0.5478941)
(3.5e-07 -1.125e-05 -0.54789367)
(6.75e-06 -9.2e-06 -0.54789244)
(2.4e-06 -5.9e-06 -0.54788982)
(-4.85e-06 -2.25e-06 -0.5478909)
(9.5e-07 9.5e-07 -0.54788982)
(4.85e-06 3.6e-06 -0.5478866)
(3.85e-06 5.65e-06 -0.54788525)
(3.05e-06 7.05e-06 -0.54788387)
(1.6e-06 7.75e-06 -0.5478824)
(5e-08 -6.35e-06 -0.54789632)
(2.05e-06 -5.4e-06 -0.54789538)
(9.5e-06 -4.7e-06 -0.54789332)
(6.1e-06 -2e-06 -0.54788924)
(-1.35e-06 1.85e-06 -0.54788884)
(3.6e-06 4.85e-06 -0.5478866)
(6.55e-06 6.55e-06 -0.54788272)
(4.65e-06 7.05e-06 -0.54788106)
(3.1e-06 6.7e-06 -0.54787984)
(1.45e-06 5.7e-06 -0.54787888)
(3e-07 -2.65e-06 -0.54789738)
(2e-06 -1.05e-06 -0.54789681)
(1.015e-05 -2.55e-06 -0.54789515)
(8.95e-06 -2.2e-06 -0.5478903)
(2e-06 1.2e-06 -0.54788847)
(5.65e-06 3.85e-06 -0.54788525)
(7.05e-06 4.65e-06 -0.54788106)
(4e-06 4e-06 -0.54787986)
(1.7e-06 2.6e-06 -0.54787932)
(6e-07 1.55e-06 -0.5478792)
(1.65e-06 -2.55e-06 -0.54789754)
(2.15e-06 1.75e-06 -0.5478959)
(8.35e-06 9e-07 -0.54789524)
(9.85e-06 -1.5e-06 -0.54789063)
(4.7e-06 1e-06 -0.5478878)
(7.05e-06 3.05e-06 -0.54788387)
(6.7e-06 3.1e-06 -0.54787985)
(2.6e-06 1.7e-06 -0.54787931)
(6.5e-07 6.5e-07 -0.54787936)
(4e-07 6e-07 -0.54787835)
(4.6e-06 -1.75e-06 -0.54789965)
(5.45e-06 1.2e-06 -0.54789521)
(6.9e-06 1.55e-06 -0.54789402)
(9.05e-06 -2.5e-07 -0.54789017)
(6.55e-06 7.5e-07 -0.5478867)
(7.75e-06 1.6e-06 -0.5478824)
(5.7e-06 1.45e-06 -0.54787888)
(1.55e-06 6e-07 -0.5478792)
(6e-07 4e-07 -0.54787835)
(5.5e-07 5.5e-07 -0.54787832)
(4.48e-06 4.48e-06 -0.51517595)
(1.815e-06 -2.65e-06 -0.51517354)
(9.96e-06 6.895e-06 -0.5151746)
(5.685e-06 1.17e-06 -0.51517127)
(-1.6485e-05 -9.8e-07 -0.51517436)
(-1.491e-05 -3.75e-07 -0.51517726)
(-7.675e-06 5.9e-07 -0.51517839)
(-3.02e-06 5.2e-07 -0.51517918)
(-3.42e-06 2.285e-06 -0.51517916)
(-2.71e-06 6.535e-06 -0.51518097)
(-2.65e-06 1.815e-06 -0.51517355)
(4.23e-06 4.23e-06 -0.51517415)
(1.378e-05 9.425e-06 -0.51517269)
(-2.19e-06 9.7e-07 -0.51517129)
(-1.803e-05 -1.115e-06 -0.51517471)
(-1.334e-05 1.065e-06 -0.5151769)
(-6.78e-06 3.495e-06 -0.51517745)
(-1.325e-06 2.93e-06 -0.51517883)
(2.595e-06 3.045e-06 -0.51517796)
(1.54e-06 8.03e-06 -0.51517726)
(6.895e-06 9.96e-06 -0.5151746)
(9.425e-06 1.378e-05 -0.51517269)
(6.7e-06 6.7e-06 -0.5151727)
(-4.855e-06 3.5e-06 -0.51517192)
(-1.639e-05 4.765e-06 -0.51517486)
(-1.03e-05 8.555e-06 -0.51517595)
(-5.81e-06 1.249e-05 -0.51517557)
(-3.47e-06 1.336e-05 -0.51517732)
(1.68e-06 1.092e-05 -0.51517727)
(2.275e-06 9.59e-06 -0.5151758)
(1.17e-06 5.685e-06 -0.51517127)
(9.7e-07 -2.19e-06 -0.5151713)
(3.5e-06 -4.855e-06 -0.51517192)
(-4.125e-06 -4.125e-06 -0.51517098)
(-1.2975e-05 -1.01e-06 -0.51517303)
(-5.615e-06 3.585e-06 -0.51517279)
(-1.975e-06 8.73e-06 -0.51517098)
(-2.895e-06 1.268e-05 -0.51517197)
(-1.175e-06 1.389e-05 -0.51517227)
(2.1e-07 1.306e-05 -0.51517139)
(-9.8e-07 -1.6485e-05 -0.51517436)
(-1.115e-06 -1.803e-05 -0.51517471)
(4.765e-06 -1.639e-05 -0.51517486)
(-1.01e-06 -1.2975e-05 -0.51517303)
(-8.68e-06 -8.68e-06 -0.51517401)
(-5.6e-07 -4.045e-06 -0.51517245)
(3.285e-06 7.35e-07 -0.51516921)
(1.69e-06 5.195e-06 -0.5151689)
(2.06e-06 8.71e-06 -0.51516828)
(1.445e-06 1.092e-05 -0.51516695)
(-3.75e-07 -1.491e-05 -0.51517726)
(1.065e-06 -1.334e-05 -0.5151769)
(8.555e-06 -1.03e-05 -0.51517596)
(3.585e-06 -5.615e-06 -0.51517279)
(-4.045e-06 -5.6e-07 -0.51517245)
(3.8e-06 3.8e-06 -0.51516969)
(7.265e-06 7.275e-06 -0.51516541)
(5.08e-06 9.855e-06 -0.5151643)
(4.55e-06 1.1455e-05 -0.51516315)
(2.42e-06 1.193e-05 -0.51516169)
(5.9e-07 -7.675e-06 -0.51517839)
(3.495e-06 -6.78e-06 -0.51517745)
(1.249e-05 -5.81e-06 -0.51517556)
(8.73e-06 -1.975e-06 -0.51517098)
(7.35e-07 3.285e-06 -0.51516921)
(7.275e-06 7.265e-06 -0.51516541)
(9.34e-06 9.34e-06 -0.5151606)
(5.87e-06 9.695e-06 -0.5151594)
(4.135e-06 8.755e-06 -0.51515864)
(1.92e-06 7.05e-06 -0.515158)
(5.2e-07 -3.02e-06 -0.51517918)
(2.93e-06 -1.325e-06 -0.51517883)
(1.336e-05 -3.47e-06 -0.51517732)
(1.268e-05 -2.895e-06 -0.51517197)
(5.195e-06 1.69e-06 -0.5151689)
(9.855e-06 5.08e-06 -0.51516429)
(9.695e-06 5.87e-06 -0.5151594)
(4.495e-06 4.495e-06 -0.51515883)
(1.905e-06 2.49e-06 -0.51515911)
(7.15e-07 1.775e-06 -0.5151593)
(2.285e-06 -3.42e-06 -0.51517916)
(3.045e-06 2.595e-06 -0.51517796)
(1.092e-05 1.68e-06 -0.51517727)
(1.389e-05 -1.175e-06 -0.51517227)
(8.71e-06 2.06e-06 -0.51516828)
(1.1455e-05 4.55e-06 -0.51516315)
(8.755e-06 4.135e-06 -0.51515864)
(2.49e-06 1.905e-06 -0.51515911)
(1.415e-06 1.415e-06 -0.51515969)
(1.205e-06 1.18e-06 -0.51515794)
(6.535e-06 -2.71e-06 -0.51518098)
(8.03e-06 1.54e-06 -0.51517725)
(9.59e-06 2.275e-06 -0.5151758)
(1.306e-05 2.1e-07 -0.51517139)
(1.092e-05 1.445e-06 -0.51516695)
(1.193e-05 2.42e-06 -0.51516169)
(7.05e-06 1.92e-06 -0.515158)
(1.775e-06 7.15e-07 -0.51515931)
(1.18e-06 1.205e-06 -0.51515794)
(4.8e-07 4.8e-07 -0.51515809)
(5.16e-06 5.16e-06 -0.4722134)
(1.805e-06 -3.255e-06 -0.47221231)
(1.1025e-05 7.605e-06 -0.47221355)
(6.185e-06 9.75e-07 -0.47220966)
(-1.884e-05 -1.3e-06 -0.47221161)
(-1.628e-05 -2.9e-07 -0.47221312)
(-8.275e-06 9.95e-07 -0.47221304)
(-3.415e-06 6.5e-07 -0.47221331)
(-4.34e-06 2.85e-06 -0.47221329)
(-3.565e-06 8.32e-06 -0.47221485)
(-3.255e-06 1.805e-06 -0.47221231)
(4.25e-06 4.25e-06 -0.47221361)
(1.5255e-05 1.01e-05 -0.47221217)
(-2.72e-06 4.5e-07 -0.47221007)
(-2.0105e-05 -1.495e-06 -0.47221222)
(-1.3985e-05 1.655e-06 -0.4722129)
(-7.335e-06 4.88e-06 -0.47221215)
(-1.56e-06 3.865e-06 -0.47221295)
(3.33e-06 4.04e-06 -0.47221204)
(1.905e-06 1.062e-05 -0.47221121)
(7.605e-06 1.1025e-05 -0.47221355)
(1.01e-05 1.5255e-05 -0.47221217)
(7.225e-06 7.225e-06 -0.47221201)
(-5.41e-06 3.86e-06 -0.47221044)
(-1.7635e-05 5.835e-06 -0.47221206)
(-9.905e-06 1.0855e-05 -0.4722116)
(-6.065e-06 1.5965e-05 -0.4722099)
(-4.255e-06 1.7015e-05 -0.47221107)
(2.415e-06 1.404e-05 -0.47221092)
(3.015e-06 1.2765e-05 -0.47220937)
(9.75e-07 6.185e-06 -0.47220966)
(4.5e-07 -2.72e-06 -0.47221006)
(3.86e-06 -5.41e-06 -0.47221045)
(-4.11e-06 -4.11e-06 -0.4722086)
(-1.311e-05 0 -0.47220932)
(-3.855e-06 5.91e-06 -0.47220753)
(-1.175e-06 1.2455e-05 -0.47220445)
(-3.485e-06 1.737e-05 -0.47220495)
(-9.2e-07 1.884e-05 -0.47220515)
(6.3e-07 1.7905e-05 -0.47220428)
(-1.3e-06 -1.884e-05 -0.47221161)
(-1.495e-06 -2.0105e-05 -0.47221222)
(5.835e-06 -1.7635e-05 -0.47221206)
(1.6449593e-17 -1.311e-05 -0.47220932)
(-7.615e-06 -7.615e-06 -0.47220892)
(2.55e-06 -1.745e-06 -0.47220587)
(5.395e-06 4.225e-06 -0.47220142)
(2.13e-06 9.675e-06 -0.47220074)
(2.95e-06 1.382e-05 -0.47220016)
(2.08e-06 1.6255e-05 -0.4721989)
(-2.9e-07 -1.628e-05 -0.47221313)
(1.655e-06 -1.3985e-05 -0.4722129)
(1.0855e-05 -9.905e-06 -0.47221159)
(5.91e-06 -3.855e-06 -0.47220754)
(-1.745e-06 2.55e-06 -0.47220587)
(7.985e-06 7.985e-06 -0.47220168)
(1.0245e-05 1.221e-05 -0.47219628)
(6.11e-06 1.515e-05 -0.47219491)
(5.66e-06 1.669e-05 -0.47219398)
(3.065e-06 1.67e-05 -0.47219276)
(9.95e-07 -8.275e-06 -0.47221304)
(4.88e-06 -7.335e-06 -0.47221215)
(1.5965e-05 -6.065e-06 -0.4722099)
(1.2455e-05 -1.175e-06 -0.47220446)
(4.225e-06 5.395e-06 -0.47220143)
(1.221e-05 1.0245e-05 -0.47219628)
(1.256e-05 1.256e-05 -0.47219045)
(6.61e-06 1.2515e-05 -0.47218917)
(4.5e-06 1.074e-05 -0.47218887)
(2.09e-06 8.08e-06 -0.47218872)
(6.5e-07 -3.415e-06 -0.47221331)
(3.865e-06 -1.56e-06 -0.47221295)
(1.7015e-05 -4.255e-06 -0.47221107)
(1.737e-05 -3.485e-06 -0.47220496)
(9.675e-06 2.13e-06 -0.47220075)
(1.515e-05 6.11e-06 -0.47219491)
(1.2515e-05 6.61e-06 -0.47218917)
(4.29e-06 4.29e-06 -0.47218877)
(1.225e-06 1.55e-06 -0.47218972)
(4.05e-07 1.61e-06 -0.47219063)
(2.85e-06 -4.34e-06 -0.47221329)
(4.04e-06 3.33e-06 -0.47221204)
(1.404e-05 2.415e-06 -0.47221092)
(1.884e-05 -9.2e-07 -0.47220515)
(1.382e-05 2.95e-06 -0.47220016)
(1.669e-05 5.66e-06 -0.47219398)
(1.074e-05 4.5e-06 -0.47218887)
(1.55e-06 1.225e-06 -0.47218972)
(1.82e-06 1.82e-06 -0.47219107)
(2.15e-06 1.81e-06 -0.4721893)
(8.32e-06 -3.565e-06 -0.47221486)
(1.062e-05 1.905e-06 -0.47221121)
(1.2765e-05 3.015e-06 -0.47220937)
(1.7905e-05 6.3e-07 -0.47220428)
(1.6255e-05 2.08e-06 -0.4721989)
(1.67e-05 3.065e-06 -0.47219276)
(8.08e-06 2.09e-06 -0.47218872)
(1.61e-06 4.05e-07 -0.47219063)
(1.81e-06 2.15e-06 -0.4721893)
(3.95e-07 3.95e-07 -0.47218955)
(5.57e-06 5.57e-06 -0.41960204)
(1.665e-06 -3.95e-06 -0.41960115)
(1.261e-05 8.275e-06 -0.41960199)
(7.625e-06 7.65e-07 -0.41959734)
(-1.995e-05 -1.59e-06 -0.41959826)
(-1.634e-05 -1.5e-07 -0.41959854)
(-7.86e-06 1.48e-06 -0.41959729)
(-3.27e-06 8.85e-07 -0.41959675)
(-4.965e-06 3.535e-06 -0.41959636)
(-4.275e-06 1.018e-05 -0.41959766)
(-3.95e-06 1.665e-06 -0.41960115)
(4.37e-06 4.37e-06 -0.41960242)
(1.7325e-05 1.0965e-05 -0.41960051)
(-2.24e-06 1.85e-07 -0.41959762)
(-2.0865e-05 -1.56e-06 -0.41959869)
(-1.327e-05 2.595e-06 -0.41959809)
(-6.825e-06 6.64e-06 -0.41959614)
(-1.215e-06 5.17e-06 -0.41959611)
(4.33e-06 5.415e-06 -0.41959483)
(2.37e-06 1.3515e-05 -0.41959381)
(8.275e-06 1.261e-05 -0.41960199)
(1.0965e-05 1.7325e-05 -0.4196005)
(8.425e-06 8.425e-06 -0.41959984)
(-4.9e-06 4.965e-06 -0.41959743)
(-1.754e-05 7.665e-06 -0.41959794)
(-8.14e-06 1.392e-05 -0.41959619)
(-5.285e-06 2.0185e-05 -0.4195933)
(-4.495e-06 2.135e-05 -0.4195937)
(3.38e-06 1.781e-05 -0.4195932)
(3.825e-06 1.652e-05 -0.41959153)
(7.65e-07 7.625e-06 -0.41959734)
(1.85e-07 -2.24e-06 -0.41959762)
(4.965e-06 -4.9e-06 -0.41959743)
(-3e-06 -3e-06 -0.41959471)
(-1.191e-05 2.12e-06 -0.41959432)
(-7.5e-07 9.31e-06 -0.41959127)
(6.05e-07 1.72e-05 -0.41958705)
(-3.59e-06 2.3005e-05 -0.41958684)
(-5e-07 2.465e-05 -0.41958674)
(1.08e-06 2.353e-05 -0.4195858)
(-1.59e-06 -1.995e-05 -0.41959826)
(-1.56e-06 -2.0865e-05 -0.41959869)
(7.665e-06 -1.754e-05 -0.41959793)
(2.12e-06 -1.191e-05 -0.41959431)
(-5.23e-06 -5.23e-06 -0.41959282)
(6.94e-06 1.815e-06 -0.41958855)
(8.41e-06 8.905e-06 -0.41958302)
(2.955e-06 1.524e-05 -0.41958172)
(3.905e-06 1.9885e-05 -0.41958092)
(2.705e-06 2.244e-05 -0.41957966)
(-1.5e-07 -1.634e-05 -0.41959854)
(2.595e-06 -1.327e-05 -0.41959809)
(1.392e-05 -8.14e-06 -0.41959619)
(9.31e-06 -7.5e-07 -0.41959127)
(1.815e-06 6.94e-06 -0.41958855)
(1.3385e-05 1.3385e-05 -0.41958321)
(1.403e-05 1.8255e-05 -0.41957681)
(7.39e-06 2.143e-05 -0.41957491)
(6.7e-06 2.275e-05 -0.41957388)
(3.635e-06 2.211e-05 -0.41957278)
(1.48e-06 -7.86e-06 -0.41959729)
(6.64e-06 -6.825e-06 -0.41959614)
(2.0185e-05 -5.285e-06 -0.4195933)
(1.72e-05 6.05e-07 -0.41958705)
(8.905e-06 8.41e-06 -0.41958303)
(1.8255e-05 1.403e-05 -0.41957681)
(1.6455e-05 1.6455e-05 -0.41957008)
(7.45e-06 1.584e-05 -0.4195684)
(4.585e-06 1.301e-05 -0.41956814)
(2.065e-06 9.18e-06 -0.41956828)
(8.85e-07 -3.27e-06 -0.41959675)
(5.17e-06 -1.215e-06 -0.41959612)
(2.135e-05 -4.495e-06 -0.4195937)
(2.3005e-05 -3.59e-06 -0.41958683)
(1.524e-05 2.955e-06 -0.41958172)
(2.143e-05 7.39e-06 -0.41957491)
(1.584e-05 7.45e-06 -0.41956839)
(3.945e-06 3.945e-06 -0.41956774)
(4e-08 2.8e-07 -0.41956896)
(-1.95e-07 1.2e-06 -0.41957033)
(3.535e-06 -4.965e-06 -0.41959636)
(5.415e-06 4.33e-06 -0.41959483)
(1.781e-05 3.38e-06 -0.4195932)
(2.465e-05 -5e-07 -0.41958674)
(1.9885e-05 3.905e-06 -0.41958092)
(2.275e-05 6.7e-06 -0.41957389)
(1.301e-05 4.585e-06 -0.41956814)
(2.8e-07 4e-08 -0.41956896)
(1.84e-06 1.84e-06 -0.41957071)
(2.985e-06 2.26e-06 -0.41956916)
(1.018e-05 -4.275e-06 -0.41959766)
(1.3515e-05 2.37e-06 -0.41959381)
(1.652e-05 3.825e-06 -0.41959153)
(2.353e-05 1.08e-06 -0.4195858)
(2.244e-05 2.705e-06 -0.41957966)
(2.211e-05 3.635e-06 -0.41957278)
(9.18e-06 2.065e-06 -0.41956827)
(1.2e-06 -1.95e-07 -0.41957032)
(2.26e-06 2.985e-06 -0.41956916)
(2.25e-07 2.25e-07 -0.4195696)
(6.05e-06 6.05e-06 -0.35812386)
(1.855e-06 -4.525e-06 -0.35812277)
(1.4835e-05 9.085e-06 -0.3581231)
(9.91e-06 6.95e-07 -0.35811776)
(-2.0045e-05 -1.73e-06 -0.35811788)
(-1.531e-05 1.6e-07 -0.35811719)
(-6.485e-06 2.145e-06 -0.35811497)
(-2.485e-06 1.285e-06 -0.35811369)
(-5.25e-06 4.38e-06 -0.35811288)
(-4.865e-06 1.217e-05 -0.35811398)
(-4.525e-06 1.855e-06 -0.35812277)
(4.89e-06 4.89e-06 -0.35812376)
(2.0055e-05 1.2245e-05 -0.35812133)
(-9.05e-07 3.55e-07 -0.35811777)
(-2.058e-05 -1.17e-06 -0.35811802)
(-1.1435e-05 4.005e-06 -0.35811642)
(-5.36e-06 8.865e-06 -0.35811351)
(-2.5e-07 6.915e-06 -0.35811275)
(5.635e-06 7.2e-06 -0.35811106)
(2.925e-06 1.6755e-05 -0.35810989)
(9.085e-06 1.4835e-05 -0.3581231)
(1.2245e-05 2.0055e-05 -0.35812133)
(1.03e-05 1.03e-05 -0.35812015)
(-3.505e-06 6.765e-06 -0.35811706)
(-1.6395e-05 1.021e-05 -0.35811671)
(-5.275e-06 1.767e-05 -0.35811398)
(-3.575e-06 2.506e-05 -0.35811015)
(-4.15e-06 2.6295e-05 -0.35810985)
(4.59e-06 2.2135e-05 -0.358109)
(4.69e-06 2.0775e-05 -0.35810723)
(6.95e-07 9.91e-06 -0.35811776)
(3.55e-07 -9.05e-07 -0.35811778)
(6.765e-06 -3.505e-06 -0.35811706)
(-9.95e-07 -9.95e-07 -0.35811363)
(-9.675e-06 5.11e-06 -0.35811239)
(3.415e-06 1.355e-05 -0.35810841)
(3.265e-06 2.2735e-05 -0.35810327)
(-3.175e-06 2.9355e-05 -0.35810241)
(1.15e-07 3.112e-05 -0.35810202)
(1.565e-06 2.977e-05 -0.35810103)
(-1.73e-06 -2.0045e-05 -0.35811787)
(-1.17e-06 -2.058e-05 -0.35811802)
(1.021e-05 -1.6395e-05 -0.35811671)
(5.11e-06 -9.675e-06 -0.3581124)
(-1.85e-06 -1.85e-06 -0.35811011)
(1.235e-05 6.32e-06 -0.35810493)
(1.223e-05 1.4455e-05 -0.35809856)
(4.235e-06 2.16e-05 -0.35809667)
(5.005e-06 2.667e-05 -0.35809562)
(3.34e-06 2.928e-05 -0.35809434)
(1.6e-07 -1.531e-05 -0.35811719)
(4.005e-06 -1.1435e-05 -0.35811643)
(1.767e-05 -5.275e-06 -0.35811398)
(1.355e-05 3.415e-06 -0.35810841)
(6.32e-06 1.235e-05 -0.35810493)
(1.972e-05 1.972e-05 -0.35809876)
(1.8545e-05 2.5155e-05 -0.3580916)
(9.04e-06 2.847e-05 -0.35808918)
(7.795e-06 2.947e-05 -0.35808797)
(4.175e-06 2.8085e-05 -0.3580869)
(2.145e-06 -6.485e-06 -0.35811497)
(8.865e-06 -5.36e-06 -0.35811351)
(2.506e-05 -3.575e-06 -0.35811015)
(2.2735e-05 3.265e-06 -0.35810327)
(1.4455e-05 1.223e-05 -0.35809856)
(2.5155e-05 1.8545e-05 -0.3580916)
(2.098e-05 2.098e-05 -0.35808416)
(8.55e-06 1.9685e-05 -0.35808206)
(4.62e-06 1.5665e-05 -0.35808172)
(1.955e-06 1.053e-05 -0.35808197)
(1.285e-06 -2.485e-06 -0.35811369)
(6.915e-06 -2.5e-07 -0.35811275)
(2.6295e-05 -4.15e-06 -0.35810985)
(2.9355e-05 -3.175e-06 -0.35810241)
(2.16e-05 4.235e-06 -0.35809666)
(2.847e-05 9.04e-06 -0.35808918)
(1.9685e-05 8.55e-06 -0.35808206)
(3.725e-06 3.725e-06 -0.35808108)
(-1.36e-06 -1.015e-06 -0.35808234)
(-9.6e-07 7.25e-07 -0.35808394)
(4.38e-06 -5.25e-06 -0.35811288)
(7.2e-06 5.635e-06 -0.35811106)
(2.2135e-05 4.59e-06 -0.358109)
(3.112e-05 1.15e-07 -0.35810202)
(2.667e-05 5.005e-06 -0.35809562)
(2.947e-05 7.795e-06 -0.35808797)
(1.5665e-05 4.62e-06 -0.35808172)
(-1.015e-06 -1.36e-06 -0.35808234)
(1.62e-06 1.62e-06 -0.35808422)
(3.695e-06 2.535e-06 -0.3580829)
(1.217e-05 -4.865e-06 -0.35811398)
(1.6755e-05 2.925e-06 -0.35810989)
(2.0775e-05 4.69e-06 -0.35810723)
(2.977e-05 1.565e-06 -0.35810103)
(2.928e-05 3.34e-06 -0.35809434)
(2.8085e-05 4.175e-06 -0.3580869)
(1.053e-05 1.955e-06 -0.35808197)
(7.25e-07 -9.6e-07 -0.35808395)
(2.535e-06 3.695e-06 -0.3580829)
(-4.5e-08 -4.5e-08 -0.35808352)
(6.665e-06 6.665e-06 -0.28877586)
(2.43e-06 -4.94e-06 -0.28877451)
(1.762e-05 1.0045e-05 -0.28877441)
(1.285e-05 7.5e-07 -0.28876854)
(-1.938e-05 -1.735e-06 -0.28876807)
(-1.344e-05 6.15e-07 -0.2887667)
(-4.36e-06 2.95e-06 -0.28876371)
(-1.175e-06 1.825e-06 -0.28876187)
(-5.25e-06 5.355e-06 -0.28876068)
(-5.37e-06 1.4265e-05 -0.28876166)
(-4.94e-06 2.43e-06 -0.28877451)
(5.81e-06 5.81e-06 -0.28877524)
(2.331e-05 1.3915e-05 -0.2887724)
(1.07e-06 8.9e-07 -0.28876834)
(-1.9515e-05 -4e-07 -0.28876799)
(-8.755e-06 5.8e-06 -0.28876566)
(-3.15e-06 1.1465e-05 -0.28876201)
(1.23e-06 9.005e-06 -0.2887607)
(7.19e-06 9.29e-06 -0.28875866)
(3.54e-06 2.026e-05 -0.28875738)
(1.0045e-05 1.762e-05 -0.28877442)
(1.3915e-05 2.331e-05 -0.2887724)
(1.27e-05 1.27e-05 -0.28877081)
(-1.465e-06 9.11e-06 -0.2887672)
(-1.447e-05 1.329e-05 -0.28876625)
(-1.575e-06 2.194e-05 -0.2887628)
(-1.155e-06 3.042e-05 -0.28875828)
(-3.35e-06 3.1685e-05 -0.28875743)
(6.005e-06 2.685e-05 -0.28875633)
(5.6e-06 2.538e-05 -0.28875447)
(7.5e-07 1.285e-05 -0.28876854)
(8.9e-07 1.07e-06 -0.28876834)
(9.11e-06 -1.465e-06 -0.2887672)
(1.66e-06 1.66e-06 -0.28876331)
(-6.685e-06 8.73e-06 -0.28876145)
(8.375e-06 1.8365e-05 -0.28875678)
(6.595e-06 2.879e-05 -0.28875097)
(-2.34e-06 3.6195e-05 -0.28874965)
(8.85e-07 3.8035e-05 -0.28874899)
(2.07e-06 3.642e-05 -0.28874796)
(-1.735e-06 -1.938e-05 -0.28876808)
(-4e-07 -1.9515e-05 -0.288768)
(1.329e-05 -1.447e-05 -0.28876626)
(8.73e-06 -6.685e-06 -0.28876146)
(2.235e-06 2.235e-06 -0.28875861)
(1.8485e-05 1.146e-05 -0.28875285)
(1.6675e-05 2.058e-05 -0.28874586)
(5.895e-06 2.8475e-05 -0.28874353)
(6.23e-06 3.3935e-05 -0.28874225)
(3.985e-06 3.6575e-05 -0.28874094)
(6.15e-07 -1.344e-05 -0.2887667)
(5.8e-06 -8.755e-06 -0.28876566)
(2.194e-05 -1.575e-06 -0.28876281)
(1.8365e-05 8.375e-06 -0.28875678)
(1.146e-05 1.8485e-05 -0.28875285)
(2.672e-05 2.672e-05 -0.2887461)
(2.361e-05 3.265e-05 -0.28873842)
(1.1015e-05 3.6035e-05 -0.2887356)
(8.985e-06 3.665e-05 -0.28873421)
(4.71e-06 3.448e-05 -0.28873314)
(2.95e-06 -4.36e-06 -0.28876371)
(1.1465e-05 -3.15e-06 -0.28876201)
(3.042e-05 -1.155e-06 -0.28875828)
(2.879e-05 6.595e-06 -0.28875097)
(2.058e-05 1.6675e-05 -0.28874586)
(3.265e-05 2.361e-05 -0.28873842)
(2.599e-05 2.599e-05 -0.28873052)
(9.895e-06 2.394e-05 -0.28872805)
(4.675e-06 1.8645e-05 -0.28872762)
(1.815e-06 1.213e-05 -0.28872792)
(1.825e-06 -1.175e-06 -0.28876186)
(9.005e-06 1.23e-06 -0.2887607)
(3.1685e-05 -3.35e-06 -0.28875743)
(3.6195e-05 -2.34e-06 -0.28874965)
(2.8475e-05 5.895e-06 -0.28874354)
(3.6035e-05 1.1015e-05 -0.2887356)
(2.394e-05 9.895e-06 -0.28872806)
(3.67e-06 3.67e-06 -0.28872683)
(-2.825e-06 -2.22e-06 -0.28872803)
(-1.805e-06 2.7e-07 -0.28872972)
(5.355e-06 -5.25e-06 -0.28876068)
(9.29e-06 7.19e-06 -0.28875866)
(2.685e-05 6.005e-06 -0.28875633)
(3.8035e-05 8.85e-07 -0.288749)
(3.3935e-05 6.23e-06 -0.28874225)
(3.665e-05 8.985e-06 -0.28873421)
(1.8645e-05 4.675e-06 -0.28872762)
(-2.22e-06 -2.825e-06 -0.28872803)
(1.275e-06 1.275e-06 -0.2887299)
(4.305e-06 2.69e-06 -0.28872875)
(1.4265e-05 -5.37e-06 -0.28876167)
(2.026e-05 3.54e-06 -0.28875738)
(2.538e-05 5.6e-06 -0.28875447)
(3.642e-05 2.07e-06 -0.28874796)
(3.6575e-05 3.985e-06 -0.28874094)
(3.448e-05 4.71e-06 -0.28873314)
(1.213e-05 1.815e-06 -0.28872793)
(2.7e-07 -1.805e-06 -0.28872972)
(2.69e-06 4.305e-06 -0.28872875)
(-3.9e-07 -3.9e-07 -0.2887295)
(7.4e-06 7.4e-06 -0.21279713)
(3.3e-06 -5.25e-06 -0.21279559)
(2.08e-05 1.11e-05 -0.21279516)
(1.625e-05 9e-07 -0.21278897)
(-1.82e-05 -1.65e-06 -0.21278811)
(-1.095e-05 1.2e-06 -0.21278618)
(-1.65e-06 3.85e-06 -0.21278272)
(5.5e-07 2.45e-06 -0.21278038)
(-5.05e-06 6.4e-06 -0.21277899)
(-5.85e-06 1.645e-05 -0.21277987)
(-5.25e-06 3.3e-06 -0.2127956)
(7e-06 7e-06 -0.2127961)
(2.695e-05 1.585e-05 -0.21279295)
(3.5e-06 1.7e-06 -0.21278857)
(-1.79e-05 6.5e-07 -0.21278783)
(-5.45e-06 7.9e-06 -0.212785)
(-4e-07 1.43e-05 -0.21278077)
(3.1e-06 1.135e-05 -0.21277905)
(8.95e-06 1.155e-05 -0.2127768)
(4.2e-06 2.395e-05 -0.21277549)
(1.11e-05 2.08e-05 -0.21279516)
(1.585e-05 2.695e-05 -0.21279296)
(1.55e-05 1.55e-05 -0.21279108)
(1.05e-06 1.18e-05 -0.21278715)
(-1.2e-05 1.675e-05 -0.21278581)
(2.7e-06 2.655e-05 -0.21278189)
(1.8e-06 3.61e-05 -0.21277683)
(-2.2e-06 3.735e-05 -0.21277558)
(7.55e-06 3.18e-05 -0.21277429)
(6.55e-06 3.02e-05 -0.21277244)
(9e-07 1.625e-05 -0.21278897)
(1.7e-06 3.5e-06 -0.21278857)
(1.18e-05 1.05e-06 -0.21278716)
(4.75e-06 4.75e-06 -0.21278292)
(-3.15e-06 1.275e-05 -0.21278077)
(1.39e-05 2.35e-05 -0.21277564)
(1.04e-05 3.515e-05 -0.21276934)
(-1.2e-06 4.325e-05 -0.21276758)
(1.8e-06 4.52e-05 -0.2127668)
(2.6e-06 4.33e-05 -0.21276577)
(-1.65e-06 -1.82e-05 -0.21278811)
(6.5e-07 -1.79e-05 -0.21278782)
(1.675e-05 -1.2e-05 -0.21278581)
(1.275e-05 -3.15e-06 -0.21278077)
(6.75e-06 6.75e-06 -0.21277759)
(2.51e-05 1.7e-05 -0.2127714)
(2.155e-05 2.7e-05 -0.21276402)
(7.85e-06 3.565e-05 -0.21276133)
(7.6e-06 4.145e-05 -0.21275992)
(4.65e-06 4.41e-05 -0.21275861)
(1.2e-06 -1.095e-05 -0.21278619)
(7.9e-06 -5.45e-06 -0.212785)
(2.655e-05 2.7e-06 -0.21278188)
(2.35e-05 1.39e-05 -0.21277564)
(1.7e-05 2.51e-05 -0.2127714)
(3.415e-05 3.415e-05 -0.21276435)
(2.905e-05 4.05e-05 -0.21275627)
(1.325e-05 4.395e-05 -0.21275321)
(1.025e-05 4.41e-05 -0.21275169)
(5.25e-06 4.11e-05 -0.21275065)
(3.85e-06 -1.65e-06 -0.21278272)
(1.43e-05 -4e-07 -0.21278077)
(3.61e-05 1.8e-06 -0.21277684)
(3.515e-05 1.04e-05 -0.21276934)
(2.7e-05 2.155e-05 -0.21276403)
(4.05e-05 2.905e-05 -0.21275627)
(3.135e-05 3.135e-05 -0.21274808)
(1.145e-05 2.845e-05 -0.21274536)
(4.75e-06 2.185e-05 -0.21274482)
(1.65e-06 1.395e-05 -0.21274514)
(2.45e-06 5.5e-07 -0.21278038)
(1.135e-05 3.1e-06 -0.21277905)
(3.735e-05 -2.2e-06 -0.21277558)
(4.325e-05 -1.2e-06 -0.21276758)
(3.565e-05 7.85e-06 -0.21276133)
(4.395e-05 1.325e-05 -0.21275321)
(2.845e-05 1.145e-05 -0.21274536)
(3.75e-06 3.75e-06 -0.2127439)
(-4.25e-06 -3.3e-06 -0.21274508)
(-2.65e-06 -1e-07 -0.21274688)
(6.4e-06 -5.05e-06 -0.212779)
(1.155e-05 8.95e-06 -0.2127768)
(3.18e-05 7.55e-06 -0.21277428)
(4.52e-05 1.8e-06 -0.2127668)
(4.145e-05 7.6e-06 -0.21275992)
(4.41e-05 1.025e-05 -0.21275168)
(2.185e-05 4.75e-06 -0.21274482)
(-3.3e-06 -4.25e-06 -0.21274508)
(9e-07 9e-07 -0.212747)
(4.85e-06 2.75e-06 -0.2127459)
(1.645e-05 -5.85e-06 -0.21277987)
(2.395e-05 4.2e-06 -0.21277549)
(3.02e-05 6.55e-06 -0.21277243)
(4.33e-05 2.6e-06 -0.21276577)
(4.41e-05 4.65e-06 -0.21275861)
(4.11e-05 5.25e-06 -0.21275064)
(1.395e-05 1.65e-06 -0.21274513)
(-1e-07 -2.65e-06 -0.21274687)
(2.75e-06 4.85e-06 -0.2127459)
(-8e-07 -8e-07 -0.21274671)