/*--------------------------------*- C++ -*----------------------------------*\
| =========                 |                                                 |
| \\      /  F ield         | OpenFOAM: The Open Source CFD Toolbox           |
|  \\    /   O peration     | Version:  v2106                                 |
|   \\  /    A nd           | Website:  www.openfoam.com                      |
|    \\/     M anipulation  |                                                 |
\*---------------------------------------------------------------------------*/
FoamFile
{
    version     2.0;
    format      ascii;
    arch        "LSB;label=32;scalar=64";
    class       volScalarField;
    location    "20";
    object      Tmode_lapla1;
}
// * * * * * * * * * * * * * * * * * * * * * * * * * * * * * * * * * * * * * //

dimensions      [0 -2 0 0 0 0 0];

internalField   nonuniform List<scalar> 
4000
(
-0.00286
-0.00279
-0.00267
-0.0029
-0.00283
-0.0028
-0.00278
-0.00278
-0.00278
-0.00279
-0.00279
-0.00257
-0.00277
-0.00282
-0.00271
-0.00276
-0.00271
-0.00279
-0.00277
-0.00276
-0.00267
-0.00277
-0.00272
-0.00286
-0.00277
-0.00271
-0.00273
-0.00272
-0.00274
-0.00273
-0.0029
-0.00282
-0.00286
-0.00292
-0.00282
-0.00282
-0.00288
-0.00287
-0.00282
-0.00284
-0.00283
-0.00271
-0.00277
-0.00282
-0.00277
-0.00275
-0.00279
-0.00275
-0.00277
-0.00277
-0.0028
-0.00276
-0.00271
-0.00282
-0.00275
-0.00272
-0.00275
-0.00278
-0.00276
-0.00276
-0.00278
-0.00271
-0.00273
-0.00288
-0.00279
-0.00275
-0.00277
-0.00279
-0.00278
-0.00277
-0.00278
-0.00279
-0.00272
-0.00287
-0.00275
-0.00278
-0.00279
-0.00281
-0.0028
-0.0028
-0.00278
-0.00277
-0.00274
-0.00282
-0.00277
-0.00276
-0.00278
-0.0028
-0.00279
-0.00281
-0.00279
-0.00276
-0.00273
-0.00284
-0.00277
-0.00276
-0.00277
-0.0028
-0.00281
-0.00275
-0.00889
-0.00887
-0.0086
-0.00905
-0.00885
-0.0088
-0.00884
-0.00884
-0.00885
-0.00882
-0.00887
-0.00861
-0.00892
-0.009
-0.00882
-0.00881
-0.00881
-0.0088
-0.00885
-0.00888
-0.0086
-0.00892
-0.00881
-0.00891
-0.00875
-0.00876
-0.00879
-0.0088
-0.00875
-0.00881
-0.00905
-0.009
-0.00891
-0.00912
-0.00891
-0.00894
-0.00896
-0.00901
-0.00894
-0.00891
-0.00885
-0.00882
-0.00875
-0.00891
-0.0088
-0.00877
-0.00881
-0.00887
-0.0088
-0.00882
-0.0088
-0.00881
-0.00876
-0.00894
-0.00877
-0.00879
-0.0088
-0.0088
-0.00885
-0.00882
-0.00884
-0.00881
-0.00879
-0.00896
-0.00881
-0.0088
-0.00886
-0.00886
-0.00882
-0.00887
-0.00884
-0.0088
-0.0088
-0.00901
-0.00887
-0.0088
-0.00886
-0.00887
-0.00886
-0.00886
-0.00885
-0.00885
-0.00875
-0.00894
-0.0088
-0.00885
-0.00882
-0.00886
-0.00887
-0.00882
-0.00882
-0.00888
-0.00881
-0.00891
-0.00882
-0.00882
-0.00887
-0.00886
-0.00882
-0.00885
-0.01625
-0.01645
-0.01609
-0.01661
-0.01635
-0.0163
-0.01628
-0.01636
-0.01632
-0.01622
-0.01645
-0.01609
-0.01645
-0.01652
-0.0163
-0.01625
-0.01634
-0.01634
-0.01637
-0.01647
-0.01609
-0.01645
-0.01633
-0.01648
-0.01625
-0.01628
-0.01629
-0.01626
-0.01624
-0.01628
-0.01661
-0.01652
-0.01648
-0.01665
-0.01645
-0.01644
-0.0165
-0.01649
-0.01645
-0.01637
-0.01635
-0.0163
-0.01625
-0.01645
-0.01624
-0.01623
-0.01633
-0.01632
-0.01634
-0.01634
-0.0163
-0.01625
-0.01628
-0.01644
-0.01623
-0.01624
-0.01627
-0.01635
-0.01628
-0.01631
-0.01628
-0.01634
-0.01629
-0.0165
-0.01633
-0.01627
-0.01634
-0.0164
-0.01636
-0.01639
-0.01636
-0.01634
-0.01626
-0.01649
-0.01632
-0.01635
-0.0164
-0.01643
-0.01636
-0.01638
-0.01632
-0.01637
-0.01624
-0.01645
-0.01634
-0.01628
-0.01636
-0.01636
-0.01634
-0.01631
-0.01622
-0.01647
-0.01628
-0.01637
-0.01634
-0.01631
-0.01639
-0.01638
-0.01631
-0.01635
-0.02613
-0.02636
-0.02594
-0.02658
-0.02623
-0.02617
-0.02623
-0.02624
-0.02628
-0.02611
-0.02636
-0.02601
-0.02638
-0.02648
-0.02616
-0.02618
-0.02623
-0.02619
-0.02628
-0.02637
-0.02594
-0.02638
-0.02621
-0.02642
-0.02617
-0.02612
-0.02624
-0.02618
-0.02611
-0.02622
-0.02658
-0.02648
-0.02642
-0.02659
-0.02633
-0.02638
-0.02649
-0.02642
-0.02636
-0.02628
-0.02623
-0.02616
-0.02617
-0.02633
-0.02607
-0.02608
-0.02619
-0.02624
-0.02617
-0.02623
-0.02617
-0.02618
-0.02612
-0.02638
-0.02608
-0.0261
-0.0262
-0.02621
-0.02621
-0.02627
-0.02623
-0.02623
-0.02624
-0.02649
-0.02619
-0.0262
-0.02632
-0.02633
-0.02628
-0.02631
-0.02624
-0.02619
-0.02618
-0.02642
-0.02624
-0.02621
-0.02633
-0.02632
-0.02629
-0.02626
-0.02628
-0.02628
-0.02611
-0.02636
-0.02617
-0.02621
-0.02628
-0.02629
-0.02624
-0.02623
-0.02611
-0.02637
-0.02622
-0.02628
-0.02623
-0.02627
-0.02631
-0.02626
-0.02623
-0.02622
-0.03947
-0.03971
-0.03926
-0.03996
-0.03955
-0.03952
-0.03955
-0.03957
-0.03962
-0.03938
-0.03971
-0.03934
-0.03974
-0.03979
-0.0395
-0.0395
-0.03959
-0.03949
-0.03965
-0.03975
-0.03926
-0.03974
-0.03955
-0.03975
-0.03941
-0.03948
-0.03958
-0.03949
-0.03938
-0.03948
-0.03996
-0.03979
-0.03975
-0.03996
-0.03968
-0.03971
-0.03985
-0.03979
-0.03971
-0.03963
-0.03955
-0.0395
-0.03941
-0.03968
-0.03935
-0.03943
-0.03952
-0.03954
-0.0395
-0.03954
-0.03952
-0.0395
-0.03948
-0.03971
-0.03943
-0.0394
-0.03955
-0.03952
-0.03952
-0.03956
-0.03955
-0.03959
-0.03958
-0.03985
-0.03952
-0.03955
-0.03971
-0.03968
-0.03965
-0.03969
-0.03957
-0.03949
-0.03949
-0.03979
-0.03954
-0.03952
-0.03968
-0.03967
-0.03962
-0.03956
-0.03962
-0.03965
-0.03938
-0.03971
-0.0395
-0.03952
-0.03965
-0.03962
-0.03949
-0.03956
-0.03938
-0.03975
-0.03948
-0.03963
-0.03954
-0.03956
-0.03969
-0.03956
-0.03956
-0.03956
-0.057176
-0.057532
-0.056964
-0.05777
-0.057279
-0.057259
-0.057288
-0.057355
-0.057347
-0.057112
-0.057532
-0.05699
-0.057497
-0.057614
-0.057237
-0.057213
-0.057367
-0.057247
-0.057401
-0.057497
-0.056964
-0.057497
-0.057267
-0.057497
-0.057133
-0.057204
-0.057337
-0.057178
-0.057103
-0.057247
-0.05777
-0.057614
-0.057497
-0.057742
-0.057399
-0.057486
-0.057661
-0.057602
-0.057413
-0.057399
-0.057279
-0.057237
-0.057133
-0.057399
-0.057086
-0.05708
-0.057339
-0.057303
-0.057218
-0.05731
-0.057259
-0.057213
-0.057204
-0.057486
-0.05708
-0.057137
-0.057341
-0.057326
-0.057262
-0.05736
-0.057288
-0.057367
-0.057337
-0.057661
-0.057339
-0.057341
-0.05751
-0.057519
-0.057439
-0.057504
-0.057355
-0.057247
-0.057178
-0.057602
-0.057303
-0.057326
-0.057519
-0.057421
-0.057401
-0.057239
-0.057347
-0.057401
-0.057103
-0.057413
-0.057218
-0.057262
-0.057439
-0.057401
-0.05719
-0.057355
-0.057112
-0.057497
-0.057247
-0.057399
-0.05731
-0.05736
-0.057504
-0.057239
-0.057355
-0.057289
-0.080409
-0.080755
-0.080136
-0.081047
-0.080522
-0.080469
-0.080555
-0.080578
-0.080633
-0.080286
-0.080755
-0.080213
-0.080739
-0.080854
-0.080418
-0.080453
-0.080587
-0.080499
-0.080665
-0.080793
-0.080136
-0.080739
-0.080517
-0.080751
-0.08037
-0.080419
-0.080607
-0.080421
-0.080309
-0.080479
-0.081047
-0.080854
-0.080751
-0.081038
-0.080652
-0.080713
-0.080963
-0.080856
-0.080695
-0.080631
-0.080522
-0.080418
-0.08037
-0.080652
-0.080261
-0.080317
-0.08057
-0.080521
-0.08047
-0.080535
-0.080469
-0.080453
-0.080419
-0.080713
-0.080317
-0.080361
-0.0806
-0.080548
-0.080505
-0.080603
-0.080555
-0.080587
-0.080607
-0.080963
-0.08057
-0.0806
-0.080842
-0.080784
-0.080738
-0.08078
-0.080578
-0.080499
-0.080421
-0.080856
-0.080521
-0.080548
-0.080784
-0.080735
-0.080638
-0.080484
-0.080633
-0.080665
-0.080309
-0.080695
-0.08047
-0.080505
-0.080738
-0.080638
-0.080386
-0.080598
-0.080286
-0.080793
-0.080479
-0.080631
-0.080535
-0.080603
-0.08078
-0.080484
-0.080598
-0.080529
-0.110214
-0.110598
-0.109922
-0.110927
-0.110331
-0.110286
-0.110383
-0.110416
-0.110471
-0.11008
-0.110598
-0.110005
-0.110578
-0.110707
-0.110218
-0.110265
-0.110438
-0.110316
-0.1105
-0.110651
-0.109922
-0.110578
-0.110323
-0.11059
-0.110156
-0.110231
-0.110452
-0.110235
-0.110103
-0.1103
-0.110927
-0.110707
-0.11059
-0.1109
-0.110477
-0.110555
-0.110852
-0.110723
-0.110526
-0.11047
-0.110331
-0.110218
-0.110156
-0.110477
-0.110039
-0.110106
-0.110412
-0.11035
-0.110281
-0.110362
-0.110286
-0.110265
-0.110231
-0.110555
-0.110106
-0.11016
-0.110451
-0.110382
-0.11033
-0.110446
-0.110383
-0.110438
-0.110452
-0.110852
-0.110412
-0.110451
-0.11074
-0.110675
-0.110612
-0.110669
-0.110416
-0.110316
-0.110235
-0.110723
-0.11035
-0.110382
-0.110675
-0.110604
-0.110492
-0.110276
-0.110471
-0.1105
-0.110103
-0.110526
-0.110281
-0.11033
-0.110612
-0.110492
-0.110176
-0.110444
-0.11008
-0.110651
-0.1103
-0.11047
-0.110362
-0.110446
-0.110669
-0.110276
-0.110444
-0.11035
-0.147762
-0.14818
-0.147443
-0.148539
-0.147888
-0.147834
-0.147957
-0.147987
-0.148054
-0.147612
-0.14818
-0.147531
-0.148153
-0.148298
-0.147758
-0.147819
-0.148017
-0.14788
-0.148085
-0.14825
-0.147443
-0.148153
-0.147875
-0.148167
-0.147691
-0.14778
-0.148046
-0.147784
-0.147647
-0.147861
-0.148539
-0.148298
-0.148167
-0.14851
-0.14804
-0.148134
-0.148481
-0.148325
-0.148106
-0.148042
-0.147888
-0.147758
-0.147691
-0.14804
-0.147557
-0.147637
-0.147994
-0.147914
-0.147835
-0.147931
-0.147834
-0.147819
-0.14778
-0.148134
-0.147637
-0.147695
-0.148043
-0.147959
-0.147894
-0.14803
-0.147957
-0.148017
-0.148046
-0.148481
-0.147994
-0.148043
-0.148375
-0.148296
-0.148229
-0.148292
-0.147987
-0.14788
-0.147784
-0.148325
-0.147914
-0.147959
-0.148296
-0.14821
-0.148084
-0.147817
-0.148054
-0.148085
-0.147647
-0.148106
-0.147835
-0.147894
-0.148229
-0.148084
-0.147701
-0.14803
-0.147612
-0.14825
-0.147861
-0.148042
-0.147931
-0.14803
-0.148292
-0.147817
-0.14803
-0.147918
-0.194268
-0.194711
-0.193919
-0.195108
-0.194395
-0.194347
-0.194483
-0.194524
-0.194588
-0.194102
-0.194711
-0.194019
-0.19469
-0.194838
-0.194251
-0.194324
-0.194554
-0.194396
-0.194627
-0.194802
-0.193919
-0.19469
-0.194387
-0.194703
-0.19418
-0.194285
-0.194592
-0.1943
-0.194135
-0.194381
-0.195108
-0.194838
-0.194703
-0.195065
-0.194556
-0.194666
-0.195063
-0.194884
-0.194639
-0.194572
-0.194395
-0.194251
-0.19418
-0.194556
-0.194026
-0.194124
-0.194527
-0.194438
-0.194343
-0.194452
-0.194347
-0.194324
-0.194285
-0.194666
-0.194124
-0.194195
-0.194581
-0.194485
-0.194412
-0.194563
-0.194483
-0.194554
-0.194592
-0.195063
-0.194527
-0.194581
-0.194972
-0.194873
-0.194796
-0.194871
-0.194524
-0.194396
-0.1943
-0.194884
-0.194438
-0.194485
-0.194873
-0.194772
-0.194635
-0.194313
-0.194588
-0.194627
-0.194135
-0.194639
-0.194343
-0.194412
-0.194796
-0.194635
-0.19418
-0.194571
-0.194102
-0.194802
-0.194381
-0.194572
-0.194452
-0.194563
-0.194871
-0.194313
-0.194571
-0.194433
-0.2510105
-0.2514849
-0.2506392
-0.2519178
-0.2511449
-0.2510914
-0.25125
-0.2512932
-0.2513722
-0.250825
-0.2514849
-0.2507525
-0.2514593
-0.251616
-0.2509882
-0.2510701
-0.2513334
-0.251149
-0.2514052
-0.2515985
-0.2506392
-0.2514593
-0.251139
-0.2514721
-0.2509102
-0.2510295
-0.2513729
-0.2510516
-0.2508697
-0.2511369
-0.2519178
-0.251616
-0.2514721
-0.2518667
-0.2513105
-0.2514398
-0.2518832
-0.2516844
-0.2514139
-0.2513425
-0.2511449
-0.2509882
-0.2509102
-0.2513105
-0.2507425
-0.2508455
-0.2513024
-0.2511908
-0.2510935
-0.2512107
-0.2510914
-0.2510701
-0.2510295
-0.2514398
-0.2508455
-0.2509284
-0.2513618
-0.2512518
-0.2511635
-0.2513435
-0.25125
-0.2513334
-0.2513729
-0.2518832
-0.2513024
-0.2513618
-0.2517989
-0.2516851
-0.2516024
-0.2516838
-0.2512932
-0.251149
-0.2510516
-0.2516844
-0.2511908
-0.2512518
-0.2516851
-0.2515741
-0.2514192
-0.2510493
-0.2513722
-0.2514052
-0.2508697
-0.2514139
-0.2510935
-0.2511635
-0.2516024
-0.2514192
-0.2509053
-0.2513457
-0.250825
-0.2515985
-0.2511369
-0.2513425
-0.2512107
-0.2513435
-0.2516838
-0.2510493
-0.2513457
-0.2511946
-0.3193628
-0.3198677
-0.318968
-0.3203331
-0.3194969
-0.319447
-0.319626
-0.3196732
-0.3197564
-0.3191617
-0.3198677
-0.3190844
-0.3198419
-0.3200074
-0.319327
-0.3194259
-0.3197206
-0.3195174
-0.3197952
-0.3200026
-0.318968
-0.3198419
-0.3194948
-0.3198523
-0.3192491
-0.319381
-0.3197703
-0.3194094
-0.3192154
-0.3195022
-0.3203331
-0.3200074
-0.3198523
-0.320275
-0.3196752
-0.3198179
-0.3203113
-0.3200871
-0.3197937
-0.31972
-0.3194969
-0.319327
-0.3192491
-0.3196752
-0.319056
-0.3191741
-0.3196829
-0.3195613
-0.3194439
-0.319577
-0.319447
-0.3194259
-0.319381
-0.3198179
-0.3191741
-0.3192622
-0.3197507
-0.3196224
-0.3195292
-0.3197205
-0.319626
-0.3197206
-0.3197703
-0.3203113
-0.3196829
-0.3197507
-0.3202304
-0.3201066
-0.3200172
-0.3201092
-0.3196732
-0.3195174
-0.3194094
-0.3200871
-0.3195613
-0.3196224
-0.3201066
-0.319982
-0.3198129
-0.3193902
-0.3197564
-0.3197952
-0.3192154
-0.3197937
-0.3194439
-0.3195292
-0.3200172
-0.3198129
-0.319233
-0.3197347
-0.3191617
-0.3200026
-0.3195022
-0.31972
-0.319577
-0.3197205
-0.3201092
-0.3193902
-0.3197347
-0.31956
-0.4007815
-0.4013179
-0.4003662
-0.4018138
-0.4009219
-0.4008714
-0.401064
-0.4011232
-0.4012072
-0.400568
-0.4013179
-0.4004875
-0.4012913
-0.401464
-0.4007342
-0.4008441
-0.4011764
-0.40095
-0.4012532
-0.4014695
-0.4003662
-0.4012913
-0.400921
-0.4013011
-0.4006502
-0.4007985
-0.4012309
-0.4008386
-0.4006237
-0.4009349
-0.4018138
-0.401464
-0.4013011
-0.4017427
-0.4011075
-0.4012598
-0.4018032
-0.4015624
-0.4012439
-0.4011605
-0.4009219
-0.4007342
-0.4006502
-0.4011075
-0.4004405
-0.4005685
-0.4011274
-0.4009908
-0.4008625
-0.4010127
-0.4008714
-0.4008441
-0.4007985
-0.4012598
-0.4005685
-0.4006674
-0.4012018
-0.4010568
-0.4009575
-0.4011645
-0.401064
-0.4011764
-0.4012309
-0.4018032
-0.4011274
-0.4012018
-0.4017269
-0.4015871
-0.4014924
-0.4015968
-0.4011232
-0.40095
-0.4008386
-0.4015624
-0.4009908
-0.4010568
-0.4015871
-0.4014551
-0.4012762
-0.4007993
-0.4012072
-0.4012532
-0.4006237
-0.4012439
-0.4008625
-0.4009575
-0.4014924
-0.4012762
-0.4006283
-0.4011867
-0.400568
-0.4014695
-0.4009349
-0.4011605
-0.4010127
-0.4011645
-0.4015968
-0.4007993
-0.4011867
-0.4009936
-0.496833
-0.497394
-0.496396
-0.497927
-0.49697
-0.496921
-0.49714
-0.497199
-0.497298
-0.4966
-0.497394
-0.496531
-0.497368
-0.497548
-0.496775
-0.496896
-0.497259
-0.497012
-0.497335
-0.497575
-0.496396
-0.497368
-0.496979
-0.497378
-0.496689
-0.49685
-0.49732
-0.496898
-0.496668
-0.496998
-0.497927
-0.497548
-0.497378
-0.497844
-0.497161
-0.497332
-0.497929
-0.49766
-0.497319
-0.497236
-0.49697
-0.496775
-0.496689
-0.497161
-0.496457
-0.496592
-0.497201
-0.497055
-0.496917
-0.497072
-0.496921
-0.496896
-0.49685
-0.497332
-0.496592
-0.496698
-0.497275
-0.497121
-0.497007
-0.497244
-0.49714
-0.497259
-0.49732
-0.497929
-0.497201
-0.497275
-0.497854
-0.497704
-0.4976
-0.497716
-0.497199
-0.497012
-0.496898
-0.49766
-0.497055
-0.497121
-0.497704
-0.497557
-0.497365
-0.496837
-0.497298
-0.497335
-0.496668
-0.497319
-0.496917
-0.497007
-0.4976
-0.497365
-0.496653
-0.497271
-0.4966
-0.497575
-0.496998
-0.497236
-0.497072
-0.497244
-0.497716
-0.496837
-0.497271
-0.497057
-0.609196
-0.60978
-0.608738
-0.610344
-0.609338
-0.609284
-0.609521
-0.609588
-0.609694
-0.608945
-0.60978
-0.608882
-0.609755
-0.609943
-0.609121
-0.609256
-0.609646
-0.609394
-0.60973
-0.60998
-0.608738
-0.609755
-0.609351
-0.609762
-0.609032
-0.60921
-0.609724
-0.609268
-0.609024
-0.609375
-0.610344
-0.609943
-0.609762
-0.610252
-0.609532
-0.609712
-0.610354
-0.610076
-0.609702
-0.609618
-0.609338
-0.609121
-0.609032
-0.609532
-0.608777
-0.608922
-0.609584
-0.609421
-0.609274
-0.609442
-0.609284
-0.609256
-0.60921
-0.609712
-0.608922
-0.60903
-0.609664
-0.609493
-0.609373
-0.609621
-0.609521
-0.609646
-0.609724
-0.610354
-0.609584
-0.609664
-0.610278
-0.610121
-0.61001
-0.610143
-0.609588
-0.609394
-0.609268
-0.610076
-0.609421
-0.609493
-0.610121
-0.609967
-0.609763
-0.609187
-0.609694
-0.60973
-0.609024
-0.609702
-0.609274
-0.609373
-0.61001
-0.609763
-0.608992
-0.609658
-0.608945
-0.60998
-0.609375
-0.609618
-0.609442
-0.609621
-0.610143
-0.609187
-0.609658
-0.60943
-0.739677
-0.740291
-0.739199
-0.740878
-0.739818
-0.739765
-0.74002
-0.740093
-0.740203
-0.739413
-0.740291
-0.739347
-0.740262
-0.740459
-0.739587
-0.739734
-0.740161
-0.739881
-0.740248
-0.740506
-0.739199
-0.740262
-0.73984
-0.740265
-0.739496
-0.739684
-0.740242
-0.739757
-0.739495
-0.739868
-0.740878
-0.740459
-0.740265
-0.740778
-0.740015
-0.740207
-0.7409
-0.740596
-0.740206
-0.740118
-0.739818
-0.739587
-0.739496
-0.740015
-0.739214
-0.739374
-0.740078
-0.739912
-0.739744
-0.739931
-0.739765
-0.739734
-0.739684
-0.740207
-0.739374
-0.739484
-0.740157
-0.739982
-0.739851
-0.740123
-0.74002
-0.740161
-0.740242
-0.7409
-0.740078
-0.740157
-0.740824
-0.740651
-0.740538
-0.740681
-0.740093
-0.739881
-0.739757
-0.740596
-0.739912
-0.739982
-0.740651
-0.740491
-0.740278
-0.739655
-0.740203
-0.740248
-0.739495
-0.740206
-0.739744
-0.739851
-0.740538
-0.740278
-0.739442
-0.740168
-0.739413
-0.740506
-0.739868
-0.740118
-0.739931
-0.740123
-0.740681
-0.739655
-0.740168
-0.739921
-0.890228
-0.890863
-0.88973
-0.891477
-0.890374
-0.890306
-0.890589
-0.890666
-0.890785
-0.889947
-0.890863
-0.889893
-0.890831
-0.891039
-0.890118
-0.890277
-0.890733
-0.890442
-0.890831
-0.891094
-0.88973
-0.890831
-0.890391
-0.890834
-0.890031
-0.89023
-0.890827
-0.890319
-0.890038
-0.890428
-0.891477
-0.891039
-0.890834
-0.891366
-0.890563
-0.890763
-0.891505
-0.89119
-0.890769
-0.89068
-0.890374
-0.890118
-0.890031
-0.890563
-0.889723
-0.889885
-0.890648
-0.890458
-0.890295
-0.890483
-0.890306
-0.890277
-0.89023
-0.890763
-0.889885
-0.889993
-0.890718
-0.890521
-0.890393
-0.890679
-0.890589
-0.890733
-0.890827
-0.891505
-0.890648
-0.890718
-0.891423
-0.891249
-0.891127
-0.891294
-0.890666
-0.890442
-0.890319
-0.89119
-0.890458
-0.890521
-0.891249
-0.891085
-0.890855
-0.890186
-0.890785
-0.890831
-0.890038
-0.890769
-0.890295
-0.890393
-0.891127
-0.890855
-0.889958
-0.890745
-0.889947
-0.891094
-0.890428
-0.89068
-0.890483
-0.890679
-0.891294
-0.890186
-0.890745
-0.890476
-1.062957
-1.063578
-1.062463
-1.06423
-1.063097
-1.06304
-1.063303
-1.063399
-1.06355
-1.062647
-1.063578
-1.062597
-1.063598
-1.063774
-1.062852
-1.062984
-1.063499
-1.063211
-1.063543
-1.063884
-1.062463
-1.063598
-1.063124
-1.063602
-1.062731
-1.062916
-1.063565
-1.06303
-1.062765
-1.06315
-1.06423
-1.063774
-1.063602
-1.064113
-1.063288
-1.063521
-1.064289
-1.063934
-1.063525
-1.063438
-1.063097
-1.062852
-1.062731
-1.063288
-1.062421
-1.062545
-1.063357
-1.063205
-1.062969
-1.063187
-1.06304
-1.062984
-1.062916
-1.063521
-1.062545
-1.062708
-1.063435
-1.063273
-1.06308
-1.063446
-1.063303
-1.063499
-1.063565
-1.064289
-1.063357
-1.063435
-1.064218
-1.064007
-1.063901
-1.064053
-1.063399
-1.063211
-1.06303
-1.063934
-1.063205
-1.063273
-1.064007
-1.063821
-1.063609
-1.062911
-1.06355
-1.063543
-1.062765
-1.063525
-1.062969
-1.06308
-1.063901
-1.063609
-1.062666
-1.063457
-1.062647
-1.063884
-1.06315
-1.063438
-1.063187
-1.063446
-1.064053
-1.062911
-1.063457
-1.063233
-1.26011
-1.2608
-1.25962
-1.26145
-1.26025
-1.26019
-1.26051
-1.26058
-1.26075
-1.25982
-1.2608
-1.25975
-1.26076
-1.26096
-1.25998
-1.26018
-1.26063
-1.26035
-1.26078
-1.26103
-1.25962
-1.26076
-1.26032
-1.26078
-1.25986
-1.26007
-1.26081
-1.26021
-1.25992
-1.26037
-1.26145
-1.26096
-1.26078
-1.2613
-1.26043
-1.26068
-1.2615
-1.26116
-1.26067
-1.26057
-1.26025
-1.25998
-1.25986
-1.26043
-1.25952
-1.25968
-1.26053
-1.26036
-1.26018
-1.26036
-1.26019
-1.26018
-1.26007
-1.26068
-1.25968
-1.25982
-1.26061
-1.26041
-1.26025
-1.26057
-1.26051
-1.26063
-1.26081
-1.2615
-1.26053
-1.26061
-1.26137
-1.26123
-1.26108
-1.26129
-1.26058
-1.26035
-1.26021
-1.26116
-1.26036
-1.26041
-1.26123
-1.26105
-1.26079
-1.26004
-1.26075
-1.26078
-1.25992
-1.26067
-1.26018
-1.26025
-1.26108
-1.26079
-1.25981
-1.26068
-1.25982
-1.26103
-1.26037
-1.26057
-1.26036
-1.26057
-1.26129
-1.26004
-1.26068
-1.26038
-1.48417
-1.48486
-1.48364
-1.48553
-1.48434
-1.48425
-1.48454
-1.48469
-1.48482
-1.48385
-1.48486
-1.48381
-1.48486
-1.48508
-1.48405
-1.48419
-1.48479
-1.48441
-1.48488
-1.48513
-1.48364
-1.48486
-1.48438
-1.48484
-1.48395
-1.48417
-1.48485
-1.48429
-1.48398
-1.4844
-1.48553
-1.48508
-1.48484
-1.48539
-1.48448
-1.48473
-1.48556
-1.48524
-1.48474
-1.48468
-1.48434
-1.48405
-1.48395
-1.48448
-1.48356
-1.48371
-1.48464
-1.4844
-1.48417
-1.48446
-1.48425
-1.48419
-1.48417
-1.48473
-1.48371
-1.4838
-1.48466
-1.48446
-1.48431
-1.48463
-1.48454
-1.48479
-1.48485
-1.48556
-1.48464
-1.48466
-1.48552
-1.48528
-1.48517
-1.48541
-1.48469
-1.48441
-1.48429
-1.48524
-1.4844
-1.48446
-1.48528
-1.48513
-1.48489
-1.48407
-1.48482
-1.48488
-1.48398
-1.48474
-1.48417
-1.48431
-1.48517
-1.48489
-1.4838
-1.48474
-1.48385
-1.48513
-1.4844
-1.48468
-1.48446
-1.48463
-1.48541
-1.48407
-1.48474
-1.48444
-1.73777
-1.73848
-1.73724
-1.73916
-1.73792
-1.73782
-1.7382
-1.73826
-1.73844
-1.73747
-1.73848
-1.73746
-1.7384
-1.7387
-1.73764
-1.73777
-1.73833
-1.73806
-1.73847
-1.73877
-1.73724
-1.7384
-1.73802
-1.73841
-1.73751
-1.73768
-1.7385
-1.73787
-1.73754
-1.73801
-1.73916
-1.7387
-1.73841
-1.739
-1.73809
-1.73829
-1.73922
-1.73885
-1.73833
-1.73826
-1.73792
-1.73764
-1.73751
-1.73809
-1.73708
-1.73728
-1.73822
-1.73799
-1.73781
-1.73797
-1.73782
-1.73777
-1.73768
-1.73829
-1.73728
-1.73733
-1.73822
-1.738
-1.73786
-1.73827
-1.7382
-1.73833
-1.7385
-1.73922
-1.73822
-1.73822
-1.73909
-1.73894
-1.73877
-1.73904
-1.73826
-1.73806
-1.73787
-1.73885
-1.73799
-1.738
-1.73894
-1.73872
-1.73849
-1.73767
-1.73844
-1.73847
-1.73754
-1.73833
-1.73781
-1.73786
-1.73877
-1.73849
-1.73736
-1.73835
-1.73747
-1.73877
-1.73801
-1.73826
-1.73797
-1.73827
-1.73904
-1.73767
-1.73835
-1.73804
-2.02372
-2.02438
-2.02318
-2.0251
-2.02389
-2.02374
-2.02409
-2.02424
-2.02439
-2.02337
-2.02438
-2.02339
-2.0244
-2.02463
-2.02356
-2.02369
-2.0243
-2.02395
-2.02441
-2.02469
-2.02318
-2.0244
-2.02393
-2.02439
-2.02341
-2.02366
-2.02439
-2.02381
-2.02351
-2.02395
-2.0251
-2.02463
-2.02439
-2.02497
-2.024
-2.02419
-2.02519
-2.02476
-2.0243
-2.02419
-2.02389
-2.02356
-2.02341
-2.024
-2.02303
-2.02313
-2.02413
-2.02391
-2.02367
-2.02395
-2.02374
-2.02369
-2.02366
-2.02419
-2.02313
-2.02324
-2.02416
-2.02395
-2.02376
-2.02418
-2.02409
-2.0243
-2.02439
-2.02519
-2.02413
-2.02416
-2.02509
-2.02485
-2.02473
-2.02497
-2.02424
-2.02395
-2.02381
-2.02476
-2.02391
-2.02395
-2.02485
-2.02467
-2.02444
-2.02356
-2.02439
-2.02441
-2.02351
-2.0243
-2.02367
-2.02376
-2.02473
-2.02444
-2.02325
-2.0243
-2.02337
-2.02469
-2.02395
-2.02419
-2.02395
-2.02418
-2.02497
-2.02356
-2.0243
-2.02397
-2.34497
-2.34568
-2.34447
-2.34635
-2.34517
-2.34499
-2.34534
-2.34551
-2.34564
-2.34462
-2.34568
-2.3446
-2.34562
-2.34589
-2.34481
-2.34489
-2.34554
-2.34523
-2.34566
-2.34599
-2.34447
-2.34562
-2.34519
-2.34563
-2.34467
-2.34485
-2.3457
-2.34506
-2.34475
-2.34523
-2.34635
-2.34589
-2.34563
-2.34617
-2.34523
-2.34543
-2.34644
-2.34606
-2.34549
-2.34543
-2.34517
-2.34481
-2.34467
-2.34523
-2.34422
-2.34435
-2.34534
-2.34513
-2.34494
-2.34516
-2.34499
-2.34489
-2.34485
-2.34543
-2.34435
-2.34439
-2.34539
-2.34516
-2.34497
-2.34541
-2.34534
-2.34554
-2.3457
-2.34644
-2.34534
-2.34539
-2.34629
-2.34613
-2.346
-2.34628
-2.34551
-2.34523
-2.34506
-2.34606
-2.34513
-2.34516
-2.34613
-2.34595
-2.34572
-2.34476
-2.34564
-2.34566
-2.34475
-2.34549
-2.34494
-2.34497
-2.346
-2.34572
-2.34446
-2.34557
-2.34462
-2.34599
-2.34523
-2.34543
-2.34516
-2.34541
-2.34628
-2.34476
-2.34557
-2.34521
-2.70461
-2.70529
-2.7041
-2.70596
-2.70482
-2.70461
-2.70498
-2.70513
-2.70531
-2.70427
-2.70529
-2.70428
-2.70524
-2.70557
-2.7044
-2.70455
-2.7052
-2.70487
-2.70528
-2.7056
-2.7041
-2.70524
-2.70485
-2.7053
-2.7043
-2.70447
-2.70531
-2.70472
-2.70438
-2.70484
-2.70596
-2.70557
-2.7053
-2.70582
-2.70486
-2.70504
-2.70604
-2.70562
-2.70511
-2.70507
-2.70482
-2.7044
-2.7043
-2.70486
-2.70383
-2.70392
-2.70503
-2.70477
-2.70453
-2.70477
-2.70461
-2.70455
-2.70447
-2.70504
-2.70392
-2.70395
-2.70495
-2.70473
-2.7046
-2.70504
-2.70498
-2.7052
-2.70531
-2.70604
-2.70503
-2.70495
-2.70597
-2.70571
-2.70566
-2.70594
-2.70513
-2.70487
-2.70472
-2.70562
-2.70477
-2.70473
-2.70571
-2.70558
-2.7053
-2.70439
-2.70531
-2.70528
-2.70438
-2.70511
-2.70453
-2.7046
-2.70566
-2.7053
-2.70405
-2.70518
-2.70427
-2.7056
-2.70484
-2.70507
-2.70477
-2.70504
-2.70594
-2.70439
-2.70518
-2.70486
-3.1057
-3.10637
-3.10521
-3.10702
-3.10591
-3.10565
-3.10607
-3.10621
-3.10636
-3.10536
-3.10637
-3.10535
-3.1063
-3.10663
-3.10554
-3.10556
-3.10626
-3.10591
-3.10637
-3.10667
-3.10521
-3.1063
-3.10592
-3.10633
-3.10536
-3.10548
-3.10635
-3.10579
-3.10548
-3.10591
-3.10702
-3.10663
-3.10633
-3.10687
-3.10587
-3.10606
-3.10707
-3.1067
-3.10613
-3.10612
-3.10591
-3.10554
-3.10536
-3.10587
-3.10489
-3.10496
-3.10606
-3.10584
-3.10554
-3.10586
-3.10565
-3.10556
-3.10548
-3.10606
-3.10496
-3.10496
-3.10602
-3.10579
-3.10566
-3.10609
-3.10607
-3.10626
-3.10635
-3.10707
-3.10606
-3.10602
-3.10698
-3.10682
-3.10668
-3.10698
-3.10621
-3.10591
-3.10579
-3.1067
-3.10584
-3.10579
-3.10682
-3.10662
-3.10639
-3.10544
-3.10636
-3.10637
-3.10548
-3.10613
-3.10554
-3.10566
-3.10668
-3.10639
-3.1051
-3.10627
-3.10536
-3.10667
-3.10591
-3.10612
-3.10586
-3.10609
-3.10698
-3.10544
-3.10627
-3.1059
-3.55102
-3.55168
-3.55057
-3.55229
-3.55127
-3.55097
-3.55134
-3.55156
-3.55168
-3.55071
-3.55168
-3.55074
-3.55161
-3.55198
-3.55087
-3.55087
-3.55158
-3.55123
-3.55167
-3.55196
-3.55057
-3.55161
-3.55126
-3.55165
-3.5507
-3.55079
-3.55165
-3.55109
-3.55079
-3.55126
-3.55229
-3.55198
-3.55165
-3.55214
-3.55119
-3.55133
-3.55241
-3.55194
-3.55146
-3.55139
-3.55127
-3.55087
-3.5507
-3.55119
-3.55017
-3.55027
-3.55133
-3.55109
-3.55085
-3.55116
-3.55097
-3.55087
-3.55079
-3.55133
-3.55027
-3.55019
-3.55126
-3.55104
-3.55094
-3.55141
-3.55134
-3.55158
-3.55165
-3.55241
-3.55133
-3.55126
-3.55228
-3.5521
-3.552
-3.55236
-3.55156
-3.55123
-3.55109
-3.55194
-3.55109
-3.55104
-3.5521
-3.55192
-3.55169
-3.55069
-3.55168
-3.55167
-3.55079
-3.55146
-3.55085
-3.55094
-3.552
-3.55169
-3.55037
-3.55155
-3.55071
-3.55196
-3.55126
-3.55139
-3.55116
-3.55141
-3.55236
-3.55069
-3.55155
-3.55125
-4.04286
-4.04347
-4.04243
-4.044
-4.04313
-4.04278
-4.04314
-4.04331
-4.04349
-4.04253
-4.04347
-4.04256
-4.04337
-4.04379
-4.04264
-4.04262
-4.04336
-4.04303
-4.04347
-4.04367
-4.04243
-4.04337
-4.04305
-4.04343
-4.04249
-4.04257
-4.04344
-4.04287
-4.04259
-4.04309
-4.044
-4.04379
-4.04343
-4.04388
-4.04296
-4.04301
-4.04409
-4.04369
-4.0432
-4.04314
-4.04313
-4.04264
-4.04249
-4.04296
-4.04196
-4.04201
-4.04314
-4.04286
-4.04262
-4.04293
-4.04278
-4.04262
-4.04257
-4.04301
-4.04201
-4.04192
-4.04301
-4.04281
-4.04266
-4.04318
-4.04314
-4.04336
-4.04344
-4.04409
-4.04314
-4.04301
-4.04402
-4.04384
-4.04377
-4.0441
-4.04331
-4.04303
-4.04287
-4.04369
-4.04286
-4.04281
-4.04384
-4.04366
-4.04349
-4.04249
-4.04349
-4.04347
-4.04259
-4.0432
-4.04262
-4.04266
-4.04377
-4.04349
-4.04209
-4.04335
-4.04253
-4.04367
-4.04309
-4.04314
-4.04293
-4.04318
-4.0441
-4.04249
-4.04335
-4.04304
-4.58217
-4.58274
-4.58175
-4.58326
-4.58242
-4.58204
-4.58239
-4.58261
-4.58271
-4.58186
-4.58274
-4.58186
-4.5826
-4.58305
-4.58199
-4.58187
-4.5826
-4.5823
-4.58268
-4.58292
-4.58175
-4.5826
-4.58239
-4.58266
-4.58178
-4.58176
-4.5827
-4.58212
-4.58186
-4.58237
-4.58326
-4.58305
-4.58266
-4.58307
-4.58221
-4.58224
-4.58329
-4.58289
-4.58239
-4.58239
-4.58242
-4.58199
-4.58178
-4.58221
-4.58126
-4.58126
-4.58233
-4.58212
-4.58185
-4.58214
-4.58204
-4.58187
-4.58176
-4.58224
-4.58126
-4.58114
-4.58219
-4.582
-4.58194
-4.58249
-4.58239
-4.5826
-4.5827
-4.58329
-4.58233
-4.58219
-4.58328
-4.58308
-4.58302
-4.5834
-4.58261
-4.5823
-4.58212
-4.58289
-4.58212
-4.582
-4.58308
-4.58291
-4.58271
-4.5817
-4.58271
-4.58268
-4.58186
-4.58239
-4.58185
-4.58194
-4.58302
-4.58271
-4.58138
-4.58261
-4.58186
-4.58292
-4.58237
-4.58239
-4.58214
-4.58249
-4.5834
-4.5817
-4.58261
-4.5823
-5.16789
-5.1684
-5.16754
-5.16882
-5.16819
-5.16771
-5.16808
-5.16828
-5.16838
-5.16762
-5.1684
-5.16762
-5.16828
-5.16875
-5.16769
-5.16759
-5.16827
-5.16801
-5.16833
-5.16854
-5.16754
-5.16828
-5.16807
-5.16837
-5.16747
-5.16749
-5.16827
-5.16779
-5.16761
-5.16807
-5.16882
-5.16875
-5.16837
-5.16869
-5.16783
-5.16787
-5.16893
-5.16847
-5.16801
-5.16805
-5.16819
-5.16769
-5.16747
-5.16783
-5.16695
-5.16691
-5.16801
-5.16774
-5.16752
-5.16785
-5.16771
-5.16759
-5.16749
-5.16787
-5.16691
-5.16677
-5.16789
-5.16766
-5.16762
-5.16814
-5.16808
-5.16827
-5.16827
-5.16893
-5.16801
-5.16789
-5.16883
-5.16873
-5.16868
-5.16904
-5.16828
-5.16801
-5.16779
-5.16847
-5.16774
-5.16766
-5.16873
-5.16857
-5.16834
-5.16737
-5.16838
-5.16833
-5.16761
-5.16801
-5.16752
-5.16762
-5.16868
-5.16834
-5.16697
-5.16833
-5.16762
-5.16854
-5.16807
-5.16805
-5.16785
-5.16814
-5.16904
-5.16737
-5.16833
-5.16799
-5.79566
-5.79613
-5.7953
-5.79647
-5.79595
-5.79547
-5.79577
-5.79599
-5.79608
-5.79541
-5.79613
-5.79537
-5.79593
-5.79645
-5.79544
-5.7953
-5.79591
-5.79573
-5.796
-5.7962
-5.7953
-5.79593
-5.7958
-5.79602
-5.79522
-5.79513
-5.79602
-5.79547
-5.79532
-5.79575
-5.79647
-5.79645
-5.79602
-5.79631
-5.79557
-5.79549
-5.79649
-5.79609
-5.79567
-5.79575
-5.79595
-5.79544
-5.79522
-5.79557
-5.79469
-5.79464
-5.79573
-5.79543
-5.79519
-5.79557
-5.79547
-5.7953
-5.79513
-5.79549
-5.79464
-5.7945
-5.79553
-5.79531
-5.79531
-5.79588
-5.79577
-5.79591
-5.79602
-5.79649
-5.79573
-5.79553
-5.79652
-5.79636
-5.79641
-5.79675
-5.79599
-5.79573
-5.79547
-5.79609
-5.79543
-5.79531
-5.79636
-5.79623
-5.79602
-5.79511
-5.79608
-5.796
-5.79532
-5.79567
-5.79519
-5.79531
-5.79641
-5.79602
-5.79473
-5.79599
-5.79541
-5.7962
-5.79575
-5.79575
-5.79557
-5.79588
-5.79675
-5.79511
-5.79599
-5.79573
-6.456113
-6.4565
-6.455791
-6.456813
-6.4564
-6.455882
-6.45623
-6.456349
-6.456473
-6.455898
-6.4565
-6.455794
-6.456375
-6.456789
-6.455954
-6.455734
-6.456341
-6.456112
-6.456378
-6.456506
-6.455791
-6.456375
-6.45616
-6.45641
-6.455706
-6.45555
-6.456374
-6.455901
-6.455788
-6.456208
-6.456813
-6.456789
-6.45641
-6.456642
-6.455924
-6.455931
-6.456819
-6.456343
-6.455994
-6.456155
-6.4564
-6.455954
-6.455706
-6.455924
-6.455148
-6.45512
-6.456128
-6.455838
-6.455637
-6.455958
-6.455882
-6.455734
-6.45555
-6.455931
-6.45512
-6.45493
-6.455972
-6.455786
-6.455731
-6.456352
-6.45623
-6.456341
-6.456374
-6.456819
-6.456128
-6.455972
-6.456889
-6.45674
-6.456814
-6.457134
-6.456349
-6.456112
-6.455901
-6.456343
-6.455838
-6.455786
-6.45674
-6.456616
-6.456422
-6.455535
-6.456473
-6.456378
-6.455788
-6.455994