/*--------------------------------*- C++ -*----------------------------------*\
| =========                 |                                                 |
| \\      /  F ield         | OpenFOAM: The Open Source CFD Toolbox           |
|  \\    /   O peration     | Version:  v2106                                 |
|   \\  /    A nd           | Website:  www.openfoam.com                      |
|    \\/     M anipulation  |                                                 |
\*---------------------------------------------------------------------------*/
FoamFile
{
    version     2.0;
    format      ascii;
    arch        "LSB;label=32;scalar=64";
    class       volScalarField;
    location    "20";
    object      Tmode4;
}
// * * * * * * * * * * * * * * * * * * * * * * * * * * * * * * * * * * * * * //

dimensions      [0 0 0 0 0 0 0];

internalField   nonuniform List<scalar> 
4000
(
0.017618959
0.017618958
0.017618947
0.017618959
0.017618961
0.017618951
0.017618943
0.017618939
0.017618937
0.017618937
0.017618958
0.017618946
0.01761895
0.017618962
0.017618958
0.017618947
0.017618939
0.017618936
0.017618935
0.017618937
0.017618947
0.01761895
0.017618953
0.01761896
0.017618955
0.017618944
0.017618938
0.017618935
0.017618935
0.017618937
0.017618959
0.017618962
0.01761896
0.017618966
0.017618961
0.017618952
0.017618947
0.017618945
0.017618944
0.017618945
0.017618961
0.017618958
0.017618955
0.017618961
0.017618958
0.017618951
0.017618948
0.017618948
0.017618949
0.01761895
0.017618951
0.017618947
0.017618944
0.017618952
0.017618951
0.017618947
0.017618946
0.017618948
0.01761895
0.017618953
0.017618943
0.017618939
0.017618938
0.017618947
0.017618948
0.017618946
0.017618948
0.017618951
0.017618954
0.017618957
0.017618939
0.017618936
0.017618935
0.017618945
0.017618948
0.017618948
0.017618951
0.017618955
0.017618958
0.01761896
0.017618937
0.017618935
0.017618935
0.017618944
0.017618949
0.01761895
0.017618954
0.017618958
0.017618959
0.017618961
0.017618937
0.017618937
0.017618937
0.017618945
0.01761895
0.017618953
0.017618957
0.01761896
0.017618961
0.017618963
0.01366873
0.01366873
0.013668715
0.013668742
0.013668741
0.013668713
0.01366869
0.013668679
0.013668675
0.013668674
0.01366873
0.013668716
0.013668726
0.01366875
0.013668737
0.013668707
0.013668686
0.013668677
0.013668676
0.013668679
0.013668715
0.013668726
0.013668733
0.013668747
0.013668731
0.013668703
0.013668686
0.013668678
0.013668677
0.013668684
0.013668742
0.01366875
0.013668747
0.013668757
0.013668743
0.01366872
0.013668707
0.013668702
0.0136687
0.013668703
0.013668741
0.013668737
0.013668731
0.013668743
0.013668733
0.013668717
0.013668711
0.013668711
0.013668713
0.013668716
0.013668713
0.013668707
0.013668703
0.01366872
0.013668717
0.013668708
0.013668709
0.013668715
0.013668721
0.013668727
0.01366869
0.013668686
0.013668686
0.013668707
0.013668711
0.013668709
0.013668715
0.013668725
0.013668733
0.01366874
0.013668679
0.013668677
0.013668678
0.013668702
0.013668711
0.013668715
0.013668725
0.013668735
0.013668742
0.013668748
0.013668675
0.013668676
0.013668677
0.0136687
0.013668713
0.013668721
0.013668733
0.013668742
0.013668747
0.013668752
0.013668674
0.013668679
0.013668684
0.013668703
0.013668716
0.013668727
0.01366874
0.013668748
0.013668752
0.013668757
0.0097922596
0.0097922662
0.0097922537
0.0097922878
0.0097922783
0.0097922355
0.0097922018
0.0097921855
0.0097921806
0.0097921776
0.0097922662
0.0097922527
0.0097922685
0.0097922962
0.0097922725
0.0097922276
0.0097921971
0.0097921832
0.0097921834
0.0097921886
0.0097922537
0.0097922685
0.0097922785
0.0097922935
0.0097922665
0.009792226
0.0097922008
0.0097921885
0.0097921891
0.0097921984
0.0097922878
0.0097922962
0.0097922935
0.0097923039
0.0097922805
0.0097922485
0.0097922319
0.0097922236
0.0097922228
0.0097922276
0.0097922783
0.0097922725
0.0097922665
0.0097922805
0.0097922657
0.0097922449
0.0097922396
0.0097922403
0.0097922446
0.0097922514
0.0097922355
0.0097922276
0.009792226
0.0097922485
0.0097922449
0.0097922358
0.0097922415
0.0097922515
0.0097922627
0.0097922737
0.0097922018
0.0097921971
0.0097922008
0.0097922319
0.0097922396
0.0097922415
0.0097922553
0.0097922704
0.0097922841
0.0097922951
0.0097921855
0.0097921832
0.0097921885
0.0097922236
0.0097922403
0.0097922515
0.0097922704
0.0097922863
0.0097922978
0.0097923059
0.0097921806
0.0097921834
0.0097921891
0.0097922228
0.0097922446
0.0097922627
0.0097922841
0.0097922978
0.0097923061
0.0097923138
0.0097921776
0.0097921886
0.0097921984
0.0097922276
0.0097922514
0.0097922737
0.0097922951
0.0097923059
0.0097923138
0.0097923213
0.0060386114
0.0060386228
0.0060386087
0.0060386463
0.0060386305
0.0060385763
0.0060385349
0.0060385147
0.0060385098
0.0060385066
0.0060386228
0.0060386085
0.0060386258
0.0060386554
0.0060386234
0.0060385681
0.006038531
0.0060385129
0.0060385149
0.0060385227
0.0060386087
0.0060386258
0.0060386356
0.0060386506
0.006038616
0.0060385676
0.006038538
0.0060385217
0.0060385245
0.0060385382
0.0060386463
0.0060386554
0.0060386506
0.0060386612
0.0060386327
0.0060385967
0.006038579
0.0060385685
0.00603857
0.0060385788
0.0060386305
0.0060386234
0.006038616
0.0060386327
0.0060386166
0.0060385963
0.0060385944
0.006038596
0.0060386045
0.0060386159
0.0060385763
0.0060385681
0.0060385676
0.0060385967
0.0060385963
0.0060385921
0.006038605
0.0060386188
0.0060386359
0.0060386518
0.0060385349
0.006038531
0.006038538
0.006038579
0.0060385944
0.006038605
0.0060386285
0.0060386485
0.0060386676
0.0060386821
0.0060385147
0.0060385129
0.0060385217
0.0060385685
0.006038596
0.0060386188
0.0060386485
0.0060386683
0.0060386836
0.0060386943
0.0060385098
0.0060385149
0.0060385245
0.00603857
0.0060386045
0.0060386359
0.0060386676
0.0060386836
0.0060386949
0.0060387081
0.0060385066
0.0060385227
0.0060385382
0.0060385788
0.0060386159
0.0060386518
0.0060386821
0.0060386943
0.0060387081
0.0060387174
0.0024566257
0.0024566386
0.0024566207
0.0024566624
0.0024566435
0.0024565821
0.0024565361
0.0024565134
0.0024565088
0.0024565057
0.0024566386
0.002456621
0.0024566385
0.0024566713
0.0024566348
0.0024565735
0.0024565331
0.0024565122
0.0024565163
0.002456527
0.0024566207
0.0024566385
0.0024566474
0.0024566643
0.0024566263
0.0024565749
0.0024565441
0.0024565253
0.0024565309
0.0024565494
0.0024566624
0.0024566713
0.0024566643
0.0024566773
0.0024566483
0.0024566131
0.0024565977
0.0024565862
0.0024565906
0.0024566037
0.0024566435
0.0024566348
0.0024566263
0.0024566483
0.0024566355
0.0024566204
0.0024566249
0.0024566284
0.0024566411
0.0024566573
0.0024565821
0.0024565735
0.0024565749
0.0024566131
0.0024566204
0.0024566257
0.0024566486
0.0024566667
0.002456689
0.0024567094
0.0024565361
0.0024565331
0.0024565441
0.0024565977
0.0024566249
0.0024566486
0.0024566841
0.0024567088
0.0024567321
0.002456749
0.0024565134
0.0024565122
0.0024565253
0.0024565862
0.0024566284
0.0024566667
0.0024567088
0.0024567318
0.0024567491
0.0024567614
0.0024565088
0.0024565163
0.0024565309
0.0024565906
0.0024566411
0.002456689
0.0024567321
0.0024567491
0.0024567622
0.0024567813
0.0024565057
0.002456527
0.0024565494
0.0024566037
0.0024566573
0.0024567094
0.002456749
0.0024567614
0.0024567813
0.0024567921
-0.00090523437
-0.00090522166
-0.00090524256
-0.00090519476
-0.00090521291
-0.00090527755
-0.00090532474
-0.00090534803
-0.00090535159
-0.00090535382
-0.00090522166
-0.00090524324
-0.0009052246
-0.00090518606
-0.00090522301
-0.00090528604
-0.00090532636
-0.00090534794
-0.00090534086
-0.00090532678
-0.00090524256
-0.0009052246
-0.00090521506
-0.00090519359
-0.00090523069
-0.00090528098
-0.00090530949
-0.00090532868
-0.00090531941
-0.00090529569
-0.00090519476
-0.00090518606
-0.00090519359
-0.00090517505
-0.00090520041
-0.00090523057
-0.00090524033
-0.000905251
-0.00090524296
-0.00090522518
-0.00090521291
-0.00090522301
-0.00090523069
-0.00090520041
-0.00090520562
-0.00090521129
-0.00090519721
-0.00090519025
-0.00090517289
-0.0009051522
-0.00090527755
-0.00090528604
-0.00090528098
-0.00090523057
-0.00090521129
-0.00090519239
-0.00090515663
-0.00090513302
-0.00090510546
-0.00090508137
-0.00090532474
-0.00090532636
-0.00090530949
-0.00090524033
-0.00090519721
-0.00090515663
-0.00090510646
-0.00090507646
-0.00090504958
-0.00090503161
-0.00090534803
-0.00090534794
-0.00090532868
-0.000905251
-0.00090519025
-0.00090513302
-0.00090507646
-0.0009050503
-0.00090503211
-0.00090501926
-0.00090535159
-0.00090534086
-0.00090531941
-0.00090524296
-0.00090517289
-0.00090510546
-0.00090504958
-0.00090503211
-0.00090501812
-0.00090499363
-0.00090535382
-0.00090532678
-0.00090529569
-0.00090522518
-0.0009051522
-0.00090508137
-0.00090503161
-0.00090501926
-0.00090499363
-0.00090498179
-0.0039991097
-0.0039990969
-0.0039991191
-0.0039990628
-0.0039990767
-0.0039991411
-0.0039991865
-0.0039992081
-0.0039992093
-0.00399921
-0.0039990969
-0.0039991218
-0.0039991003
-0.0039990533
-0.0039990872
-0.0039991484
-0.0039991855
-0.0039992056
-0.0039991943
-0.0039991764
-0.0039991191
-0.0039991003
-0.0039990882
-0.0039990593
-0.003999092
-0.0039991375
-0.0039991607
-0.0039991782
-0.003999164
-0.0039991348
-0.0039990628
-0.0039990533
-0.0039990593
-0.0039990324
-0.0039990505
-0.0039990721
-0.0039990733
-0.0039990812
-0.0039990685
-0.0039990459
-0.0039990767
-0.0039990872
-0.003999092
-0.0039990505
-0.0039990446
-0.0039990373
-0.0039990109
-0.0039989989
-0.0039989761
-0.003998951
-0.0039991411
-0.0039991484
-0.0039991375
-0.0039990721
-0.0039990373
-0.0039990015
-0.0039989503
-0.0039989198
-0.0039988867
-0.0039988593
-0.0039991865
-0.0039991855
-0.0039991607
-0.0039990733
-0.0039990109
-0.0039989503
-0.0039988833
-0.0039988469
-0.0039988165
-0.0039987983
-0.0039992081
-0.0039992056
-0.0039991782
-0.0039990812
-0.0039989989
-0.0039989198
-0.0039988469
-0.0039988169
-0.0039987983
-0.0039987858
-0.0039992093
-0.0039991943
-0.003999164
-0.0039990685
-0.0039989761
-0.0039988867
-0.0039988165
-0.0039987983
-0.003998784
-0.0039987549
-0.00399921
-0.0039991764
-0.0039991348
-0.0039990459
-0.003998951
-0.0039988593
-0.0039987983
-0.0039987858
-0.0039987549
-0.0039987427
-0.0067780807
-0.0067780669
-0.0067780885
-0.0067780217
-0.0067780285
-0.0067780898
-0.006778131
-0.0067781491
-0.0067781467
-0.0067781453
-0.0067780669
-0.0067780939
-0.0067780678
-0.0067780101
-0.0067780381
-0.0067780947
-0.0067781261
-0.0067781428
-0.0067781264
-0.0067781044
-0.0067780885
-0.0067780678
-0.0067780513
-0.0067780127
-0.0067780381
-0.0067780762
-0.0067780916
-0.0067781056
-0.0067780856
-0.0067780507
-0.0067780217
-0.0067780101
-0.0067780127
-0.0067779752
-0.0067779832
-0.0067779934
-0.006777984
-0.0067779874
-0.0067779692
-0.0067779417
-0.0067780285
-0.0067780381
-0.0067780381
-0.0067779832
-0.0067779632
-0.0067779405
-0.0067778997
-0.0067778811
-0.0067778524
-0.0067778228
-0.0067780898
-0.0067780947
-0.0067780762
-0.0067779934
-0.0067779405
-0.0067778853
-0.0067778168
-0.0067777782
-0.006777739
-0.0067777086
-0.006778131
-0.0067781261
-0.0067780916
-0.006777984
-0.0067778997
-0.0067778168
-0.0067777312
-0.0067776874
-0.0067776534
-0.0067776354
-0.0067781491
-0.0067781428
-0.0067781056
-0.0067779874
-0.0067778811
-0.0067777782
-0.0067776874
-0.0067776529
-0.0067776339
-0.0067776225
-0.0067781467
-0.0067781264
-0.0067780856
-0.0067779692
-0.0067778524
-0.006777739
-0.0067776534
-0.0067776339
-0.0067776195
-0.0067775866
-0.0067781453
-0.0067781044
-0.0067780507
-0.0067779417
-0.0067778228
-0.0067777086
-0.0067776354
-0.0067776225
-0.0067775866
-0.0067775745
-0.0091966305
-0.0091966149
-0.0091966343
-0.0091965553
-0.0091965527
-0.009196609
-0.009196644
-0.0091966572
-0.0091966505
-0.0091966465
-0.0091966149
-0.0091966429
-0.0091966108
-0.0091965406
-0.0091965604
-0.0091966104
-0.0091966343
-0.0091966462
-0.009196624
-0.0091965978
-0.0091966343
-0.0091966108
-0.0091965882
-0.0091965382
-0.0091965541
-0.0091965827
-0.0091965887
-0.0091965977
-0.0091965712
-0.0091965308
-0.0091965553
-0.0091965406
-0.0091965382
-0.0091964883
-0.0091964839
-0.0091964809
-0.0091964592
-0.0091964569
-0.0091964327
-0.0091964003
-0.0091965527
-0.0091965604
-0.0091965541
-0.0091964839
-0.0091964478
-0.0091964077
-0.0091963512
-0.0091963249
-0.0091962898
-0.009196256
-0.009196609
-0.0091966104
-0.0091965827
-0.0091964809
-0.0091964077
-0.0091963313
-0.0091962443
-0.0091961966
-0.0091961512
-0.0091961181
-0.009196644
-0.0091966343
-0.0091965887
-0.0091964592
-0.0091963512
-0.0091962443
-0.009196139
-0.0091960871
-0.0091960493
-0.0091960319
-0.0091966572
-0.0091966462
-0.0091965977
-0.0091964569
-0.0091963249
-0.0091961966
-0.0091960871
-0.0091960474
-0.0091960282
-0.0091960182
-0.0091966505
-0.009196624
-0.0091965712
-0.0091964327
-0.0091962898
-0.0091961512
-0.0091960493
-0.0091960282
-0.0091960139
-0.0091959776
-0.0091966465
-0.0091965978
-0.0091965308
-0.0091964003
-0.009196256
-0.0091961181
-0.0091960319
-0.0091960182
-0.0091959776
-0.0091959662
-0.011211258
-0.01121124
-0.011211255
-0.011211163
-0.011211149
-0.011211199
-0.011211227
-0.011211234
-0.011211222
-0.011211215
-0.01121124
-0.011211268
-0.011211228
-0.011211144
-0.011211154
-0.011211196
-0.011211211
-0.011211217
-0.011211189
-0.011211159
-0.011211255
-0.011211228
-0.011211198
-0.011211136
-0.01121114
-0.011211158
-0.011211153
-0.011211156
-0.011211123
-0.011211077
-0.011211163
-0.011211144
-0.011211136
-0.011211072
-0.011211053
-0.011211036
-0.011211001
-0.011210992
-0.011210961
-0.011210924
-0.011211149
-0.011211154
-0.01121114
-0.011211053
-0.011211
-0.011210941
-0.011210868
-0.011210833
-0.011210791
-0.011210754
-0.011211199
-0.011211196
-0.011211158
-0.011211036
-0.011210941
-0.011210842
-0.011210736
-0.011210679
-0.011210627
-0.011210591
-0.011211227
-0.011211211
-0.011211153
-0.011211001
-0.011210868
-0.011210736
-0.01121061
-0.01121055
-0.011210508
-0.011210492
-0.011211234
-0.011211217
-0.011211156
-0.011210992
-0.011210833
-0.011210679
-0.01121055
-0.011210505
-0.011210485
-0.011210477
-0.011211222
-0.011211189
-0.011211123
-0.011210961
-0.011210791
-0.011210627
-0.011210508
-0.011210485
-0.011210471
-0.011210432
-0.011211215
-0.011211159
-0.011211077
-0.011210924
-0.011210754
-0.011210591
-0.011210492
-0.011210477
-0.011210432
-0.011210421
-0.012781267
-0.012781245
-0.012781256
-0.01278115
-0.012781123
-0.012781165
-0.012781184
-0.012781185
-0.012781168
-0.012781158
-0.012781245
-0.012781272
-0.012781225
-0.012781126
-0.012781124
-0.012781157
-0.012781163
-0.012781162
-0.012781127
-0.012781093
-0.012781256
-0.012781225
-0.012781187
-0.01278111
-0.012781102
-0.012781108
-0.012781092
-0.012781088
-0.012781048
-0.012780996
-0.01278115
-0.012781126
-0.01278111
-0.012781031
-0.012780998
-0.012780965
-0.012780915
-0.0127809
-0.012780862
-0.012780821
-0.012781123
-0.012781124
-0.012781102
-0.012780998
-0.012780925
-0.012780847
-0.012780756
-0.012780713
-0.012780664
-0.012780623
-0.012781165
-0.012781157
-0.012781108
-0.012780965
-0.012780847
-0.012780725
-0.012780599
-0.012780531
-0.012780473
-0.012780436
-0.012781184
-0.012781163
-0.012781092
-0.012780915
-0.012780756
-0.012780599
-0.012780452
-0.012780383
-0.012780338
-0.012780323
-0.012781185
-0.012781162
-0.012781088
-0.0127809
-0.012780713
-0.012780531
-0.012780383
-0.012780332
-0.012780313
-0.012780307
-0.012781168
-0.012781127
-0.012781048
-0.012780862
-0.012780664
-0.012780473
-0.012780338
-0.012780313
-0.012780299
-0.012780258
-0.012781158
-0.012781093
-0.012780996
-0.012780821
-0.012780623
-0.012780436
-0.012780323
-0.012780307
-0.012780258
-0.012780249
-0.013869765
-0.01386974
-0.013869745
-0.013869623
-0.013869583
-0.013869616
-0.013869627
-0.01386962
-0.013869598
-0.013869585
-0.01386974
-0.013869765
-0.013869709
-0.013869594
-0.01386958
-0.013869603
-0.013869598
-0.01386959
-0.013869549
-0.013869511
-0.013869745
-0.013869709
-0.013869661
-0.01386957
-0.013869548
-0.013869541
-0.013869513
-0.013869502
-0.013869455
-0.013869399
-0.013869623
-0.013869594
-0.01386957
-0.013869476
-0.013869426
-0.013869376
-0.013869313
-0.013869289
-0.013869245
-0.0138692
-0.013869583
-0.01386958
-0.013869548
-0.013869426
-0.013869333
-0.013869234
-0.013869126
-0.013869074
-0.013869019
-0.013868975
-0.013869616
-0.013869603
-0.013869541
-0.013869376
-0.013869234
-0.013869089
-0.013868943
-0.013868866
-0.013868802
-0.013868763
-0.013869627
-0.013869598
-0.013869513
-0.013869313
-0.013869126
-0.013868943
-0.013868776
-0.013868698
-0.01386865
-0.013868637
-0.01386962
-0.01386959
-0.013869502
-0.013869289
-0.013869074
-0.013868866
-0.013868698
-0.013868642
-0.013868623
-0.013868619
-0.013869598
-0.013869549
-0.013869455
-0.013869245
-0.013869019
-0.013868802
-0.01386865
-0.013868623
-0.013868609
-0.013868566
-0.013869585
-0.013869511
-0.013869399
-0.0138692
-0.013868975
-0.013868763
-0.013868637
-0.013868619
-0.013868566
-0.013868559
-0.0144449
-0.01444487
-0.014444868
-0.014444732
-0.014444677
-0.014444701
-0.014444702
-0.014444688
-0.01444466
-0.014444644
-0.01444487
-0.014444893
-0.014444827
-0.014444696
-0.014444669
-0.014444681
-0.014444665
-0.01444465
-0.014444603
-0.014444562
-0.014444868
-0.014444827
-0.01444477
-0.014444663
-0.014444627
-0.014444607
-0.014444567
-0.014444548
-0.014444493
-0.014444433
-0.014444732
-0.014444696
-0.014444663
-0.014444553
-0.014444486
-0.01444442
-0.014444342
-0.014444311
-0.01444426
-0.014444211
-0.014444677
-0.014444669
-0.014444627
-0.014444486
-0.014444373
-0.014444254
-0.014444128
-0.014444067
-0.014444006
-0.014443959
-0.014444701
-0.014444681
-0.014444607
-0.01444442
-0.014444254
-0.014444086
-0.014443919
-0.014443832
-0.014443762
-0.014443722
-0.014444702
-0.014444665
-0.014444567
-0.014444342
-0.014444128
-0.014443919
-0.014443732
-0.014443645
-0.014443594
-0.014443583
-0.014444688
-0.01444465
-0.014444548
-0.014444311
-0.014444067
-0.014443832
-0.014443645
-0.014443584
-0.014443565
-0.014443564
-0.01444466
-0.014444603
-0.014444493
-0.01444426
-0.014444006
-0.014443762
-0.014443594
-0.014443565
-0.014443553
-0.014443508
-0.014444644
-0.014444562
-0.014444433
-0.014444211
-0.014443959
-0.014443722
-0.014443583
-0.014443564
-0.014443508
-0.014443503
-0.014481364
-0.014481329
-0.01448132
-0.014481169
-0.014481098
-0.014481113
-0.014481104
-0.014481082
-0.014481049
-0.014481029
-0.014481329
-0.014481349
-0.014481273
-0.014481125
-0.014481085
-0.014481086
-0.014481059
-0.014481036
-0.014480983
-0.014480939
-0.01448132
-0.014481273
-0.014481205
-0.014481083
-0.014481033
-0.014480999
-0.014480946
-0.01448092
-0.014480858
-0.014480794
-0.014481169
-0.014481125
-0.014481083
-0.014480957
-0.014480873
-0.01448079
-0.014480697
-0.014480658
-0.014480601
-0.014480548
-0.014481098
-0.014481085
-0.014481033
-0.014480873
-0.014480739
-0.0144806
-0.014480457
-0.014480386
-0.014480319
-0.014480269
-0.014481113
-0.014481086
-0.014480999
-0.01448079
-0.0144806
-0.014480408
-0.014480222
-0.014480125
-0.014480049
-0.014480009
-0.014481104
-0.014481059
-0.014480946
-0.014480697
-0.014480457
-0.014480222
-0.014480015
-0.01447992
-0.014479865
-0.014479857
-0.014481082
-0.014481036
-0.01448092
-0.014480658
-0.014480386
-0.014480125
-0.01447992
-0.014479853
-0.014479835
-0.014479838
-0.014481049
-0.014480983
-0.014480858
-0.014480601
-0.014480319
-0.014480049
-0.014479865
-0.014479835
-0.014479824
-0.014479779
-0.014481029
-0.014480939
-0.014480794
-0.014480548
-0.014480269
-0.014480009
-0.014479857
-0.014479838
-0.014479779
-0.014479777
-0.013962194
-0.013962154
-0.013962137
-0.01396197
-0.013961883
-0.013961889
-0.01396187
-0.013961839
-0.013961801
-0.013961778
-0.013962154
-0.013962171
-0.013962084
-0.013961919
-0.013961865
-0.013961855
-0.013961817
-0.013961786
-0.013961727
-0.01396168
-0.013962137
-0.013962084
-0.013962005
-0.013961868
-0.013961802
-0.013961755
-0.013961689
-0.013961655
-0.013961586
-0.013961518
-0.01396197
-0.013961919
-0.013961868
-0.013961726
-0.013961624
-0.013961525
-0.013961417
-0.01396137
-0.013961307
-0.013961251
-0.013961883
-0.013961865
-0.013961802
-0.013961624
-0.013961469
-0.01396131
-0.013961149
-0.01396107
-0.013960997
-0.013960946
-0.013961889
-0.013961855
-0.013961755
-0.013961525
-0.01396131
-0.013961095
-0.01396089
-0.013960783
-0.013960702
-0.013960661
-0.01396187
-0.013961817
-0.013961689
-0.013961417
-0.013961149
-0.01396089
-0.013960663
-0.01396056
-0.013960503
-0.013960499
-0.013961839
-0.013961786
-0.013961655
-0.01396137
-0.01396107
-0.013960783
-0.01396056
-0.013960489
-0.013960472
-0.013960478
-0.013961801
-0.013961727
-0.013961586
-0.013961307
-0.013960997
-0.013960702
-0.013960503
-0.013960472
-0.013960462
-0.013960417
-0.013961778
-0.01396168
-0.013961518
-0.013961251
-0.013960946
-0.013960661
-0.013960499
-0.013960478
-0.013960417
-0.013960418
-0.012880887
-0.012880842
-0.012880816
-0.012880634
-0.012880531
-0.012880528
-0.012880499
-0.01288046
-0.012880416
-0.01288039
-0.012880842
-0.012880854
-0.012880757
-0.012880575
-0.012880507
-0.012880488
-0.012880438
-0.012880398
-0.012880333
-0.012880285
-0.012880816
-0.012880757
-0.012880668
-0.012880515
-0.012880435
-0.012880375
-0.012880296
-0.012880253
-0.012880177
-0.012880107
-0.012880634
-0.012880575
-0.012880515
-0.012880357
-0.012880238
-0.012880123
-0.012880001
-0.012879946
-0.012879876
-0.012879818
-0.012880531
-0.012880507
-0.012880435
-0.012880238
-0.012880063
-0.012879884
-0.012879707
-0.012879619
-0.01287954
-0.012879487
-0.012880528
-0.012880488
-0.012880375
-0.012880123
-0.012879884
-0.012879648
-0.012879423
-0.012879307
-0.012879221
-0.012879181
-0.012880499
-0.012880438
-0.012880296
-0.012880001
-0.012879707
-0.012879423
-0.012879178
-0.012879067
-0.012879008
-0.012879007
-0.01288046
-0.012880398
-0.012880253
-0.012879946
-0.012879619
-0.012879307
-0.012879067
-0.012878991
-0.012878976
-0.012878986
-0.012880416
-0.012880333
-0.012880177
-0.012879876
-0.01287954
-0.012879221
-0.012879008
-0.012878976
-0.012878968
-0.012878923
-0.01288039
-0.012880285
-0.012880107
-0.012879818
-0.012879487
-0.012879181
-0.012879007
-0.012878986
-0.012878923
-0.012878927
-0.01124385
-0.011243799
-0.011243765
-0.011243569
-0.011243449
-0.011243439
-0.0112434
-0.011243352
-0.011243303
-0.011243273
-0.011243799
-0.011243808
-0.011243701
-0.011243502
-0.01124342
-0.011243391
-0.01124333
-0.011243282
-0.011243212
-0.011243161
-0.011243765
-0.011243701
-0.0112436
-0.011243433
-0.011243338
-0.011243266
-0.011243175
-0.011243123
-0.01124304
-0.011242967
-0.011243569
-0.011243502
-0.011243433
-0.011243261
-0.011243124
-0.011242994
-0.011242857
-0.011242794
-0.011242719
-0.011242658
-0.011243449
-0.01124342
-0.011243338
-0.011243124
-0.011242929
-0.011242732
-0.011242538
-0.011242441
-0.011242357
-0.011242304
-0.011243439
-0.011243391
-0.011243266
-0.011242994
-0.011242732
-0.011242475
-0.011242232
-0.011242107
-0.011242016
-0.011241976
-0.0112434
-0.01124333
-0.011243175
-0.011242857
-0.011242538
-0.011242232
-0.011241969
-0.01124185
-0.011241789
-0.011241792
-0.011243352
-0.011243282
-0.011243123
-0.011242794
-0.011242441
-0.011242107
-0.01124185
-0.01124177
-0.011241757
-0.01124177
-0.011243303
-0.011243212
-0.01124304
-0.011242719
-0.011242357
-0.011242016
-0.011241789
-0.011241757
-0.011241751
-0.011241707
-0.011243273
-0.011243161
-0.011242967
-0.011242658
-0.011242304
-0.011241976
-0.011241792
-0.01124177
-0.011241707
-0.011241715
-0.0090731756
-0.0090731193
-0.0090730767
-0.0090728675
-0.0090727314
-0.0090727138
-0.009072665
-0.0090726091
-0.0090725545
-0.00907252
-0.0090731193
-0.009073124
-0.0090730068
-0.0090727917
-0.0090726977
-0.0090726598
-0.0090725876
-0.0090725308
-0.0090724554
-0.0090724033
-0.0090730767
-0.0090730068
-0.0090728954
-0.009072715
-0.0090726068
-0.0090725234
-0.0090724199
-0.0090723595
-0.0090722697
-0.0090721944
-0.0090728675
-0.0090727917
-0.009072715
-0.0090725291
-0.0090723772
-0.0090722323
-0.0090720822
-0.0090720111
-0.0090719296
-0.0090718671
-0.0090727314
-0.0090726977
-0.0090726068
-0.0090723772
-0.0090721631
-0.0090719492
-0.0090717389
-0.0090716334
-0.0090715442
-0.0090714895
-0.0090727138
-0.0090726598
-0.0090725234
-0.0090722323
-0.0090719492
-0.0090716717
-0.0090714118
-0.0090712767
-0.0090711811
-0.0090711415
-0.009072665
-0.0090725876
-0.0090724199
-0.0090720822
-0.0090717389
-0.0090714118
-0.0090711308
-0.0090710043
-0.0090709419
-0.0090709493
-0.0090726091
-0.0090725308
-0.0090723595
-0.0090720111
-0.0090716334
-0.0090712767
-0.0090710043
-0.0090709213
-0.0090709097
-0.0090709276
-0.0090725545
-0.0090724554
-0.0090722697
-0.0090719296
-0.0090715442
-0.0090711811
-0.0090709419
-0.0090709097
-0.0090709061
-0.0090708634
-0.00907252
-0.0090724033
-0.0090721944
-0.0090718671
-0.0090714895
-0.0090711415
-0.0090709493
-0.0090709276
-0.0090708634
-0.0090708754
-0.0064097219
-0.0064096609
-0.0064096101
-0.006409389
-0.006409237
-0.0064092139
-0.006409156
-0.0064090913
-0.0064090315
-0.0064089925
-0.0064096609
-0.0064096618
-0.0064095354
-0.0064093052
-0.0064091995
-0.0064091544
-0.0064090715
-0.0064090056
-0.0064089254
-0.0064088721
-0.0064096101
-0.0064095354
-0.0064094142
-0.0064092217
-0.0064091013
-0.0064090079
-0.0064088927
-0.006408823
-0.0064087262
-0.006408649
-0.006409389
-0.0064093052
-0.0064092217
-0.0064090239
-0.0064088575
-0.0064086998
-0.0064085367
-0.0064084574
-0.0064083698
-0.0064083053
-0.006409237
-0.0064091995
-0.0064091013
-0.0064088575
-0.0064086262
-0.0064083965
-0.0064081709
-0.0064080567
-0.0064079622
-0.0064079068
-0.0064092139
-0.0064091544
-0.0064090079
-0.0064086998
-0.0064083965
-0.006408101
-0.0064078245
-0.0064076799
-0.0064075794
-0.0064075402
-0.006409156
-0.0064090715
-0.0064088927
-0.0064085367
-0.0064081709
-0.0064078245
-0.0064075272
-0.0064073932
-0.0064073288
-0.0064073403
-0.0064090913
-0.0064090056
-0.006408823
-0.0064084574
-0.0064080567
-0.0064076799
-0.0064073932
-0.0064073067
-0.006407297
-0.0064073187
-0.0064090315
-0.0064089254
-0.0064087262
-0.0064083698
-0.0064079622
-0.0064075794
-0.0064073288
-0.006407297
-0.0064072957
-0.0064072544
-0.0064089925
-0.0064088721
-0.006408649
-0.0064083053
-0.0064079068
-0.0064075402
-0.0064073403
-0.0064073187
-0.0064072544
-0.0064072702
-0.0033164401
-0.0033163751
-0.0033163169
-0.0033160856
-0.0033159186
-0.0033158917
-0.0033158255
-0.003315752
-0.0033156867
-0.0033156427
-0.0033163751
-0.0033163729
-0.0033162385
-0.0033159944
-0.0033158786
-0.003315828
-0.003315735
-0.0033156599
-0.0033155749
-0.0033155205
-0.0033163169
-0.0033162385
-0.0033161085
-0.0033159058
-0.0033157748
-0.0033156732
-0.0033155469
-0.0033154677
-0.0033153637
-0.0033152846
-0.0033160856
-0.0033159944
-0.0033159058
-0.0033156984
-0.0033155192
-0.0033153504
-0.003315175
-0.0033150875
-0.0033149935
-0.0033149268
-0.0033159186
-0.0033158786
-0.0033157748
-0.0033155192
-0.0033152724
-0.0033150288
-0.0033147887
-0.0033146657
-0.0033145659
-0.0033145094
-0.0033158917
-0.003315828
-0.0033156732
-0.0033153504
-0.0033150288
-0.0033147174
-0.0033144249
-0.0033142708
-0.0033141649
-0.0033141259
-0.0033158255
-0.003315735
-0.0033155469
-0.003315175
-0.0033147887
-0.0033144249
-0.0033141122
-0.0033139707
-0.003313904
-0.0033139193
-0.003315752
-0.0033156599
-0.0033154677
-0.0033150875
-0.0033146657
-0.0033142708
-0.0033139707
-0.0033138808
-0.0033138727
-0.0033138979
-0.0033156867
-0.0033155749
-0.0033153637
-0.0033149935
-0.0033145659
-0.0033141649
-0.003313904
-0.0033138727
-0.0033138737
-0.0033138335
-0.0033156427
-0.0033155205
-0.0033152846
-0.0033149268
-0.0033145094
-0.0033141259
-0.0033139193
-0.0033138979
-0.0033138335
-0.0033138528
0.00011816697
0.0001182349
0.00011829959
0.00011853879
0.00011871997
0.00011874849
0.00011882212
0.00011890446
0.0001189752
0.0001190251
0.0001182349
0.00011823928
0.00011838029
0.00011863652
0.00011876074
0.0001188148
0.00011891712
0.00011900166
0.00011909116
0.00011914677
0.00011829959
0.00011838029
0.00011851757
0.00011872812
0.0001188678
0.00011897549
0.00011911213
0.00011920117
0.00011931289
0.00011939399
0.00011853879
0.00011863652
0.00011872812
0.00011894265
0.00011913245
0.00011931029
0.00011949707
0.00011959286
0.00011969379
0.00011976311
0.00011871997
0.00011876074
0.0001188678
0.00011913245
0.00011939258
0.00011964794
0.00011990163
0.00012003347
0.0001201392
0.00012019717
0.00011874849
0.0001188148
0.00011897549
0.00011931029
0.00011964794
0.00011997318
0.0001202807
0.00012044458
0.00012055654
0.00012059614
0.00011882212
0.00011891712
0.00011911213
0.00011949707
0.00011990163
0.0001202807
0.0001206078
0.00012075714
0.0001208268
0.00012080848
0.00011890446
0.00011900166
0.00011920117
0.00011959286
0.00012003347
0.00012044458
0.00012075714
0.00012085061
0.00012085757
0.00012082962
0.0001189752
0.00011909116
0.00011931289
0.00011969379
0.0001201392
0.00012055654
0.0001208268
0.00012085757
0.00012085473
0.00012089428
0.0001190251
0.00011914677
0.00011939399
0.00011976311
0.00012019717
0.00012059614
0.00012080848
0.00012082962
0.00012089428
0.0001208721
0.0037766363
0.0037767057
0.0037767755
0.0037770201
0.0037772142
0.0037772421
0.0037773221
0.0037774132
0.0037774896
0.0037775465
0.0037767057
0.003776711
0.0037768568
0.0037771231
0.0037772537
0.0037773089
0.0037774196
0.0037775138
0.0037776079
0.0037776649
0.0037767755
0.0037768568
0.0037769994
0.0037772152
0.0037773613
0.0037774729
0.0037776189
0.0037777181
0.0037778381
0.0037779216
0.0037770201
0.0037771231
0.0037772152
0.0037774338
0.0037776319
0.0037778165
0.0037780136
0.0037781178
0.0037782264
0.0037782991
0.0037772142
0.0037772537
0.0037773613
0.0037776319
0.0037779028
0.0037781677
0.0037784341
0.0037785749
0.0037786873
0.0037787477
0.0037772421
0.0037773089
0.0037774729
0.0037778165
0.0037781677
0.0037785045
0.0037788262
0.0037790003
0.0037791194
0.0037791607
0.0037773221
0.0037774196
0.0037776189
0.0037780136
0.0037784341
0.0037788262
0.0037791669
0.0037793245
0.0037793983
0.0037793779
0.0037774132
0.0037775138
0.0037777181
0.0037781178
0.0037785749
0.0037790003
0.0037793245
0.0037794219
0.0037794286
0.0037793991
0.0037774896
0.0037776079
0.0037778381
0.0037782264
0.0037786873
0.0037791194
0.0037793983
0.0037794286
0.0037794247
0.0037794645
0.0037775465
0.0037776649
0.0037779216
0.0037782991
0.0037787477
0.0037791607
0.0037793779
0.0037793991
0.0037794645
0.0037794405
0.0075094746
0.007509544