/*--------------------------------*- C++ -*----------------------------------*\
| =========                 |                                                 |
| \\      /  F ield         | OpenFOAM: The Open Source CFD Toolbox           |
|  \\    /   O peration     | Version:  v2106                                 |
|   \\  /    A nd           | Website:  www.openfoam.com                      |
|    \\/     M anipulation  |                                                 |
\*---------------------------------------------------------------------------*/
FoamFile
{
    version     2.0;
    format      ascii;
    arch        "LSB;label=32;scalar=64";
    class       volVectorField;
    location    "20";
    object      Tmode_grad1;
}
// * * * * * * * * * * * * * * * * * * * * * * * * * * * * * * * * * * * * * //

dimensions      [0 -1 0 0 0 0 0];

internalField   nonuniform List<vector> 
4000
(
(-1e-07 -1e-07 0.2070553)
(-1.5e-07 -1.5e-07 0.20705515)
(2.5e-07 1e-07 0.207055)
(2e-07 -5e-08 0.20705595)
(-2e-07 -1e-07 0.20705555)
(-1.5e-07 -5e-08 0.2070552)
(-5e-08 -5e-08 0.2070551)
(0 0 0.2070551)
(0 0 0.2070551)
(0 0 0.20705505)
(-1.5e-07 -1.5e-07 0.20705515)
(5e-08 5e-08 0.20705485)
(3.5e-07 1.5e-07 0.20705545)
(0 0 0.2070559)
(-2e-07 -5e-08 0.2070554)
(-1e-07 -5e-08 0.20705515)
(0 0 0.20705505)
(5e-08 0 0.2070551)
(0 0 0.20705515)
(0 0 0.2070552)
(1e-07 2.5e-07 0.207055)
(1.5e-07 3.5e-07 0.20705545)
(2e-07 2e-07 0.2070556)
(0 1.5e-07 0.20705595)
(-2.5e-07 1.5e-07 0.20705545)
(-1e-07 1.5e-07 0.2070552)
(0 2.5e-07 0.2070552)
(0 2e-07 0.2070552)
(0 1.5e-07 0.20705515)
(0 1.5e-07 0.2070552)
(-5e-08 2e-07 0.20705595)
(0 0 0.2070559)
(1.5e-07 0 0.20705595)
(-5e-08 -5e-08 0.2070563)
(-2e-07 0 0.2070558)
(0 5e-08 0.20705565)
(5e-08 1e-07 0.20705575)
(-5e-08 1e-07 0.2070558)
(-5e-08 1e-07 0.20705565)
(0 1e-07 0.2070556)
(-1e-07 -2e-07 0.20705555)
(-5e-08 -2e-07 0.2070554)
(1.5e-07 -2.5e-07 0.20705545)
(0 -2e-07 0.2070558)
(-1.5e-07 -1.5e-07 0.20705545)
(0 -1.5e-07 0.2070553)
(5e-08 -1.5e-07 0.20705545)
(-1.7035417e-16 -1e-07 0.20705555)
(3.602259e-16 -5e-08 0.2070555)
(0 -5e-08 0.2070555)
(-5.0000001e-08 -1.5e-07 0.2070552)
(-5e-08 -1e-07 0.20705515)
(1.5e-07 -1e-07 0.2070552)
(5e-08 0 0.20705565)
(-1.5e-07 0 0.2070553)
(0 0 0.2070552)
(1e-07 0 0.20705535)
(5e-08 5e-08 0.2070555)
(-4.2351647e-16 5e-08 0.20705555)
(0 5e-08 0.20705555)
(-5e-08 -5e-08 0.2070551)
(0 0 0.20705505)
(2.5e-07 0 0.2070552)
(1e-07 5e-08 0.20705575)
(-1.5e-07 5e-08 0.20705545)
(0 1e-07 0.20705535)
(1e-07 1e-07 0.20705555)
(5e-08 1e-07 0.2070557)
(0 1e-07 0.2070557)
(0 1e-07 0.20705575)
(0 0 0.2070551)
(0 5e-08 0.2070551)
(2e-07 0 0.2070552)
(1e-07 -5e-08 0.2070558)
(-1e-07 0 0.20705555)
(5e-08 5e-08 0.2070555)
(1e-07 5e-08 0.2070557)
(5e-08 5e-08 0.20705585)
(0 5e-08 0.20705585)
(0 5e-08 0.20705585)
(0 0 0.2070551)
(0 0 0.20705515)
(1.5e-07 0 0.20705515)
(1e-07 -5e-08 0.20705565)
(-5e-08 0 0.2070555)
(5e-08 0 0.20705555)
(1e-07 0 0.2070557)
(5e-08 0 0.20705585)
(0 0 0.20705585)
(0 -5e-08 0.2070558)
(0 0 0.20705505)
(0 0 0.2070552)
(1.5e-07 0 0.2070552)
(1e-07 0 0.2070556)
(-5e-08 0 0.2070555)
(5e-08 0 0.20705555)
(1e-07 0 0.20705575)
(5e-08 0 0.20705585)
(-5e-08 0 0.2070558)
(-5e-08 -5e-08 0.20705575)
(-5e-08 -5e-08 0.20699685)
(-1.5e-07 -1.5e-07 0.20699715)
(5.5e-07 3.5e-07 0.2069971)
(3.5e-07 0 0.2069976)
(-5.5e-07 -5e-08 0.20699725)
(-3e-07 0 0.206997)
(-5e-08 0 0.20699695)
(0 0 0.206997)
(-5e-08 5e-08 0.20699695)
(-5e-08 1.5e-07 0.2069968)
(-1.5e-07 -1.5e-07 0.20699715)
(2.5e-07 2.5e-07 0.20699715)
(7e-07 4.5e-07 0.20699745)
(-5e-08 0 0.20699765)
(-5.5e-07 -5e-08 0.2069973)
(-2.5e-07 5e-08 0.20699705)
(-5e-08 1e-07 0.2069971)
(5e-08 1e-07 0.20699705)
(1e-07 5e-08 0.2069971)
(5e-08 1.5e-07 0.2069972)
(3.5e-07 5.5e-07 0.2069971)
(4.5e-07 7e-07 0.20699745)
(3e-07 3e-07 0.20699755)
(-1.5e-07 2.5e-07 0.20699765)
(-5e-07 2.5e-07 0.2069973)
(-1.5e-07 3.5e-07 0.2069972)
(0 4.5e-07 0.2069972)
(-5e-08 5e-07 0.20699715)
(0 3.5e-07 0.2069971)
(5e-08 2.5e-07 0.20699715)
(0 3.5e-07 0.2069976)
(0 -5e-08 0.20699765)
(2.5e-07 -1.5e-07 0.20699765)
(-1e-07 -1e-07 0.2069978)
(-4.5e-07 4.2351647e-16 0.2069975)
(-5e-08 5e-08 0.2069974)
(1e-07 1.5e-07 0.20699745)
(-5e-08 2.5e-07 0.20699745)
(-1.5e-07 2.5e-07 0.2069974)
(-5e-08 2e-07 0.2069973)
(-5e-08 -5.5e-07 0.20699725)
(-5e-08 -5.5e-07 0.2069973)
(2.5e-07 -5e-07 0.2069973)
(4.2351647e-16 -4.5e-07 0.2069975)
(-3.5e-07 -3.5e-07 0.2069972)
(0 -3e-07 0.20699715)
(2e-07 -2.5e-07 0.2069973)
(5e-08 -2e-07 0.2069974)
(-5e-08 -5e-08 0.2069974)
(0 0 0.2069974)
(-4.2351647e-16 -3e-07 0.206997)
(5.0000001e-08 -2.5e-07 0.20699705)
(3.5e-07 -1.5e-07 0.2069972)
(5e-08 -5e-08 0.2069974)
(-3e-07 0 0.20699715)
(5e-08 5e-08 0.20699715)
(2e-07 1e-07 0.2069973)
(1.5e-07 1e-07 0.20699745)
(5e-08 1.5e-07 0.20699745)
(0 2e-07 0.2069975)
(0 -5e-08 0.20699695)
(1e-07 -5e-08 0.2069971)
(4.5e-07 0 0.2069972)
(1.5e-07 1e-07 0.20699745)
(-2.5e-07 2e-07 0.2069973)
(1e-07 2e-07 0.2069973)
(2.5e-07 2.5e-07 0.2069975)
(1e-07 2.5e-07 0.20699765)
(5e-08 2e-07 0.20699765)
(5e-08 2e-07 0.2069977)
(0 0 0.206997)
(1e-07 5e-08 0.20699705)
(5e-07 -5e-08 0.20699715)
(2.5e-07 -5e-08 0.20699745)
(-2e-07 5e-08 0.2069974)
(1e-07 1.5e-07 0.20699745)
(2.5e-07 1e-07 0.20699765)
(1e-07 1e-07 0.20699775)
(0 1e-07 0.2069977)
(0 0 0.2069977)
(5e-08 -5e-08 0.20699695)
(5e-08 1e-07 0.2069971)
(3.5e-07 0 0.2069971)
(2.5e-07 -1.5e-07 0.2069974)
(-5e-08 -5e-08 0.2069974)
(1.5e-07 5e-08 0.20699745)
(2e-07 5e-08 0.20699765)
(1e-07 0 0.2069977)
(-5e-08 -5e-08 0.20699765)
(-5e-08 -5e-08 0.2069976)
(1.5e-07 -5e-08 0.2069968)
(1.5e-07 5e-08 0.2069972)
(2.5e-07 5e-08 0.20699715)
(2e-07 -5e-08 0.2069973)
(0 0 0.2069974)
(2e-07 0 0.2069975)
(2e-07 5e-08 0.2069977)
(0 0 0.2069977)
(-5e-08 -5e-08 0.2069976)
(0 0 0.20699765)
(2e-07 2e-07 0.20687085)
(1e-07 -1.5e-07 0.2068712)
(7e-07 4.5e-07 0.2068712)
(3.5e-07 0 0.2068715)
(-8e-07 -5e-08 0.2068712)
(-4.5e-07 0 0.20687105)
(-5e-08 1e-07 0.20687105)
(0 5e-08 0.20687105)
(-2e-07 1.5e-07 0.20687105)
(-1.5e-07 4e-07 0.20687085)
(-1.5e-07 1e-07 0.2068712)
(3.5e-07 3.5e-07 0.20687125)
(8.5e-07 6e-07 0.2068714)
(-1.5e-07 5e-08 0.2068715)
(-8e-07 0 0.2068712)
(-3e-07 1.5e-07 0.2068711)
(0 2.5e-07 0.20687115)
(5e-08 1.5e-07 0.2068711)
(1.5e-07 1.5e-07 0.20687115)
(1e-07 3.5e-07 0.2068712)
(4.5e-07 7e-07 0.2068712)
(6e-07 8.5e-07 0.2068714)
(4e-07 4e-07 0.20687145)
(-2.5e-07 3e-07 0.20687155)
(-7e-07 3.5e-07 0.2068713)
(-2e-07 5e-07 0.2068712)
(-5e-08 6e-07 0.2068713)
(-1e-07 6e-07 0.2068712)
(0 4.5e-07 0.20687115)
(5e-08 2.5e-07 0.2068712)
(0 3.5e-07 0.2068715)
(5e-08 -1.5e-07 0.2068715)
(3e-07 -2.5e-07 0.20687155)
(-2e-07 -2e-07 0.20687155)
(-6e-07 -1e-07 0.20687135)
(-5e-08 -4.2351647e-16 0.20687135)
(1e-07 2e-07 0.2068715)
(-1e-07 3.5e-07 0.2068714)
(-2e-07 4e-07 0.20687135)
(-1e-07 3.5e-07 0.2068713)
(-5e-08 -8e-07 0.2068712)
(6.4736281e-18 -8e-07 0.2068712)
(3.5e-07 -7e-07 0.2068713)
(-1e-07 -6e-07 0.20687135)
(-5e-07 -5e-07 0.2068711)
(1e-07 -4e-07 0.20687115)
(3e-07 -3e-07 0.20687135)
(1e-07 -1e-07 0.2068714)
(-5.1321133e-17 4.2351647e-16 0.2068714)
(0 1.5e-07 0.20687145)
(0 -4.5e-07 0.20687105)
(1.5e-07 -3e-07 0.2068711)
(5e-07 -2e-07 0.2068712)
(-4.2351647e-16 -5e-08 0.20687135)
(-4e-07 1e-07 0.20687115)
(1.5e-07 1.5e-07 0.2068712)
(4e-07 2e-07 0.20687145)
(2e-07 3e-07 0.20687155)
(5e-08 3e-07 0.20687155)
(5e-08 3.5e-07 0.20687165)
(1e-07 -5e-08 0.20687105)
(2.5e-07 0 0.20687115)
(6e-07 -5e-08 0.2068713)
(2e-07 1e-07 0.2068715)
(-3e-07 3e-07 0.20687135)
(2e-07 4e-07 0.20687145)
(4.5e-07 4.5e-07 0.2068717)
(2e-07 4e-07 0.2068718)
(5e-08 3.5e-07 0.2068718)
(5e-08 3e-07 0.2068718)
(5e-08 0 0.20687105)
(1.5e-07 5e-08 0.2068711)
(6e-07 -1e-07 0.2068712)
(3.5e-07 -1e-07 0.2068714)
(-1e-07 1e-07 0.2068714)
(3e-07 2e-07 0.20687155)
(4e-07 2e-07 0.2068718)
(1e-07 1e-07 0.20687185)
(-5e-08 5e-08 0.2068718)
(0 -5e-08 0.20687175)
(1.5e-07 -2e-07 0.20687105)
(1.5e-07 1.5e-07 0.20687115)
(4.5e-07 0 0.20687115)
(4e-07 -2e-07 0.20687135)
(4.2351647e-16 0 0.2068714)
(3e-07 5e-08 0.20687155)
(3.5e-07 5e-08 0.2068718)
(5e-08 -5e-08 0.2068718)
(-1e-07 -1e-07 0.2068717)
(-5e-08 -1e-07 0.2068717)
(4e-07 -1.5e-07 0.20687085)
(3.5e-07 1e-07 0.2068712)
(2.5e-07 5e-08 0.2068712)
(3.5e-07 -1e-07 0.2068713)
(1.5e-07 0 0.20687145)
(3.5e-07 5e-08 0.20687165)
(3e-07 5e-08 0.2068718)
(-5e-08 0 0.20687175)
(-1e-07 -5e-08 0.2068717)
(0 0 0.20687165)
(3e-07 3e-07 0.20665795)
(2e-07 -1e-07 0.2066581)
(8.5e-07 5.5e-07 0.2066581)
(3.5e-07 0 0.20665835)
(-1e-06 -5e-08 0.2066581)
(-4.5e-07 5e-08 0.20665805)
(-5e-08 1e-07 0.2066581)
(0 5e-08 0.20665805)
(-2.5e-07 1.5e-07 0.2066581)
(-2.5e-07 5e-07 0.2066579)
(-1e-07 2e-07 0.2066581)
(4.5e-07 4.5e-07 0.20665815)
(9.5e-07 7e-07 0.20665825)
(-2.5e-07 5e-08 0.2066583)
(-9.5e-07 5e-08 0.2066581)
(-3e-07 2e-07 0.2066581)
(-5e-08 3.5e-07 0.20665815)
(5e-08 2.5e-07 0.20665805)
(2e-07 1.5e-07 0.20665815)
(1e-07 5e-07 0.20665815)
(5.5e-07 8.5e-07 0.2066581)
(7e-07 9.5e-07 0.20665825)
(4.5e-07 4.5e-07 0.20665825)
(-3e-07 3e-07 0.2066583)
(-8.5e-07 4e-07 0.2066581)
(-1.5e-07 6e-07 0.20665815)
(0 8e-07 0.2066583)
(-2e-07 8e-07 0.2066582)
(0 5.5e-07 0.2066581)
(1e-07 3.5e-07 0.20665815)
(0 3.5e-07 0.20665835)
(5e-08 -2.5e-07 0.2066583)
(3e-07 -3e-07 0.2066583)
(-3e-07 -3e-07 0.20665835)
(-6.5e-07 -2e-07 0.2066582)
(1e-07 0 0.2066583)
(1.5e-07 2e-07 0.2066585)
(-2e-07 4.5e-07 0.20665845)
(-2.5e-07 5e-07 0.20665835)
(-1e-07 4.5e-07 0.20665835)
(-5e-08 -1e-06 0.2066581)
(5e-08 -9.5e-07 0.2066581)
(4e-07 -8.5e-07 0.2066581)
(-2e-07 -6.5e-07 0.2066582)
(-5.5e-07 -5.5e-07 0.20665805)
(2.5e-07 -4.5e-07 0.2066582)
(4.5e-07 -3e-07 0.2066584)
(1e-07 -5e-08 0.20665845)
(1.6641582e-16 1.5e-07 0.2066584)
(5e-08 3.5e-07 0.20665845)
(5e-08 -4.5e-07 0.20665805)
(2e-07 -3e-07 0.2066581)
(6e-07 -1.5e-07 0.20665815)
(2.1175824e-16 1e-07 0.2066583)
(-4.5e-07 2.5e-07 0.2066582)
(3.5e-07 3.5e-07 0.2066583)
(5.5e-07 4.5e-07 0.2066586)
(2.5e-07 5e-07 0.2066586)
(1.5e-07 5.5e-07 0.20665865)
(1e-07 5.5e-07 0.2066587)
(1e-07 -5e-08 0.2066581)
(3.5e-07 -5e-08 0.20665815)
(8e-07 0 0.2066583)
(2e-07 1.5e-07 0.2066585)
(-3e-07 4.5e-07 0.2066584)
(4.5e-07 5.5e-07 0.2066586)
(6e-07 6e-07 0.2066589)
(2e-07 5.5e-07 0.2066589)
(5e-08 4.5e-07 0.2066589)
(5e-08 3e-07 0.2066589)
(5e-08 0 0.20665805)
(2.5e-07 5e-08 0.20665805)
(8e-07 -2e-07 0.2066582)
(4.5e-07 -2e-07 0.20665845)
(-5e-08 1e-07 0.20665845)
(5e-07 2.5e-07 0.2066586)
(5.5e-07 2e-07 0.2066589)
(1e-07 1e-07 0.2066589)
(-1e-07 4.2351647e-16 0.20665885)
(-5e-08 -1e-07 0.20665875)
(1.5e-07 -2.5e-07 0.2066581)
(1.5e-07 2e-07 0.20665815)
(5.5e-07 0 0.2066581)
(5e-07 -2.5e-07 0.20665835)
(1.5e-07 0 0.2066584)
(5.5e-07 1.5e-07 0.20665865)
(4.5e-07 5e-08 0.2066589)
(0 -1e-07 0.20665885)
(-1.5e-07 -1.5e-07 0.2066587)
(-5e-08 -1.5e-07 0.20665875)
(5e-07 -2.5e-07 0.2066579)
(5e-07 1e-07 0.20665815)
(3.5e-07 1e-07 0.20665815)
(4.5e-07 -1e-07 0.20665835)
(3.5e-07 5e-08 0.20665845)
(5.5e-07 1e-07 0.2066587)
(3e-07 5e-08 0.2066589)
(-1e-07 -5e-08 0.20665875)
(-1.5e-07 -5e-08 0.20665875)
(-5e-08 -5e-08 0.2066587)
(3.5e-07 3.5e-07 0.20632865)
(2.5e-07 -1e-07 0.2063288)
(9.5e-07 6e-07 0.20632875)
(3.5e-07 -5e-08 0.206329)
(-1.1e-06 -5e-08 0.2063288)
(-4.5e-07 5e-08 0.2063288)
(-5e-08 1.5e-07 0.20632885)
(0 5e-08 0.2063289)
(-3.5e-07 2e-07 0.20632885)
(-3.5e-07 6.5e-07 0.2063287)
(-1e-07 2.5e-07 0.2063288)
(5e-07 5e-07 0.2063287)
(1e-06 7.5e-07 0.20632885)
(-3e-07 0 0.20632895)
(-1e-06 2.1175824e-16 0.2063288)
(-2.5e-07 2.5e-07 0.2063288)
(-5e-08 4.5e-07 0.20632895)
(5e-08 3e-07 0.2063289)
(2.5e-07 1.5e-07 0.20632895)
(1e-07 6e-07 0.20632895)
(6e-07 9.5e-07 0.20632875)
(7.5e-07 1e-06 0.20632885)
(4.5e-07 4.5e-07 0.20632885)
(-4e-07 3.5e-07 0.2063289)
(-8.5e-07 4.5e-07 0.20632875)
(0 7e-07 0.2063289)
(2.1175824e-16 9.5e-07 0.20632905)
(-3e-07 1e-06 0.20632895)
(-5e-08 6.5e-07 0.2063289)
(1e-07 4.5e-07 0.20632895)
(-5e-08 3.5e-07 0.206329)
(0 -3e-07 0.20632895)
(3.5e-07 -4e-07 0.2063289)
(-3e-07 -3e-07 0.206329)
(-6.5e-07 -1.5e-07 0.2063289)
(2.5e-07 5e-08 0.20632905)
(2.5e-07 3e-07 0.2063293)
(-2.5e-07 6e-07 0.2063293)
(-3e-07 7e-07 0.20632915)
(-1e-07 6.5e-07 0.2063292)
(-5e-08 -1.1e-06 0.2063288)
(5.4272916e-17 -1e-06 0.2063288)
(4.5e-07 -8.5e-07 0.20632875)
(-1.5e-07 -6.5e-07 0.2063289)
(-5e-07 -5e-07 0.20632885)
(4.5e-07 -4e-07 0.206329)
(5.5e-07 -2e-07 0.20632935)
(1e-07 5e-08 0.20632935)
(1.7238695e-16 3e-07 0.2063293)
(5e-08 5e-07 0.20632935)
(5e-08 -4.5e-07 0.2063288)
(2.5e-07 -2.5e-07 0.2063288)
(7e-07 0 0.2063289)
(5e-08 2.5e-07 0.20632905)
(-4e-07 4.5e-07 0.206329)
(5.5e-07 5.5e-07 0.2063292)
(7e-07 7e-07 0.20632955)
(2.5e-07 7.5e-07 0.2063296)
(1.5e-07 8e-07 0.20632955)
(1e-07 8e-07 0.2063296)
(1.5e-07 -5e-08 0.20632885)
(4.5e-07 -5e-08 0.20632895)
(9.5e-07 2.1175824e-16 0.20632905)
(3e-07 2.5e-07 0.2063293)
(-2e-07 5.5e-07 0.20632935)
(7e-07 7e-07 0.20632955)
(7.5e-07 7.5e-07 0.20632985)
(2e-07 7e-07 0.2063299)
(5e-08 5.5e-07 0.20632985)
(5e-08 3.5e-07 0.20632985)
(5e-08 0 0.2063289)
(3e-07 5e-08 0.2063289)
(1e-06 -3e-07 0.20632895)
(6e-07 -2.5e-07 0.2063293)
(5e-08 1e-07 0.20632935)
(7.5e-07 2.5e-07 0.2063296)
(7e-07 2e-07 0.2063299)
(5e-08 5e-08 0.20632985)
(-2e-07 -1.5e-07 0.20632975)
(-1e-07 -2e-07 0.2063296)
(2e-07 -3.5e-07 0.20632885)
(1.5e-07 2.5e-07 0.20632895)
(6.5e-07 -5e-08 0.2063289)
(7e-07 -3e-07 0.20632915)
(3e-07 0 0.2063293)
(8e-07 1.5e-07 0.20632955)
(5.5e-07 5e-08 0.20632985)
(-1.5e-07 -2e-07 0.20632975)
(-2e-07 -2e-07 0.20632955)
(0 -1.5e-07 0.20632965)
(6.5e-07 -3.5e-07 0.2063287)
(6e-07 1e-07 0.20632895)
(4.5e-07 1e-07 0.20632895)
(6.5e-07 -1e-07 0.2063292)
(5e-07 5e-08 0.20632935)
(8e-07 1e-07 0.2063296)
(3.5e-07 5e-08 0.20632985)
(-2e-07 -1e-07 0.2063296)
(-1.5e-07 0 0.20632965)
(-5e-08 -5e-08 0.2063296)
(4.5e-07 4.5e-07 0.20584382)
(3e-07 -2e-07 0.20584394)
(1.05e-06 6.5e-07 0.20584388)
(4e-07 -5e-08 0.2058442)
(-1.2e-06 -5e-08 0.20584406)
(-4e-07 5e-08 0.20584406)
(5e-08 2e-07 0.20584421)
(0 5e-08 0.20584427)
(-4.5e-07 2.5e-07 0.20584426)
(-4e-07 7.5e-07 0.20584409)
(-2e-07 3e-07 0.20584394)
(5e-07 5e-07 0.20584385)
(1.2e-06 8e-07 0.20584402)
(-3e-07 -5e-08 0.20584418)
(-1.1e-06 0 0.20584402)
(-1.5e-07 3e-07 0.20584409)
(5e-08 5.5e-07 0.20584426)
(5e-08 3e-07 0.20584432)
(2.5e-07 2e-07 0.20584434)
(1e-07 7.5e-07 0.20584437)
(6.5e-07 1.05e-06 0.20584388)
(8e-07 1.2e-06 0.20584401)
(5e-07 5e-07 0.20584407)
(-4e-07 3.5e-07 0.20584416)
(-8.5e-07 5e-07 0.20584409)
(1.5e-07 8.5e-07 0.20584418)
(5e-08 1.15e-06 0.20584441)
(-3.5e-07 1.2e-06 0.20584436)
(-2.1175824e-16 7.5e-07 0.20584434)
(1.5e-07 6e-07 0.20584442)
(-5e-08 4e-07 0.2058442)
(-5e-08 -3e-07 0.20584418)
(3.5e-07 -4e-07 0.20584416)
(-3e-07 -3e-07 0.20584429)
(-6e-07 -1e-07 0.20584421)
(5e-07 1e-07 0.20584437)
(4e-07 5e-07 0.2058447)
(-3.5e-07 8.5e-07 0.20584469)
(-3.5e-07 9e-07 0.20584459)
(-5e-08 8.5e-07 0.20584461)
(-5e-08 -1.2e-06 0.20584405)
(7.8111578e-17 -1.1e-06 0.20584401)
(5e-07 -8.5e-07 0.20584408)
(-1e-07 -6e-07 0.2058442)
(-4.5e-07 -4.5e-07 0.20584417)
(7.5e-07 -3e-07 0.20584435)
(8e-07 -5e-08 0.20584475)
(5e-08 2.5e-07 0.20584479)
(-2.4516984e-16 5.5e-07 0.20584476)
(1e-07 7.5e-07 0.2058448)
(5e-08 -4e-07 0.20584405)
(3e-07 -1.5e-07 0.20584408)
(8.5e-07 1.5e-07 0.20584418)
(1e-07 5e-07 0.20584437)
(-3e-07 7.5e-07 0.20584435)
(9e-07 9e-07 0.20584461)
(9.5e-07 9.5e-07 0.20584499)
(2.5e-07 1.05e-06 0.20584507)
(1.5e-07 1.1e-06 0.20584504)
(1.5e-07 1.05e-06 0.2058451)
(2e-07 5e-08 0.20584421)
(5.5e-07 5e-08 0.20584427)
(1.15e-06 5e-08 0.20584441)
(5e-07 4e-07 0.2058447)
(-5e-08 8e-07 0.20584476)
(9.5e-07 9.5e-07 0.20584499)
(9.5e-07 9.5e-07 0.20584535)
(2e-07 8e-07 0.20584541)
(0 6.5e-07 0.20584536)
(5e-08 3e-07 0.20584533)
(5e-08 0 0.20584428)
(3e-07 5e-08 0.20584432)
(1.2e-06 -3.5e-07 0.20584436)
(8.5e-07 -3.5e-07 0.20584469)
(2.5e-07 5e-08 0.20584479)
(1.05e-06 2.5e-07 0.20584507)
(8e-07 2e-07 0.20584541)
(-5e-08 -5e-08 0.2058454)
(-3.5e-07 -3e-07 0.20584525)
(-2e-07 -3e-07 0.20584511)
(2.5e-07 -4.5e-07 0.20584426)
(2e-07 2.5e-07 0.20584435)
(7.5e-07 -2.1175824e-16 0.20584434)
(9e-07 -3.5e-07 0.20584458)
(5.5e-07 -2.1175824e-16 0.20584476)
(1.1e-06 1.5e-07 0.20584504)
(6.5e-07 0 0.20584536)
(-3e-07 -3.5e-07 0.20584524)
(-2.5e-07 -2.5e-07 0.20584505)
(5e-08 -1.5e-07 0.20584513)
(7.5e-07 -4e-07 0.20584409)
(7.5e-07 1e-07 0.20584437)
(6e-07 1.5e-07 0.20584442)
(8.5e-07 -5e-08 0.20584461)
(7.5e-07 1e-07 0.2058448)
(1.05e-06 1.5e-07 0.2058451)
(3e-07 5e-08 0.20584533)
(-3e-07 -2e-07 0.2058451)
(-1.5e-07 5e-08 0.20584512)
(-1e-07 -1e-07 0.20584505)
(4.7e-07 4.7e-07 0.20515405)
(3.1e-07 -1.9e-07 0.20515413)
(1.21e-06 7.35e-07 0.20515411)
(5.25e-07 -7e-08 0.20515445)
(-1.245e-06 -9e-08 0.20515435)
(-2.95e-07 8e-08 0.20515438)
(1.7e-07 2.05e-07 0.20515458)
(5.5e-08 9e-08 0.20515464)
(-5.35e-07 2.8e-07 0.2051547)
(-5.25e-07 9.25e-07 0.2051545)
(-1.9e-07 3.1e-07 0.20515413)
(5.75e-07 5.75e-07 0.20515413)
(1.33e-06 9.35e-07 0.20515427)
(-3e-07 -3.5e-08 0.20515441)
(-1.095e-06 3e-08 0.20515429)
(0 3.75e-07 0.20515443)
(1.8e-07 6.55e-07 0.20515463)
(1.3e-07 3.85e-07 0.2051547)
(3e-07 2.2e-07 0.20515476)
(1.2e-07 9.25e-07 0.20515481)
(7.35e-07 1.21e-06 0.20515411)
(9.35e-07 1.33e-06 0.20515427)
(6e-07 6e-07 0.20515434)
(-3.8e-07 4.6e-07 0.20515447)
(-8.35e-07 6.4e-07 0.20515439)
(3.3e-07 9.85e-07 0.20515453)
(1.8e-07 1.38e-06 0.20515481)
(-3.8e-07 1.375e-06 0.2051548)
(4.9999999e-09 8.9e-07 0.20515476)
(1.8e-07 6.9e-07 0.20515482)
(-7e-08 5.25e-07 0.20515445)
(-3.5e-08 -3e-07 0.20515442)
(4.6e-07 -3.8e-07 0.20515447)
(-2.6e-07 -2.6e-07 0.20515461)
(-5.7e-07 -6.5e-08 0.20515455)
(7.4e-07 2.2e-07 0.20515473)
(5.7e-07 6.4e-07 0.20515507)
(-3.6e-07 1.025e-06 0.20515508)
(-3.85e-07 1.125e-06 0.20515504)
(-8e-08 1.035e-06 0.20515502)
(-9e-08 -1.245e-06 0.20515434)
(3e-08 -1.095e-06 0.20515429)
(6.4e-07 -8.35e-07 0.20515439)
(-6.5e-08 -5.7e-07 0.20515456)
(-3.55e-07 -3.55e-07 0.20515451)
(1.035e-06 -1.55e-07 0.20515475)
(9.85e-07 1e-07 0.20515511)
(1.05e-07 4.3e-07 0.20515518)
(1.5e-08 7.55e-07 0.2051552)
(9e-08 9.95e-07 0.20515521)
(8e-08 -2.95e-07 0.20515438)
(3.75e-07 0 0.20515443)
(9.85e-07 3.3e-07 0.20515453)
(2.2e-07 7.4e-07 0.20515473)
(-1.55e-07 1.035e-06 0.20515476)
(1.195e-06 1.195e-06 0.205155)
(1.155e-06 1.295e-06 0.20515538)
(2.95e-07 1.37e-06 0.20515546)
(1.8e-07 1.395e-06 0.20515548)
(1.6e-07 1.33e-06 0.20515552)
(2.05e-07 1.7e-07 0.20515458)
(6.55e-07 1.8e-07 0.20515463)
(1.38e-06 1.8e-07 0.20515481)
(6.4e-07 5.7e-07 0.20515507)
(1e-07 9.85e-07 0.20515511)
(1.295e-06 1.155e-06 0.20515538)
(1.16e-06 1.16e-06 0.20515579)
(2.05e-07 1.025e-06 0.20515584)
(-2.5e-08 7.55e-07 0.20515582)
(2.5e-08 3.55e-07 0.20515579)
(9e-08 5.5e-08 0.20515464)
(3.85e-07 1.3e-07 0.2051547)
(1.375e-06 -3.8e-07 0.2051548)
(1.025e-06 -3.6e-07 0.20515508)
(4.3e-07 1.05e-07 0.20515518)
(1.37e-06 2.95e-07 0.20515545)
(1.025e-06 2.05e-07 0.20515584)
(-1.1e-07 -1.1e-07 0.20515589)
(-4.9e-07 -4.55e-07 0.20515573)
(-2.4e-07 -4.05e-07 0.2051556)
(2.8e-07 -5.35e-07 0.2051547)
(2.2e-07 3e-07 0.20515477)
(8.9e-07 4.9999999e-09 0.20515476)
(1.125e-06 -3.85e-07 0.20515505)
(7.55e-07 1.5e-08 0.2051552)
(1.395e-06 1.8e-07 0.20515548)
(7.55e-07 -2.5e-08 0.20515582)
(-4.55e-07 -4.9e-07 0.20515573)
(-3.2e-07 -3.2e-07 0.20515553)
(7.5e-08 -2e-07 0.20515558)
(9.25e-07 -5.25e-07 0.2051545)
(9.25e-07 1.2e-07 0.20515481)
(6.9e-07 1.8e-07 0.20515482)
(1.035e-06 -8e-08 0.20515502)
(9.95e-07 9e-08 0.20515521)
(1.33e-06 1.6e-07 0.20515552)
(3.55e-07 2.5e-08 0.20515579)
(-4.05e-07 -2.4e-07 0.2051556)
(-2e-07 7.5e-08 0.20515557)
(-1.2e-07 -1.2e-07 0.20515553)
(5.2e-07 5.2e-07 0.20419896)
(3.6e-07 -2e-07 0.20419906)
(1.375e-06 8.05e-07 0.20419906)
(6.3e-07 -8.5e-08 0.20419939)
(-1.27e-06 -1e-07 0.20419928)
(-1.65e-07 1e-07 0.20419935)
(3.15e-07 2.5e-07 0.20419956)
(1.2e-07 1.05e-07 0.20419966)
(-5.95e-07 3.15e-07 0.2041997)
(-6e-07 1.06e-06 0.20419956)
(-2e-07 3.6e-07 0.20419906)
(6.45e-07 6.45e-07 0.20419904)
(1.49e-06 1.03e-06 0.2041992)
(-2.75e-07 -3.5e-08 0.20419937)
(-1.085e-06 5e-08 0.20419926)
(1.85e-07 4.5e-07 0.2041994)
(3.2e-07 7.75e-07 0.20419965)
(1.85e-07 4.55e-07 0.2041997)
(3.6e-07 2.6e-07 0.20419978)
(1.45e-07 1.075e-06 0.20419982)
(8.05e-07 1.375e-06 0.20419906)
(1.03e-06 1.49e-06 0.2041992)
(6.95e-07 6.95e-07 0.20419926)
(-3.5e-07 5.45e-07 0.2041994)
(-7.85e-07 7.6e-07 0.20419932)
(5.6e-07 1.145e-06 0.20419951)
(3.2e-07 1.595e-06 0.2041998)
(-3.95e-07 1.585e-06 0.20419981)
(2.5e-08 1.03e-06 0.20419979)
(2.15e-07 8.1e-07 0.20419985)
(-8.5e-08 6.3e-07 0.20419939)
(-3.5e-08 -2.75e-07 0.20419936)
(5.45e-07 -3.5e-07 0.20419939)
(-2.1e-07 -2.1e-07 0.20419954)
(-4.85e-07 1e-08 0.2041995)
(1.02e-06 3.25e-07 0.20419972)
(7.6e-07 8e-07 0.20420008)
(-3.8e-07 1.23e-06 0.20420012)
(-4.15e-07 1.34e-06 0.20420005)
(-7.5e-08 1.235e-06 0.20420006)
(-1e-07 -1.27e-06 0.20419929)
(5e-08 -1.085e-06 0.20419927)
(7.6e-07 -7.85e-07 0.20419933)
(9.9999999e-09 -4.85e-07 0.2041995)
(-2.5e-07 -2.5e-07 0.20419947)
(1.35e-06 -3e-08 0.20419972)
(1.225e-06 2.55e-07 0.20420012)
(1.45e-07 6.2e-07 0.20420022)
(3e-08 9.85e-07 0.20420021)
(1.1e-07 1.245e-06 0.20420025)
(1e-07 -1.65e-07 0.20419935)
(4.5e-07 1.85e-07 0.2041994)
(1.145e-06 5.6e-07 0.20419951)
(3.25e-07 1.02e-06 0.20419972)
(-3e-08 1.35e-06 0.20419972)
(1.525e-06 1.525e-06 0.20419997)
(1.41e-06 1.635e-06 0.20420039)
(3.5e-07 1.71e-06 0.2042005)
(2.1e-07 1.72e-06 0.20420051)
(1.85e-07 1.63e-06 0.20420056)
(2.5e-07 3.15e-07 0.20419956)
(7.75e-07 3.2e-07 0.20419964)
(1.595e-06 3.2e-07 0.2041998)
(8e-07 7.6e-07 0.20420008)
(2.55e-07 1.225e-06 0.20420012)
(1.635e-06 1.41e-06 0.20420039)
(1.41e-06 1.41e-06 0.2042008)
(2.3e-07 1.24e-06 0.20420089)
(-5e-08 8.95e-07 0.20420086)
(2e-08 3.9e-07 0.20420085)
(1.05e-07 1.2e-07 0.20419966)
(4.55e-07 1.85e-07 0.2041997)
(1.585e-06 -3.95e-07 0.2041998)
(1.23e-06 -3.8e-07 0.20420012)
(6.2e-07 1.45e-07 0.20420022)
(1.71e-06 3.5e-07 0.2042005)
(1.24e-06 2.3e-07 0.2042009)
(-1.65e-07 -1.65e-07 0.20420093)
(-6.4e-07 -5.9e-07 0.2042008)
(-3.2e-07 -5.15e-07 0.20420064)
(3.15e-07 -5.95e-07 0.20419971)
(2.6e-07 3.6e-07 0.20419978)
(1.03e-06 2.5e-08 0.20419979)
(1.34e-06 -4.15e-07 0.20420006)
(9.85e-07 3e-08 0.20420021)
(1.72e-06 2.1e-07 0.20420051)
(8.95e-07 -5e-08 0.20420087)
(-5.9e-07 -6.4e-07 0.2042008)
(-4e-07 -4e-07 0.2042006)
(9.5e-08 -2.3e-07 0.20420064)
(1.06e-06 -6e-07 0.20419956)
(1.075e-06 1.45e-07 0.20419982)
(8.1e-07 2.15e-07 0.20419985)
(1.235e-06 -7.5e-08 0.20420006)
(1.245e-06 1.1e-07 0.20420025)
(1.63e-06 1.85e-07 0.20420057)
(3.9e-07 2e-08 0.20420086)
(-5.15e-07 -3.2e-07 0.20420064)
(-2.3e-07 9.5e-08 0.20420065)
(-1.5e-07 -1.5e-07 0.20420059)
(5.7e-07 5.7e-07 0.2029069)
(4.1e-07 -2.15e-07 0.202907)
(1.54e-06 8.75e-07 0.202907)
(7.5e-07 -9.5e-08 0.20290733)
(-1.28e-06 -1.1e-07 0.20290724)
(-2e-08 1.25e-07 0.20290732)
(4.8e-07 2.9e-07 0.20290754)
(2e-07 1.25e-07 0.20290767)
(-6.4e-07 3.55e-07 0.20290771)
(-6.7e-07 1.19e-06 0.20290758)
(-2.15e-07 4.1e-07 0.202907)
(7.15e-07 7.15e-07 0.20290698)
(1.66e-06 1.13e-06 0.20290714)
(-2.35e-07 -3e-08 0.20290731)
(-1.06e-06 7e-08 0.20290722)
(3.8e-07 5.3e-07 0.20290737)
(4.8e-07 9e-07 0.20290763)
(2.65e-07 5.25e-07 0.2029077)
(4.25e-07 3.05e-07 0.20290779)
(1.65e-07 1.22e-06 0.20290783)
(8.75e-07 1.54e-06 0.202907)
(1.13e-06 1.66e-06 0.20290715)
(7.95e-07 7.95e-07 0.20290721)
(-3.1e-07 6.35e-07 0.20290734)
(-7.2e-07 8.75e-07 0.20290728)
(8.1e-07 1.305e-06 0.20290748)
(4.75e-07 1.815e-06 0.20290779)
(-3.95e-07 1.79e-06 0.20290781)
(5.5e-08 1.165e-06 0.2029078)
(2.45e-07 9.25e-07 0.20290787)
(-9.5e-08 7.5e-07 0.20290733)
(-3e-08 -2.35e-07 0.20290731)
(6.35e-07 -3.1e-07 0.20290734)
(-1.55e-07 -1.55e-07 0.20290748)
(-3.9e-07 8.5e-08 0.20290745)
(1.32e-06 4.3e-07 0.20290768)
(9.65e-07 9.55e-07 0.20290806)
(-3.85e-07 1.435e-06 0.20290811)
(-4.4e-07 1.545e-06 0.20290806)
(-7.5e-08 1.435e-06 0.20290806)
(-1.1e-07 -1.28e-06 0.20290724)
(7e-08 -1.06e-06 0.20290722)
(8.75e-07 -7.2e-07 0.20290728)
(8.5e-08 -3.9e-07 0.20290745)
(-1.35e-07 -1.35e-07 0.20290743)
(1.68e-06 9.5e-08 0.20290768)
(1.48e-06 4.1e-07 0.20290809)
(1.95e-07 8.15e-07 0.2029082)
(5.5e-08 1.21e-06 0.2029082)
(1.35e-07 1.5e-06 0.20290825)
(1.25e-07 -2e-08 0.20290733)
(5.3e-07 3.8e-07 0.20290737)
(1.305e-06 8.1e-07 0.20290748)
(4.3e-07 1.32e-06 0.20290768)
(9.5e-08 1.68e-06 0.20290768)
(1.865e-06 1.865e-06 0.20290794)
(1.685e-06 1.975e-06 0.20290836)
(4.15e-07 2.05e-06 0.20290848)
(2.45e-07 2.05e-06 0.2029085)
(2.15e-07 1.93e-06 0.20290856)
(2.9e-07 4.8e-07 0.20290755)
(9e-07 4.8e-07 0.20290762)
(1.815e-06 4.75e-07 0.20290779)
(9.55e-07 9.65e-07 0.20290806)
(4.1e-07 1.48e-06 0.20290809)
(1.975e-06 1.685e-06 0.20290836)
(1.665e-06 1.665e-06 0.20290878)
(2.7e-07 1.455e-06 0.20290888)
(-6.5e-08 1.045e-06 0.20290886)
(1.5e-08 4.35e-07 0.20290885)
(1.25e-07 2e-07 0.20290767)
(5.25e-07 2.65e-07 0.2029077)
(1.79e-06 -3.95e-07 0.2029078)
(1.435e-06 -3.85e-07 0.2029081)
(8.15e-07 1.95e-07 0.2029082)
(2.05e-06 4.15e-07 0.20290848)
(1.455e-06 2.7e-07 0.20290887)
(-2.05e-07 -2.05e-07 0.20290892)
(-7.75e-07 -7.2e-07 0.2029088)
(-3.95e-07 -6.15e-07 0.20290866)
(3.55e-07 -6.4e-07 0.20290772)
(3.05e-07 4.25e-07 0.2029078)
(1.165e-06 5.5e-08 0.20290779)
(1.545e-06 -4.4e-07 0.20290805)
(1.21e-06 5.5e-08 0.2029082)
(2.05e-06 2.45e-07 0.20290849)
(1.045e-06 -6.5e-08 0.20290885)
(-7.2e-07 -7.75e-07 0.2029088)
(-4.75e-07 -4.75e-07 0.2029086)
(1.2e-07 -2.55e-07 0.20290865)
(1.19e-06 -6.7e-07 0.20290758)
(1.22e-06 1.65e-07 0.20290784)
(9.25e-07 2.45e-07 0.20290786)
(1.435e-06 -7.5e-08 0.20290806)
(1.5e-06 1.35e-07 0.20290825)
(1.93e-06 2.15e-07 0.20290855)
(4.35e-07 1.5e-08 0.20290885)
(-6.15e-07 -3.95e-07 0.20290866)
(-2.55e-07 1.2e-07 0.20290865)
(-1.75e-07 -1.75e-07 0.2029086)
(6.15e-07 6.15e-07 0.20119438)
(4.6e-07 -2.2e-07 0.20119448)
(1.71e-06 9.5e-07 0.20119448)
(8.7e-07 -1.1e-07 0.20119481)
(-1.275e-06 -1.2e-07 0.20119472)
(1.4e-07 1.4e-07 0.20119481)
(6.6e-07 3.3e-07 0.20119505)
(2.9e-07 1.35e-07 0.20119519)
(-6.85e-07 3.95e-07 0.20119524)
(-7.35e-07 1.315e-06 0.2011951)
(-2.2e-07 4.6e-07 0.20119448)
(7.95e-07 7.95e-07 0.20119446)
(1.82e-06 1.235e-06 0.20119462)
(-2e-07 -2.5e-08 0.20119477)
(-1.025e-06 9e-08 0.2011947)
(5.9e-07 6e-07 0.20119485)
(6.55e-07 1.02e-06 0.20119513)
(3.55e-07 5.9e-07 0.2011952)
(4.95e-07 3.4e-07 0.20119531)
(1.85e-07 1.36e-06 0.20119536)
(9.5e-07 1.71e-06 0.20119448)
(1.235e-06 1.82e-06 0.20119462)
(8.9e-07 8.9e-07 0.20119468)
(-2.75e-07 7.2e-07 0.20119481)
(-6.5e-07 9.85e-07 0.20119475)
(1.07e-06 1.46e-06 0.20119495)
(6.5e-07 2.025e-06 0.20119528)
(-3.9e-07 1.99e-06 0.20119531)
(8.5e-08 1.29e-06 0.2011953)
(2.85e-07 1.035e-06 0.20119537)
(-1.1e-07 8.7e-07 0.20119481)
(-2.5e-08 -2e-07 0.20119478)
(7.2e-07 -2.75e-07 0.20119481)
(-1.05e-07 -1.05e-07 0.20119494)
(-2.85e-07 1.55e-07 0.20119491)
(1.63e-06 5.3e-07 0.20119515)
(1.185e-06 1.1e-06 0.20119553)
(-3.8e-07 1.625e-06 0.20119559)
(-4.6e-07 1.745e-06 0.20119555)
(-7e-08 1.62e-06 0.20119556)
(-1.2e-07 -1.275e-06 0.20119472)
(9e-08 -1.025e-06 0.2011947)
(9.85e-07 -6.5e-07 0.20119475)
(1.55e-07 -2.85e-07 0.20119491)
(-1.5e-08 -1.5e-08 0.20119489)
(2.015e-06 2.25e-07 0.20119514)
(1.745e-06 5.55e-07 0.20119555)
(2.55e-07 9.95e-07 0.20119567)
(8e-08 1.425e-06 0.20119568)
(1.6e-07 1.74e-06 0.20119573)
(1.4e-07 1.4e-07 0.20119482)
(6e-07 5.9e-07 0.20119485)
(1.46e-06 1.07e-06 0.20119495)
(5.3e-07 1.63e-06 0.20119515)
(2.25e-07 2.015e-06 0.20119514)
(2.2e-06 2.2e-06 0.20119539)
(1.955e-06 2.32e-06 0.20119581)
(4.9e-07 2.385e-06 0.20119594)
(2.85e-07 2.375e-06 0.20119596)
(2.45e-07 2.23e-06 0.20119603)
(3.3e-07 6.6e-07 0.20119505)
(1.02e-06 6.55e-07 0.20119513)
(2.025e-06 6.5e-07 0.20119527)
(1.1e-06 1.185e-06 0.20119553)
(5.55e-07 1.745e-06 0.20119555)
(2.32e-06 1.955e-06 0.20119581)
(1.93e-06 1.93e-06 0.20119623)
(3.1e-07 1.68e-06 0.20119634)
(-7.5e-08 1.205e-06 0.20119632)
(1.5e-08 4.9e-07 0.20119632)
(1.35e-07 2.9e-07 0.20119518)
(5.9e-07 3.55e-07 0.2011952)
(1.99e-06 -3.9e-07 0.20119531)
(1.625e-06 -3.8e-07 0.2011956)
(9.95e-07 2.55e-07 0.20119567)
(2.385e-06 4.9e-07 0.20119594)
(1.68e-06 3.1e-07 0.20119634)
(-2.35e-07 -2.35e-07 0.20119639)
(-9.05e-07 -8.4e-07 0.20119628)
(-4.7e-07 -7.1e-07 0.20119613)
(3.95e-07 -6.85e-07 0.20119524)
(3.4e-07 4.95e-07 0.20119531)
(1.29e-06 8.5e-08 0.2011953)
(1.745e-06 -4.6e-07 0.20119555)
(1.425e-06 8e-08 0.20119568)
(2.375e-06 2.85e-07 0.20119596)
(1.205e-06 -7.5e-08 0.20119632)
(-8.4e-07 -9.05e-07 0.20119628)
(-5.5e-07 -5.5e-07 0.20119609)
(1.45e-07 -2.85e-07 0.20119614)
(1.315e-06 -7.35e-07 0.2011951)
(1.36e-06 1.85e-07 0.20119536)
(1.035e-06 2.85e-07 0.20119537)
(1.62e-06 -7e-08 0.20119556)
(1.74e-06 1.6e-07 0.20119573)
(2.23e-06 2.45e-07 0.20119603)
(4.9e-07 1.5e-08 0.20119632)
(-7.1e-07 -4.7e-07 0.20119613)
(-2.85e-07 1.45e-07 0.20119614)
(-2.05e-07 -2.05e-07 0.20119609)
(6.65e-07 6.65e-07 0.19896543)
(5.15e-07 -2.25e-07 0.19896553)
(1.875e-06 1.015e-06 0.19896553)
(9.85e-07 -1.3e-07 0.19896585)
(-1.275e-06 -1.3e-07 0.19896575)
(3.05e-07 1.6e-07 0.19896585)
(8.5e-07 3.7e-07 0.19896609)
(3.95e-07 1.45e-07 0.19896623)
(-7.25e-07 4.25e-07 0.1989663)
(-8.1e-07 1.445e-06 0.19896616)
(-2.25e-07 5.15e-07 0.19896553)
(8.65e-07 8.65e-07 0.19896551)
(1.97e-06 1.33e-06 0.19896566)
(-1.6e-07 -3e-08 0.19896581)
(-9.85e-07 1.05e-07 0.19896573)
(8.05e-07 6.7e-07 0.19896588)
(8.35e-07 1.13e-06 0.19896617)
(4.5e-07 6.5e-07 0.19896625)
(5.75e-07 3.65e-07 0.19896636)
(2.1e-07 1.495e-06 0.19896641)
(1.015e-06 1.875e-06 0.19896553)
(1.33e-06 1.97e-06 0.19896566)
(9.8e-07 9.8e-07 0.19896571)
(-2.4e-07 8.05e-07 0.19896583)
(-5.75e-07 1.085e-06 0.19896578)
(1.33e-06 1.605e-06 0.19896598)
(8.3e-07 2.22e-06 0.19896631)
(-3.7e-07 2.18e-06 0.19896634)
(1.2e-07 1.405e-06 0.19896635)
(3.2e-07 1.13e-06 0.19896642)
(-1.3e-07 9.85e-07 0.19896585)
(-3e-08 -1.6e-07 0.19896581)
(8.05e-07 -2.4e-07 0.19896583)
(-5.5e-08 -5.5e-08 0.19896597)
(-1.85e-07 2.2e-07 0.19896592)
(1.94e-06 6.15e-07 0.19896616)
(1.41e-06 1.235e-06 0.19896654)
(-3.65e-07 1.795e-06 0.19896661)
(-4.75e-07 1.925e-06 0.19896657)
(-6.5e-08 1.79e-06 0.19896658)
(-1.3e-07 -1.275e-06 0.19896575)
(1.05e-07 -9.85e-07 0.19896573)
(1.085e-06 -5.75e-07 0.19896578)
(2.2e-07 -1.85e-07 0.19896592)