/*--------------------------------*- C++ -*----------------------------------*\
| =========                 |                                                 |
| \\      /  F ield         | OpenFOAM: The Open Source CFD Toolbox           |
|  \\    /   O peration     | Version:  v2106                                 |
|   \\  /    A nd           | Website:  www.openfoam.com                      |
|    \\/     M anipulation  |                                                 |
\*---------------------------------------------------------------------------*/
FoamFile
{
    version     2.0;
    format      ascii;
    arch        "LSB;label=32;scalar=64";
    class       volScalarField;
    location    "20";
    object      Tmode1;
}
// * * * * * * * * * * * * * * * * * * * * * * * * * * * * * * * * * * * * * //

dimensions      [0 0 0 0 0 0 0];

internalField   nonuniform List<scalar> 
4000
(
-0.02189072
-0.021890722
-0.021890723
-0.021890717
-0.021890719
-0.021890721
-0.021890722
-0.021890722
-0.021890722
-0.021890722
-0.021890722
-0.021890725
-0.021890721
-0.021890718
-0.021890721
-0.021890722
-0.021890723
-0.021890722
-0.021890722
-0.021890722
-0.021890723
-0.021890721
-0.02189072
-0.021890717
-0.02189072
-0.021890722
-0.021890722
-0.021890722
-0.021890722
-0.021890722
-0.021890717
-0.021890718
-0.021890717
-0.021890715
-0.021890718
-0.021890719
-0.021890718
-0.021890718
-0.021890719
-0.021890719
-0.021890719
-0.021890721
-0.02189072
-0.021890718
-0.02189072
-0.021890721
-0.02189072
-0.02189072
-0.02189072
-0.02189072
-0.021890721
-0.021890722
-0.021890722
-0.021890719
-0.021890721
-0.021890722
-0.021890721
-0.02189072
-0.02189072
-0.02189072
-0.021890722
-0.021890723
-0.021890722
-0.021890718
-0.02189072
-0.021890721
-0.02189072
-0.021890719
-0.021890719
-0.021890719
-0.021890722
-0.021890722
-0.021890722
-0.021890718
-0.02189072
-0.02189072
-0.021890719
-0.021890718
-0.021890718
-0.021890718
-0.021890722
-0.021890722
-0.021890722
-0.021890719
-0.02189072
-0.02189072
-0.021890719
-0.021890718
-0.021890718
-0.021890718
-0.021890722
-0.021890722
-0.021890722
-0.021890719
-0.02189072
-0.02189072
-0.021890719
-0.021890718
-0.021890718
-0.021890719
-0.019820308
-0.019820309
-0.019820311
-0.019820298
-0.019820304
-0.019820309
-0.01982031
-0.01982031
-0.01982031
-0.019820311
-0.019820309
-0.019820312
-0.019820304
-0.019820298
-0.019820305
-0.019820309
-0.01982031
-0.01982031
-0.019820309
-0.019820308
-0.019820311
-0.019820304
-0.019820302
-0.019820298
-0.019820305
-0.019820308
-0.019820308
-0.019820308
-0.019820309
-0.019820308
-0.019820298
-0.019820298
-0.019820298
-0.019820293
-0.0198203
-0.019820302
-0.019820301
-0.0198203
-0.019820302
-0.019820303
-0.019820304
-0.019820305
-0.019820305
-0.0198203
-0.019820305
-0.019820307
-0.019820305
-0.019820303
-0.019820304
-0.019820304
-0.019820309
-0.019820309
-0.019820308
-0.019820302
-0.019820307
-0.019820308
-0.019820306
-0.019820304
-0.019820303
-0.019820303
-0.01982031
-0.01982031
-0.019820308
-0.019820301
-0.019820305
-0.019820306
-0.019820303
-0.019820301
-0.019820301
-0.0198203
-0.01982031
-0.01982031
-0.019820308
-0.0198203
-0.019820303
-0.019820304
-0.019820301
-0.019820299
-0.019820299
-0.019820299
-0.01982031
-0.019820309
-0.019820309
-0.019820302
-0.019820304
-0.019820303
-0.019820301
-0.019820299
-0.019820299
-0.0198203
-0.019820311
-0.019820308
-0.019820308
-0.019820303
-0.019820304
-0.019820303
-0.0198203
-0.019820299
-0.0198203
-0.0198203
-0.017750783
-0.017750779
-0.017750781
-0.017750765
-0.017750774
-0.017750781
-0.017750783
-0.017750782
-0.017750783
-0.017750786
-0.017750779
-0.017750782
-0.017750772
-0.017750765
-0.017750775
-0.017750781
-0.017750781
-0.017750781
-0.01775078
-0.017750778
-0.017750781
-0.017750772
-0.017750769
-0.017750764
-0.017750774
-0.017750778
-0.017750778
-0.017750779
-0.01775078
-0.017750779
-0.017750765
-0.017750765
-0.017750764
-0.017750759
-0.017750768
-0.017750771
-0.017750769
-0.017750769
-0.017750771
-0.017750773
-0.017750774
-0.017750775
-0.017750774
-0.017750768
-0.017750776
-0.017750778
-0.017750774
-0.017750772
-0.017750772
-0.017750772
-0.017750781
-0.017750781
-0.017750778
-0.017750771
-0.017750778
-0.017750779
-0.017750775
-0.017750771
-0.017750771
-0.01775077
-0.017750783
-0.017750781
-0.017750778
-0.017750769
-0.017750774
-0.017750775
-0.01775077
-0.017750766
-0.017750766
-0.017750765
-0.017750782
-0.017750781
-0.017750779
-0.017750769
-0.017750772
-0.017750771
-0.017750766
-0.017750763
-0.017750764
-0.017750764
-0.017750783
-0.01775078
-0.01775078
-0.017750771
-0.017750772
-0.017750771
-0.017750766
-0.017750764
-0.017750765
-0.017750766
-0.017750786
-0.017750778
-0.017750779
-0.017750773
-0.017750772
-0.01775077
-0.017750765
-0.017750764
-0.017750766
-0.017750766
-0.015682891
-0.015682885
-0.015682887
-0.015682868
-0.01568288
-0.015682888
-0.015682889
-0.015682889
-0.015682889
-0.015682894
-0.015682885
-0.015682887
-0.015682876
-0.015682868
-0.015682881
-0.015682887
-0.015682887
-0.015682888
-0.015682886
-0.015682884
-0.015682887
-0.015682876
-0.015682873
-0.015682867
-0.015682879
-0.015682884
-0.015682882
-0.015682884
-0.015682886
-0.015682884
-0.015682868
-0.015682868
-0.015682867
-0.015682862
-0.015682873
-0.015682875
-0.015682871
-0.015682872
-0.015682875
-0.015682877
-0.01568288
-0.015682881
-0.015682879
-0.015682873
-0.015682883
-0.015682884
-0.015682878
-0.015682875
-0.015682876
-0.015682875
-0.015682888
-0.015682887
-0.015682884
-0.015682875
-0.015682884
-0.015682884
-0.015682877
-0.015682873
-0.015682872
-0.01568287
-0.015682889
-0.015682887
-0.015682882
-0.015682871
-0.015682878
-0.015682877
-0.015682869
-0.015682865
-0.015682865
-0.015682864
-0.015682889
-0.015682888
-0.015682884
-0.015682872
-0.015682875
-0.015682873
-0.015682865
-0.015682862
-0.015682863
-0.015682864
-0.015682889
-0.015682886
-0.015682886
-0.015682875
-0.015682876
-0.015682872
-0.015682865
-0.015682863
-0.015682865
-0.015682866
-0.015682894
-0.015682884
-0.015682884
-0.015682877
-0.015682875
-0.01568287
-0.015682864
-0.015682864
-0.015682866
-0.015682867
-0.013617624
-0.013617617
-0.013617619
-0.013617598
-0.013617612
-0.01361762
-0.013617621
-0.013617621
-0.013617621
-0.013617628
-0.013617617
-0.013617619
-0.013617607
-0.013617599
-0.013617613
-0.013617619
-0.013617618
-0.01361762
-0.013617617
-0.013617615
-0.013617619
-0.013617607
-0.013617604
-0.013617598
-0.013617612
-0.013617615
-0.013617612
-0.013617615
-0.013617618
-0.013617616
-0.013617598
-0.013617599
-0.013617598
-0.013617592
-0.013617604
-0.013617605
-0.013617599
-0.0136176
-0.013617604
-0.013617606
-0.013617612
-0.013617613
-0.013617612
-0.013617604
-0.013617615
-0.013617614
-0.013617606
-0.013617603
-0.013617604
-0.013617603
-0.01361762
-0.013617619
-0.013617615
-0.013617605
-0.013617614
-0.013617613
-0.013617603
-0.013617599
-0.013617598
-0.013617596
-0.013617621
-0.013617618
-0.013617612
-0.013617599
-0.013617606
-0.013617603
-0.013617592
-0.013617588
-0.013617588
-0.013617587
-0.013617621
-0.01361762
-0.013617615
-0.0136176
-0.013617603
-0.013617599
-0.013617588
-0.013617585
-0.013617587
-0.013617589
-0.013617621
-0.013617617
-0.013617618
-0.013617604
-0.013617604
-0.013617598
-0.013617588
-0.013617587
-0.013617591
-0.013617591
-0.013617628
-0.013617615
-0.013617616
-0.013617606
-0.013617603
-0.013617596
-0.013617587
-0.013617589
-0.013617591
-0.013617592
-0.011556318
-0.011556309
-0.011556312
-0.011556288
-0.011556304
-0.011556312
-0.011556312
-0.011556311
-0.011556312
-0.01155632
-0.011556309
-0.011556313
-0.011556299
-0.011556289
-0.011556305
-0.011556311
-0.011556308
-0.01155631
-0.011556307
-0.011556305
-0.011556312
-0.011556299
-0.011556296
-0.011556289
-0.011556304
-0.011556306
-0.011556301
-0.011556305
-0.011556308
-0.011556305
-0.011556288
-0.011556289
-0.011556289
-0.011556282
-0.011556295
-0.011556294
-0.011556285
-0.011556286
-0.011556292
-0.011556293
-0.011556304
-0.011556305
-0.011556304
-0.011556295
-0.011556306
-0.011556304
-0.011556291
-0.011556288
-0.01155629
-0.011556288
-0.011556312
-0.011556311
-0.011556306
-0.011556294
-0.011556304
-0.0115563
-0.011556286
-0.011556281
-0.011556281
-0.011556278
-0.011556312
-0.011556308
-0.011556301
-0.011556285
-0.011556291
-0.011556286
-0.011556272
-0.011556267
-0.011556268
-0.011556267
-0.011556311
-0.01155631
-0.011556305
-0.011556286
-0.011556288
-0.011556281
-0.011556267
-0.011556265
-0.011556268
-0.011556272
-0.011556312
-0.011556307
-0.011556308
-0.011556292
-0.01155629
-0.011556281
-0.011556268
-0.011556268
-0.011556274
-0.011556273
-0.01155632
-0.011556305
-0.011556305
-0.011556293
-0.011556288
-0.011556278
-0.011556267
-0.011556272
-0.011556273
-0.011556275
-0.0095007476
-0.0095007382
-0.0095007414
-0.009500714
-0.0095007309
-0.0095007389
-0.0095007368
-0.0095007355
-0.0095007357
-0.0095007462
-0.0095007382
-0.009500742
-0.0095007267
-0.0095007154
-0.0095007327
-0.0095007373
-0.0095007327
-0.0095007337
-0.0095007301
-0.0095007277
-0.0095007414
-0.0095007267
-0.0095007227
-0.0095007147
-0.0095007303
-0.0095007314
-0.0095007237
-0.0095007278
-0.0095007313
-0.0095007277
-0.009500714
-0.0095007154
-0.0095007147
-0.0095007062
-0.0095007199
-0.0095007176
-0.0095007051
-0.0095007062
-0.0095007123
-0.0095007139
-0.0095007309
-0.0095007327
-0.0095007303
-0.0095007199
-0.0095007316
-0.009500727
-0.0095007109
-0.0095007073
-0.0095007088
-0.009500707
-0.0095007389
-0.0095007373
-0.0095007314
-0.0095007176
-0.009500727
-0.0095007207
-0.0095007031
-0.0095006976
-0.0095006972
-0.009500694
-0.0095007368
-0.0095007327
-0.0095007237
-0.0095007051
-0.0095007109
-0.0095007031
-0.009500685
-0.0095006799
-0.0095006809
-0.0095006804
-0.0095007355
-0.0095007337
-0.0095007278
-0.0095007062
-0.0095007073
-0.0095006976
-0.0095006799
-0.0095006771
-0.0095006821
-0.0095006869
-0.0095007357
-0.0095007301
-0.0095007313
-0.0095007123
-0.0095007088
-0.0095006972
-0.0095006809
-0.0095006821
-0.00950069
-0.0095006885
-0.0095007462
-0.0095007277
-0.0095007277
-0.0095007139
-0.009500707
-0.009500694
-0.0095006804
-0.0095006869
-0.0095006885
-0.0095006909
-0.0074532369
-0.0074532265
-0.0074532297
-0.007453199
-0.0074532171
-0.0074532244
-0.0074532204
-0.0074532181
-0.007453218
-0.00745323
-0.0074532265
-0.0074532305
-0.0074532136
-0.0074532007
-0.0074532191
-0.0074532224
-0.0074532154
-0.007453216
-0.0074532117
-0.0074532088
-0.0074532297
-0.0074532136
-0.0074532091
-0.0074531997
-0.0074532161
-0.0074532154
-0.0074532049
-0.007453209
-0.0074532128
-0.0074532085
-0.007453199
-0.0074532007
-0.0074531997
-0.0074531898
-0.0074532039
-0.0074531995
-0.0074531835
-0.0074531843
-0.0074531911
-0.0074531926
-0.0074532171
-0.0074532191
-0.0074532161
-0.0074532039
-0.0074532159
-0.0074532089
-0.0074531889
-0.0074531844
-0.007453186
-0.0074531838
-0.0074532244
-0.0074532224
-0.0074532154
-0.0074531995
-0.0074532089
-0.0074532001
-0.0074531784
-0.0074531719
-0.0074531714
-0.0074531677
-0.0074532204
-0.0074532154
-0.0074532049
-0.0074531835
-0.0074531889
-0.0074531784
-0.0074531562
-0.0074531502
-0.0074531516
-0.0074531512
-0.0074532181
-0.007453216
-0.007453209
-0.0074531843
-0.0074531844
-0.0074531719
-0.0074531502
-0.0074531471
-0.0074531535
-0.0074531599
-0.007453218
-0.0074532117
-0.0074532128
-0.0074531911
-0.007453186
-0.0074531714
-0.0074531516
-0.0074531535
-0.0074531634
-0.0074531615
-0.00745323
-0.0074532088
-0.0074532085
-0.0074531926
-0.0074531838
-0.0074531677
-0.0074531512
-0.0074531599
-0.0074531615
-0.0074531645
-0.0054167684
-0.005416757
-0.0054167602
-0.0054167262
-0.0054167452
-0.0054167518
-0.0054167456
-0.0054167422
-0.0054167416
-0.005416755
-0.005416757
-0.0054167613
-0.0054167427
-0.0054167281
-0.0054167474
-0.0054167493
-0.0054167398
-0.0054167397
-0.0054167345
-0.0054167312
-0.0054167602
-0.0054167427
-0.0054167376
-0.0054167268
-0.0054167438
-0.0054167412
-0.0054167276
-0.0054167317
-0.0054167355
-0.0054167306
-0.0054167262
-0.0054167281
-0.0054167268
-0.0054167154
-0.0054167299
-0.0054167232
-0.0054167035
-0.0054167039
-0.0054167112
-0.0054167127
-0.0054167452
-0.0054167474
-0.0054167438
-0.0054167299
-0.0054167421
-0.0054167326
-0.0054167085
-0.005416703
-0.0054167046
-0.0054167019
-0.0054167518
-0.0054167493
-0.0054167412
-0.0054167232
-0.0054167326
-0.0054167213
-0.0054166953
-0.0054166876
-0.005416687
-0.0054166827
-0.0054167456
-0.0054167398
-0.0054167276
-0.0054167035
-0.0054167085
-0.0054166953
-0.005416669
-0.005416662
-0.0054166636
-0.0054166633
-0.0054167422
-0.0054167397
-0.0054167317
-0.0054167039
-0.005416703
-0.0054166876
-0.005416662
-0.0054166585
-0.0054166661
-0.005416674
-0.0054167416
-0.0054167345
-0.0054167355
-0.0054167112
-0.0054167046
-0.005416687
-0.0054166636
-0.0054166661
-0.005416678
-0.0054166756
-0.005416755
-0.0054167312
-0.0054167306
-0.0054167127
-0.0054167019
-0.0054166827
-0.0054166633
-0.005416674
-0.0054166756
-0.0054166791
-0.0033950989
-0.0033950866
-0.0033950897
-0.0033950524
-0.0033950723
-0.0033950779
-0.0033950695
-0.0033950647
-0.0033950637
-0.0033950784
-0.0033950866
-0.003395091
-0.0033950707
-0.0033950546
-0.0033950747
-0.0033950751
-0.0033950629
-0.003395062
-0.0033950558
-0.0033950521
-0.0033950897
-0.0033950707
-0.003395065
-0.0033950529
-0.0033950705
-0.0033950659
-0.0033950491
-0.0033950529
-0.0033950569
-0.0033950512
-0.0033950524
-0.0033950546
-0.0033950529
-0.0033950402
-0.003395055
-0.0033950459
-0.0033950224
-0.0033950222
-0.00339503
-0.0033950314
-0.0033950723
-0.0033950747
-0.0033950705
-0.003395055
-0.0033950674
-0.0033950553
-0.0033950271
-0.0033950204
-0.003395022
-0.0033950188
-0.0033950779
-0.0033950751
-0.0033950659
-0.0033950459
-0.0033950553
-0.0033950414
-0.0033950113
-0.0033950023
-0.0033950015
-0.0033949966
-0.0033950695
-0.0033950629
-0.0033950491
-0.0033950224
-0.0033950271
-0.0033950113
-0.0033949807
-0.0033949727
-0.0033949745
-0.0033949742
-0.0033950647
-0.003395062
-0.0033950529
-0.0033950222
-0.0033950204
-0.0033950023
-0.0033949727
-0.0033949687
-0.0033949774
-0.0033949868
-0.0033950637
-0.0033950558
-0.0033950569
-0.00339503
-0.003395022
-0.0033950015
-0.0033949745
-0.0033949774
-0.0033949913
-0.0033949884
-0.0033950784
-0.0033950521
-0.0033950512
-0.0033950314
-0.0033950188
-0.0033949966
-0.0033949742
-0.0033949868
-0.0033949884
-0.0033949925
-0.0013928808
-0.0013928675
-0.0013928705
-0.00139283
-0.0013928508
-0.0013928555
-0.0013928447
-0.0013928385
-0.0013928368
-0.001392853
-0.0013928675
-0.001392872
-0.0013928502
-0.0013928326
-0.0013928534
-0.0013928523
-0.0013928373
-0.0013928356
-0.0013928283
-0.0013928241
-0.0013928705
-0.0013928502
-0.0013928439
-0.0013928306
-0.0013928487
-0.0013928421
-0.0013928221
-0.0013928255
-0.0013928295
-0.0013928231
-0.00139283
-0.0013928326
-0.0013928306
-0.0013928165
-0.0013928317
-0.0013928202
-0.0013927929
-0.001392792
-0.0013928002
-0.0013928015
-0.0013928508
-0.0013928534
-0.0013928487
-0.0013928317
-0.0013928443
-0.0013928298
-0.0013927974
-0.0013927896
-0.001392791
-0.0013927873
-0.0013928555
-0.0013928523
-0.0013928421
-0.0013928202
-0.0013928298
-0.0013928134
-0.0013927791
-0.0013927688
-0.0013927678
-0.0013927621
-0.0013928447
-0.0013928373
-0.0013928221
-0.0013927929
-0.0013927974
-0.0013927791
-0.0013927444
-0.0013927353
-0.0013927372
-0.0013927369
-0.0013928385
-0.0013928356
-0.0013928255
-0.001392792
-0.0013927896
-0.0013927688
-0.0013927353
-0.0013927307
-0.0013927405
-0.0013927513
-0.0013928368
-0.0013928283
-0.0013928295
-0.0013928002
-0.001392791
-0.0013927678
-0.0013927372
-0.0013927405
-0.0013927562
-0.0013927529
-0.001392853
-0.0013928241
-0.0013928231
-0.0013928015
-0.0013927873
-0.0013927621
-0.0013927369
-0.0013927513
-0.0013927529
-0.0013927574
0.00058420965
0.00058422391
0.00058422098
0.00058426452
0.00058424271
0.00058423906
0.0005842523
0.00058425998
0.00058426228
0.0005842448
0.00058422391
0.00058421915
0.00058424257
0.0005842616
0.00058423988
0.00058424259
0.00058426046
0.0005842631
0.00058427148
0.00058427615
0.00058422098
0.00058424257
0.0005842493
0.00058426379
0.00058424508
0.00058425365
0.00058427701
0.00058427394
0.00058427003
0.00058427711
0.00058426452
0.0005842616
0.00058426379
0.00058427913
0.00058426345
0.00058427722
0.00058430838
0.00058430996
0.00058430141
0.00058430025
0.00058424271
0.00058423988
0.00058424508
0.00058426345
0.00058425035
0.00058426725
0.00058430386
0.00058431292
0.00058431155
0.00058431583
0.00058423906
0.00058424259
0.00058425365
0.00058427722
0.00058426725
0.00058428596
0.00058432452
0.00058433612
0.00058433745
0.00058434375
0.0005842523
0.00058426046
0.00058427701
0.00058430838
0.00058430386
0.00058432452
0.00058436321
0.00058437349
0.00058437156
0.00058437192
0.00058425998
0.0005842631
0.00058427394
0.00058430996
0.00058431292
0.00058433612
0.00058437349
0.00058437869
0.00058436788
0.00058435567
0.00058426228
0.00058427148
0.00058427003
0.00058430141
0.00058431155
0.00058433745
0.00058437156
0.00058436788
0.00058435037
0.00058435423
0.0005842448
0.00058427615
0.00058427711
0.00058430025
0.00058431583
0.00058434375
0.00058437192
0.00058435567
0.00058435423
0.00058434924
0.0025293353
0.0025293505
0.0025293476
0.002529394
0.0025293712
0.0025293685
0.0025293841
0.0025293934
0.0025293963
0.0025293776
0.0025293505
0.0025293455
0.0025293704
0.0025293907
0.002529368
0.0025293722
0.002529393
0.0025293966
0.0025294061
0.0025294112
0.0025293476
0.0025293704
0.0025293775
0.002529393
0.0025293735
0.002529384
0.0025294107
0.0025294081
0.0025294042
0.002529412
0.002529394
0.0025293907
0.002529393
0.0025294093
0.0025293931
0.002529409
0.002529444
0.0025294464
0.0025294375
0.0025294364
0.0025293712
0.002529368
0.0025293735
0.0025293931
0.0025293794
0.0025293985
0.0025294392
0.0025294495
0.0025294483
0.0025294532
0.0025293685
0.0025293722
0.002529384
0.002529409
0.0025293985
0.0025294194
0.002529462
0.0025294749
0.0025294766
0.0025294836
0.0025293841
0.002529393
0.0025294107
0.002529444
0.0025294392
0.002529462
0.0025295046
0.002529516
0.0025295141
0.0025295146
0.0025293934
0.0025293966
0.0025294081
0.0025294464
0.0025294495
0.0025294749
0.002529516
0.0025295219
0.0025295102
0.0025294966
0.0025293963
0.0025294061
0.0025294042
0.0025294375
0.0025294483
0.0025294766
0.0025295141
0.0025295102
0.0025294909
0.0025294953
0.0025293776
0.0025294112
0.002529412
0.0025294364
0.0025294532
0.0025294836
0.0025295146
0.0025294966
0.0025294953
0.0025294899
0.0044343524
0.0044343684
0.0044343655
0.0044344146
0.0044343906
0.0044343888
0.0044344069
0.0044344177
0.0044344214
0.0044344013
0.0044343684
0.0044343633
0.0044343894
0.0044344108
0.0044343871
0.0044343927
0.0044344163
0.0044344209
0.0044344315
0.0044344372
0.0044343655
0.0044343894
0.0044343968
0.0044344131
0.0044343928
0.0044344051
0.004434435
0.0044344329
0.0044344291
0.0044344376
0.0044344146
0.0044344108
0.0044344131
0.0044344302
0.0044344132
0.0044344312
0.00443447
0.0044344731
0.0044344639
0.004434463
0.0044343906
0.0044343871
0.0044343928
0.0044344132
0.0044343988
0.0044344199
0.0044344646
0.0044344762
0.0044344752
0.0044344806
0.0044343888
0.0044343927
0.0044344051
0.0044344312
0.0044344199
0.0044344427
0.0044344892
0.0044345035
0.0044345055
0.0044345134
0.0044344069
0.0044344163
0.004434435
0.00443447
0.0044344646
0.0044344892
0.0044345357
0.0044345483
0.0044345464
0.0044345471
0.0044344177
0.0044344209
0.0044344329
0.0044344731
0.0044344762
0.0044345035
0.0044345483
0.0044345548
0.0044345422
0.0044345273
0.0044344214
0.0044344315
0.0044344291
0.0044344639
0.0044344752
0.0044345055
0.0044345464
0.0044345422
0.0044345212
0.0044345262
0.0044344013
0.0044344372
0.0044344376
0.004434463
0.0044344806
0.0044345134
0.0044345471
0.0044345273
0.0044345262
0.0044345204
0.0062896542
0.0062896709
0.0062896679
0.0062897194
0.0062896943
0.0062896932
0.0062897136
0.006289726
0.0062897304
0.006289709
0.0062896709
0.0062896656
0.0062896928
0.0062897151
0.0062896902
0.0062896971
0.0062897234
0.0062897292
0.0062897408
0.0062897469
0.0062896679
0.0062896928
0.0062897004
0.0062897172
0.0062896959
0.0062897099
0.006289743
0.0062897414
0.0062897377
0.0062897469
0.0062897194
0.0062897151
0.0062897172
0.0062897349
0.006289717
0.0062897368
0.0062897792
0.0062897832
0.0062897736
0.0062897729
0.0062896943
0.0062896902
0.0062896959
0.006289717
0.0062897015
0.0062897244
0.006289773
0.0062897858
0.006289785
0.006289791
0.0062896932
0.0062896971
0.0062897099
0.0062897368
0.0062897244
0.0062897488
0.0062897992
0.0062898148
0.0062898172
0.0062898258
0.0062897136
0.0062897234
0.006289743
0.0062897792
0.006289773
0.0062897992
0.0062898492
0.006289863
0.0062898612
0.0062898622
0.006289726
0.0062897292
0.0062897414
0.0062897832
0.0062897858
0.0062898148
0.006289863
0.0062898702
0.0062898568
0.0062898407
0.0062897304
0.0062897408
0.0062897377
0.0062897736
0.006289785
0.0062898172
0.0062898612
0.0062898568
0.0062898342
0.0062898397
0.006289709
0.0062897469
0.0062897469
0.0062897729
0.006289791
0.0062898258
0.0062898622
0.0062898407
0.0062898397
0.0062898336
0.008084003
0.0080840204
0.0080840171
0.0080840707
0.0080840443
0.0080840438
0.0080840664
0.0080840803
0.0080840854
0.0080840629
0.0080840204
0.0080840147
0.0080840429
0.0080840659
0.0080840396
0.0080840476
0.0080840766
0.0080840833
0.0080840961
0.0080841026
0.0080840171
0.0080840429
0.0080840505
0.0080840676
0.0080840451
0.0080840605
0.0080840967
0.0080840956
0.008084092
0.0080841019
0.0080840707
0.0080840659
0.0080840676
0.0080840856
0.0080840665
0.0080840879
0.0080841338
0.0080841385
0.0080841287
0.0080841282
0.0080840443
0.0080840396
0.0080840451
0.0080840665
0.0080840497
0.0080840742
0.0080841264
0.0080841405
0.0080841398
0.0080841465
0.0080840438
0.0080840476
0.0080840605
0.0080840879
0.0080840742
0.0080840999
0.0080841538
0.0080841708
0.0080841736
0.0080841831
0.0080840664
0.0080840766
0.0080840967
0.0080841338
0.0080841264
0.0080841538
0.0080842073
0.0080842222
0.0080842206
0.0080842219
0.0080840803
0.0080840833
0.0080840956
0.0080841385
0.0080841405
0.0080841708
0.0080842222
0.0080842301
0.008084216
0.0080841988
0.0080840854
0.0080840961
0.008084092
0.0080841287
0.0080841398
0.0080841736
0.0080842206
0.008084216
0.0080841918
0.008084198
0.0080840629
0.0080841026
0.0080841019
0.0080841282
0.0080841465
0.0080841831
0.0080842219
0.0080841988
0.008084198
0.0080841916
0.0098043493
0.0098043672
0.0098043637
0.009804419
0.0098043913
0.009804391
0.0098044157
0.0098044311
0.009804437
0.0098044133
0.0098043672
0.0098043613
0.0098043902
0.0098044136
0.0098043858
0.0098043946
0.0098044261
0.0098044339
0.0098044477
0.0098044546
0.0098043637
0.0098043902
0.0098043976
0.0098044148
0.0098043909
0.0098044074
0.0098044465
0.009804446
0.0098044425
0.009804453
0.009804419
0.0098044136
0.0098044148
0.0098044327
0.0098044122
0.0098044349
0.0098044841
0.0098044896
0.0098044795
0.0098044792
0.0098043913
0.0098043858
0.0098043909
0.0098044122
0.0098043939
0.0098044195
0.0098044753
0.0098044905
0.0098044901
0.0098044973
0.009804391
0.0098043946
0.0098044074
0.0098044349
0.0098044195
0.0098044462
0.0098045035
0.0098045217
0.009804525
0.0098045354
0.0098044157
0.0098044261
0.0098044465
0.0098044841
0.0098044753
0.0098045035
0.0098045602
0.0098045763
0.0098045749
0.0098045767
0.0098044311
0.0098044339
0.009804446
0.0098044896
0.0098044905
0.0098045217
0.0098045763
0.0098045849
0.0098045701
0.0098045519
0.009804437
0.0098044477
0.0098044425
0.0098044795
0.0098044901
0.009804525
0.0098045749
0.0098045701
0.0098045444
0.0098045513
0.0098044133
0.0098044546
0.009804453
0.0098044792
0.0098044973
0.0098045354
0.0098045767
0.0098045519
0.0098045513
0.0098045447
0.011435637
0.011435655
0.011435652
0.011435708
0.011435679
0.011435679
0.011435705
0.011435722
0.011435729
0.011435704
0.011435655
0.011435649
0.011435679
0.011435702
0.011435673
0.011435682
0.011435716
0.011435725
0.011435739
0.011435747
0.011435652
0.011435679
0.011435686
0.011435703
0.011435677
0.011435694
0.011435736
0.011435736
0.011435733
0.011435744
0.011435708
0.011435702
0.011435703
0.01143572
0.011435698
0.011435722
0.011435774
0.01143578
0.01143577
0.01143577
0.011435679
0.011435673
0.011435677
0.011435698
0.011435678
0.011435704
0.011435763
0.01143578
0.011435779
0.011435787
0.011435679
0.011435682
0.011435694
0.011435722
0.011435704
0.011435732
0.011435792
0.011435812
0.011435815
0.011435827
0.011435705
0.011435716
0.011435736
0.011435774
0.011435763
0.011435792
0.011435852
0.011435869
0.011435868
0.01143587
0.011435722
0.011435725
0.011435736
0.01143578
0.01143578
0.011435812
0.011435869
0.011435878
0.011435863
0.011435844
0.011435729
0.011435739
0.011435733
0.01143577
0.011435779
0.011435815
0.011435868
0.011435863
0.011435836
0.011435843
0.011435704
0.011435747
0.011435744
0.01143577
0.011435787
0.011435827
0.01143587
0.011435844
0.011435843
0.011435837
0.012960593
0.012960612
0.012960608
0.012960665
0.012960634
0.012960634
0.012960662
0.01296068
0.012960688
0.012960662
0.012960612
0.012960605
0.012960635
0.012960658
0.012960627
0.012960637
0.012960672
0.012960682
0.012960698
0.012960705
0.012960608
0.012960635
0.012960642
0.012960658
0.01296063
0.012960648
0.012960693
0.012960693
0.01296069
0.012960702
0.012960665
0.012960658
0.012960658
0.012960674
0.01296065
0.012960675
0.01296073
0.012960737
0.012960726
0.012960726
0.012960634
0.012960627
0.01296063
0.01296065
0.012960628
0.012960655
0.012960717
0.012960735
0.012960735
0.012960743
0.012960634
0.012960637
0.012960648
0.012960675
0.012960655
0.012960683
0.012960746
0.012960767
0.012960771
0.012960783
0.012960662
0.012960672
0.012960693
0.01296073
0.012960717
0.012960746
0.012960808
0.012960827
0.012960826
0.012960829
0.01296068
0.012960682
0.012960693
0.012960737
0.012960735
0.012960767
0.012960827
0.012960837
0.012960821
0.012960801
0.012960688
0.012960698
0.01296069
0.012960726
0.012960735
0.012960771
0.012960826
0.012960821
0.012960793
0.012960801
0.012960662
0.012960705
0.012960702
0.012960726
0.012960743
0.012960783
0.012960829
0.012960801
0.012960801
0.012960794
0.0143595
0.014359519
0.014359514
0.014359572
0.01435954
0.014359539
0.014359568
0.014359588
0.014359596
0.014359569
0.014359519
0.014359512
0.014359542
0.014359565
0.014359532
0.014359541
0.014359579
0.014359589
0.014359606
0.014359613
0.014359514
0.014359542
0.014359548
0.014359563
0.014359534
0.014359552
0.014359598
0.014359599
0.014359596
0.014359608
0.014359572
0.014359565
0.014359563
0.014359578
0.014359552
0.014359577
0.014359634
0.014359642
0.014359631
0.014359632
0.01435954
0.014359532
0.014359534
0.014359552
0.014359528
0.014359555
0.01435962
0.014359638
0.014359638
0.014359648
0.014359539
0.014359541
0.014359552
0.014359577
0.014359555
0.014359582
0.014359648
0.01435967
0.014359675
0.014359688
0.014359568
0.014359579
0.014359598
0.014359634
0.01435962
0.014359648
0.014359713
0.014359732
0.014359732
0.014359736
0.014359588
0.014359589
0.014359599
0.014359642
0.014359638
0.01435967
0.014359732
0.014359743
0.014359727
0.014359706
0.014359596
0.014359606
0.014359596
0.014359631
0.014359638
0.014359675
0.014359732
0.014359727
0.014359697
0.014359706
0.014359569
0.014359613
0.014359608
0.014359632
0.014359648
0.014359688
0.014359736
0.014359706
0.014359706
0.014359699
0.015609952
0.015609971
0.015609965
0.015610023
0.015609989
0.015609987
0.015610018
0.015610038
0.015610047
0.01561002
0.015609971
0.015609964
0.015609992
0.015610015
0.01560998
0.015609988
0.015610027
0.015610039
0.015610056
0.015610064
0.015609965
0.015609992
0.015609998
0.015610011
0.01560998
0.015609997
0.015610046
0.015610047
0.015610044
0.015610057
0.015610023
0.015610015
0.015610011
0.015610025
0.015609997
0.015610021
0.015610081
0.015610089
0.015610078
0.015610079
0.015609989
0.01560998
0.01560998
0.015609997
0.01560997
0.015609997
0.015610064
0.015610083
0.015610084
0.015610093
0.015609987
0.015609988
0.015609997
0.015610021
0.015609997
0.015610023
0.015610091
0.015610114
0.01561012
0.015610135
0.015610018
0.015610027
0.015610046
0.015610081
0.015610064
0.015610091
0.015610158
0.015610179
0.015610179
0.015610184
0.015610038
0.015610039
0.015610047
0.015610089
0.015610083
0.015610114
0.015610179
0.01561019
0.015610174
0.015610153
0.015610047
0.015610056
0.015610044
0.015610078
0.015610084
0.01561012
0.015610179
0.015610174
0.015610143
0.015610153
0.01561002
0.015610064
0.015610057
0.015610079
0.015610093
0.015610135
0.015610184
0.015610153
0.015610153
0.015610146
0.016686589
0.016686607
0.016686601
0.016686658
0.016686623
0.016686619
0.01668665
0.016686672
0.016686681
0.016686653
0.016686607
0.0166866
0.016686628
0.016686649
0.016686612
0.016686619
0.016686659
0.016686671
0.016686689
0.016686697
0.016686601
0.016686628
0.016686632
0.016686644
0.01668661
0.016686627
0.016686676
0.016686678
0.016686676
0.016686689
0.016686658
0.016686649
0.016686644
0.016686656
0.016686625
0.016686648
0.01668671
0.016686718
0.016686708
0.016686709
0.016686623
0.016686612
0.01668661
0.016686625
0.016686596
0.016686621
0.01668669
0.01668671
0.016686711
0.016686722
0.016686619
0.016686619
0.016686627
0.016686648
0.016686621
0.016686647
0.016686717
0.016686741
0.016686747
0.016686763
0.01668665
0.016686659
0.016686676
0.01668671
0.01668669
0.016686717
0.016686786
0.016686807
0.016686808
0.016686813
0.016686672
0.016686671
0.016686678
0.016686718
0.01668671
0.016686741
0.016686807
0.016686819
0.016686803
0.016686781
0.016686681
0.016686689
0.016686676
0.016686708
0.016686711
0.016686747
0.016686808
0.016686803
0.016686771
0.016686782
0.016686653
0.016686697
0.016686689
0.016686709
0.016686722
0.016686763
0.016686813
0.016686781
0.016686782
0.016686775
0.017560818
0.017560836
0.017560829
0.017560884
0.017560848
0.017560842
0.017560873
0.017560896
0.017560905
0.017560877
0.017560836
0.017560827
0.017560854
0.017560874
0.017560835
0.01756084
0.017560881
0.017560894
0.017560912
0.017560921
0.017560829
0.017560854
0.017560857
0.017560867
0.017560831
0.017560846
0.017560897
0.017560899
0.017560897
0.017560911
0.017560884
0.017560874
0.017560867
0.017560876
0.017560843
0.017560865
0.017560928
0.017560937
0.017560926
0.017560928
0.017560848
0.017560835
0.017560831
0.017560843
0.017560811
0.017560835
0.017560905
0.017560926
0.017560928
0.017560939
0.017560842
0.01756084
0.017560846
0.017560865
0.017560835