/*--------------------------------*- C++ -*----------------------------------*\
| =========                 |                                                 |
| \\      /  F ield         | OpenFOAM: The Open Source CFD Toolbox           |
|  \\    /   O peration     | Version:  v2106                                 |
|   \\  /    A nd           | Website:  www.openfoam.com                      |
|    \\/     M anipulation  |                                                 |
\*---------------------------------------------------------------------------*/
FoamFile
{
    version     2.0;
    format      ascii;
    arch        "LSB;label=32;scalar=64";
    class       volScalarField;
    location    "20";
    object      Tmode5;
}
// * * * * * * * * * * * * * * * * * * * * * * * * * * * * * * * * * * * * * //

dimensions      [0 0 0 0 0 0 0];

internalField   nonuniform List<scalar> 
4000
(
0.02343488
0.023434864
0.023434822
0.023434908
0.02343489
0.023434852
0.023434828
0.023434819
0.023434816
0.023434814
0.023434864
0.023434806
0.02343485
0.023434905
0.023434872
0.023434832
0.023434812
0.023434806
0.023434806
0.023434814
0.023434822
0.02343485
0.023434867
0.023434905
0.023434869
0.023434833
0.023434817
0.023434811
0.023434807
0.023434816
0.023434908
0.023434905
0.023434905
0.023434938
0.023434905
0.023434875
0.023434866
0.023434864
0.023434856
0.023434853
0.02343489
0.023434872
0.023434869
0.023434905
0.023434877
0.023434854
0.023434853
0.023434859
0.023434859
0.023434861
0.023434852
0.023434832
0.023434833
0.023434875
0.023434854
0.023434838
0.023434844
0.023434856
0.023434861
0.023434868
0.023434828
0.023434812
0.023434817
0.023434866
0.023434853
0.023434844
0.023434854
0.02343487
0.023434877
0.023434884
0.023434819
0.023434806
0.023434811
0.023434864
0.023434859
0.023434856
0.02343487
0.023434886
0.023434891
0.023434896
0.023434816
0.023434806
0.023434807
0.023434856
0.023434859
0.023434861
0.023434877
0.023434891
0.023434893
0.023434896
0.023434814
0.023434814
0.023434816
0.023434853
0.023434861
0.023434868
0.023434884
0.023434896
0.023434896
0.023434898
0.017652468
0.017652469
0.017652411
0.017652591
0.017652533
0.01765243
0.017652367
0.017652342
0.017652331
0.017652319
0.017652469
0.017652408
0.017652496
0.017652606
0.017652516
0.017652414
0.01765236
0.017652341
0.017652344
0.017652361
0.017652411
0.017652496
0.017652531
0.017652604
0.01765251
0.017652418
0.017652377
0.017652356
0.017652346
0.017652367
0.017652591
0.017652606
0.017652604
0.017652667
0.017652581
0.017652508
0.017652487
0.017652478
0.017652457
0.017652452
0.017652533
0.017652516
0.01765251
0.017652581
0.017652512
0.017652459
0.017652462
0.017652476
0.017652475
0.017652482
0.01765243
0.017652414
0.017652418
0.017652508
0.017652459
0.017652427
0.017652449
0.017652481
0.017652496
0.017652515
0.017652367
0.01765236
0.017652377
0.017652487
0.017652462
0.017652449
0.017652485
0.017652525
0.017652545
0.017652564
0.017652342
0.017652341
0.017652356
0.017652478
0.017652476
0.017652481
0.017652525
0.017652567
0.01765258
0.017652592
0.017652331
0.017652344
0.017652346
0.017652457
0.017652475
0.017652496
0.017652545
0.01765258
0.017652585
0.017652589
0.017652319
0.017652361
0.017652367
0.017652452
0.017652482
0.017652515
0.017652564
0.017652592
0.017652589
0.017652598
0.012036188
0.012036243
0.012036197
0.012036418
0.012036316
0.012036161
0.012036071
0.012036034
0.012036018
0.012035983
0.012036243
0.01203619
0.012036311
0.012036438
0.012036297
0.012036148
0.012036072
0.01203604
0.012036051
0.012036075
0.012036197
0.012036311
0.012036361
0.01203644
0.012036296
0.012036168
0.012036112
0.012036074
0.012036061
0.012036092
0.012036418
0.012036438
0.01203644
0.012036509
0.01203638
0.012036283
0.012036262
0.012036243
0.012036218
0.012036213
0.012036316
0.012036297
0.012036296
0.01203638
0.012036279
0.012036216
0.012036234
0.012036253
0.012036258
0.012036273
0.012036161
0.012036148
0.012036168
0.012036283
0.012036216
0.012036186
0.012036235
0.012036283
0.012036312
0.012036344
0.012036071
0.012036072
0.012036112
0.012036262
0.012036234
0.012036235
0.012036306
0.012036366
0.012036399
0.012036428
0.012036034
0.01203604
0.012036074
0.012036243
0.012036253
0.012036283
0.012036366
0.012036424
0.012036446
0.012036458
0.012036018
0.012036051
0.012036061
0.012036218
0.012036258
0.012036312
0.012036399
0.012036446
0.012036451
0.012036459
0.012035983
0.012036075
0.012036092
0.012036213
0.012036273
0.012036344
0.012036428
0.012036458
0.012036459
0.01203647
0.0066945889
0.0066946785
0.0066946252
0.0066948777
0.0066947389
0.006694548
0.0066944407
0.0066943945
0.0066943803
0.0066943261
0.0066946785
0.0066946255
0.0066947631
0.0066949011
0.0066947193
0.0066945405
0.0066944525
0.0066944049
0.006694426
0.0066944568
0.0066946252
0.0066947631
0.0066948137
0.0066948971
0.0066947166
0.0066945693
0.0066945106
0.0066944531
0.0066944412
0.0066944867
0.0066948777
0.0066949011
0.0066948971
0.0066949711
0.0066948146
0.0066947116
0.0066947023
0.0066946721
0.0066946444
0.0066946486
0.0066947389
0.0066947193
0.0066947166
0.0066948146
0.0066946964
0.006694641
0.0066946852
0.0066947067
0.006694719
0.0066947479
0.006694548
0.0066945405
0.0066945693
0.0066947116
0.006694641
0.0066946307
0.006694717
0.006694776
0.0066948186
0.006694867
0.0066944407
0.0066944525
0.0066945106
0.0066947023
0.0066946852
0.006694717
0.0066948307
0.0066949038
0.0066949481
0.0066949865
0.0066943945
0.0066944049
0.0066944531
0.0066946721
0.0066947067
0.006694776
0.0066949038
0.0066949699
0.0066949937
0.006695008
0.0066943803
0.006694426
0.0066944412
0.0066946444
0.006694719
0.0066948186
0.0066949481
0.0066949937
0.0066949979
0.006695022
0.0066943261
0.0066944568
0.0066944867
0.0066946486
0.0066947479
0.006694867
0.0066949865
0.006695008
0.006695022
0.0066950316
0.0017326689
0.0017327721
0.001732705
0.0017329926
0.0017328287
0.0017326158
0.0017325031
0.0017324503
0.0017324348
0.0017323635
0.0017327721
0.001732707
0.0017328571
0.0017330121
0.0017328027
0.00173261
0.001732523
0.0017324633
0.0017324918
0.0017325299
0.001732705
0.0017328571
0.001732907
0.0017330016
0.0017327988
0.0017326489
0.0017326007
0.0017325276
0.0017325156
0.0017325759
0.0017329926
0.0017330121
0.0017330016
0.0017330893
0.0017329194
0.0017328271
0.0017328423
0.0017328036
0.0017327726
0.0017327852
0.0017328287
0.0017328027
0.0017327988
0.0017329194
0.0017327988
0.0017327671
0.0017328498
0.001732875
0.0017328924
0.001732934
0.0017326158
0.00173261
0.0017326489
0.0017328271
0.0017327671
0.0017327922
0.0017329268
0.0017329971
0.001733049
0.0017331103
0.0017325031
0.001732523
0.0017326007
0.0017328423
0.0017328498
0.0017329268
0.001733094
0.001733178
0.0017332262
0.001733268
0.0017324503
0.0017324633
0.0017325276
0.0017328036
0.001732875
0.0017329971
0.001733178
0.0017332474
0.0017332638
0.0017332719
0.0017324348
0.0017324918
0.0017325156
0.0017327726
0.0017328924
0.001733049
0.0017332262
0.0017332638
0.0017332572
0.0017333002
0.0017323635
0.0017325299
0.0017325759
0.0017327852
0.001732934
0.0017331103
0.001733268
0.0017332719
0.0017333002
0.0017333081
-0.0027496791
-0.0027495677
-0.0027496458
-0.0027493155
-0.0027494933
-0.0027497145
-0.0027498201
-0.0027498717
-0.0027498855
-0.002749971
-0.0027495677
-0.0027496467
-0.0027494803
-0.0027493002
-0.0027495251
-0.0027497175
-0.0027497905
-0.002749854
-0.0027498148
-0.0027497674
-0.0027496458
-0.0027494803
-0.0027494265
-0.0027493118
-0.0027495245
-0.0027496626
-0.0027496873
-0.0027497683
-0.0027497772
-0.0027497007
-0.0027493155
-0.0027493002
-0.0027493118
-0.0027492009
-0.0027493718
-0.0027494391
-0.0027493868
-0.002749427
-0.0027494586
-0.002749437
-0.0027494933
-0.0027495251
-0.0027495245
-0.0027493718
-0.0027494821
-0.0027494764
-0.0027493433
-0.0027493082
-0.0027492842
-0.0027492301
-0.0027497145
-0.0027497175
-0.0027496626
-0.0027494391
-0.0027494764
-0.0027494028
-0.0027492087
-0.0027491222
-0.0027490609
-0.0027489882
-0.0027498201
-0.0027497905
-0.0027496873
-0.0027493868
-0.0027493433
-0.0027492087
-0.0027489782
-0.0027488796
-0.0027488292
-0.0027487879
-0.0027498717
-0.002749854
-0.0027497683
-0.002749427
-0.0027493082
-0.0027491222
-0.0027488796
-0.0027488054
-0.0027488007
-0.0027488046
-0.0027498855
-0.0027498148
-0.0027497772
-0.0027494586
-0.0027492842
-0.0027490609
-0.0027488292
-0.0027488007
-0.0027488236
-0.0027487639
-0.002749971
-0.0027497674
-0.0027497007
-0.002749437
-0.0027492301
-0.0027489882
-0.0027487879
-0.0027488046
-0.0027487639
-0.0027487594
-0.0066593718
-0.0066592508
-0.0066593347
-0.0066589541
-0.0066591365
-0.006659355
-0.0066594427
-0.0066594847
-0.0066594924
-0.0066595897
-0.0066592508
-0.0066593413
-0.006659153
-0.0066589402
-0.0066591711
-0.0066593518
-0.0066593998
-0.006659459
-0.0066594048
-0.0066593463
-0.0066593347
-0.006659153
-0.0066590898
-0.006658947
-0.0066591599
-0.0066592749
-0.0066592654
-0.0066593464
-0.0066593484
-0.0066592546
-0.0066589541
-0.0066589402
-0.006658947
-0.0066588049
-0.0066589669
-0.0066589984
-0.0066588986
-0.0066589331
-0.0066589621
-0.0066589308
-0.0066591365
-0.0066591711
-0.0066591599
-0.0066589669
-0.0066590577
-0.0066590039
-0.0066588107
-0.0066587593
-0.006658726
-0.0066586592
-0.006659355
-0.0066593518
-0.0066592749
-0.0066589984
-0.0066590039
-0.006658872
-0.0066586095
-0.0066585011
-0.0066584287
-0.0066583452
-0.0066594427
-0.0066593998
-0.0066592654
-0.0066588986
-0.0066588107
-0.0066586095
-0.0066583076
-0.0066581899
-0.0066581366
-0.0066580975
-0.0066594847
-0.006659459
-0.0066593464
-0.0066589331
-0.0066587593
-0.0066585011
-0.0066581899
-0.0066581074
-0.0066581154
-0.0066581346
-0.0066594924
-0.0066594048
-0.0066593484
-0.0066589621
-0.006658726
-0.0066584287
-0.0066581366
-0.0066581154
-0.0066581569
-0.006658083
-0.0066595897
-0.0066593463
-0.0066592546
-0.0066589308
-0.0066586592
-0.0066583452
-0.0066580975
-0.0066581346
-0.006658083
-0.0066580839
-0.0099121564
-0.0099120231
-0.0099121078
-0.0099116707
-0.0099118508
-0.0099120583
-0.0099121196
-0.0099121455
-0.0099121431
-0.0099122505
-0.0099120231
-0.0099121219
-0.0099119069
-0.0099116557
-0.0099118855
-0.009912046
-0.0099120606
-0.009912109
-0.009912036
-0.0099119652
-0.0099121078
-0.0099119069
-0.0099118295
-0.0099116529
-0.0099118588
-0.0099119423
-0.0099118903
-0.0099119654
-0.0099119573
-0.0099118453
-0.0099116707
-0.0099116557
-0.0099116529
-0.0099114735
-0.0099116197
-0.0099116072
-0.0099114522
-0.0099114753
-0.009911499
-0.0099114576
-0.0099118508
-0.0099118855
-0.0099118588
-0.0099116197
-0.0099116842
-0.009911575
-0.0099113145
-0.0099112415
-0.0099111966
-0.0099111169
-0.0099120583
-0.009912046
-0.0099119423
-0.0099116072
-0.009911575
-0.009911378
-0.0099110406
-0.0099109058
-0.0099108203
-0.0099107261
-0.0099121196
-0.0099120606
-0.0099118903
-0.0099114522
-0.0099113145
-0.0099110406
-0.0099106615
-0.0099105208
-0.0099104636
-0.0099104273
-0.0099121455
-0.009912109
-0.0099119654
-0.0099114753
-0.0099112415
-0.0099109058
-0.0099105208
-0.009910427
-0.0099104474
-0.0099104835
-0.0099121431
-0.009912036
-0.0099119573
-0.009911499
-0.0099111966
-0.0099108203
-0.0099104636
-0.0099104474
-0.009910508
-0.0099104219
-0.0099122505
-0.0099119652
-0.0099118453
-0.0099114576
-0.0099111169
-0.0099107261
-0.0099104273
-0.0099104835
-0.0099104219
-0.0099104297
-0.012434889
-0.012434741
-0.012434823
-0.012434325
-0.012434498
-0.012434689
-0.012434717
-0.012434722
-0.012434706
-0.012434823
-0.012434741
-0.012434846
-0.012434601
-0.012434307
-0.012434531
-0.012434665
-0.01243464
-0.012434673
-0.012434578
-0.012434494
-0.012434823
-0.012434601
-0.012434506
-0.012434291
-0.012434485
-0.012434531
-0.012434431
-0.012434495
-0.012434475
-0.012434344
-0.012434325
-0.012434307
-0.012434291
-0.012434071
-0.012434196
-0.012434134
-0.012433918
-0.012433926
-0.012433942
-0.01243389
-0.012434498
-0.012434531
-0.012434485
-0.012434196
-0.01243423
-0.012434061
-0.012433728
-0.01243363
-0.012433571
-0.012433478
-0.012434689
-0.012434665
-0.012434531
-0.012434134
-0.012434061
-0.012433794
-0.012433378
-0.012433213
-0.012433113
-0.012433008
-0.012434717
-0.01243464
-0.012434431
-0.012433918
-0.012433728
-0.012433378
-0.012432918
-0.012432751
-0.012432689
-0.012432656
-0.012434722
-0.012434673
-0.012434495
-0.012433926
-0.01243363
-0.012433213
-0.012432751
-0.012432644
-0.012432676
-0.012432729
-0.012434706
-0.012434578
-0.012434475
-0.012433942
-0.012433571
-0.012433113
-0.012432689
-0.012432676
-0.012432755
-0.012432658
-0.012434823
-0.012434494
-0.012434344
-0.01243389
-0.012433478
-0.012433008
-0.012432656
-0.012432729
-0.012432658
-0.012432674
-0.014168099
-0.014167935
-0.014168011
-0.01416745
-0.014167613
-0.014167782
-0.014167774
-0.014167753
-0.014167723
-0.014167848
-0.014167935
-0.014168044
-0.014167766
-0.014167427
-0.014167642
-0.014167746
-0.014167676
-0.01416769
-0.014167572
-0.014167475
-0.014168011
-0.014167766
-0.014167651
-0.014167396
-0.014167575
-0.01416758
-0.014167427
-0.014167477
-0.014167443
-0.014167294
-0.01416745
-0.014167427
-0.014167396
-0.014167132
-0.014167235
-0.01416712
-0.014166839
-0.014166827
-0.014166835
-0.014166773
-0.014167613
-0.014167642
-0.014167575
-0.014167235
-0.014167236
-0.014167003
-0.014166595
-0.014166468
-0.014166395
-0.014166289
-0.014167782
-0.014167746
-0.01416758
-0.01416712
-0.014167003
-0.014166665
-0.014166166
-0.01416597
-0.014165854
-0.014165739
-0.014167774
-0.014167676
-0.014167427
-0.014166839
-0.014166595
-0.014166166
-0.014165623
-0.014165428
-0.01416536
-0.01416533
-0.014167753
-0.01416769
-0.014167477
-0.014166827
-0.014166468
-0.01416597
-0.014165428
-0.014165305
-0.014165349
-0.014165421
-0.014167723
-0.014167572
-0.014167443
-0.014166835
-0.014166395
-0.014165854
-0.01416536
-0.014165349
-0.014165448
-0.01416534
-0.014167848
-0.014167475
-0.014167294
-0.014166773
-0.014166289
-0.014165739
-0.01416533
-0.014165421
-0.01416534
-0.014165364
-0.015068857
-0.015068676
-0.015068744
-0.015068118
-0.015068269
-0.015068414
-0.015068365
-0.015068317
-0.01506827
-0.015068404
-0.015068676
-0.015068787
-0.015068475
-0.01506809
-0.015068295
-0.015068365
-0.015068248
-0.015068239
-0.015068097
-0.015067986
-0.015068744
-0.015068475
-0.015068339
-0.015068043
-0.015068206
-0.015068166
-0.015067957
-0.015067991
-0.015067942
-0.015067774
-0.015068118
-0.01506809
-0.015068043
-0.015067735
-0.015067813
-0.015067642
-0.015067294
-0.015067261
-0.01506726
-0.015067188
-0.015068269
-0.015068295
-0.015068206
-0.015067813
-0.015067781
-0.015067483
-0.015066996
-0.01506684
-0.015066752
-0.015066633
-0.015068414
-0.015068365
-0.015068166
-0.015067642
-0.015067483
-0.015067073
-0.01506649
-0.015066259
-0.015066128
-0.015066002
-0.015068365
-0.015068248
-0.015067957
-0.015067294
-0.015066996
-0.01506649
-0.015065862
-0.015065638
-0.015065564
-0.015065537
-0.015068317
-0.015068239
-0.015067991
-0.015067261
-0.01506684
-0.015066259
-0.015065638
-0.015065499
-0.015065553
-0.015065643
-0.01506827
-0.015068097
-0.015067942
-0.01506726
-0.015066752
-0.015066128
-0.015065564
-0.015065553
-0.015065671
-0.015065553
-0.015068404
-0.015067986
-0.015067774
-0.015067188
-0.015066633
-0.015066002
-0.015065537
-0.015065643
-0.015065553
-0.015065585
-0.015113942
-0.015113744
-0.015113803
-0.015113112
-0.015113251
-0.015113371
-0.015113279
-0.015113201
-0.015113136
-0.015113278
-0.015113744
-0.015113857
-0.015113509
-0.01511308
-0.015113273
-0.015113308
-0.015113141
-0.015113109
-0.015112941
-0.015112816
-0.015113803
-0.015113509
-0.015113353
-0.015113016
-0.015113162
-0.015113077
-0.015112809
-0.015112826
-0.015112762
-0.015112575
-0.015113112
-0.01511308
-0.015113016
-0.015112664
-0.015112718
-0.015112491
-0.015112072
-0.015112018
-0.015112007
-0.015111924
-0.015113251
-0.015113273
-0.015113162
-0.015112718
-0.015112654
-0.015112291
-0.015111724
-0.015111536
-0.015111433
-0.0151113
-0.015113371
-0.015113308
-0.015113077
-0.015112491
-0.015112291
-0.015111808
-0.01511114
-0.015110876
-0.015110728
-0.01511059
-0.015113279
-0.015113141
-0.015112809
-0.015112072
-0.015111724
-0.01511114
-0.015110428
-0.015110174
-0.015110093
-0.015110069
-0.015113201
-0.015113109
-0.015112826
-0.015112018
-0.015111536
-0.015110876
-0.015110174
-0.015110017
-0.015110082
-0.01511019
-0.015113136
-0.015112941
-0.015112762
-0.015112007
-0.015111433
-0.015110728
-0.015110093
-0.015110082
-0.015110219
-0.015110091
-0.015113278
-0.015112816
-0.015112575
-0.015111924
-0.0151113
-0.01511059
-0.015110069
-0.01511019
-0.015110091
-0.015110131
-0.014303283
-0.014303067
-0.014303118
-0.014302362
-0.014302491
-0.014302584
-0.014302447
-0.014302338
-0.014302254
-0.014302405
-0.014303067
-0.014303183
-0.0143028
-0.014302326
-0.01430251
-0.014302509
-0.01430229
-0.014302232
-0.014302039
-0.0143019
-0.014303118
-0.0143028
-0.014302623
-0.014302247
-0.014302378
-0.014302246
-0.014301918
-0.014301916
-0.014301836
-0.014301631
-0.014302362
-0.014302326
-0.014302247
-0.014301853
-0.014301884
-0.014301601
-0.014301111
-0.014301033
-0.014301012
-0.01430092
-0.014302491
-0.01430251
-0.014302378
-0.014301884
-0.01430179
-0.014301362
-0.014300715
-0.014300495
-0.014300376
-0.01430023
-0.014302584
-0.014302509
-0.014302246
-0.014301601
-0.014301362
-0.014300809
-0.014300057
-0.014299756
-0.014299592
-0.014299443
-0.014302447
-0.01430229
-0.014301918
-0.014301111
-0.014300715
-0.014300057
-0.014299259
-0.014298976
-0.014298887
-0.014298865
-0.014302338
-0.014302232
-0.014301916
-0.014301033
-0.014300495
-0.014299756
-0.014298976
-0.0142988
-0.014298875
-0.014299001
-0.014302254
-0.014302039
-0.014301836
-0.014301012
-0.014300376
-0.014299592
-0.014298887
-0.014298875
-0.01429903
-0.014298892
-0.014302405
-0.0143019
-0.014301631
-0.01430092
-0.01430023
-0.014299443
-0.014298865
-0.014299001
-0.014298892
-0.014298941
-0.012663584
-0.012663351
-0.012663394
-0.012662575
-0.012662695
-0.012662762
-0.01266258
-0.012662438
-0.012662335
-0.012662494
-0.012663351
-0.012663468
-0.012663053
-0.012662537
-0.012662712
-0.012662676
-0.012662404
-0.01266232
-0.0126621
-0.012661948
-0.012663394
-0.012663053
-0.012662857
-0.012662444
-0.012662561
-0.012662384
-0.012661995
-0.012661972
-0.012661877
-0.012661653
-0.012662575
-0.012662537
-0.012662444
-0.012662011
-0.012662022
-0.012661683
-0.012661121
-0.012661018
-0.012660988
-0.012660885
-0.012662695
-0.012662712
-0.012662561
-0.012662022
-0.012661901
-0.01266141
-0.012660682
-0.012660429
-0.012660294
-0.012660134
-0.012662762
-0.012662676
-0.012662384
-0.012661683
-0.01266141
-0.012660788
-0.012659952
-0.012659615
-0.012659434
-0.012659272
-0.01266258
-0.012662404
-0.012661995
-0.012661121
-0.012660682
-0.012659952
-0.012659071
-0.012658756
-0.01265866
-0.012658639
-0.012662438
-0.01266232
-0.012661972
-0.012661018
-0.012660429
-0.012659615
-0.012658756
-0.012658562
-0.012658646
-0.01265879
-0.012662335
-0.0126621
-0.012661877
-0.012660988
-0.012660294
-0.012659434
-0.01265866
-0.012658646
-0.01265882
-0.012658672
-0.012662494
-0.012661948
-0.012661653
-0.012660885
-0.012660134
-0.012659272
-0.012658639
-0.01265879
-0.012658672
-0.012658728
-0.010252018
-0.01025177
-0.010251805
-0.010250928
-0.01025104
-0.010251082
-0.010250854
-0.010250678
-0.010250556
-0.010250723
-0.01025177
-0.01025189
-0.010251443
-0.010250888
-0.010251058
-0.010250987
-0.010250661
-0.01025055
-0.010250304
-0.010250137
-0.010251805
-0.010251443
-0.010251231
-0.010250785
-0.010250891
-0.010250669
-0.010250219
-0.010250174
-0.010250064
-0.010249822
-0.010250928
-0.010250888
-0.010250785
-0.010250316
-0.01025031
-0.010249917
-0.010249284
-0.010249156
-0.010249115
-0.010249002
-0.01025104
-0.010251058
-0.010250891
-0.01025031
-0.010250166
-0.010249614
-0.010248807
-0.01024852
-0.010248368
-0.010248194
-0.010251082
-0.010250987
-0.010250669
-0.010249917
-0.010249614
-0.010248929
-0.010248008
-0.010247635
-0.010247437
-0.010247261
-0.010250854
-0.010250661
-0.010250219
-0.010249284
-0.010248807
-0.010248008
-0.010247045
-0.010246698
-0.010246594
-0.010246572
-0.010250678
-0.01025055
-0.010250174
-0.010249156
-0.01024852
-0.010247635
-0.010246698
-0.010246485
-0.010246578
-0.010246738
-0.010250556
-0.010250304
-0.010250064
-0.010249115
-0.010248368
-0.010247437
-0.010246594
-0.010246578
-0.01024677
-0.010246611
-0.010250723
-0.010250137
-0.010249822
-0.010249002
-0.010248194
-0.010247261
-0.010246572
-0.010246738
-0.010246611
-0.010246673
-0.0071597882
-0.0071595271
-0.0071595571
-0.0071586252
-0.0071587331
-0.0071587525
-0.0071584778
-0.0071582681
-0.0071581251
-0.0071582998
-0.0071595271
-0.0071596516
-0.0071591768
-0.0071585877
-0.0071587552
-0.0071586507
-0.0071582718
-0.0071581323
-0.0071578588
-0.0071576784
-0.0071595571
-0.0071591768
-0.0071589514
-0.0071584765
-0.0071585759
-0.007158311
-0.0071577997
-0.0071577332
-0.0071576061
-0.0071573455
-0.0071586252
-0.0071585877
-0.0071584765
-0.0071579773
-0.0071579586
-0.0071575144
-0.0071568101
-0.0071566557
-0.0071566043
-0.00715648
-0.0071587331
-0.0071587552
-0.0071585759
-0.0071579586
-0.0071577964
-0.0071571876
-0.0071563007
-0.007155979
-0.0071558103
-0.0071556209
-0.0071587525
-0.0071586507
-0.007158311
-0.0071575144
-0.0071571876
-0.0071564409
-0.0071554383
-0.0071550284
-0.0071548109
-0.0071546204
-0.0071584778
-0.0071582718
-0.0071577997
-0.0071568101
-0.0071563007
-0.0071554383
-0.0071543935
-0.0071540147
-0.0071539002
-0.0071538767
-0.0071582681
-0.0071581323
-0.0071577332
-0.0071566557
-0.007155979
-0.0071550284
-0.0071540147
-0.0071537812
-0.007153881
-0.0071540571
-0.0071581251
-0.0071578588
-0.0071576061
-0.0071566043
-0.0071558103
-0.0071548109
-0.0071539002
-0.007153881
-0.0071540902
-0.0071539191
-0.0071582998
-0.0071576784
-0.0071573455
-0.00715648
-0.0071556209
-0.0071546204
-0.0071538767
-0.0071540571
-0.0071539191
-0.0071539867
-0.0035152677
-0.0035149963
-0.0035150233
-0.003514042
-0.0035141491
-0.0035141472
-0.0035138268
-0.0035135825
-0.0035134187
-0.0035136002
-0.0035149963
-0.0035151269
-0.003514628
-0.0035140098
-0.0035141783
-0.0035140428
-0.0035136108
-0.0035134426
-0.0035131418
-0.0035129466
-0.0035150233
-0.003514628
-0.0035143934
-0.0035138952
-0.0035139911
-0.0035136861
-0.0035131139
-0.0035130249
-0.003512881
-0.0035126009
-0.003514042
-0.0035140098
-0.0035138952
-0.0035133713
-0.0035133443
-0.0035128519
-0.0035120769
-0.0035118959
-0.003511833
-0.0035116964
-0.0035141491
-0.0035141783
-0.0035139911
-0.0035133443
-0.0035131692
-0.0035125069
-0.0035115417
-0.0035111851
-0.0035109983
-0.0035107918
-0.0035141472
-0.0035140428
-0.0035136861
-0.0035128519
-0.0035125069
-0.0035117037
-0.0035106202
-0.0035101726
-0.003509935
-0.0035097272
-0.0035138268
-0.0035136108
-0.0035131139
-0.0035120769
-0.0035115417
-0.0035106202
-0.0035094958
-0.0035090839
-0.0035089576
-0.0035089296
-0.0035135825
-0.0035134426
-0.0035130249
-0.0035118959
-0.0035111851
-0.0035101726
-0.0035090839
-0.003508829
-0.003508934
-0.0035091235
-0.0035134187
-0.0035131418
-0.003512881
-0.003511833
-0.0035109983
-0.003509935
-0.0035089576
-0.003508934
-0.0035091589
-0.0035089741
-0.0035136002
-0.0035129466
-0.0035126009
-0.0035116964
-0.0035107918
-0.0035097272
-0.0035089296
-0.0035091235
-0.0035089741
-0.0035090445
0.00051369611
0.00051397446
0.00051394773
0.00051497204
0.00051486217
0.0005148834
0.0005152487
0.00051552791
0.0005157131
0.00051552587
0.00051397446
0.00051383569
0.000514354
0.00051499526
0.00051482226
0.00051498648
0.00051547088
0.00051566802
0.00051599645
0.00051620729
0.00051394773
0.000514354
0.00051459303
0.00051510874
0.00051501224
0.00051535476
0.00051598686
0.00051609903
0.0005162604
0.00051656095
0.00051497204
0.00051499526
0.00051510874
0.00051565083
0.00051568156
0.00051621887
0.00051706335
0.00051727149
0.00051734701
0.00051749758
0.00051486217
0.00051482226
0.00051501224
0.00051568156
0.0005158641
0.00051657591
0.00051761785
0.00051800989
0.00051821622
0.00051844188
0.0005148834
0.00051498648
0.00051535476
0.00051621887
0.00051657591
0.00051743115
0.00051859387
0.00051907984
0.00051933944
0.00051956705
0.0005152487
0.00051547088
0.00051598686
0.00051706335
0.00051761785
0.00051859387
0.00051979621
0.00052024229
0.00052038269
0.00052041803
0.00051552791
0.00051566802
0.00051609903
0.00051727149
0.00051800989
0.00051907984
0.00052024229
0.00052052006
0.00052041219
0.00052021189
0.0005157131
0.00051599645
0.0005162604
0.00051734701
0.00051821622
0.00051933944
0.00052038269
0.00052041219
0.00052017361
0.00052037416
0.00051552587
0.00051620729
0.00051656095
0.00051749758
0.00051844188
0.00051956705
0.00052041803
0.00052021189
0.00052037416
0.00052030354
0.0047188558
0.0047191374
0.0047191081
0.0047201684
0.0047200523
0.0047200913
0.0047205006
0.0047208147
0.0047210216
0.0047208302
0.0047191374
0.0047189881
0.0047195207
0.0047201786
0.004719998
0.004720189
0.0047207247
0.004720951
0.0047213073
0.0047215348
0.0047191081
0.0047195207
0.0047197593
0.0047202863
0.0047201857
0.0047205633
0.004721254
0.0047213897
0.0047215695
0.0047218917
0.0047201684
0.0047201786
0.0047202863
0.0047208401
0.0047208702
0.0047214493
0.0047223617
0.0047225973
0.0047226869
0.0047228535
0.0047200523
0.004719998
0.0047201857
0.0047208702
0.004721055
0.0047218126
0.0047229294
0.0047233573
0.0047235847
0.004723832
0.0047200913
0.004720189
0.0047205633
0.0047214493
0.0047218126
0.0047227157
0.0047239557
0.0047244807
0.0047247643
0.0047250148
0.0047205006
0.0047207247
0.004721254
0.0047223617
0.0047229294
0.0047239557
0.0047252342
0.0047257156
0.0047258728
0.0047259188
0.0047208147
0.004720951
0.0047213897
0.0047225973
0.0047233573
0.0047244807
0.0047257156
0.004726018
0.0047259101
0.0047257019
0.0047210216
0.0047213073
0.0047215695
0.0047226869
0.0047235847
0.0047247643
0.0047258728
0.0047259101
0.0047256602
0.0047258792
0.0047208302
0.0047215348
0.0047218917
0.0047228535
0.004723832
0.0047250148
0.0047259188
0.0047257019
0.0047258792
0.0047258114
0.0088527593
0.0088530403
0.0088530058
0.0088540948
0.0088539697
0.0088540258
0.0088544783
0.0088548269
0.0088550559
0.008854862
0.0088530403
0.0088528785
0.0088534202
0.008854088
0.0088538978
0.0088541145
0.0088547004
0.0088549556
0.0088553399
0.0088555851
0.0088530058
0.0088534202
0.0088536534
0.008854186
0.0088540788
0.0088544896
0.0088552376
0.0088553969
0.0088555959
0.0088559409
0.0088540948
0.008854088
0.008854186
0.0088547453
0.0088547715
0.0088553899
0.0088563683
0.0088566317
0.0088567367
0.0088569217
0.0088539697
0.0088538978
0.0088540788
0.0088547715
0.0088549544
0.0088557547
0.0088569443
0.0088574081
0.0088576583
0.0088579298
0.0088540258
0.0088541145
0.0088544896
0.0088553899
0.0088557547
0.0088567022
0.0088580173
0.0088585818
0.0088588915
0.0088591679
0.0088544783
0.0088547004
0.0088552376
0.0088563683
0.0088569443
0.0088580173
0.0088593703
0.0088598881
0.0088600648
0.0088601249
0.0088548269
0.0088549556
0.0088553969
0.0088566317
0.0088574081
0.0088585818
0.0088598881
0.0088602168
0.008860112
0.0088598992
0.0088550559
0.0088553399
0.0088555959
0.0088567367
0.0088576583
0.0088588915
0.0088600648
0.008860112
0.0088598536
0.0088600937
0.008854862
0.0088555851
0.0088559409
0.0088569217
0.0088579298
0.0088591679
0.0088601249
0.0088598992
0.0088600937
0.0088600319
0.012633008
0.012633284
0.012633243
0.012634354
0.012634218
0.012634292
0.012634787
0.01263517
0.012635421
0.012635226
0.012633284
0.012633109
0.012633655
0.012634327
0.012634127
0.012634369
0.012635005
0.012635288
0.0126357
0.012635964
0.012633243
0.012633655
0.012633879
0.012634412
0.012634298
0.012634741
0.012635545
0.012635728
0.012635947
0.012636315
0.012634354
0.012634327
0.012634412
0.012634972
0.012634993
0.012635649
0.012636692
0.012636983
0.012637105
0.01263731
0.012634218
0.012634127
0.012634298
0.012634993
0.012635172
0.012636013
0.012637273
0.012637772
0.012638046
0.012638344
0.012634292
0.012634369
0.012634741
0.012635649
0.012636013
0.012637002
0.01263839
0.012638994
0.012639332
0.012639637
0.012634787
0.012635005
0.012635545
0.012636692
0.012637273
0.01263839
0.012639816
0.012640371
0.01264057
0.012640647
0.01263517
0.012635288
0.012635728
0.012636983
0.012637772
0.012638994
0.012640371
0.012640728
0.012640629
0.012640414
0.012635421
0.0126357
0.012635947
0.012637105
0.012638046
0.012639332
0.01264057
0.012640629
0.012640364
0.012640628
0.012635226
0.012635964
0.012636315
0.01263731
0.012638344
0.012639637
0.012640647
0.012640414
0.012640628
0.012640575
0.015750753
0.015751024
0.015750975
0.015752102
0.015751954
0.01575205
0.015752589
0.015753004
0.015753277
0.015753083
0.015751024
0.015750835
0.015751382
0.015752052
0.015751844
0.015752116
0.0157528
0.015753111
0.015753549
0.015753832
0.015750975
0.015751382
0.015751593
0.015752124
0.015752005
0.015752483
0.015753341
0.015753547
0.015753785
0.015754178
0.015752102
0.015752052
0.015752124
0.015752683
0.015752699
0.015753394
0.015754499
0.015754817
0.015754956
0.015755183
0.015751954
0.015751844
0.015752005
0.015752699
0.015752874
0.015753756
0.015755083
0.015755618
0.015755916
0.015756242
0.01575205
0.015752116
0.015752483
0.015753394
0.015753756
0.015754787
0.015756246
0.015756888
0.015757254
0.015757588
0.015752589
0.0157528
0.015753341
0.015754499
0.015755083
0.015756246
0.015757743
0.015758335
0.015758556
0.015758652
0.015753004
0.015753111
0.015753547
0.015754817
0.015755618
0.015756888
0.015758335
0.01575872
0.015758629
0.015758414
0.015753277
0.015753549
0.015753785
0.015754956
0.015755916
0.015757254
0.015758556
0.015758629
0.01575836
0.015758648
0.015753083
0.015753832
0.015754178
0.015755183
0.015756242
0.015757588
0.015758652
0.015758414
0.015758648
0.015758606
0.01788485
0.017885113
0.017885059
0.017886197
0.017886039
0.017886164
0.017886748
0.017887195
0.017887486
0.017887294
0.017885113
0.017884912
0.017885459
0.017886124
0.017885914
0.017886221
0.017886954
0.017887291
0.017887753
0.017888054
0.017885059
0.017885459
0.017885657
0.017886186
0.017886067
0.017886585
0.017887497
0.017887724
0.017887979
0.017888394
0.017886197
0.017886124
0.017886186
0.017886743
0.01788676
0.017887498
0.017888663
0.017889006
0.017889161
0.017889409
0.017886039
0.017885914
0.017886067
0.01788676
0.017886934
0.01788786
0.017889253
0.017889819
0.017890141
0.017890494
0.017886164
0.017886221
0.017886585
0.017887498
0.01788786