/*--------------------------------*- C++ -*----------------------------------*\
| =========                 |                                                 |
| \\      /  F ield         | OpenFOAM: The Open Source CFD Toolbox           |
|  \\    /   O peration     | Version:  v2106                                 |
|   \\  /    A nd           | Website:  www.openfoam.com                      |
|    \\/     M anipulation  |                                                 |
\*---------------------------------------------------------------------------*/
FoamFile
{
    version     2.0;
    format      ascii;
    arch        "LSB;label=32;scalar=64";
    class       volVectorField;
    location    "20";
    object      Tmode_grad4;
}
// * * * * * * * * * * * * * * * * * * * * * * * * * * * * * * * * * * * * * //

dimensions      [0 -1 0 0 0 0 0];

internalField   nonuniform List<vector> 
4000
(
(-5e-08 -5e-08 -0.39625225)
(-6e-07 -6e-07 -0.3962523)
(5e-08 1.5e-07 -0.3962536)
(7e-07 1.5e-07 -0.39625165)
(-4e-07 -1.5e-07 -0.3962516)
(-9e-07 -2e-07 -0.3962535)
(-6e-07 -2e-07 -0.39625505)
(-3e-07 -1.5e-07 -0.3962558)
(-1e-07 -1e-07 -0.3962561)
(0 2.1175824e-16 -0.39625615)
(-6e-07 -6e-07 -0.3962523)
(-4e-07 -4e-07 -0.3962536)
(8e-07 3e-07 -0.3962529)
(4e-07 5e-08 -0.3962511)
(-7.5e-07 -3e-07 -0.39625195)
(-9.5e-07 -3.5e-07 -0.396254)
(-5.5e-07 -2.5e-07 -0.39625545)
(-2e-07 -2e-07 -0.39625605)
(5e-08 -1e-07 -0.39625615)
(1e-07 0 -0.3962559)
(1.5e-07 5e-08 -0.3962536)
(3e-07 8e-07 -0.3962529)
(5e-07 5e-07 -0.3962524)
(1e-07 2e-07 -0.39625135)
(-8e-07 1.5e-07 -0.3962524)
(-8.5e-07 2.5e-07 -0.39625435)
(-4.5e-07 4e-07 -0.3962555)
(-1.5e-07 4.5e-07 -0.39625605)
(1e-07 4.5e-07 -0.3962561)
(1e-07 4e-07 -0.39625565)
(1.5e-07 7e-07 -0.39625165)
(5e-08 4e-07 -0.3962511)
(2e-07 1e-07 -0.39625135)
(5e-08 5e-08 -0.39625055)
(-7e-07 1.5e-07 -0.3962515)
(-7e-07 3.5e-07 -0.3962531)
(-3.5e-07 5e-07 -0.396254)
(-1.5e-07 6.5e-07 -0.39625435)
(0 7e-07 -0.3962545)
(5e-08 6.5e-07 -0.3962543)
(-1.5e-07 -4e-07 -0.3962516)
(-3e-07 -7.5e-07 -0.39625195)
(1.5e-07 -8e-07 -0.3962524)
(1.5e-07 -7e-07 -0.3962515)
(-5e-07 -5e-07 -0.39625215)
(-5e-07 -2.5e-07 -0.3962533)
(-1.5e-07 -5e-08 -0.39625375)
(5e-08 1.5e-07 -0.39625375)
(1e-07 3e-07 -0.3962536)
(5e-08 4e-07 -0.3962534)
(-2e-07 -9e-07 -0.3962535)
(-3.5e-07 -9.5e-07 -0.396254)
(2.5e-07 -8.5e-07 -0.39625435)
(3.5e-07 -7e-07 -0.3962531)
(-2.5e-07 -5e-07 -0.3962533)
(-2.5e-07 -2.5e-07 -0.39625395)
(5e-08 0 -0.39625395)
(2e-07 1.5e-07 -0.39625355)
(2.5e-07 2.5e-07 -0.39625315)
(1.5e-07 3.5e-07 -0.3962527)
(-2e-07 -6e-07 -0.39625505)
(-2.5e-07 -5.5e-07 -0.39625545)
(4e-07 -4.5e-07 -0.3962555)
(5e-07 -3.5e-07 -0.396254)
(-5e-08 -1.5e-07 -0.39625375)
(0 5e-08 -0.39625395)
(2.5e-07 2.5e-07 -0.39625355)
(3e-07 3.5e-07 -0.3962529)
(3e-07 4e-07 -0.39625235)
(1.5e-07 3.5e-07 -0.39625185)
(-1.5e-07 -3e-07 -0.3962558)
(-2e-07 -2e-07 -0.39625605)
(4.5e-07 -1.5e-07 -0.39625605)
(6.5e-07 -1.5e-07 -0.39625435)
(1.5e-07 5e-08 -0.39625375)
(1.5e-07 2e-07 -0.39625355)
(3.5e-07 3e-07 -0.3962529)
(3.5e-07 3.5e-07 -0.3962522)
(2.5e-07 2.5e-07 -0.3962517)
(1e-07 2e-07 -0.3962513)
(-1e-07 -1e-07 -0.3962561)
(-1e-07 5e-08 -0.39625615)
(4.5e-07 1e-07 -0.3962561)
(7e-07 0 -0.3962545)
(3e-07 1e-07 -0.3962536)
(2.5e-07 2.5e-07 -0.39625315)
(4e-07 3e-07 -0.39625235)
(2.5e-07 2.5e-07 -0.3962517)
(1.5e-07 1.5e-07 -0.3962514)
(1e-07 1.5e-07 -0.39625105)
(-2.1175824e-16 0 -0.39625615)
(0 1e-07 -0.3962559)
(4e-07 1e-07 -0.39625565)
(6.5e-07 5e-08 -0.3962543)
(4e-07 5e-08 -0.3962534)
(3.5e-07 1.5e-07 -0.3962527)
(3.5e-07 1.5e-07 -0.39625185)
(2e-07 1e-07 -0.3962513)
(1.5e-07 1e-07 -0.39625105)
(1e-07 1e-07 -0.3962507)
(-2.1175824e-16 2.1175824e-16 -0.39133497)
(-7.5e-07 -7e-07 -0.39133459)
(6e-07 5.5e-07 -0.39133466)
(1.3e-06 4e-07 -0.39133356)
(-1.45e-06 -2e-07 -0.39133414)
(-2.55e-06 -3e-07 -0.39133578)
(-1.7e-06 -2e-07 -0.39133706)
(-7.5e-07 -1e-07 -0.39133767)
(-2.5e-07 5e-08 -0.39133782)
(-5e-08 2.5e-07 -0.39133797)
(-7e-07 -7.5e-07 -0.39133459)
(-2e-07 -2e-07 -0.39133466)
(1.7e-06 9e-07 -0.39133407)
(5.5e-07 2.5e-07 -0.39133329)
(-2.15e-06 -5e-07 -0.39133427)
(-2.55e-06 -5e-07 -0.39133597)
(-1.5e-06 -2e-07 -0.39133709)
(-5e-07 -5e-08 -0.39133764)
(1e-07 1e-07 -0.39133758)
(1.5e-07 5e-07 -0.39133742)
(5.5e-07 6e-07 -0.39133466)
(9e-07 1.7e-06 -0.39133408)
(1.05e-06 1.05e-06 -0.39133372)
(-1e-07 3.5e-07 -0.39133332)
(-2.2e-06 3e-07 -0.39133443)
(-2.25e-06 6.5e-07 -0.3913359)
(-1.25e-06 1.05e-06 -0.39133686)
(-4.5e-07 1.25e-06 -0.39133732)
(3e-07 1.2e-06 -0.3913373)
(3.5e-07 1.2e-06 -0.39133693)
(4e-07 1.3e-06 -0.39133356)
(2.5e-07 5.5e-07 -0.39133329)
(3.5e-07 -1e-07 -0.39133332)
(-2e-07 -2e-07 -0.39133311)
(-1.85e-06 1e-07 -0.39133402)
(-1.8e-06 7e-07 -0.39133518)
(-9e-07 1.25e-06 -0.39133576)
(-3.5e-07 1.65e-06 -0.39133607)
(5e-08 1.8e-06 -0.39133606)
(1.5e-07 1.6e-06 -0.39133587)
(-2e-07 -1.45e-06 -0.39133413)
(-5e-07 -2.15e-06 -0.39133428)
(3e-07 -2.2e-06 -0.39133443)
(1e-07 -1.85e-06 -0.39133402)
(-1.3e-06 -1.3e-06 -0.39133462)
(-1.1e-06 -6e-07 -0.39133531)
(-3e-07 1e-07 -0.39133542)
(1e-07 6.5e-07 -0.39133538)
(2.5e-07 1.05e-06 -0.39133522)
(1.5e-07 1.2e-06 -0.39133493)
(-3e-07 -2.55e-06 -0.39133577)
(-5e-07 -2.55e-06 -0.39133597)
(6.5e-07 -2.25e-06 -0.3913359)
(7e-07 -1.8e-06 -0.39133517)
(-6e-07 -1.1e-06 -0.39133531)
(-4e-07 -4e-07 -0.39133556)
(3.5e-07 2e-07 -0.39133523)
(6e-07 7e-07 -0.39133483)
(6e-07 1e-06 -0.39133437)
(3e-07 1.2e-06 -0.39133396)
(-2e-07 -1.7e-06 -0.39133706)
(-2e-07 -1.5e-06 -0.39133709)
(1.05e-06 -1.25e-06 -0.39133686)
(1.25e-06 -9e-07 -0.39133576)
(1e-07 -3e-07 -0.39133542)
(2e-07 3.5e-07 -0.39133523)
(8e-07 8e-07 -0.39133464)
(9e-07 1e-06 -0.39133403)
(7.5e-07 1.05e-06 -0.39133349)
(3.5e-07 1.05e-06 -0.39133309)
(-1e-07 -7.5e-07 -0.39133767)
(-5e-08 -5e-07 -0.39133764)
(1.25e-06 -4.5e-07 -0.39133732)
(1.65e-06 -3.5e-07 -0.39133607)
(6.5e-07 1e-07 -0.39133539)
(7e-07 6e-07 -0.39133483)
(1e-06 9e-07 -0.39133403)
(8.5e-07 8.5e-07 -0.39133343)
(6.5e-07 7e-07 -0.39133301)
(3e-07 6e-07 -0.39133271)
(5e-08 -2.5e-07 -0.39133782)
(1e-07 1e-07 -0.39133758)
(1.2e-06 3e-07 -0.39133729)
(1.8e-06 5e-08 -0.39133606)
(1.05e-06 2.5e-07 -0.39133522)
(1e-06 6e-07 -0.39133437)
(1.05e-06 7.5e-07 -0.39133349)
(7e-07 6.5e-07 -0.39133301)
(5e-07 5e-07 -0.39133264)
(2.5e-07 4.5e-07 -0.39133236)
(2.5e-07 -5e-08 -0.39133797)
(5e-07 1.5e-07 -0.39133742)
(1.2e-06 3.5e-07 -0.39133693)
(1.6e-06 1.5e-07 -0.39133587)
(1.2e-06 1.5e-07 -0.39133493)
(1.2e-06 3e-07 -0.39133396)
(1.05e-06 3.5e-07 -0.39133309)
(6e-07 3e-07 -0.3913327)
(4.5e-07 2.5e-07 -0.39133236)
(2.5e-07 2.5e-07 -0.39133209)
(3.3e-07 3.3e-07 -0.38150593)
(-2.95e-07 -6.75e-07 -0.38150536)
(1.08e-06 7.4e-07 -0.38150532)
(1.23e-06 4.2e-07 -0.38150479)
(-2.615e-06 -2.9e-07 -0.38150553)
(-3.825e-06 -3.95e-07 -0.38150684)
(-2.5e-06 -2.35e-07 -0.38150776)
(-1.06e-06 -1.15e-07 -0.38150822)
(-3.95e-07 1.4e-07 -0.38150826)
(-1.5e-07 5.5e-07 -0.38150837)
(-6.75e-07 -2.95e-07 -0.38150536)
(1.15e-07 1.15e-07 -0.38150538)
(2.175e-06 1.24e-06 -0.38150501)
(2e-07 2.85e-07 -0.38150473)
(-3.43e-06 -5.9e-07 -0.38150568)
(-3.77e-06 -4.75e-07 -0.38150695)
(-2.22e-06 -5e-08 -0.38150775)
(-6.85e-07 1.5e-07 -0.38150821)
(2.7e-07 4.25e-07 -0.38150806)
(2.6e-07 1.04e-06 -0.38150782)
(7.4e-07 1.08e-06 -0.38150532)
(1.24e-06 2.175e-06 -0.38150501)
(1.25e-06 1.25e-06 -0.38150487)
(-6e-07 3.85e-07 -0.38150482)
(-3.375e-06 4e-07 -0.38150575)
(-3.285e-06 1.045e-06 -0.38150677)
(-1.875e-06 1.74e-06 -0.3815074)
(-5.85e-07 2.02e-06 -0.38150782)
(4.95e-07 1.97e-06 -0.38150763)
(4.65e-07 1.95e-06 -0.38150729)
(4.2e-07 1.23e-06 -0.38150479)
(2.85e-07 2e-07 -0.38150473)
(3.85e-07 -6e-07 -0.38150482)
(-6.5e-07 -6.5e-07 -0.38150479)
(-2.77e-06 -4e-08 -0.38150552)
(-2.43e-06 9.45e-07 -0.38150617)
(-1.245e-06 1.94e-06 -0.3815064)
(-4.55e-07 2.59e-06 -0.38150668)
(2e-07 2.775e-06 -0.3815065)
(2.4e-07 2.65e-06 -0.38150621)
(-2.9e-07 -2.615e-06 -0.38150552)
(-5.9e-07 -3.43e-06 -0.38150568)
(4e-07 -3.375e-06 -0.38150575)
(-4e-08 -2.77e-06 -0.38150552)
(-1.78e-06 -1.78e-06 -0.38150582)
(-1.305e-06 -6.35e-07 -0.38150604)
(-2.3e-07 4.8e-07 -0.38150583)
(2.5e-07 1.395e-06 -0.38150575)
(5.55e-07 1.995e-06 -0.38150543)
(3.4e-07 2.305e-06 -0.38150501)
(-3.95e-07 -3.825e-06 -0.38150684)
(-4.75e-07 -3.77e-06 -0.38150694)
(1.045e-06 -3.285e-06 -0.38150677)
(9.45e-07 -2.43e-06 -0.38150617)
(-6.35e-07 -1.305e-06 -0.38150604)
(-1.7e-07 -1.7e-07 -0.3815058)
(7.85e-07 7.85e-07 -0.3815052)
(1.06e-06 1.505e-06 -0.38150481)
(1.11e-06 1.975e-06 -0.38150426)
(5.5e-07 2.185e-06 -0.38150376)
(-2.35e-07 -2.5e-06 -0.38150776)
(-5e-08 -2.22e-06 -0.38150775)
(1.74e-06 -1.875e-06 -0.3815074)
(1.94e-06 -1.245e-06 -0.3815064)
(4.8e-07 -2.3e-07 -0.38150583)
(7.85e-07 7.85e-07 -0.3815052)
(1.445e-06 1.445e-06 -0.38150433)
(1.44e-06 1.74e-06 -0.38150383)
(1.235e-06 1.755e-06 -0.38150327)
(5.5e-07 1.61e-06 -0.3815029)
(-1.15e-07 -1.06e-06 -0.38150822)
(1.5e-07 -6.85e-07 -0.38150821)
(2.02e-06 -5.85e-07 -0.38150782)
(2.59e-06 -4.55e-07 -0.38150668)
(1.395e-06 2.5e-07 -0.38150575)
(1.505e-06 1.06e-06 -0.38150481)
(1.74e-06 1.44e-06 -0.38150383)
(1.37e-06 1.37e-06 -0.38150334)
(9.8e-07 1.1e-06 -0.38150292)
(4.05e-07 9.35e-07 -0.38150269)
(1.4e-07 -3.95e-07 -0.38150826)
(4.25e-07 2.7e-07 -0.38150806)
(1.97e-06 4.95e-07 -0.38150763)
(2.775e-06 2e-07 -0.3815065)
(1.995e-06 5.55e-07 -0.38150543)
(1.975e-06 1.11e-06 -0.38150426)
(1.755e-06 1.235e-06 -0.38150327)
(1.1e-06 9.8e-07 -0.38150292)
(8e-07 8e-07 -0.38150261)
(3.85e-07 7.7e-07 -0.3815022)
(5.5e-07 -1.5e-07 -0.38150837)
(1.04e-06 2.6e-07 -0.38150782)
(1.95e-06 4.65e-07 -0.38150729)
(2.65e-06 2.4e-07 -0.38150621)
(2.305e-06 3.4e-07 -0.381505)
(2.185e-06 5.5e-07 -0.38150376)
(1.61e-06 5.5e-07 -0.3815029)
(9.35e-07 4.05e-07 -0.38150269)
(7.7e-07 3.85e-07 -0.3815022)
(3.75e-07 3.75e-07 -0.38150198)
(5.7e-07 5.7e-07 -0.36678169)
(-1.35e-07 -7.15e-07 -0.36678138)
(1.175e-06 8.55e-07 -0.36678165)
(1.09e-06 4.55e-07 -0.36678127)
(-3.5e-06 -3.55e-07 -0.36678174)
(-4.78e-06 -4.1e-07 -0.36678267)
(-3.08e-06 -1.95e-07 -0.36678328)
(-1.255e-06 -9e-08 -0.3667836)
(-4.05e-07 2.55e-07 -0.36678359)
(-1.6e-07 8.05e-07 -0.36678359)
(-7.15e-07 -1.35e-07 -0.36678138)
(1.5e-07 1.5e-07 -0.36678159)
(2.345e-06 1.345e-06 -0.3667815)
(-1.2e-07 2.15e-07 -0.36678124)
(-4.365e-06 -7.25e-07 -0.36678188)
(-4.62e-06 -4.35e-07 -0.36678271)
(-2.76e-06 1.55e-07 -0.3667832)
(-8.05e-07 3.5e-07 -0.36678355)
(4.9e-07 7.35e-07 -0.36678335)
(3.9e-07 1.58e-06 -0.36678308)
(8.55e-07 1.175e-06 -0.36678165)
(1.345e-06 2.345e-06 -0.3667815)
(1.24e-06 1.24e-06 -0.36678155)
(-9.8e-07 2.9e-07 -0.36678146)
(-4.15e-06 4.65e-07 -0.36678201)
(-3.9e-06 1.43e-06 -0.36678255)
(-2.295e-06 2.4e-06 -0.36678284)
(-6.75e-07 2.78e-06 -0.36678316)
(8.25e-07 2.755e-06 -0.36678291)
(6.85e-07 2.805e-06 -0.36678245)
(4.55e-07 1.09e-06 -0.36678127)
(2.15e-07 -1.2e-07 -0.36678125)
(2.9e-07 -9.8e-07 -0.36678146)
(-8.95e-07 -8.95e-07 -0.36678133)
(-3.225e-06 3e-08 -0.36678161)
(-2.685e-06 1.435e-06 -0.36678177)
(-1.41e-06 2.82e-06 -0.36678171)
(-4.5e-07 3.715e-06 -0.36678187)
(5.15e-07 4e-06 -0.36678161)
(4.4e-07 3.885e-06 -0.36678119)
(-3.55e-07 -3.5e-06 -0.36678174)
(-7.25e-07 -4.365e-06 -0.36678188)
(4.65e-07 -4.15e-06 -0.36678201)
(3e-08 -3.225e-06 -0.36678161)
(-1.82e-06 -1.82e-06 -0.36678151)
(-1.11e-06 -2.3e-07 -0.36678123)
(-1.5e-08 1.3e-06 -0.36678074)
(5.05e-07 2.515e-06 -0.3667806)
(9.95e-07 3.295e-06 -0.36678017)
(5.7e-07 3.65e-06 -0.3667797)
(-4.1e-07 -4.78e-06 -0.36678267)
(-4.35e-07 -4.62e-06 -0.3667827)
(1.43e-06 -3.9e-06 -0.36678256)
(1.435e-06 -2.685e-06 -0.36678177)
(-2.3e-07 -1.11e-06 -0.36678123)
(4.35e-07 4.35e-07 -0.36678051)
(1.335e-06 1.705e-06 -0.36677964)
(1.545e-06 2.625e-06 -0.36677924)
(1.65e-06 3.155e-06 -0.36677868)
(7.95e-07 3.31e-06 -0.36677822)
(-1.95e-07 -3.08e-06 -0.36678328)
(1.55e-07 -2.76e-06 -0.3667832)
(2.4e-06 -2.295e-06 -0.36678283)
(2.82e-06 -1.41e-06 -0.36678171)
(1.3e-06 -1.5e-08 -0.36678073)
(1.705e-06 1.335e-06 -0.36677965)
(2.175e-06 2.175e-06 -0.36677856)
(1.955e-06 2.475e-06 -0.36677808)
(1.68e-06 2.385e-06 -0.3667776)
(7.25e-07 2.125e-06 -0.3667773)
(-9e-08 -1.255e-06 -0.3667836)
(3.5e-07 -8.05e-07 -0.36678355)
(2.78e-06 -6.75e-07 -0.36678316)
(3.715e-06 -4.5e-07 -0.36678187)
(2.515e-06 5.05e-07 -0.36678059)
(2.625e-06 1.545e-06 -0.36677924)
(2.475e-06 1.955e-06 -0.36677808)
(1.755e-06 1.755e-06 -0.36677772)
(1.3e-06 1.365e-06 -0.36677743)
(5.35e-07 1.3e-06 -0.36677722)
(2.55e-07 -4.05e-07 -0.36678359)
(7.35e-07 4.9e-07 -0.36678336)
(2.755e-06 8.25e-07 -0.36678291)
(4e-06 5.15e-07 -0.36678161)
(3.295e-06 9.95e-07 -0.36678018)
(3.155e-06 1.65e-06 -0.36677868)
(2.385e-06 1.68e-06 -0.3667776)
(1.365e-06 1.3e-06 -0.36677744)
(1.225e-06 1.225e-06 -0.3667772)
(6.6e-07 1.155e-06 -0.36677662)
(8.05e-07 -1.6e-07 -0.36678359)
(1.58e-06 3.9e-07 -0.36678308)
(2.805e-06 6.85e-07 -0.36678245)
(3.885e-06 4.4e-07 -0.36678119)
(3.65e-06 5.7e-07 -0.36677971)
(3.31e-06 7.95e-07 -0.36677822)
(2.125e-06 7.25e-07 -0.36677731)
(1.3e-06 5.35e-07 -0.36677723)
(1.155e-06 6.6e-07 -0.36677662)
(4.65e-07 4.65e-07 -0.36677646)
(6.45e-07 6.45e-07 -0.34719229)
(-2.5e-07 -8.8e-07 -0.34719222)
(1.19e-06 8.9e-07 -0.34719256)
(1.14e-06 4.45e-07 -0.34719205)
(-4.015e-06 -4.35e-07 -0.34719217)
(-5.37e-06 -4.3e-07 -0.34719269)
(-3.435e-06 -1.5e-07 -0.34719298)
(-1.365e-06 -6e-08 -0.34719314)
(-3.85e-07 3.75e-07 -0.34719307)
(-1.55e-07 1.065e-06 -0.34719302)
(-8.8e-07 -2.5e-07 -0.34719222)
(-5e-09 -5e-09 -0.34719259)
(2.515e-06 1.335e-06 -0.34719252)
(-1.85e-07 9.5e-08 -0.34719207)
(-4.89e-06 -8.6e-07 -0.34719232)
(-5.085e-06 -3.6e-07 -0.34719271)
(-3.065e-06 4e-07 -0.34719287)
(-8.4e-07 5.95e-07 -0.34719304)
(7.4e-07 1.105e-06 -0.34719279)
(5.35e-07 2.185e-06 -0.34719247)
(8.9e-07 1.19e-06 -0.34719256)
(1.335e-06 2.515e-06 -0.34719252)
(1.29e-06 1.29e-06 -0.34719253)
(-1.055e-06 3e-07 -0.34719221)
(-4.47e-06 6.75e-07 -0.34719233)
(-4.11e-06 1.98e-06 -0.34719243)
(-2.48e-06 3.23e-06 -0.34719237)
(-6.6e-07 3.7e-06 -0.34719252)
(1.205e-06 3.715e-06 -0.3471922)
(9.25e-07 3.835e-06 -0.34719169)
(4.45e-07 1.14e-06 -0.34719205)
(9.5e-08 -1.85e-07 -0.34719207)
(3e-07 -1.055e-06 -0.34719221)
(-8e-07 -8e-07 -0.34719181)
(-3.21e-06 4.6e-07 -0.34719166)
(-2.53e-06 2.275e-06 -0.34719136)
(-1.345e-06 4.04e-06 -0.34719097)
(-3.55e-07 5.155e-06 -0.34719097)
(8.75e-07 5.51e-06 -0.34719065)
(6.55e-07 5.395e-06 -0.3471902)
(-4.35e-07 -4.015e-06 -0.34719217)
(-8.6e-07 -4.89e-06 -0.34719232)
(6.75e-07 -4.47e-06 -0.34719233)
(4.6e-07 -3.21e-06 -0.34719166)
(-1.395e-06 -1.395e-06 -0.34719111)
(-5.3e-07 6.3e-07 -0.34719038)
(4e-07 2.545e-06 -0.34718958)
(8.1e-07 4.025e-06 -0.34718931)
(1.445e-06 4.92e-06 -0.34718887)
(8.1e-07 5.285e-06 -0.3471884)
(-4.3e-07 -5.37e-06 -0.34719269)
(-3.6e-07 -5.085e-06 -0.34719271)
(1.98e-06 -4.11e-06 -0.34719243)
(2.275e-06 -2.53e-06 -0.34719136)
(6.3e-07 -5.3e-07 -0.34719038)
(1.41e-06 1.41e-06 -0.34718922)
(2.05e-06 2.96e-06 -0.34718808)
(2.02e-06 4.02e-06 -0.34718759)
(2.135e-06 4.55e-06 -0.34718707)
(1.02e-06 4.585e-06 -0.34718666)
(-1.5e-07 -3.435e-06 -0.34719298)
(4e-07 -3.065e-06 -0.34719287)
(3.23e-06 -2.48e-06 -0.34719237)
(4.04e-06 -1.345e-06 -0.34719097)
(2.545e-06 4e-07 -0.34718958)
(2.96e-06 2.05e-06 -0.34718808)
(3.01e-06 3.01e-06 -0.34718675)
(2.4e-06 3.255e-06 -0.34718625)
(2.01e-06 3.005e-06 -0.34718586)
(8.45e-07 2.6e-06 -0.34718569)
(-6e-08 -1.365e-06 -0.34719314)
(5.95e-07 -8.4e-07 -0.34719304)
(3.7e-06 -6.6e-07 -0.34719252)
(5.155e-06 -3.55e-07 -0.34719098)
(4.025e-06 8.1e-07 -0.34718931)
(4.02e-06 2.02e-06 -0.34718759)
(3.255e-06 2.4e-06 -0.34718625)
(2.015e-06 2.015e-06 -0.34718593)
(1.48e-06 1.505e-06 -0.34718579)
(6.15e-07 1.615e-06 -0.34718568)
(3.75e-07 -3.85e-07 -0.34719307)
(1.105e-06 7.4e-07 -0.34719279)
(3.715e-06 1.205e-06 -0.3471922)
(5.51e-06 8.75e-07 -0.34719065)
(4.92e-06 1.445e-06 -0.34718887)
(4.55e-06 2.135e-06 -0.34718707)
(3.005e-06 2.01e-06 -0.34718586)
(1.505e-06 1.48e-06 -0.34718579)
(1.61e-06 1.61e-06 -0.34718565)
(9.55e-07 1.535e-06 -0.34718509)
(1.065e-06 -1.55e-07 -0.34719302)
(2.185e-06 5.35e-07 -0.34719247)
(3.835e-06 9.25e-07 -0.34719169)
(5.395e-06 6.55e-07 -0.3471902)
(5.285e-06 8.1e-07 -0.34718841)
(4.585e-06 1.02e-06 -0.34718666)
(2.6e-06 8.45e-07 -0.34718569)
(1.615e-06 6.15e-07 -0.34718568)
(1.535e-06 9.55e-07 -0.34718509)
(5.4e-07 5.4e-07 -0.34718496)
(6.355e-07 6.355e-07 -0.32278677)
(-4.095e-07 -1.079e-06 -0.32278678)
(1.345e-06 8.98e-07 -0.32278699)
(1.4825e-06 4.35e-07 -0.32278626)
(-4.1395e-06 -5.05e-07 -0.32278601)
(-5.5915e-06 -4.245e-07 -0.32278616)
(-3.524e-06 -8.1e-08 -0.32278613)
(-1.3425e-06 4.5e-09 -0.32278607)
(-2.895e-07 5.365e-07 -0.3227859)
(-1.115e-07 1.352e-06 -0.32278579)
(-1.079e-06 -4.095e-07 -0.32278678)
(-1.47e-07 -1.47e-07 -0.32278714)
(2.859e-06 1.375e-06 -0.32278694)
(7.95e-08 5.85e-08 -0.32278623)
(-4.999e-06 -8.89e-07 -0.3227861)
(-5.1675e-06 -1.715e-07 -0.3227861)
(-3.095e-06 7.625e-07 -0.32278593)
(-7.25e-07 9.675e-07 -0.32278589)
(1.058e-06 1.609e-06 -0.32278553)
(7.04e-07 2.9065e-06 -0.32278517)
(8.98e-07 1.345e-06 -0.32278699)
(1.375e-06 2.859e-06 -0.32278694)
(1.5505e-06 1.5505e-06 -0.32278678)
(-7.815e-07 5.505e-07 -0.32278618)
(-4.3695e-06 1.13e-06 -0.32278592)
(-3.94e-06 2.7735e-06 -0.32278562)
(-2.385e-06 4.3015e-06 -0.32278524)
(-4.96e-07 4.847e-06 -0.32278518)
(1.6495e-06 4.895e-06 -0.32278475)
(1.186e-06 5.08e-06 -0.32278421)
(4.35e-07 1.4825e-06 -0.32278626)
(5.85e-08 7.95e-08 -0.32278623)
(5.505e-07 -7.815e-07 -0.32278618)
(-3.41e-07 -3.41e-07 -0.32278549)
(-2.776e-06 1.2535e-06 -0.32278494)
(-1.996e-06 3.4845e-06 -0.32278426)
(-1.0215e-06 5.614e-06 -0.32278355)
(-1.315e-07 6.9215e-06 -0.32278337)
(1.291e-06 7.326e-06 -0.32278296)
(8.89e-07 7.1745e-06 -0.32278248)
(-5.05e-07 -4.1395e-06 -0.32278601)
(-8.89e-07 -4.999e-06 -0.3227861)
(1.13e-06 -4.3695e-06 -0.32278591)
(1.2535e-06 -2.776e-06 -0.32278494)
(-5.44e-07 -5.44e-07 -0.322784)
(4.205e-07 1.909e-06 -0.32278288)
(1.052e-06 4.185e-06 -0.32278179)
(1.216e-06 5.899e-06 -0.32278137)
(1.9025e-06 6.875e-06 -0.32278086)
(1.0345e-06 7.1905e-06 -0.32278042)
(-4.245e-07 -5.5915e-06 -0.32278616)
(-1.715e-07 -5.1675e-06 -0.32278609)
(2.7735e-06 -3.94e-06 -0.32278562)
(3.4845e-06 -1.996e-06 -0.32278426)
(1.909e-06 4.205e-07 -0.32278288)
(2.733e-06 2.733e-06 -0.32278136)
(2.9685e-06 4.5375e-06 -0.32277994)
(2.5585e-06 5.6895e-06 -0.32277933)
(2.5825e-06 6.1655e-06 -0.32277878)
(1.2045e-06 6.0295e-06 -0.32277844)
(-8.1e-08 -3.524e-06 -0.32278613)
(7.625e-07 -3.095e-06 -0.32278593)
(4.3015e-06 -2.385e-06 -0.32278524)
(5.614e-06 -1.0215e-06 -0.32278355)
(4.185e-06 1.052e-06 -0.32278179)
(4.5375e-06 2.9685e-06 -0.32277994)
(4.0085e-06 4.0085e-06 -0.32277837)
(2.844e-06 4.136e-06 -0.32277779)
(2.2425e-06 3.6675e-06 -0.32277743)
(8.985e-07 3.1055e-06 -0.32277737)
(4.5e-09 -1.3425e-06 -0.32278608)
(9.675e-07 -7.25e-07 -0.32278589)
(4.847e-06 -4.96e-07 -0.32278518)
(6.9215e-06 -1.315e-07 -0.32278337)
(5.899e-06 1.216e-06 -0.32278137)
(5.6895e-06 2.5585e-06 -0.32277933)
(4.136e-06 2.844e-06 -0.32277778)
(2.2175e-06 2.2175e-06 -0.32277744)
(1.552e-06 1.573e-06 -0.32277737)
(6.425e-07 1.899e-06 -0.32277736)
(5.365e-07 -2.895e-07 -0.3227859)
(1.609e-06 1.058e-06 -0.32278553)
(4.895e-06 1.6495e-06 -0.32278475)
(7.326e-06 1.291e-06 -0.32278296)
(6.875e-06 1.9025e-06 -0.32278086)
(6.1655e-06 2.5825e-06 -0.32277879)
(3.6675e-06 2.2425e-06 -0.32277743)
(1.573e-06 1.552e-06 -0.32277737)
(1.924e-06 1.924e-06 -0.32277731)
(1.2245e-06 1.8735e-06 -0.32277681)
(1.352e-06 -1.115e-07 -0.32278578)
(2.9065e-06 7.04e-07 -0.32278517)
(5.08e-06 1.186e-06 -0.32278421)
(7.1745e-06 8.89e-07 -0.32278248)
(7.1905e-06 1.0345e-06 -0.32278042)
(6.0295e-06 1.2045e-06 -0.32277844)
(3.1055e-06 8.985e-07 -0.32277736)
(1.899e-06 6.425e-07 -0.32277736)
(1.8735e-06 1.2245e-06 -0.32277681)
(5.92e-07 5.92e-07 -0.32277674)
(6.4e-07 6.4e-07 -0.29364232)
(-4.7e-07 -1.245e-06 -0.29364226)
(1.705e-06 9.4e-07 -0.2936423)
(2.12e-06 4.75e-07 -0.29364135)
(-3.915e-06 -5.25e-07 -0.29364078)
(-5.49e-06 -3.65e-07 -0.29364061)
(-3.35e-06 5e-08 -0.29364031)
(-1.14e-06 1.25e-07 -0.29364005)
(-9.5e-08 7.5e-07 -0.29363976)
(-3.5e-08 1.68e-06 -0.29363957)
(-1.245e-06 -4.7e-07 -0.29364226)
(-1.7e-07 -1.7e-07 -0.29364253)
(3.425e-06 1.545e-06 -0.29364216)
(6.55e-07 1.75e-07 -0.2936412)
(-4.755e-06 -7.65e-07 -0.29364075)
(-4.915e-06 1.8e-07 -0.29364043)
(-2.86e-06 1.29e-06 -0.29363999)
(-4.4e-07 1.495e-06 -0.29363974)
(1.46e-06 2.265e-06 -0.29363928)
(8.95e-07 3.76e-06 -0.29363888)
(9.4e-07 1.705e-06 -0.2936423)
(1.545e-06 3.425e-06 -0.29364216)
(2.05e-06 2.05e-06 -0.29364181)
(-1.9e-07 1.045e-06 -0.29364096)
(-3.91e-06 1.835e-06 -0.29364037)
(-3.435e-06 3.815e-06 -0.29363976)
(-2.035e-06 5.61e-06 -0.29363911)
(-1.65e-07 6.22e-06 -0.29363885)
(2.17e-06 6.29e-06 -0.29363831)
(1.46e-06 6.525e-06 -0.29363775)
(4.75e-07 2.12e-06 -0.29364135)
(1.75e-07 6.55e-07 -0.2936412)
(1.045e-06 -1.9e-07 -0.29364096)
(4.4e-07 4.4e-07 -0.29364001)
(-1.985e-06 2.37e-06 -0.29363914)
(-1.14e-06 5.01e-06 -0.29363814)
(-4.55e-07 7.49e-06 -0.29363718)
(2.4e-07 8.965e-06 -0.29363682)
(1.765e-06 9.395e-06 -0.29363631)
(1.13e-06 9.19e-06 -0.29363583)
(-5.25e-07 -3.915e-06 -0.29364078)
(-7.65e-07 -4.755e-06 -0.29364075)
(1.835e-06 -3.91e-06 -0.29364037)
(2.37e-06 -1.985e-06 -0.29363914)
(6.6e-07 6.6e-07 -0.29363788)
(1.685e-06 3.53e-06 -0.29363646)
(1.92e-06 6.15e-06 -0.29363512)
(1.74e-06 8.07e-06 -0.29363454)
(2.395e-06 9.09e-06 -0.29363398)
(1.255e-06 9.33e-06 -0.29363353)
(-3.65e-07 -5.49e-06 -0.29364061)
(1.8e-07 -4.915e-06 -0.29364043)
(3.815e-06 -3.435e-06 -0.29363976)
(5.01e-06 -1.14e-06 -0.29363814)
(3.53e-06 1.685e-06 -0.29363646)
(4.35e-06 4.35e-06 -0.29363465)
(4.085e-06 6.38e-06 -0.29363301)
(3.18e-06 7.6e-06 -0.29363226)
(3.025e-06 7.98e-06 -0.29363168)
(1.37e-06 7.635e-06 -0.29363136)
(5e-08 -3.35e-06 -0.29364031)
(1.29e-06 -2.86e-06 -0.29363999)
(5.61e-06 -2.035e-06 -0.29363911)
(7.49e-06 -4.55e-07 -0.29363718)
(6.15e-06 1.92e-06 -0.29363512)
(6.38e-06 4.085e-06 -0.29363301)
(5.17e-06 5.17e-06 -0.29363124)
(3.34e-06 5.145e-06 -0.29363055)
(2.43e-06 4.42e-06 -0.29363019)
(9.1e-07 3.675e-06 -0.29363019)
(1.25e-07 -1.14e-06 -0.29364005)
(1.495e-06 -4.4e-07 -0.29363974)
(6.22e-06 -1.65e-07 -0.29363885)
(8.965e-06 2.4e-07 -0.29363682)
(8.07e-06 1.74e-06 -0.29363454)
(7.6e-06 3.18e-06 -0.29363226)
(5.145e-06 3.34e-06 -0.29363055)
(2.43e-06 2.43e-06 -0.29363013)
(1.555e-06 1.625e-06 -0.29363009)
(6.25e-07 2.17e-06 -0.29363016)
(7.5e-07 -9.5e-08 -0.29363976)
(2.265e-06 1.46e-06 -0.29363928)
(6.29e-06 2.17e-06 -0.29363831)
(9.395e-06 1.765e-06 -0.29363631)
(9.09e-06 2.395e-06 -0.29363398)
(7.98e-06 3.025e-06 -0.29363168)
(4.42e-06 2.43e-06 -0.29363019)
(1.625e-06 1.555e-06 -0.29363009)
(2.17e-06 2.17e-06 -0.29363007)
(1.455e-06 2.155e-06 -0.29362965)
(1.68e-06 -3.5e-08 -0.29363957)
(3.76e-06 8.95e-07 -0.29363888)
(6.525e-06 1.46e-06 -0.29363775)
(9.19e-06 1.13e-06 -0.29363583)
(9.33e-06 1.255e-06 -0.29363353)
(7.635e-06 1.37e-06 -0.29363136)
(3.675e-06 9.1e-07 -0.29363019)
(2.17e-06 6.25e-07 -0.29363016)
(2.155e-06 1.455e-06 -0.29362965)
(6.1e-07 6.1e-07 -0.29362964)
(6.9e-07 6.9e-07 -0.25987604)
(-3.9e-07 -1.35e-06 -0.2598759)
(2.26e-06 1.035e-06 -0.25987576)
(3e-06 5.8e-07 -0.25987463)
(-3.405e-06 -4.8e-07 -0.2598738)
(-5.125e-06 -2.45e-07 -0.25987339)
(-2.965e-06 2.45e-07 -0.25987287)
(-7.85e-07 3.15e-07 -0.25987245)
(1.9e-07 1.015e-06 -0.25987206)
(7e-08 2.045e-06 -0.25987182)
(-1.35e-06 -3.9e-07 -0.2598759)
(-4.5e-08 -4.5e-08 -0.25987606)
(4.19e-06 1.86e-06 -0.25987552)
(1.485e-06 4.5e-07 -0.25987437)
(-4.23e-06 -4.8e-07 -0.25987366)
(-4.4e-06 6.8e-07 -0.2598731)
(-2.405e-06 1.97e-06 -0.25987244)
(-1.5e-08 2.175e-06 -0.25987203)
(1.92e-06 3.055e-06 -0.25987149)
(1.1e-06 4.73e-06 -0.25987107)
(1.035e-06 2.26e-06 -0.25987576)
(1.86e-06 4.19e-06 -0.25987552)
(2.755e-06 2.755e-06 -0.259875)
(6.6e-07 1.745e-06 -0.25987395)
(-3.175e-06 2.745e-06 -0.2598731)
(-2.675e-06 5.065e-06 -0.25987226)
(-1.47e-06 7.105e-06 -0.2598714)
(3e-07 7.77e-06 -0.25987098)
(2.745e-06 7.86e-06 -0.25987036)
(1.745e-06 8.135e-06 -0.2598698)
(5.8e-07 3e-06 -0.25987462)
(4.5e-07 1.485e-06 -0.25987436)
(1.745e-06 6.6e-07 -0.25987394)
(1.475e-06 1.475e-06 -0.2598728)
(-9.1e-07 3.745e-06 -0.25987167)
(-4e-08 6.785e-06 -0.25987044)
(3e-07 9.595e-06 -0.25986929)
(7.4e-07 1.1225e-05 -0.25986879)
(2.285e-06 1.166e-05 -0.25986821)
(1.375e-06 1.1395e-05 -0.25986772)
(-4.8e-07 -3.405e-06 -0.2598738)
(-4.8e-07 -4.23e-06 -0.25987366)
(2.745e-06 -3.175e-06 -0.25987311)
(3.745e-06 -9.1e-07 -0.25987167)
(2.135e-06 2.135e-06 -0.25987016)
(3.175e-06 5.405e-06 -0.25986852)
(2.97e-06 8.36e-06 -0.25986702)
(2.365e-06 1.046e-05 -0.2598663)
(2.915e-06 1.151e-05 -0.25986568)
(1.48e-06 1.1655e-05 -0.25986525)
(-2.45e-07 -5.125e-06 -0.25987339)
(6.8e-07 -4.4e-06 -0.2598731)
(5.065e-06 -2.675e-06 -0.25987226)
(6.785e-06 -4e-08 -0.25987044)
(5.405e-06 3.175e-06 -0.25986852)
(6.185e-06 6.185e-06 -0.25986649)
(5.355e-06 8.425e-06 -0.2598647)
(3.89e-06 9.685e-06 -0.25986384)
(3.48e-06 9.95e-06 -0.25986322)
(1.52e-06 9.37e-06 -0.25986294)
(2.45e-07 -2.965e-06 -0.25987287)
(1.97e-06 -2.405e-06 -0.25987244)
(7.105e-06 -1.47e-06 -0.2598714)
(9.595e-06 3e-07 -0.25986929)
(8.36e-06 2.97e-06 -0.25986701)
(8.425e-06 5.355e-06 -0.2598647)
(6.47e-06 6.47e-06 -0.25986278)
(3.89e-06 6.265e-06 -0.25986201)
(2.6e-06 5.255e-06 -0.25986164)
(9e-07 4.305e-06 -0.25986168)
(3.15e-07 -7.85e-07 -0.25987245)
(2.175e-06 -1.5e-08 -0.25987203)
(7.77e-06 3e-07 -0.25987097)
(1.1225e-05 7.4e-07 -0.25986879)
(1.046e-05 2.365e-06 -0.2598663)
(9.685e-06 3.89e-06 -0.25986384)
(6.265e-06 3.89e-06 -0.25986201)
(2.675e-06 2.675e-06 -0.25986152)
(1.52e-06 1.695e-06 -0.25986149)
(5.7e-07 2.44e-06 -0.25986162)
(1.015e-06 1.9e-07 -0.25987206)
(3.055e-06 1.92e-06 -0.25987149)
(7.86e-06 2.745e-06 -0.25987036)
(1.166e-05 2.285e-06 -0.25986821)
(1.151e-05 2.915e-06 -0.25986568)
(9.95e-06 3.48e-06 -0.25986322)
(5.255e-06 2.6e-06 -0.25986164)
(1.695e-06 1.52e-06 -0.25986149)
(2.365e-06 2.365e-06 -0.25986149)
(1.645e-06 2.4e-06 -0.25986113)
(2.045e-06 7e-08 -0.25987183)
(4.73e-06 1.1e-06 -0.25987107)
(8.135e-06 1.745e-06 -0.2598698)
(1.1395e-05 1.375e-06 -0.25986772)
(1.1655e-05 1.48e-06 -0.25986525)
(9.37e-06 1.52e-06 -0.25986294)
(4.305e-06 9e-07 -0.25986168)
(2.44e-06 5.7e-07 -0.25986162)
(2.4e-06 1.645e-06 -0.25986114)
(6.05e-07 6.05e-07 -0.25986117)
(7.8e-07 7.8e-07 -0.22165886)
(-1.9e-07 -1.4e-06 -0.22165866)
(2.98e-06 1.175e-06 -0.22165832)
(4.08e-06 7.35e-07 -0.22165707)
(-2.685e-06 -3.85e-07 -0.22165603)
(-4.565e-06 -7e-08 -0.22165546)
(-2.41e-06 4.85e-07 -0.2216548)
(-3.25e-07 5.5e-07 -0.22165424)
(5.35e-07 1.325e-06 -0.22165376)
(2e-07 2.435e-06 -0.22165348)
(-1.4e-06 -1.9e-07 -0.22165865)
(2.05e-07 2.05e-07 -0.2216587)
(5.115e-06 2.305e-06 -0.22165801)
(2.52e-06 8.55e-07 -0.2216567)
(-3.49e-06 -7e-08 -0.2216558)
(-3.695e-06 1.315e-06 -0.22165507)
(-1.79e-06 2.765e-06 -0.22165425)
(5.15e-07 2.975e-06 -0.22165371)
(2.42e-06 3.965e-06 -0.22165313)
(1.31e-06 5.785e-06 -0.22165273)
(1.175e-06 2.98e-06 -0.22165833)
(2.305e-06 5.115e-06 -0.22165801)
(3.63e-06 3.63e-06 -0.22165734)
(1.705e-06 2.615e-06 -0.22165616)
(-2.225e-06 3.825e-06 -0.2216551)
(-1.73e-06 6.475e-06 -0.22165409)
(-7.5e-07 8.755e-06 -0.22165307)
(8.75e-07 9.465e-06 -0.22165252)
(3.345e-06 9.565e-06 -0.22165187)
(2.02e-06 9.875e-06 -0.22165132)
(7.35e-07 4.08e-06 -0.22165707)
(8.55e-07 2.52e-06 -0.2216567)
(2.615e-06 1.705e-06 -0.22165617)
(2.715e-06 2.715e-06 -0.22165484)
(3.7e-07 5.315e-06 -0.22165349)
(1.235e-06 8.75e-06 -0.22165213)
(1.2e-06 1.1875e-05 -0.22165085)
(1.325e-06 1.364e-05 -0.22165023)
(2.83e-06 1.407e-05 -0.22164959)
(1.62e-06 1.374e-05 -0.22164912)
(-3.85e-07 -2.685e-06 -0.22165602)
(-7e-08 -3.49e-06 -0.22165579)
(3.825e-06 -2.225e-06 -0.2216551)
(5.315e-06 3.7e-07 -0.22165349)
(3.81e-06 3.81e-06 -0.22165184)
(4.83e-06 7.48e-06 -0.22165003)
(4.14e-06 1.0745e-05 -0.22164841)
(3.07e-06 1.3015e-05 -0.2216476)
(3.445e-06 1.4075e-05 -0.22164693)
(1.69e-06 1.411e-05 -0.22164656)
(-7e-08 -4.565e-06 -0.22165546)
(1.315e-06 -3.695e-06 -0.22165507)
(6.475e-06 -1.73e-06 -0.22165409)
(8.75e-06 1.235e-06 -0.22165213)
(7.48e-06 4.83e-06 -0.22165003)
(8.17e-06 8.17e-06 -0.22164784)
(6.735e-06 1.061e-05 -0.22164596)
(4.655e-06 1.189e-05 -0.22164504)
(3.925e-06 1.2025e-05 -0.2216444)
(1.655e-06 1.1205e-05 -0.22164412)
(4.85e-07 -2.41e-06 -0.2216548)
(2.765e-06 -1.79e-06 -0.22165424)
(8.755e-06 -7.5e-07 -0.22165307)
(1.1875e-05 1.2e-06 -0.22165085)
(1.0745e-05 4.14e-06 -0.22164842)
(1.061e-05 6.735e-06 -0.22164596)
(7.86e-06 7.86e-06 -0.22164394)
(4.485e-06 7.46e-06 -0.22164313)
(2.76e-06 6.15e-06 -0.22164273)
(8.7e-07 4.995e-06 -0.22164283)
(5.5e-07 -3.25e-07 -0.22165425)
(2.975e-06 5.15e-07 -0.22165371)
(9.465e-06 8.75e-07 -0.22165252)
(1.364e-05 1.325e-06 -0.22165023)
(1.3015e-05 3.07e-06 -0.2216476)
(1.189e-05 4.655e-06 -0.22164504)
(7.46e-06 4.485e-06 -0.22164313)
(2.945e-06 2.945e-06 -0.22164261)
(1.46e-06 1.77e-06 -0.22164255)
(5e-07 2.715e-06 -0.22164273)
(1.325e-06 5.35e-07 -0.22165376)
(3.965e-06 2.42e-06 -0.22165313)
(9.565e-06 3.345e-06 -0.22165187)
(1.407e-05 2.83e-06 -0.22164959)
(1.4075e-05 3.445e-06 -0.22164693)
(1.2025e-05 3.925e-06 -0.2216444)
(6.15e-06 2.76e-06 -0.22164273)
(1.77e-06 1.46e-06 -0.22164255)
(2.53e-06 2.53e-06 -0.22164257)
(1.815e-06 2.6e-06 -0.22164227)
(2.435e-06 2e-07 -0.22165349)
(5.785e-06 1.31e-06 -0.22165273)
(9.875e-06 2.02e-06 -0.22165131)
(1.374e-05 1.62e-06 -0.22164912)
(1.411e-05 1.69e-06 -0.22164656)
(1.1205e-05 1.655e-06 -0.22164412)
(4.995e-06 8.7e-07 -0.22164283)
(2.715e-06 5e-07 -0.22164273)
(2.6e-06 1.815e-06 -0.22164227)
(5.7e-07 5.7e-07 -0.22164232)
(9e-07 9e-07 -0.17923183)
(1.5e-07 -1.4e-06 -0.17923151)
(3.85e-06 1.35e-06 -0.17923108)
(5.3e-06 9.5e-07 -0.17922973)
(-1.8e-06 -2.5e-07 -0.17922851)
(-3.9e-06 1.5e-07 -0.1792278)
(-1.75e-06 8e-07 -0.179227)
(2.5e-07 8.5e-07 -0.17922639)
(9.5e-07 1.65e-06 -0.17922588)
(3.5e-07 2.8e-06 -0.17922558)
(-1.4e-06 1.5e-07 -0.17923151)
(6e-07 6e-07 -0.17923145)
(6.2e-06 2.85e-06 -0.17923071)
(3.7e-06 1.35e-06 -0.17922927)