/*--------------------------------*- C++ -*----------------------------------*\
| =========                 |                                                 |
| \\      /  F ield         | OpenFOAM: The Open Source CFD Toolbox           |
|  \\    /   O peration     | Version:  v2106                                 |
|   \\  /    A nd           | Website:  www.openfoam.com                      |
|    \\/     M anipulation  |                                                 |
\*---------------------------------------------------------------------------*/
FoamFile
{
    version     2.0;
    format      ascii;
    arch        "LSB;label=32;scalar=64";
    class       volVectorField;
    location    "27.5";
    object      flux;
}
// * * * * * * * * * * * * * * * * * * * * * * * * * * * * * * * * * * * * * //

dimensions      [0 1 -1 1 0 0 0];

internalField   nonuniform List<vector> 
4000
(
(2.746827e-07 2.746827e-07 0.84155892)
(-7.7342374e-07 -5.1389654e-07 0.84156032)
(-1.069457e-06 -1.8840975e-07 0.84155512)
(2.719626e-07 -1.4781417e-07 0.84155558)
(2.6331482e-07 -1.4973082e-07 0.84155633)
(2.0053424e-07 -1.5527571e-07 0.84155688)
(1.9747927e-07 -1.6036394e-07 0.84155737)
(2.2079553e-07 -1.552415e-07 0.84155792)
(1.9682549e-07 -1.1900272e-07 0.84155854)
(5.3545312e-08 -6.0467357e-08 0.84155891)
(-5.1389654e-07 -7.7342374e-07 0.84156032)
(-1.4680624e-06 -1.4680624e-06 0.84155725)
(-5.2033347e-07 -8.9964981e-07 0.841554)
(3.2998101e-07 -8.3061815e-07 0.84155473)
(2.5212251e-07 -8.377245e-07 0.84155547)
(1.8458456e-07 -8.5665158e-07 0.84155598)
(1.9753059e-07 -8.8127866e-07 0.84155643)
(2.8283736e-07 -8.8828574e-07 0.84155703)
(3.389867e-07 -8.0730354e-07 0.84155797)
(1.1208068e-07 -5.9053628e-07 0.84155871)
(-1.8840976e-07 -1.069457e-06 0.84155512)
(-8.9964981e-07 -5.2033347e-07 0.841554)
(-4.3201275e-07 -4.3201275e-07 0.84155115)
(3.3388791e-07 -4.2457126e-07 0.84155194)
(2.3728139e-07 -4.3427352e-07 0.84155266)
(1.5698008e-07 -4.5582647e-07 0.84155312)
(1.6584511e-07 -4.9165969e-07 0.84155347)
(2.9477065e-07 -5.3710621e-07 0.841554)
(4.9457496e-07 -5.5494318e-07 0.8415551)
(1.9805682e-07 -4.7468761e-07 0.84155649)
(-1.4781417e-07 2.7196261e-07 0.84155558)
(-8.3061815e-07 3.2998101e-07 0.84155473)
(-4.2457126e-07 3.3388792e-07 0.84155194)
(3.2772024e-07 3.2772025e-07 0.84155272)
(2.2086729e-07 3.1481302e-07 0.84155342)
(1.2719839e-07 2.9388326e-07 0.84155382)
(1.1625086e-07 2.6169985e-07 0.84155408)
(2.1955386e-07 2.1302909e-07 0.84155444)
(4.014053e-07 1.4594429e-07 0.84155533)
(1.6558439e-07 7.4511126e-08 0.8415565)
(-1.4973082e-07 2.6331482e-07 0.84155633)
(-8.3772449e-07 2.5212251e-07 0.84155547)
(-4.3427352e-07 2.3728139e-07 0.84155266)
(3.1481302e-07 2.2086729e-07 0.84155342)
(2.0344441e-07 2.0344441e-07 0.84155408)
(1.038669e-07 1.8405513e-07 0.84155443)
(8.4990932e-08 1.6157174e-07 0.84155461)
(1.7901509e-07 1.3470019e-07 0.84155488)
(3.56057e-07 1.0366343e-07 0.84155565)
(1.5043471e-07 7.4652454e-08 0.84155671)
(-1.5527571e-07 2.0053424e-07 0.84155688)
(-8.5665158e-07 1.8458456e-07 0.84155598)
(-4.5582648e-07 1.5698007e-07 0.84155312)
(2.9388326e-07 1.2719838e-07 0.84155382)
(1.8405513e-07 1.038669e-07 0.84155443)
(8.5325716e-08 8.5325711e-08 0.84155472)
(6.6895918e-08 7.0163195e-08 0.84155486)
(1.6164555e-07 5.8039719e-08 0.84155508)
(3.4135756e-07 4.9045953e-08 0.8415558)
(1.4624374e-07 4.3922043e-08 0.84155683)
(-1.6036394e-07 1.9747927e-07 0.84155737)
(-8.8127867e-07 1.9753058e-07 0.84155643)
(-4.9165969e-07 1.658451e-07 0.84155347)
(2.6169985e-07 1.1625086e-07 0.84155408)
(1.6157174e-07 8.4990941e-08 0.84155461)
(7.0163199e-08 6.6895917e-08 0.84155486)
(5.770494e-08 5.7704937e-08 0.84155497)
(1.5789785e-07 5.6320245e-08 0.84155517)
(3.4193932e-07 6.1586586e-08 0.84155589)
(1.4701877e-07 7.0071647e-08 0.84155692)
(-1.552415e-07 2.2079553e-07 0.84155792)
(-8.8828575e-07 2.8283735e-07 0.84155703)
(-5.3710621e-07 2.9477066e-07 0.841554)
(2.130291e-07 2.1955387e-07 0.84155444)
(1.3470019e-07 1.790151e-07 0.84155488)
(5.8039712e-08 1.6164556e-07 0.84155508)
(5.6320246e-08 1.5789785e-07 0.84155517)
(1.655272e-07 1.655272e-07 0.84155539)
(3.5510896e-07 1.824712e-07 0.84155614)
(1.5190045e-07 2.0227094e-07 0.84155722)
(-1.1900272e-07 1.9682549e-07 0.84155854)
(-8.0730354e-07 3.389867e-07 0.84155797)
(-5.5494318e-07 4.9457495e-07 0.8415551)
(1.4594429e-07 4.014053e-07 0.84155533)
(1.0366343e-07 3.5605699e-07 0.84155565)
(4.9045952e-08 3.4135756e-07 0.8415558)
(6.1586587e-08 3.4193932e-07 0.84155589)
(1.824712e-07 3.5510897e-07 0.84155614)
(3.7868306e-07 3.7868306e-07 0.84155696)
(1.602186e-07 4.0215397e-07 0.8415581)
(-6.046736e-08 5.3545311e-08 0.84155891)
(-5.9053628e-07 1.1208067e-07 0.84155871)
(-4.7468761e-07 1.9805682e-07 0.84155649)
(7.4511131e-08 1.6558439e-07 0.8415565)
(7.4652453e-08 1.5043471e-07 0.84155671)
(4.3922044e-08 1.4624374e-07 0.84155683)
(7.0071656e-08 1.4701877e-07 0.84155692)
(2.0227094e-07 1.5190045e-07 0.84155722)
(4.0215397e-07 1.602186e-07 0.8415581)
(1.6754772e-07 1.6754773e-07 0.84155928)
(5.8537801e-07 5.8537801e-07 1.2510652)
(-3.3889256e-06 -1.5379812e-06 1.2510655)
(-3.928506e-06 -5.5335748e-07 1.2510607)
(1.0037518e-06 -4.0527816e-07 1.2510612)
(1.1725959e-06 -4.0880467e-07 1.2510622)
(9.6005451e-07 -4.3417804e-07 1.2510629)
(9.7120088e-07 -4.5938694e-07 1.2510636)
(1.103824e-06 -4.2707504e-07 1.2510644)
(8.9076764e-07 -2.1784076e-07 1.2510655)
(2.0361362e-07 -1.7795277e-08 1.2510657)
(-1.5379812e-06 -3.3889256e-06 1.2510655)
(-5.0970287e-06 -5.0970288e-06 1.2510628)
(-2.2294515e-06 -3.2641328e-06 1.2510595)
(1.220581e-06 -2.9780886e-06 1.2510602)
(1.1292461e-06 -2.9967366e-06 1.2510611)
(8.8418111e-07 -3.0866426e-06 1.2510618)
(9.8185538e-07 -3.2091757e-06 1.2510624)
(1.4661433e-06 -3.2290747e-06 1.2510634)
(1.5046873e-06 -2.7501507e-06 1.2510651)
(4.0365911e-07 -1.8532794e-06 1.251066)
(-5.5335748e-07 -3.928506e-06 1.2510607)
(-3.2641328e-06 -2.2294515e-06 1.2510595)
(-1.8095659e-06 -1.8095659e-06 1.2510567)
(1.271148e-06 -1.7381806e-06 1.2510575)
(1.0640419e-06 -1.7763867e-06 1.2510584)
(7.4761539e-07 -1.8824315e-06 1.251059)
(8.2876882e-07 -2.0605306e-06 1.2510594)
(1.562849e-06 -2.2772855e-06 1.2510602)
(2.2665629e-06 -2.304222e-06 1.2510622)
(8.0152785e-07 -1.8898023e-06 1.2510639)
(-4.0527816e-07 1.0037518e-06 1.2510612)
(-2.9780886e-06 1.220581e-06 1.2510602)
(-1.7381806e-06 1.271148e-06 1.2510575)
(1.2537602e-06 1.2537602e-06 1.2510583)
(9.8499516e-07 1.1923822e-06 1.2510592)
(6.0003719e-07 1.0886913e-06 1.2510597)
(5.8700134e-07 9.2902741e-07 1.25106)
(1.2224519e-06 6.9175792e-07 1.2510605)
(1.8921705e-06 3.9067682e-07 1.2510623)
(6.7993887e-07 9.964636e-08 1.2510637)
(-4.0880466e-07 1.1725959e-06 1.2510622)
(-2.9967366e-06 1.1292461e-06 1.2510611)
(-1.7763867e-06 1.0640419e-06 1.2510584)
(1.1923822e-06 9.8499517e-07 1.2510592)
(8.9897294e-07 8.9897294e-07 1.25106)
(4.8426058e-07 8.0306159e-07 1.2510604)
(4.3183545e-07 6.9170475e-07 1.2510606)
(1.0244984e-06 5.5834795e-07 1.251061)
(1.6744513e-06 4.0730034e-07 1.2510626)
(6.0750755e-07 2.6555052e-07 1.2510639)
(-4.3417804e-07 9.6005451e-07 1.2510629)
(-3.0866426e-06 8.841811e-07 1.2510618)
(-1.8824315e-06 7.4761537e-07 1.251059)
(1.0886913e-06 6.0003719e-07 1.2510597)
(8.0306158e-07 4.8426058e-07 1.2510604)
(3.9276901e-07 3.92769e-07 1.2510608)
(3.422877e-07 3.1855081e-07 1.2510609)
(9.3804754e-07 2.5945067e-07 1.2510612)
(1.5993731e-06 2.1611627e-07 1.2510627)
(5.8543899e-07 1.90645e-07 1.2510639)
(-4.5938694e-07 9.7120088e-07 1.2510636)
(-3.2091758e-06 9.8185537e-07 1.2510624)
(-2.0605306e-06 8.2876882e-07 1.2510594)
(9.2902742e-07 5.8700133e-07 1.25106)
(6.9170475e-07 4.3183545e-07 1.2510606)
(3.1855081e-07 3.422877e-07 1.2510609)
(2.9851712e-07 2.9851711e-07 1.251061)
(9.220639e-07 2.9509732e-07 1.2510613)
(1.6056457e-06 3.2683343e-07 1.2510628)
(5.9052669e-07 3.7791804e-07 1.251064)
(-4.2707504e-07 1.103824e-06 1.2510644)
(-3.2290747e-06 1.4661433e-06 1.2510634)
(-2.2772855e-06 1.562849e-06 1.2510602)
(6.9175793e-07 1.2224519e-06 1.2510605)
(5.5834795e-07 1.0244984e-06 1.251061)
(2.5945067e-07 9.3804754e-07 1.2510612)
(2.9509732e-07 9.220639e-07 1.2510613)
(9.6636386e-07 9.6636386e-07 1.2510616)
(1.6821938e-06 1.0606742e-06 1.2510632)
(6.194954e-07 1.1725149e-06 1.2510646)
(-2.1784076e-07 8.9076764e-07 1.2510655)
(-2.7501507e-06 1.5046873e-06 1.2510651)
(-2.304222e-06 2.2665629e-06 1.2510622)
(3.9067683e-07 1.8921705e-06 1.2510623)
(4.0730034e-07 1.6744513e-06 1.2510626)
(2.1611627e-07 1.5993731e-06 1.2510627)
(3.2683343e-07 1.6056457e-06 1.2510628)
(1.0606742e-06 1.6821938e-06 1.2510632)
(1.8117967e-06 1.8117967e-06 1.2510649)
(6.6508715e-07 1.8940369e-06 1.2510664)
(-1.7795278e-08 2.0361362e-07 1.2510657)
(-1.8532794e-06 4.036591e-07 1.251066)
(-1.8898023e-06 8.0152786e-07 1.2510639)
(9.9646362e-08 6.7993887e-07 1.2510637)
(2.6555052e-07 6.0750754e-07 1.2510639)
(1.90645e-07 5.8543899e-07 1.2510639)
(3.7791805e-07 5.9052669e-07 1.251064)
(1.1725149e-06 6.194954e-07 1.2510646)
(1.8940369e-06 6.6508716e-07 1.2510664)
(6.7432219e-07 6.743222e-07 1.2510675)
(4.6048747e-07 4.6048747e-07 1.2489325)
(-5.2398354e-06 -2.338966e-06 1.2489324)
(-5.3393897e-06 -1.0222155e-06 1.2489294)
(1.6842948e-06 -8.1671658e-07 1.24893)
(1.9447812e-06 -8.2558364e-07 1.2489308)
(1.6261358e-06 -8.7596855e-07 1.2489314)
(1.729783e-06 -9.3441585e-07 1.248932)
(2.1422757e-06 -8.758899e-07 1.2489328)
(1.4470634e-06 -3.6598281e-07 1.2489343)
(1.7339843e-07 1.4862772e-07 1.2489344)
(-2.338966e-06 -5.2398354e-06 1.2489324)
(-7.4638896e-06 -7.4638896e-06 1.2489304)
(-3.0560158e-06 -4.9684706e-06 1.2489283)
(1.9792426e-06 -4.5581452e-06 1.248929)
(1.8559032e-06 -4.5968e-06 1.2489298)
(1.4628875e-06 -4.7698983e-06 1.2489303)
(1.7299009e-06 -5.0254578e-06 1.2489308)
(2.9949252e-06 -5.1010909e-06 1.2489317)
(2.9838398e-06 -4.0905078e-06 1.248934)
(6.8800897e-07 -2.3858354e-06 1.2489349)
(-1.0222155e-06 -5.3393897e-06 1.2489294)
(-4.9684706e-06 -3.0560158e-06 1.2489283)
(-2.4336454e-06 -2.4336454e-06 1.2489265)
(2.0559654e-06 -2.319981e-06 1.2489273)
(1.733028e-06 -2.3910289e-06 1.2489281)
(1.197478e-06 -2.5868983e-06 1.2489285)
(1.3985903e-06 -2.923493e-06 1.2489288)
(3.0772257e-06 -3.3518897e-06 1.2489295)
(4.1623188e-06 -3.4273624e-06 1.2489319)
(1.3098467e-06 -2.7783122e-06 1.2489335)
(-8.1671657e-07 1.6842948e-06 1.24893)
(-4.5581452e-06 1.9792426e-06 1.248929)
(-2.319981e-06 2.0559654e-06 1.2489273)
(2.0218591e-06 2.0218591e-06 1.248928)
(1.5889858e-06 1.9095416e-06 1.2489288)
(9.3042331e-07 1.7218138e-06 1.2489291)
(9.6490953e-07 1.4343606e-06 1.2489293)
(2.4910558e-06 1.0116891e-06 1.2489297)
(3.5574174e-06 5.029074e-07 1.2489319)
(1.1207092e-06 3.6978559e-08 1.2489333)
(-8.2558364e-07 1.9447811e-06 1.2489308)
(-4.5968e-06 1.8559032e-06 1.2489298)
(-2.3910289e-06 1.733028e-06 1.2489281)
(1.9095416e-06 1.5889858e-06 1.2489288)
(1.4329827e-06 1.4329827e-06 1.2489294)
(7.2229696e-07 1.2602335e-06 1.2489297)
(6.8846565e-07 1.0613621e-06 1.2489297)
(2.1457725e-06 8.2562878e-07 1.2489301)
(3.1876083e-06 5.6622978e-07 1.2489321)
(9.9922745e-07 3.280938e-07 1.2489334)
(-8.7596855e-07 1.6261358e-06 1.2489314)
(-4.7698983e-06 1.4628875e-06 1.2489303)
(-2.5868983e-06 1.197478e-06 1.2489285)
(1.7218138e-06 9.304233e-07 1.2489291)
(1.2602335e-06 7.2229697e-07 1.2489297)
(5.5880275e-07 5.5880275e-07 1.2489299)
(5.3030486e-07 4.2876373e-07 1.2489299)
(1.9959235e-06 3.2940275e-07 1.2489301)
(3.0598824e-06 2.6348105e-07 1.2489321)
(9.6195186e-07 2.3230049e-07 1.2489334)
(-9.3441585e-07 1.729783e-06 1.248932)
(-5.0254578e-06 1.7299009e-06 1.2489308)
(-2.923493e-06 1.3985903e-06 1.2489288)
(1.4343606e-06 9.6490952e-07 1.2489293)
(1.0613621e-06 6.8846565e-07 1.2489297)
(4.2876373e-07 5.3030486e-07 1.2489299)
(4.5906565e-07 4.5906566e-07 1.2489298)
(1.9804898e-06 4.6903524e-07 1.24893)
(3.0905061e-06 5.5486452e-07 1.248932)
(9.7844041e-07 6.8948297e-07 1.2489333)
(-8.758899e-07 2.1422757e-06 1.2489328)
(-5.1010909e-06 2.9949252e-06 1.2489317)
(-3.3518897e-06 3.0772256e-06 1.2489295)
(1.0116891e-06 2.4910558e-06 1.2489297)
(8.2562878e-07 2.1457725e-06 1.2489301)
(3.2940275e-07 1.9959235e-06 1.2489301)
(4.6903524e-07 1.9804898e-06 1.24893)
(2.0917223e-06 2.0917223e-06 1.2489303)
(3.2803302e-06 2.3150918e-06 1.2489325)
(1.0516975e-06 2.5708262e-06 1.2489339)
(-3.6598281e-07 1.4470634e-06 1.2489343)
(-4.0905078e-06 2.9838398e-06 1.248934)
(-3.4273624e-06 4.1623188e-06 1.2489319)
(5.0290741e-07 3.5574174e-06 1.2489319)
(5.6622978e-07 3.1876083e-06 1.2489321)
(2.6348104e-07 3.0598824e-06 1.2489321)
(5.5486453e-07 3.0905061e-06 1.248932)
(2.3150918e-06 3.2803302e-06 1.2489325)
(3.56961e-06 3.56961e-06 1.2489348)
(1.14893e-06 3.3357716e-06 1.2489365)
(1.4862772e-07 1.7339844e-07 1.2489344)
(-2.3858354e-06 6.8800897e-07 1.2489349)
(-2.7783122e-06 1.3098467e-06 1.2489335)
(3.6978562e-08 1.1207092e-06 1.2489333)
(3.280938e-07 9.9922744e-07 1.2489334)
(2.3230049e-07 9.6195186e-07 1.2489334)
(6.8948297e-07 9.7844041e-07 1.2489333)
(2.5708262e-06 1.0516975e-06 1.2489339)
(3.3357716e-06 1.14893e-06 1.2489365)
(8.9580523e-07 8.9580523e-07 1.248937)
(4.8267613e-07 4.8267613e-07 1.2456293)
(-6.5098345e-06 -2.8770559e-06 1.2456294)
(-6.3488447e-06 -1.2817131e-06 1.2456269)
(2.3684881e-06 -1.0354348e-06 1.2456275)
(2.6212954e-06 -1.0542563e-06 1.2456283)
(2.1705304e-06 -1.1350378e-06 1.2456288)
(2.4202064e-06 -1.2428364e-06 1.2456292)
(3.4053357e-06 -1.1969642e-06 1.24563)
(2.4793565e-06 -4.3080013e-07 1.2456316)
(3.0767162e-07 3.0499606e-07 1.2456321)
(-2.8770559e-06 -6.5098345e-06 1.2456294)
(-9.1564181e-06 -9.1564181e-06 1.2456279)
(-3.5864134e-06 -6.123556e-06 1.2456263)
(2.7096732e-06 -5.6310218e-06 1.245627)
(2.4718909e-06 -5.7027819e-06 1.2456277)
(1.8876604e-06 -5.9708571e-06 1.2456281)
(2.3273169e-06 -6.3893356e-06 1.2456284)
(4.62339e-06 -6.588048e-06 1.2456291)
(4.7322968e-06 -5.1096288e-06 1.2456315)
(1.0434678e-06 -2.7605162e-06 1.2456325)
(-1.2817131e-06 -6.3488447e-06 1.2456269)
(-6.123556e-06 -3.5864134e-06 1.2456263)
(-2.8234486e-06 -2.8234486e-06 1.2456248)
(2.7892621e-06 -2.6932564e-06 1.2456256)
(2.28146e-06 -2.8073696e-06 1.2456263)
(1.4839767e-06 -3.0988064e-06 1.2456266)
(1.8030155e-06 -3.6007944e-06 1.2456267)
(4.6850425e-06 -4.2486776e-06 1.2456272)
(6.3068882e-06 -4.3564801e-06 1.2456297)
(1.8737467e-06 -3.4749312e-06 1.2456314)
(-1.0354348e-06 2.3684881e-06 1.2456275)
(-5.6310218e-06 2.7096732e-06 1.245627)
(-2.6932564e-06 2.7892621e-06 1.2456256)
(2.7257522e-06 2.7257522e-06 1.2456263)
(2.0663409e-06 2.5561903e-06 1.245627)
(1.0942356e-06 2.2814379e-06 1.2456272)
(1.1774457e-06 1.8651127e-06 1.2456271)
(3.8677043e-06 1.2600039e-06 1.2456274)
(5.5060433e-06 5.6336854e-07 1.2456297)
(1.6311671e-06 -4.5979142e-08 1.2456312)
(-1.0542564e-06 2.6212954e-06 1.2456283)
(-5.7027819e-06 2.4718909e-06 1.2456277)
(-2.8073696e-06 2.28146e-06 1.2456263)
(2.5561903e-06 2.0663409e-06 1.245627)
(1.8371458e-06 1.8371458e-06 1.2456275)
(7.9289914e-07 1.5867381e-06 1.2456277)
(7.815815e-07 1.3017485e-06 1.2456275)
(3.3832983e-06 9.6816614e-07 1.2456276)
(5.0009052e-06 6.1158855e-07 1.2456298)
(1.4675149e-06 2.9255729e-07 1.2456312)
(-1.1350378e-06 2.1705304e-06 1.2456288)
(-5.9708571e-06 1.8876604e-06 1.2456281)
(-3.0988064e-06 1.4839767e-06 1.2456266)
(2.2814379e-06 1.0942356e-06 1.2456272)
(1.5867381e-06 7.9289914e-07 1.2456277)
(5.5883826e-07 5.5883826e-07 1.2456277)
(5.588737e-07 3.7745625e-07 1.2456275)
(3.1775444e-06 2.4674646e-07 1.2456276)
(4.8304344e-06 1.7314599e-07 1.2456297)
(1.4184796e-06 1.5365346e-07 1.2456311)
(-1.2428364e-06 2.4202064e-06 1.2456292)
(-6.3893356e-06 2.3273169e-06 1.2456284)
(-3.6007944e-06 1.8030155e-06 1.2456267)
(1.8651127e-06 1.1774457e-06 1.2456271)
(1.3017485e-06 7.815815e-07 1.2456275)
(3.7745625e-07 5.588737e-07 1.2456275)
(4.694897e-07 4.6948969e-07 1.2456272)
(3.1789881e-06 5.1289915e-07 1.2456273)
(4.9078122e-06 6.9069396e-07 1.2456295)
(1.4545198e-06 9.6311269e-07 1.2456309)
(-1.1969641e-06 3.4053357e-06 1.24563)
(-6.588048e-06 4.62339e-06 1.2456291)
(-4.2486776e-06 4.6850425e-06 1.2456272)
(1.2600039e-06 3.8677043e-06 1.2456274)
(9.6816613e-07 3.3832983e-06 1.2456276)
(2.4674645e-07 3.1775444e-06 1.2456276)
(5.1289915e-07 3.1789881e-06 1.2456273)
(3.3987487e-06 3.3987487e-06 1.2456275)
(5.280648e-06 3.8399563e-06 1.2456298)
(1.6000921e-06 4.3574652e-06 1.2456315)
(-4.3080013e-07 2.4793565e-06 1.2456316)
(-5.1096288e-06 4.7322968e-06 1.2456315)
(-4.3564801e-06 6.3068882e-06 1.2456297)
(5.6336856e-07 5.5060432e-06 1.2456297)
(6.1158855e-07 5.0009052e-06 1.2456298)
(1.7314598e-07 4.8304344e-06 1.2456297)
(6.9069397e-07 4.9078122e-06 1.2456295)
(3.8399563e-06 5.280648e-06 1.2456298)
(5.8665288e-06 5.8665288e-06 1.2456325)
(1.7995258e-06 4.9230238e-06 1.2456345)
(3.0499606e-07 3.0767162e-07 1.2456321)
(-2.7605162e-06 1.0434678e-06 1.2456325)
(-3.4749312e-06 1.8737467e-06 1.2456314)
(-4.5979144e-08 1.6311671e-06 1.2456312)
(2.9255729e-07 1.4675149e-06 1.2456312)
(1.5365347e-07 1.4184796e-06 1.2456311)
(9.6311269e-07 1.4545198e-06 1.2456309)
(4.3574652e-06 1.6000921e-06 1.2456315)
(4.9230238e-06 1.7995258e-06 1.2456345)
(9.7108874e-07 9.7108874e-07 1.2456347)
(5.5079066e-07 5.5079066e-07 1.2411958)
(-7.5668774e-06 -3.3244458e-06 1.241196)
(-7.1886818e-06 -1.4639153e-06 1.2411938)
(3.0512275e-06 -1.1827205e-06 1.2411944)
(3.2109282e-06 -1.2138426e-06 1.2411951)
(2.5644384e-06 -1.3268522e-06 1.2411955)
(2.912609e-06 -1.4883252e-06 1.2411958)
(4.5119138e-06 -1.4655806e-06 1.2411963)
(3.5051151e-06 -4.5668798e-07 1.2411978)
(4.7030225e-07 4.6047457e-07 1.2411983)
(-3.3244458e-06 -7.5668774e-06 1.241196)
(-1.0588936e-05 -1.0588936e-05 1.2411947)
(-3.9760942e-06 -7.0547062e-06 1.2411933)
(3.4263365e-06 -6.4978761e-06 1.2411941)
(2.9947307e-06 -6.6108228e-06 1.2411947)
(2.1527145e-06 -6.9792667e-06 1.241195)
(2.7045164e-06 -7.5698343e-06 1.2411951)
(6.0593695e-06 -7.9103188e-06 1.2411956)
(6.3941979e-06 -5.9824856e-06 1.2411978)
(1.3874648e-06 -3.0664055e-06 1.2411987)
(-1.4639153e-06 -7.1886818e-06 1.2411938)
(-7.0547062e-06 -3.9760942e-06 1.2411933)
(-3.0976221e-06 -3.0976221e-06 1.2411921)
(3.4951109e-06 -2.9663097e-06 1.2411928)
(2.7295376e-06 -3.1316655e-06 1.2411935)
(1.6054269e-06 -3.5232658e-06 1.2411937)
(1.981557e-06 -4.1943233e-06 1.2411936)
(6.0992625e-06 -5.063906e-06 1.2411938)
(8.3490282e-06 -5.1952289e-06 1.2411961)
(2.4143556e-06 -4.0911841e-06 1.2411977)
(-1.1827205e-06 3.0512275e-06 1.2411944)
(-6.4978761e-06 3.4263365e-06 1.2411941)
(-2.9663097e-06 3.4951109e-06 1.2411928)
(3.3922931e-06 3.3922931e-06 1.2411936)
(2.4377745e-06 3.1596822e-06 1.2411942)
(1.0900567e-06 2.7950081e-06 1.2411943)
(1.1638762e-06 2.248895e-06 1.241194)
(5.058464e-06 1.4635278e-06 1.241194)
(7.3669198e-06 5.9018788e-07 1.2411961)
(2.1234947e-06 -1.4915656e-07 1.2411976)
(-1.2138426e-06 3.2109282e-06 1.2411951)
(-6.6108228e-06 2.9947307e-06 1.2411947)
(-3.1316655e-06 2.7295376e-06 1.2411935)
(3.1596822e-06 2.4377745e-06 1.2411942)
(2.1322525e-06 2.1322526e-06 1.2411946)
(6.9463976e-07 1.8033605e-06 1.2411947)
(6.5007672e-07 1.4335038e-06 1.2411943)
(4.4405554e-06 1.0057824e-06 1.2411942)
(6.7363439e-06 5.5973848e-07 1.2411962)
(1.9214593e-06 1.6891317e-07 1.2411975)
(-1.3268522e-06 2.5644384e-06 1.2411955)
(-6.9792667e-06 2.1527145e-06 1.241195)
(-3.5232658e-06 1.6054269e-06 1.2411937)
(2.7950081e-06 1.0900567e-06 1.2411943)
(1.8033605e-06 6.9463976e-07 1.2411947)
(3.9130794e-07 3.9130795e-07 1.2411946)
(3.6629812e-07 1.6232307e-07 1.2411942)
(4.1846987e-06 6.993882e-09 1.241194)
(6.5300505e-06 -6.4169952e-08 1.241196)
(1.8629445e-06 -6.125671e-08 1.2411972)
(-1.4883252e-06 2.912609e-06 1.2411958)
(-7.5698343e-06 2.7045164e-06 1.2411951)
(-4.1943233e-06 1.981557e-06 1.2411936)
(2.248895e-06 1.1638762e-06 1.241194)
(1.4335038e-06 6.5007671e-07 1.2411943)
(1.6232307e-07 3.6629811e-07 1.2411942)
(2.6576266e-07 2.6576266e-07 1.2411937)
(4.2140624e-06 3.5612205e-07 1.2411936)
(6.6680933e-06 6.5038145e-07 1.2411956)
(1.9234015e-06 1.096817e-06 1.2411969)
(-1.4655806e-06 4.5119138e-06 1.2411963)
(-7.9103188e-06 6.0593696e-06 1.2411956)
(-5.063906e-06 6.0992625e-06 1.2411938)
(1.4635278e-06 5.058464e-06 1.241194)
(1.0057824e-06 4.4405554e-06 1.2411942)
(6.9938837e-09 4.1846987e-06 1.241194)
(3.5612206e-07 4.2140624e-06 1.2411936)
(4.5693175e-06 4.5693175e-06 1.2411935)
(7.2707454e-06 5.2915046e-06 1.2411957)
(2.1605682e-06 6.1804191e-06 1.2411973)
(-4.5668798e-07 3.5051151e-06 1.2411978)
(-5.9824856e-06 6.3941979e-06 1.2411978)
(-5.1952289e-06 8.3490283e-06 1.2411961)
(5.9018788e-07 7.3669198e-06 1.2411961)
(5.5973848e-07 6.7363439e-06 1.2411962)
(-6.4169953e-08 6.5300505e-06 1.241196)
(6.5038145e-07 6.6680933e-06 1.2411956)
(5.2915046e-06 7.2707454e-06 1.2411957)
(8.279195e-06 8.279195e-06 1.2411983)
(2.5160112e-06 6.5755468e-06 1.2412004)
(4.6047457e-07 4.7030225e-07 1.2411983)
(-3.0664055e-06 1.3874648e-06 1.2411987)
(-4.0911841e-06 2.4143556e-06 1.2411977)
(-1.4915657e-07 2.1234947e-06 1.2411976)
(1.6891317e-07 1.9214593e-06 1.2411975)
(-6.1256714e-08 1.8629445e-06 1.2411972)
(1.096817e-06 1.9234015e-06 1.2411969)
(6.1804192e-06 2.1605682e-06 1.2411973)
(6.5755468e-06 2.5160112e-06 1.2412004)
(1.0248026e-06 1.0248026e-06 1.2412006)
(6.3752718e-07 6.3752719e-07 1.2356777)
(-8.4835002e-06 -3.7170234e-06 1.235678)
(-7.8969615e-06 -1.6024627e-06 1.235676)
(3.7296433e-06 -1.2899098e-06 1.2356767)
(3.7227501e-06 -1.3346812e-06 1.2356774)
(2.8197902e-06 -1.4807319e-06 1.2356777)
(3.2120801e-06 -1.6975517e-06 1.2356777)
(5.4088232e-06 -1.7030236e-06 1.2356781)
(4.3998364e-06 -4.6236003e-07 1.2356793)
(6.1282548e-07 6.2070855e-07 1.2356797)
(-3.7170234e-06 -8.4835002e-06 1.235678)
(-1.1843485e-05 -1.1843485e-05 1.2356769)
(-4.2562915e-06 -7.8336682e-06 1.2356757)
(4.1313156e-06 -7.2231344e-06 1.2356764)
(3.4365169e-06 -7.3822654e-06 1.2356771)
(2.2754845e-06 -7.8540663e-06 1.2356772)
(2.8786425e-06 -8.620875e-06 1.2356772)
(7.2616106e-06 -9.1135406e-06 1.2356774)
(7.8854346e-06 -6.7586541e-06 1.2356793)
(1.6958941e-06 -3.3166675e-06 1.2356802)
(-1.6024627e-06 -7.8969615e-06 1.235676)
(-7.8336683e-06 -4.2562915e-06 1.2356757)
(-3.2766115e-06 -3.2766115e-06 1.2356746)
(4.1810462e-06 -3.1534827e-06 1.2356754)
(3.0918182e-06 -3.3756278e-06 1.235676)
(1.5811807e-06 -3.8705701e-06 1.235676)
(1.9526059e-06 -4.7129421e-06 1.2356758)
(7.271044e-06 -5.8065935e-06 1.2356758)
(1.0196709e-05 -5.9647806e-06 1.2356779)
(2.9074832e-06 -4.6541212e-06 1.2356793)
(-1.2899098e-06 3.7296433e-06 1.2356767)
(-7.2231344e-06 4.1313156e-06 1.2356764)
(-3.1534827e-06 4.1810462e-06 1.2356754)
(4.0322994e-06 4.0322994e-06 1.2356762)
(2.7194295e-06 3.732422e-06 1.2356766)
(9.3817013e-07 3.2757192e-06 1.2356766)
(9.4261903e-07 2.599346e-06 1.2356762)
(6.0097721e-06 1.635161e-06 1.235676)
(9.0379071e-06 5.9009028e-07 1.2356779)
(2.5696671e-06 -2.745079e-07 1.2356791)
(-1.3346812e-06 3.7227501e-06 1.2356774)
(-7.3822654e-06 3.4365169e-06 1.2356771)
(-3.3756278e-06 3.0918182e-06 1.235676)
(3.732422e-06 2.7194295e-06 1.2356766)
(2.335238e-06 2.335238e-06 1.2356771)
(4.4810463e-07 1.9272814e-06 1.235677)
(3.1204769e-07 1.4735953e-06 1.2356765)
(5.2617883e-06 9.5440188e-07 1.2356761)
(8.2870405e-06 4.2346868e-07 1.2356779)
(2.3310844e-06 -3.4618141e-08 1.235679)
(-1.4807319e-06 2.8197902e-06 1.2356777)
(-7.8540663e-06 2.2754845e-06 1.2356772)
(-3.8705701e-06 1.5811807e-06 1.235676)
(3.2757192e-06 9.3817013e-07 1.2356766)
(1.9272814e-06 4.4810465e-07 1.235677)
(7.6527438e-08 7.6527433e-08 1.2356768)
(-3.0260458e-08 -1.9736561e-07 1.2356762)
(4.9596454e-06 -3.7294743e-07 1.2356758)
(8.048887e-06 -4.3600028e-07 1.2356775)
(2.2642759e-06 -4.0589005e-07 1.2356786)
(-1.6975517e-06 3.2120801e-06 1.2356777)
(-8.6208749e-06 2.8786425e-06 1.2356772)
(-4.7129421e-06 1.9526059e-06 1.2356758)
(2.599346e-06 9.4261903e-07 1.2356762)
(1.4735953e-06 3.120477e-07 1.2356765)
(-1.9736562e-07 -3.0260465e-08 1.2356762)
(-1.3742717e-07 -1.3742717e-07 1.2356756)
(5.0231537e-06 7.4404204e-09 1.2356752)
(8.2540979e-06 4.3013772e-07 1.235677)
(2.3511579e-06 1.0661338e-06 1.2356782)
(-1.7030236e-06 5.4088232e-06 1.2356781)
(-9.1135406e-06 7.2616106e-06 1.2356774)
(-5.8065935e-06 7.271044e-06 1.2356758)
(1.635161e-06 6.009772e-06 1.235676)
(9.5440187e-07 5.2617883e-06 1.2356761)
(-3.7294743e-07 4.9596454e-06 1.2356758)
(7.440428e-09 5.0231537e-06 1.2356752)
(5.5272103e-06 5.5272103e-06 1.235675)
(9.1075804e-06 6.5601559e-06 1.2356769)
(2.6882733e-06 7.8725495e-06 1.2356784)
(-4.6236003e-07 4.3998364e-06 1.2356793)
(-6.7586541e-06 7.8854346e-06 1.2356793)
(-5.9647806e-06 1.0196709e-05 1.2356779)
(5.9009029e-07 9.0379071e-06 1.2356779)
(4.2346867e-07 8.2870405e-06 1.2356779)
(-4.3600029e-07 8.048887e-06 1.2356775)
(4.3013773e-07 8.2540979e-06 1.235677)
(6.5601559e-06 9.1075804e-06 1.2356769)
(1.0599437e-05 1.0599437e-05 1.2356793)
(3.2260871e-06 8.1711005e-06 1.2356814)
(6.2070855e-07 6.1282548e-07 1.2356797)
(-3.3166675e-06 1.6958941e-06 1.2356802)
(-4.6541212e-06 2.9074832e-06 1.2356793)
(-2.7450791e-07 2.5696671e-06 1.2356791)
(-3.4618145e-08 2.3310844e-06 1.235679)
(-4.0589004e-07 2.2642759e-06 1.2356786)
(1.0661338e-06 2.3511579e-06 1.2356782)
(7.8725495e-06 2.6882733e-06 1.2356784)
(8.1711005e-06 3.2260871e-06 1.2356814)
(1.069382e-06 1.069382e-06 1.2356815)
(7.4273193e-07 7.4273193e-07 1.2291278)
(-9.2596124e-06 -4.0554833e-06 1.2291281)
(-8.4765966e-06 -1.6998148e-06 1.2291264)
(4.4015224e-06 -1.3590991e-06 1.2291271)
(4.1624037e-06 -1.4184571e-06 1.2291277)
(2.9494091e-06 -1.5980051e-06 1.2291279)
(3.3357286e-06 -1.8712091e-06 1.2291278)
(6.0985602e-06 -1.9093843e-06 1.229128)
(5.1368037e-06 -4.5090314e-07 1.229129)
(7.2170441e-07 7.8641309e-07 1.2291293)
(-4.0554833e-06 -9.2596124e-06 1.2291281)
(-1.2923432e-05 -1.2923432e-05 1.2291272)
(-4.432021e-06 -8.4653027e-06 1.2291261)
(4.8235589e-06 -7.8096252e-06 1.2291269)
(3.8040448e-06 -8.0183151e-06 1.2291275)
(2.2702811e-06 -8.5951771e-06 1.2291276)
(2.8686598e-06 -9.5406275e-06 1.2291274)
(8.229019e-06 -1.01948e-05 1.2291274)
(9.1804998e-06 -7.444028e-06 1.2291291)
(1.9590207e-06 -3.5131209e-06 1.2291298)
(-1.6998148e-06 -8.4765966e-06 1.2291264)
(-8.4653027e-06 -4.432021e-06 1.2291261)
(-3.3627903e-06 -3.3627903e-06 1.2291252)
(4.8485101e-06 -3.2543763e-06 1.229126)
(3.3768518e-06 -3.5370023e-06 1.2291266)
(1.4270967e-06 -4.1371381e-06 1.2291265)
(1.7361061e-06 -5.1517876e-06 1.2291261)
(8.1951595e-06 -6.4715863e-06 1.2291259)
(1.1818482e-05 -6.6661215e-06 1.2291277)
(3.3423091e-06 -5.1682081e-06 1.2291289)
(-1.3590991e-06 4.4015224e-06 1.2291271)
(-7.8096252e-06 4.8235589e-06 1.2291269)
(-3.2543763e-06 4.8485101e-06 1.229126)
(4.6493469e-06 4.6493469e-06 1.2291268)
(2.921283e-06 4.2793812e-06 1.2291273)
(6.5549572e-07 3.7294119e-06 1.2291271)
(5.3421143e-07 2.9228891e-06 1.2291266)
(6.7146851e-06 1.7812405e-06 1.2291261)
(1.0483878e-05 5.6661371e-07 1.2291277)
(2.9576297e-06 -4.2157838e-07 1.2291288)
(-1.4184571e-06 4.1624037e-06 1.2291277)
(-8.0183151e-06 3.8040448e-06 1.2291275)
(-3.5370023e-06 3.3768518e-06 1.2291266)
(4.2793812e-06 2.921283e-06 1.2291273)
(2.4569169e-06 2.4569169e-06 1.2291276)
(7.0604622e-08 1.9696183e-06 1.2291274)
(-2.1206529e-07 1.4329761e-06 1.2291267)
(5.8388842e-06 8.2420145e-07 1.2291262)
(9.6156635e-06 2.1103583e-07 1.2291277)
(2.6835144e-06 -3.1192154e-07 1.2291286)
(-1.5980051e-06 2.9494091e-06 1.2291279)
(-8.5951771e-06 2.2702811e-06 1.2291276)
(-4.1371381e-06 1.4270967e-06 1.2291265)
(3.7294119e-06 6.5549572e-07 1.2291271)
(1.9696183e-06 7.0604629e-08 1.2291274)
(-3.68445e-07 -3.68445e-07 1.2291271)
(-6.112054e-07 -6.8551451e-07 1.2291264)
(5.4927448e-06 -8.7885464e-07 1.2291258)
(9.3477552e-06 -9.3106156e-07 1.2291272)
(2.6089915e-06 -8.7207324e-07 1.2291282)
(-1.8712091e-06 3.3357286e-06 1.2291278)
(-9.5406275e-06 2.8686598e-06 1.2291274)
(-5.1517876e-06 1.7361061e-06 1.2291261)
(2.9228891e-06 5.3421144e-07 1.2291266)
(1.4329761e-06 -2.1206529e-07 1.2291267)
(-6.8551452e-07 -6.1120541e-07 1.2291264)
(-7.2247493e-07 -7.2247493e-07 1.2291257)
(5.5933372e-06 -5.1958216e-07 1.2291251)
(9.6224449e-06 3.617529e-08 1.2291266)
(2.7228399e-06 8.6661529e-07 1.2291276)
(-1.9093843e-06 6.0985601e-06 1.229128)
(-1.01948e-05 8.229019e-06 1.2291274)
(-6.4715863e-06 8.1951595e-06 1.2291259)
(1.7812405e-06 6.7146851e-06 1.2291261)
(8.2420143e-07 5.8388842e-06 1.2291262)
(-8.7885464e-07 5.4927448e-06 1.2291258)
(-5.1958215e-07 5.5933372e-06 1.2291251)
(6.251395e-06 6.251395e-06 1.2291246)
(1.0733953e-05 7.6064334e-06 1.2291263)
(3.1626182e-06 9.3628512e-06 1.2291276)
(-4.5090314e-07 5.1368037e-06 1.229129)
(-7.444028e-06 9.1804998e-06 1.2291291)
(-6.6661215e-06 1.1818482e-05 1.2291277)
(5.666137e-07 1.0483878e-05 1.2291277)
(2.1103582e-07 9.6156635e-06 1.2291277)
(-9.3106156e-07 9.3477552e-06 1.2291272)
(3.6175292e-08 9.6224449e-06 1.2291266)
(7.6064334e-06 1.0733953e-05 1.2291263)
(1.2733901e-05 1.2733901e-05 1.2291284)
(3.8937853e-06 9.6294802e-06 1.2291303)
(7.8641308e-07 7.2170441e-07 1.2291293)
(-3.5131209e-06 1.9590207e-06 1.2291298)
(-5.1682081e-06 3.3423091e-06 1.2291289)
(-4.2157837e-07 2.9576297e-06 1.2291288)
(-3.1192154e-07 2.6835144e-06 1.2291286)
(-8.7207324e-07 2.6089915e-06 1.2291282)
(8.6661529e-07 2.7228399e-06 1.2291276)
(9.3628512e-06 3.1626182e-06 1.2291276)
(9.6294802e-06 3.8937853e-06 1.2291303)
(1.093004e-06 1.093004e-06 1.2291304)
(8.6682706e-07 8.6682706e-07 1.2216043)
(-9.8911812e-06 -4.3380066e-06 1.2216047)
(-8.9275365e-06 -1.75599e-06 1.2216032)
(5.0630849e-06 -1.3903029e-06 1.221604)
(4.5325201e-06 -1.4649126e-06 1.2216045)
(2.9622519e-06 -1.6780872e-06 1.2216046)
(3.2957642e-06 -2.0082119e-06 1.2216045)
(6.5865644e-06 -2.0832099e-06 1.2216044)
(5.7087597e-06 -4.2286617e-07 1.2216052)
(7.9268441e-07 9.5662197e-07 1.2216054)
(-4.3380065e-06 -9.8911812e-06 1.2216047)
(-1.3825406e-05 -1.3825406e-05 1.221604)
(-4.5059817e-06 -8.9490629e-06 1.2216031)
(5.4997009e-06 -8.2561842e-06 1.2216039)
(4.1008437e-06 -8.5167635e-06 1.2216044)
(2.147303e-06 -9.1992588e-06 1.2216045)
(2.6880801e-06 -1.0324188e-05 1.2216041)
(8.9645828e-06 -1.1147951e-05 1.2216039)
(1.0268508e-05 -8.0370594e-06 1.2216053)