/*--------------------------------*- C++ -*----------------------------------*\
| =========                 |                                                 |
| \\      /  F ield         | OpenFOAM: The Open Source CFD Toolbox           |
|  \\    /   O peration     | Version:  v2106                                 |
|   \\  /    A nd           | Website:  www.openfoam.com                      |
|    \\/     M anipulation  |                                                 |
\*---------------------------------------------------------------------------*/
FoamFile
{
    version     2.0;
    format      ascii;
    arch        "LSB;label=32;scalar=64";
    class       volScalarField;
    location    "27.5";
    object      gradTx;
}
// * * * * * * * * * * * * * * * * * * * * * * * * * * * * * * * * * * * * * //

dimensions      [0 -1 0 1 0 0 0];

internalField   nonuniform List<scalar> 
4000
(
0.00021535225
-0.00060636705
-0.00083845824
0.00021321968
0.00020643978
0.00015721958
0.00015482447
0.00017310451
0.00015431191
4.1979721e-05
-0.00040289678
-0.0011509663
-0.00040794336
0.00025870632
0.00019766497
0.00014471497
0.00015486471
0.00022174553
0.00026576682
8.7871664e-05
-0.00014771394
-0.00070532876
-0.00033869959
0.00026176936
0.00018602949
0.00012307296
0.00013002317
0.00023110128
0.00038774859
0.00015527728
-0.00011588685
-0.00065120768
-0.00033286543
0.00025693387
0.00017316077
9.9724005e-05
9.1141099e-05
0.00017213103
0.00031470323
0.00012981877
-0.00011738951
-0.00065677909
-0.00034047204
0.00024681456
0.00015950117
8.1432034e-05
6.6633204e-05
0.00014034849
0.00027915
0.00011794137
-0.00012173673
-0.00067161799
-0.00035736964
0.00023040556
0.0001442999
6.6895675e-05
5.2446646e-05
0.00012673071
0.00026762558
0.00011465563
-0.00012572592
-0.00069092572
-0.00038546301
0.00020517364
0.00012667284
5.5008206e-05
4.5240885e-05
0.00012379249
0.00026808169
0.00011526326
-0.00012170991
-0.00069641929
-0.00042109324
0.0001670156
0.00010560545
4.5503348e-05
4.415528e-05
0.00012977393
0.00027840673
0.00011909051
-9.3298572e-05
-0.00063292894
-0.0004350775
0.00011442086
8.1272508e-05
3.8452207e-05
4.8284111e-05
0.00014305809
0.00029688891
0.00012561197
-4.7406633e-05
-0.00046298261
-0.00037215683
5.8417001e-05
5.8527797e-05
3.4435044e-05
5.4936436e-05
0.00015858116
0.00031529019
0.00013135803
0.00045544754
-0.0026367198
-0.0030565352
0.00078095914
0.00091232658
0.00074696088
0.0007556332
0.0008588193
0.00069305291
0.00015841955
-0.001196611
-0.0039656926
-0.0017346027
0.00094966097
0.0008785987
0.00068792834
0.00076392283
0.0011407182
0.001170707
0.00031406295
-0.0004305343
-0.0025396262
-0.0014079149
0.00098900413
0.00082786724
0.00058167475
0.00064481538
0.0012159592
0.0017634768
0.00062362079
-0.00031532266
-0.0023170723
-0.0013523742
0.00097547574
0.00076636573
0.00046685299
0.00045671058
0.00095111663
0.0014721845
0.00052901969
-0.00031806641
-0.0023315812
-0.0013821001
0.00092772118
0.00069943699
0.00037677414
0.00033598529
0.00079710085
0.0013027903
0.00047266521
-0.00033780791
-0.0024015316
-0.0014646072
0.00084704549
0.00062481411
0.00030559003
0.00026631355
0.00072983859
0.0012443763
0.000455495
-0.00035742145
-0.0024968673
-0.0016031755
0.00072282058
0.00053817402
0.0002478453
0.00023225828
0.00071740267
0.0012492567
0.00045945343
-0.00033228149
-0.0025123495
-0.0017718194
0.0005382154
0.00043441709
0.00020186302
0.00022959754
0.00075186982
0.0013088142
0.00048199224
-0.00016948884
-0.0021397274
-0.0017927771
0.00030396223
0.00031689599
0.00016814712
0.00025428951
0.00082524702
0.0014096504
0.00051746445
-1.3845439e-05
-0.0014419256
-0.0014703419
7.7528863e-05
0.00020660895
0.00014832945
0.00029403539
0.00091226355
0.0014736366
0.00052464967
0.00035559652
-0.004046293
-0.0041231709
0.0013006421
0.0015017943
0.0012557307
0.0013357688
0.001654303
0.0011174478
0.00013390132
-0.0018061907
-0.005763747
-0.0023599093
0.001528406
0.0014331612
0.0011296675
0.00133586
0.002312734
0.0023041736
0.00053129262
-0.00078937283
-0.0038367407
-0.001879304
0.0015876528
0.0013382749
0.00092471366
0.0010800161
0.0023762879
0.003214216
0.0010114867
-0.00063068294
-0.0035198801
-0.0017915303
0.0015613153
0.0012270429
0.0007184893
0.00074512016
0.0019236372
0.0027471004
0.00086543136
-0.00063753023
-0.00354973
-0.0018463947
0.0014745817
0.0011065745
0.00055777046
0.00053164532
0.0016570034
0.0024615273
0.00077162102
-0.00067643834
-0.0036833995
-0.0019976486
0.001329615
0.0009731745
0.00043151734
0.00040951076
0.0015412873
0.0023628951
0.00074283616
-0.00072157237
-0.003880747
-0.0022575729
0.0011076385
0.00081960257
0.00033109891
0.00035449859
0.0015293692
0.0023865432
0.0007555689
-0.00067637759
-0.0039391522
-0.0025883884
0.00078124414
0.0006375651
0.00025437061
0.00036219728
0.0016152648
0.0025331287
0.00081213931
-0.00028261836
-0.0031587621
-0.0026466697
0.00038835396
0.00043725261
0.0002034647
0.00042847616
0.0017877546
0.0027565156
0.00088722397
0.00011477294
-0.0018423841
-0.0021454616
2.8555496e-05
0.00025335981
0.00017938653
0.00053243088
0.0019852372
0.0025759414
0.00069175653
0.00036998873
-0.0049900238
-0.0048666197
0.001815532
0.0020093179
0.0016637902
0.0018551759
0.0026103131
0.0019005165
0.00023584143
-0.0022053675
-0.0070187262
-0.002749116
0.0020770628
0.001894794
0.0014469601
0.0017839727
0.0035439959
0.0036274768
0.00079985583
-0.00098247956
-0.0046939278
-0.0021642759
0.0021380707
0.0017488219
0.001137522
0.0013820768
0.003591255
0.0048344584
0.0014362947
-0.00079369833
-0.0043163824
-0.0020644788
0.002089388
0.0015839252
0.00083877127
0.00090255485
0.0029647356
0.0042205817
0.0012503487
-0.0008081257
-0.0043713891
-0.0021519507
0.0019594126
0.0014082389
0.00060778594
0.00059911056
0.0025934208
0.003833375
0.0011249033
-0.00087004761
-0.0045768784
-0.0023753476
0.0017488049
0.0012162923
0.00042836979
0.00042839696
0.002435703
0.003702703
0.001087316
-0.0009526791
-0.0048976573
-0.0027601395
0.0014296766
0.0009978374
0.0002893339
0.00035988087
0.0024368096
0.0037620158
0.0011149421
-0.00091751636
-0.0050499774
-0.0032567654
0.00096583868
0.00074213444
0.0001891401
0.00039315579
0.002605264
0.0040478079
0.0012265285
-0.00033022389
-0.0039167154
-0.0033393998
0.00043184241
0.00046880478
0.00013272267
0.00052944195
0.0029434656
0.0044969066
0.0013794016
0.00023379051
-0.0021160356
-0.0026636606
-3.5244679e-05
0.00022425576
0.00011778095
0.00073826075
0.0033401548
0.0037736758
0.00074437463
0.00041914922
-0.0057583597
-0.005470555
0.0023219706
0.0024435021
0.0019515262
0.0022164824
0.0034335462
0.0026673767
0.00035789789
-0.0025298883
-0.0080581331
-0.0030257901
0.0026074269
0.0022789768
0.0016382062
0.0020581249
0.0046111531
0.0048659558
0.0010558544
-0.0011140331
-0.0053686004
-0.0023572769
0.0026597641
0.0020771661
0.0012217228
0.0015079562
0.0046415118
0.0063535732
0.0018373138
-0.00090004506
-0.004944855
-0.0022573487
0.0025815202
0.0018551357
0.00082952833
0.00088570462
0.0038494687
0.0056061931
0.0016159699
-0.00092372882
-0.0050308068
-0.0023831837
0.0024045042
0.0016226348
0.00052861778
0.00049470551
0.003379243
0.0051263276
0.0014622219
-0.0010097286
-0.0053111909
-0.0026811898
0.0021269888
0.0013723494
0.00029778361
0.00027875124
0.0031845371
0.0049693393
0.0014176924
-0.0011326088
-0.0057606102
-0.0031918615
0.0017113992
0.00109089
0.00012352714
0.00020224421
0.0032068828
0.0050743892
0.0014636999
-0.0011153003
-0.0060197172
-0.0038536101
0.0011137382
0.00076539598
5.3223145e-06
0.00027100731
0.0034772303
0.0055330047
0.0016441826
-0.00034753749
-0.0045526446
-0.003953546
0.00044913034
0.00042595849
-4.8833047e-05
0.00049493738
0.0040268113
0.0063004301
0.0019146731
0.00035041907
-0.0023335207
-0.0031133727
-0.00011350748
0.00012854216
-4.6616084e-05
0.00083467277
0.0047032712
0.0050039612
0.00077987009
0.00048171221
-0.0064100884
-0.0059669034
0.0028180992
0.0028128907
0.0021306189
0.002427031
0.0040868785
0.0033244932
0.00046304771
-0.0028085634
-0.0089488756
-0.003216032
0.0031216008
0.0025966145
0.0017193443
0.0021750874
0.0054868352
0.005958193
0.0012814086
-0.0012108126
-0.0059190795
-0.002475791
0.0031591772
0.002336162
0.001194732
0.001475379
0.0054939634
0.0077045806
0.0021968791
-0.00097464915
-0.0054577632
-0.0023827554
0.0030467848
0.0020547869
0.00070887652
0.00071223809
0.0045409528
0.0068289956
0.001941627
-0.0010084782
-0.0055780016
-0.0025506071
0.0028201989
0.0017644938
0.00033858555
0.00023578162
0.0039757801
0.0062616447
0.0017613552
-0.0011188333
-0.0059344918
-0.0029245829
0.0024751166
0.0014562439
5.7823737e-05
-2.2864646e-05
0.0037474825
0.0060816972
0.001710875
-0.0012826612
-0.0065138884
-0.0035610748
0.0019640525
0.001113441
-0.00014912844
-0.00010383926
0.003795469
0.0062367534
0.0017765226
-0.0012867957
-0.0068861439
-0.0043874322
0.0012355192
0.00072114113
-0.00028179715
5.621949e-06
0.0041763316
0.0068816404
0.0020312452
-0.00034935681
-0.0051068035
-0.0045069572
0.00044586915
0.00031997072
-0.00032943955
0.00032500983
0.0049568196
0.008008879
0.0024376143
0.00046900412
-0.0025060564
-0.0035166296
-0.00020741674
-2.6157289e-05
-0.00030668839
0.00080556516
0.0059484572
0.0061740402
0.00080801937
0.00055729626
-0.0069477924
-0.0063602706
0.0033026077
0.0031231889
0.002213039
0.0025029072
0.0045759508
0.003854313
0.00054151859
-0.0030429628
-0.0096968776
-0.0033254919
0.0036192757
0.0028543005
0.0017034669
0.0021524501
0.0061745045
0.0068884315
0.0014699177
-0.0012754272
-0.0063517967
-0.002523213
0.0036379976
0.0025337636
0.0010707979
0.0013026578
0.0061490991
0.0088677974
0.0025078447
-0.001019777
-0.00585982
-0.0024418662
0.0034885588
0.0021919352
0.00049184011
0.0004008365
0.0050382502
0.0078663998
0.0022192071
-0.0010643152
-0.0060164067
-0.0026539299
0.0032109612
0.0018435059
5.2976981e-05
-0.0001591196
0.0043811078
0.0072149496
0.0020135293
-0.0011990359
-0.0064492452
-0.0031042315
0.0027983011
0.0014778697
-0.00027645646
-0.00045860761
0.004121388
0.0070139292
0.0019576123
-0.00140403
-0.0071586478
-0.0038655566
0.0021931403
0.0010752094
-0.0005143642
-0.00054209682
0.0041968658
0.007220038
0.0020430366
-0.001432674
-0.0076494946
-0.0048558452
0.0013365237
0.00061842557
-0.00065943368
-0.00038985966
0.0046906283
0.0080540389
0.0023730167
-0.00033832748
-0.0055854994
-0.005001811
0.00042514896
0.00015834714
-0.00069860621
2.7143516e-05
0.005707358
0.0095546656
0.0029216352
0.00059007164
-0.0026360103
-0.0038778769
-0.00031632415
-0.00023404501
-0.0006543453
0.00065025003
0.0070252559
0.0072253158
0.00082011682
0.00064596714
-0.007370995
-0.0066528794
0.0037730556
0.003377674
0.0022074962
0.0024560325
0.0049083656
0.0042542177
0.00059071535
-0.0032327205
-0.010302815
-0.0033578976
0.0040984259
0.003055985
0.0016001891
0.002003181
0.006680486
0.0076521817
0.001618722
-0.0013085793
-0.0066689212
-0.0025026463
0.0040952094
0.0026748867
0.00086058792
0.0010038501
0.0066127544
0.0098369217
0.0027670086
-0.001036066
-0.0061525816
-0.0024367044
0.003906853
0.0022723336
0.00018983115
-3.3751086e-05
0.0053472817
0.008711638
0.0024453552
-0.0010916658
-0.0063467675
-0.0026942192
0.003577599
0.0018659586
-0.00031650264
-0.00067517749
0.0046008527
0.007978921
0.0022152018
-0.0012505254
-0.0068553689
-0.0032203558
0.0030979249
0.0014437282
-0.00069350345
-0.0010141569
0.0043110819
0.0077579036
0.0021541311
-0.0014965372
-0.0076936757
-0.0041045772
0.0024005084
0.00098262407
-0.00096123004
-0.0010993756
0.0044142065
0.0080142967
0.0022589021
-0.0015524263
-0.0083075512
-0.0052572879
0.0014188973
0.0004633224
-0.0011177015
-0.0009043692
0.0050196155
0.0090348318
0.002663065
-0.00031512357
-0.005989287
-0.0054377815
0.00038860674
-5.3575812e-05
-0.0011478763
-0.00039084187
0.0062705517
0.010909212
0.0033548884
0.00071288305
-0.0027248471
-0.0041978316
-0.00043910349
-0.00049041202
-0.0010823258
0.00037255902
0.0079145312
0.0081287441
0.00080941953
0.00074674609
-0.0076817029
-0.0068483601
0.0042259217
0.0035784083
0.002121223
0.0022965405
0.0050919791
0.0045267992
0.00061072408
-0.0033782903
-0.010769273
-0.0033182227
0.0045558075
0.0032043365
0.001417668
0.0017386117
0.0070124048
0.0082505851
0.0017275116
-0.0013116337
-0.0068744723
-0.0024188477
0.0045281991
0.0027629547
0.00057324921
0.00059159069
0.006893232
0.010612554
0.0029737284
-0.0010248654
-0.0063397602
-0.0023713874
0.0042997518
0.0023000805
-0.00018727631
-0.00057800077
0.0054771829
0.0093659047
0.0026196004
-0.0010917098
-0.0065721949
-0.0026749034
0.0039188158
0.0018364278
-0.00075962975
-0.0012985992
0.0046443098
0.0085548348
0.0023659295
-0.0012742466
-0.0071552137
-0.0032756434
0.003373225
0.0013586541
-0.0011831114
-0.0016759824
0.0043254228
0.0083144869
0.0022998818
-0.0015607465
-0.0081201686
-0.0042798476
0.0025859369
0.00084059273
-0.0014798913
-0.001762942
0.0044552184
0.0086192569
0.00242323
-0.0016461991
-0.0088601635
-0.0055922559
0.0014830351
0.00026067248
-0.0016474542
-0.0015265749
0.0051687318
0.0098206197
0.0028993424
-0.00028046273
-0.0063189158
-0.0058150695
0.0003370147
-0.00031116742
-0.0016689827
-0.00091963298
0.0066476243
0.012062154
0.0037325662
0.00083632476
-0.0027744092
-0.0044769363
-0.00057468369
-0.0007907453
-0.001583032
-2.0442062e-05
0.0086116285
0.0088729974
0.00077323821
0.00085806277
-0.0078839241
-0.0069518762
0.0046569522
0.0037268998
0.0019610348
0.0020344065
0.0051356124
0.0046773997
0.00060283243
-0.0034808341
-0.011100819
-0.0032127853
0.0049874056
0.0033014226
0.0011636343
0.0013700001
0.007179375
0.0086881337
0.0017972824
-0.0012865336
-0.0069742679
-0.0022780055
0.0049334444
0.0028006947
0.00021747137
7.8534708e-05
0.0070008163
0.011199325
0.0031288562
-0.00098810689
-0.0064269481
-0.0022516231
0.0046642937
0.0022785089
-0.000630057
-0.0012182537
0.0054394017
0.0098348623
0.0027430959
-0.0010662313
-0.0066977757
-0.0026011175
0.0042321941
0.0017587199
-0.0012665562
-0.0020152962
0.0045233622
0.0089487518
0.002466991
-0.0012717583
-0.0073531532
-0.0032745368
0.0036223189
0.001226784
-0.001735303
-0.0024300341
0.0041761433
0.008689591
0.002396107
-0.0015978317
-0.0084413392
-0.0043948088
0.0027481666
0.00065347392
-0.0020605107
-0.002519217
0.0043309076
0.0090400675
0.0025370292
-0.0017146959
-0.0093090249
-0.0058627906
0.001528488
1.5003523e-05
-0.0022392237
-0.00224382
0.0051474344
0.010414447
0.0030820816
-0.00023532326
-0.0065761353
-0.0061347821
0.00027071251
-0.0006097845
-0.0022529653
-0.0015479258
0.0068452439
0.013012053
0.0040531464
0.00095912673
-0.0027870997
-0.0047160619
-0.00072208519
-0.0011302678
-0.002147908
-0.00051896396
0.0091194196
0.0094561877
0.00071150495
0.00097799728
-0.0079831362
-0.0069697964
0.0050614907
0.0038244509
0.0017337496
0.0016799778
0.0050492027
0.0047130891
0.00056894038
-0.0035420462
-0.011303584
-0.0030489142
0.0053888018
0.0033490761
0.0008458014
0.0009090117
0.0071919329
0.0089715097
0.0018297746
-0.0012356346
-0.0069754781
-0.0020873075
0.0053069754
0.0027905601
-0.00019809173
-0.00052222348
0.0069474324
0.011604454
0.0032341292
-0.00092812479
-0.0064210951
-0.0020841664
0.0049970225
0.0022106589
-0.0011291053
-0.0019403541
0.0052471596
0.010126926
0.0028179302
-0.0010174272
-0.0067299934
-0.0024790868
0.0045148016
0.0016363683
-0.0018273861
-0.0028105695
0.0042518234
0.0091696391
0.0025206432
-0.0012450413
-0.007454986
-0.0032225837
0.0038428307
0.0010520518
-0.0023399278
-0.0032614757
0.0038771109
0.0088922047
0.0024450716
-0.0016093927
-0.0086618348
-0.0044539934
0.0028855073
0.00042554572
-0.0026928912
-0.0033535841
0.0040547023
0.0092851956
0.0026023942
-0.0017590187
-0.0096571872
-0.0060719495
0.0015544847
-0.00026906982
-0.0028829424
-0.0030420764
0.0049680435
0.010823184
0.0032127741
-0.00018090589
-0.0067636051
-0.0063987667
0.00018989823
-0.00094450297
-0.0028900123
-0.0022626514
0.0068736318
0.013762332
0.0043167596
0.0010799284
-0.0027658219
-0.0049165334
-0.00088033064
-0.0015037909
-0.0027673858
-0.0011110976
0.0094451799
0.0098815126
0.00062556122
0.0011043874
-0.0079859517
-0.0069093723
0.0054347509
0.0038723759
0.0014463521
0.0012440802
0.004843708
0.0046421786
0.00051132285
-0.0035640474
-0.01138493
-0.0028346178
0.0057554634
0.0033491217
0.00047202244
0.00036779613
0.0070618553
0.0091090113
0.0018272196
-0.0011615983
-0.0068862801
-0.0018545756
0.0056447008
0.0027349778
-0.000664666
-0.0011971125
0.006746351
0.011837041
0.0032918853
-0.00084754445
-0.0063301337
-0.0018764125
0.0052943486
0.0020995403
-0.0016748875
-0.0027296545
0.0049150571
0.010252437
0.002846806
-0.00094779001
-0.0066763303
-0.0023156904
0.0047635726
0.0014728994
-0.0024320478
-0.0036691602
0.0038449658
0.0092284573
0.0025297739
-0.0011963806
-0.0074675317
-0.0031259939
0.0040322702
0.00083843857
-0.0029865697
-0.0041547904
0.0034437845
0.0089334172
0.0024496982
-0.0015973431
-0.0087873484
-0.0044626003
0.0029961908
0.0001612172
-0.0033664376
-0.0042505712
0.0036418181
0.0093653725
0.0026221204
-0.0017805699
-0.0099087244
-0.0062234445
0.0015602225
-0.00058669738
-0.0035679807
-0.0039062346
0.0046449462
0.011056258
0.0032937088
-0.00011857827
-0.0068847054
-0.0066093984
9.4805522e-05
-0.0013100554
-0.0035695852
-0.0030494095
0.0067454618
0.014319478
0.0045245137
0.0011973185
-0.0027138618
-0.0050800189
-0.0010483615
-0.0019057171
-0.0034310655
-0.0017833936
0.0095990517
0.010155187
0.00051751469
0.0012348983
-0.0078998652
-0.0067784655
0.0057720317
0.0038721417
0.0011060495
0.00073797936
0.0045309487
0.0044739454
0.00043252241
-0.0035493055
-0.011353182
-0.0025783081
0.0060829635
0.0033035179
5.0338863e-05
-0.00024107273
0.0068019557
0.0091102257
0.0017922193
-0.0010673132
-0.0067155846
-0.00158798
0.0059426372
0.0026364935
-0.0011733191
-0.0019321735
0.0064119247
0.011907672
0.0033049226
-0.00074920063
-0.006162697
-0.0016360976
0.0055527887
0.0019482784
-0.0022577187
-0.0035711377
0.0044587563
0.010223211
0.0028328824
-0.00086002534
-0.006544979
-0.0021181548
0.0049755493
0.0012719685
-0.0030702938
-0.0045754103
0.0033191515
0.009137657
0.0024977296
-0.0011282831
-0.0073983452
-0.0029913372
0.0041882637
0.00059008683
-0.0036645799
-0.0050939882
0.0028927918
0.0088258697
0.002413384
-0.0015638325
-0.0088243477
-0.0044262123
0.0030785746
-0.00013489274
-0.0040702377
-0.0051941184
0.0031087691
0.0092929942
0.0025995091
-0.0017809845
-0.010068498
-0.0063214021
0.001545027
-0.00093276368
-0.004283288
-0.0048204465
0.0041940187
0.011124969
0.0033277469
-4.9827808e-05
-0.0069433716
-0.0067694117
-1.4198613e-05
-0.0017008572
-0.0042806201
-0.0038928915
0.0064751534
0.014692166
0.0046782003
0.0013098691
-0.0026347714
-0.0052084171
-0.0012249881
-0.0023301048
-0.0041279508
-0.0025213471
0.0095931901
0.010285441
0.00038993072
0.0013670805
-0.0077330378
-0.006585321
0.0060688782
0.0038254532
0.00072027145
0.00017328963
0.0041234342
0.0042184305
0.00033528459
-0.0035005659
-0.011217397
-0.0022885767
0.0063671409
0.0032144393
-0.00041102926
-0.00090470725
0.0064258777
0.0089857916
0.0017276707
-0.00095582582
-0.0064728078
-0.0012958151
0.00619707
0.0024978496
-0.0017149816
-0.0027131941
0.0059593445
0.01182814
0.0032764111
-0.00063606971
-0.0059278914
-0.0013710747
0.0057691241
0.0017601844
-0.0028677993
-0.0044495763
0.0038947018
0.010052221
0.0027796766
-0.00075698403
-0.006344616
-0.0018938319
0.0051480344
0.0010374178
-0.0037317575
-0.0055134497
0.0026915202
0.0089108344
0.002428209
-0.0010434123
-0.0072554949
-0.0028253296
0.0043086922
0.0003113383
-0.0043631633
-0.0060628283
0.00224158
0.0085833813
0.0023398861
-0.0015111845
-0.0087798691
-0.004350602
0.0031312585
-0.00045794615
-0.0047931843
-0.0061678423
0.0024729752
0.009081716
0.0025382457
-0.0017620769
-0.010141979
-0.0063701986
0.0015084366
-0.0013019138
-0.0050175559
-0.005768438
0.0036321829
0.011042035
0.0033181895
2.3777801e-05
-0.0069439588
-0.0068817779
-0.00013656584
-0.0021110679
-0.0050117293
-0.0047772395
0.0060783722
0.014890749
0.0047801413
0.0014161639
-0.002532269
-0.005303769
-0.0014088691
-0.0027707537
-0.0048466743
-0.0033097843
0.0094412156
0.010281977
0.0002456751
0.0014984222
-0.0074941089
-0.00633838
0.0063212012
0.0037342989
0.00029663566
-0.00043813884
0.0036341886
0.0038862632
0.0002225067
-0.0034207898
-0.010987164
-0.0019740118
0.0066042158
0.003084318
-0.00090372508
-0.001610035
0.0059478925
0.0087471917
0.0016367058
-0.00083028103
-0.0061676771
-0.0009863215
0.0064046637
0.0023220201
-0.0022805003
-0.0035258549
0.0054044093
0.011611207
0.0032098223
-0.00051121103
-0.0056351053
-0.0010891393
0.0059405062
0.0015387809
-0.0034952824
-0.0053496985
0.0032398675
0.0097533402
0.0026909872
-0.00064160464
-0.0060842146
-0.0016500311
0.005278687
0.000773289
-0.0044060383
-0.0064673845
0.0019797125
0.0085624514
0.0023251808
-0.00094453163
-0.0070473841
-0.0026346763
0.0043917751
6.7295494e-06
-0.0050714834
-0.0070450318
0.0015081143
0.0082206503
0.0022332349
-0.0014418451
-0.0086613505
-0.0042415884
0.003153149
-0.00080291197
-0.0055241063
-0.0071552781
0.0017524332
0.0087461333
0.0024423078
-0.0017257957
-0.0101351
-0.0063743398
0.0014502455
-0.0016886037
-0.005759377
-0.0067337814
0.0029770486
0.010821257
0.0032686806
0.00010062418
-0.0068911297
-0.0069496134
-0.00027154785
-0.0025346652
-0.0057513856
-0.0056863438
0.0055716468
0.014926902
0.0048330883
0.0015148233
-0.0024101564
-0.0053681914
-0.00159851
-0.0032212936
-0.0055756951
-0.0041331752
0.0091578176
0.01015561
8.7819139e-05
0.0016263962
-0.0071920296
-0.0060461237
0.0065253626
0.0036009684
-0.00015710398
-0.0010843411
0.0030765787
0.0034884967
9.7191232e-05
-0.0033130976
-0.010672426
-0.0016430496
0.006790871
0.0029158563
-0.0014193146
-0.0023439331
0.0053827033
0.0084065608
0.0015226365
-0.0006938684
-0.0058100622
-0.00066754375
0.006562538
0.0021122169
-0.0028607071
-0.0043558793
0.0047633081
0.011270383
0.003108865
-0.00037771487
-0.0052938465
-0.00079789362
0.0060645254
0.0012877999
-0.0041303538
-0.0062563524
0.0025115213
0.0093411029
0.0025708255
-0.00051686281
-0.0057728868
-0.0013938894
0.0053655836
0.00048381056
-0.0050827953
-0.007421476
0.001201619
0.0081075882
0.0021928125
-0.00083445628
-0.0067825981
-0.00242595
0.0044361191
-0.00031903475
-0.0057787732
-0.0080244782
0.00071061012
0.0077529943
0.0020976593
-0.0013583365
-0.0084764899
-0.0041049286
0.0031434954
-0.0011646088
-0.0062518969
-0.0081400947
0.00096543171
0.0083015092
0.002315888
-0.0016741842
-0.010054136
-0.0063383694
0.0013705223
-0.0020871605
-0.0064973919
-0.0077001294
0.002246611
0.010477232
0.0031831272
0.00017907986
-0.0067897605
-0.0069761106
-0.00041819382
-0.00296552
-0.0064880841
-0.0066040939
0.004972054
0.014813337
0.0048401442
0.0016045252
-0.0022722499
-0.0054038272
-0.0017922725
-0.0036752692
-0.0063034709
-0.0049758921
0.0087584384
0.0099180018
-8.0429317e-05
0.0017485024
-0.0068359138
-0.0057169425
0.0066782375
0.0034280525
-0.00063311996
-0.0017533591
0.00246415
0.0030364524
-3.759787e-05
-0.003180717
-0.010283329
-0.0013038516
0.0069243094
0.0027120231
-0.0019493549
-0.003093361
0.0047452584
0.0079765024
0.0013889023
-0.00054977434
-0.0054098287
-0.00034721414
0.0066683194
0.0018718793
-0.0034464954
-0.0051891774
0.0040524151
0.010819723
0.002977426
-0.00023865641
-0.0049136005
-0.00050463611
0.0061392557
0.0010111644
-0.0047633179
-0.0071546609
0.0017270078
0.0088304912
0.0024233526
-0.00038572641
-0.0054197468
-0.0011322679
0.0054072547
0.00017337011
-0.0057518432
-0.0083603078
0.00037515162
0.0075617178
0.0020354042
-0.00071600933
-0.0064697737
-0.0022054949
0.0044407465
-0.00066111956
-0.0064744423
-0.0089853845
-0.00013270631
0.0071961158
0.0019375192
-0.0012632163
-0.0082331222
-0.0039462309
0.0031019069
-0.0015377543
-0.0069656335
-0.0091062868
0.00013029903
0.0077635319
0.0021633235
-0.001609344
-0.0099055921
-0.0062667948
0.0012696161
-0.0024918431
-0.0072204213
-0.00865142
0.0014589882
0.010025108
0.0030656286
0.00025752258
-0.0066448571
-0.0069644815
-0.00057535662
-0.0033974684
-0.0072104861
-0.0075145923
0.0042969494
0.014563549
0.004804694
0.0016840227
-0.0021223214
-0.005412806
-0.0019883893
-0.0041262185
-0.0070186071
-0.0058224282
0.0082590051
0.0095814321
-0.0002557826
0.0018623064
-0.0064349069
-0.0053590259
0.0067772576
0.0032184308
-0.0011235768
-0.0024333583
0.0018104704
0.0025415734
-0.00017877643
-0.0030269369
-0.0098300753
-0.00096420252
0.0070022932
0.0024760381
-0.0024854645
-0.0038454872
0.0040505759
0.0074699181
0.0012390213
-0.0004011392
-0.0049767091
-3.2657991e-05
0.0067201752
0.0016046541
-0.0040288965
-0.006011982
0.0032880992
0.010273634
0.0028195136
-9.7054624e-05
-0.0045037075
-0.00021627245
0.0061632833
0.00071296221
-0.0053846808
-0.0080301659
0.0009035484
0.0082367326
0.0022528207
-0.00025111547
-0.0050337916
-0.00087166787
0.0054027071
-0.00015351903
-0.0064032436
-0.0092689374
-0.00048196379
0.0069404984
0.0018573286
-0.00059198307
-0.0061174841
-0.0019793483
0.0044051102
-0.001014601
-0.0071481768
-0.0099124661
-0.001003814
0.00656589
0.0017572431
-0.0011590406
-0.0079391113
-0.0037708841
0.0030283599
-0.0019170151
-0.0076546871
-0.010038345
-0.00073481995
0.0071480967
0.0019890336
-0.0015334024
-0.0096961079
-0.006164027
0.0011481548
-0.0028969012
-0.0079175841
-0.0095720545
0.00063219043
0.009480358
0.0029204123
0.00033436304
-0.0064614825
-0.0069179116
-0.00074170307
-0.0038243774
-0.0079075433
-0.0084023402
0.0035637323
0.014191603
0.0047303435
0.0017521607
-0.0019640474
-0.0053972125
-0.0021849806
-0.0045677438
-0.0077099858
-0.0066575865
0.0076756972
0.0091586004
-0.0004349231
0.0019654743
-0.0059980674
-0.0049802684
0.0068204416
0.0029752541
-0.0016206953
-0.0031127376
0.0011289867
0.0020152884
-0.0003232784
-0.0028550639
-0.0093228074
-0.00063142593
0.0070231704
0.0022113512
-0.0030193918
-0.0045878061
0.0033135824
0.0068998468
0.0010765443
-0.00025101904
-0.0045201901
0.00026928485
0.0067168354
0.0013143705
-0.0045991525
-0.0068109722
0.0024865503
0.0096466963
0.0026392052
4.4164405e-05
-0.0040732542
6.0758049e-05
0.0061357239
0.00039741615
-0.0059852286
-0.0088689578
5.8060649e-05
0.0075751159
0.0020635181
-0.00011586648
-0.0046237963
-0.00061816166
0.0053514358
-0.00049225308
-0.0070273892
-0.010133032
-0.0013523746
0.0062595856
0.0016629753
-0.0004651042
-0.0057341377
-0.001753177
0.0043291003
-0.0013745079
-0.00779003
-0.010791079
-0.0018850893
0.0058781713
0.0015612721
-0.0010483308
-0.0076022535
-0.0035839985
0.0029231992
-0.0022970545
-0.0083088191
-0.010921403
-0.0016121624
0.0064711081
0.0017974612
-0.0014484833
-0.0094323724
-0.0060343286
0.0010070401
-0.003296629
-0.0085784006
-0.010447053
-0.00021608386
0.008858582
0.0027517755
0.0004080663
-0.00624469
-0.0068395202
-0.0009157257
-0.0042402045
-0.0085686069
-0.0092523975
0.0027896382
0.013711932
0.0046208623
0.001807889
-0.0018009645
-0.0053590595
-0.0023800705
-0.0049935735
-0.0083668782
-0.0074666424
0.0070247398
0.0086624464
-0.00061454809
0.0020558033
-0.005534262
-0.0045881898
0.0068064166
0.0027019244
-0.0021168124
-0.0037802275
0.00043289419
0.0014688878
-0.00046809103
-0.0026683845
-0.0087714944
-0.00031231324
0.0069858929
0.0019216204
-0.0035430768
-0.0053082427
0.0025489666
0.0062793189
0.00090501228
-0.00010235165
-0.0040494133
0.0005523251
0.0066576071
0.0010050147
-0.0051487819
-0.0075733831
0.0016636223
0.0089535038
0.0024405991
0.00018219988
-0.0036309795
0.00032054333
0.0060562325
6.8854698e-05
-0.0065560972
-0.0096577896
-0.00079300328
0.0068608243
0.00185972
1.7299247e-05
-0.0041982227
-0.00037733527
0.0052534307
-0.00083817141
-0.0076150775
-0.010938989
-0.0022192665
0.0055344614
0.0014567004
-0.00033800276
-0.0053278892
-0.0015322224
0.0042130465
-0.0017358592
-0.0083905008
-0.011607342
-0.002759476
0.0051486204
0.001354008
-0.00093354374
-0.0072301922
-0.0033903556
0.0027871351
-0.002672575
-0.0089182646
-0.011741369
-0.0024845215
0.0057483032
0.001593021
-0.0013566795
-0.0091210448
-0.0058817693
0.00084744062
-0.0036854118
-0.0091928807
-0.011262187
-0.0010686267
0.0081753238
0.0025640318
0.00047717118
-0.0059994641
-0.0067323255
-0.0010957537
-0.0046390477
-0.0091835197
-0.01005052
0.001991557
0.013139153
0.0044801314
0.0018502745
-0.0016364289
-0.0053002639
-0.0025716017
-0.0053976157
-0.0089790389
-0.0082354839
0.0063222227
0.0081059899
-0.00079141007
0.0021312498
-0.0050520711
-0.0041898649
0.0067344336
0.0024020754
-0.0026044329
-0.0044249759
-0.00026497806
0.00091341266
-0.00061028641
-0.0024701294
-0.0081858355
-1.3063459e-05
0.0068900288
0.0016106911
-0.0040487056
-0.0059952427
0.0017710505
0.0056212243
0.00072791798
4.2073547e-05
-0.0035730885
0.00081077891
0.0065423838
0.00068070691
-0.0056696358
-0.0082870999
0.00083469697
0.0082085159
0.0022277705
0.00031440493
-0.0031851917
0.00055774989
0.00592501
-0.00026831372
-0.0070888308
-0.010384174
-0.0016337965
0.0061087861
0.0016456434
0.0001458037
-0.0037651383
-0.00015423988
0.005109179
-0.0011865854
-0.0081575732
-0.011674031
-0.0030665061
0.0047802833
0.0012427808
-0.00021318458
-0.0049065601
-0.0013212549
0.0040577177
-0.0020936968
-0.0089405994
-0.012348242
-0.0036106303
0.0043925504
0.0011397679
-0.00081704474
-0.0068303412
-0.0031943651
0.0026212416
-0.0030383539
-0.0094738018
-0.012485028
-0.003335396
0.0049950958
0.0013800526
-0.0012600291
-0.008768684
-0.0057101859
0.00067078661
-0.0040577652
-0.0097515965
-0.012004091
-0.0019088744
0.0074459129
0.0023614638
0.00054030766
-0.0057306662
-0.0065992122
-0.0012799614
-0.0050151877
-0.0097426917
-0.010783272
0.0011858753
0.012487911
0.0043120966
0.0018785121
-0.0014735808
-0.005222624
-0.002757446
-0.0057740009
-0.009536784
-0.0089507284
0.0055839414
0.0075021865
-0.00096235287
0.0021899538
-0.0045597045
-0.0037918627
0.0066043801
0.002079558
-0.0030762712
-0.0050366181
-0.00095226469
0.00035955817
-0.00074704912
-0.0022634425
-0.0075751723
0.00026076871
0.0067357725
0.0012825802
-0.0045287522
-0.0066378464
0.00099367999
0.0049381967
0.00054867169
0.00017964195
-0.0030994168
0.0010396149
0.0063716522
0.00034568397
-0.0061539416
-0.0089407332
1.4566942e-05
0.0074259306
0.0020047323
0.0004383118
-0.0027436946
0.00076766702
0.0057428078
-0.00060962045
-0.0075754275
-0.011036458
-0.0024491957
0.0053335449
0.0014254074
0.00026723689
-0.0033321447
4.6650277e-05
0.0049196687
-0.0015328003