/*--------------------------------*- C++ -*----------------------------------*\
| =========                 |                                                 |
| \\      /  F ield         | OpenFOAM: The Open Source CFD Toolbox           |
|  \\    /   O peration     | Version:  v2106                                 |
|   \\  /    A nd           | Website:  www.openfoam.com                      |
|    \\/     M anipulation  |                                                 |
\*---------------------------------------------------------------------------*/
FoamFile
{
    version     2.0;
    format      ascii;
    arch        "LSB;label=32;scalar=64";
    class       volVectorField;
    location    "27.5";
    object      gradT;
}
// * * * * * * * * * * * * * * * * * * * * * * * * * * * * * * * * * * * * * //

dimensions      [0 -1 0 1 0 0 0];

internalField   nonuniform List<vector> 
4000
(
(0.00021535225 0.00021535225 659.78528)
(-0.00060636705 -0.00040289677 659.78638)
(-0.00083845824 -0.00014771394 659.78231)
(0.00021321968 -0.00011588685 659.78267)
(0.00020643978 -0.00011738951 659.78326)
(0.00015721958 -0.00012173673 659.78369)
(0.00015482447 -0.00012572592 659.78407)
(0.00017310451 -0.00012170991 659.7845)
(0.00015431191 -9.3298573e-05 659.78499)
(4.1979721e-05 -4.740663e-05 659.78527)
(-0.00040289678 -0.00060636705 659.78638)
(-0.0011509663 -0.0011509663 659.78398)
(-0.00040794336 -0.00070532876 659.78144)
(0.00025870632 -0.00065120769 659.782)
(0.00019766497 -0.00065677909 659.78259)
(0.00014471497 -0.00067161799 659.78299)
(0.00015486471 -0.00069092571 659.78333)
(0.00022174553 -0.00069641929 659.7838)
(0.00026576682 -0.00063292894 659.78454)
(8.7871664e-05 -0.00046298261 659.78512)
(-0.00014771394 -0.00083845824 659.78231)
(-0.00070532876 -0.00040794336 659.78144)
(-0.00033869959 -0.00033869959 659.77921)
(0.00026176936 -0.00033286543 659.77982)
(0.00018602949 -0.00034047204 659.78039)
(0.00012307296 -0.00035736963 659.78074)
(0.00013002317 -0.00038546301 659.78102)
(0.00023110128 -0.00042109324 659.78143)
(0.00038774859 -0.0004350775 659.7823)
(0.00015527728 -0.00037215683 659.78339)
(-0.00011588685 0.00021321968 659.78267)
(-0.00065120768 0.00025870633 659.782)
(-0.00033286543 0.00026176936 659.77982)
(0.00025693387 0.00025693388 659.78044)
(0.00017316077 0.00024681457 659.78098)
(9.9724005e-05 0.00023040556 659.78129)
(9.1141099e-05 0.00020517365 659.7815)
(0.00017213103 0.00016701559 659.78178)
(0.00031470323 0.00011442086 659.78247)
(0.00012981877 5.8416997e-05 659.78339)
(-0.00011738951 0.00020643979 659.78326)
(-0.00065677909 0.00019766498 659.78259)
(-0.00034047204 0.00018602949 659.78039)
(0.00024681456 0.00017316077 659.78098)
(0.00015950117 0.00015950117 659.7815)
(8.1432034e-05 0.0001442999 659.78177)
(6.6633204e-05 0.00012667284 659.78192)
(0.00014034849 0.00010560545 659.78213)
(0.00027915 8.1272512e-05 659.78273)
(0.00011794137 5.8527798e-05 659.78355)
(-0.00012173673 0.00015721958 659.78369)
(-0.00067161799 0.00014471497 659.78299)
(-0.00035736964 0.00012307295 659.78074)
(0.00023040556 9.9724001e-05 659.78129)
(0.0001442999 8.1432032e-05 659.78177)
(6.6895675e-05 6.6895672e-05 659.782)
(5.2446646e-05 5.5008204e-05 659.78211)
(0.00012673071 4.5503353e-05 659.78228)
(0.00026762558 3.8452207e-05 659.78285)
(0.00011465563 3.4435043e-05 659.78365)
(-0.00012572592 0.00015482447 659.78407)
(-0.00069092572 0.0001548647 659.78333)
(-0.00038546301 0.00013002317 659.78102)
(0.00020517364 9.1141101e-05 659.7815)
(0.00012667284 6.663321e-05 659.78192)
(5.5008206e-05 5.2446645e-05 659.78211)
(4.5240885e-05 4.5240883e-05 659.78219)
(0.00012379249 4.4155279e-05 659.78235)
(0.00026808169 4.828411e-05 659.78292)
(0.00011526326 5.4936429e-05 659.78372)
(-0.00012170991 0.0001731045 659.7845)
(-0.00069641929 0.00022174553 659.7838)
(-0.00042109324 0.00023110128 659.78143)
(0.0001670156 0.00017213104 659.78178)
(0.00010560545 0.0001403485 659.78213)
(4.5503348e-05 0.00012673071 659.78228)
(4.415528e-05 0.0001237925 659.78235)
(0.00012977393 0.00012977394 659.78252)
(0.00027840673 0.0001430581 659.78311)
(0.00011909051 0.00015858116 659.78395)
(-9.3298572e-05 0.0001543119 659.78499)
(-0.00063292894 0.00026576682 659.78454)
(-0.0004350775 0.00038774858 659.7823)
(0.00011442086 0.00031470323 659.78247)
(8.1272508e-05 0.00027914999 659.78273)
(3.8452207e-05 0.00026762558 659.78285)
(4.8284111e-05 0.00026808168 659.78292)
(0.00014305809 0.00027840674 659.78311)
(0.00029688891 0.00029688891 659.78375)
(0.00012561197 0.00031529019 659.78465)
(-4.7406633e-05 4.1979721e-05 659.78527)
(-0.00046298261 8.787166e-05 659.78512)
(-0.00037215683 0.00015527727 659.78339)
(5.8417001e-05 0.00012981877 659.78339)
(5.8527797e-05 0.00011794137 659.78355)
(3.4435044e-05 0.00011465563 659.78365)
(5.4936436e-05 0.00011526326 659.78372)
(0.00015858116 0.00011909051 659.78395)
(0.00031529019 0.00012561197 659.78465)
(0.00013135803 0.00013135803 659.78557)
(0.00045544754 0.00045544754 973.37885)
(-0.0026367198 -0.001196611 973.37906)
(-0.0030565352 -0.0004305343 973.37541)
(0.00078095914 -0.00031532266 973.37578)
(0.00091232658 -0.00031806642 973.3765)
(0.00074696088 -0.00033780791 973.37707)
(0.0007556332 -0.00035742144 973.3776)
(0.0008588193 -0.00033228149 973.37826)
(0.00069305291 -0.00016948884 973.37908)
(0.00015841955 -1.3845439e-05 973.37922)
(-0.001196611 -0.0026367198 973.37906)
(-0.0039656926 -0.0039656926 973.37696)
(-0.0017346027 -0.0025396262 973.37445)
(0.00094966097 -0.0023170723 973.37501)
(0.0008785987 -0.0023315812 973.37572)
(0.00068792834 -0.0024015316 973.37624)
(0.00076392283 -0.0024968673 973.37671)
(0.0011407182 -0.0025123495 973.37742)
(0.001170707 -0.0021397274 973.3788)
(0.00031406295 -0.0014419256 973.37946)
(-0.0004305343 -0.0030565352 973.37541)
(-0.0025396262 -0.0017346027 973.37445)
(-0.0014079149 -0.0014079149 973.37228)
(0.00098900413 -0.0013523742 973.37291)
(0.00082786724 -0.0013821001 973.37361)
(0.00058167475 -0.0014646072 973.37406)
(0.00064481538 -0.0016031755 973.37441)
(0.0012159592 -0.0017718194 973.37501)
(0.0017634768 -0.0017927771 973.37655)
(0.00062362079 -0.0014703419 973.37784)
(-0.00031532266 0.00078095914 973.37578)
(-0.0023170723 0.00094966097 973.37501)
(-0.0013523742 0.00098900414 973.37291)
(0.00097547574 0.00097547573 973.37355)
(0.00076636573 0.00092772119 973.37421)
(0.00046685299 0.00084704548 973.3746)
(0.00045671058 0.00072282058 973.37483)
(0.00095111663 0.0005382154 973.37526)
(0.0014721845 0.00030396222 973.37658)
(0.00052901969 7.7528861e-05 973.37769)
(-0.00031806641 0.00091232658 973.3765)
(-0.0023315812 0.0008785987 973.37572)
(-0.0013821001 0.00082786724 973.37361)
(0.00092772118 0.00076636574 973.37421)
(0.00069943699 0.00069943699 973.37484)
(0.00037677414 0.00062481411 973.37516)
(0.00033598529 0.00053817403 973.37531)
(0.00079710085 0.00043441709 973.37563)
(0.0013027903 0.00031689599 973.37683)
(0.00047266521 0.00020660895 973.37781)
(-0.00033780791 0.00074696088 973.37707)
(-0.0024015316 0.00068792833 973.37624)
(-0.0014646072 0.00058167474 973.37406)
(0.00084704549 0.000466853 973.3746)
(0.00062481411 0.00037677414 973.37516)
(0.00030559003 0.00030559003 973.37543)
(0.00026631355 0.0002478453 973.37553)
(0.00072983859 0.00020186302 973.37579)
(0.0012443763 0.00016814712 973.37694)
(0.000455495 0.00014832945 973.37788)
(-0.00035742145 0.0007556332 973.3776)
(-0.0024968673 0.00076392283 973.37671)
(-0.0016031755 0.00064481537 973.37441)
(0.00072282058 0.00045671057 973.37483)
(0.00053817402 0.00033598529 973.37531)
(0.0002478453 0.00026631355 973.37553)
(0.00023225828 0.00023225828 973.37559)
(0.00071740267 0.00022959754 973.37584)
(0.0012492567 0.00025428951 973.37699)
(0.00045945343 0.00029403538 973.37795)
(-0.00033228149 0.0008588193 973.37826)
(-0.0025123495 0.0011407182 973.37742)
(-0.0017718194 0.0012159592 973.37501)
(0.0005382154 0.00095111662 973.37526)
(0.00043441709 0.00079710085 973.37563)
(0.00020186302 0.00072983859 973.37579)
(0.00022959754 0.00071740267 973.37584)
(0.00075186982 0.00075186982 973.37611)
(0.0013088142 0.00082524702 973.37732)
(0.00048199224 0.00091226355 973.37836)
(-0.00016948884 0.0006930529 973.37908)
(-0.0021397274 0.001170707 973.3788)
(-0.0017927771 0.0017634768 973.37655)
(0.00030396223 0.0014721845 973.37658)
(0.00031689599 0.0013027903 973.37683)
(0.00016814712 0.0012443763 973.37694)
(0.00025428951 0.0012492567 973.37699)
(0.00082524702 0.0013088142 973.37732)
(0.0014096504 0.0014096504 973.37864)
(0.00051746445 0.0014736366 973.37978)
(-1.3845439e-05 0.00015841955 973.37922)
(-0.0014419256 0.00031406295 973.37946)
(-0.0014703419 0.00062362079 973.37784)
(7.7528863e-05 0.00052901969 973.37769)
(0.00020660895 0.00047266521 973.37781)
(0.00014832945 0.000455495 973.37788)
(0.00029403539 0.00045945343 973.37795)
(0.00091226355 0.00048199225 973.37836)
(0.0014736366 0.00051746445 973.37978)
(0.00052464967 0.00052464968 973.38062)
(0.00035559652 0.00035559652 964.44766)
(-0.004046293 -0.0018061907 964.44753)
(-0.0041231709 -0.00078937283 964.44531)
(0.0013006421 -0.00063068294 964.44572)
(0.0015017943 -0.00063753023 964.44634)
(0.0012557307 -0.00067643834 964.44682)
(0.0013357688 -0.00072157237 964.44726)
(0.001654303 -0.00067637759 964.44792)
(0.0011174478 -0.00028261836 964.44901)
(0.00013390132 0.00011477294 964.44913)
(-0.0018061907 -0.004046293 964.44753)
(-0.005763747 -0.005763747 964.44602)
(-0.0023599093 -0.0038367407 964.44448)
(0.001528406 -0.0035198801 964.44501)
(0.0014331612 -0.00354973 964.44561)
(0.0011296675 -0.0036833995 964.44602)
(0.00133586 -0.003880747 964.44637)
(0.002312734 -0.0039391522 964.44704)
(0.0023041736 -0.0031587621 964.44877)
(0.00053129262 -0.0018423841 964.4495)
(-0.00078937283 -0.0041231709 964.44531)
(-0.0038367407 -0.0023599093 964.44448)
(-0.001879304 -0.001879304 964.44315)
(0.0015876528 -0.0017915303 964.44372)
(0.0013382749 -0.0018463947 964.4443)
(0.00092471366 -0.0019976486 964.44464)
(0.0010800161 -0.0022575729 964.44486)
(0.0023762879 -0.0025883884 964.44538)
(0.003214216 -0.0026466697 964.44723)
(0.0010114867 -0.0021454616 964.44845)
(-0.00063068294 0.0013006421 964.44572)
(-0.0035198801 0.001528406 964.44501)
(-0.0017915303 0.0015876528 964.44372)
(0.0015613153 0.0015613153 964.44429)
(0.0012270429 0.0014745817 964.44484)
(0.0007184893 0.001329615 964.44511)
(0.00074512016 0.0011076385 964.44521)
(0.0019236372 0.00078124414 964.44556)
(0.0027471004 0.00038835395 964.44722)
(0.00086543136 2.8555495e-05 964.4483)
(-0.00063753023 0.0015017943 964.44634)
(-0.00354973 0.0014331612 964.44561)
(-0.0018463947 0.0013382748 964.4443)
(0.0014745817 0.0012270429 964.44484)
(0.0011065745 0.0011065745 964.44533)
(0.00055777046 0.0009731745 964.44555)
(0.00053164532 0.00081960256 964.44557)
(0.0016570034 0.0006375651 964.44581)
(0.0024615273 0.00043725261 964.44736)
(0.00077162102 0.00025335981 964.44834)
(-0.00067643834 0.0012557307 964.44682)
(-0.0036833995 0.0011296675 964.44602)
(-0.0019976486 0.00092471365 964.44464)
(0.001329615 0.00071848929 964.44511)
(0.0009731745 0.00055777046 964.44555)
(0.00043151734 0.00043151734 964.4457)
(0.00040951076 0.00033109891 964.44567)
(0.0015412873 0.00025437061 964.44586)
(0.0023628951 0.00020346471 964.44737)
(0.00074283616 0.00017938653 964.44832)
(-0.00072157237 0.0013357688 964.44726)
(-0.003880747 0.00133586 964.44637)
(-0.0022575729 0.0010800161 964.44486)
(0.0011076385 0.00074512016 964.44521)
(0.00081960257 0.00053164532 964.44557)
(0.00033109891 0.00040951076 964.44567)
(0.00035449859 0.00035449859 964.44561)
(0.0015293692 0.00036219728 964.4458)
(0.0023865432 0.00042847616 964.44733)
(0.0007555689 0.00053243088 964.44831)
(-0.00067637759 0.001654303 964.44792)
(-0.0039391522 0.002312734 964.44704)
(-0.0025883884 0.0023762879 964.44538)
(0.00078124414 0.0019236372 964.44556)
(0.0006375651 0.0016570034 964.44581)
(0.00025437061 0.0015412873 964.44586)
(0.00036219728 0.0015293692 964.4458)
(0.0016152648 0.0016152649 964.44603)
(0.0025331287 0.0017877546 964.44765)
(0.00081213931 0.0019852372 964.44877)
(-0.00028261836 0.0011174478 964.44901)
(-0.0031587621 0.0023041736 964.44877)
(-0.0026466697 0.003214216 964.44723)
(0.00038835396 0.0027471004 964.44722)
(0.00043725261 0.0024615273 964.44736)
(0.0002034647 0.0023628951 964.44737)
(0.00042847616 0.0023865432 964.44733)
(0.0017877546 0.0025331287 964.44765)
(0.0027565156 0.0027565156 964.44944)
(0.00088722397 0.0025759414 964.45074)
(0.00011477294 0.00013390132 964.44913)
(-0.0018423841 0.00053129262 964.4495)
(-0.0021454616 0.0010114867 964.44845)
(2.8555496e-05 0.00086543135 964.4483)
(0.00025335981 0.00077162102 964.44834)
(0.00017938653 0.00074283615 964.44832)
(0.00053243088 0.0007555689 964.44831)
(0.0019852372 0.0008121393 964.44877)
(0.0025759414 0.00088722397 964.45074)
(0.00069175653 0.00069175653 964.45107)
(0.00036998873 0.00036998873 954.81993)
(-0.0049900238 -0.0022053675 954.82002)
(-0.0048666197 -0.00098247956 954.81821)
(0.001815532 -0.00079369833 954.81867)
(0.0020093179 -0.0008081257 954.81923)
(0.0016637902 -0.00087004761 954.81961)
(0.0018551759 -0.00095267909 954.81993)
(0.0026103131 -0.00091751636 954.8205)
(0.0019005165 -0.00033022389 954.82171)
(0.00023584143 0.00023379051 954.82205)
(-0.0022053675 -0.0049900238 954.82002)
(-0.0070187262 -0.0070187262 954.81893)
(-0.002749116 -0.0046939278 954.81773)
(0.0020770628 -0.0043163824 954.81827)
(0.001894794 -0.0043713891 954.8188)
(0.0014469601 -0.0045768784 954.81911)
(0.0017839727 -0.0048976573 954.81931)
(0.0035439959 -0.0050499774 954.81984)
(0.0036274768 -0.0039167154 954.82161)
(0.00079985583 -0.0021160356 954.8224)
(-0.00098247956 -0.0048666197 954.81821)
(-0.0046939278 -0.002749116 954.81773)
(-0.0021642759 -0.0021642759 954.81668)
(0.0021380707 -0.0020644788 954.81725)
(0.0017488219 -0.0021519507 954.81775)
(0.001137522 -0.0023753476 954.81799)
(0.0013820768 -0.0027601395 954.81805)
(0.003591255 -0.0032567654 954.81841)
(0.0048344584 -0.0033393998 954.82032)
(0.0014362947 -0.0026636606 954.82155)
(-0.00079369833 0.001815532 954.81867)
(-0.0043163824 0.0020770628 954.81827)
(-0.0020644788 0.0021380707 954.81725)
(0.002089388 0.002089388 954.8178)
(0.0015839252 0.0019594126 954.81827)
(0.00083877127 0.0017488049 954.81843)
(0.00090255485 0.0014296766 954.81838)
(0.0029647356 0.00096583868 954.81857)
(0.0042205817 0.0004318424 954.82031)
(0.0012503487 -3.5244678e-05 954.82143)
(-0.0008081257 0.0020093179 954.81923)
(-0.0043713891 0.001894794 954.8188)
(-0.0021519507 0.0017488219 954.81775)
(0.0019594126 0.0015839252 954.81827)
(0.0014082389 0.0014082389 954.81868)
(0.00060778594 0.0012162923 954.81878)
(0.00059911056 0.00099783739 954.81865)
(0.0025934208 0.00074213444 954.81875)
(0.003833375 0.00046880478 954.82038)
(0.0011249033 0.00022425576 954.82141)
(-0.00087004761 0.0016637902 954.81961)
(-0.0045768784 0.0014469601 954.81911)
(-0.0023753476 0.001137522 954.81799)
(0.0017488049 0.00083877127 954.81843)
(0.0012162923 0.00060778594 954.81878)
(0.00042836979 0.00042836979 954.81883)
(0.00042839696 0.0002893339 954.81865)
(0.002435703 0.0001891401 954.8187)
(0.003702703 0.00013272267 954.82029)
(0.001087316 0.00011778094 954.82131)
(-0.0009526791 0.0018551758 954.81993)
(-0.0048976573 0.0017839727 954.81931)
(-0.0027601395 0.0013820768 954.81805)
(0.0014296766 0.00090255484 954.81838)
(0.0009978374 0.00059911056 954.81865)
(0.0002893339 0.00042839696 954.81865)
(0.00035988087 0.00035988087 954.81845)
(0.0024368096 0.00039315579 954.8185)
(0.0037620158 0.00052944194 954.82012)
(0.0011149421 0.00073826075 954.82119)
(-0.00091751636 0.0026103131 954.8205)
(-0.0050499774 0.0035439959 954.81984)
(-0.0032567654 0.003591255 954.81841)
(0.00096583868 0.0029647356 954.81857)
(0.00074213444 0.0025934208 954.81875)
(0.0001891401 0.002435703 954.8187)
(0.00039315579 0.0024368096 954.8185)
(0.002605264 0.0026052641 954.81861)
(0.0040478079 0.0029434656 954.82036)
(0.0012265285 0.0033401548 954.82161)
(-0.00033022389 0.0019005165 954.82171)
(-0.0039167154 0.0036274768 954.82161)
(-0.0033393998 0.0048344584 954.82032)
(0.00043184241 0.0042205817 954.82031)
(0.00046880478 0.003833375 954.82038)
(0.00013272267 0.003702703 954.82029)
(0.00052944195 0.0037620158 954.82012)
(0.0029434656 0.0040478079 954.82036)
(0.0044969066 0.0044969066 954.82236)
(0.0013794016 0.0037736758 954.8239)
(0.00023379051 0.00023584143 954.82205)
(-0.0021160356 0.00079985584 954.8224)
(-0.0026636606 0.0014362947 954.82155)
(-3.5244679e-05 0.0012503487 954.82143)
(0.00022425576 0.0011249033 954.82141)
(0.00011778095 0.001087316 954.82131)
(0.00073826075 0.0011149421 954.82119)
(0.0033401548 0.0012265285 954.82161)
(0.0037736758 0.0013794016 954.8239)
(0.00074437463 0.00074437463 954.82404)
(0.00041914922 0.00041914922 944.54439)
(-0.0057583597 -0.0025298883 944.54456)
(-0.005470555 -0.0011140331 944.54297)
(0.0023219706 -0.00090004506 944.54346)
(0.0024435021 -0.00092372882 944.54398)
(0.0019515262 -0.0010097286 944.54427)
(0.0022164824 -0.0011326088 944.54444)
(0.0034335462 -0.0011153003 944.54484)
(0.0026673767 -0.00034753749 944.54592)
(0.00035789789 0.00035041907 944.54626)
(-0.0025298883 -0.0057583597 944.54456)
(-0.0080581331 -0.0080581331 944.54366)
(-0.0030257901 -0.0053686004 944.54263)
(0.0026074269 -0.004944855 944.54319)
(0.0022789768 -0.0050308068 944.54368)
(0.0016382062 -0.0053111909 944.54389)
(0.0020581249 -0.0057606102 944.54395)
(0.0046111531 -0.0060197172 944.54428)
(0.0048659558 -0.0045526446 944.54589)
(0.0010558544 -0.0023335207 944.54661)
(-0.0011140331 -0.005470555 944.54297)
(-0.0053686004 -0.0030257901 944.54263)
(-0.0023572769 -0.0023572769 944.54175)
(0.0026597641 -0.0022573487 944.54232)
(0.0020771661 -0.0023831837 944.54277)
(0.0012217228 -0.0026811898 944.54291)
(0.0015079562 -0.0031918615 944.54283)
(0.0046415118 -0.0038536101 944.543)
(0.0063535732 -0.003953546 944.54473)
(0.0018373138 -0.0031133727 944.54587)
(-0.00090004506 0.0023219706 944.54346)
(-0.004944855 0.0026074269 944.54319)
(-0.0022573487 0.0026597641 944.54232)
(0.0025815202 0.0025815202 944.54287)
(0.0018551357 0.0024045042 944.54328)
(0.00082952833 0.0021269888 944.54334)
(0.00088570462 0.0017113992 944.54315)
(0.0038494687 0.0011137382 944.54315)
(0.0056061931 0.00044913034 944.54472)
(0.0016159699 -0.00011350747 944.54576)
(-0.00092372882 0.0024435021 944.54398)
(-0.0050308068 0.0022789768 944.54368)
(-0.0023831837 0.0020771661 944.54277)
(0.0024045042 0.0018551357 944.54328)
(0.0016226348 0.0016226348 944.54363)
(0.00052861778 0.0013723494 944.54363)
(0.00049470551 0.00109089 944.54336)
(0.003379243 0.00076539598 944.54327)
(0.0051263276 0.00042595848 944.54474)
(0.0014622219 0.00012854216 944.5457)
(-0.0010097286 0.0019515262 944.54427)
(-0.0053111909 0.0016382062 944.54389)
(-0.0026811898 0.0012217228 944.54291)
(0.0021269888 0.00082952832 944.54334)
(0.0013723494 0.00052861778 944.54363)
(0.00029778361 0.00029778361 944.54358)
(0.00027875124 0.00012352714 944.54326)
(0.0031845371 5.3223131e-06 944.54313)
(0.0049693393 -4.8833047e-05 944.54458)
(0.0014176924 -4.6616081e-05 944.54551)
(-0.0011326088 0.0022164824 944.54444)
(-0.0057606102 0.0020581249 944.54395)
(-0.0031918615 0.0015079562 944.54283)
(0.0017113992 0.00088570461 944.54315)
(0.00109089 0.0004947055 944.54336)
(0.00012352714 0.00027875124 944.54326)
(0.00020224421 0.00020224421 944.54292)
(0.0032068828 0.0002710073 944.5428)
(0.0050743892 0.00049493738 944.54428)
(0.0014636999 0.00083467278 944.54527)
(-0.0011153003 0.0034335462 944.54484)
(-0.0060197172 0.0046111531 944.54428)
(-0.0038536101 0.0046415118 944.543)
(0.0011137382 0.0038494687 944.54315)
(0.00076539598 0.003379243 944.54327)
(5.3223145e-06 0.0031845371 944.54313)
(0.00027100731 0.0032068828 944.5428)
(0.0034772303 0.0034772303 944.54274)
(0.0055330047 0.0040268113 944.54437)
(0.0016441826 0.0047032711 944.54558)
(-0.00034753749 0.0026673767 944.54592)
(-0.0045526446 0.0048659558 944.54589)
(-0.003953546 0.0063535732 944.54473)
(0.00044913034 0.0056061931 944.54472)
(0.00042595849 0.0051263276 944.54474)
(-4.8833047e-05 0.0049693393 944.54458)
(0.00049493738 0.0050743892 944.54428)
(0.0040268113 0.0055330047 944.54437)
(0.0063004301 0.0063004301 944.5463)
(0.0019146731 0.0050039612 944.54788)
(0.00035041907 0.00035789788 944.54626)
(-0.0023335207 0.0010558544 944.54661)
(-0.0031133727 0.0018373138 944.54587)
(-0.00011350748 0.0016159699 944.54576)
(0.00012854216 0.0014622219 944.5457)
(-4.6616084e-05 0.0014176924 944.54551)
(0.00083467277 0.0014636999 944.54527)
(0.0047032712 0.0016441826 944.54558)
(0.0050039612 0.0019146731 944.54788)
(0.00077987009 0.00077987009 944.54798)
(0.00048171221 0.00048171221 933.67162)
(-0.0064100884 -0.0028085634 933.67183)
(-0.0059669034 -0.0012108126 933.67043)
(0.0028180992 -0.00097464915 933.67094)
(0.0028128907 -0.0010084782 933.67141)
(0.0021306189 -0.0011188333 933.67162)
(0.002427031 -0.0012826612 933.67167)
(0.0040868785 -0.0012867957 933.6719)
(0.0033244932 -0.00034935681 933.67281)
(0.00046304771 0.00046900411 933.67309)
(-0.0028085634 -0.0064100884 933.67183)
(-0.0089488756 -0.0089488756 933.67106)
(-0.003216032 -0.0059190795 933.67019)
(0.0031216008 -0.0054577632 933.67076)
(0.0025966145 -0.0055780016 933.6712)
(0.0017193443 -0.0059344918 933.67133)
(0.0021750874 -0.0065138884 933.67126)
(0.0054868352 -0.0068861439 933.67143)
(0.005958193 -0.0051068035 933.67283)
(0.0012814086 -0.0025060565 933.67345)
(-0.0012108126 -0.0059669034 933.67043)
(-0.0059190795 -0.003216032 933.67019)
(-0.002475791 -0.002475791 933.66945)
(0.0031591772 -0.0023827554 933.67002)
(0.002336162 -0.0025506071 933.67042)
(0.001194732 -0.0029245829 933.67048)
(0.001475379 -0.0035610748 933.67027)
(0.0054939634 -0.0043874322 933.67027)
(0.0077045806 -0.0045069572 933.67178)
(0.0021968791 -0.0035166296 933.67279)
(-0.00097464915 0.0028180992 933.67094)
(-0.0054577632 0.0031216008 933.67076)
(-0.0023827554 0.0031591772 933.67002)
(0.0030467848 0.0030467848 933.67057)
(0.0020547869 0.0028201989 933.67093)
(0.00070887652 0.0024751166 933.67091)
(0.00071223809 0.0019640525 933.67059)
(0.0045409528 0.0012355192 933.67042)
(0.0068289956 0.00044586915 933.67178)
(0.001941627 -0.00020741673 933.67268)
(-0.0010084782 0.0028128907 933.67141)
(-0.0055780016 0.0025966145 933.6712)
(-0.0025506071 0.002336162 933.67042)
(0.0028201989 0.0020547869 933.67093)
(0.0017644938 0.0017644938 933.67123)
(0.00033858555 0.0014562439 933.67115)
(0.00023578162 0.001113441 933.67075)
(0.0039757801 0.00072114114 933.6705)
(0.0062616447 0.00031997073 933.67176)
(0.0017613552 -2.6157286e-05 933.67258)
(-0.0011188333 0.0021306189 933.67162)
(-0.0059344918 0.0017193443 933.67133)
(-0.0029245829 0.001194732 933.67048)
(0.0024751166 0.00070887653 933.67091)
(0.0014562439 0.00033858556 933.67115)
(5.7823737e-05 5.7823733e-05 933.67101)
(-2.2864646e-05 -0.00014912843 933.67057)
(0.0037474825 -0.00028179715 933.67028)
(0.0060816972 -0.00032943955 933.67151)
(0.001710875 -0.0003066884 933.67232)
(-0.0012826612 0.002427031 933.67167)
(-0.0065138884 0.0021750874 933.67126)
(-0.0035610748 0.001475379 933.67027)
(0.0019640525 0.00071223809 933.67059)
(0.001113441 0.00023578163 933.67075)
(-0.00014912844 -2.2864651e-05 933.67057)
(-0.00010383926 -0.00010383926 933.67012)
(0.003795469 5.6219433e-06 933.66983)
(0.0062367534 0.00032500982 933.67111)
(0.0017765226 0.00080556515 933.67198)
(-0.0012867957 0.0040868785 933.6719)
(-0.0068861439 0.0054868352 933.67143)
(-0.0043874322 0.0054939634 933.67027)
(0.0012355192 0.0045409528 933.67042)
(0.00072114113 0.0039757801 933.6705)
(-0.00028179715 0.0037474825 933.67028)
(5.621949e-06 0.003795469 933.66983)
(0.0041763316 0.0041763316 933.66962)
(0.0068816404 0.0049568196 933.67104)
(0.0020312452 0.0059484572 933.67214)
(-0.00034935681 0.0033244932 933.67281)
(-0.0051068035 0.005958193 933.67283)
(-0.0045069572 0.0077045807 933.67178)
(0.00044586915 0.0068289956 933.67178)
(0.00031997072 0.0062616447 933.67176)
(-0.00032943955 0.0060816972 933.67151)
(0.00032500983 0.0062367534 933.67111)
(0.0049568196 0.0068816404 933.67104)
(0.008008879 0.0080088791 933.67279)
(0.0024376143 0.0061740403 933.6743)
(0.00046900412 0.00046304771 933.67309)
(-0.0025060564 0.0012814086 933.67345)
(-0.0035166296 0.0021968791 933.67279)
(-0.00020741674 0.001941627 933.67268)
(-2.6157289e-05 0.0017613552 933.67258)
(-0.00030668839 0.001710875 933.67232)
(0.00080556516 0.0017765226 933.67198)
(0.0059484572 0.0020312452 933.67214)
(0.0061740402 0.0024376143 933.6743)
(0.00080801937 0.00080801938 933.67436)
(0.00055729626 0.00055729626 922.25509)
(-0.0069477924 -0.0030429628 922.25534)
(-0.0063602706 -0.0012754272 922.25413)
(0.0033026077 -0.001019777 922.25465)
(0.0031231889 -0.0010643152 922.25509)
(0.002213039 -0.0011990359 922.25522)
(0.0025029072 -0.00140403 922.25516)
(0.0045759508 -0.001432674 922.25525)
(0.003854313 -0.00033832748 922.25598)
(0.00054151859 0.00059007164 922.25618)
(-0.0030429628 -0.0069477924 922.25534)
(-0.0096968776 -0.0096968776 922.2547)
(-0.0033254919 -0.0063517966 922.25399)
(0.0036192757 -0.00585982 922.25456)
(0.0028543005 -0.0060164067 922.25496)
(0.0017034669 -0.0064492452 922.25502)
(0.0021524501 -0.0071586478 922.25484)
(0.0061745045 -0.0076494947 922.25485)
(0.0068884315 -0.0055854995 922.25604)
(0.0014699177 -0.0026360103 922.25654)
(-0.0012754272 -0.0063602706 922.25413)
(-0.0063517967 -0.0033254919 922.25399)
(-0.002523213 -0.002523213 922.25338)
(0.0036379976 -0.0024418662 922.25396)
(0.0025337636 -0.0026539299 922.25432)
(0.0010707979 -0.0031042315 922.2543)
(0.0013026578 -0.0038655566 922.25398)
(0.0061490991 -0.0048558452 922.25383)
(0.0088677974 -0.005001811 922.2551)
(0.0025078447 -0.0038778769 922.25596)
(-0.001019777 0.0033026077 922.25465)
(-0.00585982 0.0036192757 922.25456)
(-0.0024418662 0.0036379976 922.25396)
(0.0034885588 0.0034885588 922.25451)
(0.0021919352 0.0032109612 922.25482)
(0.00049184011 0.0027983011 922.25472)
(0.0004008365 0.0021931403 922.2543)
(0.0050382502 0.0013365237 922.25398)
(0.0078663998 0.00042514897 922.25511)
(0.0022192071 -0.00031632415 922.25586)
(-0.0010643152 0.0031231889 922.25509)
(-0.0060164067 0.0028543005 922.25496)
(-0.0026539299 0.0025337637 922.25432)
(0.0032109612 0.0021919352 922.25482)
(0.0018435059 0.0018435059 922.25508)
(5.2976981e-05 0.0014778697 922.25492)
(-0.0001591196 0.0010752094 922.25442)
(0.0043811078 0.00061842559 922.25401)
(0.0072149496 0.00015834715 922.25505)
(0.0020135293 -0.00023404502 922.25573)
(-0.0011990359 0.002213039 922.25522)
(-0.0064492452 0.0017034669 922.25502)
(-0.0031042315 0.0010707979 922.2543)
(0.0027983011 0.00049184011 922.25472)
(0.0014778697 5.2976986e-05 922.25492)
(-0.00027645646 -0.00027645646 922.25471)
(-0.00045860761 -0.00051436419 922.25417)
(0.004121388 -0.00065943368 922.25372)
(0.0070139292 -0.00069860621 922.25473)
(0.0019576123 -0.0006543453 922.2554)
(-0.00140403 0.0025029072 922.25516)
(-0.0071586478 0.0021524502 922.25484)
(-0.0038655566 0.0013026578 922.25398)
(0.0021931403 0.0004008365 922.2543)
(0.0010752094 -0.0001591196 922.25442)
(-0.0005143642 -0.00045860762 922.25417)
(-0.00054209682 -0.00054209682 922.25361)
(0.0041968658 -0.00038985967 922.25317)
(0.007220038 2.7143514e-05 922.25423)
(0.0020430366 0.00065025003 922.25495)
(-0.001432674 0.0045759508 922.25525)
(-0.0076494946 0.0061745045 922.25485)
(-0.0048558452 0.0061490991 922.25383)
(0.0013365237 0.0050382502 922.25398)
(0.00061842557 0.0043811078 922.25401)
(-0.00065943368 0.004121388 922.25372)
(-0.00038985966 0.0041968658 922.25317)
(0.0046906283 0.0046906283 922.25281)
(0.0080540389 0.005707358 922.25402)
(0.0023730167 0.0070252559 922.25496)
(-0.00033832748 0.003854313 922.25598)
(-0.0055854994 0.0068884315 922.25604)
(-0.005001811 0.0088677974 922.2551)
(0.00042514896 0.0078663998 922.25511)
(0.00015834714 0.0072149496 922.25505)
(-0.00069860621 0.0070139292 922.25473)
(2.7143516e-05 0.007220038 922.25423)
(0.005707358 0.0080540389 922.25402)
(0.0095546656 0.0095546656 922.25554)
(0.0029216352 0.0072253158 922.25692)
(0.00059007164 0.00054151859 922.25618)
(-0.0026360103 0.0014699177 922.25654)
(-0.0038778769 0.0025078447 922.25596)
(-0.00031632415 0.0022192071 922.25586)
(-0.00023404501 0.0020135293 922.25573)
(-0.0006543453 0.0019576123 922.2554)
(0.00065025003 0.0020430366 922.25495)
(0.0070252559 0.0023730167 922.25496)
(0.0072253158 0.0029216352 922.25692)
(0.00082011682 0.00082011681 922.25692)
(0.00064596714 0.00064596714 910.35029)
(-0.007370995 -0.0032327205 910.35057)
(-0.0066528794 -0.0013085793 910.34956)
(0.0037730556 -0.001036066 910.35009)
(0.003377674 -0.0010916658 910.35048)
(0.0022074962 -0.0012505254 910.35054)
(0.0024560325 -0.0014965372 910.35039)
(0.0049083656 -0.0015524263 910.35033)
(0.0042542177 -0.00031512357 910.3509)
(0.00059071535 0.00071288305 910.35101)
(-0.0032327205 -0.007370995 910.35057)
(-0.010302815 -0.010302815 910.35007)
(-0.0033578976 -0.0066689212 910.3495)
(0.0040984259 -0.0061525816 910.35008)
(0.003055985 -0.0063467675 910.35044)
(0.0016001891 -0.0068553689 910.35043)
(0.002003181 -0.0076936757 910.35015)
(0.006680486 -0.0083075512 910.35001)
(0.0076521817 -0.005989287 910.35099)
(0.001618722 -0.0027248471 910.35138)
(-0.0013085793 -0.0066528794 910.34956)
(-0.0066689212 -0.0033578976 910.3495)
(-0.0025026463 -0.0025026463 910.34903)
(0.0040952094 -0.0024367044 910.34961)
(0.0026748867 -0.0026942192 910.34992)
(0.00086058792 -0.0032203558 910.34983)
(0.0010038501 -0.0041045772 910.34943)
(0.0066127544 -0.0052572879 910.34912)
(0.0098369217 -0.0054377815 910.35017)
(0.0027670086 -0.0041978316 910.35087)
(-0.001036066 0.0037730556 910.35009)
(-0.0061525816 0.0040984259 910.35008)
(-0.0024367044 0.0040952094 910.34961)
(0.003906853 0.003906853 910.35015)
(0.0022723336 0.003577599 910.35042)
(0.00018983115 0.0030979249 910.35026)
(-3.3751086e-05 0.0024005084 910.34974)
(0.0053472817 0.0014188973 910.34928)
(0.008711638 0.00038860674 910.35018)
(0.0024453552 -0.00043910349 910.35078)
(-0.0010916658 0.003377674 910.35048)
(-0.0063467675 0.003055985 910.35044)
(-0.0026942192 0.0026748867 910.34992)