/*--------------------------------*- C++ -*----------------------------------*\
| =========                 |                                                 |
| \\      /  F ield         | OpenFOAM: The Open Source CFD Toolbox           |
|  \\    /   O peration     | Version:  v2106                                 |
|   \\  /    A nd           | Website:  www.openfoam.com                      |
|    \\/     M anipulation  |                                                 |
\*---------------------------------------------------------------------------*/
FoamFile
{
    version     2.0;
    format      ascii;
    arch        "LSB;label=32;scalar=64";
    class       volScalarField;
    location    "27.5";
    object      laplacianT;
}
// * * * * * * * * * * * * * * * * * * * * * * * * * * * * * * * * * * * * * //

dimensions      [0 -2 0 1 0 0 0];

internalField   nonuniform List<scalar> 
4000
(
47681.97
47681.412
47681.837
47681.647
47681.663
47681.695
47681.725
47681.758
47681.795
47681.812
47681.412
47681.811
47681.766
47681.621
47681.647
47681.679
47681.708
47681.745
47681.791
47681.786
47681.837
47681.766
47681.844
47681.722
47681.748
47681.778
47681.804
47681.845
47681.906
47681.864
47681.647
47681.621
47681.722
47681.602
47681.627
47681.653
47681.674
47681.71
47681.779
47681.771
47681.663
47681.647
47681.748
47681.627
47681.649
47681.672
47681.689
47681.719
47681.781
47681.769
47681.695
47681.679
47681.778
47681.653
47681.672
47681.693
47681.707
47681.734
47681.792
47681.777
47681.725
47681.708
47681.804
47681.674
47681.689
47681.707
47681.719
47681.745
47681.803
47681.788
47681.758
47681.745
47681.845
47681.71
47681.719
47681.734
47681.745
47681.771
47681.831
47681.818
47681.795
47681.791
47681.906
47681.779
47681.781
47681.792
47681.803
47681.831
47681.894
47681.883
47681.812
47681.786
47681.864
47681.771
47681.769
47681.777
47681.788
47681.818
47681.883
47681.865
-856.80017
-858.33502
-856.36179
-856.98888
-857.07889
-857.07826
-857.07208
-857.06183
-857.04754
-857.0471
-858.33502
-857.27053
-856.7003
-857.23867
-857.29968
-857.29127
-857.27609
-857.26401
-857.33617
-857.3412
-856.36179
-856.7003
-855.88995
-856.38193
-856.43786
-856.42738
-856.40082
-856.35549
-856.43846
-856.79242
-856.98888
-857.23867
-856.38193
-856.86702
-856.9227
-856.91269
-856.88298
-856.81374
-856.81677
-857.00582
-857.07889
-857.29968
-856.43786
-856.9227
-856.97887
-856.96968
-856.94159
-856.87382
-856.87469
-857.04451
-857.07826
-857.29127
-856.42738
-856.91269
-856.96968
-856.96093
-856.93355
-856.86738
-856.87072
-857.0415
-857.07208
-857.27609
-856.40082
-856.88298
-856.94159
-856.93355
-856.9062
-856.84008
-856.84381
-857.01631
-857.06183
-857.26401
-856.35549
-856.81374
-856.87382
-856.86738
-856.84008
-856.77357
-856.77711
-856.95508
-857.04754
-857.33617
-856.43846
-856.81677
-856.87469
-856.87072
-856.84381
-856.77711
-856.78233
-856.98123
-857.0471
-857.3412
-856.79242
-857.00582
-857.04451
-857.0415
-857.01631
-856.95508
-856.98123
-857.2287
-928.95162
-930.69518
-928.30138
-929.17775
-929.30132
-929.29731
-929.28146
-929.26174
-929.28874
-929.02861
-930.69518
-929.20566
-928.56602
-929.31807
-929.40245
-929.38356
-929.34118
-929.30538
-929.64539
-929.62248
-928.30138
-928.56602
-927.6134
-928.30539
-928.38343
-928.36147
-928.29596
-928.17572
-928.47994
-928.92423
-929.17775
-929.31807
-928.30539
-928.98846
-929.06645
-929.04592
-928.97658
-928.81746
-928.99668
-929.19592
-929.30132
-929.40245
-928.38343
-929.06645
-929.14528
-929.12629
-929.06005
-928.90336
-929.07873
-929.24508
-929.29731
-929.38356
-928.36147
-929.04592
-929.12629
-929.10805
-929.04301
-928.88873
-929.06769
-929.23407
-929.28146
-929.34118
-928.29596
-928.97658
-929.06005
-929.04301
-928.97794
-928.82354
-929.00282
-929.17339
-929.26174
-929.30538
-928.17572
-928.81746
-928.90336
-928.88873
-928.82354
-928.66829
-928.84794
-929.04142
-929.28874
-929.64539
-928.47994
-928.99668
-929.07873
-929.06769
-929.00282
-928.84794
-929.03728
-929.32892
-929.02861
-929.62248
-928.92423
-929.19592
-929.24508
-929.23407
-929.17339
-929.04142
-929.32892
-929.41202
-996.16023
-998.2534
-995.39721
-996.49025
-996.64427
-996.63568
-996.60431
-996.56879
-996.73712
-996.39403
-998.2534
-996.51044
-995.74353
-996.68316
-996.78898
-996.75805
-996.67574
-996.57438
-997.22116
-997.19757
-995.39721
-995.74353
-994.60018
-995.4676
-995.56619
-995.53224
-995.4186
-995.19008
-995.77949
-996.35912
-996.49025
-996.68316
-995.4676
-996.3242
-996.42292
-996.39143
-996.27348
-995.9914
-996.41498
-996.68382
-996.64427
-996.78898
-995.56619
-996.42292
-996.52277
-996.49348
-996.37994
-996.10071
-996.51821
-996.74238
-996.63568
-996.75805
-995.53224
-996.39143
-996.49348
-996.46523
-996.3533
-996.07704
-996.49871
-996.72142
-996.60431
-996.67574
-995.4186
-996.27348
-996.37994
-996.3533
-996.24117
-995.96427
-996.38551
-996.61455
-996.56879
-996.57438
-995.19008
-995.9914
-996.10071
-996.07704
-995.96427
-995.68544
-996.10784
-996.38879
-996.73712
-997.22116
-995.77949
-996.41498
-996.51821
-996.49871
-996.38551
-996.10784
-996.56041
-997.12593
-996.39403
-997.19757
-996.35912
-996.68382
-996.74238
-996.72142
-996.61455
-996.38879
-997.12593
-996.85576
-1058.4723
-1060.8819
-1057.574
-1058.8705
-1059.0532
-1059.0391
-1058.9862
-1058.9105
-1059.1813
-1058.7656
-1060.8819
-1058.8934
-1057.9952
-1059.1112
-1059.2374
-1059.1945
-1059.0679
-1058.8776
-1059.7953
-1059.7565
-1057.574
-1057.9952
-1056.6605
-1057.6929
-1057.811
-1057.7654
-1057.6001
-1057.242
-1058.0884
-1058.7846
-1058.8705
-1059.1112
-1057.6929
-1058.7126
-1058.8311
-1058.7889
-1058.6187
-1058.1924
-1058.8344
-1059.1593
-1059.0532
-1059.2374
-1057.811
-1058.8311
-1058.9509
-1058.9116
-1058.7471
-1058.3238
-1058.9573
-1059.2267
-1059.0391
-1059.1945
-1057.7654
-1058.7889
-1058.9116
-1058.8735
-1058.711
-1058.2911
-1058.929
-1059.195
-1058.9862
-1059.0679
-1057.6001
-1058.6187
-1058.7471
-1058.711
-1058.548
-1058.1265
-1058.7621
-1059.035
-1058.9105
-1058.8776
-1057.242
-1058.1924
-1058.3238
-1058.2911
-1058.1265
-1057.7006
-1058.3353
-1058.6906
-1059.1813
-1059.7953
-1058.0884
-1058.8344
-1058.9573
-1058.929
-1058.7621
-1058.3353
-1059.0191
-1059.9075
-1058.7656
-1059.7565
-1058.7846
-1059.1593
-1059.2267
-1059.195
-1059.035
-1058.6906
-1059.9075
-1059.2703
-1115.5424
-1118.2411
-1114.5122
-1116.002
-1116.2119
-1116.1925
-1116.1177
-1115.9971
-1116.355
-1115.8694
-1118.2411
-1116.0235
-1115.0051
-1116.2885
-1116.4341
-1116.3798
-1116.2096
-1115.9261
-1117.0938
-1117.0374
-1114.5122
-1115.0051
-1113.4931
-1114.682
-1114.8188
-1114.7621
-1114.546
-1114.0553
-1115.1391
-1115.9412
-1116.002
-1116.2885
-1114.682
-1115.8565
-1115.9938
-1115.9416
-1115.7201
-1115.1468
-1115.9896
-1116.3631
-1116.2119
-1116.4341
-1114.8188
-1115.9938
-1116.1328
-1116.084
-1115.8694
-1115.2991
-1116.1311
-1116.4391
-1116.1925
-1116.3798
-1114.7621
-1115.9416
-1116.084
-1116.0369
-1115.8246
-1115.258
-1116.0944
-1116.3969
-1116.1177
-1116.2096
-1114.546
-1115.7201
-1115.8694
-1115.8246
-1115.6115
-1115.0421
-1115.874
-1116.1826
-1115.9971
-1115.9261
-1114.0553
-1115.1468
-1115.2991
-1115.258
-1115.0421
-1114.4653
-1115.2923
-1115.7121
-1116.355
-1117.0938
-1115.1391
-1115.9896
-1116.1311
-1116.0944
-1115.874
-1115.2923
-1116.1836
-1117.3981
-1115.8694
-1117.0374
-1115.9412
-1116.3631
-1116.4391
-1116.3969
-1116.1826
-1115.7121
-1117.3981
-1116.4065
-1167.1394
-1170.1066
-1165.992
-1167.6645
-1167.9
-1167.8756
-1167.7795
-1167.6136
-1168.05
-1167.4968
-1170.1066
-1167.6836
-1166.5586
-1168
-1168.1639
-1168.0987
-1167.886
-1167.5093
-1168.9088
-1168.8331
-1165.992
-1166.5586
-1164.8861
-1166.2227
-1166.3771
-1166.31
-1166.0447
-1165.4227
-1166.7256
-1167.6226
-1167.6645
-1168
-1166.2227
-1167.5434
-1167.6984
-1167.6367
-1167.3656
-1166.6473
-1167.6744
-1168.0889
-1167.9
-1168.1639
-1166.3771
-1167.6984
-1167.8554
-1167.7978
-1167.5346
-1166.8195
-1167.8335
-1168.173
-1167.8756
-1168.0987
-1166.31
-1167.6367
-1167.7978
-1167.7421
-1167.4816
-1166.7704
-1167.7889
-1168.1206
-1167.7795
-1167.886
-1166.0447
-1167.3656
-1167.5346
-1167.4816
-1167.22
-1166.5049
-1167.5163
-1167.8529
-1167.6136
-1167.5093
-1165.4227
-1166.6473
-1166.8195
-1166.7704
-1166.5049
-1165.7791
-1166.7808
-1167.2557
-1168.05
-1168.9088
-1166.7256
-1167.6744
-1167.8335
-1167.7889
-1167.5163
-1166.7808
-1167.8602
-1169.389
-1167.4968
-1168.8331
-1167.6226
-1168.0889
-1168.173
-1168.1206
-1167.8529
-1167.2557
-1169.389
-1168.0584
-1213.0994
-1216.3149
-1211.8516
-1213.6949
-1213.9543
-1213.925
-1213.8082
-1213.5973
-1214.1048
-1213.486
-1216.3149
-1213.7119
-1212.4941
-1214.0832
-1214.264
-1214.1884
-1213.9345
-1213.4659
-1215.0784
-1214.9807
-1211.8516
-1212.4941
-1210.6783
-1212.153
-1212.3238
-1212.2467
-1211.934
-1211.1839
-1212.6871
-1213.6668
-1213.6949
-1214.0832
-1212.153
-1213.6103
-1213.7819
-1213.7112
-1213.3923
-1212.5329
-1213.7276
-1214.1742
-1213.9543
-1214.264
-1212.3238
-1213.7819
-1213.9557
-1213.8896
-1213.5798
-1212.7237
-1213.9033
-1214.2658
-1213.925
-1214.1884
-1212.2467
-1213.7112
-1213.8896
-1213.8257
-1213.519
-1212.6671
-1213.8512
-1214.2038
-1213.8082
-1213.9345
-1211.934
-1213.3923
-1213.5798
-1213.519
-1213.2108
-1212.3538
-1213.5283
-1213.8841
-1213.5973
-1213.4659
-1211.1839
-1212.5329
-1212.7237
-1212.6671
-1212.3538
-1211.4828
-1212.6425
-1213.1621
-1214.1048
-1215.0784
-1212.6871
-1213.7276
-1213.9033
-1213.8512
-1213.5283
-1212.6425
-1213.8914
-1215.7169
-1213.486
-1214.9807
-1213.6668
-1214.1742
-1214.2658
-1214.2038
-1213.8841
-1213.1621
-1215.7169
-1214.0636
-1253.3017
-1256.7445
-1251.9705
-1253.9719
-1254.2533
-1254.2191
-1254.0823
-1253.8272
-1254.3983
-1253.7159
-1256.7445
-1253.9875
-1252.6905
-1254.4159
-1254.6122
-1254.5266
-1254.2332
-1253.6747
-1255.4812
-1255.3587
-1251.9705
-1252.6905
-1250.7489
-1252.3512
-1252.537
-1252.4504
-1252.0923
-1251.2184
-1252.9027
-1253.9522
-1253.9719
-1254.4159
-1252.3512
-1253.9346
-1254.1215
-1254.0422
-1253.6777
-1252.6824
-1254.0279
-1254.4974
-1254.2533
-1254.6122
-1252.537
-1254.1215
-1254.3108
-1254.2367
-1253.8823
-1252.8903
-1254.2189
-1254.5959
-1254.2191
-1254.5266
-1252.4504
-1254.0422
-1254.2367
-1254.165
-1253.8141
-1252.8265
-1254.1595
-1254.5246
-1254.0823
-1254.2332
-1252.0923
-1253.6777
-1253.8823
-1253.8141
-1253.4614
-1252.4677
-1253.7885
-1254.1549
-1253.8272
-1253.6747
-1251.2184
-1252.6824
-1252.8903
-1252.8265
-1252.4677
-1251.4566
-1252.7574
-1253.3116
-1254.3983
-1255.4812
-1252.9027
-1254.0279
-1254.2189
-1254.1595
-1253.7885
-1252.7574
-1254.1579
-1256.2597
-1253.7159
-1255.3587
-1253.9522
-1254.4974
-1254.5959
-1254.5246
-1254.1549
-1253.3116
-1256.2597
-1254.3009
-1287.6645
-1291.3126
-1286.2666
-1288.4123
-1288.7136
-1288.6748
-1288.5187
-1288.2205
-1288.8478
-1288.1043
-1291.3126
-1288.4277
-1287.0646
-1288.9144
-1289.1248
-1289.0297
-1288.6985
-1288.053
-1290.0339
-1289.8839
-1286.2666
-1287.0646
-1285.0146
-1286.7333
-1286.9328
-1286.8373
-1286.4362
-1285.4436
-1287.2897
-1288.396
-1288.4123
-1288.9144
-1286.7333
-1288.4319
-1288.6326
-1288.5452
-1288.1376
-1287.0125
-1288.4918
-1288.9753
-1288.7136
-1289.1248
-1286.9328
-1288.6326
-1288.8359
-1288.7543
-1288.3578
-1287.2361
-1288.6968
-1289.08
-1288.6748
-1289.0297
-1286.8373
-1288.5452
-1288.7543
-1288.6754
-1288.2826
-1287.1656
-1288.6307
-1288.9999
-1288.5187
-1288.6985
-1286.4362
-1288.1376
-1288.3578
-1288.2826
-1287.8878
-1286.7636
-1288.214
-1288.5827
-1288.2205
-1288.053
-1285.4436
-1287.0125
-1287.2361
-1287.1656
-1286.7636
-1285.6185
-1287.0438
-1287.6226
-1288.8478
-1290.0339
-1287.2897
-1288.4918
-1288.6968
-1288.6307
-1288.214
-1287.0438
-1288.5779
-1290.9342
-1288.1043
-1289.8839
-1288.396
-1288.9753
-1289.08
-1288.9999
-1288.5827
-1287.6226
-1290.9342
-1288.6881
-1316.1418
-1319.9727
-1314.6939
-1316.9692
-1317.2883
-1317.245
-1317.0706
-1316.7309
-1317.4069
-1316.6052
-1319.9727
-1316.9858
-1315.5696
-1317.531
-1317.7539
-1317.6499
-1317.283
-1316.554
-1318.6896
-1318.5096
-1314.6939
-1315.5696
-1313.4285
-1315.2517
-1315.4634
-1315.3595
-1314.9182
-1313.813
-1315.8014
-1316.9516
-1316.9692
-1317.531
-1315.2517
-1317.0537
-1317.2667
-1317.1719
-1316.7238
-1315.476
-1317.0724
-1317.5612
-1317.2883
-1317.7539
-1315.4634
-1317.2667
-1317.4826
-1317.394
-1316.9581
-1315.7137
-1317.29
-1317.6715
-1317.245
-1317.6499
-1315.3595
-1317.1719
-1317.394
-1317.3084
-1316.8764
-1315.637
-1317.2175
-1317.5831
-1317.0706
-1317.283
-1314.9182
-1316.7238
-1316.9581
-1316.8764
-1316.4422
-1315.1944
-1316.758
-1317.1209
-1316.7309
-1316.554
-1313.813
-1315.476
-1315.7137
-1315.637
-1315.1944
-1313.9227
-1315.4557
-1316.0494
-1317.4069
-1318.6896
-1315.8014
-1317.0724
-1317.29
-1317.2175
-1316.758
-1315.4557
-1317.1056
-1319.6935
-1316.6052
-1318.5096
-1316.9516
-1317.5612
-1317.6715
-1317.5831
-1317.1209
-1316.0494
-1319.6935
-1317.1795
-1338.7217
-1342.7121
-1337.2399
-1339.6296
-1339.9643
-1339.9166
-1339.7249
-1339.3455
-1340.063
-1339.2063
-1342.7121
-1339.6492
-1338.1922
-1340.2518
-1340.4856
-1340.3732
-1339.9731
-1339.1648
-1341.4351
-1341.2229
-1337.2399
-1338.1922
-1335.977
-1337.8923
-1338.1147
-1338.0031
-1337.5243
-1336.3135
-1338.4247
-1339.6064
-1339.6296
-1340.2518
-1337.8923
-1339.7854
-1340.0092
-1339.9075
-1339.4221
-1338.0595
-1339.7562
-1340.2422
-1339.9643
-1340.4856
-1338.1147
-1340.0092
-1340.2361
-1340.1411
-1339.6687
-1338.3096
-1339.9849
-1340.3572
-1339.9166
-1340.3732
-1338.0031
-1339.9075
-1340.1411
-1340.0493
-1339.5811
-1338.2271
-1339.9066
-1340.2612
-1339.7249
-1339.9731
-1337.5243
-1339.4221
-1339.6687
-1339.5811
-1339.1104
-1337.7471
-1339.4072
-1339.757
-1339.3455
-1339.1648
-1336.3135
-1338.0595
-1338.3096
-1338.2271
-1337.7471
-1336.3568
-1337.9812
-1338.5806
-1340.063
-1341.4351
-1338.4247
-1339.7562
-1339.9849
-1339.9066
-1339.4072
-1337.9812
-1339.7292
-1342.5249
-1339.2063
-1341.2229
-1339.6064
-1340.2422
-1340.3572
-1340.2612
-1339.757
-1338.5806
-1342.5249
-1339.7634
-1355.424
-1359.5501
-1353.9237
-1356.4118
-1356.7597
-1356.7081
-1356.5004
-1356.0834
-1356.8351
-1355.9272
-1359.5501
-1356.4363
-1354.9503
-1357.0943
-1357.3373
-1357.2174
-1356.7865
-1355.9039
-1358.2889
-1358.0428
-1353.9237
-1354.9503
-1352.6778
-1354.6723
-1354.9038
-1354.7853
-1354.2723
-1352.9634
-1355.1783
-1356.3791
-1356.4118
-1357.0943
-1354.6723
-1356.6437
-1356.8768
-1356.769
-1356.2494
-1354.7808
-1356.5613
-1357.037
-1356.7597
-1357.3373
-1354.9038
-1356.8768
-1357.1131
-1357.0124
-1356.5067
-1355.0417
-1356.7996
-1357.1561
-1356.7081
-1357.2174
-1354.7853
-1356.769
-1357.0124
-1356.915
-1356.4137
-1354.954
-1356.7161
-1357.0529
-1356.5004
-1356.7865
-1354.2723
-1356.2494
-1356.5067
-1356.4137
-1355.9097
-1354.4397
-1356.1801
-1356.5101
-1356.0834
-1355.9039
-1352.9634
-1354.7808
-1355.0417
-1354.954
-1354.4397
-1352.9396
-1354.6394
-1355.2358
-1356.8351
-1358.2889
-1355.1783
-1356.5613
-1356.7996
-1356.7161
-1356.1801
-1354.6394
-1356.4683
-1359.4474
-1355.9272
-1358.0428
-1356.3791
-1357.037
-1357.1561
-1357.0529
-1356.5101
-1355.2358
-1359.4474
-1356.4597
-1366.2975
-1370.535
-1364.7937
-1367.3636
-1367.7225
-1367.6671
-1367.4447
-1366.9926
-1367.7715
-1366.8166
-1370.535
-1367.395
-1365.8913
-1368.1054
-1368.3561
-1368.2293
-1367.7705
-1366.8189
-1369.2988
-1369.0176
-1364.7937
-1365.8913
-1363.5779
-1365.6382
-1365.8773
-1365.7526
-1365.2089
-1363.8104
-1366.1098
-1367.318
-1367.3636
-1368.1054
-1365.6382
-1367.6749
-1367.9157
-1367.8024
-1367.2522
-1365.687
-1367.5354
-1367.9937
-1367.7225
-1368.3561
-1365.8773
-1367.9157
-1368.1598
-1368.054
-1367.5184
-1365.9569
-1367.7817
-1368.116
-1367.6671
-1368.2293
-1365.7526
-1367.8024
-1368.054
-1367.9516
-1367.4207
-1365.8646
-1367.6934
-1368.0066
-1367.4447
-1367.7705
-1365.2089
-1367.2522
-1367.5184
-1367.4207
-1366.8867
-1365.3194
-1367.1245
-1367.4285
-1366.9926
-1366.8189
-1363.8104
-1365.687
-1365.9569
-1365.8646
-1365.3194
-1363.7194
-1365.4789
-1366.0642
-1367.7715
-1369.2988
-1366.1098
-1367.5354
-1367.7817
-1367.6934
-1367.1245
-1365.4789
-1367.3718
-1370.5094
-1366.8166
-1369.0176
-1367.318
-1367.9937
-1368.116
-1368.0066
-1367.4285
-1366.0642
-1370.5094
-1367.3179
-1371.4187
-1375.7429
-1369.9252
-1372.5602
-1372.9275
-1372.8688
-1372.633
-1372.1487
-1372.948
-1371.9505
-1375.7429
-1372.6003
-1371.0896
-1373.3593
-1373.6159
-1373.4831
-1372.9994
-1371.9848
-1374.54
-1374.2228
-1369.9252
-1371.0896
-1368.7513
-1370.864
-1371.1089
-1370.9789
-1370.408
-1368.9289
-1371.2942
-1372.4987
-1372.5602
-1373.3593
-1370.864
-1372.9524
-1373.1992
-1373.0812
-1372.504
-1370.8525
-1372.7531
-1373.1878
-1372.9275
-1373.6159
-1371.1089
-1373.1992
-1373.4495
-1373.3393
-1372.7774
-1371.1296
-1373.0058
-1373.3126
-1372.8688
-1373.4831
-1370.9789
-1373.0812
-1373.3393
-1373.2327
-1372.6756
-1371.0333
-1372.9133
-1373.1975
-1372.633
-1372.9994
-1370.408
-1372.504
-1372.7774
-1372.6756
-1372.1153
-1370.461
-1372.3153
-1372.5881
-1372.1487
-1371.9848
-1368.9289
-1370.8525
-1371.1296
-1371.0333
-1370.461
-1368.7713
-1370.5753
-1371.1423
-1372.948
-1374.54
-1371.2942
-1372.7531
-1373.0058
-1372.9133
-1372.3153
-1370.5753
-1372.5161
-1375.7872
-1371.9505
-1374.2228
-1372.4987
-1373.1878
-1373.3126
-1373.1975
-1372.5881
-1371.1423
-1375.7872
-1372.4146
-1370.8892
-1375.275
-1369.419
-1372.1019
-1372.4753
-1372.4135
-1372.166
-1371.6524
-1372.4656
-1371.4305
-1375.275
-1372.1526
-1370.6451
-1372.9556
-1373.2163
-1373.0784
-1372.5729
-1371.5017
-1374.113
-1373.7598
-1369.419
-1370.6451
-1368.2973
-1370.4485
-1370.6978
-1370.5632
-1369.969
-1368.4187
-1370.8318
-1372.0222
-1372.1019
-1372.9556
-1370.4485
-1372.575
-1372.8263
-1372.7044
-1372.104
-1370.3769
-1372.3146
-1372.7203
-1372.4753
-1373.2163
-1370.6978
-1372.8263
-1373.0812
-1372.9673
-1372.3827
-1370.6594
-1372.5721
-1372.8467
-1372.4135
-1373.0784
-1370.5632
-1372.7044
-1372.9673
-1372.8571
-1372.2776
-1370.5598
-1372.4761
-1372.7268
-1372.166
-1372.5729
-1369.969
-1372.104
-1372.3827
-1372.2776
-1371.6946
-1369.964
-1371.8528
-1372.09
-1371.6524
-1371.5017
-1368.4187
-1370.3769
-1370.6594
-1370.5598
-1369.964
-1368.1956
-1370.0298
-1370.5718
-1372.4656
-1374.113
-1370.8318
-1372.3146
-1372.5721
-1372.4761
-1371.8528
-1370.0298
-1372.0027
-1375.3822
-1371.4305
-1373.7598
-1372.0222
-1372.7203
-1372.8467
-1372.7268
-1372.09
-1370.5718
-1375.3822
-1371.8522
-1364.8343
-1369.2564
-1363.3993
-1366.1128
-1366.4899
-1366.4255
-1366.1679
-1365.6282
-1366.4489
-1365.3818
-1369.2564
-1366.176
-1364.681
-1367.0174
-1367.2806
-1367.1385
-1366.6146
-1365.4937
-1368.1423
-1367.7532
-1363.3993
-1364.681
-1362.3386
-1364.5144
-1364.7664
-1364.6283
-1364.0145
-1362.4033
-1364.8466
-1366.013
-1366.1128
-1367.0174
-1364.5144
-1366.6655
-1366.9195
-1366.7945
-1366.1749
-1364.3833
-1366.3437
-1366.7157
-1366.4899
-1367.2806
-1364.7664
-1366.9195
-1367.1772
-1367.0604
-1366.4572
-1364.6695
-1366.6043
-1366.843
-1366.4255
-1367.1385
-1364.6283
-1366.7945
-1367.0604
-1366.9475
-1366.3493
-1364.5671
-1366.5055
-1366.7189
-1366.1679
-1366.6146
-1364.0145
-1366.1749
-1366.4572
-1366.3493
-1365.7475
-1363.9519
-1365.861
-1366.0589
-1365.6282
-1365.4937
-1362.4033
-1364.3833
-1364.6695
-1364.5671
-1363.9519
-1362.1163
-1363.9667
-1364.478
-1366.4489
-1368.1423
-1364.8466
-1366.3437
-1366.6043
-1366.5055
-1365.861
-1363.9667
-1365.9568
-1369.4199
-1365.3818
-1367.7532
-1366.013
-1366.7157
-1366.843
-1366.7189
-1366.0589
-1364.478
-1369.4199
-1365.7564
-1353.4013
-1357.8343
-1352.0123
-1354.7391
-1355.1175
-1355.0509
-1354.7848
-1354.2225
-1355.0449
-1353.9513
-1357.8343
-1354.8162
-1353.3427
-1355.6901
-1355.9541
-1355.8086
-1355.2697
-1354.1063
-1356.774
-1356.3501
-1352.0123
-1353.3427
-1351.0199
-1353.2065
-1353.4596
-1353.3188
-1352.6895
-1351.0277
-1353.4843
-1354.618
-1354.7391
-1355.6901
-1353.2065
-1355.3683
-1355.6235
-1355.4962
-1354.8615
-1353.0171
-1354.9862
-1355.3207
-1355.1175
-1355.9541
-1353.4596
-1355.6235
-1355.8824
-1355.7635
-1355.1455
-1353.305
-1355.2483
-1355.448
-1355.0509
-1355.8086
-1353.3188
-1355.4962
-1355.7635
-1355.6485
-1355.0356
-1353.2007
-1355.1473
-1355.3207
-1354.7848
-1355.2697
-1352.6895
-1354.8615
-1355.1455
-1355.0356
-1354.4189
-1352.5699
-1354.4859
-1354.6417
-1354.2225
-1354.1063
-1351.0277
-1353.0171
-1353.305
-1353.2007
-1352.5699
-1350.6791
-1352.5325
-1353.0083
-1355.0449
-1356.774
-1353.4843
-1354.9862
-1355.2483
-1355.1473
-1354.4859
-1352.5325
-1354.5256
-1358.0477
-1353.9513
-1356.3501
-1354.618
-1355.3207
-1355.448
-1355.3207
-1354.6417
-1353.0083
-1358.0477
-1354.2751
-1336.7579
-1341.1765
-1335.4247
-1338.1475
-1338.5247
-1338.4564
-1338.1835
-1337.6023
-1338.4206
-1337.3067
-1341.1765
-1338.2397
-1336.7959
-1339.1394
-1339.4026
-1339.2548
-1338.7043
-1337.5061
-1340.1752
-1339.718
-1335.4247
-1336.7959
-1334.5063
-1336.6899
-1336.9424
-1336.7999
-1336.1592
-1334.4577
-1336.9113
-1338.0042
-1338.1475
-1339.1394
-1336.6899
-1338.8487
-1339.1036
-1338.9747
-1338.3291
-1336.4438
-1338.4086
-1338.7025
-1338.5247
-1339.4026
-1336.9424
-1339.1036
-1339.3621
-1339.2418
-1338.613
-1336.7317
-1338.6705
-1338.8291
-1338.4564
-1339.2548
-1336.7999
-1338.9747
-1339.2418
-1339.1255
-1338.5019
-1336.626
-1338.5679
-1338.6994
-1338.1835
-1338.7043
-1336.1592
-1338.3291
-1338.613
-1338.5019
-1337.8744
-1335.9839
-1337.8939
-1338.0058
-1337.6023
-1337.5061
-1334.4577
-1336.4438
-1336.7317
-1336.626
-1335.9839
-1334.0501
-1335.8941
-1336.3303
-1338.4206
-1340.1752
-1336.9113
-1338.4086
-1338.6705
-1338.5679
-1337.8939
-1335.8941
-1337.8768
-1341.4339
-1337.3067
-1339.718
-1338.0042
-1338.7025
-1338.8291
-1338.6994
-1338.0058
-1336.3303
-1341.4339
-1337.5769
-1315.091
-1319.4698
-1313.8219
-1316.5236
-1316.8974
-1316.8278
-1316.5499
-1315.9536
-1316.7625
-1315.6347
-1319.4698
-1316.632
-1315.2254
-1317.5504
-1317.8112
-1317.662
-1317.1035
-1315.8782
-1318.5319
-1318.0434
-1313.8219
-1315.2254
-1312.982
-1315.1489
-1315.3994
-1315.256
-1314.6081
-1312.8778
-1315.313
-1316.3581
-1316.5236
-1317.5504
-1315.1489
-1317.2913
-1317.5441
-1317.4147
-1316.7622
-1314.8483
-1316.7963
-1317.0476
-1316.8974
-1317.8112
-1315.3994
-1317.5441
-1317.8006
-1317.6798
-1317.0443
-1315.1344
-1317.0564
-1317.1727
-1316.8278
-1317.662
-1315.256
-1317.4147
-1317.6798
-1317.5629
-1316.9327
-1315.0281
-1316.9529
-1317.0414
-1316.5499
-1317.1035
-1314.6081
-1316.7622
-1317.0443
-1316.9327
-1316.2984
-1314.3788
-1316.2707
-1316.3377
-1315.9536
-1315.8782
-1312.8778
-1314.8483
-1315.1344
-1315.0281
-1314.3788
-1312.4144
-1314.2374
-1314.6309
-1316.7625
-1318.5319
-1315.313
-1316.7963
-1317.0564
-1316.9529
-1316.2707
-1314.2374
-1316.197
-1319.7658
-1315.6347
-1318.0434
-1316.3581
-1317.0476
-1317.1727
-1317.0414
-1316.3377
-1314.6309
-1319.7658
-1315.8491
-1288.6051
-1292.919
-1287.4075
-1290.0713
-1290.4394
-1290.369
-1290.0879
-1289.4803
-1290.2749
-1289.1398
-1292.919
-1290.1965
-1288.834
-1291.1261
-1291.3829
-1291.2333
-1290.6705
-1289.4261
-1292.0481
-1291.5311
-1287.4075
-1288.834
-1286.649
-1288.7858
-1289.0327
-1288.8895
-1288.2385
-1286.4907
-1288.8928
-1289.8837
-1290.0713
-1291.1261
-1288.7858
-1290.8985
-1291.1478
-1291.0186
-1290.3634
-1288.4332
-1290.3528
-1290.5602
-1290.4394
-1291.3829
-1289.0327
-1291.1478
-1291.4007
-1291.2802
-1290.642
-1288.7157
-1290.6094
-1290.683
-1290.369
-1291.2333
-1288.8895
-1291.0186
-1291.2802
-1291.1635
-1290.5306
-1288.6095
-1290.5059
-1290.551
-1290.0879
-1290.6705
-1288.2385
-1290.3634
-1290.642
-1290.5306
-1289.8936
-1287.9572
-1289.8197
-1289.8417
-1289.4803
-1289.4261
-1286.4907
-1288.4332
-1288.7157
-1288.6095
-1287.9572
-1285.9748
-1287.766
-1288.1145
-1290.2749
-1292.0481
-1288.8928
-1290.3528
-1290.6094
-1290.5059
-1289.8197
-1287.766
-1289.6909
-1293.2487
-1289.1398
-1291.5311
-1289.8837
-1290.5602
-1290.683
-1290.551
-1289.8417
-1288.1145
-1293.2487
-1289.2971
-1257.5214
-1261.7458
-1256.4015
-1259.0109
-1259.3709
-1259.3002
-1259.0178
-1258.4029
-1259.1786
-1258.0432
-1261.7458
-1259.1532
-1257.8412
-1260.0862
-1260.3374
-1260.1884
-1259.625
-1258.3697
-1260.9446
-1260.4023
-1256.4015
-1257.8412
-1255.726
-1257.8195
-1258.0614
-1257.9192
-1257.2693
-1255.5152
-1257.8705
-1258.802
-1259.0109
-1260.0862
-1257.8195
-1259.8895
-1260.1338
-1260.0057
-1259.3521
-1257.4179
-1259.2982
-1259.4612
-1259.3709
-1260.3374
-1258.0614
-1260.1338
-1260.3817
-1260.2622
-1259.6254
-1257.6951
-1259.5499
-1259.581
-1259.3002
-1260.1884
-1257.9192
-1260.0057
-1260.2622
-1260.1465
-1259.515
-1257.5897
-1259.4468
-1259.4492
-1259.0178
-1259.625
-1257.2693
-1259.3521
-1259.6254
-1259.515
-1258.8793
-1256.9385
-1258.7612
-1258.7388
-1258.4029
-1258.3697
-1255.5152
-1257.4179
-1257.6951
-1257.5897
-1256.9385
-1254.951
-1256.7002
-1257.0025
-1259.1786
-1260.9446
-1257.8705
-1259.2982
-1259.5499
-1259.4468
-1258.7612
-1256.7002
-1258.5795
-1262.1046
-1258.0432
-1260.4023
-1258.802
-1259.4612
-1259.581
-1259.4492
-1258.7388
-1257.0025
-1262.1046
-1258.1429
-1222.0766
-1226.1873
-1221.0393
-1223.5783
-1223.9282
-1223.8576
-1223.5757
-1222.9576
-1223.7102
-1222.5814
-1226.1873
-1223.7377
-1222.4817
-1224.6661
-1224.9103
-1224.7628
-1224.2023
-1222.9444
-1225.4577
-1224.8939
-1221.0393
-1222.4817
-1220.447
-1222.4846
-1222.7201
-1222.5798
-1221.9352
-1220.1861
-1222.4816
-1223.3494
-1223.5783
-1224.6661
-1222.4846
-1224.4994
-1224.7372
-1224.611
-1223.9631
-1222.0373
-1223.8683
-1223.9873
-1223.9282
-1224.9103
-1222.7201
-1224.7372
-1224.9786
-1224.8608
-1224.2296
-1222.3076
-1224.1135
-1224.1033
-1223.8576
-1224.7628
-1222.5798
-1224.611
-1224.8608
-1224.7469
-1224.1208
-1222.2036
-1224.0116
-1223.9725
-1223.5757
-1224.2023
-1221.9352
-1223.9631
-1224.2296
-1224.1208
-1223.4905
-1221.5577
-1223.3308
-1223.2656
-1222.9576
-1222.9444
-1220.1861
-1222.0373
-1222.3076
-1222.2036
-1221.5577
-1219.5778
-1221.2759
-1221.5313
-1223.7102
-1225.4577
-1222.4816
-1223.8683
-1224.1135
-1224.0116
-1223.3308
-1221.2759
-1223.0995
-1226.5713
-1222.5814
-1224.8939
-1223.3494
-1223.9873
-1224.1033
-1223.9725
-1223.2656
-1221.5313
-1226.5713
-1222.6239
-1182.5218
-1186.495
-1181.5707
-1184.0238
-1184.3615
-1184.2916
-1184.012
-1183.3948
-1184.1204
-1183.0056
-1186.495
-1184.2001
-1183.0051
-1185.1156
-1185.3514
-1185.2065
-1184.6526
-1183.4001
-1185.8384
-1185.2572
-1181.5707
-1183.0051
-1181.0609
-1183.0302
-1183.2578
-1183.1205
-1182.4851
-1180.7524
-1182.976
-1183.7768
-1184.0238
-1185.1156
-1183.0302
-1184.9776
-1185.2076
-1185.0841
-1184.4459
-1182.5409
-1184.3133
-1184.3895
-1184.3615
-1185.3514
-1183.2578
-1185.2076
-1185.441
-1185.3258
-1184.704
-1182.8026
-1184.5505
-1184.501
-1184.2916
-1185.2065
-1183.1205
-1185.0841
-1185.3258
-1185.2143
-1184.5976
-1182.7008
-1184.4505
-1184.372
-1184.012
-1184.6526
-1182.4851
-1184.4459
-1184.704
-1184.5976
-1183.9766
-1182.0642
-1183.7789
-1183.6731
-1183.3948
-1183.4001
-1180.7524
-1182.5409
-1182.8026
-1182.7008
-1182.0642
-1180.1045
-1181.743
-1181.952
-1184.1204
-1185.8384
-1182.976
-1184.3133
-1184.5505
-1184.4505
-1183.7789
-1181.743
-1183.502
-1186.9007
-1183.0056
-1185.2572
-1183.7768
-1184.3895
-1184.501
-1184.372
-1183.6731
-1181.952
-1186.9007
-1182.9918
-1139.1212
-1142.934
-1138.259
-1140.6115
-1140.935
-1140.8662
-1140.5908
-1139.9785
-1140.6737
-1139.58
-1142.934
-1140.8038
-1139.6743
-1141.6983
-1141.9244
-1141.783
-1141.2391
-1140.0005
-1142.3508
-1141.757
-1138.259
-1139.6743
-1137.8295
-1139.7189
-1139.9374
-1139.8038
-1139.1818
-1137.4764
-1139.6172
-1140.3483
-1140.6115
-1141.6983
-1139.7189
-1141.5872
-1141.8081
-1141.6881
-1141.0637
-1139.1915
-1140.897
-1140.9321
-1140.935
-1141.9244
-1139.9374
-1141.8081
-1142.0322
-1141.9203
-1141.3119
-1139.4431
-1141.1248
-1141.0385
-1140.8662
-1141.783
-1139.8038
-1141.6881
-1141.9203
-1141.8121
-1141.2085
-1139.3441
-1141.0272
-1140.9121
-1140.5908
-1141.2391
-1139.1818
-1141.0637
-1141.3119
-1141.2085
-1140.6008
-1138.7209
-1140.369
-1140.2256
-1139.9785
-1140.0005
-1137.4764
-1139.1915
-1139.4431
-1139.3441
-1138.7209
-1136.7938
-1138.3652
-1138.5288
-1140.6737
-1142.3508
-1139.6172
-1140.897
-1141.1248
-1141.0272
-1140.369
-1138.3652
-1140.0513
-1143.3585
-1139.58
-1141.757
-1140.3483
-1140.9321
-1141.0385
-1140.9121
-1140.2256
-1138.5288
-1143.3585
-1139.5118
-1092.1516
-1095.782
-1091.3797
-1093.6176
-1093.925
-1093.8579
-1093.5883
-1092.985
-1093.6468
-1092.5815
-1095.782
-1093.8247
-1092.7646
-1094.6902
-1094.9052
-1094.7683
-1094.2379
-1093.0211
-1095.2719
-1094.6705
-1091.3797
-1092.7646
-1091.0275
-1092.8257
-1093.0339
-1092.9049
-1092.3001
-1090.633
-1092.6808
-1093.3407
-1093.6176
-1094.6902
-1092.8257
-1094.604
-1094.8145
-1094.6988
-1094.092
-1092.2645
-1093.8955
-1093.8921
-1093.925
-1094.9052
-1093.0339
-1094.8145
-1095.0281
-1094.9203
-1094.3289
-1092.5046
-1094.1126
-1093.9927
-1093.8579
-1094.7683
-1092.9049
-1094.6988
-1094.9203
-1094.8159
-1094.2293
-1092.4091
-1094.0181
-1093.8698
-1093.5883
-1094.2379
-1092.3001
-1094.092
-1094.3289
-1094.2293
-1093.6386
-1091.803
-1093.3773
-1093.2
-1092.985
-1093.0211
-1090.633
-1092.2645
-1092.5046
-1092.4091
-1091.803
-1089.9208
-1091.4184
-1091.5384
-1093.6468
-1095.2719
-1092.6808
-1093.8955
-1094.1126
-1094.0181
-1093.3773
-1091.4184
-1093.0244
-1096.2227
-1092.5815
-1094.6705
-1093.3407
-1093.8921
-1093.9927
-1093.8698
-1093.2
-1091.5384
-1096.2227
-1092.4614
-1041.901
-1045.3277
-1041.2199
-1043.3297
-1043.6194
-1043.5543
-1043.2924
-1042.7022
-1043.3277
-1042.2981
-1045.3277
-1043.5504
-1042.5627
-1044.3786
-1044.5815
-1044.4499
-1043.9364
-1042.7495
-1044.89
-1044.2864
-1041.2199
-1042.5627
-1040.9407
-1042.6373
-1042.834
-1042.7105
-1042.1267
-1040.5085
-1042.4542
-1043.042
-1043.3297
-1044.3786
-1042.6373
-1044.3152
-1044.5141
-1044.4035
-1043.8181
-1042.0468
-1043.5964
-1043.5577
-1043.6194
-1044.5815
-1042.834
-1044.5141
-1044.716
-1044.6129
-1044.0423
-1042.274
-1043.8015
-1043.652
-1043.5543
-1044.4499
-1042.7105
-1044.4035
-1044.6129
-1044.5131
-1043.947
-1042.1825
-1043.7107
-1043.5333
-1043.2924
-1043.9364
-1042.1267
-1043.8181
-1044.0423
-1043.947
-1043.377
-1041.5974
-1043.0915
-1042.8844
-1042.7022
-1042.7495
-1040.5085
-1042.0468
-1042.274
-1042.1825
-1041.5974
-1039.7719
-1041.1898
-1041.2687
-1043.3277
-1044.89
-1042.4542