/*--------------------------------*- C++ -*----------------------------------*\
| =========                 |                                                 |
| \\      /  F ield         | OpenFOAM: The Open Source CFD Toolbox           |
|  \\    /   O peration     | Version:  v2106                                 |
|   \\  /    A nd           | Website:  www.openfoam.com                      |
|    \\/     M anipulation  |                                                 |
\*---------------------------------------------------------------------------*/
FoamFile
{
    version     2.0;
    format      ascii;
    arch        "LSB;label=32;scalar=64";
    class       volScalarField;
    location    "27.5";
    object      T;
}
// * * * * * * * * * * * * * * * * * * * * * * * * * * * * * * * * * * * * * //

dimensions      [0 0 0 1 0 0 0];

internalField   nonuniform List<scalar> 
4000
(
275.50423
275.50424
275.50422
275.50422
275.50422
275.50422
275.50422
275.50423
275.50423
275.50423
275.50424
275.50422
275.50421
275.50422
275.50422
275.50422
275.50422
275.50422
275.50422
275.50423
275.50422
275.50421
275.5042
275.50421
275.50421
275.50421
275.50421
275.50421
275.50422
275.50422
275.50422
275.50422
275.50421
275.50421
275.50421
275.50421
275.50421
275.50421
275.50422
275.50422
275.50422
275.50422
275.50421
275.50421
275.50421
275.50421
275.50421
275.50422
275.50422
275.50422
275.50422
275.50422
275.50421
275.50421
275.50421
275.50421
275.50422
275.50422
275.50422
275.50422
275.50422
275.50422
275.50421
275.50421
275.50421
275.50422
275.50422
275.50422
275.50422
275.50422
275.50423
275.50422
275.50421
275.50421
275.50422
275.50422
275.50422
275.50422
275.50422
275.50422
275.50423
275.50422
275.50422
275.50422
275.50422
275.50422
275.50422
275.50422
275.50422
275.50422
275.50423
275.50423
275.50422
275.50422
275.50422
275.50422
275.50422
275.50422
275.50422
275.50423
285.28087
285.28088
285.28082
285.28082
285.28083
285.28084
285.28085
285.28086
285.28087
285.28087
285.28088
285.28085
285.28081
285.28081
285.28082
285.28083
285.28084
285.28085
285.28086
285.28087
285.28082
285.28081
285.28077
285.28078
285.28079
285.28079
285.2808
285.28081
285.28082
285.28084
285.28082
285.28081
285.28078
285.28079
285.2808
285.2808
285.28081
285.28081
285.28083
285.28084
285.28083
285.28082
285.28079
285.2808
285.28081
285.28081
285.28081
285.28082
285.28083
285.28084
285.28084
285.28083
285.28079
285.2808
285.28081
285.28082
285.28082
285.28082
285.28083
285.28085
285.28085
285.28084
285.2808
285.28081
285.28081
285.28082
285.28082
285.28082
285.28083
285.28085
285.28086
285.28085
285.28081
285.28081
285.28082
285.28082
285.28082
285.28083
285.28084
285.28085
285.28087
285.28086
285.28082
285.28083
285.28083
285.28083
285.28083
285.28084
285.28085
285.28086
285.28087
285.28087
285.28084
285.28084
285.28084
285.28085
285.28085
285.28085
285.28086
285.28088
294.97181
294.97182
294.97173
294.97173
294.97175
294.97176
294.97178
294.97179
294.97181
294.97181
294.97182
294.97176
294.9717
294.97172
294.97173
294.97174
294.97175
294.97177
294.9718
294.97182
294.97173
294.9717
294.97165
294.97166
294.97168
294.97169
294.9717
294.97171
294.97175
294.97178
294.97173
294.97172
294.97166
294.97168
294.9717
294.9717
294.97171
294.97172
294.97175
294.97177
294.97175
294.97173
294.97168
294.9717
294.97171
294.97172
294.97172
294.97173
294.97175
294.97178
294.97176
294.97174
294.97169
294.9717
294.97172
294.97172
294.97173
294.97173
294.97176
294.97178
294.97178
294.97175
294.9717
294.97171
294.97172
294.97173
294.97173
294.97173
294.97176
294.97178
294.97179
294.97177
294.97171
294.97172
294.97173
294.97173
294.97173
294.97174
294.97177
294.97179
294.97181
294.9718
294.97175
294.97175
294.97175
294.97176
294.97176
294.97177
294.97179
294.97182
294.97181
294.97182
294.97178
294.97177
294.97178
294.97178
294.97178
294.97179
294.97182
294.97184
304.56982
304.56984
304.56972
304.56974
304.56976
304.56978
304.56979
304.56982
304.56985
304.56985
304.56984
304.56977
304.5697
304.56971
304.56974
304.56975
304.56977
304.56979
304.56984
304.56986
304.56972
304.5697
304.56963
304.56965
304.56967
304.56969
304.5697
304.56971
304.56977
304.56981
304.56974
304.56971
304.56965
304.56967
304.56969
304.5697
304.56971
304.56972
304.56977
304.56981
304.56976
304.56974
304.56967
304.56969
304.56971
304.56972
304.56972
304.56973
304.56978
304.56981
304.56978
304.56975
304.56969
304.5697
304.56972
304.56973
304.56973
304.56974
304.56978
304.56981
304.56979
304.56977
304.5697
304.56971
304.56972
304.56973
304.56973
304.56974
304.56978
304.56981
304.56982
304.56979
304.56971
304.56972
304.56973
304.56974
304.56974
304.56975
304.56979
304.56983
304.56985
304.56984
304.56977
304.56977
304.56978
304.56978
304.56978
304.56979
304.56984
304.56988
304.56985
304.56986
304.56981
304.56981
304.56981
304.56981
304.56981
304.56983
304.56988
304.5699
314.0682
314.06822
314.06809
314.06811
314.06814
314.06816
314.06817
314.0682
314.06824
314.06825
314.06822
314.06814
314.06806
314.06808
314.06811
314.06813
314.06814
314.06817
314.06823
314.06826
314.06809
314.06806
314.06798
314.06801
314.06804
314.06805
314.06806
314.06808
314.06815
314.06821
314.06811
314.06808
314.06801
314.06804
314.06806
314.06807
314.06808
314.06809
314.06815
314.0682
314.06814
314.06811
314.06804
314.06806
314.06808
314.06809
314.06809
314.0681
314.06816
314.06821
314.06816
314.06813
314.06805
314.06807
314.06809
314.0681
314.0681
314.06811
314.06816
314.06821
314.06817
314.06814
314.06806
314.06808
314.06809
314.0681
314.0681
314.0681
314.06816
314.0682
314.0682
314.06817
314.06808
314.06809
314.0681
314.06811
314.0681
314.06811
314.06817
314.06822
314.06824
314.06823
314.06815
314.06815
314.06816
314.06816
314.06816
314.06817
314.06824
314.0683
314.06825
314.06826
314.06821
314.0682
314.06821
314.06821
314.0682
314.06822
314.0683
314.06832
323.46071
323.46073
323.46058
323.46061
323.46064
323.46066
323.46068
323.46071
323.46076
323.46078
323.46073
323.46064
323.46055
323.46058
323.46061
323.46063
323.46064
323.46067
323.46075
323.46079
323.46058
323.46055
323.46047
323.4605
323.46053
323.46055
323.46055
323.46057
323.46066
323.46073
323.46061
323.46058
323.4605
323.46053
323.46056
323.46057
323.46057
323.46059
323.46066
323.46072
323.46064
323.46061
323.46053
323.46056
323.46059
323.46059
323.46059
323.4606
323.46067
323.46072
323.46066
323.46063
323.46055
323.46057
323.46059
323.4606
323.4606
323.4606
323.46067
323.46072
323.46068
323.46064
323.46055
323.46057
323.46059
323.4606
323.46059
323.46059
323.46067
323.46072
323.46071
323.46067
323.46057
323.46059
323.4606
323.4606
323.46059
323.4606
323.46068
323.46074
323.46076
323.46075
323.46066
323.46066
323.46067
323.46067
323.46067
323.46068
323.46076
323.46084
323.46078
323.46079
323.46073
323.46072
323.46072
323.46072
323.46072
323.46074
323.46084
323.46086
332.74164
332.74165
332.7415
332.74153
332.74156
332.74159
332.74161
332.74164
332.7417
332.74172
332.74165
332.74156
332.74146
332.7415
332.74153
332.74155
332.74157
332.7416
332.74169
332.74173
332.7415
332.74146
332.74137
332.74141
332.74144
332.74146
332.74147
332.74149
332.74159
332.74166
332.74153
332.7415
332.74141
332.74145
332.74148
332.74149
332.74149
332.7415
332.74159
332.74166
332.74156
332.74153
332.74144
332.74148
332.74151
332.74152
332.74151
332.74151
332.7416
332.74166
332.74159
332.74155
332.74146
332.74149
332.74152
332.74152
332.74151
332.74151
332.74159
332.74165
332.74161
332.74157
332.74147
332.74149
332.74151
332.74151
332.7415
332.7415
332.74158
332.74164
332.74164
332.7416
332.74149
332.7415
332.74151
332.74151
332.7415
332.7415
332.74159
332.74166
332.7417
332.74169
332.74159
332.74159
332.7416
332.74159
332.74158
332.74159
332.7417
332.74178
332.74172
332.74173
332.74166
332.74166
332.74166
332.74165
332.74164
332.74166
332.74178
332.74181
341.90581
341.90583
341.90567
341.9057
341.90574
341.90577
341.90579
341.90582
341.90588
341.9059
341.90583
341.90574
341.90563
341.90567
341.90571
341.90573
341.90574
341.90577
341.90588
341.90592
341.90567
341.90563
341.90553
341.90558
341.90562
341.90563
341.90563
341.90565
341.90576
341.90585
341.9057
341.90567
341.90558
341.90562
341.90566
341.90567
341.90566
341.90567
341.90577
341.90584
341.90574
341.90571
341.90562
341.90566
341.90569
341.90569
341.90568
341.90568
341.90577
341.90584
341.90577
341.90573
341.90563
341.90567
341.90569
341.9057
341.90568
341.90567
341.90577
341.90583
341.90579
341.90574
341.90563
341.90566
341.90568
341.90568
341.90566
341.90566
341.90575
341.90582
341.90582
341.90577
341.90565
341.90567
341.90568
341.90567
341.90566
341.90566
341.90576
341.90584
341.90588
341.90588
341.90576
341.90577
341.90577
341.90577
341.90575
341.90576
341.90588
341.90598
341.9059
341.90592
341.90585
341.90584
341.90584
341.90583
341.90582
341.90584
341.90598
341.906
350.94864
350.94867
350.94849
350.94853
350.94857
350.9486
350.94862
350.94865
350.94872
350.94874
350.94867
350.94856
350.94845
350.9485
350.94854
350.94856
350.94857
350.9486
350.94871
350.94876
350.94849
350.94845
350.94835
350.9484
350.94844
350.94846
350.94845
350.94847
350.94859
350.94868
350.94853
350.9485
350.9484
350.94845
350.94849
350.9485
350.94848
350.94848
350.94859
350.94867
350.94857
350.94854
350.94844
350.94849
350.94852
350.94852
350.94851
350.9485
350.9486
350.94867
350.9486
350.94856
350.94846
350.9485
350.94852
350.94852
350.9485
350.94849
350.94859
350.94866
350.94862
350.94857
350.94845
350.94848
350.94851
350.9485
350.94848
350.94847
350.94856
350.94864
350.94865
350.9486
350.94847
350.94848
350.9485
350.94849
350.94847
350.94846
350.94857
350.94866
350.94872
350.94871
350.94859
350.94859
350.9486
350.94859
350.94856
350.94857
350.9487
350.94881
350.94874
350.94876
350.94868
350.94867
350.94867
350.94866
350.94864
350.94866
350.94881
350.94883
359.8661
359.86612
359.86594
359.86598
359.86603
359.86606
359.86607
359.8661
359.86617
359.86619
359.86612
359.86602
359.8659
359.86595
359.866
359.86602
359.86602
359.86605
359.86617
359.86622
359.86594
359.8659
359.8658
359.86585
359.8659
359.86591
359.8659
359.86591
359.86604
359.86614
359.86598
359.86595
359.86585
359.86591
359.86595
359.86595
359.86594
359.86593
359.86604
359.86613
359.86603
359.866
359.8659
359.86595
359.86598
359.86598
359.86596
359.86594
359.86605
359.86612
359.86606
359.86602
359.86591
359.86595
359.86598
359.86598
359.86595
359.86593
359.86603
359.8661
359.86607
359.86602
359.8659
359.86594
359.86596
359.86595
359.86592
359.8659
359.866
359.86608
359.8661
359.86605
359.86591
359.86593
359.86594
359.86593
359.8659
359.86588
359.866
359.86609
359.86617
359.86617
359.86604
359.86604
359.86605
359.86603
359.866
359.866
359.86614
359.86626
359.86619
359.86622
359.86614
359.86613
359.86612
359.8661
359.86608
359.86609
359.86626
359.86628
368.65473
368.65476
368.65457
368.65462
368.65467
368.6547
368.65471
368.65473
368.65481
368.65483
368.65476
368.65466
368.65454
368.65459
368.65464
368.65466
368.65466
368.65468
368.6548
368.65486
368.65457
368.65454
368.65443
368.65449
368.65454
368.65455
368.65453
368.65454
368.65467
368.65477
368.65462
368.65459
368.65449
368.65455
368.65459
368.6546
368.65457
368.65456
368.65468
368.65476
368.65467
368.65464
368.65454
368.65459
368.65463
368.65463
368.65459
368.65457
368.65468
368.65475
368.6547
368.65466
368.65455
368.6546
368.65463
368.65462
368.65458
368.65455
368.65466
368.65473
368.65471
368.65466
368.65453
368.65457
368.65459
368.65458
368.65454
368.65451
368.65462
368.6547
368.65473
368.65468
368.65454
368.65456
368.65457
368.65455
368.65451
368.65449
368.65461
368.65471
368.65481
368.6548
368.65467
368.65468
368.65468
368.65466
368.65462
368.65461
368.65476
368.65489
368.65483
368.65486
368.65477
368.65476
368.65475
368.65473
368.6547
368.65471
368.65489
368.65491
377.31169
377.31173
377.31154
377.31159
377.31164
377.31167
377.31167
377.31169
377.31177
377.31178
377.31173
377.31162
377.3115
377.31156
377.31162
377.31163
377.31162
377.31164
377.31177
377.31182
377.31154
377.3115
377.3114
377.31146
377.31151
377.31152
377.3115
377.31149
377.31163
377.31173
377.31159
377.31156
377.31146
377.31153
377.31157
377.31157
377.31154
377.31151
377.31163
377.31172
377.31164
377.31162
377.31151
377.31157
377.31161
377.3116
377.31156
377.31153
377.31163
377.31171
377.31167
377.31163
377.31152
377.31157
377.3116
377.31159
377.31154
377.3115
377.31161
377.31168
377.31167
377.31162
377.3115
377.31154
377.31156
377.31154
377.31149
377.31145
377.31156
377.31164
377.31169
377.31164
377.31149
377.31151
377.31153
377.3115
377.31145
377.31142
377.31155
377.31165
377.31177
377.31177
377.31163
377.31163
377.31163
377.31161
377.31156
377.31155
377.3117
377.31183
377.31178
377.31182
377.31173
377.31172
377.31171
377.31168
377.31164
377.31165
377.31183
377.31185
385.83472
385.83476
385.83456
385.83462
385.83468
385.8347
385.8347
385.83471
385.83479
385.8348
385.83476
385.83465
385.83453
385.8346
385.83465
385.83466
385.83465
385.83466
385.83479
385.83484
385.83456
385.83453
385.83443
385.8345
385.83455
385.83455
385.83452
385.83451
385.83465
385.83475
385.83462
385.8346
385.8345
385.83457
385.83461
385.8346
385.83456
385.83453
385.83465
385.83474
385.83468
385.83465
385.83455
385.83461
385.83465
385.83463
385.83458
385.83454
385.83465
385.83473
385.8347
385.83466
385.83455
385.8346
385.83463
385.83462
385.83456
385.83451
385.83462
385.83469
385.8347
385.83465
385.83452
385.83456
385.83458
385.83456
385.8345
385.83446
385.83456
385.83464
385.83471
385.83466
385.83451
385.83453
385.83454
385.83451
385.83446
385.83442
385.83454
385.83464
385.83479
385.83479
385.83465
385.83465
385.83465
385.83462
385.83456
385.83454
385.83469
385.83483
385.8348
385.83484
385.83475
385.83474
385.83473
385.83469
385.83464
385.83464
385.83483
385.83485
394.22213
394.22217
394.22197
394.22204
394.22209
394.22211
394.22211
394.22212
394.22219
394.2222
394.22217
394.22206
394.22194
394.22202
394.22207
394.22208
394.22206
394.22206
394.22219
394.22224
394.22197
394.22194
394.22184
394.22192
394.22197
394.22197
394.22193
394.22191
394.22205
394.22215
394.22204
394.22202
394.22192
394.22199
394.22203
394.22202
394.22198
394.22194
394.22205
394.22214
394.22209
394.22207
394.22197
394.22203
394.22207
394.22205
394.222
394.22194
394.22205
394.22212
394.22211
394.22208
394.22197
394.22202
394.22205
394.22203
394.22197
394.22191
394.22201
394.22208
394.22211
394.22206
394.22193
394.22198
394.222
394.22197
394.2219
394.22184
394.22195
394.22202
394.22212
394.22206
394.22191
394.22194
394.22194
394.22191
394.22184
394.22179
394.22192
394.22202
394.22219
394.22219
394.22205
394.22205
394.22205
394.22201
394.22195
394.22192
394.22207
394.22221
394.2222
394.22224
394.22215
394.22214
394.22212
394.22208
394.22202
394.22202
394.22221
394.22222
402.47282
402.47287
402.47267
402.47274
402.4728
402.47282
402.47281
402.47281
402.47288
402.47288
402.47287
402.47277
402.47265
402.47273
402.47278
402.47279
402.47276
402.47276
402.47288
402.47293
402.47267
402.47265
402.47255
402.47263
402.47268
402.47267
402.47263
402.4726
402.47274
402.47284
402.47274
402.47273
402.47263
402.4727
402.47275
402.47273
402.47268
402.47263
402.47274
402.47282
402.4728
402.47278
402.47268
402.47275
402.47278
402.47276
402.4727
402.47263
402.47273
402.4728
402.47282
402.47279
402.47267
402.47273
402.47276
402.47274
402.47266
402.47259
402.47269
402.47276
402.47281
402.47276
402.47263
402.47268
402.4727
402.47266
402.47258
402.47252
402.47262
402.47269
402.47281
402.47276
402.4726
402.47263
402.47263
402.47259
402.47252
402.47246
402.47258
402.47268
402.47288
402.47288
402.47274
402.47274
402.47273
402.47269
402.47262
402.47258
402.47273
402.47288
402.47288
402.47293
402.47284
402.47282
402.4728
402.47276
402.47269
402.47268
402.47288
402.47288
410.58629
410.58634
410.58614
410.58622
410.58627
410.58629
410.58627
410.58627
410.58633
410.58634
410.58634
410.58624
410.58612
410.5862
410.58626
410.58626
410.58623
410.58622
410.58634
410.58638
410.58614
410.58612
410.58603
410.58611
410.58616
410.58615
410.5861
410.58606
410.5862
410.58629
410.58622
410.5862
410.58611
410.58619
410.58623
410.58621
410.58615
410.58609
410.5862
410.58628
410.58627
410.58626
410.58616
410.58623
410.58627
410.58624
410.58616
410.58609
410.58619
410.58625
410.58629
410.58626
410.58615
410.58621
410.58624
410.58621
410.58612
410.58605
410.58614
410.5862
410.58627
410.58623
410.5861
410.58615
410.58616
410.58612
410.58604
410.58596
410.58606
410.58613
410.58627
410.58622
410.58606
410.58609
410.58609
410.58605
410.58596
410.58589
410.58601
410.5861
410.58633
410.58634
410.5862
410.5862
410.58619
410.58614
410.58606
410.58601
410.58616
410.5863
410.58634
410.58638
410.58629
410.58628
410.58625
410.5862
410.58613
410.5861
410.5863
410.5863
418.56257
418.56262
418.56243
418.5625
418.56256
418.56257
418.56255
418.56254
418.5626
418.5626
418.56262
418.56252
418.56241
418.5625
418.56255
418.56255
418.56251
418.56249
418.56261
418.56265
418.56243
418.56241
418.56232
418.5624
418.56245
418.56244
418.56238
418.56234
418.56247
418.56256
418.5625
418.5625
418.5624
418.56249
418.56253
418.56251
418.56243
418.56236
418.56247
418.56254
418.56256
418.56255
418.56245
418.56253
418.56256
418.56253
418.56245
418.56236
418.56245
418.56252
418.56257
418.56255
418.56244
418.56251
418.56253
418.56249
418.5624
418.56231
418.5624
418.56246
418.56255
418.56251
418.56238
418.56243
418.56245
418.5624
418.56231
418.56222
418.56231
418.56237
418.56254
418.56249
418.56234
418.56236
418.56236
418.56231
418.56222
418.56214
418.56225
418.56234
418.5626
418.56261
418.56247
418.56247
418.56245
418.5624
418.56231
418.56225
418.5624
418.56254
418.5626
418.56265
418.56256
418.56254
418.56252
418.56246
418.56237
418.56234
418.56254
418.56253
426.40225
426.40231
426.40213
426.4022
426.40226
426.40227
426.40224
426.40222
426.40228
426.40227
426.40231
426.40222
426.40211
426.4022
426.40225
426.40225
426.4022
426.40217
426.40229
426.40232
426.40213
426.40211
426.40203
426.40211
426.40216
426.40215
426.40208
426.40203
426.40215
426.40223
426.4022
426.4022
426.40211
426.4022
426.40224
426.40221
426.40213
426.40205
426.40215
426.40221
426.40226
426.40225
426.40216
426.40224
426.40227
426.40223
426.40214
426.40205
426.40213
426.40219
426.40227
426.40225
426.40215
426.40221
426.40223
426.40219
426.40209
426.40199
426.40207
426.40212
426.40224
426.4022
426.40208
426.40213
426.40214
426.40209
426.40199
426.40189
426.40197
426.40203
426.40222
426.40217
426.40203
426.40205
426.40205
426.40199
426.40189
426.4018
426.4019
426.40199
426.40228
426.40229
426.40215
426.40215
426.40213
426.40207
426.40197
426.4019
426.40204
426.40219
426.40227
426.40232
426.40223
426.40221
426.40219
426.40212
426.40203
426.40199
426.40219
426.40217
434.10649
434.10655
434.10637
434.10645
434.10651
434.10651
434.10648
434.10645
434.1065
434.10649
434.10655
434.10647
434.10636
434.10645
434.10651
434.1065
434.10644
434.10641
434.10651
434.10654
434.10637
434.10636
434.10628
434.10637
434.10642
434.1064
434.10632
434.10626
434.10637
434.10645
434.10645
434.10645
434.10637
434.10645
434.10649
434.10646
434.10637
434.10628
434.10637
434.10644
434.10651
434.10651
434.10642
434.10649
434.10652
434.10648
434.10638
434.10628
434.10636
434.10641
434.10651
434.1065
434.1064
434.10646
434.10648
434.10643
434.10633
434.10622
434.10629
434.10634
434.10648
434.10644
434.10632
434.10637
434.10638
434.10633
434.10622
434.10611
434.10618
434.10624
434.10645
434.10641
434.10626
434.10628
434.10628
434.10622
434.10611
434.10601
434.1061
434.10619
434.1065
434.10651
434.10637
434.10637
434.10636
434.10629
434.10618
434.1061
434.10624
434.10638
434.10649
434.10654
434.10645
434.10644
434.10641
434.10634
434.10624
434.10619
434.10638
434.10636
441.67694
441.677
441.67683
441.67691
441.67696
441.67696
441.67692
441.67688
441.67693
441.67691
441.677
441.67692
441.67682
441.67691
441.67696
441.67695
441.67689
441.67684
441.67694
441.67697
441.67683
441.67682
441.67674
441.67683
441.67688
441.67685
441.67677
441.6767
441.67681
441.67688
441.67691
441.67691
441.67683
441.67692
441.67695
441.67692
441.67682
441.67673
441.67681
441.67686
441.67696
441.67696
441.67688
441.67695
441.67698
441.67694
441.67683
441.67672
441.67679
441.67683
441.67696
441.67695
441.67685
441.67692
441.67694
441.67688
441.67677
441.67665
441.67671
441.67676
441.67692
441.67689
441.67677
441.67682
441.67683
441.67677
441.67665
441.67654
441.6766
441.67665
441.67688
441.67684
441.6767
441.67673
441.67672
441.67665
441.67654
441.67643
441.67651
441.67659
441.67693
441.67694
441.67681
441.67681
441.67679
441.67671
441.6766
441.67651
441.67664
441.67678
441.67691
441.67697
441.67688
441.67686
441.67683
441.67676
441.67665
441.67659
441.67678
441.67675
449.11575
449.11581
449.11565
449.11573
449.11578
449.11578
449.11573
449.11569
449.11572
449.11571
449.11581
449.11574
449.11565
449.11574
449.11579
449.11577
449.1157
449.11565
449.11574
449.11576
449.11565
449.11565
449.11557
449.11566
449.11571
449.11568
449.11559
449.11551
449.11561
449.11568
449.11573
449.11574
449.11566
449.11575
449.11578
449.11574
449.11564
449.11554
449.11561
449.11566
449.11578
449.11579
449.11571
449.11578
449.11581
449.11576
449.11564
449.11553
449.11558
449.11562
449.11578
449.11577
449.11568
449.11574
449.11576
449.1157
449.11558
449.11545
449.11551
449.11554
449.11573
449.1157
449.11559
449.11564
449.11564
449.11558
449.11546
449.11533
449.11539
449.11543
449.11569
449.11565
449.11551
449.11554
449.11553
449.11545
449.11533
449.11521
449.11529
449.11536
449.11572
449.11574
449.11561
449.11561
449.11558
449.11551
449.11539
449.11529
449.11541
449.11554
449.11571
449.11576
449.11568
449.11566
449.11562
449.11554
449.11543
449.11536
449.11554
449.11551
456.42557
456.42564
456.42548
456.42556
456.42561
456.4256
456.42555
456.4255
456.42553
456.42551
456.42564
456.42557
456.42548
456.42557
456.42562
456.4256
456.42553
456.42547
456.42555
456.42557
456.42548
456.42548
456.42542
456.42551
456.42554
456.42551
456.42542
456.42533
456.42542
456.42548
456.42556
456.42557
456.42551
456.42559
456.42562
456.42558
456.42547
456.42536
456.42542
456.42546
456.42561
456.42562
456.42554
456.42562
456.42564
456.42559
456.42547
456.42534
456.42539
456.42542
456.4256
456.4256
456.42551
456.42558
456.42559
456.42553
456.4254
456.42527
456.42531
456.42534
456.42555
456.42553
456.42542
456.42547
456.42547
456.4254
456.42527
456.42514
456.42519
456.42522
456.4255
456.42547
456.42533
456.42536
456.42534
456.42527
456.42514
456.42501
456.42508
456.42515
456.42553
456.42555
456.42542
456.42542
456.42539
456.42531
456.42519
456.42508
456.4252
456.42532
456.42551
456.42557
456.42548
456.42546
456.42542
456.42534
456.42522
456.42515
456.42532
456.42529
463.60951
463.60958
463.60943
463.60951
463.60956
463.60954
463.60949
463.60943
463.60945
463.60943
463.60958
463.60952
463.60944
463.60953
463.60957
463.60954
463.60947
463.6094
463.60947
463.60948
463.60943
463.60944
463.60938
463.60946
463.6095
463.60946
463.60937
463.60927
463.60935
463.6094
463.60951
463.60953
463.60946
463.60954
463.60957
463.60953
463.60941
463.60929
463.60935
463.60938
463.60956
463.60957
463.6095
463.60957
463.60959
463.60954
463.60941
463.60928
463.60932
463.60934
463.60954
463.60954
463.60946
463.60953
463.60954
463.60947
463.60934
463.6092
463.60923
463.60926
463.60949
463.60947
463.60937
463.60941
463.60941
463.60934
463.6092
463.60906
463.60911
463.60913
463.60943
463.6094
463.60927
463.60929
463.60928
463.6092
463.60906
463.60893
463.60899
463.60905
463.60945
463.60947
463.60935
463.60935
463.60932
463.60923
463.60911
463.60899
463.6091
463.60921
463.60943
463.60948
463.6094
463.60938
463.60934
463.60926
463.60913
463.60905
463.60921
463.60918
470.67111
470.67118
470.67104
470.67112
470.67116
470.67114
470.67108
470.67102
470.67104
470.67101
470.67118
470.67112
470.67105
470.67113
470.67117
470.67115
470.67107
470.67099
470.67106
470.67106
470.67104
470.67105
470.67099
470.67108
470.67111
470.67107
470.67097
470.67087
470.67094
470.67099
470.67112
470.67113
470.67108
470.67116
470.67118
470.67113
470.67101
470.67089
470.67094
470.67096
470.67116
470.67117
470.67111
470.67118
470.6712
470.67114
470.67101
470.67087
470.6709
470.67092
470.67114
470.67115
470.67107
470.67113
470.67114
470.67107
470.67093
470.67079
470.67082
470.67083
470.67108
470.67107
470.67097
470.67101
470.67101
470.67093
470.6708
470.67065
470.67068
470.6707
470.67102
470.67099
470.67087
470.67089
470.67087
470.67079
470.67065
470.67052
470.67057
470.67062
470.67104
470.67106
470.67094
470.67094
470.6709
470.67082
470.67068
470.67057
470.67066
470.67077
470.67101
470.67106
470.67099
470.67096
470.67092
470.67083
470.6707
470.67062
470.67077
470.67073
477.61432
477.61439
477.61426
477.61433
477.61437
477.61435
477.61429
477.61422
477.61423
477.6142
477.61439
477.61434
477.61427
477.61436
477.61439
477.61436
477.61428
477.6142
477.61425
477.61425
477.61426
477.61427
477.61422
477.6143
477.61433
477.61429
477.61419
477.61408
477.61414
477.61418
477.61433
477.61436
477.6143
477.61438
477.6144
477.61435
477.61423
477.6141
477.61414
477.61416
477.61437
477.61439
477.61433
477.6144
477.61441
477.61435
477.61422
477.61408
477.6141
477.61411
477.61435
477.61436
477.61429
477.61435
477.61435
477.61428
477.61414
477.61399
477.61401
477.61402
477.61429
477.61428
477.61419
477.61423
477.61422
477.61414
477.614
477.61385
477.61388
477.61389
477.61422
477.6142
477.61408
477.6141
477.61408
477.61399
477.61385
477.61371
477.61376
477.6138
477.61423
477.61425
477.61414
477.61414
477.6141
477.61401
477.61388
477.61376
477.61384
477.61394
477.6142
477.61425
477.61418
477.61416
477.61411
477.61402
477.61389
477.6138
477.61394
477.6139
484.44348
484.44355
484.44343
484.4435
484.44354
484.44352
484.44345
484.44338
484.44338
484.44334
484.44355
484.44351
484.44345
484.44353
484.44356
484.44353
484.44344
484.44335
484.4434
484.4434
484.44343
484.44345
484.4434
484.44348
484.44351
484.44346
484.44335
484.44324
484.4433
484.44333
484.4435
484.44353
484.44348
484.44355
484.44357
484.44351
484.44339
484.44326
484.44329
484.44331
484.44354
484.44356
484.44351
484.44357
484.44358
484.44351
484.44338
484.44324
484.44325
484.44326
484.44352
484.44353
484.44346
484.44351
484.44351
484.44344
484.4433
484.44315
484.44316
484.44316
484.44345
484.44344
484.44335
484.44339
484.44338
484.4433
484.44316
484.44301
484.44302
484.44303
484.44338
484.44335
484.44324
484.44326
484.44324
484.44315
484.44301
484.44287
484.4429
484.44294
484.44338
484.4434
484.4433
484.44329
484.44325
484.44316
484.44302
484.4429
484.44298
484.44307
484.44334
484.4434
484.44333
484.44331
484.44326
484.44316
484.44303
484.44294
484.44307
484.44302
491.1633
491.16336
491.16325
491.16332
491.16336
491.16333
491.16326
491.16318
491.16318
491.16314
491.16336
491.16333
491.16327
491.16335
491.16338
491.16334
491.16325
491.16316
491.1632
491.16319
491.16325
491.16327
491.16323
491.16331
491.16333
491.16328
491.16317
491.16306
491.1631
491.16313
491.16332
491.16335
491.16331
491.16337
491.16339
491.16333
491.16321
491.16307
491.16309
491.16311
491.16336
491.16338
491.16333
491.16339
491.1634
491.16333
491.16319
491.16305
491.16306
491.16306
491.16333
491.16334
491.16328
491.16333
491.16333
491.16325
491.16311
491.16296
491.16296
491.16296
491.16326
491.16325
491.16317
491.16321
491.16319
491.16311
491.16297
491.16282
491.16283
491.16283
491.16318
491.16316
491.16306
491.16307
491.16305
491.16296
491.16282
491.16267
491.1627
491.16273
491.16318
491.1632
491.1631
491.16309
491.16306
491.16296
491.16283
491.1627
491.16277
491.16286
491.16314
491.16319
491.16313
491.16311
491.16306
491.16296
491.16283
491.16273
491.16286
491.1628
497.77879
497.77885
497.77876
497.77882
497.77885
497.77882
497.77875
497.77867
497.77866
497.77862
497.77885
497.77882
497.77878
497.77885
497.77887
497.77883
497.77874
497.77865
497.77868
497.77867
497.77876
497.77878
497.77874
497.77881
497.77883
497.77878
497.77867
497.77856
497.77859
497.77861
497.77882
497.77885
497.77881
497.77887
497.77888
497.77882
497.7787
497.77857
497.77858
497.77859
497.77885
497.77887
497.77883
497.77888
497.77889
497.77882
497.77869
497.77854
497.77854
497.77854
497.77882
497.77883
497.77878
497.77882
497.77882
497.77874
497.7786
497.77845
497.77845
497.77844
497.77875
497.77874
497.77867
497.7787
497.77869
497.7786
497.77846
497.77831
497.77831
497.77831
497.77867
497.77865
497.77856
497.77857
497.77854
497.77845
497.77831
497.77817
497.77818
497.77821
497.77866
497.77868
497.77859
497.77858
497.77854
497.77845
497.77831
497.77818
497.77824
497.77832
497.77862
497.77867
497.77861
497.77859
497.77854
497.77844
497.77831
497.77821
497.77832
497.77827
504.29529
504.29535
504.29526
504.29532
504.29535
504.29531
504.29524
504.29516
504.29515
504.29511
504.29535
504.29533
504.29529
504.29535
504.29537
504.29533
504.29524
504.29515
504.29517
504.29515
504.29526
504.29529
504.29526
504.29532
504.29533
504.29528
504.29517
504.29506
504.29508
504.2951
504.29532
504.29535
504.29532
504.29538
504.29538
504.29532
504.2952
504.29507
504.29507
504.29507
504.29535
504.29537
504.29533
504.29538
504.29538
504.29531
504.29518
504.29504
504.29503
504.29502
504.29531
504.29533
504.29528
504.29532
504.29531
504.29524
504.2951
504.29495
504.29494
504.29493
504.29524
504.29524
504.29517
504.2952
504.29518
504.2951
504.29496
504.29481
504.29481
504.2948
504.29516
504.29515
504.29506
504.29507
504.29504
504.29495
504.29481
504.29467
504.29468
504.2947
504.29515
504.29517
504.29508
504.29507
504.29503
504.29494
504.29481
504.29468
504.29473
504.2948
504.29511
504.29515
504.2951
504.29507
504.29502
504.29493
504.2948
504.2947
504.2948
504.29475
510.71839
510.71845
510.71837
510.71843
510.71845
510.71841
510.71834
510.71826
510.71824
510.7182
510.71845
510.71843
510.7184
510.71845
510.71847
510.71843
510.71834
510.71825
510.71826
510.71824
510.71837
510.7184
510.71837
510.71843
510.71844
510.71838
510.71828
510.71816
510.71818
510.71819
510.71843
510.71845
510.71843
510.71848
510.71848
510.71842
510.7183
510.71817
510.71817
510.71817
510.71845