/*--------------------------------*- C++ -*----------------------------------*\
| =========                 |                                                 |
| \\      /  F ield         | OpenFOAM: The Open Source CFD Toolbox           |
|  \\    /   O peration     | Version:  v2106                                 |
|   \\  /    A nd           | Website:  www.openfoam.com                      |
|    \\/     M anipulation  |                                                 |
\*---------------------------------------------------------------------------*/
FoamFile
{
    version     2.0;
    format      ascii;
    arch        "LSB;label=32;scalar=64";
    class       volScalarField;
    location    "30";
    object      gradTx;
}
// * * * * * * * * * * * * * * * * * * * * * * * * * * * * * * * * * * * * * //

dimensions      [0 -1 0 1 0 0 0];

internalField   nonuniform List<scalar> 
10000
(
-5.5142323e-05
5.0850986e-05
0.00058615257
0.00080561836
0.00041711124
0.00042033702
0.00029267039
-0.0001776975
0.00020030762
0.00020961299
-3.0469779e-06
0.0002498688
0.00068424904
0.00073186931
0.00062360951
0.00038739216
-1.9060053e-05
9.2777498e-05
0.00011843295
-3.9497858e-05
7.7536356e-05
0.0004038734
0.00062079937
0.00063113677
0.00042488116
0.00019802417
0.00014725811
0.00015496212
0.0001024826
1.5819542e-05
6.2350523e-05
0.00028451558
0.00056111602
0.00049417687
-2.9315402e-05
0.00021702192
0.00028716161
-0.00021353173
2.3245889e-05
0.00010236751
2.837002e-05
0.00022939142
0.00038310685
8.9905544e-06
4.8348255e-05
0.00028942844
-0.00021704125
8.2126434e-05
0.00029498199
-3.8657315e-05
0.00020001607
0.00029228562
-9.1808687e-05
0.00011764408
0.00012560187
-0.0001074294
0.00028487807
0.00029152031
-0.00043278206
-0.00027207153
6.4069354e-06
7.0794782e-06
0.00021273769
0.00010039531
-0.00027610298
9.1238775e-05
3.4105889e-08
-0.00021550463
0.00013512368
6.5462643e-05
-7.8038624e-06
0.0001468739
0.00021441386
-0.00024665403
0.00012331893
0.00010964604
-0.0001308797
0.00083202892
0.00045058363
-0.00013077594
0.00018672413
0.00033973956
-9.3571032e-05
2.7561071e-05
0.00022894966
-0.00020639305
0.00054054212
0.00093310911
-0.00047379672
-0.00040787097
-6.2386713e-05
4.9049646e-05
0.00011922759
-5.4153787e-05
-0.00033270936
-5.021414e-05
0.00075248514
0.00022310954
-0.00079601799
-0.00034559063
-7.0598585e-06
0.00049112373
0.0013681006
0.0020220724
0.0016455005
0.00097891021
0.00051423137
-0.00019863202
0.00039081462
0.00040972204
0.00017661402
0.00084549606
0.0017374911
0.0020558938
0.0013858966
0.0011064268
0.00026266969
-0.00032540694
0.00039960577
0.00024544964
0.00022918857
0.0011191092
0.0017497488
0.0016788358
0.0010031915
0.00055664745
0.00026894472
0.00021285393
0.00030934518
7.1711099e-05
0.00042287434
0.0012271441
0.0010531589
0.001120718
0.00046481418
0.00033709068
0.00063685974
-0.00019647698
-0.00040056611
-6.6598375e-05
0.00025173565
0.00077587197
0.00081457304
0.00033082733
3.3684842e-06
0.00054171591
-0.00030174965
-0.00070719352
6.9244777e-05
1.4545625e-05
0.0002498049
0.00058483553
0.0001320775
0.00012089583
0.0002943261
-0.00014927807
-0.0004418057
2.8869465e-05
-7.2445716e-05
-0.00019897548
0.00033674723
0.00035361151
4.5239205e-05
0.00031589744
-0.0004829989
-0.00029190639
5.5586895e-06
-0.00013415851
-1.5564922e-05
-0.00012405942
8.2098002e-05
0.0003395516
0.00050627025
-0.00044979612
-0.00078433749
0.00015803076
0.0003615886
0.00068635876
6.3492535e-05
-0.00030932273
0.00025223111
0.00076509843
0.00017417213
-0.00060414578
-0.00025765138
0.00028112623
0.00066304625
0.00059336318
-0.00078976655
-0.00057819663
8.7958445e-05
0.00025808291
-0.00029389722
-0.00068989289
-0.0004562192
7.321637e-05
0.00049752788
-8.7838742e-05
-0.0010438556
-0.0004787161
0.00016533105
0.0013605706
0.0024532408
0.0025339929
0.0021496161
0.0010932834
0.00024538647
-0.00017265694
0.00016691567
0.00029864384
0.00048881808
0.0016436222
0.0022921406
0.0026439055
0.0019512166
0.00072121293
0.00010891122
9.2579597e-05
-6.8613644e-05
-5.6292246e-05
0.00035403222
0.0015150089
0.0022737868
0.0018595146
0.0012227414
0.0010256344
0.00032422912
-0.00041444869
-0.00051756663
-0.00010098012
0.00038141805
0.001464168
0.0012838797
0.0010226774
0.0010207669
0.00039362931
-0.00036562071
-0.00096782997
-0.00066257479
-4.2711046e-05
0.00042730708
0.00084053096
0.00065255952
0.00055101228
0.00024185633
-8.3795925e-05
-0.0012076347
-0.0010237616
-1.6734077e-05
1.8014665e-05
0.00024915196
0.00053729528
0.00035343294
4.179381e-05
-0.00025208701
-0.0010227491
-0.0012161363
-0.00023389637
-0.00035011834
-0.00027574962
0.00017926125
0.00077288513
0.00032497911
-0.00055841477
-0.0011745202
-0.0006085958
-0.00034021008
-0.00082066731
-0.00054990795
-0.00017064963
0.00015816907
0.00061614037
-0.00012109496
-0.001490065
-0.0011025991
-0.00015532385
-0.00064513449
-0.00030560813
-0.00014254039
-0.00029283918
0.00035608554
0.0005310952
-0.00073542449
-0.0011677209
-0.0004405843
-0.00040550378
-0.00041192266
5.4913415e-05
-0.001192696
-0.00083952205
1.1493929e-06
-6.8338353e-05
-0.00071504877
-0.00098922908
-0.00079014552
-0.00068849928
-0.00043755156
-0.00094839561
-0.0012354254
-0.00032132321
0.00032395354
0.0015131669
0.0027902879
0.0027028637
0.001598445
0.00083667009
0.0001730885
-0.00054342743
-7.7283602e-05
0.00030746325
0.00082421809
0.0022890835
0.0024626649
0.0021803606
0.0015678516
0.00078981262
-0.00062756666
-0.00084777628
-0.00044994974
-0.0001481021
0.00084123163
0.0017108918
0.0017651932
0.0020036578
0.0011068862
0.00055235165
-0.00046827048
-0.0011562902
-0.0008723452
-0.00021153329
0.00060580294
0.0012639896
0.00099044496
0.0012186189
0.0006365257
-0.00041601689
-0.0014728073
-0.0018368783
-0.001052445
-0.00014619369
0.00049289641
0.0010116883
0.00080345382
0.00037907785
-0.00067532903
-0.0013109224
-0.0021538999
-0.0015278029
-0.00024832261
-5.7862566e-05
0.00058540864
0.00077243473
5.912213e-05
-0.0005635948
-0.0013304176
-0.0018352158
-0.002015233
-0.0010108932
-0.00077748081
-0.00036575155
0.00046165962
0.00072737271
-0.00040237342
-0.0014841924
-0.0020945251
-0.0014032079
-0.0017656228
-0.0019049918
-0.00082285985
-0.00021858153
5.1638418e-05
0.00013107689
-0.00078611302
-0.0022492159
-0.0018728372
-0.0014469374
-0.0022939932
-0.00092973869
-0.00016276374
-0.00036228971
0.00025876003
0.00011451354
-0.0013914658
-0.0018556959
-0.001268536
-0.0017803984
-0.0016844689
-0.00093306664
-0.0011848241
-0.00045767155
-0.0001968041
-0.00066397766
-0.0013886018
-0.0016251923
-0.001597874
-0.0020214718
-0.0016792758
-0.0012917101
-0.0013201154
-0.00045248095
0.00077448897
0.0020531056
0.0021049464
0.0018963418
0.0011604975
9.9519782e-05
-0.00090363781
-0.0013093973
-0.00012927271
0.00043646454
0.00095662398
0.0021098526
0.001790134
0.0014505853
0.00067499508
8.412087e-06
-0.0013283753
-0.0016519501
-0.0012339747
-0.00038612326
0.0008123204
0.0015527991
0.0012974978
0.0014287872
0.00028077713
-0.00068324309
-0.0016278518
-0.0021277509
-0.0015835604
-0.00039016591
0.00074674928
0.0013024047
0.0005398229
0.00051292366
-0.00050798673
-0.001747726
-0.002566602
-0.0026908307
-0.0015983375
-0.00025983407
0.00051515038
0.0010852478
0.00035983817
-0.00082403076
-0.0020979543
-0.0024401149
-0.0029584741
-0.002263163
-0.0007479583
-0.00015317475
0.00042308297
0.00042268877
-0.00064315762
-0.0018658069
-0.002503799
-0.0026408809
-0.0029706602
-0.0020078842
-0.0013925159
-0.00052241666
0.00045441287
0.00030248595
-0.001396299
-0.0025808976
-0.002991104
-0.0024626992
-0.003214728
-0.0027437302
-0.00099475452
-0.00028695016
0.000139924
-0.00030152412
-0.0018813768
-0.0031964185
-0.0029078494
-0.0028971336
-0.0033707805
-0.0014448734
-0.00044066948
-0.00036722709
0.00022604502
-0.0005158613
-0.0024351691
-0.0027163013
-0.0023081538
-0.0029432669
-0.0026517192
-0.0018350279
-0.0010647403
-7.3504962e-05
-0.00059654127
-0.0017558051
-0.0022457378
-0.002360816
-0.0027020224
-0.0031439239
-0.0024189412
-0.0015148659
-0.001446698
-0.00062186702
0.00066319429
0.0014591158
0.0013665814
0.00097544429
1.4648889e-05
-0.00092838113
-0.0018369953
-0.0022587577
-0.00071379799
0.00038520479
0.0010783826
0.001696926
0.00076751269
0.00046841694
-0.00060056968
-0.0012881876
-0.0023729283
-0.0026591109
-0.0021056986
-0.00060810299
0.0008217343
0.0013497732
0.00058851936
0.0002434474
-0.0011513619
-0.0021527217
-0.002909972
-0.0030651629
-0.0020699196
-0.0004569791
0.00067900407
0.00091886531
-0.00025004019
-0.0008717785
-0.0021529254
-0.0031115698
-0.0035530233
-0.0034117869
-0.0019771286
-0.00029222768
0.00048371813
0.0006177799
-0.0007516758
-0.0024369148
-0.0035179864
-0.0032553644
-0.0037492318
-0.0031022166
-0.0013054178
-0.0002813458
0.00026885971
-0.00024714413
-0.0018023963
-0.0032384015
-0.0034366727
-0.0034061134
-0.0041059647
-0.0029892367
-0.0019611192
-0.00068131175
0.00024384654
-0.00060656177
-0.002575055
-0.0035395496
-0.0038125239
-0.0035512513
-0.0042528942
-0.0033974946
-0.0013018144
-0.00032110694
-8.8429353e-05
-0.0013201178
-0.0029824819
-0.0040776495
-0.0039896078
-0.0039097764
-0.0040120282
-0.0023649793
-0.00081342577
-0.00017177643
-2.3053606e-05
-0.0014129599
-0.0033277239
-0.0035765976
-0.00338997
-0.0038465254
-0.0036286362
-0.0016857298
-0.0013472534
-0.00080423418
-0.0010163612
-0.0026762369
-0.0028539132
-0.0033131443
-0.0039735879
-0.0039061674
-0.0028643378
-0.0024104154
-0.0018296207
-0.00049335824
0.00054294444
0.00088776099
0.00062493896
9.9155128e-06
-0.0012057715
-0.0021017096
-0.0027498774
-0.0030307676
-0.0012695362
0.00029931414
0.0010349117
0.0011794962
-0.00016913603
-0.00057479977
-0.0018557602
-0.0027026813
-0.0034436368
-0.0033355521
-0.0026216506
-0.00073618611
0.00073743487
0.00095407379
-0.00031934295
-0.001208685
-0.0026446217
-0.0034105754
-0.0037502349
-0.0035589819
-0.0022763976
-0.00044018414
0.00050552916
0.00023521557
-0.0014327203
-0.0023848766
-0.0034232648
-0.0040629943
-0.0043409715
-0.0039751864
-0.0021711316
-0.0002813019
0.000347626
-0.00026452599
-0.0021294209
-0.0037240797
-0.0046130044
-0.0042190408
-0.0045946834
-0.0035443485
-0.001586051
-0.00043315038
7.2203572e-05
-0.0012036349
-0.0030002244
-0.0043532565
-0.0045223592
-0.0042824137
-0.0047218175
-0.0035251668
-0.0022533896
-0.00068334227
-5.3022461e-05
-0.0015733906
-0.003489727
-0.0045325361
-0.0048324196
-0.0041738336
-0.0046925204
-0.0041915517
-0.0017858121
-0.00027246712
-0.00039030192
-0.0022039875
-0.0038975493
-0.0051976952
-0.0049032026
-0.0043802498
-0.0047119956
-0.0030661588
-0.00098246099
-0.00015504677
-0.00025621027
-0.0021016
-0.0041293573
-0.004517899
-0.0043823935
-0.0048210246
-0.0042335063
-0.0018611405
-0.0012675987
-0.00073033802
-0.0012917114
-0.0032108497
-0.003447031
-0.0045073457
-0.0049854549
-0.0045800081
-0.00344106
-0.002547937
-0.0015092692
-0.00031616133
0.00032121121
0.00037039038
0.00013548379
-0.00081316057
-0.002137836
-0.0028359875
-0.0032550325
-0.0034695056
-0.0015593541
0.00027556087
0.00091722315
0.00076252127
-0.00086146482
-0.001584153
-0.0027718536
-0.0033599564
-0.0038775034
-0.0036380325
-0.0028839337
-0.00079953351
0.00058263233
0.00025868266
-0.0013192473
-0.0022787783
-0.0034719027
-0.0038938966
-0.0040246458
-0.0037930287
-0.0022702162
-0.00033669496
0.00025259133
-0.00069220852
-0.002533224
-0.0033270505
-0.0041049526
-0.0045773561
-0.0047961825
-0.0041173661
-0.0020438189
-0.00025687315
6.8637726e-05
-0.0012069368
-0.0030621445
-0.0046175335
-0.0054785885
-0.0047889883
-0.0047754529
-0.0033777957
-0.0014831976
-0.00047011495
-0.00017008786
-0.0020262746
-0.0038663183
-0.0053337318
-0.00531573
-0.0044801763
-0.0046927987
-0.0038635544
-0.0023704692
-0.00053114074
-0.00028067397
-0.0022648402
-0.0042795366
-0.0055126185
-0.0053814053
-0.0041725327
-0.0049320285
-0.0046881833
-0.0018191604
-0.00012997801
-0.00058506701
-0.0027958836
-0.0047849903
-0.0060845317
-0.0052123415
-0.0046367424
-0.0050160994
-0.0027005228
-0.0012405306
-0.00060925457
-0.00039302544
-0.0025883615
-0.0047588659
-0.0050973832
-0.0051275853
-0.0054829041
-0.0037689859
-0.0025287146
-0.0015576663
-7.0185441e-05
-0.001468121
-0.0035067465
-0.0039448736
-0.0052975152
-0.0055389964
-0.0049727039
-0.0038861482
-0.0024390188
-0.0012949917
-0.00043413799
0.00015218058
1.0213199e-05
-0.00038087973
-0.0015493064
-0.0024363835
-0.0027672196
-0.003263469
-0.0036558843
-0.001615293
0.00032962854
0.00081035648
0.00025544102
-0.0016767714
-0.0022442125
-0.0028919519
-0.003270625
-0.0038379098
-0.0036786177
-0.0029040433
-0.00077141832
0.00031566666
-0.00066650128
-0.0022414663
-0.0027433411
-0.0034918344
-0.0037887641
-0.003889684
-0.0036132821
-0.0019250799
-0.00017511729
-5.3571947e-05
-0.0016051433
-0.0031805463
-0.0036013112
-0.004255877
-0.0045255554
-0.0045494318
-0.0036945833
-0.0018210239
-0.00030709587
-0.00014760302
-0.0018605394
-0.003598563
-0.0050999516
-0.0056611235
-0.0045328711
-0.004300968
-0.0030308258
-0.0015932688
-0.0005674267
-0.00035728605
-0.0026605908
-0.0045444607
-0.0057705959
-0.0052914214
-0.0041798225
-0.0044926555
-0.0040423734
-0.0027434517
-0.00063635719
-0.00048320385
-0.0028820706
-0.0048534867
-0.0058440592
-0.0053153858
-0.0038801143
-0.0048010101
-0.0043979079
-0.0018620359
-0.00036838156
-0.00074024287
-0.0032868055
-0.0052559855
-0.006181873
-0.0052346308
-0.0046798493
-0.0046564977
-0.0027235505
-0.0016211719
-0.00067104789
-0.00049836359
-0.0028394734
-0.0048694473
-0.005261598
-0.0056631686
-0.0052471856
-0.0034821757
-0.0021252749
-0.0017213772
-0.00067345489
-0.001599411
-0.0035965874
-0.0041729573
-0.0058500654
-0.006157066
-0.0049486133
-0.0035342063
-0.0025828834
-0.0016969581
-0.00065476975
-2.0814127e-05
-0.00057266903
-0.0011806049
-0.002048137
-0.0022148413
-0.0023603524
-0.0030357965
-0.0036419612
-0.0015092239
0.00043428791
0.00066540684
-0.00056894669
-0.0026675782
-0.0025224855
-0.0025315302
-0.0029174067
-0.0036645765
-0.0036021088
-0.0026916616
-0.00063085902
-1.8329367e-05
-0.0016761755
-0.0028364886
-0.0026217988
-0.0032317252
-0.0036427516
-0.0035296904
-0.003101635
-0.0015870087
-0.00011336408
-0.00032591511
-0.0022248195
-0.0032942341
-0.0035106798
-0.0042412811
-0.0041100088
-0.0039028828
-0.0033469781
-0.0017746106
-0.00033959672
-0.00033455103
-0.0022498402
-0.0038246854
-0.0052656636
-0.0053620754
-0.0040129073
-0.0038959205
-0.0029177378
-0.0016856257
-0.00054932318
-0.00053704781
-0.0032417134
-0.0050039702
-0.0056410182
-0.0050037696
-0.003952596
-0.0042247395
-0.0038085065
-0.0024301187
-0.00054955707
-0.00070592351
-0.0035322129
-0.0050172649
-0.0056358284
-0.0052046584
-0.0036136118
-0.0042673923
-0.0037319785
-0.0018109464
-0.00056367715
-0.00095621777
-0.0037355969
-0.0052422982
-0.006007249
-0.0053256089
-0.0043240549
-0.0035983131
-0.0030163089
-0.0018318977
-0.00023282321
-0.00067936586
-0.0029919065
-0.0047621324
-0.0054519216
-0.0056661799
-0.0044278442
-0.003475185
-0.0022468702
-0.001494891
-0.00086592977
-0.0017445105
-0.0038133706
-0.0043252296
-0.0061058659
-0.0059811245
-0.0044493748
-0.0030000868
-0.0027002496
-0.0017136223
-0.00037864544
-0.00020466067
-0.0014631635
-0.0021496977
-0.002358435
-0.0020146858
-0.0021391557
-0.0028464154
-0.0034785093
-0.0011445992
0.00065124956
0.00038805568
-0.001625179
-0.0034453851
-0.0025931418
-0.0024397674
-0.0028745521
-0.0034615936
-0.0033022683
-0.002112003
-0.00032101635
-0.00031265121
-0.0023462392
-0.0029740657
-0.0025379243
-0.0033507385
-0.0035599841
-0.0028937535
-0.0023274322
-0.001021763
4.1521504e-05
-0.00047578074
-0.0024495104
-0.0032230449
-0.0035407525
-0.0042484569
-0.0033745988
-0.0029826372
-0.0031860745
-0.0013541829
1.9295404e-05
-0.00046907058
-0.0025257048
-0.0039217018
-0.0051735381
-0.0047453937
-0.0033094161
-0.0034332801
-0.0027687773
-0.0011051324
-8.7785075e-05
-0.00075917133
-0.0037856379
-0.005031756
-0.0049353623
-0.0044929905
-0.0035646204
-0.0036375915
-0.0034401586
-0.0016134348
-0.00012583375
-0.00095938839
-0.0039465183
-0.0044216471
-0.0049229718
-0.0049354206
-0.0034262766
-0.0039860606
-0.0034414706
-0.00093692651
1.2066592e-05
-0.0011692321
-0.0038329008
-0.004552836
-0.0054749153
-0.0051479404
-0.0041173921
-0.0036034174
-0.0024765005
-0.0012739692
-0.00028686835
-0.00084191034
-0.0027954814
-0.0043054703
-0.0053643141
-0.0051894971
-0.0040989579
-0.0030223964
-0.0027355985
-0.0013933923
-0.0001195131
-0.001814172
-0.0037100594
-0.0037949988
-0.0055582824
-0.0054071912
-0.0039491772
-0.0032639482
-0.0029329663
-0.00092055663
2.8354918e-05
-0.0004163931
-0.0023560851
-0.0028924801
-0.0026636475
-0.0022589827
-0.0022987149
-0.0026486592
-0.00286184
-0.00020749173
0.0010320561
0.00014847649
-0.002314926
-0.003877588
-0.0029690193
-0.0029288907
-0.0029031853
-0.0027447127
-0.0025124756
-0.0013556528
1.0317726e-05
-0.00038882516
-0.0024944382
-0.0030945089
-0.0028820598
-0.0035431341
-0.0029957361
-0.0020053451
-0.0015653515
-0.00029096392
0.000280264
-0.00050851452
-0.0025168854
-0.003251226
-0.0034618325
-0.003864451
-0.0025776225
-0.0020109307
-0.0027400818
-0.00073384703
0.00044879721
-0.00059224747
-0.002712634
-0.0035873449
-0.004582818
-0.0040338915
-0.0025126014
-0.0024235359
-0.001977709
-0.00053339203
0.00021281799
-0.00095497249
-0.0038011986
-0.0041870868
-0.0039524946
-0.0040280838
-0.0029721317
-0.0025842006
-0.0028342476
-0.0010287529
0.00019965973
-0.00099550486
-0.0034098982
-0.0032615149
-0.0040995841
-0.0044284
-0.0029187057
-0.0032526553
-0.0031179454
0.00011668365
0.000817993
-0.0010188792
-0.0031576254
-0.0034532507
-0.0043707178
-0.004601384
-0.0038012585
-0.0035500551
-0.0020040908
-0.00034371882
-9.5356673e-05
-0.00076259107
-0.0021134232
-0.003489165
-0.0045119882
-0.0045225915
-0.0040589394
-0.0024224956
-0.0015774918
-0.00034979991
0.00022260262
-0.0017843291
-0.0032411093
-0.0028314476
-0.0046131666
-0.0048962947
-0.0031511634
-0.0028650181
-0.0024705796
0.00029560218
0.00033491137
-0.00058438911
-0.0028562102
-0.0032983004
-0.0031440244
-0.0027415222
-0.0024015822
-0.0023908173
-0.0021919686
0.00078226534
0.0013792182
0.00011596569
-0.00243945
-0.0041402874
-0.0035054347
-0.0034412859
-0.0030068837
-0.0022571117
-0.0018647187
-0.0010580334
6.2478214e-05
-0.00030576179
-0.0023277265
-0.0032219902
-0.0032724034
-0.003801679
-0.0027591042
-0.0014647448
-0.00084236379
0.00035720044
0.00040782771
-0.00044649227
-0.0023632556
-0.0031327245
-0.0033751817
-0.003819356
-0.0023793569
-0.0010674217
-0.0017812199
-0.00034922254
0.00057370062
-0.00054662075
-0.0024552959
-0.0030912464
-0.0043293443
-0.0039641154
-0.00166745
-0.00089835027
-0.00094857351
-0.00075545614
-8.5623716e-05
-0.00091189427
-0.0034229018
-0.0035120761
-0.0035377017
-0.0036900921
-0.002111653
-0.0012297524
-0.0016270544
-0.00055581168
0.0002291581
-0.00095100838
-0.0028141692
-0.0024635955
-0.0032373824
-0.003696283
-0.0023776409
-0.0017974518
-0.0014089167
-0.00011180643
0.00022830665
-0.00082266105
-0.0024964599
-0.0023220229
-0.0029711161
-0.0038523764
-0.0030107698
-0.0018836023
-0.0018041205
-0.000938564
3.4606124e-05
-0.00073278266
-0.0014644193
-0.0023800399
-0.0033436357
-0.0035421997
-0.0028380288
-0.0019745283
-0.0013229715
-6.5691663e-05
-6.1718824e-05
-0.002049525
-0.0029215027
-0.0016131942
-0.0040838392
-0.0040590453
-0.0023671111
-0.0022663394
-0.0017580222
7.6423703e-05
0.00012935499
-0.00060724985
-0.0028164918
-0.0033488985
-0.0036463081
-0.0032225725
-0.0024588912
-0.0024437036
-0.0018724937
0.0013572292
0.0014835764
0.00033243045
-0.002143181
-0.0043755821
-0.0039946768
-0.0038281849
-0.0033750313
-0.0020922479
-0.0012585008
-0.001165067
-0.00012736418
-0.00015408167
-0.0020904801
-0.0033512991
-0.003511018
-0.0039334061
-0.0025883656
-0.00091434605
-0.00043170727
0.00048038194
0.00044785278
-0.00035578101
-0.0021470109
-0.0029639248
-0.0030094578
-0.0033175566
-0.0020794755
-0.00081719122
-0.0015443787
-0.0005651986
0.00038852013
-0.00038878808
-0.0019548976
-0.0023625699
-0.0033733664
-0.0036894709
-0.0017275472
-0.00055441601
-0.0006437902
-0.0005795928
-4.6420191e-05
-0.00075495618
-0.0028524079
-0.0024556855
-0.002766647
-0.0037729791
-0.0020640683
-0.00045309631
-0.00077077661
0.00042819955
0.00071193608
-0.0010008759
-0.0020876082
-0.0010686261
-0.0025128682
-0.0036738548
-0.0019979209
-0.0010427466
-0.00037651117
0.00038644575
4.9875311e-05
-0.00052096412
-0.0013234865
-0.0011803718
-0.002406193
-0.0034083723
-0.0025521862
-0.0015330813
-0.00096682667
-0.00070220471
-0.0002378559
-0.00059155987
-0.00064669502
-0.0013542181
-0.0027247058
-0.0029001315
-0.001730626
-0.0012388006
-0.0014941865
-0.00044047871
-0.00014983692
-0.0022025128
-0.002200281
-0.00058027359
-0.0034660805
-0.0024151556
-0.00158622
-0.0026634117
-0.0017937238
0.00024274445
0.00021762642
-0.00048510714
-0.0024452604
-0.0031067497
-0.003915325
-0.0036540844
-0.0023185544
-0.0023209246
-0.0017140273
0.0013548901
0.0012924252
0.0006241065
-0.0016990406
-0.004537812
-0.0041699551
-0.0035368948
-0.0033094589
-0.0022466172
-0.0011149028
-0.0015277606
-0.00041304489
3.253488e-05
-0.0018941247
-0.0031285434
-0.0030327701
-0.0038085054
-0.0027478239
-0.00088518206
-0.00039464331
0.00015081724
0.00029783386
-0.00033665165
-0.0017245903
-0.0022635998
-0.0030032467
-0.0032293453
-0.0014857004
-0.00083510943
-0.0013460299
-0.00030693973
0.00027973031
-0.00015408144
-0.001025774
-0.0019497292
-0.0031646121
-0.0025372521
-0.0011117788
-0.00079723642
-0.00050396213
0.00010252004
0.00026220481
-0.00024761715
-0.0018590516
-0.0019528987
-0.0017338434
-0.0025242901
-0.0016149635
-3.8959882e-05
-0.00019459677
-0.00037023849
9.642829e-05
-0.00081407567
-0.0014559377
-0.0001297463
-0.0015323717
-0.0026680213
-0.0012896697
-0.00091856779
-0.00048029051
0.00083836707
0.00043945852
-0.00019853263
-0.00042477072
-0.00054281958
-0.0016469962
-0.0017279523
-0.0017355145
-0.0023204529
-0.00090597547
0.00017646841
4.6767322e-07
-0.00041498318
-0.00013718793
-0.00036114795
-0.0016417636
-0.0015161849
-0.001265424
-0.0016296896
-0.0013849817
0.00021726984
0.00034475323
-0.0021205701
-0.0016293986
0.00067823925
-0.0016947154
-0.0017913412
-0.00099994713
-0.0017736608
-0.0015269261
9.4314492e-05
-8.1544043e-05
-0.00032353921
-0.0022540253
-0.0028654057
-0.0034246007
-0.0036579695
-0.0023764308
-0.0022224094
-0.0016507475
0.00099925137
0.00098264152
0.00066090242
-0.0013874288
-0.0041820893
-0.0040496075
-0.0035952513
-0.0029117737
-0.002266869
-0.0015654196
-0.0018237756
-0.00064160129
0.00033307157
-0.001443405
-0.003000043
-0.0027515345
-0.0031175784
-0.0025557351
-0.0018054056
-0.00061492011
0.00019911551
9.4193736e-05
-0.00020333636
-0.001508172
-0.0016719621
-0.0019747775
-0.0025127309
-0.0015555694
-0.0010947366
-0.00049144083
6.4055828e-05
6.3876276e-06
-0.00014434977
-0.00085570417
-0.00090937016
-0.0019269238
-0.0021431806
-0.001102802
-0.00067862906
0.00032275551
0.00012389195
-0.000174092
-0.00015369956
-0.00094085732
-0.00056156771
-0.00099144924
-0.0019729659
-0.0005529515
0.00026565262
0.0001266381
1.1482247e-05
-8.6218721e-05
-0.00049683702
-0.0010248289
0.00045385127
-0.0004774524
-0.0011479698
-0.00027730951
-0.00098613054
0.00034620143
0.0015695973
0.00038498803
-0.00018178741
-0.00052061467
0.00061266768
0.00013163884
-0.00061819466
-0.00086097216
-0.001116903
0.0005641752
0.00053781537
-0.00011434862
-0.00043971943
1.1925974e-05
0.0015288529
0.00045847789
-0.00053255172
-0.00025396147
-0.00054810479
-0.0004679263
0.00052904816
0.00037943289
-0.002064209
-0.0013221241
0.0025004161
5.7928955e-05
-0.00067027148
0.00058424848
-0.00059081074
-0.00047659325
0.00090178984
0.00013423347
-8.9531981e-05
-0.0020991292
-0.0029412952
-0.0030398041
-0.0029811969
-0.0018385741
-0.002377371
-0.0017578332
0.00090543524
0.00080440986
0.00035117278
-0.001390132
-0.0040568331
-0.0033441425
-0.0025627706
-0.0027838047
-0.0018592117
-0.00077493553
-0.0011365382
-0.00053038644
0.00062812675
-0.001174188
-0.0026210236
-0.001742871
-0.0024126429
-0.0022910276
-0.0014651011
-0.00067896727
-0.00076483013
-0.00028956916
-0.00023423104
-0.00090254176
-0.00029906857
-0.0010434417
-0.002099542
-0.00087081181
-0.00031116448
-0.00086584797
-0.00095463159
-0.00022207331
0.000319048
-0.00011868245
-0.00037220341
-0.00088465431
-0.0015562516
4.1153333e-05
0.00042406654
0.0002649015
-0.00036067564
-0.00045947346
1.9853648e-05
-0.00038930689
0.00019965287
-0.00013472852
-0.00065302595
0.0010352071
0.00043090714
-0.00030802744
0.00025364534
3.8543783e-05
-0.00031792721
-0.00059224694
0.0015685861
0.0014821912
0.00034319606
0.00061773816
-4.1279084e-05
0.00085426751
0.00086881632
-6.6347578e-05
0.00036364979
0.0005129648
0.0017652449
0.0017746815
7.8693313e-05
0.00056326301
0.00087557999
0.00078985999
0.0010187237
0.00042863154
0.00033642653
0.00048202896
0.001488752
0.0024382859
0.00089397948
0.0011998216
0.0010538543
0.00047779193
0.0017373593
0.00072043764
-0.0009983566
-0.0011629687
0.0019454712
0.0021843769
0.0012886434
0.0017907581
0.0016391232
0.001657935
-0.00014933209
-0.00082915365
0.00054522877
-0.00087590761
-0.0025146
-0.0027027824
-0.0022713442
-0.0010267626
-0.0018253817
-0.0015996649
-0.00026508612
9.769913e-05
-0.00035215606
-0.00087133733
-0.0027790982
-0.0031784847
-0.0013737385
-0.001808958
-0.00078440211
7.7662088e-05
-0.00016934402
9.7533969e-05
0.0011012807
-1.8999623e-05
-0.0030630508
-0.001958826
-0.0012271301
-0.0011875872
-0.00051189668
-0.00014132056
0.00046153281
0.00041207307
8.2297242e-05
-0.00071359011
0.00041179214
0.00065209832
-0.00072502945
-3.3448202e-05
-0.00029322027
5.0896825e-05
-0.00014125083
-0.00038681292
0.00087121384
0.0005038672
0.00045129713
0.001239322
0.00018561761
0.00073651804
0.00073308675
0.00047821081
-0.00071617253
-0.00066484559
0.00072672528
0.0001551554
0.00089632358
0.0021626545
0.0010613536
0.0015245873
0.001622377
0.00076627393
-0.00049832622
-0.00029123686
0.00037742543
0.00020205553
0.0021263028
0.003283362
0.0017871862
0.0017487687
0.0019558047
0.0012655766
-0.00060259682
-0.00044461854
0.0014390503
0.0013584906
0.0013107427
0.0035071033
0.0030280145
0.0027616226
0.0017071363
0.0013132138
0.00077741396
2.7635107e-05
0.0015046152
0.0015818839
0.0020403993
0.0039673544
0.0025480389
0.0025544073
0.00250784
0.00044447139
0.0003310214
0.00075740362
0.0015086847
0.002045597
0.0012875704
0.0023425559
0.0026992339
0.0028935755
0.0029918776
0.0022504597
0.00071136827
0.0002805928
0.0012955727
0.0017080891
-0.00073128313
-0.0026502808
-0.0017181126
-6.428453e-05
-0.0015191507
-0.0023548187
-0.0028972149
-0.0010407383
-0.0020411081
-0.0015373343
0.00031463724
-0.0010739561
0.0004860419
4.4396183e-05
-7.6488249e-05
-0.00020486666
-0.00081845462
-0.00025610999
-6.0578088e-05
0.0012977216
-0.0012922246
-0.0028756886
-0.00044249697
0.0011954039
0.0013228484
0.00078162842
0.0016286561
0.00048456698
-7.8801069e-05
-0.00058116334
0.0011873473
0.002167963
0.0013056495
0.002134947
0.00067767024
-0.00060125342
0.00049878494
0.00028717151
0.0018259315
0.0015331067
0.0010611574
0.0031477467
0.0031235189
0.0031441839
0.00066571361
-0.0001394958
-0.00021064332
-0.00020459839
0.0020891788
0.00097365288
0.0010325133
0.0055030184
0.0037248591
0.0028748611
0.00096168509
0.001500028
-0.00017716687
-0.001450601
0.0024899714
0.003042218
0.0022988513
0.0048252496
0.0038004992
0.004331061
0.0014986583
0.0018637763
-0.00043152409
-0.0021072421
0.0035436425
0.0040773622
0.0011088238
0.0045786801
0.0039251716
0.0036886478
0.0028674803
0.003160989
-0.00022061087
-0.0016729003
0.0042986394
0.0064485816
0.0014361585
0.0036566008
0.005800651
0.0062995177
0.0031493456
-0.00086448836
-0.00093301836
0.00024058941
0.005154768
0.0088430621
0.0021897034
0.0025104868
0.0031104363
0.0033977578
0.0027931669
0.0026483116
0.0061448237
0.0030471094
-5.3869943e-05
0.0018451032
0.0035580966
-0.0028980754
-0.0043871394
-0.001119762
-0.0039128797
-0.005483231
-0.0083742622
-0.0036940162
-0.0070759241
-0.010580826
0.0030722186
0.006630797
0.0066999008
0.004365943
-0.00073470608
-0.0058792
-0.014065942
-0.006786086
-0.0063672763
-0.0035949394
0.0038531427
-0.0021764756
-0.00042327125
0.003932313
0.0058664723
0.00041441243
-0.0068350326
-0.0037766092
-0.0036174864
-0.0040938218
0.0026389806
0.0019098677
-0.0006395446
0.00173648
0.00474633
0.00019678805
-0.0016830032
-7.5187093e-05
0.003281072
0.0031275673
0.00032947567
0.0051520601
0.003355944
0.0022525462
0.0035757425
-0.0011432933
-0.0029361872
-9.4864807e-05
0.0064507662
0.0048782072
-0.0034292567
0.0059962434
0.00691201
0.0044319506
0.003756934
0.0003268151
-0.0035022288
-0.0014797391
0.0091012867
0.012284519
-0.0011886821
0.0037655136
0.0060842868
0.0032251851
0.001439123
0.0058094494
-0.0028773528
-0.0053169081
0.010310592
0.018115209
0.0031476361
0.0039755232
0.005901194
0.0022243221
-0.0017063253
0.0073925051
0.00096420038
-0.0052899777
0.01011159
0.021059217
0.0062546839
0.0026990435
0.0062567143
0.010049472
0.0083769522
0.0014816033
-0.00902166
-0.0055035075
0.0070895927
0.021568571
0.017321637
0.0090022162
0.0046034029
0.0023865982
0.0026404984
0.0010956287
0.0017123899
0.0019062021
-0.00071133043
-0.0032320223
-0.0028574788
0.0038771529
0.0063616643
0.0043986959
0.005543386
0.0070275311
0.0095889593
0.0036654517
0.0074376484
0.010499082
-0.0035941845
-0.0045358868
-0.0018849569
-0.00074877571
0.002685937
0.008354233
0.014852815
0.0064316204
0.0065364617
0.0028083608
-0.0032691195
0.0073643044
0.0071057869
0.0010757676
-0.0024887754
0.0014474651
0.0067644732
0.0034807733
0.0032874421
0.0040722506
0.0014093484
0.0063712918
0.0090196992
0.0043352233
-0.0013706704
0.0011320121
0.001988691
4.4969075e-05
-0.0022484164
0.00045617352
0.0064209373
0.0048835555
0.0066241572
0.0045646422
0.00016597588
0.00396439
0.0034228868
-0.00040495232
-0.0047727821
-3.9284544e-05
0.011019021
0.0055774593
0.0038105028
0.0031883727
0.0012515997
0.0024460799
0.0038883093
0.0010917548
-0.0077443592
-0.0068407917
0.01037082
0.0080727414
0.0054433434
0.0057206242
0.00371869
-0.0017648957
0.0061905851
0.0059461476
-0.0083394079
-0.011421925
0.0058492928
0.0079555867
0.0064525834
0.0068115885
0.0087879263
-0.00078545071
0.0019395783
0.0053069799
-0.0080808789
-0.015222754
0.0017726722
0.010094978
0.0067161999
0.00012113052