/*--------------------------------*- C++ -*----------------------------------*\
| =========                 |                                                 |
| \\      /  F ield         | OpenFOAM: The Open Source CFD Toolbox           |
|  \\    /   O peration     | Version:  v2106                                 |
|   \\  /    A nd           | Website:  www.openfoam.com                      |
|    \\/     M anipulation  |                                                 |
\*---------------------------------------------------------------------------*/
FoamFile
{
    version     2.0;
    format      ascii;
    arch        "LSB;label=32;scalar=64";
    class       volScalarField;
    location    "30";
    object      gradTz;
}
// * * * * * * * * * * * * * * * * * * * * * * * * * * * * * * * * * * * * * //

dimensions      [0 -1 0 1 0 0 0];

internalField   nonuniform List<scalar> 
10000
(
2999.7371
2999.737
2999.7376
2999.7391
2999.7405
2999.741
2999.742
2999.7419
2999.7415
2999.7426
2999.737
2999.7371
2999.738
2999.7397
2999.7409
2999.7418
2999.7424
2999.742
2999.7423
2999.7425
2999.7376
2999.738
2999.7391
2999.7404
2999.7415
2999.742
2999.7423
2999.7424
2999.7427
2999.7428
2999.7391
2999.7397
2999.7404
2999.7415
2999.7422
2999.7417
2999.7428
2999.7427
2999.7423
2999.7425
2999.7405
2999.7409
2999.7415
2999.7422
2999.7417
2999.7423
2999.7427
2999.7416
2999.7424
2999.7423
2999.741
2999.7418
2999.742
2999.7417
2999.7423
2999.7422
2999.742
2999.7425
2999.7426
2999.7415
2999.742
2999.7424
2999.7423
2999.7428
2999.7427
2999.742
2999.7427
2999.742
2999.7421
2999.7422
2999.7419
2999.742
2999.7424
2999.7427
2999.7416
2999.7425
2999.742
2999.7424
2999.7441
2999.7434
2999.7415
2999.7423
2999.7427
2999.7423
2999.7424
2999.7426
2999.7421
2999.7441
2999.7444
2999.7426
2999.7426
2999.7425
2999.7428
2999.7425
2999.7423
2999.7415
2999.7422
2999.7434
2999.7426
2999.7411
2999.7377
2999.7381
2999.739
2999.7399
2999.7408
2999.7417
2999.7415
2999.7416
2999.7415
2999.7416
2999.7381
2999.7388
2999.7395
2999.7404
2999.7414
2999.7417
2999.7417
2999.7419
2999.7417
2999.7417
2999.739
2999.7395
2999.7402
2999.7411
2999.7414
2999.7419
2999.7422
2999.7421
2999.7416
2999.7415
2999.7399
2999.7404
2999.7411
2999.7411
2999.7416
2999.7422
2999.7418
2999.7415
2999.7411
2999.7409
2999.7408
2999.7414
2999.7414
2999.7416
2999.7419
2999.7418
2999.7416
2999.7408
2999.7405
2999.7405
2999.7417
2999.7417
2999.7419
2999.7422
2999.7418
2999.7418
2999.7409
2999.7403
2999.7404
2999.7404
2999.7415
2999.7417
2999.7422
2999.7418
2999.7416
2999.7409
2999.7409
2999.7406
2999.7403
2999.7399
2999.7416
2999.7419
2999.7421
2999.7415
2999.7408
2999.7403
2999.7406
2999.7398
2999.7394
2999.7392
2999.7415
2999.7417
2999.7416
2999.7411
2999.7405
2999.7404
2999.7403
2999.7394
2999.7394
2999.7387
2999.7416
2999.7417
2999.7415
2999.7409
2999.7405
2999.7404
2999.7399
2999.7392
2999.7387
2999.7388
2999.7393
2999.7398
2999.7403
2999.7412
2999.741
2999.7412
2999.7409
2999.7408
2999.7405
2999.7404
2999.7398
2999.7408
2999.7413
2999.7415
2999.7414
2999.7417
2999.7411
2999.7408
2999.7405
2999.7399
2999.7403
2999.7413
2999.7409
2999.7413
2999.7412
2999.7414
2999.7412
2999.7406
2999.7399
2999.7395
2999.7412
2999.7415
2999.7413
2999.7414
2999.7414
2999.7416
2999.7406
2999.7395
2999.739
2999.7389
2999.741
2999.7414
2999.7412
2999.7414
2999.7413
2999.7407
2999.7394
2999.7388
2999.7386
2999.7385
2999.7412
2999.7417
2999.7414
2999.7416
2999.7407
2999.74
2999.739
2999.7384
2999.738
2999.7377
2999.7409
2999.7411
2999.7412
2999.7406
2999.7394
2999.739
2999.7383
2999.7372
2999.7366
2999.7364
2999.7408
2999.7408
2999.7406
2999.7395
2999.7388
2999.7384
2999.7372
2999.7358
2999.7356
2999.7355
2999.7405
2999.7405
2999.7399
2999.739
2999.7386
2999.738
2999.7366
2999.7356
2999.735
2999.7352
2999.7404
2999.7399
2999.7395
2999.7389
2999.7385
2999.7377
2999.7364
2999.7355
2999.7352
2999.7353
2999.7403
2999.7413
2999.741
2999.7409
2999.7404
2999.7399
2999.7394
2999.7388
2999.7383
2999.7385
2999.7413
2999.742
2999.7417
2999.7415
2999.7405
2999.7402
2999.7398
2999.7387
2999.7381
2999.7376
2999.741
2999.7417
2999.7411
2999.7408
2999.7406
2999.7398
2999.7389
2999.7379
2999.7372
2999.7368
2999.7409
2999.7415
2999.7408
2999.7407
2999.7402
2999.7392
2999.7381
2999.737
2999.7364
2999.7361
2999.7404
2999.7405
2999.7406
2999.7402
2999.7393
2999.7379
2999.7369
2999.7362
2999.7357
2999.7354
2999.7399
2999.7402
2999.7398
2999.7392
2999.7379
2999.7369
2999.7363
2999.7352
2999.7345
2999.7341
2999.7394
2999.7398
2999.7389
2999.7381
2999.7369
2999.7363
2999.7351
2999.7334
2999.7331
2999.733
2999.7388
2999.7387
2999.7379
2999.737
2999.7362
2999.7352
2999.7334
2999.7325
2999.7323
2999.7322
2999.7383
2999.7381
2999.7372
2999.7364
2999.7357
2999.7345
2999.7331
2999.7323
2999.7312
2999.7324
2999.7385
2999.7376
2999.7368
2999.7361
2999.7354
2999.7341
2999.733
2999.7322
2999.7324
2999.7319
2999.7401
2999.7407
2999.7401
2999.7392
2999.7384
2999.7377
2999.7366
2999.7356
2999.7349
2999.735
2999.7407
2999.741
2999.7401
2999.7393
2999.7384
2999.7372
2999.7363
2999.7354
2999.7345
2999.7338
2999.7401
2999.7401
2999.7397
2999.7389
2999.738
2999.7366
2999.7353
2999.7342
2999.7334
2999.733
2999.7392
2999.7393
2999.7389
2999.7381
2999.7368
2999.7353
2999.7341
2999.7332
2999.7325
2999.7323
2999.7384
2999.7384
2999.738
2999.7368
2999.7352
2999.734
2999.7332
2999.7324
2999.7316
2999.7313
2999.7377
2999.7372
2999.7366
2999.7353
2999.734
2999.7332
2999.7324
2999.7311
2999.7304
2999.7299
2999.7366
2999.7363
2999.7353
2999.7341
2999.7332
2999.7324
2999.7311
2999.7299
2999.7296
2999.7294
2999.7356
2999.7354
2999.7342
2999.7332
2999.7324
2999.7311
2999.7299
2999.7294
2999.7285
2999.7287
2999.7349
2999.7345
2999.7334
2999.7325
2999.7316
2999.7304
2999.7296
2999.7285
2999.7288
2999.7283
2999.735
2999.7338
2999.733
2999.7323
2999.7313
2999.7299
2999.7294
2999.7287
2999.7283
2999.7282
2999.7373
2999.7369
2999.7361
2999.7354
2999.7342
2999.7331
2999.732
2999.7312
2999.7303
2999.7301
2999.7369
2999.737
2999.736
2999.7351
2999.734
2999.7325
2999.7312
2999.7304
2999.7296
2999.729
2999.7361
2999.736
2999.7355
2999.7344
2999.7329
2999.7314
2999.7301
2999.7293
2999.7287
2999.7286
2999.7354
2999.7351
2999.7344
2999.7331
2999.7315
2999.7302
2999.7292
2999.7284
2999.7279
2999.7278
2999.7342
2999.734
2999.7329
2999.7315
2999.73
2999.729
2999.7282
2999.7273
2999.7269
2999.7265
2999.7331
2999.7325
2999.7314
2999.7302
2999.729
2999.7282
2999.7273
2999.7264
2999.7258
2999.7256
2999.732
2999.7312
2999.7301
2999.7292
2999.7282
2999.7273
2999.7265
2999.7258
2999.725
2999.725
2999.7312
2999.7304
2999.7293
2999.7284
2999.7273
2999.7264
2999.7258
2999.7251
2999.7242
2999.7245
2999.7303
2999.7296
2999.7287
2999.7279
2999.7269
2999.7258
2999.725
2999.7242
2999.725
2999.724
2999.7301
2999.729
2999.7286
2999.7278
2999.7265
2999.7256
2999.725
2999.7245
2999.724
2999.7245
2999.731
2999.7305
2999.7299
2999.7293
2999.7282
2999.7271
2999.7262
2999.7257
2999.725
2999.7249
2999.7305
2999.7303
2999.7296
2999.7286
2999.7275
2999.7265
2999.7255
2999.725
2999.7245
2999.7242
2999.7299
2999.7296
2999.7289
2999.7277
2999.7263
2999.7254
2999.7246
2999.7242
2999.7239
2999.724
2999.7293
2999.7286
2999.7277
2999.7264
2999.7252
2999.7244
2999.7238
2999.7232
2999.723
2999.7231
2999.7282
2999.7275
2999.7263
2999.7252
2999.7241
2999.7233
2999.7226
2999.7222
2999.7223
2999.7221
2999.7271
2999.7265
2999.7254
2999.7244
2999.7233
2999.7225
2999.7222
2999.7219
2999.7213
2999.7215
2999.7262
2999.7255
2999.7246
2999.7238
2999.7226
2999.7222
2999.722
2999.7215
2999.7207
2999.721
2999.7257
2999.725
2999.7242
2999.7232
2999.7222
2999.7219
2999.7215
2999.7209
2999.7212
2999.7205
2999.725
2999.7245
2999.7239
2999.723
2999.7223
2999.7213
2999.7207
2999.7212
2999.7199
2999.721
2999.7249
2999.7242
2999.724
2999.7231
2999.7221
2999.7215
2999.721
2999.7205
2999.721
2999.721
2999.7236
2999.723
2999.7227
2999.722
2999.7212
2999.7208
2999.7205
2999.7203
2999.7199
2999.7199
2999.723
2999.7227
2999.7221
2999.7212
2999.7204
2999.7201
2999.7199
2999.7197
2999.7195
2999.7195
2999.7227
2999.7221
2999.7211
2999.7202
2999.7196
2999.7193
2999.7192
2999.7192
2999.7191
2999.7195
2999.722
2999.7212
2999.7202
2999.7194
2999.719
2999.7186
2999.7185
2999.7184
2999.7188
2999.7187
2999.7212
2999.7204
2999.7196
2999.719
2999.7182
2999.7179
2999.7179
2999.7182
2999.7184
2999.7182
2999.7208
2999.7201
2999.7193
2999.7186
2999.7179
2999.7178
2999.718
2999.718
2999.7175
2999.7176
2999.7205
2999.7199
2999.7192
2999.7185
2999.7179
2999.718
2999.7182
2999.7179
2999.718
2999.7178
2999.7203
2999.7197
2999.7192
2999.7184
2999.7182
2999.718
2999.7179
2999.7181
2999.7182
2999.7175
2999.7199
2999.7195
2999.7191
2999.7188
2999.7184
2999.7175
2999.718
2999.7182
2999.7177
2999.7178
2999.7199
2999.7195
2999.7195
2999.7187
2999.7182
2999.7176
2999.7178
2999.7175
2999.7178
2999.7173
2999.717
2999.7165
2999.7161
2999.7152
2999.7148
2999.7151
2999.7153
2999.7153
2999.7151
2999.7154
2999.7165
2999.7161
2999.7152
2999.7143
2999.7142
2999.7146
2999.7147
2999.7148
2999.7147
2999.715
2999.7161
2999.7152
2999.7141
2999.7137
2999.7138
2999.7139
2999.714
2999.7144
2999.7147
2999.7151
2999.7152
2999.7143
2999.7137
2999.7136
2999.7135
2999.7134
2999.7139
2999.7143
2999.7147
2999.7146
2999.7148
2999.7142
2999.7138
2999.7135
2999.7131
2999.7136
2999.7139
2999.7145
2999.7144
2999.7143
2999.7151
2999.7146
2999.7139
2999.7134
2999.7136
2999.7137
2999.7141
2999.7142
2999.7142
2999.7141
2999.7153
2999.7147
2999.714
2999.7139
2999.7139
2999.7141
2999.7145
2999.7148
2999.7154
2999.7148
2999.7153
2999.7148
2999.7144
2999.7143
2999.7145
2999.7142
2999.7148
2999.7156
2999.7145
2999.715
2999.7151
2999.7147
2999.7147
2999.7147
2999.7144
2999.7142
2999.7154
2999.7145
2999.7157
2999.7145
2999.7154
2999.715
2999.7151
2999.7146
2999.7143
2999.7141
2999.7148
2999.715
2999.7145
2999.7146
2999.7128
2999.7123
2999.7114
2999.7105
2999.7106
2999.711
2999.7112
2999.7114
2999.7114
2999.7118
2999.7123
2999.7117
2999.7104
2999.7099
2999.7101
2999.7104
2999.7105
2999.7107
2999.7109
2999.7115
2999.7114
2999.7104
2999.7097
2999.7097
2999.7099
2999.7098
2999.7101
2999.7108
2999.7114
2999.7117
2999.7105
2999.7099
2999.7097
2999.7099
2999.7098
2999.7099
2999.7109
2999.7114
2999.7114
2999.7119
2999.7106
2999.7101
2999.7099
2999.7098
2999.7098
2999.7107
2999.711
2999.7115
2999.7113
2999.712
2999.711
2999.7104
2999.7098
2999.7099
2999.7107
2999.7107
2999.7113
2999.7115
2999.7119
2999.7127
2999.7112
2999.7105
2999.7101
2999.7109
2999.711
2999.7113
2999.7115
2999.7121
2999.7125
2999.713
2999.7114
2999.7107
2999.7108
2999.7114
2999.7115
2999.7115
2999.7121
2999.7126
2999.7123
2999.7129
2999.7114
2999.7109
2999.7114
2999.7114
2999.7113
2999.7119
2999.7125
2999.7123
2999.7118
2999.7127
2999.7118
2999.7115
2999.7117
2999.7119
2999.712
2999.7127
2999.713
2999.7129
2999.7127
2999.7137
2999.7114
2999.7108
2999.7096
2999.7091
2999.709
2999.7091
2999.7091
2999.7094
2999.7098
2999.7107
2999.7108
2999.71
2999.7091
2999.7088
2999.7086
2999.7084
2999.7086
2999.7093
2999.7097
2999.7107
2999.7096
2999.7091
2999.7088
2999.7088
2999.7085
2999.7085
2999.7092
2999.71
2999.7107
2999.7113
2999.7091
2999.7088
2999.7088
2999.7089
2999.7089
2999.7092
2999.7104
2999.7111
2999.711
2999.7122
2999.709
2999.7086
2999.7085
2999.7089
2999.7092
2999.7102
2999.7107
2999.7117
2999.7117
2999.7128
2999.7091
2999.7084
2999.7085
2999.7092
2999.7102
2999.7102
2999.7112
2999.7119
2999.7121
2999.7133
2999.7091
2999.7086
2999.7092
2999.7104
2999.7107
2999.7112
2999.7114
2999.7122
2999.712
2999.7141
2999.7094
2999.7093
2999.71
2999.7111
2999.7117
2999.7119
2999.7122
2999.7119
2999.7132
2999.7134
2999.7098
2999.7097
2999.7107
2999.711
2999.7117
2999.7121
2999.712
2999.7132
2999.7127
2999.7143
2999.7107
2999.7107
2999.7113
2999.7122
2999.7128
2999.7133
2999.7141
2999.7134
2999.7143
2999.7154
2999.7124
2999.7118
2999.711
2999.7107
2999.7102
2999.71
2999.71
2999.7104
2999.7113
2999.7123
2999.7118
2999.7114
2999.711
2999.7107
2999.7101
2999.7097
2999.71
2999.7109
2999.7114
2999.712
2999.711
2999.711
2999.711
2999.7108
2999.7103
2999.7103
2999.7111
2999.7118
2999.7126
2999.7131
2999.7107
2999.7107
2999.7108
2999.7108
2999.7109
2999.7113
2999.7119
2999.7132
2999.7133
2999.7142
2999.7102
2999.7101
2999.7103
2999.7109
2999.7111
2999.7117
2999.7128
2999.7143
2999.7146
2999.7146
2999.71
2999.7097
2999.7103
2999.7113
2999.7117
2999.7121
2999.7132
2999.7145
2999.715
2999.7155
2999.71
2999.71
2999.7111
2999.7119
2999.7128
2999.7132
2999.7138
2999.7154
2999.7159
2999.7162
2999.7104
2999.7109
2999.7118
2999.7132
2999.7143
2999.7145
2999.7154
2999.7162
2999.716
2999.7165
2999.7113
2999.7114
2999.7126
2999.7133
2999.7146
2999.715
2999.7159
2999.716
2999.7173
2999.7174
2999.7123
2999.712
2999.7131
2999.7142
2999.7146
2999.7155
2999.7162
2999.7165
2999.7174
2999.7175
2999.715
2999.7148
2999.7146
2999.7143
2999.7136
2999.7133
2999.7134
2999.7135
2999.7144
2999.7151
2999.7148
2999.715
2999.7149
2999.7145
2999.7139
2999.7136
2999.7134
2999.7143
2999.7147
2999.7145
2999.7146
2999.7149
2999.715
2999.7147
2999.7143
2999.7143
2999.7148
2999.7154
2999.7159
2999.7161
2999.7143
2999.7145
2999.7147
2999.7148
2999.7151
2999.7154
2999.7156
2999.7166
2999.7168
2999.7167
2999.7136
2999.7139
2999.7143
2999.7151
2999.7156
2999.7155
2999.7163
2999.7173
2999.7177
2999.7173
2999.7133
2999.7136
2999.7143
2999.7154
2999.7155
2999.7156
2999.7164
2999.7177
2999.7184
2999.7192
2999.7134
2999.7134
2999.7148
2999.7156
2999.7163
2999.7164
2999.7173
2999.7186
2999.72
2999.7189
2999.7135
2999.7143
2999.7154
2999.7166
2999.7173
2999.7177
2999.7186
2999.7198
2999.7196
2999.7194
2999.7144
2999.7147
2999.7159
2999.7168
2999.7177
2999.7184
2999.72
2999.7196
2999.7201
2999.7195
2999.7151
2999.7145
2999.7161
2999.7167
2999.7173
2999.7192
2999.7189
2999.7194
2999.7195
2999.7194
2999.7182
2999.7184
2999.7186
2999.7186
2999.7179
2999.7177
2999.718
2999.7177
2999.7184
2999.7183
2999.7184
2999.7191
2999.7191
2999.7188
2999.7185
2999.7187
2999.7182
2999.7187
2999.7189
2999.7182
2999.7186
2999.7191
2999.7191
2999.7192
2999.7193
2999.7192
2999.7193
2999.7198
2999.7198
2999.7196
2999.7186
2999.7188
2999.7192
2999.7196
2999.7196
2999.7202
2999.7205
2999.7204
2999.7209
2999.7205
2999.7179
2999.7185
2999.7193
2999.7196
2999.7205
2999.721
2999.721
2999.7211
2999.7215
2999.722
2999.7177
2999.7187
2999.7192
2999.7202
2999.721
2999.7214
2999.7215
2999.7226
2999.723
2999.7228
2999.718
2999.7182
2999.7193
2999.7205
2999.721
2999.7215
2999.7221
2999.7224
2999.723
2999.7234
2999.7177
2999.7187
2999.7198
2999.7204
2999.7211
2999.7226
2999.7224
2999.7221
2999.7233
2999.7232
2999.7184
2999.7189
2999.7198
2999.7209
2999.7215
2999.723
2999.723
2999.7233
2999.723
2999.7236
2999.7183
2999.7182
2999.7196
2999.7205
2999.722
2999.7228
2999.7234
2999.7232
2999.7236
2999.7233
2999.7212
2999.7216
2999.7217
2999.7221
2999.7219
2999.7216
2999.722
2999.7219
2999.7223
2999.7215
2999.7216
2999.7221
2999.7224
2999.7223
2999.7223
2999.7225
2999.7228
2999.7224
2999.7225
2999.7217
2999.7217
2999.7224
2999.7223
2999.7227
2999.7231
2999.7236
2999.7231
2999.7227
2999.7229
2999.7224
2999.7221
2999.7223
2999.7227
2999.7236
2999.7238
2999.7244
2999.7243
2999.7242
2999.7254
2999.7248
2999.722
2999.7223
2999.7231
2999.7238
2999.7245
2999.7253
2999.7251
2999.7252
2999.7261
2999.7259
2999.7216
2999.7225
2999.7235
2999.7244
2999.7253
2999.7262
2999.7268
2999.727
2999.7277
2999.7265
2999.722
2999.7228
2999.7231
2999.7243
2999.7251
2999.7268
2999.7268
2999.7269
2999.7276
2999.7281
2999.7219
2999.7224
2999.7227
2999.7242
2999.7252
2999.727
2999.7269
2999.7274
2999.7284
2999.7286
2999.7223
2999.7225
2999.7229
2999.7254
2999.7261
2999.7277
2999.7276
2999.7284
2999.7286
2999.7294
2999.7215
2999.7217
2999.7224
2999.7248
2999.7259
2999.7265
2999.7281
2999.7286
2999.7294
2999.7293
2999.723
2999.7236
2999.7234
2999.7238
2999.7243
2999.7245
2999.7247
2999.7244
2999.7247
2999.724
2999.7238
2999.7234
2999.7241
2999.7239
2999.7249
2999.7249
2999.7255
2999.7252
2999.7258
2999.7256
2999.7232
2999.724
2999.7239
2999.7246
2999.7252
2999.726
2999.7256
2999.7254
2999.7253
2999.7245
2999.7238
2999.724
2999.7246
2999.7259
2999.7266
2999.7271
2999.7272
2999.7276
2999.7277
2999.7269
2999.7243
2999.725
2999.7252
2999.7266
2999.7275
2999.7276
2999.7286
2999.7288
2999.7294
2999.7283
2999.7245
2999.7249
2999.7259
2999.727
2999.7275
2999.7289
2999.7302
2999.7294
2999.7301
2999.73
2999.7247
2999.7255
2999.7256
2999.7272
2999.7286
2999.7302
2999.7305
2999.7311
2999.7319
2999.7311
2999.7244
2999.7253
2999.7253
2999.7276
2999.7288
2999.7294
2999.7311
2999.7326
2999.7328
2999.7334
2999.7247
2999.7258
2999.7253
2999.7277
2999.7294
2999.7301
2999.7319
2999.7328
2999.7337
2999.7343
2999.724
2999.7256
2999.7244
2999.7269
2999.7283
2999.73
2999.7311
2999.7334
2999.7343
2999.7332
2999.7228
2999.7241
2999.7242
2999.7245
2999.7249
2999.7259
2999.7263
2999.7262
2999.7263
2999.725
2999.725
2999.7234
2999.7255
2999.7249
2999.7264
2999.7271
2999.7275
2999.7286
2999.7291
2999.7302
2999.7238
2999.7249
2999.7252
2999.7249
2999.726
2999.7267
2999.7274
2999.728
2999.7278
2999.7283
2999.7242
2999.7246
2999.725
2999.7267
2999.7276
2999.7285
2999.7292
2999.7293
2999.7297
2999.7291
2999.7248
2999.7264
2999.7262
2999.7277
2999.7294
2999.7301
2999.7312
2999.7315
2999.7314
2999.7306
2999.7258
2999.7272
2999.7269
2999.7286
2999.7301
2999.7316
2999.7322
2999.733
2999.7328
2999.7325
2999.7262
2999.7276
2999.7275
2999.7292
2999.7312
2999.7322
2999.7333
2999.7351
2999.7342
2999.7329
2999.7262
2999.7287
2999.7281
2999.7294
2999.7315
2999.733
2999.7351
2999.7358
2999.7359
2999.7361
2999.7263
2999.7292
2999.7279
2999.7297
2999.7314
2999.7328
2999.7342
2999.7359
2999.7351
2999.7357
2999.725
2999.7303
2999.7283
2999.7291
2999.7306
2999.7325
2999.7329
2999.7361
2999.7357
2999.7359
2999.72
2999.7221
2999.7239
2999.7243
2999.7242
2999.7256
2999.726
2999.7265
2999.7254
2999.7227
2999.7256
2999.722
2999.7254
2999.7263
2999.7277
2999.7294
2999.7305
2999.7312
2999.7311
2999.7315
2999.7248
2999.7238
2999.7273
2999.7251
2999.7261
2999.7271
2999.7296
2999.7299
2999.7311
2999.7323
2999.7242
2999.7244
2999.7245
2999.7259
2999.7277
2999.7293
2999.7307
2999.7303
2999.731
2999.7318
2999.7239
2999.7262
2999.7256
2999.7276
2999.7296
2999.7323
2999.7327
2999.7325
2999.7323
2999.7327
2999.7252
2999.7283
2999.7266
2999.7292
2999.7322
2999.7335
2999.7341
2999.7341
2999.7359
2999.7336
2999.7257
2999.7299
2999.7293
2999.7306
2999.7326
2999.7341
2999.7364
2999.7356
2999.7374
2999.7343
2999.7261
2999.7309
2999.7297
2999.7302
2999.7325
2999.7341
2999.7356
2999.7361
2999.738
2999.7348
2999.7251
2999.731
2999.731
2999.731
2999.7322
2999.7359
2999.7373
2999.738
2999.736
2999.7353
2999.7223
2999.7315
2999.7323
2999.7318
2999.7326
2999.7336
2999.7343
2999.7348
2999.7352
2999.7411
2999.7143
2999.7134
2999.717
2999.7195
2999.7168
2999.7174
2999.7168
2999.7153
2999.7129
2999.7072
2999.7249
2999.7148
2999.7152
2999.7207
2999.725
2999.7287
2999.7312
2999.7288
2999.7252
2999.7149
2999.7297
2999.7185
2999.7261
2999.7254
2999.7259
2999.7262
2999.731
2999.7326
2999.7316
2999.7253
2999.7295
2999.7239
2999.7261
2999.7262
2999.7274
2999.7262
2999.7291
2999.7313
2999.7293
2999.7297
2999.724
2999.7277
2999.7267
2999.7275
2999.7306
2999.7307
2999.7321
2999.7336
2999.7305
2999.7313
2999.7222
2999.7308
2999.7269
2999.7265
2999.7308
2999.7323
2999.7337
2999.7344
2999.7332
2999.7314
2999.7196
2999.7327
2999.7317
2999.7294
2999.7322
2999.7337
2999.7336
2999.7332
2999.7382
2999.7309
2999.7165
2999.7298
2999.7333
2999.7316
2999.7337
2999.7345
2999.7332
2999.7311
2999.7393
2999.7313
2999.7127
2999.7256
2999.7322
2999.7299
2999.7309
2999.7336
2999.7384
2999.7394
2999.7395
2999.7301
2999.7061
2999.7145
2999.7256
2999.7305
2999.7323
2999.7324
2999.7318
2999.7321
2999.7306
2999.7331
2999.7367
2999.7337
2999.7318
2999.7316
2999.7383
2999.7397
2999.7428
2999.7467
2999.7521
2999.7592
2999.7182
2999.7325
2999.7303
2999.7286
2999.7268
2999.7262
2999.726
2999.7289
2999.7346
2999.7446
2999.7193
2999.7292
2999.7208
2999.7272
2999.731
2999.7348
2999.7309
2999.7309
2999.7316
2999.7361
2999.7222
2999.7272
2999.7268
2999.7275
2999.731
2999.7352
2999.7332
2999.7331
2999.735
2999.7346
2999.7317
2999.7256
2999.7306
2999.7309
2999.7323
2999.7344
2999.7338
2999.7339
2999.7379
2999.7376
2999.7353
2999.7251
2999.7343
2999.735
2999.7344
2999.7351
2999.7347
2999.7354
2999.7357
2999.7395
2999.7404
2999.725
2999.7305
2999.7331
2999.7337
2999.7347
2999.7351
2999.7369
2999.7315
2999.7436
2999.7459
2999.7281
2999.7304
2999.7328
2999.7338
2999.7354
2999.7369
2999.7413
2999.733
2999.7434
2999.7527
2999.7341
2999.731
2999.7344
2999.7374
2999.7353
2999.7312
2999.7328
2999.737
2999.7451
2999.7606
2999.7448
2999.7357
2999.7338
2999.7366
2999.7385
2999.7427
2999.7427
2999.7446
2999.7395
2999.7377
2999.7353
2999.7305
2999.7314
2999.7389
2999.7411
2999.745
2999.7473
2999.7503
2999.7605
2999.7222
2999.7359
2999.7369
2999.7347
2999.7327
2999.7302
2999.7312
2999.7329
2999.737
2999.7515
2999.7177
2999.7339
2999.726
2999.7304
2999.7322
2999.7344
2999.7325
2999.731
2999.7325
2999.7417
2999.7211
2999.7313
2999.7295
2999.731
2999.7322
2999.7347
2999.7349
2999.7332
2999.7341
2999.7359
2999.7314
2999.7298
2999.7312
2999.732
2999.7305
2999.7331
2999.7334
2999.7308
2999.7353
2999.7359
2999.7361
2999.728
2999.7335
2999.7344
2999.733
2999.7316
2999.7322
2999.7314
2999.734
2999.7357
2999.742
2999.7295
2999.7317
2999.7346
2999.7333
2999.7322
2999.7343
2999.7336
2999.7291
2999.739
2999.746
2999.7317
2999.7303
2999.7328
2999.7306
2999.7313
2999.7336
2999.7396
2999.7303
2999.738
2999.7504
2999.7363
2999.7318
2999.7335
2999.735
2999.7338
2999.729
2999.7303
2999.7307
2999.7411
2999.7619
2999.7519
2999.7414
2999.7351
2999.7349
2999.7347
2999.738
2999.7371
2999.7404
2999.7379
2999.7191
2999.7219
2999.7242
2999.7265
2999.7261
2999.7256
2999.7261
2999.7238
2999.7189
2999.716
2999.7337
2999.7219
2999.7246
2999.7293
2999.734
2999.7364
2999.7395
2999.7366
2999.7314
2999.7237
2999.7359
2999.7274
2999.736
2999.7344
2999.7333
2999.7315
2999.7357
2999.7376
2999.7364
2999.7327
2999.736
2999.7325
2999.7353
2999.7338
2999.7328
2999.7294
2999.7325
2999.7342
2999.7316
2999.7333
2999.7331
2999.7367
2999.7343
2999.7331
2999.732
2999.7297
2999.7319
2999.7317
2999.7289
2999.7306
2999.7303
2999.7385
2999.7324
2999.7298
2999.7298
2999.7297
2999.7298
2999.7305
2999.7303
2999.7285
2999.7288
2999.7411
2999.7365
2999.7328
2999.732
2999.7298
2999.7298
2999.7294
2999.7337
2999.7257
2999.7249
2999.7377
2999.7384
2999.7346
2999.7318
2999.7305
2999.7294
2999.7266
2999.735
2999.7254
2999.7187
2999.7319
2999.7371
2999.7322
2999.7294
2999.7307
2999.734
2999.7352
2999.7327
2999.7235
2999.7149
2999.7234
2999.7331
2999.7341
2999.7316
2999.7295
2999.7266
2999.7262
2999.724
2999.7254
2999.73
2999.735
2999.7388
2999.7395
2999.7389
2999.7394
2999.7387
2999.7411
2999.7421
2999.7398
2999.7358
2999.7342
2999.7341
2999.7371
2999.7373
2999.7393
2999.7387
2999.7401
2999.7412
2999.7371
2999.7395
2999.7343
2999.7363
2999.7373
2999.7374
2999.7388
2999.7391
2999.7401
2999.7403
2999.7378
2999.74
2999.7373
2999.7374
2999.7362
2999.7372
2999.7383
2999.7363
2999.7364
2999.7378
2999.7378
2999.7393
2999.7374
2999.7375
2999.7373
2999.7362
2999.7347
2999.7337
2999.7355
2999.7355
2999.7365
2999.7397
2999.7394
2999.7389
2999.7383
2999.7347
2999.7355
2999.7337
2999.7343
2999.7348
2999.7356
2999.7389
2999.7388
2999.7391
2999.7363
2999.7337
2999.7337
2999.7339
2999.7338
2999.7349
2999.7341
2999.7412
2999.7402
2999.7401
2999.7364
2999.7354
2999.7342
2999.7338
2999.7303
2999.7343
2999.734
2999.7421
2999.7413
2999.7403
2999.7377
2999.7354
2999.7346
2999.7347
2999.7342
2999.7363
2999.7337
2999.7395
2999.737
2999.7377
2999.7378
2999.7365
2999.7356
2999.7342
2999.7341
2999.7338
2999.7341
2999.7418
2999.7395
2999.7411
2999.7439
2999.7418
2999.7427
2999.7426
2999.7438
2999.7446
2999.7463
2999.7396
2999.7424
2999.7422
2999.7425
2999.7427
2999.7434
2999.7429
2999.743
2999.7438
2999.7424
2999.7411
2999.7422
2999.7395
2999.7404
2999.7411
2999.7414
2999.7422
2999.7411
2999.7416
2999.7414
2999.7439
2999.7425
2999.7404
2999.7416
2999.741
2999.7408
2999.7402
2999.7395
2999.7409
2999.7407
2999.7418
2999.7427
2999.7411
2999.741
2999.74
2999.7386
2999.7376
2999.7384
2999.739
2999.7394
2999.7427
2999.7434
2999.7414
2999.7408
2999.7386
2999.7377
2999.7377
2999.7377
2999.7373
2999.7384
2999.7426
2999.7429
2999.7422
2999.7402
2999.7377
2999.7377
2999.7374
2999.7365
2999.7373
2999.7376
2999.7439
2999.7431
2999.7411
2999.7395
2999.7384
2999.7378
2999.7365
2999.7354
2999.7367
2999.7385
2999.7447
2999.7439
2999.7417
2999.7409
2999.739
2999.7373
2999.7373
2999.7367
2999.7384
2999.7397
2999.7463
2999.7424
2999.7414
2999.7407
2999.7394
2999.7384
2999.7376
2999.7385
2999.7397
2999.7392
2999.7492
2999.7475
2999.7478
2999.7485
2999.7488
2999.7492
2999.7495
2999.7491
2999.7479
2999.7506
2999.7475
2999.7478
2999.7479
2999.7475
2999.747
2999.7474
2999.7488
2999.7485
2999.7473
2999.7475
2999.7478
2999.7479
2999.7477
2999.7477
2999.7484
2999.7469
2999.7468
2999.7464
2999.7461
2999.7465
2999.7485
2999.7475
2999.7477
2999.748
2999.7461
2999.7452
2999.7458
2999.7458
2999.7453
2999.7455
2999.7488
2999.747
2999.7484
2999.7461
2999.7451
2999.7441
2999.7446
2999.744
2999.744
2999.7441
2999.7492
2999.7474
2999.7469
2999.7452
2999.7441
2999.7434
2999.744
2999.7431
2999.7425
2999.743
2999.7495
2999.7488
2999.7468
2999.7458
2999.7446
2999.744
2999.7432
2999.7427
2999.7428
2999.7435
2999.7491
2999.7485
2999.7464
2999.7458
2999.744
2999.7431
2999.7427
2999.7426
2999.7418
2999.7439
2999.7479
2999.7473
2999.7461
2999.7453
2999.744
2999.7425
2999.7428
2999.7418
2999.7442
2999.7439
2999.7506
2999.7475
2999.7465
2999.7455
2999.7441
2999.743
2999.7435
2999.7439
2999.7439
2999.744
2999.7565
2999.7564
2999.7554
2999.7547
2999.7554
2999.7557
2999.7553
2999.755
2999.754
2999.755
2999.7564
2999.7568
2999.7547
2999.7558
2999.7535
2999.7536
2999.7531
2999.7539
2999.7527
2999.753
2999.7554
2999.7547
2999.756
2999.7553
2999.7538
2999.7533
2999.7527
2999.7527
2999.7519
2999.7528
2999.7547
2999.7558
2999.7553
2999.7545
2999.7527
2999.7524
2999.752
2999.752
2999.7512
2999.7519
2999.7554
2999.7535
2999.7538
2999.7527
2999.7513
2999.751
2999.7513
2999.7504
2999.7504
2999.7505
2999.7557
2999.7536
2999.7533
2999.7524
2999.751
2999.7511
2999.7511
2999.7499
2999.7494
2999.7496
2999.7553
2999.7531
2999.7527
2999.752
2999.7513
2999.7511
2999.7502
2999.7499
2999.7488
2999.7496
2999.755
2999.7539
2999.7527
2999.752
2999.7504
2999.7499
2999.7499
2999.7491
2999.7478
2999.7494
2999.754
2999.7527
2999.7519
2999.7512
2999.7504
2999.7494
2999.7488
2999.7478
2999.7499
2999.749
2999.755
2999.753
2999.7528
2999.7519
2999.7505
2999.7496
2999.7496
2999.7494
2999.749
2999.7499
2999.7676
2999.7652
2999.7646
2999.765
2999.7635
2999.763
2999.7624
2999.762
2999.7611
2999.7613
2999.7652
2999.7655
2999.7643
2999.7633
2999.7634
2999.7623
2999.7599
2999.7604
2999.7601
2999.7605
2999.7646
2999.7643
2999.7645
2999.7634
2999.7616
2999.761
2999.7597
2999.7595
2999.7596
2999.761
2999.765
2999.7633
2999.7634
2999.7619
2999.7615
2999.7606
2999.7595
2999.759
2999.7593
2999.7598
2999.7635
2999.7634
2999.7616
2999.7615
2999.7604
2999.7596
2999.7585
2999.7581
2999.7586
2999.7588
2999.763
2999.7623
2999.761
2999.7606
2999.7596
2999.7588
2999.7585
2999.758
2999.7576
2999.7582
2999.7624
2999.7599
2999.7597
2999.7595
2999.7585
2999.7585
2999.758
2999.7575
2999.7565
2999.757
2999.762
2999.7604
2999.7595
2999.759
2999.7581
2999.758
2999.7575
2999.7567
2999.7568
2999.7559
2999.7611
2999.7601
2999.7596
2999.7593
2999.7586
2999.7576
2999.7565
2999.7568
2999.7545
2999.7569
2999.7613
2999.7605
2999.761
2999.7598
2999.7588
2999.7582
2999.757
2999.7559
2999.7569
2999.7573
2999.7747
2999.7739
2999.7742
2999.7742
2999.7721
2999.7718
2999.7704
2999.7698
2999.7701
2999.7695
2999.7739
2999.7732
2999.7732
2999.7713
2999.7714
2999.7704
2999.7692
2999.7692
2999.7692
2999.7692
2999.7742
2999.7732
2999.7713
2999.7709
2999.7703
2999.7697
2999.7685
2999.7683
2999.7687
2999.7696
2999.7742
2999.7713
2999.7709
2999.7707
2999.7705
2999.7692
2999.768
2999.7675
2999.7685
2999.7683
2999.7721
2999.7714
2999.7703
2999.7705
2999.7696
2999.7684
2999.767
2999.7675
2999.768
2999.7678
2999.7718
2999.7704
2999.7697
2999.7692
2999.7684
2999.7672
2999.7671
2999.7673
2999.7665
2999.7663
2999.7704
2999.7692
2999.7685
2999.768
2999.767
2999.7671
2999.7672
2999.7663
2999.7661
2999.7658
2999.7698
2999.7692
2999.7683
2999.7675
2999.7675
2999.7673
2999.7663
2999.7659
2999.7659
2999.7648
2999.7701
2999.7692
2999.7687
2999.7685
2999.768
2999.7665
2999.7661
2999.7659
2999.7649
2999.7654
2999.7695
2999.7692
2999.7696
2999.7683
2999.7678
2999.7663
2999.7658
2999.7648
2999.7654
2999.7646
2999.7825
2999.7833
2999.7838
2999.7811
2999.781
2999.7803
2999.7797
2999.7791
2999.7788
2999.7782
2999.7833
2999.7833
2999.7818
2999.7805
2999.7798
2999.7796
2999.7792
2999.7783
2999.778
2999.7782
2999.7838
2999.7818
2999.7802
2999.7788
2999.7794
2999.7786
2999.7775
2999.7775
2999.7779
2999.7779
2999.7811
2999.7805
2999.7788
2999.7795
2999.7788
2999.7775
2999.777
2999.777
2999.7775
2999.7769
2999.781
2999.7798
2999.7794
2999.7788
2999.7779
2999.7772
2999.7767
2999.7773
2999.7766
2999.7761
2999.7803
2999.7796
2999.7786
2999.7775
2999.7772
2999.7767
2999.7765
2999.776
2999.7754
2999.7749
2999.7797
2999.7792
2999.7775
2999.777
2999.7767
2999.7765
2999.776
2999.7754
2999.7759
2999.775
2999.7791
2999.7783
2999.7775
2999.777
2999.7773
2999.776
2999.7754
2999.7758
2999.7739
2999.7751
2999.7788
2999.778
2999.7779
2999.7775
2999.7766
2999.7754
2999.7759
2999.7739
2999.7758
2999.7737
2999.7782
2999.7782
2999.7779
2999.7769
2999.7761
2999.7749
2999.775
2999.7751
2999.7737
2999.7734
2999.794
2999.7946
2999.7928
2999.79
2999.7898
2999.7901
2999.7893
2999.7886
2999.788
2999.7881
2999.7946
2999.7942
2999.791
2999.7906
2999.7903
2999.7899
2999.7886
2999.7875
2999.7876
2999.788
2999.7928
2999.791
2999.7911
2999.7899
2999.7897
2999.7881
2999.7869
2999.7875
2999.7878
2999.7873
2999.79
2999.7906
2999.7899
2999.7899
2999.7883
2999.7871
2999.7874
2999.7877
2999.7868
2999.7868
2999.7898
2999.7903