/*--------------------------------*- C++ -*----------------------------------*\
| =========                 |                                                 |
| \\      /  F ield         | OpenFOAM: The Open Source CFD Toolbox           |
|  \\    /   O peration     | Version:  v2106                                 |
|   \\  /    A nd           | Website:  www.openfoam.com                      |
|    \\/     M anipulation  |                                                 |
\*---------------------------------------------------------------------------*/
FoamFile
{
    version     2.0;
    format      ascii;
    arch        "LSB;label=32;scalar=64";
    class       volVectorField;
    location    "30";
    object      flux;
}
// * * * * * * * * * * * * * * * * * * * * * * * * * * * * * * * * * * * * * //

dimensions      [0 1 -1 1 0 0 0];

internalField   nonuniform List<vector> 
10000
(
(-4.7811994e-09 -4.7812041e-09 0.74798917)
(1.1655413e-07 7.9836406e-08 0.74798919)
(1.0994807e-07 3.2461462e-08 0.74798954)
(-1.1434147e-07 -1.092701e-08 0.74798951)
(-4.2334683e-08 6.9903228e-08 0.74798921)
(6.6935044e-09 5.4020977e-08 0.74798938)
(-1.8641011e-07 -1.7257993e-09 0.7479891)
(-1.8536349e-07 4.2034666e-09 0.74798864)
(3.0282806e-08 6.0842803e-08 0.7479885)
(5.3847733e-08 4.914277e-08 0.74798873)
(7.9836411e-08 1.1655412e-07 0.74798919)
(1.7241813e-07 1.7241815e-07 0.74798954)
(-2.6197057e-08 6.8112421e-08 0.74798969)
(-5.817882e-08 9.111249e-08 0.7479895)
(5.5087298e-08 2.1414707e-07 0.74798956)
(-1.0075004e-07 1.196698e-07 0.74798961)
(-2.6113638e-07 4.6213884e-08 0.7479891)
(-9.1510586e-08 1.0777318e-07 0.74798869)
(9.769176e-08 1.437588e-07 0.7479888)
(4.2147699e-08 5.9585716e-08 0.74798898)
(3.2461486e-08 1.0994807e-07 0.74798954)
(6.8112435e-08 -2.6197057e-08 0.74798969)
(2.8642411e-08 2.8642425e-08 0.74798981)
(3.1693183e-08 1.3826014e-07 0.74798986)
(-1.3777374e-08 7.8616502e-08 0.74798989)
(-1.6123968e-07 1.5911866e-08 0.74798974)
(-1.9830673e-07 8.585269e-08 0.74798929)
(-8.781857e-08 1.4787812e-07 0.74798902)
(-1.7904661e-08 7.8053347e-08 0.74798893)
(-2.2676593e-09 3.7733372e-09 0.74798889)
(-1.0927006e-08 -1.1434146e-07 0.74798951)
(9.111249e-08 -5.8178855e-08 0.7479895)
(1.3826014e-07 3.1693183e-08 0.74798986)
(-8.2047436e-09 -8.2047577e-09 0.74798995)
(-6.7260977e-08 -6.608019e-08 0.74798981)
(-9.3513847e-08 -7.1282642e-09 0.74798971)
(-1.2917013e-07 6.3296227e-08 0.74798944)
(-9.9309929e-08 5.3093551e-08 0.7479892)
(-4.6413021e-08 3.2510812e-08 0.74798905)
(-7.3723073e-09 3.8454104e-08 0.74798898)
(6.9903223e-08 -4.2334655e-08 0.74798921)
(2.1414708e-07 5.5087298e-08 0.74798956)
(7.8616509e-08 -1.3777367e-08 0.74798989)
(-6.608019e-08 -6.7260977e-08 0.74798981)
(-1.270088e-08 -1.2700887e-08 0.74798971)
(-3.1863266e-08 6.438183e-08 0.74798978)
(-1.3808491e-07 7.2683797e-08 0.74798953)
(-1.1860399e-07 5.0022258e-08 0.74798923)
(-3.2544108e-08 5.4016169e-08 0.74798908)
(1.6945354e-09 5.8035432e-08 0.74798904)
(5.4020963e-08 6.6935116e-09 0.74798938)
(1.1966978e-07 -1.0075e-07 0.74798961)
(1.5911866e-08 -1.6123968e-07 0.74798974)
(-7.1282642e-09 -9.351384e-08 0.74798971)
(6.438183e-08 -3.1863223e-08 0.74798978)
(-8.1291631e-09 -8.1291489e-09 0.74798992)
(-1.435297e-07 1.3026238e-09 0.74798968)
(-1.1797756e-07 2.3233888e-08 0.74798936)
(-3.8399847e-08 4.5770932e-08 0.74798921)
(-4.6927985e-09 3.4284469e-08 0.74798914)
(-1.7257851e-09 -1.8641013e-07 0.7479891)
(4.6213891e-08 -2.6113636e-07 0.7479891)
(8.5852669e-08 -1.9830672e-07 0.74798929)
(6.3296262e-08 -1.2917012e-07 0.74798944)
(7.2683811e-08 -1.3808489e-07 0.74798953)
(1.3025812e-09 -1.4352968e-07 0.74798968)
(-1.0672188e-07 -1.0672185e-07 0.74798949)
(-7.4135677e-08 -4.7634984e-08 0.74798926)
(-2.1493527e-08 -9.6451345e-09 0.74798918)
(-5.9631067e-09 -1.1750558e-08 0.7479891)
(4.2034761e-09 -1.853635e-07 0.74798864)
(1.0777319e-07 -9.1510628e-08 0.74798869)
(1.4787811e-07 -8.7818563e-08 0.74798902)
(5.3093565e-08 -9.9309922e-08 0.7479892)
(5.0022265e-08 -1.1860401e-07 0.74798923)
(2.3233881e-08 -1.1797753e-07 0.74798936)
(-4.7634998e-08 -7.4135649e-08 0.74798926)
(-2.0900842e-08 -2.0900813e-08 0.74798915)
(-2.5154208e-09 -2.0923209e-09 0.74798913)
(-6.0964141e-09 -1.795577e-08 0.74798904)
(6.0842799e-08 3.0282806e-08 0.7479885)
(1.4375883e-07 9.7691739e-08 0.7479888)
(7.8053375e-08 -1.7904675e-08 0.74798893)
(3.2510812e-08 -4.6413e-08 0.74798905)
(5.4016205e-08 -3.2544129e-08 0.74798908)
(4.5770946e-08 -3.8399875e-08 0.74798921)
(-9.6451629e-09 -2.1493548e-08 0.74798918)
(-2.0923494e-09 -2.5154349e-09 0.74798913)
(-1.8548484e-08 -1.8548462e-08 0.7479891)
(-1.653874e-08 -5.9435159e-08 0.74798895)
(4.9142765e-08 5.3847742e-08 0.74798873)
(5.9585709e-08 4.2147709e-08 0.74798898)
(3.7733728e-09 -2.2676735e-09 0.74798889)
(3.8454111e-08 -7.3722929e-09 0.74798898)
(5.803539e-08 1.694526e-09 0.74798904)
(3.4284461e-08 -4.6928363e-09 0.74798914)
(-1.1750558e-08 -5.9631304e-09 0.7479891)
(-1.7955756e-08 -6.096433e-09 0.74798904)
(-5.9435145e-08 -1.6538735e-08 0.74798895)
(-3.3354212e-08 -3.3354207e-08 0.74798872)
(2.919657e-08 2.919658e-08 0.74799079)
(2.0511796e-07 1.093875e-07 0.74799082)
(1.4884211e-07 5.5227649e-08 0.74799083)
(-1.5646206e-07 2.910042e-08 0.74799089)
(-5.9942614e-08 1.4337532e-07 0.74799081)
(-1.8228886e-07 6.2097854e-08 0.74799076)
(-5.5529082e-07 4.914933e-09 0.74799038)
(-3.4329059e-07 4.1611576e-08 0.74799017)
(5.0736631e-08 1.1154028e-07 0.74799015)
(7.0042475e-08 9.9704209e-08 0.74799008)
(1.0938749e-07 2.0511796e-07 0.74799082)
(2.4416456e-07 2.4416459e-07 0.74799088)
(2.8411499e-08 1.940594e-07 0.74799092)
(-2.4240549e-08 2.5009067e-07 0.74799096)
(-1.0446463e-08 3.8341185e-07 0.74799093)
(-3.8997944e-07 1.8402542e-07 0.74799076)
(-5.8602024e-07 1.4574935e-07 0.74799042)
(-1.8335258e-07 2.4594322e-07 0.74799023)
(1.3787558e-07 2.1038271e-07 0.74799022)
(5.8206406e-08 6.3842059e-08 0.74799022)
(5.5227659e-08 1.488421e-07 0.74799083)
(1.940594e-07 2.8411492e-08 0.74799092)
(1.5476819e-07 1.547682e-07 0.74799103)
(3.2890398e-08 2.4927823e-07 0.74799107)
(-1.2600786e-07 1.3856457e-07 0.747991)
(-4.1995136e-07 1.0837277e-07 0.74799085)
(-4.9337303e-07 2.5622534e-07 0.74799054)
(-2.7865723e-07 3.1406336e-07 0.74799032)
(-1.3136453e-07 1.4060372e-07 0.74799014)
(-2.7651292e-08 -1.8674783e-08 0.74799005)
(2.910041e-08 -1.5646207e-07 0.74799089)
(2.5009066e-07 -2.4240542e-08 0.74799096)
(2.4927824e-07 3.2890405e-08 0.74799107)
(-4.0444178e-08 -4.0444185e-08 0.74799109)
(-1.5135192e-07 -6.9339421e-08 0.74799103)
(-2.7231867e-07 6.9781805e-08 0.74799092)
(-3.8032965e-07 1.765403e-07 0.74799066)
(-2.989742e-07 1.5166566e-07 0.74799043)
(-1.9486257e-07 1.2338904e-07 0.74799023)
(-4.7979261e-08 1.0551126e-07 0.74799009)
(1.4337535e-07 -5.9942614e-08 0.74799081)
(3.8341187e-07 -1.0446442e-08 0.74799093)
(1.3856455e-07 -1.2600784e-07 0.747991)
(-6.9339428e-08 -1.5135192e-07 0.74799103)
(-1.5781872e-08 -1.5781836e-08 0.74799103)
(-1.7407164e-07 1.2130191e-07 0.74799097)
(-4.1148918e-07 1.305232e-07 0.74799069)
(-3.3180849e-07 8.7369692e-08 0.74799042)
(-1.7751893e-07 9.1377899e-08 0.74799022)
(-3.9569812e-08 7.5846991e-08 0.74799007)
(6.2097859e-08 -1.8228882e-07 0.74799076)
(1.8402543e-07 -3.8997945e-07 0.74799076)
(1.0837276e-07 -4.1995136e-07 0.74799085)
(6.9781826e-08 -2.7231867e-07 0.74799092)
(1.2130191e-07 -1.7407162e-07 0.74799097)
(-1.2601364e-07 -1.2601358e-07 0.74799095)
(-4.1426187e-07 -7.2964411e-08 0.74799067)
(-3.381195e-07 -1.6342305e-08 0.74799039)
(-2.0638527e-07 2.122578e-08 0.74799018)
(-5.83332e-08 -9.5846461e-09 0.74798999)
(4.9149282e-09 -5.5529079e-07 0.74799038)
(1.4574933e-07 -5.8602024e-07 0.74799042)
(2.5622533e-07 -4.9337303e-07 0.74799054)
(1.7654032e-07 -3.8032962e-07 0.74799066)
(1.3052322e-07 -4.114892e-07 0.74799069)
(-7.2964433e-08 -4.1426186e-07 0.74799067)
(-3.018179e-07 -3.0181787e-07 0.74799044)
(-2.376183e-07 -1.7159786e-07 0.74799022)
(-1.7076127e-07 -1.025039e-07 0.74799003)
(-6.0110096e-08 -1.1276412e-07 0.74798984)
(4.1611562e-08 -3.4329059e-07 0.74799017)
(2.4594319e-07 -1.8335256e-07 0.74799023)
(3.1406337e-07 -2.7865723e-07 0.74799032)
(1.5166565e-07 -2.9897419e-07 0.74799043)
(8.7369671e-08 -3.3180849e-07 0.74799042)
(-1.6342305e-08 -3.3811951e-07 0.74799039)
(-1.7159787e-07 -2.3761829e-07 0.74799022)
(-1.3880553e-07 -1.3880551e-07 0.74799004)
(-1.4755152e-07 -1.2015078e-07 0.74798986)
(-6.5173343e-08 -1.729727e-07 0.74798967)
(1.1154028e-07 5.0736617e-08 0.74799015)
(2.1038269e-07 1.378756e-07 0.74799022)
(1.406037e-07 -1.3136452e-07 0.74799014)
(1.2338905e-07 -1.9486261e-07 0.74799023)
(9.1377899e-08 -1.7751891e-07 0.74799022)
(2.1225766e-08 -2.0638525e-07 0.74799018)
(-1.025039e-07 -1.7076126e-07 0.74799003)
(-1.2015079e-07 -1.4755154e-07 0.74798986)
(-2.0492846e-07 -2.0492843e-07 0.74798966)
(-9.5324713e-08 -3.083601e-07 0.74798944)
(9.9704214e-08 7.0042475e-08 0.74799008)
(6.3842059e-08 5.820641e-08 0.74799022)
(-1.8674832e-08 -2.7651282e-08 0.74799005)
(1.0551125e-07 -4.797928e-08 0.74799009)
(7.5847033e-08 -3.9569812e-08 0.74799007)
(-9.5846531e-09 -5.833319e-08 0.74798999)
(-1.1276416e-07 -6.0110092e-08 0.74798984)
(-1.729727e-07 -6.5173362e-08 0.74798967)
(-3.0836009e-07 -9.5324699e-08 0.74798944)
(-1.3412779e-07 -1.3412778e-07 0.74798923)
(1.2394248e-08 1.2394248e-08 0.74799372)
(1.5054701e-07 1.2319059e-07 0.74799363)
(1.7735891e-07 9.3794853e-08 0.74799361)
(-1.3335568e-07 4.099104e-08 0.74799367)
(-1.6989242e-07 1.495729e-07 0.74799356)
(-4.1925149e-07 5.7247585e-08 0.74799345)
(-7.8013714e-07 2.3852541e-08 0.74799322)
(-4.1959741e-07 4.7845878e-08 0.7479931)
(-5.0729326e-08 1.0560269e-07 0.74799305)
(1.1232643e-08 1.3609946e-07 0.74799287)
(1.2319059e-07 1.5054701e-07 0.74799363)
(2.7264792e-07 2.7264792e-07 0.74799364)
(5.4059577e-08 2.7187005e-07 0.74799361)
(-4.9688609e-08 2.719564e-07 0.74799359)
(-1.4550761e-07 4.0695225e-07 0.74799352)
(-6.0783204e-07 2.0775675e-07 0.74799338)
(-7.942397e-07 2.0583197e-07 0.74799318)
(-2.9697219e-07 2.6157368e-07 0.74799301)
(8.1651052e-08 1.3939577e-07 0.74799295)
(4.1729417e-08 2.4776512e-08 0.74799291)
(9.3794858e-08 1.7735891e-07 0.74799361)
(2.7187005e-07 5.4059591e-08 0.74799361)
(1.7666738e-07 1.7666739e-07 0.74799361)
(1.7265192e-09 2.6075139e-07 0.7479936)
(-2.3409208e-07 1.7704678e-07 0.74799354)
(-6.2037177e-07 1.747793e-07 0.74799341)
(-7.2632021e-07 3.205102e-07 0.74799319)
(-4.8603362e-07 3.4988504e-07 0.74799298)
(-2.875265e-07 9.4520971e-08 0.74799278)
(-6.5180193e-08 -1.23052e-07 0.74799269)
(4.0991049e-08 -1.3335568e-07 0.74799367)
(2.719564e-07 -4.9688581e-08 0.74799359)
(2.6075138e-07 1.726519e-09 0.7479936)
(-4.9309221e-08 -4.9309229e-08 0.7479936)
(-2.314797e-07 -3.9756578e-08 0.74799356)
(-4.6436862e-07 1.1870888e-07 0.74799343)
(-6.1913397e-07 2.061285e-07 0.7479932)
(-5.2296141e-07 1.5844405e-07 0.74799298)
(-3.9128599e-07 1.0796688e-07 0.74799274)
(-1.0331923e-07 5.3984628e-08 0.74799261)
(1.4957292e-07 -1.6989239e-07 0.74799356)
(4.0695225e-07 -1.455076e-07 0.74799352)
(1.7704674e-07 -2.3409205e-07 0.74799354)
(-3.9756578e-08 -2.3147967e-07 0.74799356)
(-6.6073966e-08 -6.6073938e-08 0.74799354)
(-3.744867e-07 8.8282512e-08 0.74799341)
(-6.8658504e-07 8.3057309e-08 0.74799314)
(-5.8419524e-07 1.1085433e-08 0.74799287)
(-3.9198592e-07 -3.1978546e-09 0.74799263)
(-1.0116836e-07 -3.8208967e-08 0.7479925)
(5.7247576e-08 -4.1925148e-07 0.74799345)
(2.0775674e-07 -6.0783204e-07 0.74799338)
(1.747793e-07 -6.2037174e-07 0.74799341)
(1.1870889e-07 -4.643686e-07 0.74799343)
(8.828249e-08 -3.7448667e-07 0.74799341)
(-3.1523737e-07 -3.1523734e-07 0.7479933)
(-6.9633105e-07 -2.4028842e-07 0.74799301)
(-6.0921658e-07 -1.798958e-07 0.74799272)
(-4.4058039e-07 -1.4811419e-07 0.74799246)
(-1.2665997e-07 -1.8671857e-07 0.74799232)
(2.3852546e-08 -7.8013715e-07 0.74799322)
(2.0583199e-07 -7.9423971e-07 0.74799318)
(3.2051017e-07 -7.2632021e-07 0.74799319)
(2.0612849e-07 -6.1913397e-07 0.7479932)
(8.3057301e-08 -6.8658505e-07 0.74799314)
(-2.4028845e-07 -6.9633103e-07 0.74799301)
(-5.512435e-07 -5.5124349e-07 0.74799275)
(-4.9202101e-07 -3.9894056e-07 0.74799247)
(-3.9880869e-07 -3.246717e-07 0.74799222)
(-1.2690461e-07 -3.3271035e-07 0.7479921)
(4.7845868e-08 -4.1959741e-07 0.7479931)
(2.6157368e-07 -2.9697218e-07 0.74799301)
(3.4988504e-07 -4.8603362e-07 0.74799298)
(1.5844405e-07 -5.2296141e-07 0.74799298)
(1.1085433e-08 -5.8419526e-07 0.74799287)
(-1.7989581e-07 -6.0921656e-07 0.74799272)
(-3.9894058e-07 -4.9202099e-07 0.74799247)
(-3.8264479e-07 -3.8264476e-07 0.74799221)
(-3.7435018e-07 -3.6377226e-07 0.74799198)
(-1.3201907e-07 -4.2254253e-07 0.7479919)
(1.056027e-07 -5.0729333e-08 0.74799305)
(1.3939578e-07 8.1651081e-08 0.74799295)
(9.4520942e-08 -2.8752649e-07 0.74799278)
(1.0796685e-07 -3.9128597e-07 0.74799274)
(-3.1978401e-09 -3.9198591e-07 0.74799263)
(-1.4811418e-07 -4.4058037e-07 0.74799246)
(-3.246717e-07 -3.9880868e-07 0.74799222)
(-3.6377227e-07 -3.7435017e-07 0.74799198)
(-4.3870647e-07 -4.3870643e-07 0.7479918)
(-1.660848e-07 -5.0419192e-07 0.74799175)
(1.3609948e-07 1.1232643e-08 0.74799287)
(2.4776526e-08 4.1729422e-08 0.74799291)
(-1.23052e-07 -6.5180193e-08 0.74799269)
(5.3984628e-08 -1.0331921e-07 0.74799261)
(-3.8208967e-08 -1.0116834e-07 0.7479925)
(-1.8671858e-07 -1.2665996e-07 0.74799232)
(-3.3271039e-07 -1.269046e-07 0.7479921)
(-4.2254254e-07 -1.3201908e-07 0.7479919)
(-5.0419192e-07 -1.6608478e-07 0.74799175)
(-1.7567606e-07 -1.7567605e-07 0.74799185)
(-2.8879076e-08 -2.8879086e-08 0.74799849)
(8.9952067e-08 1.103631e-07 0.7479983)
(1.8040728e-07 5.629083e-08 0.74799827)
(-2.0417333e-07 -2.2515361e-08 0.74799824)
(-2.7986047e-07 1.16491e-07 0.74799813)
(-5.1892319e-07 2.0757024e-08 0.74799811)
(-8.9694323e-07 -2.6093119e-08 0.74799802)
(-5.1156656e-07 -2.0991398e-08 0.74799792)
(-1.8673442e-07 4.1815639e-08 0.74799788)
(-5.4492285e-08 1.2902617e-07 0.74799775)
(1.1036311e-07 8.9952089e-08 0.7479983)
(2.1770694e-07 2.1770695e-07 0.74799818)
(-1.8910413e-08 1.9830543e-07 0.74799809)
(-1.1387307e-07 1.8298152e-07 0.74799801)
(-2.1495189e-07 3.656604e-07 0.74799798)
(-7.3279937e-07 1.4494513e-07 0.74799794)
(-9.5956586e-07 1.1424619e-07 0.7479978)
(-4.0970343e-07 1.2374439e-07 0.74799766)
(3.8291936e-08 -6.1149841e-08 0.74799765)
(3.2718247e-08 -1.1127607e-07 0.74799768)
(5.629083e-08 1.8040733e-07 0.74799827)
(1.9830541e-07 -1.8910384e-08 0.74799809)
(1.4568186e-07 1.4568189e-07 0.74799804)
(-3.6818357e-08 2.6464111e-07 0.74799801)
(-3.1789686e-07 1.7658819e-07 0.74799797)
(-7.703374e-07 1.5047075e-07 0.74799788)
(-9.1814397e-07 2.7825622e-07 0.74799773)
(-6.8696259e-07 2.7980961e-07 0.74799755)
(-4.2175487e-07 -6.7732998e-08 0.74799741)
(-8.7909768e-08 -3.1665598e-07 0.74799742)
(-2.2515366e-08 -2.0417332e-07 0.74799824)
(1.8298149e-07 -1.1387308e-07 0.74799801)
(2.6464108e-07 -3.6818349e-08 0.74799801)
(-8.2966771e-08 -8.296675e-08 0.74799799)
(-3.2912225e-07 -7.5169751e-08 0.74799793)
(-6.3113134e-07 7.4248874e-08 0.74799782)
(-8.3022699e-07 1.2572197e-07 0.74799765)
(-7.5569265e-07 4.2505029e-08 0.74799746)
(-5.5817366e-07 -3.2477125e-08 0.74799728)
(-1.3323041e-07 -8.8857825e-08 0.74799729)
(1.1649099e-07 -2.7986048e-07 0.74799813)
(3.6566038e-07 -2.149519e-07 0.74799798)
(1.7658819e-07 -3.1789686e-07 0.74799797)
(-7.5169758e-08 -3.2912223e-07 0.74799793)
(-1.6068124e-07 -1.6068118e-07 0.74799788)
(-5.6944567e-07 -8.8250758e-09 0.74799776)
(-9.4988781e-07 -5.4445138e-08 0.74799753)
(-8.4516169e-07 -1.6834388e-07 0.74799731)
(-5.5311772e-07 -1.8881791e-07 0.74799714)
(-1.254969e-07 -2.141157e-07 0.74799717)
(2.0757019e-08 -5.1892319e-07 0.74799811)
(1.4494511e-07 -7.3279936e-07 0.74799794)
(1.5047075e-07 -7.7033739e-07 0.74799788)
(7.4248909e-08 -6.3113132e-07 0.74799782)
(-8.8250973e-09 -5.6944564e-07 0.74799776)
(-5.2489529e-07 -5.2489521e-07 0.74799763)
(-9.897458e-07 -4.6587065e-07 0.74799738)
(-8.9006542e-07 -4.2092592e-07 0.74799713)
(-6.0394548e-07 -3.8571308e-07 0.74799697)
(-1.500956e-07 -4.0279087e-07 0.74799702)
(-2.6093124e-08 -8.9694323e-07 0.74799802)
(1.1424618e-07 -9.5956584e-07 0.7479978)
(2.7825623e-07 -9.1814393e-07 0.74799773)
(1.25722e-07 -8.3022699e-07 0.74799765)
(-5.4445131e-08 -9.4988783e-07 0.74799753)
(-4.6587068e-07 -9.8974578e-07 0.74799738)
(-8.4591852e-07 -8.4591849e-07 0.74799713)
(-7.6500412e-07 -6.8387568e-07 0.7479969)
(-5.3498267e-07 -5.7931096e-07 0.74799677)
(-1.3688209e-07 -5.3610655e-07 0.74799688)
(-2.0991389e-08 -5.1156658e-07 0.74799792)
(1.2374441e-07 -4.0970343e-07 0.74799766)
(2.798096e-07 -6.8696259e-07 0.74799755)
(4.2505007e-08 -7.5569264e-07 0.74799746)
(-1.6834389e-07 -8.4516171e-07 0.74799731)
(-4.2092594e-07 -8.9006543e-07 0.74799713)
(-6.838757e-07 -7.650041e-07 0.7479969)
(-6.2345789e-07 -6.2345787e-07 0.7479967)
(-4.5617635e-07 -5.3967277e-07 0.74799666)
(-1.2129266e-07 -5.252295e-07 0.74799685)
(4.1815644e-08 -1.8673441e-07 0.74799788)
(-6.1149834e-08 3.8291923e-08 0.74799765)
(-6.7732984e-08 -4.2175487e-07 0.74799741)
(-3.2477132e-08 -5.5817365e-07 0.74799728)
(-1.8881792e-07 -5.5311767e-07 0.74799714)
(-3.8571307e-07 -6.0394547e-07 0.74799697)
(-5.7931096e-07 -5.3498263e-07 0.74799677)
(-5.396728e-07 -4.5617634e-07 0.74799666)
(-4.367543e-07 -4.3675428e-07 0.74799672)
(-1.2725325e-07 -3.6341658e-07 0.74799699)
(1.2902617e-07 -5.4492276e-08 0.74799775)
(-1.1127605e-07 3.2718248e-08 0.74799768)
(-3.1665597e-07 -8.7909754e-08 0.74799742)
(-8.8857796e-08 -1.3323041e-07 0.74799729)
(-2.141157e-07 -1.2549686e-07 0.74799717)
(-4.027909e-07 -1.500956e-07 0.74799702)
(-5.3610658e-07 -1.3688208e-07 0.74799688)
(-5.2522955e-07 -1.2129268e-07 0.74799685)
(-3.6341658e-07 -1.2725325e-07 0.74799699)
(-7.2400866e-08 -7.2400865e-08 0.74799739)
(-1.1424643e-07 -1.1424643e-07 0.7480056)
(-7.5501511e-08 3.9820781e-08 0.74800533)
(1.1497191e-07 -2.6297888e-08 0.74800526)
(-2.7208359e-07 -1.1133908e-07 0.74800522)
(-3.0060455e-07 5.151027e-08 0.74800518)
(-5.3094882e-07 -5.9250368e-08 0.74800526)
(-9.7185207e-07 -1.1897924e-07 0.74800522)
(-5.5281357e-07 -1.2367416e-07 0.74800517)
(-2.2127348e-07 -5.3514024e-08 0.74800523)
(-7.9186899e-08 8.9154417e-08 0.74800523)
(3.9820781e-08 -7.5501476e-08 0.74800533)
(5.6421299e-08 5.6421322e-08 0.74800512)
(-1.1176788e-07 4.5133625e-08 0.74800502)
(-1.5537135e-07 3.7967155e-08 0.74800497)
(-2.2247148e-07 2.4463959e-07 0.748005)
(-7.8668307e-07 -2.5023802e-08 0.74800502)
(-1.0684878e-06 -8.312351e-08 0.74800495)
(-4.5461576e-07 -1.0301108e-07 0.74800488)
(9.7969377e-08 -3.3943353e-07 0.74800497)
(6.3481542e-08 -3.0820881e-07 0.74800513)
(-2.6297897e-08 1.1497193e-07 0.74800526)
(4.5133589e-08 -1.1176787e-07 0.74800502)
(9.6517745e-08 9.6517781e-08 0.74800497)
(-7.2577627e-08 2.3584443e-07 0.74800496)
(-3.6359551e-07 1.2467726e-07 0.74800496)
(-8.5871191e-07 5.9193574e-08 0.74800493)
(-1.0498394e-06 1.6591625e-07 0.74800485)
(-8.0912359e-07 1.4798579e-07 0.74800477)
(-4.2647121e-07 -2.6878135e-07 0.74800475)
(-5.8370423e-08 -5.1018256e-07 0.74800491)
(-1.1133908e-07 -2.7208362e-07 0.74800522)
(3.7967155e-08 -1.5537139e-07 0.74800497)
(2.3584442e-07 -7.2577613e-08 0.74800496)
(-1.2721188e-07 -1.2721185e-07 0.74800495)
(-3.9912234e-07 -1.2826759e-07 0.74800493)
(-7.4544408e-07 1.4721874e-09 0.74800488)
(-9.7969554e-07 1.1978102e-08 0.74800479)
(-8.8931336e-07 -9.0071872e-08 0.74800471)
(-5.6019898e-07 -1.5725382e-07 0.74800469)
(-9.7452599e-08 -1.8669399e-07 0.74800488)
(5.1510255e-08 -3.0060455e-07 0.74800518)
(2.4463959e-07 -2.2247149e-07 0.748005)
(1.2467729e-07 -3.635955e-07 0.74800496)
(-1.282676e-07 -3.9912233e-07 0.74800493)
(-2.3491148e-07 -2.3491147e-07 0.74800493)
(-7.1846622e-07 -9.7053735e-08 0.74800487)
(-1.1413834e-06 -1.8411634e-07 0.74800474)
(-9.7835552e-07 -3.1668153e-07 0.74800465)
(-5.2309333e-07 -3.1377591e-07 0.74800467)
(-7.79972e-08 -3.0904496e-07 0.7480049)
(-5.9250368e-08 -5.309488e-07 0.74800526)
(-2.5023794e-08 -7.86683e-07 0.74800502)
(5.9193574e-08 -8.5871191e-07 0.74800493)
(1.4721596e-09 -7.4544405e-07 0.74800488)
(-9.705375e-08 -7.184662e-07 0.74800487)
(-6.9464895e-07 -6.9464895e-07 0.74800482)
(-1.1993233e-06 -6.4504234e-07 0.74800468)
(-1.0189729e-06 -5.8998784e-07 0.7480046)
(-5.5256241e-07 -5.1824561e-07 0.74800465)
(-9.4298628e-08 -4.7648679e-07 0.74800491)
(-1.1897921e-07 -9.7185207e-07 0.74800522)
(-8.3123517e-08 -1.0684877e-06 0.74800495)
(1.6591623e-07 -1.0498393e-06 0.74800485)
(1.1978109e-08 -9.7969553e-07 0.74800479)
(-1.8411637e-07 -1.1413834e-06 0.74800474)
(-6.4504236e-07 -1.1993233e-06 0.74800468)
(-1.0367223e-06 -1.0367223e-06 0.74800457)
(-8.5155878e-07 -8.2785269e-07 0.74800454)
(-4.0959227e-07 -6.403943e-07 0.74800466)
(-5.0157988e-08 -5.0512021e-07 0.74800501)
(-1.2367415e-07 -5.5281358e-07 0.74800517)
(-1.0301107e-07 -4.5461579e-07 0.74800488)
(1.4798579e-07 -8.0912356e-07 0.74800477)
(-9.0071857e-08 -8.8931336e-07 0.74800471)
(-3.1668152e-07 -9.783555e-07 0.74800465)
(-5.8998787e-07 -1.0189729e-06 0.7480046)
(-8.2785272e-07 -8.5155875e-07 0.74800454)
(-6.2264495e-07 -6.2264493e-07 0.74800459)
(-2.2982992e-07 -4.176866e-07 0.74800483)
(-4.1158993e-09 -3.1888215e-07 0.74800524)
(-5.3514015e-08 -2.2127347e-07 0.74800523)
(-3.394335e-07 9.7969362e-08 0.74800497)
(-2.6878134e-07 -4.2647121e-07 0.74800475)
(-1.5725382e-07 -5.6019895e-07 0.74800469)
(-3.1377591e-07 -5.2309332e-07 0.74800467)
(-5.1824561e-07 -5.5256237e-07 0.74800465)
(-6.4039434e-07 -4.0959225e-07 0.74800466)
(-4.1768664e-07 -2.2982989e-07 0.74800483)
(-1.0582949e-07 -1.058295e-07 0.74800517)
(1.5711645e-08 3.6296015e-08 0.74800558)
(8.9154407e-08 -7.918689e-08 0.74800523)
(-3.082088e-07 6.3481532e-08 0.74800513)
(-5.1018252e-07 -5.8370427e-08 0.74800491)
(-1.8669397e-07 -9.7452589e-08 0.74800488)
(-3.0904494e-07 -7.799719e-08 0.7480049)
(-4.764868e-07 -9.4298613e-08 0.74800491)
(-5.0512025e-07 -5.0157979e-08 0.74800501)
(-3.1888221e-07 -4.1158849e-09 0.74800524)
(3.6295994e-08 1.571164e-08 0.74800558)
(9.0634444e-08 9.0634439e-08 0.748006)
(-2.13229e-07 -2.1322901e-07 0.74801543)
(-2.5582994e-07 -3.079506e-08 0.74801518)
(7.6774839e-08 -1.0096846e-07 0.74801516)
(-2.7806799e-07 -1.9052155e-07 0.74801519)
(-2.4766428e-07 -9.4597588e-09 0.74801522)
(-4.8499545e-07 -1.3852151e-07 0.74801535)
(-9.8151709e-07 -2.0691632e-07 0.74801536)
(-4.9765552e-07 -2.1351475e-07 0.7480154)
(-1.334768e-07 -1.3043532e-07 0.74801556)
(-5.9451964e-08 6.8457723e-08 0.74801564)
(-3.0795055e-08 -2.5582995e-07 0.74801518)
(-8.7439112e-08 -8.7439112e-08 0.74801503)
(-1.628149e-07 -8.6159766e-08 0.748015)
(-1.4080494e-07 -8.5982897e-08 0.74801501)
(-1.6966422e-07 1.3988308e-07 0.7480151)
(-7.8118028e-07 -1.7946127e-07 0.74801519)
(-1.094007e-06 -2.5417424e-07 0.74801518)
(-3.8293402e-07 -2.8307655e-07 0.74801522)
(2.8948191e-07 -5.4770902e-07 0.74801542)
(1.3944108e-07 -4.2434394e-07 0.74801567)
(-1.0096845e-07 7.677486e-08 0.74801516)
(-8.6159758e-08 -1.6281491e-07 0.748015)
(7.8231054e-08 7.8231054e-08 0.748015)
(-5.202515e-08 2.3754866e-07 0.74801505)
(-3.4114265e-07 1.1189698e-07 0.74801514)
(-8.7905276e-07 1.7082543e-08 0.74801519)
(-1.0851324e-06 1.1815138e-07 0.74801519)
(-7.911903e-07 1.0469698e-07 0.74801523)
(-2.747442e-07 -3.5089791e-07 0.74801534)
(2.2791421e-08 -5.694678e-07 0.74801561)
(-1.9052157e-07 -2.7806797e-07 0.74801519)
(-8.5982918e-08 -1.4080494e-07 0.74801501)
(2.3754866e-07 -5.2025122e-08 0.74801505)
(-1.0713902e-07 -1.0713903e-07 0.74801512)
(-3.9013033e-07 -1.0758337e-07 0.74801521)
(-7.7492588e-07 1.6743556e-08 0.74801527)
(-1.0063925e-06 1.3771391e-08 0.74801529)
(-8.5198332e-07 -7.2836301e-08 0.74801536)
(-3.8468287e-07 -1.0520366e-07 0.7480155)
(-6.2721831e-09 -1.0250121e-07 0.74801579)
(-9.4597636e-09 -2.476643e-07 0.74801522)
(1.3988309e-07 -1.6966423e-07 0.7480151)
(1.1189697e-07 -3.4114265e-07 0.74801514)
(-1.075834e-07 -3.901303e-07 0.74801521)
(-2.1726007e-07 -2.1726007e-07 0.74801533)
(-7.57698e-07 -7.0946186e-08 0.74801542)
(-1.1747122e-06 -1.6250315e-07 0.74801544)
(-9.1016535e-07 -2.75608e-07 0.74801554)
(-3.0440911e-07 -2.270933e-07 0.74801572)
(2.4593054e-08 -1.8934354e-07 0.74801604)
(-1.3852152e-07 -4.8499543e-07 0.74801535)
(-1.7946127e-07 -7.8118028e-07 0.74801519)
(1.7082585e-08 -8.7905278e-07 0.74801519)
(1.6743564e-08 -7.7492585e-07 0.74801527)
(-7.0946215e-08 -7.5769795e-07 0.74801542)
(-7.2016896e-07 -7.2016896e-07 0.74801554)
(-1.2110543e-06 -6.377498e-07 0.7480156)
(-9.1657346e-07 -5.3392571e-07 0.74801574)
(-2.9841841e-07 -3.9849058e-07 0.74801595)
(1.8894322e-08 -2.8878579e-07 0.74801627)
(-2.0691633e-07 -9.8151706e-07 0.74801536)
(-2.5417425e-07 -1.0940069e-06 0.74801518)
(1.181514e-07 -1.0851323e-06 0.74801519)
(1.3771427e-08 -1.0063925e-06 0.74801529)
(-1.6250318e-07 -1.1747122e-06 0.74801544)
(-6.3774985e-07 -1.2110543e-06 0.7480156)
(-9.8846898e-07 -9.8846898e-07 0.74801572)
(-6.7090614e-07 -6.9315077e-07 0.74801593)
(-5.926919e-08 -4.0188827e-07 0.74801621)
(9.7729583e-08 -2.0353882e-07 0.74801661)
(-2.1351477e-07 -4.976555e-07 0.7480154)
(-2.8307654e-07 -3.82934e-07 0.74801522)
(1.04697e-07 -7.9119026e-07 0.74801523)
(-7.2836293e-08 -8.5198329e-07 0.74801536)
(-2.7560801e-07 -9.1016537e-07 0.74801554)
(-5.3392576e-07 -9.1657344e-07 0.74801574)
(-6.9315079e-07 -6.7090611e-07 0.74801593)
(-3.2999274e-07 -3.2999275e-07 0.74801622)
(1.9119355e-07 -3.4031856e-08 0.74801659)
(1.5112729e-07 4.1991029e-08 0.74801696)
(-1.3043532e-07 -1.3347678e-07 0.74801556)
(-5.4770901e-07 2.8948197e-07 0.74801542)
(-3.508979e-07 -2.7474416e-07 0.74801534)
(-1.0520368e-07 -3.8468282e-07 0.7480155)
(-2.2709332e-07 -3.0440912e-07 0.74801572)
(-3.9849059e-07 -2.9841836e-07 0.74801595)
(-4.0188829e-07 -5.9269176e-08 0.74801621)
(-3.4031885e-08 1.9119356e-07 0.74801659)
(3.1271459e-07 3.1271458e-07 0.74801696)
(1.4841151e-07 3.931012e-07 0.74801723)
(6.8457728e-08 -5.9451963e-08 0.74801564)
(-4.2434392e-07 1.3944109e-07 0.74801567)
(-5.6946779e-07 2.2791435e-08 0.74801561)
(-1.0250125e-07 -6.2721694e-09 0.74801579)
(-1.8934355e-07 2.4593054e-08 0.74801604)
(-2.8878581e-07 1.889435e-08 0.74801627)
(-2.0353887e-07 9.7729573e-08 0.74801661)
(4.1991015e-08 1.511273e-07 0.74801696)
(3.931012e-07 1.4841151e-07 0.74801723)
(2.0471837e-07 2.0471837e-07 0.74801751)
(-2.7718982e-07 -2.7718981e-07 0.74802819)
(-3.4277227e-07 -6.0685276e-08 0.74802808)
(1.1920764e-07 -1.3543095e-07 0.74802814)
(-2.1113395e-07 -2.2895776e-07 0.74802824)
(-1.3776447e-07 -2.6613307e-08 0.74802832)
(-3.8786478e-07 -1.6849671e-07 0.74802849)
(-9.2152128e-07 -2.393665e-07 0.74802855)
(-3.6023504e-07 -2.4168749e-07 0.74802866)
(2.2867952e-08 -1.4385465e-07 0.74802886)
(-2.0659224e-08 1.0683823e-07 0.74802896)
(-6.0685286e-08 -3.4277222e-07 0.74802808)
(-1.3013398e-07 -1.3013398e-07 0.74802807)
(-1.3320109e-07 -1.1681063e-07 0.74802812)
(-4.7907485e-08 -1.0083722e-07 0.7480282)
(-4.707288e-08 1.600969e-07 0.74802836)
(-7.0699458e-07 -1.8679507e-07 0.7480285)
(-1.0313074e-06 -2.5385457e-07 0.74802857)
(-2.1696727e-07 -2.7109421e-07 0.74802868)
(5.4565653e-07 -5.5529073e-07 0.74802893)
(2.3003366e-07 -3.4499431e-07 0.74802918)
(-1.3543099e-07 1.1920764e-07 0.74802814)
(-1.1681068e-07 -1.3320109e-07 0.74802812)
(1.485044e-07 1.4850442e-07 0.7480282)
(6.5773584e-08 3.4732989e-07 0.74802834)
(-2.2372232e-07 2.3260529e-07 0.74802852)
(-8.0181625e-07 1.4075575e-07 0.74802866)
(-1.0058204e-06 2.7214536e-07 0.74802876)
(-6.616712e-07 2.893715e-07 0.7480289)
(-5.1032146e-08 -1.9406349e-07 0.74802907)
(1.1953839e-07 -3.9298178e-07 0.74802933)
(-2.2895777e-07 -2.1113399e-07 0.74802824)
(-1.008372e-07 -4.7907456e-08 0.7480282)
(3.4732989e-07 6.5773598e-08 0.74802834)
(3.6193384e-08 3.6193427e-08 0.74802853)
(-2.5364702e-07 6.9237749e-08 0.74802875)
(-6.6745451e-07 2.3019984e-07 0.74802893)
(-8.826917e-07 2.5924858e-07 0.74802909)
(-6.8317611e-07 2.1750363e-07 0.74802929)
(-1.3669676e-07 2.2351994e-07 0.74802948)
(9.7421463e-08 2.4092693e-07 0.74802975)
(-2.6613307e-08 -1.3776447e-07 0.74802832)
(1.600969e-07 -4.7072866e-08 0.74802836)
(2.3260529e-07 -2.2372236e-07 0.74802852)
(6.9237735e-08 -2.5364699e-07 0.74802875)
(-2.9715899e-08 -2.9715856e-08 0.74802903)
(-6.1180542e-07 1.746686e-07 0.74802929)
(-1.0185166e-06 1.2489828e-07 0.74802949)
(-6.9739984e-07 5.4105769e-08 0.74802973)
(-2.7608842e-08 1.3852048e-07 0.74802996)
(1.3114305e-07 1.7717584e-07 0.74803021)
(-1.6849671e-07 -3.8786474e-07 0.74802849)
(-1.867951e-07 -7.0699456e-07 0.7480285)
(1.4075577e-07 -8.0181623e-07 0.74802866)
(2.3019989e-07 -6.6745447e-07 0.74802893)
(1.7466857e-07 -6.1180538e-07 0.74802929)
(-5.1284037e-07 -5.1284034e-07 0.74802963)
(-1.0032545e-06 -3.6351131e-07 0.7480299)
(-6.6955391e-07 -2.0420082e-07 0.74803018)
(-1.3626682e-08 -2.7817635e-08 0.7480304)
(1.231917e-07 1.0258592e-07 0.7480306)
(-2.3936652e-07 -9.2152126e-07 0.74802855)
(-2.5385459e-07 -1.0313074e-06 0.74802857)
(2.7214538e-07 -1.0058203e-06 0.74802876)
(2.5924859e-07 -8.8269169e-07 0.74802909)
(1.2489824e-07 -1.0185166e-06 0.74802949)
(-3.6351135e-07 -1.0032545e-06 0.7480299)
(-7.0987712e-07 -7.0987711e-07 0.74803025)
(-3.6170616e-07 -3.4181687e-07 0.74803057)
(2.791779e-07 2.1328213e-09 0.7480308)
(2.1807875e-07 1.8297545e-07 0.748031)
(-2.4168748e-07 -3.6023505e-07 0.74802866)
(-2.7109419e-07 -2.1696724e-07 0.74802868)
(2.893715e-07 -6.6167117e-07 0.7480289)
(2.175036e-07 -6.8317611e-07 0.74802929)
(5.4105762e-08 -6.9739983e-07 0.74802973)
(-2.0420085e-07 -6.6955387e-07 0.74803018)
(-3.4181691e-07 -3.6170614e-07 0.74803057)
(4.2456022e-08 4.2456037e-08 0.74803092)
(5.1116564e-07 3.3434649e-07 0.74803116)
(2.4375345e-07 3.0101702e-07 0.74803127)
(-1.4385465e-07 2.2867987e-08 0.74802886)
(-5.5529071e-07 5.4565655e-07 0.74802893)
(-1.9406349e-07 -5.1032138e-08 0.74802907)
(2.2351993e-07 -1.3669673e-07 0.74802948)
(1.3852048e-07 -2.7608841e-08 0.74802996)
(-2.7817656e-08 -1.3626682e-08 0.7480304)
(2.1327861e-09 2.7917792e-07 0.7480308)
(3.3434646e-07 5.1116566e-07 0.74803116)
(5.3773888e-07 5.3773889e-07 0.74803132)
(1.9585911e-07 5.8389347e-07 0.74803135)
(1.0683822e-07 -2.0659205e-08 0.74802896)
(-3.4499431e-07 2.3003367e-07 0.74802918)
(-3.9298177e-07 1.1953839e-07 0.74802933)
(2.409269e-07 9.7421477e-08 0.74802975)