/*--------------------------------*- C++ -*----------------------------------*\
| =========                 |                                                 |
| \\      /  F ield         | OpenFOAM: The Open Source CFD Toolbox           |
|  \\    /   O peration     | Version:  v2106                                 |
|   \\  /    A nd           | Website:  www.openfoam.com                      |
|    \\/     M anipulation  |                                                 |
\*---------------------------------------------------------------------------*/
FoamFile
{
    version     2.0;
    format      ascii;
    arch        "LSB;label=32;scalar=64";
    class       volScalarField;
    location    "30";
    object      gradTy;
}
// * * * * * * * * * * * * * * * * * * * * * * * * * * * * * * * * * * * * * //

dimensions      [0 -1 0 1 0 0 0];

internalField   nonuniform List<scalar> 
10000
(
-1.9124817e-05
0.00031934563
0.00012984585
-4.3708042e-05
0.00027961291
0.00021608391
-6.9031973e-06
1.6813866e-05
0.00024337121
0.00019657108
0.00046621648
0.00068967259
0.00027244968
0.00036444996
0.00085658829
0.0004786792
0.00018485554
0.00043109273
0.00057503522
0.00023834286
0.00043979227
-0.00010478823
0.0001145697
0.00055304056
0.00031446601
6.3647463e-05
0.00034341076
0.00059151247
0.00031221339
1.5093349e-05
-0.00045736584
-0.00023271542
0.00012677273
-3.2819031e-05
-0.00026432076
-2.8513057e-05
0.00025318491
0.0002123742
0.00013004325
0.00015381642
-0.00016933862
0.00022034919
-5.5109467e-05
-0.00026904391
-5.080355e-05
0.00025752732
0.00029073519
0.00020008903
0.00021606468
0.00023214173
2.6774046e-05
-0.000403
-0.0006449587
-0.00037405536
-0.00012745289
-3.2516596e-05
5.2104951e-06
9.2935551e-05
0.00018308373
0.00013713787
-0.00074564053
-0.0010445455
-0.00079322689
-0.00051668047
-0.00055233957
-0.00057411873
-0.0004268874
-0.00019053994
-3.8580538e-05
-4.7002231e-05
-0.00074145402
-0.00036604251
-0.00035127425
-0.00039723969
-0.00047441605
-0.00047191011
-0.0002965426
-8.3603254e-05
-8.3692838e-06
-7.1823081e-05
0.00012113122
0.00039076696
-7.16187e-05
-0.000185652
-0.00013017652
-0.0001535995
-8.5974193e-05
-1.006174e-05
-7.4193849e-05
-0.00023774064
0.00021539097
0.00016859083
-9.0706939e-06
-2.9489172e-05
6.778104e-06
-1.8771345e-05
-2.3852522e-05
-2.4385732e-05
-6.6154939e-05
-0.00013341683
0.00011678632
0.00043754998
0.0002209106
0.00011640168
0.00057350129
0.00024839142
1.9659732e-05
0.0001664463
0.00044616111
0.00039881684
0.00082047183
0.00097665836
0.00077623758
0.0010003627
0.0015336474
0.0007361017
0.00058299739
0.00098377288
0.00084153083
0.00025536824
0.00059536842
0.00011364597
0.00061907281
0.00099711292
0.00055425829
0.0004334911
0.0010249014
0.0012562535
0.00056241487
-7.4699131e-05
-0.00062584829
-9.6962168e-05
0.00013156162
-0.00016177674
-0.00027735768
0.00027912722
0.00070616122
0.00060666264
0.00049355617
0.00042204505
-0.00023977046
-4.1785768e-05
-0.00050403136
-0.00060540768
-6.3127345e-05
0.00048520764
0.00052209279
0.00034947877
0.0003655116
0.00030338796
-0.00072915529
-0.0015599178
-0.0016798055
-0.0010892747
-0.00069628646
-0.00050405433
-0.00029185764
-6.5369221e-05
8.4903121e-05
-3.8338585e-05
-0.0022211632
-0.0023440809
-0.0019734921
-0.0015213185
-0.0016459568
-0.0016570474
-0.0012072715
-0.00068639145
-0.00041001562
-0.00045105648
-0.0013731623
-0.00073341025
-0.0011146289
-0.0011958967
-0.001327234
-0.001352478
-0.00095047318
-0.00055522204
-0.00048060312
-0.00069189082
0.00020294647
0.00055150238
-0.00052545806
-0.00077945043
-0.00071007565
-0.00082554098
-0.00068304505
-0.00059020616
-0.0008197137
-0.0012334404
0.0002801699
0.00023282564
-0.00011060513
-0.00019191712
-0.00015827925
-0.00023333276
-0.00024044037
-0.00026069345
-0.00038129879
-0.00053651111
4.9576992e-05
0.00049276237
0.00037517941
0.00016396416
0.00059829161
0.00022899034
9.5410163e-05
0.00019138351
0.00042241076
0.00054439785
0.00060218804
0.0010905917
0.0010874802
0.0010878256
0.001627809
0.000831027
0.0008233279
0.0010462947
0.00055758306
9.9106046e-05
0.00070943562
0.00021623836
0.00070666957
0.0010430056
0.00070818712
0.00069911721
0.0012820408
0.0013995401
0.00037808388
-0.00049220802
-0.00053342271
-0.00019875432
6.9060762e-06
-0.00019723692
-0.00015902631
0.00047483553
0.00082451399
0.00063377621
0.00043186751
0.00021593851
-0.00067956955
-0.0005820304
-0.0009363682
-0.0009259187
-0.00026429575
0.00035313005
0.00033222924
4.4341731e-05
-1.2791418e-05
-0.00015283587
-0.0016770059
-0.0024313282
-0.0024814869
-0.0018574744
-0.0014979467
-0.0012609493
-0.00096115369
-0.0007195832
-0.00059245676
-0.00074687429
-0.0031205486
-0.0031769588
-0.0029052808
-0.0024765359
-0.0027463402
-0.0027853241
-0.002204974
-0.0015957622
-0.0012986868
-0.0013308414
-0.0016783897
-0.0011878887
-0.0019441345
-0.0020918457
-0.0023367811
-0.0024368662
-0.001968084
-0.001530579
-0.001455089
-0.0016901701
-0.00020291733
0.00032660432
-0.001150106
-0.0015651439
-0.0015679436
-0.0017623215
-0.0015952347
-0.0014974007
-0.0017548257
-0.0020167677
4.4930573e-05
0.00016691769
-0.00026072077
-0.00041327684
-0.00040467336
-0.00050663984
-0.00050761842
-0.00052807633
-0.00066433914
-0.0007027042
-0.00011551634
0.00044145241
0.00022516332
-9.0061444e-05
0.00046596402
8.3028094e-05
-0.00010437247
-8.3965593e-05
0.00016726256
0.00051610469
0.00035980836
0.00087082779
0.00079322172
0.00073192609
0.0014626416
0.00057978051
0.00045698477
0.00049497754
-0.00024459936
-0.00044510426
0.00072162934
-7.5641537e-05
0.00058272755
0.0010585644
0.00070635275
0.00060188299
0.0011130249
0.0011192384
-0.00027093199
-0.0012666239
-0.00081669327
-0.00045549231
-0.0001472734
-0.000331867
-0.00030067901
0.00029699549
0.0005028879
0.00017002011
-0.0001299085
-0.0003554313
-0.0011194419
-0.00085980761
-0.0012715874
-0.0013164889
-0.00064272473
-3.5300303e-05
-0.00021778055
-0.00067337552
-0.00075527166
-0.0008564628
-0.0020756928
-0.0029311975
-0.0030813496
-0.0025245253
-0.0022777826
-0.0020995809
-0.0018634826
-0.0016837037
-0.0015428523
-0.0016111635
-0.0035877729
-0.0038382634
-0.0036725757
-0.003320908
-0.0037995513
-0.0039589831
-0.0033836739
-0.0027355027
-0.0023172438
-0.0021444262
-0.0020462663
-0.0016388137
-0.0027478503
-0.0030227706
-0.0033806469
-0.0035602617
-0.0030600164
-0.0024938315
-0.0021586911
-0.002100918
-0.00074693765
0.00015316769
-0.0016870195
-0.0022326946
-0.0022124707
-0.0024157819
-0.0021399305
-0.0018247054
-0.0017470171
-0.0014536663
-0.0002179691
0.00013087299
-0.00035163902
-0.00053292164
-0.00050198745
-0.00060038239
-0.00054752834
-0.00048517071
-0.000509013
-0.00028960346
-0.00045698571
0.00015928312
-0.00010519155
-0.00044535633
0.00020604108
-0.00023700147
-0.00047591694
-0.00049469662
-0.0002140561
0.00035661767
-0.0003020059
0.00022568529
0.0001805345
0.00015186862
0.00097855835
-0.00010009521
-0.00033249404
-0.00041204433
-0.0013577341
-0.0012328352
0.0004598877
-0.00044707147
0.00038607112
0.00094337773
0.00049870903
0.0002367743
0.00066366499
0.00059194318
-0.0010751254
-0.0020407302
-0.0010883345
-0.00062148556
-0.00029031045
-0.00050884739
-0.00051307035
5.8887495e-06
4.7912408e-05
-0.00036028749
-0.00062901529
-0.00074677595
-0.0012024182
-0.00088988594
-0.001454382
-0.0015964893
-0.00093964587
-0.00038821494
-0.00073646535
-0.0012667261
-0.0012551037
-0.0012361798
-0.0021237952
-0.003146732
-0.0034348477
-0.0029817762
-0.0028738648
-0.0027785958
-0.0025801694
-0.0023599514
-0.0020729824
-0.0019059472
-0.0038874083
-0.004273951
-0.0041993574
-0.0039187821
-0.0045655334
-0.0047972932
-0.0041468891
-0.0033114108
-0.0025615772
-0.0020204808
-0.0022112543
-0.0018184632
-0.0032364943
-0.0035572535
-0.003913422
-0.0040758916
-0.003406235
-0.0024905797
-0.0016707464
-0.0012755286
-0.0008850939
0.00039187745
-0.0017058848
-0.0022407958
-0.0020923733
-0.0022102495
-0.001638369
-0.00091931958
-0.000423318
0.00014518406
-0.00031674756
0.00025392613
-0.00023348171
-0.00038981036
-0.00031198876
-0.00037719445
-0.00020063192
-1.646354e-05
6.2846559e-05
0.00036253776
-0.00085291604
-0.00012318024
-0.00040387384
-0.00076208621
-3.7839035e-05
-0.00055408604
-0.00082766527
-0.00085405901
-0.00052174126
0.00027383089
-0.0010233198
-0.00034975645
-0.00034463906
-0.00034393159
0.00055953231
-0.00071784507
-0.001016697
-0.0011323062
-0.0021908361
-0.0016973758
0.00030709944
-0.00065125963
0.00031292422
0.00095019462
0.00044758792
6.833017e-05
0.00047260554
0.00041878792
-0.0014035917
-0.0022778712
-0.0011122719
-0.00056321977
-0.00020810049
-0.00042855612
-0.00043033347
6.6974224e-05
5.5085565e-05
-0.0002913452
-0.00042081464
-0.00041000484
-0.00099065719
-0.0006786569
-0.0013645706
-0.0015605212
-0.00086904029
-0.00028378474
-0.00065001259
-0.001102432
-0.00090837318
-0.00075737415
-0.0019399817
-0.0031247211
-0.0035162111
-0.0030997034
-0.0030307918
-0.0028806758
-0.0025509992
-0.0021357028
-0.0015939623
-0.0011551432
-0.0039260682
-0.0043760278
-0.0043405293
-0.0040255701
-0.0046988487
-0.0048442173
-0.0039538759
-0.0027726031
-0.0016075531
-0.00081415527
-0.001990622
-0.001531736
-0.003164761
-0.0034079332
-0.0036406615
-0.0036662938
-0.0026836244
-0.001319971
-0.00013612742
0.00016796412
-0.00053390713
0.0011579279
-0.0010989766
-0.0015387313
-0.0012176365
-0.0011936734
-0.0002370767
0.00076477423
0.0012508583
0.0015724048
-0.00023780785
0.00055776436
9.116574e-05
-2.5088677e-05
9.8372216e-05
7.5577398e-05
0.00039091829
0.00060450918
0.00059364603
0.00081887346
-0.0011087592
-0.0002427411
-0.00054172381
-0.00091583106
-0.00010645323
-0.00067398683
-0.00095746602
-0.00096674995
-0.00057541862
0.00042735291
-0.0013710889
-0.00052053593
-0.00046724253
-0.00040334888
0.00064038761
-0.00074718028
-0.0010154183
-0.0010843768
-0.0022211629
-0.0013799772
0.00047683056
-0.00053280436
0.00059401768
0.0013893196
0.00093042115
0.00056302301
0.0010885814
0.001157486
-0.00077625396
-0.0015719271
-0.00084453595
-0.00019162982
0.00026309439
0.00014477371
0.000276951
0.00092079938
0.0010369943
0.0008700145
0.00089407976
0.00096370772
-0.00055105786
-0.00018829147
-0.00089488944
-0.001014588
-0.00011886343
0.0006986744
0.00049959311
0.00021642308
0.00055408194
0.00070870337
-0.001551459
-0.0028279782
-0.0032072649
-0.0026698179
-0.0024472215
-0.0020513613
-0.0014540452
-0.00081680329
-0.00011127054
0.00041034369
-0.003686085
-0.0041252297
-0.0040232814
-0.0035307667
-0.0040740665
-0.004013018
-0.0028395084
-0.0013672675
8.5312851e-06
0.00073190179
-0.0014409402
-0.00086786898
-0.0026466847
-0.0027327044
-0.0027895993
-0.0026782155
-0.0014468245
0.00016982415
0.001337386
0.0012040681
9.1471948e-05
0.0021826262
-0.00020412855
-0.00054678691
-0.00011043537
-5.4506729e-05
0.0011167117
0.0020446626
0.0021509556
0.0023355739
-8.2636821e-05
0.00092013467
0.00047815358
0.00038968591
0.00052457216
0.00049276679
0.000872315
0.00097501385
0.00078343643
0.0010980927
-0.001132314
-0.00014664674
-0.00047528507
-0.0008555365
6.0568974e-05
-0.00052943386
-0.00079900655
-0.00078372273
-0.00034235651
0.00084587477
-0.0012004526
-0.00021490919
-0.00010621628
7.7923718e-05
0.0013479595
-4.314438e-05
-0.00018615444
-0.00016169142
-0.0013673257
-0.00021645761
0.00093021848
-0.00013311609
0.0012230514
0.0022762366
0.0019882324
0.0017781523
0.0025580655
0.0028315294
0.0008108207
1.5693704e-05
-0.00038841605
0.00041536498
0.0010657597
0.001180546
0.0016087178
0.0025731929
0.0029692779
0.0030516167
0.0031606783
0.0030820555
2.7443804e-05
0.00051659785
-9.3624209e-05
1.8513644e-05
0.0012990228
0.002528282
0.0026227899
0.002494646
0.002769593
0.0026231
-0.0010149218
-0.0023042851
-0.0025490357
-0.0017344519
-0.0011884756
-0.00041068463
0.00048270641
0.0011922916
0.001749242
0.0020292317
-0.0032705677
-0.0036520011
-0.0033891149
-0.002598624
-0.002910691
-0.0026322599
-0.0013077146
0.00017905071
0.001418034
0.0018624618
-0.00076924812
-8.4273069e-05
-0.0019504195
-0.0018315179
-0.0017590191
-0.0016847148
-0.00049248357
0.0010410339
0.0019767261
0.001553938
0.00069434574
0.0031387419
0.00063957958
0.00032290629
0.00067001838
0.00045136016
0.0015069584
0.0021347713
0.0020198625
0.0025263037
3.7338643e-05
0.0012255699
0.00080458409
0.00069548525
0.00075216892
0.0005978232
0.00093882867
0.00089410844
0.00065696992
0.0012317359
-0.00099098726
5.4949849e-05
-0.00031277832
-0.0007002029
0.00032057687
-0.00029345912
-0.00055379121
-0.00051920652
-1.5698788e-05
0.0013374534
-0.00074906677
0.00026824677
0.00042442079
0.00073500678
0.0022378326
0.00084894748
0.00082675905
0.00094852444
-0.00027297133
0.0011068026
0.0013918837
0.00025915469
0.0018586439
0.0031905489
0.0030958182
0.003057561
0.0040992652
0.0046013846
0.0025029645
0.0015262515
-8.2099208e-06
0.00094182272
0.0018052018
0.0021789971
0.0029209457
0.0042171126
0.0049091
0.0052266475
0.0052715157
0.0047486065
0.00049916233
0.0011092779
0.00061310283
0.00097628996
0.0026512185
0.0043121261
0.0047038528
0.0046084338
0.0045187026
0.0037627801
-0.00058507058
-0.0018966228
-0.0019961443
-0.0008931757
-7.9897973e-06
0.0011594586
0.0022683024
0.0028024201
0.0028733038
0.0027023096
-0.0029647518
-0.0033033729
-0.0028651748
-0.0017595493
-0.00185564
-0.0014632417
-0.00021267843
0.00099234077
0.0018952939
0.002061192
-0.0002371963
0.00056994239
-0.0013369266
-0.0010263583
-0.00097451093
-0.0012115086
-0.00036950962
0.0008964638
0.0016854674
0.0011122695
0.0011172904
0.0039022802
0.0012755687
0.0008271472
0.00079752757
-1.8506429e-05
0.00069741708
0.0010503449
0.00091322289
0.0014227672
9.109819e-05
0.0014442503
0.0010109476
0.00079310839
0.00066234135
0.00028916014
0.00054834533
0.00039975892
0.00016621343
0.00073945517
-0.00084393673
0.00021299498
-0.00021178164
-0.00063694982
0.00044403263
-0.00024256589
-0.00053644358
-0.00050166811
7.4721561e-05
0.0015592947
-0.0004241636
0.0005240691
0.00066724821
0.0010056307
0.0026079848
0.0010743651
0.0010362384
0.0011762258
-6.3868589e-05
0.0014449255
0.0015358272
0.00026091004
0.0020173889
0.0035030914
0.0034447194
0.0034024734
0.0045345117
0.005145729
0.0028908362
0.0016417466
-2.8370638e-05
0.00095535071
0.0019123659
0.0023826813
0.0032356042
0.0046470994
0.0054465025
0.0058379861
0.0056666354
0.0046824313
0.00051716072
0.0011087366
0.00058589501
0.0010081185
0.0028503131
0.0047402283
0.0052551776
0.0049838129
0.0043665641
0.003111087
-0.00061718805
-0.0020879024
-0.0021889346
-0.00099811024
2.1963814e-05
0.0014067543
0.0025395153
0.0026788014
0.0021915556
0.0017626861
-0.0030697051
-0.0034583584
-0.0029678443
-0.0017151029
-0.0017769575
-0.0014715183
-0.00050491061
0.00029231313
0.00093065015
0.00095786262
6.447147e-06
0.00092319507
-0.0010936596
-0.00072048053
-0.00087352683
-0.0016090941
-0.0012214865
-0.00017353327
0.00055386181
-0.00037635342
0.001376527
0.0044679711
0.0016452268
0.00096398892
0.00048967192
-0.00090873695
-0.00042644331
-0.00024318748
-0.00062926347
-0.00070289144
0.0001047866
0.0015893596
0.0011106493
0.00075663331
0.00045451327
-8.0351335e-05
0.00016860025
-6.2209796e-05
-0.00045154328
-0.00011129509
-0.00080767863
0.00026591836
-0.00023313156
-0.00073072448
0.00036844803
-0.00043007975
-0.00079035634
-0.00077833473
-0.00016302854
0.0014582571
-0.00045220071
0.00040961987
0.0004637945
0.00070657959
0.0022648385
0.00044466146
0.0002522107
0.0002677811
-0.0011042436
0.00063164038
0.0012475205
-0.00024744384
0.0015444802
0.003014557
0.00280078
0.002549609
0.003531937
0.0040281194
0.0015628721
0.00033227289
-0.00058125642
0.00032111308
0.0012197876
0.0015774129
0.0022978175
0.0035384098
0.0041467083
0.0044188647
0.0041329568
0.0031846781
-3.9469114e-05
0.00041149806
-0.00030138728
-5.3449924e-05
0.0016596098
0.003463825
0.0038406644
0.0032948542
0.0024093313
0.00125036
-0.0011798681
-0.0029180748
-0.003192496
-0.0021869178
-0.0013436052
-5.8630834e-06
0.00098019711
0.00076329175
7.2491844e-05
-0.00010099105
-0.0035818828
-0.0041042653
-0.0037587631
-0.002625755
-0.0028783084
-0.0027947258
-0.0021091535
-0.001526251
-0.00085769733
-0.00067893955
2.0336666e-05
0.00096132834
-0.0013361176
-0.0010077365
-0.0013498692
-0.0024390698
-0.0022575745
-0.0011876134
-0.00047791605
-0.001591309
0.0015232941
0.004878182
0.0018871535
0.0011823355
0.00065296686
-0.00086215872
-0.00021131607
-1.4847274e-05
-0.00061501151
-0.00028071975
8.728889e-05
0.0017085746
0.0012445449
0.00088817512
0.00061235905
0.00011552764
0.00049670384
0.00023469943
-0.00024555819
0.00045756059
-0.00082328584
0.00029450829
-0.00028596442
-0.00086340871
0.00027066714
-0.00060011325
-0.00099673984
-0.001006233
-0.00040722504
0.0013821255
-0.00065801887
0.00014796337
6.2732144e-05
0.00016524538
0.001694657
-0.00035730224
-0.00068343957
-0.00086669113
-0.0024545629
-0.00032982117
0.00069966984
-0.0010372056
0.00071695197
0.0021000156
0.0016858364
0.0011772097
0.0018832642
0.0021539923
-0.00038089453
-0.0013034881
-0.0014441091
-0.00060916179
0.00018781568
0.00035972258
0.00086268321
0.0017705118
0.0019917224
0.0021743512
0.0021619851
0.0015751086
-0.00080788132
-0.00041293816
-0.001330429
-0.0013357441
8.0360172e-05
0.0015640858
0.0016940585
0.0011084511
0.00047285837
-0.00037386292
-0.0017681997
-0.0036693102
-0.0041462962
-0.0034718823
-0.003017257
-0.001858184
-0.00091036748
-0.0010579006
-0.0014612606
-0.0012865085
-0.0040070148
-0.0046161944
-0.0045164039
-0.0036394118
-0.0041125644
-0.0040950466
-0.003312281
-0.0024488059
-0.0014083129
-0.00091023898
8.2519819e-05
0.00096679204
-0.0016886037
-0.0012973667
-0.0015183409
-0.002518567
-0.002069234
-0.00061459883
0.00035772413
-0.00034025982
0.001596088
0.0051786258
0.0021329581
0.0017211454
0.0015337156
0.00023883155
0.0013051076
0.001777398
0.0015794466
0.0032911615
2.2493905e-05
0.0018118444
0.0014389884
0.0011967821
0.0010477375
0.00063230134
0.0011642389
0.00096435031
0.00069891617
0.0021054938
-0.00079278074
0.00035414693
-0.00034343645
-0.0010241865
0.00017474249
-0.00067723827
-0.0010439378
-0.0010565404
-0.00053467191
0.0012896409
-0.00083691131
-0.00016289499
-0.00051748233
-0.00063211195
0.00094816781
-0.0011498795
-0.0014782027
-0.0018476927
-0.003729393
-0.0015297793
4.0408912e-05
-0.0020270913
-0.00042880819
0.00082870016
0.00027487818
-0.00041382722
3.7108353e-05
0.00013683245
-0.0023651216
-0.003212908
-0.002356144
-0.0015788755
-0.00089049386
-0.00087518924
-0.00053773369
5.1740608e-05
-8.2259186e-05
0.00024298174
0.00068392623
0.00014685409
-0.0013387555
-0.00081833306
-0.001856523
-0.0020608605
-0.00092959326
0.00024319254
0.00032280863
8.6216119e-05
-0.00018024338
-0.0011144816
-0.0017556931
-0.0035837135
-0.0041820635
-0.0038214833
-0.003726589
-0.0025690815
-0.0012407679
-0.00086566939
-0.00096691545
-0.00073977724
-0.0037688112
-0.0043377644
-0.0044666244
-0.0037871047
-0.0042753832
-0.0039440812
-0.0025719713
-0.001077957
0.00035789211
0.0011687044
0.00043301807
0.0011969167
-0.0018181725
-0.0012053132
-0.0010519871
-0.0017083652
-0.00077813453
0.0012214981
0.0026855944
0.0023651146
0.0014885953
0.0050078673
0.0018065088
0.0016581269
0.0017103812
0.00045742925
0.0018362734
0.0027040903
0.0029798898
0.0039974419
-0.00016800207
0.0016563108
0.0012984071
0.0010911199
0.00094035902
0.0004682944
0.0010917845
0.0010088358
0.00087813125
0.0016872039
-0.00080046991
0.00029786582
-0.00057458761
-0.001416134
-0.0002056587
-0.00098086156
-0.0012750729
-0.0013026203
-0.00096730905
0.00070147139
-0.0012254856
-0.00088666201
-0.0016820271
-0.0022045528
-0.00063885768
-0.0026198605
-0.0028363625
-0.0034382904
-0.005853088
-0.0038543748
-0.00086884884
-0.0034398485
-0.0021867395
-0.0011694459
-0.0017599514
-0.0024756721
-0.0021750963
-0.0022284165
-0.0048451747
-0.0055777345
-0.0033533094
-0.002799916
-0.0023101398
-0.0023731277
-0.0020305552
-0.0015763783
-0.0018727285
-0.0012790966
-0.00058371384
-0.0010305008
-0.0016866874
-0.0010337788
-0.0021019951
-0.0023400049
-0.0013052455
-0.00016970404
0.00017452275
0.00038374204
0.00015628004
-0.0008269393
-0.0011722782
-0.0027763994
-0.0033697831
-0.0031915443
-0.0032119564
-0.0017117761
0.00027501539
0.0010905437
0.00089252699
0.0012099337
-0.0028686012
-0.0033512393
-0.0036870312
-0.0031039837
-0.0033897496
-0.0025505376
-0.00058742976
0.0012414943
0.0027412262
0.0036282151
0.00091485001
0.0013764956
-0.0021018755
-0.0012935827
-0.00081286086
-0.0013118255
-0.00019534923
0.0020168305
0.0036184973
0.002646732
0.00079507728
0.0038012147
0.00037899293
0.00045189669
0.00062758876
-0.00075878466
0.00074697868
0.0016279361
0.00137688
0.00050157655
-0.00066236129
0.0010064191
0.00067011409
0.00051804582
0.00037225622
-0.00013743363
0.00058386066
0.00045389224
-6.3983007e-05
-0.00012964341
-0.0010211906
1.9009785e-05
-0.00095778082
-0.0018770828
-0.00079774064
-0.0015141902
-0.0017339511
-0.001829613
-0.0017649369
-1.6797268e-05
-0.0021298877
-0.0020347732
-0.0029966392
-0.0039084703
-0.002648177
-0.0044529008
-0.0045240509
-0.0054718973
-0.0084605273
-0.0058876777
-0.0019698365
-0.0048139753
-0.0038435336
-0.0032865607
-0.0038597356
-0.0044213752
-0.004174751
-0.0044006911
-0.0069465184
-0.0068469111
-0.0042610559
-0.0040209956
-0.0039125935
-0.0040371976
-0.0034253578
-0.002865649
-0.0031637221
-0.0022806981
-0.0011104692
-0.00086817828
-0.0020878987
-0.0015435598
-0.0026323292
-0.0026783743
-0.0014607808
-0.00010331613
0.00054421417
0.0010242095
0.00099049722
0.00045750465
-0.0006779835
-0.0020822991
-0.0025538573
-0.0023973146
-0.0022922217
-0.00039231963
0.0019018208
0.0026167258
0.0022818282
0.0027038619
-0.0019258241
-0.0023989583
-0.0029448206
-0.0023782742
-0.0023598696
-0.0012507486
0.00064917589
0.0021143111
0.0033811077
0.0036017479
0.0010897124
0.0010432338
-0.0028467641
-0.0017285335
-0.00079351108
-0.0012822507
-0.00041350359
0.0014496813
0.0025079867
0.00014447425
-0.0006470691
0.0020721544
-0.0010628494
-0.00037406562
0.00034967016
-0.00094077041
0.00043680626
0.00054666643
-0.00086840072
-0.00050304695
-0.0014554664
0.0002926732
0.00025976667
0.00035907802
0.00042129388
3.7497312e-06
0.00070264969
0.00015084311
-0.00087302527
0.00039441231
-0.0013948247
-0.00030176845
-0.001303725
-0.0019360605
-0.0011373742
-0.0018487608
-0.0019797504
-0.002149429
-0.0022138697
-4.5224925e-05
-0.0032174541
-0.0030808044
-0.0035786256
-0.0042638802
-0.0035539576
-0.0051384773
-0.0050210562
-0.0061827469
-0.0091261082
-0.0054668816
-0.0028080396
-0.0052594775
-0.0039911153
-0.0038228963
-0.0042489742
-0.0044825314
-0.0042269855
-0.0043913693
-0.0062736389
-0.0054623616
-0.0044710056
-0.0042214794
-0.0044463377
-0.0044793384
-0.0033342223
-0.0026201573
-0.0029244085
-0.0015610078
0.00052983949
0.001438767
-0.0023341607
-0.0022032109
-0.0032087577
-0.0028628463
-0.0013495767
3.5034188e-05
0.00062646628
0.0014005395
0.0020185515
0.0020669343
-0.00080939185
-0.002072956
-0.0022764904
-0.0020509673
-0.0018666766
-7.4924486e-05
0.0017653841
0.002098459
0.0017668415
0.002061725
-0.0014885894
-0.0019395921
-0.0025328592
-0.0018484298
-0.0014737098
-0.00048292461
0.00069967383
0.0014374586
0.0021946308
0.0016275906
0.00088277986
0.00053160082
-0.003222272
-0.0015150526
0.00023197585
-0.00012296733
0.00023343321
0.0013719896
0.0017061379
-0.00045387213
-0.0020373205
0.0011189857
-0.0013214551
4.7993446e-05
0.0016783197
0.00071438829
0.0016415855
0.00090452014
-0.00018427611
0.0029701825
-0.0020968504
7.1794337e-05
0.00034263392
0.00061264585
0.00094858564
0.00064490114
0.0011451746
0.00026687432
-0.00029483202
0.0023698468
-0.0017476849
-0.00049392492
-0.0019345868
-0.0017857253
-0.0013793638
-0.0021517525
-0.0021713944
-0.002330398
-0.0023131445
-0.00021920711
-0.0039779741
-0.0042583268
-0.004373699
-0.004059312
-0.0039987852
-0.0054047858
-0.0049580202
-0.0057868848
-0.008193667
-0.004778598
-0.0035395924
-0.005477293
-0.0033405776
-0.0033719407
-0.0035824584
-0.0034622782
-0.0029742086
-0.0025398799
-0.0040004446
-0.0038017205
-0.004204822
-0.0033719876
-0.0038299083
-0.0036138684
-0.0019726393
-0.0012788023
-0.0015128872
0.00053456458
0.0028660592
0.0029021589
-0.0021862462
-0.0027352869
-0.00353172
-0.0028256246
-0.001196654
-0.00023258556
5.7109133e-05
0.0012756338
0.002211536
0.0015813172
-0.0015368778
-0.0027249236
-0.0024961129
-0.0021166739
-0.0020363608
-0.00086291072
0.00015823184
0.00016813966
-0.00035234703
-0.00045012538
-0.0014285075
-0.0016964758
-0.0018106066
-0.00077407742
2.7603448e-06
0.00073414171
0.0010338106
0.00093788725
0.0010607695
0.00098494789
0.00081817529
0.00060554996
-0.0024174715
-0.00042068598
0.0019614748
0.0017337408
0.0014508957
0.0017606995
0.0020067722
0.001879771
-0.0026126957
0.00055409075
-0.0016044087
-0.00070774996
0.00076318549
-0.00040206638
0.0001449205
-0.00035500596
0.00026399176
0.002682016
-0.0023247137
-0.00023077623
-4.8000955e-05
-9.8293583e-05
-2.3934505e-05
-0.00051843936
-8.9120041e-05
-0.00056898716
-0.00017378763
0.001043029
-0.0023683992
9.2371431e-05
-0.0022617368
-0.0013358892
-0.0013436668
-0.0020408749
-0.0019552438
-0.0021321423
-0.002378938
-0.00094569612
-0.0040049578
-0.0038449642
-0.0046959138
-0.0032491374
-0.0035859285
-0.0046179432
-0.0035968887
-0.0038744062
-0.0063483938
-0.0028557556
-0.0036613701
-0.005803761
-0.0030655433
-0.002984264
-0.002949939
-0.002631291
-0.001518771
-0.00048537283
-0.0019452474
-0.00027379456
-0.0046792298
-0.0033021247
-0.0035692444
-0.0031865204
-0.0017089297
-0.0014412035
-0.0014801517
0.00062334352
0.0023419538
0.0019741453
-0.0026089214
-0.0036664001
-0.0039777273
-0.0033134273
-0.0022324104
-0.0019511895
-0.0018176102
-0.00063007607
-0.00021733462
-0.0019619866
-0.0025267189
-0.0034440844
-0.0025376794
-0.0020129164
-0.0023089013
-0.0015981163
-0.0011192414
-0.001538046
-0.0023573225
-0.001875885
-0.00086814526
-0.0010050463
-0.00012460842
0.001140872
0.0019399388
0.0024619853
0.0020000091
0.0011994554
0.001637114
0.0034835633
0.0012826486
0.00064710732
-0.0014688565
0.00022063082
0.0023532491
0.0018209063
0.0011151677
0.0014580112
0.0027414301
0.002272709
-0.0031546263
-0.001374957
-0.0021359754
-0.0011633786
-0.00078517385
-0.0024952894
-0.0011230128
-0.00021118146
-0.00030831516
-0.0030057395
-0.0026116027
-0.0011783608
-0.00028317703
-6.40588e-05
-0.00052838283
-0.0012271601
-0.00020742439
3.8060648e-06
-0.0005199052
-0.0017944768
-0.0040494619
0.00068342591
-0.0023517422
-0.00097464405
-0.00097221357
-0.0010214884
-0.00095410057
-0.0016966953
-0.0030926613
-0.0022787512
-0.0047359784
-0.0021893988
-0.0045277658
-0.0020100741
-0.0016047541
-0.00087945437
0.00070917039
-0.00052049328
-0.003920886
-0.00047888517
-0.0030150593
-0.0055021642
-0.0028357345
-0.0023392
-0.0015881297
-0.00048042199
0.0013207161
0.0017188162
0.0011804177
0.004263537
-0.0069124005
-0.0048431073
-0.0039893886
-0.0035955026
-0.0026837543
-0.003119939
-0.0035679007
-0.0027016484
-0.0014521433
-0.0014348925
-0.0051422844
-0.0052125509
-0.0040116647
-0.003353773
-0.0035361013
-0.0042539083
-0.0048713692
-0.0047361221
-0.0052706553
-0.005944602
-0.0028916407
-0.0028644715
-0.00057771658
4.4374417e-05
-0.0014618629
-0.0012908936
-0.0014839829
-0.002189038
-0.0026501079
0.00054853319
0.0018453337
0.00083252335
0.0022042947
0.0030317615
0.0026225855
0.0025495477
0.001724441
0.0017501081
0.004093644
0.0063222151
0.0023139563
-0.00089388478
-0.0023161001
-0.0010341831
-0.00020034275
-0.0014334693
-0.0013664678
0.00093573365
0.0031714871
-0.00061065671
-0.0044188926
-0.0052919765
-0.0043772845
-0.0027472555
-0.0031105287
-0.0039557355
-0.00037295745
0.00061637136
-0.001919348
-0.0039919919
-0.0030526882
-0.002238778
-0.00075802091
-0.0001833651
-0.00074652036
-0.00063266301
0.0013859071
0.00085305107
-0.0011355222
-0.00052871163
-0.0082116644
0.0016787522
-0.0015188065
0.00026478553
0.0012767463
0.0016604824
0.00028840656
-0.001366988
-0.0029596715
-0.0025818335
-0.0088988383
0.0011404484
-0.0028143656
-0.0009418697
0.0021379278
0.0065550473
0.0068107176
0.0028040205
-0.0011674135
-0.00071720782
-0.0019029003
-0.0040238504
-0.0039852185
-0.0059147981
-0.0036896722
0.0019470001
0.0062381945
0.0049661319
0.0036729562
0.003854263
-0.012617787
-0.0084244576
-0.0076654935
-0.0081289114
-0.0072462478
-0.006902835
-0.006108777
-0.0071161381
-0.0069178678
-0.0054481122
-0.012293597
-0.010200052
-0.0047966798
-0.0023382533
-0.0035706035
-0.0058550097
-0.0070300692
-0.0091119021
-0.012107078
-0.012438899
-0.0038581491
-0.0053406588
0.00081464071
0.0045872081
0.0019521114
0.0011277424
0.0017733798
0.0017302723
-0.0025214299
-0.0056679991
0.0057370657
0.0011958602
0.0019860389
0.004214992
0.0017727361
0.00095809977
0.0023752659
0.0050384959
0.0059615441
0.0026090932
0.0063767062
0.0015045889
-0.0016014251
-0.0010606493
-0.0024105158
-0.0061376582
-0.0067053257
-0.0025513798
0.0040818124
0.0048678873
0.00078588351
-0.0010363848
-0.0027353448
-0.0021482538
-0.001067319
-0.0054752505
-0.0084655905
-0.0079046533
-0.0010463234
-0.0040353531
-0.00066198423
-0.00028414617
-0.00036184698
-0.00016327503
0.00061799003
-0.00038448882
-0.0014797227
-0.0026194563
-0.0009556729
-0.0046121427
0.0070126465
0.00040753158
0.0019393037
0.00034452765
0.0012571223
0.0017515237
0.0037548477
0.0055668083
0.0068819695
0.0066916754
0.0066647139
-0.00094530043
0.0043040233
0.0043229611
0.0042349596
0.0028818947
0.0061075458
0.010410157
0.012483698
0.012244931
-0.0052877299
-0.0053822357
-1.9468279e-05
0.0036995886
0.0027612253
0.00010057422
-0.0014489503
-0.00049820335
-0.00025152399
0.00014994049
-0.0067418088
-0.0077650807
-0.0068108724
-0.004984387
-0.0044326865
-0.0048441398
-0.0066691391
-0.0054128148
-0.0027659346
-0.0022697589
-0.005470519
-0.003360025
-0.0069115854
-0.0069590393
-0.0067713379
-0.0081365379
-0.009414611
-0.0058938558
0.00087964419
0.0039568389
0.00058956681
0.0043361549
0.0024621528
0.00012597906
0.00022570026
-0.0025172939
-0.0047823863
-0.0038955774
0.0016022612
0.0082503543
-0.0033664697
0.0023564572
0.0041617929
0.0017576795
0.0035931176
0.0040003616
0.002214834
-0.0010389573
-0.0013891644
0.0044583316
-0.011426833
-0.0067361507
-0.0050506808
-0.005538724
-0.0011474764
0.0047555312
0.0052371711
0.0011515325
-0.0029192414
-0.0052264323
-0.013566026
-0.011878725
-0.011731252
-0.011230581
-0.0085881964
-0.0013798863
0.0035577354
0.0041174025
-0.0028202296
0.0018513388