/*--------------------------------*- C++ -*----------------------------------*\
| =========                 |                                                 |
| \\      /  F ield         | OpenFOAM: The Open Source CFD Toolbox           |
|  \\    /   O peration     | Version:  v2106                                 |
|   \\  /    A nd           | Website:  www.openfoam.com                      |
|    \\/     M anipulation  |                                                 |
\*---------------------------------------------------------------------------*/
FoamFile
{
    version     2.0;
    format      ascii;
    arch        "LSB;label=32;scalar=64";
    class       volScalarField;
    location    "30";
    object      gradTz;
}
// * * * * * * * * * * * * * * * * * * * * * * * * * * * * * * * * * * * * * //

dimensions      [0 -1 0 1 0 0 0];

internalField   nonuniform List<scalar> 
10000
(
2991.9567
2991.9567
2991.9582
2991.958
2991.9568
2991.9575
2991.9564
2991.9546
2991.954
2991.9549
2991.9567
2991.9581
2991.9588
2991.958
2991.9582
2991.9584
2991.9564
2991.9548
2991.9552
2991.9559
2991.9582
2991.9588
2991.9592
2991.9594
2991.9596
2991.959
2991.9572
2991.9561
2991.9557
2991.9556
2991.958
2991.958
2991.9594
2991.9598
2991.9592
2991.9588
2991.9578
2991.9568
2991.9562
2991.9559
2991.9568
2991.9582
2991.9596
2991.9592
2991.9589
2991.9591
2991.9581
2991.9569
2991.9563
2991.9562
2991.9575
2991.9584
2991.959
2991.9588
2991.9591
2991.9597
2991.9587
2991.9574
2991.9569
2991.9566
2991.9564
2991.9564
2991.9572
2991.9578
2991.9581
2991.9587
2991.958
2991.957
2991.9567
2991.9564
2991.9546
2991.9548
2991.9561
2991.9568
2991.9569
2991.9574
2991.957
2991.9566
2991.9565
2991.9562
2991.954
2991.9552
2991.9557
2991.9562
2991.9563
2991.9569
2991.9567
2991.9565
2991.9564
2991.9558
2991.9549
2991.9559
2991.9556
2991.9559
2991.9562
2991.9566
2991.9564
2991.9562
2991.9558
2991.9549
2991.9632
2991.9633
2991.9633
2991.9635
2991.9632
2991.963
2991.9615
2991.9607
2991.9606
2991.9603
2991.9633
2991.9635
2991.9637
2991.9639
2991.9637
2991.9631
2991.9617
2991.9609
2991.9609
2991.9609
2991.9633
2991.9637
2991.9641
2991.9643
2991.964
2991.9634
2991.9622
2991.9613
2991.9606
2991.9602
2991.9635
2991.9639
2991.9643
2991.9643
2991.9641
2991.9637
2991.9626
2991.9617
2991.9609
2991.9604
2991.9632
2991.9637
2991.964
2991.9641
2991.9641
2991.9639
2991.9627
2991.9617
2991.9609
2991.9603
2991.963
2991.9631
2991.9634
2991.9637
2991.9639
2991.9638
2991.9627
2991.9616
2991.9607
2991.96
2991.9615
2991.9617
2991.9622
2991.9626
2991.9627
2991.9627
2991.9618
2991.9609
2991.9601
2991.9594
2991.9607
2991.9609
2991.9613
2991.9617
2991.9617
2991.9616
2991.9609
2991.9602
2991.9594
2991.9587
2991.9606
2991.9609
2991.9606
2991.9609
2991.9609
2991.9607
2991.9601
2991.9594
2991.9587
2991.9578
2991.9603
2991.9609
2991.9602
2991.9604
2991.9603
2991.96
2991.9594
2991.9587
2991.9578
2991.9569
2991.9749
2991.9745
2991.9744
2991.9747
2991.9742
2991.9738
2991.9729
2991.9724
2991.9722
2991.9715
2991.9745
2991.9745
2991.9744
2991.9744
2991.9741
2991.9735
2991.9727
2991.972
2991.9718
2991.9716
2991.9744
2991.9744
2991.9744
2991.9744
2991.9742
2991.9736
2991.9728
2991.9719
2991.9711
2991.9708
2991.9747
2991.9744
2991.9744
2991.9744
2991.9742
2991.9737
2991.9728
2991.9719
2991.971
2991.9705
2991.9742
2991.9741
2991.9742
2991.9742
2991.9741
2991.9736
2991.9726
2991.9715
2991.9705
2991.97
2991.9738
2991.9735
2991.9736
2991.9737
2991.9736
2991.9732
2991.9721
2991.9709
2991.9698
2991.9693
2991.9729
2991.9727
2991.9728
2991.9728
2991.9726
2991.9721
2991.971
2991.9699
2991.9689
2991.9684
2991.9724
2991.972
2991.9719
2991.9719
2991.9715
2991.9709
2991.9699
2991.9688
2991.9679
2991.9676
2991.9722
2991.9718
2991.9711
2991.971
2991.9705
2991.9698
2991.9689
2991.9679
2991.9672
2991.967
2991.9715
2991.9716
2991.9708
2991.9705
2991.97
2991.9693
2991.9684
2991.9676
2991.967
2991.9674
2991.994
2991.9932
2991.9931
2991.993
2991.9925
2991.9924
2991.9921
2991.9917
2991.9915
2991.991
2991.9932
2991.9927
2991.9923
2991.9921
2991.9919
2991.9917
2991.9912
2991.9906
2991.9906
2991.9907
2991.9931
2991.9923
2991.9922
2991.992
2991.9919
2991.9915
2991.9909
2991.9902
2991.9896
2991.9897
2991.993
2991.9921
2991.992
2991.992
2991.9917
2991.9913
2991.9906
2991.9898
2991.9891
2991.9892
2991.9925
2991.9919
2991.9919
2991.9917
2991.9915
2991.991
2991.9901
2991.9892
2991.9886
2991.9887
2991.9924
2991.9917
2991.9915
2991.9913
2991.991
2991.9905
2991.9895
2991.9885
2991.9879
2991.9881
2991.9921
2991.9912
2991.9909
2991.9906
2991.9901
2991.9895
2991.9885
2991.9876
2991.9871
2991.9875
2991.9917
2991.9906
2991.9902
2991.9898
2991.9892
2991.9885
2991.9876
2991.9868
2991.9866
2991.9874
2991.9915
2991.9906
2991.9896
2991.9891
2991.9886
2991.9879
2991.9871
2991.9866
2991.9869
2991.988
2991.991
2991.9907
2991.9897
2991.9892
2991.9887
2991.9881
2991.9875
2991.9874
2991.988
2991.9896
2992.0224
2992.0213
2992.021
2992.0209
2992.0207
2992.021
2992.0209
2992.0207
2992.0209
2992.0209
2992.0213
2992.0205
2992.0201
2992.0199
2992.02
2992.0201
2992.0198
2992.0195
2992.0199
2992.0205
2992.021
2992.0201
2992.0199
2992.0198
2992.0198
2992.0197
2992.0194
2992.0191
2992.019
2992.0196
2992.0209
2992.0199
2992.0198
2992.0198
2992.0197
2992.0195
2992.0192
2992.0188
2992.0188
2992.0195
2992.0207
2992.02
2992.0198
2992.0197
2992.0197
2992.0195
2992.019
2992.0186
2992.0187
2992.0196
2992.021
2992.0201
2992.0197
2992.0195
2992.0195
2992.0193
2992.0187
2992.0184
2992.0186
2992.0196
2992.0209
2992.0198
2992.0194
2992.0192
2992.019
2992.0187
2992.0183
2992.0181
2992.0186
2992.0201
2992.0207
2992.0195
2992.0191
2992.0188
2992.0186
2992.0184
2992.0181
2992.0184
2992.0193
2992.021
2992.0209
2992.0199
2992.019
2992.0188
2992.0187
2992.0186
2992.0186
2992.0193
2992.0207
2992.0223
2992.0209
2992.0205
2992.0196
2992.0195
2992.0196
2992.0196
2992.0201
2992.021
2992.0223
2992.024
2992.0617
2992.0607
2992.0606
2992.0607
2992.0609
2992.0614
2992.0615
2992.0616
2992.0622
2992.0626
2992.0607
2992.0601
2992.06
2992.06
2992.0604
2992.0607
2992.0607
2992.0609
2992.0617
2992.0627
2992.0606
2992.06
2992.06
2992.0602
2992.0605
2992.0608
2992.0608
2992.0609
2992.0614
2992.0624
2992.0607
2992.06
2992.0602
2992.0605
2992.0608
2992.0611
2992.0612
2992.0615
2992.062
2992.0632
2992.0609
2992.0604
2992.0605
2992.0608
2992.0613
2992.0617
2992.0618
2992.0622
2992.0629
2992.0641
2992.0614
2992.0607
2992.0608
2992.0611
2992.0617
2992.0622
2992.0624
2992.0629
2992.0638
2992.0651
2992.0615
2992.0607
2992.0608
2992.0612
2992.0618
2992.0624
2992.0629
2992.0637
2992.0648
2992.0665
2992.0616
2992.0609
2992.0609
2992.0615
2992.0622
2992.0629
2992.0637
2992.0649
2992.0664
2992.0678
2992.0622
2992.0617
2992.0614
2992.062
2992.0629
2992.0638
2992.0648
2992.0664
2992.0679
2992.0689
2992.0626
2992.0627
2992.0624
2992.0632
2992.0641
2992.0651
2992.0665
2992.0678
2992.0689
2992.07
2992.1127
2992.1123
2992.1126
2992.1129
2992.1133
2992.114
2992.1142
2992.1146
2992.1154
2992.1159
2992.1123
2992.1123
2992.1125
2992.1128
2992.1134
2992.114
2992.1143
2992.1147
2992.1157
2992.1167
2992.1126
2992.1125
2992.1128
2992.1134
2992.1141
2992.1146
2992.115
2992.1156
2992.1163
2992.1173
2992.1129
2992.1128
2992.1134
2992.1141
2992.115
2992.1157
2992.1163
2992.1171
2992.1179
2992.119
2992.1133
2992.1134
2992.1141
2992.115
2992.1161
2992.1171
2992.118
2992.1189
2992.1198
2992.1208
2992.114
2992.114
2992.1146
2992.1157
2992.1171
2992.1185
2992.1196
2992.1207
2992.1216
2992.1224
2992.1142
2992.1143
2992.115
2992.1163
2992.118
2992.1196
2992.121
2992.1223
2992.1232
2992.124
2992.1146
2992.1147
2992.1156
2992.1171
2992.1189
2992.1207
2992.1223
2992.1237
2992.1246
2992.1251
2992.1154
2992.1157
2992.1163
2992.1179
2992.1198
2992.1216
2992.1232
2992.1246
2992.1253
2992.1254
2992.1159
2992.1167
2992.1173
2992.119
2992.1208
2992.1224
2992.124
2992.1251
2992.1254
2992.126
2992.1747
2992.1749
2992.1753
2992.1758
2992.1761
2992.1768
2992.1771
2992.1775
2992.1783
2992.1786
2992.1749
2992.1753
2992.1756
2992.1761
2992.1768
2992.1774
2992.1777
2992.1782
2992.1791
2992.1799
2992.1753
2992.1756
2992.1762
2992.1769
2992.1777
2992.1784
2992.1789
2992.1796
2992.1803
2992.1811
2992.1758
2992.1761
2992.1769
2992.1779
2992.1789
2992.1799
2992.1807
2992.1817
2992.1824
2992.183
2992.1761
2992.1768
2992.1777
2992.1789
2992.1804
2992.1817
2992.1828
2992.1839
2992.1846
2992.1848
2992.1768
2992.1774
2992.1784
2992.1799
2992.1817
2992.1835
2992.1849
2992.186
2992.1864
2992.1861
2992.1771
2992.1777
2992.1789
2992.1807
2992.1828
2992.1849
2992.1865
2992.1875
2992.1876
2992.1871
2992.1775
2992.1782
2992.1796
2992.1817
2992.1839
2992.186
2992.1875
2992.1884
2992.1883
2992.1874
2992.1783
2992.1791
2992.1803
2992.1824
2992.1846
2992.1864
2992.1876
2992.1883
2992.188
2992.187
2992.1786
2992.1799
2992.1811
2992.183
2992.1848
2992.1861
2992.1871
2992.1874
2992.187
2992.1865
2992.2454
2992.2458
2992.2462
2992.2465
2992.2465
2992.2469
2992.2469
2992.2471
2992.2477
2992.2478
2992.2458
2992.2464
2992.2466
2992.2468
2992.2471
2992.2474
2992.2473
2992.2476
2992.2483
2992.2489
2992.2462
2992.2466
2992.247
2992.2474
2992.2478
2992.2481
2992.2482
2992.2485
2992.249
2992.2495
2992.2465
2992.2468
2992.2474
2992.248
2992.2486
2992.249
2992.2493
2992.2499
2992.2504
2992.2505
2992.2465
2992.2471
2992.2478
2992.2486
2992.2494
2992.2501
2992.2506
2992.2513
2992.2515
2992.2511
2992.2469
2992.2474
2992.2481
2992.249
2992.2501
2992.2512
2992.2519
2992.2524
2992.252
2992.251
2992.2469
2992.2473
2992.2482
2992.2493
2992.2506
2992.2519
2992.2527
2992.2528
2992.252
2992.2508
2992.2471
2992.2476
2992.2485
2992.2499
2992.2513
2992.2524
2992.2528
2992.2525
2992.2515
2992.2501
2992.2477
2992.2483
2992.249
2992.2504
2992.2515
2992.252
2992.252
2992.2515
2992.2506
2992.2489
2992.2478
2992.2489
2992.2495
2992.2505
2992.2511
2992.251
2992.2508
2992.2501
2992.2489
2992.2469
2992.3228
2992.3231
2992.3231
2992.323
2992.3226
2992.3224
2992.322
2992.3218
2992.3222
2992.3222
2992.3231
2992.3234
2992.3233
2992.3229
2992.3226
2992.3222
2992.3216
2992.3214
2992.322
2992.3224
2992.3231
2992.3233
2992.3232
2992.3229
2992.3226
2992.322
2992.3214
2992.3211
2992.3214
2992.3217
2992.323
2992.3229
2992.3229
2992.3227
2992.3223
2992.3217
2992.321
2992.3209
2992.3211
2992.3212
2992.3226
2992.3226
2992.3226
2992.3223
2992.322
2992.3213
2992.3206
2992.3203
2992.3203
2992.3202
2992.3224
2992.3222
2992.322
2992.3217
2992.3213
2992.3209
2992.3202
2992.3195
2992.319
2992.3187
2992.322
2992.3216
2992.3214
2992.321
2992.3206
2992.3202
2992.3193
2992.3183
2992.3175
2992.3174
2992.3218
2992.3214
2992.3211
2992.3209
2992.3203
2992.3195
2992.3183
2992.317
2992.3162
2992.316
2992.3222
2992.322
2992.3214
2992.3211
2992.3203
2992.319
2992.3175
2992.3162
2992.3153
2992.3147
2992.3222
2992.3224
2992.3217
2992.3212
2992.3202
2992.3187
2992.3174
2992.316
2992.3147
2992.3143
2992.4059
2992.4059
2992.4056
2992.4051
2992.4042
2992.4038
2992.4031
2992.4028
2992.4032
2992.403
2992.4059
2992.406
2992.4055
2992.4047
2992.404
2992.4032
2992.4024
2992.4021
2992.4024
2992.4028
2992.4056
2992.4055
2992.405
2992.4042
2992.4033
2992.4023
2992.4014
2992.4008
2992.4008
2992.4013
2992.4051
2992.4047
2992.4042
2992.4033
2992.4022
2992.401
2992.3997
2992.3991
2992.3992
2992.3998
2992.4042
2992.404
2992.4033
2992.4022
2992.4009
2992.3994
2992.3979
2992.3971
2992.3973
2992.3982
2992.4038
2992.4032
2992.4023
2992.401
2992.3994
2992.3978
2992.3962
2992.3952
2992.3953
2992.3963
2992.4031
2992.4024
2992.4014
2992.3997
2992.3979
2992.3962
2992.3945
2992.3934
2992.3936
2992.3951
2992.4028
2992.4021
2992.4008
2992.3991
2992.3971
2992.3952
2992.3934
2992.3924
2992.3929
2992.3945
2992.4032
2992.4024
2992.4008
2992.3992
2992.3973
2992.3953
2992.3936
2992.3929
2992.3934
2992.3951
2992.403
2992.4028
2992.4013
2992.3998
2992.3982
2992.3963
2992.3951
2992.3945
2992.3951
2992.3985
2992.4946
2992.4947
2992.4943
2992.4935
2992.4925
2992.4922
2992.4919
2992.492
2992.4923
2992.4919
2992.4947
2992.4948
2992.4941
2992.493
2992.4922
2992.4918
2992.4915
2992.4915
2992.4918
2992.4917
2992.4943
2992.4941
2992.4933
2992.4921
2992.4912
2992.4906
2992.4902
2992.4899
2992.4897
2992.4898
2992.4935
2992.493
2992.4921
2992.4908
2992.4897
2992.4888
2992.488
2992.4877
2992.4878
2992.4881
2992.4925
2992.4922
2992.4912
2992.4897
2992.4883
2992.4871
2992.4859
2992.4857
2992.4862
2992.4867
2992.4922
2992.4918
2992.4906
2992.4888
2992.4871
2992.4856
2992.4845
2992.4844
2992.4852
2992.4858
2992.4919
2992.4915
2992.4902
2992.488
2992.4859
2992.4845
2992.4837
2992.484
2992.4852
2992.4861
2992.492
2992.4915
2992.4899
2992.4877
2992.4857
2992.4844
2992.484
2992.4849
2992.4865
2992.4876
2992.4923
2992.4918
2992.4897
2992.4878
2992.4862
2992.4852
2992.4852
2992.4865
2992.4884
2992.49
2992.4919
2992.4917
2992.4898
2992.4881
2992.4867
2992.4858
2992.4861
2992.4876
2992.49
2992.4919
2992.5895
2992.5896
2992.589
2992.588
2992.587
2992.5871
2992.5876
2992.5882
2992.5885
2992.5874
2992.5896
2992.5896
2992.5885
2992.5872
2992.5863
2992.5865
2992.5872
2992.5878
2992.5876
2992.5864
2992.589
2992.5885
2992.5872
2992.5856
2992.5847
2992.5848
2992.5855
2992.5857
2992.5851
2992.5839
2992.588
2992.5872
2992.5856
2992.5839
2992.5829
2992.5829
2992.5832
2992.5834
2992.5832
2992.5822
2992.587
2992.5863
2992.5847
2992.5829
2992.5818
2992.5815
2992.5816
2992.5822
2992.5823
2992.5813
2992.5871
2992.5865
2992.5848
2992.5829
2992.5815
2992.5812
2992.5816
2992.5827
2992.5829
2992.5817
2992.5876
2992.5872
2992.5855
2992.5832
2992.5816
2992.5816
2992.5828
2992.5844
2992.5847
2992.5838
2992.5882
2992.5878
2992.5857
2992.5834
2992.5822
2992.5827
2992.5844
2992.5864
2992.587
2992.5862
2992.5885
2992.5876
2992.5851
2992.5832
2992.5823
2992.5829
2992.5847
2992.587
2992.5879
2992.5868
2992.5874
2992.5864
2992.5839
2992.5822
2992.5813
2992.5817
2992.5838
2992.5862
2992.5868
2992.5834
2992.6904
2992.6901
2992.6891
2992.6881
2992.6872
2992.6873
2992.6883
2992.6891
2992.6889
2992.687
2992.6901
2992.6896
2992.6882
2992.6868
2992.6857
2992.686
2992.6873
2992.688
2992.6871
2992.6851
2992.6891
2992.6882
2992.6866
2992.6848
2992.6836
2992.684
2992.6852
2992.6855
2992.6842
2992.6827
2992.6881
2992.6868
2992.6848
2992.6827
2992.6816
2992.682
2992.683
2992.6835
2992.6825
2992.6814
2992.6872
2992.6857
2992.6836
2992.6816
2992.6807
2992.6811
2992.6822
2992.683
2992.6824
2992.6816
2992.6873
2992.686
2992.684
2992.682
2992.6811
2992.6817
2992.6833
2992.6844
2992.6837
2992.683
2992.6883
2992.6873
2992.6852
2992.683
2992.6822
2992.6833
2992.6853
2992.6865
2992.6857
2992.6851
2992.6891
2992.688
2992.6855
2992.6835
2992.683
2992.6844
2992.6865
2992.6876
2992.6867
2992.6854
2992.6889
2992.6871
2992.6842
2992.6825
2992.6824
2992.6837
2992.6857
2992.6867
2992.6855
2992.6829
2992.687
2992.6851
2992.6827
2992.6814
2992.6816
2992.683
2992.6851
2992.6854
2992.6829
2992.6809
2992.7972
2992.7963
2992.7952
2992.7943
2992.7941
2992.7937
2992.7944
2992.7951
2992.7944
2992.7922
2992.7963
2992.7954
2992.7941
2992.7936
2992.7927
2992.7924
2992.7934
2992.7938
2992.7925
2992.7911
2992.7952
2992.7941
2992.7933
2992.7923
2992.7912
2992.7912
2992.7922
2992.7923
2992.7911
2992.7906
2992.7943
2992.7936
2992.7923
2992.7909
2992.7902
2992.7904
2992.7913
2992.7916
2992.7911
2992.7912
2992.7941
2992.7927
2992.7912
2992.7902
2992.7898
2992.7901
2992.7912
2992.7921
2992.7922
2992.7931
2992.7937
2992.7924
2992.7912
2992.7904
2992.7901
2992.7906
2992.7918
2992.7927
2992.793
2992.7941
2992.7944
2992.7934
2992.7922
2992.7913
2992.7912
2992.7918
2992.7927
2992.7931
2992.7931
2992.794
2992.7951
2992.7938
2992.7923
2992.7916
2992.7921
2992.7927
2992.7931
2992.7929
2992.7924
2992.7921
2992.7944
2992.7925
2992.7911
2992.7911
2992.7922
2992.793
2992.7931
2992.7924
2992.7912
2992.7909
2992.7922
2992.7911
2992.7906
2992.7912
2992.7931
2992.7941
2992.794
2992.7921
2992.7909
2992.7946
2992.9108
2992.9097
2992.9089
2992.9081
2992.909
2992.908
2992.9081
2992.9085
2992.9079
2992.9066
2992.9097
2992.9089
2992.9075
2992.9083
2992.9081
2992.9071
2992.9075
2992.9078
2992.907
2992.9063
2992.9089
2992.9075
2992.9076
2992.908
2992.9076
2992.9071
2992.9077
2992.9082
2992.9081
2992.9077
2992.9081
2992.9083
2992.908
2992.9082
2992.9084
2992.908
2992.9087
2992.9096
2992.91
2992.9093
2992.909
2992.9081
2992.9076
2992.9084
2992.9091
2992.9087
2992.9094
2992.911
2992.9121
2992.9114
2992.908
2992.9071
2992.9071
2992.908
2992.9087
2992.9079
2992.9082
2992.9099
2992.9112
2992.9104
2992.9081
2992.9075
2992.9077
2992.9087
2992.9094
2992.9082
2992.9076
2992.9086
2992.9095
2992.9083
2992.9085
2992.9078
2992.9082
2992.9096
2992.911
2992.9099
2992.9086
2992.9087
2992.9089
2992.9078
2992.9079
2992.907
2992.9081
2992.91
2992.9121
2992.9112
2992.9095
2992.9089
2992.909
2992.91
2992.9066
2992.9063
2992.9077
2992.9093
2992.9114
2992.9104
2992.9083
2992.9078
2992.91
2992.911
2993.0328
2993.0314
2993.032
2993.0305
2993.0318
2993.0302
2993.0301
2993.0309
2993.0305
2993.0297
2993.0314
2993.032
2993.0306
2993.0314
2993.0315
2993.03
2993.0302
2993.0309
2993.0303
2993.0284
2993.032
2993.0306
2993.0309
2993.0315
2993.0318
2993.0308
2993.0315
2993.0332
2993.0333
2993.0324
2993.0305
2993.0314
2993.0315
2993.0323
2993.0328
2993.0318
2993.0329
2993.0348
2993.0346
2993.0336
2993.0318
2993.0315
2993.0318
2993.0328
2993.0334
2993.0319
2993.033
2993.0354
2993.0351
2993.0329
2993.0302
2993.03
2993.0308
2993.0318
2993.0319
2993.0298
2993.0304
2993.0328
2993.0324
2993.0296
2993.0301
2993.0302
2993.0315
2993.0329
2993.033
2993.0304
2993.0301
2993.0317
2993.031
2993.029
2993.0309
2993.0309
2993.0332
2993.0348
2993.0354
2993.0328
2993.0317
2993.0325
2993.0318
2993.0314
2993.0305
2993.0303
2993.0333
2993.0346
2993.0351
2993.0324
2993.031
2993.0318
2993.032
2993.0317
2993.0297
2993.0284
2993.0324
2993.0336
2993.0329
2993.0296
2993.029
2993.0314
2993.0317
2993.0254
2993.1656
2993.1622
2993.1649
2993.1627
2993.1622
2993.1597
2993.1608
2993.163
2993.1623
2993.1612
2993.1622
2993.1639
2993.1642
2993.1639
2993.1628
2993.1614
2993.1626
2993.164
2993.1611
2993.1581
2993.1649
2993.1642
2993.1647
2993.1647
2993.1646
2993.1643
2993.1665
2993.1683
2993.1666
2993.1655
2993.1627
2993.1639
2993.1647
2993.1649
2993.1648
2993.1644
2993.1669
2993.1682
2993.1663
2993.1662
2993.1622
2993.1628
2993.1646
2993.1648
2993.1638
2993.1624
2993.1644
2993.165
2993.1623
2993.1612
2993.1597
2993.1614
2993.1643
2993.1644
2993.1624
2993.1604
2993.162
2993.1622
2993.1588
2993.1587
2993.1608
2993.1626
2993.1665
2993.1669
2993.1644
2993.162
2993.1628
2993.1627
2993.16
2993.1622
2993.163
2993.164
2993.1683
2993.1682
2993.165
2993.1622
2993.1627
2993.163
2993.1619
2993.164
2993.1623
2993.1611
2993.1666
2993.1663
2993.1623
2993.1588
2993.16
2993.1619
2993.1611
2993.1597
2993.1612
2993.1581
2993.1655
2993.1662
2993.1612
2993.1587
2993.1622
2993.164
2993.1597
2993.1573
2993.3144
2993.3056
2993.3095
2993.3074
2993.3016
2993.2977
2993.3002
2993.3043
2993.3053
2993.3082
2993.3056
2993.308
2993.3106
2993.3098
2993.3055
2993.3033
2993.3036
2993.3055
2993.3045
2993.3058
2993.3095
2993.3106
2993.3114
2993.3097
2993.3073
2993.3089
2993.3106
2993.311
2993.3105
2993.3104
2993.3074
2993.3098
2993.3097
2993.3069
2993.3047
2993.3078
2993.3113
2993.3109
2993.3101
2993.3099
2993.3016
2993.3055
2993.3073
2993.3047
2993.3017
2993.3034
2993.306
2993.3032
2993.3012
2993.303
2993.2977
2993.3033
2993.3089
2993.3078
2993.3034
2993.3039
2993.3061
2993.3024
2993.2982
2993.2994
2993.3002
2993.3036
2993.3106
2993.3113
2993.306
2993.3061
2993.3089
2993.3065
2993.3011
2993.2992
2993.3043
2993.3055
2993.311
2993.3109
2993.3032
2993.3024
2993.3065
2993.3063
2993.3025
2993.2986
2993.3053
2993.3045
2993.3105
2993.3101
2993.3012
2993.2982
2993.3011
2993.3025
2993.3024
2993.3018
2993.3082
2993.3058
2993.3104
2993.3099
2993.303
2993.2994
2993.2992
2993.2986
2993.3018
2993.2975
2993.4337
2993.4503
2993.4451
2993.448
2993.4453
2993.4477
2993.4488
2993.4425
2993.435
2993.4334
2993.4503
2993.4499
2993.4516
2993.45
2993.4486
2993.4519
2993.4558
2993.4534
2993.45
2993.4468
2993.4451
2993.4516
2993.454
2993.4544
2993.4511
2993.4515
2993.4542
2993.4534
2993.4514
2993.4461
2993.448
2993.45
2993.4544
2993.4561
2993.453
2993.4525
2993.4531
2993.4512
2993.4486
2993.4427
2993.4453
2993.4486
2993.4511
2993.453
2993.4494
2993.4498
2993.4511
2993.4507
2993.4501
2993.4452
2993.4477
2993.4519
2993.4515
2993.4525
2993.4498
2993.4486
2993.4485
2993.45
2993.4547
2993.4526
2993.4488
2993.4558
2993.4542
2993.4531
2993.4511
2993.4485
2993.4478
2993.449
2993.4544
2993.4529
2993.4425
2993.4534
2993.4534
2993.4512
2993.4507
2993.45
2993.449
2993.4472
2993.4492
2993.4507
2993.435
2993.45
2993.4514
2993.4486
2993.4501
2993.4547
2993.4544
2993.4492
2993.4483
2993.4483
2993.4334
2993.4468
2993.4461
2993.4427
2993.4452
2993.4526
2993.4529
2993.4507
2993.4483
2993.4566
2993.5862
2993.6016
2993.6007
2993.6018
2993.6015
2993.6077
2993.6058
2993.5976
2993.5934
2993.5933
2993.6016
2993.6008
2993.6015
2993.5987
2993.6015
2993.6065
2993.6053
2993.6006
2993.6011
2993.6022
2993.6007
2993.6015
2993.6032
2993.6041
2993.6053
2993.6052
2993.6027
2993.6004
2993.5999
2993.5986
2993.6018
2993.5987
2993.6041
2993.6068
2993.6068
2993.6056
2993.6019
2993.5994
2993.5984
2993.5965
2993.6015
2993.6015
2993.6053
2993.6068
2993.6068
2993.6077
2993.6046
2993.6034
2993.6037
2993.6014
2993.6077
2993.6065
2993.6052
2993.6056
2993.6077
2993.6094
2993.6059
2993.6056
2993.6091
2993.6087
2993.6058
2993.6053
2993.6027
2993.6019
2993.6046
2993.6059
2993.6025
2993.6016
2993.6066
2993.6088
2993.5976
2993.6006
2993.6004
2993.5994
2993.6034
2993.6056
2993.6016
2993.5989
2993.6024
2993.6077
2993.5934
2993.6011
2993.5999
2993.5984
2993.6037
2993.6091
2993.6066
2993.6024
2993.6019
2993.6013
2993.5933
2993.6022
2993.5986
2993.5965
2993.6014
2993.6087
2993.6088
2993.6077
2993.6013
2993.6098
2993.7666
2993.7601
2993.7634
2993.7618
2993.7627
2993.764
2993.7582
2993.7579
2993.7659
2993.7732
2993.7601
2993.7606
2993.7618
2993.762
2993.7641
2993.7627
2993.7534
2993.7513
2993.7585
2993.7677
2993.7634
2993.7618
2993.7614
2993.7602
2993.7634
2993.7635
2993.7554
2993.752
2993.7552
2993.7622
2993.7618
2993.762
2993.7602
2993.7578
2993.7602
2993.7619
2993.7569
2993.755
2993.7581
2993.7643
2993.7627
2993.7641
2993.7634
2993.7602
2993.7635
2993.7659
2993.7606
2993.7566
2993.7581
2993.7643
2993.764
2993.7627
2993.7635
2993.7619
2993.7659
2993.7702
2993.7663
2993.7607
2993.7573
2993.7594
2993.7582
2993.7534
2993.7554
2993.7569
2993.7606
2993.7663
2993.7647
2993.7604
2993.7555
2993.7542
2993.7579
2993.7513
2993.752
2993.755
2993.7566
2993.7607
2993.7604
2993.7589
2993.7562
2993.7537
2993.7659
2993.7585
2993.7552
2993.7581
2993.7581
2993.7573
2993.7555
2993.7562
2993.7569
2993.7564
2993.7732
2993.7677
2993.7622
2993.7643
2993.7643
2993.7594
2993.7542
2993.7537
2993.7564
2993.749
2993.9183
2993.9134
2993.911
2993.9141
2993.9177
2993.9158
2993.9102
2993.9098
2993.9134
2993.9139
2993.9134
2993.9138
2993.9141
2993.9165
2993.9176
2993.9145
2993.91
2993.9091
2993.9114
2993.9131
2993.911
2993.9141
2993.9129
2993.9135
2993.9146
2993.9122
2993.9078
2993.9061
2993.9066
2993.909
2993.9141
2993.9165
2993.9135
2993.9139
2993.9153
2993.9131
2993.9093
2993.9082
2993.9086
2993.9106
2993.9177
2993.9176
2993.9146
2993.9153
2993.9178
2993.9159
2993.912
2993.9105
2993.9103
2993.9115
2993.9158
2993.9145
2993.9122
2993.9131
2993.9159
2993.9149
2993.9119
2993.9103
2993.9091
2993.9087
2993.9102
2993.91
2993.9078
2993.9093
2993.912
2993.9119
2993.9099
2993.9087
2993.9072
2993.9064
2993.9098
2993.9091
2993.9061
2993.9082
2993.9105
2993.9103
2993.9087
2993.9078
2993.9064
2993.9043
2993.9134
2993.9114
2993.9066
2993.9086
2993.9103
2993.9091
2993.9072
2993.9064
2993.9054
2993.9054
2993.9139
2993.9131
2993.909
2993.9106
2993.9115
2993.9087
2993.9064
2993.9043
2993.9054
2993.9043
2994.0769
2994.07
2994.0723
2994.0741
2994.0732
2994.0704
2994.0694
2994.0706
2994.0715
2994.0686
2994.07
2994.0713
2994.0706
2994.0708
2994.0699
2994.0675
2994.0665
2994.067
2994.0682
2994.0679
2994.0723
2994.0706
2994.0695
2994.0704
2994.0698
2994.0669
2994.0654
2994.0654
2994.0653
2994.0653
2994.0741
2994.0708
2994.0704
2994.0719
2994.0715
2994.0682
2994.0662
2994.0658
2994.0651
2994.0649
2994.0732
2994.0699
2994.0698
2994.0715
2994.0717
2994.0687
2994.0665
2994.0657
2994.0647
2994.0644
2994.0704
2994.0675
2994.0669
2994.0682
2994.0687
2994.0665
2994.0646
2994.0638
2994.0628
2994.0627
2994.0694
2994.0665
2994.0654
2994.0662
2994.0665
2994.0646
2994.063
2994.0623
2994.0619
2994.0628
2994.0706
2994.067
2994.0654
2994.0658
2994.0657
2994.0638
2994.0623
2994.0622
2994.0623
2994.0617
2994.0715
2994.0682
2994.0653
2994.0651
2994.0647
2994.0628
2994.0619
2994.0623
2994.0622
2994.0632
2994.0686
2994.0679
2994.0653
2994.0649
2994.0644
2994.0627
2994.0628
2994.0617
2994.0632
2994.0648
2994.2326
2994.2346
2994.235
2994.2338
2994.2323
2994.2321
2994.2331
2994.2342
2994.235
2994.2335
2994.2346
2994.2343
2994.2327
2994.2319
2994.2313
2994.2308
2994.231
2994.2314
2994.2322
2994.2321
2994.235
2994.2327
2994.2325
2994.2324
2994.2315
2994.2301
2994.2298
2994.2295
2994.2293
2994.2296
2994.2338
2994.2319
2994.2324
2994.2326
2994.2319
2994.2302
2994.2292
2994.2289
2994.2286
2994.2292
2994.2323
2994.2313
2994.2315
2994.2319
2994.2316
2994.2301
2994.2291
2994.2288
2994.2287
2994.2294
2994.2321
2994.2308
2994.2301
2994.2302
2994.2301
2994.2291
2994.2281
2994.2279
2994.2278
2994.2291
2994.2331
2994.231
2994.2298
2994.2292
2994.2291
2994.2281
2994.227
2994.2269
2994.228
2994.2308
2994.2342
2994.2314
2994.2295
2994.2289
2994.2288
2994.2279
2994.2269
2994.2279
2994.2301
2994.2318
2994.235
2994.2322
2994.2293
2994.2286
2994.2287
2994.2278
2994.228
2994.2301
2994.2319
2994.2338
2994.2335
2994.2321
2994.2296
2994.2292
2994.2294
2994.2291
2994.2308
2994.2318
2994.2338
2994.2356
2994.4069
2994.4082
2994.4052
2994.4046
2994.4061
2994.4082
2994.4091
2994.4089
2994.4089
2994.4079
2994.4082
2994.4054
2994.404
2994.4045
2994.4064
2994.4078
2994.408
2994.4071
2994.4066
2994.4062
2994.4052
2994.404
2994.4034
2994.4038
2994.4054
2994.4065
2994.4062
2994.4052
2994.4045
2994.4051
2994.4046
2994.4045
2994.4038
2994.4044
2994.4061
2994.4069
2994.4065
2994.4058
2994.4056
2994.4066
2994.4061
2994.4064
2994.4054
2994.4061
2994.4078
2994.4086
2994.4083
2994.408
2994.408
2994.4088
2994.4082
2994.4078
2994.4065
2994.4069
2994.4086
2994.4096
2994.4095
2994.4093
2994.4093
2994.4103
2994.4091
2994.408
2994.4062
2994.4065
2994.4083
2994.4095
2994.4095
2994.4095
2994.4105
2994.4128
2994.4089
2994.4071
2994.4052
2994.4058
2994.408
2994.4093
2994.4095
2994.4107
2994.4128
2994.4146
2994.4089
2994.4066
2994.4045
2994.4056
2994.408
2994.4093
2994.4105
2994.4128
2994.4148
2994.4158
2994.4079
2994.4062
2994.4051
2994.4066
2994.4088
2994.4103
2994.4128
2994.4146
2994.4158
2994.4168
2994.5894
2994.5843
2994.5838
2994.5867
2994.5904
2994.5931
2994.5937
2994.593
2994.5923
2994.5912
2994.5843
2994.5819
2994.5825
2994.5855
2994.5893
2994.5919
2994.5924
2994.5916
2994.5909
2994.591
2994.5838
2994.5825
2994.5827
2994.5856
2994.5895
2994.592
2994.5924
2994.5917
2994.5913
2994.5922
2994.5867
2994.5855
2994.5856
2994.5886
2994.5922
2994.5945
2994.595
2994.5948
2994.5948
2994.5958
2994.5904
2994.5893
2994.5895
2994.5922
2994.5957
2994.5981
2994.5991
2994.5993
2994.5993
2994.5997
2994.5931
2994.5919
2994.592
2994.5945
2994.5981
2994.6011
2994.6026
2994.6029
2994.6025
2994.6024
2994.5937
2994.5924
2994.5924
2994.595
2994.5991
2994.6026
2994.6043
2994.6046
2994.6045
2994.6047
2994.593
2994.5916
2994.5917
2994.5948
2994.5993
2994.6029
2994.6046
2994.6055
2994.6058
2994.6058
2994.5923
2994.5909
2994.5913
2994.5948
2994.5993
2994.6025
2994.6045
2994.6058
2994.6061
2994.6057
2994.5912
2994.591
2994.5922
2994.5958
2994.5997
2994.6024
2994.6047
2994.6058
2994.6057
2994.6061
2994.7716
2994.7695
2994.7732
2994.7772
2994.7802
2994.7823
2994.7829
2994.7828
2994.7828
2994.7825
2994.7695
2994.7708
2994.7737
2994.7773
2994.7805
2994.7826
2994.7833
2994.7833
2994.7835
2994.7842
2994.7732
2994.7737
2994.7762
2994.78
2994.7832
2994.7851
2994.7856
2994.7855
2994.7858
2994.7869
2994.7772
2994.7773
2994.78
2994.7837
2994.7867
2994.7886
2994.7893
2994.7897
2994.7903
2994.791
2994.7802
2994.7805
2994.7832
2994.7867
2994.7898
2994.7922
2994.7937
2994.7947
2994.7949
2994.7947
2994.7823
2994.7826
2994.7851
2994.7886
2994.7922
2994.7955
2994.7978
2994.7987
2994.7982
2994.797
2994.7829
2994.7833
2994.7856
2994.7893
2994.7937
2994.7978
2994.8003
2994.8008
2994.7998
2994.7982
2994.7828
2994.7833
2994.7855
2994.7897
2994.7947
2994.7987
2994.8008
2994.8012
2994.7999
2994.798
2994.7828
2994.7835
2994.7858
2994.7903
2994.7949
2994.7982
2994.7998
2994.7999
2994.7987
2994.7971
2994.7825
2994.7842
2994.7869
2994.791
2994.7947
2994.797
2994.7982
2994.798
2994.7971
2994.796
2994.9682
2994.9727
2994.9758
2994.9777
2994.9785
2994.9789
2994.9789
2994.9787
2994.979
2994.9792
2994.9727
2994.976
2994.9784
2994.9801
2994.9809
2994.981
2994.9805
2994.9802
2994.9806
2994.9811
2994.9758
2994.9784
2994.9813
2994.9831
2994.9838
2994.9837
2994.983
2994.9825
2994.9827
2994.9832
2994.9777
2994.9801
2994.9831
2994.9851
2994.9859
2994.9859
2994.9855
2994.9853
2994.9856
2994.9854
2994.9785
2994.9809
2994.9838
2994.9859
2994.987
2994.9876
2994.9878
2994.9879
2994.9877
2994.9866
2994.9789
2994.981
2994.9837
2994.9859
2994.9876
2994.9889
2994.9898
2994.9897
2994.9886
2994.9866
2994.9789
2994.9805
2994.983
2994.9855
2994.9878
2994.9898
2994.9906
2994.9901
2994.9882
2994.9858
2994.9787
2994.9802
2994.9825
2994.9853
2994.9879
2994.9897
2994.9901
2994.9889
2994.9868
2994.9843
2994.979
2994.9806
2994.9827
2994.9856
2994.9877
2994.9886
2994.9882
2994.9868
2994.9848
2994.9822
2994.9792
2994.9811
2994.9832
2994.9854
2994.9866
2994.9866
2994.9858
2994.9843
2994.9822
2994.9788
2995.1783
2995.1812
2995.1814
2995.1809
2995.1798
2995.1788
2995.1776
2995.1769
2995.1771
2995.1773
2995.1812
2995.1829
2995.1833
2995.1826
2995.1814
2995.1799
2995.1782
2995.1773
2995.1775
2995.1777
2995.1814
2995.1833
2995.1841
2995.1837
2995.1826
2995.181
2995.1792
2995.178
2995.1778
2995.1777
2995.1809
2995.1826
2995.1837
2995.1836
2995.1827
2995.1811
2995.1792
2995.1779
2995.1776
2995.1772
2995.1798