/*--------------------------------*- C++ -*----------------------------------*\
| =========                 |                                                 |
| \\      /  F ield         | OpenFOAM: The Open Source CFD Toolbox           |
|  \\    /   O peration     | Version:  v2106                                 |
|   \\  /    A nd           | Website:  www.openfoam.com                      |
|    \\/     M anipulation  |                                                 |
\*---------------------------------------------------------------------------*/
FoamFile
{
    version     2.0;
    format      ascii;
    arch        "LSB;label=32;scalar=64";
    class       volScalarField;
    location    "22.5";
    object      gradTz;
}
// * * * * * * * * * * * * * * * * * * * * * * * * * * * * * * * * * * * * * //

dimensions      [0 -1 0 1 0 0 0];

internalField   nonuniform List<scalar> 
4000
(
702.65515
702.6536
702.65815
702.65564
702.65375
702.65318
702.65338
702.65387
702.65428
702.65458
702.6536
702.65666
702.65829
702.65546
702.65372
702.65331
702.65367
702.65425
702.65442
702.65427
702.65815
702.65829
702.65947
702.65671
702.6551
702.65484
702.65543
702.6563
702.65655
702.6559
702.65564
702.65546
702.65671
702.65407
702.65257
702.65244
702.65323
702.65442
702.65511
702.65491
702.65375
702.65372
702.6551
702.65257
702.65118
702.65116
702.65209
702.65345
702.65436
702.65438
702.65318
702.65331
702.65484
702.65244
702.65116
702.65125
702.65227
702.65372
702.6547
702.65478
702.65338
702.65367
702.65543
702.65323
702.65209
702.65227
702.65335
702.65485
702.65585
702.65592
702.65387
702.65425
702.6563
702.65442
702.65345
702.65372
702.65485
702.65634
702.6573
702.65729
702.65428
702.65442
702.65655
702.65511
702.65436
702.6547
702.65585
702.6573
702.65815
702.65799
702.65458
702.65427
702.6559
702.65491
702.65438
702.65478
702.65592
702.65729
702.65799
702.6577
702.97243
702.97166
702.9735
702.97149
702.97001
702.96961
702.96992
702.97046
702.97077
702.9714
702.97166
702.97273
702.97324
702.97108
702.96971
702.96945
702.96995
702.97059
702.97045
702.97048
702.9735
702.97324
702.97345
702.97132
702.97005
702.96994
702.97067
702.97163
702.97158
702.97121
702.97149
702.97108
702.97132
702.96928
702.96811
702.96813
702.96906
702.97032
702.97066
702.97064
702.97001
702.96971
702.97005
702.96811
702.96704
702.96717
702.96824
702.96967
702.97022
702.97041
702.96961
702.96945
702.96994
702.96813
702.96717
702.9674
702.96856
702.97009
702.97071
702.97096
702.96992
702.96995
702.97067
702.96906
702.96824
702.96856
702.96979
702.97135
702.97199
702.97221
702.97046
702.97059
702.97163
702.97032
702.96967
702.97009
702.97135
702.9729
702.97346
702.97354
702.97077
702.97045
702.97158
702.97066
702.97022
702.97071
702.97199
702.97346
702.97383
702.97367
702.9714
702.97048
702.97121
702.97064
702.97041
702.97096
702.97221
702.97354
702.97367
702.97377
703.5541
703.55332
703.5542
703.55245
703.55127
703.55108
703.55157
703.55221
703.55233
703.55295
703.55332
703.5539
703.55391
703.55208
703.551
703.55094
703.55165
703.55245
703.55208
703.55206
703.5542
703.55391
703.55375
703.55196
703.55097
703.55106
703.55201
703.55314
703.55286
703.55249
703.55245
703.55208
703.55196
703.55024
703.54934
703.54956
703.5507
703.55213
703.5522
703.55212
703.55127
703.551
703.55097
703.54934
703.54855
703.54887
703.55015
703.55174
703.552
703.55211
703.55108
703.55094
703.55106
703.54956
703.54887
703.5493
703.55066
703.55234
703.55268
703.55284
703.55157
703.55165
703.55201
703.5507
703.55015
703.55066
703.55209
703.55381
703.55414
703.55426
703.55221
703.55245
703.55314
703.55213
703.55174
703.55234
703.55381
703.55548
703.55569
703.55559
703.55233
703.55208
703.55286
703.5522
703.552
703.55268
703.55414
703.55569
703.5556
703.5551
703.55295
703.55206
703.55249
703.55212
703.55211
703.55284
703.55426
703.55559
703.5551
703.55553
704.42123
704.42036
704.42121
704.41968
704.41874
704.41874
704.41944
704.42024
704.42032
704.42077
704.42036
704.42074
704.4208
704.41922
704.41836
704.41851
704.41943
704.42044
704.42008
704.42002
704.42121
704.4208
704.42072
704.41919
704.41842
704.4187
704.41985
704.42118
704.42088
704.42047
704.41968
704.41922
704.41919
704.41772
704.41704
704.41745
704.41879
704.4204
704.42042
704.42026
704.41874
704.41836
704.41842
704.41704
704.41647
704.41697
704.41844
704.42022
704.42042
704.42042
704.41874
704.41851
704.4187
704.41745
704.41697
704.41758
704.41914
704.421
704.42126
704.42132
704.41944
704.41943
704.41985
704.41879
704.41844
704.41914
704.42076
704.42264
704.42289
704.4229
704.42024
704.42044
704.42118
704.4204
704.42022
704.421
704.42264
704.42448
704.42457
704.42428
704.42032
704.42008
704.42088
704.42042
704.42042
704.42126
704.42289
704.42457
704.42426
704.4234
704.42077
704.42002
704.42047
704.42026
704.42042
704.42132
704.4229
704.42428
704.4234
704.42388
705.5689
705.56814
705.56905
705.56773
705.56698
705.56715
705.56801
705.56899
705.56919
705.56962
705.56814
705.56855
705.56872
705.56734
705.56666
705.56697
705.56805
705.56924
705.569
705.56898
705.56905
705.56872
705.56876
705.56742
705.56684
705.56727
705.56858
705.57007
705.56987
705.5695
705.56773
705.56734
705.56742
705.56616
705.56567
705.56622
705.56771
705.56947
705.56957
705.56942
705.56698
705.56666
705.56684
705.56567
705.56526
705.56592
705.56753
705.56945
705.56971
705.56972
705.56715
705.56697
705.56727
705.56622
705.56592
705.56667
705.56836
705.57036
705.5707
705.57075
705.56801
705.56805
705.56858
705.56771
705.56753
705.56836
705.57012
705.57214
705.57245
705.57246
705.56899
705.56924
705.57007
705.56947
705.56945
705.57036
705.57214
705.57411
705.57424
705.57392
705.56919
705.569
705.56987
705.56957
705.56971
705.5707
705.57245
705.57424
705.57392
705.57293
705.56962
705.56898
705.5695
705.56942
705.56972
705.57075
705.57246
705.57392
705.57293
705.57335
706.9908
706.99013
706.99109
706.98994
706.98934
706.98964
706.99061
706.99171
706.992
706.99245
706.99013
706.99058
706.99083
706.98962
706.9891
706.98952
706.99071
706.99201
706.99187
706.99188
706.99109
706.99083
706.99096
706.98979
706.98935
706.9899
706.99131
706.9929
706.99279
706.99246
706.98994
706.98962
706.98979
706.9887
706.98835
706.98901
706.99059
706.99244
706.9926
706.99248
706.98934
706.9891
706.98935
706.98835
706.98809
706.98885
706.99055
706.99254
706.99287
706.99289
706.98964
706.98952
706.9899
706.98901
706.98885
706.9897
706.99148
706.99355
706.99394
706.99402
706.99061
706.99071
706.99131
706.99059
706.99055
706.99148
706.99331
706.9954
706.99577
706.99579
706.99171
706.99201
706.9929
706.99244
706.99254
706.99355
706.9954
706.99744
706.99762
706.99731
706.992
706.99187
706.99279
706.9926
706.99287
706.99394
706.99577
706.99762
706.99734
706.99631
706.99245
706.99188
706.99246
706.99248
706.99289
706.99402
706.99579
706.99731
706.99631
706.9967
708.67814
708.67755
708.67852
708.67751
708.67704
708.67743
708.67848
708.67963
708.67998
708.68044
708.67755
708.678
708.6783
708.67724
708.67684
708.67736
708.67861
708.67996
708.67989
708.67993
708.67852
708.6783
708.67848
708.67746
708.67715
708.67779
708.67925
708.68087
708.68083
708.68054
708.67751
708.67724
708.67746
708.67652
708.67628
708.67703
708.67865
708.68053
708.68074
708.68065
708.67704
708.67684
708.67715
708.67628
708.67614
708.67698
708.67871
708.68073
708.6811
708.68114
708.67743
708.67736
708.67779
708.67703
708.67698
708.6779
708.67971
708.6818
708.68222
708.68232
708.67848
708.67861
708.67925
708.67865
708.67871
708.67971
708.68157
708.68368
708.68408
708.68412
708.67963
708.67996
708.68087
708.68053
708.68073
708.6818
708.68368
708.68572
708.68595
708.68566
708.67998
708.67989
708.68083
708.68074
708.6811
708.68222
708.68408
708.68595
708.68571
708.6847
708.68044
708.67993
708.68054
708.68065
708.68114
708.68232
708.68412
708.68566
708.6847
708.68508
710.62042
710.61989
710.62083
710.61995
710.61959
710.62006
710.62114
710.62232
710.62271
710.62317
710.61989
710.62033
710.62065
710.61972
710.61943
710.62002
710.6213
710.62266
710.62265
710.62271
710.62083
710.62065
710.62087
710.61998
710.61977
710.62047
710.62195
710.62358
710.62358
710.62333
710.61995
710.61972
710.61998
710.61916
710.61903
710.61982
710.62146
710.62333
710.62358
710.62351
710.61959
710.61943
710.61977
710.61903
710.61897
710.61986
710.6216
710.6236
710.62399
710.62405
710.62006
710.62002
710.62047
710.61982
710.61986
710.62082
710.62264
710.6247
710.62515
710.62526
710.62114
710.6213
710.62195
710.62146
710.6216
710.62264
710.62449
710.62658
710.627
710.62705
710.62232
710.62266
710.62358
710.62333
710.6236
710.6247
710.62658
710.6286
710.62885
710.62858
710.62271
710.62265
710.62358
710.62358
710.62399
710.62515
710.627
710.62885
710.62864
710.62768
710.62317
710.62271
710.62333
710.62351
710.62405
710.62526
710.62705
710.62858
710.62768
710.62805
712.80559
712.80511
712.80602
712.80526
712.805
712.80551
712.80661
712.8078
712.8082
712.80865
712.80511
712.80553
712.80587
712.80506
712.80487
712.80549
712.80678
712.80814
712.80817
712.80825
712.80602
712.80587
712.80611
712.80534
712.80522
712.80595
712.80743
712.80903
712.80908
712.80886
712.80526
712.80506
712.80534
712.80464
712.80459
712.80542
712.80704
712.80887
712.80914
712.80909
712.805
712.80487
712.80522
712.80459
712.80461
712.80552
712.80724
712.8092
712.8096
712.80967
712.80551
712.80549
712.80595
712.80542
712.80552
712.80651
712.80829
712.81031
712.81076
712.81088
712.80661
712.80678
712.80743
712.80704
712.80724
712.80829
712.81012
712.81215
712.81258
712.81264
712.8078
712.80814
712.80903
712.80887
712.8092
712.81031
712.81215
712.81412
712.81438
712.81414
712.8082
712.80817
712.80908
712.80914
712.8096
712.81076
712.81258
712.81438
712.81421
712.81329
712.80865
712.80825
712.80886
712.80909
712.80967
712.81088
712.81264
712.81414
712.81329
712.81365
715.22015
715.21974
715.22059
715.21994
715.21976
715.22031
715.22141
715.22257
715.22299
715.22342
715.21974
715.22013
715.22046
715.21977
715.21966
715.22031
715.22158
715.22291
715.22297
715.22306
715.22059
715.22046
715.22072
715.22006
715.22001
715.22077
715.22221
715.22378
715.22385
715.22366
715.21994
715.21977
715.22006
715.21947
715.21949
715.22033
715.22191
715.22368
715.22396
715.22393
715.21976
715.21966
715.22001
715.21949
715.21958
715.22049
715.22217
715.22405
715.22446
715.22454
715.22031
715.22031
715.22077
715.22033
715.22049
715.22148
715.22321
715.22516
715.22561
715.22573
715.22141
715.22158
715.22221
715.22191
715.22217
715.22321
715.22498
715.22694
715.22737
715.22744
715.22257
715.22291
715.22378
715.22368
715.22405
715.22516
715.22694
715.22884
715.2291
715.22888
715.22299
715.22297
715.22385
715.22396
715.22446
715.22561
715.22737
715.2291
715.22895
715.22808
715.22342
715.22306
715.22366
715.22393
715.22454
715.22573
715.22744
715.22888
715.22808
715.22844
717.84921
717.84885
717.84964
717.84909
717.84899
717.84957
717.85064
717.85177
717.85219
717.8526
717.84885
717.8492
717.84954
717.84896
717.84891
717.84958
717.85082
717.8521
717.85218
717.85229
717.84964
717.84954
717.84979
717.84925
717.84927
717.85002
717.85142
717.85292
717.85301
717.85286
717.84909
717.84896
717.84925
717.84876
717.84884
717.84968
717.8512
717.85289
717.85317
717.85316
717.84899
717.84891
717.84927
717.84884
717.84898
717.84989
717.8515
717.8533
717.85369
717.85377
717.84957
717.84958
717.85002
717.84968
717.84989
717.85086
717.85252
717.85437
717.85481
717.85493
717.85064
717.85082
717.85142
717.8512
717.8515
717.85252
717.85422
717.85608
717.85649
717.85657
717.85177
717.8521
717.85292
717.85289
717.8533
717.85437
717.85608
717.85788
717.85815
717.85795
717.85219
717.85218
717.85301
717.85317
717.85369
717.85481
717.85649
717.85815
717.85801
717.8572
717.8526
717.85229
717.85286
717.85316
717.85377
717.85493
717.85657
717.85795
717.8572
717.85755
720.67654
720.67623
720.67695
720.6765
720.67648
720.67706
720.6781
720.67918
720.67959
720.67998
720.67623
720.67654
720.67686
720.6764
720.67642
720.67708
720.67827
720.6795
720.6796
720.67971
720.67695
720.67686
720.67712
720.67668
720.67676
720.67751
720.67884
720.68027
720.68037
720.68025
720.6765
720.6764
720.67668
720.67629
720.67642
720.67725
720.6787
720.68029
720.68057
720.68057
720.67648
720.67642
720.67676
720.67642
720.67661
720.6775
720.67903
720.68072
720.6811
720.68119
720.67706
720.67708
720.67751
720.67725
720.6775
720.67844
720.68002
720.68176
720.68218
720.6823
720.6781
720.67827
720.67884
720.6787
720.67903
720.68002
720.68163
720.68337
720.68377
720.68385
720.67918
720.6795
720.68027
720.68029
720.68072
720.68176
720.68337
720.68507
720.68532
720.68514
720.67959
720.6796
720.68037
720.68057
720.6811
720.68218
720.68377
720.68532
720.6852
720.68445
720.67998
720.67971
720.68025
720.68057
720.68119
720.6823
720.68385
720.68514
720.68445
720.68478
723.6847
723.68444
723.68508
723.68474
723.68478
723.68536
723.68635
723.68738
723.68777
723.68813
723.68444
723.68471
723.68502
723.68465
723.68474
723.68539
723.68652
723.68768
723.68779
723.6879
723.68508
723.68502
723.68527
723.68493
723.68506
723.68579
723.68705
723.68839
723.6885
723.68841
723.68474
723.68465
723.68493
723.68464
723.68482
723.68562
723.68698
723.68847
723.68874
723.68874
723.68478
723.68474
723.68506
723.68482
723.68505
723.68591
723.68733
723.68891
723.68927
723.68935
723.68536
723.68539
723.68579
723.68562
723.68591
723.68681
723.68828
723.6899
723.69029
723.6904
723.68635
723.68652
723.68705
723.68698
723.68733
723.68828
723.68978
723.6914
723.69177
723.69185
723.68738
723.68768
723.68839
723.68847
723.68891
723.6899
723.6914
723.69297
723.69321
723.69305
723.68777
723.68779
723.6885
723.68874
723.68927
723.69029
723.69177
723.69321
723.69311
723.69241
723.68813
723.6879
723.68841
723.68874
723.68935
723.6904
723.69185
723.69305
723.69241
723.69273
726.85514
726.85494
726.85549
726.85525
726.85534
726.85592
726.85685
726.85781
726.85819
726.85851
726.85494
726.85516
726.85544
726.85519
726.85532
726.85596
726.85702
726.8581
726.85822
726.85833
726.85549
726.85544
726.85568
726.85545
726.85563
726.85633
726.8575
726.85874
726.85886
726.85879
726.85525
726.85519
726.85545
726.85525
726.85548
726.85624
726.8575
726.85887
726.85912
726.85914
726.85534
726.85532
726.85563
726.85548
726.85574
726.85656
726.85788
726.85932
726.85965
726.85973
726.85592
726.85596
726.85633
726.85624
726.85656
726.85741
726.85877
726.86024
726.86061
726.86072
726.85685
726.85702
726.8575
726.8575
726.85788
726.85877
726.86015
726.86163
726.86197
726.86204
726.85781
726.8581
726.85874
726.85887
726.85932
726.86024
726.86163
726.86306
726.86329
726.86314
726.85819
726.85822
726.85886
726.85912
726.85965
726.86061
726.86197
726.86329
726.86319
726.86256
726.85851
726.85833
726.85879
726.85914
726.85973
726.86072
726.86204
726.86314
726.86256
726.86285
730.16831
730.16817
730.16862
730.16848
730.16863
730.1692
730.17007
730.17095
730.1713
730.17159
730.16817
730.16834
730.16859
730.16844
730.16863
730.16925
730.17022
730.17121
730.17135
730.17145
730.16862
730.16859
730.16882
730.16869
730.16891
730.16958
730.17066
730.17178
730.17191
730.17186
730.16848
730.16844
730.16869
730.16859
730.16885
730.16957
730.17072
730.17195
730.17219
730.17222
730.16863
730.16863
730.16891
730.16885
730.16915
730.16991
730.17111
730.17241
730.17271
730.17279
730.1692
730.16925
730.16958
730.16957
730.16991
730.17071
730.17194
730.17326
730.17359
730.1737
730.17007
730.17022
730.17066
730.17072
730.17111
730.17194
730.17319
730.17451
730.17483
730.1749
730.17095
730.17121
730.17178
730.17195
730.17241
730.17326
730.17451
730.1758
730.17601
730.17588
730.1713
730.17135
730.17191
730.17219
730.17271
730.17359
730.17483
730.17601
730.17593
730.17536
730.17159
730.17145
730.17186
730.17222
730.17279
730.1737
730.1749
730.17588
730.17536
730.17562
733.60379
733.6037
733.60405
733.60401
733.60422
733.60476
733.60556
733.60636
733.60668
733.60693
733.6037
733.60382
733.60404
733.604
733.60423
733.60482
733.60571
733.6066
733.60674
733.60685
733.60405
733.60404
733.60425
733.60422
733.60449
733.60512
733.60609
733.60708
733.60722
733.6072
733.60401
733.604
733.60422
733.60422
733.60451
733.60519
733.60622
733.60731
733.60753
733.60756
733.60422
733.60423
733.60449
733.60451
733.60484
733.60554
733.60661
733.60776
733.60803
733.6081
733.60476
733.60482
733.60512
733.60519
733.60554
733.60628
733.60737
733.60854
733.60883
733.60892
733.60556
733.60571
733.60609
733.60622
733.60661
733.60737
733.60848
733.60965
733.60992
733.60999
733.60636
733.6066
733.60708
733.60731
733.60776
733.60854
733.60965
733.61078
733.61096
733.61085
733.60668
733.60674
733.60722
733.60753
733.60803
733.60883
733.60992
733.61096
733.61089
733.61039
733.60693
733.60685
733.6072
733.60756
733.6081
733.60892
733.60999
733.61085
733.61039
733.61063
737.14039
737.14035
737.14061
737.14066
737.14092
737.14144
737.14216
737.14287
737.14316
737.14337
737.14035
737.14042
737.14061
737.14067
737.14095
737.1415
737.14229
737.14308
737.14322
737.14333
737.14061
737.14061
737.1408
737.14087
737.14117
737.14176
737.14261
737.14348
737.14362
737.14363
737.14066
737.14067
737.14087
737.14097
737.14129
737.14191
737.14281
737.14375
737.14395
737.14399
737.14092
737.14095
737.14117
737.14129
737.14164
737.14228
737.14321
737.14419
737.14443
737.1445
737.14144
737.1415
737.14176
737.14191
737.14228
737.14294
737.14389
737.14489
737.14514
737.14522
737.14216
737.14229
737.14261
737.14281
737.14321
737.14389
737.14485
737.14585
737.14608
737.14614
737.14287
737.14308
737.14348
737.14375
737.14419
737.14489
737.14585
737.14681
737.14697
737.14688
737.14316
737.14322
737.14362
737.14395
737.14443
737.14514
737.14608
737.14697
737.14691
737.14648
737.14337
737.14333
737.14363
737.14399
737.1445
737.14522
737.14614
737.14688
737.14648
737.14669
740.75631
740.75632
740.75648
740.75663
740.75694
740.75743
740.75806
740.75867
740.75893
740.7591
740.75632
740.75634
740.7565
740.75666
740.75698
740.75749
740.75818
740.75885
740.759
740.7591
740.75648
740.7565
740.75667
740.75684
740.75717
740.75771
740.75844
740.75918
740.75932
740.75935
740.75663
740.75666
740.75684
740.75702
740.75737
740.75793
740.75869
740.75948
740.75965
740.7597
740.75694
740.75698
740.75717
740.75737
740.75774
740.75831
740.7591
740.75991
740.76011
740.76017
740.75743
740.75749
740.75771
740.75793
740.75831
740.7589
740.7597
740.76052
740.76073
740.7608
740.75806
740.75818
740.75844
740.75869
740.7591
740.7597
740.7605
740.76132
740.76152
740.76157
740.75867
740.75885
740.75918
740.75948
740.75991
740.76052
740.76132
740.76211
740.76224
740.76217
740.75893
740.759
740.75932
740.75965
740.76011
740.76073
740.76152
740.76224
740.76219
740.76184
740.7591
740.7591
740.75935
740.7597
740.76017
740.7608
740.76157
740.76217
740.76184
740.76202
744.42925
744.42932
744.42937
744.42962
744.42997
744.43043
744.43097
744.43148
744.43171
744.43184
744.42932
744.42929
744.42941
744.42967
744.43003
744.4305
744.43108
744.43164
744.43179
744.43188
744.42937
744.42941
744.42956
744.42982
744.43019
744.43067
744.43128
744.43187
744.43201
744.43206
744.42962
744.42967
744.42982
744.4301
744.43047
744.43096
744.43159
744.43221
744.43236
744.43241
744.42997
744.43003
744.43019
744.43047
744.43085
744.43136
744.43199
744.43263
744.43279
744.43284
744.43043
744.4305
744.43067
744.43096
744.43136
744.43187
744.4325
744.43315
744.43331
744.43337
744.43097
744.43108
744.43128
744.43159
744.43199
744.4325
744.43314
744.43378
744.43393
744.43398
744.43148
744.43164
744.43187
744.43221
744.43263
744.43315
744.43378
744.43439
744.43449
744.43444
744.43171
744.43179
744.43201
744.43236
744.43279
744.43331
744.43393
744.43449
744.43445
744.43417
744.43184
744.43188
744.43206
744.43241
744.43284
744.43337
744.43398
744.43444
744.43417
744.43432
748.13658
748.1367
748.13665
748.13698
748.13738
748.1378
748.13825
748.13866
748.13885
748.13893
748.1367
748.13661
748.1367
748.13706
748.13746
748.13788
748.13834
748.13878
748.13893
748.13902
748.13665
748.1367
748.13682
748.13718
748.13758
748.138
748.13847
748.13893
748.13906
748.13914
748.13698
748.13706
748.13718
748.13755
748.13794
748.13837
748.13884
748.1393
748.13942
748.13947
748.13738
748.13746
748.13758
748.13794
748.13834
748.13876
748.13924
748.1397
748.13981
748.13986
748.1378
748.13788
748.138
748.13837
748.13876
748.13919
748.13966
748.14012
748.14024
748.14028
748.13825
748.13834
748.13847
748.13884
748.13924
748.13966
748.14014
748.14058
748.14069
748.14073
748.13866
748.13878
748.13893
748.1393
748.1397
748.14012
748.14058
748.14102
748.14109
748.14105
748.13885
748.13893
748.13906
748.13942
748.13981
748.14024
748.14069
748.14109
748.14105
748.14085
748.13893
748.13902
748.13914
748.13947
748.13986
748.14028
748.14073
748.14105
748.14085
748.14097
751.85544
751.85561
751.85545
751.85587
751.85631
751.85669
751.85704
751.85734
751.85749
751.85753
751.85561
751.85547
751.85552
751.85597
751.8564
751.85677
751.85712
751.85743
751.85758
751.85766
751.85545
751.85552
751.85561
751.85607
751.85648
751.85685
751.85718
751.85749
751.85762
751.85772
751.85587
751.85597
751.85607
751.85651
751.85692
751.85728
751.8576
751.85789
751.85798
751.85804
751.85631
751.8564
751.85648
751.85692
751.85733
751.85767
751.85799
751.85826
751.85834
751.85838
751.85669
751.85677
751.85685
751.85728
751.85767
751.85801
751.85832
751.85859
751.85866
751.85869
751.85704
751.85712
751.85718
751.8576
751.85799
751.85832
751.85862
751.85888
751.85894
751.85897
751.85734
751.85743
751.85749
751.85789
751.85826
751.85859
751.85888
751.85913
751.85917
751.85915
751.85749
751.85758
751.85762
751.85798
751.85834
751.85866
751.85894
751.85917
751.85914
751.85902
751.85753
751.85766
751.85772
751.85804
751.85838
751.85869
751.85897
751.85915
751.85902
751.8591
755.56289
755.56311
755.56285
755.56336
755.56383
755.56416
755.56441
755.56461
755.56472
755.56471
755.56311
755.56292
755.56293
755.56347
755.56393
755.56424
755.56447
755.56466
755.56481
755.56489
755.56285
755.56293
755.563
755.56354
755.56398
755.56427
755.56447
755.56463
755.56475
755.56488
755.56336
755.56347
755.56354
755.56406
755.56449
755.56477
755.56494
755.56505
755.56512
755.56518
755.56383
755.56393
755.56398
755.56449
755.5649
755.56517
755.56532
755.56541
755.56544
755.56547
755.56416
755.56424
755.56427
755.56477
755.56517
755.56541
755.56555
755.56563
755.56565
755.56567
755.56441
755.56447
755.56447
755.56494
755.56532
755.56555
755.56568
755.56575
755.56576
755.56578
755.56461
755.56466
755.56463
755.56505
755.56541
755.56563
755.56575
755.5658
755.56581
755.56582
755.56472
755.56481
755.56475
755.56512
755.56544
755.56565
755.56576
755.56581
755.56579
755.56575
755.56471
755.56489
755.56488
755.56518
755.56547
755.56567
755.56578
755.56582
755.56575
755.5658
759.23608
759.23635
759.23598
759.23658
759.23708
759.23737
759.23751
759.23759
759.23767
759.23761
759.23635
759.2361
759.23608
759.23671
759.23719
759.23745
759.23756
759.23762
759.23776
759.23783
759.23598
759.23608
759.23612
759.23674
759.2372
759.23743
759.23749
759.23749
759.23761
759.23775
759.23658
759.23671
759.23674
759.23735
759.23779
759.23799
759.23801
759.23794
759.23798
759.23804
759.23708
759.23719
759.2372
759.23779
759.2382
759.23838
759.23837
759.23827
759.23826
759.23828
759.23737
759.23745
759.23743
759.23799
759.23838
759.23853
759.2385
759.23838
759.23836
759.23836
759.23751
759.23756
759.23749
759.23801
759.23837
759.2385
759.23846
759.23832
759.23829
759.23831
759.23759
759.23762
759.23749
759.23794
759.23827
759.23838
759.23832
759.23819
759.23817
759.23819
759.23767
759.23776
759.23761
759.23798
759.23826
759.23836
759.23829
759.23817
759.23816
759.23819
759.23761
759.23783
759.23775
759.23804
759.23828
759.23836
759.23831
759.23819
759.23819
759.23821
762.85236
762.85268
762.85221
762.85288
762.85341
762.85365
762.85369
762.85366
762.85369
762.85359
762.85268
762.85239
762.85232
762.85304
762.85354
762.85373
762.85372
762.85365
762.85379
762.85385
762.85221
762.85232
762.85233
762.85304
762.85351
762.85367
762.85358
762.85343
762.85354
762.85371
762.85288
762.85304
762.85304
762.85371
762.85416
762.85428
762.85414
762.8539
762.85391
762.85398
762.85341
762.85354
762.85351
762.85416
762.85457
762.85466
762.85449
762.8542
762.85415
762.85416
762.85365
762.85373
762.85367
762.85428
762.85466
762.85472
762.85452
762.8542
762.85413
762.85412
762.85369
762.85372
762.85358
762.85414
762.85449
762.85452
762.8543
762.85397
762.85389
762.8539
762.85366
762.85365
762.85343
762.8539
762.8542
762.8542
762.85397
762.85365
762.85359
762.85364
762.85369
762.85379
762.85354
762.85391
762.85415
762.85413
762.85389
762.85359
762.85359
762.8537
762.85359
762.85385
762.85371
762.85398
762.85416
762.85412
762.8539
762.85364
762.8537
762.85368
766.38944
766.38981
766.38924
766.38998
766.39053
766.39072
766.39065
766.39051
766.39049
766.39035
766.38981
766.38946
766.38936
766.39015
766.39067
766.3908
766.39066
766.39047
766.3906
766.39064
766.38924
766.38936
766.38934
766.39012
766.3906
766.39068
766.39046
766.39015
766.39025
766.39044
766.38998
766.39015
766.39012
766.39086
766.39131
766.39135
766.39106
766.39064
766.39061
766.39068
766.39053
766.39067
766.3906
766.39131
766.39172
766.39172
766.39138
766.3909
766.39081
766.39081
766.39072
766.3908
766.39068
766.39135
766.39172
766.39168
766.39131
766.3908
766.39068
766.39066
766.39065
766.39066
766.39046
766.39106
766.39138
766.39131
766.39091
766.39039
766.39026
766.39026
766.39051
766.39047
766.39015
766.39064
766.3909
766.3908
766.39039
766.38988
766.38979
766.38985
766.39049
766.3906
766.39025
766.39061
766.39081
766.39068
766.39026
766.38979
766.3898
766.38998
766.39035
766.39064
766.39044
766.39068
766.39081
766.39066
766.39026
766.38985
766.38998
766.38993
769.82551
769.82592
769.82525
769.82606
769.82663
769.82676
769.82659
769.82633
769.82627
769.82608
769.82592
769.82553
769.82538
769.82624
769.82677
769.82684
769.82658
769.82625
769.82637
769.82641
769.82525
769.82538
769.82533
769.82618
769.82667
769.82667
769.82631
769.82585
769.82594
769.82614
769.82606
769.82624
769.82618
769.82698
769.82743
769.82738
769.82694
769.82635
769.82629
769.82636
769.82663
769.82677
769.82667
769.82743
769.82783
769.82774
769.82723
769.82657
769.82643
769.82642
769.82676
769.82684
769.82667
769.82738
769.82774
769.8276
769.82706
769.82636
769.82619
769.82615
769.82659
769.82658
769.82631
769.82694
769.82723
769.82706
769.82649
769.82577
769.8256
769.82558
769.82633
769.82625
769.82585
769.82635
769.82657
769.82636
769.82577
769.82508
769.82496
769.82503
769.82627
769.82637
769.82594
769.82629
769.82643
769.82619
769.8256
769.82496
769.82497
769.82523
769.82608
769.82641
769.82614
769.82636
769.82642
769.82615
769.82558
769.82503
769.82523
769.82514
773.13939
773.13983
773.13907
773.13994
773.14052
773.14059
773.14031
773.13994
773.13983
773.1396
773.13983
773.13939
773.13921
773.14013
773.14067
773.14067
773.14028
773.13983
773.13994
773.13996
773.13907
773.13921
773.13913
773.14003
773.14052
773.14045
773.13994
773.13933
773.13941
773.13963
773.13994
773.14013
773.14003
773.14089
773.14133
773.1412
773.1406
773.13984
773.13975
773.13981
773.14052
773.14067
773.14052
773.14133
773.14172
773.14154
773.14087
773.14002
773.13984
773.13982
773.14059
773.14067
773.14045
773.1412
773.14154
773.1413
773.14059
773.1397
773.13948
773.13943
773.14031
773.14028
773.13994
773.1406
773.14087
773.14059
773.13984
773.13894
773.13872
773.13869
773.13994
773.13983
773.13933
773.13984
773.14002
773.1397
773.13894
773.13806
773.1379
773.138
773.13983
773.13994
773.13941
773.13975
773.13984
773.13948
773.13872
773.1379
773.13792
773.13825
773.1396
773.13996
773.13963
773.13981
773.13982
773.13943
773.13869
773.138
773.13825
773.13813
776.31063
776.31112
776.31026
776.31118
776.31177
776.31178
776.31139
776.3109
776.31075
776.31047
776.31112
776.31063
776.31041
776.31139
776.31192
776.31185
776.31134
776.31075
776.31085
776.31086
776.31026
776.31041
776.31029
776.31125
776.31173
776.31158
776.31093
776.31017
776.31023
776.31046
776.31118
776.31139
776.31125
776.31216
776.31258
776.31236
776.31161
776.31068
776.31055
776.31062
776.31177
776.31192
776.31173
776.31258
776.31296
776.31267
776.31184
776.31082
776.31059
776.31055
776.31178
776.31185
776.31158
776.31236
776.31267
776.31234
776.31146
776.31039
776.31011
776.31004
776.31139
776.31134
776.31093
776.31161
776.31184
776.31146
776.31054
776.30945
776.30918
776.30914
776.3109
776.31075
776.31017
776.31068
776.31082
776.31039
776.30945
776.30839
776.3082
776.30831
776.31075
776.31085
776.31023
776.31055
776.31059
776.31011
776.30918
776.3082
776.30822
776.30862
776.31047
776.31086
776.31046
776.31062
776.31055
776.31004
776.30914
776.30831
776.30862
776.30846
779.31971
779.32022
779.31927
779.32023
779.32082
779.32077
779.32026
779.31966
779.31946
779.31914
779.32022
779.31969
779.31942
779.32045
779.32098
779.32084
779.32019
779.31948
779.31956
779.31955
779.31927
779.31942
779.31928
779.32028
779.32075
779.32051
779.31972
779.31881
779.31886
779.31909
779.32023
779.32045
779.32028
779.32122
779.32163
779.32132
779.32041
779.31931
779.31915
779.31921
779.32082
779.32098
779.32075
779.32163
779.32198
779.3216
779.32061
779.31941
779.31913
779.31908
779.32077
779.32084
779.32051
779.32132
779.3216
779.32116
779.32011
779.31886
779.31853
779.31845
779.32026
779.32019
779.31972
779.32041
779.32061
779.32011
779.31902
779.31775
779.31744
779.31738
779.31966
779.31948
779.31881
779.31931
779.31941
779.31886
779.31775
779.31651
779.31629
779.31641
779.31946
779.31956
779.31886
779.31915
779.31913
779.31853
779.31744
779.31629
779.31631
779.31678
779.31914
779.31955
779.31909
779.31921
779.31908
779.31845
779.31738
779.31641
779.31678
779.31658
782.14805
782.14859
782.14756
782.14855
782.14913
782.14901
782.14839
782.14767
782.14742
782.14705
782.14859
782.14802
782.14771
782.14877
782.14929
782.14907
782.14829
782.14745
782.14751
782.14749
782.14756
782.14771
782.14753
782.14856
782.14901
782.14869
782.14776
782.1467
782.14672
782.14696
782.14855
782.14877
782.14856
782.14953
782.14992
782.14951
782.14845
782.14719
782.14699