/*--------------------------------*- C++ -*----------------------------------*\
| =========                 |                                                 |
| \\      /  F ield         | OpenFOAM: The Open Source CFD Toolbox           |
|  \\    /   O peration     | Version:  v2106                                 |
|   \\  /    A nd           | Website:  www.openfoam.com                      |
|    \\/     M anipulation  |                                                 |
\*---------------------------------------------------------------------------*/
FoamFile
{
    version     2.0;
    format      ascii;
    arch        "LSB;label=32;scalar=64";
    class       volScalarField;
    location    "22.5";
    object      gradTy;
}
// * * * * * * * * * * * * * * * * * * * * * * * * * * * * * * * * * * * * * //

dimensions      [0 -1 0 1 0 0 0];

internalField   nonuniform List<scalar> 
4000
(
-0.00031327017
0.00064896301
6.6632604e-05
9.2689258e-07
2.9923972e-05
5.6789635e-05
8.3380267e-05
0.00010036549
6.8760153e-05
-7.5989679e-06
0.00089599153
0.0014658457
0.0004647243
0.00039180408
0.00047030115
0.00054895994
0.0006453208
0.00074238064
0.0007208266
0.00047675186
0.00069426334
-0.00027779083
-0.00037977827
-0.00032204028
-0.00025828079
-0.00018642175
-7.9870807e-05
7.1398463e-05
0.00020983234
0.00020139013
-0.0011748378
-0.0012299007
-0.0011692609
-0.0011084033
-0.0010532908
-0.00099176169
-0.00090799737
-0.00078446298
-0.0006168914
-0.00044017872
-0.00065325125
-0.00056945714
-0.00049609539
-0.0004338386
-0.00037945383
-0.00032633096
-0.0002691579
-0.00020352571
-0.00012941125
-6.0475241e-05
-0.00010419378
-2.4009338e-05
7.082587e-05
0.00015440066
0.00021611928
0.00026469658
0.00030564672
0.00033845898
0.00036138545
0.00037244744
0.00016522689
0.00023059067
0.00035864759
0.00048841089
0.00056594632
0.00061121614
0.0006397087
0.00065184971
0.00064622056
0.00062799774
0.00022156274
0.00019963258
0.00029706854
0.00048933571
0.00058817452
0.00062908237
0.00064391324
0.00063559422
0.00060195397
0.00055293207
0.00015698309
-4.9635806e-06
-0.00010864568
0.00012502807
0.00023563857
0.00026807854
0.00026962706
0.00024422658
0.0001869649
0.00011415364
3.6529409e-05
-3.982971e-05
-0.00012618708
-4.5457853e-05
-8.3786246e-06
4.9948188e-07
-1.003954e-06
-1.1649058e-05
-3.3685222e-05
-6.0189894e-05
-0.00061309817
0.0011086509
-5.4367469e-05
-0.00018694952
-0.00011924552
-4.5350171e-05
3.6486822e-05
8.1142737e-05
-6.5181275e-05
-0.00028851828
0.0018046504
0.0026427464
0.00058329685
0.00042392678
0.00061405658
0.00083790091
0.0011323545
0.0014155084
0.0012524967
0.00055513892
0.00098177808
-0.00096162261
-0.0012370416
-0.0011221916
-0.00095253072
-0.00073920461
-0.00041667499
3.6055218e-05
0.00040730627
0.00036100852
-0.0030719641
-0.0031692812
-0.0030412044
-0.0028847703
-0.0027252008
-0.0025404181
-0.0022877804
-0.0019186544
-0.0014409629
-0.00096038199
-0.0017312774
-0.0015188784
-0.0013173033
-0.0011358913
-0.00097295103
-0.00081289974
-0.00064017336
-0.00044075633
-0.00021807026
-8.9053581e-06
-0.0002396366
-6.0380756e-06
0.00027866134
0.00052981765
0.00071608177
0.00086259531
0.0009853789
0.001084163
0.001153301
0.001187778
0.00053425773
0.00072399709
0.0011118653
0.0014992569
0.001733629
0.0018714003
0.0019551966
0.0019860541
0.0019578013
0.0018818941
0.00067526061
0.00052275846
0.00079540283
0.0013467397
0.0016422203
0.0017688428
0.0018101424
0.0017714475
0.0016425747
0.0014492197
0.00059269235
3.8200829e-05
-0.00026767718
0.00036315411
0.00069059525
0.00079500509
0.00079421031
0.00069084502
0.00047198252
0.00026209365
0.00019299549
-3.0341509e-05
-0.00027190972
-6.120668e-05
4.8477563e-05
7.8236589e-05
7.1462246e-05
2.7631785e-05
-5.744106e-05
-0.00011229413
-0.00082703339
0.0013659374
-0.00010790733
-0.00026960723
-0.000170789
-5.0092693e-05
9.978777e-05
0.00018588582
-0.00014101647
-0.000616275
0.001964776
0.0030434651
0.00041815965
0.00023093375
0.0005142775
0.00088040753
0.0013981237
0.0019103997
0.0015349078
0.00028852642
0.00052217697
-0.0019311399
-0.0022903544
-0.002122347
-0.0018577661
-0.0015082833
-0.00096665131
-0.0001953844
0.0004160375
0.00035988459
-0.0046632169
-0.0047575394
-0.0045670991
-0.0043249512
-0.0040665814
-0.0037625253
-0.0033455891
-0.0027393042
-0.0019802256
-0.001241273
-0.0025299376
-0.0022006658
-0.0018804638
-0.0015866021
-0.001318038
-0.001052759
-0.00076672308
-0.00043730152
-7.5844086e-05
0.0002608564
-0.00019154629
0.00021431887
0.00069229988
0.0011054337
0.0014132921
0.0016567486
0.001859592
0.0020206977
0.0021285041
0.0021765731
0.0010147731
0.0013687408
0.0020447652
0.0026816397
0.0030679863
0.0032970972
0.0034319354
0.0034687647
0.0033897968
0.0032082397
0.0010681112
0.00070690481
0.0012048953
0.0020895936
0.0025702588
0.0027804726
0.002839171
0.002738334
0.0024453223
0.0020129297
0.0010950372
-0.00010820403
-0.00052683606
0.00044706496
0.00097119509
0.0011452229
0.0011270705
0.00088469794
0.00040166629
0.00034330536
0.00045558372
-1.9674805e-05
-0.00037533722
-5.711008e-05
0.00011729784
0.00016735691
0.00014934381
4.6318876e-05
-0.00013891787
7.4115816e-06
-0.0011330012
0.0014912726
-0.00024987994
-0.00043274717
-0.00030432556
-0.00013652035
9.0269995e-05
0.0002433875
-0.00023108079
-0.00088658923
0.0019068301
0.003231512
0.00013256702
-6.541743e-05
0.00030742409
0.00081374339
0.0015659098
0.002341853
0.0017844034
9.1768614e-05
0.00010758132
-0.0027784484
-0.0031893481
-0.0029625592
-0.0026057927
-0.0021247857
-0.0013691203
-0.00028963579
0.00052374576
0.00042402512
-0.0060032158
-0.0060848842
-0.0058283587
-0.0055013288
-0.005146625
-0.0047267411
-0.0041500748
-0.0033158138
-0.0023014218
-0.0013439822
-0.003098138
-0.0026537978
-0.0022189772
-0.0018160242
-0.0014443895
-0.0010765783
-0.0006802493
-0.0002250668
0.00026600248
0.00071723195
6.1139628e-05
0.00065303297
0.0013196254
0.0018897053
0.0023161756
0.0026538455
0.002933305
0.0031516325
0.0032894054
0.0033404463
0.00166203
0.0022318918
0.0031901396
0.0040670417
0.0046010669
0.0049185532
0.0050988539
0.0051278805
0.0049670093
0.0046273422
0.001428961
0.00094693484
0.0016474545
0.0028398009
0.0034961076
0.0037860527
0.003852208
0.0036542081
0.003107401
0.0022945807
0.0013363406
-0.00035862449
-0.00091374374
0.00035503641
0.0010580879
0.0012973352
0.0012469016
0.00079679687
-0.00011272577
0.00020538004
0.00060973147
-4.577697e-05
-0.0005186917
-0.0001122574
0.00011960136
0.00018856225
0.00015362857
-3.788247e-05
-0.00038825168
0.00017418807
-0.0014088615
0.0016211218
-0.00037553477
-0.00057814797
-0.00042163866
-0.00020861354
9.4242898e-05
0.00031605491
-0.00030383469
-0.0011139686
0.0019356102
0.0034856003
-6.2215335e-05
-0.00026746251
0.00019143364
0.00083251174
0.0018138753
0.0028486171
0.0020965681
-4.4758328e-06
-0.00015573282
-0.0034546374
-0.0039087957
-0.0036218248
-0.0031750918
-0.0025670981
-0.0016044017
-0.00023002196
0.00075621503
0.00059706564
-0.0071298458
-0.0071990017
-0.0068761968
-0.0064652978
-0.0060166402
-0.0054845866
-0.0047532714
-0.0036999697
-0.0024490631
-0.0012956872
-0.0034695872
-0.0029152855
-0.0023696129
-0.0018605588
-0.0013889017
-0.00092209081
-0.00041936846
0.00015680319
0.00077002946
0.0013270923
0.0005052085
0.0012790308
0.0021276501
0.0028497209
0.0033910189
0.0038192541
0.0041716555
0.0044433978
0.0046064934
0.0046558393
0.0025125832
0.0032995858
0.0045286885
0.0056366619
0.0063133054
0.0067155559
0.0069374491
0.0069519587
0.0066940426
0.0061677454
0.0019559202
0.0013588038
0.002238613
0.0037194206
0.0045428213
0.0049088185
0.0049776592
0.0046654121
0.0038131303
0.0025203283
0.0016184167
-0.00052661859
-0.0012346762
0.000300469
0.0011696062
0.0014707581
0.0013820477
0.00068654479
-0.00076303605
-5.7167189e-05
0.00075032967
-5.9804268e-05
-0.00065036628
-0.00016590386
0.00011855098
0.00020547134
0.00015144824
-0.00014539345
-0.0007104198
0.00032518579
-0.0016447615
0.0017674646
-0.0004734972
-0.00069492298
-0.00051172874
-0.00025560062
0.00012062442
0.00040891106
-0.00035593616
-0.0013126265
0.0020562649
0.0038131614
-0.00016305879
-0.00037436883
0.00016706378
0.00093724933
0.0021396964
0.0034234344
0.0024695931
-2.4919837e-05
-0.00029621947
-0.0039898009
-0.0044837497
-0.0041376288
-0.0036037583
-0.0028733988
-0.0017110186
-5.3827972e-05
0.0010881135
0.00086341672
-0.0080803446
-0.0081376919
-0.007750222
-0.0072577006
-0.0067181946
-0.0060781871
-0.0051980041
-0.0039345834
-0.0024610961
-0.001125691
-0.0036827997
-0.0030238161
-0.0023711815
-0.0017595862
-0.001191668
-0.00063008656
-2.5636304e-05
0.00066618031
0.0013951201
0.0020521487
0.0010918997
0.0020404294
0.0030645323
0.0039331692
0.0045847229
0.0050992009
0.0055205
0.0058422066
0.0060279921
0.0060747155
0.0035043363
0.0045011038
0.0059905213
0.0073206747
0.008134125
0.0086169416
0.0088771307
0.0088741276
0.0085144256
0.0077927161
0.0026122357
0.0018973948
0.0029421323
0.0046965269
0.0056790403
0.0061172834
0.0061865324
0.0057545783
0.0045776237
0.0027655951
0.0019662516
-0.00061605485
-0.0014821027
0.00030118985
0.0013267897
0.0016871582
0.0015592987
0.00060574672
-0.0014296845
-0.00036043876
0.00089624713
-6.0443238e-05
-0.00076676148
-0.00021024106
0.00012350857
0.00022777797
0.00015465751
-0.00025336169
-0.0010533616
0.00045946882
-0.0018526097
0.0019193957
-0.00055247994
-0.00079146224
-0.00058283374
-0.00028548174
0.00016139616
0.00051392184
-0.00039251397
-0.0014898377
0.0022297978
0.0041799924
-0.00020085204
-0.00041703934
0.00020334411
0.0010971817
0.002512302
0.0040355252
0.002881257
7.4819297e-06
-0.00034943398
-0.004415721
-0.0049464658
-0.004543269
-0.0039257752
-0.0030781536
-0.0017241265
0.00020391752
0.0014901913
0.0011984193
-0.0088836218
-0.0089291524
-0.0084794256
-0.0079084619
-0.007281937
-0.0065388056
-0.0055163048
-0.0040521852
-0.0023681701
-0.00086172252
-0.0037702225
-0.0030112518
-0.0022560016
-0.0015461364
-0.00088634524
-0.00023474435
0.00046619133
0.0012677601
0.0021061603
0.0028580303
0.001778028
0.0028943729
0.0040869859
0.0050960216
0.0058526181
0.0064485582
0.0069343564
0.0073024167
0.0075087126
0.0075528533
0.0045807555
0.0057798609
0.0075190991
0.009061932
0.010005719
0.010564436
0.010859578
0.010837374
0.010375823
0.0094594692
0.0033452371
0.0025143719
0.0037141921
0.0057286897
0.0068623268
0.0073686586
0.007436683
0.0068849031
0.0053811727
0.0030430236
0.0023571817
-0.0006484576
-0.0016708616
0.00034604415
0.0015196011
0.0019363143
0.0017700377
0.00055840927
-0.0020718419
-0.00066042687
0.0010466166
-5.0707075e-05
-0.00086923342
-0.00024522176
0.00013506498
0.00025602496
0.0001644921
-0.00035487726
-0.001394274
0.0005860661
-0.0020388375
0.0020694493
-0.00061819988
-0.0008732881
-0.0006405394
-0.0003038931
0.00021073845
0.00062517033
-0.00041766415
-0.0016490037
0.0024312843
0.0045622407
-0.00019643904
-0.00041625266
0.00027911333
0.0012907549
0.0029093494
0.0046620061
0.0033129492
7.6894681e-05
-0.00034011247
-0.0047542186
-0.0053186058
-0.0048609654
-0.0041639546
-0.0032047982
-0.0016681149
0.00051795568
0.001938936
0.0015806907
-0.0095599946
-0.0095935039
-0.0090844423
-0.0084388527
-0.0077296962
-0.0068887908
-0.0057312106
-0.0040765571
-0.0021939087
-0.00052693348
-0.0037566343
-0.0029025418
-0.0020496268
-0.0012463746
-0.00049956488
0.00023696467
0.0010287973
0.0019338376
0.0028752683
0.0037166617
0.0025317895
0.0038087063
0.0051620255
0.006304546
0.0071605111
0.0078329082
0.0083786858
0.0087893883
0.0090139708
0.0090553572
0.0057036897
0.0070972848
0.0090749409
0.010820039
0.011887175
0.012516912
0.012843655
0.012801028
0.012239364
0.011133015
0.0041204437
0.0031778398
0.0045240436
0.0067848908
0.0080613455
0.0086313617
0.0086966305
0.008027071
0.0062024159
0.0033462372
0.0027728503
-0.00063841068
-0.0018122611
0.00042432432
0.0017373625
0.0022071484
0.0020033314
0.00053913599
-0.0026775023
-0.0009399001
0.0011986761
-3.266346e-05
-0.00095869362
-0.0002714937
0.00015262319
0.00028943527
0.00018021409
-0.00044813062
-0.001723905
0.00071027083
-0.002205795
0.0022134352
-0.00067344686
-0.00094308553
-0.00068767579
-0.00031386277
0.00026527554
0.00073898206
-0.00043394909
-0.0017917866
0.0026465405
0.0049450626
-0.00016221319
-0.00038439516
0.00038152007
0.0015044898
0.0033162733
0.0052872033
0.0037511375
0.00017242094
-0.00028507293
-0.005019854
-0.0056145307
-0.0051054592
-0.0043335224
-0.0032691569
-0.0015597835
0.00087025611
0.0024164354
0.0019933996
-0.010123925
-0.010145269
-0.009580192
-0.0088642604
-0.0080772963
-0.0071444052
-0.0058595909
-0.004025386
-0.001956547
-0.00013993477
-0.0036614752
-0.002717641
-0.0017725902
-0.00088133879
-5.2735036e-05
0.00076337748
0.0016402877
0.0026422417
0.0036800228
0.0046052559
0.0033285597
0.0047579867
0.0062633129
0.0075317256
0.0084810184
0.0092247483
0.0098260133
0.01027572
0.010516399
0.010554622
0.0068457199
0.0084249871
0.010628433
0.0125644
0.013747453
0.014443264
0.014798424
0.014734572
0.014075515
0.012785647
0.0049147361
0.0038658992
0.0053496002
0.0078421181
0.0092526441
0.0098818532
0.0099430299
0.0091589441
0.0070232762
0.0036645739
0.0031999407
-0.00059621235
-0.0019148417
0.00052693114
0.0019706095
0.0024899453
0.0022495117
0.00054101995
-0.0032448585
-0.0011948238
0.0013496727
-8.1648431e-06
-0.0010361383
-0.00029018872
0.00017493651
0.00032663333
0.0002004183
-0.00053327848
-0.0020387166
0.00083341132
-0.0023543767
0.0023485583
-0.00071977916
-0.0010023266
-0.00072585773
-0.00031722285
0.00032280099
0.00085281088
-0.00044304292
-0.0019190428
0.0028661888
0.0053180852
-0.00010637859
-0.00032965875
0.00050194651
0.0017291346
0.0037227164
0.0058995388
0.0041856836
0.00028620818
-0.00019642067
-0.0052227479
-0.0058441646
-0.0052869757
-0.0044451172
-0.0032824205
-0.0014112552
0.0012473945
0.0029088584
0.0024233855
-0.010585869
-0.010594987
-0.0099775444
-0.0091959399
-0.0083363722
-0.0073176899
-0.0059140645
-0.0039121347
-0.001670345
0.00028437617
-0.0035002268
-0.0024725713
-0.0014414335
-0.0004680161
0.00043681647
0.0013269134
0.0022828517
0.0033748861
0.0045020492
0.0055050791
0.0041483839
0.005721372
0.0073691537
0.008755234
0.0097914615
0.010601269
0.011253554
0.011738736
0.011993443
0.012028046
0.0079853541
0.0097404047
0.012155758
0.01427022
0.015561313
0.016318192
0.01669878
0.01661335
0.015860432
0.014394796
0.0057108975
0.0045621317
0.0061738647
0.0088822453
0.010417584
0.011101443
0.011157473
0.010263095
0.007828969
0.0039877476
0.0036280963
-0.00052968434
-0.0019852343
0.00064630669
0.0022112766
0.0027764997
0.002500587
0.00055794509
-0.0037747604
-0.0014260639
0.0014970913
2.1091359e-05
-0.001102559
-0.00030255723
0.00020058846
0.00036612939
0.00022365739
-0.0006109615
-0.0023371569
0.0009548362
-0.0024849645
0.0024726835
-0.00075821045
-0.0010519437
-0.00075614422
-0.00031523739
0.00038169087
0.00096470179
-0.00044611925
-0.0020312023
0.0030832718
0.0056734029
-3.4872977e-05
-0.00025795986
0.00063409707
0.0019577989
0.0041207333
0.0064898749
0.0046086546
0.00041237291
-8.3211377e-05
-0.0053701522
-0.0060145741
-0.0054128439
-0.0045064415
-0.0032528109
-0.0012316408
0.0016389812
0.003405269
0.0028602163
-0.010953372
-0.010950272
-0.010284402
-0.0094421397
-0.0085155272
-0.0074176471
-0.0059042063
-0.0037472306
-0.0013466
0.00073399701
-0.0032851865
-0.0021801271
-0.0010694277
-2.0094135e-05
0.00095506485
0.0019132709
0.0029419178
0.0041168789
0.0053261199
0.0064005498
0.0049748688
0.0066816215
0.008461505
0.0099564221
0.011072826
0.011943275
0.012642066
0.01315925
0.013426029
0.013456616
0.0091050218
0.011024931
0.013637098
0.015916723
0.017307514
0.018120331
0.018523489
0.018416523
0.017574028
0.01594151
0.0064952995
0.0052535844
0.0069832209
0.0098904941
0.011540827
0.012274696
0.01232479
0.011325236
0.0086073297
0.00430701
0.0040490412
-0.00044481489
-0.0020284608
0.00077642018
0.0024527668
0.0030600911
0.0027501329
0.00058507777
-0.0042680927
-0.0016356074
0.0016387666
5.3683592e-05
-0.0011587545
-0.00030968487
0.00022831019
0.00040660172
0.00024870133
-0.00068174414
-0.0026181785
0.0010732461
-0.00259769
0.0025841081
-0.00078943812
-0.0010925612
-0.0007792732
-0.00030883447
0.00044067795
0.0010730728
-0.00044403943
-0.0021284466
0.0032923985
0.0060047764
4.7827955e-05
-0.00017375579
0.00077317015
0.0021851268
0.0045039739
0.007050729
0.0050136535
0.00054638172
4.7638658e-05
-0.0054673654
-0.0061308935
-0.0054884376
-0.0045232159
-0.003186541
-0.0010279973
0.0020367387
0.0038968291
0.0032954786
-0.011231872
-0.011216624
-0.01050653
-0.0096089468
-0.0086211873
-0.0074510942
-0.0058373977
-0.003538891
-0.00099439552
0.0011991467
-0.0030261374
-0.0018505473
-0.00066725485
0.00045134931
0.0014905978
0.0025107439
0.0036054791
0.0048558567
0.0061395035
0.0072785811
0.0057944514
0.0076243782
0.0095252551
0.011119597
0.012309045
0.013234478
0.013975156
0.014520851
0.014797818
0.014824072
0.010190067
0.012262928
0.01505567
0.017486208
0.018967873
0.019831321
0.020254246
0.020126101
0.019198995
0.01740955
0.0072568113
0.0059297353
0.0077664909
0.010854562
0.012609493
0.013388586
0.013432156
0.012333335
0.0093482107
0.0046151849
0.0044560856
-0.00034619364
-0.0020482617
0.00091254626
0.002689776
0.0033352707
0.0029929972
0.00061871994
-0.0047251528
-0.0018252446
0.0017728865
8.8479245e-05
-0.0012052947
-0.00031242109
0.00025706678
0.00044696404
0.00027456961
-0.00074599922
-0.0028807809
0.0011872729
-0.0026925417
0.0026814622
-0.00081394926
-0.0011246045
-0.0007957725
-0.0002987172
0.00049874313
0.0011766086
-0.00043745637
-0.0022108124
0.0034893208
0.0063072095
0.00013827398
-8.0488352e-05
0.00091540955
0.0024068484
0.0048672427
0.0075758462
0.0053954172
0.00068466078
0.00019075916
-0.0055183409
-0.0061969387
-0.0055177942
-0.0044998004
-0.0030884322
-0.0008059363
0.0024339154
0.0043762584
0.0037222694
-0.011425349
-0.011398084
-0.010648213
-0.0097009452
-0.008658257
-0.0074233117
-0.0057194601
-0.0032937326
-0.00062116787
0.0016717354
-0.0027309573
-0.0014921264
-0.00024362056
0.00093723566
0.002034013
0.0031096347
0.0042635277
0.0055814444
0.00693145
0.0081280769
0.0065957947
0.0085375681
0.010547628
0.012231432
0.013486425
0.014460947
0.015238745
0.015809403
0.016094702
0.016116381
0.011228091
0.01344108
0.016397089
0.018963427
0.020526668
0.021435237
0.021875123
0.021726403
0.020720259
0.018784846
0.0079861512
0.0065818519
0.0085143256
0.011764047
0.013612618
0.014431969
0.014468575
0.013277105
0.010043046
0.0049064255
0.0048437443
-0.00023738714
-0.0020474411
0.0010509668
0.0029180269
0.0035975993
0.0032250057
0.00065604238
-0.0051456735
-0.0019962721
0.0018979375
0.00012458155
-0.0012425667
-0.00031141108
0.00028603543
0.00048634014
0.00030048807
-0.00080393495
-0.0031239254
0.0012956659
-0.002769435
0.0027636455
-0.00083208994
-0.00114837
-0.00080603039
-0.00028543302
0.00055504882
0.0012741967
-0.00042688035
-0.0022782587
0.0036706535
0.006576671
0.00023375143
1.9125392e-05
0.0010578145
0.002619495
0.0052062224
0.0080599344
0.0057495568
0.00082433338
0.0003419068
-0.0055261164
-0.0062156388
-0.0055040463
-0.0044396228
-0.0029623371
-0.00057003586
0.0028248908
0.0048374592
0.004134833
-0.01153682
-0.011497731
-0.010712757
-0.0097217146
-0.0086306141
-0.0073385287
-0.0055551265
-0.0030172227
-0.00023313326
0.0021449584
-0.0024061204
-0.001111715
0.00019424922
0.0014299942
0.0025774351
0.0037017852
0.0049076039
0.0062848275
0.0076927868
0.0089395399
0.0073693025
0.0094109213
0.01151771
0.013280508
0.014593198
0.015610677
0.016420675
0.017012659
0.017304442
0.017321362
0.012208477
0.014547922
0.017648917
0.02033515
0.021970223
0.022918192
0.023372204
0.023203712
0.022124644
0.020055147
0.0086754571
0.0072025634
0.0092187914
0.012610058
0.014540785
0.015395241
0.015424552
0.014147681
0.01068455
0.0051759598
0.0052074535
-0.00012122961
-0.0020281475
0.0011887126
0.0031340335
0.0038434251
0.0034427372
0.00069486035
-0.0055289843
-0.0021495284
0.0020126476
0.00016126929
-0.0012708346
-0.00030714818
0.0003145598
0.00052402056
0.00032583983
-0.0008556439
-0.003346554
0.0013973267
-0.0028282639
0.002829783
-0.00084411448
-0.0011640748
-0.00081034445
-0.00026942127
0.0006088941
0.001364885
-0.000412724
-0.0023307155
0.0038336765
0.0068099007
0.00033208111
0.00012289118
0.0011979399
0.0028202037
0.0055172874
0.0084984886
0.0060723806
0.00096303742
0.00049766401
-0.0054931227
-0.0061893455
-0.0054497286
-0.0043454829
-0.0028114369
-0.00032412817
0.0032049007
0.0052752536
0.0045283018
-0.011568718
-0.011518063
-0.01070286
-0.0096742007
-0.0085414738
-0.0072002798
-0.005348387
-0.0027140108
0.00016439635
0.0026129926
-0.0020570827
-0.0007151024
0.00064022984
0.0019231893
0.0031141507
0.0042802211
0.0055304549
0.0069584263
0.0084156078
0.0097047731
0.0081067517
0.01023561
0.012426099
0.014256964
0.015619186
0.016673268
0.01751039
0.018119978
0.018416391
0.018428417
0.01312206
0.01557352
0.018800345
0.021589857
0.023286614
0.024268063
0.024733324
0.024546028
0.023400634
0.02120978
0.0093179946
0.0077855674
0.0098730878
0.013384949
0.015385871
0.016270102
0.016291872
0.014937412
0.011266511
0.0054198814
0.0055433702
-3.05474e-08
-0.0019920809
0.0013233706
0.0033349225
0.0040697173
0.0036433613
0.00073346995
-0.0058741689
-0.0022855034
0.0021159411
0.00019794956
-0.0012902877
-0.00030001831
0.0003421098
0.00055942526
0.00035012717
-0.00090114363
-0.0035476261
0.0014913
-0.002868939
0.0028791932
-0.00085022053
-0.0011718922
-0.00080895609
-0.00025104633
0.00065968369
0.0014478533
-0.00039533365
-0.0023681172
0.0039761941
0.0070042718
0.00043147463
0.00022899464
0.0013337565
0.0030065821
0.0057973754
0.0088876703
0.0063607719
0.0010987962
0.00065522084
-0.0054214073
-0.0061200563
-0.0053569998
-0.0042197697
-0.0026384538
-7.15038e-05
0.0035698434
0.0056851954
0.0048985097
-0.011523171
-0.011461274
-0.010620889
-0.0095609873
-0.0083936567
-0.0070116657
-0.005102742
-0.0023881713
0.000566781
0.003070772
-0.0016885703
-0.00030730141
0.0010890172
0.0024112446
0.0036383388
0.0048388906
0.0061257822
0.0075956542
0.0090930418
0.010416654
0.0088010208
0.01100398
0.01326464
0.015152246
0.016555554
0.01763969
0.018498723
0.01912211
0.01942129
0.019428329
0.013960883
0.016509232
0.019841971
0.022717529
0.024465465
0.025474293
0.025947886
0.025742895
0.024538202
0.022239479
0.0099079544
0.0083254284
0.010471351
0.014082128
0.016140874
0.017049387
0.017063441
0.015639704
0.011783634
0.0056349889
0.0058482353
0.00012427959
-0.0019406388
0.0014529459
0.0035183046
0.0042739462
0.003824523
0.00077052969
-0.0061801917
-0.0024044455
0.0022069076
0.00023412415
-0.0013010761
-0.00029033296
0.00036825123
0.00059207548
0.00037294382
-0.0009404068
-0.0037261529
0.0015767573
-0.0028914143
0.0029113658
-0.0008505745
-0.0011719769
-0.00080207523
-0.00023062132
0.00070690615
0.0015223933
-0.00037501194
-0.0023904274
0.0040964332
0.0071576929
0.00053043115
0.0003358989
0.0014635505
0.0031766117
0.0060438972
0.0092242239
0.0066121017
0.0012299257
0.00081221595
-0.005312798
-0.0060095781
-0.0052278027
-0.0040646193
-0.0024458039
0.00018494152
0.0039161407
0.0060634367
0.0052418582
-0.011402204
-0.011329455
-0.010469085
-0.0093844963
-0.0081897846
-0.0067755448
-0.0048213861
-0.00204338
0.00096988289
0.0035138224
-0.0013047913
0.00010724209
0.0015359216
0.0028892409
0.0041448731
0.0053724724
0.0066880562
0.0081907392
0.009719081
0.01106897
0.0094458922
0.011709364
0.014026239
0.015958925
0.017394637
0.018502108
0.019377723
0.020011037
0.020311117
0.020313114
0.014718024
0.017347546
0.020765636
0.02370949
0.025497801
0.026527757
0.02700673
0.026785281
0.025528694
0.023136259
0.010440311
0.0088174335
0.011008515
0.014695929
0.016799784
0.017726954
0.017733178
0.016248917
0.012231431
0.0058186625
0.0061192771
0.000250046
-0.0018750211
0.0015757636
0.0036821813
0.0044539945
0.0039842576
0.00080497259
-0.0064459973
-0.0025064494
0.0022847814
0.00026936589
-0.001303336
-0.00027835307
0.0003926237
0.00062157301
0.00039395462
-0.00097338364
-0.0038812244
0.0016529816
-0.0028957075
0.002925945
-0.00084533006
-0.0011644831
-0.0007898983
-0.00020842513
0.00075011835
0.0015878942
-0.00035203422
-0.0023976581
0.0041929691
0.0072685353
0.00062766183
0.00044226987
0.001585851
0.0033285782
0.0062546714
0.0095054167
0.0068241667
0.0013549663
0.0009666192
-0.0051690231
-0.0058596462
-0.0050639826
-0.00388203
-0.002235709
0.00044259996
0.0042406371
0.0064066299
0.0055552178
-0.011207899
-0.011124751
-0.010249709
-0.0091471347
-0.0079324241
-0.0064946726
-0.0045073439
-0.0016830438
0.0013699416
0.0039381401
-0.00090959193
0.0005244951
0.0019767164
0.0033527687
0.0046291785
0.0058762363
0.0072123813
0.0087385935
0.010288454
0.011656291
0.010035909
0.012345933
0.014704729
0.016670563
0.018129809
0.019253766
0.020140544
0.020779862
0.021078978
0.021075912
0.015387478
0.018081957
0.021564317
0.024558303
0.026375945
0.02742066
0.027902041
0.02766548
0.026364733
0.023893327
0.01091072
0.0092574913
0.011480215
0.015221521
0.017357501
0.018297594
0.018295936
0.016760286
0.012606137
0.0059687697
0.0063541432
0.00037581472
-0.0017963072
0.0016903955
0.0038248767
0.004608093
0.0041209273
0.00083593936
-0.0066705891
-0.0025915267
0.0023489255
0.00030330161
-0.0012972082
-0.00026430641
0.00041492419
0.00064758472
0.00041288025
-0.0010000192
-0.0040120314
0.0017193558
-0.0028819149
0.0029227174
-0.00083464206
-0.0011495791
-0.00077262157
-0.00018471518
0.00078893389
0.0016438328
-0.00032666067
-0.0023898823
0.0042646691
0.0073355784
0.00072203343
0.00054692058
0.0016993758
0.0034610195
0.0064278759
0.0097289949
0.0069951421
0.0014726321
0.0011166437
-0.0049918009
-0.0056720141
-0.0048673743
-0.0036739477
-0.0020102797
0.00069907251
0.0045405255
0.0067118556
0.0058358551
-0.010942501
-0.01084947
-0.0099651583
-0.0088514036
-0.0076241936
-0.0061718056
-0.00416357
-0.0013103975
0.0017634815
0.004340102
-0.00050657244
0.00094072341
0.0024075265
0.0037978181
0.0050871244
0.0063459394
0.0076943954
0.0092347164
0.010796533
0.01217388
0.010566267
0.0129086
0.015294767
0.01728162
0.01875539
0.019888891
0.020781351
0.02142272
0.02171902
0.021710906
0.015964066
0.018706888
0.022232042
0.025257693
0.02709345
0.028146471
0.028627278
0.028377054
0.027040156
0.02450501
0.011315448
0.0096420561
0.011882714
0.015654839
0.017809766
0.018756977
0.018747435
0.017169855
0.012904645
0.0060835905
0.0065508497
0.0005002771
-0.0017055131
0.0017956067
0.0039449864
0.0047347706
0.0042331728
0.00086272642
-0.0068530914
-0.0026596611
0.0023988212
0.00033559956
-0.0012828521
-0.00024840075
0.00043489482
0.0006698307
0.00042948551
-0.0010202666
-0.0041178842
0.0017753536
-0.0028502221
0.0029016008
-0.00081867713
-0.0011274568
-0.00075045141
-0.00015973704
0.00082301439
0.0016897654
-0.00029914571
-0.0023672453
0.0043106494
0.0073579669
0.00081252498
0.00064876862
0.0018029895
0.0035726857
0.0065620114
0.0098931501
0.0071235457
0.0015817719
0.0012606782
-0.0047829082
-0.0054485201
-0.0046398692
-0.0034423311
-0.0017715781
0.00095210881
0.0048132903
0.0069765673
0.0060813767
-0.010608508
-0.010506169
-0.0096180433
-0.0084999802
-0.0072678432
-0.0058097798
-0.0037930249
-0.00092857581
0.0021472415
0.0047163959
-9.9174173e-05
0.0013524055
0.0028247429
0.0042206965
0.0055149434
0.0067777471
0.0081301931
0.0096751202
0.011239259
0.012617623
0.011032739
0.013392938
0.015791761
0.017787378
0.019266579
0.020402627
0.021295259
0.021934718
0.02222637
0.022213256
0.016443368
0.019217622
0.022763832
0.02580249
0.027645036
0.028699863
0.029177127
0.028914775
0.027549964
0.024966703
0.011651313
0.0099680724
0.012212847
0.015992531
0.018153113
0.019101597
0.019084225
0.017474434
0.013124453
0.0061617584
0.0067077437
0.00062222753
-0.0016036345
0.0018903139
0.0040413372
0.0048328164
0.0043198749
0.00088474432
-0.0069928005
-0.0027108538
0.0024340596
0.00036595994
-0.0012604564
-0.0002308338
0.00045231324
0.0006880752
0.00044357006
-0.0010340984
-0.0041982262
0.0018205327
-0.002800913
0.002862636
-0.00079762217
-0.0010983408
-0.00072361226
-0.0001337322
0.00085206244
0.0017253218
-0.00026974538
-0.0023299726
0.0043302385
0.0073351747
0.00089819287
0.00074680178
0.0018956707
0.0036625069
0.0066558707
0.0099964908
0.0072082085
0.0016813369
0.001397232
-0.0045442331
-0.005191141
-0.0043834664
-0.0031892025
-0.0015216678
0.0011995592
0.0050566619
0.0071985464
0.0062896834
-0.010208735
-0.01009772
-0.0092112574
-0.0080957819
-0.0068663173
-0.005411571
-0.003398734
-0.00054067119
0.0025181187
0.0050639657
0.00030925133
0.0017561642
0.0032249565
0.0046179628
0.0059091673
0.0071681704
0.0085162647
0.01005627
0.011613085
0.012983966
0.011431607
0.013795119
0.016191807
0.018183881
0.019659391
0.020790978
0.021678276
0.022311878
0.022597082
0.022579046
0.016821668
0.019610249
0.023155652
0.026188579
0.028026552
0.029076678
0.029547452
0.029274587
0.027890273
0.025274823
0.011915641
0.010232929
0.012467979
0.016231916
0.018384831
0.019328737
0.019303638
0.017671558
0.013263621
0.0062022097
0.0068234712
0.00074052963
-0.0014916826
0.0019735511
0.0041129543
0.0049012471
0.0043801223
0.00090148307
-0.0070892264
-0.0027451608
0.0024543344
0.00039410725
-0.0012302466
-0.00021180143
0.0004669848
0.00070211888
0.00045496077
-0.0010415148
-0.0042526471
0.001854529
-0.0027343759
0.0028059776
-0.00077169152
-0.0010624948
-0.00069235355
-0.00010694474
0.00087581535
0.0017501992
-0.00023872376
-0.002278376
0.0043229449
0.0072669714
0.00097814033
0.00084004825
0.0019764816
0.0037295644
0.0067085109
0.010038016
0.0072482463
0.0017703533
0.0015248878
-0.0042778207
-0.0049020354
-0.004100317
-0.0029166908
-0.0012626558
0.0014393334
0.0052685764
0.0073758619
0.0064589295
-0.0097463692
-0.0096273623
-0.008748028
-0.0076420176
-0.006422806
-0.0049803465
-0.0029838376
-0.00014978273
0.0028731202
0.0053799629
0.00071538416
0.0021487092
0.0036049003
0.0049863704
0.0062665714
0.0075140114
0.008849442
0.01037503
0.011914923
0.013269868
0.011759609
0.014111862
0.016491638
0.018467887
0.019930607
0.021050757
0.021927249
0.022551089
0.022828086
0.02280524
0.017095908
0.019881624
0.02340436
0.026412856
0.028234924
0.029273875
0.029735256
0.029453559
0.028058278
0.025426762
0.012106228
0.010434419
0.012645963
0.016370948
0.018502921
0.019436429
0.019403758
0.017759451
0.013320733
0.0062041375