/*--------------------------------*- C++ -*----------------------------------*\
| =========                 |                                                 |
| \\      /  F ield         | OpenFOAM: The Open Source CFD Toolbox           |
|  \\    /   O peration     | Version:  v2106                                 |
|   \\  /    A nd           | Website:  www.openfoam.com                      |
|    \\/     M anipulation  |                                                 |
\*---------------------------------------------------------------------------*/
FoamFile
{
    version     2.0;
    format      ascii;
    arch        "LSB;label=32;scalar=64";
    class       volVectorField;
    location    "0.2";
    object      U;
}
// * * * * * * * * * * * * * * * * * * * * * * * * * * * * * * * * * * * * * //

dimensions      [0 1 -1 0 0 0 0];

internalField   nonuniform List<vector> 
400
(
(3.86345e-07 0 0)
(1.13517e-06 0 0)
(1.81705e-06 0 0)
(2.40111e-06 0 0)
(2.87222e-06 0 0)
(3.23032e-06 0 0)
(3.48638e-06 0 0)
(3.65705e-06 0 0)
(3.75933e-06 0 0)
(3.80663e-06 0 0)
(3.80621e-06 0 0)
(3.75805e-06 0 0)
(3.65484e-06 0 0)
(3.48318e-06 0 0)
(3.22612e-06 0 0)
(2.86719e-06 0 0)
(2.39562e-06 0 0)
(1.81179e-06 0 0)
(1.13114e-06 0 0)
(3.84681e-07 0 0)
(1.5123e-06 0 0)
(4.44224e-06 0 0)
(7.10699e-06 0 0)
(9.38497e-06 0 0)
(1.12176e-05 0 0)
(1.26063e-05 0 0)
(1.35958e-05 0 0)
(1.42531e-05 0 0)
(1.46458e-05 0 0)
(1.48271e-05 0 0)
(1.48256e-05 0 0)
(1.46413e-05 0 0)
(1.42454e-05 0 0)
(1.35846e-05 0 0)
(1.25915e-05 0 0)
(1.11999e-05 0 0)
(9.36565e-06 0 0)
(7.08849e-06 0 0)
(4.42806e-06 0 0)
(1.5065e-06 0 0)
(3.97421e-06 0 0)
(1.16687e-05 0 0)
(1.86529e-05 0 0)
(2.46042e-05 0 0)
(2.93716e-05 0 0)
(3.29656e-05 0 0)
(3.55125e-05 0 0)
(3.71947e-05 0 0)
(3.81949e-05 0 0)
(3.86552e-05 0 0)
(3.86519e-05 0 0)
(3.8185e-05 0 0)
(3.71775e-05 0 0)
(3.54875e-05 0 0)
(3.29327e-05 0 0)
(2.9332e-05 0 0)
(2.45609e-05 0 0)
(1.86114e-05 0 0)
(1.16369e-05 0 0)
(3.96122e-06 0 0)
(9.75571e-06 0 0)
(2.86284e-05 0 0)
(4.57173e-05 0 0)
(6.02222e-05 0 0)
(7.17819e-05 0 0)
(8.04431e-05 0 0)
(8.65399e-05 0 0)
(9.05398e-05 0 0)
(9.29042e-05 0 0)
(9.39881e-05 0 0)
(9.39816e-05 0 0)
(9.28842e-05 0 0)
(9.05052e-05 0 0)
(8.64893e-05 0 0)
(8.03763e-05 0 0)
(7.17012e-05 0 0)
(6.01338e-05 0 0)
(4.56323e-05 0 0)
(2.85631e-05 0 0)
(9.72903e-06 0 0)
(2.31577e-05 0 0)
(6.79148e-05 0 0)
(0.00010833 0 0)
(0.000142482 0 0)
(0.000169542 0 0)
(0.000189678 0 0)
(0.000203747 0 0)
(0.000212909 0 0)
(0.000218289 0 0)
(0.000220745 0 0)
(0.000220733 0 0)
(0.000218251 0 0)
(0.000212842 0 0)
(0.00020365 0 0)
(0.000189549 0 0)
(0.000169385 0 0)
(0.00014231 0 0)
(0.000108164 0 0)
(6.77871e-05 0 0)
(2.31054e-05 0 0)
(5.33567e-05 0 0)
(0.000156369 0 0)
(0.000249096 0 0)
(0.000327065 0 0)
(0.000388441 0 0)
(0.000433768 0 0)
(0.000465179 0 0)
(0.000485466 0 0)
(0.000497295 0 0)
(0.000502669 0 0)
(0.000502646 0 0)
(0.000497225 0 0)
(0.000485345 0 0)
(0.000465 0 0)
(0.00043353 0 0)
(0.000388151 0 0)
(0.000326745 0 0)
(0.000248787 0 0)
(0.00015613 0 0)
(5.32586e-05 0 0)
(0.000119263 0 0)
(0.000349231 0 0)
(0.000555492 0 0)
(0.000727943 0 0)
(0.000862705 0 0)
(0.00096139 0 0)
(0.00102916 0 0)
(0.00107254 0 0)
(0.00109763 0 0)
(0.00110897 0 0)
(0.00110893 0 0)
(0.00109751 0 0)
(0.00107233 0 0)
(0.00102884 0 0)
(0.000960971 0 0)
(0.000862193 0 0)
(0.000727376 0 0)
(0.000554942 0 0)
(0.000348804 0 0)
(0.000119087 0 0)
(0.000258312 0 0)
(0.000755677 0 0)
(0.00119989 0 0)
(0.00156886 0 0)
(0.00185481 0 0)
(0.00206221 0 0)
(0.00220321 0 0)
(0.00229257 0 0)
(0.00234382 0 0)
(0.00236684 0 0)
(0.00236677 0 0)
(0.00234361 0 0)
(0.00229222 0 0)
(0.00220268 0 0)
(0.00206151 0 0)
(0.00185395 0 0)
(0.00156791 0 0)
(0.00119896 0 0)
(0.000754952 0 0)
(0.000258012 0 0)
(0.000541499 0 0)
(0.0015823 0 0)
(0.00250721 0 0)
(0.00326955 0 0)
(0.00385467 0 0)
(0.00427449 0 0)
(0.00455668 0 0)
(0.00473356 0 0)
(0.00483402 0 0)
(0.00487885 0 0)
(0.00487875 0 0)
(0.0048337 0 0)
(0.004733 0 0)
(0.00455585 0 0)
(0.00427338 0 0)
(0.0038533 0 0)
(0.00326803 0 0)
(0.00250572 0 0)
(0.00158113 0 0)
(0.000541016 0 0)
(0.0010975 0 0)
(0.00320238 0 0)
(0.00506141 0 0)
(0.00657956 0 0)
(0.00773163 0 0)
(0.00854794 0 0)
(0.00908959 0 0)
(0.00942494 0 0)
(0.00961337 0 0)
(0.00969685 0 0)
(0.0096967 0 0)
(0.00961291 0 0)
(0.00942412 0 0)
(0.00908837 0 0)
(0.00854629 0 0)
(0.00772959 0 0)
(0.00657728 0 0)
(0.00505916 0 0)
(0.00320062 0 0)
(0.00109677 0 0)
(0.00214887 0 0)
(0.00625864 0 0)
(0.00986033 0 0)
(0.0127683 0 0)
(0.0149452 0 0)
(0.0164651 0 0)
(0.0174589 0 0)
(0.0180656 0 0)
(0.0184024 0 0)
(0.0185504 0 0)
(0.0185502 0 0)
(0.0184018 0 0)
(0.0180645 0 0)
(0.0174572 0 0)
(0.0164628 0 0)
(0.0149423 0 0)
(0.0127651 0 0)
(0.00985717 0 0)
(0.00625615 0 0)
(0.00214783 0 0)
(0.00406302 0 0)
(0.0118045 0 0)
(0.0185205 0 0)
(0.0238655 0 0)
(0.0278005 0 0)
(0.0305006 0 0)
(0.0322358 0 0)
(0.0332785 0 0)
(0.0338496 0 0)
(0.0340983 0 0)
(0.034098 0 0)
(0.0338488 0 0)
(0.033277 0 0)
(0.0322336 0 0)
(0.0304976 0 0)
(0.0277969 0 0)
(0.0238614 0 0)
(0.0185164 0 0)
(0.0118013 0 0)
(0.00406165 0 0)
(0.00742128 0 0)
(0.0214863 0 0)
(0.0335214 0 0)
(0.0429219 0 0)
(0.0496999 0 0)
(0.0542537 0 0)
(0.0571221 0 0)
(0.0588145 0 0)
(0.0597276 0 0)
(0.0601211 0 0)
(0.0601207 0 0)
(0.0597267 0 0)
(0.0588128 0 0)
(0.0571196 0 0)
(0.0542503 0 0)
(0.0496956 0 0)
(0.042917 0 0)
(0.0335166 0 0)
(0.0214825 0 0)
(0.00741963 0 0)
(0.0131167 0 0)
(0.0377755 0 0)
(0.0584665 0 0)
(0.074227 0 0)
(0.0852925 0 0)
(0.0925378 0 0)
(0.0969943 0 0)
(0.0995693 0 0)
(0.100935 0 0)
(0.101517 0 0)
(0.101516 0 0)
(0.100934 0 0)
(0.0995675 0 0)
(0.0969916 0 0)
(0.0925341 0 0)
(0.0852879 0 0)
(0.0742218 0 0)
(0.0584613 0 0)
(0.0377713 0 0)
(0.0131149 0 0)
(0.0225238 0 0)
(0.0643022 0 0)
(0.0983492 0 0)
(0.123398 0 0)
(0.140386 0 0)
(0.15116 0 0)
(0.157603 0 0)
(0.161237 0 0)
(0.163128 0 0)
(0.163923 0 0)
(0.163923 0 0)
(0.163127 0 0)
(0.161235 0 0)
(0.1576 0 0)
(0.151156 0 0)
(0.140382 0 0)
(0.123393 0 0)
(0.0983444 0 0)
(0.0642983 0 0)
(0.0225221 0 0)
(0.0379001 0 0)
(0.10648 0 0)
(0.159866 0 0)
(0.197248 0 0)
(0.221467 0 0)
(0.236228 0 0)
(0.244765 0 0)
(0.249451 0 0)
(0.251837 0 0)
(0.252827 0 0)
(0.252827 0 0)
(0.251837 0 0)
(0.249449 0 0)
(0.244763 0 0)
(0.236226 0 0)
(0.221464 0 0)
(0.197244 0 0)
(0.159862 0 0)
(0.106477 0 0)
(0.0378988 0 0)
(0.0636022 0 0)
(0.17296 0 0)
(0.251911 0 0)
(0.303355 0 0)
(0.33471 0 0)
(0.352898 0 0)
(0.363013 0 0)
(0.368397 0 0)
(0.371078 0 0)
(0.372174 0 0)
(0.372174 0 0)
(0.371078 0 0)
(0.368397 0 0)
(0.363012 0 0)
(0.352897 0 0)
(0.334708 0 0)
(0.303353 0 0)
(0.251909 0 0)
(0.172958 0 0)
(0.0636016 0 0)
(0.110338 0 0)
(0.279191 0 0)
(0.386359 0 0)
(0.449125 0 0)
(0.484383 0 0)
(0.503632 0 0)
(0.51387 0 0)
(0.519144 0 0)
(0.52171 0 0)
(0.522744 0 0)
(0.522744 0 0)
(0.52171 0 0)
(0.519144 0 0)
(0.51387 0 0)
(0.503632 0 0)
(0.484383 0 0)
(0.449125 0 0)
(0.386359 0 0)
(0.279191 0 0)
(0.110338 0 0)
(0.21171 0 0)
(0.455346 0 0)
(0.578342 0 0)
(0.639653 0 0)
(0.670557 0 0)
(0.686263 0 0)
(0.694229 0 0)
(0.698204 0 0)
(0.700098 0 0)
(0.700851 0 0)
(0.700851 0 0)
(0.700098 0 0)
(0.698205 0 0)
(0.694229 0 0)
(0.686264 0 0)
(0.670558 0 0)
(0.639654 0 0)
(0.578343 0 0)
(0.455347 0 0)
(0.21171 0 0)
(0.494809 0 0)
(0.757841 0 0)
(0.841089 0 0)
(0.872512 0 0)
(0.886089 0 0)
(0.892444 0 0)
(0.895527 0 0)
(0.897027 0 0)
(0.897731 0 0)
(0.898009 0 0)
(0.898009 0 0)
(0.897731 0 0)
(0.897027 0 0)
(0.895527 0 0)
(0.892445 0 0)
(0.886089 0 0)
(0.872513 0 0)
(0.841089 0 0)
(0.757841 0 0)
(0.494809 0 0)
)
;

boundaryField
{
    movingWall
    {
        type            fixedValue;
        value           uniform (1 0 0);
    }
    fixedWalls
    {
        type            noSlip;
    }
    frontAndBack
    {
        type            empty;
    }
}


// ************************************************************************* //
