/*--------------------------------*- C++ -*----------------------------------*\
| =========                 |                                                 |
| \\      /  F ield         | OpenFOAM: The Open Source CFD Toolbox           |
|  \\    /   O peration     | Version:  v2106                                 |
|   \\  /    A nd           | Website:  www.openfoam.com                      |
|    \\/     M anipulation  |                                                 |
\*---------------------------------------------------------------------------*/
FoamFile
{
    version     2.0;
    format      ascii;
    arch        "LSB;label=32;scalar=64";
    class       volVectorField;
    location    "100";
    object      flux;
}
// * * * * * * * * * * * * * * * * * * * * * * * * * * * * * * * * * * * * * //

dimensions      [0 1 -1 1 0 0 0];

internalField   nonuniform List<vector> 
10000
(
(-9.4818006e-09 -9.4818025e-09 0.29981386)
(-2.01548e-08 -8.0569616e-09 0.29981381)
(-9.148252e-09 -7.7435535e-09 0.29981378)
(-4.4761777e-09 -7.6316515e-09 0.29981377)
(-8.7742933e-10 -7.5705107e-09 0.29981377)
(2.180218e-09 -7.5184308e-09 0.29981377)
(4.738655e-09 -7.4514901e-09 0.29981378)
(6.5479583e-09 -7.3332122e-09 0.29981379)
(6.8039157e-09 -7.0721512e-09 0.2998138)
(2.1313269e-09 -6.4155188e-09 0.29981382)
(-8.0569597e-09 -2.0154803e-08 0.29981381)
(-1.7547427e-08 -1.7547424e-08 0.29981376)
(-8.5102869e-09 -1.6788476e-08 0.29981374)
(-4.2166136e-09 -1.6441362e-08 0.29981373)
(-7.0759823e-10 -1.6218544e-08 0.29981372)
(2.3587489e-09 -1.6019015e-08 0.29981373)
(5.0164829e-09 -1.5776641e-08 0.29981373)
(7.1169666e-09 -1.5402122e-08 0.29981375)
(8.1804558e-09 -1.4718734e-08 0.29981376)
(2.7879594e-09 -1.336407e-08 0.29981378)
(-7.7435478e-09 -9.1482548e-09 0.29981378)
(-1.6788474e-08 -8.5102812e-09 0.29981374)
(-8.0421898e-09 -8.0421842e-09 0.29981372)
(-3.9062457e-09 -7.7062509e-09 0.29981371)
(-4.5508273e-10 -7.4356336e-09 0.29981371)
(2.6221215e-09 -7.1779595e-09 0.29981371)
(5.3555482e-09 -6.8883253e-09 0.29981372)
(7.6058655e-09 -6.520105e-09 0.29981373)
(8.8419682e-09 -6.034881e-09 0.29981375)
(3.0344362e-09 -5.4936436e-09 0.29981377)
(-7.6316439e-09 -4.476172e-09 0.29981377)
(-1.6441356e-08 -4.2166164e-09 0.29981373)
(-7.7062566e-09 -3.9062457e-09 0.29981371)
(-3.610063e-09 -3.610063e-09 0.2998137)
(-1.793069e-10 -3.3324426e-09 0.2998137)
(2.9060573e-09 -3.0585568e-09 0.2998137)
(5.6743374e-09 -2.7699912e-09 0.29981371)
(7.9704108e-09 -2.4545784e-09 0.29981372)
(9.2069172e-09 -2.1251196e-09 0.29981374)
(3.1487843e-09 -1.8588622e-09 0.29981376)
(-7.5705107e-09 -8.7742364e-10 0.29981377)
(-1.6218547e-08 -7.0760393e-10 0.29981372)
(-7.4356364e-09 -4.5507988e-10 0.29981371)
(-3.3324426e-09 -1.7930404e-10 0.2998137)
(9.6423475e-11 9.642635e-11 0.29981369)
(3.1845729e-09 3.6967833e-10 0.2998137)
(5.9595265e-09 6.4405867e-10 0.29981371)
(8.250737e-09 9.1629033e-10 0.29981372)
(9.4376844e-09 1.1623513e-09 0.29981374)
(3.2119412e-09 1.3254095e-09 0.29981376)
(-7.5184308e-09 2.1802151e-09 0.29981377)
(-1.6019013e-08 2.3587404e-09 0.29981373)
(-7.1779567e-09 2.6221159e-09 0.29981371)
(-3.0585568e-09 2.9060573e-09 0.2998137)
(3.6967547e-10 3.1845701e-09 0.2998137)
(3.4536896e-09 3.4536924e-09 0.2998137)
(6.2209494e-09 3.7154479e-09 0.29981371)
(8.4887034e-09 3.9651695e-09 0.29981372)
(9.6160363e-09 4.1803446e-09 0.29981374)
(3.2574898e-09 4.3146855e-09 0.29981377)
(-7.4514939e-09 4.7386521e-09 0.29981378)
(-1.5776646e-08 5.0164743e-09 0.29981373)
(-6.8883196e-09 5.3555397e-09 0.29981372)
(-2.7699883e-09 5.6743346e-09 0.29981371)
(6.4405866e-10 5.9595237e-09 0.29981371)
(3.7154507e-09 6.2209437e-09 0.29981371)
(6.4710036e-09 6.4710065e-09 0.29981372)
(8.7156337e-09 6.7139666e-09 0.29981374)
(9.7872004e-09 6.9345987e-09 0.29981376)
(3.3015018e-09 7.0837899e-09 0.29981378)
(-7.333216e-09 6.5479554e-09 0.29981379)
(-1.5402125e-08 7.1169694e-09 0.29981375)
(-6.5200965e-09 7.6058711e-09 0.29981373)
(-2.4545727e-09 7.9704108e-09 0.29981372)
(9.1628465e-10 8.2507341e-09 0.29981372)
(3.9651724e-09 8.4887091e-09 0.29981372)
(6.7139723e-09 8.7156394e-09 0.29981374)
(8.9522956e-09 8.9522985e-09 0.29981375)
(9.9858596e-09 9.2004655e-09 0.29981377)
(3.3569506e-09 9.4076824e-09 0.29981379)
(-7.0721512e-09 6.8039157e-09 0.2998138)
(-1.4718731e-08 8.1804615e-09 0.29981376)
(-6.0348782e-09 8.8419739e-09 0.29981375)
(-2.1251253e-09 9.2069144e-09 0.29981374)
(1.162357e-09 9.4376759e-09 0.29981374)
(4.180356e-09 9.6160448e-09 0.29981374)
(6.934593e-09 9.7872004e-09 0.29981376)
(9.2004598e-09 9.9858625e-09 0.29981377)
(1.0242584e-08 1.0242587e-08 0.29981379)
(3.4396464e-09 1.0539745e-08 0.29981382)
(-6.4155188e-09 2.1313269e-09 0.29981382)
(-1.3364067e-08 2.7879594e-09 0.29981378)
(-5.4936436e-09 3.0344362e-09 0.29981377)
(-1.8588707e-09 3.1487825e-09 0.29981376)
(1.3254151e-09 3.2119393e-09 0.29981376)
(4.3146969e-09 3.2574879e-09 0.29981377)
(7.0837899e-09 3.3014999e-09 0.29981378)
(9.4076825e-09 3.3569525e-09 0.29981379)
(1.0539742e-08 3.4396483e-09 0.29981382)
(3.5550556e-09 3.5550575e-09 0.29981384)
(-2.5871759e-08 -2.5871763e-08 0.29981402)
(-5.5324512e-08 -2.1627428e-08 0.29981398)
(-2.567574e-08 -2.0736826e-08 0.29981396)
(-1.2718238e-08 -2.0423479e-08 0.29981395)
(-2.2616177e-09 -2.0245917e-08 0.29981394)
(6.8613162e-09 -2.0090719e-08 0.29981395)
(1.468531e-08 -1.9887913e-08 0.29981395)
(2.0624555e-08 -1.9520473e-08 0.29981397)
(2.289334e-08 -1.8663729e-08 0.29981398)
(7.5936877e-09 -1.6231868e-08 0.299814)
(-2.1627424e-08 -5.532452e-08 0.29981398)
(-4.7622106e-08 -4.7622112e-08 0.29981394)
(-2.3869816e-08 -4.5487721e-08 0.29981392)
(-1.1981874e-08 -4.4504293e-08 0.29981391)
(-1.7624785e-09 -4.3852148e-08 0.29981391)
(7.3983216e-09 -4.3256961e-08 0.29981391)
(1.5540678e-08 -4.2525644e-08 0.29981392)
(2.246083e-08 -4.1377041e-08 0.29981393)
(2.7826249e-08 -3.9201308e-08 0.29981395)
(1.002555e-08 -3.4465845e-08 0.29981398)
(-2.073682e-08 -2.5675735e-08 0.29981396)
(-4.5487712e-08 -2.3869813e-08 0.29981392)
(-2.2557921e-08 -2.2557916e-08 0.29981391)
(-1.1082665e-08 -2.158535e-08 0.2998139)
(-1.0142855e-09 -2.0785274e-08 0.29981389)
(8.1878199e-09 -2.0015418e-08 0.2998139)
(1.656523e-08 -1.9144963e-08 0.29981391)
(2.3948891e-08 -1.8032389e-08 0.29981392)
(2.9804536e-08 -1.6558522e-08 0.29981394)
(1.0750663e-08 -1.49545e-08 0.29981397)
(-2.0423477e-08 -1.2718229e-08 0.29981395)
(-4.4504287e-08 -1.1981879e-08 0.29981391)
(-2.1585353e-08 -1.1082665e-08 0.2998139)
(-1.0209232e-08 -1.0209223e-08 0.29981389)
(-1.9254571e-10 -9.3825946e-09 0.29981388)
(9.0386323e-09 -8.5628557e-09 0.29981389)
(1.7523706e-08 -7.696454e-09 0.2998139)
(2.5047271e-08 -6.747365e-09 0.29981391)
(3.0904138e-08 -5.7546231e-09 0.29981393)
(1.1094897e-08 -4.9524914e-09 0.29981396)
(-2.024592e-08 -2.2616206e-09 0.29981394)
(-4.3852148e-08 -1.7624785e-09 0.29981391)
(-2.0785265e-08 -1.0142884e-09 0.29981389)
(-9.3825946e-09 -1.9254568e-10 0.29981388)
(6.3208176e-10 6.3208745e-10 0.29981388)
(9.8739604e-09 1.451474e-09 0.29981389)
(1.838072e-08 2.2760247e-09 0.2998139)
(2.5890722e-08 3.0957353e-09 0.29981391)
(3.159941e-08 3.8379767e-09 0.29981393)
(1.1285418e-08 4.3310536e-09 0.29981396)
(-2.0090715e-08 6.8613105e-09 0.29981395)
(-4.3256955e-08 7.3983216e-09 0.29981391)
(-2.001542e-08 8.1878198e-09 0.2998139)
(-8.5628557e-09 9.0386209e-09 0.29981389)
(1.4514739e-09 9.8739548e-09 0.29981389)
(1.068257e-08 1.0682564e-08 0.29981389)
(1.9167967e-08 1.1471255e-08 0.2998139)
(2.6609223e-08 1.2226897e-08 0.29981392)
(3.2139457e-08 1.2882168e-08 0.29981394)
(1.1423615e-08 1.3294962e-08 0.29981397)
(-1.9887913e-08 1.4685307e-08 0.29981395)
(-4.2525639e-08 1.5540664e-08 0.29981392)
(-1.9144966e-08 1.6565221e-08 0.29981391)
(-7.6964596e-09 1.7523698e-08 0.2998139)
(2.2760247e-09 1.8380715e-08 0.2998139)
(1.1471261e-08 1.9167959e-08 0.2998139)
(1.9925054e-08 1.9925042e-08 0.29981391)
(2.7301635e-08 2.0668475e-08 0.29981393)
(3.2667475e-08 2.1357067e-08 0.29981395)
(1.1560614e-08 2.1839315e-08 0.29981398)
(-1.9520477e-08 2.0624554e-08 0.29981397)
(-4.1377041e-08 2.2460833e-08 0.29981393)
(-1.8032387e-08 2.3948883e-08 0.29981392)
(-6.7473621e-09 2.5047277e-08 0.29981391)
(3.0957353e-09 2.5890722e-08 0.29981391)
(1.2226897e-08 2.6609229e-08 0.29981392)
(2.0668483e-08 2.730163e-08 0.29981393)
(2.8041248e-08 2.8041242e-08 0.29981395)
(3.3310297e-08 2.8856971e-08 0.29981397)
(1.1745114e-08 2.9613133e-08 0.299814)
(-1.8663728e-08 2.2893334e-08 0.29981398)
(-3.9201311e-08 2.7826258e-08 0.29981395)
(-1.6558522e-08 2.9804542e-08 0.29981394)
(-5.7546203e-09 3.0904141e-08 0.29981393)
(3.8379767e-09 3.1599404e-08 0.29981393)
(1.2882168e-08 3.2139462e-08 0.29981394)
(2.1357067e-08 3.2667478e-08 0.29981395)
(2.8856977e-08 3.3310292e-08 0.29981397)
(3.4239366e-08 3.4239358e-08 0.29981399)
(1.2064722e-08 3.5682905e-08 0.29981402)
(-1.6231862e-08 7.5936839e-09 0.299814)
(-3.4465833e-08 1.002555e-08 0.29981398)
(-1.4954503e-08 1.0750669e-08 0.29981397)
(-4.9525e-09 1.1094896e-08 0.29981396)
(4.3310564e-09 1.1285416e-08 0.29981396)
(1.3294971e-08 1.1423615e-08 0.29981397)
(2.1839313e-08 1.1560617e-08 0.29981398)
(2.9613128e-08 1.1745112e-08 0.299814)
(3.568291e-08 1.2064718e-08 0.29981402)
(1.2707479e-08 1.2707475e-08 0.29981405)
(-3.920891e-08 -3.9208917e-08 0.29981435)
(-8.4352894e-08 -3.2686097e-08 0.29981431)
(-3.9874456e-08 -3.1331052e-08 0.29981429)
(-1.9736157e-08 -3.0843811e-08 0.29981428)
(-2.8298787e-09 -3.0557828e-08 0.29981428)
(1.230203e-08 -3.03014e-08 0.29981428)
(2.5654182e-08 -2.9960944e-08 0.29981429)
(3.6523431e-08 -2.933532e-08 0.29981431)
(4.2883085e-08 -2.7852347e-08 0.29981432)
(1.4855438e-08 -2.3568602e-08 0.29981435)
(-3.2686089e-08 -8.4352891e-08 0.29981431)
(-7.2536096e-08 -7.2536108e-08 0.29981428)
(-3.7111027e-08 -6.9271394e-08 0.29981426)
(-1.8576321e-08 -6.7724326e-08 0.29981425)
(-2.0162616e-09 -6.6666854e-08 0.29981425)
(1.3197356e-08 -6.5682508e-08 0.29981425)
(2.7103303e-08 -6.445845e-08 0.29981426)
(3.9686327e-08 -6.2516378e-08 0.29981428)
(5.1533161e-08 -5.8794001e-08 0.2998143)
(1.9139183e-08 -5.0584995e-08 0.29981433)
(-3.1331054e-08 -3.9874442e-08 0.29981429)
(-6.9271397e-08 -3.7111027e-08 0.29981426)
(-3.5062675e-08 -3.5062675e-08 0.29981425)
(-1.7131617e-08 -3.3501965e-08 0.29981424)
(-7.8806011e-10 -3.2192361e-08 0.29981424)
(1.4510434e-08 -3.0916823e-08 0.29981424)
(2.8820313e-08 -2.9464243e-08 0.29981425)
(4.2187881e-08 -2.7599466e-08 0.29981426)
(5.4814467e-08 -2.5127633e-08 0.29981429)
(2.0328109e-08 -2.2493737e-08 0.29981432)
(-3.0843813e-08 -1.973616e-08 0.29981428)
(-6.7724329e-08 -1.8576319e-08 0.29981425)
(-3.3501965e-08 -1.713162e-08 0.29981424)
(-1.5706007e-08 -1.5706002e-08 0.29981423)
(5.6888028e-10 -1.4342393e-08 0.29981423)
(1.5925474e-08 -1.2980914e-08 0.29981423)
(3.042066e-08 -1.1535772e-08 0.29981424)
(4.4022937e-08 -9.9490421e-09 0.29981426)
(5.6638891e-08 -8.2904535e-09 0.29981428)
(2.0895114e-08 -6.9641459e-09 0.29981431)
(-3.0557826e-08 -2.8298786e-09 0.29981428)
(-6.6666857e-08 -2.0162617e-09 0.29981425)
(-3.2192358e-08 -7.8806295e-10 0.29981424)
(-1.434239e-08 5.6888041e-10 0.29981423)
(1.9370276e-09 1.9370388e-09 0.29981423)
(1.7317055e-08 3.3017842e-09 0.29981423)
(3.1852184e-08 4.679717e-09 0.29981424)
(4.54332e-08 6.0533238e-09 0.29981426)
(5.7799363e-08 7.2991269e-09 0.29981428)
(2.1212314e-08 8.1255421e-09 0.29981431)
(-3.0301402e-08 1.2302027e-08 0.29981428)
(-6.5682514e-08 1.3197348e-08 0.29981425)
(-3.0916823e-08 1.4510431e-08 0.29981424)
(-1.2980905e-08 1.5925463e-08 0.29981423)
(3.301784e-09 1.7317055e-08 0.29981423)
(1.8668152e-08 1.8668158e-08 0.29981424)
(3.3172199e-08 1.9991836e-08 0.29981425)
(4.6642347e-08 2.1268102e-08 0.29981427)
(5.8711109e-08 2.2384629e-08 0.29981429)
(2.1446057e-08 2.3096038e-08 0.29981432)
(-2.9960946e-08 2.5654174e-08 0.29981429)
(-6.4458453e-08 2.7103294e-08 0.29981426)
(-2.9464243e-08 2.8820307e-08 0.29981425)
(-1.1535766e-08 3.0420651e-08 0.29981424)
(4.6797225e-09 3.1852176e-08 0.29981424)
(1.9991836e-08 3.3172202e-08 0.29981425)
(3.4452128e-08 3.4452128e-08 0.29981426)
(4.7825992e-08 3.5728158e-08 0.29981428)
(5.96273e-08 3.6941699e-08 0.2998143)
(2.1686587e-08 3.7829665e-08 0.29981433)
(-2.9335322e-08 3.6523423e-08 0.29981431)
(-6.2516381e-08 3.9686324e-08 0.29981428)
(-2.7599466e-08 4.2187881e-08 0.29981426)
(-9.9490365e-09 4.4022934e-08 0.29981426)
(6.0533353e-09 4.5433197e-08 0.29981426)
(2.1268104e-08 4.664235e-08 0.29981427)
(3.5728155e-08 4.7825992e-08 0.29981428)
(4.9131918e-08 4.9131913e-08 0.2998143)
(6.0812616e-08 5.0663982e-08 0.29981432)
(2.2038034e-08 5.2254282e-08 0.29981435)
(-2.7852345e-08 4.2883079e-08 0.29981432)
(-5.8793995e-08 5.1533161e-08 0.2998143)
(-2.5127633e-08 5.4814467e-08 0.29981429)
(-8.2904506e-09 5.6638891e-08 0.29981428)
(7.2991384e-09 5.7799358e-08 0.29981428)
(2.2384631e-08 5.8711103e-08 0.29981429)
(3.6941691e-08 5.9627294e-08 0.2998143)
(5.0663982e-08 6.0812607e-08 0.29981432)
(6.2749669e-08 6.2749655e-08 0.29981435)
(2.2746786e-08 6.660016e-08 0.29981438)
(-2.35686e-08 1.4855438e-08 0.29981435)
(-5.0584993e-08 1.9139183e-08 0.29981433)
(-2.2493737e-08 2.0328107e-08 0.29981432)
(-6.9641458e-09 2.0895114e-08 0.29981431)
(8.1255479e-09 2.121231e-08 0.29981431)
(2.3096041e-08 2.1446054e-08 0.29981432)
(3.7829659e-08 2.1686583e-08 0.29981433)
(5.2254279e-08 2.2038032e-08 0.29981435)
(6.6600168e-08 2.2746781e-08 0.29981438)
(2.4605038e-08 2.4605032e-08 0.29981442)
(-5.1481923e-08 -5.1481927e-08 0.29981486)
(-1.108045e-07 -4.288014e-08 0.29981482)
(-5.2416098e-08 -4.1107929e-08 0.29981481)
(-2.557872e-08 -4.0461703e-08 0.2998148)
(-2.4721063e-09 -4.0072844e-08 0.2998148)
(1.8620415e-08 -3.9716855e-08 0.2998148)
(3.7641419e-08 -3.9237744e-08 0.29981481)
(5.3744964e-08 -3.8348501e-08 0.29981482)
(6.4390659e-08 -3.6221062e-08 0.29981484)
(2.262589e-08 -3.0020283e-08 0.29981487)
(-4.2880136e-08 -1.108045e-07 0.29981482)
(-9.5243507e-08 -9.5243507e-08 0.29981479)
(-4.8788442e-08 -9.0958934e-08 0.29981478)
(-2.4026093e-08 -8.8891392e-08 0.29981477)
(-1.3548345e-09 -8.744662e-08 0.29981477)
(1.9873065e-08 -8.6079186e-08 0.29981477)
(3.969395e-08 -8.4360539e-08 0.29981478)
(5.8269987e-08 -8.1613135e-08 0.2998148)
(7.6882986e-08 -7.6311184e-08 0.29981482)
(2.8826669e-08 -6.4538503e-08 0.29981485)
(-4.1107925e-08 -5.2416101e-08 0.29981481)
(-9.0958935e-08 -4.8788442e-08 0.29981478)
(-4.6063982e-08 -4.6063974e-08 0.29981476)
(-2.2066405e-08 -4.3949575e-08 0.29981476)
(3.4009986e-10 -4.2147462e-08 0.29981475)
(2.1706495e-08 -4.0372808e-08 0.29981476)
(4.210747e-08 -3.8337959e-08 0.29981477)
(6.1794319e-08 -3.5715937e-08 0.29981479)
(8.1465291e-08 -3.224024e-08 0.29981481)
(3.0474344e-08 -2.8590915e-08 0.29981484)
(-4.0461697e-08 -2.557872e-08 0.2998148)
(-8.889138e-08 -2.4026096e-08 0.29981477)
(-4.3949575e-08 -2.2066402e-08 0.29981476)
(-2.0109581e-08 -2.0109579e-08 0.29981475)
(2.2219325e-09 -1.8220496e-08 0.29981475)
(2.3682568e-08 -1.6321749e-08 0.29981475)
(4.4350821e-08 -1.4297464e-08 0.29981476)
(6.4367705e-08 -1.2069933e-08 0.29981478)
(8.4008008e-08 -9.7436271e-09 0.29981481)
(3.1259553e-08 -7.9008205e-09 0.29981484)
(-4.0072843e-08 -2.4721032e-09 0.2998148)
(-8.7446617e-08 -1.3548402e-09 0.29981477)
(-4.2147465e-08 3.4009715e-10 0.29981475)
(-1.8220499e-08 2.2219297e-09 0.29981475)
(4.1279294e-09 4.1279321e-09 0.29981475)
(2.5629527e-08 6.0370326e-09 0.29981475)
(4.6359287e-08 7.9714965e-09 0.29981477)
(6.6348156e-08 9.9052642e-09 0.29981478)
(8.5634403e-08 1.1661405e-08 0.29981481)
(3.1702882e-08 1.2823986e-08 0.29981484)
(-3.9716855e-08 1.8620412e-08 0.2998148)
(-8.607918e-08 1.9873062e-08 0.29981477)
(-4.0372805e-08 2.1706492e-08 0.29981476)
(-1.6321747e-08 2.3682563e-08 0.29981475)
(6.0370353e-09 2.5629529e-08 0.29981475)
(2.7526133e-08 2.7526139e-08 0.29981476)
(4.8219053e-08 2.939295e-08 0.29981477)
(6.8057614e-08 3.1203757e-08 0.29981479)
(8.692673e-08 3.2799511e-08 0.29981482)
(3.2034607e-08 3.3824259e-08 0.29981485)
(-3.9237743e-08 3.7641414e-08 0.29981481)
(-8.4360536e-08 3.9693944e-08 0.29981478)
(-3.8337964e-08 4.2107459e-08 0.29981477)
(-1.4297461e-08 4.435081e-08 0.29981476)
(7.9715051e-09 4.6359276e-08 0.29981477)
(2.9392947e-08 4.8219053e-08 0.29981477)
(5.0036905e-08 5.0036908e-08 0.29981478)
(6.9754716e-08 5.1872758e-08 0.2998148)
(8.8254904e-08 5.3651698e-08 0.29981483)
(3.2386047e-08 5.4985278e-08 0.29981486)
(-3.8348501e-08 5.3744952e-08 0.29981482)
(-8.1613135e-08 5.8269975e-08 0.2998148)
(-3.5715939e-08 6.1794307e-08 0.29981479)
(-1.206993e-08 6.43677e-08 0.29981478)
(9.9052784e-09 6.6348147e-08 0.29981478)
(3.1203766e-08 6.8057611e-08 0.29981479)
(5.1872758e-08 6.9754719e-08 0.2998148)
(7.1672403e-08 7.1672409e-08 0.29981482)
(9.0039251e-08 7.4000948e-08 0.29981485)
(3.2923661e-08 7.6521289e-08 0.29981488)
(-3.622106e-08 6.4390653e-08 0.29981484)
(-7.6311181e-08 7.6882986e-08 0.29981482)
(-3.224024e-08 8.1465293e-08 0.29981481)
(-9.7436214e-09 8.4008016e-08 0.29981481)
(1.1661416e-08 8.5634411e-08 0.29981481)
(3.279952e-08 8.692673e-08 0.29981482)
(5.3651704e-08 8.8254902e-08 0.29981483)
(7.4000946e-08 9.0039253e-08 0.29981485)
(9.3103784e-08 9.3103787e-08 0.29981488)
(3.4066274e-08 9.9509995e-08 0.29981491)
(-3.0020279e-08 2.2625888e-08 0.29981487)
(-6.4538494e-08 2.882667e-08 0.29981485)
(-2.859091e-08 3.0474346e-08 0.29981484)
(-7.9008118e-09 3.1259556e-08 0.29981484)
(1.2823992e-08 3.1702886e-08 0.29981484)
(3.3824256e-08 3.2034607e-08 0.29981485)
(5.4985281e-08 3.2386043e-08 0.29981486)
(7.6521289e-08 3.2923659e-08 0.29981488)
(9.9509992e-08 3.4066272e-08 0.29981491)
(3.7194466e-08 3.7194464e-08 0.29981495)
(-6.3358306e-08 -6.3358308e-08 0.29981555)
(-1.3607318e-07 -5.2722036e-08 0.29981551)
(-6.3850683e-08 -5.0547576e-08 0.2998155)
(-3.0457616e-08 -4.974922e-08 0.29981549)
(-1.2664485e-09 -4.9260765e-08 0.29981549)
(2.5746084e-08 -4.8806481e-08 0.29981549)
(5.0469296e-08 -4.8188575e-08 0.2998155)
(7.1862007e-08 -4.7033924e-08 0.29981552)
(8.6717921e-08 -4.4257447e-08 0.29981554)
(3.0636888e-08 -3.6131955e-08 0.29981556)
(-5.2722034e-08 -1.3607318e-07 0.29981551)
(-1.1685708e-07 -1.1685708e-07 0.29981548)
(-5.9391459e-08 -1.1159285e-07 0.29981547)
(-2.8527398e-08 -1.0902673e-07 0.29981546)
(1.4765931e-10 -1.0720603e-07 0.29981546)
(2.7354369e-08 -1.054603e-07 0.29981546)
(5.3128133e-08 -1.0324735e-07 0.29981548)
(7.7758699e-08 -9.9690845e-08 0.29981549)
(1.0307087e-07 -9.2801511e-08 0.29981551)
(3.876238e-08 -7.745949e-08 0.29981554)
(-5.0547569e-08 -6.385068e-08 0.2998155)
(-1.1159285e-07 -5.939145e-08 0.29981547)
(-5.602034e-08 -5.6020335e-08 0.29981546)
(-2.6070793e-08 -5.3372753e-08 0.29981545)
(2.299987e-09 -5.1089975e-08 0.29981545)
(2.9704759e-08 -4.8821695e-08 0.29981545)
(5.623875e-08 -4.620573e-08 0.29981546)
(8.2307849e-08 -4.2825044e-08 0.29981548)
(1.0894928e-07 -3.8344802e-08 0.29981551)
(4.0864902e-08 -3.3689275e-08 0.29981554)
(-4.9749214e-08 -3.0457622e-08 0.29981549)
(-1.0902674e-07 -2.8527402e-08 0.29981546)
(-5.3372762e-08 -2.6070788e-08 0.29981545)
(-2.3597039e-08 -2.3597042e-08 0.29981544)
(4.6987168e-09 -2.1191289e-08 0.29981544)
(3.2238614e-08 -1.8759334e-08 0.29981545)
(5.9124784e-08 -1.6156403e-08 0.29981546)
(8.5619626e-08 -1.3286666e-08 0.29981548)
(1.1220664e-07 -1.0291987e-08 0.2998155)
(4.1866065e-08 -7.9363872e-09 0.29981554)
(-4.9260755e-08 -1.2664601e-09 0.29981549)
(-1.0720601e-07 1.4764212e-10 0.29981546)
(-5.1089981e-08 2.299987e-09 0.29981545)
(-2.1191295e-08 4.6987111e-09 0.29981544)
(7.1376945e-09 7.1376974e-09 0.29981544)
(3.4739645e-08 9.5898174e-09 0.29981545)
(6.1711418e-08 1.2082711e-08 0.29981546)
(8.8172266e-08 1.458078e-08 0.29981548)
(1.1429956e-07 1.6851567e-08 0.29981551)
(4.2435302e-08 1.8352145e-08 0.29981554)
(-4.8806479e-08 2.5746087e-08 0.29981549)
(-1.0546029e-07 2.7354361e-08 0.29981546)
(-4.8821693e-08 2.9704748e-08 0.29981545)
(-1.8759329e-08 3.2238609e-08 0.29981545)
(9.5898231e-09 3.4739645e-08 0.29981545)
(3.7183628e-08 3.7183637e-08 0.29981546)
(6.4115747e-08 3.959926e-08 0.29981547)
(9.0388482e-08 4.1953842e-08 0.29981549)
(1.1597801e-07 4.4039581e-08 0.29981551)
(4.286645e-08 4.5385326e-08 0.29981555)
(-4.8188572e-08 5.0469299e-08 0.2998155)
(-1.0324735e-07 5.3128142e-08 0.29981548)
(-4.6205733e-08 5.6238736e-08 0.29981546)
(-1.6156397e-08 5.9124784e-08 0.29981546)
(1.2082722e-08 6.1711407e-08 0.29981546)
(3.959926e-08 6.4115747e-08 0.29981547)
(6.6481624e-08 6.6481627e-08 0.29981548)
(9.2612586e-08 6.8893604e-08 0.2998155)
(1.1773104e-07 7.1258347e-08 0.29981553)
(4.3332466e-08 7.3053289e-08 0.29981556)
(-4.7033918e-08 7.1861996e-08 0.29981552)
(-9.9690854e-08 7.7758693e-08 0.29981549)
(-4.282505e-08 8.2307841e-08 0.29981548)
(-1.3286657e-08 8.5619618e-08 0.29981548)
(1.4580786e-08 8.8172251e-08 0.29981548)
(4.1953848e-08 9.0388471e-08 0.29981549)
(6.8893604e-08 9.2612584e-08 0.2998155)
(9.5165203e-08 9.51652e-08 0.29981552)
(1.2013769e-07 9.8320854e-08 0.29981555)
(4.4063078e-08 1.0179266e-07 0.29981558)
(-4.4257441e-08 8.671791e-08 0.29981554)
(-9.2801508e-08 1.0307085e-07 0.29981551)
(-3.8344808e-08 1.0894927e-07 0.29981551)
(-1.0291987e-08 1.1220663e-07 0.2998155)
(1.6851576e-08 1.1429956e-07 0.29981551)
(4.4039592e-08 1.1597801e-07 0.29981551)
(7.1258353e-08 1.1773104e-07 0.29981553)
(9.8320856e-08 1.201377e-07 0.29981555)
(1.243585e-07 1.243585e-07 0.29981558)
(4.5647007e-08 1.3330335e-07 0.29981561)
(-3.6131954e-08 3.0636886e-08 0.29981556)
(-7.7459489e-08 3.8762373e-08 0.29981554)
(-3.3689273e-08 4.0864899e-08 0.29981554)
(-7.9363701e-09 4.1866063e-08 0.29981554)
(1.8352159e-08 4.243531e-08 0.29981554)
(4.5385323e-08 4.2866452e-08 0.29981555)
(7.3053295e-08 4.3332464e-08 0.29981556)
(1.0179267e-07 4.406308e-08 0.29981558)
(1.3330335e-07 4.5647005e-08 0.29981561)
(5.0026313e-08 5.0026311e-08 0.29981565)
(-7.5016102e-08 -7.5016104e-08 0.29981641)
(-1.6063395e-07 -6.2361541e-08 0.29981637)
(-7.4519835e-08 -5.9790938e-08 0.29981636)
(-3.4588905e-08 -5.8843851e-08 0.29981635)
(6.4034951e-10 -5.8257721e-08 0.29981635)
(3.3535722e-08 -5.7706132e-08 0.29981636)
(6.3934999e-08 -5.694983e-08 0.29981637)
(9.0567792e-08 -5.5529942e-08 0.29981638)
(1.0949381e-07 -5.2105399e-08 0.29981641)
(3.8763001e-08 -4.2061617e-08 0.29981643)
(-6.2361539e-08 -1.6063395e-07 0.29981637)
(-1.377962e-07 -1.377962e-07 0.29981634)
(-6.9243299e-08 -1.315701e-07 0.29981633)
(-3.228908e-08 -1.2851701e-07 0.29981633)
(2.3469283e-09 -1.2632736e-07 0.29981633)
(3.5497558e-08 -1.2420709e-07 0.29981633)
(6.7199284e-08 -1.2150156e-07 0.29981634)
(9.7834439e-08 -1.171369e-07 0.29981636)
(1.2969629e-07 -1.0866315e-07 0.29981638)
(4.8806783e-08 -8.9765649e-08 0.29981641)
(-5.9790932e-08 -7.4519835e-08 0.29981636)
(-1.315701e-07 -6.9243305e-08 0.29981633)
(-6.524065e-08 -6.5240655e-08 0.29981632)
(-2.9346157e-08 -6.2071862e-08 0.29981631)
(4.9502687e-09 -5.931632e-08 0.29981631)
(3.8361514e-08 -5.6558875e-08 0.29981632)
(7.1005192e-08 -5.3363959e-08 0.29981633)
(1.034062e-07 -4.9225869e-08 0.29981635)
(1.3686505e-07 -4.3743569e-08 0.29981637)
(5.1361335e-08 -3.8088012e-08 0.29981641)
(-5.8843852e-08 -3.4588902e-08 0.29981635)
(-1.2851702e-07 -3.2289086e-08 0.29981633)
(-6.2071856e-08 -2.934616e-08 0.29981631)
(-2.6364745e-08 -2.6364753e-08 0.29981631)
(7.8599157e-09 -2.3448831e-08 0.29981631)
(4.144992e-08 -2.0487269e-08 0.29981632)
(7.4532289e-08 -1.7307138e-08 0.29981633)
(1.0745483e-07 -1.3795582e-08 0.29981635)
(1.4083415e-07 -1.0133362e-08 0.29981637)
(5.2577154e-08 -7.2672292e-09 0.2998164)
(-5.8257721e-08 6.4035235e-10 0.29981635)
(-1.2632736e-07 2.3469283e-09 0.29981633)
(-5.9316318e-08 4.9502713e-09 0.29981631)
(-2.3448828e-08 7.8599101e-09 0.29981631)
(1.0827753e-08 1.0827753e-08 0.29981631)
(4.4503207e-08 1.3821091e-08 0.29981632)
(7.7696879e-08 1.6872733e-08 0.29981633)
(1.1057998e-07 1.9936752e-08 0.29981635)
(1.4339341e-07 2.2723938e-08 0.29981638)
(5.3272091e-08 2.456315e-08 0.29981641)
(-5.7706135e-08 3.3535727e-08 0.29981636)
(-1.242071e-07 3.5497558e-08 0.29981633)
(-5.6558875e-08 3.8361509e-08 0.29981632)
(-2.0487263e-08 4.1449917e-08 0.29981632)
(1.3821096e-08 4.450321e-08 0.29981632)
(4.7494899e-08 4.7494896e-08 0.29981632)
(8.0647951e-08 5.0462034e-08 0.29981634)
(1.1330603e-07 5.3364994e-08 0.29981636)
(1.4546055e-07 5.5945731e-08 0.29981638)
(5.3803295e-08 5.7615648e-08 0.29981642)
(-5.6949833e-08 6.3934996e-08 0.29981637)
(-1.2150157e-07 6.7199284e-08 0.29981634)
(-5.3363959e-08 7.1005187e-08 0.29981633)
(-1.7307127e-08 7.4532289e-08 0.29981633)
(1.6872733e-08 7.7696876e-08 0.29981633)
(5.0462031e-08 8.064795e-08 0.29981634)
(8.3566977e-08 8.3566976e-08 0.29981635)
(1.1606368e-07 8.6562864e-08 0.29981637)
(1.4764406e-07 8.9521848e-08 0.2998164)
(5.4385369e-08 9.1783414e-08 0.29981643)
(-5.5529943e-08 9.0567784e-08 0.29981638)
(-1.1713691e-07 9.7834433e-08 0.29981636)
(-4.9225869e-08 1.0340621e-07 0.29981635)
(-1.3795574e-08 1.0745482e-07 0.29981635)
(1.9936758e-08 1.1057998e-07 0.29981635)
(5.3365e-08 1.1330604e-07 0.29981636)
(8.6562864e-08 1.1606368e-07 0.29981637)
(1.1926091e-07 1.1926091e-07 0.29981639)
(1.506811e-07 1.2325355e-07 0.29981642)
(5.5311006e-08 1.2768037e-07 0.29981646)
(-5.2105401e-08 1.0949379e-07 0.29981641)
(-1.0866315e-07 1.2969628e-07 0.29981638)
(-4.3743569e-08 1.3686505e-07 0.29981637)
(-1.013336e-08 1.4083414e-07 0.29981637)
(2.272395e-08 1.433934e-07 0.29981638)
(5.5945734e-08 1.4546055e-07 0.29981638)
(8.9521848e-08 1.4764406e-07 0.2998164)
(1.2325355e-07 1.506811e-07 0.29981642)
(1.5606352e-07 1.5606352e-07 0.29981645)
(5.7336577e-08 1.6753339e-07 0.29981649)
(-4.2061619e-08 3.8762996e-08 0.29981643)
(-8.9765655e-08 4.8806777e-08 0.29981641)
(-3.8088012e-08 5.1361326e-08 0.29981641)
(-7.267221e-09 5.2577148e-08 0.2998164)
(2.4563167e-08 5.3272085e-08 0.29981641)
(5.761566e-08 5.3803293e-08 0.29981642)
(9.1783417e-08 5.4385369e-08 0.29981643)
(1.2768037e-07 5.5311006e-08 0.29981646)
(1.6753338e-07 5.7336581e-08 0.29981649)
(6.295758e-08 6.2957584e-08 0.29981652)
(-8.6513472e-08 -8.6513476e-08 0.29981744)
(-1.8468684e-07 -7.1853795e-08 0.29981741)
(-8.4634391e-08 -6.8890875e-08 0.2998174)
(-3.8150128e-08 -6.7797102e-08 0.29981739)
(3.0963378e-09 -6.7114564e-08 0.29981739)
(4.1836512e-08 -6.6466506e-08 0.2998174)
(7.7858828e-08 -6.5572484e-08 0.29981741)
(1.0964774e-07 -6.3888403e-08 0.29981742)
(1.3250335e-07 -5.9818617e-08 0.29981745)
(4.6937754e-08 -4.7865945e-08 0.29981747)
(-7.1853791e-08 -1.8468685e-07 0.29981741)
(-1.5825294e-07 -1.5825295e-07 0.29981738)
(-7.8549351e-08 -1.5107583e-07 0.29981737)
(-3.5485661e-08 -1.4754278e-07 0.29981736)
(5.0922325e-09 -1.4498893e-07 0.29981736)
(4.4149633e-08 -1.4249734e-07 0.29981737)
(8.1725983e-08 -1.3930173e-07 0.29981738)
(1.1827854e-07 -1.3413214e-07 0.2998174)
(1.5653703e-07 -1.2408095e-07 0.29981742)
(5.8890426e-08 -1.0164596e-07 0.29981745)
(-6.8890872e-08 -8.4634388e-08 0.2998174)
(-1.5107582e-07 -7.8549351e-08 0.29981737)
(-7.3924224e-08 -7.3924224e-08 0.29981736)
(-3.2063235e-08 -7.0241839e-08 0.29981735)
(8.1417796e-09 -6.7019187e-08 0.29981735)
(4.7523716e-08 -6.3776505e-08 0.29981736)
(8.6224025e-08 -6.0005536e-08 0.29981737)
(1.2486852e-07 -5.5112992e-08 0.29981739)
(1.6498953e-07 -4.8632936e-08 0.29981741)
(6.1894411e-08 -4.1982963e-08 0.29981745)
(-6.77971e-08 -3.8150128e-08 0.29981739)
(-1.4754278e-07 -3.5485658e-08 0.29981736)
(-7.0241839e-08 -3.2063238e-08 0.29981735)
(-2.8580624e-08 -2.8580627e-08 0.29981735)
(1.1557566e-08 -2.5159571e-08 0.29981735)
(5.1163283e-08 -2.1671906e-08 0.29981736)
(9.0389497e-08 -1.7916918e-08 0.29981737)
(1.2965114e-07 -1.3765449e-08 0.29981739)
(1.6966706e-07 -9.437849e-09 0.29981741)
(6.3323741e-08 -6.0634875e-09 0.29981745)
(-6.7114558e-08 3.0963237e-09 0.29981739)
(-1.4498893e-07 5.0922267e-09 0.29981736)
(-6.7019192e-08 8.1417767e-09 0.29981735)
(-2.5159568e-08 1.1557566e-08 0.29981735)
(1.50505e-08 1.50505e-08 0.29981735)
(5.4766369e-08 1.8582656e-08 0.29981736)
(9.4130482e-08 2.219187e-08 0.29981737)
(1.3334759e-07 2.5821416e-08 0.29981739)
(1.7269149e-07 2.9124709e-08 0.29981742)
(6.4143986e-08 3.1302082e-08 0.29981745)
(-6.6466498e-08 4.1836515e-08 0.2998174)
(-1.4249732e-07 4.4149624e-08 0.29981737)
(-6.37765e-08 4.7523713e-08 0.29981736)
(-2.16719e-08 5.1163286e-08 0.29981736)
(1.8582656e-08 5.4766369e-08 0.29981736)
(5.8304653e-08 5.8304659e-08 0.29981737)
(9.7628257e-08 6.1823539e-08 0.29981738)
(1.3658398e-07 6.5276063e-08 0.2998174)
(1.7514773e-07 6.8353114e-08 0.29981743)
(6.4775323e-08 7.0347889e-08 0.29981746)
(-6.5572486e-08 7.7858834e-08 0.29981741)
(-1.3930173e-07 8.1725983e-08 0.29981738)
(-6.000553e-08 8.622402e-08 0.29981737)
(-1.7916912e-08 9.0389486e-08 0.29981737)
(2.2191873e-08 9.4130473e-08 0.29981737)
(6.1823539e-08 9.762826e-08 0.29981738)
(1.0110189e-07 1.0110189e-07 0.29981739)
(1.3987716e-07 1.0468414e-07 0.29981741)
(1.7776331e-07 1.0823967e-07 0.29981744)
(6.5473836e-08 1.1096876e-07 0.29981748)
(-6.3888399e-08 1.0964773e-07 0.29981742)
(-1.3413214e-07 1.1827853e-07 0.2998174)
(-5.5112997e-08 1.2486852e-07 0.29981739)
(-1.3765447e-08 1.2965114e-07 0.29981739)
(2.582143e-08 1.3334759e-07 0.29981739)
(6.5276069e-08 1.3658397e-07 0.2998174)
(1.0468414e-07 1.3987716e-07 0.29981741)
(1.4372176e-07 1.4372177e-07 0.29981744)
(1.8143235e-07 1.4855304e-07 0.29981746)
(6.659472e-08 1.5393332e-07 0.2998175)
(-5.9818621e-08 1.3250334e-07 0.29981745)
(-1.2408094e-07 1.5653702e-07 0.29981742)
(-4.8632921e-08 1.6498952e-07 0.29981741)
(-9.4378406e-09 1.6966706e-07 0.29981741)
(2.9124706e-08 1.7269149e-07 0.29981742)
(6.8353108e-08 1.7514772e-07 0.29981743)
(1.0823968e-07 1.7776331e-07 0.29981744)
(1.4855304e-07 1.8143236e-07 0.29981746)
(1.8797487e-07 1.8797488e-07 0.29981749)
(6.9060688e-08 2.0195855e-07 0.29981753)
(-4.7865944e-08 4.6937752e-08 0.29981747)
(-1.0164596e-07 5.8890428e-08 0.29981745)
(-4.1982966e-08 6.1894406e-08 0.29981745)
(-6.0634791e-09 6.3323732e-08 0.29981745)
(3.1302099e-08 6.414398e-08 0.29981745)
(7.0347895e-08 6.4775327e-08 0.29981746)
(1.1096877e-07 6.5473838e-08 0.29981748)
(1.5393333e-07 6.659472e-08 0.2998175)
(2.0195854e-07 6.9060697e-08 0.29981753)
(7.5917162e-08 7.5917171e-08 0.29981757)