/*--------------------------------*- C++ -*----------------------------------*\
| =========                 |                                                 |
| \\      /  F ield         | OpenFOAM: The Open Source CFD Toolbox           |
|  \\    /   O peration     | Version:  v2106                                 |
|   \\  /    A nd           | Website:  www.openfoam.com                      |
|    \\/     M anipulation  |                                                 |
\*---------------------------------------------------------------------------*/
FoamFile
{
    version     2.0;
    format      ascii;
    arch        "LSB;label=32;scalar=64";
    class       volScalarField;
    location    "100";
    object      gradTx;
}
// * * * * * * * * * * * * * * * * * * * * * * * * * * * * * * * * * * * * * //

dimensions      [0 -1 0 1 0 0 0];

internalField   nonuniform List<scalar> 
10000
(
-9.4818006e-05
-0.000201548
-9.148252e-05
-4.4761777e-05
-8.7742933e-06
2.180218e-05
4.738655e-05
6.5479583e-05
6.8039157e-05
2.1313269e-05
-8.0569597e-05
-0.00017547427
-8.5102869e-05
-4.2166136e-05
-7.0759823e-06
2.3587489e-05
5.0164829e-05
7.1169666e-05
8.1804558e-05
2.7879594e-05
-7.7435478e-05
-0.00016788474
-8.0421898e-05
-3.9062457e-05
-4.5508273e-06
2.6221215e-05
5.3555482e-05
7.6058655e-05
8.8419682e-05
3.0344362e-05
-7.6316439e-05
-0.00016441356
-7.7062566e-05
-3.610063e-05
-1.793069e-06
2.9060573e-05
5.6743374e-05
7.9704108e-05
9.2069172e-05
3.1487843e-05
-7.5705107e-05
-0.00016218547
-7.4356364e-05
-3.3324426e-05
9.6423475e-07
3.1845729e-05
5.9595265e-05
8.250737e-05
9.4376844e-05
3.2119412e-05
-7.5184308e-05
-0.00016019013
-7.1779567e-05
-3.0585568e-05
3.6967547e-06
3.4536896e-05
6.2209494e-05
8.4887034e-05
9.6160363e-05
3.2574898e-05
-7.4514939e-05
-0.00015776646
-6.8883196e-05
-2.7699883e-05
6.4405866e-06
3.7154507e-05
6.4710036e-05
8.7156337e-05
9.7872004e-05
3.3015018e-05
-7.333216e-05
-0.00015402125
-6.5200965e-05
-2.4545727e-05
9.1628465e-06
3.9651724e-05
6.7139723e-05
8.9522956e-05
9.9858596e-05
3.3569506e-05
-7.0721512e-05
-0.00014718731
-6.0348782e-05
-2.1251253e-05
1.162357e-05
4.180356e-05
6.934593e-05
9.2004598e-05
0.00010242584
3.4396464e-05
-6.4155188e-05
-0.00013364067
-5.4936436e-05
-1.8588707e-05
1.3254151e-05
4.3146969e-05
7.0837899e-05
9.4076825e-05
0.00010539742
3.5550556e-05
-0.00025871759
-0.00055324512
-0.0002567574
-0.00012718238
-2.2616177e-05
6.8613162e-05
0.0001468531
0.00020624555
0.0002289334
7.5936877e-05
-0.00021627424
-0.00047622106
-0.00023869816
-0.00011981874
-1.7624785e-05
7.3983216e-05
0.00015540678
0.0002246083
0.00027826249
0.0001002555
-0.0002073682
-0.00045487712
-0.00022557921
-0.00011082665
-1.0142855e-05
8.1878199e-05
0.0001656523
0.00023948891
0.00029804536
0.00010750663
-0.00020423477
-0.00044504287
-0.00021585353
-0.00010209232
-1.9254571e-06
9.0386323e-05
0.00017523706
0.00025047271
0.00030904138
0.00011094897
-0.0002024592
-0.00043852148
-0.00020785265
-9.3825946e-05
6.3208176e-06
9.8739604e-05
0.0001838072
0.00025890722
0.0003159941
0.00011285418
-0.00020090715
-0.00043256955
-0.0002001542
-8.5628557e-05
1.4514739e-05
0.0001068257
0.00019167967
0.00026609223
0.00032139457
0.00011423615
-0.00019887913
-0.00042525639
-0.00019144966
-7.6964596e-05
2.2760247e-05
0.00011471261
0.00019925054
0.00027301635
0.00032667475
0.00011560614
-0.00019520477
-0.00041377041
-0.00018032387
-6.7473621e-05
3.0957353e-05
0.00012226897
0.00020668483
0.00028041248
0.00033310297
0.00011745114
-0.00018663728
-0.00039201311
-0.00016558522
-5.7546203e-05
3.8379767e-05
0.00012882168
0.00021357067
0.00028856977
0.00034239366
0.00012064722
-0.00016231862
-0.00034465833
-0.00014954503
-4.9525e-05
4.3310564e-05
0.00013294971
0.00021839313
0.00029613128
0.0003568291
0.00012707479
-0.0003920891
-0.00084352894
-0.00039874456
-0.00019736157
-2.8298787e-05
0.0001230203
0.00025654182
0.00036523431
0.00042883085
0.00014855438
-0.00032686089
-0.00072536096
-0.00037111027
-0.00018576321
-2.0162616e-05
0.00013197356
0.00027103303
0.00039686327
0.00051533161
0.00019139183
-0.00031331054
-0.00069271397
-0.00035062675
-0.00017131617
-7.8806011e-06
0.00014510434
0.00028820313
0.00042187881
0.00054814467
0.00020328109
-0.00030843813
-0.00067724329
-0.00033501965
-0.00015706007
5.6888028e-06
0.00015925474
0.0003042066
0.00044022937
0.00056638891
0.00020895114
-0.00030557826
-0.00066666857
-0.00032192358
-0.0001434239
1.9370276e-05
0.00017317055
0.00031852184
0.000454332
0.00057799363
0.00021212314
-0.00030301402
-0.00065682514
-0.00030916823
-0.00012980905
3.301784e-05
0.00018668152
0.00033172199
0.00046642347
0.00058711109
0.00021446057
-0.00029960946
-0.00064458453
-0.00029464243
-0.00011535766
4.6797225e-05
0.00019991836
0.00034452128
0.00047825992
0.000596273
0.00021686587
-0.00029335322
-0.00062516381
-0.00027599466
-9.9490365e-05
6.0533353e-05
0.00021268104
0.00035728155
0.00049131918
0.00060812616
0.00022038034
-0.00027852345
-0.00058793995
-0.00025127633
-8.2904506e-05
7.2991384e-05
0.00022384631
0.00036941691
0.00050663982
0.00062749669
0.00022746786
-0.000235686
-0.00050584993
-0.00022493737
-6.9641458e-05
8.1255479e-05
0.00023096041
0.00037829659
0.00052254279
0.00066600168
0.00024605038
-0.00051481923
-0.001108045
-0.00052416098
-0.0002557872
-2.4721063e-05
0.00018620415
0.00037641419
0.00053744964
0.00064390659
0.0002262589
-0.00042880136
-0.00095243507
-0.00048788442
-0.00024026093
-1.3548345e-05
0.00019873065
0.0003969395
0.00058269987
0.00076882986
0.00028826669
-0.00041107925
-0.00090958935
-0.00046063982
-0.00022066405
3.4009986e-06
0.00021706495
0.0004210747
0.00061794319
0.00081465291
0.00030474344
-0.00040461697
-0.0008889138
-0.00043949575
-0.00020109581
2.2219325e-05
0.00023682568
0.00044350821
0.00064367705
0.00084008008
0.00031259553
-0.00040072843
-0.00087446617
-0.00042147465
-0.00018220499
4.1279294e-05
0.00025629527
0.00046359287
0.00066348156
0.00085634403
0.00031702882
-0.00039716855
-0.0008607918
-0.00040372805
-0.00016321747
6.0370353e-05
0.00027526133
0.00048219053
0.00068057614
0.0008692673
0.00032034607
-0.00039237743
-0.00084360536
-0.00038337964
-0.00014297461
7.9715051e-05
0.00029392947
0.00050036905
0.00069754716
0.00088254904
0.00032386047
-0.00038348501
-0.00081613135
-0.00035715939
-0.0001206993
9.9052784e-05
0.00031203766
0.00051872758
0.00071672403
0.00090039251
0.00032923661
-0.0003622106
-0.00076311181
-0.0003224024
-9.7436214e-05
0.00011661416
0.0003279952
0.00053651704
0.00074000946
0.00093103784
0.00034066274
-0.00030020279
-0.00064538494
-0.0002859091
-7.9008118e-05
0.00012823992
0.00033824256
0.00054985281
0.00076521289
0.00099509992
0.00037194466
-0.00063358306
-0.0013607318
-0.00063850683
-0.00030457616
-1.2664485e-05
0.00025746084
0.00050469296
0.00071862007
0.00086717921
0.00030636888
-0.00052722034
-0.0011685708
-0.00059391459
-0.00028527398
1.4765931e-06
0.00027354369
0.00053128133
0.00077758699
0.0010307087
0.0003876238
-0.00050547569
-0.0011159285
-0.0005602034
-0.00026070793
2.299987e-05
0.00029704759
0.0005623875
0.00082307849
0.0010894928
0.00040864902
-0.00049749214
-0.0010902674
-0.00053372762
-0.00023597039
4.6987168e-05
0.00032238614
0.00059124784
0.00085619626
0.0011220664
0.00041866065
-0.00049260755
-0.0010720601
-0.00051089981
-0.00021191295
7.1376945e-05
0.00034739645
0.00061711418
0.00088172266
0.0011429956
0.00042435302
-0.00048806479
-0.0010546029
-0.00048821693
-0.00018759329
9.5898231e-05
0.00037183628
0.00064115747
0.00090388482
0.0011597801
0.0004286645
-0.00048188572
-0.0010324735
-0.00046205733
-0.00016156397
0.00012082722
0.0003959926
0.00066481624
0.00092612586
0.0011773104
0.00043332466
-0.00047033918
-0.00099690854
-0.0004282505
-0.00013286657
0.00014580786
0.00041953848
0.00068893604
0.00095165203
0.0012013769
0.00044063078
-0.00044257441
-0.00092801508
-0.00038344808
-0.00010291987
0.00016851576
0.00044039592
0.00071258353
0.00098320856
0.001243585
0.00045647007
-0.00036131954
-0.00077459489
-0.00033689273
-7.9363701e-05
0.00018352159
0.00045385323
0.00073053295
0.0010179267
0.0013330335
0.00050026313
-0.00075016102
-0.0016063395
-0.00074519835
-0.00034588905
6.4034951e-06
0.00033535722
0.00063934999
0.00090567792
0.0010949381
0.00038763001
-0.00062361539
-0.001377962
-0.00069243299
-0.0003228908
2.3469283e-05
0.00035497558
0.00067199284
0.00097834439
0.0012969629
0.00048806783
-0.00059790932
-0.001315701
-0.0006524065
-0.00029346157
4.9502687e-05
0.00038361514
0.00071005192
0.001034062
0.0013686505
0.00051361335
-0.00058843852
-0.0012851702
-0.00062071856
-0.00026364745
7.8599157e-05
0.0004144992
0.00074532289
0.0010745483
0.0014083415
0.00052577154
-0.00058257721
-0.0012632736
-0.00059316318
-0.00023448828
0.00010827753
0.00044503207
0.00077696879
0.0011057998
0.0014339341
0.00053272091
-0.00057706135
-0.001242071
-0.00056558875
-0.00020487263
0.00013821096
0.00047494899
0.00080647951
0.0011330603
0.0014546055
0.00053803295
-0.00056949833
-0.0012150157
-0.00053363959
-0.00017307127
0.00016872733
0.00050462031
0.00083566977
0.0011606368
0.0014764406
0.00054385369
-0.00055529943
-0.0011713691
-0.00049225869
-0.00013795574
0.00019936758
0.00053365
0.00086562864
0.0011926091
0.001506811
0.00055311006
-0.00052105401
-0.0010866315
-0.00043743569
-0.0001013336
0.0002272395
0.00055945734
0.00089521848
0.0012325355
0.0015606352
0.00057336577
-0.00042061619
-0.00089765655
-0.00038088012
-7.267221e-05
0.00024563167
0.0005761566
0.00091783417
0.0012768037
0.0016753338
0.0006295758
-0.00086513472
-0.0018468684
-0.00084634391
-0.00038150128
3.0963378e-05
0.00041836512
0.00077858828
0.0010964774
0.0013250335
0.00046937754
-0.00071853791
-0.0015825294
-0.00078549351
-0.00035485661
5.0922325e-05
0.00044149633
0.00081725983
0.0011827854
0.0015653703
0.00058890426
-0.00068890872
-0.0015107582
-0.00073924224
-0.00032063235
8.1417796e-05
0.00047523716
0.00086224025
0.0012486852
0.0016498953
0.00061894411
-0.000677971
-0.0014754278
-0.00070241839
-0.00028580624
0.00011557566
0.00051163283
0.00090389497
0.0012965114
0.0016966706
0.00063323741
-0.00067114558
-0.0014498893
-0.00067019192
-0.00025159568
0.000150505
0.00054766369
0.00094130482
0.0013334759
0.0017269149
0.00064143986
-0.00066466498
-0.0014249732
-0.000637765
-0.000216719
0.00018582656
0.00058304653
0.00097628257
0.0013658398
0.0017514773
0.00064775323
-0.00065572486
-0.0013930173
-0.0006000553
-0.00017916912
0.00022191873
0.00061823539
0.0010110189
0.0013987716
0.0017776331
0.00065473836
-0.00063888399
-0.0013413214
-0.00055112997
-0.00013765447
0.0002582143
0.00065276069
0.0010468414
0.0014372176
0.0018143235
0.0006659472
-0.00059818621
-0.0012408094
-0.00048632921
-9.4378406e-05
0.00029124706
0.00068353108
0.0010823968
0.0014855304
0.0018797487
0.00069060688
-0.00047865944
-0.0010164596
-0.00041982966
-6.0634791e-05
0.00031302099
0.00070347895
0.0011096877
0.0015393333
0.0020195854
0.00075917162
-0.00097872195
-0.0020832837
-0.00094326799
-0.00041276209
5.9693122e-05
0.00050512446
0.00092094308
0.0012894923
0.0015561246
0.00055122594
-0.00081221498
-0.0017832448
-0.00087440546
-0.00038250869
8.2518906e-05
0.00053174407
0.00096560831
0.001389364
0.00183455
0.00068972976
-0.00077869595
-0.001702051
-0.00082199676
-0.00034354133
0.00011743572
0.00057055016
0.0010174692
0.0014653878
0.0019318348
0.00072423558
-0.00076630662
-0.0016619735
-0.00078009435
-0.00030375463
0.00015661206
0.00061242079
0.001065472
0.0015205149
0.0019856543
0.00074065109
-0.00075852701
-0.0016328302
-0.00074324276
-0.00026453714
0.0001967544
0.00065391805
0.001108619
0.0015631679
0.0020205293
0.00075010055
-0.00075108943
-0.0016042308
-0.00070600106
-0.00022443598
0.00023743365
0.00069474368
0.0011490462
0.0016006213
0.0020489722
0.00075741239
-0.00074078074
-0.0015674047
-0.00066256581
-0.00018116907
0.00027907737
0.00073543399
0.0011893184
0.0016389013
0.0020794422
0.00076555968
-0.00072131263
-0.0015077049
-0.00060613749
-0.00013328608
0.00032100797
0.00077544323
0.0012309976
0.0016838119
0.0021224379
0.00077871516
-0.00067419961
-0.0013915092
-0.00053141502
-8.3389009e-05
0.00035918382
0.00081116738
0.0012725092
0.0017404895
0.0021994186
0.00080775897
-0.00053569572
-0.0011319947
-0.00045503319
-4.4591616e-05
0.00038432586
0.00083435614
0.0013044633
0.0018037886
0.0023642663
0.0008886135
-0.0010909924
-0.0023160576
-0.0010368073
-0.00044065453
9.1532343e-05
0.00059451213
0.0010652475
0.0014835908
0.0017872812
0.00063291619
-0.00090473246
-0.0019806052
-0.0009600044
-0.00040682696
0.00011719959
0.00062459339
0.0011158652
0.0015969339
0.0021035355
0.00079026802
-0.00086735741
-0.0018900746
-0.00090149913
-0.00036316325
0.00015649829
0.00066842611
0.0011745581
0.0016830122
0.0022134907
0.00082920754
-0.00085353048
-0.0018452969
-0.00085456918
-0.00031846341
0.00020065017
0.00071573083
0.0012288659
0.0017453918
0.0022743065
0.00084773016
-0.0008448057
-0.0018125832
-0.00081313553
-0.00027428283
0.00024596415
0.00076265633
0.0012777129
0.0017936983
0.0023137835
0.0008584186
-0.000836419
-0.001780331
-0.00077111852
-0.00022899752
0.00029196411
0.00080889183
0.0013235597
0.0018362146
0.0023460858
0.00086672312
-0.00082475155
-0.0017386694
-0.00072199799
-0.0001800525
0.00033912514
0.00085505346
0.0013693404
0.0018798185
0.0023808515
0.00087602776
-0.00080267383
-0.0016710204
-0.0006581179
-0.0001258426
0.00038665789
0.00090051932
0.0014168483
0.001931162
0.0024301193
0.000891119
-0.00074918948
-0.001539248
-0.00057354021
-6.936645e-05
0.0004299477
0.00094117354
0.0014642881
0.0019961605
0.0025185903
0.00092452134
-0.00059183763
-0.0012448109
-0.00048734702
-2.554984e-05
0.00045843728
0.00096758729
0.0015008818
0.0020689009
0.0027082983
0.001017591
-0.0012019386
-0.0025453782
-0.0011274671
-0.00046586445
0.00012566642
0.00068562653
0.0012105619
0.0016778831
0.0020177862
0.00071424838
-0.00099610063
-0.0021748293
-0.0010428002
-0.00042849834
0.00015414867
0.00071913977
0.0012670861
0.001804593
0.0023715741
0.00089030171
-0.00095490596
-0.0020750522
-0.00097826052
-0.00038018559
0.00019778716
0.0007679572
0.0013325555
0.0019006451
0.0024940994
0.00093363876
-0.00093965591
-0.0020256226
-0.00092635495
-0.0003306213
0.00024686815
0.00082065196
0.0013931202
0.0019702226
0.0025618582
0.00095425135
-0.0009299952
-0.0019893733
-0.00088038346
-0.0002815238
0.00029730708
0.00087295934
0.0014476188
0.0020241364
0.0026059034
0.00096616959
-0.00092066782
-0.0019535019
-0.00083363526
-0.00023110135
0.0003485828
0.00092456466
0.0014988452
0.0020716759
0.0026420316
0.0009754568
-0.00090765312
-0.0019070428
-0.00077887114
-0.00017652164
0.00040121978
0.00097615941
0.0015500952
0.0021205693
0.0026810727
0.00098591498
-0.00088298511
-0.0018315084
-0.00070760117
-0.00011603803
0.00045430775
0.0010270411
0.0016033881
0.0021782963
0.0027365665
0.0010029283
-0.00082317988
-0.0016842808
-0.00061324169
-5.3030365e-05
0.00050267306
0.0010725924
0.0016567157
0.002251551
0.0028364401
0.0010406568
-0.00064712649
-0.0013551953
-0.00051731723
-4.2341552e-06
0.00053448116
0.0011022105
0.001697923
0.0023336638
0.0030508325
0.0011458566
-0.0013114989
-0.0027712243
-0.001215491
-0.00048882791
0.00016148732
0.00077774064
0.0013560961
0.00187161
0.0022470284
0.00079504939
-0.0010862762
-0.002365929
-0.0011230445
-0.00044796192
0.0001927562
0.00081465134
0.0014184769
0.0020115732
0.0026380203
0.00098964064
-0.0010413021
-0.0022570053
-0.0010525391
-0.00039505002
0.00024068532
0.00086840893
0.0014906593
0.0021174986
0.0027730017
0.0010373347
-0.0010246452
-0.0022029772
-0.0009957169
-0.0003406744
0.00029464067
0.0009264499
0.0015574404
0.0021942231
0.0028476552
0.0010600201
-0.0010140582
-0.0021632275
-0.00094525157
-0.00028670297
0.00035015176
0.00098408512
0.0016175272
0.0022536788
0.0028962397
0.0010731643
-0.0010037993
-0.0021237791
-0.00089383226
-0.00023120799
0.00040663471
0.0010410073
0.0016740824
0.0023061752
0.0029361222
0.0010834085
-0.00098945101
-0.0020725592
-0.0008334529
-0.00017102676
0.00046470907
0.0010980063
0.0017307677
0.0023603211
0.002979428
0.0010950226
-0.00096221212
-0.0019892159
-0.00075486892
-0.00010434019
0.00052327675
0.0011542478
0.0017897923
0.0024243689
0.0030411065
0.0011139519
-0.00089614222
-0.0018266706
-0.00065080303
-3.4846522e-05
0.00057666114
0.0012046486
0.0018489614
0.0025057841
0.0031522517
0.0011559616
-0.00070155098
-0.0014632428
-0.00054523392
1.889785e-05
0.00061174367
0.0012374362
0.0018947767
0.0025971925
0.0033911065
0.0012731885
-0.0014195552
-0.0029933598
-0.0013008634
-0.00050974552
0.0001985477
0.00087024088
0.0015011275
0.0020640376
0.0024744231
0.00087515262
-0.0011751603
-0.0025537043
-0.001200735
-0.00046542383
0.00023257349
0.00091050782
0.0015693176
0.002217151
0.002902273
0.0010881053
-0.0011264517
-0.0024357465
-0.0011243461
-0.00040795757
0.00028472951
0.00096915281
0.0016481321
0.0023327757
0.0030495381
0.0011401011
-0.0011084081
-0.0023771871
-0.0010626955
-0.00034883687
0.00034346854
0.0010324919
0.0017211459
0.0024166453
0.0031310718
0.0011648437
-0.0010969038
-0.0023339585
-0.0010077592
-0.00028997215
0.00040403078
0.0010954208
0.0017867791
0.0024815683
0.0031842633
0.0011792666
-0.0010857242
-0.0022910053
-0.00095180028
-0.00022953552
0.00046553621
0.0011575081
0.0018485601
0.002538843
0.0032276745
0.0011903826
-0.0010700592
-0.0022350466
-0.00088577508
-0.00016370408
0.00052904707
0.0012199341
0.0019107175
0.002598198
0.0032751777
0.0012031314
-0.0010402642
-0.0021440007
-0.00079997199
-9.0888593e-05
0.00059295044
0.0012814466
0.0019754658
0.0026685547
0.003343085
0.0012240139
-0.00096798366
-0.0019663085
-0.0006862808
-1.4911509e-05
0.0006512449
0.0013365639
0.0020404293
0.0027580194
0.0034653179
0.0012702484
-0.00075503099
-0.0015688858
-0.00057117322
4.383667e-05
0.00068955319
0.001372361
0.0020908763
0.002858695
0.0037283317
0.0013993564
-0.0015259024
-0.0032112389
-0.0013832412
-0.00052854932
0.00023650477
0.00096254377
0.0016449204
0.0022543195
0.0026993067
0.00095437464
-0.0012625683
-0.002737649
-0.0012755554
-0.00048082489
0.00027325678
0.0010061121
0.0017189105
0.0024206117
0.0031638207
0.0011855534
-0.0012101758
-0.0026107785
-0.0011933924
-0.00041877925
0.00032959335
0.0010695766
0.001804221
0.0025454291
0.0033228466
0.0012417045
-0.0011907778
-0.0025478001
-0.0011271645
-0.00035508913
0.00039279309
0.0011379435
0.0018835722
0.0026365536
0.0034111591
0.0012683902
-0.0011783595
-0.0025010083
-0.0010676565
-0.00029090771
0.00045877894
0.0012064358
0.0019551402
0.0027071997
0.0034697068
0.0012844738
-0.0011662765
-0.0024547116
-0.0010076282
-0.00022590351
0.00052467566
0.0012729438
0.0020217526
0.0027687315
0.0035161427
0.0012963118
-0.001149314
-0.0023939755
-0.00093582522
-0.00015404837
0.00059377938
0.0013407936
0.0020895557
0.0028330783
0.0035671449
0.0013098906
-0.0011169497
-0.0022954109
-0.0008429665
-7.49842e-05
0.00066285608
0.0014073592
0.0021602514
0.002910052
0.0036415156
0.0013328107
-0.0010384525
-0.0021028658
-0.00071988322
7.7222069e-06
0.00072595742
0.0014666722
0.0022308761
0.0030076668
0.0037748501
0.0013832841
-0.00080727369
-0.0016718712
-0.00059562816
7.1876173e-05
0.00076783979
0.0015047974
0.0022856242
0.0031177572
0.0040618233
0.001524126
-0.0016301579
-0.0034237386
-0.0014617962
-0.0005447964
0.00027504075
0.0010539286
0.0017866365
0.0024412178
0.002920576
0.0010324059
-0.0013481455
-0.0029166921
-0.0013467682
-0.00049377585
0.00031443678
0.001100633
0.0018665886
0.0026215632
0.0034229329
0.0012821623
-0.0012921269
-0.0027809585
-0.0012589321
-0.0004266201
0.00037551274
0.0011692679
0.0019584878
0.0027540815
0.0035919385
0.0013420305
-0.0012714601
-0.002713828
-0.0011892752
-0.0003594532
0.00044133762
0.0012401967
0.0020430263
0.0028515664
0.0036846325
0.0013693661
-0.0012581131
-0.0026627821
-0.0011246094
-0.00028773363
0.00051560289
0.0013165055
0.0021236061
0.0029306483
0.0037520563
0.0013885654
-0.0012451961
-0.0026133559
-0.0010623743
-0.00021936308
0.00058439809
0.0013845686
0.0021937832
0.0029959254
0.0038026487
0.0014019243
-0.0012269768
-0.0025474428
-0.00098504597
-0.00014049602
0.00065997506
0.0014567702
0.0022667282
0.003063888
0.0038541869
0.0014151064
-0.0011918947
-0.0024415047
-0.0008859366
-5.4244571e-05
0.00073515508
0.0015276907
0.0023436887
0.0031482478
0.0039346208
0.0014396644
-0.0011067466
-0.002234579
-0.00075504252
3.6070785e-05
0.000804334
0.00159001
0.0024190506
0.0032547285
0.0040798716
0.0014945758
-0.00085699007
-0.001770142
-0.00062423697
0.00010587311
0.0008531712
0.0016298214
0.0024756607
0.0033739326
0.0043913737
0.0016473323
-0.0017315176
-0.0036284773
-0.0015349628
-0.00055745488
0.00031382782
0.0011431765
0.0019251897
0.0026221496
0.0031344642
0.0011078991
-0.001431145
-0.0030885622
-0.0014132914
-0.00050388314
0.0003548154
0.001191198
0.0020106145
0.00282068
0.0036833493
0.0013795584
-0.0013715742
-0.0029433549
-0.0013191977
-0.00042794204
0.00042680133
0.0012716077
0.0021156071
0.0029618641
0.0038627011
0.0014442505
-0.0013500306
-0.002872797
-0.0012513872
-0.00036413298
0.00048509946
0.0013288924
0.0021910134
0.0030524954
0.0039403909
0.0014637418
-0.0013358597
-0.0028138421
-0.0011794474
-0.0002773545
0.00058095236
0.0014233734
0.002292986
0.0031502074
0.0040214378
0.0014865033
-0.0013227057
-0.0027598236
-0.0011211031
-0.00020998189
0.00065298701
0.0014873678
0.0023660739
0.0032249215
0.0040912694
0.0015084566
-0.0013038453
-0.0026854108
-0.0010417532
-0.00012558897
0.00073942778
0.0015589156
0.0024389955
0.0032922943
0.0041408784
0.0015210469
-0.0012657557
-0.0025694062
-0.00094070421
-3.2602856e-05
0.00082804763
0.0016333772
0.0025195239
0.0033821861
0.0042230501
0.0015451529
-0.0011714916
-0.0023456963
-0.00080993754
6.2754651e-05
0.00091185381
0.0017010023
0.00259626
0.0034965682
0.004379452
0.0016038413
-0.00089983238
-0.0018411693
-0.00068366248
0.00012613381
0.00097892606
0.0017528178
0.0026513045
0.0036207598
0.0047143334
0.0017684071
-0.001828064
-0.003819964
-0.0016000586
-0.00056436716
0.00035363152
0.0012292314
0.0020604694
0.0027905307
0.0033215037
0.0011720127
-0.001509848
-0.0032482379
-0.0014753363
-0.00051492589
0.00038439582
0.0012578185
0.002129855
0.0030054564
0.0039420748
0.0014774041
-0.0014469133
-0.0030892153
-0.0013687269
-0.00040953361
0.00050961862
0.0014075307
0.0023169486
0.0032142686
0.0041983295
0.0015751664
-0.0014266998
-0.0030169061
-0.0013228193
-0.00038264738
0.00051486794
0.00137592
0.0023019963
0.0032228687
0.0041851417
0.0015599344
-0.0014139524
-0.0029343817
-0.0012364485
-0.0002675092
0.00067214575
0.0015150144
0.0024447851
0.0033393247
0.0042267834
0.001555926
-0.0014061902
-0.0028609189
-0.0011923473
-0.00022012029
0.00076617255
0.0015821075
0.0025354045
0.0034546917
0.0043572791
0.0016009757
-0.0013948943
-0.0027560823
-0.0011183469
-0.00016002542
0.00087833325
0.0016493323
0.0025982942
0.0035235812
0.0044319238
0.0016273715
-0.0013599332
-0.0026044397
-0.0010202058
-9.2283761e-05
0.00099958069
0.0017356167
0.0026726035
0.0036082391
0.004515531
0.0016536515
-0.0012516105
-0.0023323443
-0.00090093446
-3.4969338e-05
0.0011101561
0.0018335888
0.0027518418
0.00372111
0.0046744563
0.0017138126
-0.00094621907
-0.0017276138
-0.0007771389
-6.3829961e-05
0.001171718
0.0019407571
0.0028308554
0.0038507717
0.0050241208
0.0018867611
-0.0019146884
-0.0039843199
-0.0016519858
-0.00055834093
0.00040916581
0.001332634
0.0022265012
0.0029613017
0.0034100703
0.0011802959
-0.001580121
-0.0033844252
-0.001543423
-0.00056087737
0.00033290692
0.0011609598
0.0020268634
0.0029637474
0.0039593231
0.0014840563
-0.0015147586
-0.0031906829
-0.0013869111
-0.00032948925
0.00072793119
0.00171814
0.0027420754
0.0037061795
0.0048006193
0.001804953
-0.0015077457
-0.0031193505
-0.001419177
-0.00046166519
0.00053343123
0.0013748515
0.0023990375
0.0034691327
0.004727946
0.0018111005
-0.0015164495
-0.0029618311
-0.0012876989
-0.0003381419
0.00080129377
0.0015564941
0.0025060614
0.0034397884
0.004412327
0.0016406663
-0.0015585849
-0.0028005849
-0.0012186526
-0.00038830269
0.00097761861
0.001695695
0.0026602496
0.0036117068
0.0044982039
0.0016406853
-0.001630899
-0.002576325
-0.001073807
-0.00049978773
0.0011221373
0.0018015263
0.0027442315
0.0037242617
0.0046346819
0.0016874799
-0.0016916769
-0.0022850109
-0.00084647834
-0.00062431637
0.0012388306
0.001933865
0.0028301255
0.0038166893
0.0047601431
0.001735919
-0.0016292685
-0.0018314473
-0.00056842185
-0.00076617875
0.0012647114
0.0020859995
0.002949214
0.0039406593
0.0049416739
0.0018094946
-0.0013255082
-0.00089446164
-7.7855475e-05
-0.0010126089
0.0010090886
0.0021562199
0.0030920645
0.0041236812
0.0053411289
0.0020022224
-0.0019760868
-0.0040841815
-0.0016762666
-0.00049580001
0.00061271877
0.0017166527
0.0028903744
0.0037199812
0.0036485942
0.001103092
-0.0016323446
-0.0034741351
-0.0016740993
-0.00081655577
-0.00016694969
0.00015630812
0.00051146657
0.001201585
0.0018036476
0.00063889724
-0.0015693892
-0.0031653222
-0.0013024248
-0.00010219588
0.001308105
0.0024593682
0.0035318374
0.0042538735
0.0045604894
0.001532133
-0.0016308998
-0.0031002931
-0.001497409
-0.00068399237
0.00067046901
0.0016224965
0.0029261897
0.0043865011
0.0062112311
0.0024262793
-0.0017832264
-0.0027717181
-0.0011698612
-0.00076304738
0.00088976419
0.0015938277
0.0025935946
0.0038304736
0.0056571925
0.0022708766
-0.0021506787
-0.0024049069
-0.0006599904
-0.0011023331
0.0011168906
0.0018534329
0.0027114682
0.0037412442
0.0051902396
0.0020301019
-0.0028234561
-0.0020290026
0.00029632712
-0.0016285879
0.0011207007
0.0020640247
0.0029012229
0.0038483751
0.005032546
0.0019072022
-0.0037366174
-0.0017634439
0.001754733
-0.0020405759
0.00090216906
0.0021610612
0.0030658615
0.0040054024
0.005062543
0.0018786245
-0.0045023869
-0.0014951101
0.0034812434
-0.0020519881
0.00047544362
0.0020819262
0.0031653812
0.0041785697
0.0052385681
0.0019291054
-0.0049665817
-0.00085154863
0.0061623165
-0.00094387275
-0.00011882247
0.0015364146
0.0029381649
0.0042114245
0.00558725
0.0021110791
-0.0019577108
-0.0040139191
-0.0016226958
-0.0001172937
0.0018460412
0.0044669799
0.0082360346
0.011883071
0.01163061
0.0032897238
-0.0016440978
-0.0034866078
-0.0020858078
-0.0019063354
-0.0023692544
-0.0041468312
-0.0060019834
-0.0057359705
-0.0046687672
-0.0015441431
-0.0016061699
-0.0028153636
-0.00094229489
0.00022400326
0.0020333573
0.0025462511
0.0016318176
-0.00088913396
-0.0073277169
-0.0040532323
-0.0019528391
-0.0028062067
-0.0011619522
-0.0010099697
0.0013304454
0.002815971
0.0038302102
0.0034907963
-0.0012757964
-0.0017979617
-0.0027988643
-0.0024740665
-4.5928942e-05
-0.0018076598
0.00072847086
0.0022121838
0.0036108327
0.0045789674
0.0025670846
0.00010182521
-0.0047630362
-0.0026188904
0.0025377477
-0.0023148562
0.00034692777
0.0019660928
0.0032735507
0.0045717466
0.0043086532
0.0011454882
-0.0085414051
-0.0043947953
0.0069168731
-0.0021417271
-0.0001214072
0.0017603351
0.003117751
0.0044280943
0.0050098942
0.0016393975
-0.014255048
-0.0092231077
0.012369942
-0.00033584076
-0.00020973175
0.001473011
0.0029425674
0.0042947651
0.0052816654
0.0018620283
-0.020287433
-0.017167001
0.01614364
0.0033263742
0.00095954297
0.0016094622
0.0028407694
0.0041779216
0.0053953872
0.0019742886
-0.0251213
-0.028181435
0.015762912
0.0095589606
0.0053747177
0.0039158205
0.0039155796
0.0046802582
0.0059340256
0.0022211205
-0.0016223072
-0.0034326514
-0.0013395771
0.0017858311
0.0086066091
0.021802818
0.045963268
0.080533462
0.10724494
0.038234877
-0.0015269185
-0.0033897214
-0.0034344937
-0.0051947811
-0.007473568
-0.0099870378
-0.004148445
0.028657878
0.11029021
0.05523799
-0.0015936871
-0.0017261931
-9.4757382e-05
-0.00051993493
-0.00027168182
-0.0041194651
-0.0098395613
-0.0016493887
0.060562901
0.037320901
-0.0029235297
-0.0021449016
0.0010652704
-0.00081298726
0.0019700868
0.002111803
-0.0030778708
-0.0068836016
0.027933541
0.020823614
-0.0062474288
-0.0040319592
0.0042870369
-0.0017549467
0.0005477331
0.0034382359
0.0022146809
-0.0033022962
0.012573249
0.010601682
-0.013643648
-0.011023193
0.010508925
6.4278538e-06
-0.00090720473
0.0020610075
0.0037629783
0.00064643942
0.0069974167
0.0054706412
-0.027440666
-0.029954242
0.016385877
0.0058027545
0.00049693784
0.00094783968
0.0031550186
0.0025674463
0.005328418
0.0032276366
-0.047051457
-0.066826023
0.011579499
0.01206067
0.0059336446
0.0030013453
0.0032763453
0.0033660637
0.0048593428
0.0023130603
-0.062024389
-0.11213709
-0.019155602
0.0041498468
0.008026979
0.0068175824
0.005874643
0.005283468
0.0056797119
0.0021835631
-0.045021276
-0.11350806
-0.070777168
-0.035928983
-0.01500248
-0.0042434856
0.0011382715
0.0037173577
0.0054155333
0.0021369412
-0.0022725971
-0.0050008593
-0.002498648
-0.0030480581
-0.0074158135
-0.018123226
-0.039789903
-0.072510193
-0.099060995
-0.035661279
-0.0017585611
-0.0039243187
-0.00015617775
0.0038878181
0.0082819118
0.012745269
0.0088588573
-0.021510181
-0.10194669
-0.052532354
-0.0015549034
-0.0052197118
-0.00320379
-0.00048841281
0.0015080467
0.0075010551
0.015262178
0.0094349912
-0.052067596
-0.034707625
-0.00019691427
-0.0046294609
-0.0041620446
-4.7336789e-05
-0.00057030888
0.0014931734
0.0088104934
0.014959741
-0.018587978
-0.017720884
0.0030690142
-0.0026600665
-0.0071389453
0.0010581117
0.0010311357
0.00036195362
0.0037432138
0.011485457
-0.0027501701
-0.007171134
0.010268236
0.0042943996
-0.013014266
-0.00052424816
0.0026708855
0.0019284429
0.002399494
0.0076586544
0.0030916689
-0.0018714078
0.023648011
0.022964215
-0.018391041
-0.0060809901
0.0014664049
0.0032281802
0.0031968897
0.0058896551
0.0049545563
0.00046517757
0.042700743
0.059346481
-0.013062629
-0.012043213
-0.0037401142
0.0013821187
0.0032750538
0.0052823385
0.0056264298
0.0014547528
0.05764802
0.1049094
0.018078882
-0.0040305236
-0.0058346824
-0.0023676223
0.00082057386
0.0035870333
0.0051159054
0.0017029471
0.040776944
0.10633988
0.070296088
0.037274214
0.017939533
0.0090868452
0.0058098149
0.0054436877
0.0059739986
0.0020268149
-0.0024380572
-0.0051003895
-0.0021239268
-0.00054217867
0.0013885465
0.0042622447
0.0083825082
0.0097540059
-0.015881475
-0.013510077
-0.0020303674
-0.0043800548
-0.0021591514
-0.0011388981
1.1224842e-05
0.0020426488
0.0069917736
0.015047779