/*--------------------------------*- C++ -*----------------------------------*\
| =========                 |                                                 |
| \\      /  F ield         | OpenFOAM: The Open Source CFD Toolbox           |
|  \\    /   O peration     | Version:  v2106                                 |
|   \\  /    A nd           | Website:  www.openfoam.com                      |
|    \\/     M anipulation  |                                                 |
\*---------------------------------------------------------------------------*/
FoamFile
{
    version     2.0;
    format      ascii;
    arch        "LSB;label=32;scalar=64";
    class       volScalarField;
    location    "100";
    object      gradTy;
}
// * * * * * * * * * * * * * * * * * * * * * * * * * * * * * * * * * * * * * //

dimensions      [0 -1 0 1 0 0 0];

internalField   nonuniform List<scalar> 
10000
(
-9.4818025e-05
-8.0569616e-05
-7.7435535e-05
-7.6316515e-05
-7.5705107e-05
-7.5184308e-05
-7.4514901e-05
-7.3332122e-05
-7.0721512e-05
-6.4155188e-05
-0.00020154803
-0.00017547424
-0.00016788476
-0.00016441362
-0.00016218544
-0.00016019015
-0.00015776641
-0.00015402122
-0.00014718734
-0.0001336407
-9.1482548e-05
-8.5102812e-05
-8.0421842e-05
-7.7062509e-05
-7.4356336e-05
-7.1779595e-05
-6.8883253e-05
-6.520105e-05
-6.034881e-05
-5.4936436e-05
-4.476172e-05
-4.2166164e-05
-3.9062457e-05
-3.610063e-05
-3.3324426e-05
-3.0585568e-05
-2.7699912e-05
-2.4545784e-05
-2.1251196e-05
-1.8588622e-05
-8.7742364e-06
-7.0760393e-06
-4.5507988e-06
-1.7930404e-06
9.642635e-07
3.6967833e-06
6.4405867e-06
9.1629033e-06
1.1623513e-05
1.3254095e-05
2.1802151e-05
2.3587404e-05
2.6221159e-05
2.9060573e-05
3.1845701e-05
3.4536924e-05
3.7154479e-05
3.9651695e-05
4.1803446e-05
4.3146855e-05
4.7386521e-05
5.0164743e-05
5.3555397e-05
5.6743346e-05
5.9595237e-05
6.2209437e-05
6.4710065e-05
6.7139666e-05
6.9345987e-05
7.0837899e-05
6.5479554e-05
7.1169694e-05
7.6058711e-05
7.9704108e-05
8.2507341e-05
8.4887091e-05
8.7156394e-05
8.9522985e-05
9.2004655e-05
9.4076824e-05
6.8039157e-05
8.1804615e-05
8.8419739e-05
9.2069144e-05
9.4376759e-05
9.6160448e-05
9.7872004e-05
9.9858625e-05
0.00010242587
0.00010539745
2.1313269e-05
2.7879594e-05
3.0344362e-05
3.1487825e-05
3.2119393e-05
3.2574879e-05
3.3014999e-05
3.3569525e-05
3.4396483e-05
3.5550575e-05
-0.00025871763
-0.00021627428
-0.00020736826
-0.00020423479
-0.00020245917
-0.00020090719
-0.00019887913
-0.00019520473
-0.00018663729
-0.00016231868
-0.0005532452
-0.00047622112
-0.00045487721
-0.00044504293
-0.00043852148
-0.00043256961
-0.00042525644
-0.00041377041
-0.00039201308
-0.00034465845
-0.00025675735
-0.00023869813
-0.00022557916
-0.0002158535
-0.00020785274
-0.00020015418
-0.00019144963
-0.00018032389
-0.00016558522
-0.000149545
-0.00012718229
-0.00011981879
-0.00011082665
-0.00010209223
-9.3825946e-05
-8.5628557e-05
-7.696454e-05
-6.747365e-05
-5.7546231e-05
-4.9524914e-05
-2.2616206e-05
-1.7624785e-05
-1.0142884e-05
-1.9254568e-06
6.3208745e-06
1.451474e-05
2.2760247e-05
3.0957353e-05
3.8379767e-05
4.3310536e-05
6.8613105e-05
7.3983216e-05
8.1878198e-05
9.0386209e-05
9.8739548e-05
0.00010682564
0.00011471255
0.00012226897
0.00012882168
0.00013294962
0.00014685307
0.00015540664
0.00016565221
0.00017523698
0.00018380715
0.00019167959
0.00019925042
0.00020668475
0.00021357067
0.00021839315
0.00020624554
0.00022460833
0.00023948883
0.00025047277
0.00025890722
0.00026609229
0.0002730163
0.00028041242
0.00028856971
0.00029613133
0.00022893334
0.00027826258
0.00029804542
0.00030904141
0.00031599404
0.00032139462
0.00032667478
0.00033310292
0.00034239358
0.00035682905
7.5936839e-05
0.0001002555
0.00010750669
0.00011094896
0.00011285416
0.00011423615
0.00011560617
0.00011745112
0.00012064718
0.00012707475
-0.00039208917
-0.00032686097
-0.00031331052
-0.00030843811
-0.00030557828
-0.000303014
-0.00029960944
-0.0002933532
-0.00027852347
-0.00023568602
-0.00084352891
-0.00072536108
-0.00069271394
-0.00067724326
-0.00066666854
-0.00065682508
-0.0006445845
-0.00062516378
-0.00058794001
-0.00050584995
-0.00039874442
-0.00037111027
-0.00035062675
-0.00033501965
-0.00032192361
-0.00030916823
-0.00029464243
-0.00027599466
-0.00025127633
-0.00022493737
-0.0001973616
-0.00018576319
-0.0001713162
-0.00015706002
-0.00014342393
-0.00012980914
-0.00011535772
-9.9490421e-05
-8.2904535e-05
-6.9641459e-05
-2.8298786e-05
-2.0162617e-05
-7.8806295e-06
5.6888041e-06
1.9370388e-05
3.3017842e-05
4.679717e-05
6.0533238e-05
7.2991269e-05
8.1255421e-05
0.00012302027
0.00013197348
0.00014510431
0.00015925463
0.00017317055
0.00018668158
0.00019991836
0.00021268102
0.00022384629
0.00023096038
0.00025654174
0.00027103294
0.00028820307
0.00030420651
0.00031852176
0.00033172202
0.00034452128
0.00035728158
0.00036941699
0.00037829665
0.00036523423
0.00039686324
0.00042187881
0.00044022934
0.00045433197
0.0004664235
0.00047825992
0.00049131913
0.00050663982
0.00052254282
0.00042883079
0.00051533161
0.00054814467
0.00056638891
0.00057799358
0.00058711103
0.00059627294
0.00060812607
0.00062749655
0.0006660016
0.00014855438
0.00019139183
0.00020328107
0.00020895114
0.0002121231
0.00021446054
0.00021686583
0.00022038032
0.00022746781
0.00024605032
-0.00051481927
-0.0004288014
-0.00041107929
-0.00040461703
-0.00040072844
-0.00039716855
-0.00039237744
-0.00038348501
-0.00036221062
-0.00030020283
-0.001108045
-0.00095243507
-0.00090958934
-0.00088891392
-0.0008744662
-0.00086079186
-0.00084360539
-0.00081613135
-0.00076311184
-0.00064538503
-0.00052416101
-0.00048788442
-0.00046063974
-0.00043949575
-0.00042147462
-0.00040372808
-0.00038337959
-0.00035715937
-0.0003224024
-0.00028590915
-0.0002557872
-0.00024026096
-0.00022066402
-0.00020109579
-0.00018220496
-0.00016321749
-0.00014297464
-0.00012069933
-9.7436271e-05
-7.9008205e-05
-2.4721032e-05
-1.3548402e-05
3.4009715e-06
2.2219297e-05
4.1279321e-05
6.0370326e-05
7.9714965e-05
9.9052642e-05
0.00011661405
0.00012823986
0.00018620412
0.00019873062
0.00021706492
0.00023682563
0.00025629529
0.00027526139
0.0002939295
0.00031203757
0.00032799511
0.00033824259
0.00037641414
0.00039693944
0.00042107459
0.0004435081
0.00046359276
0.00048219053
0.00050036908
0.00051872758
0.00053651698
0.00054985278
0.00053744952
0.00058269975
0.00061794307
0.000643677
0.00066348147
0.00068057611
0.00069754719
0.00071672409
0.00074000948
0.00076521289
0.00064390653
0.00076882986
0.00081465293
0.00084008016
0.00085634411
0.0008692673
0.00088254902
0.00090039253
0.00093103787
0.00099509995
0.00022625888
0.0002882667
0.00030474346
0.00031259556
0.00031702886
0.00032034607
0.00032386043
0.00032923659
0.00034066272
0.00037194464
-0.00063358308
-0.00052722036
-0.00050547576
-0.0004974922
-0.00049260765
-0.00048806481
-0.00048188575
-0.00047033924
-0.00044257447
-0.00036131955
-0.0013607318
-0.0011685708
-0.0011159285
-0.0010902673
-0.0010720603
-0.001054603
-0.0010324735
-0.00099690845
-0.00092801511
-0.0007745949
-0.0006385068
-0.0005939145
-0.00056020335
-0.00053372753
-0.00051089975
-0.00048821695
-0.0004620573
-0.00042825044
-0.00038344802
-0.00033689275
-0.00030457622
-0.00028527402
-0.00026070788
-0.00023597042
-0.00021191289
-0.00018759334
-0.00016156403
-0.00013286666
-0.00010291987
-7.9363872e-05
-1.2664601e-05
1.4764212e-06
2.299987e-05
4.6987111e-05
7.1376974e-05
9.5898174e-05
0.00012082711
0.0001458078
0.00016851567
0.00018352145
0.00025746087
0.00027354361
0.00029704748
0.00032238609
0.00034739645
0.00037183637
0.0003959926
0.00041953842
0.00044039581
0.00045385326
0.00050469299
0.00053128142
0.00056238736
0.00059124784
0.00061711407
0.00064115747
0.00066481627
0.00068893604
0.00071258347
0.00073053289
0.00071861996
0.00077758693
0.00082307841
0.00085619618
0.00088172251
0.00090388471
0.00092612584
0.000951652
0.00098320854
0.0010179266
0.0008671791
0.0010307085
0.0010894927
0.0011220663
0.0011429956
0.0011597801
0.0011773104
0.001201377
0.001243585
0.0013330335
0.00030636886
0.00038762373
0.00040864899
0.00041866063
0.0004243531
0.00042866452
0.00043332464
0.0004406308
0.00045647005
0.00050026311
-0.00075016104
-0.00062361541
-0.00059790938
-0.00058843851
-0.00058257721
-0.00057706132
-0.0005694983
-0.00055529942
-0.00052105399
-0.00042061617
-0.0016063395
-0.001377962
-0.001315701
-0.0012851701
-0.0012632736
-0.0012420709
-0.0012150156
-0.001171369
-0.0010866315
-0.00089765649
-0.00074519835
-0.00069243305
-0.00065240655
-0.00062071862
-0.0005931632
-0.00056558875
-0.00053363959
-0.00049225869
-0.00043743569
-0.00038088012
-0.00034588902
-0.00032289086
-0.0002934616
-0.00026364753
-0.00023448831
-0.00020487269
-0.00017307138
-0.00013795582
-0.00010133362
-7.2672292e-05
6.4035235e-06
2.3469283e-05
4.9502713e-05
7.8599101e-05
0.00010827753
0.00013821091
0.00016872733
0.00019936752
0.00022723938
0.0002456315
0.00033535727
0.00035497558
0.00038361509
0.00041449917
0.0004450321
0.00047494896
0.00050462034
0.00053364994
0.00055945731
0.00057615648
0.00063934996
0.00067199284
0.00071005187
0.00074532289
0.00077696876
0.0008064795
0.00083566976
0.00086562864
0.00089521848
0.00091783414
0.00090567784
0.00097834433
0.0010340621
0.0010745482
0.0011057998
0.0011330604
0.0011606368
0.0011926091
0.0012325355
0.0012768037
0.0010949379
0.0012969628
0.0013686505
0.0014083414
0.001433934
0.0014546055
0.0014764406
0.001506811
0.0015606352
0.0016753339
0.00038762996
0.00048806777
0.00051361326
0.00052577148
0.00053272085
0.00053803293
0.00054385369
0.00055311006
0.00057336581
0.00062957584
-0.00086513476
-0.00071853795
-0.00068890875
-0.00067797102
-0.00067114564
-0.00066466506
-0.00065572484
-0.00063888403
-0.00059818617
-0.00047865945
-0.0018468685
-0.0015825295
-0.0015107583
-0.0014754278
-0.0014498893
-0.0014249734
-0.0013930173
-0.0013413214
-0.0012408095
-0.0010164596
-0.00084634388
-0.00078549351
-0.00073924224
-0.00070241839
-0.00067019187
-0.00063776505
-0.00060005536
-0.00055112992
-0.00048632936
-0.00041982963
-0.00038150128
-0.00035485658
-0.00032063238
-0.00028580627
-0.00025159571
-0.00021671906
-0.00017916918
-0.00013765449
-9.437849e-05
-6.0634875e-05
3.0963237e-05
5.0922267e-05
8.1417767e-05
0.00011557566
0.000150505
0.00018582656
0.0002219187
0.00025821416
0.00029124709
0.00031302082
0.00041836515
0.00044149624
0.00047523713
0.00051163286
0.00054766369
0.00058304659
0.00061823539
0.00065276063
0.00068353114
0.00070347889
0.00077858834
0.00081725983
0.0008622402
0.00090389486
0.00094130473
0.0009762826
0.0010110189
0.0010468414
0.0010823967
0.0011096876
0.0010964773
0.0011827853
0.0012486852
0.0012965114
0.0013334759
0.0013658397
0.0013987716
0.0014372177
0.0014855304
0.0015393332
0.0013250334
0.0015653702
0.0016498952
0.0016966706
0.0017269149
0.0017514772
0.0017776331
0.0018143236
0.0018797488
0.0020195855
0.00046937752
0.00058890428
0.00061894406
0.00063323732
0.0006414398
0.00064775327
0.00065473838
0.0006659472
0.00069060697
0.00075917171
-0.00097872195
-0.00081221498
-0.00077869599
-0.00076630662
-0.00075852705
-0.00075108943
-0.00074078065
-0.00072131261
-0.00067419952
-0.0005356957
-0.0020832838
-0.0017832448
-0.0017020511
-0.0016619736
-0.0016328304
-0.001604231
-0.0015674047
-0.0015077049
-0.0013915092
-0.0011319947
-0.00094326805
-0.00087440551
-0.00082199682
-0.00078009441
-0.00074324277
-0.00070600126
-0.00066256604
-0.00060613755
-0.00053141519
-0.00045503321
-0.00041276209
-0.00038250869
-0.0003435413
-0.00030375469
-0.00026453711
-0.00022443601
-0.00018116921
-0.00013328619
-8.3389155e-05
-4.4591701e-05
5.9693008e-05
8.2518794e-05
0.00011743577
0.00015661209
0.00019675443
0.00023743368
0.00027907731
0.00032100786
0.00035918379
0.00038432574
0.00050512446
0.00053174387
0.00057055002
0.00061242082
0.00065391808
0.00069474379
0.00073543402
0.00077544323
0.00081116741
0.00083435611
0.00092094317
0.00096560836
0.0010174691
0.0010654719
0.001108619
0.0011490463
0.0011893185
0.0012309976
0.0012725091
0.0013044633
0.0012894923
0.001389364
0.0014653879
0.0015205148
0.0015631679
0.0016006213
0.0016389013
0.001683812
0.0017404896
0.0018037885
0.0015561246
0.00183455
0.0019318348
0.0019856543
0.0020205293
0.0020489722
0.0020794422
0.0021224379
0.0021994188
0.0023642663
0.00055122592
0.00068972982
0.00072423558
0.00074065105
0.00075010051
0.00075741241
0.00076555968
0.00077871514
0.00080775906
0.00088861359
-0.0010909924
-0.00090473246
-0.00086735744
-0.0008535305
-0.00084480572
-0.000836419
-0.00082475155
-0.00080267381
-0.00074918944
-0.00059183761
-0.0023160577
-0.0019806052
-0.0018900746
-0.001845297
-0.0018125833
-0.001780331
-0.0017386694
-0.0016710204
-0.0015392479
-0.0012448109
-0.0010368074
-0.00096000448
-0.00090149916
-0.00085456927
-0.00081313561
-0.00077111869
-0.00072199816
-0.00065811804
-0.00057354026
-0.00048734705
-0.00044065461
-0.00040682704
-0.00036316328
-0.00031846344
-0.00027428285
-0.00022899758
-0.00018005264
-0.0001258428
-6.9366507e-05
-2.554992e-05
9.153226e-05
0.00011719947
0.00015649817
0.00020065014
0.00024596406
0.00029196408
0.00033912505
0.00038665786
0.00042994776
0.0004584372
0.00059451207
0.0006245933
0.00066842594
0.00071573083
0.00076265627
0.00080889183
0.0008550534
0.0009005193
0.00094117351
0.00096758725
0.0010652475
0.0011158652
0.001174558
0.0012288659
0.001277713
0.0013235596
0.0013693405
0.0014168483
0.0014642879
0.0015008818
0.0014835909
0.001596934
0.0016830123
0.0017453918
0.0017936983
0.0018362144
0.0018798184
0.0019311621
0.0019961605
0.0020689009
0.0017872813
0.0021035356
0.0022134907
0.0022743064
0.0023137835
0.0023460858
0.0023808515
0.0024301193
0.0025185903
0.0027082984
0.00063291617
0.00079026802
0.00082920754
0.00084773014
0.00085841861
0.00086672319
0.00087602778
0.00089111902
0.00092452137
0.001017591
-0.0012019386
-0.00099610063
-0.000954906
-0.00093965601
-0.00092999526
-0.00092066784
-0.00090765311
-0.00088298503
-0.00082317981
-0.00064712648
-0.0025453783
-0.0021748293
-0.0020750523
-0.0020256227
-0.0019893735
-0.001953502
-0.0019070428
-0.0018315084
-0.0016842808
-0.0013551952
-0.0011274673
-0.0010428002
-0.00097826055
-0.00092635497
-0.00088038351
-0.00083363548
-0.00077887131
-0.00070760137
-0.00061324175
-0.00051731729
-0.00046586451
-0.00042849837
-0.00038018562
-0.0003306213
-0.00028152383
-0.00023110138
-0.00017652169
-0.00011603811
-5.3030422e-05
-4.2341784e-06
0.00012566636
0.00015414849
0.00019778707
0.00024686818
0.00029730703
0.00034858283
0.00040121972
0.00045430781
0.00050267303
0.00053448119
0.00068562659
0.00071913971
0.00076795718
0.00082065202
0.00087295933
0.00092456472
0.00097615941
0.0010270412
0.0010725924
0.0011022105
0.001210562
0.0012670861
0.0013325555
0.0013931202
0.0014476188
0.0014988451
0.0015500953
0.0016033881
0.0016567157
0.001697923
0.0016778831
0.001804593
0.001900645
0.0019702224
0.0020241363
0.0020716757
0.0021205693
0.0021782962
0.0022515509
0.0023336636
0.0020177863
0.0023715742
0.0024940994
0.0025618581
0.0026059033
0.0026420315
0.0026810726
0.0027365664
0.00283644
0.0030508324
0.00071424838
0.00089030177
0.00093363876
0.00095425141
0.00096616956
0.00097545681
0.00098591496
0.0010029283
0.0010406568
0.0011458566
-0.001311499
-0.0010862762
-0.0010413021
-0.0010246452
-0.0010140582
-0.0010037993
-0.00098945102
-0.00096221214
-0.00089614218
-0.00070155092
-0.0027712243
-0.0023659291
-0.0022570054
-0.0022029771
-0.0021632275
-0.0021237791
-0.0020725592
-0.0019892159
-0.0018266706
-0.0014632427
-0.001215491
-0.0011230445
-0.0010525391
-0.0009957169
-0.00094525157
-0.00089383243
-0.00083345301
-0.00075486886
-0.00065080314
-0.00054523391
-0.00048882794
-0.00044796203
-0.00039505011
-0.00034067452
-0.00028670306
-0.00023120808
-0.00017102687
-0.00010434016
-3.4846636e-05
1.8897817e-05
0.00016148712
0.00019275603
0.00024068521
0.00029464067
0.00035015162
0.00040663471
0.00046470902
0.00052327667
0.00057666111
0.00061174364
0.00077774058
0.00081465132
0.00086840891
0.00092644999
0.00098408512
0.0010410073
0.0010980063
0.0011542477
0.0012046486
0.001237436
0.0013560962
0.001418477
0.0014906594
0.0015574403
0.0016175272
0.0016740824
0.0017307677
0.0017897923
0.0018489614
0.0018947766
0.0018716099
0.0020115731
0.0021174986
0.002194223
0.0022536788
0.0023061751
0.0023603211
0.0024243689
0.0025057841
0.0025971925
0.0022470285
0.0026380202
0.0027730017
0.0028476552
0.0028962397
0.0029361221
0.002979428
0.0030411065
0.0031522516
0.0033911065
0.00079504944
0.00098964068
0.0010373347
0.0010600201
0.0010731642
0.0010834084
0.0010950226
0.0011139519
0.0011559615
0.0012731885
-0.0014195553
-0.0011751604
-0.0011264516
-0.0011084081
-0.0010969038
-0.0010857243
-0.0010700592
-0.0010402642
-0.00096798361
-0.00075503097
-0.0029933598
-0.0025537045
-0.0024357465
-0.0023771871
-0.0023339585
-0.0022910053
-0.0022350466
-0.0021440007
-0.0019663084
-0.0015688857
-0.0013008634
-0.001200735
-0.0011243461
-0.0010626954
-0.0010077592
-0.00095180039
-0.00088577511
-0.00079997201
-0.00068628083
-0.00057117321
-0.00050974555
-0.00046542377
-0.00040795755
-0.00034883683
-0.00028997212
-0.00022953557
-0.00016370416
-9.0888565e-05
-1.4911566e-05
4.3836593e-05
0.00019854764
0.00023257343
0.0002847294
0.0003434686
0.00040403075
0.00046553627
0.00052904701
0.00059295044
0.00065124476
0.00068955316
0.00087024077
0.00091050776
0.00096915269
0.0010324919
0.0010954208
0.0011575082
0.0012199341
0.0012814466
0.0013365638
0.001372361
0.0015011276
0.0015693176
0.0016481322
0.0017211459
0.0017867792
0.0018485601
0.0019107176
0.0019754658
0.0020404293
0.0020908763
0.0020640377
0.0022171509
0.0023327757
0.0024166452
0.0024815683
0.002538843
0.0025981981
0.0026685548
0.0027580194
0.002858695
0.0024744231
0.0029022729
0.003049538
0.0031310717
0.0031842632
0.0032276745
0.0032751776
0.0033430849
0.0034653179
0.0037283316
0.00087515262
0.0010881053
0.0011401011
0.0011648437
0.0011792666
0.0011903825
0.0012031313
0.0012240138
0.0012702484
0.0013993564
-0.0015259024
-0.0012625684
-0.0012101758
-0.0011907779
-0.0011783595
-0.0011662765
-0.001149314
-0.0011169497
-0.0010384525
-0.00080727375
-0.0032112388
-0.002737649
-0.0026107785
-0.0025478002
-0.0025010084
-0.0024547116
-0.0023939756
-0.002295411
-0.0021028659
-0.0016718711
-0.0013832412
-0.0012755554
-0.0011933923
-0.0011271645
-0.0010676565
-0.0010076282
-0.0009358252
-0.00084296648
-0.00071988325
-0.000595628
-0.00052854938
-0.00048082489
-0.00041877914
-0.00035508896
-0.0002909076
-0.00022590337
-0.00015404836
-7.4984146e-05
7.7222611e-06
7.1876111e-05
0.00023650489
0.0002732568
0.00032959337
0.00039279315
0.00045877899
0.00052467572
0.00059377936
0.00066285611
0.00072595728
0.00076783967
0.00096254377
0.0010061121
0.0010695765
0.0011379434
0.0012064359
0.0012729438
0.0013407937
0.0014073593
0.0014666722
0.0015047974
0.0016449203
0.0017189105
0.001804221
0.0018835722
0.0019551403
0.0020217526
0.0020895557
0.0021602514
0.0022308761
0.0022856244
0.0022543193
0.0024206115
0.002545429
0.0026365535
0.0027071996
0.0027687316
0.0028330782
0.002910052
0.0030076668
0.0031177572
0.0026993066
0.0031638206
0.0033228463
0.003411159
0.0034697067
0.0035161427
0.0035671449
0.0036415154
0.0037748501
0.004061823
0.0009543747
0.0011855535
0.0012417044
0.0012683902
0.0012844738
0.0012963118
0.0013098905
0.0013328105
0.0013832841
0.0015241259
-0.0016301579
-0.0013481455
-0.0012921269
-0.0012714602
-0.0012581132
-0.0012451962
-0.0012269769
-0.0011918947
-0.0011067466
-0.00085699013
-0.0034237385
-0.002916692
-0.0027809584
-0.0027138279
-0.0026627821
-0.002613356
-0.0025474428
-0.0024415046
-0.0022345791
-0.0017701422
-0.0014617962
-0.0013467681
-0.0012589321
-0.0011892751
-0.0011246094
-0.0010623742
-0.00098504578
-0.00088593654
-0.00075504252
-0.00062423692
-0.00054479642
-0.00049377576
-0.00042662003
-0.00035945311
-0.00028773357
-0.00021936296
-0.00014049593
-5.42446e-05
3.6070821e-05
0.00010587326
0.00027504075
0.00031443676
0.00037551285
0.00044133765
0.00051560298
0.00058439812
0.00065997495
0.00073515502
0.0008043339
0.0008531712
0.0010539286
0.0011006331
0.0011692679
0.0012401965
0.0013165055
0.0013845687
0.0014567702
0.0015276907
0.00159001
0.0016298213
0.0017866365
0.0018665886
0.0019584877
0.0020430263
0.0021236062
0.0021937832
0.0022667282
0.0023436887
0.0024190506
0.0024756608
0.0024412177
0.002621563
0.0027540815
0.0028515665
0.0029306483
0.0029959254
0.003063888
0.0031482479
0.0032547285
0.0033739326
0.0029205759
0.0034229328
0.0035919385
0.0036846325
0.0037520562
0.0038026486
0.0038541868
0.0039346207
0.0040798717
0.0043913736
0.0010324059
0.0012821624
0.0013420305
0.0013693661
0.0013885654
0.0014019242
0.0014151063
0.0014396643
0.0014945757
0.0016473323
-0.0017315175
-0.0014311449
-0.0013715741
-0.0013500306
-0.0013358596
-0.0013227056
-0.0013038453
-0.0012657558
-0.0011714917
-0.00089983238
-0.0036284772
-0.003088562
-0.0029433548
-0.002872797
-0.002813842
-0.0027598235
-0.0026854109
-0.0025694061
-0.0023456963
-0.0018411693
-0.0015349628
-0.0014132913
-0.0013191976
-0.0012513871
-0.0011794474
-0.001121103
-0.001041753
-0.0009407041
-0.00080993757
-0.0006836625
-0.00055745483
-0.00050388314
-0.00042794204
-0.00036413283
-0.0002773545
-0.00020998181
-0.00012558877
-3.2602884e-05
6.2754535e-05
0.00012613379
0.00031382785
0.00035481531
0.0004268013
0.0004850994
0.00058095239
0.00065298696
0.00073942778
0.00082804755
0.00091185384
0.00097892607
0.0011431765
0.0011911981
0.0012716078
0.0013288923
0.0014233733
0.0014873677
0.0015589155
0.0016333772
0.0017010024
0.0017528178
0.0019251896
0.0020106145
0.002115607
0.0021910134
0.002292986
0.002366074
0.0024389954
0.0025195239
0.0025962601
0.0026513046
0.0026221495
0.0028206799
0.002961864
0.0030524956
0.0031502076
0.0032249216
0.0032922943
0.0033821862
0.0034965682
0.0036207598
0.0031344642
0.0036833493
0.0038627011
0.003940391
0.0040214378
0.0040912694
0.0041408784
0.0042230501
0.0043794521
0.0047143334
0.0011078991
0.0013795584
0.0014442505
0.0014637418
0.0014865032
0.0015084566
0.001521047
0.0015451529
0.0016038414
0.0017684072
-0.001828064
-0.001509848
-0.0014469132
-0.0014266998
-0.0014139524
-0.0014061902
-0.0013948943
-0.0013599332
-0.0012516105
-0.00094621913
-0.0038199638
-0.0032482377
-0.0030892152
-0.003016906
-0.0029343816
-0.002860919
-0.0027560824
-0.0026044397
-0.0023323444
-0.0017276139
-0.0016000586
-0.0014753362
-0.0013687268
-0.0013228192
-0.0012364483
-0.0011923471
-0.0011183467
-0.0010202058
-0.0009009344
-0.00077713887
-0.00056436719
-0.00051492577
-0.00040953353
-0.0003826473
-0.00026750911
-0.00022012017
-0.00016002534
-9.2283707e-05
-3.4969226e-05
-6.3829839e-05
0.00035363143
0.00038439584
0.00050961865
0.00051486788
0.00067214574
0.00076617249
0.00087833325
0.00099958069
0.0011101562
0.0011717181
0.0012292313
0.0012578185
0.0014075307
0.00137592
0.0015150145
0.0015821076
0.0016493324
0.0017356167
0.0018335889
0.0019407571
0.0020604694
0.0021298549
0.0023169486
0.0023019964
0.0024447851
0.0025354045
0.0025982943
0.0026726035
0.0027518417
0.0028308554
0.0027905306
0.0030054563
0.0032142686
0.0032228688
0.0033393247
0.0034546916
0.0035235811
0.0036082392
0.00372111
0.0038507717
0.0033215037
0.0039420748
0.0041983296
0.0041851417
0.0042267834
0.0043572791
0.0044319238
0.004515531
0.0046744564
0.0050241208
0.0011720127
0.0014774041
0.0015751664
0.0015599344
0.0015559259
0.0016009757
0.0016273715
0.0016536515
0.0017138126
0.0018867611
-0.0019146884
-0.0015801209
-0.0015147586
-0.0015077457
-0.0015164495
-0.0015585849
-0.001630899
-0.0016916768
-0.0016292685
-0.0013255082
-0.0039843198
-0.0033844251
-0.0031906827
-0.0031193504
-0.0029618311
-0.002800585
-0.002576325
-0.0022850107
-0.0018314473
-0.00089446167
-0.0016519856
-0.0015434228
-0.001386911
-0.0014191768
-0.0012876988
-0.0012186525
-0.0010738071
-0.00084647843
-0.00056842185
-7.7855503e-05
-0.00055834088
-0.0005608772
-0.00032948913
-0.00046166503
-0.00033814177
-0.00038830245
-0.00049978766
-0.00062431644
-0.00076617869
-0.0010126088
0.00040916572
0.00033290693
0.00072793135
0.00053343129
0.00080129385
0.00097761867
0.0011221373
0.0012388308
0.0012647115
0.0010090887
0.0013326338
0.0011609596
0.00171814
0.0013748515
0.0015564942
0.001695695
0.0018015263
0.0019338651
0.0020859996
0.0021562201
0.0022265012
0.0020268633
0.0027420752
0.0023990375
0.0025060615
0.0026602495
0.0027442315
0.0028301254
0.0029492139
0.0030920645
0.0029613018
0.0029637474
0.0037061794
0.0034691326
0.0034397884
0.0036117067
0.0037242616
0.0038166892
0.0039406592
0.0041236812
0.0034100702
0.0039593231
0.0048006194
0.004727946
0.0044123269
0.0044982039
0.0046346819
0.004760143
0.0049416738
0.0053411288
0.0011802959
0.0014840562
0.001804953
0.0018111005
0.0016406663
0.0016406853
0.0016874799
0.001735919
0.0018094945
0.0020022223
-0.0019760868
-0.0016323446
-0.0015693892
-0.0016308998
-0.0017832264
-0.0021506787
-0.0028234561
-0.0037366173
-0.0045023869
-0.0049665817
-0.0040841814
-0.0034741349
-0.0031653221
-0.0031002931
-0.002771718
-0.0024049069
-0.0020290025
-0.0017634439
-0.0014951102
-0.00085154866
-0.0016762665
-0.0016740992
-0.0013024246
-0.0014974089
-0.0011698612
-0.00065999023
0.00029632722
0.0017547329
0.0034812433
0.0061623165
-0.00049580007
-0.00081655583
-0.00010219588
-0.00068399222
-0.00076304738
-0.001102333
-0.0016285879
-0.0020405758
-0.0020519879
-0.0009438726
0.00061271879
-0.00016694967
0.001308105
0.00067046898
0.00088976423
0.0011168906
0.0011207006
0.00090216907
0.0004754437
-0.00011882238
0.0017166527
0.00015630815
0.0024593683
0.0016224964
0.0015938277
0.001853433
0.0020640248
0.0021610613
0.0020819263
0.0015364147
0.0028903744
0.00051146642
0.0035318374
0.0029261898
0.0025935946
0.0027114683
0.0029012229
0.0030658616
0.0031653811
0.002938165
0.0037199812
0.001201585
0.0042538737
0.0043865012
0.0038304735
0.0037412441
0.003848375
0.0040054024
0.0041785696
0.0042114245
0.0036485941
0.0018036475
0.0045604894
0.0062112311
0.0056571925
0.0051902395
0.0050325459
0.0050625429
0.005238568
0.0055872499
0.001103092
0.0006388972
0.001532133
0.0024262793
0.0022708765
0.0020301019
0.0019072021
0.0018786244
0.0019291053
0.002111079
-0.0019577107
-0.0016440978
-0.0016061698
-0.0019528391
-0.0027988643
-0.0047630361
-0.008541405
-0.014255048
-0.020287433
-0.0251213
-0.004013919
-0.0034866076
-0.0028153634
-0.0028062067
-0.0024740665
-0.0026188906
-0.0043947953
-0.0092231076
-0.017167001
-0.028181435
-0.0016226959
-0.0020858078
-0.00094229478
-0.0011619522
-4.5929113e-05
0.0025377477
0.0069168731
0.012369941
0.01614364
0.015762912
-0.00011729381
-0.0019063355
0.00022400326
-0.0010099695
-0.0018076598
-0.002314856
-0.0021417271
-0.00033584089
0.0033263742
0.0095589606
0.0018460412
-0.0023692544
0.0020333574
0.0013304455
0.00072847095
0.00034692783
-0.00012140723
-0.00020973175
0.00095954306
0.0053747178
0.00446698
-0.0041468312
0.0025462512
0.0028159709
0.002212184
0.0019660928
0.0017603353
0.0014730111
0.0016094622
0.0039158207
0.0082360347
-0.0060019836
0.0016318174
0.0038302103
0.0036108328
0.0032735507
0.003117751
0.0029425675
0.0028407695
0.0039155797
0.011883071
-0.0057359707
-0.00088913401
0.0034907965
0.0045789673
0.0045717466
0.0044280943
0.0042947651
0.0041779216
0.0046802582
0.01163061
-0.0046687673
-0.0073277169
-0.0012757964
0.0025670845
0.0043086531
0.0050098941
0.0052816653
0.0053953872
0.0059340255
0.0032897238
-0.0015441431
-0.0040532324
-0.0017979618
0.00010182519
0.0011454881
0.0016393974
0.0018620282
0.0019742885
0.0022211205
-0.0016223072
-0.0015269186
-0.0015936872
-0.0029235297
-0.0062474287
-0.013643648
-0.027440666
-0.047051456
-0.062024388
-0.045021275
-0.0034326516
-0.0033897215
-0.0017261933
-0.0021449018
-0.0040319593
-0.011023193
-0.029954242
-0.066826022
-0.11213709
-0.11350806
-0.001339577
-0.0034344937
-9.4757292e-05
0.0010652704
0.0042870366
0.010508925
0.016385877
0.011579499
-0.019155602
-0.070777167
0.0017858312
-0.0051947813
-0.0005199349
-0.00081298706
-0.0017549467
6.427859e-06
0.0058027543
0.01206067
0.0041498467
-0.035928983
0.0086066093
-0.007473568
-0.00027168184
0.0019700869
0.00054773327
-0.00090720462
0.00049693775
0.0059336444
0.0080269788
-0.01500248
0.021802818
-0.0099870378
-0.0041194652
0.0021118028
0.003438236
0.0020610076
0.00094783974
0.0030013453
0.0068175823
-0.0042434855
0.045963268
-0.004148445
-0.0098395615
-0.0030778709
0.0022146809
0.0037629784
0.0031550187
0.0032763455
0.0058746429
0.0011382716
0.080533463
0.028657878
-0.0016493887
-0.0068836018
-0.0033022964
0.00064643936
0.0025674463
0.0033660637
0.005283468
0.0037173577
0.10724494
0.11029021
0.060562902
0.027933541
0.012573249
0.0069974165
0.0053284178
0.0048593426
0.0056797118
0.0054155332
0.038234878
0.055237991
0.037320902
0.020823614
0.010601682
0.0054706412
0.0032276366
0.0023130602
0.0021835631
0.0021369412
-0.0022725971
-0.001758561
-0.0015549033
-0.00019691416
0.0030690142
0.010268236
0.023648011
0.042700743
0.057648019
0.040776944
-0.0050008592
-0.0039243186
-0.0052197117
-0.0046294607
-0.0026600664
0.0042943995
0.022964215
0.05934648
0.1049094
0.10633988
-0.002498648
-0.0001561778
-0.0032037902
-0.0041620447
-0.0071389452
-0.013014265
-0.018391041
-0.013062629
0.018078881
0.070296087
-0.0030480582
0.0038878182
-0.00048841292
-4.7337101e-05
0.0010581116
-0.0005242481
-0.0060809898
-0.012043212
-0.0040305235
0.037274213
-0.0074158137
0.0082819118
0.0015080468
-0.00057030906
0.0010311354
0.0026708853
0.0014664049
-0.0037401141
-0.0058346821
0.017939533
-0.018123226
0.012745269
0.0075010554
0.0014931737
0.00036195362
0.0019284429
0.0032281802
0.0013821188
-0.0023676221
0.0090868452
-0.039789903
0.0088588576
0.015262178
0.0088104937
0.0037432139
0.002399494
0.0031968897
0.0032750538
0.00082057384
0.0058098148
-0.072510194
-0.021510181
0.0094349911
0.014959742
0.011485458
0.0076586543
0.0058896551
0.0052823385
0.0035870333
0.0054436876
-0.099060996
-0.10194669
-0.052067597
-0.018587978
-0.0027501701
0.0030916689
0.0049545564
0.00562643
0.0051159056
0.0059739988
-0.035661279
-0.052532355
-0.034707626
-0.017720884
-0.007171134
-0.0018714078
0.00046517761
0.0014547529
0.0017029472
0.002026815
-0.0024380572
-0.0020303674
-0.0019578341
-0.0020538504
-0.002355647
-0.0029720649
-0.0038353776
-0.0038992213
-0.00030619551
0.00022524558
-0.0051003894
-0.0043800547
-0.0040223522
-0.003973716
-0.0043249505
-0.0054637158