/*--------------------------------*- C++ -*----------------------------------*\
| =========                 |                                                 |
| \\      /  F ield         | OpenFOAM: The Open Source CFD Toolbox           |
|  \\    /   O peration     | Version:  v2106                                 |
|   \\  /    A nd           | Website:  www.openfoam.com                      |
|    \\/     M anipulation  |                                                 |
\*---------------------------------------------------------------------------*/
FoamFile
{
    version     2.0;
    format      ascii;
    arch        "LSB;label=32;scalar=64";
    class       volVectorField;
    location    "25";
    object      gradT;
}
// * * * * * * * * * * * * * * * * * * * * * * * * * * * * * * * * * * * * * //

dimensions      [0 -1 0 1 0 0 0];

internalField   nonuniform List<vector> 
4000
(
(-0.00030416304 -0.00030416304 434.51571)
(0.00082455106 0.0005552566 434.51413)
(0.0011392038 0.00019636405 434.51974)
(-0.00031848493 0.00015216466 434.51917)
(-0.00029557875 0.00015435472 434.51832)
(-0.000218061 0.00016055484 434.51771)
(-0.00020775409 0.00016645993 434.51719)
(-0.00022848124 0.00016160912 434.51662)
(-0.00020228795 0.00012326865 434.51598)
(-5.4790269e-05 6.0248212e-05 434.51561)
(0.0005552566 0.00082455106 434.51413)
(0.0015753417 0.0015753417 434.51743)
(0.00053456592 0.00094970728 434.52089)
(-0.00038149892 0.00087475634 434.52003)
(-0.00028299347 0.00088284167 434.51918)
(-0.00019990319 0.00090403256 434.51862)
(-0.00020617268 0.00093206191 434.51815)
(-0.00029326816 0.00094205383 434.51753)
(-0.00035432931 0.0008576135 434.51655)
(-0.00011781071 0.00062477534 434.51578)
(0.00019636405 0.0011392038 434.51974)
(0.00094970728 0.00053456592 434.52089)
(0.00043861847 0.00043861846 434.52391)
(-0.00038535054 0.0004309015 434.52299)
(-0.00026630253 0.00044187599 434.52216)
(-0.00016884076 0.00046602157 434.52166)
(-0.00016973282 0.000506286 434.52129)
(-0.00030292965 0.00055806849 434.52076)
(-0.00051956644 0.00058123316 434.51961)
(-0.00021001571 0.00049796594 434.51814)
(0.00015216466 -0.00031848493 434.51917)
(0.00087475633 -0.00038149893 434.52003)
(0.0004309015 -0.00038535054 434.52299)
(-0.0003782414 -0.0003782414 434.52206)
(-0.0002478734 -0.00036372305 434.52126)
(-0.00013549319 -0.00034028744 434.52083)
(-0.00011412576 -0.00030425398 434.52057)
(-0.00021832099 -0.00024967473 434.52022)
(-0.00041443186 -0.00017424178 434.51931)
(-0.00017332219 -9.379762e-05 434.51809)
(0.00015435472 -0.00029557875 434.51832)
(0.00088284167 -0.00028299347 434.51918)
(0.000441876 -0.00026630252 434.52216)
(-0.00036372305 -0.0002478734 434.52126)
(-0.00022834857 -0.00022834857 434.52051)
(-0.00010937169 -0.00020663262 434.52014)
(-7.9120112e-05 -0.00018143008 434.51996)
(-0.00017291745 -0.00015127503 434.51971)
(-0.00036368933 -0.000116439 434.51894)
(-0.00015638627 -8.3948037e-05 434.51785)
(0.00016055484 -0.00021806101 434.51771)
(0.00090403256 -0.00019990319 434.51862)
(0.00046602157 -0.00016884077 434.52166)
(-0.00034028744 -0.0001354932 434.52083)
(-0.00020663262 -0.0001093717 434.52014)
(-8.8574705e-05 -8.8574706e-05 434.51982)
(-5.8768171e-05 -7.150478e-05 434.51969)
(-0.00015332991 -5.7762108e-05 434.5195)
(-0.00034710486 -4.7480095e-05 434.51878)
(-0.00015166155 -4.1582468e-05 434.51772)
(0.00016645993 -0.00020775409 434.51719)
(0.0009320619 -0.00020617269 434.51815)
(0.000506286 -0.00016973282 434.52129)
(-0.00030425398 -0.00011412576 434.52057)
(-0.00018143008 -7.9120105e-05 434.51996)
(-7.1504775e-05 -5.8768169e-05 434.51969)
(-4.8307515e-05 -4.830751e-05 434.5196)
(-0.00014889277 -4.6493223e-05 434.51942)
(-0.00034750969 -5.2071201e-05 434.51871)
(-0.00015245452 -6.1307131e-05 434.51765)
(0.00016160912 -0.00022848125 434.51662)
(0.00094205383 -0.00029326815 434.51753)
(0.0005580685 -0.00030292965 434.52076)
(-0.00024967472 -0.00021832098 434.52022)
(-0.00015127503 -0.00017291744 434.51971)
(-5.776211e-05 -0.00015332991 434.5195)
(-4.6493225e-05 -0.00014889277 434.51942)
(-0.0001570936 -0.0001570936 434.51924)
(-0.00036191877 -0.00017570899 434.51849)
(-0.00015781884 -0.00019766927 434.51738)
(0.00012326866 -0.00020228795 434.51598)
(0.00085761351 -0.0003543293 434.51655)
(0.00058123316 -0.00051956644 434.51961)
(-0.00017424178 -0.00041443186 434.51931)
(-0.000116439 -0.00036368934 434.51894)
(-4.7480099e-05 -0.00034710487 434.51878)
(-5.2071203e-05 -0.00034750969 434.51871)
(-0.00017570898 -0.00036191877 434.51849)
(-0.00038808536 -0.00038808536 434.51766)
(-0.0001670947 -0.00041466803 434.51648)
(6.0248211e-05 -5.4790263e-05 434.51561)
(0.00062477533 -0.00011781071 434.51578)
(0.00049796594 -0.00021001571 434.51814)
(-9.3797618e-05 -0.00017332219 434.51809)
(-8.3948038e-05 -0.00015638627 434.51785)
(-4.1582467e-05 -0.00015166155 434.51772)
(-6.1307134e-05 -0.00015245452 434.51765)
(-0.00019766927 -0.00015781884 434.51738)
(-0.00041466803 -0.0001670947 434.51648)
(-0.00017554062 -0.00017554062 434.51525)
(-0.00066983428 -0.00066983428 644.01136)
(0.0035692417 0.0016335417 644.01095)
(0.0041453413 0.00055541869 644.01599)
(-0.0011806238 0.0003947498 644.01541)
(-0.0013098224 0.00039887111 644.01436)
(-0.001038198 0.00042709674 644.01355)
(-0.0010169936 0.00045611861 644.01283)
(-0.0011376943 0.00042454774 644.01195)
(-0.00090607863 0.00020318068 644.01086)
(-0.00020335347 -9.7255805e-06 644.01071)
(0.0016335417 0.0035692417 644.01095)
(0.0054071212 0.0054071212 644.01381)
(0.0022871535 0.0034029016 644.01723)
(-0.0014154452 0.0030929538 644.01638)
(-0.001261302 0.0031143821 644.01535)
(-0.00095232677 0.0032144637 644.01461)
(-0.0010208171 0.0033529098 644.01398)
(-0.0015171012 0.0033855065 644.01303)
(-0.0015574886 0.0028836741 644.01118)
(-0.00041625973 0.0019257961 644.0103)
(0.00055541869 0.0041453413 644.01599)
(0.0034029016 0.0022871535 644.01723)
(0.001831174 0.001831174 644.02018)
(-0.0014691434 0.001754764 644.01923)
(-0.0011883125 0.0017979122 644.01822)
(-0.00079967033 0.0019159832 644.01758)
(-0.00084595075 0.0021148221 644.01712)
(-0.00160693 0.0023603468 644.01633)
(-0.0023657891 0.0024061097 644.01426)
(-0.00084193885 0.0019734337 644.01253)
(0.0003947498 -0.0011806238 644.01541)
(0.0030929538 -0.0014154452 644.01638)
(0.001754764 -0.0014691434 644.01923)
(-0.001448707 -0.001448707 644.01827)
(-0.0011000828 -0.0013800617 644.0173)
(-0.00063541686 -0.0012646428 644.01676)
(-0.00057645348 -0.0010869269 644.01646)
(-0.0012258137 -0.00082235715 644.01593)
(-0.0019444016 -0.00048524059 644.01416)
(-0.00070471041 -0.00015851539 644.0127)
(0.00039887111 -0.0013098224 644.01436)
(0.0031143821 -0.001261302 644.01535)
(0.0017979122 -0.0011883125 644.01822)
(-0.0013800617 -0.0011000828 644.0173)
(-0.0010042484 -0.0010042484 644.0164)
(-0.00050653551 -0.00089743806 644.01594)
(-0.00040366508 -0.00077331678 644.01576)
(-0.0010052438 -0.00062450283 644.01539)
(-0.0017019473 -0.00045581757 644.0138)
(-0.00062412205 -0.00029785799 644.01251)
(0.00042709674 -0.001038198 644.01355)
(0.0032144637 -0.00095232678 644.01461)
(0.0019159832 -0.00079967034 644.01758)
(-0.0012646428 -0.00063541686 644.01676)
(-0.00089743806 -0.0005065355 644.01594)
(-0.00040448525 -0.00040448525 644.01556)
(-0.00030351825 -0.00032138201 644.01546)
(-0.00090831444 -0.00025474382 644.01517)
(-0.0016177568 -0.00020543364 644.01365)
(-0.00059940403 -0.00017626529 644.01242)
(0.00045611861 -0.0010169936 644.01283)
(0.0033529098 -0.0010208171 644.01398)
(0.0021148221 -0.00084595075 644.01712)
(-0.0010869269 -0.00057645347 644.01646)
(-0.00077331678 -0.00040366508 644.01576)
(-0.00032138201 -0.00030351825 644.01546)
(-0.00025392365 -0.00025392365 644.01541)
(-0.00088929538 -0.00024876289 644.01514)
(-0.0016234688 -0.00028244366 644.01361)
(-0.00060467649 -0.00033788914 644.01236)
(0.00042454774 -0.0011376943 644.01195)
(0.0033855065 -0.0015171012 644.01303)
(0.0023603468 -0.00160693 644.01633)
(-0.00082235715 -0.0012258136 644.01593)
(-0.00062450283 -0.0010052438 644.01539)
(-0.00025474382 -0.00090831444 644.01517)
(-0.00024876289 -0.00088929538 644.01514)
(-0.00093683445 -0.00093683445 644.01483)
(-0.0017068831 -0.0010400091 644.01323)
(-0.00063636768 -0.0011637107 644.01186)
(0.00020318068 -0.00090607863 644.01086)
(0.0028836741 -0.0015574886 644.01118)
(0.0024061097 -0.0023657891 644.01426)
(-0.00048524059 -0.0019444016 644.01416)
(-0.00045581758 -0.0017019473 644.0138)
(-0.00020543364 -0.0016177568 644.01365)
(-0.00028244366 -0.0016234688 644.01361)
(-0.0010400091 -0.0017068831 644.01323)
(-0.0018503451 -0.0018503451 644.01148)
(-0.00068714423 -0.0019467076 644.00996)
(-9.7255774e-06 -0.00020335347 644.01071)
(0.001925796 -0.00041625973 644.0103)
(0.0019734337 -0.00084193886 644.01253)
(-0.00015851538 -0.00070471041 644.0127)
(-0.000297858 -0.00062412206 644.01251)
(-0.0001762653 -0.00059940403 644.01242)
(-0.00033788914 -0.00060467649 644.01236)
(-0.0011637107 -0.00063636768 644.01186)
(-0.0019467076 -0.00068714424 644.00996)
(-0.00070060937 -0.00070060937 644.00885)
(-0.00057579709 -0.00057579709 643.17357)
(0.0054526217 0.0024563122 643.17363)
(0.0055911109 0.0010248343 643.17673)
(-0.0019490177 0.00080295062 643.17612)
(-0.0021531697 0.00081278412 643.17523)
(-0.0017459306 0.00086816312 643.17456)
(-0.0018018108 0.00093387706 643.17395)
(-0.0022035214 0.0008765962 643.17306)
(-0.0014475899 0.00033648626 643.17158)
(-0.00015287138 -0.0002091532 643.17147)
(0.0024563122 0.0054526217 643.17363)
(0.0078535688 0.0078535688 643.17568)
(0.0031110686 0.0051434594 643.17782)
(-0.002267093 0.0047006898 643.17705)
(-0.0020553509 0.0047437917 643.17618)
(-0.0015642911 0.004934372 643.1756)
(-0.0017891612 0.005218805 643.17513)
(-0.0030996076 0.0053183893 643.17422)
(-0.003076214 0.0042573305 643.17186)
(-0.00069851085 0.0024446756 643.17091)
(0.0010248343 0.0055911109 643.17673)
(0.0051434594 0.0031110686 643.17782)
(0.0024382319 0.0024382319 643.17966)
(-0.0023486854 0.0023165195 643.17882)
(-0.0019194874 0.0023955711 643.17799)
(-0.0012709172 0.0026116056 643.17751)
(-0.0014177935 0.002983643 643.17723)
(-0.0031649959 0.0034622362 643.17653)
(-0.0043213036 0.003568904 643.17401)
(-0.001361308 0.0028922969 643.17236)
(0.00080295062 -0.0019490177 643.17612)
(0.0047006898 -0.002267093 643.17705)
(0.0023165195 -0.0023486854 643.17882)
(-0.0023097539 -0.0023097539 643.17799)
(-0.0017602649 -0.0021854227 643.17721)
(-0.00097621919 -0.0019782052 643.17682)
(-0.00093853055 -0.0016608463 643.1767)
(-0.0025143466 -0.0011934364 643.17626)
(-0.0036461533 -0.00062830172 643.174)
(-0.0011495823 -0.00010943712 643.17255)
(0.00081278412 -0.0021531697 643.17523)
(0.0047437917 -0.0020553509 643.17618)
(0.002395571 -0.0019194874 643.17799)
(-0.0021854227 -0.0017602649 643.17721)
(-0.0015879387 -0.0015879387 643.17649)
(-0.00074634081 -0.0013970718 643.17619)
(-0.00063302472 -0.001177085 643.17619)
(-0.0021324513 -0.00091598734 643.1759)
(-0.0032373043 -0.00062834212 643.1738)
(-0.0010153982 -0.00036483104 643.1725)
(0.00086816312 -0.0017459306 643.17456)
(0.004934372 -0.0015642911 643.1756)
(0.0026116056 -0.0012709173 643.17751)
(-0.0019782052 -0.00097621919 643.17682)
(-0.0013970718 -0.00074634081 643.17619)
(-0.00056536548 -0.00056536547 643.17598)
(-0.0004574461 -0.00042080931 643.17605)
(-0.0019656037 -0.00030944201 643.17582)
(-0.003094997 -0.00023451979 643.17378)
(-0.00097390821 -0.00019834402 643.17253)
(0.00093387706 -0.0018018108 643.17395)
(0.005218805 -0.0017891612 643.17513)
(0.002983643 -0.0014177935 643.17723)
(-0.0016608463 -0.00093853056 643.1767)
(-0.001177085 -0.00063302472 643.17619)
(-0.00042080931 -0.0004574461 643.17605)
(-0.00037710125 -0.00037710125 643.17616)
(-0.0019461618 -0.00038544495 643.17594)
(-0.0031262063 -0.00047681802 643.17388)
(-0.00099128106 -0.00062223171 643.17258)
(0.0008765962 -0.0022035214 643.17306)
(0.0053183893 -0.0030996076 643.17422)
(0.0034622362 -0.0031649959 643.17653)
(-0.0011934364 -0.0025143466 643.17626)
(-0.00091598734 -0.0021324513 643.1759)
(-0.00030944201 -0.0019656037 643.17582)
(-0.00038544495 -0.0019461618 643.17594)
(-0.0020653204 -0.0020653205 643.17567)
(-0.0033317838 -0.0023080769 643.17348)
(-0.0010708507 -0.0025893971 643.17199)
(0.00033648626 -0.0014475899 643.17158)
(0.0042573305 -0.003076214 643.17186)
(0.003568904 -0.0043213036 643.17401)
(-0.00062830172 -0.0036461533 643.174)
(-0.00062834212 -0.0032373043 643.1738)
(-0.00023451979 -0.003094997 643.17378)
(-0.00047681802 -0.0031262063 643.17388)
(-0.0023080769 -0.0033317838 643.17348)
(-0.003650283 -0.003650283 643.17104)
(-0.0011788279 -0.0034175773 643.1693)
(-0.0002091532 -0.00015287139 643.17147)
(0.0024446756 -0.00069851085 643.17091)
(0.0028922969 -0.001361308 643.17236)
(-0.00010943712 -0.0011495823 643.17255)
(-0.00036483104 -0.0010153982 643.1725)
(-0.00019834403 -0.00097390821 643.17253)
(-0.00062223171 -0.00099128106 643.17258)
(-0.0025893971 -0.0010708507 643.17199)
(-0.0034175773 -0.0011788279 643.1693)
(-0.00091571352 -0.00091571352 643.16889)
(-0.00063085258 -0.00063085258 643.6558)
(0.0067344919 0.0030015131 643.65558)
(0.0066381062 0.0012788332 643.65816)
(-0.0026829526 0.0010141163 643.65752)
(-0.0028722152 0.0010343146 643.65673)
(-0.0023156134 0.001121981 643.65619)
(-0.0025129169 0.0012405868 643.65575)
(-0.003508079 0.0011982425 643.65497)
(-0.0024940583 0.00038798213 643.6533)
(-0.00027680664 -0.00038826247 643.65288)
(0.0030015131 0.0067344918 643.65558)
(0.0095990205 0.0095990205 643.65708)
(0.003657011 0.0063261619 643.65882)
(-0.0030497305 0.0057965936 643.65806)
(-0.0027104182 0.0058744404 643.6573)
(-0.0020062052 0.0061661085 643.65686)
(-0.0023985248 0.0066249427 643.65659)
(-0.004786986 0.0068589635 643.65587)
(-0.0048738157 0.005305472 643.6534)
(-0.0010530512 0.0028152887 643.65236)
(0.0012788332 0.0066381062 643.65816)
(0.0063261619 0.003657011 643.65882)
(0.0028356792 0.0028356792 643.66032)
(-0.0031346741 0.002696045 643.65953)
(-0.0025027002 0.0028207959 643.65882)
(-0.0015651111 0.0031388701 643.65848)
(-0.0018200619 0.0036878541 643.6584)
(-0.0048275496 0.0044020692 643.6579)
(-0.006537733 0.0045455814 643.65526)
(-0.0019369289 0.0036228122 643.65357)
(0.0010141163 -0.0026829526 643.65752)
(0.0057965936 -0.0030497305 643.65806)
(0.002696045 -0.0031346741 643.65953)
(-0.0030646138 -0.0030646138 643.65875)
(-0.0022675931 -0.0028792053 643.65809)
(-0.0011391469 -0.0025788562 643.65786)
(-0.0011353257 -0.0021234395 643.65794)
(-0.0039292587 -0.0014604991 643.65768)
(-0.0056530726 -0.00069403138 643.65528)
(-0.0016682307 -2.214601e-05 643.65375)
(0.0010343146 -0.0028722152 643.65673)
(0.0058744404 -0.0027104182 643.6573)
(0.0028207959 -0.0025027002 643.65882)
(-0.0028792053 -0.0022675931 643.65809)
(-0.0020169426 -0.0020169426 643.65751)
(-0.00080934541 -0.0017428226 643.65736)
(-0.00070170487 -0.0014303722 643.65755)
(-0.0033981415 -0.0010641221 643.65744)
(-0.00509938 -0.00067205202 643.65518)
(-0.0014890053 -0.00032193937 643.65377)
(0.001121981 -0.0023156134 643.65619)
(0.0061661085 -0.0020062052 643.65686)
(0.0031388701 -0.0015651111 643.65848)
(-0.0025788562 -0.0011391469 643.65786)
(-0.0017428226 -0.00080934541 643.65736)
(-0.00055257648 -0.00055257647 643.65729)
(-0.00045662526 -0.00035269135 643.65755)
(-0.0031709386 -0.00020724041 643.6575)
(-0.0049108899 -0.00012347837 643.6553)
(-0.0014348222 -9.9326356e-05 643.65393)
(0.0012405868 -0.0025129169 643.65575)
(0.0066249427 -0.0023985248 643.65659)
(0.0036878541 -0.001820062 643.6584)
(-0.0021234395 -0.0011353257 643.65794)
(-0.0014303721 -0.00070170488 643.65755)
(-0.00035269135 -0.00045662526 643.65755)
(-0.00035636881 -0.0003563688 643.65785)
(-0.0031689285 -0.00039984309 643.65779)
(-0.0049914659 -0.00058885705 643.65554)
(-0.0014729039 -0.00088106874 643.6541)
(0.0011982425 -0.003508079 643.65497)
(0.0068589635 -0.004786986 643.65587)
(0.0044020692 -0.0048275496 643.6579)
(-0.0014604991 -0.0039292587 643.65768)
(-0.0010641221 -0.0033981415 643.65744)
(-0.00020724041 -0.0031709386 643.6575)
(-0.00039984309 -0.0031689285 643.65779)
(-0.0034034268 -0.0034034268 643.65766)
(-0.0053921155 -0.003878756 643.65523)
(-0.00162963 -0.0044411999 643.65353)
(0.00038798213 -0.0024940583 643.6533)
(0.005305472 -0.0048738157 643.6534)
(0.0045455814 -0.006537733 643.65526)
(-0.00069403137 -0.0056530726 643.65528)
(-0.00067205201 -0.00509938 643.65518)
(-0.00012347837 -0.0049108899 643.6553)
(-0.00058885706 -0.0049914659 643.65554)
(-0.003878756 -0.0053921155 643.65523)
(-0.006029239 -0.006029239 643.65246)
(-0.0018478665 -0.0050462707 643.65034)
(-0.00038826247 -0.00027680664 643.65288)
(0.0028152887 -0.0010530512 643.65236)
(0.0036228122 -0.0019369289 643.65357)
(-2.214601e-05 -0.0016682307 643.65375)
(-0.00032193938 -0.0014890053 643.65377)
(-9.9326362e-05 -0.0014348222 643.65393)
(-0.00088106874 -0.0014729039 643.6541)
(-0.0044411999 -0.00162963 643.65353)
(-0.0050462707 -0.0018478665 643.65034)
(-0.00097431782 -0.00097431783 643.65019)
(-0.00072262496 -0.00072262496 645.39471)
(0.0078195274 0.0034584231 645.39442)
(0.0075376253 0.0014620132 645.39675)
(-0.0033805165 0.001160929 645.39611)
(-0.0034812515 0.0011936349 645.39539)
(-0.0027237591 0.0013148274 645.39498)
(-0.0030221086 0.0014895804 645.39472)
(-0.0046559168 0.0014715117 645.39415)
(-0.0035422311 0.00040539119 645.39262)
(-0.00043415885 -0.0005582523 645.39218)
(0.0034584231 0.0078195274 645.39442)
(0.011096485 0.011096485 645.39571)
(0.0040913841 0.0073050298 645.39725)
(-0.0037830839 0.0067078805 645.3965)
(-0.0032504039 0.0068279048 645.39583)
(-0.0022798408 0.0072241808 645.39552)
(-0.0027870821 0.0078630652 645.39542)
(-0.0062822007 0.0082453969 645.39493)
(-0.0065868771 0.006216051 645.39265)
(-0.0013978023 0.0031316922 645.39167)
(0.0014620132 0.0075376253 645.39675)
(0.0073050298 0.0040913841 645.39725)
(0.0031490213 0.0031490213 645.39858)
(-0.0038576415 0.0030071925 645.39781)
(-0.0029649511 0.0031849727 645.39718)
(-0.0016885987 0.0036077453 645.39698)
(-0.0020008926 0.0043337992 645.39708)
(-0.006302931 0.0052800349 645.39682)
(-0.0086559358 0.0054448484 645.39436)
(-0.002490398 0.0042833434 645.39276)
(0.001160929 -0.0033805165 645.39611)
(0.0067078805 -0.0037830839 645.3965)
(0.0030071925 -0.0038576415 645.39781)
(-0.0037471325 -0.0037471325 645.39706)
(-0.0026498511 -0.0034960339 645.3965)
(-0.0011310143 -0.003101516 645.3964)
(-0.0011147925 -0.0025099677 645.39666)
(-0.0051711514 -0.0016580132 645.39663)
(-0.0075835687 -0.0007071496 645.39439)
(-0.002172139 9.9023725e-05 645.39294)
(0.0011936349 -0.0034812515 645.39539)
(0.0068279048 -0.0032504039 645.39583)
(0.0031849727 -0.0029649511 645.39718)
(-0.0034960339 -0.0026498511 645.3965)
(-0.0023193346 -0.0023193346 645.39601)
(-0.00070253255 -0.0019629371 645.396)
(-0.00055738977 -0.0015614146 645.39636)
(-0.0045001129 -0.001096351 645.39647)
(-0.0068988989 -0.00061059533 645.39437)
(-0.0019529492 -0.00018569 645.39304)
(0.0013148274 -0.0027237592 645.39498)
(0.0072241809 -0.0022798408 645.39552)
(0.0036077453 -0.0016885988 645.39698)
(-0.003101516 -0.0011310143 645.3964)
(-0.0019629371 -0.00070253255 645.396)
(-0.00037309426 -0.00037309425 645.39606)
(-0.00024820645 -0.00012330475 645.39649)
(-0.0042203321 4.7909718e-05 645.39666)
(-0.0066729077 0.00012898626 645.3946)
(-0.0018888688 0.00012944333 645.3933)
(0.0014895804 -0.0030221086 645.39472)
(0.0078630652 -0.0027870821 645.39542)
(0.0043337992 -0.0020008926 645.39708)
(-0.0025099677 -0.0011147925 645.39666)
(-0.0015614146 -0.00055738977 645.39636)
(-0.00012330475 -0.00024820644 645.39649)
(-0.0001363858 -0.0001363858 645.39696)
(-0.0042478219 -0.00022941799 645.39711)
(-0.0068173652 -0.00054113069 645.395)
(-0.0019526444 -0.0010166613 645.39361)
(0.0014715117 -0.0046559168 645.39415)
(0.0082453969 -0.0062822006 645.39493)
(0.0052800349 -0.006302931 645.39682)
(-0.0016580132 -0.0051711514 645.39663)
(-0.001096351 -0.0045001129 645.39647)
(4.7909716e-05 -0.0042203321 645.39666)
(-0.000229418 -0.0042478219 645.39711)
(-0.004625077 -0.004625077 645.39717)
(-0.007460151 -0.0053967336 645.39485)
(-0.0022058892 -0.0063518973 645.39317)
(0.0004053912 -0.0035422311 645.39262)
(0.006216051 -0.0065868771 645.39265)
(0.0054448484 -0.0086559358 645.39436)
(-0.00070714961 -0.0075835687 645.39439)
(-0.00061059532 -0.0068988989 645.39437)
(0.00012898627 -0.0066729077 645.3946)
(-0.00054113069 -0.0068173652 645.395)
(-0.0053967336 -0.007460151 645.39485)
(-0.0085441855 -0.0085441855 645.39212)
(-0.0025894202 -0.0067571883 645.3899)
(-0.0005582523 -0.00043415884 645.39218)
(0.0031316922 -0.0013978023 645.39167)
(0.0042833434 -0.002490398 645.39276)
(9.9023722e-05 -0.002172139 645.39294)
(-0.00018569 -0.0019529492 645.39304)
(0.00012944334 -0.0018888688 645.3933)
(-0.0010166613 -0.0019526444 645.39361)
(-0.0063518973 -0.0022058892 645.39317)
(-0.0067571883 -0.0025894202 645.3899)
(-0.0010145577 -0.0010145577 645.38979)
(-0.00082252822 -0.00082252822 648.3218)
(0.0087830101 0.0038650714 648.32149)
(0.0083261344 0.001609514 648.3236)
(-0.0040442585 0.0012759454 648.32295)
(-0.0039957185 0.0013222206 648.32231)
(-0.0029900972 0.0014771207 648.32201)
(-0.0033443796 0.0017085121 648.3219)
(-0.0056021105 0.0017183463 648.32153)
(-0.0044700634 0.00040788616 648.3202)
(-0.00057624212 -0.00072639666 648.31981)
(0.0038650714 0.0087830101 648.32149)
(0.012431073 0.012431073 648.32263)
(0.0044424453 0.0081530691 648.324)
(-0.0044751986 0.007499387 648.32325)
(-0.0036939555 0.0076656361 648.32265)
(-0.0024106601 0.008167513 648.32245)
(-0.0029825412 0.0089869085 648.32251)
(-0.0075530494 0.0095228408 648.32223)
(-0.0081371778 0.0070388525 648.32019)
(-0.0017105249 0.0034044611 648.31931)
(0.001609514 0.0083261344 648.3236)
(0.0081530691 0.0044424453 648.324)
(0.003394448 0.003394448 648.32517)
(-0.0045316916 0.0032593533 648.32441)
(-0.0033275925 0.003494551 648.32386)
(-0.0016688249 0.004023136 648.32377)
(-0.0019890518 0.0049249567 648.32402)
(-0.0075501665 0.0061001214 648.32397)
(-0.010588443 0.0062845017 648.32176)
(-0.0029991697 0.004898781 648.32031)
(0.0012759454 -0.0040442585 648.32295)
(0.007499387 -0.0044751986 648.32325)
(0.0032593533 -0.0045316916 648.32441)
(-0.0043750956 -0.0043750956 648.32369)
(-0.0029301728 -0.0040554998 648.3232)
(-0.00098025438 -0.0035666694 648.32322)
(-0.00090555576 -0.0028413538 648.32363)
(-0.0061935044 -0.0018059191 648.3238)
(-0.0093385183 -0.00068049168 648.3218)
(-0.0026343388 0.00025120974 648.3205)
(0.0013222206 -0.0039957185 648.32231)
(0.0076656361 -0.0036939555 648.32265)
(0.003494551 -0.0033275925 648.32386)
(-0.0040554998 -0.0029301728 648.3232)
(-0.0025191663 -0.0025191663 648.32279)
(-0.00045467885 -0.0020817703 648.32289)
(-0.00022830156 -0.0015943356 648.3234)
(-0.0053893044 -0.0010356092 648.32371)
(-0.0085313142 -0.00046336919 648.32184)
(-0.0023780354 2.9665361e-05 648.32065)
(0.0014771207 -0.0029900973 648.32201)
(0.008167513 -0.0024106601 648.32245)
(0.004023136 -0.0016688249 648.32377)
(-0.0035666694 -0.00098025438 648.32322)
(-0.0020817703 -0.00045467885 648.32289)
(-5.5423645e-05 -5.5423645e-05 648.32306)
(0.00014060527 0.0002399661 648.32364)
(-0.005062538 0.00043118277 648.324)
(-0.0082732437 0.00050286788 648.32217)
(-0.0023056491 0.00047437369 648.321)
(0.0017085121 -0.0033443796 648.3219)
(0.0089869085 -0.0029825412 648.32251)
(0.0049249567 -0.0019890518 648.32402)
(-0.0028413538 -0.00090555577 648.32363)
(-0.0015943356 -0.00022830156 648.3234)
(0.0002399661 0.00014060527 648.32364)
(0.00025830485 0.00025830485 648.32424)
(-0.0051264026 0.00010770617 648.32458)
(-0.0084881233 -0.00033820361 648.3227)
(-0.0023970316 -0.0010111305 648.32144)
(0.0017183463 -0.0056021105 648.32153)
(0.0095228408 -0.0075530494 648.32223)
(0.0061001215 -0.0075501665 648.32397)
(-0.0018059191 -0.0061935044 648.3238)
(-0.0010356092 -0.0053893044 648.32371)
(0.00043118276 -0.005062538 648.324)
(0.00010770617 -0.0051264026 648.32458)
(-0.0056590465 -0.0056590465 648.32482)
(-0.0093920803 -0.0067543737 648.32272)
(-0.002754267 -0.008150528 648.32115)
(0.00040788617 -0.0044700634 648.3202)
(0.0070388525 -0.0081371778 648.32019)
(0.0062845017 -0.010588443 648.32176)
(-0.00068049168 -0.0093385183 648.3218)
(-0.00046336919 -0.0085313143 648.32184)
(0.00050286789 -0.0082732437 648.32217)
(-0.00033820361 -0.0084881233 648.3227)
(-0.0067543737 -0.0093920804 648.32272)
(-0.010979605 -0.010979605 648.32018)
(-0.0033278012 -0.0084254091 648.31803)
(-0.00072639666 -0.00057624212 648.31981)
(0.0034044611 -0.0017105249 648.31931)
(0.004898781 -0.0029991697 648.32031)
(0.00025120973 -0.0026343387 648.3205)
(2.9665361e-05 -0.0023780354 648.32065)
(0.0004743737 -0.002305649 648.321)
(-0.0010111305 -0.0023970316 648.32144)
(-0.0081505281 -0.002754267 648.32115)
(-0.0084254091 -0.0033278012 648.31803)
(-0.0010514698 -0.0010514698 648.31794)
(-0.00093120993 -0.00093120993 652.36172)
(0.0096213082 0.004221364 652.36138)
(0.0090010543 0.0017227558 652.36326)
(-0.0046780604 0.0013601481 652.36261)
(-0.0044270031 0.0014206299 652.36202)
(-0.0031332936 0.0016090905 652.36182)
(-0.0035033249 0.0018970508 652.36185)
(-0.0063553555 0.0019379454 652.36165)
(-0.0052543961 0.00039794239 652.36053)
(-0.00069005557 -0.00089440679 652.36023)
(0.004221364 0.0096213082 652.36138)
(0.013602257 0.013602257 652.36237)
(0.0047092304 0.0088706306 652.36355)
(-0.0051312492 0.0081691777 652.36281)
(-0.0040535895 0.0083839956 652.36227)
(-0.0024186622 0.0089912359 652.36217)
(-0.0030100424 0.009990069 652.36236)
(-0.0086040181 0.010684294 652.36227)
(-0.0095029245 0.0077767787 652.36048)
(-0.0019824048 0.0036321656 652.35973)
(0.0017227558 0.0090010543 652.36326)
(0.0088706306 0.0047092304 652.36355)
(0.0035679753 0.0035679753 652.36456)
(-0.0051646954 0.0034455236 652.36382)
(-0.0036049449 0.0037405629 652.36333)
(-0.0015272203 0.0043747662 652.36334)
(-0.0018102666 0.0054499545 652.36372)
(-0.0085686458 0.0068511679 652.36385)
(-0.012306525 0.0070606627 652.36191)
(-0.003453131 0.0054695167 652.36064)
(0.0013601481 -0.0046780604 652.36261)
(0.0081691777 -0.0051312492 652.36281)
(0.0034455236 -0.0051646954 652.36382)
(-0.0049586616 -0.0049586616 652.36311)
(-0.003124347 -0.0045692239 652.36269)
(-0.00070927065 -0.0039867803 652.3628)
(-0.00053364066 -0.0031305009 652.36334)
(-0.0069933099 -0.0019166878 652.36369)
(-0.010884576 -0.00062302801 652.36196)
(-0.0030431688 0.00042925144 652.36082)
(0.0014206299 -0.0044270031 652.36202)
(0.0083839956 -0.0040535895 652.36227)
(0.0037405629 -0.0036049449 652.36333)
(-0.0045692239 -0.003124347 652.36269)
(-0.0026330636 -0.0026330636 652.36234)
(-8.8497171e-05 -0.0021161946 652.36254)
(0.0002598259 -0.0015457144 652.36318)
(-0.0060611729 -0.00089746994 652.36366)
(-0.0099605854 -0.00024366129 652.36205)
(-0.0027516113 0.00031335048 652.36102)
(0.0016090905 -0.0031332936 652.36182)
(0.0089912359 -0.0024186622 652.36217)
(0.0043747662 -0.0015272203 652.36334)
(-0.0039867804 -0.00070927065 652.3628)
(-0.0021161946 -8.8497171e-05 652.36254)
(0.00037807854 0.00037807854 652.3628)
(0.00068508404 0.00071587634 652.36351)
(-0.0056912567 0.00092341752 652.36403)
(-0.0096737553 0.00098221348 652.36246)
(-0.0026718276 0.00092285188 652.36145)
(0.0018970508 -0.0035033249 652.36185)
(0.009990069 -0.0030100424 652.36236)
(0.0054499545 -0.0018102666 652.36372)
(-0.0031305009 -0.00053364066 652.36334)
(-0.0015457144 0.0002598259 652.36318)
(0.00071587634 0.00068508403 652.36351)
(0.00080516488 0.00080516488 652.36423)
(-0.0057948358 0.00059331974 652.36474)
(-0.009961151 9.5145879e-06 652.3631)
(-0.0027911857 -0.00086362238 652.36201)
(0.0019379454 -0.0063553555 652.36165)
(0.010684294 -0.0086040181 652.36227)
(0.0068511679 -0.0085686458 652.36385)
(-0.0019166878 -0.0069933099 652.36369)
(-0.00089746995 -0.0060611729 652.36366)
(0.00092341753 -0.0056912567 652.36403)
(0.00059331975 -0.0057948358 652.36474)
(-0.006486907 -0.006486907 652.36514)
(-0.011130697 -0.0079136481 652.36329)
(-0.0032539189 -0.0097653316 652.36188)
(0.00039794239 -0.0052543961 652.36053)
(0.0077767787 -0.0095029245 652.36048)
(0.0070606627 -0.012306525 652.36191)
(-0.00062302801 -0.010884576 652.36196)
(-0.0002436613 -0.0099605854 652.36205)
(0.00098221349 -0.0096737553 652.36246)
(9.5145983e-06 -0.009961151 652.3631)
(-0.0079136481 -0.011130697 652.36329)
(-0.013239576 -0.013239576 652.361)
(-0.0040256414 -0.009968506 652.35899)
(-0.00089440679 -0.00069005557 652.36023)
(0.0036321656 -0.0019824048 652.35973)
(0.0054695167 -0.003453131 652.36064)
(0.00042925144 -0.0030431688 652.36082)
(0.00031335048 -0.0027516113 652.36102)
(0.00092285189 -0.0026718276 652.36145)
(-0.00086362238 -0.0027911857 652.36201)
(-0.0097653315 -0.0032539189 652.36188)
(-0.009968506 -0.0040256414 652.35899)
(-0.0010732059 -0.0010732059 652.35897)
(-0.0010500272 -0.0010500272 657.43346)
(0.010326166 0.0045243794 657.43309)
(0.0095562371 0.0018004271 657.43473)
(-0.005284096 0.0014121996 657.43408)
(-0.004782487 0.0014872713 657.43355)
(-0.003166013 0.0017088677 657.43344)
(-0.00351411 0.0020529349 657.43358)
(-0.0069233257 0.0021278664 657.43355)
(-0.0058891735 0.00037534298 657.43263)
(-0.00077153688 -0.001062131 657.43243)
(0.0045243794 0.010326166 657.43309)
(0.014601847 0.014601847 657.43392)
(0.0048879675 0.0094519301 657.43491)
(-0.0057538297 0.0087107985 657.43418)
(-0.0043374849 0.008975529 657.4337)
(-0.0023175176 0.0096869056 657.43369)
(-0.0028856119 0.010862863 657.434)
(-0.0094397136 0.011719427 657.43407)
(-0.01067417 0.0084249191 657.43254)
(-0.0022090108 0.0038123951 657.43193)
(0.0018004271 0.0095562371 657.43473)
(0.0094519301 0.0048879675 657.43491)
(0.0036651883 0.0036651883 657.43575)
(-0.0057604971 0.0035599436 657.43503)
(-0.0038063799 0.0039160483 657.4346)
(-0.0012786787 0.0046546535 657.43469)
(-0.0014815883 0.0058997553 657.43519)
(-0.0093612699 0.007523497 657.43549)
(-0.013796206 0.0077663466 657.43383)
(-0.0038465528 0.0059911111 657.43274)
(0.0014121996 -0.005284096 657.43408)
(0.0087107985 -0.0057538297 657.43418)
(0.0035599436 -0.0057604971 657.43503)
(-0.0055029698 -0.0055029698 657.43434)