/*--------------------------------*- C++ -*----------------------------------*\
| =========                 |                                                 |
| \\      /  F ield         | OpenFOAM: The Open Source CFD Toolbox           |
|  \\    /   O peration     | Version:  v2106                                 |
|   \\  /    A nd           | Website:  www.openfoam.com                      |
|    \\/     M anipulation  |                                                 |
\*---------------------------------------------------------------------------*/
FoamFile
{
    version     2.0;
    format      ascii;
    arch        "LSB;label=32;scalar=64";
    class       volScalarField;
    location    "25";
    object      gradTz;
}
// * * * * * * * * * * * * * * * * * * * * * * * * * * * * * * * * * * * * * //

dimensions      [0 -1 0 1 0 0 0];

internalField   nonuniform List<scalar> 
4000
(
434.51571
434.51413
434.51974
434.51917
434.51832
434.51771
434.51719
434.51662
434.51598
434.51561
434.51413
434.51743
434.52089
434.52003
434.51918
434.51862
434.51815
434.51753
434.51655
434.51578
434.51974
434.52089
434.52391
434.52299
434.52216
434.52166
434.52129
434.52076
434.51961
434.51814
434.51917
434.52003
434.52299
434.52206
434.52126
434.52083
434.52057
434.52022
434.51931
434.51809
434.51832
434.51918
434.52216
434.52126
434.52051
434.52014
434.51996
434.51971
434.51894
434.51785
434.51771
434.51862
434.52166
434.52083
434.52014
434.51982
434.51969
434.5195
434.51878
434.51772
434.51719
434.51815
434.52129
434.52057
434.51996
434.51969
434.5196
434.51942
434.51871
434.51765
434.51662
434.51753
434.52076
434.52022
434.51971
434.5195
434.51942
434.51924
434.51849
434.51738
434.51598
434.51655
434.51961
434.51931
434.51894
434.51878
434.51871
434.51849
434.51766
434.51648
434.51561
434.51578
434.51814
434.51809
434.51785
434.51772
434.51765
434.51738
434.51648
434.51525
644.01136
644.01095
644.01599
644.01541
644.01436
644.01355
644.01283
644.01195
644.01086
644.01071
644.01095
644.01381
644.01723
644.01638
644.01535
644.01461
644.01398
644.01303
644.01118
644.0103
644.01599
644.01723
644.02018
644.01923
644.01822
644.01758
644.01712
644.01633
644.01426
644.01253
644.01541
644.01638
644.01923
644.01827
644.0173
644.01676
644.01646
644.01593
644.01416
644.0127
644.01436
644.01535
644.01822
644.0173
644.0164
644.01594
644.01576
644.01539
644.0138
644.01251
644.01355
644.01461
644.01758
644.01676
644.01594
644.01556
644.01546
644.01517
644.01365
644.01242
644.01283
644.01398
644.01712
644.01646
644.01576
644.01546
644.01541
644.01514
644.01361
644.01236
644.01195
644.01303
644.01633
644.01593
644.01539
644.01517
644.01514
644.01483
644.01323
644.01186
644.01086
644.01118
644.01426
644.01416
644.0138
644.01365
644.01361
644.01323
644.01148
644.00996
644.01071
644.0103
644.01253
644.0127
644.01251
644.01242
644.01236
644.01186
644.00996
644.00885
643.17357
643.17363
643.17673
643.17612
643.17523
643.17456
643.17395
643.17306
643.17158
643.17147
643.17363
643.17568
643.17782
643.17705
643.17618
643.1756
643.17513
643.17422
643.17186
643.17091
643.17673
643.17782
643.17966
643.17882
643.17799
643.17751
643.17723
643.17653
643.17401
643.17236
643.17612
643.17705
643.17882
643.17799
643.17721
643.17682
643.1767
643.17626
643.174
643.17255
643.17523
643.17618
643.17799
643.17721
643.17649
643.17619
643.17619
643.1759
643.1738
643.1725
643.17456
643.1756
643.17751
643.17682
643.17619
643.17598
643.17605
643.17582
643.17378
643.17253
643.17395
643.17513
643.17723
643.1767
643.17619
643.17605
643.17616
643.17594
643.17388
643.17258
643.17306
643.17422
643.17653
643.17626
643.1759
643.17582
643.17594
643.17567
643.17348
643.17199
643.17158
643.17186
643.17401
643.174
643.1738
643.17378
643.17388
643.17348
643.17104
643.1693
643.17147
643.17091
643.17236
643.17255
643.1725
643.17253
643.17258
643.17199
643.1693
643.16889
643.6558
643.65558
643.65816
643.65752
643.65673
643.65619
643.65575
643.65497
643.6533
643.65288
643.65558
643.65708
643.65882
643.65806
643.6573
643.65686
643.65659
643.65587
643.6534
643.65236
643.65816
643.65882
643.66032
643.65953
643.65882
643.65848
643.6584
643.6579
643.65526
643.65357
643.65752
643.65806
643.65953
643.65875
643.65809
643.65786
643.65794
643.65768
643.65528
643.65375
643.65673
643.6573
643.65882
643.65809
643.65751
643.65736
643.65755
643.65744
643.65518
643.65377
643.65619
643.65686
643.65848
643.65786
643.65736
643.65729
643.65755
643.6575
643.6553
643.65393
643.65575
643.65659
643.6584
643.65794
643.65755
643.65755
643.65785
643.65779
643.65554
643.6541
643.65497
643.65587
643.6579
643.65768
643.65744
643.6575
643.65779
643.65766
643.65523
643.65353
643.6533
643.6534
643.65526
643.65528
643.65518
643.6553
643.65554
643.65523
643.65246
643.65034
643.65288
643.65236
643.65357
643.65375
643.65377
643.65393
643.6541
643.65353
643.65034
643.65019
645.39471
645.39442
645.39675
645.39611
645.39539
645.39498
645.39472
645.39415
645.39262
645.39218
645.39442
645.39571
645.39725
645.3965
645.39583
645.39552
645.39542
645.39493
645.39265
645.39167
645.39675
645.39725
645.39858
645.39781
645.39718
645.39698
645.39708
645.39682
645.39436
645.39276
645.39611
645.3965
645.39781
645.39706
645.3965
645.3964
645.39666
645.39663
645.39439
645.39294
645.39539
645.39583
645.39718
645.3965
645.39601
645.396
645.39636
645.39647
645.39437
645.39304
645.39498
645.39552
645.39698
645.3964
645.396
645.39606
645.39649
645.39666
645.3946
645.3933
645.39472
645.39542
645.39708
645.39666
645.39636
645.39649
645.39696
645.39711
645.395
645.39361
645.39415
645.39493
645.39682
645.39663
645.39647
645.39666
645.39711
645.39717
645.39485
645.39317
645.39262
645.39265
645.39436
645.39439
645.39437
645.3946
645.395
645.39485
645.39212
645.3899
645.39218
645.39167
645.39276
645.39294
645.39304
645.3933
645.39361
645.39317
645.3899
645.38979
648.3218
648.32149
648.3236
648.32295
648.32231
648.32201
648.3219
648.32153
648.3202
648.31981
648.32149
648.32263
648.324
648.32325
648.32265
648.32245
648.32251
648.32223
648.32019
648.31931
648.3236
648.324
648.32517
648.32441
648.32386
648.32377
648.32402
648.32397
648.32176
648.32031
648.32295
648.32325
648.32441
648.32369
648.3232
648.32322
648.32363
648.3238
648.3218
648.3205
648.32231
648.32265
648.32386
648.3232
648.32279
648.32289
648.3234
648.32371
648.32184
648.32065
648.32201
648.32245
648.32377
648.32322
648.32289
648.32306
648.32364
648.324
648.32217
648.321
648.3219
648.32251
648.32402
648.32363
648.3234
648.32364
648.32424
648.32458
648.3227
648.32144
648.32153
648.32223
648.32397
648.3238
648.32371
648.324
648.32458
648.32482
648.32272
648.32115
648.3202
648.32019
648.32176
648.3218
648.32184
648.32217
648.3227
648.32272
648.32018
648.31803
648.31981
648.31931
648.32031
648.3205
648.32065
648.321
648.32144
648.32115
648.31803
648.31794
652.36172
652.36138
652.36326
652.36261
652.36202
652.36182
652.36185
652.36165
652.36053
652.36023
652.36138
652.36237
652.36355
652.36281
652.36227
652.36217
652.36236
652.36227
652.36048
652.35973
652.36326
652.36355
652.36456
652.36382
652.36333
652.36334
652.36372
652.36385
652.36191
652.36064
652.36261
652.36281
652.36382
652.36311
652.36269
652.3628
652.36334
652.36369
652.36196
652.36082
652.36202
652.36227
652.36333
652.36269
652.36234
652.36254
652.36318
652.36366
652.36205
652.36102
652.36182
652.36217
652.36334
652.3628
652.36254
652.3628
652.36351
652.36403
652.36246
652.36145
652.36185
652.36236
652.36372
652.36334
652.36318
652.36351
652.36423
652.36474
652.3631
652.36201
652.36165
652.36227
652.36385
652.36369
652.36366
652.36403
652.36474
652.36514
652.36329
652.36188
652.36053
652.36048
652.36191
652.36196
652.36205
652.36246
652.3631
652.36329
652.361
652.35899
652.36023
652.35973
652.36064
652.36082
652.36102
652.36145
652.36201
652.36188
652.35899
652.35897
657.43346
657.43309
657.43473
657.43408
657.43355
657.43344
657.43358
657.43355
657.43263
657.43243
657.43309
657.43392
657.43491
657.43418
657.4337
657.43369
657.434
657.43407
657.43254
657.43193
657.43473
657.43491
657.43575
657.43503
657.4346
657.43469
657.43519
657.43549
657.43383
657.43274
657.43408
657.43418
657.43503
657.43434
657.43398
657.43417
657.43482
657.43533
657.43387
657.43292
657.43355
657.4337
657.4346
657.43398
657.43369
657.43397
657.43472
657.43535
657.43401
657.43316
657.43344
657.43369
657.43469
657.43417
657.43397
657.43431
657.43512
657.4358
657.4345
657.43366
657.43358
657.434
657.43519
657.43482
657.43472
657.43512
657.43595
657.43661
657.43525
657.43433
657.43355
657.43407
657.43549
657.43533
657.43535
657.4358
657.43661
657.43717
657.4356
657.43437
657.43263
657.43254
657.43383
657.43387
657.43401
657.4345
657.43525
657.4356
657.43358
657.43176
657.43243
657.43193
657.43274
657.43292
657.43316
657.43366
657.43433
657.43437
657.43176
657.43182
663.45115
663.45075
663.45214
663.45148
663.45101
663.45098
663.45124
663.45136
663.45064
663.45054
663.45075
663.45141
663.45221
663.45149
663.45107
663.45113
663.45156
663.45179
663.45052
663.45005
663.45214
663.45221
663.45288
663.45217
663.4518
663.45197
663.45258
663.45303
663.45165
663.45076
663.45148
663.45149
663.45217
663.4515
663.4512
663.45146
663.45221
663.45288
663.45169
663.45093
663.45101
663.45107
663.4518
663.4512
663.45096
663.45131
663.45216
663.45294
663.45187
663.4512
663.45098
663.45113
663.45197
663.45146
663.45131
663.45173
663.45263
663.45346
663.45242
663.45177
663.45124
663.45156
663.45258
663.45221
663.45216
663.45263
663.45356
663.45436
663.45327
663.45254
663.45136
663.45179
663.45303
663.45288
663.45294
663.45346
663.45436
663.45507
663.45377
663.45274
663.45064
663.45052
663.45165
663.45169
663.45187
663.45242
663.45327
663.45377
663.45205
663.45043
663.45054
663.45005
663.45076
663.45093
663.4512
663.45177
663.45254
663.45274
663.45043
663.45058
670.32464
670.32421
670.32535
670.3247
670.32429
670.32433
670.3247
670.32496
670.32444
670.32444
670.32421
670.3247
670.32532
670.32462
670.32424
670.32439
670.32491
670.32529
670.32427
670.32395
670.32535
670.32532
670.32582
670.32513
670.32481
670.32505
670.32575
670.32635
670.32525
670.32455
670.3247
670.32462
670.32513
670.32448
670.32423
670.32456
670.3254
670.3262
670.32529
670.32471
670.32429
670.32424
670.32481
670.32423
670.32405
670.32446
670.32539
670.32631
670.32551
670.32502
670.32433
670.32439
670.32505
670.32456
670.32446
670.32495
670.32593
670.32688
670.32611
670.32564
670.3247
670.32491
670.32575
670.3254
670.32539
670.32593
670.32693
670.32787
670.32704
670.3265
670.32496
670.32529
670.32635
670.3262
670.32631
670.32688
670.32787
670.32871
670.32769
670.32686
670.32444
670.32427
670.32525
670.32529
670.32551
670.32611
670.32704
670.32769
670.32626
670.32487
670.32444
670.32395
670.32455
670.32471
670.32502
670.32564
670.3265
670.32686
670.32487
670.32511
677.9602
677.95975
677.96063
677.95999
677.95963
677.95975
677.96021
677.96061
677.96028
677.96037
677.95975
677.96007
677.96049
677.95982
677.9595
677.95971
677.96032
677.96084
677.96008
677.95989
677.96063
677.96049
677.96082
677.96016
677.9599
677.96021
677.96098
677.96171
677.9609
677.96039
677.95999
677.95982
677.96016
677.95954
677.95934
677.95974
677.96065
677.96157
677.96093
677.96054
677.95963
677.9595
677.9599
677.95934
677.95922
677.95969
677.96069
677.96172
677.96118
677.96087
677.95975
677.95971
677.96021
677.95974
677.95969
677.96022
677.96127
677.96235
677.96184
677.96155
677.96021
677.96032
677.96098
677.96065
677.96069
677.96127
677.96234
677.9634
677.96284
677.96248
677.96061
677.96084
677.96171
677.96157
677.96172
677.96235
677.9634
677.96437
677.96363
677.963
677.96028
677.96008
677.9609
677.96093
677.96118
677.96184
677.96284
677.96363
677.96249
677.96132
677.96037
677.95989
677.96039
677.96054
677.96087
677.96155
677.96248
677.963
677.96132
677.96165
686.26119
686.26072
686.26134
686.26072
686.26042
686.26061
686.26115
686.26168
686.26153
686.26171
686.26072
686.26087
686.26111
686.26046
686.2602
686.26047
686.26116
686.26182
686.2613
686.26125
686.26134
686.26111
686.26127
686.26064
686.26044
686.2608
686.26165
686.2625
686.26195
686.26164
686.26072
686.26046
686.26064
686.26005
686.25991
686.26036
686.26133
686.26236
686.26199
686.26178
686.26042
686.2602
686.26044
686.25991
686.25984
686.26036
686.26141
686.26255
686.26227
686.26214
686.26061
686.26047
686.2608
686.26036
686.26036
686.26094
686.26205
686.26322
686.26297
686.26285
686.26115
686.26116
686.26165
686.26133
686.26141
686.26205
686.26317
686.26433
686.26403
686.26385
686.26168
686.26182
686.2625
686.26236
686.26255
686.26322
686.26433
686.2654
686.26493
686.26451
686.26153
686.2613
686.26195
686.26199
686.26227
686.26297
686.26403
686.26493
686.2641
686.26316
686.26171
686.26125
686.26164
686.26178
686.26214
686.26285
686.26385
686.26451
686.26316
686.26357
695.12879
695.12831
695.12869
695.12809
695.12785
695.1281
695.12872
695.12936
695.12939
695.12966
695.12831
695.12831
695.12836
695.12775
695.12755
695.12788
695.12864
695.12941
695.12914
695.12922
695.12869
695.12836
695.12837
695.12777
695.12763
695.12805
695.12895
695.1299
695.12963
695.1295
695.12809
695.12775
695.12777
695.12723
695.12714
695.12764
695.12866
695.12978
695.12966
695.12963
695.12785
695.12755
695.12763
695.12714
695.12712
695.12768
695.12878
695.13
695.12996
695.13001
695.1281
695.12788
695.12805
695.12764
695.12768
695.12831
695.12945
695.1307
695.1307
695.13075
695.12872
695.12864
695.12895
695.12866
695.12878
695.12945
695.13061
695.13185
695.1318
695.1318
695.12936
695.12941
695.1299
695.12978
695.13
695.1307
695.13185
695.13302
695.13282
695.13259
695.12939
695.12914
695.12963
695.12966
695.12996
695.1307
695.1318
695.13282
695.13227
695.13156
695.12966
695.12922
695.1295
695.12963
695.13001
695.13075
695.1318
695.13259
695.13156
695.13205
704.46281
704.46232
704.46245
704.46189
704.46171
704.46202
704.4627
704.46344
704.46365
704.464
704.46232
704.46216
704.46205
704.46148
704.46134
704.46172
704.46253
704.4634
704.46337
704.46358
704.46245
704.46205
704.4619
704.46135
704.46127
704.46173
704.46267
704.46372
704.4637
704.46375
704.46189
704.46148
704.46135
704.46085
704.46082
704.46136
704.46241
704.46361
704.46373
704.46387
704.46171
704.46134
704.46127
704.46082
704.46085
704.46145
704.46257
704.46386
704.46406
704.46427
704.46202
704.46172
704.46173
704.46136
704.46145
704.4621
704.46327
704.46459
704.46482
704.46504
704.4627
704.46253
704.46267
704.46241
704.46257
704.46327
704.46446
704.46577
704.46596
704.46613
704.46344
704.4634
704.46372
704.46361
704.46386
704.46459
704.46577
704.46701
704.46706
704.46702
704.46365
704.46337
704.4637
704.46373
704.46406
704.46482
704.46596
704.46706
704.4668
704.46631
704.464
704.46358
704.46375
704.46387
704.46427
704.46504
704.46613
704.46702
704.46631
704.46687
714.16237
714.16188
714.16178
714.16126
714.16114
714.16151
714.16224
714.16307
714.16344
714.16386
714.16188
714.16158
714.1613
714.16078
714.1607
714.16113
714.16199
714.16295
714.16314
714.16347
714.16178
714.1613
714.16101
714.16052
714.16049
714.16099
714.16197
714.16309
714.16332
714.16354
714.16126
714.16078
714.16052
714.16007
714.1601
714.16067
714.16174
714.163
714.16335
714.16365
714.16114
714.1607
714.16049
714.1601
714.16017
714.1608
714.16194
714.16328
714.1637
714.16406
714.16151
714.16113
714.16099
714.16067
714.1608
714.16148
714.16266
714.16403
714.16447
714.16484
714.16224
714.16199
714.16197
714.16174
714.16194
714.16266
714.16386
714.16521
714.16563
714.16595
714.16307
714.16295
714.16309
714.163
714.16328
714.16403
714.16521
714.16651
714.1668
714.16694
714.16344
714.16314
714.16332
714.16335
714.1637
714.16447
714.16563
714.1668
714.16681
714.16653
714.16386
714.16347
714.16354
714.16365
714.16406
714.16484
714.16595
714.16694
714.16653
714.16716
724.12673
724.12625
724.12593
724.12545
724.1254
724.12582
724.1266
724.1275
724.12802
724.12849
724.12625
724.12581
724.12538
724.12492
724.12491
724.12538
724.12627
724.1273
724.12771
724.12814
724.12593
724.12538
724.12496
724.12454
724.12457
724.1251
724.1261
724.12728
724.12773
724.12811
724.12545
724.12492
724.12454
724.12415
724.12423
724.12483
724.12591
724.1272
724.12777
724.12822
724.1254
724.12491
724.12457
724.12423
724.12436
724.12501
724.12614
724.12751
724.12813
724.12863
724.12582
724.12538
724.1251
724.12483
724.12501
724.1257
724.12687
724.12826
724.12891
724.12942
724.1266
724.12627
724.1261
724.12591
724.12614
724.12687
724.12806
724.12945
724.13007
724.13054
724.1275
724.1273
724.12728
724.1272
724.12751
724.12826
724.12945
724.13078
724.1313
724.1316
724.12802
724.12771
724.12773
724.12777
724.12813
724.12891
724.13007
724.1313
724.13156
724.13149
724.12849
724.12814
724.12811
724.12822
724.12863
724.12942
724.13054
724.1316
724.13149
724.13217
734.25603
734.25556
734.25503
734.25461
734.25463
734.25508
734.2559
734.25686
734.25752
734.25804
734.25556
734.25499
734.25443
734.25404
734.25409
734.2546
734.25551
734.25659
734.25719
734.25772
734.25503
734.25443
734.2539
734.25354
734.25363
734.25419
734.25519
734.25641
734.25707
734.2576
734.25461
734.25404
734.25354
734.25322
734.25335
734.25397
734.25504
734.25635
734.25711
734.2577
734.25463
734.25409
734.25363
734.25335
734.25353
734.25419
734.25531
734.25668
734.25749
734.25812
734.25508
734.2546
734.25419
734.25397
734.25419
734.25489
734.25604
734.25744
734.25826
734.2589
734.2559
734.25551
734.25519
734.25504
734.25531
734.25604
734.25721
734.2586
734.25941
734.26001
734.25686
734.25659
734.25641
734.25635
734.25668
734.25744
734.2586
734.25995
734.26067
734.26113
734.25752
734.25719
734.25707
734.25711
734.25749
734.25826
734.25941
734.26067
734.26117
734.26131
734.25804
734.25772
734.2576
734.2577
734.25812
734.2589
734.26001
734.26113
734.26131
734.26202
744.452
744.45156
744.45082
744.45047
744.45056
744.45105
744.45189
744.45289
744.45367
744.45423
744.45156
744.45087
744.45019
744.44987
744.44998
744.45052
744.45144
744.45256
744.45334
744.45396
744.45082
744.45019
744.44955
744.44927
744.44942
744.45
744.45099
744.45222
744.45309
744.45375
744.45047
744.44987
744.44927
744.44902
744.44921
744.44984
744.45089
744.4522
744.45313
744.45384
744.45056
744.44998
744.44942
744.44921
744.44943
744.4501
744.45119
744.45255
744.45352
744.45426
744.45105
744.45052
744.45
744.44984
744.4501
744.45079
744.45191
744.45329
744.45428
744.45502
744.45189
744.45144
744.45099
744.45089
744.45119
744.45191
744.45304
744.45442
744.45539
744.45611
744.45289
744.45256
744.45222
744.4522
744.45255
744.45329
744.45442
744.45576
744.45666
744.45727
744.45367
744.45334
744.45309
744.45313
744.45352
744.45428
744.45539
744.45666
744.45739
744.45771
744.45423
744.45396
744.45375
744.45384
744.45426
744.45502
744.45611
744.45727
744.45771
744.45845
754.6187
754.61829
754.61738
754.6171
754.61725
754.61777
754.61862
754.61965
754.62053
754.62112
754.61829
754.61751
754.61672
754.61648
754.61666
754.61721
754.61813
754.61927
754.62021
754.6209
754.61738
754.61672
754.61599
754.61579
754.616
754.61659
754.61756
754.61879
754.61983
754.62061
754.6171
754.61648
754.61579
754.61563
754.61587
754.61649
754.61751
754.6188
754.61988
754.6207
754.61725
754.61666
754.616
754.61587
754.61614
754.61679
754.61784
754.61916
754.62028
754.62111
754.61777
754.61721
754.61659
754.61649
754.61679
754.61748
754.61854
754.61988
754.62101
754.62185
754.61862
754.61813
754.61756
754.61751
754.61784
754.61854
754.61962
754.62096
754.62207
754.62289
754.61965
754.61927
754.61879
754.6188
754.61916
754.61988
754.62096
754.62228
754.62334
754.62407
754.62053
754.62021
754.61983
754.61988
754.62028
754.62101
754.62207
754.62334
754.62426
754.62475
754.62112
754.6209
754.62061
754.6207
754.62111
754.62185
754.62289
754.62407
754.62475
754.62551
764.66318
764.66281
764.66174
764.66154
764.66176
764.66231
764.66315
764.66419
764.66515
764.66576
764.66281
764.66194
764.66107
764.66092
764.66116
764.66173
764.66262
764.66376
764.66484
764.66559
764.66174
764.66107
764.66026
764.66016
764.66042
764.66102
764.66195
764.66316
764.66434
764.66523
764.66154
764.66092
764.66016
764.66008
764.66037
764.66099
764.66195
764.66319
764.66441
764.66531
764.66176
764.66116
764.66042
764.66037
764.66068
764.66132
764.6623
764.66357
764.6648
764.66571
764.66231
764.66173
764.66102
764.66099
764.66132
764.66198
764.66298
764.66426
764.6655
764.66641
764.66315
764.66262
764.66195
764.66195
764.6623
764.66298
764.66399
764.66527
764.6665
764.6674
764.66419
764.66376
764.66316
764.66319
764.66357
764.66426
764.66527
764.66653
764.66773
764.66857
764.66515
764.66484
764.66434
764.66441
764.6648
764.6655
764.6665
764.66773
764.66882
764.66948
764.66576
764.66559
764.66523
764.66531
764.66571
764.66641
764.6674
764.66857
764.66948
764.67024
774.4961
774.49578
774.49457
774.49446
774.49474
774.4953
774.49613
774.49716
774.49819
774.49881
774.49578
774.49485
774.4939
774.49384
774.49414
774.49472
774.49558
774.4967
774.4979
774.49869
774.49457
774.4939
774.49304
774.49302
774.49334
774.49393
774.49481
774.49598
774.49729
774.49826
774.49446
774.49384
774.49302
774.49303
774.49337
774.49398
774.49487
774.49605
774.49737
774.49834
774.49474
774.49414
774.49334
774.49337
774.49372
774.49434
774.49525
774.49644
774.49776
774.49873
774.4953
774.49472
774.49393
774.49398
774.49434
774.49498
774.49589
774.49708
774.49841
774.49938
774.49613
774.49558
774.49481
774.49487
774.49525
774.49589
774.49681
774.498
774.49933
774.5003
774.49716
774.4967
774.49598
774.49605
774.49644
774.49708
774.498
774.4992
774.5005
774.50144
774.49819
774.4979
774.49729
774.49737
774.49776
774.49841
774.49933
774.5005
774.50175
774.50255
774.49881
774.49869
774.49826
774.49834
774.49873
774.49938
774.5003
774.50144
774.50255
774.5033
784.03231
784.03205
784.03071
784.0307
784.03104
784.03161
784.03241
784.03341
784.03448
784.0351
784.03205
784.03106
784.03005
784.0301
784.03046
784.03103
784.03184
784.03292
784.03422
784.03504
784.03071
784.03005
784.02915
784.02924
784.02961
784.03019
784.031
784.0321
784.03351
784.03455
784.0307
784.0301
784.02924
784.02934
784.02973
784.03031
784.03112
784.03221
784.03361
784.03463
784.03104
784.03046
784.02961
784.02973
784.03012
784.0307
784.03151
784.0326
784.03399
784.035
784.03161
784.03103
784.03019
784.03031
784.0307
784.03129
784.03211
784.0332
784.03458
784.03559
784.03241
784.03184
784.031
784.03112
784.03151
784.03211
784.03292
784.03401
784.0354
784.03641
784.03341
784.03292
784.0321
784.03221
784.0326
784.0332
784.03401
784.03511
784.0365
784.0375
784.03448
784.03422
784.03351
784.03361
784.03399
784.03458
784.0354
784.0365
784.03786
784.03879
784.0351
784.03504
784.03455
784.03463
784.035
784.03559
784.03641
784.0375
784.03879
784.03952
793.19134
793.19115
793.18971
793.18979
793.1902
793.19077
793.19152
793.19248
793.19358
793.19417
793.19115
793.19012
793.18908
793.18923
793.18964
793.19021
793.19096
793.19198
793.19334
793.19417
793.18971
793.18908
793.18816
793.18834
793.18876
793.18932
793.19005
793.19107
793.19255
793.19364
793.18979
793.18923
793.18834
793.18854
793.18897
793.18952
793.19023
793.19122
793.19266
793.19372
793.1902
793.18964
793.18876
793.18897
793.18939
793.18994
793.19064
793.19161
793.19303
793.19406
793.19077
793.19021
793.18932
793.18952
793.18994
793.19048
793.19117
793.19214
793.19355
793.19458
793.19152
793.19096
793.19005
793.19023
793.19064
793.19117
793.19187
793.19284
793.19426
793.1953
793.19248
793.19198
793.19107
793.19122
793.19161
793.19214
793.19284
793.19382
793.19526
793.19632
793.19358
793.19334
793.19255
793.19266
793.19303
793.19355
793.19426
793.19526
793.19672
793.19775
793.19417
793.19417
793.19364
793.19372
793.19406
793.19458
793.1953
793.19632
793.19775
793.19844
801.89789
801.89778
801.89626
801.89644
801.89691
801.89747
801.89816
801.89906
801.90016
801.90072
801.89778
801.89673
801.89567
801.89592
801.89639
801.89693
801.89761
801.89855
801.89996
801.90079
801.89626
801.89567
801.89473
801.89502
801.89549
801.89602
801.89665
801.89757
801.89909
801.90021
801.89644
801.89592
801.89502
801.89533
801.89579
801.89629
801.8969
801.89776
801.89922
801.90029
801.89691
801.89639
801.89549
801.89579
801.89624
801.89673
801.89731
801.89814
801.89957
801.9006
801.89747
801.89693
801.89602
801.89629
801.89673
801.89721
801.89778
801.8986
801.90001
801.90104
801.89816
801.89761
801.89665
801.8969
801.89731
801.89778
801.89834
801.89916
801.90059
801.90163
801.89906
801.89855
801.89757
801.89776
801.89814
801.8986
801.89916
801.9
801.90147
801.90256
801.90016
801.89996
801.89909
801.89922
801.89957
801.90001
801.90059
801.90147
801.90299
801.90411
801.90072
801.90079
801.90021
801.90029
801.9006
801.90104
801.90163
801.90256
801.90411
801.90475
810.08219
810.08216
810.08058
810.08087
810.08138
810.08193
810.08255
810.08337
810.08445
810.08497
810.08216
810.08111
810.08004
810.08041
810.08092
810.08144
810.08202
810.08287
810.08429
810.0851
810.08058
810.08004
810.07911
810.07951
810.08002
810.0805
810.08103
810.08182
810.08336
810.08449
810.08087
810.08041
810.07951
810.07991
810.0804
810.08086
810.08134
810.08205
810.08351
810.08457
810.08138
810.08092
810.08002
810.0804
810.08088
810.08131
810.08175
810.08242
810.08383
810.08484
810.08193
810.08144
810.0805
810.08086
810.08131
810.08172
810.08214
810.08279
810.08419
810.08519
810.08255
810.08202
810.08103
810.08134
810.08175
810.08214
810.08256
810.08321
810.08462
810.08565
810.08337
810.08287
810.08182
810.08205
810.08242
810.08279
810.08321
810.0839
810.08536
810.08645
810.08445
810.08429
810.08336
810.08351
810.08383
810.08419
810.08462
810.08536
810.08692
810.0881
810.08497
810.0851
810.08449
810.08457
810.08484
810.08519
810.08565
810.08645
810.0881
810.08867
817.68031
817.68037
817.67875
817.67914
817.67971
817.68023
817.68076
817.68148
817.68253
817.68298
817.68037
817.67933
817.67828
817.67875
817.67931
817.67978
817.68027
817.681
817.68242
817.68319
817.67875
817.67828
817.67737
817.67787
817.67841
817.67885
817.67926
817.67991
817.68144
817.68255
817.67914
817.67875
817.67787
817.67837
817.67889
817.67929
817.67962
817.68017
817.6816
817.68263
817.67971
817.67931
817.67841
817.67889
817.67938
817.67974
817.68004
817.68053
817.68189
817.68286
817.68023
817.67978
817.67885
817.67929
817.67974
817.68007
817.68034
817.6808
817.68215
817.6831
817.68076
817.68027
817.67926
817.67962
817.68004
817.68034
817.6806
817.68106
817.68242
817.68341
817.68148
817.681
817.67991
817.68017
817.68053
817.6808
817.68106
817.68157
817.683
817.68408
817.68253
817.68242
817.68144
817.6816
817.68189
817.68215
817.68242
817.683
817.68456
817.68578
817.68298
817.68319
817.68255
817.68263
817.68286
817.6831
817.68341
817.68408
817.68578
817.68627
824.63444
824.6346
824.63296
824.63345
824.63406
824.63454
824.63498
824.63558
824.63657
824.63695
824.6346
824.63359
824.63256
824.63313
824.63373
824.63416
824.63453
824.63512
824.63651
824.63723
824.63296
824.63256
824.63168
824.63228
824.63285
824.63323
824.6335
824.63399
824.63549
824.63657
824.63345
824.63313
824.63228
824.63288
824.63342
824.63375
824.63393
824.6343
824.63566
824.63664
824.63406
824.63373
824.63285
824.63342
824.63392
824.6342
824.63434
824.63463
824.63591
824.63682
824.63454
824.63416
824.63323
824.63375
824.6342
824.63445
824.63454
824.6348
824.63606
824.63696
824.63498
824.63453
824.6335
824.63393
824.63434
824.63454
824.63462
824.63489
824.63617
824.6371
824.63558
824.63512
824.63399
824.6343
824.63463
824.6348
824.63489
824.63519
824.63656
824.63761
824.63657
824.63651
824.63549
824.63566
824.63591
824.63606
824.63617
824.63656
824.6381
824.63935
824.63695
824.63723
824.63657
824.63664
824.63682
824.63696
824.6371
824.63761
824.63935
824.63974
830.89305
830.8933
830.89166
830.89225
830.89289
830.89333
830.89366
830.89413
830.89503
830.89534
830.8933
830.89233
830.89134
830.89202
830.89264
830.89302
830.89326
830.8937
830.89503
830.89568
830.89166
830.89134
830.89051
830.89121
830.8918
830.89211
830.89224
830.89255
830.89398
830.89501
830.89225
830.89202
830.89121
830.8919
830.89245
830.8927
830.89272
830.89289
830.89416
830.89507
830.89289
830.89264
830.8918
830.89245
830.89296
830.89315
830.89311
830.89318
830.89437
830.8952
830.89333
830.89302
830.89211
830.8927
830.89315
830.89329
830.89321
830.89325
830.8944
830.89521
830.89366
830.89326
830.89224
830.89272
830.89311
830.89321
830.8931
830.89314
830.89432
830.89517
830.89413
830.8937
830.89255
830.89289
830.89318
830.89325
830.89314
830.89323
830.89452
830.89551
830.89503
830.89503
830.89398
830.89416
830.89437
830.8944
830.89432
830.89452
830.896
830.89725
830.89534
830.89568
830.89501
830.89507
830.8952
830.89521
830.89517
830.89551
830.89725
830.89754
836.411
836.41136
836.40972
836.41041
836.41108
836.41145
836.41166
836.41198
836.41279
836.413
836.41136
836.41044
836.4095
836.41028
836.41092
836.41122
836.41132
836.4116
836.41285
836.41342
836.40972
836.4095
836.40873
836.40952
836.41012
836.41035
836.41031
836.41043
836.41177
836.41273
836.41041
836.41028
836.40952
836.41029
836.41085
836.411
836.41085
836.4108
836.41196
836.41279
836.41108
836.41092
836.41012
836.41085
836.41135
836.41144
836.41121
836.41106
836.41212
836.41285
836.41145
836.41122
836.41035
836.411
836.41144
836.41147
836.41119
836.411
836.41202
836.41273
836.41166
836.41132
836.41031
836.41085
836.41121
836.41119
836.41089
836.41069
836.41175
836.4125
836.41198
836.4116
836.41043
836.4108
836.41106
836.411
836.41069
836.41055
836.41172
836.41265
836.41279
836.41285
836.41177
836.41196
836.41212
836.41202
836.41175
836.41172
836.41313
836.41435
836.413
836.41342
836.41273
836.41279
836.41285
836.41273
836.4125
836.41265
836.41435
836.41453
841.14963
841.1501
841.14848
841.14926
841.14994
841.15025
841.15032
841.15047
841.15116
841.15127
841.1501
841.14925
841.14836
841.14923
841.14987
841.1501
841.15004
841.15013
841.15128
841.15175
841.14848
841.14836
841.14765
841.14852
841.14913
841.14926
841.14906
841.14896
841.15019
841.15106
841.14926
841.14923
841.14852
841.14937
841.14992
841.14997
841.14964
841.14935
841.15038
841.1511
841.14994
841.14987
841.14913
841.14992
841.15041
841.15039
841.14996
841.14956
841.15047
841.15109
841.15025