/*--------------------------------*- C++ -*----------------------------------*\
| =========                 |                                                 |
| \\      /  F ield         | OpenFOAM: The Open Source CFD Toolbox           |
|  \\    /   O peration     | Version:  v2106                                 |
|   \\  /    A nd           | Website:  www.openfoam.com                      |
|    \\/     M anipulation  |                                                 |
\*---------------------------------------------------------------------------*/
FoamFile
{
    version     2.0;
    format      ascii;
    arch        "LSB;label=32;scalar=64";
    class       volScalarField;
    location    "25";
    object      laplacianT;
}
// * * * * * * * * * * * * * * * * * * * * * * * * * * * * * * * * * * * * * //

dimensions      [0 -2 0 1 0 0 0];

internalField   nonuniform List<scalar> 
4000
(
31537.663
31538.432
31537.839
31538.102
31538.077
31538.031
31537.991
31537.946
31537.897
31537.875
31538.432
31537.872
31537.936
31538.136
31538.097
31538.051
31538.011
31537.961
31537.9
31537.907
31537.839
31537.936
31537.827
31537.995
31537.955
31537.913
31537.877
31537.823
31537.739
31537.8
31538.102
31538.136
31537.995
31538.159
31538.121
31538.084
31538.056
31538.008
31537.915
31537.927
31538.077
31538.097
31537.955
31538.121
31538.087
31538.054
31538.032
31537.993
31537.911
31537.928
31538.031
31538.051
31537.913
31538.084
31538.054
31538.026
31538.008
31537.974
31537.896
31537.918
31537.991
31538.011
31537.877
31538.056
31538.032
31538.008
31537.993
31537.96
31537.882
31537.905
31537.946
31537.961
31537.823
31538.008
31537.993
31537.974
31537.96
31537.926
31537.846
31537.866
31537.897
31537.9
31537.739
31537.915
31537.911
31537.896
31537.882
31537.846
31537.761
31537.779
31537.875
31537.907
31537.8
31537.927
31537.928
31537.918
31537.905
31537.866
31537.779
31537.804
-151.73297
-149.58734
-152.33723
-151.45146
-151.32609
-151.32742
-151.33652
-151.35168
-151.37326
-151.37562
-149.58734
-151.06721
-151.84818
-151.08903
-151.00415
-151.01631
-151.03819
-151.05688
-150.96083
-150.95667
-152.33723
-151.84818
-152.9692
-152.27509
-152.1973
-152.21231
-152.25005
-152.31545
-152.20625
-151.71902
-151.45146
-151.08903
-152.27509
-151.59059
-151.51314
-151.52746
-151.56953
-151.66841
-151.67169
-151.41737
-151.32609
-151.00415
-152.1973
-151.51314
-151.43499
-151.44812
-151.48785
-151.58451
-151.59058
-151.36308
-151.32742
-151.01631
-152.21231
-151.52746
-151.44812
-151.46061
-151.4993
-151.59371
-151.59628
-151.36739
-151.33652
-151.03819
-152.25005
-151.56953
-151.48785
-151.4993
-151.53795
-151.63227
-151.63431
-151.40304
-151.35168
-151.05688
-152.31545
-151.66841
-151.58451
-151.59371
-151.63227
-151.72717
-151.72954
-151.49069
-151.37326
-150.96083
-152.20625
-151.67169
-151.59058
-151.59628
-151.63431
-151.72954
-151.72973
-151.46166
-151.37562
-150.95667
-151.71902
-151.41737
-151.36308
-151.36739
-151.40304
-151.49069
-151.46166
-151.12343
-16.573055
-14.099408
-17.448733
-16.210895
-16.038261
-16.044193
-16.066947
-16.096087
-16.062382
-16.430333
-14.099408
-16.161722
-17.044139
-15.983008
-15.865059
-15.891739
-15.951888
-16.005315
-15.539955
-15.583372
-17.448733
-17.044139
-18.369123
-17.392174
-17.283085
-17.314035
-17.406498
-17.578607
-17.16601
-16.559612
-16.210895
-15.983008
-17.392174
-16.427722
-16.318704
-16.347619
-16.445365
-16.672015
-16.435589
-16.175592
-16.038261
-15.865059
-17.283085
-16.318704
-16.208496
-16.235236
-16.328573
-16.551634
-16.320364
-16.106474
-16.044193
-15.891739
-17.314035
-16.347619
-16.235236
-16.260904
-16.352543
-16.572216
-16.335881
-16.121945
-16.066947
-15.951888
-17.406498
-16.445365
-16.328573
-16.352543
-16.444215
-16.664053
-16.427312
-16.207565
-16.096087
-16.005315
-17.578607
-16.672015
-16.551634
-16.572216
-16.664053
-16.88514
-16.648014
-16.396416
-16.062382
-15.539955
-17.16601
-16.435589
-16.320364
-16.335881
-16.427312
-16.648014
-16.397737
-16.008727
-16.430333
-15.583372
-16.559612
-16.175592
-16.106474
-16.121945
-16.207565
-16.396416
-16.008727
-15.900085
112.29465
115.28801
111.27275
112.81736
113.03303
113.02089
112.97644
112.92458
113.15384
112.66125
115.28801
112.87345
111.80318
113.13014
113.27861
113.23532
113.1193
112.97307
113.86573
113.80936
111.27275
111.80318
110.20097
111.42672
111.56504
111.51752
111.35764
111.03255
111.84231
112.63042
112.81736
113.13014
111.42672
112.63732
112.7758
112.73173
112.56585
112.16542
112.74105
113.08942
113.03303
113.27861
111.56504
112.7758
112.91587
112.87488
112.71523
112.31896
112.88623
113.17185
113.02089
113.23532
111.51752
112.73173
112.87488
112.83536
112.67798
112.28587
112.85901
113.14255
112.97644
113.1193
111.35764
112.56585
112.71523
112.67798
112.52033
112.12731
112.69981
112.9921
112.92458
112.97307
111.03255
112.16542
112.31896
112.28587
112.12731
111.73153
112.30542
112.66996
113.15384
113.86573
111.84231
112.74105
112.88623
112.85901
112.69981
112.30542
112.92081
113.68382
112.66125
113.80936
112.63042
113.08942
113.17185
113.14255
112.9921
112.66996
113.68382
113.2949
234.67522
238.14137
233.46923
235.30267
235.55896
235.5394
235.46494
235.35669
235.72951
235.12729
238.14137
235.37977
234.11232
235.69001
235.8676
235.80779
235.63006
235.35907
236.63414
236.54571
233.46923
234.11232
232.22832
233.68871
233.85499
233.79129
233.55918
233.05186
234.22512
235.17195
235.30267
235.69001
233.68871
235.1314
235.29806
235.23918
235.00024
234.39667
235.28079
235.70179
235.55896
235.8676
233.85499
235.29806
235.46669
235.41177
235.18075
234.58151
235.45385
235.79684
235.5394
235.80779
233.79129
235.23918
235.41177
235.35872
235.13049
234.53592
235.41438
235.7526
235.46494
235.63006
233.55918
235.00024
235.18075
235.13049
234.90158
234.30479
235.18007
235.52774
235.35669
235.35907
233.05186
234.39667
234.58151
234.53592
234.30479
233.70186
234.57556
235.03811
235.72951
236.63414
234.22512
235.28079
235.45385
235.41438
235.18007
234.57556
235.51706
236.72717
235.12729
236.54571
235.17195
235.70179
235.79684
235.7526
235.52774
235.03811
236.72717
235.81738
349.81709
353.71761
348.42693
350.53545
350.83052
350.80386
350.69905
350.5282
351.02541
350.31821
353.71761
350.62721
349.1753
350.99169
351.19718
351.1218
350.88319
350.482
352.1152
351.99318
348.42693
349.1753
347.02621
348.71
348.90309
348.8242
348.521
347.82741
349.34208
350.43613
350.53545
350.99169
348.71
350.37367
350.56735
350.49461
350.18375
349.37337
350.54636
351.03301
350.83052
351.19718
348.90309
350.56735
350.76336
350.69545
350.39414
349.58811
350.74592
351.14016
350.80386
351.1218
348.8242
350.49461
350.69545
350.62979
350.33178
349.53085
350.69483
351.08132
350.69905
350.88319
348.521
350.18375
350.39414
350.33178
350.03264
349.22794
350.38551
350.78053
350.5282
350.482
347.82741
349.37337
349.58811
349.53085
349.22794
348.41283
349.56337
350.11352
351.02541
352.1152
349.34208
350.54636
350.74592
350.69483
350.38551
349.56337
350.80321
352.46943
350.31821
351.99318
350.43613
351.03301
351.14016
351.08132
350.78053
350.11352
352.46943
351.05232
457.1139
461.41898
455.55572
457.92489
458.25667
458.22327
458.08895
457.85516
458.46687
457.65903
461.41898
458.02886
456.4095
458.45188
458.68377
458.59353
458.2957
457.76469
459.73457
459.57822
455.55572
456.4095
454.01667
455.91199
456.1305
456.03716
455.66503
454.78744
456.62229
457.85118
457.92489
458.45188
455.91199
457.78492
458.00423
457.91836
457.5378
456.52366
457.96684
458.5111
458.25667
458.68377
456.1305
458.00423
458.22621
458.14601
457.77658
456.76678
458.19154
458.62973
458.22327
458.59353
456.03716
457.91836
458.14601
458.06846
457.70282
456.69852
458.12945
458.55683
458.08895
458.2957
455.66503
457.5378
457.77658
457.70282
457.33565
456.32599
457.74706
458.18124
457.85516
457.76469
454.78744
456.52366
456.76678
456.69852
456.32599
455.30136
456.70892
457.33636
458.46687
459.73457
456.62229
457.96684
458.19154
458.12945
457.74706
456.70892
458.22456
460.33447
457.65903
459.57822
457.85118
458.5111
458.62973
458.55683
458.18124
457.33636
460.33447
458.42843
556.04567
560.72519
554.33888
556.9527
557.31884
557.27886
557.11586
556.81981
557.53718
556.63246
560.72519
557.06756
555.29879
557.5531
557.80965
557.70509
557.34987
556.69101
558.97502
558.7824
554.33888
555.29879
552.68513
554.77888
555.02116
554.914
554.47534
553.41815
555.55063
556.89977
556.9527
557.5531
554.77888
556.84812
557.09141
556.99301
556.54526
555.33276
557.0264
557.61839
557.31884
557.80965
555.02116
557.09141
557.33772
557.24579
556.81072
555.60254
557.27471
557.74773
557.27886
557.70509
554.914
556.99301
557.24579
557.1569
556.7261
555.5238
557.20212
557.6613
557.11586
557.34987
554.47534
556.54526
556.81072
556.7261
556.29335
555.08414
556.74913
557.21299
556.81981
556.69101
553.41815
555.33276
555.60254
555.5238
555.08414
553.85538
555.49996
556.19329
557.53718
558.97502
555.55063
557.0264
557.27471
557.20212
556.74913
555.49996
557.26962
559.80238
556.63246
558.7824
556.89977
557.61839
557.74773
557.6613
557.21299
556.19329
559.80238
557.42724
646.15441
651.17656
644.31939
647.1603
647.5582
647.5118
647.32101
646.96386
647.77783
646.78016
651.17656
647.28514
645.3855
647.83636
648.11565
647.99733
647.58681
646.80306
649.37722
649.14606
644.31939
645.3855
642.57488
644.85271
645.11697
644.99662
644.4942
643.26319
645.66939
647.12307
647.1603
647.83636
644.85271
647.10407
647.36955
647.25922
646.74717
645.34326
647.26656
647.89566
647.5582
648.11565
645.11697
647.36955
647.63837
647.53529
647.03738
645.63779
647.53679
648.03486
647.5118
647.99733
644.99662
647.25922
647.53529
647.43561
646.94244
645.54907
647.45417
647.93547
647.32101
647.58681
644.4942
646.74717
647.03738
646.94243
646.44693
645.04513
646.93347
647.41709
646.96386
646.80306
643.26319
645.34326
645.63779
645.54907
645.04513
643.61923
645.48015
646.22749
647.77783
649.37722
645.66939
647.26656
647.53679
647.45417
646.93347
645.48015
647.48155
650.41225
646.78016
649.14605
647.12307
647.89566
648.03486
647.93547
647.41709
646.22749
650.41225
647.5898
727.04629
732.37765
725.10405
728.15303
728.5799
728.52725
728.30974
727.89308
728.79421
727.708
732.37765
728.2873
726.27563
728.90639
729.20637
729.07496
728.61158
727.70681
730.5457
730.27381
725.10405
726.27563
723.29265
725.73906
726.02336
725.89055
725.32751
723.92972
726.58449
728.12637
728.15303
728.90639
725.73906
728.15719
728.44294
728.32135
727.74828
726.16125
728.29247
728.94789
728.5799
729.20637
726.02336
728.44294
728.73232
728.61871
728.06118
726.47849
728.58279
729.09601
728.52725
729.07496
725.89055
728.32135
728.61871
728.50886
727.95649
726.38034
728.49067
728.98428
728.30974
728.61158
725.32751
727.74828
728.06118
727.95649
727.40141
725.81534
727.90554
728.39898
727.89308
727.70681
723.92972
726.16125
726.47849
726.38034
725.81534
724.20073
726.25646
727.04575
728.79421
730.5457
726.58449
728.29247
728.58279
728.49067
727.90554
726.25646
728.46656
731.7676
727.708
730.27381
728.12637
728.94789
729.09601
728.98428
728.39898
727.04575
731.7676
728.52182
798.39616
804.00192
796.36811
799.60483
800.05769
799.99903
799.75603
799.28189
800.26042
799.09059
804.00192
799.74832
797.64358
800.4365
800.755
800.61124
800.09778
799.07675
802.15376
801.83914
796.36811
797.64358
794.51338
797.11181
797.41412
797.26965
796.64957
795.09318
797.97031
799.58367
799.60483
800.4365
797.11181
799.68036
799.98433
799.85223
799.22182
797.46126
799.77782
800.44874
800.05769
800.755
797.41412
799.98433
800.2922
800.16877
799.55521
797.79901
800.08628
800.60481
799.99903
800.61124
797.26965
799.85223
800.16877
800.04941
799.44142
797.69203
799.98523
800.48143
799.75603
800.09778
796.64957
799.22182
799.55521
799.44142
798.83034
797.0696
799.3394
799.83281
799.28189
799.07675
795.09318
797.46126
797.79901
797.69203
797.0696
795.27598
797.5043
798.32342
800.26042
802.15376
797.97031
799.77782
800.08628
799.98523
799.3394
797.5043
799.89932
803.54086
799.09059
801.83914
799.58367
800.44874
800.60481
800.48143
799.83281
798.32342
803.54086
799.89795
859.95103
865.79525
857.85882
861.26178
861.7375
861.67311
861.40604
860.87686
861.92275
860.67475
865.79525
861.41462
859.23573
862.17206
862.50682
862.35154
861.79116
860.65945
863.94693
863.58784
857.85882
859.23573
855.98379
858.71676
859.03494
858.87969
858.20652
856.50083
859.57326
861.24116
861.26178
862.17206
858.71676
861.41845
861.73848
861.59671
860.91302
858.98968
861.46839
862.14414
861.7375
862.50682
859.03494
861.73848
862.06267
861.9302
861.26459
859.34564
861.79293
862.30713
861.67311
862.35154
858.87969
861.59671
861.9302
861.80208
861.1424
859.23051
861.68359
862.17287
861.40604
861.79116
858.20652
860.91302
861.26459
861.1424
860.47928
858.55466
860.98117
861.46496
860.87686
860.65945
856.50083
858.98968
859.34564
859.23051
858.55466
856.59297
858.97111
859.808
861.92275
863.94693
859.57326
861.46839
861.79293
861.68359
860.98117
858.97111
861.52667
865.47694
860.67475
863.58784
861.24116
862.14414
862.30713
862.17287
861.46496
859.808
865.47694
861.46523
911.53271
917.57852
909.39796
912.94465
913.43999
913.37018
913.08064
912.49927
913.6023
912.28204
917.57852
913.10725
910.87296
913.93311
914.28177
914.11591
913.51205
912.27608
915.74556
915.34057
909.39796
910.87296
907.52487
910.37411
910.70593
910.54087
909.81891
907.97427
911.21431
912.91979
912.94465
913.93311
910.37411
913.19086
913.52473
913.37418
912.64164
910.56741
913.18462
913.85481
913.43999
914.28177
910.70593
913.52473
913.86298
913.7223
913.00895
910.93916
913.52308
914.02364
913.37018
914.11591
910.54087
913.37418
913.7223
913.58623
912.87914
910.8166
913.40616
913.87935
913.08064
913.51205
909.81891
912.64164
913.00895
912.87914
912.16828
910.09169
912.65164
913.11658
912.49927
912.27608
907.97427
910.56741
910.93916
910.8166
910.09169
907.97403
910.47887
911.32169
913.6023
915.74556
911.21431
913.18462
913.52308
913.40616
912.65164
910.47887
913.17021
917.39581
912.28204
915.34057
912.91979
913.85481
914.02364
913.87935
913.11658
911.32169
917.39581
913.04552
953.03931
959.24915
950.88341
954.55047
955.06207
954.98722
954.67694
954.04663
955.19647
953.81037
959.24915
954.72351
952.4522
955.61586
955.976
955.80056
955.15701
953.82393
957.44642
956.99445
950.88341
952.4522
949.03348
951.98005
952.32321
952.14939
951.38326
949.41101
952.79057
954.5168
954.55047
955.61586
951.98005
954.89314
955.23855
955.08016
954.30352
952.09133
954.82318
955.47779
955.06207
955.976
952.32321
955.23855
955.58852
955.44052
954.68408
952.47637
955.17333
955.65136
954.98722
955.80056
952.14939
955.08016
955.44052
955.29737
954.54747
952.34716
955.04957
955.49796
954.67694
955.15701
951.38326
954.30352
954.68408
954.54747
953.79348
951.57788
954.2478
954.68512
954.04663
953.82393
949.41101
952.09133
952.47637
952.34716
951.57788
949.31744
951.92571
952.76294
955.19647
957.44642
952.79057
954.82318
955.17333
955.04957
954.2478
951.92571
954.72788
959.19409
953.81037
956.99445
954.5168
955.47779
955.65136
955.49796
954.68512
952.76294
959.19409
954.53715
984.44583
990.78166
982.2897
986.05308
986.57751
986.49802
986.16892
985.49327
986.67961
985.23451
990.78166
986.23747
983.94702
987.19333
987.56248
987.37853
986.69932
985.27704
989.02322
988.52359
982.2897
983.94702
980.4829
983.50733
983.8595
983.67801
982.87265
980.78501
984.27586
986.00632
986.05308
987.19333
983.50733
986.49752
986.8521
986.68691
985.87119
983.53493
986.35753
986.98706
986.57751
987.56248
983.8595
986.8521
987.21141
987.05705
986.26243
983.93069
986.71707
987.16425
986.49802
987.37853
983.67801
986.68691
987.05705
986.90773
986.1199
983.79566
986.58727
987.00272
986.16892
986.69932
982.87265
985.87119
986.26243
986.1199
985.32767
982.987
985.74341
986.14495
985.49327
985.27704
980.78501
983.53493
983.93069
983.79566
982.987
980.59792
983.28642
984.10702
986.67961
989.02322
984.27586
986.35753
986.71707
986.58727
985.74341
983.28642
986.17452
990.84561
985.23451
988.52359
986.00632
986.98706
987.16425
987.00272
986.14495
984.10702
990.84561
985.91544
1005.8037
1012.2273
1003.6676
1007.5027
1008.0365
1007.9528
1007.6069
1006.8899
1008.1025
1006.6057
1012.2273
1007.6995
1005.4072
1008.7148
1009.0905
1008.8992
1008.1886
1006.6857
1010.5262
1009.9787
1003.6676
1005.4072
1001.9224
1005.0049
1005.3636
1005.1756
1004.3362
1002.1463
1005.7203
1007.4389
1007.5027
1008.7148
1005.0049
1008.0525
1008.4139
1008.2429
1007.3934
1004.9478
1007.8375
1008.4331
1008.0365
1009.0905
1005.3636
1008.4139
1008.7801
1008.6204
1007.7927
1005.3517
1008.2041
1008.6128
1007.9528
1008.8992
1005.1756
1008.2429
1008.6204
1008.4658
1007.6452
1005.2117
1008.0691
1008.4441
1007.6069
1008.1886
1004.3362
1007.3934
1007.7927
1007.6452
1006.8199
1004.3689
1007.1886
1007.5469
1006.8899
1006.6857
1002.1463
1004.9478
1005.3517
1005.2117
1004.3689
1001.8663
1004.612
1005.4056
1008.1025
1010.5262
1005.7203
1007.8375
1008.2041
1008.0691
1007.1886
1004.612
1007.5615
1012.401
1006.6057
1009.9787
1007.4389
1008.4331
1008.6128
1008.4441
1007.5469
1005.4056
1012.401
1007.2323
1017.2393
1023.7123
1015.1426
1019.0245
1019.5641
1019.4767
1019.1162
1018.3621
1019.5909
1018.0501
1023.7123
1019.2349
1016.9571
1020.3046
1020.6843
1020.4868
1019.7494
1018.175
1022.0806
1021.4856
1015.1426
1016.9571
1013.4758
1016.5962
1016.9592
1016.7659
1015.8979
1013.6193
1017.2487
1018.9402
1019.0245
1020.3046
1016.5962
1019.6814
1020.0472
1019.8716
1018.9938
1016.4544
1019.3878
1019.9414
1019.5641
1020.6843
1016.9592
1020.0472
1020.4179
1020.2538
1019.3985
1016.8637
1019.759
1020.1224
1019.4767
1020.4868
1016.7659
1019.8716
1020.2538
1020.0951
1019.2469
1016.7197
1019.6197
1019.9477
1019.1162
1019.7494
1015.8979
1018.9938
1019.3985
1019.2469
1018.3939
1015.8482
1018.7082
1019.0167
1018.3621
1018.175
1013.6193
1016.4544
1016.8637
1016.7197
1015.8482
1013.2478
1016.0284
1016.7852
1019.5909
1022.0806
1017.2487
1019.3878
1019.759
1019.6197
1018.7082
1016.0284
1019.015
1023.9861
1018.0501
1021.4856
1018.9402
1019.9414
1020.1224
1019.9477
1019.0167
1016.7852
1023.9861
1018.6145
1018.9516
1025.4358
1016.9124
1020.8162
1021.358
1021.2675
1020.8946
1020.108
1021.3432
1019.7664
1025.4358
1021.0413
1018.7937
1022.1593
1022.5405
1022.3381
1021.5785
1019.9425
1023.8843
1023.2426
1016.9124
1018.7937
1015.3391
1018.4772
1018.8421
1018.6447
1017.7536
1015.401
1019.0584
1020.7082
1020.8162
1022.1593
1018.4772
1021.58
1021.9477
1021.7686
1020.8683
1018.2512
1021.2056
1021.71
1021.358
1022.5405
1018.8421
1021.9477
1022.3205
1022.1531
1021.2758
1018.6633
1021.5791
1021.8911
1021.2675
1022.3381
1018.6447
1021.7686
1022.1531
1021.9912
1021.1211
1018.5162
1021.4364
1021.7116
1020.8946
1021.5785
1017.7536
1020.8683
1021.2758
1021.1211
1020.2459
1017.6217
1020.4998
1020.7528
1020.108
1019.9425
1015.401
1018.2512
1018.6633
1018.5162
1017.6217
1014.9401
1017.7337
1018.445
1021.3432
1023.8843
1019.0584
1021.2056
1021.5791
1021.4364
1020.4998
1017.7337
1020.7339
1025.7998
1019.7664
1023.2426
1020.7082
1021.71
1021.8911
1021.7116
1020.7528
1018.445
1025.7998
1020.2619
1011.2086
1017.6662
1009.2439
1013.1444
1013.685
1013.5919
1013.209
1012.3947
1013.6269
1012.0225
1017.6662
1013.3855
1011.1826
1014.5447
1014.9249
1014.7189
1013.9421
1012.2547
1016.2046
1015.5177
1009.2439
1011.1826
1007.7771
1010.9126
1011.277
1011.0768
1010.1685
1007.7567
1011.4156
1013.0102
1013.1444
1014.5447
1010.9126
1014.013
1014.3804
1014.1989
1013.2819
1010.6039
1013.5573
1014.0063
1013.685
1014.9249
1011.277
1014.3804
1014.7528
1014.5833
1013.6895
1011.0161
1013.9307
1014.1864
1013.5919
1014.7189
1011.0768
1014.1989
1014.5833
1014.4192
1013.5328
1010.8669
1013.7855
1014.0032
1013.209
1013.9421
1010.1685
1013.2819
1013.6895
1013.5328
1012.6411
1009.9551
1012.8299
1013.0226
1012.3947
1012.2547
1007.7567
1010.6039
1011.0161
1010.8669
1009.9551
1007.2095
1009.9949
1010.6529
1013.6269
1016.2046
1011.4156
1013.5573
1013.9307
1013.7855
1012.8299
1009.9949
1012.9863
1018.1103
1012.0225
1015.5177
1013.0102
1014.0063
1014.1864
1014.0032
1013.0226
1010.6529
1018.1103
1012.4432
994.34343
1000.7372
992.46865
996.34086
996.87677
996.78167
996.39119
995.55445
996.77455
995.15134
1000.7372
996.59912
994.45442
997.79151
998.16835
997.96002
997.17093
995.44282
999.37348
998.64354
992.46865
994.45442
991.119
994.23204
994.59357
994.39192
993.47224
991.01669
994.65161
996.17855
996.34086
997.79151
994.23204
997.31033
997.67491
997.4923
996.56443
993.84262
996.77413
997.16254
996.87677
998.16835
994.59357
997.67491
998.04457
997.87396
996.96963
994.25239
997.14504
997.34049
996.78167
997.96002
994.39192
997.4923
997.87396
997.70886
996.81187
994.10198
996.99836
997.15476
996.39119
997.17093
993.47224
996.56443
996.96963
996.81187
995.9094
993.17887
996.02985
996.15882
995.55445
995.44282
991.01669
993.84262
994.25239
994.10198
993.17887
990.38672
993.14416
993.7421
996.77455
999.37348
994.65161
996.77413
997.14504
996.99836
996.02985
993.14416
996.10505
1001.2511
995.15134
998.64354
996.17855
997.16254
997.34049
997.15476
996.15882
993.7421
1001.2511
995.49224
968.74907
975.04238
966.9779
970.79735
971.32517
971.22869
970.83314
969.97918
971.17869
969.54569
975.04238
971.07367
968.99944
972.29044
972.66151
972.45224
971.65596
969.89819
973.78333
973.01317
966.9779
968.99944
965.75404
968.82489
969.1813
968.97948
968.05434
965.5708
969.15737
970.60548
970.79735
972.29044
968.82489
971.86154
972.22108
972.0385
971.10582
968.35766
971.24731
971.57118
971.32517
972.66151
969.1813
972.22108
972.58565
972.41509
971.506
968.76236
971.61341
971.74587
971.22869
972.45224
968.97948
972.0385
972.41509
972.25001
971.34824
968.61179
971.46618
971.55883
970.83314
971.65596
968.05434
971.10582
971.506
971.34824
970.44088
967.6833
970.49104
970.55386
969.97918
969.89819
965.5708
968.35766
968.76236
968.61179
967.6833
964.86251
967.57308
968.10547
971.17869
973.78333
969.15737
971.24731
971.61341
971.46618
970.49104
967.57308
970.4832
975.61625
969.54569
973.01317
970.60548
971.57118
971.74587
971.55883
970.55386
968.10547
975.61625
969.8031
934.87294
941.03004
933.21731
936.95994
937.47637
937.37914
936.98109
936.11538
937.28633
935.65285
941.03004
937.25502
935.26232
938.48659
938.8496
938.64075
937.84242
936.06632
939.88093
939.0741
933.21731
935.26232
932.12547
935.13486
935.48394
935.28326
934.35864
931.86309
935.37829
936.73777
936.95994
938.48659
935.13486
938.11083
938.46309
938.28173
937.35026
934.59339
937.42254
937.67911
937.47637
938.8496
935.48394
938.46309
938.82032
938.65091
937.74293
934.99051
937.78153
937.84946
937.37914
938.64075
935.28326
938.28173
938.65091
938.48695
937.58621
934.84076
937.63474
937.66233
936.98109
937.84242
934.35864
937.35026
937.74293
937.58621
936.6798
933.91289
936.65925
936.65477
936.11538
936.06632
931.86309
934.59339
934.99051
934.84076
933.91289
931.08157
933.7277
934.19033
937.28633
939.88093
935.37829
937.42254
937.78153
937.63474
936.65925
933.7277
936.56814
941.6542
935.65285
939.0741
936.73777
937.67911
937.84946
937.66233
936.65477
934.19033
941.6542
935.8242
893.21076
899.1969
891.68066
895.32308
895.82494
895.72761
895.32964
894.45779
895.59284
893.96839
899.1969
895.63733
893.73595
896.87344
897.22618
897.01913
896.22391
894.44103
898.16147
897.32226
891.68066
893.73595
890.72468
893.65392
893.99355
893.79533
892.87718
890.38572
893.808
895.07054
895.32308
896.87344
893.65392
896.55072
896.89355
896.71461
895.79032
893.04248
895.79385
895.98166
895.82494
897.22618
893.99355
896.89355
897.24125
897.07412
896.17308
893.42957
896.14352
896.14662
895.72761
897.01913
893.79533
896.71461
897.07412
896.91235
896.01845
893.28164
895.99813
895.96061
895.32964
896.22391
892.87718
895.79032
896.17308
896.01845
895.11882
892.36035
895.02855
894.95694
894.45779
894.44103
890.38572
893.04248
893.42957
893.28164
892.36035
889.53669
892.10224
892.49224
895.59284
898.16147
893.808
895.79385
896.14352
895.99813
895.02855
892.10224
894.85556
899.86213
893.96839
897.32226
895.07054
895.98166
896.14662
895.96061
894.95694
892.49224
899.86213
894.05237
844.3001
850.08165
842.90346
846.42311
846.90734
846.8106
846.41528
845.543
846.63546
845.02977
850.08165
846.75655
844.95497
847.98637
848.32674
848.12287
847.33592
845.55791
849.16214
848.29559
842.90346
844.95497
842.0848
844.91587
845.24403
845.04958
844.14379
841.67253
844.98199
846.14083
846.42311
847.98637
844.91587
847.71569
848.04704
847.87169
846.96052
844.23938
846.89715
847.01608
846.90734
848.32674
845.24403
848.04704
848.38314
848.21938
847.33106
844.61409
847.23537
847.17464
846.8106
848.12287
845.04958
847.87169
848.21938
848.06087
847.17953
844.46897
847.09235
846.99097
846.41528
847.33592
844.14379
846.96052
847.33106
847.17953
846.29245
843.56016
846.13491
845.99762
845.543
845.55791
841.67253
844.23938
844.61409
844.46897
843.56016
840.76232
843.23266
843.54855
846.63546
849.16214
844.98199
846.89715
847.23537
847.09235
846.13491
843.23266
845.88303
850.77931
845.02977
848.29559
846.14083
847.01608
847.17464
846.99097
845.99762
843.54855
850.77931
845.02633
788.71361
794.25821
787.45629
790.83155
791.29526
791.19977
790.80971
789.94274
790.98663
789.40958
794.25821
791.18378
789.48917
792.39602
792.72205
792.52272
791.74913
789.98771
793.45535
792.56726
787.45629
789.48917
786.77402
789.48971
789.80447
789.61507
788.72746
786.29239
789.47086
790.52087
790.83155
792.39602
789.48971
792.17552
792.49346
792.32285
791.43061
788.75367
791.30362
791.35486
791.29526
792.72205
789.80447
792.49346
792.81598
792.65667
791.78674
789.11377
791.62834
791.50607
791.19977
792.52272
789.61507
792.32285
792.65667
792.50247
791.63931
788.97241
791.48863
791.32594
790.80971
791.74913
788.72746
791.43061
791.78674
791.63931
790.77045
788.08191
790.54947
790.34927
789.94274
789.98771
786.29239
788.75367
789.11377
788.97241
788.08191
785.32788
787.68994
787.93168
790.98663
793.45535
789.47086
791.30362
791.62834
791.48863
790.54947
787.68994
790.22326
794.98037
789.40958
792.56726
790.52087
791.35486
791.50607
791.32594
790.34927
787.93168
794.98037
789.31997
727.05226
732.32892
725.93796
729.14831
729.58877
729.49523
729.11298
728.2571
729.24716
727.70873
732.32892
729.51842
727.93666
730.70147
731.01132
730.81786
730.06266
728.3295
731.64197
730.7389
725.93796
727.93666
725.38882
727.97282
728.27239
728.08929
727.22554
724.84246
727.87358
728.81127
729.14831
730.70147
727.97282
730.52849
730.83119
730.66646
729.79882
727.1833
729.61281
729.59891
729.58877
731.01132
728.27239
730.83119
731.13829
730.98449
730.13847
727.52667
729.9221
729.74188
729.49523
730.81786
728.08929
730.66646
730.98449
730.83562
729.99613
727.39003
729.78663
729.56646
729.11298
730.06266
727.22554
729.79882
730.13847
729.99613
729.15102
726.52349
728.87173
728.61273
728.2571
728.3295
724.84246
727.1833
727.52667
727.39003
726.52349
723.83098
726.07336
726.24233
729.24716
731.64197
727.87358
729.61281
729.9221
729.78663
728.87173
726.07336
728.47725
733.06845
727.70873
730.7389
728.81127
729.59891
729.74188
729.56646
728.61273
726.24233
733.06845
727.5355
659.93848
664.91769
658.96877
661.9949
662.40957
662.31866
661.94674
661.1077
662.03943
660.54966
664.91769
662.38145
660.91713
663.52347
663.81543
663.62917
662.89726
661.20389
664.34451
663.43372
658.96877
660.91713
658.54725
660.98425
661.26696
661.09139
660.257
657.94137
660.81068
661.63425
661.9949
663.52347
660.98425
663.39463
663.68041
663.52264
662.6851
660.1478
662.44594
662.37079
662.40957
663.81543
661.26696
663.68041
663.97036
663.82309
663.00633
660.47247
662.73797
662.50466
662.31866
663.62917
661.09139
663.52264
663.82309
663.68055
662.87003
660.34145
662.60766
662.33511
661.94674
662.89726
660.257
662.6851
663.00633
662.87003
662.05402
659.50439
661.72283
661.41041
661.1077
661.20389
657.94137
660.1478
660.47247
660.34145
659.50439
656.8907
659.00365
659.10266
662.03943
664.34451
660.81068
662.44594
662.73797
662.60766
661.72283
659.00365
661.26754
665.6684
660.54966
663.43372
661.63425
662.37079
662.50466
662.33511
661.41041
659.10266
665.6684
660.29665
588.00953
592.66337
587.18382
590.00775
590.39431
590.3067
589.94757
589.13105
590.00071
588.56966
592.66337
590.40873
589.06519
591.49782
591.77034
591.59255
590.88866
589.24645
592.20045
591.28992
587.18382
589.06519
586.88229
589.15806
589.4224
589.25552
588.45579
586.22266
588.91762
589.62693
590.00775
591.49782
589.15806
591.40909
591.67639
591.52663
590.72446
588.28169
590.43919
590.30795
590.39431
591.77034
589.4224
591.67639
591.94763
591.80786
591.0255
588.58581
590.71228
590.43197
590.3067
591.59255
589.25552
591.52663
591.80786
591.67259
590.89615
588.4613
590.58798
590.26939
589.94757
590.88866
588.45579
590.72446
591.0255
590.89615
590.11438
587.65899
589.73885
589.37963
589.13105
589.24645
586.22266
588.28169
588.58581
588.4613
587.65899
585.14091
587.11638
587.14965
590.00071
592.20045
588.91762
590.43919
590.71228
590.58798
589.73885
587.11638
589.23153
593.42005
588.56966
591.28992
589.62693
590.30795
590.43197
590.26939
589.37963
587.14965
593.42005
588.24197
511.91101
516.21324
511.22664
513.8318
514.18813
514.10451
513.76055
512.97211
513.77672
512.4144
516.21324
514.2446
513.02401
515.26892
515.52059
515.3525
514.68122
513.10122
515.85582
514.95416
511.22664
513.02401
511.03547
513.13694
513.38154
513.22446
512.46446
510.32834
512.83836
513.43493
513.8318
515.26892
513.13694
515.21569
515.46312
515.32236
514.5606
512.22801
514.23732
514.05639
514.18813
515.52059
513.38154
515.46312
515.71422
515.58289
514.83982
512.50993
514.48993
514.16986
514.10451
515.3525
513.22446
515.32236
515.58289
515.4558
514.7183
512.39276
514.37247
514.01532
513.76055
514.68122
512.46446
514.5606
514.83982
514.7183
513.97566
511.63024
513.56438
513.16617
512.97211
513.10122
510.32834
512.22801
512.50993
512.39276
511.63024
509.22393
511.05553
511.02862
513.77672
515.85582
512.83836
514.23732
514.48993
514.37247
513.56438
511.05553
513.015
516.97174
512.4144
514.95416
513.43493
514.05639
514.16986
514.01532
513.16617
511.02862
516.97174
512.01836
432.29076
436.21694
431.74308
434.11442
434.43863
434.35965
434.03317
433.27823
434.01556
432.73189
436.21694
434.53581
433.4392
435.48369
435.7133
435.55607
434.92176
433.41468