/*--------------------------------*- C++ -*----------------------------------*\
| =========                 |                                                 |
| \\      /  F ield         | OpenFOAM: The Open Source CFD Toolbox           |
|  \\    /   O peration     | Version:  v2106                                 |
|   \\  /    A nd           | Website:  www.openfoam.com                      |
|    \\/     M anipulation  |                                                 |
\*---------------------------------------------------------------------------*/
FoamFile
{
    version     2.0;
    format      ascii;
    arch        "LSB;label=32;scalar=64";
    class       volScalarField;
    location    "20";
    object      calFieldValue;
}
// * * * * * * * * * * * * * * * * * * * * * * * * * * * * * * * * * * * * * //

dimensions      [0 0 0 1 0 0 0];

internalField   nonuniform List<scalar> 
4000
(
271.85291
271.85291
271.85291
271.85291
271.85291
271.85291
271.85291
271.85291
271.85291
271.85291
271.85291
271.85291
271.85291
271.85291
271.85291
271.85291
271.85291
271.85291
271.85291
271.85291
271.85291
271.85291
271.85291
271.85291
271.85291
271.85291
271.85291
271.85291
271.85291
271.85291
271.85291
271.85291
271.85291
271.85291
271.85291
271.85291
271.85291
271.85291
271.85291
271.85291
271.85291
271.85291
271.85291
271.85291
271.85291
271.85291
271.85291
271.85291
271.85291
271.85291
271.85291
271.85291
271.85291
271.85291
271.85291
271.85291
271.85291
271.85291
271.85291
271.85291
271.85291
271.85291
271.85291
271.85291
271.85291
271.85291
271.85291
271.85291
271.85291
271.85291
271.85291
271.85291
271.85291
271.85291
271.85291
271.85291
271.85291
271.85291
271.85291
271.85291
271.85291
271.85291
271.85291
271.85291
271.85291
271.85291
271.85291
271.85291
271.85291
271.85291
271.85291
271.85291
271.85291
271.85291
271.85291
271.85291
271.85291
271.85291
271.85291
271.85291
278.70011
278.70011
278.70011
278.70011
278.70011
278.70008
278.70008
278.70011
278.70011
278.70011
278.70011
278.70011
278.70011
278.70011
278.7001
278.70008
278.70008
278.70008
278.70011
278.70011
278.70011
278.70011
278.70011
278.7001
278.70008
278.70008
278.70008
278.70008
278.70011
278.70011
278.70011
278.70011
278.7001
278.70008
278.70008
278.70008
278.70008
278.70008
278.70011
278.70011
278.70011
278.7001
278.70008
278.70008
278.70007
278.70008
278.70008
278.70008
278.70008
278.70011
278.70008
278.70008
278.70008
278.70008
278.70008
278.70008
278.70008
278.70008
278.70011
278.70011
278.70008
278.70008
278.70008
278.70008
278.70008
278.70008
278.70008
278.70011
278.70011
278.70011
278.70011
278.70008
278.70008
278.70008
278.70008
278.70008
278.70011
278.70011
278.70011
278.70014
278.70011
278.70011
278.70011
278.70011
278.70008
278.70011
278.70011
278.70011
278.70014
278.70014
278.70011
278.70011
278.70011
278.70011
278.70011
278.70011
278.70011
278.70014
278.70014
278.70014
285.55257
285.55257
285.55257
285.55257
285.55254
285.55254
285.55254
285.55255
285.55255
285.55255
285.55257
285.55257
285.55257
285.55256
285.55254
285.55254
285.55254
285.55255
285.55255
285.55257
285.55257
285.55257
285.55257
285.55254
285.55254
285.55251
285.55254
285.55254
285.55255
285.55255
285.55257
285.55256
285.55254
285.55253
285.55251
285.55251
285.55251
285.55254
285.55254
285.55254
285.55254
285.55254
285.55254
285.55251
285.55251
285.55251
285.55251
285.55254
285.55254
285.55254
285.55254
285.55254
285.55251
285.55251
285.55251
285.55251
285.55251
285.55254
285.55254
285.55257
285.55254
285.55254
285.55254
285.55251
285.55251
285.55251
285.55254
285.55254
285.55257
285.55257
285.55255
285.55255
285.55254
285.55254
285.55254
285.55254
285.55254
285.55257
285.5526
285.5526
285.55255
285.55255
285.55255
285.55254
285.55254
285.55254
285.55257
285.5526
285.5526
285.5526
285.55255
285.55257
285.55255
285.55254
285.55254
285.55257
285.55257
285.5526
285.5526
285.55263
292.41379
292.41379
292.41376
292.41375
292.41373
292.41373
292.41373
292.41374
292.41376
292.41377
292.41379
292.41379
292.41376
292.41375
292.41372
292.41373
292.41373
292.41373
292.41376
292.41376
292.41376
292.41376
292.41375
292.41372
292.4137
292.4137
292.4137
292.41373
292.41373
292.41376
292.41375
292.41375
292.41372
292.41372
292.41369
292.41369
292.4137
292.41373
292.41373
292.41376
292.41373
292.41372
292.4137
292.41369
292.41366
292.41367
292.4137
292.41373
292.41373
292.41376
292.41373
292.41373
292.4137
292.41369
292.41367
292.41367
292.4137
292.41373
292.41375
292.41376
292.41373
292.41373
292.4137
292.4137
292.4137
292.4137
292.41372
292.41375
292.41378
292.41378
292.41374
292.41373
292.41373
292.41373
292.41373
292.41373
292.41375
292.41378
292.41381
292.41381
292.41376
292.41376
292.41373
292.41373
292.41373
292.41375
292.41378
292.41381
292.41381
292.41384
292.41377
292.41376
292.41376
292.41376
292.41376
292.41376
292.41378
292.41381
292.41384
292.41384
299.28714
299.28714
299.28711
299.28711
299.28708
299.28708
299.28709
299.28709
299.28712
299.28712
299.28714
299.28711
299.28711
299.28708
299.28705
299.28705
299.28706
299.28709
299.28712
299.28712
299.28711
299.28711
299.28708
299.28707
299.28705
299.28705
299.28705
299.28709
299.28709
299.28712
299.28711
299.28708
299.28707
299.28704
299.28702
299.28702
299.28705
299.28708
299.28708
299.28711
299.28708
299.28705
299.28705
299.28702
299.28702
299.28702
299.28705
299.28708
299.28711
299.28711
299.28708
299.28705
299.28705
299.28702
299.28702
299.28702
299.28705
299.28708
299.28711
299.28714
299.28709
299.28706
299.28705
299.28705
299.28705
299.28705
299.28708
299.28711
299.28714
299.28716
299.28709
299.28709
299.28709
299.28708
299.28708
299.28708
299.28711
299.28716
299.28717
299.28719
299.28712
299.28712
299.28709
299.28708
299.28711
299.28711
299.28714
299.28717
299.2872
299.28722
299.28712
299.28712
299.28712
299.28711
299.28711
299.28714
299.28716
299.28719
299.28722
299.28723
306.17598
306.17598
306.17595
306.17594
306.17592
306.17592
306.17592
306.17596
306.17596
306.17596
306.17598
306.17598
306.17595
306.17591
306.17589
306.17589
306.17592
306.17593
306.17596
306.17599
306.17595
306.17595
306.17592
306.17591
306.17588
306.17589
306.17589
306.17592
306.17595
306.17596
306.17594
306.17591
306.17591
306.17588
306.17585
306.17585
306.17588
306.17592
306.17595
306.17598
306.17592
306.17589
306.17588
306.17585
306.17582
306.17585
306.17588
306.17591
306.17595
306.17597
306.17592
306.17589
306.17589
306.17585
306.17585
306.17585
306.17591
306.17594
306.17597
306.176
306.17592
306.17592
306.17589
306.17588
306.17588
306.17591
306.17594
306.17597
306.17603
306.17603
306.17596
306.17593
306.17592
306.17592
306.17591
306.17594
306.17597
306.17603
306.17606
306.17609
306.17596
306.17596
306.17595
306.17595
306.17595
306.17597
306.17603
306.17606
306.17609
306.17612
306.17596
306.17599
306.17596
306.17598
306.17597
306.176
306.17603
306.17609
306.17612
306.17612
313.08356
313.08356
313.08353
313.08352
313.08349
313.08347
313.0835
313.08353
313.08354
313.08357
313.08356
313.08353
313.08353
313.08349
313.08346
313.08347
313.08347
313.08351
313.08354
313.08357
313.08353
313.08353
313.08349
313.08346
313.08343
313.08344
313.08347
313.0835
313.08353
313.08356
313.08352
313.08349
313.08346
313.08343
313.08343
313.08343
313.08346
313.08349
313.08353
313.08356
313.08349
313.08346
313.08343
313.08343
313.0834
313.0834
313.08346
313.08349
313.08355
313.08358
313.08347
313.08347
313.08344
313.08343
313.0834
313.08343
313.08348
313.08354
313.08357
313.0836
313.0835
313.08347
313.08347
313.08346
313.08346
313.08348
313.08354
313.08357
313.08363
313.08366
313.08353
313.08351
313.0835
313.08349
313.08349
313.08354
313.08357
313.08363
313.08366
313.08369
313.08354
313.08354
313.08353
313.08353
313.08355
313.08357
313.08363
313.08366
313.08372
313.08372
313.08357
313.08357
313.08356
313.08356
313.08358
313.0836
313.08366
313.08369
313.08372
313.08375
320.01298
320.01298
320.01295
320.01291
320.01288
320.01289
320.01292
320.01295
320.01298
320.01299
320.01298
320.01295
320.01294
320.01291
320.01288
320.01288
320.01289
320.01295
320.01298
320.01301
320.01295
320.01294
320.01291
320.01288
320.01285
320.01285
320.01288
320.01292
320.01298
320.01298
320.01291
320.01291
320.01288
320.01284
320.01281
320.01284
320.01287
320.01294
320.01297
320.013
320.01288
320.01288
320.01285
320.01281
320.01281
320.01281
320.01287
320.01293
320.01299
320.01302
320.01289
320.01288
320.01285
320.01284
320.01281
320.01284
320.01289
320.01295
320.01301
320.01304
320.01292
320.01289
320.01288
320.01287
320.01287
320.01289
320.01295
320.01304
320.01307
320.0131
320.01295
320.01295
320.01292
320.01294
320.01293
320.01295
320.01304
320.0131
320.01313
320.01316
320.01298
320.01298
320.01298
320.01297
320.01299
320.01301
320.01307
320.01313
320.01316
320.01319
320.01299
320.01301
320.01298
320.013
320.01302
320.01304
320.0131
320.01316
320.01319
320.01322
326.9672
326.96718
326.96714
326.96714
326.96711
326.96711
326.96714
326.96718
326.96721
326.96724
326.96718
326.96717
326.96714
326.9671
326.96708
326.96708
326.96711
326.96717
326.96721
326.96723
326.96714
326.96714
326.96711
326.96707
326.96704
326.96707
326.96711
326.96717
326.9672
326.96723
326.96714
326.9671
326.96707
326.96704
326.96704
326.96704
326.9671
326.96716
326.96719
326.96722
326.96711
326.96708
326.96704
326.96704
326.96701
326.96703
326.96709
326.96715
326.96721
326.96724
326.96711
326.96708
326.96707
326.96704
326.96703
326.96706
326.96714
326.9672
326.96726
326.96729
326.96714
326.96711
326.96711
326.9671
326.96709
326.96714
326.9672
326.96728
326.96732
326.96737
326.96718
326.96717
326.96717
326.96716
326.96715
326.9672
326.96728
326.96734
326.96741
326.96741
326.96721
326.96721
326.9672
326.96719
326.96721
326.96726
326.96732
326.96741
326.96744
326.96747
326.96724
326.96723
326.96723
326.96722
326.96724
326.96729
326.96737
326.96741
326.96747
326.96747
333.94898
333.94898
333.94895
333.94894
333.94891
333.94891
333.94895
333.94898
333.94904
333.94904
333.94898
333.94898
333.94895
333.94891
333.94888
333.94888
333.94894
333.94898
333.94904
333.94907
333.94895
333.94895
333.94891
333.94888
333.94885
333.94888
333.94891
333.94897
333.94903
333.94906
333.94894
333.94891
333.94888
333.94884
333.94881
333.94884
333.9489
333.94896
333.94902
333.94905
333.94891
333.94888
333.94885
333.94881
333.94881
333.94883
333.94892
333.94898
333.94904
333.94907
333.94891
333.94888
333.94888
333.94884
333.94883
333.94889
333.94894
333.94903
333.94909
333.94915
333.94895
333.94894
333.94891
333.9489
333.94892
333.94894
333.94902
333.94911
333.94917
333.9492
333.94898
333.94898
333.94897
333.94896
333.94898
333.94903
333.94911
333.9492
333.94924
333.94927
333.94904
333.94904
333.94903
333.94902
333.94904
333.94909
333.94917
333.94924
333.9493
333.94932
333.94904
333.94907
333.94906
333.94905
333.94907
333.94915
333.9492
333.94927
333.94932
333.94933
340.96098
340.96098
340.96094
340.96091
340.9609
340.96091
340.96094
340.961
340.96103
340.96106
340.96098
340.96095
340.96091
340.9609
340.96087
340.96088
340.96094
340.96097
340.96103
340.96106
340.96094
340.96091
340.96088
340.96087
340.96084
340.96084
340.9609
340.96096
340.96102
340.96105
340.96091
340.9609
340.96087
340.96083
340.9608
340.96083
340.96091
340.96098
340.96104
340.96107
340.9609
340.96087
340.96084
340.9608
340.9608
340.96082
340.96091
340.961
340.96106
340.96109
340.96091
340.96088
340.96084
340.96083
340.96082
340.96087
340.96096
340.96104
340.96111
340.96116
340.96094
340.96094
340.9609
340.96091
340.96091
340.96096
340.96104
340.96113
340.96121
340.96125
340.961
340.96097
340.96096
340.96098
340.961
340.96104
340.96113
340.96122
340.96128
340.96131
340.96103
340.96103
340.96102
340.96104
340.96106
340.96111
340.96121
340.96128
340.96134
340.96137
340.96106
340.96106
340.96105
340.96107
340.96109
340.96116
340.96125
340.96131
340.96137
340.96137
348.00553
348.0055
348.00547
348.00546
348.00542
348.00543
348.00549
348.00555
348.00558
348.00561
348.0055
348.0055
348.00546
348.00542
348.00539
348.00542
348.00548
348.00555
348.00561
348.00564
348.00547
348.00546
348.00543
348.00539
348.00536
348.00539
348.00545
348.00554
348.0056
348.00563
348.00546
348.00542
348.00539
348.00535
348.00535
348.00538
348.00546
348.00553
348.00559
348.00564
348.00542
348.00539
348.00536
348.00535
348.00534
348.00537
348.00545
348.00554
348.00563
348.00566
348.00543
348.00542
348.00539
348.00538
348.00537
348.00542
348.00553
348.00562
348.0057
348.00574
348.00549
348.00548
348.00545
348.00546
348.00545
348.00553
348.00561
348.00572
348.00579
348.00582
348.00555
348.00555
348.00554
348.00553
348.00554
348.00562
348.00572
348.00581
348.00588
348.00591
348.00558
348.00561
348.0056
348.00559
348.00563
348.0057
348.00579
348.00588
348.00594
348.00597
348.00561
348.00564
348.00563
348.00564
348.00566
348.00574
348.00582
348.00591
348.00597
348.00597
355.08475
355.08472
355.08469
355.08468
355.08465
355.08468
355.08471
355.08477
355.08483
355.08486
355.08472
355.08472
355.08469
355.08465
355.08462
355.08465
355.08471
355.08477
355.08483
355.08489
355.08469
355.08469
355.08465
355.08461
355.08458
355.08461
355.0847
355.08476
355.08482
355.08488
355.08468
355.08465
355.08461
355.08457
355.08457
355.08459
355.08468
355.08477
355.08486
355.08489
355.08465
355.08462
355.08458
355.08457
355.08456
355.08461
355.0847
355.08481
355.08488
355.08493
355.08468
355.08465
355.08461
355.08459
355.08461
355.08466
355.08477
355.08486
355.08495
355.08501
355.08471
355.08471
355.0847
355.08468
355.0847
355.08477
355.08488
355.08497
355.08506
355.08509
355.08477
355.08477
355.08476
355.08477
355.08481
355.08486
355.08497
355.08509
355.08515
355.08518
355.08483
355.08483
355.08482
355.08486
355.08488
355.08495
355.08506
355.08515
355.08521
355.08524
355.08486
355.08489
355.08488
355.08489
355.08493
355.08501
355.08509
355.08518
355.08524
355.08527
362.20052
362.20051
362.20048
362.20047
362.20043
362.20044
362.2005
362.20056
362.20062
362.20065
362.20051
362.20049
362.20045
362.20044
362.2004
362.20043
362.20049
362.20056
362.20064
362.20067
362.20048
362.20045
362.20041
362.20037
362.20037
362.2004
362.20048
362.20055
362.20064
362.20066
362.20047
362.20044
362.20037
362.20036
362.20035
362.20038
362.20047
362.20056
362.20065
362.20068
362.20043
362.2004
362.20037
362.20035
362.20034
362.2004
362.20048
362.2006
362.20069
362.20074
362.20044
362.20043
362.2004
362.20038
362.2004
362.20044
362.20055
362.20067
362.20076
362.20082
362.2005
362.20049
362.20048
362.20047
362.20048
362.20055
362.20066
362.20078
362.20087
362.20093
362.20056
362.20056
362.20055
362.20056
362.2006
362.20067
362.20078
362.2009
362.20096
362.20099
362.20062
362.20064
362.20064
362.20065
362.20069
362.20076
362.20087
362.20096
362.20103
362.20105
362.20065
362.20067
362.20066
362.20068
362.20074
362.20082
362.20093
362.20099
362.20105
362.20108
369.35442
369.35439
369.35439
369.35435
369.35434
369.35434
369.3544
369.35449
369.35455
369.35458
369.35439
369.35439
369.35436
369.35431
369.35431
369.35434
369.3544
369.35449
369.35455
369.3546
369.35439
369.35436
369.35432
369.35428
369.35427
369.3543
369.35439
369.35448
369.35454
369.35459
369.35435
369.35431
369.35428
369.35426
369.35425
369.35428
369.35439
369.35449
369.35458
369.35461
369.35434
369.35431
369.35427
369.35425
369.35424
369.35429
369.35441
369.35452
369.35461
369.35467
369.35434
369.35434
369.3543
369.35428
369.35429
369.35437
369.35448
369.3546
369.35469
369.35474
369.3544
369.3544
369.35439
369.35439
369.35441
369.35448
369.35461
369.35473
369.35482
369.35486
369.35449
369.35449
369.35448
369.35449
369.35452
369.3546
369.35473
369.35482
369.35492
369.35495
369.35455
369.35455
369.35454
369.35458
369.35461
369.35469
369.35482
369.35492
369.35498
369.35501
369.35458
369.3546
369.35459
369.35461
369.35467
369.35474
369.35486
369.35495
369.35501
369.35504
376.54772
376.54769
376.54768
376.54764
376.54763
376.54766
376.54772
376.54781
376.54787
376.5479
376.54769
376.54768
376.54765
376.5476
376.5476
376.54762
376.54771
376.54778
376.54786
376.54789
376.54768
376.54765
376.54761
376.54757
376.54756
376.54761
376.5477
376.54779
376.54785
376.54791
376.54764
376.5476
376.54757
376.54755
376.54754
376.5476
376.54771
376.5478
376.54789
376.54792
376.54763
376.5476
376.54756
376.54754
376.54753
376.54761
376.54772
376.54784
376.54793
376.54798
376.54766
376.54762
376.54761
376.5476
376.54761
376.54768
376.54779
376.54791
376.54802
376.54808
376.54772
376.54771
376.5477
376.54771
376.54772
376.54779
376.54792
376.54804
376.54813
376.54819
376.54781
376.54778
376.54779
376.5478
376.54784
376.54791
376.54804
376.54816
376.54825
376.54829
376.54787
376.54786
376.54785
376.54789
376.54793
376.54802
376.54813
376.54825
376.54832
376.54835
376.5479
376.54789
376.54791
376.54792
376.54798
376.54808
376.54819
376.54829
376.54835
376.54838
383.78132
383.78131
383.78128
383.78126
383.78125
383.78128
383.78134
383.78143
383.78149
383.78152
383.78131
383.78128
383.78127
383.78123
383.78122
383.78125
383.78134
383.78143
383.78152
383.78155
383.78128
383.78127
383.78123
383.78119
383.78118
383.78124
383.78132
383.78142
383.7815
383.78156
383.78126
383.78123
383.78119
383.78118
383.78117
383.78122
383.78133
383.78145
383.78154
383.78157
383.78125
383.78122
383.78118
383.78117
383.78118
383.78123
383.78137
383.78148
383.78157
383.78163
383.78128
383.78125
383.78124
383.78122
383.78123
383.7813
383.78144
383.78158
383.78167
383.78173
383.78134
383.78134
383.78132
383.78133
383.78137
383.78144
383.78157
383.78172
383.78181
383.78184
383.78143
383.78143
383.78142
383.78145
383.78148
383.78158
383.78172
383.78184
383.7819
383.78196
383.78149
383.78152
383.7815
383.78154
383.78157
383.78167
383.78181
383.7819
383.78199
383.78202
383.78152
383.78155
383.78156
383.78157
383.78163
383.78173
383.78184
383.78196
383.78202
383.78205
391.05587
391.05586
391.05583
391.05581
391.0558
391.05583
391.05589
391.05598
391.05607
391.0561
391.05586
391.05583
391.05582
391.05578
391.05577
391.0558
391.05588
391.05598
391.05606
391.05612
391.05583
391.05582
391.05578
391.05574
391.05573
391.05578
391.05587
391.05599
391.05608
391.05611
391.05581
391.05578
391.05574
391.05572
391.05571
391.05576
391.0559
391.056
391.05608
391.05614
391.0558
391.05577
391.05573
391.05571
391.05572
391.0558
391.05591
391.05606
391.05615
391.0562
391.05583
391.0558
391.05578
391.05576
391.0558
391.05587
391.05601
391.05615
391.05624
391.0563
391.05589
391.05588
391.05587
391.0559
391.05591
391.05601
391.05614
391.05629
391.05638
391.05644
391.05598
391.05598
391.05599
391.056
391.05606
391.05615
391.05629
391.05641
391.0565
391.05653
391.05607
391.05606
391.05608
391.05608
391.05615
391.05624
391.05638
391.0565
391.05656
391.05659
391.0561
391.05612
391.05611
391.05614
391.0562
391.0563
391.05644
391.05653
391.05659
391.05662
398.37156
398.37156
398.37152
398.37151
398.37149
398.37152
398.37161
398.3717
398.37176
398.37179
398.37156
398.37153
398.37149
398.37147
398.37146
398.37149
398.3716
398.37169
398.37178
398.37181
398.37152
398.37149
398.37147
398.37143
398.37142
398.37147
398.37159
398.37168
398.37177
398.37182
398.37151
398.37147
398.37143
398.37141
398.3714
398.37148
398.37159
398.37171
398.3718
398.37186
398.37149
398.37146
398.37142
398.3714
398.37141
398.37148
398.37162
398.37174
398.37186
398.37192
398.37152
398.37149
398.37147
398.37148
398.37148
398.37158
398.37172
398.37186
398.37195
398.37201
398.37161
398.3716
398.37159
398.37159
398.37162
398.37172
398.37185
398.372
398.37209
398.37215
398.3717
398.37169
398.37168
398.37171
398.37174
398.37186
398.372
398.37212
398.37221
398.37224
398.37176
398.37178
398.37177
398.3718
398.37186
398.37195
398.37209
398.37221
398.37228
398.37233
398.37179
398.37181
398.37182
398.37186
398.37192
398.37201
398.37215
398.37224
398.37233
398.37236
405.72824
405.72824
405.7282
405.72818
405.72817
405.72822
405.72828
405.7284
405.72846
405.72849
405.72824
405.72821
405.72819
405.72815
405.72814
405.72819
405.72828
405.72839
405.72848
405.72851
405.7282
405.72819
405.72815
405.72814
405.72812
405.72817
405.72829
405.72838
405.72847
405.72852
405.72818
405.72815
405.72814
405.72809
405.7281
405.72818
405.72829
405.72841
405.7285
405.72856
405.72817
405.72814
405.72812
405.7281
405.72811
405.72818
405.72832
405.72847
405.72856
405.72862
405.72822
405.72819
405.72817
405.72818
405.72818
405.72828
405.72842
405.72856
405.72868
405.72874
405.72828
405.72828
405.72829
405.72829
405.72832
405.72842
405.72858
405.7287
405.72881
405.72888
405.7284
405.72839
405.72838
405.72841
405.72847
405.72856
405.7287
405.72884
405.72894
405.72897
405.72846
405.72848
405.72847
405.7285
405.72856
405.72868
405.72881
405.72894
405.729
405.72903
405.72849
405.72851
405.72852
405.72856
405.72862
405.72874
405.72888
405.72897
405.72903
405.72906
413.1254
413.1254
413.12536
413.12535
413.12533
413.12538
413.12547
413.12556
413.12565
413.12568
413.1254
413.12537
413.12536
413.12531
413.12532
413.12535
413.12546
413.12555
413.12564
413.1257
413.12536
413.12536
413.12531
413.1253
413.12528
413.12533
413.12545
413.12556
413.12565
413.12571
413.12535
413.12531
413.1253
413.12528
413.12526
413.12533
413.12547
413.12559
413.12568
413.12574
413.12533
413.12532
413.12528
413.12526
413.12529
413.12537
413.1255
413.12562
413.12574
413.1258
413.12538
413.12535
413.12533
413.12533
413.12537
413.12546
413.1256
413.12574
413.12586
413.12592
413.12547
413.12546
413.12545
413.12547
413.1255
413.1256
413.12573
413.12588
413.126
413.12606
413.12556
413.12555
413.12556
413.12559
413.12562
413.12574
413.12588
413.12602
413.12612
413.12615
413.12565
413.12564
413.12565
413.12568
413.12574
413.12586
413.126
413.12612
413.12618
413.12621
413.12568
413.1257
413.12571
413.12574
413.1258
413.12592
413.12606
413.12615
413.12621
413.12624
420.56212
420.56211
420.56208
420.56206
420.56207
420.56209
420.56218
420.5623
420.56236
420.56239
420.56211
420.56208
420.56207
420.56205
420.56204
420.56209
420.56217
420.56229
420.56238
420.56241
420.56208
420.56207
420.56203
420.56201
420.56199
420.56207
420.56218
420.56228
420.56239
420.56242
420.56206
420.56205
420.56201
420.56199
420.562
420.56207
420.56219
420.5623
420.56242
420.56248
420.56207
420.56204
420.56199
420.562
420.562
420.5621
420.56224
420.56236
420.56248
420.56253
420.56209
420.56209
420.56207
420.56207
420.5621
420.5622
420.56233
420.56248
420.56259
420.56266
420.56218
420.56217
420.56218
420.56219
420.56224
420.56233
420.56249
420.56261
420.56273
420.56279
420.5623
420.56229
420.56228
420.5623
420.56236
420.56248
420.56261
420.56276
420.56285
420.56289
420.56236
420.56238
420.56239
420.56242
420.56248
420.56259
420.56273
420.56285
420.56292
420.56297
420.56239
420.56241
420.56242
420.56248
420.56253
420.56266
420.56279
420.56289
420.56297
420.56298
428.0371
428.0371
428.03709
428.03707
428.03706
428.0371
428.03719
428.03731
428.03737
428.0374
428.0371
428.0371
428.03706
428.03704
428.03705
428.0371
428.03718
428.0373
428.03739
428.03742
428.03709
428.03706
428.03704
428.03702
428.037
428.03708
428.03719
428.03731
428.0374
428.03745
428.03707
428.03704
428.03702
428.037
428.03701
428.03708
428.03719
428.03734
428.03743
428.03748
428.03706
428.03705
428.037
428.03701
428.03701
428.03711
428.03725
428.03739
428.03748
428.03754
428.0371
428.0371
428.03708
428.03708
428.03711
428.0372
428.03734
428.03748
428.0376
428.03766
428.03719
428.03718
428.03719
428.03719
428.03725
428.03734
428.0375
428.03764
428.03774
428.0378
428.03731
428.0373
428.03731
428.03734
428.03739
428.03748
428.03764
428.03776
428.03786
428.03789
428.03737
428.03739
428.0374
428.03743
428.03748
428.0376
428.03774
428.03786
428.03795
428.03798
428.0374
428.03742
428.03745
428.03748
428.03754
428.03766
428.0378
428.03789
428.03798
428.03801
435.54877
435.54877
435.54873
435.54871
435.54872
435.54877
435.54885
435.54894
435.54903
435.54906
435.54877
435.54874
435.54872
435.5487
435.54868
435.54876
435.54885
435.54896
435.54905
435.54908
435.54873
435.54872
435.54868
435.54866
435.54867
435.54874
435.54885
435.54895
435.54903
435.54909
435.54871
435.5487
435.54866
435.54866
435.54867
435.54874
435.54886
435.549
435.54909
435.54914
435.54872
435.54868
435.54867
435.54867
435.54867
435.54877
435.54891
435.54905
435.54914
435.5492
435.54877
435.54876
435.54874
435.54874
435.54877
435.54886
435.549
435.54914
435.54926
435.54932
435.54885
435.54885
435.54885
435.54886
435.54891
435.549
435.54916
435.5493
435.5494
435.54946
435.54894
435.54896
435.54895
435.549
435.54905
435.54914
435.5493
435.54942
435.54952
435.54955
435.54903
435.54905
435.54903
435.54909
435.54914
435.54926
435.5494
435.54952
435.54961
435.54964
435.54906
435.54908
435.54909
435.54914
435.5492
435.54932
435.54946
435.54955
435.54964
435.54967
443.0951
443.0951
443.09509
443.09507
443.09508
443.09512
443.09521
443.0953
443.09539
443.09541
443.0951
443.09507
443.09505
443.09503
443.09504
443.09509
443.0952
443.09529
443.09538
443.09543
443.09509
443.09505
443.09504
443.09502
443.09502
443.0951
443.09521
443.0953
443.09539
443.09544
443.09507
443.09503
443.09502
443.09499
443.09503
443.0951
443.09521
443.09535
443.09544
443.0955
443.09508
443.09504
443.09502
443.09503
443.09503
443.09512
443.09526
443.09541
443.09549
443.09555
443.09512
443.09509
443.0951
443.0951
443.09512
443.09521
443.09538
443.09549
443.09561
443.09567
443.09521
443.0952
443.09521
443.09521
443.09526
443.09538
443.09551
443.09566
443.09575
443.09581
443.0953
443.09529
443.0953
443.09535
443.09541
443.09549
443.09566
443.09578
443.09587
443.0959
443.09539
443.09538
443.09539
443.09544
443.09549
443.09561
443.09575
443.09587
443.09593
443.09599
443.09541
443.09543
443.09544
443.0955
443.09555
443.09567
443.09581
443.0959
443.09599
443.096
450.67392
450.67392
450.67388
450.67389
450.6739
450.67394
450.67403
450.67412
450.6742
450.67423
450.67392
450.67389
450.67387
450.67385
450.67386
450.67393
450.67402
450.67413
450.67422
450.67425
450.67388
450.67387
450.67386
450.67384
450.67384
450.67391
450.67403
450.67414
450.67423
450.67426
450.67389
450.67385
450.67384
450.67384
450.67384
450.67391
450.67405
450.67417
450.67426
450.67431
450.6739
450.67386
450.67384
450.67384
450.67387
450.67397
450.6741
450.67422
450.67434
450.6744
450.67394
450.67393
450.67391
450.67391
450.67397
450.67406
450.67419
450.67434
450.67443
450.67449
450.67403
450.67402
450.67403
450.67405
450.6741
450.67419
450.67435
450.67447
450.67456
450.67463
450.67412
450.67413
450.67414
450.67417
450.67422
450.67434
450.67447
450.67462
450.67469
450.67472
450.6742
450.67422
450.67423
450.67426
450.67434
450.67443
450.67456
450.67469
450.67478
450.67481
450.67423
450.67425
450.67426
450.67431
450.6744
450.67449
450.67463
450.67472
450.67481
450.67481
458.28279
458.28279
458.28277
458.28276
458.28276
458.28281
458.28289
458.28301
458.28307
458.28312
458.28279
458.28278
458.28274
458.28275
458.28275
458.2828
458.28291
458.283
458.28308
458.28314
458.28277
458.28274
458.28272
458.28273
458.28273
458.2828
458.28292
458.283
458.28309
458.28315
458.28276
458.28275
458.28273
458.28271
458.28274
458.2828
458.28292
458.28303
458.28315
458.28318
458.28276
458.28275
458.28273
458.28274
458.28276
458.28283
458.28297
458.28311
458.2832
458.28326
458.28281
458.2828
458.2828
458.2828
458.28283
458.28292
458.28308
458.2832
458.28332
458.28338
458.28289
458.28291
458.28292
458.28292
458.28297
458.28308
458.28321
458.28336
458.28345
458.28349
458.28301
458.283
458.283
458.28303
458.28311
458.2832
458.28336
458.28348
458.28355
458.28358
458.28307
458.28308
458.28309
458.28315
458.2832
458.28332
458.28345
458.28355
458.28364
458.28367
458.28312
458.28314
458.28315
458.28318
458.28326
458.28338
458.28349
458.28358
458.28367
458.28367
465.91918
465.91917
465.91916
465.91917
465.91917
465.91922
465.9193
465.91939
465.91947
465.9195
465.91917
465.91916
465.91915
465.91913
465.91914
465.91921
465.91929
465.9194
465.91949
465.91952
465.91916
465.91915
465.91914
465.91911
465.91914
465.91919
465.9193
465.91941
465.9195
465.91953
465.91917
465.91913
465.91911
465.91912
465.91915
465.91921
465.91933
465.91944
465.91953
465.91958
465.91917
465.91914
465.91914
465.91915
465.91917
465.91924
465.91937
465.91949
465.91961
465.91964
465.91922
465.91921
465.91919
465.91921
465.91924
465.91933
465.91946
465.91961
465.9197
465.91976
465.9193
465.91929
465.9193
465.91933
465.91937
465.91946
465.91962
465.91974
465.91984
465.9199
465.91939
465.9194
465.91941
465.91944
465.91949
465.91961
465.91974
465.91986
465.91996
465.91999
465.91947
465.91949
465.9195
465.91953
465.91961
465.9197
465.91984
465.91996
465.92002
465.92005
465.9195
465.91952
465.91953
465.91958
465.91964
465.91976
465.9199
465.91999
465.92005
465.92005
473.58061
473.58061
473.5806
473.58058
473.58059
473.58063
473.58074
473.58082
473.58088
473.58091
473.58061
473.58058
473.58056
473.58057
473.58057
473.58062
473.58073
473.58081
473.5809
473.58093
473.5806
473.58056
473.58055
473.58055
473.58056
473.58063
473.58074
473.58082
473.58091
473.58096
473.58058
473.58057
473.58055
473.58055
473.58056
473.58065
473.58076
473.58088
473.58094
473.58099
473.58059
473.58057
473.58056
473.58056
473.58058
473.58068
473.58081
473.58093
473.58102
473.58108
473.58063
473.58062
473.58063
473.58065
473.58068
473.58077
473.5809
473.58102
473.58111
473.58117
473.58074
473.58073
473.58074
473.58076
473.58081
473.5809
473.58103
473.58115
473.58125
473.58128
473.58082
473.58081
473.58082
473.58088
473.58093
473.58102
473.58115
473.58127
473.58134
473.58137
473.58088
473.5809
473.58091
473.58094
473.58102
473.58111
473.58125
473.58134
473.5814
473.58143
473.58091
473.58093
473.58096
473.58099
473.58108
473.58117
473.58128
473.58137
473.58143
473.58146
481.2647
481.2647
481.26469
481.2647
481.2647
481.26475
481.26483
481.26491
481.265
481.26502
481.2647
481.26469
481.26468
481.26469
481.26469
481.26473
481.26484
481.26493
481.26499
481.26504
481.26469
481.26468
481.26466
481.26467
481.26467
481.26474
481.26485
481.26494
481.26502
481.26505
481.2647
481.26469
481.26467
481.26465
481.26468
481.26474
481.26488
481.26497
481.26505
481.26508
481.2647