/*--------------------------------*- C++ -*----------------------------------*\
| =========                 |                                                 |
| \\      /  F ield         | OpenFOAM: The Open Source CFD Toolbox           |
|  \\    /   O peration     | Version:  v2106                                 |
|   \\  /    A nd           | Website:  www.openfoam.com                      |
|    \\/     M anipulation  |                                                 |
\*---------------------------------------------------------------------------*/
FoamFile
{
    version     2.0;
    format      ascii;
    arch        "LSB;label=32;scalar=64";
    class       volVectorField;
    location    "20";
    object      flux;
}
// * * * * * * * * * * * * * * * * * * * * * * * * * * * * * * * * * * * * * //

dimensions      [0 1 -1 1 0 0 0];

internalField   nonuniform List<vector> 
4000
(
(-1.0400645e-06 -1.0400646e-06 1.7012619)
(2.7187346e-06 2.048633e-06 1.7012568)
(2.6521908e-06 2.0614768e-07 1.7012711)
(-2.5378625e-06 1.1156253e-07 1.7012652)
(-1.242644e-06 1.4426384e-07 1.7012618)
(-3.3653668e-07 1.972184e-07 1.7012606)
(1.2785301e-07 2.5898899e-07 1.7012606)
(2.5517506e-07 2.9824383e-07 1.7012612)
(1.7864468e-07 2.1086575e-07 1.7012616)
(3.7624782e-08 -9.2790802e-09 1.7012621)
(2.048633e-06 2.7187346e-06 1.7012568)
(4.588053e-06 4.588053e-06 1.7012664)
(-2.5341493e-07 1.6875342e-06 1.7012716)
(-2.6306883e-06 1.6066132e-06 1.7012653)
(-1.1141602e-06 1.7137859e-06 1.701262)
(-1.6444897e-07 1.8600742e-06 1.7012611)
(2.7939115e-07 2.0599551e-06 1.7012615)
(1.829902e-07 2.2725021e-06 1.7012623)
(-2.8263968e-07 2.1992229e-06 1.7012621)
(-1.8252004e-07 1.4743463e-06 1.7012612)
(2.0614768e-07 2.6521908e-06 1.7012711)
(1.6875342e-06 -2.5341492e-07 1.7012716)
(-3.29249e-07 -3.29249e-07 1.7012763)
(-2.5116108e-06 -2.118778e-07 1.7012701)
(-9.8918295e-07 -1.0846576e-07 1.7012671)
(9.6324891e-09 8.5194666e-09 1.7012664)
(5.4028088e-07 1.9373129e-07 1.7012673)
(3.9444291e-07 4.9182608e-07 1.7012686)
(-6.1951107e-07 8.0384385e-07 1.7012686)
(-4.4562625e-07 7.479925e-07 1.7012663)
(1.1156254e-07 -2.5378625e-06 1.7012652)
(1.6066132e-06 -2.6306883e-06 1.7012653)
(-2.1187781e-07 -2.5116108e-06 1.7012701)
(-2.409905e-06 -2.409905e-06 1.7012641)
(-8.937629e-07 -2.3240406e-06 1.7012613)
(1.3774809e-07 -2.2314529e-06 1.7012608)
(7.6269776e-07 -2.1029102e-06 1.701262)
(7.9310276e-07 -1.892637e-06 1.7012639)
(-2.6473262e-08 -1.5497604e-06 1.7012649)
(-2.1975428e-07 -1.1013794e-06 1.7012638)
(1.4426385e-07 -1.242644e-06 1.7012618)
(1.7137859e-06 -1.1141602e-06 1.701262)
(-1.0846579e-07 -9.8918294e-07 1.7012671)
(-2.3240406e-06 -8.937629e-07 1.7012613)
(-8.1073082e-07 -8.1073083e-07 1.7012586)
(2.3076284e-07 -7.2940208e-07 1.7012583)
(8.7909677e-07 -6.4158728e-07 1.7012597)
(9.4759271e-07 -5.3876108e-07 1.7012619)
(1.7174657e-07 -4.1555198e-07 1.7012632)
(-1.4670557e-07 -2.7909544e-07 1.7012625)
(1.9721839e-07 -3.3653669e-07 1.7012606)
(1.8600742e-06 -1.6444899e-07 1.7012611)
(8.5194785e-09 9.6324844e-09 1.7012664)
(-2.2314529e-06 1.3774809e-07 1.7012608)
(-7.2940208e-07 2.3076283e-07 1.7012583)
(3.0689165e-07 3.0689163e-07 1.7012582)
(9.5333876e-07 3.7014063e-07 1.7012597)
(1.0191381e-06 4.2338922e-07 1.701262)
(2.3319238e-07 4.6302366e-07 1.7012635)
(-1.2878325e-07 4.8310416e-07 1.7012629)
(2.5898899e-07 1.2785299e-07 1.7012606)
(2.0599551e-06 2.7939117e-07 1.7012615)
(1.9373129e-07 5.4028087e-07 1.7012673)
(-2.1029102e-06 7.6269775e-07 1.701262)
(-6.4158728e-07 8.7909679e-07 1.7012597)
(3.7014064e-07 9.5333876e-07 1.7012597)
(9.9559436e-07 9.9559435e-07 1.7012612)
(1.0404757e-06 1.0099771e-06 1.7012637)
(2.3146151e-07 9.9308538e-07 1.7012651)
(-1.3331857e-07 9.4641427e-07 1.7012646)
(2.9824384e-07 2.5517506e-07 1.7012612)
(2.2725021e-06 1.829902e-07 1.7012623)
(4.9182606e-07 3.9444289e-07 1.7012686)
(-1.892637e-06 7.9310277e-07 1.7012639)
(-5.3876108e-07 9.4759271e-07 1.7012619)
(4.2338921e-07 1.0191381e-06 1.701262)
(1.0099771e-06 1.0404757e-06 1.7012637)
(1.0166291e-06 1.0166291e-06 1.7012661)
(1.6962957e-07 9.4011687e-07 1.7012675)
(-1.5989733e-07 8.1596348e-07 1.7012667)
(2.1086575e-07 1.7864469e-07 1.7012616)
(2.1992229e-06 -2.8263969e-07 1.7012621)
(8.0384386e-07 -6.1951107e-07 1.7012686)
(-1.5497604e-06 -2.6473252e-08 1.7012649)
(-4.1555198e-07 1.7174656e-07 1.7012632)
(4.6302367e-07 2.3319237e-07 1.7012635)
(9.9308538e-07 2.3146152e-07 1.7012651)
(9.4011687e-07 1.6962958e-07 1.7012675)
(3.0795896e-08 3.0795917e-08 1.7012686)
(-2.160875e-07 -1.6549161e-07 1.7012674)
(-9.2790818e-09 3.7624785e-08 1.7012621)
(1.4743463e-06 -1.8252004e-07 1.7012612)
(7.479925e-07 -4.4562625e-07 1.7012663)
(-1.1013794e-06 -2.1975428e-07 1.7012638)
(-2.7909545e-07 -1.4670556e-07 1.7012625)
(4.8310417e-07 -1.2878326e-07 1.7012629)
(9.4641429e-07 -1.3331857e-07 1.7012646)
(8.1596348e-07 -1.5989733e-07 1.7012667)
(-1.6549162e-07 -2.1608749e-07 1.7012674)
(-2.9075567e-07 -2.9075567e-07 1.7012659)
(-1.9898515e-06 -1.9898515e-06 1.702425)
(5.7132685e-06 3.5071066e-06 1.7024228)
(4.7705957e-06 -8.9850038e-08 1.7024291)
(-6.3096276e-06 -2.9871112e-07 1.7024249)
(-3.2485875e-06 -2.119591e-07 1.7024223)
(-8.1792651e-07 -6.4173559e-08 1.7024214)
(4.7220951e-07 1.2221992e-07 1.7024217)
(7.7050606e-07 2.1799229e-07 1.7024223)
(8.8718111e-07 -2.0901063e-07 1.7024224)
(3.6026743e-07 -8.4867298e-07 1.7024239)
(3.5071066e-06 5.7132685e-06 1.7024228)
(8.5632706e-06 8.5632706e-06 1.7024264)
(-9.3813086e-07 2.7120212e-06 1.7024287)
(-6.4927912e-06 2.4994891e-06 1.7024242)
(-2.8967812e-06 2.7713536e-06 1.7024217)
(-3.1665798e-07 3.1842306e-06 1.7024212)
(8.9545829e-07 3.7870755e-06 1.7024219)
(2.7366023e-07 4.3969749e-06 1.7024227)
(-7.1281681e-07 3.870496e-06 1.7024215)
(-2.7939492e-07 1.8056869e-06 1.7024212)
(-8.9850041e-08 4.7705957e-06 1.7024291)
(2.7120212e-06 -9.3813084e-07 1.7024287)
(-1.2931859e-06 -1.2931858e-06 1.7024305)
(-6.2502953e-06 -1.0655794e-06 1.7024261)
(-2.563846e-06 -8.0157686e-07 1.7024237)
(1.9779544e-07 -4.6175892e-07 1.7024234)
(1.6849539e-06 9.7244907e-08 1.7024246)
(8.5392652e-07 9.933723e-07 1.7024261)
(-1.7041069e-06 1.8116743e-06 1.7024252)
(-1.0162719e-06 1.5791451e-06 1.7024236)
(-2.9871112e-07 -6.3096276e-06 1.7024249)
(2.4994891e-06 -6.4927912e-06 1.7024242)
(-1.0655794e-06 -6.2502952e-06 1.7024261)
(-6.0011822e-06 -6.0011822e-06 1.7024218)
(-2.2929608e-06 -5.761047e-06 1.7024196)
(5.8216378e-07 -5.485011e-06 1.7024195)
(2.3505895e-06 -5.0955735e-06 1.7024209)
(1.9880897e-06 -4.4631387e-06 1.7024231)
(-1.2704398e-07 -3.4872141e-06 1.702423)
(-4.344144e-07 -2.2703453e-06 1.7024224)
(-2.119591e-07 -3.2485876e-06 1.7024223)
(2.7713535e-06 -2.8967812e-06 1.7024217)
(-8.0157687e-07 -2.563846e-06 1.7024237)
(-5.761047e-06 -2.2929607e-06 1.7024196)
(-2.0476749e-06 -2.0476749e-06 1.7024176)
(8.6326896e-07 -1.803335e-06 1.7024176)
(2.7068262e-06 -1.537481e-06 1.7024193)
(2.4622859e-06 -1.2238366e-06 1.7024217)
(4.886865e-07 -8.4797558e-07 1.7024219)
(-2.0502604e-07 -4.1372278e-07 1.7024218)
(-6.4173556e-08 -8.1792651e-07 1.7024214)
(3.1842306e-06 -3.1665799e-07 1.7024212)
(-4.6175891e-07 1.9779544e-07 1.7024234)
(-5.485011e-06 5.8216378e-07 1.7024195)
(-1.803335e-06 8.6326895e-07 1.7024176)
(1.0923577e-06 1.0923577e-06 1.7024178)
(2.9300879e-06 1.2826494e-06 1.7024196)
(2.6775951e-06 1.4408337e-06 1.7024222)
(6.8306982e-07 1.5543776e-06 1.7024226)
(-1.4491254e-07 1.611548e-06 1.7024226)
(1.2221992e-07 4.7220951e-07 1.7024217)
(3.7870755e-06 8.9545828e-07 1.7024219)
(9.72449e-08 1.6849539e-06 1.7024246)
(-5.0955735e-06 2.3505895e-06 1.7024209)
(-1.537481e-06 2.7068262e-06 1.7024193)
(1.2826494e-06 2.9300879e-06 1.7024196)
(3.0553023e-06 3.0553023e-06 1.7024215)
(2.7340142e-06 3.0889534e-06 1.7024241)
(6.5940081e-07 3.0113902e-06 1.7024245)
(-1.6691245e-07 2.8079975e-06 1.7024245)
(2.1799229e-07 7.7050605e-07 1.7024223)
(4.396975e-06 2.7366022e-07 1.7024227)
(9.933723e-07 8.5392652e-07 1.7024261)
(-4.4631387e-06 1.9880896e-06 1.7024231)
(-1.2238366e-06 2.4622859e-06 1.7024217)
(1.4408337e-06 2.6775951e-06 1.7024222)
(3.0889533e-06 2.7340142e-06 1.7024241)
(2.633683e-06 2.633683e-06 1.7024267)
(4.0211395e-07 2.3367268e-06 1.7024269)
(-2.8050769e-07 1.8285676e-06 1.7024265)
(-2.0901063e-07 8.8718111e-07 1.7024224)
(3.870496e-06 -7.1281681e-07 1.7024215)
(1.8116743e-06 -1.704107e-06 1.7024252)
(-3.4872141e-06 -1.2704401e-07 1.702423)
(-8.4797555e-07 4.8868649e-07 1.7024219)
(1.5543777e-06 6.8306981e-07 1.7024226)
(3.0113902e-06 6.594008e-07 1.7024245)
(2.3367268e-06 4.0211396e-07 1.7024269)
(-1.4571465e-07 -1.4571464e-07 1.7024266)
(-5.0568528e-07 -7.1984639e-07 1.7024255)
(-8.4867299e-07 3.6026743e-07 1.7024239)
(1.8056869e-06 -2.7939493e-07 1.7024212)
(1.5791451e-06 -1.016272e-06 1.7024236)
(-2.2703453e-06 -4.344144e-07 1.7024224)
(-4.1372278e-07 -2.0502605e-07 1.7024218)
(1.6115481e-06 -1.4491255e-07 1.7024226)
(2.8079975e-06 -1.6691245e-07 1.7024245)
(1.8285676e-06 -2.8050768e-07 1.7024265)
(-7.1984639e-07 -5.0568528e-07 1.7024255)
(-6.6326218e-07 -6.6326218e-07 1.7024253)
(-2.5515542e-06 -2.5515542e-06 1.7045597)
(6.787898e-06 4.4676048e-06 1.7045577)
(4.757823e-06 -8.5686005e-08 1.7045613)
(-9.3978765e-06 -3.4253346e-07 1.7045577)
(-4.7319266e-06 -2.0258062e-07 1.7045556)
(-9.2292552e-07 4.3891229e-08 1.7045551)
(1.0288542e-06 3.9024547e-07 1.7045558)
(1.0296749e-06 5.8857891e-07 1.7045565)
(1.8070354e-06 -3.8541983e-07 1.7045561)
(1.0251225e-06 -1.792465e-06 1.7045575)
(4.4676048e-06 6.787898e-06 1.7045577)
(1.04867e-05 1.04867e-05 1.70456)
(-2.4573844e-06 3.0294166e-06 1.7045609)
(-9.5732184e-06 2.7829703e-06 1.7045572)
(-4.1522896e-06 3.2070056e-06 1.7045553)
(-3.3686376e-08 3.8857282e-06 1.7045551)
(1.8458857e-06 4.9552249e-06 1.7045562)
(-1.3382307e-07 6.099137e-06 1.7045574)
(-1.7645304e-06 4.9153625e-06 1.7045555)
(-3.8192261e-07 1.1989174e-06 1.704555)
(-8.5685997e-08 4.757823e-06 1.7045613)
(3.0294166e-06 -2.4573844e-06 1.7045609)
(-2.945907e-06 -2.9459069e-06 1.7045616)
(-9.2202875e-06 -2.6208554e-06 1.7045579)
(-3.6291688e-06 -2.2141253e-06 1.7045561)
(8.2529382e-07 -1.6621141e-06 1.7045562)
(3.242263e-06 -7.2457282e-07 1.7045578)
(9.8981241e-07 8.2524914e-07 1.7045597)
(-3.0931842e-06 2.2079389e-06 1.704558)
(-1.4525075e-06 1.9111558e-06 1.7045565)
(-3.4253345e-07 -9.3978764e-06 1.7045577)
(2.7829703e-06 -9.5732184e-06 1.7045572)
(-2.6208555e-06 -9.2202875e-06 1.7045579)
(-8.8414368e-06 -8.8414367e-06 1.7045544)
(-3.1935482e-06 -8.4571229e-06 1.7045527)
(1.4558661e-06 -8.0038079e-06 1.704553)
(4.3332489e-06 -7.3613383e-06 1.7045549)
(2.7986886e-06 -6.3214107e-06 1.7045574)
(-6.7862369e-07 -4.7712483e-06 1.7045564)
(-5.7977796e-07 -2.9027047e-06 1.7045557)
(-2.0258062e-07 -4.7319266e-06 1.7045556)
(3.2070056e-06 -4.1522896e-06 1.7045553)
(-2.2141253e-06 -3.6291688e-06 1.7045561)
(-8.4571229e-06 -3.1935482e-06 1.7045527)
(-2.79154e-06 -2.7915399e-06 1.7045512)
(1.9210785e-06 -2.3881922e-06 1.7045516)
(4.9246602e-06 -1.9483591e-06 1.7045537)
(3.5799023e-06 -1.4299149e-06 1.7045565)
(3.2552184e-07 -8.1680166e-07 1.7045559)
(-2.0681177e-07 -1.0765067e-07 1.7045556)
(4.3891232e-08 -9.2292554e-07 1.7045551)
(3.8857282e-06 -3.3686395e-08 1.7045551)
(-1.6621141e-06 8.2529381e-07 1.7045562)
(-8.0038079e-06 1.4558661e-06 1.704553)
(-2.3881922e-06 1.9210785e-06 1.7045516)
(2.299047e-06 2.299047e-06 1.7045522)
(5.2915262e-06 2.6118415e-06 1.7045544)
(3.930246e-06 2.8658079e-06 1.7045573)
(6.4364053e-07 3.0334459e-06 1.7045568)
(-1.0701063e-07 3.0973661e-06 1.7045567)
(3.9024547e-07 1.0288542e-06 1.7045558)
(4.9552249e-06 1.8458857e-06 1.7045562)
(-7.2457281e-07 3.242263e-06 1.7045578)
(-7.3613383e-06 4.3332489e-06 1.7045549)
(-1.9483591e-06 4.9246602e-06 1.7045537)
(2.6118415e-06 5.2915262e-06 1.7045544)
(5.4914211e-06 5.4914211e-06 1.7045567)
(4.0015067e-06 5.5199669e-06 1.7045597)
(5.5708006e-07 5.3178843e-06 1.7045592)
(-1.6419826e-07 4.8252153e-06 1.7045589)
(5.8857892e-07 1.0296749e-06 1.7045565)
(6.099137e-06 -1.3382306e-07 1.7045574)
(8.2524913e-07 9.898124e-07 1.7045597)
(-6.3214108e-06 2.7986886e-06 1.7045574)
(-1.4299149e-06 3.5799023e-06 1.7045565)
(2.8658079e-06 3.930246e-06 1.7045573)
(5.5199669e-06 4.0015067e-06 1.7045597)
(3.7567092e-06 3.7567092e-06 1.7045625)
(-5.1111085e-08 3.0708999e-06 1.7045617)
(-4.3545664e-07 1.8996825e-06 1.7045609)
(-3.8541982e-07 1.8070354e-06 1.7045561)
(4.9153625e-06 -1.7645304e-06 1.7045555)
(2.2079388e-06 -3.0931842e-06 1.704558)
(-4.7712484e-06 -6.786237e-07 1.7045564)
(-8.1680166e-07 3.2552184e-07 1.7045559)
(3.0334459e-06 6.4364052e-07 1.7045568)
(5.3178843e-06 5.5708005e-07 1.7045592)
(3.0708999e-06 -5.1111087e-08 1.7045617)
(-1.2999466e-06 -1.2999467e-06 1.7045602)
(-9.4500984e-07 -1.350956e-06 1.7045582)
(-1.792465e-06 1.0251225e-06 1.7045575)
(1.1989174e-06 -3.8192262e-07 1.704555)
(1.9111558e-06 -1.4525075e-06 1.7045565)
(-2.9027047e-06 -5.7977795e-07 1.7045557)
(-1.0765068e-07 -2.0681176e-07 1.7045556)
(3.0973661e-06 -1.0701063e-07 1.7045567)
(4.8252153e-06 -1.6419827e-07 1.7045589)
(1.8996825e-06 -4.3545664e-07 1.7045609)
(-1.350956e-06 -9.4500984e-07 1.7045582)
(-4.6946289e-07 -4.694629e-07 1.7045591)
(-3.3382753e-06 -3.3382753e-06 1.707743)
(7.3209579e-06 5.0395201e-06 1.7077407)
(4.7893168e-06 -3.4879194e-07 1.7077442)
(-1.2025554e-05 -6.3999282e-07 1.707741)
(-5.8266368e-06 -4.4765926e-07 1.7077393)
(-6.7243927e-07 -1.0090327e-07 1.7077392)
(1.8805826e-06 4.2810272e-07 1.7077401)
(1.0714537e-06 8.0953478e-07 1.7077412)
(1.8869284e-06 -6.0024951e-07 1.7077405)
(1.35224e-06 -2.5442366e-06 1.7077415)
(5.0395201e-06 7.3209579e-06 1.7077407)
(1.1805183e-05 1.1805183e-05 1.7077425)
(-3.7299527e-06 2.969059e-06 1.7077435)
(-1.2173855e-05 2.7162119e-06 1.7077402)
(-5.0180025e-06 3.2908126e-06 1.7077386)
(6.412037e-07 4.234202e-06 1.7077388)
(3.2462396e-06 5.7952314e-06 1.7077403)
(-4.710746e-07 7.577357e-06 1.7077419)
(-3.1437287e-06 5.8450338e-06 1.7077399)
(-5.9174712e-07 8.042566e-07 1.7077394)
(-3.4879194e-07 4.7893168e-06 1.7077442)
(2.969059e-06 -3.7299527e-06 1.7077435)
(-4.2996542e-06 -4.2996542e-06 1.7077443)
(-1.1703801e-05 -3.8688764e-06 1.7077411)
(-4.3086467e-06 -3.3201658e-06 1.7077396)
(1.8319795e-06 -2.560697e-06 1.70774)
(5.2237376e-06 -1.2573781e-06 1.7077419)
(1.1212562e-06 9.1955897e-07 1.7077443)
(-4.8861721e-06 2.7690779e-06 1.7077425)
(-2.0082781e-06 2.3134717e-06 1.7077409)
(-6.3999281e-07 -1.2025554e-05 1.707741)
(2.7162119e-06 -1.2173855e-05 1.7077402)
(-3.8688765e-06 -1.1703801e-05 1.7077411)
(-1.1194367e-05 -1.1194367e-05 1.707738)
(-3.709823e-06 -1.0667373e-05 1.7077367)
(2.7039914e-06 -1.0039721e-05 1.7077373)
(6.7264956e-06 -9.1508425e-06 1.7077395)
(3.5553815e-06 -7.7183944e-06 1.7077424)
(-1.749816e-06 -5.6459323e-06 1.7077413)
(-8.9548461e-07 -3.2281071e-06 1.7077403)
(-4.4765925e-07 -5.8266368e-06 1.7077393)
(3.2908126e-06 -5.0180025e-06 1.7077386)
(-3.3201658e-06 -4.3086467e-06 1.7077396)
(-1.0667373e-05 -3.709823e-06 1.7077367)
(-3.154001e-06 -3.154001e-06 1.7077356)
(3.34851e-06 -2.5957072e-06 1.7077363)
(7.5450643e-06 -1.9879537e-06 1.7077387)
(4.6261663e-06 -1.2738433e-06 1.7077418)
(-3.9588476e-07 -4.4192262e-07 1.707741)
(-3.9639468e-07 5.0876112e-07 1.7077404)
(-1.0090327e-07 -6.7243928e-07 1.7077392)
(4.234202e-06 6.4120367e-07 1.7077388)
(-2.560697e-06 1.8319795e-06 1.70774)
(-1.0039721e-05 2.7039914e-06 1.7077373)
(-2.5957072e-06 3.34851e-06 1.7077363)
(3.8700386e-06 3.8700386e-06 1.7077371)
(8.0483594e-06 4.2986545e-06 1.7077397)
(5.1014125e-06 4.6380945e-06 1.707743)
(3.2788482e-08 4.8411287e-06 1.7077423)
(-2.6169545e-07 4.8835568e-06 1.7077418)
(4.2810272e-07 1.8805825e-06 1.7077401)
(5.7952314e-06 3.2462396e-06 1.7077403)
(-1.2573781e-06 5.2237375e-06 1.7077419)
(-9.1508426e-06 6.7264956e-06 1.7077395)
(-1.9879537e-06 7.5450643e-06 1.7077387)
(4.2986545e-06 8.0483594e-06 1.7077397)
(8.3131202e-06 8.3131202e-06 1.7077423)
(5.1686405e-06 8.312972e-06 1.7077456)
(-1.504225e-07 7.9229417e-06 1.7077449)
(-3.6810926e-07 7.0113757e-06 1.7077443)
(8.0953478e-07 1.0714537e-06 1.7077412)
(7.577357e-06 -4.7107459e-07 1.7077419)
(9.1955897e-07 1.1212561e-06 1.7077443)
(-7.7183944e-06 3.5553814e-06 1.7077424)
(-1.2738434e-06 4.6261663e-06 1.7077418)
(4.6380945e-06 5.1014126e-06 1.707743)
(8.312972e-06 5.1686405e-06 1.7077456)
(4.7112341e-06 4.7112341e-06 1.7077489)
(-1.2688078e-06 3.4244154e-06 1.7077477)
(-8.6940616e-07 1.1725803e-06 1.7077464)
(-6.0024951e-07 1.8869284e-06 1.7077405)
(5.8450338e-06 -3.1437287e-06 1.7077399)
(2.7690779e-06 -4.8861721e-06 1.7077425)
(-5.6459323e-06 -1.749816e-06 1.7077413)
(-4.4192262e-07 -3.9588476e-07 1.707741)
(4.8411286e-06 3.2788513e-08 1.7077423)
(7.9229417e-06 -1.5042252e-07 1.7077449)
(3.4244154e-06 -1.2688078e-06 1.7077477)
(-3.6890763e-06 -3.6890763e-06 1.7077457)
(-1.8693327e-06 -2.5000942e-06 1.7077426)
(-2.5442366e-06 1.35224e-06 1.7077415)
(8.0425658e-07 -5.9174711e-07 1.7077394)
(2.3134716e-06 -2.0082781e-06 1.7077409)
(-3.2281072e-06 -8.9548461e-07 1.7077403)
(5.0876114e-07 -3.9639469e-07 1.7077404)
(4.8835568e-06 -2.6169545e-07 1.7077418)
(7.0113757e-06 -3.6810927e-07 1.7077443)
(1.1725803e-06 -8.6940617e-07 1.7077464)
(-2.5000941e-06 -1.8693327e-06 1.7077426)
(-7.6751396e-08 -7.6751399e-08 1.7077438)
(-4.0455697e-06 -4.0455697e-06 1.7119561)
(8.0194484e-06 5.6067182e-06 1.7119541)
(5.0592692e-06 -5.8061245e-07 1.7119576)
(-1.4299882e-05 -9.042198e-07 1.7119548)
(-6.6167308e-06 -6.6146096e-07 1.7119533)
(-1.1526671e-07 -2.180256e-07 1.7119534)
(3.1044097e-06 4.8880057e-07 1.7119546)
(1.4587053e-06 1.0536014e-06 1.7119561)
(2.0238626e-06 -7.8866665e-07 1.7119556)
(1.6263009e-06 -3.1869124e-06 1.7119565)
(5.6067182e-06 8.0194484e-06 1.7119541)
(1.3216884e-05 1.3216884e-05 1.7119558)
(-4.7071378e-06 3.066447e-06 1.711957)
(-1.4421155e-05 2.8122635e-06 1.711954)
(-5.5874395e-06 3.534586e-06 1.7119527)
(1.6101256e-06 4.7354965e-06 1.7119531)
(5.0118502e-06 6.7742551e-06 1.7119549)
(-4.5749548e-07 9.1779495e-06 1.7119569)
(-4.336908e-06 6.8568975e-06 1.7119551)
(-7.7194485e-07 6.1554953e-07 1.7119546)
(-5.8061243e-07 5.0592692e-06 1.7119576)
(3.066447e-06 -4.7071378e-06 1.711957)
(-5.3453516e-06 -5.3453515e-06 1.7119579)
(-1.3831743e-05 -4.8057375e-06 1.7119551)
(-4.6934978e-06 -4.1151704e-06 1.7119539)
(3.1244024e-06 -3.1515252e-06 1.7119545)
(7.5468627e-06 -1.4930893e-06 1.7119567)
(1.5413477e-06 1.284058e-06 1.7119594)
(-6.5385374e-06 3.5264781e-06 1.7119577)
(-2.5345978e-06 2.8721852e-06 1.7119562)
(-9.042198e-07 -1.4299882e-05 1.7119548)
(2.8122635e-06 -1.4421155e-05 1.711954)
(-4.8057375e-06 -1.3831743e-05 1.7119551)
(-1.3190974e-05 -1.3190974e-05 1.7119524)
(-3.9332272e-06 -1.2522664e-05 1.7119514)
(4.2322066e-06 -1.1724458e-05 1.7119522)
(9.4474334e-06 -1.0596956e-05 1.7119546)
(4.562072e-06 -8.7874679e-06 1.7119578)
(-2.7487809e-06 -6.2325304e-06 1.7119568)
(-1.2081401e-06 -3.3230727e-06 1.7119559)
(-6.6146098e-07 -6.6167308e-06 1.7119533)
(3.534586e-06 -5.5874395e-06 1.7119527)
(-4.1151704e-06 -4.6934978e-06 1.7119539)
(-1.2522664e-05 -3.9332272e-06 1.7119514)
(-3.2269822e-06 -3.2269822e-06 1.7119505)
(5.0501103e-06 -2.5189472e-06 1.7119514)
(1.0483853e-05 -1.7506474e-06 1.7119541)
(5.9057733e-06 -8.5071184e-07 1.7119575)
(-1.0741422e-06 1.8416745e-07 1.7119568)
(-5.949593e-07 1.3529999e-06 1.7119562)
(-2.180256e-07 -1.1526672e-07 1.7119534)
(4.7354965e-06 1.6101256e-06 1.7119531)
(-3.1515252e-06 3.1244024e-06 1.7119545)
(-1.1724458e-05 4.2322067e-06 1.7119522)
(-2.5189472e-06 5.0501103e-06 1.7119514)
(5.7085414e-06 5.7085414e-06 1.7119525)
(1.1115669e-05 6.2456433e-06 1.7119553)
(6.4968868e-06 6.6628154e-06 1.7119588)
(-5.4506908e-07 6.8921312e-06 1.7119582)
(-4.2891847e-07 6.9010377e-06 1.7119577)
(4.8880056e-07 3.1044097e-06 1.7119546)
(6.7742551e-06 5.0118502e-06 1.7119549)
(-1.4930893e-06 7.5468627e-06 1.7119567)
(-1.0596956e-05 9.4474334e-06 1.7119546)
(-1.7506474e-06 1.0483853e-05 1.7119541)
(6.2456433e-06 1.1115669e-05 1.7119553)
(1.1438127e-05 1.1438127e-05 1.7119581)
(6.5522613e-06 1.1400696e-05 1.7119617)
(-8.3591987e-07 1.080183e-05 1.711961)
(-5.8902166e-07 9.4164772e-06 1.7119604)
(1.0536014e-06 1.4587053e-06 1.7119561)
(9.1779495e-06 -4.574955e-07 1.7119569)
(1.284058e-06 1.5413477e-06 1.7119594)
(-8.7874679e-06 4.5620719e-06 1.7119578)
(-8.5071186e-07 5.9057734e-06 1.7119575)
(6.6628154e-06 6.4968868e-06 1.7119588)
(1.1400696e-05 6.5522613e-06 1.7119617)
(5.8605899e-06 5.8605899e-06 1.7119651)
(-2.5292877e-06 3.8787769e-06 1.7119641)
(-1.352487e-06 2.7163986e-07 1.7119626)
(-7.8866665e-07 2.0238626e-06 1.7119556)
(6.8568975e-06 -4.336908e-06 1.7119551)
(3.5264781e-06 -6.5385374e-06 1.7119577)
(-6.2325304e-06 -2.7487809e-06 1.7119568)
(1.8416746e-07 -1.0741422e-06 1.7119568)
(6.8921312e-06 -5.4506909e-07 1.7119582)
(1.080183e-05 -8.3591988e-07 1.711961)
(3.8787769e-06 -2.5292878e-06 1.7119641)
(-6.4248699e-06 -6.4248699e-06 1.711962)
(-2.9937797e-06 -3.9506371e-06 1.7119586)
(-3.1869124e-06 1.6263009e-06 1.7119565)
(6.1554952e-07 -7.7194485e-07 1.7119546)
(2.8721852e-06 -2.5345977e-06 1.7119562)
(-3.3230727e-06 -1.2081401e-06 1.7119559)
(1.3529999e-06 -5.949593e-07 1.7119562)
(6.9010377e-06 -4.2891847e-07 1.7119577)
(9.4164772e-06 -5.8902167e-07 1.7119604)
(2.7163988e-07 -1.352487e-06 1.7119626)
(-3.950637e-06 -2.9937797e-06 1.7119586)
(2.9700159e-07 2.9700158e-07 1.7119596)
(-4.6741475e-06 -4.6741475e-06 1.7171748)
(8.8394603e-06 6.1843275e-06 1.717173)
(5.4834981e-06 -7.6549919e-07 1.7171765)
(-1.6295972e-05 -1.1199865e-06 1.717174)
(-7.1726402e-06 -8.285363e-07 1.7171728)
(6.5103563e-07 -2.9143151e-07 1.717173)
(4.5465451e-06 5.8806636e-07 1.7171744)
(2.0716132e-06 1.3307278e-06 1.717176)
(2.263348e-06 -9.4325407e-07 1.7171758)
(1.8955951e-06 -3.7698978e-06 1.7171766)
(6.1843275e-06 8.8394603e-06 1.717173)
(1.4702433e-05 1.4702433e-05 1.7171747)
(-5.4729728e-06 3.2987709e-06 1.717176)
(-1.6390528e-05 3.0455076e-06 1.7171734)
(-5.9298077e-06 3.9117573e-06 1.7171723)
(2.7759396e-06 5.3629566e-06 1.7171729)
(6.9797841e-06 7.8653486e-06 1.7171748)
(-2.2536741e-07 1.0869278e-05 1.7171769)
(-5.3875904e-06 7.9392481e-06 1.7171754)
(-9.310486e-07 5.4609885e-07 1.7171749)
(-7.6549918e-07 5.4834982e-06 1.7171765)
(3.2987709e-06 -5.4729727e-06 1.717176)
(-6.1734271e-06 -6.1734271e-06 1.7171771)
(-1.5682986e-05 -5.5254474e-06 1.7171745)
(-4.8551912e-06 -4.6954267e-06 1.7171736)
(4.6046269e-06 -3.5328413e-06 1.7171744)
(1.0052866e-05 -1.5306152e-06 1.7171767)
(2.1455128e-06 1.8239171e-06 1.7171795)
(-8.0598308e-06 4.4171415e-06 1.717178)
(-3.0331711e-06 3.5507089e-06 1.7171765)
(-1.1199865e-06 -1.6295972e-05 1.717174)
(3.0455076e-06 -1.6390528e-05 1.7171734)
(-5.5254475e-06 -1.5682986e-05 1.7171745)
(-1.4912527e-05 -1.4912527e-05 1.7171721)
(-3.9372016e-06 -1.4106025e-05 1.7171713)
(5.9407512e-06 -1.3142722e-05 1.7171722)
(1.2336542e-05 -1.1785831e-05 1.7171748)
(5.7223892e-06 -9.6150081e-06 1.7171781)
(-3.6607986e-06 -6.6075887e-06 1.7171772)
(-1.5086703e-06 -3.2419064e-06 1.7171763)
(-8.2853629e-07 -7.1726402e-06 1.7171728)
(3.9117573e-06 -5.9298077e-06 1.7171723)
(-4.6954267e-06 -4.8551912e-06 1.7171736)
(-1.4106025e-05 -3.9372016e-06 1.7171713)
(-3.0853855e-06 -3.0853855e-06 1.7171706)
(6.9248208e-06 -2.2341041e-06 1.7171717)
(1.358058e-05 -1.31376e-06 1.7171745)
(7.3237553e-06 -2.3859504e-07 1.717178)
(-1.686729e-06 9.851854e-07 1.7171774)
(-7.8938287e-07 2.3560901e-06 1.7171768)
(-2.9143151e-07 6.5103563e-07 1.717173)
(5.3629566e-06 2.7759396e-06 1.7171729)
(-3.5328413e-06 4.6046269e-06 1.7171744)
(-1.3142722e-05 5.9407512e-06 1.7171722)
(-2.2341041e-06 6.9248208e-06 1.7171717)
(7.7123766e-06 7.7123767e-06 1.717173)
(1.4332052e-05 8.3495521e-06 1.7171758)
(8.0213346e-06 8.8359621e-06 1.7171794)
(-1.0661134e-06 9.0838294e-06 1.7171789)
(-5.9473383e-07 9.0536862e-06 1.7171784)
(5.8806637e-07 4.5465451e-06 1.7171744)
(7.8653486e-06 6.9797841e-06 1.7171748)
(-1.5306152e-06 1.0052866e-05 1.7171767)
(-1.1785831e-05 1.2336543e-05 1.7171748)
(-1.31376e-06 1.358058e-05 1.7171745)
(8.3495521e-06 1.4332052e-05 1.7171758)
(1.4704165e-05 1.4704165e-05 1.7171788)
(8.0580326e-06 1.462255e-05 1.7171824)
(-1.4690049e-06 1.3808334e-05 1.7171818)
(-8.0947838e-07 1.1939275e-05 1.7171812)
(1.3307279e-06 2.0716132e-06 1.717176)
(1.0869278e-05 -2.2536742e-07 1.7171769)
(1.823917e-06 2.1455128e-06 1.7171795)
(-9.6150081e-06 5.7223893e-06 1.7171781)
(-2.3859504e-07 7.3237553e-06 1.717178)
(8.8359621e-06 8.0213346e-06 1.7171794)
(1.462255e-05 8.0580326e-06 1.7171824)
(7.1255041e-06 7.1255041e-06 1.7171859)
(-3.7493887e-06 4.4266779e-06 1.717185)
(-1.8407734e-06 -6.2590646e-07 1.7171835)
(-9.4325407e-07 2.263348e-06 1.7171758)
(7.9392481e-06 -5.3875904e-06 1.7171754)
(4.4171415e-06 -8.0598307e-06 1.717178)
(-6.6075887e-06 -3.6607986e-06 1.7171772)
(9.8518541e-07 -1.686729e-06 1.7171774)
(9.0838294e-06 -1.0661134e-06 1.7171789)
(1.3808334e-05 -1.4690049e-06 1.7171818)
(4.4266779e-06 -3.7493887e-06 1.717185)
(-9.2204154e-06 -9.2204154e-06 1.717183)
(-4.177868e-06 -5.5173642e-06 1.7171794)
(-3.7698978e-06 1.8955951e-06 1.7171766)
(5.4609886e-07 -9.310486e-07 1.7171749)
(3.5507089e-06 -3.0331711e-06 1.7171765)
(-3.2419064e-06 -1.5086703e-06 1.7171763)
(2.3560901e-06 -7.8938289e-07 1.7171768)
(9.0536862e-06 -5.9473384e-07 1.7171784)
(1.1939275e-05 -8.0947839e-07 1.7171812)
(-6.2590646e-07 -1.8407734e-06 1.7171835)
(-5.5173642e-06 -4.177868e-06 1.7171794)
(6.2792737e-07 6.2792737e-07 1.7171804)
(-5.24588e-06 -5.24588e-06 1.7233669)
(9.7016292e-06 6.749471e-06 1.7233653)
(5.9921353e-06 -9.2051533e-07 1.7233686)
(-1.8059116e-05 -1.3038284e-06 1.7233663)
(-7.5427528e-06 -9.6562173e-07 1.7233653)
(1.5615405e-06 -3.3837129e-07 1.7233657)
(6.1119657e-06 7.0803357e-07 1.7233672)
(2.8091291e-06 1.6231681e-06 1.7233689)
(2.5654136e-06 -1.0726139e-06 1.7233688)
(2.1631728e-06 -4.309959e-06 1.7233696)
(6.749471e-06 9.7016292e-06 1.7233653)
(1.6189676e-05 1.6189676e-05 1.7233669)
(-6.0878137e-06 3.6028819e-06 1.7233682)
(-1.8126776e-05 3.3526295e-06 1.7233658)
(-6.0945672e-06 4.3577154e-06 1.7233649)
(4.0720235e-06 6.0500553e-06 1.7233656)
(9.0542748e-06 8.9998364e-06 1.7233676)
(1.3815787e-07 1.2582984e-05 1.7233698)
(-6.334277e-06 9.0491485e-06 1.7233684)
(-1.0741722e-06 5.4708141e-07 1.723368)
(-9.2051533e-07 5.9921353e-06 1.7233686)
(3.6028819e-06 -6.0878137e-06 1.7233682)
(-6.8449113e-06 -6.8449113e-06 1.7233693)
(-1.7304283e-05 -6.0911149e-06 1.723367)
(-4.8453271e-06 -5.1259958e-06 1.7233662)
(6.2036615e-06 -3.7717382e-06 1.7233671)
(1.2644894e-05 -1.4391627e-06 1.7233695)
(2.8584412e-06 2.4693786e-06 1.7233723)
(-9.4704887e-06 5.3864643e-06 1.723371)
(-3.5048719e-06 4.3059469e-06 1.7233696)
(-1.3038283e-06 -1.8059116e-05 1.7233663)
(3.3526295e-06 -1.8126776e-05 1.7233658)
(-6.0911149e-06 -1.7304283e-05 1.723367)
(-1.640786e-05 -1.640786e-05 1.7233648)
(-3.7751905e-06 -1.5468015e-05 1.7233642)
(7.7588565e-06 -1.434655e-05 1.7233652)
(1.5295392e-05 -1.2770819e-05 1.7233679)
(6.9637849e-06 -1.0255275e-05 1.7233712)
(-4.4977087e-06 -6.8208554e-06 1.7233704)
(-1.7945172e-06 -3.0266146e-06 1.7233696)
(-9.6562171e-07 -7.5427528e-06 1.7233653)
(4.3577154e-06 -6.0945672e-06 1.7233649)
(-5.1259958e-06 -4.8453271e-06 1.7233662)
(-1.5468016e-05 -3.7751905e-06 1.7233642)
(-2.7840172e-06 -2.7840172e-06 1.7233637)
(8.9008584e-06 -1.7969175e-06 1.7233649)
(1.6736169e-05 -7.3356107e-07 1.7233677)
(8.8084044e-06 5.0609824e-07 1.7233712)
(-2.2418282e-06 1.9062038e-06 1.7233707)
(-9.7537801e-07 3.466477e-06 1.7233702)
(-3.3837129e-07 1.5615405e-06 1.7233657)
(6.0500552e-06 4.0720234e-06 1.7233656)
(-3.7717383e-06 6.2036615e-06 1.7233671)
(-1.434655e-05 7.7588565e-06 1.7233652)
(-1.7969175e-06 8.9008584e-06 1.7233649)
(9.8093127e-06 9.8093127e-06 1.7233662)
(1.7598407e-05 1.0538166e-05 1.7233691)
(9.6035498e-06 1.1085679e-05 1.7233727)
(-1.53733e-06 1.1345386e-05 1.7233723)
(-7.5433506e-07 1.12728e-05 1.7233719)
(7.0803356e-07 6.1119657e-06 1.7233672)
(8.9998363e-06 9.0542748e-06 1.7233676)
(-1.4391627e-06 1.2644894e-05 1.7233695)
(-1.2770819e-05 1.5295392e-05 1.7233679)
(-7.3356107e-07 1.6736169e-05 1.7233677)
(1.0538166e-05 1.7598407e-05 1.7233691)
(1.8012535e-05 1.8012535e-05 1.7233721)
(9.615624e-06 1.7880796e-05 1.7233757)
(-2.0547065e-06 1.6848799e-05 1.7233752)
(-1.0237685e-06 1.4500244e-05 1.7233746)
(1.6231681e-06 2.8091291e-06 1.7233689)
(1.2582984e-05 1.3815787e-07 1.7233698)
(2.4693786e-06 2.8584412e-06 1.7233723)
(-1.0255275e-05 6.9637849e-06 1.7233712)
(5.0609824e-07 8.8084044e-06 1.7233712)
(1.1085679e-05 9.6035498e-06 1.7233727)
(1.7880796e-05 9.6156241e-06 1.7233757)
(8.439813e-06 8.4398131e-06 1.7233792)
(-4.9178814e-06 5.0258332e-06 1.7233784)
(-2.3200378e-06 -1.4807124e-06 1.723377)
(-1.0726139e-06 2.5654136e-06 1.7233688)
(9.0491485e-06 -6.334277e-06 1.7233684)
(5.3864643e-06 -9.4704887e-06 1.723371)
(-6.8208554e-06 -4.4977087e-06 1.7233704)
(1.9062038e-06 -2.2418282e-06 1.7233707)
(1.1345386e-05 -1.53733e-06 1.7233723)
(1.6848799e-05 -2.0547065e-06 1.7233752)
(5.0258332e-06 -4.9178814e-06 1.7233784)
(-1.1975232e-05 -1.1975232e-05 1.7233765)
(-5.3614656e-06 -7.0967583e-06 1.7233729)
(-4.309959e-06 2.1631728e-06 1.7233696)
(5.4708141e-07 -1.0741722e-06 1.723368)
(4.3059469e-06 -3.5048719e-06 1.7233696)
(-3.0266146e-06 -1.7945172e-06 1.7233696)
(3.466477e-06 -9.7537802e-07 1.7233702)
(1.12728e-05 -7.5433508e-07 1.7233719)
(1.4500244e-05 -1.0237685e-06 1.7233746)
(-1.4807125e-06 -2.3200378e-06 1.723377)
(-7.0967583e-06 -5.3614656e-06 1.7233729)
(9.3227805e-07 9.3227804e-07 1.7233738)
(-5.7704221e-06 -5.7704221e-06 1.7304939)
(1.0561372e-05 7.2873257e-06 1.7304924)
(6.5435292e-06 -1.0556097e-06 1.7304956)
(-1.9615728e-05 -1.4653591e-06 1.7304935)
(-7.7621584e-06 -1.0825206e-06 1.7304927)
(2.5694418e-06 -3.6912551e-07 1.7304932)
(7.7422924e-06 8.375373e-07 1.7304948)
(3.6162663e-06 1.9191925e-06 1.7304965)
(2.9035007e-06 -1.1830231e-06 1.7304964)
(2.4267859e-06 -4.811686e-06 1.7304972)
(7.2873257e-06 1.0561372e-05 1.7304924)
(1.7633591e-05 1.7633591e-05 1.730494)
(-6.585498e-06 3.941489e-06 1.7304952)
(-1.9656095e-05 3.6961655e-06 1.7304931)
(-6.117808e-06 4.8339679e-06 1.7304924)
(5.4495287e-06 6.7567018e-06 1.7304932)